/*--------------------------------*- C++ -*----------------------------------*\
  =========                 |
  \\      /  F ield         | OpenFOAM: The Open Source CFD Toolbox
   \\    /   O peration     | Website:  https://openfoam.org
    \\  /    A nd           | Version:  7
     \\/     M anipulation  |
\*---------------------------------------------------------------------------*/
FoamFile
{
    version     2.0;
    format      ascii;
    class       volScalarField;
    location    "55.999258";
    object      p;
}
// * * * * * * * * * * * * * * * * * * * * * * * * * * * * * * * * * * * * * //

dimensions      [0 2 -2 0 0 0 0];

internalField   nonuniform List<scalar> 
5800
(
-0.219711
-0.221486
-0.222562
-0.223404
-0.224139
-0.224791
-0.225397
-0.225985
-0.226564
-0.227134
0.672617
0.655829
0.645559
0.634695
0.620875
0.604015
0.5845
0.562923
0.539894
0.51595
0.491539
0.672617
0.655829
0.645559
0.634695
0.620875
0.604015
0.5845
0.562923
0.539894
0.51595
0.491539
0.467036
0.442744
0.418906
0.395715
0.373314
0.351809
0.331293
0.311844
0.293489
0.66792
0.651271
0.641218
0.630644
0.617148
0.600612
0.581403
0.56011
0.537345
0.513641
0.489451
0.465148
0.441038
0.417365
0.394323
0.372056
0.350671
0.330253
0.310897
0.292677
0.658565
0.642194
0.632573
0.622575
0.609723
0.59383
0.575231
0.554506
0.532263
0.509039
0.485287
0.461384
0.437637
0.414292
0.391547
0.36955
0.3484
0.328179
0.309009
0.291057
0.644635
0.628677
0.619695
0.610553
0.598657
0.583721
0.566032
0.546151
0.524687
0.502176
0.479078
0.45577
0.432563
0.409708
0.387405
0.365809
0.345012
0.325084
0.306189
0.28863
0.626249
0.610834
0.602691
0.594673
0.584037
0.570362
0.553871
0.535105
0.514668
0.4931
0.470864
0.448342
0.425848
0.403639
0.381922
0.360855
0.340525
0.320987
0.302454
0.285403
0.603567
0.58882
0.581702
0.575063
0.565974
0.553853
0.53884
0.521448
0.502278
0.481874
0.460701
0.439149
0.417537
0.396126
0.375132
0.354718
0.334966
0.315913
0.297824
0.281385
0.576786
0.562824
0.556904
0.55188
0.54461
0.534319
0.521048
0.505279
0.487605
0.468574
0.448658
0.428252
0.407681
0.387214
0.367074
0.347433
0.328367
0.309891
0.292325
0.276591
0.546139
0.53307
0.528504
0.52531
0.52011
0.511907
0.500627
0.486713
0.470751
0.453292
0.434815
0.415722
0.396345
0.376959
0.357798
0.339044
0.320767
0.302957
0.285985
0.271035
0.511891
0.499814
0.496739
0.495567
0.492664
0.486785
0.477727
0.465885
0.451836
0.436134
0.419266
0.401641
0.383599
0.365424
0.34736
0.3296
0.31221
0.295151
0.278839
0.264741
0.474341
0.463345
0.461875
0.46289
0.462484
0.459143
0.452516
0.442944
0.430991
0.417217
0.402114
0.3861
0.369525
0.352681
0.335822
0.319155
0.302743
0.286516
0.270924
0.257731
0.433816
0.423978
0.424206
0.427542
0.429806
0.429189
0.42518
0.418054
0.408363
0.396669
0.383473
0.369201
0.354212
0.338807
0.323252
0.307769
0.292421
0.277102
0.262282
0.250035
0.390671
0.382055
0.384047
0.389811
0.394883
0.397148
0.395917
0.391393
0.384109
0.374631
0.363466
0.351051
0.337755
0.323887
0.309726
0.295509
0.281301
0.26696
0.252957
0.241685
0.345282
0.337941
0.341739
0.35
0.357987
0.363262
0.364942
0.36315
0.358397
0.35125
0.342225
0.331767
0.320256
0.308011
0.295322
0.282443
0.269446
0.256146
0.242998
0.232714
0.298046
0.292019
0.297638
0.308432
0.319404
0.327783
0.33248
0.333525
0.331405
0.326684
0.319888
0.311471
0.301824
0.291274
0.280124
0.268645
0.256921
0.244721
0.232458
0.223161
0.249377
0.244691
0.252119
0.265445
0.279435
0.290977
0.298765
0.302727
0.303315
0.301096
0.296599
0.29029
0.282569
0.273775
0.264218
0.254193
0.243797
0.232749
0.221391
0.213063
0.1997
0.196367
0.205566
0.221389
0.238389
0.253119
0.264042
0.27097
0.27432
0.274653
0.272506
0.268356
0.262609
0.255615
0.247694
0.239163
0.230143
0.2203
0.209859
0.202457
0.14945
0.14747
0.158376
0.176621
0.196585
0.21449
0.228557
0.238474
0.244614
0.247529
0.247764
0.245801
0.242061
0.236899
0.230644
0.223636
0.216034
0.207453
0.197937
0.191379
0.099064
0.0984224
0.110949
0.131506
0.154348
0.175375
0.192563
0.205463
0.214394
0.219898
0.222524
0.222763
0.221045
0.217734
0.213162
0.20769
0.201536
0.194289
0.185717
0.179836
0.0489801
0.0496471
0.0636858
0.0864092
0.112002
0.136063
0.156314
0.172159
0.183857
0.191935
0.196941
0.199377
0.199681
0.198225
0.195342
0.191404
0.186705
0.18089
0.173373
0.167861
-0.000366521
0.00155925
0.016987
0.0416965
0.0698722
0.096838
0.120062
0.138787
0.153202
0.163813
0.17117
0.175779
0.178087
0.178477
0.17728
0.174863
0.171595
0.167301
0.161123
0.155377
-0.0485421
-0.0454363
-0.0287556
-0.00227292
0.0282808
0.0579845
0.0840542
0.105565
0.122621
0.135705
0.145362
0.152103
0.156382
0.158593
0.159069
0.158154
0.156244
0.153442
0.149139
0.142843
-0.0951589
-0.0909199
-0.0731692
-0.04515
-0.0124588
0.0197783
0.0485347
0.0727063
0.092304
0.107777
0.119665
0.128479
0.13468
0.138672
0.140795
0.141368
0.140766
0.139314
0.13688
0.132229
-0.140104
-0.134356
-0.115927
-0.0865996
-0.0520442
-0.017514
0.0137379
0.0404191
0.0624339
0.0801915
0.0942207
0.105033
0.113093
0.118811
0.12254
0.124584
0.125275
0.125052
0.124229
0.121523
-0.182667
-0.175521
-0.156798
-0.126321
-0.0901898
-0.0536377
-0.0201123
0.0089006
0.0331852
0.0531027
0.069167
0.081887
0.0917279
0.0991062
0.104384
0.107865
0.109842
0.110769
0.111227
0.110087
-0.222512
-0.21424
-0.195064
-0.164162
-0.126633
-0.0883511
-0.0528037
-0.0216624
0.00472312
0.0266569
0.044633
0.0591551
0.0706866
0.0796462
0.0864045
0.0912692
0.0945043
0.0965413
0.098083
0.0981905
-0.259407
-0.250195
-0.230637
-0.199521
-0.161197
-0.12143
-0.0841368
-0.0510952
-0.0227982
0.000990446
0.0207399
0.0369444
0.0500638
0.0605157
0.0686749
0.0748555
0.0793055
0.0824211
0.0849602
0.086176
-0.293167
-0.283095
-0.26337
-0.232209
-0.193507
-0.152687
-0.113928
-0.079236
-0.0492369
-0.0237711
-0.00240085
0.0153543
0.0299477
0.0417933
0.0512668
0.0586872
0.0642946
0.0684511
0.0719335
0.0741852
-0.323604
-0.31273
-0.293048
-0.262139
-0.22333
-0.181902
-0.142011
-0.105939
-0.0744637
-0.0475145
-0.0246878
-0.00552454
0.010419
0.0235513
0.0342458
0.0428241
0.0495231
0.0546698
0.0590391
0.0622614
-0.350563
-0.338951
-0.319493
-0.289136
-0.250575
-0.208884
-0.168238
-0.131076
-0.0983639
-0.0701394
-0.0460306
-0.0256107
-0.00844984
0.00585511
0.0176712
0.0273207
0.0350387
0.0411165
0.0463107
0.050439
-0.373942
-0.361662
-0.342581
-0.313047
-0.275108
-0.233528
-0.192482
-0.154552
-0.120834
-0.0915585
-0.0663499
-0.0448317
-0.0265954
-0.011237
0.00159602
0.0122253
0.0208855
0.0278303
0.0337861
0.0387597
-0.393691
-0.380822
-0.362246
-0.333773
-0.29681
-0.255731
-0.214646
-0.176268
-0.141847
-0.111676
-0.0855792
-0.0631249
-0.0439636
-0.0276732
-0.013934
-0.00241936
0.00710261
0.0148484
0.0215013
0.0272636
-0.409819
-0.396444
-0.378477
-0.351267
-0.315608
-0.275413
-0.234654
-0.196142
-0.16129
-0.130501
-0.103665
-0.0804376
-0.0605094
-0.0434081
-0.02888
-0.0165754
-0.00627616
0.00220486
0.00948536
0.0159843
-0.422388
-0.408597
-0.391316
-0.365536
-0.331468
-0.292521
-0.252455
-0.214129
-0.179112
-0.147946
-0.120596
-0.0967831
-0.0761725
-0.0584065
-0.0432098
-0.0302099
-0.0192238
-0.0100684
-0.00224045
0.00494626
-0.431517
-0.417403
-0.400862
-0.376632
-0.344403
-0.307038
-0.26802
-0.230205
-0.195295
-0.163978
-0.136316
-0.112087
-0.090976
-0.0726741
-0.0568853
-0.0432981
-0.0317202
-0.0219423
-0.0136514
-0.00584246
-0.437372
-0.423032
-0.407262
-0.38466
-0.354464
-0.318979
-0.281346
-0.244359
-0.209832
-0.178591
-0.150808
-0.126329
-0.104879
-0.0861694
-0.0699189
-0.0558546
-0.0437352
-0.0334041
-0.0246987
-0.0164059
-0.440166
-0.425704
-0.410712
-0.389771
-0.361746
-0.328392
-0.292453
-0.256603
-0.222729
-0.191791
-0.164079
-0.139512
-0.117866
-0.0988752
-0.0822815
-0.0678318
-0.0552831
-0.0444877
-0.0352897
-0.0268046
-0.440151
-0.425675
-0.411454
-0.392161
-0.366386
-0.335359
-0.301388
-0.266963
-0.234005
-0.203595
-0.176141
-0.151647
-0.129942
-0.110793
-0.0939629
-0.0792202
-0.0663374
-0.0551561
-0.0455419
-0.0368731
-0.437612
-0.423233
-0.409763
-0.392069
-0.36856
-0.339996
-0.308223
-0.275487
-0.243695
-0.21403
-0.187017
-0.162752
-0.141122
-0.121931
-0.104969
-0.0900242
-0.0768883
-0.0654003
-0.0554505
-0.0464974
-0.432861
-0.41869
-0.405944
-0.389765
-0.368482
-0.34245
-0.313052
-0.282239
-0.251847
-0.223134
-0.196737
-0.172851
-0.151425
-0.132307
-0.115312
-0.100253
-0.0869397
-0.0752152
-0.064987
-0.0557339
-0.426221
-0.412371
-0.400317
-0.385548
-0.366398
-0.342902
-0.315997
-0.2873
-0.25852
-0.230955
-0.205344
-0.181977
-0.160878
-0.141939
-0.125008
-0.109919
-0.0965009
-0.0846038
-0.0741541
-0.0646576
-0.418024
-0.404605
-0.393214
-0.379733
-0.362581
-0.341558
-0.317202
-0.290767
-0.263786
-0.237551
-0.212883
-0.19017
-0.169512
-0.150854
-0.134076
-0.119036
-0.105585
-0.0935785
-0.0829668
-0.0733027
-0.408599
-0.395713
-0.384961
-0.372642
-0.35732
-0.33865
-0.31683
-0.292754
-0.267726
-0.242985
-0.219409
-0.197477
-0.177368
-0.159084
-0.142541
-0.127626
-0.114209
-0.102155
-0.0914363
-0.0816744
-0.398263
-0.386005
-0.375874
-0.364593
-0.350914
-0.334428
-0.315069
-0.293388
-0.270429
-0.247325
-0.224979
-0.203947
-0.184488
-0.166664
-0.150434
-0.135712
-0.122393
-0.110349
-0.0995707
-0.0897678
-0.387314
-0.375766
-0.366245
-0.355889
-0.343661
-0.329154
-0.312121
-0.292813
-0.271993
-0.250645
-0.229653
-0.209633
-0.190917
-0.173634
-0.157787
-0.143322
-0.130158
-0.118179
-0.107381
-0.0975829
-0.376024
-0.365255
-0.356338
-0.346809
-0.335845
-0.323093
-0.308204
-0.291186
-0.272527
-0.253021
-0.233493
-0.214587
-0.196704
-0.180036
-0.164637
-0.150486
-0.137529
-0.125665
-0.114885
-0.105129
-0.364636
-0.354698
-0.346386
-0.337601
-0.32773
-0.316503
-0.303539
-0.288675
-0.272147
-0.254535
-0.23656
-0.218862
-0.201895
-0.185913
-0.171022
-0.157236
-0.144532
-0.132828
-0.122101
-0.112421
-0.353358
-0.344286
-0.336581
-0.328478
-0.319549
-0.309626
-0.298352
-0.285459
-0.270978
-0.255271
-0.238914
-0.22251
-0.206538
-0.191307
-0.176979
-0.163606
-0.151196
-0.139694
-0.129052
-0.119475
-0.342363
-0.334174
-0.327079
-0.31961
-0.311499
-0.302679
-0.292855
-0.281721
-0.269155
-0.255317
-0.240617
-0.225577
-0.210674
-0.19626
-0.182547
-0.169631
-0.157551
-0.146288
-0.13576
-0.12631
-0.331791
-0.324484
-0.317999
-0.31113
-0.303737
-0.295848
-0.287248
-0.277641
-0.266818
-0.25477
-0.241731
-0.228107
-0.214342
-0.200808
-0.187762
-0.175346
-0.163628
-0.152636
-0.142249
-0.132946
-0.321746
-0.315304
-0.309425
-0.303131
-0.296381
-0.289279
-0.2817
-0.273394
-0.264114
-0.253732
-0.242319
-0.230142
-0.217574
-0.204983
-0.192658
-0.180783
-0.169458
-0.158766
-0.148543
-0.139401
-0.312305
-0.306696
-0.301413
-0.295674
-0.28951
-0.283084
-0.276353
-0.269133
-0.261186
-0.252313
-0.24245
-0.231721
-0.220398
-0.208811
-0.19726
-0.185971
-0.17507
-0.164703
-0.154667
-0.145698
-0.303516
-0.298695
-0.293991
-0.288788
-0.28317
-0.277335
-0.271312
-0.26499
-0.258169
-0.250625
-0.242201
-0.232887
-0.222836
-0.212308
-0.20159
-0.190936
-0.180492
-0.170475
-0.160646
-0.151857
-0.295404
-0.291317
-0.287168
-0.282482
-0.277377
-0.272073
-0.266651
-0.261069
-0.255183
-0.24878
-0.241652
-0.233684
-0.224906
-0.215483
-0.205658
-0.195692
-0.185744
-0.176105
-0.166503
-0.1579
-0.287976
-0.284561
-0.280935
-0.276746
-0.272129
-0.26731
-0.262409
-0.257444
-0.252328
-0.246883
-0.240891
-0.234166
-0.22663
-0.21834
-0.209463
-0.200247
-0.190843
-0.181613
-0.172261
-0.163848
-0.281223
-0.278411
-0.275273
-0.271556
-0.267403
-0.263038
-0.258602
-0.25416
-0.249677
-0.245025
-0.240003
-0.234393
-0.228033
-0.220877
-0.212994
-0.204594
-0.19579
-0.187013
-0.177935
-0.169726
-0.275123
-0.272845
-0.270155
-0.266882
-0.263171
-0.259233
-0.255224
-0.251236
-0.247282
-0.243282
-0.23907
-0.234429
-0.229148
-0.223096
-0.216235
-0.208711
-0.200575
-0.192306
-0.183541
-0.175548
-0.269644
-0.267828
-0.265544
-0.262685
-0.259393
-0.255863
-0.252253
-0.248673
-0.245169
-0.241706
-0.238161
-0.234341
-0.230018
-0.225004
-0.219163
-0.212564
-0.205169
-0.197478
-0.189065
-0.181368
-0.264744
-0.263322
-0.261402
-0.258927
-0.25603
-0.252889
-0.249657
-0.246454
-0.243346
-0.240332
-0.237333
-0.234192
-0.230692
-0.226618
-0.221762
-0.216113
-0.209521
-0.2025
-0.194492
-0.187158
-0.260376
-0.259283
-0.257686
-0.255563
-0.253036
-0.250267
-0.247398
-0.24455
-0.2418
-0.239173
-0.236624
-0.234035
-0.231221
-0.227966
-0.224025
-0.219311
-0.213584
-0.207284
-0.199788
-0.193035
-0.256485
-0.255663
-0.25435
-0.252548
-0.250369
-0.247953
-0.245433
-0.242924
-0.240509
-0.238225
-0.236053
-0.233914
-0.231657
-0.229089
-0.225961
-0.222127
-0.217278
-0.211801
-0.204784
-0.198754
-0.253012
-0.252412
-0.251348
-0.249839
-0.247983
-0.245902
-0.243718
-0.241536
-0.239438
-0.237466
-0.235622
-0.23385
-0.23204
-0.23003
-0.227593
-0.224538
-0.220599
-0.215748
-0.210168
-0.203077
-0.249897
-0.24948
-0.248633
-0.247389
-0.245833
-0.244069
-0.242205
-0.240339
-0.238544
-0.236866
-0.235313
-0.233852
-0.232401
-0.230832
-0.228962
-0.226541
-0.223565
-0.218995
-0.215524
-0.206795
-0.247082
-0.246815
-0.246159
-0.245156
-0.243877
-0.24241
-0.240851
-0.239286
-0.237783
-0.236382
-0.235097
-0.233906
-0.232751
-0.231527
-0.230114
-0.228161
-0.226171
-0.221477
-0.220382
-0.210015
-0.244508
-0.244372
-0.243884
-0.2431
-0.242075
-0.240885
-0.239613
-0.238335
-0.237109
-0.235972
-0.234937
-0.233988
-0.233082
-0.232133
-0.231084
-0.229456
-0.228397
-0.223269
-0.224757
-0.212448
-0.242123
-0.242104
-0.241772
-0.241184
-0.240391
-0.239457
-0.238452
-0.237443
-0.236479
-0.235592
-0.23479
-0.234063
-0.233374
-0.232654
-0.231888
-0.230498
-0.230214
-0.224595
-0.2286
-0.214026
-0.239882
-0.239976
-0.239787
-0.239379
-0.238797
-0.238097
-0.237338
-0.236578
-0.235858
-0.235202
-0.234618
-0.234095
-0.233599
-0.233077
-0.232526
-0.23135
-0.231585
-0.225732
-0.231631
-0.215025
-0.23775
-0.23796
-0.237904
-0.237661
-0.237272
-0.236782
-0.236247
-0.235712
-0.235214
-0.234772
-0.234388
-0.23405
-0.233728
-0.23338
-0.232992
-0.232039
-0.232502
-0.226866
-0.233589
-0.21593
-0.235701
-0.236035
-0.236105
-0.236011
-0.235796
-0.235497
-0.235161
-0.234829
-0.23453
-0.234279
-0.234074
-0.233903
-0.233737
-0.233541
-0.233281
-0.232554
-0.233017
-0.228003
-0.234475
-0.217118
-0.23372
-0.234186
-0.234379
-0.234422
-0.234363
-0.234232
-0.234072
-0.233919
-0.233796
-0.233712
-0.233666
-0.233641
-0.23361
-0.233544
-0.233391
-0.23287
-0.233212
-0.229023
-0.234541
-0.218633
-0.231801
-0.232408
-0.23272
-0.23289
-0.23297
-0.232988
-0.232981
-0.232982
-0.23301
-0.233071
-0.23316
-0.23326
-0.233346
-0.233386
-0.233324
-0.232967
-0.23317
-0.229789
-0.234111
-0.22026
-0.229948
-0.230706
-0.231132
-0.231418
-0.231622
-0.231769
-0.231894
-0.232027
-0.232182
-0.232365
-0.232567
-0.232771
-0.232951
-0.233078
-0.233092
-0.232838
-0.232969
-0.230211
-0.233449
-0.22175
-0.228175
-0.229087
-0.229625
-0.230017
-0.23033
-0.230588
-0.230825
-0.231067
-0.231328
-0.231611
-0.231905
-0.232193
-0.232449
-0.232642
-0.232709
-0.232505
-0.232654
-0.230278
-0.232746
-0.222951
-0.2265
-0.227568
-0.228211
-0.228699
-0.229108
-0.22946
-0.22979
-0.230123
-0.23047
-0.230833
-0.2312
-0.231554
-0.231868
-0.232109
-0.232219
-0.232129
-0.232056
-0.230217
-0.232039
-0.223812
-0.224949
-0.226168
-0.226909
-0.227482
-0.227974
-0.228406
-0.228813
-0.229218
-0.229634
-0.230059
-0.230484
-0.230887
-0.231243
-0.231518
-0.23166
-0.231625
-0.231411
-0.230192
-0.230843
-0.224855
-0.223547
-0.224909
-0.22574
-0.226387
-0.22695
-0.227447
-0.227915
-0.228378
-0.228848
-0.229321
-0.229788
-0.230228
-0.230615
-0.230913
-0.231076
-0.231063
-0.230803
-0.229964
-0.229825
-0.22576
-0.222324
-0.223815
-0.224723
-0.225434
-0.226055
-0.226606
-0.227122
-0.22763
-0.22814
-0.228649
-0.229147
-0.229614
-0.230021
-0.230334
-0.230512
-0.230509
-0.230248
-0.229607
-0.22907
-0.221307
-0.222907
-0.223881
-0.224644
-0.22531
-0.225902
-0.226456
-0.226997
-0.227537
-0.228072
-0.228592
-0.229076
-0.229497
-0.229821
-0.230007
-0.230011
-0.229766
-0.229226
-0.228528
-0.22052
-0.222207
-0.22323
-0.224032
-0.224734
-0.225356
-0.225937
-0.226502
-0.227062
-0.227615
-0.22815
-0.228646
-0.229075
-0.229405
-0.229597
-0.229605
-0.229378
-0.228892
-0.228156
-0.219984
-0.221729
-0.222787
-0.223616
-0.22434
-0.224983
-0.22558
-0.22616
-0.226734
-0.227298
-0.227842
-0.228345
-0.228779
-0.229113
-0.229307
-0.22932
-0.229106
-0.228648
-0.227921
-0.219712
-0.221487
-0.222563
-0.223405
-0.22414
-0.224792
-0.225399
-0.225986
-0.226566
-0.227136
-0.227684
-0.22819
-0.228626
-0.228961
-0.229157
-0.229172
-0.228965
-0.228521
-0.227807
0.134707
0.137806
0.145213
0.151865
0.160452
0.16619
0.171712
0.171812
0.170924
0.161298
0.135922
0.139091
0.146746
0.153707
0.162848
0.1694
0.176139
0.177811
0.179207
0.172058
0.137126
0.140304
0.148216
0.15546
0.16518
0.172491
0.180433
0.183527
0.186957
0.182192
0.138282
0.141477
0.149656
0.157176
0.167462
0.175498
0.184582
0.189063
0.194334
0.191942
0.13939
0.142597
0.151042
0.158822
0.169648
0.178375
0.188533
0.194379
0.201323
0.201257
0.140448
0.143673
0.152371
0.160396
0.171738
0.181128
0.192284
0.199462
0.207933
0.210111
0.141453
0.14466
0.153647
0.161895
0.173724
0.183748
0.195821
0.204292
0.214163
0.218481
0.142402
0.145602
0.154829
0.163312
0.175597
0.186231
0.199138
0.20885
0.22001
0.226343
0.143297
0.146491
0.156021
0.164653
0.177352
0.188567
0.202228
0.213117
0.225464
0.233676
0.144131
0.147299
0.15695
0.165906
0.178981
0.190749
0.205086
0.217078
0.230513
0.240459
0.144902
0.148054
0.157991
0.167059
0.180478
0.192768
0.207707
0.220717
0.235145
0.246673
0.145606
0.148741
0.158849
0.168105
0.181838
0.194616
0.210087
0.224021
0.239347
0.2523
0.14624
0.149358
0.15965
0.169051
0.183058
0.196283
0.21222
0.226982
0.243108
0.257326
0.146801
0.149904
0.160349
0.169887
0.184133
0.197761
0.214102
0.22959
0.246418
0.261739
0.147287
0.150375
0.160956
0.170613
0.185061
0.199044
0.215727
0.231838
0.249267
0.265528
0.147695
0.150771
0.161464
0.171224
0.185839
0.200124
0.217091
0.23372
0.251649
0.268689
0.148024
0.15109
0.161873
0.171716
0.186465
0.200995
0.21819
0.235231
0.253559
0.271217
0.148272
0.15133
0.162181
0.172089
0.186936
0.201652
0.219018
0.236368
0.254994
0.273111
0.148438
0.15149
0.162387
0.172338
0.187251
0.202093
0.219572
0.237127
0.255951
0.274373
0.148522
0.151571
0.162491
0.172463
0.187409
0.202314
0.21985
0.237507
0.25643
0.275003
0.0285703
0.0272474
0.025072
0.022493
0.0197873
0.0171489
0.0146706
0.0124081
0.0103727
0.00856603
0.0286986
0.0273725
0.0251882
0.0225998
0.0198833
0.0172351
0.0147467
0.0124751
0.0104309
0.0086163
0.028948
0.027615
0.0254144
0.0228075
0.0200708
0.0174029
0.0148952
0.0126056
0.0105446
0.00871547
0.0293118
0.0279688
0.0257451
0.0231114
0.0203451
0.0176485
0.0151123
0.0127965
0.0107112
0.00886104
0.0297839
0.0284283
0.0261751
0.0235067
0.0207022
0.0179682
0.0153951
0.0130452
0.0109283
0.00905075
0.0303591
0.0289885
0.0266997
0.0239894
0.0211385
0.0183589
0.0157408
0.0133493
0.0111939
0.00928275
0.0310324
0.0296447
0.0273148
0.0245557
0.0216508
0.0188179
0.0161471
0.0137068
0.011506
0.00955547
0.0317991
0.0303927
0.0280164
0.0252025
0.0222364
0.019343
0.0166119
0.014116
0.0118632
0.00986755
0.0326551
0.0312286
0.0288012
0.0259268
0.0228926
0.0199319
0.0171337
0.0145753
0.0122643
0.0102179
0.0335963
0.0321488
0.0296658
0.0267258
0.0236175
0.0205831
0.0177108
0.0150836
0.012708
0.0106055
0.0346189
0.03315
0.0306075
0.0275972
0.024409
0.0212949
0.0183421
0.0156398
0.0131937
0.0110296
0.0357195
0.034229
0.0316233
0.0285389
0.0252655
0.0220661
0.0190265
0.0162432
0.0137205
0.0114897
0.0368945
0.0353828
0.0327108
0.0295488
0.0261855
0.0228956
0.0197631
0.016893
0.014288
0.0119853
0.0381407
0.0366086
0.0338674
0.0306251
0.0271676
0.0237825
0.0205515
0.0175888
0.0148958
0.0125161
0.039455
0.0379036
0.0350908
0.0317662
0.0282109
0.0247261
0.021391
0.0183303
0.0155437
0.0130821
0.0408342
0.0392652
0.0363789
0.0329705
0.0293141
0.0257257
0.0222813
0.0191174
0.0162316
0.0136831
0.0422753
0.0406908
0.0377294
0.0342368
0.0304766
0.026781
0.0232223
0.01995
0.0169597
0.0143193
0.0437753
0.0421777
0.0391403
0.0355636
0.0316976
0.0278917
0.0242138
0.0208284
0.0177281
0.014991
0.0453313
0.0437234
0.0406094
0.0369499
0.0329765
0.0290574
0.025256
0.0217527
0.0185372
0.0156987
0.0469403
0.0453253
0.0421348
0.0383945
0.0343126
0.0302783
0.026349
0.0227233
0.0193875
0.0164427
0.0485995
0.0469807
0.0437145
0.0398963
0.0357056
0.0315542
0.0274932
0.0237409
0.0202796
0.0172238
0.0503059
0.0486872
0.0453465
0.0414545
0.037155
0.0328852
0.0286889
0.0248061
0.0212143
0.0180426
0.0520567
0.0504419
0.0470289
0.043068
0.0386605
0.0342716
0.0299369
0.0259197
0.0221924
0.0189002
0.0538488
0.0522422
0.0487598
0.044736
0.0402217
0.0357135
0.0312376
0.0270826
0.023215
0.0197975
0.0556794
0.0540852
0.0505371
0.0464575
0.0418383
0.0372114
0.0325919
0.0282959
0.0242832
0.0207357
0.0575456
0.0559682
0.0523591
0.0482317
0.04351
0.0387657
0.0340007
0.0295608
0.0253982
0.021716
0.0594444
0.0578881
0.0542239
0.0500577
0.0452365
0.0403767
0.035465
0.0308784
0.0265613
0.0227399
0.0613727
0.0598421
0.0561296
0.0519345
0.0470175
0.0420452
0.0369857
0.0322504
0.0277742
0.0238088
0.0633277
0.0618272
0.0580743
0.0538611
0.0488527
0.0437716
0.0385642
0.0336781
0.0290385
0.0249243
0.0653062
0.0638403
0.0600562
0.0558364
0.0507417
0.0455566
0.0402016
0.0351632
0.0303558
0.0260884
0.0673054
0.0658783
0.0620734
0.0578592
0.0526843
0.047401
0.0418992
0.0367074
0.0317281
0.0273028
0.069322
0.0679381
0.064124
0.0599282
0.05468
0.0493056
0.0436586
0.0383125
0.0331574
0.0285698
0.0713532
0.0700166
0.0662062
0.0620422
0.0567285
0.051271
0.045481
0.0399806
0.0346459
0.0298914
0.0733959
0.0721107
0.0683181
0.0641994
0.0588294
0.0532981
0.047368
0.0417135
0.0361957
0.0312701
0.0754469
0.0742172
0.0704577
0.0663983
0.0609823
0.0553876
0.0493211
0.0435134
0.0378095
0.0327083
0.0775033
0.0763332
0.072623
0.0686371
0.0631868
0.0575404
0.0513418
0.0453826
0.0394896
0.0342088
0.0795621
0.0784554
0.074812
0.0709138
0.0654423
0.059757
0.0534317
0.0473233
0.0412389
0.0357743
0.0816202
0.0805809
0.0770225
0.0732265
0.0677484
0.0620382
0.0555924
0.0493379
0.0430601
0.0374079
0.0836747
0.0827067
0.0792525
0.0755729
0.0701045
0.0643845
0.0578253
0.0514289
0.0449562
0.0391126
0.0857226
0.08483
0.0814995
0.0779507
0.0725099
0.0667961
0.060132
0.0535989
0.0469304
0.0408918
0.0877612
0.0869478
0.0837613
0.0803574
0.074964
0.0692735
0.062514
0.0558504
0.0489859
0.042749
0.0897875
0.0890573
0.0860355
0.0827906
0.077466
0.0718167
0.0649728
0.0581861
0.051126
0.0446876
0.0917989
0.091156
0.0883195
0.0852476
0.0800149
0.0744255
0.0675097
0.0606088
0.0533542
0.0467116
0.0937927
0.0932412
0.0906107
0.0877256
0.0826097
0.0770997
0.0701263
0.0631212
0.055674
0.0488249
0.0957663
0.0953104
0.0929065
0.0902218
0.0852493
0.0798388
0.0728237
0.0657261
0.0580891
0.0510314
0.0977172
0.0973612
0.095204
0.0927334
0.0879321
0.0826419
0.0756032
0.0684262
0.0606031
0.0533354
0.099643
0.0993913
0.0975004
0.0952574
0.0906567
0.0855081
0.078466
0.0712242
0.0632199
0.0557414
0.101542
0.101398
0.0997928
0.0977909
0.0934213
0.088436
0.0814131
0.0741228
0.0659432
0.0582538
0.103411
0.10338
0.102078
0.100331
0.0962238
0.091424
0.0844454
0.0771245
0.0687768
0.0608774
0.105248
0.105335
0.104354
0.102874
0.099062
0.0944704
0.0875638
0.0802318
0.0717247
0.0636169
0.107053
0.107261
0.106616
0.105417
0.101933
0.097573
0.0907689
0.083447
0.0747905
0.0664775
0.108822
0.109156
0.108863
0.107958
0.104835
0.100729
0.094061
0.0867722
0.077978
0.0694643
0.110555
0.111019
0.111091
0.110492
0.107764
0.103937
0.0974405
0.0902093
0.081291
0.0725828
0.11225
0.112847
0.113296
0.113018
0.110718
0.107192
0.100907
0.0937596
0.0847333
0.0758385
0.113905
0.11464
0.115477
0.115531
0.113691
0.110492
0.104461
0.0974245
0.0883085
0.0792373
0.11552
0.116395
0.117631
0.11803
0.116681
0.113834
0.108102
0.101205
0.0920204
0.0827852
0.117093
0.118113
0.119753
0.120509
0.119684
0.117212
0.111828
0.1051
0.0958729
0.0864884
0.118624
0.11979
0.121843
0.122968
0.122694
0.120625
0.115639
0.109111
0.09987
0.0903533
0.120112
0.121427
0.123897
0.125402
0.125707
0.124066
0.119533
0.113237
0.104016
0.0943865
0.121556
0.123023
0.125913
0.127809
0.128719
0.127532
0.123507
0.117476
0.108316
0.0985944
0.122956
0.124576
0.127888
0.130186
0.131724
0.131018
0.127558
0.121826
0.112776
0.102984
0.124312
0.126086
0.129821
0.13253
0.134716
0.134519
0.131684
0.126285
0.117403
0.107559
0.125623
0.127552
0.131709
0.134839
0.137691
0.138031
0.135879
0.130851
0.122203
0.112326
0.126889
0.128974
0.133551
0.137109
0.140642
0.141548
0.140138
0.135519
0.127189
0.117288
0.128111
0.13035
0.135345
0.139337
0.143565
0.145065
0.144455
0.140287
0.132376
0.122456
0.129288
0.131682
0.13709
0.141523
0.146454
0.148577
0.148825
0.145154
0.137778
0.127844
0.130421
0.132969
0.138786
0.143665
0.149306
0.152084
0.15324
0.150116
0.143398
0.133413
0.13151
0.13421
0.140431
0.145761
0.152114
0.155573
0.157675
0.155152
0.149222
0.138985
0.132554
0.135402
0.142013
0.147788
0.154842
0.158995
0.162067
0.160216
0.155316
0.144441
0.133558
0.136533
0.143517
0.149708
0.157456
0.162317
0.166447
0.165414
0.16214
0.150786
0.00736686
0.00667558
0.00597628
0.00527184
0.00456305
0.00384987
0.00313234
0.00241081
0.00168577
0.000957774
0.000227289
-0.000505237
-0.00123937
-0.00197469
-0.00271077
-0.00344716
-0.00418343
-0.00491911
-0.00565371
-0.00638683
0.00741291
0.00672068
0.00602007
0.00531481
0.0046055
0.00389169
0.00317319
0.00245027
0.00172346
0.00099331
0.000260298
-0.000475123
-0.00121251
-0.00195142
-0.00269141
-0.003432
-0.00417279
-0.00491336
-0.00565339
-0.00639255
0.00750457
0.00680864
0.00610284
0.00539247
0.00467835
0.0039597
0.00323602
0.00250753
0.00177481
0.00103848
0.000299077
-0.000442944
-0.00118712
-0.001933
-0.00268011
-0.00342796
-0.00417608
-0.00492397
-0.00567107
-0.00641689
0.00763822
0.00693523
0.0062203
0.00550115
0.00477896
0.00405246
0.00332074
0.0025839
0.00184259
0.00109749
0.000349176
-0.000401872
-0.0011552
-0.00191033
-0.00266678
-0.00342404
-0.00418162
-0.00493901
-0.00569576
-0.00645147
0.00781184
0.00709865
0.00637106
0.00563986
0.00490667
0.00416955
0.00342705
0.0026791
0.00192642
0.0011698
0.000409878
-0.000352876
-0.00111801
-0.00188503
-0.00265345
-0.00342275
-0.00419241
-0.00496192
-0.00573077
-0.00649852
0.00802382
0.00729743
0.00655376
0.00580733
0.00506027
0.00430981
0.00355381
0.00279205
0.00202532
0.00125456
0.000480444
-0.000296546
-0.00107596
-0.00185732
-0.0026401
-0.00342379
-0.00420783
-0.00499171
-0.0057749
-0.00655699
0.00827269
0.0075302
0.00676712
0.0060024
0.00523872
0.00447232
0.00370025
0.00292209
0.00213877
0.00135135
0.000560574
-0.000233074
-0.00102916
-0.0018272
-0.00262668
-0.00342705
-0.00422776
-0.00502827
-0.00582805
-0.0066267
0.00855722
0.0077958
0.0070101
0.00622414
0.00544121
0.00465636
0.00386573
0.00306867
0.00226626
0.00145974
0.00064991
-0.000162759
-0.000977848
-0.00179488
-0.00261333
-0.00343264
-0.00425224
-0.00507159
-0.00589014
-0.00670752
0.00887634
0.00809325
0.00728179
0.00647174
0.00566701
0.00486129
0.00404967
0.00323126
0.00240735
0.00157935
0.000748113
-8.58854e-05
-0.000922259
-0.00176054
-0.00260019
-0.00344063
-0.00428131
-0.00512165
-0.00596113
-0.00679937
0.00922922
0.00842173
0.00758145
0.00674454
0.00591554
0.00508659
0.00425159
0.00340945
0.00256165
0.00170982
0.000854883
-2.71241e-06
-0.00086261
-0.00172435
-0.00258739
-0.00345115
-0.00431505
-0.00517853
-0.00604104
-0.00690226
0.00961515
0.00878057
0.00790846
0.00704197
0.0061863
0.0053318
0.00447109
0.00360284
0.00272881
0.00185085
0.000969947
8.65176e-05
-0.000799117
-0.00168651
-0.00257511
-0.00346433
-0.00435359
-0.00524231
-0.00612996
-0.00701625
0.0100336
0.00916928
0.00826232
0.00736359
0.00647889
0.00559656
0.00470783
0.00381114
0.00290855
0.00200218
0.00109306
0.00018158
-0.000731988
-0.00164721
-0.00256353
-0.00348034
-0.00439707
-0.00531314
-0.006228
-0.00714143
0.0104842
0.00958744
0.00864267
0.00770906
0.00679301
0.00588059
0.00496154
0.00403408
0.00310063
0.00216357
0.00122401
0.000282269
-0.000661417
-0.00160663
-0.00255281
-0.00349935
-0.00444566
-0.00539117
-0.00633533
-0.00727798
0.0109667
0.0100348
0.00904924
0.00807813
0.00712843
0.0061837
0.00523203
0.00427147
0.00330485
0.00233484
0.0013626
0.000388399
-0.00058759
-0.00156496
-0.00254315
-0.00352155
-0.00449955
-0.00547659
-0.00645213
-0.00742608
0.0114809
0.0105113
0.00948189
0.00847067
0.00748503
0.00650575
0.00551916
0.00452317
0.00352105
0.00251582
0.00150868
0.000499803
-0.000510681
-0.00152239
-0.00253474
-0.00354712
-0.00455894
-0.00556962
-0.00657863
-0.00758597
0.0120269
0.0110168
0.00994056
0.00888661
0.00786274
0.00684668
0.00582286
0.00478908
0.00374914
0.0027064
0.0016621
0.000616336
-0.000430849
-0.00147908
-0.00252776
-0.00357629
-0.00462405
-0.00567049
-0.00671507
-0.00775789
0.0126049
0.0115515
0.0104253
0.00932599
0.00826161
0.00720651
0.00614311
0.00506915
0.00398905
0.0029065
0.00182278
0.000737871
-0.000348242
-0.0014352
-0.00252241
-0.00360924
-0.00469511
-0.00577944
-0.00686172
-0.00794216
0.013215
0.0121156
0.0109363
0.00978895
0.00868175
0.00758531
0.00647996
0.00536342
0.00424075
0.00311606
0.00199062
0.000864301
-0.000262995
-0.00139092
-0.00251888
-0.00364622
-0.00477236
-0.00589676
-0.00701888
-0.00813907
0.0138578
0.0127094
0.0114738
0.0102757
0.00912333
0.00798325
0.00683352
0.00567192
0.00450427
0.00333507
0.00216558
0.000995542
-0.00017523
-0.0013464
-0.00251734
-0.00368743
-0.00485607
-0.00602272
-0.00718685
-0.00834898
0.0145336
0.0133334
0.0120382
0.0107865
0.00958662
0.00840054
0.00720396
0.00599478
0.00477967
0.00356355
0.00234764
0.00113153
-8.50544e-05
-0.00130178
-0.00251801
-0.0037331
-0.00494649
-0.00615762
-0.00736598
-0.00857227
0.0152432
0.0139881
0.0126298
0.0113218
0.010072
0.00883747
0.00759149
0.00633216
0.00506706
0.00380155
0.00253679
0.00127221
7.43515e-06
-0.0012572
-0.00252106
-0.00378348
-0.0050439
-0.0063018
-0.00755663
-0.00880932
0.0159873
0.0146742
0.0132494
0.0118821
0.0105798
0.0092944
0.0079964
0.00668426
0.00536658
0.00404915
0.00273308
0.00141756
0.000102155
-0.00121281
-0.00252668
-0.0038388
-0.0051486
-0.00645557
-0.00775917
-0.00906056
0.0167667
0.0153925
0.0138974
0.0124679
0.0111106
0.00977174
0.00841903
0.00705135
0.00567842
0.00430649
0.00293654
0.00156757