/*--------------------------------*- C++ -*----------------------------------*\
  =========                 |
  \\      /  F ield         | OpenFOAM: The Open Source CFD Toolbox
   \\    /   O peration     | Website:  https://openfoam.org
    \\  /    A nd           | Version:  7
     \\/     M anipulation  |
\*---------------------------------------------------------------------------*/
FoamFile
{
    version     2.0;
    format      ascii;
    class       volScalarField;
    location    "1";
    object      p;
}
// * * * * * * * * * * * * * * * * * * * * * * * * * * * * * * * * * * * * * //

dimensions      [0 2 -2 0 0 0 0];

internalField   nonuniform List<scalar> 
433
(
-85.3379
-76.0096
155.351
126.44
101.29
78.9549
58.9662
41.423
26.6154
14.7203
5.59871
-1.09942
-5.81528
-8.98624
-11.0071
-12.2065
-12.8374
-13.0897
-13.0993
-12.9631
-12.7426
-12.4756
-12.1852
-11.8851
-11.5827
-11.2818
-10.9844
-10.6917
-10.4041
-10.1221
-9.84307
-9.56965
-9.29912
154.613
123.741
96.0205
71.5706
50.5285
33.0619
19.1627
8.57741
0.748961
-4.87109
-8.75745
-11.3233
-12.9271
-13.8442
-14.2857
-14.4086
-14.3256
-14.1152
-13.8298
-13.5032
-13.1565
-12.8022
-12.4475
-12.0965
-11.7512
-11.4128
-11.082
-10.7593
-10.4412
-10.1309
-9.82462
-97.4122
-84.2872
-72.3683
-61.7781
-52.5563
-44.6451
-37.9988
-32.6094
-28.3375
-25.0231
-22.4961
-20.5953
-19.1574
-18.056
-17.1943
-16.4973
-15.9091
-15.3908
-14.9165
-14.4701
-14.0419
-13.6267
-13.2218
-12.8261
-12.4394
-12.0618
-11.6937
-11.3354
-10.9828
-10.6397
-10.3015
-208.332
-172.984
-140.927
-113.049
-89.7412
-70.9349
-56.2247
-45.0122
-36.643
-30.5097
-26.0896
-22.9435
-20.7154
-19.1269
-17.9695
-17.0931
-16.3942
-15.8043
-15.2799
-14.795
-14.3345
-13.8905
-13.4589
-13.0382
-12.6281
-12.2286
-11.8403
-11.4582
-11.087
-10.7214
-70.5919
-60.7789
-51.6188
-43.9576
-37.8922
-33.1755
-29.4916
-26.6132
-24.3727
-22.6328
-21.2765
-20.2058
-19.3394
-18.6131
-17.9797
-17.406
-16.8702
-16.3586
-15.863
-15.3791
-14.9049
-14.4398
-13.9839
-13.5379
-13.1024
-12.6781
-12.2655
-11.8595
-11.4653
-11.0776
99.239
76.1947
55.0874
36.6123
21.3516
9.37761
0.377279
-6.14469
-10.7031
-13.7547
-15.6809
-16.7906
-17.3256
-17.469
-17.3549
-17.0778
-16.7022
-16.2706
-15.8102
-15.3377
-14.8632
-14.3928
-13.9299
-13.4767
-13.0345
-12.6043
-12.1805
-11.769
-11.3648
62.8649
44.6357
28.8123
15.8197
5.60582
-2.14897
-7.84532
-11.8789
-14.6055
-16.3332
-17.3215
-17.7814
-17.877
-17.7311
-17.4319
-17.0401
-16.5959
-16.125
-15.6431
-15.1597
-14.6803
-14.2082
-13.7452
-13.2929
-12.8521
-12.4169
-11.9942
-11.5794
-61.5025
-53.0373
-45.9136
-39.9495
-35.0557
-31.1195
-28.0038
-25.5624
-23.6584
-22.1699
-20.9922
-20.0395
-19.2447
-18.5578
-17.9429
-17.3753
-16.8385
-16.322
-15.8197
-15.3281
-14.8456
-14.3718
-13.9071
-13.452
-13.0076
-12.5674
-12.1394
-11.72
-116.601
-94.8044
-76.7367
-62.0832
-50.4692
-41.4687
-34.6478
-29.5875
-25.9004
-23.2458
-21.3395
-19.9555
-18.9231
-18.1184
-17.4558
-16.8783
-16.3501
-15.8498
-15.3655
-14.8913
-14.4249
-13.9658
-13.5147
-13.0725
-12.6331
-12.2052
-11.7867
-51.6783
-43.7177
-37.3211
-32.2788
-28.3802
-25.4193
-23.2055
-21.5654
-20.3476
-19.4265
-18.7039
-18.1071
-17.5849
-17.1031
-16.6407
-16.1858
-15.7327
-15.2795
-14.8267
-14.3755
-13.9279
-13.4857
-13.0507
-12.6169
-12.194
11.4341
3.19632
-3.13678
-7.85648
-11.2587
-13.617
-15.1719
-16.1156
-16.6131
-16.7927
-16.7506
-16.558
-16.2659
-15.91
-15.5148
-15.097
-14.6675
-14.2336
-13.8
13.03
3.87071
-2.97999
-7.95453
-11.4287
-13.7371
-15.1713
-15.9719
-16.3284
-16.3839
-16.242
-15.9756
-15.634
-15.2494
-17.3634
-17.9332
-18.2005
-18.2321
-18.091
-17.8283
-17.4843
-17.0894
-16.6662
-16.2302
-36.6532
-30.8459
-26.4742
-23.2317
-20.8477
-3.69455
-3.84766
-4.1215
-3.67966
-3.83037
-4.09939
-4.48711
-5.00084
-5.66553
-6.50483
-7.56582
-8.91458
-10.5522
-3.66404
-3.81211
-4.07587
-4.45538
-4.95741
-5.60716
-6.43009
-7.47849
-8.82666
-10.482
-3.64771
-3.79291
-4.05098
-4.42152
-4.91057
-5.54325
-6.34602
-7.37461
-8.70735
-10.3553
-3.63068
-3.77279
-4.02476
-4.38561
-4.86045
-5.47397
-6.25277
-7.25416
-8.5565
-10.1724
-3.61295
-3.75178
-3.99725
-4.34774
-4.8072
-5.39952
-6.15054
-7.11736
-8.37466
-9.93451
-3.59456
-3.7299
-3.96851
-4.30799
-4.75096
-5.32012
-6.03966
-6.9647
-8.16304
-9.64441
-3.57555
-3.70719
-3.9386
-4.26647
-4.6919
-5.23604
-5.92051
-6.79692
-7.92343
-9.3059
-3.55587
-3.68368
-3.90758
-4.2233
-4.63022
-5.14757
-5.79356
-6.615
-7.65817
-8.92384
-3.5356
-3.65943
-3.87554
-4.1786
-4.5661
-5.05504
-5.65941
-6.42016
-7.3701
-8.50414
)
;

boundaryField
{
    inlet
    {
        type            zeroGradient;
    }
    outlet
    {
        type            fixedValue;
        value           nonuniform 0();
    }
    cylinder
    {
        type            zeroGradient;
    }
    top
    {
        type            symmetryPlane;
    }
    bottom
    {
        type            symmetryPlane;
    }
    defaultFaces
    {
        type            empty;
    }
    procBoundary12to6
    {
        type            processor;
        value           nonuniform List<scalar> 
35
(
-11.7816
-13.3701
-12.9461
-12.5224
-11.7816
-12.1091
-14.8421
-14.4246
-14.0044
-13.3701
-13.5858
-15.7915
-15.3561
-14.8421
-14.9271
-19.097
-17.8007
-16.8223
-15.7915
-16.0612
-25.0244
-21.8786
-19.097
-19.5899
-3.70871
-3.86399
-4.14217
-4.51664
-4.51664
-5.04076
-5.7182
-6.57014
-7.63687
-8.97192
-10.567
)
;
    }
    procBoundary12to13
    {
        type            processor;
        value           nonuniform List<scalar> 
26
(
188.767
187.934
-111.967
-245.76
-245.76
-79.3525
123.79
123.79
82.5983
82.5983
-71.6511
-142.244
-142.244
-61.4009
-61.4009
34.3418
21.8035
21.8035
24.8611
24.8611
-16.4127
-16.4127
-44.2256
-44.2256
-35.053
-29.3054
)
;
    }
    procBoundary12to18
    {
        type            processor;
        value           nonuniform List<scalar> 
42
(
-229.508
-197.009
-64.9552
-64.9552
-53.6599
-43.4446
-35.0629
-28.645
-23.9285
-20.531
-18.103
-16.3684
-15.1151
-14.2019
-13.525
-13.0069
-12.5931
-12.2473
-11.9417
-11.6609
-11.3957
-11.1399
-10.8897
-10.6428
-10.398
-10.1549
-9.91342
-9.67388
-9.43662
-9.20008
-8.96649
-8.73457
-3.51475
-3.63447
-3.84255
-4.1325
-4.49979
-4.95893
-5.51877
-6.21394
-7.06257
-8.05332
)
;
    }
    procBoundary12to19
    {
        type            processor;
        value           uniform -91.8869;
    }
}


// ************************************************************************* //
