/*--------------------------------*- C++ -*----------------------------------*\
  =========                 |
  \\      /  F ield         | OpenFOAM: The Open Source CFD Toolbox
   \\    /   O peration     | Website:  https://openfoam.org
    \\  /    A nd           | Version:  7
     \\/     M anipulation  |
\*---------------------------------------------------------------------------*/
FoamFile
{
    version     2.0;
    format      ascii;
    class       volVectorField;
    location    "20.99993";
    object      U;
}
// * * * * * * * * * * * * * * * * * * * * * * * * * * * * * * * * * * * * * //

dimensions      [0 1 -1 0 0 0 0];

internalField   nonuniform List<vector> 
5800
(
(-0.105469 -0.0114648 -9.16249e-21)
(-0.135638 -0.0100824 -3.75952e-21)
(-0.158121 -0.00788568 2.3019e-20)
(-0.173096 -0.00501817 -9.02659e-21)
(-0.180591 -0.00172148 1.01644e-21)
(1.04577 -0.000598297 0)
(1.04621 -0.000578232 0)
(1.04665 -0.000557406 0)
(1.04708 -0.000535799 0)
(1.04751 -0.000513393 0)
(1.04792 -0.000490169 0)
(1.04832 -0.000466113 0)
(1.04871 -0.000441209 0)
(1.04909 -0.000415449 0)
(1.04945 -0.000388824 0)
(1.04979 -0.00036133 0)
(1.05011 -0.000332967 0)
(1.05041 -0.000303735 0)
(1.05069 -0.000273641 0)
(1.05095 -0.000242693 0)
(1.05118 -0.000210905 0)
(1.05138 -0.000178293 0)
(1.05155 -0.000144878 0)
(1.05169 -0.000110688 0)
(1.05179 -7.57506e-05 0)
(1.05185 -4.01039e-05 0)
(1.05188 -3.78518e-06 0)
(1.05186 3.31518e-05 0)
(1.0518 7.06551e-05 0)
(1.05169 0.00010867 0)
(1.05153 0.000147131 0)
(1.05132 0.000185969 0)
(1.05106 0.000225108 0)
(1.05074 0.000264462 0)
(1.05036 0.000303946 0)
(1.04992 0.000343462 0)
(1.04941 0.000382911 0)
(1.04884 0.000422185 0)
(1.0482 0.000461174 0)
(1.04749 0.000499761 0)
(1.0467 0.000537826 0)
(1.04585 0.000575244 0)
(1.04491 0.000611889 0)
(1.0439 0.000647634 0)
(1.04281 0.000682347 0)
(1.04165 0.000715905 0)
(1.0404 0.000748174 0)
(1.03908 0.000779038 0)
(1.03766 0.000808372 0)
(1.03619 0.000836066 0)
(1.0346 0.000862018 0)
(1.03298 0.000886118 0)
(1.03122 0.000908305 0)
(1.02947 0.000928465 0)
(1.02752 0.000946591 0)
(1.02567 0.000962573 0)
(1.02353 0.000976433 0)
(1.0216 0.000988142 0)
(1.01924 0.00099763 0)
(1.01729 0.00100515 0)
(1.01467 0.00101025 0)
(1.01278 0.00101387 0)
(1.00984 0.00101463 0)
(1.00813 0.00101489 0)
(1.00473 0.00101128 0)
(1.00337 0.00100914 0)
(0.999352 0.00100068 0)
(0.998581 0.000997958 0)
(0.993642 0.000982968 0)
(1.04599 -0.00177305 0)
(1.04644 -0.00171464 0)
(1.04688 -0.00165377 0)
(1.04731 -0.00159043 0)
(1.04774 -0.00152457 0)
(1.04815 -0.00145615 0)
(1.04856 -0.00138514 0)
(1.04895 -0.00131151 0)
(1.04932 -0.00123524 0)
(1.04969 -0.00115632 0)
(1.05003 -0.00107474 0)
(1.05035 -0.000990502 0)
(1.05066 -0.000903624 0)
(1.05094 -0.000814126 0)
(1.05119 -0.000722039 0)
(1.05142 -0.000627408 0)
(1.05162 -0.000530286 0)
(1.05179 -0.000430743 0)
(1.05193 -0.000328859 0)
(1.05203 -0.00022473 0)
(1.0521 -0.000118464 0)
(1.05212 -1.01892e-05 0)
(1.05211 9.99531e-05 0)
(1.05204 0.000211811 0)
(1.05193 0.000325205 0)
(1.05177 0.000439938 0)
(1.05156 0.000555799 0)
(1.0513 0.000672558 0)
(1.05097 0.000789965 0)
(1.05059 0.000907755 0)
(1.05015 0.00102564 0)
(1.04964 0.00114333 0)
(1.04906 0.00126049 0)
(1.04842 0.00137679 0)
(1.04771 0.00149189 0)
(1.04692 0.00160542 0)
(1.04606 0.00171703 0)
(1.04512 0.00182631 0)
(1.04411 0.00193291 0)
(1.04301 0.0020364 0)
(1.04184 0.00213648 0)
(1.04058 0.00223263 0)
(1.03926 0.00232468 0)
(1.03784 0.00241203 0)
(1.03636 0.00249464 0)
(1.03476 0.00257182 0)
(1.03314 0.00264377 0)
(1.03137 0.0027096 0)
(1.02962 0.0027699 0)
(1.02767 0.00282345 0)
(1.02581 0.00287147 0)
(1.02366 0.00291204 0)
(1.02173 0.00294761 0)
(1.01936 0.00297475 0)
(1.01741 0.00299828 0)
(1.01479 0.00301178 0)
(1.0129 0.00302433 0)
(1.00994 0.00302415 0)
(1.00823 0.00302754 0)
(1.00483 0.00301351 0)
(1.00347 0.00301052 0)
(0.999443 0.00298165 0)
(0.998672 0.00297669 0)
(0.993727 0.00292968 0)
(1.04642 -0.00294041 0)
(1.04688 -0.0028434 0)
(1.04732 -0.00274231 0)
(1.04776 -0.0026371 0)
(1.04819 -0.00252771 0)
(1.04861 -0.00241408 0)
(1.04901 -0.00229616 0)
(1.04941 -0.00217391 0)
(1.04979 -0.00204729 0)
(1.05015 -0.00191629 0)
(1.0505 -0.0017809 0)
(1.05083 -0.00164113 0)
(1.05113 -0.001497 0)
(1.05141 -0.00134854 0)
(1.05167 -0.00119581 0)
(1.0519 -0.00103888 0)
(1.0521 -0.000877848 0)
(1.05228 -0.000712816 0)
(1.05241 -0.000543923 0)
(1.05252 -0.000371329 0)
(1.05258 -0.000195213 0)
(1.0526 -1.57845e-05 0)
(1.05258 0.000166716 0)
(1.05252 0.000352035 0)
(1.05241 0.000539879 0)
(1.05225 0.000729923 0)
(1.05203 0.000921814 0)
(1.05176 0.00111517 0)
(1.05144 0.00130958 0)
(1.05105 0.0015046 0)
(1.0506 0.00169977 0)
(1.05009 0.00189456 0)
(1.0495 0.00208848 0)
(1.04885 0.00228094 0)
(1.04813 0.00247139 0)
(1.04734 0.00265921 0)
(1.04647 0.00284383 0)
(1.04552 0.00302453 0)
(1.0445 0.00320082 0)
(1.0434 0.00337187 0)
(1.04222 0.0035373 0)
(1.04095 0.00369613 0)
(1.03962 0.00384824 0)
(1.03818 0.00399239 0)
(1.03669 0.00412888 0)
(1.03509 0.00425606 0)
(1.03346 0.00437493 0)
(1.03167 0.00448316 0)
(1.02991 0.00458285 0)
(1.02795 0.00467051 0)
(1.02608 0.0047501 0)
(1.02392 0.00481592 0)
(1.02198 0.00487528 0)
(1.0196 0.00491841 0)
(1.01764 0.00495841 0)
(1.01501 0.00497831 0)
(1.01311 0.00500095 0)
(1.01015 0.00499739 0)
(1.00843 0.00500589 0)
(1.00502 0.00497856 0)
(1.00365 0.00497746 0)
(0.999621 0.00492523 0)
(0.998849 0.00492068 0)
(0.993893 0.00484001 0)
(1.04706 -0.00409446 0)
(1.04752 -0.00395921 0)
(1.04797 -0.00381828 0)
(1.04841 -0.00367161 0)
(1.04885 -0.00351912 0)
(1.04927 -0.00336073 0)
(1.04968 -0.00319636 0)
(1.05008 -0.00302595 0)
(1.05047 -0.00284947 0)
(1.05083 -0.00266689 0)
(1.05118 -0.00247819 0)
(1.05151 -0.00228339 0)
(1.05182 -0.00208251 0)
(1.05211 -0.00187562 0)
(1.05237 -0.00166279 0)
(1.0526 -0.00144411 0)
(1.05281 -0.00121972 0)
(1.05298 -0.000989778 0)
(1.05312 -0.000754471 0)
(1.05322 -0.000514021 0)
(1.05328 -0.000268684 0)
(1.0533 -1.87507e-05 0)
(1.05328 0.000235437 0)
(1.05322 0.000493524 0)
(1.0531 0.000755101 0)
(1.05294 0.00101971 0)
(1.05272 0.00128687 0)
(1.05244 0.00155604 0)
(1.05211 0.00182664 0)
(1.05172 0.00209805 0)
(1.05126 0.00236962 0)
(1.05074 0.00264064 0)
(1.05015 0.00291039 0)
(1.04949 0.00317807 0)
(1.04876 0.00344291 0)
(1.04795 0.00370401 0)
(1.04707 0.00396062 0)
(1.04611 0.00421172 0)
(1.04508 0.00445663 0)
(1.04396 0.00469415 0)
(1.04277 0.00492385 0)
(1.04148 0.00514423 0)
(1.04013 0.00535528 0)
(1.03868 0.00555508 0)
(1.03718 0.00574429 0)
(1.03556 0.00592033 0)
(1.03391 0.00608496 0)
(1.03212 0.00623447 0)
(1.03034 0.0063724 0)
(1.02836 0.00649309 0)
(1.02647 0.0066031 0)
(1.0243 0.00669322 0)
(1.02234 0.00677524 0)
(1.01995 0.00683355 0)
(1.01798 0.00688891 0)
(1.01533 0.00691467 0)
(1.01342 0.00694629 0)
(1.01045 0.00693915 0)
(1.00872 0.0069516 0)
(1.0053 0.00691126 0)
(1.00393 0.00691082 0)
(0.999881 0.00683601 0)
(0.999106 0.00683082 0)
(0.994135 0.00671724 0)
(1.04788 -0.00524382 0)
(1.04835 -0.00507038 0)
(1.04881 -0.00488967 0)
(1.04926 -0.00470157 0)
(1.0497 -0.00450601 0)
(1.05013 -0.00430287 0)
(1.05055 -0.00409207 0)
(1.05096 -0.00387354 0)
(1.05135 -0.00364722 0)
(1.05172 -0.00341308 0)
(1.05208 -0.00317111 0)
(1.05241 -0.00292133 0)
(1.05272 -0.00266378 0)
(1.05301 -0.00239854 0)
(1.05328 -0.0021257 0)
(1.05351 -0.00184539 0)
(1.05372 -0.00155779 0)
(1.05389 -0.0012631 0)
(1.05403 -0.000961572 0)
(1.05413 -0.000653485 0)
(1.0542 -0.000339171 0)
(1.05422 -1.90099e-05 0)
(1.05419 0.000306559 0)
(1.05412 0.000637086 0)
(1.054 0.000972035 0)
(1.05383 0.00131082 0)
(1.05361 0.00165281 0)
(1.05333 0.00199732 0)
(1.05299 0.0023436 0)
(1.05258 0.00269086 0)
(1.05212 0.00303825 0)
(1.05158 0.00338487 0)
(1.05098 0.00372978 0)
(1.05031 0.00407197 0)
(1.04957 0.00441044 0)
(1.04874 0.00474404 0)
(1.04785 0.0050718 0)
(1.04687 0.00539241 0)
(1.04582 0.00570501 0)
(1.04469 0.00600805 0)
(1.04348 0.00630099 0)
(1.04218 0.00658189 0)
(1.04081 0.00685077 0)
(1.03934 0.00710512 0)
(1.03781 0.00734588 0)
(1.03617 0.00756962 0)
(1.0345 0.00777877 0)
(1.03269 0.00796836 0)
(1.03089 0.00814326 0)
(1.02889 0.00829579 0)
(1.02698 0.00843493 0)
(1.02479 0.0085482 0)
(1.02282 0.00865159 0)
(1.02041 0.00872407 0)
(1.01842 0.00879352 0)
(1.01576 0.00882431 0)
(1.01383 0.00886368 0)
(1.01084 0.00885244 0)
(1.0091 0.00886766 0)
(1.00566 0.00881417 0)
(1.00428 0.00881331 0)
(1.00022 0.00871615 0)
(0.99944 0.0087095 0)
(0.99445 0.00856347 0)
(1.04889 -0.00639217 0)
(1.04937 -0.00618033 0)
(1.04983 -0.0059596 0)
(1.05029 -0.00572987 0)
(1.05075 -0.00549103 0)
(1.05119 -0.00524295 0)
(1.05161 -0.00498553 0)
(1.05203 -0.00471868 0)
(1.05242 -0.00444233 0)
(1.0528 -0.00415647 0)
(1.05317 -0.00386107 0)
(1.05351 -0.00355617 0)
(1.05383 -0.00324181 0)
(1.05412 -0.00291809 0)
(1.05439 -0.00258513 0)
(1.05463 -0.00224311 0)
(1.05483 -0.00189222 0)
(1.05501 -0.00153273 0)
(1.05515 -0.00116494 0)
(1.05525 -0.000789204 0)
(1.05531 -0.000405928 0)
(1.05533 -1.55788e-05 0)
(1.0553 0.000381313 0)
(1.05523 0.000784184 0)
(1.05511 0.00119237 0)
(1.05493 0.00160516 0)
(1.0547 0.00202178 0)
(1.05441 0.00244138 0)
(1.05406 0.00286306 0)
(1.05364 0.00328583 0)
(1.05316 0.00370867 0)
(1.05262 0.00413046 0)
(1.052 0.00455006 0)
(1.05131 0.00496622 0)
(1.05055 0.00537774 0)
(1.04971 0.0057832 0)
(1.0488 0.00618142 0)
(1.0478 0.00657078 0)
(1.04673 0.00695027 0)
(1.04558 0.00731795 0)
(1.04434 0.00767319 0)
(1.04302 0.00801361 0)
(1.04163 0.00833927 0)
(1.04013 0.00864705 0)
(1.03859 0.0089382 0)
(1.03692 0.00920841 0)
(1.03522 0.00946082 0)
(1.03338 0.00968919 0)
(1.03156 0.0098997 0)
(1.02953 0.0100827 0)
(1.02761 0.0102496 0)
(1.02539 0.0103847 0)
(1.02339 0.0105081 0)
(1.02096 0.0105934 0)
(1.01895 0.0106756 0)
(1.01627 0.0107103 0)
(1.01433 0.0107562 0)
(1.01131 0.0107399 0)
(1.00956 0.0107568 0)
(1.00611 0.0106895 0)
(1.00471 0.0106874 0)
(1.00063 0.0105676 0)
(0.999847 0.0105589 0)
(0.994835 0.0103806 0)
(1.05007 -0.00754302 0)
(1.05056 -0.00729245 0)
(1.05104 -0.00703137 0)
(1.05151 -0.00675966 0)
(1.05197 -0.00647719 0)
(1.05242 -0.00618382 0)
(1.05286 -0.00587942 0)
(1.05328 -0.00556389 0)
(1.05369 -0.00523716 0)
(1.05408 -0.00489921 0)
(1.05445 -0.00455002 0)
(1.05479 -0.00418963 0)
(1.05512 -0.00381811 0)
(1.05542 -0.00343557 0)
(1.05569 -0.00304216 0)
(1.05593 -0.00263809 0)
(1.05614 -0.0022236 0)
(1.05632 -0.00179902 0)
(1.05646 -0.00136469 0)
(1.05656 -0.000921057 0)
(1.05662 -0.000468603 0)
(1.05664 -7.90147e-06 0)
(1.05661 0.000460522 0)
(1.05653 0.000935889 0)
(1.0564 0.00141743 0)
(1.05621 0.00190429 0)
(1.05597 0.00239556 0)
(1.05567 0.00289024 0)
(1.05531 0.00338724 0)
(1.05488 0.00388541 0)
(1.05439 0.00438353 0)
(1.05383 0.00488026 0)
(1.0532 0.00537427 0)
(1.05249 0.00586405 0)
(1.05171 0.0063482 0)
(1.05085 0.00682503 0)
(1.04991 0.00729315 0)
(1.0489 0.00775063 0)
(1.0478 0.00819628 0)
(1.04662 0.00862781 0)
(1.04536 0.00904449 0)
(1.04401 0.00944348 0)
(1.04259 0.00982488 0)
(1.04106 0.010185 0)
(1.03949 0.0105253 0)
(1.03779 0.0108408 0)
(1.03607 0.0111351 0)
(1.03419 0.0114009 0)
(1.03234 0.0116456 0)
(1.03029 0.0118577 0)
(1.02833 0.0120508 0)
(1.02609 0.0122062 0)
(1.02407 0.012348 0)
(1.02161 0.0124448 0)
(1.01958 0.0125382 0)
(1.01686 0.0125754 0)
(1.0149 0.0126264 0)
(1.01187 0.0126039 0)
(1.0101 0.0126213 0)
(1.00662 0.0125394 0)
(1.00522 0.012535 0)
(1.00111 0.0123921 0)
(1.00032 0.0123809 0)
(0.995286 0.0121702 0)
(1.05142 -0.00869998 0)
(1.05192 -0.00841018 0)
(1.05242 -0.00810824 0)
(1.0529 -0.00779403 0)
(1.05337 -0.00746739 0)
(1.05384 -0.00712817 0)
(1.05428 -0.00677624 0)
(1.05472 -0.00641147 0)
(1.05513 -0.0060338 0)
(1.05553 -0.00564319 0)
(1.05591 -0.00523964 0)
(1.05626 -0.0048232 0)
(1.05659 -0.00439395 0)
(1.0569 -0.00395202 0)
(1.05718 -0.00349761 0)
(1.05742 -0.00303095 0)
(1.05764 -0.00255233 0)
(1.05781 -0.00206213 0)
(1.05795 -0.00156078 0)
(1.05806 -0.00104876 0)
(1.05811 -0.000526661 0)
(1.05813 4.87101e-06 0)
(1.05809 0.000545165 0)
(1.05801 0.00109335 0)
(1.05787 0.00164854 0)
(1.05768 0.00220975 0)
(1.05743 0.0027759 0)
(1.05712 0.00334583 0)
(1.05674 0.00391829 0)
(1.0563 0.00449192 0)
(1.05579 0.00506532 0)
(1.05521 0.00563693 0)
(1.05456 0.00620522 0)
(1.05383 0.00676843 0)
(1.05303 0.00732493 0)
(1.05214 0.00787277 0)
(1.05118 0.00841035 0)
(1.05014 0.00893541 0)
(1.04901 0.00944661 0)
(1.0478 0.00994127 0)
(1.04651 0.0104186 0)
(1.04513 0.0108752 0)
(1.04368 0.0113114 0)
(1.04212 0.0117227 0)
(1.04051 0.012111 0)
(1.03878 0.0124704 0)
(1.03703 0.0128053 0)
(1.03512 0.013107 0)
(1.03323 0.0133844 0)
(1.03115 0.0136239 0)
(1.02916 0.0138416 0)
(1.02688 0.0140157 0)
(1.02483 0.0141742 0)
(1.02234 0.0142808 0)
(1.02028 0.0143838 0)
(1.01754 0.0144221 0)
(1.01556 0.0144766 0)
(1.0125 0.0144466 0)
(1.01071 0.0144631 0)
(1.00721 0.0143655 0)
(1.0058 0.014358 0)
(1.00166 0.0141912 0)
(1.00087 0.0141771 0)
(0.995801 0.0139337 0)
(1.05294 -0.00986603 0)
(1.05346 -0.00953635 0)
(1.05396 -0.00919288 0)
(1.05446 -0.00883549 0)
(1.05495 -0.00846399 0)
(1.05542 -0.00807823 0)
(1.05588 -0.00767804 0)
(1.05632 -0.00726331 0)
(1.05675 -0.00683395 0)
(1.05716 -0.00638994 0)
(1.05755 -0.00593129 0)
(1.05791 -0.00545805 0)
(1.05825 -0.00497032 0)
(1.05856 -0.00446827 0)
(1.05884 -0.00395212 0)
(1.05909 -0.00342213 0)
(1.05931 -0.00287867 0)
(1.05949 -0.00232216 0)
(1.05963 -0.00175308 0)
(1.05973 -0.00117201 0)
(1.05979 -0.000579616 0)
(1.0598 2.33783e-05 0)
(1.05976 0.000636094 0)
(1.05967 0.00125764 0)
(1.05952 0.00188698 0)
(1.05932 0.00252298 0)
(1.05906 0.00316442 0)
(1.05873 0.00380996 0)
(1.05834 0.00445817 0)
(1.05788 0.0051075 0)
(1.05736 0.00575635 0)
(1.05676 0.00640295 0)
(1.05608 0.00704553 0)
(1.05533 0.0076821 0)
(1.0545 0.00831081 0)
(1.05359 0.00892941 0)
(1.0526 0.0095361 0)
(1.05153 0.0101283 0)
(1.05037 0.0107045 0)
(1.04912 0.0112616 0)
(1.0478 0.0117988 0)
(1.04638 0.0123122 0)
(1.0449 0.0128021 0)
(1.0433 0.0132636 0)
(1.04166 0.0136986 0)
(1.03989 0.0141006 0)
(1.03809 0.0144746 0)
(1.03615 0.0148108 0)
(1.03423 0.0151192 0)
(1.0321 0.0153845 0)
(1.03008 0.015625 0)
(1.02777 0.015816 0)
(1.02568 0.0159895 0)
(1.02316 0.0161041 0)
(1.02107 0.0162149 0)
(1.0183 0.0162524 0)
(1.01629 0.0163088 0)
(1.0132 0.0162699 0)
(1.0114 0.0162841 0)
(1.00786 0.0161696 0)
(1.00644 0.0161577 0)
(1.00228 0.0159664 0)
(1.00148 0.0159486 0)
(0.996377 0.0156723 0)
(1.05461 -0.0110439 0)
(1.05515 -0.0106736 0)
(1.05567 -0.0102878 0)
(1.05618 -0.00988637 0)
(1.05668 -0.00946919 0)
(1.05717 -0.00903602 0)
(1.05764 -0.00858671 0)
(1.0581 -0.00812112 0)
(1.05854 -0.00763919 0)
(1.05896 -0.00714088 0)
(1.05936 -0.00662621 0)
(1.05973 -0.00609525 0)
(1.06008 -0.00554813 0)
(1.06039 -0.00498504 0)
(1.06068 -0.00440622 0)
(1.06094 -0.00381202 0)
(1.06116 -0.00320282 0)
(1.06134 -0.00257911 0)
(1.06148 -0.00194145 0)
(1.06158 -0.0012905 0)
(1.06164 -0.000627001 0)
(1.06164 4.81932e-05 0)
(1.0616 0.00073413 0)
(1.0615 0.00142977 0)
(1.06134 0.00213394 0)
(1.06113 0.00284536 0)
(1.06085 0.00356266 0)
(1.06051 0.00428433 0)
(1.06011 0.00500874 0)
(1.05963 0.00573417 0)
(1.05908 0.00645878 0)
(1.05846 0.00718059 0)
(1.05776 0.00789762 0)
(1.05698 0.00860761 0)
(1.05613 0.00930849 0)
(1.05518 0.00999772 0)
(1.05416 0.0106733 0)
(1.05305 0.0113323 0)
(1.05186 0.011973 0)
(1.05058 0.012592 0)
(1.04922 0.0131883 0)
(1.04776 0.0137576 0)
(1.04623 0.0143002 0)
(1.0446 0.0148107 0)
(1.04291 0.0152913 0)
(1.0411 0.0157345 0)
(1.03927 0.0161461 0)
(1.03728 0.0165152 0)
(1.03532 0.0168528 0)
(1.03315 0.0171422 0)
(1.03109 0.0174036 0)
(1.02874 0.0176096 0)
(1.02661 0.0177961 0)
(1.02406 0.0179167 0)
(1.02194 0.0180334 0)
(1.01913 0.0180684 0)
(1.0171 0.0181249 0)
(1.01397 0.0180752 0)
(1.01215 0.0180856 0)
(1.00858 0.0179528 0)
(1.00714 0.0179355 0)
(1.00295 0.0177187 0)
(1.00214 0.0176966 0)
(0.997013 0.017387 0)
(1.05644 -0.012236 0)
(1.05699 -0.0118241 0)
(1.05753 -0.0113951 0)
(1.05806 -0.0109487 0)
(1.05858 -0.0104849 0)
(1.05908 -0.0100033 0)
(1.05957 -0.00950386 0)
(1.06004 -0.0089864 0)
(1.06049 -0.00845084 0)
(1.06092 -0.00789717 0)
(1.06133 -0.00732542 0)
(1.06172 -0.00673568 0)
(1.06207 -0.00612809 0)
(1.0624 -0.00550288 0)
(1.06269 -0.00486034 0)
(1.06295 -0.00420084 0)
(1.06318 -0.00352485 0)
(1.06336 -0.0028329 0)
(1.0635 -0.00212564 0)
(1.0636 -0.00140381 0)
(1.06365 -0.000668241 0)
(1.06365 8.01055e-05 0)
(1.0636 0.000840165 0)
(1.06349 0.00161076 0)
(1.06333 0.00239059 0)
(1.0631 0.00317822 0)
(1.06281 0.0039721 0)
(1.06246 0.00477054 0)
(1.06203 0.00557176 0)
(1.06153 0.00637379 0)
(1.06096 0.00717461 0)
(1.06031 0.007972 0)
(1.05959 0.00876374 0)
(1.05878 0.00954732 0)
(1.05789 0.0103204 0)
(1.05692 0.0110802 0)
(1.05586 0.0118245 0)
(1.05471 0.01255 0)
(1.05348 0.0132548 0)
(1.05216 0.0139351 0)
(1.05076 0.0145898 0)
(1.04926 0.0152142 0)
(1.04769 0.0158086 0)
(1.04601 0.016367 0)
(1.04427 0.0168918 0)
(1.04242 0.0173749 0)
(1.04054 0.0178225 0)
(1.0385 0.0182227 0)
(1.0365 0.0185878 0)
(1.03429 0.0188993 0)
(1.03218 0.0191798 0)
(1.02979 0.0193987 0)
(1.02762 0.0195961 0)
(1.02503 0.0197207 0)
(1.02287 0.0198412 0)
(1.02003 0.0198716 0)
(1.01797 0.0199263 0)
(1.01481 0.0198641 0)
(1.01296 0.0198689 0)
(1.00936 0.0197164 0)
(1.00791 0.0196924 0)
(1.00369 0.0194491 0)
(1.00287 0.0194219 0)
(0.997706 0.0190787 0)
(1.05842 -0.0134446 0)
(1.05899 -0.0129901 0)
(1.05955 -0.0125168 0)
(1.0601 -0.0120244 0)
(1.06063 -0.0115127 0)
(1.06115 -0.0109817 0)
(1.06166 -0.0104309 0)
(1.06214 -0.00986041 0)
(1.06261 -0.00927005 0)
(1.06305 -0.00865982 0)
(1.06347 -0.00802978 0)
(1.06386 -0.00738004 0)
(1.06423 -0.00671076 0)
(1.06456 -0.00602222 0)
(1.06486 -0.00531474 0)
(1.06513 -0.00458875 0)
(1.06536 -0.00384476 0)
(1.06554 -0.0030834 0)
(1.06569 -0.00230537 0)
(1.06578 -0.00151151 0)
(1.06583 -0.000702752 0)
(1.06582 0.000119833 0)
(1.06577 0.000955063 0)
(1.06565 0.00180162 0)
(1.06547 0.00265807 0)
(1.06523 0.00352281 0)
(1.06493 0.00439412 0)
(1.06455 0.00527014 0)
(1.06411 0.00614887 0)
(1.06359 0.00702815 0)
(1.06299 0.00790574 0)
(1.06231 0.00877917 0)
(1.06156 0.00964599 0)
(1.06072 0.0105034 0)
(1.0598 0.0113489 0)
(1.05879 0.0121793 0)
(1.05769 0.0129922 0)
(1.0565 0.013784 0)
(1.05523 0.0145525 0)
(1.05386 0.0152936 0)
(1.05242 0.0160061 0)
(1.05087 0.0166847 0)
(1.04925 0.0173299 0)
(1.04752 0.0179349 0)
(1.04574 0.0185027 0)
(1.04383 0.0190241 0)
(1.0419 0.0195062 0)
(1.03982 0.0199358 0)
(1.03776 0.0203266 0)
(1.0355 0.0206582 0)
(1.03335 0.0209555 0)
(1.03091 0.0211853 0)
(1.02871 0.0213914 0)
(1.02607 0.0215177 0)
(1.02387 0.0216398 0)
(1.02099 0.0216634 0)
(1.0189 0.0217142 0)
(1.0157 0.0216375 0)
(1.01383 0.0216351 0)
(1.0102 0.0214612 0)
(1.00873 0.0214291 0)
(1.00448 0.0211582 0)
(1.00366 0.0211253 0)
(0.998454 0.0207479 0)
(1.06055 -0.0146716 0)
(1.06114 -0.0141734 0)
(1.06172 -0.0136545 0)
(1.06228 -0.0131149 0)
(1.06284 -0.0125542 0)
(1.06337 -0.0119724 0)
(1.06389 -0.0113691 0)
(1.0644 -0.0107442 0)
(1.06488 -0.0100978 0)
(1.06533 -0.00942965 0)
(1.06577 -0.00873999 0)
(1.06617 -0.0080289 0)
(1.06655 -0.00729659 0)
(1.06689 -0.00654337 0)
(1.0672 -0.0057696 0)
(1.06747 -0.00497577 0)
(1.0677 -0.00416246 0)
(1.06788 -0.00333036 0)
(1.06803 -0.00248027 0)
(1.06812 -0.00161311 0)
(1.06817 -0.000729924 0)
(1.06815 0.000168112 0)
(1.06809 0.00107969 0)
(1.06796 0.00200334 0)
(1.06777 0.00293748 0)
(1.06752 0.00388036 0)
(1.06719 0.00483008 0)
(1.0668 0.00578457 0)
(1.06633 0.00674164 0)
(1.06578 0.00769892 0)
(1.06516 0.00865394 0)
(1.06446 0.00960397 0)
(1.06367 0.0105463 0)
(1.06279 0.011478 0)
(1.06183 0.0123961 0)
(1.06078 0.0132972 0)
(1.05965 0.0141787 0)
(1.05842 0.0150365 0)
(1.0571 0.0158684 0)
(1.05568 0.0166699 0)
(1.05419 0.0174394 0)
(1.05259 0.0181715 0)
(1.05092 0.0188665 0)
(1.04914 0.019517 0)
(1.0473 0.0201264 0)
(1.04534 0.0206846 0)
(1.04336 0.0211995 0)
(1.04122 0.0216566 0)
(1.03911 0.0220711 0)
(1.0368 0.0224207 0)
(1.0346 0.0227327 0)
(1.03211 0.022971 0)
(1.02986 0.0231834 0)
(1.02717 0.0233092 0)
(1.02494 0.0234305 0)
(1.02202 0.0234451 0)
(1.01989 0.0234897 0)
(1.01666 0.0233966 0)
(1.01476 0.0233849 0)
(1.0111 0.023188 0)
(1.00961 0.0231464 0)
(1.00532 0.0228467 0)
(1.00449 0.0228071 0)
(0.999256 0.022395 0)
(1.06281 -0.0159186 0)
(1.06343 -0.0153754 0)
(1.06403 -0.0148098 0)
(1.06462 -0.0142216 0)
(1.06519 -0.0136106 0)
(1.06574 -0.0129766 0)
(1.06628 -0.0123194 0)
(1.0668 -0.0116388 0)
(1.0673 -0.0109348 0)
(1.06777 -0.0102073 0)
(1.06821 -0.00945659 0)
(1.06863 -0.00868269 0)
(1.06902 -0.00788588 0)
(1.06937 -0.0070665 0)
(1.06968 -0.00622498 0)
(1.06996 -0.00536186 0)
(1.07019 -0.00447778 0)
(1.07038 -0.00357351 0)
(1.07052 -0.00264995 0)
(1.07062 -0.0017081 0)
(1.07065 -0.000749119 0)
(1.07064 0.000225692 0)
(1.07056 0.00121489 0)
(1.07042 0.00221689 0)
(1.07022 0.00322992 0)
(1.06995 0.00425207 0)
(1.0696 0.00528125 0)
(1.06919 0.00631522 0)
(1.0687 0.00735157 0)
(1.06812 0.00838769 0)
(1.06747 0.00942087 0)
(1.06673 0.0104482 0)
(1.06591 0.0114666 0)
(1.065 0.0124729 0)
(1.064 0.0134639 0)
(1.06291 0.0144359 0)
(1.06172 0.015386 0)
(1.06045 0.0163098 0)
(1.05908 0.0172048 0)
(1.05761 0.0180661 0)
(1.05606 0.0188921 0)
(1.05441 0.0196768 0)
(1.05268 0.0204205 0)
(1.05085 0.0211154 0)
(1.04895 0.0217649 0)
(1.04694 0.0223585 0)
(1.04489 0.0229043 0)
(1.0427 0.0233871 0)
(1.04054 0.0238231 0)
(1.03817 0.0241885 0)
(1.03592 0.024513 0)
(1.03337 0.0247573 0)
(1.03108 0.0249737 0)
(1.02834 0.0250964 0)
(1.02607 0.0252145 0)
(1.0231 0.0252176 0)
(1.02094 0.0252538 0)
(1.01767 0.0251419 0)
(1.01575 0.025119 0)
(1.01205 0.0248973 0)
(1.01054 0.0248446 0)
(1.00622 0.0245149 0)
(1.00538 0.0244679 0)
(1.00011 0.0240205 0)
(1.06522 -0.0171873 0)
(1.06586 -0.0165977 0)
(1.06648 -0.0159839 0)
(1.06709 -0.0153458 0)
(1.06769 -0.014683 0)
(1.06826 -0.0139954 0)
(1.06882 -0.0132827 0)
(1.06935 -0.0125448 0)
(1.06987 -0.0117817 0)
(1.07035 -0.0109934 0)
(1.07081 -0.01018 0)
(1.07124 -0.00934169 0)
(1.07164 -0.0084788 0)
(1.072 -0.00759169 0)
(1.07232 -0.00668084 0)
(1.0726 -0.00574686 0)
(1.07284 -0.00479046 0)
(1.07303 -0.00381249 0)
(1.07317 -0.00281393 0)
(1.07326 -0.0017959 0)
(1.07329 -0.000759675 0)
(1.07327 0.000293336 0)
(1.07318 0.00136155 0)
(1.07303 0.00244321 0)
(1.07281 0.00353642 0)
(1.07252 0.00463907 0)
(1.07216 0.00574889 0)
(1.07172 0.00686342 0)
(1.0712 0.00798005 0)
(1.0706 0.00909593 0)
(1.06991 0.0102081 0)
(1.06914 0.0113134 0)
(1.06828 0.0124086 0)
(1.06733 0.01349 0)
(1.06629 0.0145543 0)
(1.06515 0.0155974 0)
(1.06392 0.0166161 0)
(1.06259 0.0176057 0)
(1.06117 0.0185636 0)
(1.05965 0.0194843 0)
(1.05804 0.0203661 0)
(1.05633 0.0212026 0)
(1.05454 0.0219941 0)
(1.05265 0.0227321 0)
(1.05069 0.0234204 0)
(1.04861 0.0240476 0)
(1.04651 0.0246226 0)
(1.04426 0.025129 0)
(1.04203 0.0255845 0)
(1.03961 0.0259634 0)
(1.0373 0.0262978 0)
(1.0347 0.0265457 0)
(1.03236 0.0267634 0)
(1.02957 0.0268804 0)
(1.02725 0.0269927 0)
(1.02424 0.0269818 0)
(1.02204 0.0270071 0)
(1.01873 0.0268741 0)
(1.01678 0.0268379 0)
(1.01305 0.0265895 0)
(1.01152 0.0265241 0)
(1.00717 0.026163 0)
(1.00632 0.0261077 0)
(1.00101 0.0256244 0)
(1.06777 -0.0184788 0)
(1.06843 -0.0178414 0)
(1.06908 -0.017178 0)
(1.06971 -0.0164883 0)
(1.07032 -0.0157722 0)
(1.07092 -0.0150293 0)
(1.0715 -0.0142596 0)
(1.07205 -0.0134628 0)
(1.07258 -0.0126389 0)
(1.07309 -0.0117881 0)
(1.07356 -0.0109104 0)
(1.074 -0.0100061 0)
(1.07441 -0.00907541 0)
(1.07478 -0.00811889 0)
(1.07511 -0.00713705 0)
(1.07539 -0.00613054 0)
(1.07563 -0.00510017 0)
(1.07582 -0.00404687 0)
(1.07596 -0.00297172 0)
(1.07605 -0.00187593 0)
(1.07608 -0.000760904 0)
(1.07604 0.000371817 0)
(1.07595 0.00152051 0)
(1.07578 0.00268327 0)
(1.07555 0.00385801 0)
(1.07524 0.00504246 0)
(1.07485 0.00623416 0)
(1.07439 0.00743043 0)
(1.07384 0.00862842 0)
(1.07321 0.00982507 0)
(1.07249 0.0110172 0)
(1.07168 0.0122012 0)
(1.07078 0.0133738 0)
(1.06978 0.0145308 0)
(1.06869 0.0156688 0)
(1.06751 0.0167833 0)
(1.06622 0.0178708 0)
(1.06484 0.0189263 0)
(1.06336 0.0199467 0)
(1.06179 0.0209264 0)
(1.06012 0.0218634 0)
(1.05835 0.0227509 0)
(1.0565 0.023589 0)
(1.05453 0.0243689 0)
(1.05252 0.0250945 0)
(1.05037 0.0257536 0)
(1.04821 0.026356 0)
(1.04589 0.026884 0)
(1.0436 0.0273566 0)
(1.04111 0.0277466 0)
(1.03875 0.0280884 0)
(1.03609 0.0283372 0)
(1.03369 0.0285536 0)
(1.03085 0.0286621 0)
(1.02849 0.0287659 0)
(1.02543 0.0287383 0)
(1.02319 0.0287501 0)
(1.01984 0.0285937 0)
(1.01786 0.0285419 0)
(1.01409 0.0282648 0)
(1.01255 0.028185 0)
(1.00816 0.0277912 0)
(1.00731 0.0277266 0)
(1.00196 0.0272067 0)
(1.07045 -0.0197943 0)
(1.07114 -0.0191075 0)
(1.07181 -0.0183929 0)
(1.07246 -0.0176501 0)
(1.0731 -0.0168789 0)
(1.07372 -0.0160792 0)
(1.07432 -0.0152507 0)
(1.07489 -0.0143932 0)
(1.07544 -0.0135069 0)
(1.07596 -0.0125918 0)
(1.07645 -0.011648 0)
(1.0769 -0.0106758 0)
(1.07732 -0.00967567 0)
(1.0777 -0.00864798 0)
(1.07803 -0.00759338 0)
(1.07833 -0.0065126 0)
(1.07857 -0.00540653 0)
(1.07876 -0.00427619 0)
(1.0789 -0.00312275 0)
(1.07898 -0.00194755 0)
(1.079 -0.000752103 0)
(1.07896 0.000461914 0)
(1.07885 0.00169263 0)
(1.07867 0.00293797 0)
(1.07842 0.00419569 0)
(1.07809 0.00546332 0)
(1.07768 0.0067382 0)
(1.07718 0.00801744 0)
(1.07661 0.00929796 0)
(1.07594 0.0105764 0)
(1.07518 0.0118494 0)
(1.07434 0.0131131 0)
(1.07339 0.0143637 0)
(1.07235 0.0155971 0)
(1.07121 0.0168092 0)
(1.06997 0.0179954 0)
(1.06864 0.0191518 0)
(1.0672 0.0202731 0)
(1.06566 0.0213559 0)
(1.06402 0.0223941 0)
(1.06229 0.0233857 0)
(1.06045 0.0243233 0)
(1.05853 0.025207 0)
(1.0565 0.0260275 0)
(1.05442 0.0267888 0)
(1.0522 0.0274782 0)
(1.04997 0.0281059 0)
(1.04758 0.0286533 0)
(1.04523 0.0291408 0)
(1.04268 0.0295393 0)
(1.04025 0.0298859 0)
(1.03753 0.0301329 0)
(1.03508 0.0303451 0)
(1.03218 0.0304422 0)
(1.02977 0.0305346 0)
(1.02666 0.0304875 0)
(1.02439 0.0304833 0)
(1.021 0.0303008 0)
(1.01899 0.0302311 0)
(1.01518 0.0299232 0)
(1.01362 0.0298274 0)
(1.0092 0.0293994 0)
(1.00834 0.0293246 0)
(1.00296 0.0287674 0)
(1.07326 -0.0211347 0)
(1.07398 -0.0203969 0)
(1.07467 -0.0196293 0)
(1.07535 -0.0188316 0)
(1.07602 -0.0180037 0)
(1.07666 -0.0171453 0)
(1.07728 -0.0162562 0)
(1.07787 -0.0153364 0)
(1.07844 -0.0143858 0)
(1.07897 -0.0134045 0)
(1.07947 -0.0123928 0)
(1.07994 -0.011351 0)
(1.08037 -0.0102794 0)
(1.08076 -0.00917871 0)
(1.0811 -0.00804952 0)
(1.0814 -0.00689265 0)
(1.08165 -0.00570908 0)
(1.08184 -0.00449992 0)
(1.08198 -0.00326644 0)
(1.08205 -0.00201011 0)
(1.08206 -0.00073255 0)
(1.08201 0.000564411 0)
(1.08189 0.00187874 0)
(1.08169 0.00320822 0)
(1.08142 0.00455042 0)
(1.08107 0.00590267 0)
(1.08063 0.0072621 0)
(1.08011 0.00862559 0)
(1.0795 0.00998984 0)
(1.0788 0.0113513 0)
(1.078 0.0127061 0)
(1.07711 0.0140503 0)
(1.07612 0.0153799 0)
(1.07503 0.0166902 0)
(1.07384 0.017977 0)
(1.07255 0.0192352 0)
(1.07115 0.0204607 0)
(1.06965 0.0216477 0)
(1.06805 0.0227927 0)
(1.06635 0.0238891 0)
(1.06455 0.0249346 0)
(1.06264 0.0259214 0)
(1.06065 0.0268497 0)
(1.05855 0.0277094 0)
(1.05639 0.028505 0)
(1.05411 0.0292228 0)
(1.0518 0.0298738 0)
(1.04934 0.0304384 0)
(1.04692 0.0309382 0)
(1.0443 0.0313427 0)
(1.0418 0.0316912 0)
(1.03902 0.0319336 0)
(1.03651 0.0321386 0)
(1.03356 0.0322214 0)
(1.0311 0.0322995 0)
(1.02794 0.03223 0)
(1.02563 0.0322068 0)
(1.02219 0.0319957 0)
(1.02016 0.0319057 0)
(1.01632 0.0315648 0)
(1.01474 0.0314512 0)
(1.01028 0.0309875 0)
(1.00941 0.0309014 0)
(1.00401 0.0303063 0)
(1.0762 -0.0225007 0)
(1.07694 -0.0217101 0)
(1.07767 -0.0208878 0)
(1.07838 -0.0200335 0)
(1.07906 -0.019147 0)
(1.07973 -0.0182281 0)
(1.08037 -0.0172765 0)
(1.08098 -0.0162923 0)
(1.08157 -0.0152755 0)
(1.08212 -0.0142262 0)
(1.08264 -0.0131446 0)
(1.08312 -0.0120312 0)
(1.08356 -0.0108864 0)
(1.08396 -0.00971075 0)
(1.08431 -0.00850507 0)
(1.08461 -0.00727024 0)
(1.08486 -0.00600731 0)
(1.08505 -0.00471749 0)
(1.08518 -0.00340216 0)
(1.08526 -0.00206292 0)
(1.08526 -0.000701513 0)
(1.08519 0.00068009 0)
(1.08506 0.00207969 0)
(1.08484 0.00349491 0)
(1.08455 0.00492313 0)
(1.08417 0.00636148 0)
(1.08371 0.00780688 0)
(1.08316 0.00925597 0)
(1.08251 0.0107052 0)
(1.08177 0.0121507 0)
(1.08094 0.0135885 0)
(1.08 0.0150143 0)
(1.07896 0.0164235 0)
(1.07782 0.0178114 0)
(1.07658 0.0191735 0)
(1.07522 0.0205041 0)
(1.07377 0.0217989 0)
(1.0722 0.0230516 0)
(1.07054 0.0242586 0)
(1.06876 0.0254127 0)
(1.06689 0.0265116 0)
(1.06491 0.0275468 0)
(1.06285 0.0285185 0)
(1.06067 0.0294161 0)
(1.05843 0.0302442 0)
(1.05607 0.0309886 0)
(1.05369 0.0316608 0)
(1.05116 0.0322402 0)
(1.04866 0.0327499 0)
(1.04597 0.0331576 0)
(1.04341 0.0335053 0)
(1.04056 0.0337399 0)
(1.03799 0.0339347 0)
(1.03498 0.0340001 0)
(1.03247 0.0340608 0)
(1.02926 0.0339658 0)
(1.02691 0.0339208 0)
(1.02343 0.0336783 0)
(1.02136 0.0335656 0)
(1.01749 0.0331895 0)
(1.01589 0.0330561 0)
(1.01141 0.0325551 0)
(1.01053 0.0324569 0)
(1.00509 0.0318231 0)
(1.07927 -0.0238929 0)
(1.08004 -0.0230477 0)
(1.08079 -0.0221688 0)
(1.08153 -0.0212559 0)
(1.08224 -0.0203089 0)
(1.08293 -0.0193275 0)
(1.08359 -0.0183116 0)
(1.08423 -0.0172611 0)
(1.08483 -0.016176 0)
(1.0854 -0.0150567 0)
(1.08594 -0.0139033 0)
(1.08643 -0.0127163 0)
(1.08688 -0.0114962 0)
(1.08729 -0.0102437 0)
(1.08765 -0.00895958 0)
(1.08795 -0.00764485 0)
(1.0882 -0.00630065 0)
(1.0884 -0.00492829 0)
(1.08853 -0.00352926 0)
(1.08859 -0.00210529 0)
(1.08858 -0.000658252 0)
(1.08851 0.000809729 0)
(1.08835 0.00229629 0)
(1.08812 0.00379889 0)
(1.0878 0.00531472 0)
(1.0874 0.00684069 0)
(1.08691 0.00837351 0)
(1.08632 0.00990958 0)
(1.08564 0.0114451 0)
(1.08486 0.0129759 0)
(1.08398 0.0144978 0)
(1.083 0.016006 0)
(1.08191 0.0174958 0)
(1.08072 0.0189621 0)
(1.07941 0.0203999 0)
(1.078 0.0218033 0)
(1.07648 0.0231676 0)
(1.07484 0.0244862 0)
(1.07311 0.025755 0)
(1.07126 0.0269665 0)
(1.06931 0.028118 0)
(1.06725 0.0292007 0)
(1.06511 0.0302146 0)
(1.06286 0.0311487 0)
(1.06054 0.0320078 0)
(1.0581 0.0327768 0)
(1.05564 0.033468 0)
(1.05303 0.0340599 0)
(1.05046 0.0345767 0)
(1.04769 0.0349849 0)
(1.04506 0.0353287 0)
(1.04215 0.0355525 0)
(1.03951 0.0357339 0)
(1.03644 0.0357786 0)
(1.03387 0.0358186 0)
(1.03062 0.035695 0)
(1.02822 0.0356252 0)
(1.0247 0.0353485 0)
(1.02261 0.0352105 0)
(1.0187 0.0347968 0)