0.103183 	0.492331 	-7.89992e-19 	9.16085
0.104231 	0.49733 	6.55879e-20 	9.16042
