/*--------------------------------*- C++ -*----------------------------------*\
  =========                 |
  \\      /  F ield         | OpenFOAM: The Open Source CFD Toolbox
   \\    /   O peration     | Website:  https://openfoam.org
    \\  /    A nd           | Version:  7
     \\/     M anipulation  |
\*---------------------------------------------------------------------------*/
FoamFile
{
    version     2.0;
    format      ascii;
    class       volVectorField;
    location    "182";
    object      U;
}
// * * * * * * * * * * * * * * * * * * * * * * * * * * * * * * * * * * * * * //

dimensions      [0 1 -1 0 0 0 0];

internalField   nonuniform List<vector> 
12400
(
(-0.00107234 0.0384907 -8.26113e-21)
(-0.00420802 0.102518 -3.04905e-20)
(-0.00987224 0.15628 5.66215e-21)
(-0.0178758 0.199365 2.16505e-20)
(-0.0280745 0.232063 9.35593e-21)
(-0.040158 0.255598 -2.31553e-20)
(-0.0535858 0.271918 -7.50485e-21)
(-0.0676876 0.283259 -2.98467e-21)
(-0.0817571 0.291623 -2.80276e-20)
(-0.0951189 0.298325 -5.56907e-21)
(-0.107149 0.303741 -2.1707e-20)
(-0.11725 0.307269 3.76689e-21)
(-0.124787 0.307427 -1.18482e-20)
(-0.129026 0.301989 2.23049e-20)
(-0.129097 0.288121 -3.00819e-20)
(-0.124049 0.262578 -3.36349e-20)
(-0.11288 0.221867 -9.9927e-21)
(-0.0943958 0.162804 5.77202e-20)
(-0.0690422 0.0844152 -5.09426e-20)
(-0.0324106 -0.0164219 7.55162e-21)
(-0.0023479 0.0390596 1.21702e-20)
(-0.0068968 0.104525 1.96493e-20)
(-0.0124705 0.159981 6.54603e-21)
(-0.0193545 0.204832 1.90638e-20)
(-0.0276762 0.239153 -4.41672e-21)
(-0.0373236 0.263961 2.89998e-20)
(-0.0479178 0.281058 1.08946e-20)
(-0.0588816 0.292618 2.60835e-20)
(-0.0695227 0.300652 -1.5366e-20)
(-0.0791059 0.30654 3.75714e-20)
(-0.0868952 0.310724 1.23993e-19)
(-0.0921528 0.312646 -2.14489e-20)
(-0.0941099 0.310824 3.28447e-20)
(-0.0919312 0.303006 -2.00866e-20)
(-0.0846959 0.286335 5.66774e-20)
(-0.0715568 0.257625 -8.49957e-21)
(-0.0518181 0.213456 3.36203e-20)
(-0.0241528 0.15067 -2.20907e-19)
(0.00883548 0.0685116 2.16842e-20)
(0.0549119 -0.0366951 -3.43136e-20)
(-0.00361909 0.0389171 3.97572e-20)
(-0.00963743 0.104847 4.13683e-20)
(-0.0152033 0.161383 -9.27375e-21)
(-0.0210119 0.207674 -2.07968e-20)
(-0.0274177 0.243507 -8.05998e-21)
(-0.0344856 0.269624 2.96326e-20)
(-0.0419915 0.287605 4.42334e-20)
(-0.0494583 0.299492 -9.97319e-20)
(-0.0562195 0.307264 2.92838e-20)
(-0.0614939 0.312338 -3.69383e-20)
(-0.0644438 0.315232 -6.60652e-20)
(-0.0642036 0.315456 -1.38421e-20)
(-0.0598856 0.311579 -2.06904e-20)
(-0.0505823 0.301387 -4.9718e-20)
(-0.0353456 0.282079 6.49512e-20)
(-0.0134467 0.250515 -6.2492e-20)
(0.0153832 0.203585 8.70439e-21)
(0.0526607 0.138126 2.20855e-19)
(0.093192 0.0534579 -1.66015e-19)
(0.150572 -0.0547871 1.44405e-19)
(-0.00482126 0.0381042 -2.93656e-20)
(-0.0123019 0.103535 5.50414e-20)
(-0.0179474 0.160496 -7.96345e-20)
(-0.0227736 0.207827 3.69127e-20)
(-0.0273041 0.244986 -2.02625e-19)
(-0.0317395 0.272384 -1.25395e-19)
(-0.0359976 0.291315 7.98543e-20)
(-0.0397047 0.303625 1.96922e-19)
(-0.0422371 0.311208 -8.24438e-20)
(-0.0427897 0.315491 -5.75097e-20)
(-0.0404474 0.317068 -8.53949e-20)
(-0.0342409 0.315545 1.78586e-19)
(-0.0231869 0.309586 2.31153e-19)
(-0.00633246 0.297075 -1.89186e-19)
(0.0172102 0.275344 -1.60638e-19)
(0.0481273 0.241325 6.50667e-20)
(0.0861357 0.192322 -1.48478e-19)
(0.133559 0.125057 -5.16284e-21)
(0.180968 0.0394753 2.78548e-19)
(0.251817 -0.0705884 9.79509e-20)
(-0.0058995 0.0366909 1.17091e-19)
(-0.0147743 0.100706 3.70912e-20)
(-0.0205911 0.157411 1.26902e-19)
(-0.0245735 0.205313 -3.85186e-20)
(-0.0273422 0.243524 1.97791e-19)
(-0.0291874 0.272097 1.20768e-19)
(-0.0301427 0.291988 -1.46414e-19)
(-0.0299365 0.30479 -1.91365e-19)
(-0.0280051 0.31226 1.78388e-19)
(-0.0235497 0.315802 -5.12227e-20)
(-0.0156127 0.316075 7.89354e-20)
(-0.00315706 0.312802 -3.20659e-19)
(0.0148607 0.304782 1.19946e-19)
(0.0394092 0.290049 4.82521e-20)
(0.0712775 0.26611 2.61789e-20)
(0.111161 0.230104 1.05114e-19)
(0.157982 0.179658 2.95747e-19)
(0.21602 0.111548 9.43093e-21)
(0.269309 0.0258508 -9.8494e-20)
(0.356064 -0.0847063 1.01455e-19)
(-0.00681208 0.0347709 8.0989e-20)
(-0.0169621 0.0965376 3.96018e-20)
(-0.0230397 0.152303 -2.06772e-19)
(-0.0263543 0.200245 -1.23112e-19)
(-0.0275436 0.23915 -4.86949e-20)
(-0.0269332 0.268698 1.63634e-19)
(-0.0246383 0.289486 1.9595e-19)
(-0.0204812 0.302806 -2.39919e-20)
(-0.0139731 0.310228 -4.73195e-20)
(-0.00435425 0.313098 -4.22889e-20)
(0.00933298 0.312121 -1.41759e-19)
(0.0281487 0.307147 3.29565e-19)
(0.0531536 0.297141 1.53715e-22)
(0.0853034 0.280331 -1.39726e-19)
(0.125254 0.254446 -1.70956e-20)
(0.173833 0.216868 2.92274e-20)
(0.228798 0.165407 1.09668e-19)
(0.297853 0.0973515 -4.15751e-19)
(0.356092 0.0117675 1.95839e-19)
(0.461307 -0.0981827 -1.75871e-19)
(-0.00753325 0.0324569 -1.34665e-19)
(-0.0188021 0.0912572 7.81156e-20)
(-0.0252241 0.14542 9.27037e-20)
(-0.0280727 0.192831 8.03148e-20)
(-0.0279219 0.231981 1.72913e-19)
(-0.0250744 0.262208 2.50682e-20)
(-0.0196865 0.283737 -2.53997e-20)
(-0.0116578 0.297539 7.66546e-20)
(-0.000584718 0.304956 -1.15171e-19)
(0.0142232 0.30723 -1.03556e-20)
(0.033679 0.305095 5.98245e-20)
(0.0588173 0.298518 -2.80323e-19)
(0.0906711 0.286654 -9.90108e-20)
(0.130163 0.267949 9.44211e-20)
(0.177776 0.240385 -2.41108e-19)
(0.23466 0.201638 2.79802e-19)
(0.297047 0.149316 3.50562e-20)
(0.377473 0.08226 -4.4879e-20)
(0.440581 -0.00358836 -5.43015e-19)
(0.566642 -0.112051 3.28276e-19)
(-0.00805524 0.0298739 -5.3138e-20)
(-0.0202649 0.0851316 -5.81626e-20)
(-0.0271071 0.137076 -2.72763e-19)
(-0.0297036 0.183358 -1.21181e-19)
(-0.0284912 0.222233 -4.13767e-19)
(-0.023693 0.25274 -3.52134e-20)
(-0.0154616 0.274758 -2.07726e-19)
(-0.00375096 0.288926 -1.50615e-19)
(0.0117561 0.29633 3.38118e-19)
(0.031656 0.298079 5.99852e-20)
(0.0567779 0.294897 1.50347e-19)
(0.0880854 0.286858 1.99209e-19)
(0.126545 0.273304 -6.42303e-20)
(0.173042 0.252919 -2.41993e-19)
(0.227877 0.223916 2.23859e-19)
(0.292732 0.184401 2.27374e-19)
(0.362323 0.131181 -2.5016e-19)
(0.454448 0.0658148 3.68734e-19)
(0.523812 -0.0210116 5.98796e-19)
(0.672523 -0.126858 1.73644e-19)
(-0.00838883 0.0271519 1.41269e-19)
(-0.0213584 0.0784507 1.68967e-19)
(-0.0286863 0.127632 8.33139e-20)
(-0.0312421 0.172187 2.07806e-19)
(-0.0292634 0.210212 9.69082e-20)
(-0.0228438 0.24051 2.55294e-19)
(-0.0120886 0.26266 2.2363e-19)
(0.00302283 0.276985 -8.92363e-20)
(0.022729 0.284306 -1.47191e-19)
(0.0475198 0.285565 2.64835e-19)
(0.0781124 0.281449 -1.74781e-19)
(0.115369 0.272114 1.3084e-19)
(0.160166 0.257071 1.87538e-19)
(0.213383 0.235239 2.21454e-19)
(0.275197 0.204999 -6.69361e-19)
(0.348002 0.165052 -3.4479e-19)
(0.425486 0.110823 -1.02697e-19)
(0.529955 0.0474116 4.3463e-19)
(0.608918 -0.0409284 -9.90399e-19)
(0.780158 -0.142236 -3.92935e-19)
(-0.00856273 0.0244192 2.07905e-19)
(-0.0221262 0.0715107 -2.5144e-19)
(-0.0299937 0.117474 -2.63039e-19)
(-0.0327013 0.159731 -2.73752e-19)
(-0.0302416 0.196302 -1.69679e-19)
(-0.0225405 0.225833 -4.05829e-20)
(-0.00961668 0.247664 -2.79593e-19)
(0.00855639 0.261841 3.51218e-19)
(0.032157 0.268925 1.0382e-19)
(0.0615719 0.26968 1.01556e-19)
(0.0973994 0.264722 -4.27343e-19)
(0.140396 0.254258 6.66577e-20)
(0.19137 0.237942 -5.93492e-20)
(0.251258 0.214912 -1.48552e-20)
(0.320288 0.183609 -2.42866e-19)
(0.401665 0.143529 3.41353e-19)
(0.489067 0.08825 -7.39029e-20)
(0.606942 0.0268829 -9.55434e-19)
(0.700108 -0.062913 1.47667e-19)
(0.889887 -0.156797 7.1476e-19)
(-0.00862138 0.0217953 1.46126e-19)
(-0.0226439 0.0645978 -4.76044e-20)
(-0.0310903 0.106995 2.76324e-19)
(-0.0341049 0.146434 1.37909e-19)
(-0.0314088 0.180949 1.97642e-19)
(-0.0227358 0.209115 1.8551e-20)
(-0.00798663 0.230108 3.79463e-19)
(0.0129044 0.243745 -3.43998e-19)
(0.0400845 0.250358 -1.59689e-19)
(0.073862 0.250527 -6.8262e-20)
(0.114742 0.244781 4.22964e-19)
(0.163416 0.233344 -7.75463e-20)
(0.2207 0.215976 7.12476e-20)
(0.28772 0.192003 2.97108e-19)
(0.365044 0.159863 2.99915e-19)
(0.456573 0.11983 -5.47624e-19)
(0.557078 0.0637871 -3.10485e-19)
(0.689607 0.0045838 1.98938e-19)
(0.800612 -0.0853531 6.02609e-19)
(0.99966 -0.168461 -9.37731e-20)
(-0.00862129 0.0193849 -1.93648e-19)
(-0.0230102 0.0579715 -1.06529e-19)
(-0.0320537 0.0965663 -1.47256e-19)
(-0.0354732 0.132746 -1.43718e-19)
(-0.0327099 0.164642 1.63553e-19)
(-0.0232958 0.190843 -3.20604e-19)
(-0.00699 0.210439 3.17083e-19)
(0.0163467 0.223089 2.0574e-20)
(0.0468739 0.228929 -2.74383e-19)
(0.0848735 0.228374 -6.29651e-20)
(0.130826 0.221853 -2.64804e-19)
(0.185455 0.209584 1.19047e-19)
(0.249731 0.191393 -8.61591e-20)
(0.325141 0.166767 -5.61102e-19)
(0.412862 0.134108 2.74177e-20)
(0.517162 0.0942729 1.99957e-19)
(0.634223 0.0383716 4.58831e-19)
(0.781669 -0.0182177 8.28233e-19)
(0.910044 -0.105593 1.4008e-19)
(1.10466 -0.1752 -9.38757e-19)
(-0.00862575 0.0172726 -2.64929e-19)
(-0.0233333 0.0518495 -3.63272e-20)
(-0.0329605 0.086522 5.28666e-19)
(-0.0368014 0.119095 -2.36419e-19)
(-0.0340264 0.147882 1.0765e-20)
(-0.0239669 0.171559 -2.29189e-19)
(-0.0062224 0.189213 -2.19501e-19)
(0.0194591 0.200411 3.39206e-20)
(0.0533106 0.205149 1.18811e-19)
(0.0956744 0.2037 4.46424e-19)
(0.147122 0.196403 -1.43947e-19)
(0.208562 0.18345 -6.35646e-19)
(0.281303 0.164711 4.66976e-19)
(0.367311 0.139795 4.24519e-19)
(0.468405 0.107135 2.89262e-19)
(0.588443 0.0679121 7.58197e-19)
(0.724013 0.0136849 -2.56759e-19)
(0.883863 -0.0393611 -1.27379e-18)
(1.02305 -0.12077 1.97244e-19)
(1.19853 -0.175844 2.66254e-19)
(-0.00869772 0.0155166 -1.3587e-19)
(-0.0237143 0.0463947 1.83043e-19)
(-0.0338631 0.0771348 -1.83562e-19)
(-0.0380332 0.105867 2.90588e-19)
(-0.0351463 0.131155 -3.32703e-19)
(-0.0243408 0.151837 3.09435e-19)
(-0.00503799 0.167069 6.18432e-20)
(0.0231759 0.176392 -3.33966e-19)
(0.0606905 0.179722 2.79101e-19)
(0.108028 0.177232 -3.0686e-19)
(0.166005 0.169186 3.87912e-19)
(0.235879 0.155755 2.14878e-19)
(0.319417 0.136845 1.74781e-19)
(0.418962 0.112154 -2.84187e-19)
(0.536493 0.0803116 -5.58308e-20)
(0.674086 0.0425032 -4.07186e-19)
(0.826566 -0.00807109 3.09591e-19)
(0.992194 -0.0564169 2.98201e-20)
(1.13074 -0.128925 -5.33326e-19)
(1.27569 -0.170505 2.47504e-19)
(-0.00889142 0.0141451 3.10681e-20)
(-0.0242283 0.0417039 1.17435e-19)
(-0.0347652 0.0686018 2.57616e-20)
(-0.0390342 0.0933794 9.51137e-20)
(-0.0357374 0.11491 2.28772e-19)
(-0.0238271 0.132253 2.13242e-19)
(-0.00252128 0.144695 1.51542e-19)
(0.0288178 0.151821 1.91726e-19)
(0.0708393 0.153525 -3.89058e-19)
(0.124381 0.14993 -5.56753e-20)
(0.19065 0.141258 -6.34412e-19)
(0.271339 0.127674 -2.0561e-19)
(0.368575 0.109129 -2.43976e-19)
(0.484554 0.0853874 4.05028e-19)
(0.620268 0.0554749 -6.71389e-19)
(0.774225 0.0202009 1.28206e-19)
(0.937345 -0.0247793 6.91122e-20)
(1.09859 -0.0676405 7.3995e-19)
(1.22415 -0.129665 -3.54733e-19)
(1.33323 -0.160412 2.89693e-19)
(-0.0092433 0.013152 4.00322e-19)
(-0.0249052 0.0378015 1.46192e-19)
(-0.0356002 0.0610325 2.65204e-19)
(-0.0395711 0.0818634 2.40129e-19)
(-0.0353318 0.0995244 4.07529e-20)
(-0.0216475 0.113342 -5.17676e-19)
(0.00250139 0.122787 -3.82185e-19)
(0.03805 0.127548 -3.44919e-19)
(0.0860115 0.127555 3.27501e-19)
(0.147651 0.122934 1.98348e-19)
(0.224621 0.113906 7.17694e-19)
(0.318926 0.100653 -6.00505e-19)
(0.432577 0.0831934 2.28616e-19)
(0.5666 0.0613188 -4.56499e-19)
(0.71939 0.0345494 3.55199e-19)
(0.884378 0.00295601 -1.30844e-19)
(1.04802 -0.0351507 1.91958e-19)
(1.19393 -0.072606 -6.66015e-19)
(1.29752 -0.12399 5.40765e-19)
(1.37153 -0.147348 2.44322e-19)
(-0.00976344 0.0124968 -5.50538e-19)
(-0.025715 0.0346375 2.26734e-19)
(-0.0362174 0.0544427 -3.59086e-19)
(-0.039306 0.0714518 -3.38504e-19)
(-0.0333327 0.0852828 1.23561e-19)
(-0.0168669 0.0955631 6.17457e-19)
(0.0113912 0.10199 -4.48115e-19)
(0.052742 0.104405 5.78713e-20)
(0.108635 0.102829 -1.28379e-19)
(0.180783 0.0974419 -1.28697e-19)
(0.271147 0.0885014 3.34344e-19)
(0.381609 0.0762241 7.57385e-19)
(0.513158 0.0606945 -2.75328e-20)
(0.6643 0.0416617 6.91107e-20)
(0.829341 0.0190257 -2.81075e-20)
(0.996423 -0.0081028 -4.81726e-19)
(1.14932 -0.039128 4.75006e-19)
(1.27153 -0.0720946 7.61737e-19)
(1.34948 -0.113535 2.06112e-19)
(1.39345 -0.133086 -4.12932e-19)
(-0.0104306 0.0121085 -1.40721e-19)
(-0.0265595 0.0320923 4.59383e-19)
(-0.0363812 0.048755 -1.52273e-20)
(-0.0378073 0.0621692 3.25534e-19)
(-0.0290491 0.0723532 1.4968e-19)
(-0.00846369 0.0792571 1.44175e-19)
(0.0255647 0.0828352 -1.80447e-19)
(0.0747389 0.0831213 3.1165e-19)
(0.140934 0.0802731 5.45124e-20)
(0.22617 0.0745627 -1.89732e-19)
(0.332321 0.0663093 -1.12504e-19)
(0.460365 0.0557554 -5.1296e-19)
(0.609081 0.0429867 -5.29961e-19)
(0.773223 0.0276018 1.29485e-19)
(0.94245 0.00954925 -4.28467e-20)
(1.10129 -0.0129385 -1.83266e-19)
(1.23417 -0.0377196 -6.41016e-19)
(1.32884 -0.0674257 -7.73951e-19)
(1.38211 -0.0998044 -8.78334e-19)
(1.40283 -0.11909 1.10529e-19)
(-0.0111919 0.0118902 2.98179e-20)
(-0.0272758 0.0299891 -4.14618e-19)
(-0.0357824 0.0438107 -3.92176e-19)
(-0.0345791 0.0539354 -2.615e-19)
(-0.0217514 0.0607786 4.707e-19)
(0.00456924 0.0646227 -1.01767e-18)
(0.0463255 0.0656978 2.07616e-19)
(0.105594 0.0642569 -1.19491e-19)
(0.184536 0.0606242 3.44261e-19)
(0.285129 0.0551861 4.33454e-20)
(0.408492 0.0483164 -5.39937e-19)
(0.553684 0.0402275 2.43409e-19)
(0.716142 0.0308654 8.028e-20)
(0.886323 0.0195307 2.53147e-19)
(1.0502 0.00584689 -2.69435e-19)
(1.19183 -0.0124181 4.97101e-19)
(1.29944 -0.0324541 -2.07437e-19)
(1.36712 -0.0597483 1.20856e-19)
(1.39915 -0.0839028 -6.09536e-20)
(1.40328 -0.106618 -2.50638e-19)
(-0.0119635 0.0117316 4.56609e-19)
(-0.0276452 0.0281165 -8.6004e-20)
(-0.0340602 0.0393894 -5.41079e-20)
(-0.0291001 0.0465807 3.15636e-19)
(-0.0107366 0.0504843 -1.60992e-19)
(0.0231211 0.0517124 9.16992e-19)
(0.0747059 0.0507773 4.26808e-20)
(0.146341 0.0481651 2.82531e-19)
(0.24018 0.0443777 -4.77875e-19)
(0.357594 0.0399082 -3.68582e-19)
(0.49808 0.035134 5.49736e-19)
(0.657764 0.0301195 -4.60194e-19)
(0.828093 0.024472 3.75997e-19)
(0.995833 0.0170532 -7.34165e-20)
(1.14564 0.00699142 1.20223e-18)
(1.26434 -0.00787119 -2.81762e-20)
(1.34569 -0.0247945 4.19438e-19)
(1.3899 -0.0497371 6.0353e-19)
(1.40478 -0.0670932 3.57063e-19)
(1.39749 -0.0971517 5.51463e-19)
(-0.0126413 0.0115237 2.20161e-19)
(-0.0274116 0.0262529 -4.96056e-19)
(-0.0308289 0.0352385 1.67902e-19)
(-0.0208615 0.0398771 2.74612e-19)
(0.00461628 0.0413074 2.32065e-19)
(0.0478844 0.0404592 -6.67579e-19)
(0.111362 0.0381223 3.0159e-19)
(0.197379 0.0350141 1.37985e-19)
(0.30762 0.0318013 5.94867e-20)
(0.442122 0.0290371 2.49465e-19)
(0.597847 0.0269942 -1.49517e-19)
(0.767275 0.025412 4.62864e-19)
(0.938101 0.023366 -3.97582e-19)
(1.09518 0.019237 -4.14001e-19)
(1.22472 0.0117923 -7.22625e-19)
(1.31846 -0.000660162 -2.32228e-19)
(1.37574 -0.0157501 -4.9347e-19)
(1.40128 -0.037911 -5.35821e-19)
(1.40332 -0.0516867 -4.6775e-19)
(1.38743 -0.0914408 -2.38172e-19)
(-0.0131076 0.0111675 3.35027e-19)
(-0.0263026 0.0241952 -8.64782e-20)
(-0.0257028 0.0311118 -2.32149e-19)
(-0.00939608 0.0335813 -7.53426e-19)
(0.0248136 0.0330462 -6.00057e-20)
(0.0793202 0.0307322 8.012e-19)
(0.156545 0.0276912 -1.80399e-19)
(0.258464 0.0248513 1.56762e-19)
(0.385695 0.0229994 3.7476e-19)
(0.536134 0.0226516 1.13703e-19)
(0.703454 0.0238056 -7.39858e-19)
(0.876402 0.0256763 -1.85723e-19)
(1.04016 0.0267134 -1.31109e-19)
(1.18013 0.0249471 3.78468e-19)
(1.28639 0.0191019 1.10169e-18)
(1.35612 0.00811672 -3.4712e-19)
(1.39318 -0.00584391 -2.24323e-19)
(1.40462 -0.0253639 5.82891e-19)
(1.39792 -0.0397289 3.11647e-19)
(1.38151 -0.0671557 1.38426e-19)
(-0.0132425 0.0105944 -3.5932e-19)
(-0.024041 0.0217859 2.65851e-19)
(-0.0183144 0.0268035 -5.43794e-19)
(0.00570756 0.0274828 6.16866e-20)
(0.05024 0.0255193 3.82563e-19)
(0.117665 0.0224071 -8.1406e-19)
(0.210135 0.0194314 -8.57267e-19)
(0.328798 0.0176863 1.59245e-20)
(0.472512 0.0179912 -5.14698e-19)
(0.63628 0.0206661 -3.66968e-19)
(0.810141 0.0252223 5.91193e-19)
(0.979837 0.0302039 9.51721e-19)
(1.13005 0.0335122 -3.75291e-19)
(1.24901 0.033105 -2.408e-19)
(1.33177 0.0279783 -6.10049e-19)
(1.38035 0.0177469 4.64681e-20)
(1.40144 0.00458835 -1.93993e-20)
(1.40267 -0.013402 -2.35738e-20)
(1.39123 -0.0258222 5.68112e-20)
(1.37234 -0.0527185 7.46726e-19)
(-0.0129389 0.00976283 3.5959e-19)
(-0.0203653 0.0189237 3.98646e-19)
(-0.00832215 0.0221831 5.27957e-19)
(0.0248033 0.0214501 2.10595e-19)
(0.0811678 0.0186244 -2.89058e-19)
(0.162955 0.0154337 -2.03938e-19)
(0.271692 0.0133514 -2.99885e-20)
(0.407125 0.0135577 2.94812e-19)
(0.565645 0.0167599 2.7382e-19)
(0.738835 0.0228672 1.77702e-19)
(0.913372 0.0307073 -2.08487e-20)
(1.0735 0.0381452 -4.56142e-19)
(1.20557 0.0427819 3.71313e-19)
(1.30216 0.0428239 -5.45646e-20)
(1.36323 0.037748 1.73288e-19)
(1.39431 0.0278225 7.72765e-20)
(1.40337 0.0150897 -5.50638e-20)
(1.39779 -0.00131381 1.48299e-19)
(1.3831 -0.0136862 -1.09983e-19)
(1.36403 -0.0369227 -7.37864e-19)
(-0.0120971 0.00866053 1.87246e-19)
(-0.0150358 0.0155806 -7.17755e-19)
(0.00458285 0.0172155 3.54302e-19)
(0.0481889 0.0154632 1.4914e-19)
(0.117768 0.01238 -4.40437e-19)
(0.215052 0.00988325 4.32218e-19)
(0.340496 0.00956245 2.44985e-19)
(0.491818 0.0125563 -5.91534e-19)
(0.662324 0.0192541 7.28704e-20)
(0.840073 0.0289194 -1.15399e-19)
(1.00936 0.0395956 2.74165e-19)
(1.15485 0.0486355 -2.09445e-19)
(1.26635 0.0536821 -3.21668e-19)
(1.34124 0.05345 4.78358e-19)
(1.38353 0.0479868 -2.33295e-19)
(1.40083 0.0380723 9.41151e-20)
(1.40124 0.0256722 -2.18635e-19)
(1.39111 0.0103024 2.15289e-21)
(1.37482 -0.00142107 -1.9367e-19)
(1.35555 -0.0228155 2.06342e-19)
(-0.0106295 0.00730452 -4.70901e-20)
(-0.00783563 0.0117989 -2.12636e-19)
(0.0206749 0.0119683 -2.41612e-19)
(0.0761046 0.00962814 1.39713e-19)
(0.160108 0.00694399 -4.13389e-20)
(0.273639 0.00596081 2.63309e-19)
(0.41556 0.00827552 1.89232e-19)
(0.580939 0.0147992 1.824e-19)
(0.759626 0.0253535 6.05219e-20)
(0.936622 0.0383698 1.61929e-19)
(1.09537 0.0511667 2.75363e-19)
(1.22285 0.0608928 6.13351e-20)
(1.31328 0.0655632 -1.38962e-19)
(1.36849 0.0645501 1.04667e-19)
(1.39532 0.0584471 3.48462e-19)
(1.40221 0.048407 -6.26488e-19)
(1.39658 0.0362009 2.00974e-19)
(1.38362 0.0217758 2.30107e-19)
(1.36643 0.0102231 7.41916e-20)
(1.34736 -0.00934114 1.44041e-19)
(-0.0084587 0.0057346 -7.46767e-20)
(0.00142862 0.00768387 4.64083e-19)
(0.0401891 0.00660628 1.63471e-19)
(0.108722 0.00417337 -5.03631e-19)
(0.208133 0.00260416 -1.36614e-19)
(0.338199 0.00398394 2.60147e-19)
(0.495626 0.00975897 1.2797e-19)
(0.672316 0.0203725 4.50484e-19)
(0.854696 0.0348323 -1.70421e-20)
(1.02576 0.0506747 2.19421e-20)
(1.16987 0.0647211 -2.33206e-19)
(1.2777 0.0742752 -3.67799e-19)
(1.34805 0.0779696 -3.95163e-20)
(1.38631 0.0758674 -2.33187e-19)
(1.40091 0.0690168 1.95019e-19)
(1.40018 0.0587782 9.47635e-19)
(1.39046 0.046724 3.68763e-19)
(1.37574 0.0329925 -3.56853e-19)
(1.35819 0.0216305 -1.74323e-19)
(1.33939 0.00352097 6.87581e-20)
(-0.00551439 0.00400741 3.66376e-19)
(0.0129252 0.00339253 -5.64153e-19)
(0.0633116 0.00137718 -5.41524e-19)
(0.146124 -0.000571636 7.43326e-19)
(0.261637 -0.000252995 2.25335e-19)
(0.407985 0.00433379 -1.4052e-19)
(0.579173 0.0142732 -4.11469e-19)
(0.763658 0.0292719 -5.15608e-19)
(0.944975 0.0473494 3.47418e-19)
(1.10558 0.065251 6.17267e-20)
(1.23238 0.0796414 1.86356e-19)
(1.32041 0.0883027 1.5404e-19)
(1.37264 0.0906148 -8.25013e-21)
(1.39687 0.0872752 -1.04256e-19)
(1.40211 0.0796569 -2.10017e-19)
(1.39594 0.0691957 -5.6625e-19)
(1.38351 0.0572295 -2.20915e-19)
(1.36777 0.0440546 7.34275e-19)
(1.3501 0.0327339 1.20366e-19)
(1.33163 0.015821 -1.7442e-19)
(-0.00173303 0.00219215 -3.81925e-19)
(0.0267939 -0.000878516 3.96719e-19)
(0.0901657 -0.00340908 9.52713e-21)
(0.188275 -0.00420706 -1.68532e-19)
(0.320221 -0.00118801 -5.52929e-20)
(0.481999 0.00739374 -4.89654e-20)
(0.664467 0.0220056 -3.02469e-19)
(0.852715 0.0413688 3.68658e-19)
(1.0284 0.0624743 -6.1557e-19)
(1.17504 0.0815356 1.49923e-21)
(1.28324 0.0954298 -1.11576e-19)
(1.35249 0.102649 -5.5478e-20)
(1.38901 0.103343 1.27969e-19)
(1.40201 0.0987302 -2.83529e-19)
(1.40027 0.090372 -1.63288e-20)
(1.39031 0.0796715 1.56023e-19)
(1.37613 0.0677437 -3.81875e-19)
(1.35981 0.0549614 -3.66114e-21)
(1.34218 0.043608 2.33069e-22)
(1.32404 0.027686 3.08961e-19)
(0.00294647 0.000364625 5.52643e-20)
(0.0431401 -0.00490528 1.09195e-19)
(0.120795 -0.00740186 2.15793e-19)
(0.235 -0.00629741 -1.18126e-19)
(0.383281 0.000242313 -3.85722e-19)
(0.55901 0.0134909 1.00973e-19)
(0.749661 0.0330254 2.31206e-19)
(0.937457 0.0564122 1.27771e-19)
(1.10351 0.0797353 4.33366e-19)
(1.23386 0.0990318 -1.18993e-19)
(1.3234 0.111717 -7.1379e-20)
(1.37558 0.117118 6.06973e-20)
(1.39896 0.116092 -1.73945e-19)
(1.40322 0.110237 -2.41681e-19)
(1.39638 0.101181 -1.5794e-19)
(1.38382 0.0902228 1.29682e-19)
(1.36851 0.0782703 3.24013e-19)
(1.35187 0.0657427 -1.56518e-19)
(1.33437 0.0542689 -2.4171e-19)
(1.31655 0.0391383 3.61012e-20)
(0.00857603 -0.00138756 9.85508e-20)
(0.0620266 -0.00843965 2.29595e-20)
(0.155148 -0.0102287 -2.90224e-19)
(0.285962 -0.00640456 3.87149e-19)
(0.449996 0.00444028 8.70913e-20)
(0.637605 0.0228522 -4.59196e-19)
(0.832929 0.0472684 1.76532e-19)
(1.01622 0.0740596 -2.3295e-19)
(1.1695 0.0986685 1.14727e-20)
(1.28237 0.117336 3.81317e-20)
(1.35408 0.128254 1.1063e-19)
(1.39131 0.131609 1.25984e-20)
(1.40399 0.128854 4.89665e-19)
(1.40158 0.12182 1.93937e-19)
(1.39109 0.112104 -9.12628e-20)
(1.37676 0.100858 -1.06404e-19)
(1.36075 0.0888135 6.08196e-20)
(1.34396 0.0764049 6.21627e-20)
(1.32662 0.0647376 -1.02567e-19)
(1.30911 0.0502386 -1.13326e-19)
(0.0151916 -0.00297134 -1.15493e-19)
(0.0834605 -0.0112237 7.78525e-21)
(0.193063 -0.0115146 5.93415e-20)
(0.340657 -0.00411683 -1.63421e-19)
(0.519362 0.0117324 3.17488e-19)
(0.716275 0.0355814 1.82963e-19)
(0.9126 0.0645493 -1.86561e-19)
(1.08779 0.0939205 -1.2383e-19)
(1.22611 0.118856 1.12232e-19)
(1.32131 0.136141 -1.74385e-19)
(1.37662 0.144888 1.29317e-19)
(1.40112 0.14609 -2.77165e-21)
(1.40529 0.141652 4.14618e-21)
(1.3979 0.133508 -9.61456e-20)
(1.38483 0.123153 2.73455e-19)
(1.36932 0.111576 -2.26573e-20)
(1.35287 0.0993672 1.15303e-19)
(1.33603 0.0869531 -1.66246e-19)
(1.31888 0.0750262 1.26559e-19)
(1.30168 0.0610103 -5.08356e-20)
(0.0228163 -0.00428776 1.90476e-19)
(0.107387 -0.0129925 2.31649e-19)
(0.234261 -0.0108963 1.72988e-19)
(0.398423 0.000927614 -2.48538e-20)
(0.590232 0.0223466 3.65937e-20)
(0.793517 0.0516565 3.25045e-21)
(0.987264 0.0845917 4.0421e-19)
(1.15142 0.115597 -1.19886e-19)
(1.27353 0.139944 8.41429e-20)
(1.35164 0.155232 -4.24724e-19)
(1.39234 0.161541 6.18675e-20)
(1.40626 0.160567 1.85666e-19)
(1.40379 0.154518 -8.41901e-20)
(1.39273 0.145323 1.73357e-19)
(1.37786 0.134331 -2.25367e-19)
(1.36156 0.12237 3.06447e-19)
(1.34485 0.10992 1.00553e-20)
(1.32803 0.0973851 -1.01347e-19)
(1.31109 0.0851408 3.91269e-21)
(1.29419 0.0714799 1.51052e-19)
(0.03145 -0.00523193 -3.60573e-19)
(0.133681 -0.0134812 9.30857e-20)
(0.278348 -0.00803693 -3.58526e-20)
(0.45846 0.00902256 -2.68168e-19)
(0.661383 0.0364018 -9.95438e-20)
(0.867928 0.070943 -1.91918e-19)
(1.05584 0.107063 -1.6644e-19)
(1.20679 0.138714 -1.79157e-19)
(1.31227 0.16165 1.83728e-19)
(1.37439 0.174466 9.06408e-20)
(1.40241 0.178183 -2.64905e-19)
(1.40772 0.175065 -6.57176e-20)
(1.40016 0.167482 -3.11783e-20)
(1.38644 0.157275 -1.30624e-19)
(1.37032 0.145629 -2.23188e-20)
(1.35351 0.133224 -5.40269e-20)
(1.33666 0.120457 -2.17217e-19)
(1.31992 0.107694 1.0525e-19)
(1.30321 0.0950833 1.28957e-19)
(1.28661 0.0816608 -3.18327e-20)
(0.0410673 -0.00569579 1.32687e-20)
(0.162145 -0.0124338 -1.69425e-19)
(0.324816 -0.00263898 7.94573e-20)
(0.519864 0.0203805 -5.56915e-20)
(0.731582 0.0539072 6.91539e-20)
(0.93828 0.0932165 3.16703e-19)
(1.11757 0.131607 -1.37897e-19)
(1.25392 0.162936 3.4207e-19)
(1.34301 0.183756 1.66231e-20)
(1.39061 0.193756 1.69267e-19)
(1.40785 0.194814 1.48809e-20)
(1.40628 0.18961 1.16672e-19)
(1.39488 0.18056 2.42699e-20)
(1.37926 0.169363 1.17331e-20)
(1.36228 0.157029 -1.71862e-19)
(1.34516 0.144115 3.04483e-20)
(1.32827 0.130955 1.57015e-19)
(1.31164 0.11787 7.18411e-21)
(1.29519 0.10485 -7.66578e-20)
(1.27889 0.0915617 3.12607e-20)
(0.0516144 -0.00557134 4.45402e-20)
(0.192504 -0.00961206 1.38064e-19)
(0.373064 0.00554306 1.5047e-19)
(0.581666 0.0351246 -4.12121e-20)
(0.799651 0.0747703 1.98509e-19)
(1.00357 0.118188 -3.99923e-20)
(1.17204 0.157865 3.25351e-19)
(1.29306 0.18797 -4.12555e-19)
(1.36653 0.2061 -7.30156e-20)
(1.40125 0.213052 -7.29852e-20)
(1.4095 0.211443 -8.79725e-20)
(1.40252 0.204224 -2.10255e-20)
(1.38827 0.193759 3.01363e-20)
(1.37131 0.181569 -1.10859e-19)
(1.35378 0.168505 1.14424e-19)
(1.33648 0.155015 -4.98915e-20)
(1.31963 0.14139 -3.87581e-20)
(1.30316 0.127898 -3.5501e-20)
(1.28699 0.114435 -2.23479e-20)
(1.271 0.101184 -7.12257e-20)
(0.0630084 -0.00475444 2.11471e-19)
(0.224416 -0.00480543 -2.13053e-19)
(0.422412 0.0166919 2.55818e-20)
(0.642874 0.053285 -2.74545e-20)
(0.864515 0.0988099 -7.2358e-20)
(1.06303 0.145526 -1.48988e-19)
(1.21908 0.185496 -2.27003e-20)
(1.32467 0.213572 1.00373e-19)
(1.38363 0.228559 4.61588e-20)
(1.40713 0.232324 -5.62041e-20)
(1.40802 0.22808 6.33587e-20)
(1.39687 0.218914 -1.37125e-20)
(1.38054 0.207065 -1.2687e-19)
(1.36267 0.193867 1.86202e-19)
(1.3448 0.180021 5.19088e-20)
(1.32745 0.165891 -2.79374e-20)
(1.31069 0.151734 3.423e-20)
(1.29443 0.13776 5.29024e-20)
(1.27857 0.123825 5.22507e-20)
(1.2629 0.110525 5.51908e-20)
(0.0751379 -0.00314893 -2.20448e-19)
(0.257477 0.00215974 1.78117e-19)
(0.472126 0.030919 7.86364e-20)
(0.702516 0.0748009 -1.623e-19)
(0.925246 0.125772 -3.53198e-20)
(1.11613 0.17488 -1.36202e-19)
(1.25873 0.214179 5.45184e-20)
(1.34926 0.239533 -9.0594e-20)
(1.39504 0.251042 6.93933e-21)
(1.40897 0.251552 1.46446e-20)
(1.40394 0.244725 2.78411e-20)
(1.38962 0.233671 -1.06022e-19)
(1.37183 0.220454 1.0924e-19)
(1.35336 0.206218 -7.81712e-20)
(1.33533 0.191537 -2.15399e-20)
(1.31801 0.176705 1.03995e-20)
(1.30142 0.161954 -2.37564e-20)
(1.28542 0.147435 -5.53222e-20)
(1.2699 0.133006 -2.4494e-21)
(1.25457 0.119577 -3.78624e-20)
(0.0878641 -0.000670879 -2.73656e-20)
(0.291233 0.0114116 -8.39474e-20)
(0.521447 0.048259 -2.8921e-20)
(0.759676 0.0995256 4.65555e-20)
(0.981075 0.155347 -2.92786e-20)
(1.16255 0.205886 3.0141e-20)
(1.2912 0.24362 7.08435e-20)
(1.3674 0.265674 6.30017e-20)
(1.40145 0.27347 5.00686e-20)
(1.40735 0.270712 -1.11461e-20)
(1.39764 0.261366 -2.95487e-20)
(1.38098 0.24847 3.51657e-20)
(1.36219 0.233885 -1.73764e-20)
(1.34339 0.218576 2.21179e-20)
(1.32533 0.203006 -1.35132e-20)
(1.30814 0.187418 2.91571e-20)
(1.29178 0.172018 -8.04435e-21)
(1.27609 0.1569 3.449e-20)
(1.26096 0.141959 -8.39924e-21)
(1.24598 0.128328 5.26414e-21)
(0.101025 0.00274747 -6.65957e-22)
(0.325191 0.0230261 -4.18116e-22)
(0.569613 0.0686679 -1.01706e-20)
(0.813521 0.127236 5.11166e-20)
(1.0314 0.187181 3.30958e-20)
(1.20215 0.238186 -2.55356e-20)
(1.3168 0.273548 -1.92641e-20)
(1.37967 0.291841 -5.92174e-21)
(1.40344 0.295775 -2.81181e-20)
(1.40272 0.289774 -1.68315e-21)
(1.3894 0.277973 1.22781e-21)
(1.37108 0.26327 -1.23361e-20)
(1.35166 0.247307 -7.98891e-21)
(1.33274 0.230887 -1.82593e-20)
(1.31477 0.214378 -1.96177e-20)
(1.2978 0.197984 -1.69719e-21)
(1.28174 0.181887 7.32097e-21)
(1.26642 0.166128 7.92932e-21)
(1.25172 0.150659 9.21735e-21)
(1.23713 0.136761 1.31364e-20)
(0.114438 0.00715435 3.33376e-20)
(0.358839 0.0370222 -5.38941e-21)
(0.615889 0.0920245 -9.51073e-21)
(0.863321 0.157641 2.44056e-20)
(1.07579 0.220896 4.88734e-20)
(1.23491 0.271428 -2.16582e-20)
(1.33589 0.303712 -1.75697e-20)
(1.38659 0.317892 -3.27153e-20)
(1.40154 0.317886 -2.92673e-20)
(1.39547 0.308693 5.57531e-21)
(1.37943 0.294502 -4.99116e-21)
(1.35999 0.278014 -2.07475e-21)
(1.34026 0.260658 -1.17159e-20)
(1.32138 0.243088 -1.88144e-20)
(1.30363 0.225597 -4.17715e-21)
(1.28697 0.208355 -1.50094e-21)
(1.27128 0.191523 -5.76559e-22)
(1.25639 0.175088 3.80614e-21)
(1.24217 0.159078 1.44574e-20)
(1.22801 0.144859 1.15889e-20)
(0.127909 0.0125757 -2.03976e-20)
(0.391659 0.05336 -3.26749e-20)
(0.659585 0.118135 -4.36404e-20)
(0.908465 0.190399 5.83771e-20)
(1.11394 0.256093 5.53118e-20)
(1.26096 0.30527 4.47946e-22)
(1.34887 0.333881 2.04677e-20)
(1.38865 0.343692 5.67955e-20)
(1.39615 0.339727 6.14524e-20)
(1.38586 0.327412 3.90908e-20)
(1.36787 0.310891 -9.51322e-20)
(1.34776 0.292636 3.93847e-20)
(1.32798 0.273868 -1.73036e-20)
(1.30931 0.255115 4.06112e-20)
(1.29189 0.236605 -1.01005e-21)
(1.27562 0.218482 -6.64432e-21)
(1.26038 0.200884 3.77473e-21)
(1.24598 0.183747 3.39209e-20)
(1.23228 0.167184 -1.35029e-20)
(1.2186 0.152602 -1.13353e-21)
(0.14123 0.0190136 -6.67477e-20)
(0.42314 0.0719405 1.56914e-19)
(0.700071 0.146738 1.53356e-20)
(0.94846 0.22512 -1.99771e-19)
(1.1457 0.292365 -3.58327e-20)
(1.28048 0.33938 8.39753e-20)
(1.35614 0.363831 -1.92071e-19)
(1.38631 0.36911 -1.2861e-21)
(1.38764 0.361213 1.58633e-20)
(1.37411 0.345859 -4.35764e-21)
(1.35482 0.327063 5.0019e-20)
(1.33442 0.307054 -8.06584e-20)
(1.31481 0.286859 1.23981e-20)
(1.2965 0.266895 -2.80084e-20)
(1.27951 0.247339 -2.13761e-20)
(1.26374 0.22831 2.06089e-20)
(1.24902 0.209928 -2.03121e-21)
(1.23518 0.192071 -5.29532e-20)
(1.22206 0.174948 2.08368e-21)
(1.20885 0.159971 -2.32884e-20)
(0.154194 0.0264448 5.01958e-20)
(0.452798 0.0926081 -8.96783e-20)
(0.736798 0.177516 -7.19499e-21)
(0.982933 0.261387 -1.70063e-19)
(1.17102 0.329304 -1.01356e-19)
(1.29372 0.37344 8.27712e-20)
(1.35811 0.393352 -9.53745e-20)
(1.37995 0.394011 1.04647e-20)
(1.37629 0.382247 7.54347e-20)
(1.3604 0.363944 -2.09031e-20)
(1.34034 0.34293 8.03549e-21)
(1.31999 0.321181 2.47284e-20)
(1.30075 0.29955 -8.35589e-20)
(1.28293 0.278356 1.05669e-19)
(1.26649 0.257735 9.70129e-20)
(1.25129 0.237783 -2.27864e-20)
(1.23718 0.218607 -3.32134e-20)
(1.22399 0.200024 3.73795e-20)
(1.21151 0.18236 2.08518e-20)
(1.19875 0.166945 4.60874e-20)
(0.166595 0.0348213 -1.94456e-19)
(0.480183 0.115155 8.97047e-20)
(0.7693 0.210104 -6.47836e-20)
(1.01162 0.298758 1.77144e-19)
(1.18994 0.366502 1.86905e-20)