/*--------------------------------*- C++ -*----------------------------------*\
  =========                 |
  \\      /  F ield         | OpenFOAM: The Open Source CFD Toolbox
   \\    /   O peration     | Website:  https://openfoam.org
    \\  /    A nd           | Version:  7
     \\/     M anipulation  |
\*---------------------------------------------------------------------------*/
FoamFile
{
    version     2.0;
    format      ascii;
    class       volScalarField;
    location    "49";
    object      p;
}
// * * * * * * * * * * * * * * * * * * * * * * * * * * * * * * * * * * * * * //

dimensions      [0 2 -2 0 0 0 0];

internalField   nonuniform List<scalar> 
12400
(
-0.214995
-0.216808
-0.217979
-0.218864
-0.219635
-0.220323
-0.220967
-0.221594
-0.222216
-0.222828
-0.223416
-0.223956
-0.224416
-0.224757
-0.224936
-0.224905
-0.224615
-0.224039
-0.223124
-0.221885
-0.215295
-0.217075
-0.218226
-0.219097
-0.219856
-0.220534
-0.221169
-0.221789
-0.222405
-0.223013
-0.223598
-0.224135
-0.224594
-0.224936
-0.225116
-0.225083
-0.224788
-0.2242
-0.223255
-0.221903
-0.215881
-0.217598
-0.21871
-0.219553
-0.220287
-0.220944
-0.221561
-0.222166
-0.222769
-0.223366
-0.223943
-0.224476
-0.224932
-0.225273
-0.225452
-0.225418
-0.22511
-0.224499
-0.223507
-0.22191
-0.216737
-0.218363
-0.219418
-0.220218
-0.220915
-0.22154
-0.22213
-0.22271
-0.223293
-0.223873
-0.224436
-0.224959
-0.225408
-0.225746
-0.225924
-0.225886
-0.225561
-0.224911
-0.223886
-0.221866
-0.217842
-0.219351
-0.220333
-0.221077
-0.221725
-0.222306
-0.222856
-0.223402
-0.223954
-0.224508
-0.22505
-0.225556
-0.225994
-0.226324
-0.226498
-0.226455
-0.226109
-0.225393
-0.22441
-0.221697
-0.219167
-0.22054
-0.221434
-0.222109
-0.222694
-0.223219
-0.223717
-0.224216
-0.224726
-0.225243
-0.225754
-0.226234
-0.226652
-0.226968
-0.227131
-0.227082
-0.226718
-0.225884
-0.225117
-0.221254
-0.220681
-0.221903
-0.222697
-0.223291
-0.223801
-0.224255
-0.224687
-0.225125
-0.225578
-0.226044
-0.22651
-0.226953
-0.227341
-0.227633
-0.227776
-0.227713
-0.227348
-0.226272
-0.226042
-0.220383
-0.222354
-0.223416
-0.2241
-0.224601
-0.225021
-0.225389
-0.225739
-0.226097
-0.226477
-0.226876
-0.227282
-0.227672
-0.228014
-0.22827
-0.22838
-0.228288
-0.227962
-0.22645
-0.226981
-0.219847
-0.224153
-0.225052
-0.225618
-0.226016
-0.226332
-0.226596
-0.226845
-0.227106
-0.227392
-0.227704
-0.22803
-0.228349
-0.228629
-0.228831
-0.228892
-0.228738
-0.228471
-0.226645
-0.227588
-0.219102
-0.226053
-0.22679
-0.227234
-0.227516
-0.227713
-0.227856
-0.227983
-0.228123
-0.228294
-0.228496
-0.228722
-0.228948
-0.229145
-0.229274
-0.22927
-0.229026
-0.228827
-0.226515
-0.22825
-0.218008
-0.228033
-0.228615
-0.228931
-0.229087
-0.229148
-0.22915
-0.229132
-0.229128
-0.229159
-0.229228
-0.229328
-0.22944
-0.229531
-0.229564
-0.229476
-0.229094
-0.229025
-0.225968
-0.228827
-0.216658
-0.23008
-0.230515
-0.230701
-0.230719
-0.230628
-0.230467
-0.23028
-0.230107
-0.22997
-0.22988
-0.229832
-0.229805
-0.229768
-0.229682
-0.229493
-0.228915
-0.229017
-0.225063
-0.229074
-0.215258
-0.232191
-0.232489
-0.232541
-0.232409
-0.232147
-0.231801
-0.23142
-0.231051
-0.230722
-0.230447
-0.230224
-0.230037
-0.22985
-0.229619
-0.229311
-0.228491
-0.228728
-0.223913
-0.228678
-0.214034
-0.234372
-0.234544
-0.234457
-0.234161
-0.23371
-0.233155
-0.232555
-0.231963
-0.231415
-0.230931
-0.230512
-0.230141
-0.229783
-0.229383
-0.22893
-0.227847
-0.22806
-0.222665
-0.22733
-0.213021
-0.236643
-0.236695
-0.236463
-0.235988
-0.235327
-0.23454
-0.233696
-0.232856
-0.232065
-0.231349
-0.230713
-0.230139
-0.22959
-0.228995
-0.228353
-0.227013
-0.226923
-0.221391
-0.224907
-0.211919
-0.239033
-0.238967
-0.23858
-0.23791
-0.237017
-0.235975
-0.234863
-0.233752
-0.232697
-0.231729
-0.230856
-0.23006
-0.229296
-0.228479
-0.227582
-0.225989
-0.225282
-0.219986
-0.221562
-0.210245
-0.241584
-0.241395
-0.24084
-0.239954
-0.238808
-0.237488
-0.236086
-0.234683
-0.233345
-0.232107
-0.23098
-0.229942
-0.228935
-0.227853
-0.226617
-0.224727
-0.223154
-0.218193
-0.217571
-0.207649
-0.244345
-0.244019
-0.243277
-0.242154
-0.240732
-0.239113
-0.2374
-0.235689
-0.234051
-0.232529
-0.231131
-0.229824
-0.228531
-0.227122
-0.225448
-0.223142
-0.220566
-0.215754
-0.213066
-0.204098
-0.247376
-0.246888
-0.245936
-0.244552
-0.24283
-0.24089
-0.23885
-0.236815
-0.234864
-0.233043
-0.231351
-0.229738
-0.2281
-0.226272
-0.224043
-0.221152
-0.217521
-0.212526
-0.20793
-0.199755
-0.250736
-0.250055
-0.248863
-0.24719
-0.245146
-0.242865
-0.240482
-0.23811
-0.235834
-0.233694
-0.231676
-0.229705
-0.227636
-0.225272
-0.222356
-0.218703
-0.214029
-0.208518
-0.202096
-0.194806
-0.254493
-0.253573
-0.252106
-0.250118
-0.247726
-0.245086
-0.242345
-0.239624
-0.237006
-0.234522
-0.232132
-0.229726
-0.227117
-0.224077
-0.220336
-0.215776
-0.21011
-0.203841
-0.196098
-0.189192
-0.258709
-0.257498
-0.255718
-0.253382
-0.250619
-0.247602
-0.244489
-0.241404
-0.238424
-0.235555
-0.232727
-0.229783
-0.226499
-0.222636
-0.217946
-0.212388
-0.205772
-0.198623
-0.190367
-0.182791
-0.263447
-0.261883
-0.259748
-0.257032
-0.253872
-0.25046
-0.24696
-0.243493
-0.240117
-0.236807
-0.233447
-0.229838
-0.225732
-0.220904
-0.21517
-0.208581
-0.201048
-0.193148
-0.184373
-0.17629
-0.268762
-0.266779
-0.264243
-0.261115
-0.257534
-0.253708
-0.249804
-0.245927
-0.242106
-0.238271
-0.234259
-0.229836
-0.224757
-0.218844
-0.212012
-0.204398
-0.196028
-0.187449
-0.178257
-0.169871
-0.274705
-0.272232
-0.269249
-0.265677
-0.261651
-0.257391
-0.253057
-0.248728
-0.244391
-0.239922
-0.235113
-0.229716
-0.223522
-0.216437
-0.20849
-0.199898
-0.190765
-0.181603
-0.172053
-0.163402
-0.281317
-0.278281
-0.274807
-0.27076
-0.266265
-0.261547
-0.256748
-0.251908
-0.246955
-0.241712
-0.235939
-0.229407
-0.221979
-0.213673
-0.20463
-0.195124
-0.185307
-0.175631
-0.165759
-0.156897
-0.288628
-0.28496
-0.280952
-0.276403
-0.271414
-0.266209
-0.260895
-0.255457
-0.249757
-0.243573
-0.236658
-0.228841
-0.220094
-0.210555
-0.200461
-0.19011
-0.179678
-0.169537
-0.159379
-0.150306
-0.29666
-0.292292
-0.287713
-0.282637
-0.277129
-0.271395
-0.265495
-0.259341
-0.252732
-0.245415
-0.237181
-0.227954
-0.21784
-0.207088
-0.196001
-0.184876
-0.173882
-0.163315
-0.15289
-0.143611
-0.305418
-0.30029
-0.295108
-0.289483
-0.283425
-0.277108
-0.270521
-0.263499
-0.255787
-0.247137
-0.237418
-0.226692
-0.215199
-0.203277
-0.191261
-0.179422
-0.167912
-0.156945
-0.146273
-0.136787
-0.31489
-0.30895
-0.30314
-0.296946
-0.290301
-0.283322
-0.275917
-0.26784
-0.258808
-0.248624
-0.237285
-0.225007
-0.212155
-0.199121
-0.186238
-0.173738
-0.161747
-0.150405
-0.139503
-0.129812
-0.325043
-0.31825
-0.311797
-0.305014
-0.297728
-0.289984
-0.281591
-0.27224
-0.261661
-0.249761
-0.236702
-0.22286
-0.208691
-0.194609
-0.180918
-0.167805
-0.155363
-0.143668
-0.132556
-0.122664
-0.335819
-0.328145
-0.321039
-0.313642
-0.305647
-0.297
-0.287416
-0.276552
-0.264202
-0.250434
-0.2356
-0.220213
-0.204786
-0.189721
-0.175278
-0.161594
-0.148731
-0.136708
-0.125405
-0.115322
-0.347128
-0.338563
-0.330799
-0.322757
-0.313959
-0.304238
-0.29323
-0.280602
-0.266279
-0.250536
-0.233912
-0.217028
-0.200412
-0.18443
-0.169288
-0.155075
-0.141819
-0.129496
-0.118026
-0.107766
-0.35885
-0.349399
-0.340978
-0.332246
-0.322524
-0.311526
-0.298841
-0.284207
-0.267747
-0.249968
-0.231579
-0.213264
-0.195534
-0.178701
-0.162912
-0.148212
-0.134597
-0.122007
-0.110397
-0.0999782
-0.370827
-0.360512
-0.351436
-0.341955
-0.33116
-0.318656
-0.304032
-0.287177
-0.268463
-0.248636
-0.228539
-0.208876
-0.190112
-0.172494
-0.156112
-0.140971
-0.127034
-0.114216
-0.102494
-0.0919403
-0.382864
-0.371727
-0.361996
-0.351687
-0.339643
-0.325386
-0.308575
-0.289324
-0.268295
-0.246455
-0.224733
-0.203815
-0.184101
-0.165768
-0.148851
-0.133317
-0.119101
-0.106097
-0.0942981
-0.083637
-0.39473
-0.382828
-0.37244
-0.361203
-0.347714
-0.331455
-0.312236
-0.290469
-0.267121
-0.243341
-0.220098
-0.198029
-0.177453
-0.158478
-0.141088
-0.125217
-0.11077
-0.0976287
-0.0857888
-0.0750543
-0.40616
-0.393565
-0.38251
-0.37023
-0.355085
-0.336587
-0.314785
-0.290443
-0.264824
-0.239213
-0.214573
-0.191463
-0.170119
-0.150581
-0.132787
-0.11664
-0.102017
-0.0887912
-0.076949
-0.0661797
-0.416856
-0.403653
-0.391916
-0.37846
-0.36145
-0.340504
-0.316002
-0.289092
-0.261301
-0.233997
-0.208096
-0.184063
-0.162051
-0.142035
-0.123913
-0.107557
-0.0928184
-0.0795667
-0.0677645
-0.0570052
-0.426498
-0.412782
-0.400338
-0.385568
-0.366494
-0.342939
-0.315685
-0.286275
-0.256455
-0.227619
-0.200604
-0.175777
-0.153204
-0.132803
-0.114435
-0.0979423
-0.0831564
-0.0699406
-0.0582262
-0.0475305
-0.434746
-0.420619
-0.407439
-0.391214
-0.369906
-0.343636
-0.313651
-0.281868
-0.250196
-0.220009
-0.192042
-0.166555
-0.143536
-0.12285
-0.104324
-0.0877754
-0.073014
-0.0599006
-0.0483298
-0.0377625
-0.441252
-0.42682
-0.412872
-0.395061
-0.371387
-0.342366
-0.309737
-0.275761
-0.242447
-0.211106
-0.182356
-0.156352
-0.133009
-0.112146
-0.0935582
-0.0770386
-0.0623779
-0.049436
-0.0380702
-0.0277017
-0.445667
-0.431038
-0.416289
-0.396784
-0.370664
-0.338923
-0.303806
-0.26786
-0.23314
-0.200855
-0.1715
-0.145129
-0.121593
-0.100668
-0.0821205
-0.0657186
-0.0512389
-0.0385403
-0.0274362
-0.017315
-0.447655
-0.432935
-0.417358
-0.396077
-0.367491
-0.333136
-0.295743
-0.25809
-0.222215
-0.189209
-0.159435
-0.132858
-0.109266
-0.088399
-0.0699983
-0.0538059
-0.0395927
-0.0272157
-0.0164185
-0.00652514
-0.446896
-0.432191
-0.415768
-0.392668
-0.36166
-0.324864
-0.285461
-0.24639
-0.209631
-0.176132
-0.146133
-0.119516
-0.0960112
-0.0753253
-0.0571816
-0.0412982
-0.0274396
-0.015471
-0.00502925
0.00468725
-0.443102
-0.428512
-0.41124
-0.386325
-0.353004
-0.314
-0.272895
-0.23272
-0.195355
-0.1616
-0.131576
-0.105087
-0.0818178
-0.0614399
-0.0436628
-0.0282103
-0.0147914
-0.00331312
0.00673254
0.0160283
-0.43602
-0.421641
-0.403538
-0.376858
-0.341397
-0.300475
-0.258007
-0.217058
-0.179374
-0.145603
-0.115754
-0.0895619
-0.0666722
-0.0467605
-0.029451
-0.0145676
-0.00168393
0.00925918
0.018858
0.0275917
-0.425442
-0.411367
-0.392473
-0.364128
-0.326757
-0.284252
-0.240787
-0.199401
-0.161686
-0.12814
-0.098668
-0.0729499
-0.0505777
-0.031329
-0.0146273
-0.00033168
0.0118963
0.0222277
0.0313048
0.0394122
-0.411209
-0.397528
-0.377907
-0.348047
-0.309049
-0.265328
-0.221247
-0.179766
-0.142308
-0.109227
-0.0803414
-0.0552985
-0.0336506
-0.015086
0.000853504
0.0144369
0.025929
0.0355687
0.0440503
0.0514785
-0.393216
-0.380015
-0.35976
-0.328578
-0.288277
-0.243736
-0.199427
-0.158191
-0.121275
-0.0889033
-0.0608336
-0.03662
-0.0158425
0.00188307
0.0169597
0.0297117
0.0403835
0.0492558
0.0570734
0.0637633
-0.371416
-0.358776
-0.338004
-0.305734
-0.264489
-0.21954
-0.175392
-0.134734
-0.0986485
-0.0672337
-0.0401563
-0.0169584
0.00280351
0.0195422
0.0336479
0.0454609
0.0552259
0.0632586
0.0703462
0.0762344
-0.345819
-0.333818
-0.312669
-0.27958
-0.23778
-0.192838
-0.149227
-0.109478
-0.0744976
-0.0442613
-0.0183779
0.00363293
0.0222327
0.0378478
0.0508713
0.0616453
0.0704185
0.0775416
0.0838325
0.0888541
-0.316491
-0.305204
-0.283844
-0.25024
-0.208287
-0.163742
-0.121035
-0.0825193
-0.0489046
-0.0200681
0.00442951
0.0250881
0.0423825
0.0567474
0.0685795
0.0782192
0.0859196
0.0920648
0.09749
0.101579
-0.283557
-0.273051
-0.251675
-0.21789
-0.176153
-0.132355
-0.090963
-0.0539765
-0.0219754
0.00525103
0.0281811
0.0473307
0.0631834
0.0761791
0.0867161
0.0951313
0.101684
0.106787
0.111276
0.114365
-0.247186
-0.237536
-0.216367
-0.182705
-0.141447
-0.0989445
-0.0591674
-0.0239875
0.00616819
0.0315877
0.0527805
0.0702742
0.0845576
0.0960735
0.105218
0.112325
0.117661
0.121668
0.125157
0.127179
-0.207579
-0.198897
-0.178137
-0.144737
-0.104577
-0.0636784
-0.0258248
0.0072925
0.0353897
0.0588211
0.0781202
0.0938226
0.10642
0.116355
0.124018
0.129736
0.133798
0.136668
0.139092
0.139979
-0.16497
-0.157409
-0.137116
-0.104447
-0.0657601
-0.0267755
0.00887058
0.0396934
0.0655393
0.0868183
0.104082
0.117872
0.128678
0.13694
0.14304
0.147302
0.150046
0.151739
0.152992
0.152615
-0.119623
-0.113396
-0.0936535
-0.0621847
-0.0252393
0.0115261
0.0447096
0.0730316
0.096455
0.115436
0.13054
0.142309
0.151233
0.157742
0.162208
0.164963
0.166363
0.166823
0.166668
0.16469
-0.0719523
-0.0671283
-0.0482448
-0.0181963
0.0167027
0.0509724
0.0814696
0.107111
0.127964
0.144522
0.157359
0.167016
0.173978
0.178668
0.181445
0.182663
0.182713
0.181841
0.179898
0.17589
-0.0225623
-0.0188699
-0.0011747
0.0271905
0.0597642
0.0912968
0.118917
0.141727
0.159884
0.173914
0.184395
0.191866
0.196804
0.19962
0.200671
0.200339
0.199019
0.196668
0.192675
0.187141
0.0283629
0.0308617
0.0471926
0.0736261
0.103629
0.132221
0.156806
0.176662
0.192026
0.203446
0.211502
0.216728
0.219594
0.220499
0.2198
0.217905
0.215153
0.211163
0.205187
0.200959
0.0804111
0.0816356
0.0964616
0.120747
0.147972
0.173459
0.194887
0.211697
0.224194
0.232944
0.238527
0.24147
0.242231
0.241202
0.238743
0.235262
0.230994
0.225383
0.218158
0.214479
0.133133
0.133031
0.146225
0.16818
0.192461
0.214719
0.232903
0.246604
0.256187
0.262231
0.265314
0.265952
0.264595
0.261625
0.257404
0.252321
0.246517
0.239428
0.231262
0.227232
0.186077
0.184617
0.196069
0.215549
0.236762
0.255706
0.270594
0.281156
0.287805
0.291131
0.291705
0.290036
0.286563
0.281659
0.275684
0.268994
0.261673
0.253236
0.244196
0.239386
0.238792
0.235957
0.245581
0.262477
0.280539
0.296125
0.307701
0.315121
0.318843
0.319462
0.317543
0.313584
0.308013
0.301198
0.293485
0.285205
0.276408
0.266702
0.256758
0.250961
0.290827
0.286615
0.29435
0.308591
0.323462
0.335684
0.343966
0.348273
0.349102
0.347048
0.34267
0.336457
0.328825
0.320132
0.310714
0.300875
0.290651
0.279733
0.268858
0.26198
0.341736
0.33616
0.341971
0.353525
0.365206
0.374097
0.379135
0.380388
0.378381
0.373713
0.366932
0.358518
0.348876
0.338355
0.327277
0.315923
0.304327
0.292242
0.280429
0.272422
0.391085
0.38417
0.388049
0.396922
0.405455
0.411084
0.412961
0.411246
0.406489
0.399286
0.390179
0.379635
0.368052
0.355765
0.343085
0.330273
0.317361
0.304158
0.291416
0.282264
0.438451
0.430236
0.432204
0.438439
0.443903
0.446375
0.445205
0.440636
0.433236
0.423601
0.412263
0.39968
0.386237
0.372262
0.35805
0.343845
0.329683
0.315418
0.301769
0.291477
0.483429
0.473968
0.474073
0.477749
0.48026
0.479713
0.47564
0.468355
0.458445
0.446501
0.433046
0.418529
0.403324
0.38775
0.372089
0.356568
0.341227
0.325962
0.311443
0.300032
0.525636
0.514994
0.51331
0.514541
0.514251
0.510853
0.504048
0.494213
0.481945
0.467834
0.452394
0.436065
0.419211
0.40214
0.385123
0.368371
0.351932
0.335736
0.320393
0.3079
0.564714
0.552968
0.549595
0.548527
0.545618
0.539569
0.530228
0.518028
0.503578
0.487461
0.470185
0.452179
0.433801
0.415348
0.397077
0.37919
0.361739
0.344689
0.328576
0.315055
0.600329
0.58757
0.582632
0.579439
0.574125
0.565649
0.553994
0.539637
0.523196
0.505251
0.486302
0.46677
0.447005
0.427294
0.407885
0.388965
0.370597
0.352773
0.335954
0.321472
0.63218
0.618509
0.61215
0.607037
0.599557
0.588904
0.575175
0.558887
0.540666
0.521087
0.500643
0.479747
0.458742
0.437909
0.417482
0.397642
0.378458
0.359946
0.342492
0.327131
0.659997
0.645526
0.63791
0.631104
0.621723
0.609162
0.593619
0.575645
0.555869
0.534863
0.513113
0.491028
0.468941
0.447128
0.425815
0.405171
0.385278
0.36617
0.348156
0.332013
0.683546
0.668393
0.659703
0.651453
0.640455
0.626276
0.609197
0.589794
0.568701
0.546487
0.523632
0.50054
0.477539
0.454898
0.432834
0.411512
0.39102
0.37141
0.352921
0.336103
0.702628
0.68692
0.677353
0.667925
0.655613
0.64012
0.621794
0.601234
0.579074
0.555881
0.532131
0.508224
0.484482
0.46117
0.438499
0.416628
0.395652
0.375638
0.356761
0.33939
0.717082
0.700953
0.690717
0.680393
0.667082
0.650593
0.631323
0.609885
0.586917
0.562982
0.538555
0.51403
0.489728
0.465909
0.442778
0.420491
0.39915
0.37883
0.359659
0.341862
0.726786
0.710374
0.699687
0.68876
0.674777
0.657619
0.637714
0.615687
0.592176
0.567744
0.542862
0.517922
0.493244
0.469084
0.445644
0.423079
0.401493
0.380968
0.361599
0.343514
0.73166
0.715105
0.70419
0.69296
0.678639
0.661145
0.640921
0.618598
0.594815
0.570133
0.545023
0.519875
0.495008
0.470677
0.447082
0.424377
0.402668
0.38204
0.362572
0.344342
0.731661
0.715106
0.704192
0.692961
0.678641
0.661146
0.640923
0.6186
0.594817
0.570134
0.545024
0.519876
0.495009
0.470678
0.447083
0.424378
0.402669
0.382041
0.362572
0.344343
0.726791
0.710378
0.699691
0.688764
0.674781
0.657623
0.637718
0.61569
0.59218
0.567747
0.542865
0.517925
0.493247
0.469087
0.445647
0.423081
0.401495
0.38097
0.361601
0.343517
0.71709
0.70096
0.690724
0.6804
0.667089
0.6506
0.631329
0.609891
0.586923
0.562988
0.538561
0.514035
0.489733
0.465913
0.442782
0.420495
0.399154
0.378834
0.359663
0.341866
0.702639
0.686931
0.677363
0.667935
0.655622
0.64013
0.621803
0.601242
0.579082
0.555888
0.532139
0.508231
0.484489
0.461177
0.438506
0.416634
0.395658
0.375643
0.356767
0.339395
0.68356
0.668407
0.659716
0.651466
0.640467
0.626288
0.609208
0.589804
0.568711
0.546496
0.523642
0.500549
0.477548
0.454906
0.432842
0.41152
0.391027
0.371417
0.352928
0.33611
0.660014
0.645542
0.637926
0.63112
0.621738
0.609177
0.593633
0.575658
0.555882
0.534875
0.513125
0.491039
0.468952
0.447139
0.425825
0.405181
0.385287
0.366179
0.348165
0.332021
0.6322
0.618529
0.612169
0.607055
0.599575
0.588921
0.575191
0.558903
0.540681
0.521101
0.500657
0.479761
0.458755
0.437921
0.417494
0.397653
0.378469
0.359957
0.342502
0.327141
0.600352
0.587593
0.582654
0.579461
0.574146
0.565669
0.554013
0.539655
0.523213
0.505268
0.486318
0.466786
0.447019
0.427308
0.407898
0.388978
0.37061
0.352785
0.335966
0.321483
0.56474
0.552994
0.549621
0.548551
0.545641
0.539591
0.53025
0.518049
0.503598
0.48748
0.470203
0.452196
0.433817
0.415364
0.397093
0.379205
0.361754
0.344703
0.32859
0.315067
0.525666
0.515023
0.513339
0.514569
0.514277
0.510878
0.504072
0.494236
0.481967
0.467855
0.452415
0.436084
0.41923
0.402159
0.38514
0.368388
0.351948
0.335752
0.320408
0.307914
0.483462
0.474
0.474104
0.477779
0.480289
0.47974
0.475666
0.468381
0.45847
0.446524
0.433068
0.41855
0.403345
0.387771
0.372109
0.356587
0.341245
0.325979
0.31146
0.300048
0.438487
0.430272
0.432239
0.438473
0.443935
0.446406
0.445234
0.440664
0.433263
0.423627
0.412288
0.399704
0.38626
0.372284
0.358071
0.343866
0.329702
0.315437
0.301788
0.291495
0.391125
0.384209
0.388087
0.396958
0.40549
0.411117
0.412992
0.411276
0.406518
0.399314
0.390206
0.379661
0.368076
0.355789
0.343108
0.330295
0.317382
0.304179
0.291435
0.282283
0.341779
0.336203
0.342012
0.353564
0.365244
0.374133
0.379169
0.380421
0.378413
0.373743
0.366961
0.358546
0.348903
0.338381
0.327302
0.315947
0.304349
0.292264
0.28045
0.272442
0.290873
0.286661
0.294395
0.308634
0.323503
0.335723
0.344003
0.348309
0.349136
0.347081
0.342701
0.336487
0.328853
0.320159
0.310741
0.3009
0.290676
0.279756
0.268881
0.262001
0.238842
0.236007
0.24563
0.262523
0.280583
0.296167
0.307741
0.315159
0.31888
0.319497
0.317576
0.313616
0.308044
0.301227
0.293514
0.285233
0.276434
0.266727
0.256782
0.250984
0.18613
0.18467
0.196121
0.215598
0.236809
0.255751
0.270637
0.281196
0.287844
0.291168
0.291741
0.29007
0.286596
0.281691
0.275714
0.269023
0.261701
0.253262
0.244222
0.23941
0.13319
0.133088
0.14628
0.168233
0.192511
0.214767
0.232949
0.246648
0.256229
0.262271
0.265352
0.265988
0.26463
0.261658
0.257436
0.252352
0.246546
0.239457
0.231289
0.227258
0.0804719
0.0816959
0.0965203
0.120803
0.148026
0.17351
0.194936
0.211743
0.224238
0.232986
0.238567
0.241508
0.242268
0.241237
0.238777
0.235294
0.231025
0.225413
0.218186
0.214507
0.0284273
0.0309257
0.0472548
0.0736857
0.103686
0.132275
0.156857
0.176711
0.192072
0.20349
0.211545
0.216769
0.219633
0.220536
0.219835
0.217939
0.215186
0.211194
0.205218
0.200988
-0.0224941
-0.0188021
-0.00110881
0.0272536
0.0598241
0.0913537
0.118971
0.141778
0.159933
0.173961
0.18444
0.191908
0.196845
0.199659
0.200708
0.200375
0.199054
0.1967
0.192707
0.187171
-0.0718803
-0.0670568
-0.0481752
-0.0181297
0.016766
0.0510324
0.0815266
0.107166
0.128016
0.144571
0.157406
0.16706
0.174021
0.178709
0.181485
0.182701
0.182749
0.181875
0.179931
0.175921
-0.119547
-0.113321
-0.0935802
-0.0621145
-0.0251726
0.0115893
0.0447695
0.0730885
0.0965092
0.115488
0.13059
0.142356
0.151278
0.157785
0.162249
0.165002
0.166401
0.166859
0.166702
0.164722
-0.16489
-0.15733
-0.137039
-0.104373
-0.06569
-0.0267091
0.00893346
0.0397531
0.0655961
0.0868725
0.104134
0.117921
0.128725
0.136985
0.143082
0.147343
0.150085
0.151776
0.153028
0.152649
-0.207495
-0.198814
-0.178056
-0.14466
-0.104504
-0.0636088
-0.025759
0.00735501
0.0354491
0.0588776
0.0781741
0.0938741
0.106469
0.116401
0.124062
0.129779
0.133839
0.136707
0.139129
0.140014
-0.247099
-0.237449
-0.216282
-0.182623
-0.14137
-0.0988717
-0.0590986
-0.0239222
0.00623024
0.0316468
0.0528367
0.0703278
0.0846087
0.0961222
0.105265
0.112369
0.117703
0.121708
0.125195
0.127215
-0.283466
-0.27296
-0.251587
-0.217805
-0.176073
-0.132279
-0.0908911
-0.0539084
-0.0219107
0.00531251
0.0282396
0.0473864
0.0632365
0.0762296
0.0867642
0.0951771
0.101727
0.106829
0.111316
0.114402
-0.316396
-0.30511
-0.283752
-0.250151
-0.208203
-0.163662
-0.12096
-0.0824484
-0.0488373
-0.0200042
0.00449031
0.025146
0.0424376
0.0567998
0.0686293
0.0782665
0.0859646
0.0921076
0.0975304
0.101617
-0.34572
-0.333721
-0.312574
-0.279488
-0.237692
-0.192755
-0.149149
-0.109405
-0.0744277
-0.0441949
-0.0183148
0.00369293
0.0222897
0.037902
0.0509228
0.0616942
0.0704649
0.0775856
0.0838742
0.0888933
-0.371314
-0.358675
-0.337905
-0.305638
-0.264398
-0.219454
-0.175311
-0.134657
-0.0985759
-0.0671648
-0.040091
-0.0168962
0.00286256
0.0195982
0.033701
0.0455113
0.0552738
0.063304
0.070389
0.0762747
-0.393111
-0.37991
-0.359657
-0.328479
-0.288183
-0.243647
-0.199343
-0.158111
-0.1212
-0.088832
-0.0607659
-0.0365556
-0.0157814
0.00194076
0.0170144
0.0297637
0.0404329
0.0493025
0.0571173
0.0638046
-0.411101
-0.39742
-0.377802
-0.347945
-0.308951
-0.265236
-0.22116
-0.179684
-0.142231
-0.109153
-0.0802715
-0.055232
-0.0335873
-0.0150267
0.000909836
0.0144906
0.0259797
0.0356165
0.0440953
0.0515208
-0.425331
-0.411256
-0.392364
-0.364023
-0.326657
-0.284157
-0.240697
-0.199316
-0.161606
-0.128064
-0.0985958
-0.0728814
-0.0505121
-0.0312683
-0.0145694
-0.000276386
0.0119484
0.0222767
0.0313509
0.0394554
-0.435906
-0.421527
-0.403426
-0.376749
-0.341293
-0.300377
-0.257914
-0.21697
-0.179291
-0.145524
-0.115679
-0.0894915
-0.0666053
-0.0466973
-0.0293914
-0.0145106
-0.00163059
0.00930936
0.0189051
0.0276358
-0.442985
-0.428395
-0.411125
-0.386213
-0.352897
-0.313899
-0.272799
-0.23263
-0.19527
-0.161519
-0.1315
-0.105015
-0.0817492
-0.0613746
-0.0436011
-0.0281521
-0.0147369
-0.0032618
0.00678062
0.0160733
-0.446777
-0.432072
-0.41565
-0.392554
-0.361551
-0.324759
-0.285362
-0.246297
-0.209543
-0.176048
-0.146055
-0.119441
-0.0959406
-0.0752582
-0.0571182
-0.0412388
-0.0273839
-0.0154187
-0.00498028
0.0047331
-0.447533
-0.432814
-0.417239
-0.39596
-0.367379
-0.333029
-0.295642
-0.257994
-0.222125
-0.189123
-0.159354
-0.132781
-0.109193
-0.0883302
-0.0699334
-0.0537449
-0.0395355
-0.0271622
-0.0163687
-0.00647889
-0.445544
-0.430915
-0.416168
-0.396665
-0.370549
-0.338814
-0.303702
-0.267762
-0.233047
-0.200767
-0.171416
-0.145051
-0.121518
-0.100597
-0.0820541
-0.0656562
-0.0511805
-0.0384858
-0.0273856
-0.0172682
-0.441126
-0.426695
-0.412749
-0.394941
-0.37127
-0.342254
-0.309631
-0.27566
-0.242352
-0.211016
-0.18227
-0.156271
-0.132932
-0.112073
-0.0934901
-0.0769747
-0.0623182
-0.0493804
-0.0380188
-0.0276543
-0.434619
-0.420493
-0.407315
-0.391092
-0.369787
-0.343522
-0.313542
-0.281765
-0.250099
-0.219917
-0.191954
-0.166472
-0.143457
-0.122776
-0.104254
-0.08771
-0.072953
-0.0598439
-0.0482776
-0.0377146
-0.426371
-0.412655
-0.400212
-0.385444
-0.366373
-0.342823
-0.315574
-0.28617
-0.256355
-0.227524
-0.200514
-0.175692
-0.153124
-0.132727
-0.114363
-0.0978754
-0.0830941
-0.0698829
-0.0581732
-0.0474821
-0.416728
-0.403526
-0.391789
-0.378335
-0.361328
-0.340387
-0.315889
-0.288984
-0.261199
-0.2339
-0.208003
-0.183976
-0.161969
-0.141957
-0.12384
-0.107488
-0.0927548
-0.0795079
-0.0677107
-0.0569564
-0.406031
-0.393437
-0.382383
-0.370104
-0.354962
-0.336467
-0.31467
-0.290333
-0.26472
-0.239114
-0.214479
-0.191373
-0.170034
-0.1505
-0.132712
-0.11657
-0.101951
-0.0887314
-0.0768945
-0.0661306
-0.394601
-0.3827
-0.372313
-0.361077
-0.34759
-0.331334
-0.312119
-0.290357
-0.267014
-0.243239
-0.220001
-0.197936
-0.177366
-0.158395
-0.141011
-0.125145
-0.110703
-0.0975678
-0.0857336
-0.0750048
-0.382735
-0.371599
-0.361869
-0.351561
-0.339519
-0.325265
-0.308457
-0.28921
-0.268186
-0.246351
-0.224633
-0.20372
-0.184011
-0.165683
-0.148771
-0.133243
-0.119033
-0.106035
-0.0942421
-0.0835873
-0.370698
-0.360384
-0.351309
-0.341829
-0.331035
-0.318534
-0.303913
-0.287062
-0.268352
-0.24853
-0.228437
-0.208779
-0.19002
-0.172407
-0.156031
-0.140895
-0.126964
-0.114152
-0.102437
-0.0918903
-0.358722
-0.349271
-0.340851
-0.33212
-0.3224
-0.311404
-0.298721
-0.28409
-0.267634
-0.249859
-0.231474
-0.213164
-0.195439
-0.178611
-0.162828
-0.148134
-0.134525
-0.121943
-0.110339
-0.0999281
-0.347
-0.338436
-0.330673
-0.322632
-0.313835
-0.304115
-0.29311
-0.280484
-0.266165
-0.250425
-0.233805
-0.216925
-0.200314
-0.184337
-0.169201
-0.154994
-0.141745
-0.12943
-0.117968
-0.107716
-0.335692
-0.328019
-0.320913
-0.313517
-0.305524
-0.296877
-0.287295
-0.276433
-0.264085
-0.250321
-0.23549
-0.220107
-0.204685
-0.189625
-0.175188
-0.161511
-0.148655
-0.13664
-0.125345
-0.115272
-0.324917
-0.318124
-0.311672
-0.30489
-0.297605
-0.289862
-0.28147
-0.272121
-0.261543
-0.249646
-0.23659
-0.222751
-0.208586
-0.194509
-0.180825
-0.167718
-0.155284
-0.143598
-0.132495
-0.122613
-0.314765
-0.308825
-0.303017
-0.296823
-0.290179
-0.283201
-0.275796
-0.267719
-0.258688
-0.248507
-0.237169
-0.224894
-0.212046
-0.199017
-0.186141
-0.173648
-0.161665
-0.150333
-0.139442
-0.129761
-0.305294
-0.300166
-0.294985
-0.28936
-0.283303
-0.276987
-0.2704
-0.263378
-0.255666
-0.247017
-0.2373
-0.226575
-0.215086
-0.203169
-0.191159
-0.179327
-0.167827
-0.15687
-0.14621
-0.136736
-0.296537
-0.292169
-0.287591
-0.282515
-0.277008
-0.271275
-0.265375
-0.25922
-0.25261
-0.245294
-0.237059
-0.227834
-0.217723
-0.206975
-0.195894
-0.184776
-0.173793
-0.163237
-0.152825
-0.14356
-0.288505
-0.284838
-0.28083
-0.276283
-0.271294
-0.266089
-0.260775
-0.255336
-0.249635
-0.243449
-0.236533
-0.228716
-0.219972
-0.210436
-0.200348
-0.190006
-0.179584
-0.169455
-0.159311
-0.150254
-0.281194
-0.27816
-0.274686
-0.27064
-0.266145
-0.261428
-0.256629
-0.251787
-0.246832
-0.241587
-0.235812
-0.229278
-0.221851
-0.213548
-0.204511
-0.195012
-0.185207
-0.175544
-0.165688
-0.156844
-0.274583
-0.272111
-0.269129
-0.265558
-0.261532
-0.257272
-0.252937
-0.248607
-0.244267
-0.239795
-0.234982
-0.229583
-0.223388
-0.216305
-0.208363
-0.199779
-0.190658
-0.181511
-0.171979
-0.163348
-0.268641
-0.266659
-0.264123
-0.260996
-0.257416
-0.25359
-0.249684
-0.245805
-0.241981
-0.238143
-0.234126
-0.229699
-0.224617
-0.218705
-0.211877
-0.204271
-0.195913
-0.187351
-0.178179
-0.169816
-0.263325
-0.261763
-0.259629
-0.256914
-0.253754
-0.250342
-0.246841
-0.243372
-0.239991
-0.236676
-0.23331
-0.229696
-0.225586
-0.220757
-0.215026
-0.208444
-0.200923
-0.193042
-0.184289
-0.176232
-0.258588
-0.257378
-0.2556
-0.253264
-0.250501
-0.247484
-0.244369
-0.241282
-0.238297
-0.235423
-0.232588
-0.229637
-0.226348
-0.222482
-0.217793
-0.212241
-0.205637
-0.198507
-0.190277
-0.182732
-0.254372
-0.253454
-0.251988
-0.25
-0.247609
-0.244969
-0.242225
-0.239501
-0.236878
-0.234387
-0.231991
-0.229577
-0.22696
-0.223915
-0.220173
-0.215617
-0.209964
-0.203714
-0.195999
-0.18913
-0.250616
-0.249936
-0.248745
-0.247074
-0.245029
-0.242748
-0.240362
-0.237986
-0.235705
-0.233558
-0.231532
-0.229552
-0.227474
-0.225103
-0.222184
-0.218534
-0.21387
-0.208379
-0.201985
-0.194737
-0.247257
-0.246771
-0.24582
-0.244436
-0.242715
-0.240773
-0.23873
-0.23669
-0.234734
-0.232905
-0.231204
-0.229582
-0.227933
-0.226097
-0.223862
-0.220972
-0.217349
-0.212373
-0.207805
-0.199674
-0.244228
-0.243903
-0.243163
-0.24204
-0.240618
-0.238996
-0.237281
-0.235565
-0.233921
-0.232391
-0.230983
-0.229665
-0.228361
-0.226942
-0.22526
-0.222952
-0.220382
-0.215586
-0.212926
-0.204004
-0.241468
-0.241281
-0.240727
-0.239841
-0.238695
-0.237373
-0.235967
-0.23456
-0.233214
-0.231968
-0.230831
-0.229781
-0.228762
-0.227668
-0.226423
-0.224528
-0.22296
-0.218011
-0.217418
-0.20754
-0.23892
-0.238856
-0.23847
-0.237799
-0.236906
-0.235862
-0.234746
-0.23363
-0.232567
-0.23159
-0.230706
-0.229899
-0.229122
-0.228292
-0.227384
-0.225785
-0.225079
-0.219792
-0.221396
-0.21012
-0.236533
-0.236587
-0.236356
-0.235881
-0.235218
-0.234429
-0.233581
-0.232736
-0.231938
-0.231212
-0.230564
-0.229978
-0.229416
-0.228808
-0.228153
-0.226805
-0.226714
-0.221188
-0.22473
-0.211781
-0.234266
-0.23444
-0.234354
-0.234058
-0.233605
-0.233047
-0.232444
-0.231846
-0.23129
-0.230797
-0.230367
-0.229983
-0.229611
-0.229197
-0.228731
-0.227638
-0.227848
-0.222457
-0.227144
-0.212873
-0.23209
-0.23239
-0.232442
-0.23231
-0.232047
-0.231697
-0.231313
-0.230937
-0.230601
-0.230317
-0.230083
-0.229883
-0.229682
-0.229436
-0.229115
-0.228284
-0.228516
-0.223703
-0.228486
-0.21388
-0.229985
-0.230421
-0.230607
-0.230625
-0.230532
-0.230368
-0.230178
-0.229998
-0.229855
-0.229756
-0.229696
-0.229657
-0.229606
-0.229505
-0.229302
-0.228713
-0.228809
-0.224856
-0.228881
-0.215103
-0.227944
-0.228527
-0.228844
-0.228999
-0.229059
-0.229057
-0.229036
-0.229026
-0.229049
-0.22911
-0.2292
-0.229299
-0.229377
-0.229396
-0.229295
-0.2289
-0.228824
-0.225768
-0.228638
-0.216507
-0.225971
-0.226709
-0.227153
-0.227434
-0.227629
-0.22777
-0.227893
-0.228028
-0.228192
-0.228386
-0.228601
-0.228816
-0.229001
-0.229116
-0.229099
-0.228844
-0.228637
-0.226324
-0.228069
-0.217864
-0.224078
-0.224978
-0.225544
-0.225941
-0.226255
-0.226517
-0.226762
-0.227018
-0.227298
-0.227603
-0.22792
-0.228228
-0.228496