/*--------------------------------*- C++ -*----------------------------------*\
  =========                 |
  \\      /  F ield         | OpenFOAM: The Open Source CFD Toolbox
   \\    /   O peration     | Website:  https://openfoam.org
    \\  /    A nd           | Version:  7
     \\/     M anipulation  |
\*---------------------------------------------------------------------------*/
FoamFile
{
    version     2.0;
    format      ascii;
    class       volScalarField;
    location    "2.4";
    object      p;
}
// * * * * * * * * * * * * * * * * * * * * * * * * * * * * * * * * * * * * * //

dimensions      [0 2 -2 0 0 0 0];

internalField   nonuniform List<scalar> 
344
(
3.07444
3.04126
2.99318
2.93236
2.82303
2.83234
3.5463
3.53909
3.53188
3.52469
3.51752
3.51036
3.50321
3.49608
3.48896
3.48185
3.47476
3.46769
3.46062
3.45357
3.44654
3.43951
3.43251
3.42551
3.41853
3.41156
3.40461
3.39767
3.39074
3.38383
3.37693
3.37004
3.36317
3.35631
3.34946
3.34263
3.33581
3.329
3.32221
3.31543
3.30867
3.30192
3.29519
3.28847
3.28177
3.27509
3.26842
3.26177
3.25514
3.24853
3.24193
3.23534
3.22877
3.22219
3.2156
3.20899
3.20232
3.19555
3.18863
3.18147
3.17395
3.16587
3.15697
3.14685
3.13488
3.12028
3.10144
3.07728
3.04226
3.00173
2.92399
2.9716
3.5463
3.53908
3.53188
3.52469
3.51752
3.51036
3.50321
3.49608
3.48896
3.48185
3.47476
3.46769
3.46063
3.45358
3.44654
3.43952
3.43252
3.42552
3.41854
3.41158
3.40463
3.39769
3.39077
3.38386
3.37697
3.37009
3.36322
3.35637
3.34953
3.34271
3.3359
3.32912
3.32234
3.31559
3.30885
3.30214
3.29544
3.28877
3.28213
3.27551
3.26892
3.26236
3.25584
3.24935
3.24291
3.2365
3.23015
3.22383
3.21756
3.21133
3.20513
3.19894
3.19272
3.18643
3.17999
3.17328
3.16612
3.15825
3.14922
3.13855
3.12502
3.10822
3.08357
3.05812
3.0037
3.07023
3.54629
3.53907
3.53187
3.52468
3.51751
3.51035
3.50321
3.49607
3.48896
3.48185
3.47476
3.46769
3.46063
3.45358
3.44655
3.43953
3.43252
3.42553
3.41856
3.41159
3.40465
3.39771
3.39079
3.38389
3.377
3.37013
3.36327
3.35642
3.3496
3.34279
3.33599
3.32922
3.32246
3.31573
3.30902
3.30233
3.29567
3.28904
3.28245
3.27588
3.26936
3.26289
3.25646
3.25009
3.24378
3.23754
3.23138
3.2253
3.21932
3.21343
3.20764
3.20196
3.19636
3.19084
3.18536
3.17985
3.17421
3.16829
3.16179
3.15442
3.14528
3.13435
3.11776
3.10334
3.06594
3.13975
3.54628
3.53907
3.53187
3.52468
3.51751
3.51035
3.5032
3.49607
3.48896
3.48185
3.47476
3.46769
3.46063
3.45358
3.44655
3.43953
3.43253
3.42554
3.41857
3.41161
3.40466
3.39773
3.39082
3.38392
3.37703
3.37016
3.36331
3.35647
3.34965
3.34285
3.33607
3.32931
3.32257
3.31586
3.30917
3.30251
3.29588
3.28928
3.28273
3.27622
3.26976
3.26335
3.25701
3.25074
3.24455
3.23846
3.23247
3.2266
3.22086
3.21527
3.20985
3.20461
3.19957
3.19472
3.19007
3.1856
3.18127
3.17701
3.17263
3.16799
3.16239
3.15606
3.14565
3.13913
3.11411
3.18854
3.54628
3.53906
3.53186
3.52467
3.5175
3.51034
3.5032
3.49607
3.48895
3.48185
3.47476
3.46769
3.46063
3.45359
3.44656
3.43954
3.43254
3.42555
3.41858
3.41162
3.40468
3.39775
3.39084
3.38394
3.37706
3.37019
3.36334
3.35651
3.3497
3.34291
3.33614
3.32939
3.32267
3.31597
3.3093
3.30266
3.29606
3.28949
3.28298
3.27651
3.2701
3.26376
3.25749
3.25131
3.24522
3.23925
3.23342
3.22773
3.22221
3.21688
3.21178
3.20693
3.20235
3.19808
3.19414
3.19056
3.18733
3.18446
3.18183
3.17939
3.1766
3.17378
3.16802
3.16706
3.15102
3.22236
3.54627
3.53905
3.53185
3.52467
3.5175
3.51034
3.50319
3.49607
)
;

boundaryField
{
    inlet
    {
        type            zeroGradient;
    }
    outlet
    {
        type            fixedValue;
        value           nonuniform 0();
    }
    wall
    {
        type            zeroGradient;
    }
    wedge1
    {
        type            wedge;
    }
    wedge2
    {
        type            wedge;
    }
    axis
    {
        type            empty;
    }
    procBoundary26to20
    {
        type            processor;
        value           nonuniform List<scalar> 
67
(
3.04403
3.00007
2.93583
2.8483
2.69721
2.63509
3.54631
3.53909
3.53189
3.5247
3.51752
3.51036
3.50321
3.49608
3.48896
3.48185
3.47476
3.46768
3.46062
3.45357
3.44653
3.43951
3.4325
3.4255
3.41852
3.41154
3.40459
3.39764
3.39071
3.38379
3.37689
3.36999
3.36311
3.35624
3.34938
3.34253
3.3357
3.32887
3.32206
3.31526
3.30846
3.30168
3.2949
3.28813
3.28137
3.27462
3.26787
3.26112
3.25437
3.24761
3.24084
3.23406
3.22724
3.22037
3.21343
3.20639
3.1992
3.19179
3.18409
3.17596
3.16722
3.15761
3.14675
3.13408
3.11874
3.09958
3.09958
)
;
    }
    procBoundary26to25
    {
        type            processor;
        value           nonuniform List<scalar> 5(3.55353 3.55353 3.55352 3.55351 3.5535);
    }
    procBoundary26to31
    {
        type            processor;
        value           uniform 3.5535;
    }
    procBoundary26to32
    {
        type            processor;
        value           nonuniform List<scalar> 
67
(
3.48895
3.48185
3.47476
3.46769
3.46063
3.45359
3.44656
3.43954
3.43254
3.42556
3.41859
3.41163
3.40469
3.39776
3.39085
3.38396
3.37708
3.37022
3.36338
3.35655
3.34975
3.34296
3.3362
3.32946
3.32275
3.31606
3.30941
3.30279
3.29621
3.28968
3.28319
3.27676
3.2704
3.26411
3.2579
3.25179
3.2458
3.23994
3.23423
3.22869
3.22336
3.21826
3.21343
3.2089
3.20472
3.20094
3.1976
3.19476
3.19244
3.1907
3.18947
3.18877
3.18815
3.18797
3.18565
3.18849
3.17894
3.24524
3.54626
3.53905
3.53185
3.52466
3.51749
3.51033
3.50319
3.48895
3.49606
)
;
    }
}


// ************************************************************************* //
