/*--------------------------------*- C++ -*----------------------------------*\
  =========                 |
  \\      /  F ield         | OpenFOAM: The Open Source CFD Toolbox
   \\    /   O peration     | Website:  https://openfoam.org
    \\  /    A nd           | Version:  7
     \\/     M anipulation  |
\*---------------------------------------------------------------------------*/
FoamFile
{
    version     2.0;
    format      ascii;
    class       volVectorField;
    location    "4";
    object      U;
}
// * * * * * * * * * * * * * * * * * * * * * * * * * * * * * * * * * * * * * //

dimensions      [0 1 -1 0 0 0 0];

internalField   nonuniform List<vector> 
344
(
(3.0271 -0.148529 5.46798e-15)
(3.07829 -0.130032 5.31205e-15)
(3.1217 -0.111728 5.1833e-15)
(3.15779 -0.0942001 5.00149e-15)
(3.01283 -0.1766 3.84549e-15)
(3.06401 -0.153411 3.74777e-15)
(3.10661 -0.130737 3.67197e-15)
(3.14131 -0.109246 3.59273e-15)
(2.997 -0.204978 2.2891e-15)
(3.0476 -0.176309 2.21767e-15)
(3.08862 -0.148655 2.09378e-15)
(3.12098 -0.122751 2.01768e-15)
(2.97957 -0.23318 7.88193e-16)
(3.02814 -0.197972 6.88121e-16)
(3.06583 -0.164518 6.32859e-16)
(3.09389 -0.133596 5.98236e-16)
(2.95799 -0.259657 -6.0979e-16)
(3.0009 -0.216445 -6.39507e-16)
(3.03135 -0.17611 -7.50151e-16)
(3.0511 -0.139414 -7.87876e-16)
(2.83403 0.0165763 7.43589e-16)
(2.82614 0.0164733 7.02221e-16)
(2.8183 0.0163725 7.14698e-16)
(3.18692 -0.0779976 4.89918e-15)
(3.20994 -0.0633467 4.7538e-15)
(3.2278 -0.0502615 4.63314e-15)
(3.24119 -0.0387685 4.51958e-15)
(3.2508 -0.0287973 4.37874e-15)
(3.25722 -0.0202165 4.22225e-15)
(3.26096 -0.0128694 4.09296e-15)
(3.26243 -0.00660262 4.01071e-15)
(3.26199 -0.0012629 3.88978e-15)
(3.25993 0.00326718 3.75091e-15)
(3.25647 0.00710731 3.64739e-15)
(3.25184 0.0103637 3.53635e-15)
(3.24622 0.0131246 3.42853e-15)
(3.23974 0.0154634 3.28221e-15)
(3.23253 0.017442 3.20072e-15)
(3.22469 0.0191127 3.09773e-15)
(3.21633 0.02052 2.99975e-15)
(3.20751 0.0217012 2.86515e-15)
(3.1983 0.0226881 2.78816e-15)
(3.18878 0.0235076 2.69407e-15)
(3.17897 0.0241827 2.61045e-15)
(3.16894 0.0247331 2.51012e-15)
(3.15872 0.0251758 2.40267e-15)
(3.14835 0.0255252 2.33677e-15)
(3.13786 0.0257941 2.25056e-15)
(3.12727 0.0259933 2.17278e-15)
(3.11661 0.0261323 2.0804e-15)
(3.1059 0.0262192 2.02859e-15)
(3.09516 0.0262614 1.96082e-15)
(3.0844 0.0262651 1.89802e-15)
(3.07365 0.0262356 1.80844e-15)
(3.0629 0.0261779 1.76037e-15)
(3.05217 0.0260961 1.7e-15)
(3.04148 0.0259937 1.6432e-15)
(3.03082 0.0258741 1.58386e-15)
(3.02021 0.02574 1.52855e-15)
(3.00966 0.0255939 1.48459e-15)
(2.99917 0.0254378 1.43551e-15)
(2.98873 0.0252737 1.38029e-15)
(2.97837 0.0251032 1.34053e-15)
(2.96808 0.0249276 1.29764e-15)
(2.95786 0.0247482 1.25562e-15)
(2.94772 0.024566 1.21084e-15)
(2.93766 0.0243821 1.17068e-15)
(2.92768 0.024197 1.13062e-15)
(2.91778 0.0240116 1.09233e-15)
(2.90796 0.0238265 1.05366e-15)
(2.89823 0.023642 1.02032e-15)
(2.88858 0.0234586 9.88074e-16)
(2.87901 0.0232768 9.58311e-16)
(2.86953 0.0230966 9.29382e-16)
(2.86014 0.0229185 9.04031e-16)
(2.85083 0.0227425 8.76747e-16)
(2.84161 0.0225689 8.5313e-16)
(2.83247 0.0223977 8.29041e-16)
(2.82341 0.022229 8.07874e-16)
(2.81444 0.0220629 7.84403e-16)
(2.80556 0.0218994 7.61405e-16)
(2.79675 0.0217386 7.42056e-16)
(2.78803 0.0215804 7.2102e-16)
(2.77938 0.0214248 7.0114e-16)
(2.77082 0.0212719 6.8078e-16)
(2.76234 0.0211214 6.67501e-16)
(2.75394 0.0209735 6.50978e-16)
(2.74562 0.020828 6.39986e-16)
(3.16862 -0.0895694 3.55592e-15)
(3.18957 -0.0719433 3.33519e-15)
(3.20521 -0.0563555 3.37996e-15)
(3.21635 -0.042798 3.21571e-15)
(3.22376 -0.0311346 3.11371e-15)
(3.22809 -0.021161 2.90071e-15)
(3.22985 -0.0126602 2.98925e-15)
(3.22945 -0.00543032 2.79759e-15)
(3.22723 0.000721055 2.79782e-15)
(3.22345 0.00593515 2.60045e-15)
(3.21836 0.0103591 2.67666e-15)
(3.21215 0.0141184 2.52009e-15)
(3.20499 0.017314 2.43009e-15)
(3.197 0.0200293 2.2537e-15)
(3.18831 0.0223344 2.35692e-15)
(3.17901 0.0242885 2.17352e-15)
(3.1692 0.0259414 2.17665e-15)
(3.15895 0.0273348 1.99974e-15)
(3.14832 0.0285042 2.0703e-15)
(3.13739 0.0294798 1.95457e-15)
(3.12619 0.0302875 1.84837e-15)
(3.11478 0.0309493 1.78505e-15)
(3.10319 0.0314844 1.65046e-15)
(3.09146 0.0319093 1.72963e-15)
(3.07963 0.0322383 1.59562e-15)
(3.06772 0.0324837 1.60728e-15)
(3.05576 0.0326566 1.48486e-15)
(3.04376 0.0327664 1.52004e-15)
(3.03175 0.0328214 1.43879e-15)
(3.01975 0.0328288 1.38579e-15)
(3.00776 0.0327952 1.28397e-15)
(2.99581 0.0327259 1.32434e-15)
(2.98391 0.0326261 1.23647e-15)
(2.97205 0.0325 1.22475e-15)
(2.96027 0.0323515 1.14726e-15)
(2.94855 0.0321838 1.16405e-15)
(2.93691 0.032 1.10665e-15)
(2.92536 0.0318026 1.06438e-15)
(2.9139 0.0315939 1.00931e-15)
(2.90253 0.031376 1.02196e-15)
(2.89125 0.0311505 9.71168e-16)
(2.88008 0.030919 9.55285e-16)
(2.86901 0.0306828 9.05397e-16)
(2.85804 0.0304431 8.97803e-16)
(2.84718 0.030201 8.59841e-16)
(2.83643 0.0299573 8.2739e-16)
(2.82579 0.0297127 7.99708e-16)
(2.81525 0.029468 7.74625e-16)
(2.80483 0.0292238 7.58071e-16)
(2.79451 0.0289804 7.3835e-16)
(2.78431 0.0287383 7.1754e-16)
(2.77421 0.0284979 7.04467e-16)
(2.76423 0.0282595 6.80057e-16)
(2.75435 0.0280232 6.69542e-16)
(2.74458 0.0277894 6.53026e-16)
(2.73492 0.0275581 6.49503e-16)
(2.72536 0.0273295 6.14247e-16)
(2.71592 0.0271037 6.13746e-16)
(2.70658 0.0268807 5.88151e-16)
(2.69734 0.0266606 5.93033e-16)
(2.6882 0.0264434 5.53973e-16)
(2.67917 0.0262292 5.55214e-16)
(2.67024 0.0260178 5.47942e-16)
(2.66141 0.0258094 5.52992e-16)
(2.65268 0.0256039 5.24273e-16)
(3.14543 -0.0992879 1.98217e-15)
(3.16316 -0.0784984 1.92546e-15)
(3.17539 -0.0603366 1.81815e-15)
(3.1831 -0.0447319 1.78175e-15)
(3.18718 -0.0314397 1.73457e-15)
(3.18834 -0.0201521 1.67156e-15)
(3.18707 -0.0105788 1.59042e-15)
(3.1838 -0.00244315 1.5382e-15)
(3.17882 0.00443931 1.53073e-15)
(3.1724 0.010275 1.49056e-15)
(3.16477 0.0152363 1.39323e-15)
(3.15611 0.0194603 1.38218e-15)
(3.14657 0.0230579 1.36267e-15)
(3.13628 0.0261211 1.32375e-15)
(3.12535 0.0287271 1.23439e-15)
(3.11388 0.0309404 1.2049e-15)
(3.10195 0.0328151 1.19514e-15)
(3.08963 0.0343968 1.17971e-15)
(3.077 0.0357242 1.10078e-15)
(3.06412 0.0368306 1.09274e-15)
(3.05102 0.0377443 1.06407e-15)
(3.03777 0.0384899 1.04078e-15)
(3.0244 0.0390887 9.93805e-16)
(3.01094 0.0395593 9.30661e-16)
(2.99743 0.0399177 9.03465e-16)
(2.9839 0.0401782 8.95993e-16)
(2.97036 0.0403531 8.75073e-16)
(2.95685 0.0404533 8.16603e-16)
(2.94337 0.0404884 8.08497e-16)
(2.92995 0.0404667 7.97072e-16)
(2.9166 0.0403958 7.70726e-16)
(2.90333 0.0402821 7.22434e-16)
(2.89016 0.0401316 7.01942e-16)
(2.87709 0.0399491 6.97839e-16)
(2.86412 0.0397394 6.81275e-16)
(2.85128 0.0395062 6.43839e-16)
(2.83855 0.0392533 6.35338e-16)
(2.82595 0.0389836 6.25165e-16)
(2.81349 0.0386998 6.0582e-16)
(2.80115 0.0384045 5.79827e-16)
(2.78896 0.0380997 5.6377e-16)
(2.7769 0.0377872 5.53817e-16)
(2.76498 0.0374688 5.3689e-16)
(2.75321 0.0371458 5.14639e-16)
(2.74157 0.0368195 5.04056e-16)
(2.73008 0.036491 4.9113e-16)
(2.71873 0.0361612 4.75801e-16)
(2.70753 0.035831 4.63194e-16)
(2.69646 0.0355012 4.51095e-16)
(2.68554 0.0351722 4.42728e-16)
(2.67476 0.0348446 4.32729e-16)
(2.66411 0.034519 4.24711e-16)
(2.65361 0.0341956 4.19479e-16)
(2.64324 0.0338749 4.11478e-16)
(2.63301 0.033557 4.01747e-16)
(2.62292 0.0332422 3.95281e-16)
(2.61295 0.0329307 3.94901e-16)
(2.60312 0.0326227 3.87871e-16)
(2.59343 0.0323181 3.74995e-16)
(2.58386 0.0320172 3.67068e-16)
(2.57441 0.03172 3.70364e-16)
(2.5651 0.0314264 3.59493e-16)
(2.55591 0.0311367 3.50285e-16)
(2.54684 0.0308506 3.49053e-16)
(2.53789 0.0305683 3.36833e-16)
(3.11337 -0.105917 5.77983e-16)
(3.12574 -0.0817107 4.32588e-16)
(3.13241 -0.0609039 5.08286e-16)
(3.13465 -0.0433077 3.95027e-16)
(3.13352 -0.0284926 3.49663e-16)
(3.12974 -0.0160213 2.28476e-16)
(3.12385 -0.00547861 3.83851e-16)
(3.11618 0.00340662 2.69526e-16)
(3.10704 0.0108976 3.22218e-16)
(3.09669 0.017247 2.09108e-16)
(3.08536 0.0226456 3.20915e-16)
(3.07319 0.02724 2.71009e-16)
(3.06031 0.0311496 2.46255e-16)
(3.04686 0.0344741 1.57952e-16)
(3.03292 0.0372966 2.9566e-16)
(3.0186 0.039686 1.93894e-16)
(3.00396 0.0417004 2.50261e-16)
(2.98909 0.043389 1.75048e-16)
(2.97403 0.044794 2.65448e-16)
(2.95884 0.0459515 2.2061e-16)
(2.94357 0.0468928 1.77474e-16)
(2.92826 0.0476453 1.69092e-16)
(2.91295 0.0482325 1.11064e-16)
(2.89766 0.0486752 2.03958e-16)
(2.88241 0.0489916 1.38518e-16)
(2.86724 0.0491976 1.75064e-16)
(2.85217 0.0493072 1.19702e-16)
(2.8372 0.0493327 1.9406e-16)
(2.82235 0.0492851 1.54684e-16)
(2.80764 0.049174 1.45294e-16)
(2.79308 0.0490077 1.06553e-16)
(2.77867 0.0487938 1.62987e-16)
(2.76442 0.0485389 1.22583e-16)
(2.75034 0.0482487 1.4601e-16)
(2.73643 0.0479284 1.11367e-16)
(2.7227 0.0475826 1.50968e-16)
(2.70914 0.0472153 1.27429e-16)
(2.69577 0.0468299 1.27401e-16)
(2.68257 0.0464296 9.96017e-17)
(2.66956 0.0460171 1.3043e-16)
(2.65674 0.0455949 1.12857e-16)
(2.64409 0.0451649 1.21476e-16)
(2.63163 0.0447292 1.05938e-16)
(2.61935 0.0442893 1.20841e-16)
(2.60725 0.0438466 1.1243e-16)
(2.59533 0.0434024 1.08895e-16)
(2.58359 0.0429577 1.07233e-16)
(2.57203 0.0425135 1.06019e-16)
(2.56064 0.0420706 1.11183e-16)
(2.54943 0.0416297 1.13342e-16)
(2.53838 0.0411914 1.1309e-16)
(2.52751 0.0407561 1.18878e-16)
(2.5168 0.0403244 1.15981e-16)
(2.50626 0.0398965 1.21704e-16)
(2.49588 0.0394729 1.24338e-16)
(2.48566 0.0390536 1.34533e-16)
(2.4756 0.038639 1.21253e-16)
(2.4657 0.0382292 1.35688e-16)
(2.45595 0.0378243 1.2631e-16)
(2.44635 0.0374244 1.40968e-16)
(2.4369 0.0370296 1.21718e-16)
(2.4276 0.03664 1.35335e-16)
(2.41844 0.0362554 1.38898e-16)
(2.40943 0.035876 1.52897e-16)
(2.40056 0.0355017 1.39913e-16)
(3.06171 -0.106985 -7.77971e-16)
(3.06494 -0.0791225 -7.91895e-16)
(3.06254 -0.0557334 -8.41736e-16)
(3.0562 -0.0363751 -8.23139e-16)
(3.04714 -0.0203215 -7.96243e-16)
(3.03613 -0.00693399 -7.90823e-16)
(3.02356 0.00422447 -8.18e-16)
(3.00975 0.0135354 -7.80505e-16)
(2.99501 0.0213651 -7.21933e-16)
(2.97956 0.0279778 -7.07024e-16)
(2.96355 0.0335718 -7.43767e-16)
(2.9471 0.0383049 -6.9809e-16)
(2.93031 0.0423061 -6.69027e-16)
(2.91327 0.045682 -6.5976e-16)
(2.89607 0.0485205 -6.62214e-16)
(2.87876 0.0508951 -6.39424e-16)
(2.86141 0.0528678 -5.89081e-16)
(2.84407 0.0544914 -5.66412e-16)
(2.82676 0.0558113 -5.87344e-16)
(2.80954 0.0568667 -5.51346e-16)
(2.79242 0.0576917 -5.37111e-16)
(2.77543 0.0583158 -5.15153e-16)
(2.7586 0.0587649 -5.10049e-16)
(2.74193 0.0590615 -5.26424e-16)
(2.72546 0.0592255 -5.12275e-16)
(2.70917 0.0592741 -4.74308e-16)
(2.6931 0.0592226 -4.57678e-16)
(2.67723 0.0590844 -4.64896e-16)
(2.66159 0.0588712 -4.35507e-16)
(2.64617 0.0585933 -4.10767e-16)
(2.63097 0.0582598 -4.01198e-16)
(2.61601 0.0578788 -4.12728e-16)
(2.60127 0.0574572 -3.96224e-16)
(2.58677 0.0570012 -3.71705e-16)
(2.5725 0.0565162 -3.5777e-16)
(2.55846 0.0560072 -3.59221e-16)
(2.54465 0.0554782 -3.4076e-16)
(2.53106 0.0549329 -3.21385e-16)
(2.51771 0.0543746 -3.1597e-16)
(2.50458 0.0538062 -3.15166e-16)
(2.49167 0.0532301 -3.03477e-16)
(2.47899 0.0526484 -2.87258e-16)
(2.46652 0.0520632 -2.77135e-16)
(2.45426 0.0514761 -2.72142e-16)
(2.44222 0.0508884 -2.59875e-16)
(2.43039 0.0503015 -2.49267e-16)
(2.41877 0.0497165 -2.38989e-16)
(2.40735 0.0491342 -2.29186e-16)
(2.39612 0.0485555 -2.18528e-16)
(2.3851 0.047981 -2.07361e-16)
(2.37427 0.0474114 -1.96865e-16)
(2.36363 0.0468471 -1.8682e-16)
(2.35318 0.0462886 -1.73726e-16)
(2.34292 0.0457361 -1.64366e-16)
(2.33283 0.04519 -1.56287e-16)
(2.32293 0.0446505 -1.46774e-16)
(2.3132 0.0441177 -1.31995e-16)
(2.30365 0.0435919 -1.25796e-16)
(2.29426 0.043073 -1.19884e-16)
(2.28504 0.0425612 -1.12844e-16)
(2.27598 0.0420565 -9.86018e-17)
)
;

boundaryField
{
    inlet
    {
        type            uniformFixedValue;
        uniformValue    constant (1 0 0);
        value           nonuniform 0();
    }
    outlet
    {
        type            pressureInletOutletVelocity;
        value           nonuniform 0();
    }
    wall
    {
        type            fixedValue;
        value           nonuniform 0();
    }
    wedge1
    {
        type            wedge;
    }
    wedge2
    {
        type            wedge;
    }
    axis
    {
        type            empty;
    }
    procBoundary9to3
    {
        type            processor;
        value           nonuniform List<vector> 
70
(
(3.03943 -0.120906 6.63761e-15)
(3.09041 -0.106496 6.45641e-15)
(3.13425 -0.0920936 6.25714e-15)
(3.17123 -0.0781808 6.09425e-15)
(2.88758 0.0124253 6.86218e-16)
(2.88019 0.0123551 6.59951e-16)
(2.87284 0.012287 6.49735e-16)
(3.20159 -0.0652156 5.83684e-15)
(3.22605 -0.0533988 5.68709e-15)
(3.24545 -0.0427599 5.48878e-15)
(3.26043 -0.0333412 5.37879e-15)
(3.27157 -0.0251117 5.09331e-15)
(3.27945 -0.0179892 4.9577e-15)
(3.28455 -0.0118657 4.79005e-15)
(3.28729 -0.00662619 4.72209e-15)
(3.28803 -0.00216103 4.42655e-15)
(3.28707 0.00163838 4.31518e-15)
(3.28467 0.00486047 4.18114e-15)
(3.28105 0.00758844 4.13969e-15)
(3.27639 0.00989609 3.85657e-15)
(3.27086 0.0118457 3.78447e-15)
(3.26457 0.0134897 3.63886e-15)
(3.25766 0.0148725 3.56002e-15)
(3.2502 0.0160321 3.34491e-15)
(3.24229 0.0170004 3.22286e-15)
(3.234 0.0178047 3.14266e-15)
(3.22539 0.0184681 3.04057e-15)
(3.2165 0.0190104 2.97581e-15)
(3.2074 0.0194486 2.75673e-15)
(3.19811 0.019797 2.68679e-15)
(3.18868 0.0200682 2.59379e-15)
(3.17913 0.020273 2.56479e-15)
(3.16949 0.0204207 2.38613e-15)
(3.15978 0.0205194 2.32727e-15)
(3.15002 0.020576 2.25586e-15)
(3.14023 0.0205967 2.21519e-15)
(3.13043 0.0205868 2.07497e-15)
(3.12062 0.0205509 2.02412e-15)
(3.11082 0.0204929 1.96392e-15)
(3.10104 0.0204164 1.91827e-15)
(3.09129 0.0203245 1.7981e-15)
(3.08157 0.0202197 1.74978e-15)
(3.07189 0.0201045 1.68828e-15)
(3.06225 0.0199807 1.66175e-15)
(3.05267 0.0198502 1.56115e-15)
(3.04314 0.0197144 1.52543e-15)
(3.03367 0.0195747 1.47561e-15)
(3.02425 0.0194321 1.4417e-15)
(3.0149 0.0192877 1.37107e-15)
(3.00562 0.0191423 1.32565e-15)
(2.9964 0.0189965 1.28611e-15)
(2.98724 0.018851 1.24312e-15)
(2.97816 0.0187063 1.20526e-15)
(2.96914 0.0185628 1.15643e-15)
(2.96019 0.0184208 1.12144e-15)
(2.95131 0.0182806 1.0868e-15)
(2.94249 0.0181426 1.05275e-15)
(2.93375 0.0180068 1.02259e-15)
(2.92507 0.0178733 9.8904e-16)
(2.91647 0.0177424 9.61808e-16)
(2.90793 0.0176141 9.28583e-16)
(2.89945 0.0174884 9.12381e-16)
(2.89105 0.0173653 8.80854e-16)
(2.88271 0.0172449 8.58421e-16)
(2.87444 0.0171271 8.22829e-16)
(2.86623 0.0170119 8.19874e-16)
(2.85808 0.0168993 7.8538e-16)
(2.85 0.0167892 7.67431e-16)
(2.84199 0.0166815 7.34409e-16)
(2.84199 0.0166815 7.34409e-16)
)
;
    }
    procBoundary9to4
    {
        type            processor;
        value           nonuniform List<vector> 2((2.81053 0.0162739 6.75622e-16) (2.73737 0.0206849 6.26089e-16));
    }
    procBoundary9to8
    {
        type            processor;
        value           nonuniform List<vector> 4((2.9679 -0.166409 5.64215e-15) (2.95255 -0.199354 3.96346e-15) (2.93588 -0.233611 2.42117e-15) (2.91863 -0.269048 8.98774e-16));
    }
    procBoundary9to10
    {
        type            processor;
        value           nonuniform List<vector> 3((2.64405 0.0254012 5.35417e-16) (2.52906 0.0302897 3.41925e-16) (2.39182 0.0351326 1.575e-16));
    }
    procBoundary9to14
    {
        type            processor;
        value           uniform (2.90034 -0.304679 -4.5647e-16);
    }
    procBoundary9to15
    {
        type            processor;
        value           nonuniform List<vector> 
70
(
(2.92087 -0.280241 -1.75051e-15)
(2.9501 -0.227098 -1.82183e-15)
(2.96574 -0.178736 -1.80558e-15)
(2.97034 -0.135638 -1.78711e-15)
(2.26709 0.0415589 -9.38537e-17)
(2.25835 0.0410684 -8.8584e-17)
(2.24977 0.040585 -7.68174e-17)
(2.24134 0.0401086 -7.16223e-17)
(2.96601 -0.0980837 -1.7318e-15)
(2.95474 -0.0666969 -1.84167e-15)
(2.93876 -0.0413307 -1.67797e-15)
(2.92032 -0.0209613 -1.74019e-15)
(2.90076 -0.00446774 -1.69847e-15)
(2.88056 0.00901108 -1.76459e-15)
(2.85999 0.0200477 -1.56794e-15)
(2.8393 0.0291668 -1.62238e-15)
(2.81866 0.0367528 -1.49904e-15)
(2.79813 0.0430847 -1.55914e-15)
(2.77777 0.0483749 -1.39571e-15)
(2.7576 0.0527915 -1.42313e-15)
(2.73766 0.0564701 -1.39275e-15)
(2.71797 0.0595212 -1.44637e-15)
(2.69854 0.0620351 -1.26284e-15)
(2.67938 0.0640871 -1.31108e-15)
(2.66051 0.0657408 -1.21366e-15)
(2.64193 0.0670503 -1.26148e-15)
(2.62364 0.068062 -1.14031e-15)
(2.60564 0.0688158 -1.14357e-15)
(2.58794 0.0693462 -1.16211e-15)
(2.57054 0.0696831 -1.12735e-15)
(2.55344 0.0698524 -1.15061e-15)
(2.53663 0.0698768 -1.03014e-15)
(2.52011 0.0697761 -1.05947e-15)
(2.50389 0.0695673 -9.83257e-16)
(2.48796 0.0692656 -1.0031e-15)
(2.47232 0.068884 -9.15656e-16)
(2.45696 0.0684342 -9.2117e-16)
(2.44188 0.0679262 -8.95558e-16)
(2.42708 0.0673688 -9.15794e-16)
(2.41256 0.0667697 -8.30518e-16)
(2.3983 0.0661358 -8.39914e-16)
(2.38431 0.065473 -7.948e-16)
(2.37059 0.0647865 -8.00132e-16)
(2.35713 0.0640809 -7.38817e-16)
(2.34392 0.0633601 -7.3954e-16)
(2.33096 0.0626277 -7.20038e-16)
(2.31825 0.0618868 -7.17584e-16)
(2.30579 0.0611399 -6.68309e-16)
(2.29357 0.0603895 -6.6369e-16)
(2.28158 0.0596376 -6.35611e-16)
(2.26983 0.0588859 -6.25983e-16)
(2.2583 0.0581359 -5.91265e-16)
(2.247 0.0573891 -5.78932e-16)
(2.23592 0.0566465 -5.64327e-16)
(2.22506 0.0559091 -5.47555e-16)
(2.21441 0.0551777 -5.28755e-16)
(2.20397 0.0544531 -5.06545e-16)
(2.19374 0.0537358 -4.87323e-16)
(2.18371 0.0530264 -4.71158e-16)
(2.17387 0.0523253 -4.50126e-16)
(2.16423 0.0516327 -4.39608e-16)
(2.15479 0.0509491 -4.17482e-16)
(2.14552 0.0502745 -4.02005e-16)
(2.13645 0.0496092 -3.78271e-16)
(2.12755 0.0489533 -3.79353e-16)
(2.11883 0.0483068 -3.50852e-16)
(2.11029 0.0476699 -3.48142e-16)
(2.10191 0.0470425 -3.18365e-16)
(2.26709 0.0415589 -9.38537e-17)
(2.0937 0.0464246 -3.24774e-16)
)
;
    }
}


// ************************************************************************* //
