/*--------------------------------*- C++ -*----------------------------------*\
  =========                 |
  \\      /  F ield         | OpenFOAM: The Open Source CFD Toolbox
   \\    /   O peration     | Website:  https://openfoam.org
    \\  /    A nd           | Version:  7
     \\/     M anipulation  |
\*---------------------------------------------------------------------------*/
FoamFile
{
    version     2.0;
    format      ascii;
    class       surfaceScalarField;
    location    "4";
    object      phi;
}
// * * * * * * * * * * * * * * * * * * * * * * * * * * * * * * * * * * * * * //

dimensions      [0 3 -1 0 0 0 0];

internalField   nonuniform List<scalar> 
615
(
0.000107475
-0.000119662
0.000100561
-0.000149107
8.98974e-05
-0.00018635
7.13332e-05
-0.000228724
3.96128e-05
-0.000253151
-0.000177243
0.000132834
-1.02959e-06
0.000132772
-1.01446e-06
0.000132711
-9.99776e-07
0.00013265
-9.85556e-07
0.00013259
-9.71823e-07
0.000132532
-9.58604e-07
0.000132473
-9.45934e-07
0.000132416
-9.33854e-07
0.00013236
-9.22416e-07
0.000132304
-9.1168e-07
0.000132249
-9.0172e-07
0.000132194
-8.92622e-07
0.00013214
-8.84491e-07
0.000132087
-8.77452e-07
0.000132034
-8.7165e-07
0.000131982
-8.67262e-07
0.00013193
-8.64493e-07
0.000131878
-8.63588e-07
0.000131826
-8.64837e-07
0.000131775
-8.68581e-07
0.000131723
-8.75224e-07
0.000131671
-8.85245e-07
0.000131619
-8.99206e-07
0.000131566
-9.17773e-07
0.000131512
-9.41732e-07
0.000131457
-9.72011e-07
0.000131401
-1.00971e-06
0.000131343
-1.05611e-06
0.000131283
-1.11275e-06
0.00013122
-1.18144e-06
0.000131154
-1.26431e-06
0.000131084
-1.36388e-06
0.000131009
-1.48314e-06
0.000130928
-1.62562e-06
0.00013084
-1.79551e-06
0.000130744
-1.99777e-06
0.000130638
-2.23827e-06
0.00013052
-2.524e-06
0.000130388
-2.86325e-06
0.000130239
-3.2659e-06
0.00013007
-3.74372e-06
0.000129878
-4.31073e-06
0.000129658
-4.98375e-06
0.000129405
-5.78289e-06
0.000129113
-6.73235e-06
0.000128774
-7.86127e-06
0.00012838
-9.20491e-06
0.000127919
-1.0806e-05
0.00012738
-1.27169e-05
0.000126747
-1.50014e-05
0.000126002
-1.77384e-05
0.000125121
-2.10258e-05
0.000124075
-2.49864e-05
0.00012283
-2.97751e-05
0.000121338
-3.55897e-05
0.00011954
-4.26863e-05
0.000117353
-5.14001e-05
0.000114664
-6.2177e-05
0.000111303
-7.56157e-05
0.000107001
-9.25266e-05
0.000101303
-0.000113964
9.33237e-05
-0.000141127
8.13541e-05
-0.00017438
6.19176e-05
-0.000209287
3.19932e-05
-0.000223226
-0.00014525
0.00013014
-9.64083e-07
0.000130076
-9.49923e-07
0.000130012
-9.36185e-07
0.00012995
-9.22885e-07
0.000129888
-9.10045e-07
0.000129827
-8.97691e-07
0.000129767
-8.85856e-07
0.000129708
-8.7458e-07
0.000129649
-8.63911e-07
0.000129591
-8.53908e-07
0.000129534
-8.4464e-07
0.000129478
-8.36191e-07
0.000129422
-8.28661e-07
0.000129367
-8.22168e-07
0.000129312
-8.16852e-07
0.000129257
-8.1288e-07
0.000129203
-8.10449e-07
0.00012915
-8.09793e-07
0.000129096
-8.11187e-07
0.000129042
-8.14958e-07
0.000128989
-8.21492e-07
0.000128935
-8.31243e-07
0.00012888
-8.44749e-07
0.000128825
-8.62646e-07
0.000128769
-8.85682e-07
0.000128712
-9.14744e-07
0.000128653
-9.50877e-07
0.000128592
-9.95315e-07
0.000128529
-1.04952e-06
0.000128463
-1.11521e-06
0.000128393
-1.19442e-06
0.000128318
-1.28956e-06
0.000128239
-1.40349e-06
0.000128153
-1.53957e-06
0.000128059
-1.7018e-06
0.000127956
-1.8949e-06
0.000127842
-2.1245e-06
0.000127716
-2.39725e-06
0.000127573
-2.72108e-06
0.000127413
-3.10541e-06
0.000127231
-3.56147e-06
0.000127023
-4.10267e-06
0.000126784
-4.74505e-06
0.000126509
-5.50782e-06
0.000126191
-6.41408e-06
0.000125821
-7.49165e-06
0.00012539
-8.77416e-06
0.000124887
-1.03024e-05
0.000124296
-1.21262e-05
0.000123601
-1.43064e-05
0.000122781
-1.69181e-05
0.000121809
-2.00543e-05
0.000120654
-2.38311e-05
0.000119274
-2.83951e-05
0.000117617
-3.39324e-05
0.000115613
-4.06824e-05
0.000113169
-4.89563e-05
0.000110155
-5.91627e-05
0.00010638
-7.18408e-05
0.000101548
-8.76948e-05
9.51728e-05
-0.000107589
8.63641e-05
-0.000132319
7.35296e-05
-0.000161546
5.39115e-05
-0.000189669
2.61581e-05
-0.000195473
-0.000119092
0.000127101
-8.96815e-07
0.000127035
-8.83653e-07
0.00012697
-8.70887e-07
0.000126905
-8.58531e-07
0.000126842
-8.46606e-07
0.000126779
-8.35138e-07
0.000126717
-8.24158e-07
0.000126657
-8.13703e-07
0.000126597
-8.03819e-07
0.000126537
-7.94563e-07
0.000126479
-7.86e-07
0.000126421
-7.78209e-07
0.000126363
-7.71286e-07
0.000126306
-7.65341e-07
0.00012625
-7.60508e-07
0.000126194
-7.56946e-07
0.000126138
-7.54841e-07
0.000126083
-7.54414e-07
0.000126028
-7.55928e-07
0.000125973
-7.59691e-07
0.000125917
-7.66069e-07
0.000125861
-7.75494e-07
0.000125805
-7.88475e-07
0.000125748
-8.05614e-07
0.00012569
-8.27622e-07
0.000125631
-8.55338e-07
0.000125569
-8.89753e-07
0.000125506
-9.32038e-07
0.00012544
-9.83574e-07
0.000125371
-1.046e-06
0.000125298
-1.12124e-06
0.00012522
-1.21158e-06
0.000125136
-1.31972e-06
0.000125045
-1.44885e-06
0.000124946
-1.60278e-06
0.000124837
-1.78597e-06
0.000124717
-2.00376e-06
0.000124582
-2.26246e-06
0.00012443
-2.56959e-06
0.000124259
-2.93408e-06
0.000124064
-3.36658e-06
0.000123841
-3.87981e-06
0.000123585
-4.48898e-06
0.00012329
-5.21229e-06
0.000122947
-6.07164e-06
0.000122549
-7.0934e-06
0.000122084
-8.30942e-06
0.00012154
-9.75834e-06
0.000120901
-1.14872e-05
0.000120148
-1.35535e-05
0.000119258
-1.60281e-05
0.000118203
-1.89985e-05
0.000116945
-2.25737e-05
0.000115441
-2.68906e-05
0.00011363
-3.21223e-05
0.000111438
-3.84901e-05
0.000108761
-4.62789e-05
0.000105455
-5.58574e-05
0.000101318
-6.7703e-05
9.60359e-05
-8.24131e-05
8.91153e-05
-0.000100668
7.96995e-05
-0.000122903
6.63693e-05
-0.000148216
4.70456e-05
-0.000170346
2.15846e-05
-0.000170012
-9.7507e-05
0.000123709
-8.28274e-07
0.000123641
-8.16129e-07
0.000123575
-8.04352e-07
0.000123509
-7.92957e-07
0.000123445
-7.81964e-07
0.000123381
-7.71396e-07
0.000123318
-7.61283e-07
0.000123256
-7.51661e-07
0.000123195
-7.42573e-07
0.000123134
-7.34072e-07
0.000123075
-7.26219e-07
0.000123015
-7.1909e-07
0.000122957
-7.12773e-07
0.000122899
-7.07374e-07
0.000122841
-7.03019e-07
0.000122784
-6.99855e-07
0.000122728
-6.98061e-07
0.000122671
-6.97843e-07
0.000122615
-6.99447e-07
0.000122558
-7.03167e-07
0.000122501
-7.09344e-07
0.000122444
-7.18386e-07
0.000122386
-7.30772e-07
0.000122328
-7.4707e-07
0.000122268
-7.67947e-07
0.000122207
-7.94195e-07
0.000122144
-8.26745e-07
0.000122079
-8.667e-07
0.000122011
-9.15361e-07
0.000121939
-9.74266e-07
0.000121863
-1.04523e-06
0.000121782
-1.13041e-06
0.000121694
-1.23235e-06
0.000121599
-1.35404e-06
0.000121496
-1.49907e-06
0.000121381
-1.67165e-06
0.000121254
-1.87679e-06
0.000121112
-2.12045e-06
0.000120953
-2.4097e-06
0.000120771
-2.75294e-06
0.000120565
-3.16021e-06
0.000120329
-3.64347e-06
0.000120057
-4.21703e-06
0.000119743
-4.89804e-06
0.000119378
-5.70708e-06
0.000118953
-6.66893e-06
0.000118458
-7.81353e-06
0.000117876
-9.17714e-06
0.000117193
-1.08039e-05
0.000116387
-1.27476e-05
0.000115433
-1.50744e-05
0.000114301
-1.78658e-05
0.00011295
-2.12232e-05
0.000111333
-2.5273e-05
0.000109385
-3.01745e-05
0.000107024
-3.61294e-05
0.00010414
-4.33951e-05
0.000100583
-5.22995e-05
9.61375e-05
-6.32579e-05
9.04897e-05
-7.67653e-05
8.31535e-05
-9.33317e-05
7.3334e-05
-0.000113083
5.98129e-05
-0.000134694
4.11118e-05
-0.000151644
1.79351e-05
-0.000146835
-7.95719e-05
0.000119957
-7.58964e-07
0.000119889
-7.47847e-07
0.000119821
-7.3707e-07
0.000119755
-7.26645e-07
0.00011969
-7.16591e-07
0.000119625
-7.06931e-07
0.000119562
-6.97692e-07
0.000119499
-6.88908e-07
0.000119437
0.000119376
0.000119315
0.000119255
0.000119196
0.000119137
0.000119079
0.000119021
0.000118964
0.000118907
0.000118849
0.000118792
0.000118734
0.000118676
0.000118617
0.000118558
0.000118497
0.000118434
0.00011837
0.000118303
0.000118233
0.000118159
0.000118081
0.000117997
0.000117907
0.000117809
0.000117701
0.000117582
0.000117449
0.000117301
0.000117134
0.000116944
0.000116728
0.000116479
0.000116193
0.000115862
0.000115478
0.00011503
0.000114506
0.000113892
0.000113169
0.000112316
0.000111305
0.000110104
0.000108671
0.000106954
0.000104886
0.00010238
9.93202e-05
9.55515e-05
9.08583e-05
8.49298e-05
7.73032e-05
6.7263e-05
5.37999e-05
3.59463e-05
1.49789e-05
0.000115838
0.000115769
0.000115702
0.000115635
0.000115569
0.000115505
0.000115441
)
;

boundaryField
{
    inlet
    {
        type            calculated;
        value           nonuniform 0();
    }
    outlet
    {
        type            calculated;
        value           nonuniform 0();
    }
    wall
    {
        type            calculated;
        value           uniform 0;
    }
    wedge1
    {
        type            wedge;
        value           nonuniform List<scalar> 
344
(
-3.99729e-17
-3.67891e-17
9.2068e-17
-3.05824e-17
-1.45973e-16
4.60361e-17
-3.93896e-17
-3.62479e-17
9.07098e-17
-3.01379e-17
-1.43834e-16
4.53597e-17
-3.87721e-17
-3.56781e-17
8.94417e-17
-2.96556e-17
-1.41717e-16
4.47391e-17
-3.82224e-17
-3.51757e-17
8.8158e-17
-2.92461e-17
-1.39721e-16
4.40948e-17
-3.76923e-17
-3.46816e-17
8.69341e-17
-2.88398e-17
-1.37784e-16
4.34778e-17
-3.71852e-17
-3.42218e-17
8.57416e-17
-2.84609e-17
-1.35927e-16
4.2885e-17
-3.66971e-17
-3.37767e-17
8.46002e-17
-2.8094e-17
-1.34149e-16
4.23193e-17
-3.61879e-17
-3.33121e-17
8.35549e-17
-2.77019e-17
-1.32416e-16
4.18204e-17
-3.57363e-17
-3.28852e-17
8.25467e-17
-2.73511e-17
-1.30802e-16
-3.52827e-17
-3.2477e-17
8.16194e-17
-2.70046e-17
-1.29267e-16
-3.48992e-17
-3.21213e-17
8.07252e-17
-2.67186e-17
-1.27883e-16
-3.45019e-17
-3.17566e-17
7.9955e-17
-2.64096e-17
-1.26588e-16
-3.41787e-17
-3.14548e-17
7.92374e-17
-2.61693e-17
-1.2547e-16
-3.39127e-17
-3.12206e-17
7.85968e-17
-2.59845e-17
-1.24527e-16
-3.36918e-17
-3.10225e-17
7.80699e-17
-2.58298e-17
-1.23762e-16
-3.34802e-17
-3.08388e-17
7.77119e-17
-2.56775e-17
-1.23167e-16
-3.33637e-17
-3.07254e-17
7.74789e-17
-2.55964e-17
-1.22839e-16
-3.32872e-17
-3.067e-17
7.74335e-17
-2.55561e-17
-1.22763e-16
-3.33312e-17
-3.07149e-17
7.75477e-17
-2.5613e-17
-1.2304e-16
-3.34224e-17
-3.08074e-17
7.79333e-17
-2.56996e-17
-1.23648e-16
-3.36637e-17
-3.10348e-17
7.85443e-17
-2.59156e-17
-1.24725e-16
-3.40436e-17
-3.14062e-17
7.94412e-17
-2.6254e-17
-1.26317e-16
-3.4573e-17
-3.1913e-17
8.0695e-17
-2.6707e-17
-1.2849e-16
-3.52372e-17
-3.25484e-17
8.24033e-17
-2.72629e-17
-1.31311e-16
-3.61345e-17
-3.3387e-17
8.45784e-17
-2.80048e-17
-1.34961e-16
-3.72415e-17
-3.44419e-17
8.73424e-17
-2.8925e-17
-1.39531e-16
-3.86701e-17
-3.57861e-17
9.07396e-17
-3.01067e-17
-1.4524e-16
-4.03821e-17
-3.73994e-17
9.49689e-17
-3.15084e-17
-1.52208e-16
-4.25268e-17
-3.94237e-17
1.00068e-16
-3.3281e-17
-1.60755e-16
-4.51285e-17
-4.1867e-17
1.06269e-16
-3.54139e-17
-1.71087e-16
-4.82726e-17
-4.48318e-17
1.13733e-16
-3.79962e-17
-1.83544e-16
-5.20487e-17
-4.83863e-17
1.22707e-16
-4.10872e-17
-1.9849e-16
-5.65309e-17
-5.26057e-17
1.33496e-16
-4.47471e-17
-2.16338e-16
-6.19237e-17
-5.76649e-17
1.46359e-16
-4.91435e-17
-2.37682e-16
-6.83265e-17
-6.36905e-17
1.61716e-16
-5.43675e-17
-2.63093e-16
-7.59956e-17
-7.0895e-17
1.79957e-16
-6.06238e-17
-2.93376e-16
-8.5068e-17
-7.94199e-17
2.01695e-16
-6.80134e-17
-3.29334e-16
-9.58928e-17
-8.95854e-17
2.2748e-16
-7.6838e-17
-3.72088e-16
-1.08755e-16
-1.01679e-16
2.58077e-16
-8.73322e-17
-4.22853e-16
-1.24017e-16
-1.16023e-16
2.94402e-16
-9.97735e-17
-4.83085e-16
-1.4209e-16
-1.33008e-16
3.37548e-16
-1.14497e-16
-5.54513e-16
-1.63571e-16
-1.53182e-16
3.88728e-16
-1.31993e-16
-6.39299e-16
-1.89041e-16
-1.77121e-16
4.4949e-16
-1.52746e-16
-7.39902e-16
-2.19326e-16
-2.05575e-16
5.21602e-16
-1.77421e-16
-8.5938e-16
-2.55259e-16
-2.39339e-16
6.07322e-16
-2.06689e-16
-1.00127e-15
-2.98024e-16
-2.7952e-16
7.09198e-16
-2.41531e-16
-1.16998e-15
-3.48926e-16
-3.27362e-16
8.30419e-16
-2.83008e-16
-1.37072e-15
-4.09571e-16
-3.84359e-16
9.74855e-16
-3.32412e-16
-1.60982e-15
-4.81894e-16
-4.5233e-16
1.14723e-15
-3.91307e-16
-1.89495e-15
-5.68375e-16
-5.33591e-16
1.35321e-15
-4.61704e-16
-2.23556e-15
-6.71939e-16
-6.30916e-16
1.5999e-15
-5.45965e-16
-2.64311e-15
-7.96346e-16
-7.478e-16
1.89596e-15
-6.47096e-16
-3.13184e-15
-9.46143e-16
-8.88505e-16
2.25235e-15
-7.68701e-16
-3.71922e-15
-1.12727e-15
-1.05857e-15
2.68265e-15
-9.15482e-16
-4.42723e-15
-1.34714e-15
-1.2649e-15
3.20426e-15
-1.09318e-15
-5.28321e-15
-1.61546e-15
-1.51644e-15
3.83932e-15
-1.3092e-15
-6.32177e-15
-1.94489e-15
-1.82484e-15
4.61653e-15
-1.57297e-15
-7.58676e-15
-2.35234e-15
-2.20545e-15
5.57327e-15
-1.8966e-15
-9.13358e-15
-2.86076e-15
-2.67877e-15
6.75822e-15
-2.29566e-15
-1.10315e-14
-3.50141e-15
-3.27188e-15
8.23364e-15
-2.78907e-15
-1.33608e-14
-4.59664e-15
-4.31593e-15
-4.01894e-15
1.00726e-14
-3.39724e-15
-1.61979e-14
-5.7343e-15
-5.35449e-15
-4.95453e-15
1.23315e-14
-4.12895e-15
-1.95386e-14
-7.18853e-15
-6.64126e-15
-6.07491e-15
1.49393e-14
-4.9416e-15
-2.30987e-14
-8.88328e-15
-8.02831e-15
-7.18543e-15
1.72976e-14
-5.60496e-15
-2.56805e-14
-9.92348e-15
-8.63373e-15
-7.46088e-15
1.73831e-14
-5.46227e-15
-2.43096e-14
-6.98614e-15
-5.64672e-15
-4.572e-15
1.00413e-14
-2.98553e-15
-1.26148e-14
)
;
    }
    wedge2
    {
        type            wedge;
        value           nonuniform List<scalar> 
344
(
-4.02797e-17
-3.71428e-17
9.16575e-17
-3.10206e-17
-1.46445e-16
4.55565e-17
-3.96817e-17
-3.65962e-17
9.03146e-17
-3.05603e-17
-1.44294e-16
4.48904e-17
-3.91522e-17
-3.61104e-17
8.89618e-17
-3.01648e-17
-1.42249e-16
4.42093e-17
-3.85909e-17
-3.55903e-17
8.77079e-17
-2.97246e-17
-1.40218e-16
4.35945e-17
-3.80475e-17
-3.50969e-17
8.64816e-17
-2.93109e-17
-1.3827e-16
4.29971e-17
-3.75206e-17
-3.4606e-17
8.53163e-17
-2.89009e-17
-1.36391e-16
4.24229e-17
-3.70169e-17
-3.41396e-17
8.41985e-17
-2.85124e-17
-1.34594e-16
4.18723e-17
-3.65797e-17
-3.37349e-17
8.30906e-17
-2.81851e-17
-1.32925e-16
4.13095e-17
-3.6134e-17
-3.33383e-17
8.2061e-17
-2.78555e-17
-1.31324e-16
-3.57441e-17
-3.29733e-17
8.10767e-17
-2.75645e-17
-1.29851e-16
-3.53434e-17
-3.26111e-17
8.01987e-17
-2.72605e-17
-1.28455e-16
-3.50225e-17
-3.23195e-17
7.93519e-17
-2.70322e-17
-1.27224e-16
-3.47012e-17
-3.20339e-17
7.86267e-17
-2.67945e-17
-1.26101e-16
-3.4406e-17
-3.17587e-17
7.80206e-17
-2.65681e-17
-1.25127e-16
-3.41599e-17
-3.15355e-17
7.75239e-17
-2.63877e-17
-1.24341e-16
-3.40121e-17
-3.13987e-17
7.71126e-17
-2.62915e-17
-1.23802e-16
-3.38925e-17
-3.1307e-17
7.6868e-17
-2.62236e-17
-1.23478e-16
-3.38746e-17
-3.12901e-17
7.67715e-17
-2.62294e-17
-1.23455e-16
-3.38999e-17
-3.13263e-17
7.69033e-17
-2.62705e-17
-1.23719e-16
-3.40675e-17
-3.14926e-17
7.72134e-17
-2.64354e-17
-1.24394e-16
-3.43052e-17
-3.17304e-17
7.78206e-17
-2.66493e-17
-1.25463e-16
-3.46607e-17
-3.20648e-17
7.87503e-17
-2.69485e-17
-1.27022e-16
-3.51658e-17
-3.25443e-17
8.00335e-17
-2.73759e-17
-1.29174e-16
-3.58856e-17
-3.32232e-17
8.16925e-17
-2.79839e-17
-1.32049e-16
-3.67814e-17
-3.40827e-17
8.38566e-17
-2.8738e-17
-1.35703e-16
-3.79468e-17
-3.51758e-17
8.65714e-17
-2.97032e-17
-1.40322e-16
-3.93531e-17
-3.65076e-17
8.99901e-17
-3.08638e-17
-1.46013e-16
-4.11366e-17
-3.81902e-17
9.41473e-17
-3.23412e-17
-1.53045e-16
-4.32639e-17
-4.01907e-17
9.92809e-17
-3.40787e-17
-1.61552e-16
-4.58474e-17
-4.26297e-17
1.05486e-16
-3.61985e-17
-1.71869e-16
-4.89637e-17
-4.55565e-17
1.12984e-16
-3.87429e-17
-1.84295e-16
-5.27145e-17
-4.90828e-17
1.21987e-16
-4.18087e-17
-1.9922e-16
-5.7252e-17
-5.33459e-17
1.32728e-16
-4.55197e-17
-2.17122e-16
-6.26395e-17
-5.84225e-17
1.45583e-16
-4.99264e-17
-2.38467e-16
-6.90948e-17
-6.4484e-17
1.60891e-16
-5.51961e-17
-2.6393e-16
-7.67375e-17
-7.1671e-17
1.79156e-16
-6.14301e-17
-2.94195e-16
-8.58762e-17
-8.02607e-17
2.00827e-16
-6.88906e-17
-3.30212e-16
-9.66909e-17
-9.04302e-17
2.26614e-16
-7.77068e-17
-3.72952e-16
-1.09526e-16
-1.02483e-16
2.57251e-16
-8.81565e-17
-4.23678e-16
-1.24765e-16
-1.16799e-16
2.93605e-16
-1.00572e-16
-4.83889e-16
-1.4289e-16
-1.33827e-16
3.36705e-16
-1.15345e-16
-5.55369e-16
-1.64367e-16
-1.54017e-16
3.87875e-16
-1.3285e-16
-6.40154e-16
-1.89887e-16
-1.77989e-16
4.48596e-16
-1.53641e-16
-7.40802e-16
-2.20146e-16
-2.06425e-16
5.20732e-16
-1.78294e-16
-8.6026e-16
-2.56143e-16
-2.40252e-16
6.06387e-16
-2.0763e-16
-1.00221e-15
-2.98898e-16
-2.80436e-16
7.08266e-16
-2.42461e-16
-1.1709e-15
-3.49771e-16
-3.28237e-16
8.29526e-16
-2.83897e-16
-1.37161e-15
-4.1039e-16
-3.85202e-16
9.73996e-16
-3.3327e-16
-1.61068e-15
-4.82765e-16
-4.53214e-16
1.14632e-15
-3.92212e-16
-1.89586e-15
-5.69243e-16
-5.34493e-16
1.3523e-15
-4.62618e-16
-2.23646e-15
-6.72858e-16
-6.31851e-16
1.59894e-15
-5.46918e-16
-2.64406e-15
-7.97242e-16
-7.4872e-16
1.89502e-15
-6.48028e-16
-3.13277e-15
-9.47105e-16
-8.89491e-16
2.25135e-15
-7.69701e-16
-3.72021e-15
-1.12821e-15
-1.05953e-15
2.68169e-15
-9.16441e-16
-4.42817e-15
-1.34807e-15
-1.26585e-15
3.2033e-15
-1.09412e-15
-5.28413e-15
-1.61636e-15
-1.51736e-15
3.83839e-15
-1.3101e-15
-6.32267e-15
-1.94578e-15
-1.82574e-15
4.61563e-15
-1.57386e-15
-7.58764e-15
-2.3533e-15
-2.2064e-15
5.57231e-15
-1.89755e-15
-9.13452e-15
-2.86173e-15
-2.67975e-15
6.75724e-15
-2.29662e-15
-1.10325e-14
-3.50244e-15
-3.2729e-15
8.23262e-15
-2.79007e-15
-1.33618e-14
-4.59766e-15
-4.31695e-15
-4.01996e-15
1.00716e-14
-3.39822e-15
-1.61989e-14
-5.73539e-15
-5.35558e-15
-4.95561e-15
1.23304e-14
-4.12997e-15
-1.95396e-14
-7.18958e-15
-6.64231e-15
-6.07593e-15
1.49383e-14
-4.94254e-15
-2.30996e-14
-8.88421e-15
-8.02921e-15
-7.18628e-15
1.72968e-14
-5.60573e-15
-2.56812e-14
-9.92417e-15
-8.63438e-15
-7.46149e-15
1.73825e-14
-5.46281e-15
-2.43101e-14
-6.98645e-15
-5.64701e-15
-4.57226e-15
1.0041e-14
-2.98578e-15
-1.26151e-14
)
;
    }
    axis
    {
        type            empty;
        value           nonuniform 0();
    }
    procBoundary26to20
    {
        type            processor;
        value           nonuniform List<scalar> 
67
(
0.000124554
0.00015602
0.000197014
0.000247288
0.000284871
0.000216856
1.09287e-06
1.0768e-06
1.06121e-06
1.0461e-06
1.0315e-06
1.01744e-06
1.00397e-06
9.91107e-07
9.78922e-07
9.67473e-07
9.56836e-07
9.47103e-07
9.38382e-07
9.30803e-07
9.24519e-07
9.19711e-07
9.16595e-07
9.15426e-07
9.16505e-07
9.2019e-07
9.269e-07
9.37134e-07
9.51478e-07
9.70627e-07
9.95399e-07
1.02676e-06
1.06586e-06
1.11403e-06
1.17288e-06
1.24429e-06
1.33047e-06
1.43407e-06
1.55819e-06
1.70651e-06
1.88338e-06
2.09398e-06
2.34443e-06
2.642e-06
2.99532e-06
3.41468e-06
3.91232e-06
4.50285e-06
5.20376e-06
6.03598e-06
7.0247e-06
8.20024e-06
9.59928e-06
1.12664e-05
1.32558e-05
1.56342e-05
1.84839e-05
2.1907e-05
2.60318e-05
3.10206e-05
3.70815e-05
4.44847e-05
5.35866e-05
6.48663e-05
7.89766e-05
-0.000112367
9.68283e-05
)
;
    }
    procBoundary26to25
    {
        type            processor;
        value           nonuniform List<scalar> 5(-0.000132898 -0.000130206 -0.000127168 -0.000123778 -0.000120026);
    }
    procBoundary26to31
    {
        type            processor;
        value           uniform -0.000115907;
    }
    procBoundary26to32
    {
        type            processor;
        value           nonuniform List<scalar> 
67
(
-6.80619e-07
-6.72875e-07
-6.65733e-07
-6.59263e-07
-6.53548e-07
-6.48688e-07
-6.448e-07
-6.42021e-07
-6.40518e-07
-6.40485e-07
-6.42151e-07
-6.45789e-07
-6.51721e-07
-6.60325e-07
-6.7205e-07
-6.87426e-07
-7.07077e-07
-7.31741e-07
-7.62289e-07
-7.99751e-07
-8.45343e-07
-9.00501e-07
-9.66924e-07
-1.04662e-06
-1.14196e-06
-1.25576e-06
-1.39135e-06
-1.55268e-06
-1.74442e-06
-1.97213e-06
-2.24242e-06
-2.56315e-06
-2.94367e-06
-3.39516e-06
-3.93097e-06
-4.56711e-06
-5.32276e-06
-6.22102e-06
-7.28978e-06
-8.56276e-06
-1.00809e-05
-1.18942e-05
-1.40638e-05
-1.66649e-05
-1.97904e-05
-2.35561e-05
-2.81064e-05
-3.36231e-05
-4.03354e-05
-4.85309e-05
-5.85647e-05
-7.08368e-05
-8.57051e-05
-0.000103043
-0.000121231
-0.000133791
-0.000125868
-6.4593e-05
-6.89405e-07
-6.79319e-07
-6.69543e-07
-6.6009e-07
-6.50977e-07
-6.42225e-07
-6.3386e-07
0.000115378
-6.25912e-07
)
;
    }
}


// ************************************************************************* //
