/*--------------------------------*- C++ -*----------------------------------*\
  =========                 |
  \\      /  F ield         | OpenFOAM: The Open Source CFD Toolbox
   \\    /   O peration     | Website:  https://openfoam.org
    \\  /    A nd           | Version:  7
     \\/     M anipulation  |
\*---------------------------------------------------------------------------*/
FoamFile
{
    version     2.0;
    format      ascii;
    class       volVectorField;
    location    "4";
    object      U;
}
// * * * * * * * * * * * * * * * * * * * * * * * * * * * * * * * * * * * * * //

dimensions      [0 1 -1 0 0 0 0];

internalField   nonuniform List<vector> 
4116
(
(2.19162 0.494666 0)
(2.19357 0.499046 0)
(2.19531 0.504705 0)
(2.19763 0.509751 0)
(2.20009 0.512263 0)
(2.20296 0.512338 0)
(2.20554 0.510185 0)
(2.20703 0.50574 0)
(2.20732 0.499321 0)
(2.20489 0.490415 0)
(2.19839 0.481878 0)
(2.19239 0.480558 0)
(2.18826 0.484972 0)
(2.18529 0.490318 0)
(2.18428 0.493935 0)
(2.18529 0.495093 0)
(2.18738 0.495975 0)
(2.19394 0.496795 0)
(2.20549 0.498625 0)
(2.21906 0.505578 0)
(2.22913 0.516649 0)
(2.23414 0.524174 0)
(2.23681 0.529064 0)
(2.23562 0.528057 0)
(2.23114 0.519069 0)
(2.20653 0.48233 0)
(2.13275 0.368292 0)
(2.01104 0.177398 0)
(1.93621 0.0756413 0)
(1.88337 -0.0232211 0)
(1.8609 -0.0359356 0)
(1.85996 -0.0355321 0)
(1.86461 -0.0394656 0)
(1.87063 -0.0382381 0)
(1.8805 -0.031392 0)
(1.88853 -0.0205788 0)
(1.89003 -0.0134184 0)
(1.88846 -0.0106298 0)
(1.88662 -0.0110074 0)
(1.88407 -0.0136681 0)
(1.88051 -0.0183631 0)
(1.87612 -0.0243303 0)
(1.87258 -0.0293181 0)
(1.87278 -0.0313929 0)
(1.87529 -0.0309582 0)
(1.87837 -0.0272862 0)
(1.88049 -0.0222986 0)
(1.88163 -0.0166412 0)
(1.88259 -0.0104851 0)
(1.88465 -0.00470185 0)
(1.88748 -1.37518e-07 0)
(1.89109 0.00397734 0)
(1.89687 0.00761458 0)
(1.90405 0.0115782 0)
(1.90972 0.0139191 0)
(1.91445 0.0129623 0)
(1.91651 0.00988274 0)
(1.91674 0.0035295 0)
(1.91455 -0.00707719 0)
(1.9098 -0.0181864 0)
(1.90607 -0.0254108 0)
(1.90507 -0.0277579 0)
(1.90566 -0.025925 0)
(1.90964 -0.0203113 0)
(1.91251 -0.0156982 0)
(1.91306 -0.0138564 0)
(1.9131 -0.0130372 0)
(1.91225 -0.0123151 0)
(1.90951 -0.0116821 0)
(1.9048 -0.0105104 0)
(1.90174 -0.00893458 0)
(1.90205 -0.00766358 0)
(1.90467 -0.00654626 0)
(1.90852 -0.00538045 0)
(1.91328 -0.00357487 0)
(1.92164 -0.000336072 0)
(1.93387 0.00448523 0)
(1.94461 0.00707135 0)
(1.95027 0.00679929 0)
(1.95404 0.00507626 0)
(1.95608 0.00118155 0)
(1.95413 -0.00509809 0)
(1.95052 -0.0115319 0)
(1.94882 -0.015631 0)
(1.9485 -0.0176821 0)
(1.94886 -0.0199559 0)
(1.94891 -0.0225176 0)
(1.94787 -0.0246361 0)
(1.94659 -0.025962 0)
(1.94629 -0.0264236 0)
(1.94775 -0.0252221 0)
(1.94987 -0.0223601 0)
(1.95118 -0.019785 0)
(1.95162 -0.0191066 0)
(1.95122 -0.0191984 0)
(1.94749 -0.0209822 0)
(1.94157 -0.0245966 0)
(1.93854 -0.0279599 0)
(1.93948 -0.0298354 0)
(1.94255 -0.0303056 0)
(1.94655 -0.0288041 0)
(1.95499 -0.0210984 0)
(1.96736 -0.00981412 0)
(1.97818 -0.00168617 0)
(1.98356 0.00123279 0)
(1.98722 0.00205209 0)
(1.99017 0.00203012 0)
(1.99086 -0.00031638 0)
(1.98812 -0.0057763 0)
(1.98455 -0.0120798 0)
(1.98253 -0.0170991 0)
(1.98119 -0.0217297 0)
(1.97985 -0.0275118 0)
(1.97966 -0.0338433 0)
(1.98017 -0.0398393 0)
(1.98095 -0.0447392 0)
(1.98104 -0.0473664 0)
(1.98086 -0.0484964 0)
(1.98093 -0.0481085 0)
(1.98183 -0.0449444 0)
(1.98316 -0.037843 0)
(1.98318 -0.0314579 0)
(1.98293 -0.0250184 0)
(1.98168 -0.0173373 0)
(1.98182 -0.0106482 0)
(1.98425 -0.0066813 0)
(1.98799 -0.0040288 0)
(1.99285 -0.00262434 0)
(1.99872 -0.00379043 0)
(2.00585 -0.00929881 0)
(2.01422 -0.0186159 0)
(2.02091 -0.027636 0)
(2.0252 -0.0335674 0)
(2.02796 -0.0371581 0)
(2.02953 -0.0384544 0)
(2.03049 -0.0375897 0)
(2.03116 -0.0358799 0)
(2.03146 -0.0341545 0)
(2.03087 -0.0330018 0)
(2.0301 -0.0327928 0)
(2.02983 -0.0334761 0)
(2.02965 -0.0346181 0)
(2.0294 -0.0356515 0)
(2.02892 -0.0363569 0)
(2.02842 -0.0363845 0)
(2.02852 -0.0342067 0)
(2.03055 -0.0310082 0)
(2.19559 0.500741 0)
(2.19863 0.506092 0)
(2.20026 0.50996 0)
(2.20158 0.513409 0)
(2.20186 0.515799 0)
(2.2015 0.516128 0)
(2.20103 0.512292 0)
(2.19993 0.503602 0)
(2.19763 0.49236 0)
(2.19461 0.4832 0)
(2.19327 0.480111 0)
(2.19343 0.480494 0)
(2.19311 0.482901 0)
(2.19086 0.488898 0)
(2.18883 0.496637 0)
(2.18931 0.502325 0)
(2.19128 0.506201 0)
(2.19695 0.511174 0)
(2.20878 0.517298 0)
(2.22352 0.523429 0)
(2.23114 0.525103 0)
(2.23333 0.525236 0)
(2.23604 0.526379 0)
(2.22162 0.506898 0)
(2.17809 0.433612 0)
(2.07829 0.283961 0)
(1.94432 0.0959389 0)
(1.9022 0.0185404 0)
(1.86148 -0.0161885 0)
(1.85705 -0.0410447 0)
(1.84928 -0.0390867 0)
(1.85324 -0.0330775 0)
(1.86453 -0.0283394 0)
(1.87583 -0.0226605 0)
(1.88226 -0.0166534 0)
(1.88468 -0.0135572 0)
(1.88536 -0.0134258 0)
(1.88573 -0.0142448 0)
(1.88246 -0.0179253 0)
(1.87563 -0.0251615 0)
(1.86863 -0.0317848 0)
(1.86568 -0.0347166 0)
(1.86633 -0.0347004 0)
(1.86858 -0.0325188 0)
(1.8737 -0.0274451 0)
(1.87807 -0.0212346 0)
(1.87967 -0.0157672 0)
(1.88077 -0.00959326 0)
(1.88213 -0.0033358 0)
(1.88453 0.00149435 0)
(1.88748 0.00570438 0)
(1.89103 0.0106898 0)
(1.8952 0.0153454 0)
(1.89905 0.0165956 0)
(1.90163 0.0150251 0)
(1.90281 0.0111346 0)
(1.90263 0.00259782 0)
(1.89968 -0.00946359 0)
(1.89565 -0.0198844 0)
(1.89417 -0.0250864 0)
(1.89438 -0.0260582 0)
(1.89744 -0.0227516 0)
(1.90331 -0.0170106 0)
(1.9067 -0.0132848 0)
(1.90762 -0.0123679 0)
(1.908 -0.0113888 0)
(1.90767 -0.0101343 0)
(1.90675 -0.00886221 0)
(1.90457 -0.00762432 0)
(1.9005 -0.00666763 0)
(1.89743 -0.00545701 0)
(1.89773 -0.00366218 0)
(1.90051 -0.00204899 0)
(1.90425 -0.00086293 0)
(1.90953 0.000815373 0)
(1.91934 0.00339631 0)
(1.93038 0.00466795 0)
(1.93688 0.00311385 0)
(1.94034 0.000215949 0)
(1.9424 -0.00322991 0)
(1.94218 -0.00686311 0)
(1.94013 -0.00988726 0)
(1.93923 -0.0113296 0)
(1.93964 -0.0118273 0)
(1.93995 -0.011893 0)
(1.9377 -0.01208 0)
(1.93443 -0.013398 0)
(1.93191 -0.0150673 0)
(1.93054 -0.0167449 0)
(1.93124 -0.018809 0)
(1.93457 -0.0207789 0)
(1.93775 -0.0222829 0)
(1.93878 -0.0234665 0)
(1.93945 -0.0255122 0)
(1.93821 -0.0278942 0)
(1.9334 -0.0305822 0)
(1.92791 -0.0323509 0)
(1.9267 -0.0312206 0)
(1.92866 -0.0288852 0)
(1.93219 -0.0245657 0)
(1.93998 -0.017812 0)
(1.95252 -0.00906348 0)
(1.96313 -0.000803016 0)
(1.96836 0.00171285 0)
(1.97204 0.00167663 0)
(1.97515 0.000652457 0)
(1.97623 -0.00204621 0)
(1.97377 -0.00636156 0)
(1.96964 -0.0106815 0)
(1.96729 -0.013601 0)
(1.96607 -0.0158224 0)
(1.96432 -0.0188291 0)
(1.96175 -0.0237348 0)
(1.96007 -0.029751 0)
(1.96 -0.0357797 0)
(1.9614 -0.0418515 0)
(1.96363 -0.0467521 0)
(1.96579 -0.0480276 0)
(1.96789 -0.0450507 0)
(1.97136 -0.0386057 0)
(1.97374 -0.0319258 0)
(1.97452 -0.0262649 0)
(1.97424 -0.0201678 0)
(1.97227 -0.0137423 0)
(1.97022 -0.00847194 0)
(1.97033 -0.00628266 0)
(1.97276 -0.00697547 0)
(1.97637 -0.00958525 0)
(1.98053 -0.0137845 0)
(1.98548 -0.0189779 0)
(1.99183 -0.0247762 0)
(1.99968 -0.0305285 0)
(2.00659 -0.03383 0)
(2.01139 -0.0349909 0)
(2.01448 -0.0351706 0)
(2.01613 -0.0350203 0)
(2.01704 -0.0347972 0)
(2.01723 -0.034389 0)
(2.01576 -0.0340171 0)
(2.01386 -0.0342443 0)
(2.0128 -0.0350535 0)
(2.01219 -0.0360304 0)
(2.01169 -0.0366997 0)
(2.01134 -0.0365014 0)
(2.01178 -0.0351389 0)
(2.01228 -0.0324665 0)
(2.01543 -0.027652 0)
(2.1987 0.506487 0)
(2.20097 0.508617 0)
(2.20319 0.510905 0)
(2.20435 0.513487 0)
(2.20354 0.515438 0)
(2.19948 0.514035 0)
(2.19371 0.5075 0)
(2.18989 0.498576 0)
(2.18954 0.491504 0)
(2.19127 0.488072 0)
(2.19407 0.485218 0)
(2.19506 0.484305 0)
(2.1964 0.485612 0)
(2.19635 0.49003 0)
(2.19569 0.498043 0)
(2.19647 0.506544 0)
(2.1994 0.515208 0)
(2.20559 0.52601 0)
(2.21459 0.532617 0)
(2.2234 0.533521 0)
(2.22645 0.527458 0)
(2.2262 0.519752 0)
(2.20664 0.484519 0)
(2.13368 0.368354 0)
(2.01606 0.175099 0)
(1.93736 0.0600408 0)
(1.8722 -0.026924 0)
(1.85094 -0.0313246 0)
(1.85154 -0.0299933 0)
(1.85305 -0.0318807 0)
(1.85233 -0.0296173 0)
(1.85538 -0.0234867 0)
(1.86394 -0.015331 0)
(1.87476 -0.0100144 0)
(1.87992 -0.0078943 0)
(1.88115 -0.00843959 0)
(1.88181 -0.0127149 0)
(1.87937 -0.0212327 0)
(1.8718 -0.0307396 0)
(1.86402 -0.0359757 0)
(1.86196 -0.0360208 0)
(1.86271 -0.0343353 0)
(1.86585 -0.0306957 0)
(1.8708 -0.0258623 0)
(1.8771 -0.0198526 0)
(1.88132 -0.0142743 0)
(1.88253 -0.00999892 0)
(1.8835 -0.00516785 0)
(1.88443 0.00103398 0)
(1.88513 0.00751015 0)
(1.88707 0.0122325 0)
(1.88936 0.0146238 0)
(1.89141 0.014965 0)
(1.89264 0.0136711 0)
(1.89264 0.00840817 0)
(1.89059 -0.00150786 0)
(1.88694 -0.0131095 0)
(1.88469 -0.0208128 0)
(1.88469 -0.0234729 0)
(1.88625 -0.0231098 0)
(1.89091 -0.0195534 0)
(1.89797 -0.0146896 0)
(1.9031 -0.0108384 0)
(1.90434 -0.00973722 0)
(1.90503 -0.00818396 0)
(1.90565 -0.0054946 0)
(1.90591 -0.00356979 0)
(1.90522 -0.0031417 0)
(1.90245 -0.00455049 0)
(1.89791 -0.00686542 0)
(1.89541 -0.00731129 0)
(1.89654 -0.00559876 0)
(1.89964 -0.0039124 0)
(1.90329 -0.00236811 0)
(1.90923 -1.76291e-05 0)
(1.91814 0.00171664 0)
(1.92507 0.000464384 0)
(1.92859 -0.00202436 0)
(1.93096 -0.00436916 0)
(1.93263 -0.00669915 0)
(1.93362 -0.00841297 0)
(1.9341 -0.00901244 0)
(1.93359 -0.00870559 0)
(1.93277 -0.0078488 0)
(1.93111 -0.00822637 0)
(1.92723 -0.00967375 0)
(1.92254 -0.0124074 0)
(1.92049 -0.0145117 0)
(1.9206 -0.0154108 0)
(1.92261 -0.0173031 0)
(1.92702 -0.0206682 0)
(1.93007 -0.0241958 0)
(1.93061 -0.0260509 0)
(1.93069 -0.0281113 0)
(1.92959 -0.0294794 0)
(1.92674 -0.028698 0)
(1.92443 -0.0259194 0)
(1.92518 -0.0228074 0)
(1.92745 -0.0191029 0)
(1.93216 -0.0142914 0)
(1.94035 -0.00790821 0)
(1.95097 -0.00291716 0)
(1.95828 -0.00264966 0)
(1.96168 -0.00360559 0)
(1.96453 -0.00456704 0)
(1.96585 -0.00614507 0)
(1.96466 -0.00818706 0)
(1.96157 -0.00976889 0)
(1.95864 -0.0109087 0)
(1.95651 -0.0124808 0)
(1.9542 -0.0151667 0)
(1.95078 -0.0196983 0)
(1.94682 -0.0255618 0)
(1.94467 -0.0307705 0)
(1.94492 -0.0341056 0)
(1.94649 -0.0364968 0)
(1.95017 -0.0380602 0)
(1.95671 -0.0367991 0)
(1.96397 -0.0324602 0)
(1.96807 -0.0276479 0)
(1.96959 -0.0248381 0)
(1.97079 -0.0222114 0)
(1.97029 -0.0193849 0)
(1.96765 -0.0175715 0)
(1.96449 -0.0176468 0)
(1.96293 -0.0192974 0)
(1.96313 -0.0216553 0)
(1.96554 -0.023539 0)
(1.96909 -0.0242713 0)
(1.97305 -0.0237729 0)
(1.97992 -0.0226841 0)
(1.98831 -0.0219688 0)
(1.99562 -0.0233768 0)
(2.0008 -0.0258578 0)
(2.00394 -0.0283169 0)
(2.00508 -0.0302097 0)
(2.00531 -0.032125 0)
(2.00467 -0.0348592 0)
(2.00325 -0.0377502 0)
(2.0021 -0.0392774 0)
(2.00155 -0.0391051 0)
(2.00128 -0.0380007 0)
(2.00135 -0.0360953 0)
(2.0015 -0.0339171 0)
(2.00199 -0.0315671 0)
(2.00343 -0.0285814 0)
(2.00617 -0.0249777 0)
(2.19906 0.509026 0)
(2.20152 0.509413 0)
(2.20421 0.510398 0)
(2.20629 0.511612 0)
(2.20419 0.510948 0)
(2.19404 0.506086 0)
(2.18475 0.499918 0)
(2.18389 0.496446 0)
(2.18555 0.494821 0)
(2.18768 0.49342 0)
(2.19144 0.491109 0)
(2.19591 0.489707 0)
(2.19907 0.491544 0)
(2.20115 0.495349 0)
(2.20346 0.50221 0)
(2.2057 0.513464 0)
(2.20846 0.528026 0)
(2.21306 0.537096 0)
(2.21579 0.54073 0)
(2.21797 0.537265 0)
(2.21016 0.517165 0)
(2.17242 0.4514 0)
(2.08938 0.311839 0)
(1.94525 0.102554 0)
(1.89479 0.00101537 0)
(1.86568 -0.0307885 0)
(1.85749 -0.0447631 0)
(1.84917 -0.040112 0)
(1.85075 -0.0333005 0)
(1.85495 -0.0278241 0)
(1.85913 -0.0227928 0)
(1.86278 -0.0146807 0)
(1.86696 -0.00579204 0)
(1.87132 -0.00370211 0)
(1.8742 -0.00659856 0)
(1.87634 -0.0144203 0)
(1.87432 -0.0245066 0)
(1.86726 -0.0343483 0)
(1.86123 -0.0376011 0)
(1.86031 -0.0363463 0)
(1.8615 -0.0329844 0)
(1.86446 -0.0290252 0)
(1.86941 -0.0249328 0)
(1.87643 -0.0189333 0)
(1.88292 -0.0120573 0)
(1.88566 -0.00698659 0)
(1.88617 -0.00278504 0)
(1.88636 0.00237567 0)
(1.88627 0.00716754 0)
(1.88602 0.0107465 0)
(1.88575 0.0126213 0)
(1.88567 0.0127631 0)
(1.88517 0.00995987 0)
(1.88378 0.00295507 0)
(1.88053 -0.00738159 0)
(1.87704 -0.0163034 0)
(1.87637 -0.0203951 0)
(1.87736 -0.0213041 0)
(1.88061 -0.0195765 0)
(1.88614 -0.0160639 0)
(1.89358 -0.0115616 0)
(1.90029 -0.00719198 0)
(1.90326 -0.00495966 0)
(1.90442 -0.00318767 0)
(1.90537 -0.000904448 0)
(1.90588 0.000832596 0)
(1.90548 0.00102288 0)
(1.90312 -0.00166146 0)
(1.8985 -0.00687637 0)
(1.89427 -0.0107245 0)
(1.89396 -0.0106419 0)
(1.89616 -0.00873877 0)
(1.89926 -0.00601325 0)
(1.90366 -0.00326996 0)
(1.91027 -0.00106757 0)
(1.91611 -0.000393004 0)
(1.9196 -0.000699592 0)
(1.922 -0.000990299 0)
(1.92424 -0.00156527 0)
(1.92645 -0.00277742 0)
(1.9281 -0.00447324 0)
(1.92856 -0.00614688 0)
(1.92826 -0.0074895 0)
(1.92734 -0.00861813 0)
(1.92431 -0.0107402 0)
(1.91933 -0.0145971 0)
(1.91543 -0.017076 0)
(1.91503 -0.017228 0)
(1.91575 -0.0171684 0)
(1.91837 -0.017255 0)
(1.92252 -0.0178885 0)
(1.92549 -0.0189651 0)
(1.92609 -0.0199846 0)
(1.92653 -0.0201439 0)
(1.92698 -0.0199789 0)
(1.92618 -0.0197654 0)
(1.92508 -0.018438 0)
(1.92631 -0.0163709 0)
(1.92874 -0.0129759 0)
(1.93316 -0.00892958 0)
(1.93984 -0.00569631 0)
(1.94696 -0.00525087 0)
(1.95288 -0.00667658 0)
(1.95625 -0.0078535 0)
(1.9578 -0.00822984 0)
(1.95859 -0.00864912 0)
(1.95784 -0.00912504 0)
(1.95549 -0.00985241 0)
(1.95228 -0.0112303 0)
(1.94862 -0.0141363 0)
(1.94423 -0.0191396 0)
(1.93933 -0.0252965 0)
(1.93595 -0.0296617 0)
(1.93539 -0.0308024 0)
(1.93583 -0.0306843 0)
(1.93776 -0.0296439 0)
(1.94348 -0.0267753 0)
(1.95252 -0.0228825 0)
(1.96045 -0.0201467 0)
(1.96468 -0.0199296 0)
(1.96675 -0.0202171 0)
(1.96824 -0.021194 0)
(1.96657 -0.0239 0)
(1.96139 -0.0285314 0)
(1.95666 -0.0324687 0)
(1.9557 -0.0331563 0)
(1.9578 -0.0310685 0)
(1.96043 -0.0280224 0)
(1.96487 -0.024006 0)
(1.9706 -0.0196192 0)
(1.97627 -0.0152456 0)
(1.98164 -0.0134274 0)
(1.98607 -0.0141538 0)
(1.98936 -0.0171945 0)
(1.99197 -0.0223556 0)
(1.99359 -0.0284446 0)
(1.9942 -0.0347393 0)
(1.99414 -0.0397671 0)
(1.99422 -0.0416735 0)
(1.99501 -0.0411625 0)
(1.9959 -0.0397111 0)
(1.99653 -0.0374079 0)
(1.99712 -0.0341812 0)
(1.99743 -0.0308581 0)
(1.99744 -0.0286366 0)
(1.99778 -0.0276476 0)
(1.99998 -0.0263497 0)
(2.19837 0.511578 0)
(2.20111 0.510462 0)
(2.20369 0.509802 0)
(2.20501 0.508 0)
(2.20004 0.5037 0)
(2.18877 0.500076 0)
(2.18203 0.500044 0)
(2.18121 0.499732 0)
(2.1824 0.499181 0)
(2.18376 0.498451 0)
(2.1873 0.497222 0)
(2.1942 0.49635 0)
(2.20219 0.498624 0)
(2.20834 0.506113 0)
(2.21337 0.517336 0)
(2.21713 0.527044 0)
(2.21802 0.536126 0)
(2.2162 0.539278 0)
(2.21335 0.533697 0)
(2.1968 0.506975 0)
(2.13638 0.414442 0)
(2.0061 0.224724 0)
(1.92053 0.0858018 0)
(1.86448 -0.0316056 0)
(1.84916 -0.0364383 0)
(1.85257 -0.0286557 0)
(1.85495 -0.0309244 0)
(1.85415 -0.0283025 0)
(1.85484 -0.0249846 0)
(1.85885 -0.0211541 0)
(1.86496 -0.0139493 0)
(1.86809 -0.00632201 0)
(1.8677 -0.00252522 0)
(1.86711 -0.0034814 0)
(1.86618 -0.0112786 0)
(1.86426 -0.0237794 0)
(1.86056 -0.0337668 0)
(1.85851 -0.0365737 0)
(1.85847 -0.0356123 0)
(1.86003 -0.0327767 0)
(1.86343 -0.0298981 0)
(1.86935 -0.0252379 0)
(1.87709 -0.0173931 0)
(1.8836 -0.00829957 0)
(1.88579 -0.00217499 0)
(1.88616 0.00163039 0)
(1.88651 0.00427599 0)
(1.88674 0.0055298 0)
(1.88691 0.00677707 0)
(1.88607 0.00759811 0)
(1.88375 0.00676504 0)
(1.88044 0.0022626 0)
(1.87665 -0.00557055 0)
(1.87294 -0.0137837 0)
(1.87119 -0.0184394 0)
(1.87154 -0.0195562 0)
(1.87306 -0.0188051 0)
(1.87629 -0.0164038 0)
(1.88155 -0.0133173 0)
(1.88953 -0.00861178 0)
(1.89797 -0.00296905 0)
(1.90253 0.000143905 0)
(1.90393 0.00147222 0)
(1.90466 0.00264508 0)
(1.90525 0.003806 0)
(1.90492 0.00350895 0)
(1.90251 0.000240121 0)
(1.89724 -0.00599559 0)
(1.89213 -0.0117527 0)
(1.89166 -0.0131341 0)
(1.89357 -0.0124962 0)
(1.89617 -0.0102628 0)
(1.89997 -0.007356 0)
(1.90532 -0.0040416 0)
(1.91071 -0.000808636 0)
(1.91451 0.00106177 0)
(1.91666 0.00199263 0)
(1.918 0.00235684 0)
(1.91928 0.00221728 0)
(1.92071 0.0011659 0)
(1.92184 -0.00100556 0)
(1.92232 -0.00389249 0)
(1.92184 -0.00714993 0)
(1.92021 -0.0116233 0)
(1.91686 -0.0166237 0)
(1.91379 -0.0185998 0)
(1.91368 -0.0174218 0)
(1.91443 -0.015344 0)
(1.91595 -0.0130522 0)
(1.91874 -0.0107675 0)
(1.92216 -0.00907953 0)
(1.92474 -0.00826882 0)
(1.92623 -0.00822287 0)
(1.9266 -0.00864487 0)
(1.92571 -0.00993795 0)
(1.92341 -0.0131099 0)
(1.92411 -0.0140987 0)
(1.92617 -0.0138104 0)
(1.92898 -0.0128329 0)
(1.93325 -0.0115793 0)
(1.93821 -0.0109956 0)
(1.94354 -0.0107425 0)
(1.9491 -0.0104858 0)
(1.95282 -0.0104003 0)
(1.95378 -0.0105572 0)
(1.95423 -0.0106724 0)
(1.9538 -0.0109248 0)
(1.95136 -0.0120183 0)
(1.9469 -0.015154 0)
(1.9412 -0.0202948 0)
(1.93553 -0.025489 0)
(1.93215 -0.0276172 0)
(1.9317 -0.0271 0)
(1.93249 -0.025669 0)
(1.93445 -0.0230117 0)
(1.93894 -0.0188824 0)
(1.94657 -0.0138661 0)
(1.95462 -0.0102966 0)
(1.95884 -0.0107951 0)
(1.9607 -0.0130563 0)
(1.96182 -0.0186553 0)
(1.96097 -0.0266134 0)
(1.95672 -0.0353199 0)
(1.95192 -0.0410111 0)
(1.95193 -0.0416741 0)
(1.95399 -0.0399754 0)
(1.95686 -0.0361469 0)
(1.96098 -0.0308482 0)
(1.96591 -0.0237124 0)
(1.97116 -0.0159533 0)
(1.97553 -0.0101451 0)
(1.97683 -0.00759808 0)
(1.97792 -0.00752388 0)
(1.97876 -0.0110314 0)
(1.97946 -0.0181356 0)
(1.9806 -0.026493 0)
(1.98274 -0.033637 0)
(1.98569 -0.0381675 0)
(1.98892 -0.039553 0)
(1.99105 -0.0389225 0)
(1.99325 -0.0373158 0)
(1.99509 -0.0350747 0)
(1.99605 -0.0323286 0)
(1.99599 -0.0302688 0)
(1.9949 -0.028852 0)
(1.99391 -0.0280217 0)
(1.99554 -0.0261529 0)
(2.19606 0.513888 0)
(2.19848 0.512048 0)
(2.20021 0.508512 0)
(2.19926 0.502714 0)
(2.19412 0.497792 0)
(2.18829 0.498846 0)
(2.18387 0.502862 0)
(2.18182 0.505999 0)
(2.18196 0.506977 0)
(2.18277 0.507188 0)
(2.1856 0.507307 0)
(2.19374 0.5083 0)
(2.20696 0.513401 0)
(2.21818 0.522396 0)
(2.22248 0.528366 0)
(2.22382 0.532018 0)
(2.22169 0.536919 0)
(2.20916 0.522115 0)
(2.17329 0.465242 0)
(2.09503 0.339388 0)
(1.95225 0.153694 0)
(1.85865 0.0197097 0)
(1.84669 -0.00727372 0)
(1.85255 -0.0335225 0)
(1.85029 -0.0337508 0)
(1.84899 -0.0291969 0)
(1.85155 -0.0248696 0)
(1.85631 -0.0228559 0)
(1.86133 -0.0193548 0)
(1.86599 -0.0125018 0)
(1.86936 -0.00850007 0)
(1.87107 -0.00778686 0)
(1.86952 -0.00886239 0)
(1.86224 -0.0156967 0)
(1.85481 -0.0270721 0)
(1.85279 -0.0332678 0)
(1.85335 -0.0341379 0)
(1.85533 -0.0328729 0)
(1.85836 -0.0299818 0)
(1.86225 -0.0264984 0)
(1.86821 -0.0206274 0)
(1.87676 -0.0119491 0)
(1.8845 -0.00402004 0)
(1.88765 -0.000223364 0)
(1.88845 0.00195104 0)
(1.88858 0.00510584 0)
(1.88722 0.00831445 0)
(1.8853 0.00931762 0)
(1.8835 0.00724931 0)
(1.88081 0.0019594 0)
(1.87655 -0.00653892 0)
(1.87172 -0.0153407 0)
(1.86876 -0.0205778 0)
(1.86844 -0.021671 0)
(1.86908 -0.0209446 0)
(1.87091 -0.0185181 0)
(1.87382 -0.015337 0)
(1.87839 -0.0108888 0)
(1.88537 -0.00431932 0)
(1.89405 0.00270958 0)
(1.89958 0.0057098 0)
(1.90106 0.00603634 0)
(1.90205 0.00616297 0)
(1.90311 0.00602526 0)
(1.90339 0.00474016 0)
(1.90113 0.00110524 0)
(1.89535 -0.00595064 0)
(1.88971 -0.0125471 0)
(1.88919 -0.0139973 0)
(1.89084 -0.0134404 0)
(1.89298 -0.0122824 0)
(1.89674 -0.0107748 0)
(1.90201 -0.00828053 0)
(1.90782 -0.0042455 0)
(1.91189 -0.000353454 0)
(1.91397 0.00223107 0)
(1.91503 0.00404022 0)
(1.91542 0.00532197 0)
(1.91549 0.00589554 0)
(1.91515 0.00510242 0)
(1.91478 0.0016283 0)
(1.91445 -0.00412981 0)
(1.91363 -0.0109575 0)
(1.91219 -0.0171506 0)
(1.91184 -0.0199022 0)
(1.91267 -0.019529 0)
(1.91393 -0.0173692 0)
(1.91595 -0.014271 0)
(1.9187 -0.00986977 0)
(1.92164 -0.00462889 0)
(1.92385 -0.000369335 0)
(1.92483 0.00155807 0)
(1.92482 0.00172032 0)
(1.92341 -0.000716936 0)
(1.92051 -0.00715883 0)
(1.91933 -0.0131559 0)
(1.92128 -0.0152598 0)
(1.9241 -0.0166292 0)
(1.92756 -0.0168429 0)
(1.93158 -0.0158937 0)
(1.93681 -0.0138652 0)
(1.9428 -0.0114878 0)
(1.948 -0.00931636 0)
(1.95015 -0.00867117 0)
(1.95034 -0.00874311 0)
(1.95003 -0.00930617 0)
(1.94858 -0.0113526 0)
(1.94496 -0.0157621 0)
(1.93928 -0.0218635 0)
(1.93424 -0.0262897 0)
(1.93212 -0.0266242 0)
(1.93195 -0.0248654 0)
(1.93271 -0.0223874 0)
(1.9345 -0.0198997 0)
(1.93802 -0.0164235 0)
(1.94395 -0.01081 0)
(1.95019 -0.00599021 0)
(1.95281 -0.00507275 0)
(1.95442 -0.00741339 0)
(1.95386 -0.0138264 0)
(1.95085 -0.023534 0)
(1.94708 -0.0344142 0)
(1.94625 -0.0412227 0)
(1.94765 -0.0429339 0)
(1.95057 -0.0424492 0)
(1.95441 -0.039559 0)
(1.95887 -0.0340883 0)
(1.96428 -0.026005 0)
(1.96953 -0.0174508 0)
(1.97222 -0.0123493 0)
(1.97342 -0.0104144 0)
(1.97347 -0.0106709 0)
(1.97169 -0.0138168 0)
(1.96992 -0.0188194 0)
(1.96996 -0.0233017 0)
(1.97154 -0.026142 0)
(1.97436 -0.0285686 0)
(1.97965 -0.0305356 0)
(1.98598 -0.0318401 0)
(1.99035 -0.0326632 0)
(1.99251 -0.0324999 0)
(1.99443 -0.0321355 0)
(1.99573 -0.0312493 0)
(1.99513 -0.0305527 0)
(1.99311 -0.0294525 0)
(1.99178 -0.0292544 0)
(1.99345 -0.0272465 0)
(2.19389 0.513803 0)
(2.19475 0.510093 0)
(2.19438 0.504787 0)
(2.19262 0.499621 0)
(2.19106 0.497471 0)
(2.19008 0.498074 0)
(2.18869 0.50149 0)
(2.18667 0.507078 0)
(2.18597 0.512441 0)
(2.18665 0.515766 0)
(2.18952 0.519533 0)
(2.1982 0.525579 0)
(2.21171 0.530137 0)
(2.21982 0.53149 0)
(2.22178 0.529672 0)
(2.22178 0.52865 0)
(2.20311 0.502058 0)
(2.14115 0.402912 0)
(2.0258 0.227896 0)
(1.92754 0.0828712 0)
(1.85985 0.00365444 0)
(1.83392 -0.0241021 0)
(1.83564 -0.0275666 0)
(1.84493 -0.0315156 0)
(1.84646 -0.0283521 0)
(1.84727 -0.0238929 0)
(1.85067 -0.0195346 0)
(1.85739 -0.0174048 0)
(1.86527 -0.0131268 0)
(1.86891 -0.0100235 0)
(1.87026 -0.0090879 0)
(1.86988 -0.00990569 0)
(1.86298 -0.0169479 0)
(1.85208 -0.0266017 0)
(1.84896 -0.0296169 0)
(1.8498 -0.0296873 0)
(1.85136 -0.0289341 0)
(1.85533 -0.0270144 0)
(1.86128 -0.0230395 0)
(1.86867 -0.0163571 0)
(1.87767 -0.0075313 0)
(1.88497 -0.000898063 0)
(1.8876 0.00136313 0)
(1.88865 0.00237888 0)
(1.88965 0.00310315 0)
(1.89 0.00379049 0)
(1.88844 0.00374109 0)
(1.88338 0.00100918 0)
(1.8769 -0.00662101 0)
(1.87117 -0.0164573 0)
(1.86777 -0.0232957 0)
(1.86721 -0.0253189 0)
(1.86768 -0.0249679 0)
(1.86859 -0.0233259 0)
(1.87033 -0.0205407 0)
(1.87314 -0.0162045 0)
(1.87748 -0.00950815 0)
(1.88385 -0.000561839 0)
(1.89129 0.00756619 0)
(1.896 0.0103041 0)
(1.89743 0.00993919 0)
(1.89842 0.00888841 0)
(1.89958 0.00728601 0)
(1.90012 0.00521162 0)
(1.89854 0.00128014 0)
(1.89336 -0.00588185 0)
(1.88761 -0.0123254 0)
(1.88697 -0.0138359 0)
(1.8886 -0.0134112 0)
(1.89068 -0.0120196 0)
(1.89327 -0.0100884 0)
(1.89746 -0.00783095 0)
(1.9039 -0.00426681 0)
(1.91005 -0.000294695 0)
(1.91296 0.00234224 0)
(1.91399 0.00421603 0)
(1.91392 0.00596258 0)
(1.91305 0.00733821 0)
(1.91123 0.00683332 0)
(1.9089 0.00405964 0)
(1.90646 -0.00170698 0)
(1.90469 -0.00936686 0)
(1.90476 -0.0154421 0)
(1.90646 -0.018461 0)
(1.90936 -0.0191853 0)
(1.91255 -0.0181997 0)
(1.91579 -0.0153422 0)
(1.91954 -0.00987775 0)
(1.92316 -0.00266164 0)
(1.92501 0.00326965 0)
(1.92487 0.00613305 0)
(1.92376 0.00710502 0)
(1.92107 0.00445011 0)
(1.91663 -0.00261882 0)
(1.91299 -0.0112973 0)
(1.91389 -0.0161858 0)
(1.9166 -0.01904 0)
(1.92111 -0.0206276 0)
(1.92645 -0.0194607 0)
(1.93227 -0.016424 0)
(1.9381 -0.0125154 0)
(1.94326 -0.00884222 0)
(1.94573 -0.00764062 0)
(1.94607 -0.00773629 0)
(1.94584 -0.00833832 0)
(1.94441 -0.0107514 0)
(1.94113 -0.0161368 0)
(1.93652 -0.0230954 0)
(1.93284 -0.0271657 0)
(1.93196 -0.0272803 0)
(1.93258 -0.0261026 0)
(1.93396 -0.0240226 0)
(1.93582 -0.0204579 0)
(1.93882 -0.0153709 0)
(1.94321 -0.00899952 0)
(1.94668 -0.00485252 0)
(1.94905 -0.00412196 0)
(1.9501 -0.0068115 0)
(1.94778 -0.013492 0)
(1.94277 -0.0237589 0)
(1.93879 -0.0324109 0)
(1.93852 -0.0358784 0)
(1.93989 -0.0372422 0)
(1.94362 -0.0378734 0)
(1.94939 -0.0363029 0)
(1.95626 -0.0320629 0)
(1.96348 -0.025333 0)
(1.96927 -0.019649 0)
(1.97176 -0.0170637 0)
(1.97324 -0.0161147 0)
(1.97253 -0.015714 0)
(1.96859 -0.0174931 0)
(1.96502 -0.0205736 0)
(1.96477 -0.0222852 0)
(1.96623 -0.0227142 0)
(1.9679 -0.0225069 0)
(1.97128 -0.0217934 0)
(1.97742 -0.0211789 0)
(1.98347 -0.0217923 0)
(1.98746 -0.0234778 0)
(1.99026 -0.0256425 0)
(1.99219 -0.0277288 0)
(1.99364 -0.0300354 0)
(1.99374 -0.0328799 0)
(1.99274 -0.0333414 0)
(1.99197 -0.0333395 0)
(1.99308 -0.0308974 0)
(2.19034 0.511758 0)
(2.18905 0.507067 0)
(2.18916 0.503226 0)
(2.18988 0.501141 0)
(2.19095 0.500588 0)
(2.19213 0.501336 0)
(2.19269 0.503684 0)
(2.19222 0.508774 0)
(2.1922 0.515922 0)
(2.1935 0.523163 0)
(2.19776 0.532499 0)
(2.20556 0.53869 0)
(2.21196 0.541193 0)
(2.21542 0.536311 0)
(2.21132 0.522332 0)
(2.17899 0.467566 0)
(2.10094 0.335003 0)
(1.98253 0.150284 0)
(1.87261 -0.00155253 0)
(1.84124 -0.0258172 0)
(1.84117 -0.0366366 0)
(1.83793 -0.0371715 0)
(1.83498 -0.033149 0)
(1.83823 -0.0284675 0)
(1.84356 -0.0223221 0)
(1.84958 -0.0182668 0)
(1.85552 -0.0143931 0)
(1.8627 -0.0109164 0)
(1.86744 -0.0112088 0)
(1.86847 -0.0117573 0)
(1.86805 -0.0129734 0)
(1.86318 -0.0184072 0)
(1.85332 -0.0263978 0)
(1.84833 -0.0282872 0)
(1.84873 -0.0276064 0)
(1.84981 -0.0262956 0)
(1.85271 -0.0235167 0)
(1.85862 -0.0183176 0)
(1.86723 -0.0114771 0)
(1.87714 -0.00444609 0)
(1.88469 -0.000114754 0)
(1.88741 0.00122989 0)
(1.88897 0.00201234 0)
(1.89033 0.00338555 0)
(1.89052 0.00485497 0)
(1.88867 0.00404434 0)
(1.88261 -0.00227482 0)
(1.87317 -0.0139385 0)
(1.86651 -0.0232392 0)
(1.86523 -0.0265322 0)
(1.8658 -0.0269573 0)
(1.86691 -0.0266348 0)
(1.8686 -0.0251967 0)
(1.87068 -0.0221152 0)
(1.87361 -0.0167582 0)
(1.87826 -0.00875951 0)
(1.88478 0.00136262 0)
(1.89079 0.00948361 0)
(1.89341 0.0122991 0)
(1.8944 0.0125671 0)
(1.89514 0.0117181 0)
(1.89564 0.00956099 0)
(1.89567 0.00629454 0)
(1.89438 0.00125979 0)
(1.89061 -0.00589637 0)
(1.8863 -0.0116833 0)
(1.88561 -0.0130664 0)
(1.88706 -0.0126503 0)
(1.88891 -0.0120141 0)
(1.89117 -0.01092 0)
(1.89487 -0.00878459 0)
(1.90083 -0.00431191 0)
(1.90802 0.00123454 0)
(1.91224 0.00434396 0)
(1.9137 0.00543766 0)
(1.91425 0.00589462 0)
(1.91388 0.00630727 0)
(1.91176 0.00563746 0)
(1.90747 0.0029312 0)
(1.90196 -0.00375999 0)
(1.89803 -0.0107346 0)
(1.89767 -0.0139672 0)
(1.89892 -0.0154016 0)
(1.90266 -0.0166813 0)
(1.90827 -0.016815 0)
(1.91428 -0.0140057 0)
(1.9205 -0.00746761 0)
(1.92562 0.000328174 0)
(1.92766 0.00503651 0)
(1.92801 0.00679191 0)
(1.92636 0.00708699 0)
(1.922 0.00422354 0)
(1.91471 -0.00355578 0)
(1.908 -0.0134872 0)
(1.9072 -0.0186748 0)
(1.9088 -0.0203709 0)
(1.913 -0.0216241 0)
(1.92034 -0.0208054 0)
(1.92836 -0.0181854 0)
(1.93548 -0.0134701 0)
(1.94052 -0.00837002 0)
(1.94283 -0.00513904 0)
(1.94305 -0.0040291 0)
(1.94218 -0.00400475 0)
(1.93971 -0.00688339 0)
(1.93552 -0.0138201 0)
(1.93077 -0.02192 0)
(1.92907 -0.026306 0)
(1.93045 -0.0274 0)
(1.93224 -0.0275694 0)
(1.93426 -0.0258326 0)
(1.93742 -0.0215312 0)
(1.94092 -0.0155934 0)
(1.94357 -0.0103536 0)
(1.94574 -0.00773368 0)
(1.94779 -0.00742641 0)
(1.94782 -0.0097816 0)
(1.94377 -0.016158 0)
(1.93754 -0.0247299 0)
(1.93434 -0.0290671 0)
(1.9348 -0.0298922 0)
(1.93604 -0.0296956 0)
(1.93848 -0.0290056 0)
(1.94367 -0.0278593 0)
(1.95166 -0.0253992 0)
(1.9604 -0.0225424 0)
(1.96666 -0.0211917 0)
(1.9697 -0.0211368 0)
(1.97135 -0.0217394 0)
(1.97219 -0.022934 0)
(1.97013 -0.0251149 0)
(1.96616 -0.0263893 0)
(1.96392 -0.0250586 0)
(1.96428 -0.0225908 0)
(1.96586 -0.020166 0)
(1.96803 -0.0177068 0)
(1.97197 -0.0147008 0)
(1.977 -0.0128359 0)
(1.98116 -0.0133753 0)
(1.9836 -0.0153595 0)
(1.98562 -0.0192591 0)
(1.98754 -0.0250786 0)
(1.98893 -0.0308393 0)
(1.98967 -0.0351283 0)
(1.99078 -0.0359706 0)
(1.99215 -0.0363277 0)
(1.99421 -0.0345781 0)
(2.18599 0.508111 0)
(2.18525 0.506438 0)
(2.18714 0.505677 0)
(2.18917 0.505382 0)
(2.19106 0.505477 0)
(2.1933 0.506895 0)
(2.196 0.509297 0)
(2.19798 0.513571 0)
(2.20089 0.521145 0)
(2.20239 0.532854 0)
(2.20528 0.542122 0)
(2.20781 0.543932 0)
(2.20817 0.541084 0)
(2.19925 0.522226 0)
(2.14278 0.436579 0)
(2.03472 0.266957 0)
(1.92587 0.0921474 0)
(1.85618 -0.0249296 0)
(1.84037 -0.0398303 0)
(1.83655 -0.0261664 0)
(1.8408 -0.0274118 0)
(1.84325 -0.0308428 0)
(1.83977 -0.0292049 0)
(1.83982 -0.0244877 0)
(1.84501 -0.018694 0)
(1.85356 -0.0107935 0)
(1.86108 -0.00533546 0)
(1.86479 -0.00579524 0)
(1.86596 -0.00808148 0)
(1.86483 -0.0125771 0)
(1.86002 -0.0201793 0)
(1.85277 -0.0287059 0)
(1.84911 -0.0311466 0)
(1.84981 -0.0297226 0)
(1.8512 -0.0263322 0)
(1.85332 -0.0214366 0)
(1.85758 -0.0149318 0)
(1.86473 -0.00799394 0)
(1.87374 -0.00238018 0)
(1.88176 0.00039722 0)
(1.88653 0.000618457 0)
(1.88888 -0.000315054 0)
(1.89093 -0.00114129 0)
(1.89245 -0.00188531 0)
(1.8914 -0.00368955 0)
(1.88422 -0.00969956 0)
(1.87209 -0.0197758 0)
(1.86463 -0.0254764 0)
(1.86392 -0.026092 0)
(1.86456 -0.025859 0)
(1.86542 -0.0251646 0)
(1.86721 -0.0239942 0)
(1.8702 -0.0214035 0)
(1.87429 -0.0163016 0)
(1.87964 -0.00824632 0)
(1.8861 0.00124223 0)
(1.89113 0.00805341 0)
(1.89288 0.0105505 0)
(1.89371 0.0115525 0)
(1.89372 0.0117714 0)
(1.89298 0.0102149 0)
(1.89187 0.00670934 0)
(1.89008 0.00139184 0)
(1.8871 -0.00510579 0)
(1.88434 -0.010087 0)
(1.88423 -0.0118017 0)
(1.88582 -0.0119795 0)
(1.88765 -0.0114478 0)
(1.8897 -0.0101112 0)
(1.89272 -0.00781911 0)
(1.89817 -0.00320539 0)
(1.90588 0.0028356 0)
(1.91126 0.00575109 0)
(1.9131 0.00585135 0)
(1.91382 0.00564974 0)
(1.91395 0.00529236 0)
(1.91265 0.00437557 0)
(1.90815 0.00129278 0)
(1.9006 -0.00537388 0)
(1.89508 -0.0104263 0)
(1.89437 -0.0118816 0)
(1.89511 -0.0123873 0)
(1.89716 -0.0129131 0)
(1.90148 -0.0128811 0)
(1.90915 -0.0103387 0)
(1.91912 -0.00382512 0)
(1.92653 0.00256553 0)
(1.92899 0.00482948 0)
(1.92996 0.00556873 0)
(1.92916 0.00548765 0)
(1.92497 0.00299102 0)
(1.91535 -0.00525438 0)
(1.90538 -0.0156183 0)
(1.90332 -0.0194577 0)
(1.90442 -0.0199899 0)
(1.90679 -0.0204726 0)
(1.91247 -0.0203275 0)
(1.9217 -0.0183425 0)
(1.93211 -0.0127591 0)
(1.93916 -0.00700536 0)
(1.94181 -0.00425979 0)
(1.94221 -0.00354202 0)
(1.9411 -0.00327152 0)
(1.93756 -0.00550667 0)
(1.93126 -0.0120402 0)
(1.92567 -0.0192119 0)
(1.92455 -0.0223374 0)
(1.92548 -0.0231755 0)
(1.92725 -0.0236274 0)
(1.93099 -0.0226738 0)
(1.93638 -0.0192383 0)
(1.9415 -0.0150918 0)
(1.94433 -0.013016 0)
(1.94671 -0.0117261 0)
(1.94736 -0.0112055 0)
(1.94567 -0.0131018 0)
(1.94059 -0.0190284 0)
(1.93497 -0.0248917 0)