/*--------------------------------*- C++ -*----------------------------------*\
  =========                 |
  \\      /  F ield         | OpenFOAM: The Open Source CFD Toolbox
   \\    /   O peration     | Website:  https://openfoam.org
    \\  /    A nd           | Version:  7
     \\/     M anipulation  |
\*---------------------------------------------------------------------------*/
FoamFile
{
    version     2.0;
    format      ascii;
    class       surfaceScalarField;
    location    "20";
    object      phi;
}
// * * * * * * * * * * * * * * * * * * * * * * * * * * * * * * * * * * * * * //

dimensions      [0 3 -1 0 0 0 0];

internalField   nonuniform List<scalar> 
815
(
-0.000149735
-2.3043e-06
-0.000162938
4.29387e-07
-0.000176831
3.24953e-06
-0.000191428
6.10246e-06
-0.00020674
8.8307e-06
-0.000222771
1.24628e-05
1.91395e-05
-0.000239536
-8.22096e-05
-1.82314e-05
-8.38532e-05
-1.39164e-05
-8.80419e-05
-1.02446e-05
-9.43024e-05
-6.86254e-06
-0.000102235
-3.57551e-06
-0.000111519
-2.88321e-07
-0.000121912
3.03817e-06
-0.000133243
6.4162e-06
-0.000145392
9.84424e-06
-0.000158282
1.33193e-05
-0.000171866
1.68336e-05
-0.000186117
2.03536e-05
-0.000201021
2.37351e-05
-0.000216578
2.80195e-05
3.53506e-05
-0.000232789
-7.81857e-05
-7.93825e-05
-1.27195e-05
-8.29034e-05
-6.72359e-06
-8.85416e-05
-1.22434e-06
-9.59465e-05
3.82933e-06
-0.000104771
8.53604e-06
-0.000114726
1.29929e-05
-0.000125589
1.72785e-05
-0.000137202
2.14571e-05
-0.00014946
2.55781e-05
-0.000162299
2.96724e-05
-0.00017568
3.37337e-05
-0.000189581
3.76362e-05
-0.000204002
4.24407e-05
5.0288e-05
-0.000218939
-4.85171e-05
9.68317e-07
-6.05291e-05
5.28825e-06
-7.16445e-05
9.89079e-06
-8.23272e-05
1.45119e-05
-9.28857e-05
1.90944e-05
-0.000103514
2.36206e-05
-0.000114324
2.80883e-05
-0.000125386
3.25194e-05
-0.000136737
3.69293e-05
-0.000148393
4.13286e-05
-0.00016036
4.57e-05
-0.000172637
4.99133e-05
-0.000185237
5.50409e-05
6.32093e-05
-0.000198159
-3.52137e-05
1.57151e-05
-4.85408e-05
1.86153e-05
-6.05086e-05
2.18584e-05
-7.14584e-05
2.54614e-05
-8.17329e-05
2.93687e-05
-9.16456e-05
3.35332e-05
-0.000101362
3.78051e-05
-0.000111048
4.2205e-05
-0.000120778
4.66589e-05
-0.000130585
5.11363e-05
-0.000140479
5.55936e-05
-0.000150453
5.98871e-05
-0.000160513
6.5101e-05
7.3346e-05
-0.00017065
-4.64775e-05
-5.25415e-05
2.46793e-05
-5.90263e-05
2.83432e-05
-6.57937e-05
3.22288e-05
-7.27614e-05
3.63363e-05
-7.9869e-05
4.06408e-05
-8.71213e-05
4.50575e-05
-9.4441e-05
4.95248e-05
-0.000101772
5.39902e-05
-0.000109055
5.84188e-05
-0.000116229
6.27681e-05
-0.00012324
6.68979e-05
-0.000130054
7.1915e-05
7.99258e-05
-0.000136633
-5.8497e-05
2.17337e-05
-5.80824e-05
2.79285e-05
-5.95852e-05
3.37316e-05
-6.24629e-05
3.92141e-05
-6.62354e-05
4.44133e-05
-7.05249e-05
4.93471e-05
-7.50285e-05
5.40283e-05
-7.9511e-05
5.84728e-05
-8.37911e-05
6.26988e-05
-8.77279e-05
6.67047e-05
-9.12091e-05
7.03789e-05
-9.41502e-05
7.48562e-05
8.21843e-05
-9.64089e-05
-4.11087e-05
-4.18425e-05
2.86623e-05
-4.33291e-05
3.52182e-05
-4.53453e-05
4.12304e-05
-4.76318e-05
4.66999e-05
-4.99329e-05
5.16482e-05
-5.20157e-05
5.61113e-05
-5.36777e-05
6.0135e-05
-5.47488e-05
6.377e-05
-5.50948e-05
6.70507e-05
-5.46213e-05
6.99054e-05
-5.32857e-05
7.35208e-05
7.97363e-05
-5.08375e-05
-1.64673e-05
-2.04939e-05
3.92449e-05
-2.33506e-05
4.40871e-05
-2.51728e-05
4.85222e-05
-2.60059e-05
5.24813e-05
-2.58273e-05
5.59327e-05
-2.457e-05
5.88778e-05
-2.21474e-05
6.13474e-05
-1.84783e-05
6.33814e-05
-1.35235e-05
6.49504e-05
-7.43905e-06
6.74361e-05
7.2885e-05
-5.87755e-07
-6.95404e-07
4.25996e-05
-2.32099e-06
4.57128e-05
-2.3335e-06
4.85348e-05
-7.87855e-07
5.09358e-05
2.3348e-06
5.281e-05
7.10914e-06
5.41034e-05
1.36534e-05
5.4803e-05
2.20903e-05
5.49444e-05
3.25376e-05
5.45032e-05
4.50999e-05
5.48738e-05
5.80266e-05
5.99584e-05
1.39403e-05
1.61603e-05
4.34929e-05
1.97299e-05
4.49653e-05
2.48531e-05
4.58129e-05
3.17748e-05
4.58884e-05
4.07413e-05
4.51367e-05
5.19865e-05
4.35577e-05
6.57368e-05
4.11939e-05
8.21886e-05
3.80512e-05
0.000101462
3.56007e-05
3.58068e-05
0.000123681
3.48138e-05
4.23359e-05
3.74431e-05
5.14427e-05
3.6706e-05
6.25898e-05
3.47412e-05
7.61864e-05
3.154e-05
9.26039e-05
2.71401e-05
0.000112176
2.16218e-05
0.000135182
1.50446e-05
0.000161773
9.01042e-06
5.49606e-06
0.000192083
6.77087e-05
8.01594e-05
2.42553e-05
9.53549e-05
1.95456e-05
0.000113676
1.32188e-05
0.000135525
5.29162e-06
0.000161301
-4.15434e-06
0.000191362
-1.50166e-05
0.000225902
-2.55294e-05
-3.36126e-05
0.00026501
0.000110362
0.000129889
1.88665e-08
0.000153204
-1.00965e-05
0.000180769
-2.22737e-05
0.00021309
-3.64757e-05
0.000250666
-5.25928e-05
0.000293819
-6.86819e-05
-8.25007e-05
0.000342708
0.000166425
0.000195084
-3.87563e-05
0.000228601
-5.57908e-05
0.000267682
-7.55561e-05
0.00031307
-9.79811e-05
0.00036535
0.000240106
0.000279628
-9.53126e-05
0.000325465
-0.000269425
6.91453e-05
-0.000290401
7.43105e-05
-0.000302551
7.82675e-05
-0.000304383
8.16964e-05
-0.00029629
8.65737e-05
-0.000278819
9.36613e-05
-0.000252808
0.000103164
-0.000218882
0.000114598
-0.000178369
0.000128296
-0.000131734
0.000142561
-7.98189e-05
0.00015699
-2.33796e-05
0.000170238
3.71057e-05
0.000180984
0.000100952
0.000187086
0.000167737
0.00018737
0.000237032
0.000180122
0.000163477
-0.000262424
9.87795e-05
-0.000282971
9.48583e-05
-0.000294705
9.00008e-05
-0.000296069
8.30603e-05
-0.000287559
7.8064e-05
-0.000269619
7.57208e-05
-0.000243223
7.67682e-05
-0.00020892
8.02957e-05
-0.000168114
8.74889e-05
-0.000121178
9.5626e-05
-6.9003e-05
0.000104814
-1.23707e-05
0.000113606
4.84239e-05
0.000120189
0.000112535
0.000122976
0.000179562
0.000120343
0.000249067
0.000110617
9.19002e-05
-0.000247724
0.000127564
-0.000267109
0.000114243
-0.000277963
0.000100855
-0.000278387
8.34844e-05
-0.000269038
6.87142e-05
-0.000250424
5.71067e-05
-0.000223617
4.99609e-05
-0.000188909
4.55877e-05
-0.00014794
4.65196e-05
-0.000100892
4.85782e-05
-4.86951e-05
5.26178e-05
7.91924e-06
5.69921e-05
6.86916e-05
5.94167e-05
0.000132747
5.89196e-05
0.000199634
5.34566e-05
0.000269014
4.1237e-05
2.0512e-05
-0.000225477
0.000154883
-0.000243056
0.000131822
-0.000252425
0.000110224
-0.000251485
8.25445e-05
-0.000241008
5.82363e-05
-0.000221479
3.75778e-05
-0.000194199
2.26807e-05
-0.000159105
1.04942e-05
-0.000118117
5.53143e-06
-7.11864e-05
1.64774e-06
-1.95796e-05
1.01115e-06
3.72377e-05
1.74854e-07
9.76161e-05
-9.61634e-07
0.000161272
-4.73672e-06
0.000227734
-1.30047e-05
0.000296568
-2.75976e-05
-5.03524e-05
-0.000195873
0.000180106
-0.000211029
0.000146977
-0.000218399
0.000117593
-0.000215681
7.98266e-05
-0.000203739
4.6295e-05
-0.00018311
1.69481e-05
-0.000155328
-5.10146e-06
-0.000119965
-2.48692e-05
-7.91244e-05
-3.53087e-05
-3.28002e-05
-4.46763e-05
1.90967e-05
-5.08857e-05
7.5118e-05
-5.58463e-05
0.000134795
-6.0639e-05
0.000197718
-6.76589e-05
0.000263385
-7.86724e-05
0.000331389
-9.56015e-05
-0.000120319
-0.000159158
0.000202631
-0.000171402
0.000159221
-0.000176255
0.000122446
-0.000171376
7.49477e-05
-0.000157617
3.25357e-05
-0.000135901
-4.76811e-06
-0.000107684
-3.33181e-05
-7.19948e-05
-6.05587e-05
-3.23806e-05
-7.49228e-05
1.46242e-05
-9.16811e-05
6.59588e-05
-0.00010222
0.000121038
-0.000110925
0.000179736
-0.000119338
0.000241564
-0.000129487
0.000306107
-0.000143215
0.000372947
-0.000162441
-0.000189063
-0.000115803
0.000222025
-0.000124874
0.000168292
-0.000126577
0.000124148
-0.000119242
6.76123e-05
-0.000103543
1.68372e-05
-8.05852e-05
-2.77264e-05
-5.26623e-05
-6.12411e-05
-2.07478e-05
-9.24733e-05
2.43576e-05
-0.000120028
7.0353e-05
-0.000137676
0.000120446
-0.000152313
0.000174368
-0.000164847
0.000231775
-0.000176744
0.000292229
-0.00018994
0.000355324
-0.00020631
0.000420666
-0.000227783
-0.000256265
-6.83162e-05
0.000239504
-7.41955e-05
0.000174172
-7.15995e-05
0.000121552
-6.20026e-05
5.80153e-05
-4.6097e-05
9.31656e-07
-2.39185e-05
-4.99049e-05
1.15882e-05
-9.67479e-05
4.85472e-05
-0.000129432
8.84366e-05
-0.000159917
0.000133131
-0.000182371
0.000181929
-0.000201111
0.000234409
-0.000217327
0.000290227
-0.000232562
0.000349001
-0.000248714
0.000410346
-0.000267656
0.000473884
-0.000291322
-0.000321622
-1.94725e-05
0.000258388
-2.25344e-05
0.000177233
-1.22808e-05
0.000111299
5.07605e-06
4.06583e-05
2.77931e-05
-2.17854e-05
5.4627e-05
-7.6739e-05
8.4547e-05
-0.000126668
0.000119847
-0.000164732
0.000158932
-0.000199003
0.000202356
-0.000225794
0.000249615
-0.000248369
0.000300366
-0.000268079
0.00035431
-0.000286506
0.000411109
-0.000305512
0.000470411
-0.000326958
0.000531861
-0.000352772
-0.000384854
5.38091e-05
0.000264538
5.59218e-05
0.000175121
6.69543e-05
0.000100266
8.36392e-05
2.39734e-05
0.000105687
-4.38337e-05
0.00013276
-0.000103811
0.000162641
-0.000156549
0.000197217
-0.000199308
0.000235259
-0.000237045
0.000277167
-0.000267703
0.000322621
-0.000293823
0.000371366
-0.000316824
0.00042316
-0.000338299
0.000477708
-0.00036006
0.000534699
-0.000383949
0.000593797
-0.00041187
-0.000445712
0.000122379
0.00026584
0.000130577
0.000166922
0.000145261
8.55822e-05
0.000164971
4.26297e-06
0.000188993
-6.78549e-05
0.000216169
-0.000130988
0.000246142
-0.000186522
0.000279793
-0.000232958
0.000316507
-0.000273759
0.000356628
-0.000307823
0.000400003
-0.000337198
0.000446473
-0.000363294
0.000495853
-0.000387679
0.000547899
-0.000412106
0.000602333
-0.000438383
0.000658847
-0.000468384
0.000717108
-0.000503973
-0.000546909
0.0001959
0.000262023
0.000209907
0.000152915
0.000228953
6.6536e-05
0.000251519
-1.83026e-05
0.000277318
-9.3654e-05
0.000304612
-0.000158282
0.000334179
-0.000216089
0.000366625
-0.000265404
0.000401689
-0.000308823
0.000439736
-0.000345871
0.000480763
-0.000378225
0.000524701
-0.000407232
0.000571424
-0.000434402
0.000620738
-0.00046142
0.0006724
-0.000490045
0.000726127
-0.00052211
0.000781604
-0.00055945
-0.000603797
0.000275121
0.000251913
0.000294456
0.00013358
0.000317824
4.31682e-05
0.000343175
-4.36531e-05
0.000369804
-0.000120283
0.000397093
-0.000185571
0.00042582
-0.000244816
0.000456699
-0.000296282
0.000489766
-0.000341889
0.000525446
-0.000381551
0.000563859
-0.000416638
0.000605023
-0.000448396
0.000648871
-0.000478249
0.000695252
-0.000507802
0.000743958
-0.000538751
0.00079473
-0.000572881
0.000847269
-0.00061199
-0.00065778
0.000359645
0.000384203
0.000411484
0.000439223
0.000465753
0.000492619
-0.000212436
0.000520029
-0.000272226
0.000548936
-0.00032519
0.00057965
-0.000372602
0.000612668
-0.000414569
0.000648216
-0.000452186
0.000686387
-0.000486567
0.000727167
-0.000519029
0.000770448
-0.000551083
0.000816049
-0.000584352
0.000863735
-0.000620566
0.000913224
-0.000661479
-0.000708762
0.000590156
0.000615707
0.000642213
0.000670216
0.000700287
0.000732737
0.000767724
0.000805278
0.000845325
0.000887713
0.000932222
0.000978589
)
;

boundaryField
{
    inlet
    {
        type            calculated;
        value           nonuniform 0();
    }
    outlet
    {
        type            calculated;
        value           nonuniform 0();
    }
    cylinder
    {
        type            calculated;
        value           nonuniform 0();
    }
    top
    {
        type            symmetryPlane;
        value           nonuniform 0();
    }
    bottom
    {
        type            symmetryPlane;
        value           nonuniform 0();
    }
    defaultFaces
    {
        type            empty;
        value           nonuniform 0();
    }
    procBoundary22to16
    {
        type            processor;
        value           nonuniform List<scalar> 
33
(
1.68252e-05
1.55601e-05
1.44331e-05
1.3123e-05
1.15077e-05
9.57235e-06
7.35536e-06
0.000137198
4.91421e-06
1.48413e-05
1.2773e-05
1.06431e-05
8.49489e-06
6.48008e-06
3.5682e-06
-2.37513e-06
-3.92554e-05
-5.33355e-05
-6.61181e-05
-7.98646e-05
-9.46668e-05
-0.000111132
-0.000129173
-0.000148525
-0.000168809
-0.000189194
-0.000208905
-0.000226678
-0.000241468
-0.000250932
-0.000254156
-0.000249417
-0.000234891
)
;
    }
    procBoundary22to21
    {
        type            processor;
        value           nonuniform List<scalar> 
16
(
8.36164e-05
7.88254e-05
-1.88715e-05
3.48279e-05
2.04672e-05
4.11736e-05
2.10194e-05
6.14435e-05
4.12459e-05
2.1596e-05
1.10253e-05
3.41044e-05
-2.65917e-06
-1.2734e-05
4.13927e-05
-2.83112e-05
)
;
    }
    procBoundary22to23
    {
        type            processor;
        value           nonuniform List<scalar> 
16
(
0.000308445
0.000320644
0.000340403
0.000367433
0.000401355
0.000441691
0.000487868
0.000539241
0.000595093
0.000654655
0.000487253
0.000776765
0.000838492
0.000901253
0.000964206
0.00102651
)
;
    }
    procBoundary22to27
    {
        type            processor;
        value           nonuniform List<scalar> 
11
(
3.6991e-05
-5.76578e-05
2.73918e-05
-9.42412e-05
8.13462e-06
-0.000141995
-2.441e-05
-0.000205961
-7.29016e-05
-0.000289366
-0.000140789
)
;
    }
    procBoundary22to28
    {
        type            processor;
        value           nonuniform List<scalar> 
26
(
-0.000120963
-0.000142073
0.000424922
-0.000121393
0.000378687
-0.000151203
0.000334842
0.000234975
0.000109023
1.58877e-05
-7.13926e-05
-0.000146814
-0.000564595
-0.000237998
-0.000297776
-0.000351695
-0.000400607
-0.000444641
-0.000484636
-0.000521553
-0.000556584
-0.000591129
-0.000626739
-0.000665076
-0.000707845
-0.000756686
)
;
    }
}


// ************************************************************************* //
