/*--------------------------------*- C++ -*----------------------------------*\
  =========                 |
  \\      /  F ield         | OpenFOAM: The Open Source CFD Toolbox
   \\    /   O peration     | Website:  https://openfoam.org
    \\  /    A nd           | Version:  7
     \\/     M anipulation  |
\*---------------------------------------------------------------------------*/
FoamFile
{
    version     2.0;
    format      ascii;
    class       volVectorField;
    location    "0.5";
    object      U;
}
// * * * * * * * * * * * * * * * * * * * * * * * * * * * * * * * * * * * * * //

dimensions      [0 1 -1 0 0 0 0];

internalField   nonuniform List<vector> 
344
(
(0.638537 -0.982473 -1.00167e-15)
(0.871773 -1.03579 -1.73313e-15)
(0.941214 -1.03961 1.15795e-16)
(1.19573 -0.952364 -9.53679e-16)
(1.19774 -0.845999 3.96801e-15)
(1.42309 -0.595159 3.14788e-15)
(1.56304 -0.229374 3.75954e-15)
(1.67359 0.289205 2.06108e-15)
(1.70412 0.775619 1.8813e-15)
(1.51093 1.01501 -8.77176e-17)
(1.21072 1.02198 -1.55769e-15)
(1.01746 0.875956 -1.0205e-15)
(1.04006 0.965059 -7.84315e-16)
(1.15917 1.40319 -2.7347e-15)
(1.20236 1.78099 -3.55436e-15)
(1.13722 1.83644 -3.29873e-15)
(1.0073 1.59079 -2.5761e-15)
(0.95049 1.1827 -2.21766e-15)
(0.931054 0.812807 -1.55155e-15)
(0.899693 0.605321 -7.59617e-16)
(0.877097 0.5286 -5.03137e-16)
(0.875862 0.504265 -4.20881e-16)
(0.888183 0.479985 -3.94832e-16)
(0.902481 0.440189 -2.46093e-16)
(0.915024 0.388969 -6.84725e-17)
(0.927144 0.334365 8.38516e-17)
(0.939491 0.282551 1.62743e-16)
(0.951344 0.236854 1.89738e-16)
(0.961973 0.198211 2.36332e-16)
(0.971174 0.166137 2.00257e-16)
(0.97908 0.139614 1.93517e-16)
(0.985908 0.11761 1.69959e-16)
(0.991839 0.099265 1.44302e-16)
(0.997009 0.0839027 1.21839e-16)
(1.00152 0.0709966 4.13563e-17)
(1.00544 0.0601293 1.01927e-16)
(1.00885 0.0509641 -5.11514e-18)
(1.0118 0.0432253 8.95493e-17)
(1.01436 0.0366844 -5.45415e-17)
(1.01658 0.0311513 3.99956e-17)
(1.01849 0.026467 -7.10587e-17)
(1.02014 0.0224984 2.63182e-17)
(1.02156 0.0191339 -8.96574e-17)
(1.02278 0.0162795 -2.93983e-17)
(1.02384 0.0138564 -1.02404e-16)
(1.02474 0.0117983 -2.11827e-17)
(1.02552 0.0100492 -1.15985e-16)
(1.02619 0.00856195 -7.55906e-17)
(1.02676 0.00729682 -1.12632e-16)
(1.02725 0.00622015 -6.69287e-17)
(1.02768 0.00530352 -1.06307e-16)
(1.02804 0.00452286 -1.02977e-16)
(1.02835 0.00385781 -1.01212e-16)
(1.02861 0.00329106 -8.8497e-17)
(1.02884 0.00280798 -9.67322e-17)
(1.02903 0.00239611 -1.26939e-16)
(1.0292 0.00204488 -8.3213e-17)
(1.02934 0.00174531 -1.52107e-16)
(-0.140175 -0.429734 4.4028e-16)
(-0.103813 -0.421407 1.89959e-16)
(-0.115946 -0.414974 1.06058e-15)
(-0.0578183 -0.477726 6.28854e-16)
(0.0717793 -0.580138 -5.57339e-18)
(0.130486 -0.709296 6.50371e-16)
(0.214125 -0.83042 8.34899e-16)
(0.325537 -0.933089 -2.98705e-16)
(0.481509 -1.0375 -1.08295e-15)
(0.671038 -1.08117 -1.12929e-15)
(0.737461 -1.07539 4.35408e-16)
(0.941081 -0.973721 8.3626e-16)
(0.922614 -0.871546 1.05684e-15)
(1.09269 -0.644759 7.52891e-17)
(1.26551 -0.249813 4.56558e-15)
(1.3853 0.280468 2.72714e-15)
(1.44392 0.789529 2.77541e-15)
(1.29585 1.06153 5.35671e-16)
(1.03688 1.06108 -7.98461e-16)
(0.866429 0.880488 -9.76404e-16)
(0.867878 0.945366 -8.3333e-16)
(0.958551 1.36833 -2.36523e-15)
(1.00808 1.74461 -3.39932e-15)
(0.961096 1.81658 -3.11627e-15)
(0.872308 1.58025 -2.50768e-15)
(0.865936 1.16738 -1.94341e-15)
(0.866652 0.805564 -1.31331e-15)
(0.843266 0.603793 -6.44658e-16)
(0.825379 0.522873 -4.95988e-16)
(0.825037 0.492514 -4.31023e-16)
(0.837544 0.465736 -3.56955e-16)
(0.855978 0.426171 -2.04599e-16)
(0.876937 0.375872 1.92667e-18)
(0.898393 0.322332 7.55497e-17)
(0.918299 0.27185 1.78551e-16)
(0.935383 0.227662 1.45914e-16)
(0.949491 0.190467 1.69271e-16)
(0.961097 0.159629 1.72603e-16)
(0.970784 0.134114 1.21082e-16)
(0.979005 0.112929 1.18961e-16)
(0.986065 0.0952616 -6.39786e-18)
(0.992163 0.0804702 7.94429e-17)
(0.997439 0.0680511 -7.22209e-17)
(1.002 0.0576018 3.56507e-17)
(1.00595 0.0487962 -1.55665e-16)
(1.00936 0.0413665 1.60126e-17)
(1.0123 0.0350912 -1.8873e-16)
(1.01483 0.0297862 -2.25319e-18)
(1.01701 0.0252978 -1.94518e-16)
(1.01888 0.0214971 -6.07702e-17)
(1.0205 0.0182766 -1.83376e-16)
(1.02188 0.0155456 -7.81767e-17)
(1.02307 0.0132283 -1.83542e-16)
(1.02409 0.0112608 -1.15046e-16)
(1.02497 0.00958936 -1.82268e-16)
(1.02572 0.00816861 -1.28013e-16)
(1.02636 0.00696038 -1.65675e-16)
(1.02691 0.00593243 -1.56263e-16)
(1.02739 0.00505748 -1.39481e-16)
(1.02779 0.0043125 -1.56874e-16)
(1.02814 0.00367796 -1.28824e-16)
(1.02843 0.00313731 -1.86819e-16)
(1.02869 0.00267655 -1.11512e-16)
(1.0289 0.00228377 -1.83602e-16)
(1.02909 0.00194887 -8.8801e-17)
(1.02925 0.00166325 -1.74637e-16)
(-0.0467441 -0.383862 6.32645e-16)
(-0.110887 -0.400698 1.11968e-16)
(-0.115593 -0.412965 2.7885e-16)
(-0.0732199 -0.484254 5.15997e-16)
(-0.00299101 -0.577774 3.87541e-16)
(0.0528483 -0.694901 -9.61056e-16)
(0.109484 -0.807582 2.47744e-16)
(0.201962 -0.932582 -6.49319e-16)
(0.340725 -1.05745 -2.51984e-16)
(0.481098 -1.09899 -1.75789e-15)
(0.543934 -1.08679 -5.36031e-16)
(0.687236 -0.968456 4.08319e-16)
(0.682605 -0.879585 5.65965e-16)
(0.800504 -0.694709 2.8758e-15)
(0.971962 -0.293616 3.06691e-15)
(1.08697 0.256942 3.28795e-15)
(1.1622 0.791964 1.97735e-15)
(1.05682 1.09446 2.82193e-16)
(0.846568 1.09001 -1.75856e-16)
(0.711565 0.888404 -5.6779e-16)
(0.707419 0.931555 -6.83062e-16)
(0.773334 1.3317 -2.54761e-15)
(0.814503 1.70549 -3.29373e-15)
(0.780168 1.79086 -2.85919e-15)
(0.738785 1.5515 -2.37459e-15)
(0.780171 1.13971 -1.8172e-15)
(0.798639 0.794693 -1.13331e-15)
(0.785612 0.601103 -6.12367e-16)
(0.772919 0.517291 -5.35044e-16)
(0.773601 0.481349 -4.44348e-16)
(0.788565 0.450865 -2.68715e-16)
(0.813952 0.409911 -1.14063e-16)
(0.84423 0.359913 3.38884e-17)
(0.87401 0.307855 9.58138e-17)
(0.899905 0.259463 1.3919e-16)
(0.920995 0.217396 1.88074e-16)
(0.937868 0.18202 1.27253e-16)
(0.951531 0.152625 1.68494e-16)
(0.962838 0.128237 4.91341e-17)
(0.972376 0.10795 1.18523e-16)
(0.980518 0.0910179 -3.63405e-17)
(0.98751 0.0768423 5.72296e-17)
(0.993529 0.0649457 -9.53263e-17)
(0.998712 0.0549428 1.89701e-17)
(1.00318 0.0465195 -1.34455e-16)
(1.00702 0.0394174 -1.81624e-17)
(1.01032 0.0334229 -1.56922e-16)
(1.01316 0.0283586 -4.64843e-17)
(1.01559 0.0240762 -1.34258e-16)
(1.01768 0.020452 -6.54849e-17)
(1.01948 0.0173826 -1.24585e-16)
(1.02102 0.014781 -1.01827e-16)
(1.02234 0.0125744 -1.08218e-16)
(1.02347 0.0107016 -1.11639e-16)
(1.02444 0.00911122 -1.10931e-16)
(1.02527 0.00775982 -1.34379e-16)
(1.02598 0.00661091 -9.63832e-17)
(1.02659 0.00563369 -1.38042e-16)
(1.02711 0.00480213 -7.80445e-17)
(1.02755 0.00409425 -1.52717e-16)
(1.02794 0.00349142 -7.4166e-17)
(1.02826 0.0029779 -1.56901e-16)
(1.02854 0.00254032 -6.46435e-17)
(1.02878 0.00216735 -1.55799e-16)
(1.02898 0.00184938 -4.90791e-17)
(1.02916 0.00157824 -1.56794e-16)
(-0.116896 -0.348552 5.01202e-16)
(-0.0941768 -0.388691 2.44784e-16)
(-0.133363 -0.414198 7.49583e-16)
(-0.120743 -0.505139 2.28772e-16)
(-0.0877656 -0.596292 -2.59612e-16)
(-0.0649769 -0.721476 4.35886e-16)
(-0.0204493 -0.846705 3.89034e-16)
(0.0629983 -0.974352 -2.64268e-16)
(0.162832 -1.08527 -1.24007e-15)
(0.248964 -1.11484 -1.5168e-15)
(0.298063 -1.09724 6.61625e-16)
(0.427227 -0.969101 -1.79036e-16)
(0.43893 -0.876712 9.35756e-16)
(0.492035 -0.721425 3.10105e-16)
(0.64253 -0.322515 3.03566e-15)
(0.765712 0.235819 2.69593e-15)
(0.85439 0.78561 3.01131e-15)
(0.798235 1.11181 4.11605e-16)
(0.65213 1.10073 -4.15844e-16)
(0.576342 0.884504 -3.88198e-16)
(0.561971 0.917707 -7.75527e-16)
(0.586236 1.30436 -2.11296e-15)
(0.617891 1.67269 -3.08974e-15)
(0.597387 1.75421 -2.73571e-15)
(0.611195 1.50516 -2.29084e-15)
(0.694503 1.10411 -1.55824e-15)
(0.728622 0.780451 -1.02896e-15)
(0.726783 0.595842 -6.60654e-16)
(0.719176 0.510483 -5.64521e-16)
(0.72314 0.46926 -4.2118e-16)
(0.744434 0.434111 -1.85898e-16)
(0.778857 0.391003 -3.74052e-17)
(0.817726 0.341466 8.41864e-17)
(0.853821 0.291577 1.29129e-16)
(0.883915 0.245919 1.06558e-16)
(0.907906 0.206378 1.82955e-16)
(0.926988 0.173036 1.03016e-16)
(0.94245 0.145205 1.25611e-16)
(0.955255 0.122025 -3.6541e-17)
(0.966039 0.102698 6.7067e-17)
(0.975215 0.0865512 -1.02342e-16)
(0.983064 0.0730319 2.56671e-17)
(0.989794 0.0616906 -1.8725e-16)
(0.99557 0.0521604 7.21622e-18)
(1.00053 0.0441406 -2.17064e-16)
(1.00478 0.0373836 -8.62499e-19)
(1.00843 0.0316842 -2.37955e-16)
(1.01156 0.0268722 -5.14005e-17)
(1.01424 0.0228056 -2.28028e-16)
(1.01654 0.019366 -6.78595e-17)
(1.01851 0.0164543 -2.13059e-16)
(1.0202 0.0139876 -1.27667e-16)
(1.02164 0.0118964 -1.91893e-16)
(1.02288 0.0101222 -1.23442e-16)
(1.02394 0.00861605 -1.91527e-16)
(1.02484 0.00733669 -1.70798e-16)
(1.02562 0.00624934 -1.76433e-16)
(1.02628 0.00532474 -1.61034e-16)
(1.02685 0.00453815 -1.5607e-16)
(1.02733 0.00386869 -2.00034e-16)
(1.02775 0.0032987 -1.49225e-16)
(1.0281 0.00281324 -1.88929e-16)
(1.0284 0.00239964 -1.32167e-16)
(1.02866 0.00204716 -2.19752e-16)
(1.02888 0.00174669 -1.05851e-16)
(1.02907 0.00149051 -2.38779e-16)
(0.0104174 -0.308467 -2.08273e-16)
(-0.106476 -0.374825 -1.22098e-16)
(-0.0930693 -0.387726 2.37206e-16)
(-0.145652 -0.477905 5.08833e-16)
(-0.144693 -0.580958 -5.23438e-16)
(-0.138038 -0.693981 -1.90506e-16)
(-0.130417 -0.822306 5.00718e-16)
(-0.0855672 -0.966901 -2.54341e-16)
(-0.0156858 -1.07993 -1.04558e-15)
(0.0423848 -1.11316 -5.70844e-16)
(0.08393 -1.09545 -1.28311e-15)
(0.202786 -0.972091 -1.08684e-15)
(0.223421 -0.87429 -2.74501e-16)
(0.206503 -0.735895 1.13098e-15)
(0.28358 -0.360216 6.14306e-15)
(0.435431 0.216837 2.42408e-15)
(0.525577 0.774806 2.66576e-15)
(0.516069 1.10962 5.32308e-16)
(0.443555 1.09139 4.63632e-16)
(0.427452 0.881141 -3.30686e-16)
(0.400883 0.920401 -8.16729e-16)
(0.402928 1.2861 -2.16649e-15)
(0.422433 1.63729 -2.89596e-15)
(0.41649 1.7039 -2.44137e-15)
(0.494548 1.44617 -2.22578e-15)
(0.608812 1.06204 -1.37234e-15)
(0.657727 0.761291 -9.02058e-16)
(0.666648 0.587193 -6.91537e-16)
(0.665309 0.501812 -4.90803e-16)
(0.676859 0.455198 -3.19918e-16)
(0.707967 0.414783 -1.17388e-16)
(0.751535 0.369615 5.93311e-18)
(0.796869 0.321233 7.49005e-17)
(0.836985 0.274206 1.49218e-16)
(0.869749 0.231695 9.81992e-17)
(0.895844 0.194865 1.46242e-16)
(0.916765 0.163641 2.12441e-17)
(0.933848 0.13743 9.3216e-17)
(0.94805 0.11551 -6.2822e-17)
(0.960012 0.0971935 2.83634e-17)
(0.97017 0.0818763 -1.69819e-16)
(0.978835 0.0690507 -8.76721e-18)
(0.986244 0.0582951 -2.06384e-16)
(0.992585 0.0492624 -3.91826e-17)
(0.998014 0.0416664 -2.71267e-16)
(1.00266 0.0352707 -4.77609e-17)
(1.00664 0.0298798 -2.81535e-16)
(1.01005 0.0253312 -6.79305e-17)
(1.01297 0.0214895 -2.7443e-16)
(1.01546 0.018242 -1.10723e-16)
(1.0176 0.0154943 -2.51087e-16)
(1.01943 0.0131677 -1.3368e-16)
(1.02099 0.0111961 -2.32407e-16)
(1.02232 0.0095241 -1.59458e-16)
(1.02346 0.00810521 -2.18117e-16)
(1.02444 0.00690036 -1.77053e-16)
(1.02528 0.00587666 -2.01907e-16)
(1.02599 0.00500641 -1.99628e-16)
(1.0266 0.00426625 -1.66347e-16)
(1.02712 0.00363644 -2.09711e-16)
(1.02757 0.00310032 -1.6351e-16)
(1.02795 0.00264378 -2.32869e-16)
(1.02827 0.00225489 -1.37751e-16)
(1.02855 0.00192351 -2.36073e-16)
(1.02879 0.00164107 -1.11295e-16)
(1.02899 0.00140029 -2.14066e-16)
(-0.0192204 -0.287738 1.51177e-16)
(-0.0738607 -0.345363 1.89072e-17)
(-0.142053 -0.380475 -3.02639e-16)
(-0.192068 -0.46903 3.76682e-16)
(-0.223217 -0.5731 -2.0407e-16)
(-0.240879 -0.695244 2.44544e-16)
(-0.243641 -0.829808 7.13382e-16)
(-0.223381 -0.974783 -2.00355e-16)
(-0.199163 -1.08249 -1.02152e-15)
(-0.18548 -1.1174 -1.72745e-15)
(-0.158677 -1.10273 -4.01217e-17)
(-0.0654382 -0.973377 9.99085e-16)
(-0.0398034 -0.858999 6.65122e-17)
(-0.0820815 -0.713219 3.1729e-15)
(-0.0976871 -0.38091 4.79327e-15)
(0.0842193 0.17809 2.12543e-15)
(0.196562 0.748936 1.93454e-15)
(0.226248 1.0936 1.24788e-17)
(0.239968 1.06282 5.49234e-16)
(0.295163 0.859903 -9.99974e-17)
(0.261 0.910981 -1.11392e-15)
(0.225362 1.26761 -2.0892e-15)
)
;

boundaryField
{
    inlet
    {
        type            uniformFixedValue;
        uniformValue    constant (1 0 0);
        value           nonuniform 0();
    }
    outlet
    {
        type            pressureInletOutletVelocity;
        value           nonuniform 0();
    }
    wall
    {
        type            fixedValue;
        value           uniform (0 0 0);
    }
    wedge1
    {
        type            wedge;
    }
    wedge2
    {
        type            wedge;
    }
    axis
    {
        type            empty;
    }
    procBoundary27to21
    {
        type            processor;
        value           nonuniform List<vector> 
67
(
(0.747194 -0.931759 -2.88579e-16)
(1.04293 -0.995667 -1.60499e-15)
(1.11295 -1.00477 2.53401e-16)
(1.40744 -0.941622 -1.55107e-15)
(1.47569 -0.817496 2.86909e-16)
(1.71815 -0.545673 2.70069e-15)
(1.80706 -0.207811 1.33093e-15)
(1.92215 0.307486 1.08945e-15)
(1.92637 0.757535 5.68335e-16)
(1.68987 0.954274 -6.55848e-17)
(1.36777 0.966386 -1.20744e-15)
(1.17016 0.861661 -1.25698e-15)
(1.21302 0.990347 -1.26891e-15)
(1.35742 1.44782 -3.10454e-15)
(1.39305 1.81446 -3.54489e-15)
(1.30486 1.84983 -3.36256e-15)
(1.1403 1.58743 -2.73737e-15)
(1.0327 1.18324 -2.43375e-15)
(0.989939 0.813975 -1.70317e-15)
(0.953533 0.605036 -8.3083e-16)
(0.928635 0.534382 -5.17666e-16)
(0.926194 0.51735 -4.16031e-16)
(0.93846 0.495077 -3.73145e-16)
(0.950546 0.453135 -3.36154e-16)
(0.956448 0.399485 -1.3196e-16)
(0.959466 0.34361 4.95883e-17)
(0.963396 0.291087 1.95794e-16)
(0.968993 0.24462 2.14475e-16)
(0.975411 0.205061 2.01572e-16)
(0.981797 0.172059 2.29661e-16)
(0.987725 0.144697 2.45846e-16)
(0.993067 0.121973 1.9871e-16)
(0.997823 0.103015 1.89089e-16)
(1.00203 0.0871288 1.34146e-16)
(1.00575 0.0737723 1.88588e-16)
(1.00901 0.0625166 6.65602e-17)
(1.01186 0.0530161 1.53582e-16)
(1.01435 0.0449878 2.53459e-17)
(1.01652 0.0381974 1.36752e-16)
(1.0184 0.0324495 4.03226e-17)
(1.02003 0.0275805 1.29136e-16)
(1.02145 0.023453 1.87364e-17)
(1.02267 0.019952 1.17439e-16)
(1.02373 0.0169805 2.93303e-17)
(1.02464 0.0144569 1.01231e-16)
(1.02542 0.0123125 1.72124e-17)
(1.0261 0.0104894 9.26296e-17)
(1.02668 0.00893877 2.49825e-17)
(1.02718 0.00761929 8.13545e-17)
(1.02761 0.00649606 7.50168e-18)
(1.02798 0.00553956 8.18289e-17)
(1.0283 0.00472477 2.96354e-17)
(1.02857 0.00403048 7.26938e-17)
(1.0288 0.00343872 1.44408e-17)
(1.029 0.00293424 7.07886e-17)
(1.02917 0.00250405 3.10927e-17)
(1.02932 0.00213716 5.49835e-17)
(1.02944 0.00182419 6.21253e-17)
(-0.130663 -0.493905 3.27848e-16)
(-0.0540561 -0.395684 1.66929e-16)
(-0.0892833 -0.429 1.38488e-15)
(0.0124043 -0.435735 1.04601e-15)
(0.0852262 -0.536919 1.83453e-16)
(0.22257 -0.677402 -8.29068e-16)
(0.324006 -0.780782 5.73809e-16)
(0.457965 -0.873316 -2.30172e-16)
(0.457965 -0.873316 -2.30172e-16)
)
;
    }
    procBoundary27to22
    {
        type            processor;
        value           uniform (1.02946 0.00148976 -6.35217e-17);
    }
    procBoundary27to28
    {
        type            processor;
        value           nonuniform List<vector> 4((1.02938 0.00141963 -7.58504e-17) (1.02931 0.00134699 -4.17739e-17) (1.02923 0.00127204 -8.48979e-17) (1.02916 0.00119497 -9.92368e-17));
    }
    procBoundary27to33
    {
        type            processor;
        value           nonuniform List<vector> 
67
(
(0.214799 1.60338 -2.65258e-15)
(0.246959 1.64254 -2.22153e-15)
(0.389248 1.37628 -2.10435e-15)
(0.523084 1.01304 -1.24718e-15)
(0.587133 0.737297 -8.66032e-16)
(0.60588 0.575646 -6.24108e-16)
(0.614162 0.490512 -4.37707e-16)
(0.637917 0.437991 -2.04418e-16)
(0.68018 0.392595 -3.17705e-17)
(0.731049 0.346367 3.6948e-17)
(0.780226 0.300061 8.15085e-17)
(0.82246 0.256371 1.27204e-16)
(0.856881 0.217136 9.63287e-17)
(0.884616 0.183016 1.07632e-16)
(0.907154 0.153906 -2.26557e-17)
(0.925731 0.129337 2.82548e-17)
(0.941241 0.108718 -1.11666e-16)
(0.954313 0.0914556 -2.82949e-17)
(0.965399 0.077009 -2.09821e-16)
(0.974836 0.0649114 -7.87883e-17)
(0.982887 0.0547699 -2.45359e-16)
(0.989764 0.0462576 -1.04988e-16)
(0.995641 0.0391039 -2.9592e-16)
(1.00066 0.0330849 -1.00716e-16)
(1.00496 0.0280149 -2.97092e-16)
(1.00863 0.0237399 -1.04816e-16)
(1.01177 0.0201316 -2.78429e-16)
(1.01445 0.0170831 -1.28349e-16)
(1.01674 0.0145053 -2.49877e-16)
(1.0187 0.0123235 -1.3738e-16)
(1.02037 0.0104755 -2.19964e-16)
(1.0218 0.00890897 -1.45561e-16)
(1.02302 0.00758008 -2.06501e-16)
(1.02406 0.00645203 -1.54052e-16)
(1.02496 0.00549387 -1.84615e-16)
(1.02572 0.00467957 -1.7149e-16)
(1.02637 0.00398716 -1.47414e-16)
(1.02692 0.00339812 -1.70622e-16)
(1.0274 0.00289681 -1.43351e-16)
(1.0278 0.00246999 -1.93157e-16)
(1.02815 0.00210646 -1.24786e-16)
(1.02845 0.00179675 -1.9142e-16)
(1.0287 0.00153281 -1.05178e-16)
(1.02892 0.00130782 -1.65407e-16)
(0.071956 -0.279246 2.23951e-16)
(-0.105165 -0.307471 -1.19847e-16)
(-0.1499 -0.33955 -3.67789e-16)
(-0.230322 -0.431008 5.58999e-16)
(-0.280404 -0.541644 -4.23663e-16)
(-0.324899 -0.663121 -2.88061e-16)
(-0.354561 -0.803131 -6.61292e-16)
(-0.363254 -0.945717 -5.63404e-17)
(-0.364935 -1.05149 -1.5333e-15)
(-0.385871 -1.10009 -1.05941e-15)
(-0.387478 -1.09281 -1.32464e-15)
(-0.325664 -0.980126 -1.66788e-15)
(-0.296821 -0.852036 -1.97889e-15)
(-0.345063 -0.683524 1.07544e-15)
(-0.449917 -0.385907 1.06218e-15)
(-0.28714 0.132859 8.56218e-16)
(-0.14349 0.712364 1.84892e-15)
(-0.061891 1.04618 3.28949e-16)
(0.0565025 1.00387 1.63452e-15)
(0.150799 0.833242 -6.15621e-17)
(0.0840785 0.924231 -1.13894e-15)
(0.214799 1.60338 -2.65258e-15)
(0.0120334 1.26681 -2.14089e-15)
)
;
    }
}


// ************************************************************************* //
