0.24776 	0.447347 	-2.12142e-18 	0.772496 	-0.0444582 	1.0818e-15
0.251636 	0.454344 	-8.5807e-19 	0.686016 	-0.0344962 	9.62122e-16
0.255511 	0.461342 	-6.5148e-19 	0.593346 	-0.0253731 	8.71959e-16
0.258725 	0.467144 	3.16609e-19 	0.495099 	-0.017344 	7.99556e-16
0.260662 	0.470642 	1.21712e-18 	0.476251 	-0.0149408 	8.74437e-16
0.263262 	0.475337 	1.30048e-18 	0.376566 	-0.00912775 	6.43057e-16
0.267138 	0.482335 	1.01688e-18 	0.273023 	-0.00461967 	4.33081e-16
0.271014 	0.489332 	1.48427e-18 	0.166092 	-0.00158213 	2.44155e-16
0.274889 	0.49633 	1.14087e-18 	0.0561704 	-0.000228441 	7.75517e-17
