0.156341 	0.482335 	9.75748e-19 	4.86208
0.158609 	0.489332 	-1.53528e-19 	4.8555
0.159871 	0.493228 	-7.03842e-19 	4.84757
0.161005 	0.496727 	6.98899e-19 	4.81897
