0.235412 	0.447347 	-1.11583e-18 	4.76986
0.238626 	0.453456 	-1.92778e-18 	4.76755
0.240468 	0.456954 	-1.62448e-18 	4.74635
0.242777 	0.461342 	-7.89523e-19 	4.74428
0.246459 	0.468339 	9.29332e-19 	4.74216
0.250141 	0.475337 	5.00719e-19 	4.73999
0.253824 	0.482335 	-6.25638e-19 	4.73772
0.257506 	0.489332 	-8.32853e-19 	4.73514
0.259674 	0.493451 	-6.04832e-19 	4.73218
0.261515 	0.49695 	-8.85756e-19 	4.7145
