0.0716991 	0.499829 	2.36399e-19 	5.05133
