/*--------------------------------*- C++ -*----------------------------------*\
  =========                 |
  \\      /  F ield         | OpenFOAM: The Open Source CFD Toolbox
   \\    /   O peration     | Website:  https://openfoam.org
    \\  /    A nd           | Version:  7
     \\/     M anipulation  |
\*---------------------------------------------------------------------------*/
FoamFile
{
    version     2.0;
    format      ascii;
    class       volScalarField;
    location    "3.9";
    object      T;
}
// * * * * * * * * * * * * * * * * * * * * * * * * * * * * * * * * * * * * * //

dimensions      [0 0 0 1 0 0 0];

internalField   nonuniform List<scalar> 
100800
(
1
1
1
1
1
1
1
1
1
1
1
1
1
1
1
1
1
1
1
1
1
1
1
1
1
1
1
1
1
1
1
1
1
1
1
1
1
1
1
1
1
1
1
1
1
1
1
1
1
1
1
1
1
1
1
1
1
1
1
1
1
2.00198
2.66109
2.69921
2.69954
2.70195
2.70318
2.70412
2.70455
2.70498
2.706
2.70864
2.71363
2.72071
2.72872
2.73619
2.74154
2.74385
2.74383
2.74323
2.74257
2.74251
2.74304
2.7451
2.74948
2.75569
2.76197
2.76652
2.76822
2.76817
2.76782
2.76772
2.76859
2.77124
2.77535
2.77964
2.78293
2.78479
2.78567
2.78635
2.78735
2.78884
2.79055
2.79208
2.79327
2.79426
2.79527
2.79644
2.79777
2.79904
2.79994
2.80037
2.80059
2.80101
2.80201
2.80354
2.80504
2.80589
2.806
2.80591
1
1
1
1
1
1
1
1
1
1
1
1
1
1
1
1
1
1
1
1
1
1
1
1
1
1
1
1
1
1
1
1
1
1
1
1
1
1
1
1
1
1
1
1
1
1
1
1
1
1
1
1
1
1
1
1
1
1
1
1
1
1.99592
2.66017
2.69921
2.69979
2.70196
2.70308
2.704
2.70447
2.70495
2.70598
2.70856
2.71353
2.72063
2.72863
2.73611
2.74149
2.74384
2.74384
2.74324
2.74253
2.74242
2.74299
2.74509
2.74949
2.75572
2.76198
2.76647
2.76812
2.76806
2.76774
2.76768
2.76858
2.77121
2.77524
2.77945
2.78273
2.78465
2.78563
2.78637
2.78735
2.78874
2.79034
2.79185
2.79313
2.79424
2.7953
2.79642
2.79761
2.79875
2.79966
2.80023
2.8006
2.80108
2.80197
2.80329
2.80466
2.8056
2.80593
2.80597
1
1
1
1
1
1
1
1
1
1
1
1
1
1
1
1
1
1
1
1
1
1
1
1
1
1
1
1
1
1
1
1
1
1
1
1
1
1
1
1
1
1
1
1
1
1
1
1
1
1
1
1
1
1
1
1
1
1
1
1
1
1.98211
2.6583
2.69886
2.69975
2.70163
2.7028
2.70381
2.7044
2.70494
2.706
2.70852
2.71333
2.72031
2.72826
2.73573
2.74124
2.74374
2.74385
2.74328
2.74255
2.74239
2.74295
2.74505
2.74945
2.75567
2.76189
2.76634
2.76798
2.76789
2.7676
2.7676
2.76855
2.77116
2.77509
2.77917
2.78238
2.78434
2.78545
2.78632
2.78734
2.78864
2.7901
2.79153
2.79285
2.79409
2.79527
2.79641
2.79747
2.79841
2.79922
2.79991
2.80051
2.80114
2.80195
2.80297
2.80411
2.80513
2.80578
2.80608
1
1
1
1
1
1
1
1
1
1
1
1
1
1
1
1
1
1
1
1
1
1
1
1
1
1
1
1
1
1
1
1
1
1
1
1
1
1
1
1
1
1
1
1
1
1
1
1
1
1
1
1
1
1
1
1
1
1
1
1
1
1.96539
2.65468
2.69845
2.69953
2.7013
2.70261
2.70375
2.70449
2.70512
2.70618
2.70854
2.71301
2.71965
2.72741
2.73486
2.74059
2.74349
2.7439
2.74342
2.74271
2.74251
2.74304
2.74504
2.74931
2.75541
2.76159
2.76604
2.76778
2.7677
2.76745
2.7675
2.7685
2.77107
2.77485
2.77879
2.78191
2.78388
2.78511
2.78612
2.78723
2.7885
2.78984
2.79117
2.79247
2.79379
2.7951
2.79629
2.79726
2.79803
2.79873
2.79948
2.80028
2.80105
2.80179
2.80256
2.80349
2.80455
2.8055
2.80605
1
1
1
1
1
1
1
1
1
1
1
1
1
1
1
1
1
1
1
1
1
1
1
1
1
1
1
1
1
1
1
1
1
1
1
1
1
1
1
1
1
1
1
1
1
1
1
1
1
1
1
1
1
1
1
1
1
1
1
1
1
1.94561
2.65028
2.69731
2.6989
2.70094
2.70252
2.70387
2.70484
2.70563
2.70668
2.70876
2.71268
2.71869
2.72603
2.73338
2.73941
2.74299
2.74394
2.74366
2.74308
2.74285
2.74329
2.74508
2.74902
2.75486
2.76096
2.76551
2.76748
2.76748
2.76731
2.76737
2.76837
2.77085
2.77451
2.77833
2.78136
2.7833
2.78458
2.78571
2.78694
2.78826
2.78958
2.79083
2.79206
2.79336
2.79473
2.79599
2.79698
2.79769
2.79829
2.79901
2.79988
2.80074
2.80146
2.80211
2.80291
2.80399
2.80509
2.80576
1
1
1
1
1
1
1
1
1
1
1
1
1
1
1
1
1
1
1
1
1
1
1
1
1
1
1
1
1
1
1
1
1
1
1
1
1
1
1
1
1
1
1
1
1
1
1
1
1
1
1
1
1
1
1
1
1
1
1
1
1
1.92032
2.64539
2.69483
2.69779
2.70062
2.7026
2.70422
2.70547
2.70644
2.70746
2.70918
2.71238
2.7175
2.72419
2.73134
2.73771
2.74212
2.74386
2.7439
2.74356
2.74333
2.74367
2.74514
2.74858
2.75399
2.75996
2.76468
2.76704
2.76726
2.76716
2.76719
2.76811
2.77046
2.77403
2.7778
2.78079
2.78269
2.78392
2.78507
2.7864
2.78787
2.78927
2.79052
2.79164
2.79283
2.79415
2.79548
2.79659
2.79736
2.79792
2.79853
2.7993
2.80016
2.80094
2.80164
2.80245
2.80349
2.80455
2.80519
1
1
1
1
1
1
1
1
1
1
1
1
1
1
1
1
1
1
1
1
1
1
1
1
1
1
1
1
1
1
1
1
1
1
1
1
1
1
1
1
1
1
1
1
1
1
1
1
1
1
1
1
1
1
1
1
1
1
1
1
1
1.88728
2.63916
2.69141
2.69611
2.70006
2.70265
2.70466
2.70623
2.70741
2.70843
2.70982
2.71227
2.71636
2.72214
2.72889
2.73547
2.74066
2.74344
2.74406
2.74394
2.74379
2.74404
2.74517
2.74803
2.75289
2.75865
2.76358
2.76645
2.76701
2.76698
2.76695
2.76771
2.76988
2.77337
2.77716
2.7802
2.78209
2.78323
2.78428
2.78562
2.78724
2.78884
2.79016
2.79123
2.79224
2.79342
2.79476
2.79604
2.79698
2.79756
2.79802
2.79859
2.79936
2.80025
2.80114
2.80207
2.80304
2.8039
2.80438
1
1
1
1
1
1
1
1
1
1
1
1
1
1
1
1
1
1
1
1
1
1
1
1
1
1
1
1
1
1
1
1
1
1
1
1
1
1
1
1
1
1
1
1
1
1
1
1
1
1
1
1
1
1
1
1
1
1
1
1
1
1.8464
2.63056
2.68731
2.69396
2.69917
2.70242
2.70487
2.70683
2.70831
2.70941
2.71054
2.71231
2.71536
2.72011
2.72626
2.73285
2.73869
2.74255
2.744
2.74417
2.74413
2.74431
2.74515
2.74742
2.75164
2.75711
2.7622
2.76562
2.76663
2.7667
2.76662
2.76719
2.7691
2.77248
2.77633
2.77951
2.78146
2.78254
2.78344
2.78467
2.78636
2.78815
2.78965
2.79074
2.79164
2.79265
2.79392
2.79531
2.79645
2.79713
2.7975
2.79785
2.79847
2.79943
2.80058
2.80167
2.80255
2.80312
2.80339
1
1
1
1
1
1
1
1
1
1
1
1
1
1
1
1
1
1
1
1
1
1
1
1
1
1
1
1
1
1
1
1
1
1
1
1
1
1
1
1
1
1
1
1
1
1
1
1
1
1
1
1
1
1
1
1
1
1
1
1
1
1.798
2.61974
2.68223
2.69113
2.69773
2.70176
2.7047
2.70701
2.70883
2.71012
2.71115
2.71241
2.71458
2.71829
2.72363
2.73
2.73629
2.74116
2.74367
2.74429
2.7443
2.74443
2.74504
2.74677
2.75035
2.75545
2.76063
2.76454
2.76609
2.76635
2.76625
2.76665
2.76826
2.77142
2.77528
2.77863
2.78074
2.78185
2.78263
2.78369
2.78529
2.78718
2.78888
2.79011
2.79102
2.79191
2.79305
2.79442
2.79568
2.7965
2.79686
2.79708
2.79755
2.79854
2.79987
2.8011
2.8019
2.80224
2.80234
1
1
1
1
1
1
1
1
1
1
1
1
1
1
1
1
1
1
1
1
1
1
1
1
1
1
1
1
1
1
1
1
1
1
1
1
1
1
1
1
1
1
1
1
1
1
1
1
1
1
1
1
1
1
1
1
1
1
1
1
1
1.74211
2.60742
2.67681
2.68739
2.69526
2.70031
2.70407
2.70686
2.70897
2.71045
2.71147
2.71243
2.71393
2.71669
2.72118
2.7271
2.73356
2.73925
2.74287
2.74415
2.74431
2.74439
2.74479
2.74607
2.74903
2.75371
2.75887
2.76315
2.76528
2.76586
2.76583
2.76612
2.76745
2.7703
2.77405
2.77751
2.77984
2.78109
2.78188
2.7828
2.78421
2.78604
2.78784
2.78927
2.79031
2.7912
2.79221
2.79344
2.79469
2.79562
2.79607
2.79629
2.7967
2.79764
2.79901
2.80029
2.80104
2.80125
2.80128
1
1
1
1
1
1
1
1
1
1
1
1
1
1
1
1
1
1
1
1
1
1
1
1
1
1
1
1
1
1
1
1
1
1
1
1
1
1
1
1
1
1
1
1
1
1
1
1
1
1
1
1
1
1
1
1
1
1
1
1
1
1.67804
2.59314
2.67271
2.68361
2.69208
2.69802
2.7027
2.70623
2.70879
2.71051
2.71158
2.71237
2.71341
2.71536
2.71898
2.72433
2.73073
2.73694
2.74153
2.74368
2.74414
2.74415
2.74438
2.74535
2.74778
2.75198
2.75698
2.76145
2.76412
2.76511
2.76527
2.76559
2.76672
2.76921
2.77269
2.77614
2.77866
2.78015
2.78108
2.78196
2.78319
2.78482
2.78658
2.78816
2.78942
2.79043
2.79138
2.79242
2.79353
2.7945
2.79511
2.79546
2.79588
2.79672
2.79798
2.79919
2.79996
2.8002
2.80026
1
1
1
1
1
1
1
1
1
1
1
1
1
1
1
1
1
1
1
1
1
1
1
1
1
1
1
1
1
1
1
1
1
1
1
1
1
1
1
1
1
1
1
1
1
1
1
1
1
1
1
1
1
1
1
1
1
1
1
1
1
1.6032
2.57469
2.67137
2.68077
2.68868
2.695
2.70051
2.70485
2.7081
2.71028
2.71154
2.71227
2.71301
2.7144
2.71718
2.72187
2.728
2.73443
2.73975
2.74278
2.74369
2.74373
2.74388
2.74464
2.74663
2.75033
2.75506
2.75952
2.7626
2.76403
2.7645
2.76498
2.76606
2.76825
2.77136
2.77462
2.77722
2.77895
2.78012
2.78111
2.78222
2.78362
2.78522
2.78684
2.7883
2.78951
2.79048
2.79138
2.7923
2.79323
2.79399
2.79453
2.79502
2.79574
2.79678
2.79786
2.79868
2.79906
2.79923
1
1
1
1
1
1
1
1
1
1
1
1
1
1
1
1
1
1
1
1
1
1
1
1
1
1
1
1
1
1
1
1
1
1
1
1
1
1
1
1
1
1
1
1
1
1
1
1
1
1
1
1
1
1
1
1
1
1
1
1
1
1.51934
2.55065
2.67282
2.67964
2.68599
2.69174
2.6975
2.70251
2.70657
2.70943
2.71111
2.71199
2.71262
2.71366
2.71578
2.71969
2.72537
2.73179
2.73756
2.74137
2.74289
2.74312
2.74325
2.74388
2.74554
2.74878
2.75315
2.7575
2.76084
2.76264
2.76347
2.76419
2.76535
2.76735
2.77012
2.77308
2.77561
2.77748
2.77889
2.78008
2.78122
2.78246
2.78386
2.7854
2.78696
2.78835
2.78944
2.79028
2.79105
2.79188
2.79273
2.79344
2.79403
2.79464
2.79544
2.79637
2.79725
2.79783
2.79814
1
1
1
1
1
1
1
1
1
1
1
1
1
1
1
1
1
1
1
1
1
1
1
1
1
1
1
1
1
1
1
1
1
1
1
1
1
1
1
1
1
1
1
1
1
1
1
1
1
1
1
1
1
1
1
1
1
1
1
1
1
1.4308
2.52092
2.67648
2.67968
2.6842
2.68886
2.69421
2.69944
2.70412
2.70774
2.71009
2.71138
2.71216
2.71306
2.71474
2.71793
2.72295
2.72911
2.73506
2.73947
2.74167
2.74227
2.74243
2.74299
2.74442
2.74727
2.7513
2.7555
2.75898
2.76104
2.76216
2.76309
2.7644
2.76636
2.76891
2.77162
2.77398
2.77585
2.77739
2.77878
2.78006
2.78129
2.78255
2.78394
2.78545
2.78694
2.78817
2.78907
2.78979
2.79053
2.79137
2.79217
2.79283
2.79338
2.79399
2.79479
2.79572
2.79646
2.7969
1
1
1
1
1
1
1
1
1
1
1
1
1
1
1
1
1
1
1
1
1
1
1
1
1
1
1
1
1
1
1
1
1
1
1
1
1
1
1
1
1
1
1
1
1
1
1
1
1
1
1
1
1
1
1
1
1
1
1
1
1
1.34145
2.48505
2.68037
2.6802
2.68293
2.68656
2.69124
2.69622
2.7011
2.70526
2.70832
2.71024
2.71141
2.71245
2.71397
2.71665
2.72097
2.72657
2.73238
2.73715
2.73999
2.74108
2.74141
2.74195
2.74324
2.74575
2.74947
2.75353
2.75707
2.75932
2.76063
2.76167
2.7631
2.76512
2.76765
2.77023
2.77245
2.7742
2.7757
2.77717
2.77862
2.77998
2.78123
2.78249
2.78386
2.78531
2.78665
2.7877
2.78848
2.78917
2.78993
2.79072
2.79139
2.79192
2.79244
2.79317
2.79411
2.79497
2.79548
1
1
1
1
1
1
1
1
1
1
1
1
1
1
1
1
1
1
1
1
1
1
1
1
1
1
1
1
1
1
1
1
1
1
1
1
1
1
1
1
1
1
1
1
1
1
1
1
1
1
1
1
1
1
1
1
1
1
1
1
1
1.24671
2.43782
2.68145
2.68057
2.68287
2.68533
2.68904
2.69335
2.69798
2.70236
2.70598
2.70861
2.7104
2.71181
2.71341
2.71574
2.71932
2.72419
2.7296
2.73449
2.73789
2.73959
2.74026
2.74082
2.74195
2.7441
2.74753
2.75149
2.7551
2.75754
2.75903
2.76008
2.7615
2.76356
2.76618
2.76882
2.771
2.77262
2.77393
2.77531
2.77685
2.77841
2.7798
2.78103
2.78225
2.78356
2.78492
2.78613
2.78705
2.78777
2.78843
2.78909
2.78972
2.79025
2.79078
2.7915
2.79243
2.79331
2.79385
1
1
1
1
1
1
1
1
1
1
1
1
1
1
1
1
1
1
1
1
1
1
1
1
1
1
1
1
1
1
1
1
1
1
1
1
1
1
1
1
1
1
1
1
1
1
1
1
1
1
1
1
1
1
1
1
1
1
1
1
1
1.14918
2.38377
2.68107
2.68016
2.68272
2.68493
2.68805
2.69174
2.69585
2.69998
2.70375
2.70686
2.70923
2.71111
2.7129
2.71502
2.71797
2.72205
2.72688
2.73167
2.73548
2.7378
2.73893
2.73959
2.74058
2.74238
2.74548
2.74931
2.75304
2.75573
2.75741
2.75844
2.75972
2.76169
2.76438
2.76719
2.76948
2.77104
2.77217
2.77334
2.77484
2.77656
2.77818
2.77949
2.7806
2.78174
2.78303
2.78435
2.78545
2.78625
2.78682
2.78732
2.78784
2.78838
2.78899
2.78974
2.79066
2.79152
2.79203
1
1
1
1
1
1
1
1
1
1
1
1
1
1
1
1
1
1
1
1
1
1
1
1
1
1
1
1
1
1
1
1
1
1
1
1
1
1
1
1
1
1
1
1
1
1
1
1
1
1
1
1
1
1
1
1
1
1
1
1
1
1.0484
2.32659
2.68144
2.68131
2.68319
2.68552
2.68856
2.6919
2.69534
2.69883
2.70229
2.70549
2.7082
2.71047
2.71249
2.71452
2.71698
2.72026
2.72432
2.72872
2.73271
2.73562
2.73734
2.7383
2.73927
2.74076
2.7434
2.74695
2.75072
2.75372
2.75567
2.7568
2.75794
2.75969
2.76229
2.76523
2.76772
2.76937
2.77041
2.77137
2.77272
2.77448
2.77629
2.77776
2.77886
2.77987
2.78104
2.78239
2.78364
2.78454
2.78508
2.78543
2.78582
2.78635
2.78703
2.78785
2.78876
2.78955
2.79002
1
1
1
1
1
1
1
1
1
1
1
1
1
1
1
1
1
1
1
1
1
1
1
1
1
1
1
1
1
1
1
1
1
1
1
1
1
1
1
1
1
1
1
1
1
1
1
1
1
1
1
1
1
1
1
1
1
1
1
1
1
1.00148
2.26595
2.68022
2.68119
2.68313
2.68582
2.68868
2.6918
2.69505
2.69837
2.70165
2.70475
2.70751
2.70993
2.71207
2.71407
2.71623
2.71887
2.72216
2.72596
2.72981
2.7331
2.73544
2.73689
2.73803
2.73932
2.74144
2.74451
2.74811
2.75139
2.75373
2.75511
2.75621
2.7577
2.76004
2.76292
2.76559
2.76745
2.76857
2.76943
2.77059
2.77226
2.77415
2.77578
2.77696
2.77791
2.77898
2.78028
2.7816
2.7826
2.78315
2.78341
2.78368
2.78417
2.7849
2.78578
2.78668
2.78742
2.78786
1
1
1
1
1
1
1
1
1
1
1
1
1
1
1
1
1
1
1
1
1
1
1
1
1
1
1
1
1
1
1
1
1
1
1
1
1
1
1
1
1
1
1
1
1
1
1
1
1
1
1
1
1
1
1
1
1
1
1
1
1
1.00001
2.18451
2.67718
2.68157
2.68368
2.68655
2.68946
2.6924
2.69545
2.6986
2.70174
2.7047
2.70731
2.70966
2.71189
2.71393
2.71594
2.71813
2.72072
2.72377
2.72713
2.73042
2.73321
2.73524
2.73673
2.73806
2.73974
2.74224
2.74539
2.74871
2.75142
2.7532
2.75445
2.75578
2.75777
2.7604
2.76311
2.76522
2.76655
2.76746
2.76849
2.76997
2.77179
2.77351
2.77482
2.77582
2.77683
2.77805
2.77936
2.78041
2.781
2.78123
2.78142
2.78185
2.78259
2.78349
2.78439
2.78509
2.78551
1
1
1
1
1
1
1
1
1
1
1
1
1
1
1
1
1
1
1
1
1
1
1
1
1
1
1
1
1
1
1
1
1
1
1
1
1
1
1
1
1
1
1
1
1
1
1
1
1
1
1
1
1
1
1
1
1
1
1
1
1
1
2.0825
2.66587
2.68037
2.68337
2.68644
2.68943
2.69259
2.69583
2.69907
2.70215
2.70496
2.70744
2.70955
2.71159
2.71356
2.71551
2.71757
2.71982
2.72233
2.72509
2.72802
2.73087
2.73331
2.73524
2.7368
2.73828
2.74024
2.74277
2.74584
2.74874
2.75098
2.75254
2.75387
2.75554
2.75779
2.76035
2.76263
2.76426
2.76536
2.76636
2.76765
2.76929
2.771
2.77244
2.77355
2.77457
2.77569
2.77691
2.77796
2.77859
2.77886
2.77902
2.77939
2.7801
2.78099
2.78189
2.78257
2.78297
1
1
1
1
1
1
1
1
1
1
1
1
1
1
1
1
1
1
1
1
1
1
1
1
1
1
1
1
1
1
1
1
1
1
1
1
1
1
1
1
1
1
1
1
1
1
1
1
1
1
1
1
1
1
1
1
1
1
1
1
1
1
1.96117
2.64317
2.67595
2.68099
2.68502
2.68842
2.69173
2.69513
2.69867
2.70202
2.70499
2.70749
2.70954
2.71139
2.71324
2.71519
2.71729
2.71949
2.72174
2.72404
2.72642
2.72891
2.73134
2.73353
2.73539
2.73688
2.73851
2.74045
2.74303
2.74585
2.74841
2.75033
2.75182
2.7533
2.75517
2.75746
2.75979
2.7617
2.76306
2.76411
2.76524
2.76667
2.76829
2.76981
2.77106
2.77213
2.77318
2.77428
2.77527
2.77594
2.77625
2.77642
2.77676
2.77741
2.77827
2.77915
2.77981
2.78018
1
1
1
1
1
1
1
1
1
1
1
1
1
1
1
1
1
1
1
1
1
1
1
1
1
1
1
1
1
1
1
1
1
1
1
1
1
1
1
1
1
1
1
1
1
1
1
1
1
1
1
1
1
1
1
1
1
1
1
1
1
1
1.82486
2.61129
2.66957
2.67653
2.68123
2.68496
2.68887
2.69299
2.69715
2.70109
2.70448
2.70718
2.70914
2.71079
2.71256
2.71453
2.71678
2.71917
2.72154
2.72367
2.72557
2.72751
2.72959
2.73171
2.73376
2.73541
2.73691
2.73846
2.7405
2.74301
2.74562
2.74781
2.74951
2.75095
2.75254
2.75453
2.7568
2.75889
2.76048
2.76165
2.7627
2.76394
2.76543
2.76697
2.76834
2.76947
2.77048
2.77146
2.77236
2.77302
2.77338
2.77358
2.7739
2.77451
2.77534
2.77618
2.77681
2.77714
1
1
1
1
1
1
1
1
1
1
1
1
1
1
1
1
1
1
1
1
1
1
1
1
1
1
1
1
1
1
1
1
1
1
1
1
1
1
1
1
1
1
1
1
1
1
1
1
1
1
1
1
1
1
1
1
1
1
1
1
1
1
1.68041
2.57447
2.6627
2.66978
2.67427
2.67849
2.68314
2.68815
2.69332
2.69831
2.70256
2.70576
2.70797
2.7096
2.71114
2.71306
2.71551
2.71832
2.72108
2.72344
2.72527
2.72672
2.72831
2.7301
2.73207
2.73384
2.73535
2.73671
2.73829
2.74038
2.74279
2.74506
2.74692
2.7484
2.74985
2.75161
2.75373
2.75587
2.75763
2.75891
2.75994
2.76105
2.76242
2.76394
2.76538
2.76657
2.76755
2.76843
2.76923
2.76985
2.77022
2.77046
2.77078
2.77137
2.77215
2.77294
2.77353
2.77379
1
1
1
1
1
1
1
1
1
1
1
1
1
1
1
1
1
1
1
1
1
1
1
1
1
1
1
1
1
1
1
1
1
1
1
1
1
1
1
1
1
1
1
1
1
1
1
1
1
1
1
1
1
1
1
1
1
1
1
1
1
1
1.51652
2.522
2.657
2.66229
2.66656
2.67061
2.67539
2.68085
2.6869
2.69302
2.69843
2.70245
2.70521
2.7071
2.70882
2.71083
2.71346
2.71668
2.72
2.72282
2.72482
2.72613
2.72731
2.72875
2.73044
2.73219
2.73375
2.73508
2.73638
2.73803
2.74009
2.74224
2.74413
2.74567
2.74707
2.74865
2.75059
2.75268
2.75451
2.75589
2.75695
2.75799
2.75926
2.76072
2.76216
2.76338
2.76435
2.76515
2.76586
2.76641
2.76677
2.76702
2.76735
2.76793
2.76868
2.76942
2.76995
2.77015
1
1
1
1
1
1
1
1
1
1
1
1
1
1
1
1
1
1
1
1
1
1
1
1
1
1
1
1
1
1
1
1
1
1
1
1
1
1
1
1
1
1
1
1
1
1
1
1
1
1
1
1
1
1
1
1
1
1
1
1
1
1
1.32413
2.45086
2.65829
2.65684
2.66007
2.66372
2.66811
2.67318
2.67924
2.6858
2.69199
2.69709
2.70078
2.70319
2.70512
2.70739
2.71042
2.71414
2.71808
2.7215
2.72389
2.72529
2.72619
2.72731
2.72882
2.73052
2.73214
2.73352
2.73464
2.73593
2.73758
2.73946
2.74127
2.74282
2.74418
2.74563
2.74738
2.74934
2.75116
2.75259
2.75369
2.75472
2.7559
2.75728
2.75868
2.75989
2.76084
2.76161
2.76223
2.76271
2.76303
2.76327
2.7636
2.76415
2.76486
2.76555
2.766
2.76614
1
1
1
1
1
1
1
1
1
1
1
1
1
1
1
1
1
1
1
1
1
1
1
1
1
1
1
1
1
1
1
1
1
1
1
1
1
1
1
1
1
1
1
1
1
1
1
1
1
1
1
1
1
1
1
1
1
1
1
1
1
1
1.12219
2.3732
2.66167
2.65817
2.65959
2.66124
2.66405
2.66807
2.67318
2.67889
2.68483
2.69016
2.69446
2.69777
2.70046
2.70308
2.70635
2.71046
2.71497
2.71907
2.72205
2.72378
2.72479
2.72571
2.72705
2.72876
2.73049
2.73193
2.73304
2.73399
2.73522
2.7368
2.73845
2.73993
2.74122
2.74253
2.74407
2.74585
2.7476
2.74905
2.75019
2.7512
2.75231
2.7536
2.75492
2.7561
2.75703
2.75774
2.7583
2.75869
2.75895
2.75914
2.75945
2.75996
2.76063
2.76129
2.76169
2.76179
1
1
1
1
1
1
1
1
1
1
1
1
1
1
1
1
1
1
1
1
1
1
1
1
1
1
1
1
1
1
1
1
1
1
1
1
1
1
1
1
1
1
1
1
1
1
1
1
1
1
1
1
1
1
1
1
1
1
1
1
1
1
1.00475
2.30313
2.66296
2.65766
2.65907
2.66095
2.66434
2.66811
2.67137
2.67476
2.67882
2.68334
2.68769
2.69149
2.69485
2.69811
2.70167
2.70589
2.71065
2.71524
2.71882
2.72112
2.72251
2.72364
2.72503
2.72681
2.7287
2.73023
2.7313
2.73209
2.73299
2.73425
2.73571
2.73706
2.73822
2.73934
2.74065
2.74222
2.74386
2.7453
2.74644
2.74742
2.74845
2.74963
2.75087
2.752
2.75288
2.75355
2.75403
2.75435
2.75455
2.75468
2.75491
2.75532
2.75592
2.75654
2.75689
2.75697
1
1
1
1
1
1
1
1
1
1
1
1
1
1
1
1
1
1
1
1
1
1
1
1
1
1
1
1
1
1
1
1
1
1
1
1
1
1
1
1
1
1
1
1
1
1
1
1
1
1
1
1
1
1
1
1
1
1
1
1
1
1
1.00002
2.19753
2.66544
2.66375
2.66352
2.66404
2.66599
2.66878
2.67178
2.67452
2.67674
2.67909
2.68215
2.68569
2.6893
2.69286
2.6966
2.70081
2.70548
2.7102
2.71421
2.71711
2.71909
2.72069
2.72241
2.72445
2.72659
2.72834
2.72946
2.73013
2.73078
2.73178
2.73305
2.73423
2.7352
2.73609
2.73714
2.73848
2.73998
2.74135
2.74245
2.74336
2.74429
2.74536
2.74652
2.74758
2.74841
2.74898
2.74936
2.74961
2.74971
2.74974
2.74985
2.75013
2.75066
2.75126
2.7516
2.75169
1
1
1
1
1
1
1
1
1
1
1
1
1
1
1
1
1
1
1
1
1
1
1
1
1
1
1
1
1
1
1
1
1
1
1
1
1
1
1
1
1
1
1
1
1
1
1
1
1
1
1
1
1
1
1
1
1
1
1
1
1
1
1
2.06534
2.66271
2.66538
2.66491
2.66667
2.66968
2.6726
2.67473
2.67601
2.67696
2.67812
2.67995
2.68233
2.68504
2.68818
2.6917
2.69564
2.69998
2.70449
2.70861
2.71195
2.71451
2.7167
2.71892
2.72138
2.7239
2.72598
2.72734
2.72809
2.72861
2.72935
2.7304
2.73142
2.73217
2.7328
2.73357
2.73465
2.73596
2.73722
2.73822
2.73902
2.73982
2.74078
2.74185
2.74284
2.74357
2.74401
2.74428
2.74441
2.74442
2.74435
2.74431
2.74442
2.7448
2.74531
2.74562
2.74569
1
1
1
1
1
1
1
1
1
1
1
1
1
1
1
1
1
1
1
1
1
1
1
1
1
1
1
1
1
1
1
1
1
1
1
1
1
1
1
1
1
1
1
1
1
1
1
1
1
1
1
1
1
1
1
1
1
1
1
1
1
1
1
1.89996
2.62651
2.66574
2.6661
2.66866
2.67115
2.674
2.67625
2.67745
2.67775
2.67822
2.67952
2.6814
2.68344
2.68572
2.68819
2.69121
2.69479
2.69877
2.70268
2.70616
2.70911
2.71176
2.71448
2.71742
2.7204
2.72293
2.72466
2.72565
2.72625
2.72687
2.72771
2.72855
2.72914
2.72952
2.72999
2.73078
2.73184
2.73291
2.73376
2.7344
2.73506
2.73589
2.73687
2.73775
2.73831
2.73861
2.7387
2.73866
2.73853
2.73829
2.73806
2.738
2.73822
2.73864
2.73895
2.73904
1
1
1
1
1
1
1
1
1
1
1
1
1
1
1
1
1
1
1
1
1
1
1
1
1
1
1
1
1
1
1
1
1
1
1
1
1
1
1
1
1
1
1
1
1
1
1
1
1
1
1
1
1
1
1
1
1
1
1
1
1
1
1
1.70695
2.56101
2.65666
2.66152
2.6654
2.66986
2.67362
2.67642
2.67789
2.67813
2.6785
2.67981
2.68162
2.6835
2.68518
2.68682
2.68842
2.69072
2.69385
2.69718
2.70041
2.70338
2.70623
2.70923
2.71255
2.71598
2.71901
2.72123
2.72259
2.72341
2.72408
2.72486
2.72562
2.72608
2.72626
2.72646
2.72691
2.72764
2.72844
2.7291
2.72953
2.73002
2.73069
2.73151
2.73222
2.73261
2.73271
2.7326
2.73237
2.73207
2.73164
2.73116
2.73087
2.73086
2.73105
2.73125
2.73127
1
1
1
1
1
1
1
1
1
1
1
1
1
1
1
1
1
1
1
1
1
1
1
1
1
1
1
1
1
1
1
1
1
1
1
1
1
1
1
1
1
1
1
1
1
1
1
1
1
1
1
1
1
1
1
1
1
1
1
1
1
1
1
1.44797
2.45724
2.64514
2.65065
2.65715
2.66269
2.66765
2.67233
2.67559
2.67734
2.67868
2.68023
2.68196
2.68368
2.68505
2.68587
2.6868
2.68813
2.69022
2.69275
2.6954
2.698
2.70063
2.70357
2.70701
2.71073
2.7142
2.71692
2.71874
2.71989
2.72077
2.72166
2.72249
2.72294
2.72298
2.72294
2.72304
2.72339
2.72387
2.72427
2.72445
2.7247
2.72515
2.72575
2.72625
2.72644
2.7263
2.72592
2.72543
2.72484
2.72408
2.72326
2.72263
2.72238
2.72241
2.72252
2.72252
1
1
1
1
1
1
1
1
1
1
1
1
1
1
1
1
1
1
1
1
1
1
1
1
1
1
1
1
1
1
1
1
1
1
1
1
1
1
1
1
1
1
1
1
1
1
1
1
1
1
1
1
1
1
1
1
1
1
1
1
1
1
1
1.15321
2.36222
2.63961
2.63619
2.64167
2.6493
2.65742
2.66409
2.66927
2.67327
2.67661
2.67945
2.68183
2.68366
2.68483
2.68526
2.68548
2.68637
2.68796
2.68983
2.69168
2.69352
2.69555
2.69803
2.70124
2.70496
2.70865
2.71176
2.71402
2.71556
2.71678
2.71794
2.71899
2.71957
2.71957
2.71933
2.71913
2.71913
2.71924
2.71928
2.71918
2.71913
2.71927
2.71958
2.71982
2.71975
2.71932
2.71861
2.71779
2.71685
2.71574
2.71454
2.71349
2.71277
2.71236
2.71213
2.71188
1
1
1
1
1
1
1
1
1
1
1
1
1
1
1
1
1
1
1
1
1
1
1
1
1
1
1
1
1
1
1
1
1
1
1
1
1
1
1
1
1
1
1
1
1
1
1
1
1
1
1
1
1
1
1
1
1
1
1
1
1
1
1
1.0063
2.29158
2.64005
2.63214
2.63749
2.64285
2.64831
2.65429
2.66052
2.66621
2.67135
2.6759
2.67962
2.68229
2.68383
2.68438
2.68463
2.68536
2.68666
2.68813
2.68942
2.69049
2.69151
2.69317
2.69578
2.69916
2.70275
2.70598
2.7085
2.71037
2.712
2.71356
2.71499
2.71579
2.71583
2.7155
2.71506
2.71479
2.7146
2.71422
2.71374
2.71332
2.71309
2.71303
2.71292
2.71252
2.71171
2.71062
2.70937
2.70792
2.70621
2.70434
2.70259
2.70127
2.70044
2.69994
2.69964
1
1
1
1
1
1
1
1
1
1
1
1
1
1
1
1
1
1
1
1
1
1
1
1
1
1
1
1
1
1
1
1
1
1
1
1
1
1
1
1
1
1
1
1
1
1
1
1
1
1
1
1
1
1
1
1
1
1
1
1
1
1
1
1.00001
2.16471
2.64203
2.63942
2.63969
2.64094
2.64412
2.64836
2.65287
2.65818
2.66399
2.66953
2.67445
2.67827
2.6808
2.68215
2.68301
2.68418
2.68568
2.68705
2.68797
2.68824
2.68853
2.68932
2.69117
2.69392
2.69702
2.69997
2.70241
2.70445
2.70643
2.70844
2.71031
2.71148
2.71166
2.71131
2.71074
2.71032
2.70984
2.70908
2.70819
2.70734
2.70664
2.70611
2.70555
2.7047
2.70346
2.70188
2.70006
2.69796
2.69553
2.69291
2.69039
2.6882
2.68632
2.68481
2.68368
1
1
1
1
1
1
1
1
1
1
1
1
1
1
1
1
1
1
1
1
1
1
1
1
1
1
1
1
1
1
1
1
1
1
1
1
1
1
1
1
1
1
1
1
1
1
1
1
1
1
1
1
1
1
1
1
1
1
1
1
1
1
1
1
1.99557
2.6371
2.64601
2.64534
2.6459
2.64627
2.64712
2.64917
2.6526
2.65701
2.66214
2.66727
2.67177
2.6753
2.67786
2.67991
2.68198
2.68403
2.68568
2.68657
2.68657
2.68618
2.68646
2.68771
2.6897
2.69197
2.69418
2.69617
2.69808
2.70022
2.70255
2.70484
2.70648
2.70696
2.70666
2.70609
2.70558
2.70491
2.70387
2.70255
2.70118
2.69995
2.69886
2.69772
2.69632
2.69452
2.69234
2.68981
2.68687
2.68344
2.67953
2.67542
2.6715
2.66815
2.66562
2.66446
1
1
1
1
1
1
1
1
1
1
1
1
1
1
1
1
1
1
1
1
1
1
1
1
1
1
1
1
1
1
1
1
1
1
1
1
1
1
1
1
1
1
1
1
1
1
1
1
1
1
1
1
1
1
1
1
1
1
1
1
1
1
1
1
1.77702
2.57959
2.64934
2.64867
2.64895
2.64871
2.64886
2.64939
2.65054
2.65295
2.65641
2.66038
2.66449
2.66832
2.67175
2.675
2.67815
2.68102
2.68329
2.68455
2.6847
2.68433
2.68437
2.68525
2.68659
2.68789
2.68906
2.69025
2.69167
2.69369
2.69613
2.69866
2.70069
2.70156
2.70143
2.70099
2.70049
2.69976
2.6985
2.69676
2.69486
2.69303
2.69129
2.68948
2.6874
2.68491
2.68196
2.67853
2.67449
2.66969
2.66419
2.65831
2.65243
2.64668
2.64064
2.6355
1
1
1
1
1
1
1
1
1
1
1
1
1
1
1
1
1
1
1
1
1
1
1
1
1
1
1
1
1
1
1
1
1
1
1
1
1
1
1
1
1
1
1
1
1
1
1
1
1
1
1
1
1
1
1
1
1
1
1
1
1
1
1
1
1.4806
2.46333
2.64229
2.64317
2.6458
2.64719
2.64839
2.64956
2.6507
2.65204
2.65365
2.65583
2.65857
2.6617
2.66515
2.66889
2.67271
2.6763
2.6793
2.68131
2.68214
2.68223
2.68255
2.68335
2.68417
2.68464
2.68479
2.68499
2.6857
2.68734
2.68954
2.69198
2.69414
2.69537
2.69556
2.69533
2.69496
2.69428
2.69289
2.6908
2.68837
2.68592
2.68347
2.68089
2.678
2.67463
2.67073
2.6662
2.66082
2.65434
2.64662
2.63765
2.62713
2.615
2.60287
2.59395
1
1
1
1
1
1
1
1
1
1
1
1
1
1
1
1
1
1
1
1
1
1
1
1
1
1
1
1
1
1
1
1
1
1
1
1
1
1
1
1
1
1
1
1
1
1
1
1
1
1
1
1
1
1
1
1
1
1
1
1
1
1
1
1
1.13097
2.34246
2.63382
2.6306
2.63434
2.63918
2.64414
2.64753
2.64969
2.65123
2.65249
2.65368
2.65508
2.65698
2.65956
2.66283
2.66653
2.6703
2.67377
2.67653
2.67834
2.67939
2.68039
2.68133
2.68183
2.68175
2.68111
2.68046
2.68061
2.68167
2.68328
2.68519
2.68707
2.68843
2.68899
2.68902
2.68884
2.6883
2.68691
2.68456
2.68167
2.67861
2.67544
2.67201
2.66815
2.66374
2.65869
2.65284
2.64583
2.63723
2.6265
2.61325
2.59713
2.57791
2.55844
2.54862
1
1
1
1
1
1
1
1
1
1
1
1
1
1
1
1
1
1
1
1
1
1
1
1
1
1
1
1
1
1
1
1
1
1
1
1
1
1
1
1
1
1
1
1
1
1
1
1
1
1
1
1
1
1
1
1
1
1
1
1
1
1
1
1
1.00446
2.25208
2.62108
2.61914
2.62482
2.63063
2.63662
2.64221
2.64614
2.64888
2.65074
2.65206
2.65313
2.65428
2.65587
2.65808
2.66087
2.66405
2.66741
2.67051
2.67321
2.67539
2.67733
2.67865
2.6791
2.67879
2.67763
2.67651
2.67637
2.67688
2.67772
2.67874
2.67991
2.68098
2.6817
2.68206
2.6821
2.68173
2.68044
2.67797
2.67471
2.67112
2.66723
2.6629
2.65797
2.65235
2.64595
2.63854
2.6296
2.61843
2.60423
2.58606
2.56144
2.52423
2.45719
2.31138
1
1
1
1
1
1
1
1
1
1
1
1
1
1
1
1
1
1
1
1
1
1
1
1
1
1
1
1
1
1
1
1
1
1
1
1
1
1
1
1
1
1
1
1
1
1
1
1
1
1
1
1
1
1
1
1
1
1
1
1
1
1
1
1
0.999996
2.08818
2.61456
2.62253
2.62552
2.62799
2.63149
2.63602
2.64047
2.64432
2.64736
2.64956
2.65108
2.65225
2.65339
2.65475
2.65646
2.65859
2.66119
2.66409
2.66717
2.67019
2.67297
2.67488
2.67559
2.67524
2.67407
2.67296
2.67271
2.67285
2.67289
2.67288
2.67306
2.6734
2.6739
2.67446
2.67475
2.67451
2.67335
2.67087
2.66739
2.66337
2.65884
2.6536
2.64752
2.64058
2.63268
2.62354
2.61244
2.59842
2.58011
2.5553
2.51942
2.46342
2.37483
2.16242
1
1
1
1
1
1
1
1
1
1
1
1
1
1
1
1
1
1
1
1
1
1
1
1
1
1
1
1
1
1
1
1
1
1
1
1
1
1
1
1
1
1
1
1
1
1
1
1
1
1
1
1
1
1
1
1
1
1
1
1
1
1
1
1
0.999998
1.86863
2.58741
2.62787
2.62711
2.62816
2.63
2.63196
2.63497
2.63872
2.64243
2.64561
2.64804
2.6498
2.65107
2.65211
2.65309
2.65427
2.65589
2.65813
2.66099
2.66422
2.66735
2.66975
2.67095
2.67089
2.67016
2.66944
2.66928
2.66919
2.66868
2.66766
2.66667
2.66609
2.6661
2.66648
2.66685
2.6667
2.66562
2.66317
2.65963
2.65533
2.65026
2.64418
2.63692
2.62857
2.61906
2.60807
2.5947
2.57776
2.55518
2.52484
2.47993
2.41716
2.29263
2.07993
1
1
1
1
1
1
1
1
1
1
1
1
1
1
1
1
1
1
1
1
1
1
1
1
1
1
1
1
1
1
1
1
1
1
1
1
1
1
1
1
1
1
1
1
1
1
1
1
1
1
1
1
1
1
1
1
1
1
1
1
1
1
1
1
1
1.55573
2.4852
2.62494
2.62518
2.6267
2.62762
2.62898
2.63122
2.63407
2.63741
2.64083
2.64391
2.64639
2.64818
2.64938
2.65018
2.65086
2.65176
2.65322
2.65543
2.65823
2.66104
2.66347
2.66515
2.66575
2.66567
2.6656
2.66571
2.66557
2.66468
2.66285
2.6608
2.65928
2.65859
2.65855
2.65863
2.65838
2.65721
2.65478
2.65128
2.64689
2.64142
2.6346
2.62625
2.6165
2.60534
2.59246
2.57681
2.55716
2.531
2.496
2.44623
2.36967
2.24059
2.05664
1
1
1
1
1
1
1
1
1
1
1
1
1
1
1
1
1
1
1
1
1
1
1
1
1
1
1
1
1
1
1
1
1
1
1
1
1
1
1
1
1
1
1
1
1
1
1
1
1
1
1
1
1
1
1
1
1
1
1
1
1
1
1
1
1
1.17555
2.35794
2.62143
2.61637
2.61839
2.62138
2.62486
2.62755
2.63009
2.63288
2.63595
2.63907
2.64193
2.64425
2.64592
2.64698
2.64765
2.64829
2.64924
2.65074
2.65273
2.6548
2.65678
2.65849
2.65968
2.66046
2.66116
2.66164
2.66154
2.66049
2.65819
2.65544
2.65321
2.6518
2.65101
2.65044
2.64969
2.6482
2.6457
2.64231
2.63795
2.63226
2.62486
2.61555
2.60454
2.59179
2.57708
2.55926
2.53701
2.50807
2.46918
2.41554
2.33386
2.21457
2.06449
1
1
1
1
1
1
1
1
1
1
1
1
1
1
1
1
1
1
1
1
1
1
1
1
1
1
1
1
1
1
1
1
1
1
1
1
1
1
1
1
1
1
1
1
1
1
1
1
1
1
1
1
1
1
1
1
1
1
1
1
1
1
1
1
1
1.00807
2.25053
2.60682
2.6058
2.61021
2.61474
2.61956
2.62315
2.62605
2.62874
2.63149
2.63431
2.63709
2.63961
2.64167
2.64319
2.64422
2.645
2.6458
2.64681
2.64802
2.64921
2.65043
2.65173
2.65308
2.65449
2.65587
2.65679
2.65682
2.6558
2.65337
2.65039
2.64776
2.64574
2.64408
2.64254
2.6409
2.63881
2.63608
2.63272
2.62847
2.62269
2.61489
2.60483
2.59275
2.57862
2.56227
2.54255
2.51801
2.48671
2.44563
2.39074
2.31024
2.20439
2.08184
1
1
1
1
1
1
1
1
1
1
1
1
1
1
1
1
1
1
1
1
1
1
1
1
1
1
1
1
1
1
1
1
1
1
1
1
1
1
1
1
1
1
1
1
1
1
1
1
1
1
1
1
1
1
1
1
1
1
1
1
1
1
1
1
1
1
2.05886
2.59346
2.60657
2.61012
2.61254
2.61542
2.61862
2.62161
2.62436
2.62697
2.62954
2.63208
2.63453
2.63676
2.63865
2.64017
2.64134
2.6423
2.64312
2.64381
2.64428
2.64479
2.64549
2.64656
2.64807
2.64977
2.65103
2.65122
2.65037
2.64818
2.64543
2.64277
2.64034
2.6379
2.63521
2.63234
2.62932
2.62613
2.62266
2.61846
2.61268
2.60464
2.59406
2.58116
2.56595
2.54824
2.52698
2.50072
2.46793
2.42507
2.3709
2.29611
2.20617
2.10086
1
1
1
1
1
1
1
1
1
1
1
1
1
1
1
1
1
1
1
1
1
1
1
1
1
1
1
1
1
1
1
1
1
1
1
1
1
1
1
1
1
1
1
1
1
1
1
1
1
1
1
1
1
1
1
1
1
1
1
1
1
1
1
1
1
0.999998
1.79064
2.548
2.60826
2.60946
2.61137
2.61311
2.61493
2.61724
2.61978
2.62232
2.62476
2.62711
2.62939
2.63157
2.63364
2.6355
2.63709
2.63836
2.63926
2.6397
2.6398
2.63982
2.63999
2.64058
2.64169
2.64317
2.64441
2.64472
2.64409
2.64241
2.6402
2.63784
2.63527
2.63221
2.6284
2.62418
2.62005
2.61619
2.6124
2.60808
2.60222
2.59403
2.58317
2.56976
2.5538
2.53507
2.5127
2.48539
2.45164
2.40828
2.35583
2.28802
2.20999
2.11985
1
1
1
1
1
1
1
1
1
1
1
1
1
1
1
1
1
1
1
1
1
1
1
1
1
1
1
1
1
1
1
1
1
1
1
1
1
1
1
1
1
1
1
1
1
1
1
1
1
1
1
1
1
1
1
1
1
1
1
1
1
1
1
1
1
0.999999
1.42181
2.43059
2.60638
2.60559
2.60746
2.60953
2.61165
2.61371
2.61588
2.61812
2.62035
2.62249
2.62454
2.62655
2.62855
2.63052
2.63229
2.63378
2.63486
2.6354
2.63542
2.63527
2.63518
2.63532
2.63579
2.63658
2.63735
2.63757
2.63715
2.63602
2.63448
2.63262
2.63017
2.62668
2.62198
2.61661
2.61138
2.6067
2.60231
2.59758
2.59145
2.58304
2.57205
2.55847
2.54217
2.52279
2.4997
2.47185
2.43763
2.396
2.3446
2.28318
2.2151
2.13706
1
1
1
1
1
1
1
1
1
1
1
1
1
1
1
1
1
1
1
1
1
1
1
1
1
1
1
1
1
1
1
1
1
1
1
1
1
1
1
1
1
1
1
1
1
1
1
1
1
1
1
1
1
1
1
1
1
1
1
1
1
1
1
1
1
1
1.05125
2.29663
2.606
2.60071
2.60138
2.60396
2.60746
2.6099
2.61204
2.61411
2.61613
2.61807
2.61992
2.62172
2.62354
2.62535
2.62706
2.62859
2.62981
2.63058
2.63082
2.63076
2.63063
2.6305
2.63039
2.63033
2.63031
2.63015
2.62974
2.62905
2.62813
2.6268
2.62456
2.62084
2.61555
2.60941
2.60335
2.59788
2.59274
2.58731
2.5806
2.57178
2.5607
2.54721
2.53096
2.51143
2.48803
2.45983
2.42654
2.38607
2.33741
2.28101
2.22018
2.15078
1
1
1
1
1
1
1
1
1
1
1
1
1
1
1
1
1
1
1
1
1
1
1
1
1
1
1
1
1
1
1
1
1
1
1
1
1
1
1
1
1
1
1
1
1
1
1
1
1
1
1
1
1
1
1
1
1
1
1
1
1
1
1
1
1
1
1.00055
2.13847
2.58434
2.58816
2.59386
2.59811
2.60228
2.60523
2.60773
2.60993
2.61194
2.61381
2.61553
2.61717
2.61879
2.62029
2.62176
2.62315
2.62436
2.6253
2.62588
2.62613
2.62609
2.62589
2.62539
2.6246
2.62371