/*--------------------------------*- C++ -*----------------------------------*\
  =========                 |
  \\      /  F ield         | OpenFOAM: The Open Source CFD Toolbox
   \\    /   O peration     | Website:  https://openfoam.org
    \\  /    A nd           | Version:  7
     \\/     M anipulation  |
\*---------------------------------------------------------------------------*/
FoamFile
{
    version     2.0;
    format      ascii;
    class       volScalarField;
    location    "6";
    object      p;
}
// * * * * * * * * * * * * * * * * * * * * * * * * * * * * * * * * * * * * * //

dimensions      [0 2 -2 0 0 0 0];

internalField   nonuniform List<scalar> 
344
(
-0.856761
-0.834121
-0.810617
-0.786345
-0.76143
-0.736007
-0.710205
-0.684148
-0.657948
-0.631704
-0.605507
-0.579434
-0.553554
-0.527926
-0.502602
-0.477626
-0.453035
-0.428859
-0.405126
-0.381856
-0.359067
-0.336771
-0.314979
-0.293698
-0.272932
-0.252685
-0.232957
-0.213747
-0.195051
-0.176867
-0.15919
-0.142013
-0.12533
-0.109135
-0.093418
-0.0781724
-0.0633893
-0.0490598
-0.035175
-0.0217258
-0.00870274
0.00390331
0.0161017
0.0279018
0.0393127
0.0503437
0.0610038
0.071302
0.0812471
0.0908477
0.100113
0.10905
0.117668
0.125974
0.133978
0.141685
0.149104
0.156242
-1.06583
-1.01122
-0.988188
-0.960605
-0.939475
-0.919166
-0.899077
-0.878374
-0.856784
-0.834237
-0.810786
-0.786543
-0.761643
-0.736225
-0.710423
-0.684361
-0.658154
-0.631902
-0.605694
-0.579611
-0.55372
-0.528082
-0.502748
-0.477761
-0.45316
-0.428975
-0.405232
-0.381953
-0.359155
-0.336851
-0.315051
-0.293763
-0.272991
-0.252737
-0.233003
-0.213786
-0.195086
-0.176896
-0.159214
-0.142033
-0.125346
-0.109146
-0.0934262
-0.0781773
-0.063391
-0.0490587
-0.0351712
-0.0217194
-0.00869407
0.00391412
0.0161145
0.0279164
0.039329
0.0503615
0.061023
0.0713225
0.0812688
0.0908705
0.100136
0.109074
0.117693
0.126
0.134004
0.141712
0.149132
0.156271
-1.03382
-0.999264
-0.97992
-0.956336
-0.936969
-0.91767
-0.898164
-0.877811
-0.85644
-0.834035
-0.81068
-0.786502
-0.761646
-0.736259
-0.710479
-0.684432
-0.658235
-0.631988
-0.605784
-0.579702
-0.55381
-0.52817
-0.502833
-0.477843
-0.453237
-0.429047
-0.4053
-0.382016
-0.359213
-0.336904
-0.315099
-0.293806
-0.273029
-0.252771
-0.233032
-0.213811
-0.195106
-0.176913
-0.159227
-0.142043
-0.125352
-0.10915
-0.0934265
-0.0781747
-0.0633858
-0.049051
-0.0351612
-0.0217073
-0.00867999
0.00393006
0.0161322
0.0279356
0.0393497
0.0503836
0.0610464
0.071347
0.0812943
0.090897
0.100164
0.109103
0.117722
0.12603
0.134035
0.141743
0.149163
0.156302
-1.00762
-0.987446
-0.971496
-0.95159
-0.933939
-0.915695
-0.896825
-0.876876
-0.855774
-0.833553
-0.810328
-0.786245
-0.761461
-0.736128
-0.710388
-0.684374
-0.6582
-0.631973
-0.605783
-0.579711
-0.553828
-0.528193
-0.502859
-0.477871
-0.453267
-0.429077
-0.405329
-0.382044
-0.359239
-0.336927
-0.31512
-0.293824
-0.273045
-0.252784
-0.233042
-0.213819
-0.195111
-0.176915
-0.159227
-0.142039
-0.125347
-0.109141
-0.0934159
-0.078162
-0.063371
-0.0490343
-0.0351426
-0.0216869
-0.00865798
0.0039536
0.0161571
0.0279619
0.0393773
0.0504123
0.0610761
0.0713777
0.0813259
0.0909294
0.100197
0.109136
0.117756
0.126065
0.13407
0.141779
0.149199
0.156339
-0.986184
-0.976243
-0.963284
-0.946598
-0.930537
-0.913356
-0.89515
-0.87564
-0.85484
-0.832835
-0.809768
-0.785806
-0.761113
-0.735853
-0.71017
-0.684201
-0.658064
-0.631866
-0.605699
-0.579646
-0.553778
-0.528155
-0.50283
-0.477849
-0.45325
-0.429064
-0.405319
-0.382035
-0.359231
-0.336921
-0.315113
-0.293817
-0.273036
-0.252774
-0.233031
-0.213806
-0.195097
-0.1769
-0.159209
-0.14202
-0.125326
-0.109119
-0.093392
-0.0781365
-0.063344
-0.0490057
-0.0351127
-0.0216557
-0.00862549
0.00398726
0.0161919
0.0279977
0.039414
0.0504499
0.0611145
0.0714168
0.0813657
0.0909698
0.100238
0.109178
0.117798
0.126107
0.134112
0.141822
0.149242
0.156382
-0.968659
-0.965941
-0.955495
-0.941548
-0.926949
-0.910784
-0.893237
-0.874182
-0.853704
-0.831934
-0.809045
-0.785221
-0.760634
-0.735459
-0.709846
-0.683932
-0.65784
-0.631679
-0.605543
-0.579515
-0.553667
-0.52806
)
;

boundaryField
{
    inlet
    {
        type            zeroGradient;
    }
    outlet
    {
        type            fixedValue;
        value           nonuniform 0();
    }
    wall
    {
        type            zeroGradient;
    }
    wedge1
    {
        type            wedge;
    }
    wedge2
    {
        type            wedge;
    }
    axis
    {
        type            empty;
    }
    procBoundary27to21
    {
        type            processor;
        value           nonuniform List<scalar> 
67
(
-0.856336
-0.833658
-0.810147
-0.785885
-0.760989
-0.735589
-0.709813
-0.683782
-0.657608
-0.631389
-0.605215
-0.579165
-0.553306
-0.527699
-0.502394
-0.477436
-0.452861
-0.428701
-0.404982
-0.381726
-0.358949
-0.336664
-0.314883
-0.293612
-0.272856
-0.252618
-0.232898
-0.213694
-0.195006
-0.176828
-0.159157
-0.141985
-0.125308
-0.109117
-0.0934042
-0.0781626
-0.0633831
-0.0490569
-0.0351752
-0.0217288
-0.00870834
0.00389534
0.0160916
0.0278896
0.0392987
0.0503281
0.0609867
0.0712835
0.0812273
0.0908269
0.100091
0.109027
0.117644
0.12595
0.133953
0.141659
0.149078
0.156216
-1.10435
-1.02291
-0.995787
-0.964164
-0.941303
-0.920081
-0.899493
-0.878512
-0.878512
)
;
    }
    procBoundary27to22
    {
        type            processor;
        value           uniform 0.163107;
    }
    procBoundary27to28
    {
        type            processor;
        value           nonuniform List<scalar> 4(0.163135 0.163167 0.163204 0.163247);
    }
    procBoundary27to33
    {
        type            processor;
        value           nonuniform List<scalar> 
67
(
-0.50275
-0.47778
-0.453189
-0.429011
-0.405271
-0.381992
-0.359191
-0.336883
-0.315077
-0.293782
-0.273002
-0.25274
-0.232997
-0.213772
-0.195062
-0.176864
-0.159173
-0.141983
-0.125288
-0.10908
-0.0933519
-0.0780954
-0.063302
-0.0489628
-0.0350689
-0.021611
-0.00858
0.00403352
0.0162389
0.0280453
0.0394622
0.0504987
0.0611638
0.0714666
0.0814158
0.0910203
0.100288
0.109229
0.117849
0.126159
0.134164
0.141873
0.149294
0.156433
-0.954371
-0.956692
-0.948289
-0.936629
-0.923331
-0.908106
-0.891191
-0.872585
-0.852433
-0.830908
-0.808206
-0.784527
-0.760057
-0.734976
-0.709438
-0.683586
-0.657546
-0.631426
-0.605325
-0.579326
-0.553502
-0.50275
-0.527916
)
;
    }
}


// ************************************************************************* //
