/*--------------------------------*- C++ -*----------------------------------*\
  =========                 |
  \\      /  F ield         | OpenFOAM: The Open Source CFD Toolbox
   \\    /   O peration     | Website:  https://openfoam.org
    \\  /    A nd           | Version:  7
     \\/     M anipulation  |
\*---------------------------------------------------------------------------*/
FoamFile
{
    version     2.0;
    format      ascii;
    class       volVectorField;
    location    "10";
    object      U;
}
// * * * * * * * * * * * * * * * * * * * * * * * * * * * * * * * * * * * * * //

dimensions      [0 1 -1 0 0 0 0];

internalField   nonuniform List<vector> 
433
(
(0.658552 -0.53696 -8.30299e-21)
(0.677542 -0.538221 2.89371e-20)
(0.648346 -0.532121 3.70163e-20)
(0.669592 -0.53817 -2.27181e-20)
(0.689806 -0.542157 9.78542e-21)
(0.708965 -0.544087 -2.08996e-20)
(0.727062 -0.543988 3.51916e-20)
(0.744101 -0.541914 -1.19837e-20)
(0.631479 -0.513321 -2.21618e-20)
(0.655357 -0.52408 2.50834e-20)
(0.678179 -0.532864 2.53601e-20)
(0.699898 -0.539623 -6.29215e-20)
(0.720481 -0.544327 5.05434e-20)
(0.739906 -0.546969 -1.55512e-20)
(0.758164 -0.547564 -8.88871e-21)
(0.775264 -0.546153 9.23302e-21)
(0.791227 -0.542801 -2.98117e-20)
(0.806094 -0.537596 -8.74059e-21)
(0.606485 -0.481419 -3.06481e-21)
(0.633198 -0.496443 8.01959e-21)
(0.658897 -0.509705 -1.06159e-20)
(0.683512 -0.521112 6.68949e-21)
(0.706984 -0.530587 -2.10529e-20)
(0.729263 -0.53807 2.09236e-20)
(0.750312 -0.54352 -1.12051e-20)
(0.770107 -0.546917 -7.98281e-21)
(0.788642 -0.548263 3.74963e-20)
(0.805926 -0.547588 -1.02595e-20)
(0.821991 -0.544942 1.51689e-20)
(0.836885 -0.540403 -1.77312e-20)
(0.850684 -0.534071 -1.8808e-20)
(0.572448 -0.438238 8.37123e-21)
(0.602004 -0.456779 -2.01324e-21)
(0.630649 -0.47386 -2.72919e-21)
(0.658298 -0.489365 -2.81427e-21)
(0.684867 -0.503183 2.39294e-21)
(0.710283 -0.515215 7.85275e-22)
(0.734479 -0.525375 -2.34515e-21)
(0.757403 -0.533592 -2.50626e-21)
(0.779013 -0.539812 2.66452e-21)
(0.799283 -0.544005 1.23052e-21)
(0.818208 -0.54616 -5.27178e-21)
(0.835798 -0.546294 2.75398e-21)
(0.852089 -0.544447 1.03649e-20)
(0.867139 -0.540687 -1.03063e-20)
(0.881035 -0.535106 2.14796e-20)
(0.893893 -0.527825 -9.09594e-21)
(0.905864 -0.518991 1.97135e-20)
(0.496217 -0.364249 1.53843e-20)
(0.529083 -0.386337 6.84702e-21)
(0.561296 -0.407444 -1.58493e-20)
(0.592754 -0.427444 3.19474e-22)
(0.62336 -0.44621 6.11005e-21)
(0.653016 -0.463618 7.06427e-21)
(0.68163 -0.479544 -7.69152e-21)
(0.709114 -0.493875 8.03937e-21)
(0.735386 -0.506503 -1.11357e-20)
(0.760377 -0.517333 1.84532e-20)
(0.784025 -0.526284 -2.26432e-21)
(0.806287 -0.533293 -2.00898e-21)
(0.827133 -0.538317 -2.99729e-21)
(0.846554 -0.541333 5.6257e-22)
(0.86456 -0.542346 -2.83528e-21)
(0.881188 -0.541384 5.22041e-21)
(0.896498 -0.538505 -3.82843e-21)
(0.910579 -0.533796 -7.21536e-21)
(0.923551 -0.527372 5.31542e-21)
(0.935564 -0.519383 -2.132e-20)
(0.946793 -0.51001 2.34746e-20)
(0.957443 -0.499466 2.61802e-20)
(0.441778 -0.305464 -6.90828e-21)
(0.47675 -0.328724 -8.41716e-21)
(0.511261 -0.351356 -1.05837e-20)
(0.545211 -0.373243 6.12094e-20)
(0.578497 -0.394261 2.33062e-22)
(0.611015 -0.414286 -3.40094e-20)
(0.642662 -0.43319 2.54923e-21)
(0.673335 -0.450846 1.50771e-21)
(0.702935 -0.46713 2.87398e-20)
(0.731368 -0.481921 -5.86766e-21)
(0.758546 -0.495107 -5.68472e-21)
(0.784392 -0.506584 -2.03015e-20)
(0.808841 -0.516263 -1.20948e-20)
(0.831839 -0.524069 -6.68103e-21)
(0.853353 -0.529948 1.33271e-20)
(0.873369 -0.533866 6.99791e-21)
(0.891892 -0.535813 7.93104e-22)
(0.908954 -0.535809 4.16558e-23)
(0.924614 -0.533898 -2.39976e-21)
(0.938955 -0.530158 -4.34529e-21)
(0.95209 -0.524698 1.79673e-21)
(0.964155 -0.517658 2.35794e-21)
(0.975303 -0.509214 -5.78899e-21)
(0.985699 -0.49957 2.65754e-21)
(0.995497 -0.488946 5.66071e-21)
(1.00475 -0.477654 -2.43264e-20)
(0.379821 -0.245121 1.13864e-20)
(0.416394 -0.268554 -1.0833e-21)
(0.452712 -0.29168 1.39237e-20)
(0.488682 -0.314398 -7.88553e-21)
(0.524202 -0.3366 2.47663e-20)
(0.559169 -0.358173 -7.45419e-20)
(0.593478 -0.378995 1.57528e-20)
(0.62702 -0.398945 1.45616e-20)
(0.659688 -0.417896 -5.95822e-21)
(0.691372 -0.435719 6.662e-20)
(0.721968 -0.452289 -3.68591e-20)
(0.751375 -0.467481 -2.51784e-20)
(0.779499 -0.481178 7.02352e-21)
(0.806254 -0.49327 -1.89961e-20)
(0.831567 -0.503657 1.81608e-20)
(0.855379 -0.512256 2.26616e-20)
(0.877648 -0.519002 -5.34656e-21)
(0.898349 -0.523847 -2.15037e-20)
(0.917484 -0.526771 1.34367e-20)
(0.935075 -0.527778 -9.87691e-21)
(0.951171 -0.526902 1.70326e-20)
(0.965847 -0.524206 -1.12067e-21)
(0.979202 -0.519787 7.45322e-21)
(0.991355 -0.513774 1.75442e-21)
(1.00244 -0.506327 1.87528e-21)
(1.01258 -0.497631 -7.6765e-22)
(1.0219 -0.487882 3.79937e-21)
(1.03042 -0.477352 5.3214e-21)
(1.03797 -0.466484 -4.16349e-22)
(1.04465 -0.455036 6.17569e-22)
(0.311848 -0.186146 2.31388e-20)
(0.349443 -0.208861 -4.08998e-20)
(0.38699 -0.23154 1.26322e-20)
(0.424401 -0.254103 -4.2878e-21)
(0.461587 -0.276462 1.33875e-20)
(0.498449 -0.298522 1.59692e-20)
(0.534887 -0.32018 -1.03043e-22)
(0.570794 -0.341327 -5.61855e-20)
(0.606063 -0.361848 -1.59608e-20)
(0.640581 -0.381622 -3.1405e-20)
(0.674235 -0.400525 6.41963e-20)
(0.706913 -0.41843 -3.54738e-20)
(0.738503 -0.435208 3.81961e-20)
(0.768898 -0.450735 -7.51091e-21)
(0.797996 -0.464887 -1.36419e-20)
(0.825705 -0.477548 1.38439e-20)
(0.851941 -0.488613 3.15429e-20)
(0.876635 -0.497988 -4.73295e-20)
(0.899737 -0.505596 2.75433e-20)
(0.921212 -0.511379 -3.11077e-20)
(0.94105 -0.515303 -2.58173e-20)
(0.959262 -0.517358 2.05704e-20)
(0.975886 -0.517562 3.7564e-21)
(0.990982 -0.515964 -1.94806e-20)
(1.00463 -0.512645 1.32085e-20)
(1.01694 -0.507717 -4.41161e-21)
(1.02802 -0.501321 -3.29957e-21)
(1.03797 -0.493619 4.74062e-21)
(1.04689 -0.484781 -5.425e-22)
(1.05481 -0.475051 3.13745e-21)
(1.06157 -0.464825 3.99699e-21)
(1.06734 -0.453832 -2.71808e-22)
(0.277682 -0.152345 3.01694e-20)
(0.315833 -0.173783 -2.25252e-20)
(0.354053 -0.195337 2.34869e-20)
(0.392262 -0.216943 -6.18847e-20)
(0.430375 -0.238528 1.63714e-20)
(0.468299 -0.260011 6.54702e-21)
(0.505938 -0.281302 1.73077e-21)
(0.54319 -0.302307 4.23765e-20)
(0.579947 -0.322922 -3.20054e-20)
(0.616099 -0.343036 1.46029e-20)
(0.651531 -0.362534 6.50574e-20)
(0.686127 -0.381293 -2.0694e-21)
(0.719768 -0.399188 -2.73742e-20)
(0.752338 -0.416092 2.61193e-21)
(0.783724 -0.431877 -1.81024e-20)
(0.813814 -0.446418 3.39526e-21)
(0.842509 -0.459595 1.61117e-24)
(0.869715 -0.471293 9.15192e-21)
(0.895354 -0.481412 -8.82478e-22)
(0.919361 -0.489864 -6.2399e-20)
(0.941693 -0.496579 5.16856e-20)
(0.962324 -0.501509 2.56507e-20)
(0.981254 -0.504629 -2.76183e-20)
(0.998503 -0.505941 4.38285e-20)
(1.01412 -0.505479 -2.77663e-20)
(1.02816 -0.503302 -6.69327e-21)
(1.04073 -0.499505 -6.31642e-23)
(1.05189 -0.494206 2.47081e-20)
(1.06176 -0.487545 -1.70925e-20)
(1.07042 -0.47967 3.21933e-21)
(1.07789 -0.470797 4.55776e-21)
(1.08406 -0.461291 -1.7751e-21)
(1.08911 -0.450873 -2.73523e-21)
(0.203108 -0.101232 2.12548e-20)
(0.241238 -0.120807 3.19086e-20)
(0.27962 -0.14067 1.64111e-21)
(0.318186 -0.160779 -4.65472e-20)
(0.356866 -0.181081 4.42821e-20)
(0.395581 -0.201519 1.30443e-20)
(0.434246 -0.222028 -7.1468e-21)
(0.472771 -0.242534 -5.34775e-20)
(0.51106 -0.262956 4.93182e-20)
(0.549011 -0.283205 -2.65765e-20)
(0.586517 -0.303185 3.23993e-21)
(0.623464 -0.32279 2.44002e-20)
(0.659736 -0.341911 -3.29589e-20)
(0.695214 -0.360428 3.06528e-20)
(0.729776 -0.37822 1.08639e-20)
(0.763299 -0.39516 -1.68664e-20)
(0.795664 -0.411122 -7.18415e-21)
(0.826753 -0.425977 -4.65042e-21)
(0.856455 -0.439602 2.79933e-20)
(0.88467 -0.451878 4.27843e-20)
(0.911305 -0.462695 -3.43658e-20)
(0.936285 -0.471956 4.31626e-20)
(0.959552 -0.479581 -1.49403e-20)
(0.981066 -0.485506 2.10669e-20)
(1.00081 -0.489693 -3.37546e-20)
(1.01879 -0.492126 2.73662e-20)
(1.03504 -0.49282 -5.74067e-20)
(1.04959 -0.491815 2.62631e-20)
(1.06253 -0.489185 7.52589e-21)
(1.07392 -0.485026 2.77991e-21)
(1.08385 -0.479455 5.03312e-21)
(1.09239 -0.472598 -6.73166e-21)
(1.09958 -0.46465 -9.64655e-21)
(1.10535 -0.455948 -1.86346e-21)
(1.10987 -0.446221 -6.91642e-21)
(0.127804 -0.0571868 3.81456e-20)
(0.165317 -0.0744639 -1.51823e-21)
(0.203237 -0.092141 1.63407e-20)
(0.241512 -0.110194 -2.38765e-20)
(0.280083 -0.128592 3.69959e-20)
(0.318888 -0.147299 -4.25758e-20)
(0.357856 -0.166272 -3.06763e-20)
(0.396912 -0.185461 -2.92764e-20)
(0.435973 -0.204807 -1.98206e-22)
(0.474953 -0.224247 2.64958e-20)
(0.513756 -0.243707 2.25784e-20)
(0.552281 -0.263105 -3.17911e-20)
(0.590421 -0.282352 1.64004e-20)
(0.628063 -0.301351 4.6966e-21)
(0.665089 -0.319995 -5.52824e-20)
(0.701377 -0.338172 5.13098e-20)
(0.736803 -0.355765 5.46704e-20)
(0.771239 -0.372648 -6.11412e-20)
(0.80456 -0.388697 -1.91463e-20)
(0.83664 -0.403783 4.70239e-20)
(0.867361 -0.41778 -1.18173e-20)
(0.89661 -0.430564 -5.7875e-20)
(0.924285 -0.44202 4.35385e-20)
(0.950297 -0.452043 -6.7457e-20)
(0.974572 -0.460538 7.08202e-20)
(0.997056 -0.467433 -4.94499e-20)
(1.01771 -0.472671 -2.19381e-20)
(1.03654 -0.476221 3.96737e-20)
(1.05353 -0.478078 -4.23177e-22)
(1.06872 -0.478263 -2.86866e-20)
(1.08217 -0.476827 1.31151e-20)
(1.09393 -0.473844 -2.55318e-20)
(1.10408 -0.469409 1.23421e-20)
(1.11268 -0.463628 -3.53051e-21)
(1.11978 -0.456672 3.16428e-20)
(1.12533 -0.448856 -2.05405e-20)
(1.12949 -0.439932 7.79024e-22)
(0.0538141 -0.0213119 -4.48518e-20)
(0.0901738 -0.0360186 1.66357e-21)
(0.127062 -0.0511965 6.59271e-20)
(0.164442 -0.0668258 -5.19617e-20)
(0.202272 -0.0828919 2.5039e-20)
(0.240501 -0.0993776 -2.60147e-20)
(0.279076 -0.11626 -2.77938e-20)
(0.317937 -0.133509 5.20764e-20)
(0.357017 -0.151091 5.10768e-21)
(0.396245 -0.168962 5.67946e-21)
(0.435542 -0.187075 -3.54395e-20)
(0.474822 -0.205371 8.21759e-20)
(0.513994 -0.223786 -6.54086e-20)
(0.552959 -0.242246 9.28429e-21)
(0.591609 -0.26067 -1.96214e-20)
(0.629835 -0.278967 9.04719e-20)
(0.667516 -0.297039 -5.14118e-20)
(0.704531 -0.314779 -2.72713e-20)
(0.740751 -0.332074 3.3669e-20)
(0.776046 -0.348804 -2.0195e-20)
(0.810285 -0.364846 -7.25353e-21)
(0.843336 -0.380072 1.49224e-21)
(0.875072 -0.394354 -7.70548e-21)
(0.905371 -0.407568 5.62459e-20)
(0.934117 -0.419591 -6.37527e-20)
(0.96121 -0.430311 1.09928e-19)
(0.986559 -0.439625 -1.30732e-19)
(1.0101 -0.447447 1.89092e-20)
(1.03176 -0.453705 -4.1027e-20)
(1.05154 -0.458354 6.16714e-20)
(1.0694 -0.461367 -7.11659e-20)
(1.08538 -0.462746 7.90117e-20)
(1.09949 -0.46252 -3.00335e-20)
(1.11178 -0.460742 5.72682e-21)
(1.12231 -0.457484 1.4481e-20)
(1.13116 -0.452832 -7.36569e-21)
(1.13835 -0.446932 -2.24735e-20)
(1.14387 -0.440074 -1.7372e-20)
(1.14786 -0.432063 -1.56275e-21)
(0.0177779 -0.00621023 7.74749e-21)
(0.0531476 -0.018706 3.14983e-20)
(0.0891073 -0.0317044 6.44708e-21)
(0.12563 -0.0451946 1.96036e-20)
(0.162685 -0.0591609 -4.16587e-20)
(0.200233 -0.0735952 -3.76317e-20)
(0.238228 -0.088487 -1.74398e-20)
(0.276621 -0.10382 9.81455e-20)
(0.315355 -0.119573 -9.62956e-20)
(0.35437 -0.135717 6.6791e-20)
(0.393597 -0.15222 -5.38736e-21)
(0.432963 -0.169039 1.05078e-20)
(0.472385 -0.186126 5.70871e-21)
(0.511774 -0.203424 -7.02288e-20)
(0.551035 -0.220869 4.87719e-20)
(0.590064 -0.238386 -2.35528e-20)
(0.628751 -0.255895 -6.13348e-20)
(0.666978 -0.273302 6.89265e-20)
(0.704622 -0.290509 -1.66569e-20)
(0.741554 -0.307409 -2.68278e-20)
(0.77764 -0.323887 4.41692e-20)
(0.812746 -0.339823 -6.92752e-20)
(0.846733 -0.355092 6.93791e-21)
(0.879467 -0.369566 2.51759e-20)
(0.910815 -0.38312 1.11834e-20)
(0.940653 -0.395627 -6.78988e-20)
(0.968864 -0.406968 4.96289e-20)
(0.995344 -0.417033 3.13338e-20)
(1.02001 -0.425724 6.4179e-20)
(1.04278 -0.432957 -1.1539e-19)
(1.06361 -0.438669 4.44251e-20)
(1.08248 -0.442817 9.00016e-21)
(1.09937 -0.445382 -1.10335e-20)
(1.11429 -0.446372 1.00073e-21)
(1.12728 -0.445817 -3.01346e-20)
(1.13839 -0.44377 2.65583e-20)
(1.14766 -0.440295 4.41934e-22)
(1.15515 -0.435519 2.17997e-20)
(1.16085 -0.429704 -8.94341e-21)
(1.16489 -0.422678 1.7619e-20)
(0.197155 -0.0643592 6.56177e-21)
(0.23473 -0.0776486 -2.20593e-20)
(0.272756 -0.0914174 5.44844e-20)
(0.311184 -0.105651 -3.3921e-20)
(0.349956 -0.120329 2.83053e-20)
(0.389009 -0.135425 -2.53602e-20)
(0.428275 -0.150905 -2.05401e-20)
(0.467675 -0.166731 3.8341e-20)
(0.507125 -0.182853 -6.09668e-20)
(0.546534 -0.199215 9.13743e-20)
(0.5858 -0.215752 -1.0672e-19)
(0.624817 -0.23239 1.89908e-20)
(0.66347 -0.249047 5.27334e-20)
(0.701634 -0.265629 -2.6079e-20)
(0.739182 -0.282038 5.30283e-20)
(0.775978 -0.298165 -1.0242e-20)
(0.811884 -0.313893 -4.52254e-20)
(0.846757 -0.329103 4.70585e-20)
(0.880456 -0.343669 -1.41542e-20)
(0.912841 -0.357463 1.45791e-20)
(0.943774 -0.37036 3.65776e-22)
(0.973127 -0.382235 3.30558e-20)
(1.00078 -0.39297 -2.06697e-20)
(1.02663 -0.402459 -1.65428e-20)
(1.05059 -0.410605 2.35861e-20)
(1.07259 -0.417331 1.00745e-21)
(1.09257 -0.422577 2.88639e-20)
(1.11051 -0.426305 -4.50676e-20)
(1.12641 -0.428502 5.96417e-20)
(1.14027 -0.429178 -4.64541e-20)
(1.15212 -0.428364 1.23509e-20)
(1.16201 -0.426109 1.03576e-20)
(1.16998 -0.42252 2.54664e-20)
(1.17605 -0.41783 -4.9983e-20)
(1.18032 -0.411838 -6.62192e-22)
(0.618073 -0.208711 -5.0973e-20)
(0.65702 -0.224537 8.48159e-20)
(0.695585 -0.240408 -5.86712e-20)
(0.73364 -0.256232 -4.03372e-20)
(0.771051 -0.271909 2.29241e-20)
(0.807676 -0.287328 2.54862e-20)
(0.84337 -0.302375 -3.94462e-21)
(0.877986 -0.316926 3.13529e-20)
(0.911376 -0.330856 -7.12933e-21)
(0.943393 -0.344039 -4.16872e-20)
(0.973897 -0.356348 3.61916e-20)
(1.00276 -0.36766 -2.99135e-20)
(1.02985 -0.377861 4.3344e-21)
(1.05506 -0.386844 1.47253e-22)
(1.07831 -0.394518 5.41142e-21)
(1.09953 -0.400809 -3.6353e-20)
(1.11866 -0.405661 -8.93393e-22)
(1.13567 -0.409041 -1.56969e-20)
(1.15056 -0.410939 -1.61848e-20)
(1.16334 -0.411365 8.37451e-21)
(1.17404 -0.410348 2.97596e-20)
(1.18268 -0.407977 -3.80601e-20)
(1.18929 -0.40445 2.78708e-20)
(1.19395 -0.39957 2.54874e-20)
(0.939457 -0.316922 4.9656e-20)
(0.971103 -0.329556 -1.625e-20)
(1.00118 -0.341341 -1.34541e-21)
(1.02954 -0.352155 2.12616e-20)
(1.05607 -0.361884 2.22254e-20)
(1.08065 -0.370427 5.16568e-21)
(1.1032 -0.377693 -2.65606e-20)
(1.12363 -0.383613 -9.71188e-21)
(1.14191 -0.388134 -1.85061e-21)
(1.15799 -0.391227 3.10836e-20)
(1.17187 -0.392883 7.61371e-21)
(1.18356 -0.39311 -1.02544e-20)
(1.19308 -0.391975 3.79377e-21)
(1.20044 -0.389642 9.78077e-21)
(1.20569 -0.385934 9.42757e-22)
(1.17755 -0.373044 1.31438e-20)
(1.19042 -0.374504 6.70635e-21)
(1.20101 -0.374609 -1.07607e-20)
(1.20932 -0.373489 2.22574e-20)
(1.21537 -0.370993 -5.27046e-20)
(1.06997 -0.402594 -3.591e-22)
(1.08861 -0.401621 1.263e-22)
(1.10677 -0.399619 -3.7071e-21)
(1.12438 -0.396583 -1.19508e-21)
(1.05619 -0.432092 -1.04845e-21)
(1.07712 -0.431433 -1.44731e-22)
(1.09742 -0.429297 9.99962e-22)
(1.11696 -0.42572 6.88177e-22)
(1.13563 -0.420743 6.48607e-22)
(1.15327 -0.414405 -9.53607e-21)
(1.16982 -0.406702 -3.18598e-21)
(1.18515 -0.397631 -7.13366e-21)
)
;

boundaryField
{
    inlet
    {
        type            uniformFixedValue;
        uniformValue    constant (1 0 0);
        value           nonuniform 0();
    }
    outlet
    {
        type            pressureInletOutletVelocity;
        value           nonuniform 0();
    }
    cylinder
    {
        type            fixedValue;
        value           uniform (0 0 0);
    }
    top
    {
        type            symmetryPlane;
    }
    bottom
    {
        type            symmetryPlane;
    }
    defaultFaces
    {
        type            empty;
    }
    procBoundary7to1
    {
        type            processor;
        value           nonuniform List<vector> 
13
(
(1.19899 -0.38733 4.62298e-21)
(1.21122 -0.375808 1.74348e-20)
(1.22172 -0.363086 -3.53793e-22)
(1.08074 -0.377292 2.00692e-21)
(1.09717 -0.375914 1.2944e-22)
(1.11324 -0.373783 -1.49528e-21)
(1.1289 -0.370903 -9.86717e-21)
(1.14135 -0.392519 2.67046e-21)
(1.14135 -0.392519 2.67046e-21)
(1.15759 -0.387439 1.41823e-20)
(1.17297 -0.381352 5.94751e-21)
(1.18749 -0.374219 -8.67533e-21)
(1.19899 -0.38733 4.62298e-21)
)
;
    }
    procBoundary7to6
    {
        type            processor;
        value           nonuniform List<vector> 
24
(
(0.626974 -0.528724 2.08955e-21)
(0.645877 -0.529366 3.10131e-20)
(0.695582 -0.537482 5.10731e-20)
(0.695582 -0.537482 5.10731e-20)
(0.712674 -0.534804 -6.35542e-20)
(0.760101 -0.53794 -3.13242e-20)
(0.760101 -0.53794 -3.13242e-20)
(0.775092 -0.53217 -1.10591e-20)
(0.819921 -0.530649 4.96075e-21)
(0.819921 -0.530649 4.96075e-21)
(0.863488 -0.526068 1.28568e-20)
(0.863488 -0.526068 1.28568e-20)
(0.875433 -0.516539 -3.28058e-20)
(0.917139 -0.508784 -1.3305e-20)
(0.917139 -0.508784 -1.3305e-20)
(0.927957 -0.497411 3.83303e-20)
(0.967727 -0.487994 1.35242e-20)
(0.967727 -0.487994 1.35242e-20)
(0.97777 -0.475943 -5.65682e-21)
(1.01327 -0.466199 -2.59916e-20)
(1.01327 -0.466199 -2.59916e-20)
(1.0211 -0.454411 2.75037e-21)
(1.05093 -0.402551 -7.63704e-21)
(1.03472 -0.431243 7.08366e-21)
)
;
    }
    procBoundary7to8
    {
        type            processor;
        value           nonuniform List<vector> 
24
(
(0.686529 -0.215111 5.94814e-21)
(0.724972 -0.230263 3.00688e-20)
(0.762889 -0.245395 -2.50271e-21)
(0.800138 -0.260404 -2.54312e-20)
(0.836572 -0.27518 4.52592e-20)
(0.872039 -0.289608 -3.44247e-20)
(0.906386 -0.303563 4.74611e-21)
(0.906386 -0.303563 4.74611e-21)
(0.931948 -0.289275 -1.50384e-20)
(0.964706 -0.302119 1.7594e-21)
(0.995986 -0.314261 -4.81455e-20)
(1.02564 -0.325578 1.43472e-20)
(1.05351 -0.33595 1.9638e-20)
(1.07949 -0.345265 6.21111e-21)
(1.10345 -0.353423 6.83694e-21)
(1.1253 -0.360338 2.13027e-20)
(1.14497 -0.365942 -4.18183e-20)
(1.1624 -0.370186 6.94888e-20)
(1.1624 -0.370186 6.94888e-20)
(1.1802 -0.351985 8.42335e-21)
(1.19443 -0.354649 -2.25371e-20)
(1.20629 -0.355981 1.52283e-20)
(1.21574 -0.356077 -5.1352e-21)
(1.2228 -0.354815 1.76989e-20)
)
;
    }
    procBoundary7to13
    {
        type            processor;
        value           nonuniform List<vector> 
38
(
(0.617765 -0.528302 -2.53393e-20)
(0.63862 -0.533658 6.20921e-20)
(0.63862 -0.533658 6.20921e-20)
(0.602893 -0.513935 1.43219e-20)
(0.626099 -0.52403 -6.77734e-21)
(0.626099 -0.52403 -6.77734e-21)
(0.580786 -0.486163 -2.45574e-20)
(0.6066 -0.500654 1.92593e-20)
(0.6066 -0.500654 1.92593e-20)
(0.550327 -0.446504 -9.77363e-21)
(0.578834 -0.464735 3.93045e-21)
(0.578834 -0.464735 3.93045e-21)
(0.479242 -0.375097 -1.15165e-20)
(0.510973 -0.397271 1.00959e-20)
(0.542074 -0.41836 4.62729e-21)
(0.542074 -0.41836 4.62729e-21)
(0.428911 -0.317627 -1.56339e-20)
(0.462794 -0.341305 8.46845e-21)
(0.462794 -0.341305 8.46845e-21)
(0.370837 -0.257507 -3.61632e-21)
(0.406442 -0.28169 4.90649e-21)
(0.406442 -0.28169 4.90649e-21)
(0.306272 -0.197709 -9.22242e-21)
(0.343085 -0.221477 8.45493e-21)
(0.343085 -0.221477 8.45493e-21)
(0.274285 -0.163469 -2.53539e-21)
(0.274285 -0.163469 -2.53539e-21)
(0.201878 -0.110051 -2.03419e-20)
(0.239674 -0.131084 2.05697e-20)
(0.239674 -0.131084 2.05697e-20)
(0.127843 -0.063093 -1.0418e-20)
(0.165291 -0.0819832 3.17396e-20)
(0.165291 -0.0819832 3.17396e-20)
(0.0541833 -0.0239202 -1.51879e-20)
(0.090747 -0.0403307 1.9226e-20)
(0.090747 -0.0403307 1.9226e-20)
(0.0180131 -0.00709138 -6.67626e-21)
(0.0180131 -0.00709138 -6.67626e-21)
)
;
    }
    procBoundary7to14
    {
        type            processor;
        value           nonuniform List<vector> 
20
(
(0.0174466 -0.0053415 -2.31619e-21)
(0.0521957 -0.0161332 1.40227e-20)
(0.0875663 -0.0274387 -2.6744e-20)
(0.123535 -0.0392509 -1.7372e-20)
(0.160077 -0.0515586 1.50394e-20)
(0.160077 -0.0515586 1.50394e-20)
(0.193085 -0.0552867 1.28084e-20)
(0.23006 -0.0669831 2.85341e-20)
(0.267542 -0.0791897 -5.46642e-21)
(0.305485 -0.0918984 -9.00251e-22)
(0.343839 -0.105096 -1.53086e-20)
(0.382545 -0.118764 3.94967e-20)
(0.421541 -0.132876 -8.10457e-20)
(0.460754 -0.147401 6.63626e-20)
(0.500106 -0.1623 9.43061e-21)
(0.539508 -0.177523 -6.67012e-20)
(0.578865 -0.193015 4.03793e-20)
(0.578865 -0.193015 4.03793e-20)
(0.60859 -0.185109 -1.61578e-20)
(0.647693 -0.200032 -8.94605e-21)
)
;
    }
}


// ************************************************************************* //
