/*--------------------------------*- C++ -*----------------------------------*\
  =========                 |
  \\      /  F ield         | OpenFOAM: The Open Source CFD Toolbox
   \\    /   O peration     | Website:  https://openfoam.org
    \\  /    A nd           | Version:  7
     \\/     M anipulation  |
\*---------------------------------------------------------------------------*/
FoamFile
{
    version     2.0;
    format      ascii;
    class       surfaceScalarField;
    location    "22";
    object      phi;
}
// * * * * * * * * * * * * * * * * * * * * * * * * * * * * * * * * * * * * * //

dimensions      [0 3 -1 0 0 0 0];

internalField   nonuniform List<scalar> 
804
(
0.00147987
0.00190516
0.00207058
0.00105526
0.00124093
0.00115431
0.00136453
0.00125866
0.00149729
0.00136803
0.00163946
0.001482
0.00179118
0.00160005
0.00195254
0.00212345
0.000697646
0.000760485
0.000774401
0.000845171
0.000856976
0.000937422
0.000945489
0.00103769
0.00103999
0.00114643
0.00114046
0.00126406
0.00124678
0.00139097
0.0013587
0.00152753
0.00147587
0.00167402
0.00159775
0.00183065
0.00172367
0.00199752
0.00217445
0.000428998
0.000438828
0.000483265
0.000493006
0.000542578
0.00055267
0.000607228
0.000618258
0.000677489
0.000690224
0.000753618
0.000769042
0.000835841
0.000855199
0.000924338
0.000949194
0.00101923
0.00105153
0.00112057
0.00116272
0.00122829
0.00128325
0.00134221
0.00141361
0.001462
0.00155423
0.00158716
0.00170549
0.00171698
0.0018677
0.00204088
0.000244411
0.000236907
0.000280022
0.000269543
0.000319467
0.000305842
0.000363043
0.000346144
0.000411061
0.000390811
0.000463838
0.000440228
0.000521701
0.000494807
0.000584976
0.000554982
0.000653987
0.000621213
0.000729046
0.000693984
0.000810441
0.000773804
0.000898426
0.000861209
0.000993202
0.000956757
0.00109489
0.00106103
0.00120352
0.00117463
0.00131896
0.00129817
0.00144093
0.00143226
0.00156892
0.0015775
0.00170219
0.00173443
0.00190331
0.00183976
0.000127022
0.000117633
0.00014883
0.000136113
0.000173319
0.000156892
0.000200731
0.000180206
0.000231326
0.000206313
0.000265379
0.00023549
0.000303183
0.000268038
0.000345049
0.000304278
0.000391303
0.000344557
0.000442287
0.000389244
0.000498356
0.000438738
0.000559875
0.000493463
0.000627215
0.000553872
0.000700747
0.000620452
0.00078083
0.000693722
0.000867799
0.000774239
0.00096195
0.000862606
0.00106351
0.000959473
0.00117259
0.00106554
0.00128918
0.00118158
0.00141302
0.00130841
0.00154362
0.00144691
0.00168013
0.00159792
0.00176204
0.0018214
5.80823e-05
5.18235e-05
7.04312e-05
6.15255e-05
8.45503e-05
7.25877e-05
0.000100616
8.5166e-05
0.000118817
9.94311e-05
0.000139362
0.000115569
0.000162471
0.000133782
0.000188386
0.000154291
0.000217365
0.000177334
0.000249686
0.000203169
0.000285647
0.000232077
0.000325566
0.000264359
0.000369784
0.000300339
0.000418661
0.000340368
0.000472578
0.000384821
0.000531936
0.000434105
0.000597153
0.000488655
0.00066866
0.000548945
0.000746893
0.000615489
0.000832284
0.000688848
0.000925244
0.000769646
0.00102613
0.000858584
0.00113522
0.000956457
0.00125262
0.00106419
0.0013782
0.00118284
0.00151145
0.00131365
0.00165136
0.00145801
0.00161701
0.00179639
2.15026e-05
1.87023e-05
2.77563e-05
2.32623e-05
3.51238e-05
2.85752e-05
4.37249e-05
3.4738e-05
5.36904e-05
4.1858e-05
6.51629e-05
5.0053e-05
7.82977e-05
5.94529e-05
9.3264e-05
7.01997e-05
0.000110246
8.24494e-05
0.000129443
9.63719e-05
0.000151072
0.000112153
0.000175369
0.000129994
0.000202589
0.000150114
0.000233008
0.000172751
0.000266923
0.000198162
0.000304658
0.000226624
0.000346559
0.000258438
0.000392999
0.000293927
0.00044438
0.00033344
0.000501133
0.000377353
0.000563715
0.000426073
0.000632617
0.000480044
0.000708354
0.000539752
0.000791464
0.000605737
0.0008825
0.000678611
0.000982001
0.000759082
0.00109046
0.000847998
0.00120824
0.000946404
0.00133545
0.00105563
0.00147172
0.00117739
0.00161581
0.00131392
0.00146751
0.00176531
3.10242e-06
2.97971e-06
5.06536e-06
4.39832e-06
7.62442e-06
6.14551e-06
1.08508e-05
8.27225e-06
1.48227e-05
1.08355e-05
1.96259e-05
1.38991e-05
2.53545e-05
1.75337e-05
3.21114e-05
2.18183e-05
4.00093e-05
2.68401e-05
4.91717e-05
3.26956e-05
5.97334e-05
3.94913e-05
7.18418e-05
4.73445e-05
8.56578e-05
5.63838e-05
0.000101357
6.67502e-05
0.000119131
7.85981e-05
0.000139188
9.20955e-05
0.000161756
0.000107426
0.000187082
0.000124788
0.000215435
0.000144397
0.00024711
0.000166487
0.000282423
0.000191311
0.000321722
0.000219139
0.000365384
0.000250265
0.000413819
0.000285005
0.000467474
0.000323698
0.000526836
0.00036671
0.00059244
0.00041444
0.000664867
0.000467324
0.000744759
0.000525846
0.000832814
0.000590556
0.000929791
0.000662105
0.00103649
0.000741298
0.0011537
0.000829192
0.00128208
0.000927253
0.0014218
0.00103766
0.00157176
0.00116397
0.00131149
0.00172778
1.52972e-07
1.13639e-07
6.38337e-07
4.66399e-07
1.50059e-06
9.82047e-07
2.78883e-06
1.69147e-06
4.55721e-06
2.62994e-06
6.86535e-06
3.83736e-06
9.77893e-06
5.35867e-06
1.33702e-05
7.24431e-06
1.77184e-05
9.55079e-06
2.2911e-05
1.23412e-05
2.90435e-05
1.56858e-05
3.6221e-05
1.96626e-05
4.45586e-05
2.43579e-05
5.41825e-05
2.98674e-05
6.52309e-05
3.62961e-05
7.7855e-05
4.37597e-05
9.22201e-05
5.23851e-05
0.000108507
6.23109e-05
0.000126914
7.36887e-05
0.000147657
8.66832e-05
0.000170971
0.000101474
0.000197114
0.000118254
0.000226368
0.000137233
0.00025904
0.000158639
0.000295466
0.000182713
0.000336014
0.000209717
0.000381088
0.000239931
0.000431132
0.000273654
0.000486636
0.000311206
0.000548147
0.00035293
0.000616277
0.000399194
0.000691723
0.0004504
0.000775286
0.000506993
0.000867908
0.000569483
0.000970709
0.000638497
0.00108503
0.000714876
0.00121243
0.000799852
0.00135461
0.000895474
0.00151235
0.00100624
0.00114391
0.00167992
1.35211e-07
-2.15722e-08
5.64999e-07
3.66111e-08
1.32964e-06
2.17409e-07
2.47366e-06
5.47446e-07
4.04628e-06
1.05732e-06
6.10182e-06
1.78182e-06
8.70021e-06
2.76028e-06
1.19075e-05
4.03703e-06
1.57964e-05
5.66188e-06
2.0447e-05
7.69061e-06
2.59473e-05
1.01855e-05
3.23941e-05
1.32158e-05
3.98936e-05
1.68584e-05
4.85626e-05
2.11984e-05
5.8529e-05
2.63297e-05
6.9933e-05
3.23557e-05
8.29285e-05
3.93896e-05
9.76839e-05
4.75556e-05
0.000114383
5.69892e-05
0.000133229
6.78379e-05
0.000154441
8.02618e-05
0.00017826
9.44343e-05
0.000204951
0.000110543
0.000234802
0.000128788
0.000268128
0.000149387
0.000305275
0.00017257
0.000346621
0.000198584
0.000392584
0.000227691
0.000443623
0.000260167
0.000500248
0.000296305
0.000563032
0.00033641
0.000632628
0.000380805
0.000709793
0.000429828
0.000795438
0.000483837
0.000890711
0.000543225
0.000997135
0.000608451
0.00111689
0.000680096
0.00125351
0.000758856
0.00141365
0.000846092
0.00160999
1.17553e-07
4.92068e-07
1.15959e-06
2.16006e-06
3.53774e-06
5.34156e-06
-2.19992e-08
7.62564e-06
4.76202e-07
1.04497e-05
1.21294e-06
1.38798e-05
2.23184e-06
1.79885e-05
3.58191e-06
2.28559e-05
5.31802e-06
2.85703e-05
7.50138e-06
3.52287e-05
1.02001e-05
4.29376e-05
1.34895e-05
5.18142e-05
1.74531e-05
6.1987e-05
2.21828e-05
7.35972e-05
2.77794e-05
8.67993e-05
3.43535e-05
0.000101763
4.20259e-05
0.000118672
5.09281e-05
0.000137731
6.12027e-05
0.000159161
7.30045e-05
0.000183204
8.65001e-05
0.000210122
0.000101869
0.000240205
0.000119304
0.000273766
0.00013901
0.000311145
0.000161206
0.000352712
0.000186124
0.000398869
0.00021401
0.00045005
0.000245123
0.000506725
0.000279735
0.000569397
0.000318133
0.000638601
0.000360623
0.000714901
0.000407537
0.000798878
0.000459248
0.000891124
0.000516206
0.00099223
0.00057899
0.00110266
0.000648429
4.59321e-06
6.56748e-06
9.01363e-06
1.19908e-05
1.55642e-05
8.47657e-09
1.9806e-05
1.0762e-06
2.47957e-05
2.51169e-06
3.06208e-05
4.37492e-06
3.73778e-05
6.73253e-06
4.51727e-05
9.65826e-06
5.41219e-05
1.32335e-05
6.43535e-05
1.75479e-05
7.60075e-05
2.26995e-05
8.92378e-05
2.87957e-05
0.000104212
3.59534e-05
0.000121115
4.42998e-05
0.000140147
5.39726e-05
0.000161527
6.51205e-05
0.000185492
7.79037e-05
0.000212302
9.24939e-05
0.000242237
0.000109075
0.000275599
0.000127844
0.000312714
0.000149009
0.000353931
0.000172793
0.000399623
0.000199431
0.000450182
0.000229176
0.00050602
0.000262295
0.000567565
0.000299079
0.000635257
0.000339845
0.000709556
0.000384948
0.000790977
0.000434785
0.000880181
1.32025e-05
1.68336e-05
2.11155e-05
2.61263e-05
3.19525e-05
9.06365e-07
3.8689e-05
2.92178e-06
4.64404e-05
5.48217e-06
5.53215e-05
8.66674e-06
6.54585e-05
1.25624e-05
7.69897e-05
1.72645e-05
9.00664e-05
2.28767e-05
0.000104854
2.95122e-05
0.000121533
3.72934e-05
0.000140301
4.63528e-05
0.000161371
5.68335e-05
0.000184976
6.88891e-05
0.000211367
8.26843e-05
0.000240815
9.83957e-05
0.000273612
0.000116212
0.000310072
0.000136333
0.000350529
0.000158974
0.000395342
0.000184363
0.000444895
0.000212742
0.000499602
0.000244371
0.000559926
0.000279521
0.000626405
0.000318469
2.67221e-05
3.24367e-05
3.90314e-05
4.66086e-05
5.5281e-05
3.89007e-06
6.51722e-05
7.37331e-06
7.64177e-05
1.16312e-05
8.9166e-05
1.67639e-05
0.000103579
2.28801e-05
0.000119834
3.00977e-05
0.000138124
3.85436e-05
0.000158659
4.83546e-05
0.000181666
5.96776e-05
0.000207391
7.26698e-05
0.000236104
8.74988e-05
0.000268094
0.000104343
0.000303676
0.000123392
0.000343195
0.000144844
0.000387032
0.000168906
0.000435614
0.000195789
0.000489439
0.000225696
4.55721e-05
5.39001e-05
6.34017e-05
7.42096e-05
5.95595e-06
8.64696e-05
1.06202e-05
0.000100341
1.62262e-05
0.000115998
2.28862e-05
0.000133632
3.07208e-05
0.000153451
3.9859e-05
0.000175682
5.04387e-05
0.000200574
6.26063e-05
0.000228402
7.65158e-05
0.000259466
9.23281e-05
0.000294101
0.000110208
0.000332686
0.000130321
0.000375652
0.000152823
6.00814e-05
7.03136e-05
8.1943e-05
9.51276e-05
0.000110041
1.58073e-05
0.000126875
2.30254e-05
0.000145839
3.14747e-05
0.000167165
4.12794e-05
0.000191112
5.25688e-05
0.000217966
6.54744e-05
0.000248048
8.01265e-05
0.000281721
9.66482e-05
8.7931e-05
0.000101974
0.000117883
0.000135874
2.32886e-05
0.000156185
3.22574e-05
0.000179084
4.25753e-05
0.000204871
5.43403e-05
0.000106631
0.000123521
0.000142683
-0.00217013
0.00544131
-0.00202824
0.0051906
-0.00199737
0.00493065
-0.0019515
-0.00189142
0.00540208
0.00515747
0.00490294
0.00464001
0.00437042
0.00409884
)
;

boundaryField
{
    inlet
    {
        type            calculated;
        value           nonuniform 0();
    }
    outlet
    {
        type            calculated;
        value           nonuniform 0();
    }
    cylinder
    {
        type            calculated;
        value           uniform 0;
    }
    top
    {
        type            symmetryPlane;
        value           nonuniform 0();
    }
    bottom
    {
        type            symmetryPlane;
        value           nonuniform 0();
    }
    defaultFaces
    {
        type            empty;
        value           nonuniform 0();
    }
    procBoundary9to3
    {
        type            processor;
        value           nonuniform List<scalar> 
16
(
0.00159344
-0.00224489
0.00172149
-0.00230355
0.00185277
0.00185055
0.00242942
0.00227018
0.00224808
-0.00574556
0.00221145
0.00207257
0.002066
-0.00568325
0.00205092
-0.00563488
)
;
    }
    procBoundary9to8
    {
        type            processor;
        value           nonuniform List<scalar> 
17
(
-0.00201531
-0.00218415
-0.00133451
-0.00146358
-0.00160164
-0.00136972
-0.00174882
-0.000831584
-0.000921926
-0.00102
-0.000961678
-0.00112621
-0.00048834
-0.000547272
-0.000611984
-0.000626548
-0.000682907
)
;
    }
    procBoundary9to10
    {
        type            processor;
        value           nonuniform List<scalar> 
12
(
0.000947576
0.0012228
0.000725946
0.000489786
0.000978249
0.000550361
0.000699718
0.000361472
0.000549106
0.00548627
0.00465195
0.0038174
)
;
    }
    procBoundary9to14
    {
        type            processor;
        value           nonuniform List<scalar> 
30
(
-0.00026897
-0.000305154
-0.000345287
-0.000379486
-0.00038972
-0.000136985
-0.000157921
-0.000181381
-0.000212348
-0.000207618
-6.2564e-05
-7.38743e-05
-8.67068e-05
-0.000107671
-0.000101231
-2.39519e-05
-2.9516e-05
-3.59426e-05
-4.73418e-05
-4.33391e-05
-4.41139e-06
-6.36127e-06
-8.70457e-06
-1.14986e-05
-1.6253e-05
-1.48075e-05
-2.66611e-07
-9.51764e-07
-1.67073e-06
-1.8443e-06
)
;
    }
    procBoundary9to15
    {
        type            processor;
        value           nonuniform List<scalar> 
37
(
-1.39126e-07
-3.37904e-07
-4.50111e-07
-4.53029e-07
-3.2035e-07
-3.03735e-06
-1.57786e-06
-1.49807e-06
-1.23321e-06
-7.45298e-07
-1.01513e-05
-3.04276e-06
-2.55489e-06
-1.77016e-06
-6.35942e-07
-2.17945e-05
-4.02123e-06
-2.79284e-06
-1.11253e-06
1.08952e-06
-3.82965e-05
-3.38547e-06
-9.54727e-07
2.12963e-06
-5.11026e-05
-3.02286e-06
3.87973e-07
4.59688e-06
9.70168e-06
-7.55613e-05
3.43763e-06
8.98271e-06
1.55653e-05
-9.17709e-05
8.42837e-06
1.53677e-05
2.34131e-05
)
;
    }
    procBoundary9to16
    {
        type            processor;
        value           nonuniform List<scalar> 9(0.000258802 0.000423502 0.000177846 0.0003194 0.000115145 0.000233881 6.76378e-05 0.000164389 3.26344e-05);
    }
}


// ************************************************************************* //
