0.0285166 	0.499829 	-8.25202e-19 	0.906218 	-0.0190726 	-2.03185e-16
