0.135798 	0.489332 	-2.04203e-18 	0.949201 	-0.0312733 	3.59571e-16
0.13774 	0.49633 	-1.23965e-18 	0.559758 	-0.0143532 	4.301e-16
