/*--------------------------------*- C++ -*----------------------------------*\
  =========                 |
  \\      /  F ield         | OpenFOAM: The Open Source CFD Toolbox
   \\    /   O peration     | Website:  https://openfoam.org
    \\  /    A nd           | Version:  7
     \\/     M anipulation  |
\*---------------------------------------------------------------------------*/
FoamFile
{
    version     2.0;
    format      ascii;
    class       volVectorField;
    location    "15.000664";
    object      U;
}
// * * * * * * * * * * * * * * * * * * * * * * * * * * * * * * * * * * * * * //

dimensions      [0 1 -1 0 0 0 0];

internalField   nonuniform List<vector> 
5800
(
(-0.203737 0.00308707 -5.72669e-22)
(-0.193798 0.00899105 -1.73824e-20)
(-0.174288 0.0141102 2.59967e-20)
(-0.145818 0.0180091 8.56829e-21)
(-0.108999 0.0204163 -2.17495e-20)
(-0.211649 0.00367458 3.39695e-21)
(-0.217938 0.00378679 3.26907e-21)
(-0.224419 0.0038122 -6.0843e-21)
(-0.231041 0.00382034 2.9405e-21)
(-0.23781 0.00382211 -1.74011e-21)
(-0.24472 0.00382018 -6.29181e-22)
(-0.251767 0.0038145 3.56578e-21)
(-0.258945 0.00380336 -5.25331e-21)
(-0.266245 0.00378425 2.29951e-21)
(-0.273651 0.00375425 2.21798e-21)
(-0.281139 0.00371012 -4.67077e-21)
(-0.288678 0.00364842 -1.5674e-22)
(-0.296227 0.00356556 3.9142e-21)
(-0.303735 0.00345787 -3.00665e-22)
(-0.311139 0.00332165 -1.72021e-21)
(-0.318366 0.00315347 1.52233e-21)
(-0.325333 0.00295055 -7.51129e-22)
(-0.33194 0.0027099 1.0336e-21)
(-0.338073 0.00242796 -7.71391e-22)
(-0.343603 0.00210164 -5.39342e-22)
(-0.348384 0.00172851 2.35701e-21)
(-0.352255 0.00130708 -6.80221e-22)
(-0.355039 0.000837438 -1.60776e-21)
(-0.356542 0.000321269 1.07234e-21)
(-0.356608 -0.000241953 3.58472e-22)
(-0.355066 -0.000856499 -1.34417e-21)
(-0.351709 -0.00151677 1.55924e-21)
(-0.346335 -0.00221698 -1.275e-21)
(-0.338747 -0.00295109 -8.77333e-22)
(-0.328761 -0.00371201 2.51098e-21)
(-0.316201 -0.00449173 -1.71778e-21)
(-0.30092 -0.00527974 -2.66648e-22)
(-0.282792 -0.00606486 3.50852e-22)
(-0.261729 -0.00683482 3.14696e-23)
(-0.237681 -0.00757526 7.50184e-22)
(-0.210638 -0.00827746 -9.0091e-22)
(-0.180668 -0.00891222 7.23118e-22)
(-0.14789 -0.00947698 -6.35532e-24)
(-0.112482 -0.00995327 -2.9609e-23)
(-0.0746896 -0.0103311 -4.09915e-23)
(-0.0348245 -0.0106011 2.15997e-22)
(0.00676174 -0.0107506 -3.52778e-23)
(0.0496675 -0.0107877 -4.38133e-23)
(0.0934502 -0.0107124 3.52813e-24)
(0.137689 -0.0105312 -8.57854e-24)
(0.181956 -0.0102552 7.44281e-23)
(0.225846 -0.00989831 -1.24817e-22)
(0.268998 -0.00947586 4.14944e-23)
(0.311091 -0.00900474 -1.19871e-22)
(0.351876 -0.00850019 3.82625e-23)
(0.391131 -0.0079783 -6.15969e-24)
(0.42875 -0.00745035 -2.56934e-23)
(0.464577 -0.0069306 1.09994e-22)
(0.498669 -0.00642343 -1.37676e-22)
(0.530849 -0.00594079 1.25668e-22)
(0.561392 -0.00547808 -1.13239e-23)
(0.589956 -0.00505079 -9.13365e-23)
(0.617193 -0.0046421 3.4282e-24)
(0.642307 -0.00427801 4.12381e-23)
(0.666672 -0.00392242 2.25034e-23)
(0.688498 -0.00362358 1.15846e-23)
(0.710601 -0.00331395 -3.19841e-23)
(0.729176 -0.00308126 2.88374e-23)
(0.749858 -0.00280817 2.07858e-23)
(0.764976 -0.00264391 -1.09054e-23)
(0.785436 -0.00239873 3.05878e-23)
(0.796514 -0.00230561 -1.07681e-23)
(0.81849 -0.00208298 7.28568e-24)
(0.824399 -0.00205532 -2.86934e-24)
(0.850433 -0.00186256 -7.74275e-25)
(-0.200583 0.0107512 -1.26144e-21)
(-0.206541 0.0110915 -2.27147e-21)
(-0.212617 0.0111714 -2.18526e-21)
(-0.218807 0.0111972 3.06882e-22)
(-0.225138 0.011202 -1.60272e-21)
(-0.2316 0.011195 1.29272e-20)
(-0.238186 0.0111767 -9.43684e-21)
(-0.244891 0.0111424 7.13379e-21)
(-0.251706 0.0110845 -5.40429e-21)
(-0.258615 0.0109945 -3.70705e-21)
(-0.265594 0.0108625 3.84608e-21)
(-0.272612 0.0106785 3.9312e-21)
(-0.279629 0.0104315 -8.69837e-21)
(-0.286594 0.0101108 2.00596e-21)
(-0.293446 0.00970526 -3.75941e-21)
(-0.300112 0.00920432 3.86868e-21)
(-0.306509 0.00859914 -9.81616e-22)
(-0.312541 0.00788175 7.54437e-21)
(-0.318096 0.00704171 -3.09677e-21)
(-0.323047 0.00606965 1.15446e-21)
(-0.32725 0.00495836 1.84428e-21)
(-0.330549 0.00370418 -5.5387e-21)
(-0.332766 0.00230988 6.93815e-22)
(-0.333715 0.000775954 -8.96613e-22)
(-0.33325 -0.000908907 -9.3162e-24)
(-0.331199 -0.00274217 6.72749e-22)
(-0.327355 -0.00470859 2.75139e-21)
(-0.321524 -0.00679264 -9.55837e-22)
(-0.313517 -0.00897716 -2.07645e-21)
(-0.303154 -0.011241 3.78596e-21)
(-0.290266 -0.0135602 -6.24297e-21)
(-0.274712 -0.0159038 1.58609e-21)
(-0.256375 -0.0182372 4.85089e-21)
(-0.23517 -0.0205253 -3.19187e-21)
(-0.211059 -0.0227231 -1.12978e-21)
(-0.184024 -0.0248074 1.62691e-21)
(-0.154147 -0.026687 -2.38416e-21)
(-0.121553 -0.0283589 3.05845e-21)
(-0.0864181 -0.0297717 -1.20598e-21)
(-0.0489917 -0.030887 -2.19861e-22)
(-0.00957929 -0.0316731 1.94724e-22)
(0.0314646 -0.0320993 8.23952e-24)
(0.0737384 -0.0321978 1.99692e-23)
(0.11681 -0.0319595 -1.63511e-23)
(0.160265 -0.0314059 -6.57181e-23)
(0.203686 -0.0305703 3.48488e-23)
(0.24668 -0.0294948 -1.89994e-22)
(0.288896 -0.0282254 2.42746e-22)
(0.330028 -0.0268128 7.70224e-23)
(0.369839 -0.0253023 1.55538e-22)
(0.408117 -0.0237419 -4.77476e-22)
(0.444767 -0.022165 6.00482e-22)
(0.479645 -0.0206138 2.00162e-22)
(0.51281 -0.0191014 -1.98993e-22)
(0.544097 -0.017663 4.15662e-23)
(0.573779 -0.016285 6.84061e-23)
(0.601525 -0.015013 3.30842e-23)
(0.627976 -0.0137971 -4.04009e-23)
(0.652356 -0.0127142 1.84274e-22)
(0.676011 -0.0116571 -1.44403e-22)
(0.697192 -0.0107688 -2.83977e-23)
(0.718654 -0.00984894 6.5854e-24)
(0.736676 -0.0091575 -7.33044e-23)
(0.756771 -0.0083468 4.72472e-23)
(0.771432 -0.0078587 3.91709e-24)
(0.791335 -0.00713177 3.79514e-24)
(0.802071 -0.00685476 -4.03946e-24)
(0.82348 -0.00619616 1.06621e-23)
(0.829198 -0.00611311 -7.5794e-24)
(0.854591 -0.0055445 5.34838e-24)
(-0.178972 0.0170476 5.63922e-23)
(-0.184306 0.0176155 7.042e-21)
(-0.189614 0.01776 1.50066e-21)
(-0.194978 0.0178086 -1.40425e-20)
(-0.200473 0.0178156 -8.86662e-21)
(-0.20608 0.0178006 7.88105e-21)
(-0.211789 0.0177668 1.88863e-20)
(-0.217594 0.0177071 -1.04673e-20)
(-0.223486 0.0176094 -3.99027e-21)
(-0.229449 0.0174595 2.2769e-21)
(-0.235459 0.0172417 5.16658e-21)
(-0.241488 0.0169388 -7.02212e-21)
(-0.247495 0.0165334 8.02457e-21)
(-0.25343 0.0160073 -6.95955e-21)
(-0.259236 0.0153423 1.41768e-20)
(-0.26484 0.0145205 -1.34499e-20)
(-0.27016 0.013526 2.41309e-21)
(-0.275106 0.012346 -1.90011e-20)
(-0.279573 0.0109658 6.84999e-21)
(-0.283436 0.00936902 -5.35698e-21)
(-0.286559 0.00754387 2.08576e-21)
(-0.288784 0.00548536 1.86197e-20)
(-0.289945 0.00319941 -1.00762e-20)
(-0.289876 0.000691999 3.38049e-21)
(-0.288437 -0.00209492 -9.21768e-21)
(-0.285446 -0.00510879 7.80742e-21)
(-0.280712 -0.00833595 -1.07196e-20)
(-0.274053 -0.0117548 4.50382e-21)
(-0.265291 -0.015338 -1.24627e-21)
(-0.254258 -0.0190503 3.33984e-21)
(-0.240796 -0.0228517 3.14516e-21)
(-0.224771 -0.0266917 3.90123e-21)
(-0.206083 -0.03051 -3.41641e-21)
(-0.184658 -0.0342537 5.72419e-22)
(-0.160475 -0.0378409 -1.48552e-21)
(-0.1335 -0.0412533 2.6239e-21)
(-0.103841 -0.0443103 -1.41083e-21)
(-0.0716432 -0.0470333 4.46426e-22)
(-0.0370603 -0.0493438 -2.09621e-21)
(-0.000353474 -0.0511103 4.96212e-22)
(0.038181 -0.0523445 4.97945e-22)
(0.078175 -0.0530139 -5.88601e-22)
(0.119235 -0.0531329 3.76239e-22)
(0.160952 -0.052696 -2.35496e-23)
(0.202922 -0.0517417 -4.56218e-23)
(0.244745 -0.0503255 -3.27484e-24)
(0.286049 -0.0485183 3.33958e-22)
(0.326507 -0.0463968 -5.49985e-23)
(0.365834 -0.0440448 -1.8177e-22)
(0.403818 -0.0415374 -4.92635e-22)
(0.440269 -0.0389532 5.00976e-22)
(0.475107 -0.0363469 -4.24512e-22)
(0.508207 -0.0337867 -3.39497e-22)
(0.53964 -0.0312946 2.95511e-22)
(0.569255 -0.0289275 -2.07007e-23)
(0.597325 -0.0266626 -2.96168e-22)
(0.62354 -0.0245739 1.13586e-22)
(0.648517 -0.0225796 -1.29529e-24)
(0.671522 -0.0208043 -1.94204e-22)
(0.693844 -0.0190732 9.60023e-24)
(0.713813 -0.0176187 -2.62406e-22)
(0.734068 -0.0161144 1.97367e-22)
(0.751047 -0.0149832 7.77802e-23)
(0.770034 -0.0136595 -1.85983e-22)
(0.783833 -0.012861 8.22253e-23)
(0.80268 -0.0116772 -7.9523e-23)
(0.812768 -0.0112231 -4.87688e-23)
(0.833098 -0.0101554 -3.73728e-23)
(0.838453 -0.0100169 3.71708e-23)
(0.862625 -0.00910051 -9.23096e-24)
(-0.147706 0.0221729 3.12844e-22)
(-0.152213 0.0229194 -2.63502e-20)
(-0.156463 0.023144 -5.955e-21)
(-0.160682 0.023227 3.02206e-20)
(-0.165019 0.0232373 -2.15969e-20)
(-0.169445 0.0232116 3.70705e-21)
(-0.173943 0.0231588 1.34713e-20)
(-0.178507 0.0230708 -1.12643e-20)
(-0.183126 0.022932 -1.09235e-20)
(-0.187785 0.0227232 1.81662e-20)
(-0.192461 0.0224228 6.02938e-21)
(-0.197126 0.0220075 -6.80712e-21)
(-0.201742 0.0214531 -7.06184e-21)
(-0.206262 0.0207347 4.76655e-22)
(-0.21063 0.0198273 1.63994e-20)
(-0.214779 0.0187061 -8.13554e-21)
(-0.218629 0.0173474 -7.61494e-22)
(-0.222094 0.015731 -9.14143e-21)
(-0.225078 0.0138413 -6.50979e-22)
(-0.227466 0.0116558 3.77157e-21)
(-0.229128 0.00915615 9.42341e-21)
(-0.229911 0.00633378 -1.038e-20)
(-0.229654 0.00319753 8.89306e-21)
(-0.228245 -0.000245443 -5.00752e-21)
(-0.225526 -0.00405384 -2.34466e-21)
(-0.221296 -0.00817321 -1.09463e-21)
(-0.215405 -0.0125851 6.05959e-21)
(-0.207684 -0.0172595 6.48277e-21)
(-0.197967 -0.0221583 -1.23671e-20)
(-0.186104 -0.027232 -2.41917e-21)
(-0.171947 -0.0324243 1.10024e-20)
(-0.155371 -0.037672 -3.68728e-21)
(-0.136296 -0.0428755 -6.04907e-21)
(-0.114665 -0.0479763 2.65127e-21)
(-0.0904915 -0.0528519 -2.9509e-21)
(-0.0637014 -0.0575485 3.1442e-21)
(-0.0344269 -0.0616882 -1.3131e-21)
(-0.00287346 -0.0653508 5.05314e-21)
(0.0308849 -0.0684081 1.4729e-22)
(0.0665511 -0.0707642 -5.26076e-22)
(0.103791 -0.0723856 -1.05956e-21)
(0.142279 -0.0732407 -8.45469e-22)
(0.181633 -0.0733178 2.08833e-22)
(0.221459 -0.0726318 3.65562e-22)
(0.261367 -0.0712371 -1.0033e-22)
(0.300985 -0.0692124 2.5983e-22)
(0.339971 -0.0666572 -3.89182e-23)
(0.378026 -0.0636787 -3.61733e-23)
(0.414897 -0.0603933 -6.21748e-22)
(0.450401 -0.0569045 3.85492e-22)
(0.484375 -0.0533203 3.23412e-22)
(0.516764 -0.0497152 -1.01732e-23)
(0.547464 -0.0461811 -1.03575e-21)
(0.57656 -0.0427482 5.67712e-22)
(0.603923 -0.0394934 7.0349e-22)
(0.629819 -0.0363846 -2.57688e-22)
(0.653968 -0.0335214 -1.09211e-22)
(0.676957 -0.0307918 -4.6503e-23)
(0.698105 -0.028364 5.07684e-22)
(0.718623 -0.0260002 -2.82518e-22)
(0.736952 -0.0240147 4.77763e-23)
(0.755568 -0.0219647 -1.02976e-22)
(0.77113 -0.0204222 1.47417e-22)
(0.788604 -0.0186227 1.82039e-22)
(0.80123 -0.0175339 -1.0209e-22)
(0.818625 -0.015931 5.95356e-23)
(0.827829 -0.0153098 6.31717e-23)
(0.846668 -0.0138742 5.1121e-23)
(0.851527 -0.0136798 -2.3051e-23)
(0.874001 -0.0124586 1.44825e-23)
(-0.107785 0.0259673 2.74555e-20)
(-0.111417 0.0266686 -9.75107e-21)
(-0.114392 0.02701 6.96849e-21)
(-0.117257 0.027143 -4.44453e-20)
(-0.120226 0.0271595 2.10881e-20)
(-0.123256 0.0271226 -2.803e-20)
(-0.126325 0.0270483 3.13996e-20)
(-0.129425 0.026929 -2.97021e-20)
(-0.132542 0.0267476 -7.7047e-21)
(-0.135661 0.026481 6.14418e-20)
(-0.138761 0.0261025 -3.40026e-20)
(-0.141815 0.0255832 2.96906e-20)
(-0.144787 0.024893 -5.99976e-21)
(-0.147635 0.0240004 1.34556e-22)
(-0.150307 0.0228741 -1.8297e-20)
(-0.152741 0.021483 -8.01561e-21)
(-0.154864 0.0197967 -3.90901e-21)
(-0.156593 0.0177864 1.00379e-20)
(-0.157842 0.0154309 -2.51243e-20)
(-0.158512 0.0127096 1.2196e-20)
(-0.158484 0.0095975 -7.25201e-21)
(-0.157608 0.00608885 3.20355e-21)
(-0.15573 0.0021961 7.09128e-21)
(-0.152782 -0.00214813 1.43122e-20)
(-0.148602 -0.00689136 -9.25436e-21)
(-0.142998 -0.0120253 -7.93558e-21)
(-0.135833 -0.0175234 6.14169e-21)
(-0.126958 -0.023348 9.50245e-22)
(-0.116223 -0.0294518 6.19808e-21)
(-0.103497 -0.0357746 -5.07745e-21)
(-0.0886565 -0.0422508 -6.29613e-21)
(-0.0715622 -0.0488225 9.89842e-21)
(-0.0521627 -0.0552925 -8.10188e-21)
(-0.0304239 -0.0616399 5.28973e-21)
(-0.00643504 -0.0677348 1.65801e-21)
(0.0199674 -0.0734107 -3.00841e-21)
(0.0486931 -0.078571 -1.54947e-21)
(0.0793834 -0.0830769 1.69787e-21)
(0.111999 -0.0867834 -2.67588e-21)
(0.146258 -0.0896621 6.48874e-22)
(0.181854 -0.0915978 -5.83925e-22)
(0.21845 -0.0925511 1.91669e-22)
(0.255683 -0.0925185 -5.59232e-23)
(0.293179 -0.0915284 1.03606e-22)
(0.330575 -0.0896521 3.2004e-23)
(0.367529 -0.0869917 -2.06703e-22)
(0.403732 -0.0836755 7.94238e-22)
(0.438923 -0.0798406 -1.15087e-22)
(0.472884 -0.0756349 -1.10027e-21)
(0.505465 -0.0711888 1.00579e-21)
(0.536535 -0.0666379 8.23717e-22)
(0.566062 -0.0620747 -1.05635e-21)
(0.593968 -0.0576122 8.7495e-22)
(0.620348 -0.0532877 -4.97676e-22)
(0.645101 -0.0491964 -1.1611e-22)
(0.66848 -0.045297 -1.67083e-22)
(0.690241 -0.041711 7.673e-22)
(0.71093 -0.0382989 -2.45049e-22)
(0.729929 -0.0352671 3.34265e-23)
(0.748357 -0.0323206 -3.86133e-22)
(0.764785 -0.0298463 6.56887e-22)
(0.781495 -0.0272978 -2.62002e-22)
(0.795409 -0.0253779 -9.77962e-23)
(0.811112 -0.023148 -9.95384e-23)
(0.822367 -0.0217924 3.65021e-23)
(0.838049 -0.0198167 -5.77311e-23)
(0.846216 -0.0190398 -9.12636e-23)
(0.86328 -0.0172868 5.35934e-23)
(0.867556 -0.017036 5.03184e-23)
(0.887999 -0.0155627 -3.28924e-23)
(-0.0600104 0.0284638 -1.2396e-20)
(-0.0629493 0.0286804 1.13439e-20)
(-0.0644247 0.0292421 7.98934e-21)
(-0.0658901 0.0293986 -5.13892e-20)
(-0.0674206 0.0294225 5.34138e-20)
(-0.068978 0.0293785 -6.31433e-23)
(-0.0705414 0.0292823 -3.6752e-20)
(-0.0720961 0.0291286 2.31518e-20)
(-0.0736266 0.0289022 7.15428e-21)
(-0.075116 0.0285776 7.67797e-21)
(-0.0765437 0.0281246 -2.86456e-20)
(-0.077884 0.0275097 -2.58975e-20)
(-0.0791057 0.0266976 8.52065e-21)
(-0.0801705 0.0256512 2.41052e-20)
(-0.0810324 0.0243333 -1.51121e-20)
(-0.0816367 0.0227069 4.10991e-20)
(-0.0819186 0.020736 -4.54165e-20)
(-0.0818022 0.0183851 5.05604e-20)
(-0.081208 0.0156217 -1.37602e-20)
(-0.0800531 0.0124286 -3.6421e-20)
(-0.0782304 0.00877325 3.15835e-20)
(-0.0755954 0.00464533 -3.03483e-21)
(-0.0720634 8.0152e-05 -5.04182e-21)
(-0.0675444 -0.00504724 1.55895e-20)
(-0.0618442 -0.0106308 -1.08628e-20)
(-0.0548358 -0.0166718 -2.57197e-20)
(-0.0463914 -0.0231429 2.08797e-20)
(-0.0363776 -0.0300009 -4.91491e-21)
(-0.0246636 -0.0371902 -4.29936e-21)
(-0.0111442 -0.0446444 8.42679e-21)
(0.0042623 -0.0522639 1.57934e-20)
(0.021757 -0.0599291 -5.09094e-21)
(0.0413662 -0.0675519 -2.72379e-20)
(0.0630376 -0.0750188 1.95507e-20)
(0.0867675 -0.0821982 -9.04245e-21)
(0.112571 -0.0887351 2.882e-21)
(0.14039 -0.0947873 5.68829e-21)
(0.169964 -0.100035 -2.34429e-21)
(0.20116 -0.104344 -2.62177e-22)
(0.233716 -0.107621 6.30282e-22)
(0.267335 -0.10977 -2.48671e-21)
(0.301694 -0.110742 -5.04956e-22)
(0.336449 -0.110535 1.39114e-21)
(0.371255 -0.109191 -1.00034e-22)
(0.405779 -0.106798 -2.90583e-23)
(0.439717 -0.103484 -2.16634e-22)
(0.472801 -0.0994034 1.49647e-22)
(0.50481 -0.0947238 8.86658e-22)
(0.535566 -0.0896223 2.66451e-22)
(0.564953 -0.0842547 -1.41837e-21)
(0.592873 -0.0787815 -7.76777e-22)
(0.619317 -0.0733116 -9.66757e-22)
(0.644231 -0.067976 4.36226e-22)
(0.667719 -0.0628182 -1.13502e-21)
(0.689702 -0.0579493 1.44508e-21)
(0.710421 -0.0533193 -8.29036e-22)
(0.729665 -0.0490682 7.98019e-22)
(0.747933 -0.0450315 -2.54421e-23)
(0.764675 -0.0414483 -5.99976e-22)
(0.780905 -0.0379736 5.34873e-22)
(0.795336 -0.0350557 -3.46634e-22)
(0.810035 -0.0320592 2.31959e-22)
(0.822215 -0.0297978 4.44192e-22)
(0.836039 -0.027186 2.01107e-22)
(0.845845 -0.0255882 -3.83237e-23)
(0.859693 -0.0232893 2.38039e-23)
(0.86676 -0.0223682 8.44259e-23)
(0.881903 -0.0203524 3.73004e-23)
(0.885562 -0.0200442 -3.03679e-23)
(0.903791 -0.0183758 1.72357e-23)
(-0.00457197 0.0282111 4.14753e-20)
(-0.00720096 0.0291278 -3.19714e-20)
(-0.00699053 0.029795 5.30319e-20)
(-0.0072583 0.0299672 -1.99507e-20)
(-0.00742354 0.0300333 1.65747e-20)
(-0.00759596 0.0299967 -4.27571e-20)
(-0.00774194 0.0298772 6.57114e-21)
(-0.00783495 0.0296836 -1.94142e-21)
(-0.00785467 0.0294054 9.82609e-21)
(-0.00778405 0.0290175 2.80476e-20)
(-0.00760225 0.0284881 -2.28138e-20)
(-0.00728526 0.027781 1.65644e-20)
(-0.00680523 0.0268568 1.03158e-20)
(-0.00612887 0.0256742 4.37993e-21)
(-0.0052165 0.0241906 -2.98069e-20)
(-0.00402174 0.0223638 1.76076e-20)
(-0.00249014 0.0201525 -2.57712e-20)
(-0.000557278 0.0175166 3.09336e-21)
(0.0018514 0.0144173 -7.85944e-22)
(0.00480172 0.0108241 3.52122e-20)
(0.00837647 0.00671454 -3.01864e-20)
(0.0127371 0.00209544 -4.23186e-21)
(0.0179007 -0.00312 -7.41434e-21)
(0.0239599 -0.00889458 3.24002e-20)
(0.0311142 -0.0151927 -1.16901e-20)
(0.0394545 -0.0220145 -1.13106e-20)
(0.0490971 -0.0293269 -6.92061e-21)
(0.0601563 -0.0370818 2.64761e-20)
(0.0727442 -0.0452149 -9.56286e-21)
(0.0869568 -0.0536535 -1.24413e-20)
(0.102865 -0.062265 -9.87874e-21)
(0.120593 -0.0708811 2.7446e-20)
(0.140183 -0.0795115 -7.54828e-21)
(0.161613 -0.0879408 -2.61489e-21)
(0.184846 -0.0960143 -5.16153e-21)
(0.209854 -0.103465 -3.63733e-21)
(0.236564 -0.110235 3.84949e-21)
(0.264754 -0.116088 2.93201e-21)
(0.294255 -0.120865 -3.00099e-21)
(0.324814 -0.124441 -3.36784e-21)
(0.35615 -0.126714 4.43392e-21)
(0.387954 -0.127631 -5.11489e-22)
(0.419912 -0.127192 -9.31702e-24)
(0.451712 -0.125453 -2.39122e-22)
(0.483061 -0.122522 -7.19496e-23)
(0.513701 -0.118549 3.66845e-22)
(0.54341 -0.113717 -9.80503e-22)
(0.572013 -0.10822 -1.73851e-22)
(0.599373 -0.102264 2.7219e-23)
(0.625412 -0.0960253 5.31598e-22)
(0.650063 -0.0896881 8.61949e-22)
(0.673338 -0.0833751 -3.49286e-22)
(0.695204 -0.0772326 -1.01978e-21)
(0.715768 -0.0713083 2.38023e-21)
(0.734972 -0.0657275 -1.81423e-21)
(0.75304 -0.0604323 1.02494e-21)
(0.769788 -0.0555774 -4.56309e-22)
(0.785665 -0.0509771 -3.07273e-22)
(0.800187 -0.0468967 4.63715e-22)
(0.814257 -0.042949 1.17902e-22)
(0.82673 -0.0396329 -3.47892e-22)
(0.839453 -0.0362387 1.22452e-22)
(0.849934 -0.0336708 -1.7805e-22)
(0.861902 -0.0307249 -4.94646e-22)
(0.870285 -0.028908 -4.02315e-23)
(0.882304 -0.0263349 -7.54628e-23)
(0.888288 -0.0252797 -2.35185e-22)
(0.901494 -0.0230549 7.16054e-24)
(0.904545 -0.0226881 6.33824e-24)
(0.920523 -0.0208804 1.0839e-24)
(0.0597889 0.0269638 2.18447e-20)
(0.0581422 0.0286412 4.56469e-20)
(0.0582027 0.0289685 -5.36933e-20)
(0.0589246 0.0291539 -1.58833e-21)
(0.0597922 0.0292396 1.20814e-20)
(0.0606947 0.0291961 -1.11929e-20)
(0.061684 0.0290398 -2.35434e-20)
(0.062792 0.0287914 -3.59932e-21)
(0.0640337 0.0284453 5.76895e-20)
(0.0654256 0.0279793 -1.73449e-21)
(0.0669881 0.027362 -4.78958e-21)
(0.0687437 0.0265562 -9.27902e-21)
(0.0707173 0.0255205 8.85857e-21)
(0.0729374 0.0242104 -6.61073e-21)
(0.075437 0.0225793 9.73755e-21)
(0.0782542 0.0205805 -2.60955e-20)
(0.0814331 0.018168 -2.24173e-20)
(0.085026 0.0152977 3.16783e-20)
(0.0890947 0.0119264 2.21421e-21)
(0.0936994 0.00800912 -1.60702e-20)
(0.0989272 0.00353445 3.71403e-20)
(0.104829 -0.0015132 -5.30453e-21)
(0.11146 -0.0072442 -2.57721e-21)
(0.118966 -0.0135475 -3.34552e-20)
(0.127449 -0.0204427 2.31519e-21)
(0.136995 -0.0279162 2.95065e-20)
(0.147704 -0.0359322 -1.20825e-20)
(0.159674 -0.0444386 -1.9401e-20)
(0.172995 -0.0533631 1.25033e-20)
(0.187748 -0.0626234 -3.33996e-21)
(0.203989 -0.0720887 3.88321e-21)
(0.221805 -0.0816076 1.16525e-20)
(0.241225 -0.0910815 -3.15816e-21)
(0.262227 -0.100328 -1.41193e-20)
(0.284758 -0.109161 1.47442e-20)
(0.308762 -0.117332 2.33877e-21)
(0.334141 -0.124701 2.65005e-21)
(0.360695 -0.131042 -2.03969e-21)
(0.388235 -0.136173 -1.15229e-20)
(0.416519 -0.139949 5.36612e-21)
(0.445278 -0.142261 6.98666e-22)
(0.474231 -0.143054 -1.31083e-22)
(0.503096 -0.142335 4.57481e-22)
(0.531603 -0.140173 1.69493e-23)
(0.559512 -0.136696 1.75961e-23)
(0.586615 -0.132076 1.24128e-23)
(0.612744 -0.126524 -1.8821e-22)
(0.637776 -0.120256 3.88409e-22)
(0.661618 -0.113503 -3.12001e-22)
(0.684229 -0.106462 -5.87708e-22)
(0.705572 -0.0993352 6.45192e-22)
(0.725677 -0.0922564 7.31658e-22)
(0.744529 -0.0853847 -2.73014e-22)
(0.762231 -0.07877 -1.48734e-22)
(0.778743 -0.0725499 -3.74808e-23)
(0.794263 -0.0666599 -5.82214e-22)
(0.808635 -0.0612657 1.60544e-22)
(0.822249 -0.056164 1.65264e-21)
(0.834685 -0.051641 3.1739e-22)
(0.846731 -0.0472747 2.6751e-22)
(0.85738 -0.0436044 -2.95078e-22)
(0.868261 -0.0398606 -2.56995e-22)
(0.877166 -0.0370189 4.32995e-22)
(0.887398 -0.0337835 7.17961e-23)
(0.894463 -0.0317681 1.68982e-22)
(0.904758 -0.0289655 2.97324e-22)
(0.909737 -0.0277846 -8.24797e-23)
(0.921095 -0.0253996 9.94017e-23)
(0.923583 -0.0249732 -2.28516e-23)
(0.937396 -0.0230765 7.71973e-24)
(0.133721 0.0263185 -4.29937e-20)
(0.132798 0.0273675 5.30602e-20)
(0.132542 0.0274474 7.06026e-20)
(0.133616 0.0274959 -8.12921e-20)
(0.135034 0.0275101 -5.24383e-20)
(0.136544 0.0274024 3.69648e-20)
(0.138213 0.0271693 3.56028e-20)
(0.140084 0.0268296 5.22688e-20)
(0.142168 0.0263822 -6.09943e-20)
(0.144477 0.0258072 -4.15628e-22)
(0.147028 0.0250746 -4.96539e-20)
(0.149844 0.0241478 1.32697e-20)
(0.152947 0.0229848 3.97369e-20)
(0.15636 0.0215393 -3.05904e-21)
(0.160112 0.0197623 -2.41025e-20)
(0.164231 0.0176036 6.26178e-21)
(0.168753 0.0150136 1.4042e-20)
(0.173717 0.0119434 -2.5922e-20)
(0.179171 0.00834487 5.5388e-20)
(0.185165 0.00416984 -2.61923e-20)
(0.191769 -0.000601672 -1.50371e-20)
(0.199002 -0.00604276 3.50543e-20)
(0.20693 -0.012132 -3.4464e-20)
(0.215661 -0.0188594 1.16488e-20)
(0.225269 -0.0262351 4.59848e-21)
(0.235832 -0.0342383 1.47652e-20)
(0.247428 -0.042831 -1.12803e-20)
(0.260133 -0.0519567 -1.72649e-20)
(0.274016 -0.0615369 4.77338e-21)
(0.289139 -0.0714795 -7.89123e-21)
(0.305542 -0.0816494 3.56947e-20)
(0.323275 -0.0918932 -1.40521e-20)
(0.342349 -0.102071 -2.14463e-20)
(0.362732 -0.111992 2.77811e-20)
(0.384357 -0.12145 -1.64017e-20)
(0.40714 -0.130194 -2.91611e-21)
(0.430961 -0.138035 7.68672e-21)
(0.45563 -0.14474 -2.33472e-21)
(0.480948 -0.150111 4.91184e-21)
(0.506679 -0.153987 -1.73695e-21)
(0.532579 -0.156256 2.49767e-21)
(0.558396 -0.156864 -4.42107e-21)
(0.583892 -0.155827 2.6297e-21)
(0.608849 -0.153227 5.64522e-22)
(0.633086 -0.149212 -5.51434e-22)
(0.656455 -0.143977 3.98481e-22)
(0.678849 -0.137754 -6.41454e-22)
(0.700196 -0.130782 1.75707e-21)
(0.720453 -0.123311 -2.29795e-21)
(0.739613 -0.115554 6.88128e-22)
(0.757667 -0.107727 -2.22103e-22)
(0.774658 -0.0999736 1.53829e-22)
(0.790585 -0.0924617 -2.86163e-23)
(0.805543 -0.0852418 1.00791e-21)
(0.819502 -0.0784616 -1.21827e-21)
(0.832633 -0.0720516 -4.93886e-22)
(0.8448 -0.0661853 -2.54638e-22)
(0.856334 -0.0606458 7.68551e-24)
(0.866868 -0.0557345 -1.33042e-21)
(0.877082 -0.0510027 9.26215e-22)
(0.886094 -0.0470203 -8.38913e-22)
(0.895321 -0.0429717 1.57308e-22)
(0.902824 -0.0398864 -5.91275e-22)
(0.911503 -0.0364013 1.22146e-22)
(0.917401 -0.0342054 4.19564e-23)
(0.926142 -0.0312123 -1.33361e-22)
(0.930233 -0.0299124 1.08258e-22)
(0.939907 -0.0274089 -1.00514e-22)
(0.9419 -0.026922 -5.23706e-23)
(0.953721 -0.0249786 1.27756e-23)
(0.21867 0.0261879 -5.29755e-21)
(0.217707 0.0258709 -1.1584e-19)
(0.21841 0.0256459 1.27942e-19)
(0.219731 0.025478 -6.51699e-20)
(0.221239 0.025216 -5.70073e-21)
(0.222987 0.0248296 5.47822e-20)
(0.225038 0.024333 -5.86708e-20)
(0.2274 0.0237256 -9.11957e-21)
(0.230076 0.0229877 4.5816e-20)
(0.233084 0.0220904 -9.85986e-21)
(0.236442 0.0209982 -4.94595e-20)
(0.240169 0.0196697 8.77369e-20)
(0.244289 0.0180581 -2.30159e-20)
(0.248821 0.0161133 -3.89629e-20)
(0.253791 0.0137833 4.68466e-20)
(0.259223 0.0110158 6.80098e-21)
(0.265146 0.00775857 -2.10676e-20)
(0.271593 0.00395935 -2.58134e-20)
(0.278612 -0.000425752 -3.20686e-20)
(0.28623 -0.00545337 1.70171e-20)
(0.294465 -0.0111683 1.21402e-20)
(0.303386 -0.0175546 2.12875e-20)
(0.313051 -0.024625 -3.06619e-20)
(0.323518 -0.0323799 1.85647e-20)
(0.334845 -0.0407998 -2.49638e-21)
(0.347087 -0.0498464 -1.65922e-20)
(0.360299 -0.0594615 1.13779e-20)
(0.374528 -0.0695633 1.2118e-21)
(0.389809 -0.0800511 -2.40389e-20)
(0.406163 -0.0907858 7.52732e-21)
(0.423607 -0.101606 1.48986e-20)
(0.442127 -0.112343 -8.87835e-21)
(0.461674 -0.122795 4.39361e-21)
(0.482164 -0.132736 8.87478e-21)
(0.503487 -0.14191 -1.37195e-20)
(0.525502 -0.150089 6.33861e-21)
(0.548023 -0.157033 5.93869e-21)
(0.570844 -0.16253 -5.45763e-21)
(0.593746 -0.166411 4.19077e-22)
(0.616508 -0.168562 -4.69236e-21)
(0.638922 -0.168934 2.61559e-21)
(0.660801 -0.167553 9.20237e-22)
(0.681989 -0.164516 5.06684e-23)
(0.702369 -0.159991 -5.29723e-22)
(0.721863 -0.154191 2.98828e-22)
(0.740425 -0.147368 -1.20113e-21)
(0.758039 -0.139778 -4.16064e-22)
(0.774705 -0.131685 1.27243e-21)
(0.790448 -0.123314 -4.09296e-23)
(0.805285 -0.114891 4.22678e-22)
(0.819267 -0.106565 -4.35848e-22)
(0.832401 -0.0985114 -2.83725e-22)
(0.844768 -0.0907789 -6.54275e-22)
(0.856345 -0.0835227 6.21458e-22)
(0.867272 -0.0766708 4.47923e-23)
(0.877429 -0.0704014 7.88681e-22)
(0.887085 -0.0644878 2.00691e-26)
(0.895923 -0.0592426 1.21008e-22)
(0.904515 -0.0541965 -2.31786e-22)
(0.912092 -0.0499426 4.62349e-22)
(0.919878 -0.0456306 5.49895e-22)
(0.92617 -0.0423293 -1.88192e-22)
(0.933502 -0.0386296 6.11921e-22)
(0.938403 -0.0362691 -5.26678e-22)
(0.945794 -0.033118 1.08752e-23)
(0.949133 -0.0317045 9.14888e-23)
(0.95733 -0.029116 7.89318e-23)
(0.958906 -0.0285685 -2.05452e-23)
(0.968963 -0.0266114 -7.0623e-24)
(0.31733 0.0259034 -6.34216e-20)
(0.315188 0.0250255 2.87655e-20)
(0.314808 0.024375 -1.95282e-20)
(0.31532 0.023892 -1.82702e-20)
(0.316138 0.0233526 4.19753e-21)
(0.317287 0.0227036 -2.98546e-21)
(0.318848 0.0219548 8.77238e-21)
(0.320832 0.0211014 4.98709e-20)
(0.323236 0.0201216 -7.86938e-20)
(0.326072 0.0189862 6.00814e-20)
(0.329357 0.017661 1.94394e-20)
(0.333109 0.0161054 -9.65323e-20)
(0.337346 0.0142731 9.23774e-20)
(0.342087 0.0121138 -3.66346e-20)
(0.347351 0.00957491 1.81109e-21)
(0.353158 0.00660328 2.49141e-20)
(0.359523 0.00314449 -3.89114e-20)
(0.366472 -0.000852933 1.82101e-20)
(0.374027 -0.00544749 -3.9697e-20)
(0.382209 -0.0107039 -1.63904e-20)
(0.391038 -0.0166356 6.22256e-20)
(0.400546 -0.0232653 -9.54105e-21)
(0.410767 -0.0306056 7.51551e-21)
(0.42174 -0.0386553 2.02849e-20)
(0.433498 -0.0473961 -3.84495e-21)
(0.446074 -0.0567903 -1.70548e-20)
(0.459494 -0.0667782 -2.26438e-20)
(0.473781 -0.0772761 2.54247e-20)
(0.488944 -0.0881762 2.82016e-22)
(0.50498 -0.099336 -1.53594e-20)
(0.52187 -0.110587 5.43283e-21)
(0.539574 -0.121743 1.57186e-20)
(0.558019 -0.132585 -3.04021e-20)
(0.577099 -0.142869 7.45845e-21)
(0.596682 -0.15233 9.27138e-21)
(0.616611 -0.160717 2.3314e-21)
(0.636694 -0.167778 -9.85397e-21)
(0.656732 -0.173294 3.474e-22)
(0.676525 -0.177092 -6.08908e-22)
(0.695887 -0.179061 6.52489e-21)
(0.714659 -0.179159 -3.54605e-21)
(0.732716 -0.177425 4.73945e-23)
(0.749972 -0.173973 1.25329e-21)
(0.766382 -0.168985 -3.47465e-22)
(0.781934 -0.162692 -2.2654e-22)
(0.796647 -0.155359 -7.33262e-22)
(0.810554 -0.147254 -2.06641e-22)
(0.823697 -0.138651 1.30632e-21)
(0.836127 -0.129782 -1.10606e-21)
(0.847878 -0.120877 5.01072e-22)
(0.859003 -0.112089 3.1714e-22)
(0.869513 -0.103597 3.15324e-22)
(0.879473 -0.0954484 -8.41641e-22)
(0.888859 -0.0878027 1.5749e-21)
(0.897779 -0.0805877 -3.90961e-22)
(0.906126 -0.0739846 2.80504e-22)
(0.91411 -0.0677598 -9.81162e-22)
(0.921455 -0.0622337 -6.96747e-22)
(0.928632 -0.0569225 6.33185e-22)
(0.934973 -0.0524358 -2.95013e-22)
(0.941524 -0.0478986 -6.05213e-22)
(0.946793 -0.0444072 4.12987e-22)
(0.952986 -0.0405235 -3.19324e-22)
(0.957057 -0.0380127 4.92025e-23)
(0.963308 -0.0347298 -5.6325e-23)
(0.966027 -0.033208 3.74376e-24)
(0.972968 -0.0305595 -4.40349e-23)
(0.974205 -0.0299522 -3.62512e-24)
(0.98275 -0.028005 -5.5279e-24)
(0.429135 0.0272743 3.5948e-20)
(0.425435 0.0256881 -3.55298e-20)
(0.423361 0.0244671 1.16181e-20)
(0.422387 0.0235144 3.14989e-20)
(0.421851 0.0225487 -6.0274e-20)
(0.421742 0.0215043 1.7389e-20)
(0.422153 0.020386 9.0978e-20)
(0.423102 0.0191795 -2.84177e-20)
(0.424584 0.0178571 -5.6729e-20)
(0.426604 0.0163894 4.97037e-20)
(0.429179 0.0147429 -1.47865e-20)
(0.432323 0.0128779 4.17422e-20)
(0.436054 0.0107489 -5.36586e-20)
(0.440388 0.00830576 -6.28195e-20)
(0.445341 0.00549669 1.0416e-19)
(0.450929 0.00226829 -1.00297e-19)
(0.457162 -0.00142969 5.9633e-20)
(0.464048 -0.00565446 5.21889e-20)
(0.471597 -0.0104755 -1.02325e-19)
(0.479828 -0.0159387 8.09405e-20)
(0.488744 -0.0220806 -4.04396e-20)
(0.498355 -0.0289277 -3.34859e-20)
(0.508676 -0.0364941 6.89735e-21)
(0.519721 -0.0447807 6.87971e-20)
(0.531498 -0.0537712 -8.50747e-20)
(0.544015 -0.0634284 7.93544e-20)
(0.55727 -0.0736925 1.9535e-20)
(0.571257 -0.0844769 -1.44519e-20)
(0.585956 -0.0956694 -5.67307e-20)
(0.601331 -0.107124 1.495e-20)
(0.617334 -0.118668 2.30612e-20)
(0.633893 -0.1301 -2.25332e-20)
(0.650911 -0.14119 1.61297e-20)
(0.668257 -0.151683 -8.69258e-21)
(0.685778 -0.1613 4.94038e-21)
(0.703304 -0.169771 -4.65624e-21)
(0.720643 -0.176838 2.71134e-21)
(0.737609 -0.182277 6.15093e-22)
(0.754027 -0.185919 -2.02846e-21)
(0.769757 -0.18766 3.61078e-21)
(0.784701 -0.187469 -4.68233e-21)
(0.798801 -0.185397 -1.06517e-21)
(0.812044 -0.181572 5.93646e-22)
(0.824458 -0.176192 3.51679e-22)
(0.836098 -0.169497 3.10384e-22)
(0.847038 -0.161762 -5.26602e-23)
(0.857357 -0.153261 9.36916e-23)
(0.867126 -0.14427 6.46935e-22)
(0.876416 -0.135026 1.28929e-21)
(0.88527 -0.125758 -2.20402e-21)
(0.893738 -0.116621 3.04402e-23)
(0.901831 -0.107795 -1.79216e-21)
(0.90959 -0.0993271 3.58722e-21)
(0.916992 -0.0913769 -2.28905e-21)
(0.924109 -0.0838758 -4.27438e-22)
(0.930845 -0.077006 4.9153e-22)
(0.937354 -0.0705304 -8.14035e-22)
(0.943395 -0.0647744 1.24183e-21)
(0.949349 -0.0592444 -2.65644e-24)
(0.954635 -0.0545617 3.15164e-23)
(0.96014 -0.0498344 6.86891e-22)
(0.964555 -0.0461772 -1.86014e-22)
(0.9698 -0.0421358 1.80649e-22)
(0.973192 -0.0394884 -1.76202e-22)
(0.9785 -0.0360946 7.09624e-24)
(0.980721 -0.0344695 -3.98395e-23)
(0.986619 -0.031779 8.47418e-23)
(0.987589 -0.0311137 -4.13566e-23)
(0.994867 -0.0291921 7.25105e-24)
(0.546871 0.0285154 -3.9666e-20)
(0.542736 0.0265938 4.44501e-20)
(0.539774 0.0250121 -9.43459e-20)
(0.537377 0.0234579 1.38267e-20)
(0.535499 0.0218685 3.97067e-20)
(0.53423 0.0202478 -1.98241e-20)
(0.533599 0.0185689 -1.20231e-20)
(0.533603 0.0167945 1.62716e-20)
(0.534249 0.0148915 1.45341e-20)
(0.535549 0.0128259 -4.93894e-20)
(0.537518 0.0105584 -3.4451e-20)