/*--------------------------------*- C++ -*----------------------------------*\
  =========                 |
  \\      /  F ield         | OpenFOAM: The Open Source CFD Toolbox
   \\    /   O peration     | Website:  https://openfoam.org
    \\  /    A nd           | Version:  7
     \\/     M anipulation  |
\*---------------------------------------------------------------------------*/
FoamFile
{
    version     2.0;
    format      ascii;
    class       volScalarField;
    location    "70.000322";
    object      p;
}
// * * * * * * * * * * * * * * * * * * * * * * * * * * * * * * * * * * * * * //

dimensions      [0 2 -2 0 0 0 0];

internalField   nonuniform List<scalar> 
5800
(
-0.224213
-0.224525
-0.224694
-0.224792
-0.224861
-0.0237035
-0.0243619
-0.0250209
-0.0256796
-0.0263371
-0.0269922
-0.0276439
-0.0282911
-0.0289326
-0.029567
-0.0301929
-0.030809
-0.0314136
-0.0320052
-0.0325821
-0.0331425
-0.0336846
-0.0342065
-0.0347061
-0.0351814
-0.0356303
-0.0360506
-0.0364399
-0.0367961
-0.0371166
-0.0373991
-0.0376412
-0.0378403
-0.037994
-0.0380997
-0.0381549
-0.0381571
-0.0381038
-0.0379926
-0.0378211
-0.037587
-0.0372879
-0.0369219
-0.0364867
-0.0359807
-0.0354017
-0.0347485
-0.0340193
-0.0332134
-0.0323289
-0.0313663
-0.0303233
-0.0292017
-0.0279987
-0.026718
-0.0253557
-0.0239181
-0.0223991
-0.0208092
-0.0191385
-0.0174034
-0.0155882
-0.0137177
-0.0117672
-0.00977416
-0.00769955
-0.00559824
-0.00340834
-0.00120369
-0.0237925
-0.0244529
-0.0251139
-0.0257746
-0.026434
-0.027091
-0.0277446
-0.0283936
-0.0290368
-0.0296729
-0.0303005
-0.030918
-0.0315241
-0.032117
-0.0326951
-0.0332566
-0.0337997
-0.0343224
-0.0348227
-0.0352985
-0.0357478
-0.0361683
-0.0365577
-0.0369137
-0.0372339
-0.037516
-0.0377574
-0.0379557
-0.0381083
-0.0382128
-0.0382665
-0.0382671
-0.038212
-0.0380988
-0.0379251
-0.0376887
-0.0373871
-0.0370184
-0.0365803
-0.0360712
-0.035489
-0.0348326
-0.0340999
-0.0332905
-0.0324023
-0.031436
-0.0303891
-0.0292637
-0.0280567
-0.0267722
-0.0254058
-0.0239644
-0.0224413
-0.0208478
-0.0191729
-0.0174344
-0.0156149
-0.0137413
-0.0117865
-0.00979061
-0.00771134
-0.0056079
-0.00341284
-0.00120682
-0.0239625
-0.0246273
-0.0252926
-0.0259575
-0.026621
-0.027282
-0.0279395
-0.0285922
-0.029239
-0.0298785
-0.0305093
-0.0311299
-0.0317388
-0.0323344
-0.0329148
-0.0334785
-0.0340234
-0.0345477
-0.0350494
-0.0355263
-0.0359763
-0.0363972
-0.0367867
-0.0371425
-0.0374621
-0.0377433
-0.0379834
-0.03818
-0.0383306
-0.0384327
-0.0384837
-0.0384811
-0.0384225
-0.0383054
-0.0381274
-0.0378864
-0.0375798
-0.0372058
-0.0367622
-0.0362472
-0.0356588
-0.0349959
-0.0342565
-0.0334402
-0.0325449
-0.0315713
-0.0305169
-0.029384
-0.0281694
-0.0268773
-0.0255032
-0.0240542
-0.0225234
-0.0209223
-0.0192399
-0.017494
-0.0156671
-0.0137865
-0.0118243
-0.00982183
-0.00773514
-0.00562555
-0.0034229
-0.00121128
-0.0242127
-0.0248838
-0.0255554
-0.0262263
-0.0268957
-0.0275624
-0.0282254
-0.0288835
-0.0295354
-0.0301798
-0.0308152
-0.0314402
-0.0320532
-0.0326525
-0.0332364
-0.0338032
-0.0343508
-0.0348774
-0.035381
-0.0358594
-0.0363104
-0.0367319
-0.0371215
-0.0374769
-0.0377957
-0.0380754
-0.0383136
-0.0385077
-0.0386553
-0.0387538
-0.0388007
-0.0387935
-0.0387297
-0.0386069
-0.0384227
-0.0381749
-0.0378611
-0.0374793
-0.0370274
-0.0365037
-0.0359063
-0.0352339
-0.0344847
-0.0336583
-0.0327526
-0.0317683
-0.0307031
-0.0295593
-0.0283335
-0.0270303
-0.0256449
-0.0241848
-0.0226428
-0.0210307
-0.0193373
-0.0175808
-0.015743
-0.0138522
-0.0118793
-0.00986706
-0.0077699
-0.00565096
-0.00343783
-0.0012172
-0.0245384
-0.0252179
-0.0258976
-0.0265764
-0.0272534
-0.0279276
-0.0285979
-0.0292629
-0.0299215
-0.0305723
-0.0312138
-0.0318444
-0.0324627
-0.0330669
-0.0336553
-0.034226
-0.0347771
-0.0353067
-0.0358127
-0.0362929
-0.0367453
-0.0371674
-0.0375571
-0.0379119
-0.0382295
-0.0385073
-0.0387429
-0.0389337
-0.0390774
-0.0391712
-0.0392127
-0.0391994
-0.0391287
-0.0389985
-0.0388061
-0.0385494
-0.0382261
-0.0378342
-0.0373715
-0.0368365
-0.0362272
-0.0355425
-0.0347805
-0.0339409
-0.0330216
-0.0320235
-0.0309442
-0.0297861
-0.0285459
-0.0272281
-0.0258282
-0.0243536
-0.0227971
-0.0211708
-0.019463
-0.0176927
-0.015841
-0.0139369
-0.0119504
-0.00992537
-0.00781479
-0.00568366
-0.00345714
-0.00122462
-0.0249376
-0.0256273
-0.0263169
-0.0270053
-0.0276917
-0.028375
-0.029054
-0.0297276
-0.0303943
-0.0310528
-0.0317016
-0.0323392
-0.0329638
-0.0335739
-0.0341676
-0.0347431
-0.0352984
-0.0358315
-0.0363404
-0.0368228
-0.0372767
-0.0376996
-0.0380892
-0.0384432
-0.0387592
-0.0390346
-0.0392669
-0.0394537
-0.0395923
-0.0396803
-0.0397151
-0.0396942
-0.0396152
-0.0394757
-0.0392732
-0.0390056
-0.0386705
-0.0382662
-0.0377903
-0.0372415
-0.0366177
-0.0359179
-0.0351402
-0.0342844
-0.0333485
-0.0323335
-0.0312369
-0.0300613
-0.0288035
-0.0274681
-0.0260503
-0.0245581
-0.0229839
-0.0213404
-0.0196152
-0.0178281
-0.0159595
-0.0140392
-0.0120362
-0.00999579
-0.00786906
-0.00572309
-0.00348048
-0.00123348
-0.0254082
-0.0261098
-0.026811
-0.0275107
-0.0282081
-0.028902
-0.0295913
-0.0302748
-0.030951
-0.0316185
-0.0322758
-0.0329213
-0.0335534
-0.0341703
-0.0347702
-0.0353512
-0.0359112
-0.0364484
-0.0369606
-0.0374455
-0.0379009
-0.0383245
-0.038714
-0.039067
-0.0393809
-0.0396533
-0.0398816
-0.0400634
-0.0401961
-0.0402771
-0.0403039
-0.040274
-0.040185
-0.0400344
-0.03982
-0.0395395
-0.0391906
-0.0387715
-0.0382801
-0.0377148
-0.0370739
-0.0363562
-0.0355601
-0.0346853
-0.0337299
-0.032695
-0.0315782
-0.0303821
-0.0291035
-0.0277474
-0.0263088
-0.024796
-0.0232012
-0.0215374
-0.019792
-0.0179853
-0.016097
-0.0141579
-0.0121358
-0.0100774
-0.00793195
-0.00576874
-0.00350751
-0.00124369
-0.0259484
-0.0266636
-0.0273781
-0.0280907
-0.0288006
-0.0295066
-0.0302076
-0.0309023
-0.0315893
-0.032267
-0.0329339
-0.0335885
-0.0342289
-0.0348535
-0.0354602
-0.0360474
-0.0366128
-0.0371544
-0.0376701
-0.0381576
-0.0386147
-0.039039
-0.0394282
-0.0397797
-0.0400911
-0.0403599
-0.0405835
-0.0407594
-0.0408851
-0.0409579
-0.0409754
-0.040935
-0.0408344
-0.0406711
-0.0404428
-0.0401474
-0.0397825
-0.0393464
-0.0388371
-0.038253
-0.0375923
-0.0368542
-0.0360369
-0.0351403
-0.0341626
-0.0331049
-0.0319649
-0.0307454
-0.0294432
-0.0280635
-0.0266012
-0.0250649
-0.0234466
-0.0217599
-0.0199915
-0.0181626
-0.016252
-0.0142916
-0.012248
-0.0101692
-0.00800272
-0.00582005
-0.00353794
-0.00125513
-0.0265572
-0.0272876
-0.028017
-0.0287439
-0.0294676
-0.0301871
-0.0309012
-0.0316084
-0.0323073
-0.0329964
-0.033674
-0.0343385
-0.0349881
-0.0356211
-0.0362354
-0.0368293
-0.0374004
-0.0379469
-0.0384663
-0.0389566
-0.0394153
-0.0398402
-0.0402287
-0.0405783
-0.0408867
-0.0411512
-0.0413693
-0.0415384
-0.0416559
-0.0417194
-0.0417262
-0.0416739
-0.04156
-0.0413822
-0.0411382
-0.0408259
-0.0404429
-0.0399876
-0.039458
-0.0388527
-0.0381698
-0.0374087
-0.0365675
-0.0356465
-0.0346436
-0.0335604
-0.0323944
-0.0311487
-0.0298201
-0.0284139
-0.0269251
-0.0253626
-0.0237182
-0.0220058
-0.020212
-0.0183584
-0.016423
-0.0144391
-0.0123716
-0.0102703
-0.00808067
-0.00587652
-0.00357142
-0.00126769
-0.0272335
-0.0279808
-0.0287264
-0.0294691
-0.0302081
-0.0309424
-0.0316708
-0.0323917
-0.0331036
-0.033805
-0.0344942
-0.0351696
-0.0358292
-0.0364712
-0.0370938
-0.0376947
-0.038272
-0.0388235
-0.0393469
-0.0398399
-0.0403002
-0.0407253
-0.0411128
-0.0414602
-0.0417649
-0.0420244
-0.0422361
-0.0423974
-0.0425057
-0.0425585
-0.0425533
-0.0424874
-0.0423587
-0.0421647
-0.0419031
-0.0415718
-0.0411686
-0.040692
-0.0401398
-0.0395108
-0.0388033
-0.0380165
-0.0371489
-0.0362007
-0.0351701
-0.0340586
-0.0328639
-0.0315892
-0.0302314
-0.0287961
-0.0272782
-0.0256869
-0.0240138
-0.0222733
-0.0204516
-0.018571
-0.0166087
-0.014599
-0.0125056
-0.0103799
-0.00816508
-0.00593765
-0.00360766
-0.00128126
-0.0279769
-0.0287424
-0.0295057
-0.0302656
-0.0310212
-0.0317715
-0.0325153
-0.033251
-0.033977
-0.0346917
-0.0353934
-0.0360803
-0.0367506
-0.0374024
-0.0380335
-0.038642
-0.0392258
-0.0397824
-0.0403098
-0.0408055
-0.0412672
-0.0416923
-0.0420784
-0.0424229
-0.0427233
-0.0429769
-0.0431813
-0.0433337
-0.0434316
-0.0434725
-0.0434537
-0.0433729
-0.0432275
-0.0430155
-0.0427344
-0.0423822
-0.0419567
-0.0414564
-0.0408794
-0.0402244
-0.0394897
-0.0386749
-0.0377783
-0.0368004
-0.0357393
-0.0345968
-0.0333708
-0.0320646
-0.030675
-0.029208
-0.0276584
-0.0260358
-0.0243315
-0.0225607
-0.0207087
-0.0187989
-0.0168076
-0.0147703
-0.0126489
-0.0104971
-0.00825527
-0.00600292
-0.00364635
-0.00129574
-0.0287868
-0.0295721
-0.0303545
-0.0311328
-0.0319062
-0.0326737
-0.033434
-0.0341856
-0.0349266
-0.0356555
-0.0363704
-0.0370696
-0.0377512
-0.0384131
-0.0390533
-0.0396696
-0.0402599
-0.0408219
-0.0413532
-0.0418515
-0.0423142
-0.0427389
-0.0431231
-0.0434641
-0.0437594
-0.0440064
-0.0442024
-0.0443449
-0.0444311
-0.0444587
-0.0444249
-0.0443274
-0.0441639
-0.043932
-0.0436294
-0.0432542
-0.0428044
-0.0422783
-0.0416741
-0.0409907
-0.0402265
-0.0393811
-0.038453
-0.0374427
-0.0363486
-0.0351726
-0.0339126
-0.0325722
-0.0311483
-0.0296471
-0.0280634
-0.0264071
-0.0246694
-0.022866
-0.0209817
-0.0190407
-0.0170185
-0.0149516
-0.0128006
-0.0106209
-0.00835057
-0.00607186
-0.00368719
-0.00131103
-0.0296633
-0.0304696
-0.0312724
-0.0320704
-0.0328627
-0.0336486
-0.0344265
-0.0351947
-0.0359517
-0.0366955
-0.0374244
-0.0381365
-0.0388298
-0.0395023
-0.0401518
-0.0407762
-0.0413732
-0.0419405
-0.0424756
-0.0429762
-0.0434396
-0.0438635
-0.0442451
-0.044582
-0.0448714
-0.0451107
-0.0452973
-0.0454286
-0.0455019
-0.0455147
-0.0454644
-0.0453487
-0.0451652
-0.0449115
-0.0445856
-0.0441854
-0.043709
-0.0431548
-0.0425212
-0.041807
-0.0410109
-0.0401325
-0.0391703
-0.0381252
-0.0369956
-0.0357835
-0.034487
-0.03311
-0.0316492
-0.0301115
-0.0284912
-0.026799
-0.0250257
-0.0231875
-0.0212689
-0.0192949
-0.0172398
-0.0151418
-0.0129596
-0.0107507
-0.00845031
-0.00614399
-0.00372988
-0.00132703
-0.0306065
-0.0314351
-0.0322595
-0.0330783
-0.0338907
-0.0346958
-0.0354922
-0.0362781
-0.0370518
-0.0378112
-0.0385547
-0.0392802
-0.0399857
-0.0406691
-0.0413282
-0.0419607
-0.0425644
-0.0431368
-0.0436756
-0.0441781
-0.0446418
-0.0450642
-0.0454427
-0.0457746
-0.0460571
-0.0462878
-0.0464639
-0.0465827
-0.0466417
-0.0466383
-0.0465699
-0.0464343
-0.046229
-0.0459517
-0.0456004
-0.0451732
-0.044668
-0.0440836
-0.0434182
-0.042671
-0.0418404
-0.0409265
-0.0399279
-0.0388454
-0.0376777
-0.0364271
-0.0350916
-0.0336755
-0.0321756
-0.0305989
-0.0289398
-0.0272096
-0.0253984
-0.0235237
-0.0215688
-0.0195601
-0.0174705
-0.0153399
-0.0131249
-0.0108855
-0.00855386
-0.00621885
-0.00377415
-0.00134364
-0.0316164
-0.0324688
-0.0333159
-0.0341566
-0.0349901
-0.0358155
-0.0366312
-0.0374356
-0.0382266
-0.0390023
-0.0397608
-0.0405001
-0.0412181
-0.0419126
-0.0425814
-0.0432222
-0.0438324
-0.0444098
-0.0449518
-0.0454559
-0.0459194
-0.0463397
-0.0467142
-0.0470402
-0.047315
-0.0475359
-0.0477002
-0.0478053
-0.0478486
-0.0478274
-0.0477393
-0.047582
-0.0473531
-0.0470503
-0.0466716
-0.0462152
-0.0456791
-0.0450622
-0.0443628
-0.0435801
-0.0427127
-0.0417609
-0.0407233
-0.039601
-0.0383928
-0.0371012
-0.0357243
-0.0342667
-0.0327252
-0.0311073
-0.0294073
-0.0276369
-0.025786
-0.0238727
-0.0218799
-0.0198348
-0.0177092
-0.0155446
-0.0132957
-0.0110246
-0.0086606
-0.00629597
-0.00381971
-0.00136076
-0.0326938
-0.0335709
-0.034442
-0.0353055
-0.036161
-0.0370076
-0.0378435
-0.038667
-0.0394759
-0.0402684
-0.0410424
-0.0417959
-0.0425266
-0.0432324
-0.0439109
-0.0445597
-0.0451764
-0.0457585
-0.0463033
-0.0468084
-0.047271
-0.0476885
-0.0480583
-0.0483774
-0.0486433
-0.0488533
-0.0490046
-0.0490945
-0.0491206
-0.0490801
-0.0489706
-0.0487898
-0.0485353
-0.048205
-0.0477969
-0.0473092
-0.0467401
-0.0460884
-0.0453526
-0.044532
-0.0436255
-0.0426333
-0.0415543
-0.0403898
-0.0391386
-0.0378035
-0.0363828
-0.0348815
-0.0332961
-0.0316349
-0.0298918
-0.0280792
-0.0261867
-0.0242332
-0.0222006
-0.0201177
-0.0179548
-0.0157549
-0.0134709
-0.0111672
-0.00876991
-0.00637493
-0.00386629
-0.0013783
-0.033839
-0.0347421
-0.0356381
-0.0365255
-0.0374039
-0.0382723
-0.0391292
-0.0399723
-0.0407998
-0.0416095
-0.0423994
-0.0431672
-0.0439108
-0.0446279
-0.045316
-0.0459727
-0.0465955
-0.0471818
-0.047729
-0.0482345
-0.0486955
-0.0491094
-0.0494734
-0.0497847
-0.0500406
-0.0502383
-0.0503752
-0.0504486
-0.0504558
-0.0503943
-0.0502617
-0.0500556
-0.0497736
-0.0494139
-0.0489742
-0.0484531
-0.0478487
-0.0471599
-0.0463854
-0.0455247
-0.0445766
-0.0435416
-0.0424187
-0.0412095
-0.0399129
-0.038532
-0.0370652
-0.0355177
-0.0338863
-0.0321796
-0.0303914
-0.0285348
-0.0265989
-0.0246034
-0.0225297
-0.0204075
-0.0182059
-0.0159699
-0.0136496
-0.0113126
-0.00888119
-0.0064553
-0.00391364
-0.00139618
-0.0350528
-0.035983
-0.0369048
-0.037817
-0.038719
-0.0396101
-0.0404885
-0.0413519
-0.0421983
-0.0430256
-0.0438315
-0.0446139
-0.0453704
-0.0460986
-0.0467961
-0.0474604
-0.048089
-0.048679
-0.049228
-0.0497332
-0.0501918
-0.0506011
-0.0509582
-0.0512606
-0.0515052
-0.0516894
-0.0518105
-0.0518658
-0.0518526
-0.0517684
-0.0516108
-0.0513774
-0.0510661
-0.0506748
-0.0502015
-0.0496447
-0.0490028
-0.0482747
-0.0474591
-0.0465558
-0.0455637
-0.0444835
-0.0433143
-0.042058
-0.0407136
-0.0392846
-0.0377693
-0.0361735
-0.034494
-0.0327397
-0.0309044
-0.0290019
-0.0270208
-0.0249819
-0.0228656
-0.0207029
-0.0184616
-0.0161883
-0.0138311
-0.0114601
-0.00899389
-0.00653665
-0.00396148
-0.0014143
-0.0363361
-0.0372943
-0.0382429
-0.0391806
-0.0401071
-0.0410214
-0.0419218
-0.0428059
-0.0436716
-0.0445167
-0.0453388
-0.0461357
-0.046905
-0.0476442
-0.0483509
-0.0490224
-0.0496561
-0.0502494
-0.0507994
-0.0513034
-0.0517587
-0.0521624
-0.0525117
-0.0528038
-0.0530358
-0.0532051
-0.0533089
-0.0533444
-0.0533091
-0.0532005
-0.053016
-0.0527536
-0.0524108
-0.0519859
-0.0514769
-0.0508822
-0.0502005
-0.0494307
-0.0485717
-0.0476234
-0.0465849
-0.0454571
-0.0442392
-0.0429334
-0.0415388
-0.0400593
-0.0384933
-0.036847
-0.0351171
-0.0333133
-0.031429
-0.0294789
-0.0274511
-0.0253673
-0.023207
-0.0210028
-0.0187207
-0.0164094
-0.0140144
-0.0116089
-0.00910742
-0.00661859
-0.00400959
-0.00143258
-0.0376898
-0.0386769
-0.0396531
-0.0406171
-0.0415686
-0.0425067
-0.0434295
-0.0443347
-0.0452199
-0.0460829
-0.0469212
-0.0477325
-0.0485145
-0.0492644
-0.0499799
-0.0506581
-0.0512964
-0.0518921
-0.0524423
-0.0529443
-0.0533952
-0.0537922
-0.0541324
-0.054413
-0.0546311
-0.0547839
-0.0548688
-0.054883
-0.0548239
-0.054689
-0.0544757
-0.0541822
-0.053806
-0.0533453
-0.0527983
-0.0521636
-0.0514397
-0.050626
-0.0497212
-0.0487256
-0.0476383
-0.0464604
-0.0451913
-0.0438337
-0.0423865
-0.0408542
-0.0392352
-0.0375362
-0.035754
-0.0338986
-0.0319637
-0.0299642
-0.0278881
-0.025758
-0.0235526
-0.0213058
-0.018982
-0.016632
-0.0141987
-0.0117583
-0.00922126
-0.00670072
-0.0040577
-0.00145093
-0.0391148
-0.0401318
-0.0411364
-0.0421272
-0.0431042
-0.0440666
-0.0450122
-0.0459387
-0.0468435
-0.0477243
-0.0485788
-0.0494044
-0.0501987
-0.050959
-0.0516826
-0.0523669
-0.0530091
-0.0536064
-0.054156
-0.0546549
-0.0551004
-0.0554894
-0.0558192
-0.0560869
-0.0562896
-0.0564245
-0.0564888
-0.0564799
-0.0563952
-0.0562322
-0.0559882
-0.0556615
-0.0552498
-0.0547512
-0.054164
-0.053487
-0.0527187
-0.0518586
-0.0509057
-0.0498603
-0.0487217
-0.0474914
-0.0461688
-0.0447568
-0.0432548
-0.0416674
-0.0399932
-0.0382395
-0.0364028
-0.0344941
-0.0325066
-0.0304563
-0.0283304
-0.0261528
-0.0239011
-0.0216108
-0.0192445
-0.0168553
-0.0143833
-0.0119077
-0.00933488
-0.00678265
-0.0041056
-0.00146929
-0.0406124
-0.04166
-0.0426935
-0.0437117
-0.0447147
-0.0457016
-0.0466703
-0.0476182
-0.0485427
-0.0494413
-0.0503117
-0.0511513
-0.0519574
-0.0527275
-0.0534588
-0.0541485
-0.0547937
-0.0553917
-0.0559396
-0.0564343
-0.0568731
-0.057253
-0.057571
-0.0578243
-0.05801
-0.0581253
-0.0581674
-0.0581336
-0.0580213
-0.0578281
-0.0575518
-0.0571899
-0.0567405
-0.0562018
-0.0555723
-0.0548506
-0.0540356
-0.0531267
-0.0521233
-0.0510257
-0.0498334
-0.0485482
-0.0471697
-0.0457011
-0.0441419
-0.0424971
-0.0407656
-0.0389549
-0.0370619
-0.035098
-0.0330563
-0.0309535
-0.0287766
-0.0265503
-0.0242513
-0.0219167
-0.0195073
-0.0170784
-0.0145672
-0.0120564
-0.00944777
-0.00686404
-0.00415305
-0.00148756
-0.0421837
-0.0432625
-0.0443256
-0.0453716
-0.0464009
-0.0474126
-0.0484044
-0.0493737
-0.0503177
-0.051234
-0.0521199
-0.052973
-0.0537906
-0.0545698
-0.055308
-0.0560022
-0.0566496
-0.0572473
-0.0577923
-0.0582817
-0.0587125
-0.0590818
-0.0593866
-0.059624
-0.0597911
-0.0598851
-0.0599031
-0.0598427
-0.059701
-0.0594758
-0.0591647
-0.0587656
-0.0582764
-0.0576954
-0.0570212
-0.0562526
-0.0553885
-0.0544286
-0.0533722
-0.0522199
-0.0509716
-0.0496291
-0.0481922
-0.0466646
-0.0450459
-0.0433415
-0.0415505
-0.0396809
-0.0377297
-0.0357088
-0.0336112
-0.0314546
-0.0292252
-0.0269491
-0.024602
-0.0222224
-0.0197693
-0.0173004
-0.0147499
-0.0122039
-0.00955943
-0.00694452
-0.00419984
-0.00150568
-0.0438298
-0.0449405
-0.0460335
-0.0471077
-0.0481636
-0.0492001
-0.0502151
-0.0512056
-0.052169
-0.0531025
-0.0540036
-0.0548697
-0.055698
-0.0564856
-0.0572298
-0.0579276
-0.058576
-0.0591723
-0.0597132
-0.0601959
-0.0606174
-0.0609746
-0.0612647
-0.0614845
-0.0616314
-0.0617023
-0.0616946
-0.0616055
-0.0614326
-0.0611733
-0.0608255
-0.060387
-0.0598557
-0.0592303
-0.0585091
-0.0576913
-0.0567757
-0.0557623
-0.0546506
-0.0534413
-0.0521344
-0.0507322
-0.0492346
-0.0476456
-0.0459651
-0.044199
-0.0423463
-0.0404158
-0.0384044
-0.0363248
-0.0341697
-0.0319579
-0.0296749
-0.0273481
-0.0249519
-0.0225267
-0.0200295
-0.0175205
-0.0149305
-0.0123495
-0.0096694
-0.00702376
-0.00424576
-0.00152358
-0.0455522
-0.0466952
-0.0478185
-0.048921
-0.0500035
-0.0510649
-0.0521029
-0.0531145
-0.0540968
-0.0550471
-0.0559628
-0.0568412
-0.0576794
-0.0584745
-0.0592237
-0.059924
-0.0605724
-0.0611659
-0.0617015
-0.0621761
-0.0625868
-0.0629304
-0.0632041
-0.0634048
-0.0635296
-0.0635757
-0.0635403
-0.0634207
-0.0632145
-0.0629191
-0.0625324
-0.0620523
-0.061477
-0.0608048
-0.0600344
-0.059165
-0.0581956
-0.0571264
-0.0559568
-0.0546881
-0.0533203
-0.0518559
-0.0502952
-0.0486425
-0.0468979
-0.0450678
-0.0431513
-0.041158
-0.0390845
-0.0369445
-0.0347305
-0.0324621
-0.0301244
-0.0277459
-0.0252999
-0.0228287
-0.020287
-0.0177378
-0.0151084
-0.0124926
-0.00977722
-0.00710142
-0.00429061
-0.00154119
-0.0473519
-0.0485277
-0.0496814
-0.0508124
-0.0519214
-0.0530076
-0.0540683
-0.0551006
-0.0561013
-0.0570679
-0.0579974
-0.0588873
-0.0597345
-0.0605362
-0.0612893
-0.0619909
-0.062638
-0.0632275
-0.0637562
-0.0642213
-0.0646196
-0.064948
-0.0652036
-0.0653833
-0.0654843
-0.0655037
-0.0654387
-0.0652867
-0.0650451
-0.0647116
-0.0642839
-0.0637602
-0.0631384
-0.0624172
-0.0615953
-0.060672
-0.0596465
-0.0585189
-0.0572892
-0.0559585
-0.0545274
-0.0529984
-0.0513722
-0.0496535
-0.0478425
-0.0459462
-0.043964
-0.0419058
-0.0397685
-0.0375665
-0.0352921
-0.0329659
-0.0305723
-0.0281414
-0.025645
-0.0231273
-0.0205409
-0.0179516
-0.0152828
-0.0126328
-0.00988246
-0.0071772
-0.0043342
-0.00155844
-0.0492305
-0.0504391
-0.0516235
-0.0527828
-0.0539182
-0.0550288
-0.0561119
-0.0571643
-0.0581829
-0.0591649
-0.0601075
-0.0610078
-0.0618631
-0.0626701
-0.063426
-0.0641276
-0.064772
-0.0653559
-0.0658764
-0.0663303
-0.0667145
-0.0670261
-0.0672618
-0.0674188
-0.0674942
-0.067485
-0.0673885
-0.067202
-0.0669231
-0.0665492
-0.0660785
-0.0655088
-0.0648385
-0.064066
-0.0631903
-0.0622107
-0.0611266
-0.0599384
-0.058646
-0.0572511
-0.0557541
-0.0541582
-0.0524641
-0.050677
-0.0487974
-0.0468328
-0.0447827
-0.0426578
-0.0404549
-0.0381894
-0.0358531
-0.0334679
-0.0310175
-0.0285334
-0.025986
-0.0234216
-0.0207904
-0.018161
-0.0154532
-0.0127694
-0.0099847
-0.0072508
-0.00437635
-0.00157527
-0.0511891
-0.0524308
-0.0536456
-0.0548331
-0.0559946
-0.0571292
-0.0582341
-0.0593059
-0.0603416
-0.0613381
-0.0622928
-0.0632026
-0.0640646
-0.0648758
-0.0656331
-0.0663333
-0.0669735
-0.0675504
-0.0680609
-0.068502
-0.0688705
-0.0691634
-0.0693775
-0.0695099
-0.0695577
-0.0695179
-0.0693879
-0.069165
-0.0688467
-0.0684305
-0.0679145
-0.0672968
-0.0665756
-0.0657496
-0.0648177
-0.0637796
-0.0626345
-0.0613832
-0.0600258
-0.0585641
-0.0569989
-0.0553336
-0.0535693
-0.0517115
-0.0497611
-0.047726
-0.045606
-0.0434125
-0.0411423
-0.0388116
-0.0364122
-0.0339669
-0.0314588
-0.0289208
-0.026322
-0.0237107
-0.0210346
-0.0183654
-0.015619
-0.0129019
-0.0100835
-0.00732194
-0.00441688
-0.00159163
-0.053229
-0.0545038
-0.0557488
-0.0569641
-0.0581512
-0.0593093
-0.0604353
-0.0615258
-0.0625775
-0.0635876
-0.0645532
-0.0654712
-0.0663388
-0.0671527
-0.0679099
-0.0686072
-0.0692416
-0.0698098
-0.0703087
-0.0707353
-0.0710862
-0.0713586
-0.0715492
-0.0716552
-0.0716734
-0.0716012
-0.0714356
-0.0711741
-0.0708142
-0.0703538
-0.0697905
-0.0691225
-0.0683481
-0.0674664
-0.0664761
-0.065377
-0.0641686
-0.0628518
-0.0614269
-0.0598961
-0.0582602
-0.0565231
-0.0546862
-0.0527555
-0.0507319
-0.0486243
-0.0464324
-0.0441684
-0.0418292
-0.0394319
-0.0369681
-0.0344617
-0.0318949
-0.0293025
-0.0266519
-0.0239936
-0.0212728
-0.0185641
-0.0157794
-0.01303
-0.0101786
-0.00739036
-0.00445563
-0.00160746
-0.0553517
-0.0566592
-0.0579341
-0.0591767
-0.0603888
-0.0615695
-0.0627157
-0.0638239
-0.0648907
-0.0659131
-0.0668883
-0.0678132
-0.0686849
-0.0695
-0.0702555
-0.0709483
-0.0715752
-0.072133
-0.0726186
-0.0730287
-0.0733603
-0.0736103
-0.0737755
-0.073853
-0.0738398
-0.0737331
-0.07353
-0.0732279
-0.0728245
-0.0723175
-0.0717047
-0.0709842
-0.0701546
-0.0692148
-0.0681637
-0.0670013
-0.0657273
-0.0643427
-0.0628479
-0.0612454
-0.0595365
-0.0577253
-0.0558134
-0.0538074
-0.0517085
-0.0495262
-0.0472604
-0.0449241
-0.0425143
-0.040049
-0.0375194
-0.0349509
-0.0323248
-0.0296775
-0.0269748
-0.0242695
-0.021504
-0.0187565
-0.015934
-0.013153
-0.0102696
-0.00745579
-0.00449245
-0.0016227
-0.0575582
-0.0588981
-0.0602023
-0.0614715
-0.0627078
-0.0639102
-0.0650757
-0.0662004
-0.0672809
-0.0683144
-0.0692978
-0.0702281
-0.0711022
-0.0719169
-0.0726691
-0.0733556
-0.0739733
-0.0745188
-0.0749891
-0.075381
-0.0756914
-0.075917
-0.0760549
-0.076102
-0.0760553
-0.0759121
-0.0756694
-0.0753248
-0.0748757
-0.07432
-0.0736555
-0.0728805
-0.0719934
-0.0709932
-0.0698792
-0.0686512
-0.0673092
-0.0658543
-0.0642872
-0.0626107
-0.0608263
-0.0589385
-0.0569494
-0.0548658
-0.0526894
-0.0504303
-0.0480887
-0.0456783
-0.0431962
-0.0406615
-0.0380651
-0.0354335
-0.0327474
-0.0300447
-0.0272897
-0.0245376
-0.0217277
-0.0189418
-0.0160823
-0.0132707
-0.0103561
-0.00751801
-0.00452719
-0.00163731
-0.0598498
-0.0612215
-0.0625543
-0.0638492
-0.0651087
-0.0663318
-0.0675152
-0.0686551
-0.0697481
-0.070791
-0.0717811
-0.0727151
-0.07359
-0.0744025
-0.0751496
-0.075828
-0.0764345
-0.0769659
-0.077419
-0.0777907
-0.0780778
-0.0782772
-0.0783857
-0.0784005
-0.0783184
-0.0781366
-0.0778524
-0.0774631
-0.0769663
-0.0763598
-0.0756415
-0.0748098
-0.073863
-0.0728003
-0.071621
-0.0703251
-0.0689127
-0.0673852
-0.0657434
-0.0639905
-0.0621282
-0.0601615
-0.0580927
-0.0559293
-0.0536732
-0.0513353
-0.0489158
-0.0464297
-0.0438737
-0.0412683
-0.0386038
-0.0359084
-0.0331616
-0.0304033
-0.0275958
-0.024797
-0.0219431
-0.0191195
-0.0162237
-0.0133825
-0.0104378
-0.0075768
-0.00455972
-0.00165124
-0.0622276
-0.0636304
-0.0649908
-0.0663103
-0.0675918
-0.0688343
-0.0700343
-0.0711879
-0.0722917
-0.0733425
-0.0743374
-0.0752734
-0.0761472
-0.0769558
-0.0776958
-0.0783641
-0.0789575
-0.0794727
-0.0799067
-0.0802562
-0.0805181
-0.0806892
-0.0807664
-0.0807468
-0.0806272
-0.0804049
-0.0800771
-0.0796412
-0.0790946
-0.0784353
-0.0776611
-0.0767705
-0.0757619
-0.0746345
-0.0733876
-0.0720216
-0.0705365
-0.0689339
-0.0672151
-0.0653834
-0.0634408
-0.0613928
-0.059242
-0.0569965
-0.0546586
-0.0522397
-0.0497406
-0.0471769
-0.0445456
-0.0418681
-0.0391345
-0.0363744
-0.0335664
-0.0307521
-0.0278922
-0.025047
-0.0221496
-0.019289
-0.0163578
-0.0134882
-0.0105145
-0.00763195
-0.00458992
-0.00166446
-0.0646925
-0.0661255
-0.0675124
-0.0688553
-0.0701574
-0.0714178
-0.0726328
-0.0737985
-0.0749113
-0.0759681
-0.0769661
-0.0779021
-0.0787729
-0.0795754
-0.0803063
-0.0809625
-0.0815408
-0.0820379
-0.0824507
-0.082776
-0.0830106
-0.0831514
-0.0831953
-0.0831392
-0.0829802
-0.0827154
-0.082342
-0.0818574
-0.081259
-0.0805448
-0.0797127
-0.0787611
-0.0776885
-0.0764943
-0.0751777
-0.0737392
-0.0721791
-0.0704992
-0.068701
-0.0667881
-0.0647628
-0.0626312
-0.060396
-0.0580661
-0.0556442
-0.0531424
-0.0505617
-0.0479187
-0.0452105
-0.0424597
-0.0396561
-0.0368305
-0.0339608
-0.0310905
-0.0281782
-0.025287
-0.0223466
-0.0194498
-0.0164841
-0.0135873
-0.0105858
-0.00768327
-0.00461767
-0.00167692
-0.0672456
-0.0687075
-0.0701195
-0.0714843
-0.0728054
-0.074082
-0.0753103
-0.0764862
-0.0776061
-0.0786671
-0.0796661
-0.0806
-0.0814658
-0.0822601
-0.0829799
-0.0836218
-0.0841828
-0.0846597
-0.0850492
-0.0853482
-0.0855535
-0.0856619
-0.0856704
-0.085576
-0.0853755
-0.0850662
-0.0846452
-0.0841099
-0.0834579
-0.0826869
-0.0817948
-0.0807801
-0.0796415
-0.0783782
-0.0769897
-0.0754765
-0.0738391
-0.0720797
-0.0701996
-0.0682032
-0.0660928
-0.0638752
-0.0615534
-0.0591369
-0.0566288
-0.054042
-0.0513778
-0.0486539
-0.0458674
-0.0430421
-0.0401674
-0.0372758
-0.0343439
-0.0314174
-0.0284529
-0.0255161
-0.0225333
-0.0196014
-0.0166022
-0.0136795
-0.0106516
-0.00773061
-0.00464287
-0.0016886
-0.0698877
-0.071377
-0.0728125
-0.0741974
-0.0755359
-0.0768269
-0.0780665
-0.0792505
-0.0803755
-0.0814384
-0.0824362
-0.083366
-0.0842244
-0.0850084
-0.0857148
-0.0863403
-0.0868819
-0.0873364
-0.0877004
-0.087971
-0.0881449
-0.088219
-0.0881901
-0.0880553
-0.0878114
-0.0874557
-0.0869851
-0.0863973
-0.0856896
-0.0848597
-0.0839057
-0.082826
-0.0816193
-0.0802848
-0.0788223
-0.0772322
-0.0755153
-0.0736739
-0.0717098
-0.0696274
-0.0674297
-0.0651237
-0.0627129
-0.0602076
-0.0576111
-0.0549373
-0.0521879
-0.0493814
-0.0465151
-0.0436141
-0.0406674
-0.0377091
-0.0347148
-0.0317322
-0.0287156
-0.0257339
-0.0227094
-0.0197433
-0.0167118
-0.0137646
-0.0107115
-0.00777381
-0.00466543
-0.00169945
-0.0726192
-0.0741344
-0.0755915
-0.0769947
-0.0783485
-0.0796517
-0.0809005
-0.0820905
-0.0832183
-0.0842808
-0.0852752
-0.0861984
-0.0870473
-0.0878187
-0.0885094
-0.0891163
-0.0896362
-0.090066
-0.0904025
-0.0906426
-0.090783
-0.0908207
-0.0907525
-0.0905753
-0.0902861
-0.0898819
-0.08936
-0.0887177
-0.0879524
-0.0870618
-0.086044
-0.0848973
-0.0836204
-0.0822128
-0.0806741
-0.079005
-0.0772064
-0.0752808
-0.0732302
-0.0710596
-0.0687721
-0.0663753
-0.0638733
-0.0612769
-0.0585899
-0.0558272
-0.0529906
-0.0501
-0.0471526
-0.0441748
-0.0411552
-0.0381297
-0.0350727
-0.032034
-0.0289657
-0.0259396
-0.0228742
-0.0198752
-0.0168124
-0.0138423
-0.0107655
-0.00781272
-0.00468526
-0.00170947
-0.0754408
-0.0769799
-0.0784565
-0.0798759
-0.0812427
-0.082556
-0.0838116
-0.0850052
-0.0861333
-0.0871931
-0.0881816
-0.0890959
-0.0899328
-0.0906891
-0.0913618
-0.0919477
-0.0924437
-0.0928467
-0.0931534
-0.0933608
-0.0934657
-0.093465
-0.0933554
-0.0931339
-0.0927975
-0.0923432
-0.091768
-0.0910694
-0.0902446
-0.0892915
-0.088208
-0.0869924
-0.0856435
-0.0841607
-0.0825437
-0.0807936
-0.078911
-0.076899
-0.0747597
-0.0724985
-0.0701189
-0.0676291
-0.0650335
-0.0623438
-0.0595642
-0.0567106
-0.053785
-0.0508086
-0.0477787
-0.044723
-0.0416299
-0.0385367
-0.0354167
-0.032322
-0.0292024
-0.0261327
-0.0230274
-0.0199965
-0.0169038
-0.0139123
-0.0108133
-0.00784725
-0.00470231
-0.00171861
-0.0783527
-0.0799135
-0.0814074
-0.0828404
-0.0842179
-0.0855387
-0.0867986
-0.0879932
-0.0891192
-0.0901737
-0.0911538
-0.0920565
-0.0928789
-0.0936177
-0.09427
-0.0948325
-0.0953023
-0.0956762
-0.095951
-0.0961237
-0.096191
-0.0961498
-0.095997
-0.0957294
-0.0953439
-0.0948375
-0.0942074
-0.0934506
-0.0925647
-0.0915473
-0.0903962
-0.0891099
-0.087687
-0.0861272
-0.08443
-0.0825966
-0.080628
-0.0785273
-0.076297
-0.0739429
-0.0714689
-0.0688837
-0.0661923
-0.0634071
-0.0605328
-0.0575862
-0.05457
-0.0515062
-0.0483925
-0.0452579
-0.0420904
-0.0389291
-0.0357461
-0.0325957
-0.0294252
-0.0263126
-0.0231684
-0.020107
-0.0169857
-0.0139744
-0.0108547
-0.00787728
-0.00471651
-0.00172688
-0.081355
-0.082935
-0.0844435
-0.0858877
-0.0872732
-0.0885988
-0.0898603
-0.0910533
-0.0921743
-0.0932208
-0.0941898
-0.0950784
-0.0958837
-0.0966025
-0.0972319
-0.0977687
-0.0982099
-0.0985524
-0.0987932
-0.098929
-0.0989567
-0.0988731
-0.0986751
-0.0983595
-0.0979231
-0.097363
-0.0966762
-0.0958596
-0.0949109
-0.0938274
-0.0926071
-0.0912483
-0.0897497
-0.0881109
-0.0863315
-0.0844129
-0.0823561
-0.0801646
-0.0778411
-0.0753918
-0.0728211
-0.0701382
-0.0673487
-0.0644657
-0.0614946
-0.0584532
-0.0553445
-0.0521918
-0.048993
-0.0457785
-0.0425359
-0.0393062
-0.0360601
-0.0328543
-0.0296335
-0.026479
-0.0232968
-0.0202063
-0.0170579
-0.0140284
-0.0108897
-0.00790273
-0.00472781
-0.00173425
-0.0844475
-0.086044
-0.0875644
-0.0890168
-0.0904074
-0.0917351
-0.0929952
-0.0941836
-0.0952969
-0.0963325
-0.0972876
-0.0981595
-0.098945
-0.0996412
-0.100245
-0.100754
-0.101164
-0.101473
-0.101678
-0.101774
-0.10176
-0.101633
-0.101388
-0.101022
-0.100533
-0.0999178
-0.0991726
-0.0982947
-0.0972815
-0.0961304
-0.0948392
-0.0934063
-0.0918302
-0.0901106
-0.0882471
-0.0862412
-0.0840942
-0.0818098
-0.0793909
-0.0768441
-0.0741743
-0.0713915
-0.0685016
-0.0655187
-0.0624487
-0.0593104
-0.0561075
-0.0528645
-0.0495793
-0.0462839
-0.0429657
-0.0396672
-0.0363581
-0.0330972
-0.0298268
-0.0266313
-0.0234124
-0.0202942
-0.0171201
-0.0140742
-0.0109181
-0.00792355
-0.00473619
-0.00174073
-0.0892399
-0.0907689
-0.0922265
-0.0936192
-0.0949458
-0.0962016
-0.0973824
-0.0984849
-0.0995067
-0.100445
-0.101297
-0.10206
-0.102731
-0.103307
-0.103785
-0.104163
-0.104436
-0.104602
-0.104658
-0.1046
-0.104426
-0.104132
-0.103716
-0.103172
-0.1025
-0.101695
-0.100754
-0.0996749
-0.0984546
-0.097091
-0.0955823
-0.0939271
-0.0921249
-0.0901756
-0.0880805
-0.0858413
-0.0834617
-0.0809452
-0.0782988
-0.0755276
-0.0726425
-0.0696499
-0.0665649
-0.0633939
-0.0601569
-0.0568581
-0.0535232
-0.0501504
-0.0467734