/*--------------------------------*- C++ -*----------------------------------*\
  =========                 |
  \\      /  F ield         | OpenFOAM: The Open Source CFD Toolbox
   \\    /   O peration     | Website:  https://openfoam.org
    \\  /    A nd           | Version:  7
     \\/     M anipulation  |
\*---------------------------------------------------------------------------*/
FoamFile
{
    version     2.0;
    format      ascii;
    class       volVectorField;
    location    "70.000322";
    object      U;
}
// * * * * * * * * * * * * * * * * * * * * * * * * * * * * * * * * * * * * * //

dimensions      [0 1 -1 0 0 0 0];

internalField   nonuniform List<vector> 
5800
(
(-0.10544 -0.00898395 -7.78896e-21)
(-0.13272 -0.00766322 -3.19838e-21)
(-0.152815 -0.00571334 1.96094e-20)
(-0.166054 -0.00325117 -7.6871e-21)
(-0.1726 -0.000464646 8.67175e-22)
(1.05248 -0.000835862 0)
(1.05311 -0.000819564 0)
(1.05374 -0.000802594 0)
(1.05437 -0.000784932 0)
(1.05499 -0.000766555 0)
(1.05562 -0.000747444 0)
(1.05624 -0.000727579 0)
(1.05685 -0.000706944 0)
(1.05746 -0.000685526 0)
(1.05806 -0.000663312 0)
(1.05866 -0.000640294 0)
(1.05924 -0.000616465 0)
(1.05982 -0.000591822 0)
(1.06038 -0.000566364 0)
(1.06093 -0.000540091 0)
(1.06146 -0.000513009 0)
(1.06197 -0.000485125 0)
(1.06247 -0.000456451 0)
(1.06294 -0.000427 0)
(1.06339 -0.000396791 0)
(1.06382 -0.000365845 0)
(1.06421 -0.000334188 0)
(1.06458 -0.000301848 0)
(1.06492 -0.00026886 0)
(1.06523 -0.000235262 0)
(1.0655 -0.000201094 0)
(1.06573 -0.000166403 0)
(1.06592 -0.000131238 0)
(1.06607 -9.56569e-05 0)
(1.06617 -5.97143e-05 0)
(1.06623 -2.34771e-05 0)
(1.06623 1.29929e-05 0)
(1.06619 4.96171e-05 0)
(1.06609 8.6332e-05 0)
(1.06594 0.000123045 0)
(1.06572 0.000159693 0)
(1.06545 0.000196166 0)
(1.06511 0.000232415 0)
(1.06471 0.000268299 0)
(1.06424 0.000303798 0)
(1.06371 0.000338729 0)
(1.06309 0.000373124 0)
(1.06243 0.000406728 0)
(1.06166 0.000439666 0)
(1.06086 0.000471569 0)
(1.05993 0.000502715 0)
(1.05899 0.000532547 0)
(1.0579 0.00056159 0)
(1.05683 0.000588996 0)
(1.05555 0.000615663 0)
(1.05436 0.000640302 0)
(1.05288 0.000664364 0)
(1.0516 0.000685909 0)
(1.04989 0.000707183 0)
(1.04857 0.000725321 0)
(1.04658 0.00074365 0)
(1.04527 0.000758084 0)
(1.04294 0.000773301 0)
(1.04174 0.00078377 0)
(1.03898 0.000795593 0)
(1.03801 0.000801958 0)
(1.03469 0.00080978 0)
(1.03414 0.000812357 0)
(1.03004 0.00081486 0)
(1.0527 -0.00247849 0)
(1.05333 -0.00243159 0)
(1.05396 -0.00238249 0)
(1.05459 -0.00233115 0)
(1.05522 -0.00227752 0)
(1.05584 -0.00222156 0)
(1.05647 -0.00216322 0)
(1.05708 -0.00210248 0)
(1.05769 -0.0020393 0)
(1.0583 -0.00197367 0)
(1.05889 -0.00190555 0)
(1.05948 -0.00183495 0)
(1.06006 -0.00176186 0)
(1.06062 -0.00168628 0)
(1.06117 -0.00160822 0)
(1.0617 -0.0015277 0)
(1.06222 -0.00144475 0)
(1.06271 -0.00135941 0)
(1.06318 -0.00127173 0)
(1.06364 -0.00118175 0)
(1.06406 -0.00108956 0)
(1.06446 -0.000995222 0)
(1.06483 -0.000898834 0)
(1.06517 -0.000800497 0)
(1.06547 -0.000700327 0)
(1.06574 -0.000598448 0)
(1.06597 -0.000495002 0)
(1.06616 -0.000390139 0)
(1.06631 -0.000284027 0)
(1.06641 -0.000176837 0)
(1.06647 -6.87659e-05 0)
(1.06648 3.9996e-05 0)
(1.06643 0.000149224 0)
(1.06633 0.000258714 0)
(1.06617 0.000368204 0)
(1.06596 0.000477487 0)
(1.06568 0.000586258 0)
(1.06534 0.000694331 0)
(1.06494 0.000801344 0)
(1.06446 0.00090716 0)
(1.06393 0.00101133 0)
(1.06331 0.00111382 0)
(1.06264 0.00121405 0)
(1.06187 0.00131215 0)
(1.06106 0.00140734 0)
(1.06014 0.00150002 0)
(1.05919 0.0015891 0)
(1.05809 0.00167541 0)
(1.05702 0.00175736 0)
(1.05574 0.00183642 0)
(1.05455 0.00191031 0)
(1.05306 0.00198136 0)
(1.05178 0.0020463 0)
(1.05006 0.0021087 0)
(1.04874 0.00216389 0)
(1.04674 0.00221703 0)
(1.04543 0.00226174 0)
(1.0431 0.00230499 0)
(1.04189 0.00233854 0)
(1.03913 0.00237106 0)
(1.03816 0.00239295 0)
(1.03483 0.00241331 0)
(1.03428 0.00242362 0)
(1.03017 0.00242929 0)
(1.05312 -0.00410645 0)
(1.05376 -0.00402848 0)
(1.05439 -0.00394683 0)
(1.05503 -0.00386144 0)
(1.05566 -0.00377226 0)
(1.05629 -0.00367921 0)
(1.05691 -0.00358224 0)
(1.05753 -0.0034813 0)
(1.05815 -0.00337633 0)
(1.05876 -0.0032673 0)
(1.05936 -0.00315419 0)
(1.05995 -0.00303698 0)
(1.06052 -0.00291565 0)
(1.06109 -0.00279023 0)
(1.06164 -0.00266073 0)
(1.06218 -0.00252717 0)
(1.06269 -0.00238961 0)
(1.06319 -0.0022481 0)
(1.06367 -0.00210274 0)
(1.06412 -0.0019536 0)
(1.06454 -0.00180081 0)
(1.06494 -0.00164449 0)
(1.06531 -0.0014848 0)
(1.06565 -0.0013219 0)
(1.06596 -0.00115599 0)
(1.06622 -0.000987269 0)
(1.06645 -0.000815977 0)
(1.06664 -0.000642362 0)
(1.06679 -0.0004667 0)
(1.06689 -0.000289278 0)
(1.06694 -0.000110418 0)
(1.06695 6.95573e-05 0)
(1.0669 0.000250285 0)
(1.06679 0.000431414 0)
(1.06663 0.000612529 0)
(1.06641 0.000793262 0)
(1.06613 0.000973145 0)
(1.06578 0.00115182 0)
(1.06538 0.00132876 0)
(1.0649 0.00150363 0)
(1.06436 0.00167584 0)
(1.06373 0.00184514 0)
(1.06306 0.00201082 0)
(1.06228 0.00217277 0)
(1.06147 0.00233013 0)
(1.06053 0.00248299 0)
(1.05958 0.00263031 0)
(1.05847 0.00277247 0)
(1.05739 0.00290813 0)
(1.0561 0.0030381 0)
(1.0549 0.00316063 0)
(1.05341 0.00327706 0)
(1.05212 0.00338514 0)
(1.0504 0.00348683 0)
(1.04906 0.0035793 0)
(1.04706 0.00366512 0)
(1.04574 0.00374093 0)
(1.04341 0.00380973 0)
(1.04219 0.0038679 0)
(1.03942 0.00391828 0)
(1.03845 0.00395786 0)
(1.03511 0.00398796 0)
(1.03456 0.00400809 0)
(1.03043 0.00401524 0)
(1.05374 -0.00571178 0)
(1.05438 -0.00560304 0)
(1.05502 -0.00548918 0)
(1.05566 -0.00537012 0)
(1.0563 -0.00524578 0)
(1.05694 -0.00511607 0)
(1.05757 -0.00498089 0)
(1.05819 -0.00484017 0)
(1.05881 -0.00469386 0)
(1.05943 -0.0045419 0)
(1.06003 -0.00438426 0)
(1.06063 -0.0042209 0)
(1.06121 -0.00405184 0)
(1.06178 -0.00387707 0)
(1.06233 -0.00369662 0)
(1.06287 -0.00351055 0)
(1.06339 -0.00331891 0)
(1.06389 -0.00312179 0)
(1.06437 -0.00291931 0)
(1.06482 -0.00271161 0)
(1.06525 -0.00249883 0)
(1.06565 -0.00228116 0)
(1.06602 -0.00205882 0)
(1.06636 -0.00183205 0)
(1.06666 -0.0016011 0)
(1.06693 -0.00136628 0)
(1.06716 -0.00112791 0)
(1.06734 -0.000886336 0)
(1.06749 -0.000641949 0)
(1.06758 -0.000395151 0)
(1.06763 -0.000146388 0)
(1.06763 0.000103884 0)
(1.06758 0.000355162 0)
(1.06747 0.000606951 0)
(1.0673 0.000858683 0)
(1.06707 0.00110983 0)
(1.06679 0.00135976 0)
(1.06643 0.00160795 0)
(1.06602 0.0018537 0)
(1.06553 0.00209651 0)
(1.06498 0.00233561 0)
(1.06435 0.00257055 0)
(1.06366 0.0028005 0)
(1.06288 0.00302511 0)
(1.06205 0.00324344 0)
(1.06111 0.00345531 0)
(1.06014 0.00365966 0)
(1.05903 0.00385653 0)
(1.05793 0.0040447 0)
(1.05663 0.00422448 0)
(1.05543 0.00439448 0)
(1.05392 0.00455528 0)
(1.05263 0.00470537 0)
(1.05089 0.0048455 0)
(1.04954 0.00497415 0)
(1.04753 0.00509201 0)
(1.0462 0.00519785 0)
(1.04385 0.00529185 0)
(1.04263 0.00537354 0)
(1.03985 0.00544184 0)
(1.03887 0.00549799 0)
(1.03551 0.00553824 0)
(1.03496 0.0055673 0)
(1.03081 0.00557625 0)
(1.05454 -0.00730437 0)
(1.05519 -0.00716487 0)
(1.05584 -0.00701881 0)
(1.05649 -0.00686607 0)
(1.05714 -0.00670655 0)
(1.05778 -0.00654014 0)
(1.05842 -0.00636673 0)
(1.05905 -0.00618622 0)
(1.05968 -0.00599854 0)
(1.0603 -0.00580364 0)
(1.06091 -0.00560146 0)
(1.06151 -0.00539198 0)
(1.0621 -0.00517521 0)
(1.06267 -0.00495114 0)
(1.06323 -0.00471983 0)
(1.06377 -0.00448134 0)
(1.06429 -0.00423575 0)
(1.0648 -0.00398318 0)
(1.06528 -0.00372377 0)
(1.06573 -0.00345771 0)
(1.06616 -0.00318519 0)
(1.06657 -0.00290647 0)
(1.06694 -0.0026218 0)
(1.06727 -0.00233151 0)
(1.06758 -0.00203593 0)
(1.06784 -0.00173544 0)
(1.06807 -0.00143047 0)
(1.06825 -0.00112147 0)
(1.06839 -0.000808919 0)
(1.06848 -0.000493354 0)
(1.06853 -0.00017534 0)
(1.06852 0.000144533 0)
(1.06846 0.000465624 0)
(1.06834 0.000787292 0)
(1.06817 0.00110881 0)
(1.06793 0.00142951 0)
(1.06764 0.00174858 0)
(1.06727 0.00206534 0)
(1.06685 0.00237892 0)
(1.06635 0.00268864 0)
(1.06579 0.00299357 0)
(1.06514 0.00329308 0)
(1.06445 0.00358618 0)
(1.06365 0.00387233 0)
(1.06281 0.00415046 0)
(1.06185 0.00442019 0)
(1.06088 0.00468038 0)
(1.05975 0.0049308 0)
(1.05864 0.00517027 0)
(1.05732 0.00539874 0)
(1.0561 0.00561502 0)
(1.05458 0.00581915 0)
(1.05328 0.00601008 0)
(1.05152 0.00618772 0)
(1.05017 0.00635142 0)
(1.04814 0.00650059 0)
(1.0468 0.00663537 0)
(1.04443 0.00675408 0)
(1.0432 0.0068583 0)
(1.0404 0.00694431 0)
(1.03941 0.00701614 0)
(1.03603 0.00706662 0)
(1.03548 0.00710394 0)
(1.0313 0.0071149 0)
(1.05552 -0.00888804 0)
(1.05618 -0.00871754 0)
(1.05684 -0.00853901 0)
(1.0575 -0.00835235 0)
(1.05815 -0.00815742 0)
(1.05881 -0.00795409 0)
(1.05945 -0.00774223 0)
(1.0601 -0.00752174 0)
(1.06073 -0.00729251 0)
(1.06136 -0.00705449 0)
(1.06198 -0.00680762 0)
(1.06259 -0.00655189 0)
(1.06318 -0.00628728 0)
(1.06376 -0.00601382 0)
(1.06432 -0.00573156 0)
(1.06487 -0.00544058 0)
(1.0654 -0.005141 0)
(1.06591 -0.00483297 0)
(1.06639 -0.00451665 0)
(1.06685 -0.00419228 0)
(1.06728 -0.00386011 0)
(1.06768 -0.00352043 0)
(1.06805 -0.00317359 0)
(1.06839 -0.00281996 0)
(1.06869 -0.00245997 0)
(1.06896 -0.00209408 0)
(1.06918 -0.00172282 0)
(1.06936 -0.00134672 0)
(1.0695 -0.000966412 0)
(1.06958 -0.000582521 0)
(1.06962 -0.000195745 0)
(1.06961 0.000193191 0)
(1.06954 0.000583505 0)
(1.06941 0.00097441 0)
(1.06923 0.00136503 0)
(1.06898 0.00175453 0)
(1.06867 0.00214196 0)
(1.0683 0.00252644 0)
(1.06786 0.00290696 0)
(1.06735 0.00328265 0)
(1.06678 0.00365243 0)
(1.06612 0.00401549 0)
(1.0654 0.00437068 0)
(1.06459 0.00471727 0)
(1.06374 0.00505409 0)
(1.06276 0.00538052 0)
(1.06177 0.00569537 0)
(1.06062 0.00599817 0)
(1.0595 0.00628774 0)
(1.05816 0.00656372 0)
(1.05693 0.00682509 0)
(1.05539 0.0070714 0)
(1.05407 0.00730201 0)
(1.05229 0.00751612 0)
(1.05093 0.00771378 0)
(1.04888 0.00789335 0)
(1.04752 0.00805611 0)
(1.04514 0.00819881 0)
(1.04389 0.00832472 0)
(1.04107 0.00842795 0)
(1.04007 0.00851484 0)
(1.03667 0.00857528 0)
(1.03611 0.0086205 0)
(1.03191 0.00863346 0)
(1.05667 -0.0104665 0)
(1.05734 -0.0102647 0)
(1.05802 -0.0100534 0)
(1.05868 -0.00983245 0)
(1.05935 -0.00960177 0)
(1.06001 -0.00936118 0)
(1.06067 -0.00911053 0)
(1.06133 -0.0088497 0)
(1.06197 -0.00857859 0)
(1.06261 -0.00829712 0)
(1.06323 -0.00800524 0)
(1.06385 -0.00770293 0)
(1.06445 -0.00739018 0)
(1.06504 -0.00706703 0)
(1.06561 -0.00673355 0)
(1.06616 -0.00638983 0)
(1.0667 -0.00603603 0)
(1.06721 -0.00567231 0)
(1.0677 -0.0052989 0)
(1.06816 -0.00491607 0)
(1.06859 -0.00452411 0)
(1.06899 -0.00412339 0)
(1.06937 -0.00371432 0)
(1.0697 -0.00329734 0)
(1.07 -0.00287297 0)
(1.07026 -0.00244176 0)
(1.07048 -0.00200432 0)
(1.07066 -0.00156131 0)
(1.07079 -0.00111345 0)
(1.07087 -0.00066151 0)
(1.0709 -0.000206303 0)
(1.07088 0.00025131 0)
(1.0708 0.000710404 0)
(1.07066 0.00117005 0)
(1.07047 0.00162921 0)
(1.07021 0.00208689 0)
(1.06989 0.00254199 0)
(1.0695 0.00299345 0)
(1.06905 0.00344011 0)
(1.06852 0.00388092 0)
(1.06793 0.00431464 0)
(1.06725 0.00474028 0)
(1.06652 0.00515653 0)
(1.06569 0.00556251 0)
(1.06482 0.00595689 0)
(1.06382 0.00633889 0)
(1.06281 0.00670722 0)
(1.06164 0.00706121 0)
(1.0605 0.00739967 0)
(1.05915 0.00772196 0)
(1.05789 0.00802719 0)
(1.05633 0.00831451 0)
(1.05499 0.00858362 0)
(1.0532 0.00883308 0)
(1.05181 0.0090636 0)
(1.04974 0.00927257 0)
(1.04837 0.00946233 0)
(1.04596 0.00962819 0)
(1.04471 0.00977501 0)
(1.04185 0.00989484 0)
(1.04085 0.00999622 0)
(1.03741 0.0100663 0)
(1.03685 0.0101191 0)
(1.03261 0.010134 0)
(1.05799 -0.0120438 0)
(1.05867 -0.0118101 0)
(1.05936 -0.0115655 0)
(1.06004 -0.0113098 0)
(1.06072 -0.0110428 0)
(1.06139 -0.0107644 0)
(1.06206 -0.0104745 0)
(1.06273 -0.0101728 0)
(1.06338 -0.00985929 0)
(1.06403 -0.00953386 0)
(1.06467 -0.00919645 0)
(1.06529 -0.00884706 0)
(1.0659 -0.00848568 0)
(1.0665 -0.00811237 0)
(1.06708 -0.0077272 0)
(1.06764 -0.00733031 0)
(1.06818 -0.00692187 0)
(1.06869 -0.00650208 0)
(1.06918 -0.0060712 0)
(1.06965 -0.00562957 0)
(1.07008 -0.00517753 0)
(1.07049 -0.0047155 0)
(1.07086 -0.00424397 0)
(1.0712 -0.00376346 0)
(1.0715 -0.00327457 0)
(1.07175 -0.00277794 0)
(1.07197 -0.00227429 0)
(1.07214 -0.00176438 0)
(1.07226 -0.00124906 0)
(1.07234 -0.000729191 0)
(1.07236 -0.000205742 0)
(1.07232 0.000320294 0)
(1.07224 0.000847848 0)
(1.07209 0.00137584 0)
(1.07188 0.00190309 0)
(1.07161 0.00242844 0)
(1.07127 0.00295061 0)
(1.07087 0.00346841 0)
(1.0704 0.00398047 0)
(1.06985 0.00448561 0)
(1.06924 0.0049824 0)
(1.06854 0.00546969 0)
(1.06779 0.00594603 0)
(1.06694 0.00641036 0)
(1.06605 0.00686121 0)
(1.06503 0.00729765 0)
(1.064 0.00771828 0)
(1.06281 0.00812225 0)
(1.06164 0.00850836 0)
(1.06027 0.00887572 0)
(1.05899 0.00922356 0)
(1.0574 0.00955067 0)
(1.05604 0.00985704 0)
(1.05422 0.0101407 0)
(1.05282 0.0104029 0)
(1.05072 0.0106403 0)
(1.04934 0.010856 0)
(1.0469 0.0110442 0)
(1.04563 0.0112111 0)
(1.04275 0.0113468 0)
(1.04173 0.0114621 0)
(1.03826 0.0115414 0)
(1.03769 0.0116015 0)
(1.03341 0.0116183 0)
(1.05946 -0.0136229 0)
(1.06016 -0.0133567 0)
(1.06086 -0.0130782 0)
(1.06155 -0.012787 0)
(1.06225 -0.0124832 0)
(1.06294 -0.0121664 0)
(1.06362 -0.0118364 0)
(1.0643 -0.0114932 0)
(1.06497 -0.0111367 0)
(1.06563 -0.0107666 0)
(1.06627 -0.010383 0)
(1.06691 -0.00998589 0)
(1.06753 -0.00957524 0)
(1.06813 -0.00915113 0)
(1.06872 -0.00871367 0)
(1.06929 -0.008263 0)
(1.06983 -0.00779933 0)
(1.07035 -0.00732292 0)
(1.07085 -0.00683406 0)
(1.07132 -0.00633313 0)
(1.07176 -0.00582055 0)
(1.07216 -0.0052968 0)
(1.07253 -0.00476243 0)
(1.07287 -0.00421806 0)
(1.07316 -0.00366437 0)
(1.07342 -0.00310209 0)
(1.07363 -0.00253205 0)
(1.07379 -0.00195512 0)
(1.07391 -0.00137226 0)
(1.07397 -0.000784478 0)
(1.07399 -0.000192858 0)
(1.07394 0.000401462 0)
(1.07384 0.000997265 0)
(1.07368 0.00159333 0)
(1.07346 0.0021883 0)
(1.07317 0.00278089 0)
(1.07281 0.00336962 0)
(1.07239 0.00395316 0)
(1.0719 0.00452997 0)
(1.07133 0.00509869 0)
(1.0707 0.00565774 0)
(1.06999 0.0062058 0)
(1.06921 0.00674127 0)
(1.06834 0.00726291 0)
(1.06742 0.00776916 0)
(1.06638 0.00825888 0)
(1.06532 0.00873064 0)
(1.0641 0.00918336 0)
(1.06292 0.00961587 0)
(1.06151 0.010027 0)
(1.06021 0.0104162 0)
(1.0586 0.0107818 0)
(1.05721 0.0111242 0)
(1.05537 0.0114408 0)
(1.05394 0.0117336 0)
(1.05182 0.0119982 0)
(1.05041 0.0122389 0)
(1.04794 0.0124484 0)
(1.04666 0.0126346 0)
(1.04374 0.0127855 0)
(1.04272 0.0129142 0)
(1.03921 0.0130022 0)
(1.03864 0.0130694 0)
(1.03431 0.013088 0)
(1.06108 -0.0152067 0)
(1.0618 -0.0149074 0)
(1.06252 -0.0145941 0)
(1.06323 -0.0142668 0)
(1.06394 -0.0139253 0)
(1.06464 -0.0135692 0)
(1.06534 -0.0131985 0)
(1.06603 -0.012813 0)
(1.06671 -0.0124125 0)
(1.06739 -0.0119971 0)
(1.06805 -0.0115665 0)
(1.06869 -0.0111208 0)
(1.06932 -0.0106601 0)
(1.06994 -0.0101844 0)
(1.07053 -0.00969391 0)
(1.07111 -0.00918872 0)
(1.07166 -0.00866911 0)
(1.07219 -0.00813537 0)
(1.07269 -0.00758786 0)
(1.07316 -0.007027 0)
(1.0736 -0.00645328 0)
(1.074 -0.00586725 0)
(1.07438 -0.00526953 0)
(1.07471 -0.00466083 0)
(1.075 -0.00404191 0)
(1.07525 -0.00341363 0)
(1.07546 -0.00277689 0)
(1.07561 -0.00213271 0)
(1.07572 -0.00148214 0)
(1.07578 -0.000826328 0)
(1.07578 -0.000166497 0)
(1.07572 0.000496067 0)
(1.07561 0.00116 0)
(1.07543 0.00182394 0)
(1.07519 0.00248637 0)
(1.07488 0.00314582 0)
(1.07451 0.00380069 0)
(1.07407 0.00444944 0)
(1.07356 0.00509038 0)
(1.07296 0.00572199 0)
(1.07231 0.00634251 0)
(1.07157 0.00695048 0)
(1.07077 0.00754412 0)
(1.06987 0.00812208 0)
(1.06892 0.00868262 0)
(1.06786 0.0092245 0)
(1.06677 0.00974616 0)
(1.06553 0.0102464 0)
(1.06431 0.010724 0)
(1.06288 0.0111777 0)
(1.06155 0.0116068 0)
(1.05991 0.0120096 0)
(1.0585 0.0123868 0)
(1.05662 0.0127351 0)
(1.05517 0.0130572 0)
(1.05302 0.0133478 0)
(1.05159 0.0136125 0)
(1.04909 0.0138423 0)
(1.04779 0.0140469 0)
(1.04484 0.0142124 0)
(1.0438 0.0143538 0)
(1.04025 0.0144502 0)
(1.03967 0.014524 0)
(1.03529 0.0145444 0)
(1.06285 -0.0167979 0)
(1.06359 -0.0164645 0)
(1.06432 -0.0161157 0)
(1.06506 -0.0157513 0)
(1.06578 -0.0153711 0)
(1.0665 -0.014975 0)
(1.06722 -0.0145626 0)
(1.06792 -0.0141338 0)
(1.06862 -0.0136885 0)
(1.0693 -0.0132267 0)
(1.06998 -0.0127482 0)
(1.07064 -0.0122531 0)
(1.07128 -0.0117414 0)
(1.0719 -0.0112132 0)
(1.07251 -0.0106687 0)
(1.07309 -0.0101081 0)
(1.07365 -0.0095317 0)
(1.07418 -0.00893981 0)
(1.07469 -0.00833285 0)
(1.07516 -0.0077113 0)
(1.0756 -0.00707571 0)
(1.07601 -0.00642671 0)
(1.07638 -0.005765 0)
(1.07671 -0.00509138 0)
(1.077 -0.00440671 0)
(1.07725 -0.00371194 0)
(1.07745 -0.0030081 0)
(1.0776 -0.00229631 0)
(1.07769 -0.00157776 0)
(1.07774 -0.000853728 0)
(1.07773 -0.000125557 0)
(1.07766 0.000605305 0)
(1.07752 0.00133735 0)
(1.07733 0.00206904 0)
(1.07707 0.00279872 0)
(1.07675 0.00352475 0)
(1.07635 0.00424534 0)
(1.07588 0.00495883 0)
(1.07535 0.00566332 0)
(1.07474 0.00635715 0)
(1.07406 0.00703839 0)
(1.07329 0.00770543 0)
(1.07246 0.00835632 0)
(1.07153 0.00898957 0)
(1.07056 0.00960332 0)
(1.06946 0.0101962 0)
(1.06835 0.0107665 0)
(1.06707 0.011313 0)
(1.06583 0.0118344 0)
(1.06436 0.0123292 0)
(1.06301 0.012797 0)
(1.06133 0.0132357 0)
(1.0599 0.0136462 0)
(1.05798 0.0140249 0)
(1.05651 0.0143751 0)
(1.05432 0.0146906 0)
(1.05288 0.014978 0)
(1.05033 0.0152272 0)
(1.04902 0.0154493 0)
(1.04602 0.0156286 0)
(1.04498 0.0157821 0)
(1.04138 0.0158865 0)
(1.04079 0.0159667 0)
(1.03636 0.0159888 0)
(1.06477 -0.0183986 0)
(1.06553 -0.0180302 0)
(1.06628 -0.0176449 0)
(1.06703 -0.0172424 0)
(1.06777 -0.0168226 0)
(1.06851 -0.0163853 0)
(1.06924 -0.0159302 0)
(1.06997 -0.0154571 0)
(1.07068 -0.0149659 0)
(1.07138 -0.0144566 0)
(1.07207 -0.0139292 0)
(1.07274 -0.0133835 0)
(1.07339 -0.0128198 0)
(1.07403 -0.0122381 0)
(1.07464 -0.0116386 0)
(1.07523 -0.0110216 0)
(1.0758 -0.0103875 0)
(1.07634 -0.00973647 0)
(1.07685 -0.00906914 0)
(1.07733 -0.00838601 0)
(1.07777 -0.00768771 0)
(1.07818 -0.00697495 0)
(1.07855 -0.00624851 0)
(1.07888 -0.00550927 0)
(1.07916 -0.00475822 0)
(1.0794 -0.00399639 0)
(1.07959 -0.00322494 0)
(1.07973 -0.0024451 0)
(1.07982 -0.00165822 0)
(1.07985 -0.000865677 0)
(1.07983 -6.90107e-05 0)
(1.07974 0.000730273 0)
(1.07959 0.00153048 0)
(1.07938 0.00232989 0)
(1.0791 0.00312667 0)
(1.07875 0.00391904 0)
(1.07833 0.00470502 0)
(1.07784 0.0054828 0)
(1.07728 0.00625031 0)
(1.07664 0.00700573 0)
(1.07593 0.00774695 0)
(1.07513 0.0084722 0)
(1.07428 0.00917942 0)
(1.07332 0.00986694 0)
(1.07231 0.0105328 0)
(1.07118 0.0111755 0)
(1.07004 0.0117933 0)
(1.06873 0.0123847 0)
(1.06745 0.0129485 0)
(1.06595 0.0134831 0)
(1.06457 0.0139882 0)
(1.06286 0.0144612 0)
(1.06139 0.0149037 0)
(1.05945 0.0153115 0)
(1.05795 0.0156884 0)
(1.05572 0.0160276 0)
(1.05425 0.0163367 0)
(1.05167 0.0166042 0)
(1.05034 0.0168429 0)
(1.0473 0.0170351 0)
(1.04624 0.0172001 0)
(1.04259 0.017312 0)
(1.042 0.0173982 0)
(1.03751 0.017422 0)
(1.06683 -0.020011 0)
(1.06761 -0.0196065 0)
(1.06838 -0.0191835 0)
(1.06915 -0.0187419 0)
(1.06991 -0.0182813 0)
(1.07067 -0.0178017 0)
(1.07142 -0.0173026 0)
(1.07216 -0.0167841 0)
(1.07289 -0.0162459 0)
(1.0736 -0.015688 0)
(1.0743 -0.0151103 0)
(1.07499 -0.014513 0)
(1.07566 -0.0138961 0)
(1.0763 -0.0132597 0)
(1.07693 -0.0126041 0)
(1.07753 -0.0119296 0)
(1.0781 -0.0112366 0)
(1.07865 -0.0105254 0)
(1.07916 -0.00979671 0)
(1.07964 -0.00905102 0)
(1.08009 -0.00828908 0)
(1.0805 -0.00751166 0)
(1.08086 -0.00671964 0)
(1.08119 -0.00591401 0)
(1.08147 -0.00509585 0)
(1.0817 -0.0042663 0)
(1.08189 -0.00342665 0)
(1.08202 -0.00257825 0)
(1.08209 -0.00172259 0)
(1.08211 -0.000861172 0)
(1.08207 4.27267e-06 0)
(1.08197 0.000872151 0)
(1.0818 0.0017406 0)
(1.08156 0.00260772 0)
(1.08126 0.0034715 0)
(1.08089 0.00432999 0)
(1.08045 0.00518106 0)
(1.07993 0.00602272 0)
(1.07934 0.00685273 0)
(1.07867 0.00766911 0)
(1.07793 0.00846958 0)
(1.0771 0.00925223 0)
(1.07621 0.0100148 0)
(1.07522 0.0107556 0)
(1.07418 0.0114725 0)
(1.07302 0.0121637 0)
(1.07184 0.0128277 0)
(1.07049 0.0134627 0)
(1.06918 0.0140676 0)
(1.06765 0.0146405 0)
(1.06623 0.0151814 0)
(1.06448 0.0156874 0)
(1.06299 0.0161604 0)
(1.061 0.0165958 0)
(1.05948 0.0169982 0)
(1.05721 0.0173598 0)
(1.05572 0.0176893 0)
(1.0531 0.0179741 0)
(1.05174 0.0182284 0)
(1.04866 0.0184328 0)
(1.04759 0.0186086 0)
(1.04389 0.0187276 0)
(1.04329 0.0188196 0)
(1.03874 0.018845 0)
(1.06902 -0.0216367 0)
(1.06982 -0.0211949 0)
(1.07062 -0.0207331 0)
(1.07141 -0.020251 0)
(1.07219 -0.0197485 0)
(1.07297 -0.0192252 0)
(1.07374 -0.0186811 0)
(1.0745 -0.0181157 0)
(1.07524 -0.0175292 0)
(1.07597 -0.0169214 0)
(1.07669 -0.0162923 0)
(1.07739 -0.015642 0)
(1.07807 -0.0149707 0)
(1.07873 -0.0142784 0)
(1.07936 -0.0135654 0)
(1.07997 -0.0128322 0)
(1.08055 -0.0120791 0)
(1.0811 -0.0113067 0)
(1.08162 -0.0105154 0)
(1.08211 -0.00970612 0)
(1.08255 -0.0088795 0)
(1.08296 -0.00803644 0)
(1.08333 -0.00717793 0)
(1.08365 -0.00630505 0)
(1.08393 -0.00541896 0)
(1.08415 -0.00452097 0)
(1.08432 -0.00361245 0)
(1.08444 -0.00269491 0)
(1.08451 -0.00176995 0)
(1.08451 -0.00083924 0)
(1.08445 9.53879e-05 0)
(1.08433 0.00103209 0)
(1.08414 0.00196888 0)
(1.08388 0.00290371 0)
(1.08356 0.00383442 0)
(1.08316 0.00475886 0)
(1.08269 0.00567473 0)
(1.08214 0.00657988 0)
(1.08153 0.00747188 0)
(1.08082 0.0083486 0)
(1.08005 0.00920759 0)
(1.07919 0.0100468 0)
(1.07827 0.0108638 0)
(1.07723 0.0116568 0)
(1.07616 0.0124235 0)
(1.07496 0.0131622 0)
(1.07374 0.013871 0)
(1.07236 0.0145482 0)
(1.07101 0.0151928 0)
(1.06944 0.0158025 0)
(1.06799 0.0163777 0)
(1.0662 0.0169152 0)
(1.06467 0.0174173 0)
(1.06265 0.0178789 0)
(1.06109 0.0183053 0)
(1.05879 0.0186879 0)
(1.05727 0.0190367 0)
(1.05461 0.0193376 0)
(1.05323 0.0196066 0)
(1.05011 0.0198224 0)
(1.04902 0.0200083 0)
(1.04527 0.020134 0)
(1.04466 0.0202313 0)
(1.04005 0.0202585 0)
(1.07135 -0.0232772 0)
(1.07217 -0.0227969 0)
(1.07299 -0.0222949 0)
(1.0738 -0.0217711 0)
(1.07461 -0.0212253 0)
(1.07541 -0.0206571 0)
(1.0762 -0.0200663 0)
(1.07697 -0.0194529 0)
(1.07774 -0.0188167 0)
(1.07849 -0.0181576 0)
(1.07922 -0.0174757 0)
(1.07993 -0.016771 0)
(1.08062 -0.0160438 0)
(1.0813 -0.0152943 0)
(1.08194 -0.0145227 0)
(1.08256 -0.0137294 0)
(1.08315 -0.012915 0)
(1.08371 -0.01208 0)
(1.08423 -0.0112251 0)
(1.08472 -0.010351 0)
(1.08516 -0.00945859 0)
(1.08557 -0.00854884 0)
(1.08594 -0.00762284 0)
(1.08625 -0.00668176 0)
(1.08652 -0.0057269 0)
(1.08674 -0.00475966 0)
(1.0869 -0.00378157 0)
(1.08701 -0.00279424 0)
(1.08705 -0.00179942 0)
(1.08704 -0.000798951 0)
(1.08696 0.000205216 0)
(1.08682 0.00121103 0)
(1.08661 0.00221634 0)
(1.08633 0.00321895 0)
(1.08598 0.00421653 0)
(1.08556 0.00520677 0)
(1.08506 0.00618719 0)
(1.08448 0.00715544 0)
(1.08383 0.00810894 0)
(1.08309 0.00904539 0)
(1.08229 0.00996217 0)
(1.08138 0.0108571 0)
(1.08042 0.0117276 0)
(1.07935 0.0125717 0)
(1.07824 0.0133871 0)
(1.077 0.0141719 0)
(1.07575 0.0149242 0)
(1.07432 0.0156422 0)
(1.07294 0.0163249 0)
(1.07132 0.01697 0)
(1.06983 0.017578 0)
(1.06801 0.0181454 0)
(1.06645 0.0186751 0)
(1.06438 0.0191613 0)
(1.06279 0.0196103 0)
(1.06045 0.0200127 0)
(1.0589 0.0203794 0)
(1.0562 0.0206954 0)
(1.0548 0.020978 0)
(1.05163 0.0212045 0)
(1.05052 0.0213998 0)
(1.04672 0.0215317 0)
(1.04611 0.0216341 0)
(1.04143 0.0216629 0)
(1.0738 -0.0249338 0)
(1.07465 -0.0244136 0)
(1.0755 -0.0238701 0)
(1.07633 -0.0233031 0)
(1.07716 -0.0227125 0)
(1.07798 -0.0220979 0)
(1.07879 -0.0214592 0)
(1.07959 -0.0207962 0)
(1.08037 -0.0201087 0)
(1.08114 -0.0193969 0)
(1.08188 -0.0186607 0)
(1.08261 -0.0179002 0)
(1.08332 -0.0171158 0)
(1.084 -0.0163075 0)
(1.08466 -0.0154758 0)
(1.08529 -0.0146212 0)
(1.08588 -0.0137441 0)
(1.08645 -0.0128452 0)
(1.08697 -0.0119253 0)
(1.08746 -0.0109852 0)
(1.08791 -0.0100259 0)
(1.08832 -0.00904832 0)
(1.08868 -0.00805378 0)
(1.08899 -0.00704352 0)
(1.08925 -0.00601896 0)
(1.08946 -0.00498163 0)
(1.08961 -0.00393319 0)
(1.0897 -0.00287539 0)
(1.08973 -0.00181013 0)
(1.0897 -0.000739399 0)
(1.08961 0.000334682 0)
(1.08944 0.00140991 0)
(1.08921 0.00248395 0)
(1.0889 0.00355445 0)
(1.08852 0.0046189 0)
(1.08807 0.00567481 0)
(1.08754 0.00671952 0)
(1.08693 0.0077505 0)
(1.08624 0.00876501 0)
(1.08547 0.00976057 0)
(1.08463 0.0107344 0)
(1.08368 0.0116842 0)
(1.08269 0.0126072 0)
(1.08158 0.0135014 0)
(1.08042 0.0143642 0)
(1.07914 0.0151938 0)
(1.07784 0.0159883 0)
(1.07638 0.0167456 0)
(1.07495 0.017465 0)
(1.0733 0.0181438 0)
(1.07177 0.018783 0)
(1.0699 0.0193787 0)
(1.0683 0.0199344 0)
(1.0662 0.0204437 0)
(1.06458 0.0209139 0)
(1.06218 0.0213345 0)
(1.06061 0.021718 0)
(1.05786 0.0220478 0)
(1.05644 0.0223431 0)
(1.05322 0.0225793 0)
(1.0521 0.0227834 0)
(1.04824 0.0229211 0)
(1.04762 0.0230282 0)
(1.04288 0.0230587 0)
(1.07639 -0.0266076 0)
(1.07726 -0.026046 0)
(1.07813 -0.0254594 0)
(1.07899 -0.0248478 0)
(1.07984 -0.0242109 0)
(1.08069 -0.0235484 0)
(1.08152 -0.0228601 0)
(1.08233 -0.0221459 0)
(1.08314 -0.0214057 0)
(1.08392 -0.0206395 0)
(1.08469 -0.0198475 0)
(1.08543 -0.0190297 0)
(1.08615 -0.0181864 0)
(1.08685 -0.0173179 0)
(1.08751 -0.0164247 0)
(1.08815 -0.0155072 0)
(1.08875 -0.014566 0)
(1.08932 -0.0136019 0)
(1.08986 -0.0126157 0)
(1.09035 -0.0116083 0)
(1.0908 -0.0105808 0)
(1.0912 -0.00953429 0)
(1.09155 -0.00847009 0)
(1.09186 -0.00738962 0)
(1.09211 -0.0062944 0)
(1.09231 -0.0051861 0)
(1.09245 -0.00406651 0)
(1.09252 -0.00293753 0)
(1.09254 -0.0018012 0)
(1.09249 -0.000659681 0)
(1.09237 0.000484746 0)
(1.09218 0.00162971 0)
(1.09192 0.00277271 0)
(1.09159 0.00391122 0)
(1.09118 0.00504253 0)
(1.09069 0.00616399 0)
(1.09013 0.00727274 0)
(1.08948 0.0083661 0)
(1.08876 0.00944111 0)
(1.08795 0.0104952 0)
(1.08707 0.0115253 0)
(1.08608 0.012529 0)
(1.08504 0.0135036 0)
(1.08389 0.0144466 0)
(1.0827 0.0153558 0)
(1.08137 0.0162288 0)
(1.08003 0.017064 0)
(1.07852 0.0178591 0)
(1.07705 0.0186135 0)
(1.07535 0.0193246 0)
(1.07378 0.0199933 0)
(1.07187 0.0206157 0)
(1.07024 0.0211957 0)
(1.06809 0.0217266 0)
(1.06643 0.0222163 0)
(1.06399 0.0226538 0)
(1.06239 0.0230527 0)
(1.0596 0.0233952 0)
(1.05815 0.0237022 0)
(1.05488 0.0239472 0)
(1.05374 0.0241594 0)
(1.04983 0.0243025 0)
(1.0492 0.0244139 0)
(1.04439 0.0244463 0)
(1.07909 -0.0282995 0)
(1.08 -0.0276949 0)
(1.08089 -0.0270637 0)
(1.08178 -0.0264058 0)
(1.08265 -0.0257209 0)
(1.08352 -0.0250089 0)
(1.08437 -0.0242694 0)
(1.08521 -0.0235023 0)
(1.08603 -0.0227077 0)
(1.08684 -0.0218856 0)
(1.08762 -0.0210361 0)
(1.08838 -0.0201593 0)
(1.08911 -0.0192556 0)
(1.08982 -0.0183253 0)
(1.0905 -0.017369 0)
(1.09115 -0.0163871 0)
(1.09176 -0.0153804 0)
(1.09233 -0.0143496 0)
(1.09287 -0.0132958 0)
(1.09336 -0.0122197 0)
(1.09381 -0.0111228 0)
(1.09421 -0.0100061 0)
(1.09456 -0.0088711 0)
(1.09486 -0.00771934 0)
(1.0951 -0.00655247 0)
(1.09528 -0.00537229 0)
(1.09541 -0.00418071 0)
(1.09547 -0.00297981 0)
(1.09546 -0.00177177 0)
(1.09539 -0.000558904 0)
(1.09525 0.000656319 0)
(1.09504 0.00187137 0)
(1.09475 0.00308356 0)
(1.09439 0.0042902 0)
(1.09395 0.00548838 0)
(1.09342 0.00667527 0)
(1.09283 0.00784781 0)
(1.09214 0.00900316 0)
(1.09138 0.0101382 0)
(1.09053 0.0112501 0)
(1.0896 0.0123357 0)
(1.08858 0.0133925 0)
(1.08749 0.0144176 0)
(1.0863 0.0154084 0)
(1.08506 0.0163625 0)
(1.08368 0.0172776 0)
(1.0823 0.018152 0)
(1.08074 0.0189834 0)
(1.07923 0.0197713 0)
(1.07748 0.0205128 0)
(1.07587 0.0212093 0)
(1.07392 0.0218567 0)
(1.07224 0.0224593 0)
(1.07004 0.0230102 0)
(1.06836 0.023518 0)
(1.06587 0.0239709 0)
(1.06424 0.0243838 0)
(1.0614 0.0247378 0)
(1.05993 0.0250553 0)
(1.05661 0.0253085 0)
(1.05546 0.025528 0)
(1.05148 0.025676 0)
(1.05085 0.0257914 0)
(1.04597 0.0258257 0)
(1.08192 -0.03001 0)
(1.08285 -0.0293608 0)
(1.08378 -0.0286833 0)
(1.08469 -0.0279775 0)
(1.08559 -0.0272429 0)
(1.08648 -0.0264796 0)
(1.08736 -0.0256871 0)
(1.08822 -0.0248655 0)
(1.08906 -0.0240148 0)
(1.08988 -0.023135 0)
(1.09068 -0.0222262 0)
(1.09146 -0.0212888 0)
(1.09221 -0.020323 0)
(1.09293 -0.0193294 0)
(1.09361 -0.0183083 0)
(1.09427 -0.0172605 0)
(1.09489 -0.0161867 0)
(1.09547 -0.0150878 0)
(1.096 -0.0139648 0)
(1.0965 -0.0128188 0)
(1.09694 -0.0116511 0)
(1.09734 -0.010463 0)
(1.09768 -0.00925606 0)
(1.09797 -0.00803193 0)
(1.0982 -0.00679239 0)
(1.09838 -0.00553939 0)
(1.09849 -0.00427499 0)
(1.09853 -0.0030014 0)
(1.0985 -0.00172099 0)
(1.09841 -0.000436205 0)
(1.09824 0.000850277 0)
(1.098 0.00213576 0)
(1.09769 0.0034174 0)
(1.09729 0.00469228 0)
(1.09682 0.00595733 0)
(1.09626 0.00720952 0)
(1.09562 0.00844561 0)
(1.0949 0.00966256 0)
(1.09409 0.0108571 0)
(1.0932 0.0120261 0)
(1.09223 0.0131665 0)
(1.09116 0.0142755 0)
(1.09003 0.0153499 0)
(1.08878 0.0163873 0)
(1.0875 0.017385 0)
(1.08607 0.0183409 0)
(1.08465 0.019253 0)
(1.08304 0.020119 0)
(1.08148 0.0209386 0)
(1.07969 0.0217089 0)
(1.07803 0.0224315 0)
(1.07603 0.0231021 0)
(1.07431 0.0237257 0)
(1.07207 0.0242947 0)
(1.07035 0.024819 0)
(1.06782 0.0252858 0)
(1.06616 0.0257114 0)
(1.06326 0.0260757 0)
(1.06177 0.0264027 0)
(1.0584 0.026663 0)
(1.05723 0.0268892 0)
(1.05319 0.0270418 0)
(1.05255 0.0271609 0)
(1.0476 0.0271972 0)
(1.08487 -0.0317397 0)
(1.08583 -0.0310441 0)
(1.08678 -0.0303186 0)
(1.08772 -0.029563 0)
(1.08865 -0.028777 0)
(1.08956 -0.0279605 0)
(1.09046 -0.0271134 0)
(1.09134 -0.0262354 0)
(1.09221 -0.0253267 0)
(1.09305 -0.0243874 0)
(1.09387 -0.0234177 0)
(1.09466 -0.0224179 0)
(1.09542 -0.0213883 0)
(1.09615 -0.0203295 0)
(1.09685 -0.0192421 0)
(1.09751 -0.0181268 0)
(1.09814 -0.0169843 0)
(1.09872 -0.0158158 0)
(1.09926 -0.0146223 0)
(1.09975 -0.0134049 0)
(1.1002 -0.0121651 0)
(1.10059 -0.0109043 0)
(1.10093 -0.00962423 0)
(1.10121 -0.0083266 0)
(1.10143 -0.00701337 0)
(1.10158 -0.0056866 0)
(1.10168 -0.00434853 0)
(1.1017 -0.0030015 0)
(1.10165 -0.00164806 0)
(1.10154 -0.000290776 0)
(1.10134 0.00106744 0)
(1.10107 0.00242373 0)
(1.10072 0.00377505 0)
(1.10029 0.00511831 0)
(1.09978 0.00645022 0)
(1.09919 0.00776758 0)
(1.09851 0.00906695 0)
(1.09774 0.0103451 0)
(1.0969 0.0115985 0)
(1.09596 0.0128241 0)
(1.09494 0.0140185 0)
(1.09382 0.0151786 0)
(1.09265 0.0163013 0)
(1.09135 0.017384 0)
(1.09002 0.0184241 0)
(1.08854 0.0194191 0)
(1.08706 0.0203673 0)
(1.08541 0.0212663 0)
(1.0838 0.0221159 0)
(1.08196 0.0229131 0)
(1.08026 0.0236601 0)