/*--------------------------------*- C++ -*----------------------------------*\
  =========                 |
  \\      /  F ield         | OpenFOAM: The Open Source CFD Toolbox
   \\    /   O peration     | Website:  https://openfoam.org
    \\  /    A nd           | Version:  7
     \\/     M anipulation  |
\*---------------------------------------------------------------------------*/
FoamFile
{
    version     2.0;
    format      ascii;
    class       surfaceScalarField;
    location    "7.4";
    object      phi;
}
// * * * * * * * * * * * * * * * * * * * * * * * * * * * * * * * * * * * * * //

dimensions      [0 3 -1 0 0 0 0];

internalField   nonuniform List<scalar> 
615
(
0.000282393
-1.85929e-05
0.000285644
-1.82242e-05
0.000288777
-1.78172e-05
0.000291788
-1.73819e-05
0.000294678
-1.69266e-05
0.000297445
-1.64587e-05
0.000300092
-1.5984e-05
0.000302622
-1.55077e-05
0.000305037
-1.50337e-05
0.000307341
-1.45654e-05
0.000309537
-1.41053e-05
0.000311632
-1.36556e-05
0.000313627
-1.32176e-05
0.000315529
-1.27926e-05
0.000317342
-1.23814e-05
0.000319069
-1.19842e-05
0.000320716
-1.16015e-05
0.000322286
-1.12333e-05
0.000323784
-1.08795e-05
0.000325214
-1.05397e-05
0.000326579
-1.02139e-05
0.000327882
-9.90141e-06
0.000329128
-9.60197e-06
0.000330319
-9.31506e-06
0.000331458
-9.04019e-06
0.000332549
-8.77686e-06
0.000333593
-8.52456e-06
0.000334594
-8.28277e-06
0.000335554
-8.051e-06
0.000336475
-7.82877e-06
0.000337359
-7.6156e-06
0.000338208
-7.41104e-06
0.000339025
-7.21465e-06
0.00033981
-7.02602e-06
0.000340565
-6.84475e-06
0.000341292
-6.67047e-06
0.000341993
-6.5028e-06
0.000342668
-6.34143e-06
0.000343319
-6.18602e-06
0.000343947
-6.03628e-06
0.000344554
-5.89192e-06
0.00034514
-5.75267e-06
0.000345706
-5.61828e-06
0.000346254
-5.48852e-06
0.000346783
-5.36316e-06
0.000347296
-5.24198e-06
0.000347792
-5.1248e-06
0.000348273
-5.01143e-06
-4.90168e-06
0.00024867
-1.59714e-06
0.000249708
-4.82207e-06
0.000251417
-7.95971e-06
0.000253739
-1.09013e-05
0.000256598
-1.35742e-05
0.000259911
-1.59332e-05
0.00026359
-1.79558e-05
0.000267551
-1.96383e-05
0.000271717
-2.09918e-05
0.000276016
-2.2037e-05
0.000280388
-2.28004e-05
0.000284777
-2.33118e-05
0.00028914
-2.36016e-05
0.000293439
-2.36997e-05
0.000297644
-2.36347e-05
0.000301731
-2.3433e-05
0.000305682
-2.3119e-05
0.000309484
-2.27141e-05
0.000313129
-2.22376e-05
0.000316611
-2.17063e-05
0.000319928
-2.11347e-05
0.000323081
-2.0535e-05
0.000326072
-1.99176e-05
0.000328905
-1.92914e-05
0.000331584
-1.86634e-05
0.000334116
-1.80394e-05
0.000336507
-1.74241e-05
0.000338762
-1.6821e-05
0.00034089
-1.62331e-05
0.000342897
-1.56623e-05
0.000344789
-1.51102e-05
0.000346574
-1.45776e-05
0.000348258
-1.40652e-05
0.000349847
-1.35731e-05
0.000351347
-1.31014e-05
0.000352763
-1.26497e-05
0.000354101
-1.22177e-05
0.000355367
-1.18049e-05
0.000356563
-1.14107e-05
0.000357696
-1.10343e-05
0.000358769
-1.0675e-05
0.000359786
-1.03321e-05
0.000360751
-1.00049e-05
0.000361667
-9.69256e-06
0.000362537
-9.39437e-06
0.000363363
-9.10962e-06
0.00036415
-8.83759e-06
0.000364899
-8.5776e-06
0.000365612
-8.32903e-06
0.000366292
-8.09123e-06
0.000366941
-7.86363e-06
0.000367561
-7.64566e-06
0.000368153
-7.43681e-06
0.000368719
-7.23656e-06
0.000369261
-7.04445e-06
0.00036978
-6.86003e-06
0.000370276
-6.68289e-06
0.000370753
-6.51265e-06
0.00037121
-6.34892e-06
0.000371648
-6.19137e-06
0.00037207
-6.03968e-06
0.000372475
-5.89353e-06
0.000372864
-5.75265e-06
0.000373239
-5.61678e-06
0.0003736
-5.48565e-06
0.000373948
-5.35904e-06
-5.23673e-06
0.00027035
-2.02557e-06
0.000271655
-6.1273e-06
0.000273798
-1.01024e-05
0.000276694
-1.3798e-05
0.000280239
-1.71189e-05
0.000284315
-2.0009e-05
0.000288803
-2.24439e-05
0.00029359
-2.44255e-05
0.000298572
-2.59742e-05
0.000303658
-2.71224e-05
0.000308767
-2.79093e-05
0.000313832
-2.83772e-05
0.000318799
-2.85688e-05
0.000323625
-2.85256e-05
0.000328277
-2.82864e-05
0.000332731
-2.78868e-05
0.000336971
-2.73589e-05
0.000340988
-2.6731e-05
0.000344778
-2.60277e-05
0.000348341
-2.527e-05
0.000351682
-2.44759e-05
0.000354808
-2.36602e-05
0.000357725
-2.28352e-05
0.000360445
-2.20108e-05
0.000362976
-2.1195e-05
0.000365331
-2.03941e-05
0.00036752
-1.96127e-05
0.000369553
-1.88544e-05
0.000371441
-1.81217e-05
0.000373196
-1.74164e-05
0.000374825
-1.67393e-05
0.000376338
-1.60911e-05
0.000377745
-1.54716e-05
0.000379052
-1.48805e-05
0.000380268
-1.43174e-05
0.0003814
-1.37813e-05
0.000382453
-1.32714e-05
0.000383435
-1.27867e-05
0.00038435
-1.2326e-05
0.000385204
-1.18883e-05
0.000386002
-1.14725e-05
0.000386747
-1.10773e-05
0.000387444
-1.07018e-05
0.000388096
-1.03448e-05
0.000388707
-1.00053e-05
0.00038928
-9.68227e-06
0.000389817
-9.37481e-06
0.000390321
-9.08199e-06
0.000390795
-8.80295e-06
0.000391241
-8.53688e-06
0.00039166
-8.28302e-06
0.000392055
-8.04063e-06
0.000392427
-7.80905e-06
0.000392779
-7.58765e-06
0.00039311
-7.37582e-06
0.000393423
-7.17302e-06
0.000393719
-6.97872e-06
0.000393999
-6.79244e-06
0.000394263
-6.61372e-06
0.000394514
-6.44215e-06
0.000394752
-6.27733e-06
0.000394977
-6.11888e-06
0.000395191
-5.96647e-06
0.000395394
-5.81976e-06
0.000395587
-5.67847e-06
0.00039577
-5.54231e-06
-5.41102e-06
0.000292058
-2.56863e-06
0.000293726
-7.79576e-06
0.000296457
-1.28327e-05
0.000300123
-1.74647e-05
0.000304574
-2.15692e-05
0.00030964
-2.50755e-05
0.000315154
-2.79583e-05
0.000320958
-3.02295e-05
0.00032691
-3.19258e-05
0.000332887
-3.30989e-05
0.000338786
-3.38084e-05
0.000344526
-3.41173e-05
0.000350044
-3.40874e-05
0.000355297
-3.37777e-05
0.000360252
-3.32422e-05
0.000364895
-3.25291e-05
0.000369217
-3.16809e-05
0.000373219
-3.07338e-05
0.00037691
-2.97186e-05
0.000380301
-2.86608e-05
0.000383407
-2.75813e-05
0.000386243
-2.64968e-05
0.000388829
-2.54208e-05
0.000391181
-2.43634e-05
0.000393319
-2.33324e-05
0.000395258
-2.23336e-05
0.000397017
-2.1371e-05
0.000398609
-2.04471e-05
0.000400051
-1.95635e-05
0.000401356
-1.87209e-05
0.000402536
-1.79191e-05
0.000403602
-1.71576e-05
0.000404566
-1.64355e-05
0.000405437
-1.57514e-05
0.000406223
-1.5104e-05
0.000406934
-1.44916e-05
0.000407575
-1.39125e-05
0.000408153
-1.33652e-05
0.000408675
-1.28478e-05
0.000409145
-1.23587e-05
0.000409569
-1.18962e-05
0.000409951
-1.14588e-05
0.000410294
-1.10449e-05
0.000410602
-1.06531e-05
0.000410879
-1.0282e-05
0.000411127
-9.93025e-06
0.000411349
-9.59666e-06
0.000411547
-9.28006e-06
0.000411723
-8.97937e-06
0.00041188
-8.69358e-06
0.000412019
-8.42174e-06
0.000412141
-8.16297e-06
0.000412248
-7.91643e-06
0.000412342
-7.68137e-06
0.000412423
-7.45708e-06
0.000412493
-7.24288e-06
0.000412553
-7.03817e-06
0.000412603
-6.84237e-06
0.000412644
-6.65494e-06
0.000412677
-6.4754e-06
0.000412703
-6.30328e-06
0.000412722
-6.13815e-06
0.000412736
-5.97963e-06
0.000412743
-5.82733e-06
0.000412746
-5.68092e-06
0.000412743
-5.54007e-06
-5.40449e-06
0.000313807
-3.26709e-06
0.000315991
-9.98016e-06
0.000319545
-1.63866e-05
0.000324275
-2.21941e-05
0.00032995
-2.72447e-05
0.000336318
-3.14432e-05
0.000343128
-3.47687e-05
0.000350154
-3.72549e-05
0.000357197
-3.89693e-05
0.000364098
-3.99993e-05
0.00037073
-4.04412e-05
0.000377005
-4.03922e-05
0.000382863
-3.9945e-05
0.000388269
-3.9184e-05
0.000393211
-3.8184e-05
0.000397691
-3.70089e-05
0.000401723
-3.57128e-05
0.000405329
-3.43399e-05
0.000408536
-3.2926e-05
0.000411375
-3.14992e-05
0.000413875
-3.00817e-05
0.000416068
-2.869e-05
0.000417984
-2.73364e-05
0.00041965
-2.60296e-05
0.000421093
-2.47755e-05
0.000422337
-2.35778e-05
0.000423405
-2.24384e-05
0.000424316
0.000425088
0.000425737
0.000426279
0.000426725
0.000427087
0.000427376
0.0004276
0.000427767
0.000427885
0.000427958
0.000427994
0.000427996
0.000427968
0.000427915
0.00042784
0.000427746
0.000427634
0.000427508
0.00042737
0.00042722
0.000427062
0.000426895
0.000426722
0.000426543
0.000426359
0.000426171
0.000425981
0.000425787
0.000425592
0.000425395
0.000425198
0.000425
0.000424801
0.000424603
0.000424405
0.000424207
0.000424011
0.000423815
0.000335616
0.000338581
0.000343324
0.000349562
0.000356915
0.000364976
0.000373362
0.000381745
0.000389861
0.000397516
0.000404581
0.000410982
0.00041669
0.000421709
0.000426067
0.000429805
0.000432975
0.000435632
0.00043783
0.000439623
0.000441062
0.000442191
0.000443054
0.000443687
0.000444122
0.00044439
)
;

boundaryField
{
    inlet
    {
        type            calculated;
        value           nonuniform List<scalar> 5(-0.000248327 -0.000269921 -0.000291515 -0.000313109 -0.000334702);
    }
    outlet
    {
        type            calculated;
        value           nonuniform 0();
    }
    wall
    {
        type            calculated;
        value           nonuniform 0();
    }
    wedge1
    {
        type            wedge;
        value           nonuniform List<scalar> 
344
(
-2.201e-16
1.17831e-16
1.57755e-17
1.67466e-16
2.39045e-17
-7.60635e-16
4.21097e-16
6.73881e-17
5.91306e-16
9.84244e-17
-1.30234e-15
7.2389e-16
1.19702e-16
1.00984e-15
1.7183e-16
-1.81944e-15
1.0108e-15
1.68632e-16
1.39935e-15
2.38978e-16
-2.29781e-15
1.27347e-15
2.12714e-16
1.74735e-15
2.97557e-16
-2.72796e-15
1.50713e-15
2.51415e-16
2.04679e-15
3.46539e-16
-3.10461e-15
1.70879e-15
2.84169e-16
2.29426e-15
3.85242e-16
-3.42554e-15
1.8778e-15
3.10959e-16
2.4901e-15
4.14018e-16
-3.69135e-15
2.01502e-15
3.32053e-16
2.63708e-15
4.33691e-16
-3.90474e-15
2.12217e-15
3.47835e-16
2.73939e-15
4.45229e-16
-4.06931e-15
2.20175e-15
3.58801e-16
2.80211e-15
4.49799e-16
-4.18945e-15
2.2566e-15
3.65629e-16
2.82958e-15
4.48471e-16
-4.27029e-15
2.28944e-15
3.68472e-16
2.82494e-15
4.42291e-16
-4.31481e-15
2.30122e-15
3.67875e-16
2.79448e-15
4.3229e-16
-4.32576e-15
2.29537e-15
3.6449e-16
2.74392e-15
4.19643e-16
-4.30882e-15
2.27491e-15
3.58881e-16
2.67797e-15
4.05062e-16
-4.26904e-15
2.24262e-15
3.51474e-16
2.60061e-15
3.8921e-16
-4.21036e-15
2.20103e-15
3.42816e-16
2.51527e-15
3.72729e-16
1.78714e-15
-4.13663e-15
2.15204e-15
3.33187e-16
2.42464e-15
3.55898e-16
1.75667e-15
-4.05122e-15
2.09746e-15
3.22716e-16
2.33097e-15
3.39039e-16
1.72204e-15
-3.95663e-15
2.03898e-15
3.11919e-16
2.23619e-15
3.22547e-16
1.68412e-15
-3.85541e-15
1.97773e-15
3.00904e-16
2.14162e-15
3.06441e-16
1.64382e-15
-3.74973e-15
1.91479e-15
2.89663e-16
2.04835e-15
2.90866e-16
1.60187e-15
-3.64113e-15
1.85115e-15
2.78571e-16
1.95729e-15
2.75937e-16
1.55888e-15
-3.53108e-15
1.78748e-15
2.67653e-16
1.86897e-15
2.61705e-16
1.51537e-15
-3.42077e-15
1.72438e-15
2.56876e-16
1.78385e-15
2.48188e-16
1.47178e-15
-3.31115e-15
1.66232e-15
2.46413e-16
1.70221e-15
2.35386e-16
1.42841e-15
-3.20301e-15
1.60167e-15
2.36304e-16
1.62425e-15
1.3855e-15
-3.09702e-15
1.54258e-15
2.26469e-16
1.54987e-15
1.34342e-15
-2.99352e-15
1.4854e-15
2.17094e-16
1.47928e-15
1.30226e-15
-2.89289e-15
1.43031e-15
2.08149e-16
1.41248e-15
1.26216e-15
-2.79541e-15
1.3773e-15
1.99618e-16
1.34927e-15
1.22322e-15
-2.70124e-15
1.3264e-15
1.91486e-16
1.28954e-15
1.1855e-15
-2.61047e-15
1.27765e-15
1.83749e-16
1.23315e-15
1.14904e-15
-2.52315e-15
1.23102e-15
1.76401e-16
1.17996e-15
1.11385e-15
-2.43927e-15
1.18651e-15
1.69427e-16
1.1298e-15
1.07997e-15
-2.35883e-15
1.14402e-15
1.62823e-16
1.08251e-15
1.04734e-15
-2.28175e-15
1.10349e-15
1.56543e-16
1.03795e-15
1.01597e-15
-2.20794e-15
1.06487e-15
1.50584e-16
9.95946e-16
9.85841e-16
-2.1373e-15
1.02809e-15
1.44933e-16
9.5633e-16
9.56887e-16
-2.06974e-15
9.93059e-16
1.39574e-16
9.18976e-16
9.29096e-16
-2.00513e-15
9.59706e-16
1.34502e-16
8.8373e-16
9.02412e-16
-1.94335e-15
9.27933e-16
1.29697e-16
8.50475e-16
8.76808e-16
-1.88426e-15
8.97674e-16
1.25131e-16
8.19058e-16
8.52264e-16
-1.82775e-15
8.68848e-16
1.20796e-16
7.89357e-16
8.28697e-16
-1.77372e-15
8.41365e-16
1.1669e-16
7.61276e-16
8.06115e-16
-1.72195e-15
8.15153e-16
1.12739e-16
7.34668e-16
7.84416e-16
-1.67238e-15
7.90168e-16
1.08947e-16
7.09501e-16
7.6355e-16
-1.62501e-15
7.6633e-16
1.05437e-16
6.85638e-16
7.43501e-16
-1.57962e-15
7.43566e-16
1.02101e-16
6.63008e-16
7.24216e-16
-1.53615e-15
7.21819e-16
9.89171e-17
6.4153e-16
7.05661e-16
-1.49446e-15
7.01023e-16
9.58614e-17
6.21111e-16
6.87827e-16
-1.45446e-15
6.81119e-16
9.29465e-17
6.01686e-16
6.70669e-16
-1.41606e-15
6.62077e-16
9.01548e-17
5.832e-16
6.54135e-16
-1.37919e-15
6.43841e-16
8.74964e-17
5.65586e-16
6.38165e-16
-1.34378e-15
6.26323e-16
8.49211e-17
5.48752e-16
6.22859e-16
-1.30966e-15
6.09611e-16
8.25616e-17
5.32809e-16
6.08082e-16
-1.27687e-15
5.93619e-16
8.02652e-17
5.17604e-16
5.938e-16
-1.2453e-15
5.7817e-16
7.80488e-17
5.02964e-16
5.8e-16
-1.21492e-15
5.63333e-16
7.5914e-17
4.88956e-16
5.66671e-16
-1.18564e-15
5.49056e-16
7.38637e-17
4.75552e-16
5.53797e-16
-1.15741e-15
5.35331e-16
7.18828e-17
4.62709e-16
5.41341e-16
-1.13018e-15
5.22114e-16
6.99746e-17
4.50384e-16
5.29289e-16
-1.1039e-15
5.09385e-16
6.81445e-17
4.38556e-16
5.17637e-16
-1.07851e-15
4.97125e-16
6.63943e-17
4.27201e-16
5.06355e-16
-1.05398e-15
4.85295e-16
6.46991e-17
4.16309e-16
4.95421e-16
-1.03028e-15
4.73874e-16
6.30698e-17
4.05826e-16
)
;
    }
    wedge2
    {
        type            wedge;
        value           nonuniform List<scalar> 
344
(
-2.20109e-16
1.17853e-16
1.57692e-17
1.67454e-16
2.39038e-17
-7.60809e-16
4.20651e-16
6.71363e-17
5.90877e-16
9.81094e-17
-1.30277e-15
7.22945e-16
1.18846e-16
1.00892e-15
1.71259e-16
-1.82041e-15
1.00942e-15
1.67372e-16
1.39809e-15
2.38206e-16
-2.29908e-15
1.27207e-15
2.11454e-16
1.74623e-15
2.96946e-16
-2.72953e-15
1.50542e-15
2.49963e-16
2.04547e-15
3.45807e-16
-3.10629e-15
1.70703e-15
2.82677e-16
2.29299e-15
3.84615e-16
-3.42746e-15
1.87608e-15
3.09527e-16
2.48904e-15
4.1357e-16
-3.69359e-15
2.01324e-15
3.30683e-16
2.63615e-15
4.33343e-16
-3.907e-15
2.12041e-15
3.46539e-16
2.73857e-15
4.45021e-16
-4.07159e-15
2.19996e-15
3.5758e-16
2.80143e-15
4.49737e-16
-4.19194e-15
2.25472e-15
3.64218e-16
2.82877e-15
4.48296e-16
-4.27267e-15
2.28738e-15
3.6704e-16
2.82397e-15
4.42034e-16
-4.31709e-15
2.29931e-15
3.66497e-16
2.79366e-15
4.3221e-16
-4.32808e-15
2.29344e-15
3.63187e-16
2.7432e-15
4.19602e-16
-4.31125e-15
2.27307e-15
3.57634e-16
2.67734e-15
4.05113e-16
-4.27128e-15
2.24092e-15
3.50363e-16
2.6001e-15
3.89405e-16
-4.21269e-15
2.19923e-15
3.41647e-16
2.51475e-15
3.72898e-16
1.78453e-15
-4.13904e-15
2.15025e-15
3.31913e-16
2.42416e-15
3.5614e-16
1.75415e-15
-4.05344e-15
2.09578e-15
3.21626e-16
2.33062e-15
3.3945e-16
1.71945e-15
-3.95895e-15
2.03717e-15
3.10765e-16
2.2358e-15
3.22915e-16
1.68157e-15
-3.85782e-15
1.97591e-15
2.99637e-16
2.14124e-15
3.06866e-16
1.64131e-15
-3.75198e-15
1.91306e-15
2.88577e-16
2.04806e-15
2.91406e-16
1.5994e-15
-3.64329e-15
1.84944e-15
2.77478e-16
1.95701e-15
2.76587e-16
1.55644e-15
-3.53317e-15
1.78584e-15
2.66524e-16
1.86877e-15
2.62456e-16
1.51298e-15
-3.4228e-15
1.72282e-15
2.5591e-16
1.78375e-15
2.49051e-16
1.4694e-15
-3.31312e-15
1.66086e-15
2.45582e-16
1.70223e-15
2.36385e-16
1.42609e-15
-3.20491e-15
1.60028e-15
2.35585e-16
1.62435e-15
1.38339e-15
-3.0987e-15
1.54149e-15
2.26061e-16
1.55033e-15
1.34138e-15
-2.99508e-15
1.48454e-15
2.1686e-16
1.48001e-15
1.3003e-15
-2.89437e-15
1.42949e-15
2.08031e-16
1.41327e-15
1.26027e-15
-2.7968e-15
1.37654e-15
1.99598e-16
1.35013e-15
1.22138e-15
-2.70253e-15
1.32574e-15
1.91567e-16
1.29049e-15
1.18372e-15
-2.61169e-15
1.27707e-15
1.83929e-16
1.23419e-15
1.14731e-15
-2.5243e-15
1.23053e-15
1.76668e-16
1.18108e-15
1.11218e-15
-2.44038e-15
1.18606e-15
1.69775e-16
1.13101e-15
1.07831e-15
-2.35987e-15
1.14363e-15
1.63224e-16
1.08383e-15
1.04574e-15
-2.28271e-15
1.10321e-15
1.57031e-16
1.03935e-15
1.01443e-15
-2.20884e-15
1.06468e-15
1.51168e-16
9.97432e-16
9.84334e-16
-2.13815e-15
1.02797e-15
1.45613e-16
9.57927e-16
9.55452e-16
-2.07051e-15
9.93021e-16
1.40351e-16
9.20667e-16
9.27726e-16
-2.00583e-15
9.59729e-16
1.35356e-16
8.8552e-16
9.01126e-16
-1.94397e-15
9.28032e-16
1.30616e-16
8.52332e-16
8.75597e-16
-1.88483e-15
8.97839e-16
1.26128e-16
8.20999e-16
8.51072e-16
-1.82827e-15
8.6907e-16
1.21873e-16
7.91401e-16
8.27544e-16
-1.77415e-15
8.41665e-16
1.17823e-16
7.63405e-16
8.04918e-16
-1.72243e-15
8.15547e-16
1.14026e-16
7.36944e-16
7.83209e-16
-1.67296e-15
7.9062e-16
1.10459e-16
7.11851e-16
7.62383e-16
-1.62549e-15
7.66828e-16
1.06968e-16
6.88076e-16
7.42373e-16
-1.58004e-15
7.44115e-16
1.03642e-16
6.65518e-16
7.23154e-16
-1.53646e-15
7.22416e-16
1.00482e-16
6.44095e-16
7.04682e-16
-1.49468e-15
7.01682e-16
9.7492e-17
6.23749e-16
6.86895e-16
-1.4546e-15
6.81864e-16
9.46415e-17
6.04408e-16
6.69766e-16
-1.41614e-15
6.62887e-16
9.19315e-17
5.85996e-16
6.53284e-16
-1.3792e-15
6.44712e-16
8.93353e-17
5.6846e-16
6.37445e-16
-1.34368e-15
6.27338e-16
8.68883e-17
5.51781e-16
6.22087e-16
-1.3096e-15
6.1059e-16
8.44447e-17
5.35744e-16
6.07291e-16
-1.27679e-15
5.94476e-16
8.21433e-17
5.20408e-16
5.93036e-16
-1.24522e-15
5.79097e-16
7.99561e-17
5.05857e-16
5.79287e-16
-1.21478e-15
5.64315e-16
7.78698e-17
4.91941e-16
5.66006e-16
-1.18545e-15
5.50116e-16
7.58708e-17
4.78612e-16
5.53163e-16
-1.15718e-15
5.36446e-16
7.39649e-17
4.65843e-16
5.40755e-16
-1.12989e-15
5.23294e-16
7.21396e-17
4.53611e-16
5.28755e-16
-1.10356e-15
5.10624e-16
7.0381e-17
4.41876e-16
5.1713e-16
-1.07814e-15
4.98408e-16
6.86795e-17
4.30606e-16
5.05874e-16
-1.05357e-15
4.86635e-16
6.70525e-17
4.19757e-16
4.94976e-16
-1.02982e-15
4.75283e-16
6.54825e-17
4.09336e-16
)
;
    }
    axis
    {
        type            empty;
        value           nonuniform 0();
    }
    procBoundary12to6
    {
        type            processor;
        value           nonuniform List<scalar> 
68
(
1.5228e-05
1.49731e-05
1.46846e-05
1.43704e-05
1.40374e-05
1.36912e-05
1.33368e-05
1.29782e-05
1.26189e-05
1.22616e-05
1.19085e-05
1.15615e-05
1.12219e-05
1.08908e-05
1.05689e-05
1.02567e-05
9.95468e-06
9.66291e-06
9.38144e-06
9.11022e-06
8.84911e-06
8.59788e-06
8.35629e-06
8.12403e-06
7.9008e-06
7.68624e-06
7.48002e-06
7.28178e-06
7.09119e-06
6.90788e-06
6.73154e-06
6.56184e-06
6.39845e-06
6.24108e-06
6.08944e-06
5.94325e-06
5.80225e-06
5.66618e-06
5.53481e-06
5.40792e-06
5.28529e-06
5.16672e-06
5.05202e-06
4.94102e-06
4.83354e-06
4.72943e-06
4.62853e-06
4.5307e-06
4.43582e-06
1.25464e-06
3.78359e-06
6.25101e-06
8.57967e-06
1.07149e-05
1.26206e-05
1.42766e-05
1.56768e-05
1.68262e-05
1.77376e-05
1.84293e-05
1.89223e-05
1.92387e-05
1.94008e-05
1.94299e-05
1.93461e-05
1.91679e-05
-0.000279028
1.89118e-05
)
;
    }
    procBoundary12to7
    {
        type            processor;
        value           uniform 0.000348739;
    }
    procBoundary12to13
    {
        type            processor;
        value           nonuniform List<scalar> 4(0.000374283 0.000395944 0.000412737 0.00042362);
    }
    procBoundary12to18
    {
        type            processor;
        value           nonuniform List<scalar> 
68
(
-2.13578e-05
-2.03356e-05
-1.93704e-05
-1.84606e-05
-1.76039e-05
-1.67979e-05
-1.60402e-05
-1.5328e-05
-1.46588e-05
-1.40299e-05
-1.34388e-05
-1.28832e-05
-1.23606e-05
-1.18689e-05
-1.14059e-05
-1.09698e-05
-1.05586e-05
-1.01706e-05
-9.80432e-06
-9.45813e-06
-9.13069e-06
-8.8207e-06
-8.52698e-06
-8.2484e-06
-7.98396e-06
-7.7327e-06
-7.49375e-06
-7.26629e-06
-7.04958e-06
-6.84293e-06
-6.6457e-06
-6.45729e-06
-6.27716e-06
-6.10481e-06
-5.93976e-06
-5.78158e-06
-5.62988e-06
-5.48427e-06
-5.3444e-06
-5.20997e-06
-4.18038e-06
-1.29458e-05
-2.11298e-05
-2.84321e-05
-3.45977e-05
-3.95034e-05
-4.31549e-05
-4.56377e-05
-4.70853e-05
-4.76544e-05
-4.75062e-05
-4.67935e-05
-4.56533e-05
-4.42033e-05
-4.25416e-05
-4.07473e-05
-3.88829e-05
-3.69965e-05
-3.51242e-05
-3.32925e-05
-3.15201e-05
-2.98196e-05
-2.81988e-05
-2.66622e-05
-2.52113e-05
-2.38458e-05
0.000444516
-2.25639e-05
)
;
    }
}


// ************************************************************************* //
