/*--------------------------------*- C++ -*----------------------------------*\
  =========                 |
  \\      /  F ield         | OpenFOAM: The Open Source CFD Toolbox
   \\    /   O peration     | Website:  https://openfoam.org
    \\  /    A nd           | Version:  7
     \\/     M anipulation  |
\*---------------------------------------------------------------------------*/
FoamFile
{
    version     2.0;
    format      ascii;
    class       surfaceScalarField;
    location    "14";
    object      phi;
}
// * * * * * * * * * * * * * * * * * * * * * * * * * * * * * * * * * * * * * //

dimensions      [0 3 -1 0 0 0 0];

internalField   nonuniform List<scalar> 
809
(
-0.000281308
-0.00274084
-0.00289133
-0.000368346
-0.000213405
-0.00236748
-0.000300256
-0.00250686
-0.000392188
-0.00264891
-0.00279653
-0.000486988
-0.000139855
-0.00202263
-0.000219046
-0.0021513
-0.000305506
-0.00228102
-0.000399455
-0.00241291
-0.000500095
-0.00254827
-0.00269312
-0.000603498
-7.7148e-05
-0.00170429
-0.000145141
-0.00182643
-0.000219536
-0.00194824
-0.000301162
-0.00206968
-0.000391145
-0.00219104
-0.000490795
-0.00231326
-0.000600337
-0.00243873
-0.00257763
-0.000715834
-8.94347e-05
-0.00152376
-0.000152794
-0.00164093
-0.000221542
-0.00175769
-0.000296165
-0.00187362
-0.000377397
-0.00198844
-0.000466462
-0.00210197
-0.000565795
-0.00221393
-0.000679408
-0.00232512
-0.00243163
-0.000825402
-5.16897e-05
-0.00123971
-0.000106531
-0.00135185
-0.000165848
-0.00146444
-0.000229925
-0.00157686
-0.00029896
-0.00168865
-0.000373023
-0.00179955
-0.000451991
-0.00190947
-0.000535492
-0.00201847
-0.000622953
-0.00212647
-0.000715525
-0.00223254
-0.00234407
-0.000803086
-3.43275e-05
-0.000976632
-8.07321e-05
-0.0010824
-0.000130947
-0.0011895
-0.00018561
-0.00129719
-0.000245197
-0.00140485
-0.000310036
-0.00151202
-0.000380316
-0.00161837
-0.000456101
-0.00172377
-0.000537322
-0.00182825
-0.000623789
-0.00193201
-0.000715128
-0.00203513
-0.00081074
-0.00213693
-0.00223995
-0.000914861
-4.73638e-05
-0.000737034
-8.32468e-05
-0.000837113
-0.000121805
-0.000938074
-0.000164455
-0.00103975
-0.000212128
-0.00114182
-0.000265421
-0.00124389
-0.000324701
-0.00134557
-0.000390169
-0.00144655
-0.000461915
-0.00154662
-0.000539955
-0.00164573
-0.000624261
-0.00174395
-0.000714786
-0.00184148
-0.000811558
-0.00193836
-0.000914719
-0.00203377
-0.00212896
-0.00102571
-0.000113986
-0.000616997
-0.000138041
-0.000712979
-0.000166592
-0.000808562
-0.00020053
-0.000904136
-0.000240469
-0.000999813
-0.00028682
-0.00109547
-0.000339844
-0.00119087
-0.00039969
-0.00128573
-0.000466423
-0.00137982
-0.000540047
-0.001473
-0.000620532
-0.00156524
-0.00070784
-0.00165664
-0.000801951
-0.00174737
-0.000902934
-0.00183738
-0.00101098
-0.00192572
-0.00201335
-0.00112659
-0.000191437
-0.000449881
-0.000182588
-0.000528934
-0.000188091
-0.000611495
-0.000204647
-0.000696423
-0.000230158
-0.00078305
-0.00026345
-0.000870844
-0.000303968
-0.000959294
-0.000351523
-0.00104792
-0.000406107
-0.00113629
-0.000467771
-0.00122406
-0.000536565
-0.00131102
-0.000612504
-0.00139706
-0.000695571
-0.00148218
-0.00078573
-0.00156648
-0.000882951
-0.00165015
-0.000987256
-0.00173307
-0.00109876
-0.00181422
-0.00189446
-0.00121764
-0.000247463
-0.000226588
-0.000223036
-0.000232694
-0.000252605
-0.000676512
-0.000280897
-0.000754758
-0.000316568
-0.000835173
-0.000359214
-0.000916648
-0.000408781
-0.000998351
-0.000465373
-0.00107969
-0.000529126
-0.00116031
-0.000600141
-0.00124001
-0.000678458
-0.00131874
-0.000764062
-0.00139657
-0.000856898
-0.00147365
-0.0009569
-0.00155015
-0.00106402
-0.00162595
-0.00117831
-0.00169994
-0.00177298
-0.0012998
-0.000291919
-0.00032631
-0.000365044
-0.000409431
-0.000872261
-0.000460363
-0.000947419
-0.000518403
-0.00102165
-0.000583869
-0.00109484
-0.00065689
-0.00116699
-0.000737468
-0.00123817
-0.000825523
-0.00130852
-0.000920932
-0.00137824
-0.00102355
-0.00144752
-0.00113327
-0.00151623
-0.00125008
-0.00158313
-0.00164913
-0.00137392
-0.000454649
-0.000505234
-0.000563968
-0.000630909
-0.000705952
-0.00109194
-0.000788908
-0.00115521
-0.000879544
-0.00121788
-0.000977623
-0.00128016
-0.00108292
-0.00134223
-0.00119523
-0.00140392
-0.00131453
-0.00146384
-0.00152293
-0.00144072
-0.000745713
-0.000831883
-0.000925691
-0.00102685
-0.001179
-0.00113509
-0.00123399
-0.00125018
-0.00128883
-0.00137211
-0.0013419
-0.00139426
-0.00150078
-0.0010689
-0.00118043
-0.00129855
-0.00142332
-0.00126295
-0.00155464
-0.00160281
0.00535043
-0.00101458
-0.00516125
0.00549209
-0.000857499
0.00564511
-0.000756513
0.00579944
-0.000641318
-0.000520683
0.00580196
-0.00115206
-0.00566447
0.00594672
-0.00100226
0.00608331
-0.00089311
0.00621851
-0.000776512
-0.000655169
0.00625716
-0.00126827
-0.00614095
0.00638247
-0.00112758
0.00650333
-0.00101397
0.00662182
-0.000895002
-0.000772318
0.00669619
-0.00136741
-0.00659705
0.00680242
-0.00123381
0.00690695
-0.0011185
0.00700984
-0.000997886
-0.000873917
0.00712007
-0.00145164
-0.00703584
0.00720946
-0.0013232
0.0072984
-0.00120745
0.00738654
-0.00108602
-0.000961238
0.00753186
-0.00152245
-0.00746105
0.00760651
-0.00139786
0.00768117
-0.0012821
0.00775561
-0.00116046
-0.0010354
0.00793421
-0.0015809
-0.00787576
0.00799571
-0.00145936
0.00805748
-0.00134387
0.00811947
-0.00122245
-0.00109759
0.00832963
-0.00162796
-0.00828257
0.00837929
-0.00150901
0.00842947
-0.00139405
0.00848025
-0.00127323
-0.00114899
0.00872062
-0.00166456
-0.00868402
0.00875957
-0.00154796
0.00879931
-0.00143379
0.00883999
-0.00131391
-0.00119067
0.00910952
-0.00169152
-0.00908255
0.00913873
-0.00157717
0.009169
-0.00146407
0.00920054
-0.00134545
0.00949832
-0.00948026
0.00951863
0.00954026
0.00605261
0.000115172
-7.74501e-05
0.00596633
0.000940627
-0.00085435
0.00584122
0.00166163
-0.00153652
0.00568792
0.0023752
-0.00222189
0.00551605
0.0031257
-0.00295383
0.00534709
0.00395164
-0.00378268
0.00520366
0.00478634
-0.00464292
0.00512403
0.00565027
-0.00557064
0.00512174
0.00631825
-0.00631596
0.00687948
-0.00691899
0.00627291
0.000152973
0.00618752
0.00102601
0.00606532
0.00178383
0.00591903
0.00252149
0.00576026
0.00328446
0.00561439
0.00409751
0.00550353
0.00489721
0.00547231
0.00568148
0.00552101
0.00626956
0.00673602
0.00650147
0.000190565
0.00641789
0.0011096
0.00629992
0.0019018
0.00616248
0.00265893
0.00601872
0.00342821
0.00589742
0.00421881
0.00581919
0.00497544
0.00583183
0.00566884
0.00592996
0.00617143
0.00652504
0.00673859
0.000227654
0.0066576
0.00119059
0.00654511
0.00201429
0.00641804
0.002786
0.0062909
0.00355536
0.0061947
0.00431501
0.00614875
0.00502139
0.00619892
0.00561867
0.00634386
0.00602649
0.00627185
0.00698456
0.000263959
0.00690692
0.00126823
0.00680114
0.00212007
0.00668585
0.0029013
0.00657677
0.00366444
0.00650589
0.00438589
0.00649168
0.0050356
0.00657399
0.00553635
0.00675708
0.0058434
0.00599309
0.00723967
0.000299205
0.00716613
0.00134176
0.00706824
0.00221796
0.00696596
0.00300357
0.00687616
0.00375424
0.00683041
0.00443164
0.00684686
0.00501915
0.00695645
0.00542677
0.00716739
0.00563246
0.00569943
0.00750424
0.00033312
0.00743551
0.00141049
0.00734661
0.00230686
0.00725842
0.00309176
0.00718883
0.00382383
0.00716766
0.0044528
0.00721298
0.00497383
0.00734556
0.00529419
0.007575
0.00540303
0.00539866
0.00777862
0.000365433
0.00771536
0.00147375
0.00763646
0.00238576
0.00756323
0.00316498
0.00751443
0.00387263
0.00751704
0.00445019
0.00758886
0.00490201
0.00774076
0.00514229
0.00798106
0.00516273
0.00509715
0.00806313
0.000395876
0.00800596
0.00153092
0.00793798
0.00245375
0.00788039
0.00322257
0.00785262
0.0039004
0.00787796
0.00442486
0.00797349
0.00480648
0.00814148
0.0049743
0.00838678
0.00491743
0.00479991
0.00835813
0.000424185
0.00830763
0.00158142
0.00825134
0.00251004
0.00820987
0.00326403
0.008203
0.00390727
0.00824984
0.00437801
0.00836607
0.00469026
0.00854717
0.00479319
0.00879323
0.00467138
0.00451058
0.00866398
0.000450108
0.00862067
0.0085767
0.00855162
0.00856517
0.00863213
0.00876595
0.00895737
0.00920127
0.00312642
0.000852507
0.00291672
0.00127432
0.00265895
0.00171675
0.00234428
0.0022405
0.00198418
0.00281949
0.00325036
0.00352215
-0.000706756
0.0034687
-0.000210037
0.00337838
0.000209065
0.00325011
0.000616869
0.00308102
0.0010216
0.0028648
0.00149055
0.00260182
0.00197973
0.00228381
0.00255851
0.00192725
0.00317606
0.00362296
0.00350992
-0.000681146
0.00344565
-0.000145763
0.00334568
0.000309037
0.00320885
0.000753692
0.00303181
0.00119864
0.00280867
0.00171369
0.00254009
0.00224831
0.0022187
0.0028799
0.0018659
0.00352886
0.00398807
0.0034967
-0.000642314
0.00342076
-6.98157e-05
0.0033104
0.000419392
0.00316442
0.000899675
0.00297891
0.00138415
0.00274851
0.00194408
0.00247389
0.00252293
0.00214912
0.00320467
0.0018001
0.00387789
0.00434745
0.00348251
-0.000589293
0.00339406
1.86338e-05
0.00327263
0.00054082
0.00311692
0.00105539
0.00292247
0.00157861
0.00268449
0.00218205
0.00240341
0.00280401
0.00207525
0.00353283
0.00172976
0.00422337
0.00470328
0.00346738
-0.000521137
0.00336563
0.000120378
0.00323247
0.000673984
0.00306647
0.00122139
0.00286265
0.00178243
0.0026168
0.00242791
0.00232884
0.00309197
0.00199729
0.00386438
0.00165468
0.00456599
0.00505817
0.00345134
-0.000436939
0.00333552
0.00023619
0.00319
0.000819507
0.00301322
0.00139816
0.00279964
0.00199602
0.00254565
0.0026819
0.00225045
0.00338716
0.0019155
0.00419933
0.0015745
0.00490699
0.00541502
0.00343441
-0.000335817
0.0033038
0.000366803
0.00314533
0.00097798
0.00295729
0.0015862
0.00273359
0.00221972
0.00247121
0.00294427
0.00216848
0.0036899
0.00183005
0.00453776
0.00148836
0.00524868
0.00577679
0.00341664
-0.000216921
0.00327051
0.000512931
0.0030985
0.00114999
0.00289873
0.00178597
0.00266455
0.0024539
0.00239349
0.00321534
0.00208291
0.00400048
0.00174085
0.00487981
0.00139453
0.005595
0.00614562
0.00339804
-7.94259e-05
0.0032357
0.000675265
0.00304957
0.00133613
0.00283754
0.001998
0.00259245
0.00269899
0.00231233
0.00349546
0.00199365
0.00431916
0.00164799
0.00522547
0.00129085
0.00595214
0.00652161
0.00337866
0.00319958
0.00299918
0.00277528
0.00252044
0.00223322
0.00190945
0.00156429
0.00120047
)
;

boundaryField
{
    inlet
    {
        type            calculated;
        value           nonuniform List<scalar> 
22
(
-0.00609033
-0.00631071
-0.00653906
-0.00677568
-0.00702086
-0.00727491
-0.00753816
-0.00781093
-0.00809357
-0.00838644
-0.0086899
-0.00900435
-0.00353553
-0.00353553
-0.00353553
-0.00353553
-0.00353553
-0.00353553
-0.00353553
-0.00353553
-0.00353553
-0.00353553
)
;
    }
    outlet
    {
        type            calculated;
        value           nonuniform 0();
    }
    cylinder
    {
        type            calculated;
        value           nonuniform 0();
    }
    top
    {
        type            symmetryPlane;
        value           nonuniform 0();
    }
    bottom
    {
        type            symmetryPlane;
        value           nonuniform 0();
    }
    defaultFaces
    {
        type            empty;
        value           nonuniform 0();
    }
    procBoundary24to18
    {
        type            processor;
        value           nonuniform List<scalar> 
35
(
-0.000419901
-0.000470756
-0.000532486
-0.000601836
0.00026002
-0.000644614
-0.000720367
-0.000796439
0.000411898
-0.000829511
-0.000896834
-0.000962918
-0.0010279
0.000667495
-0.00101373
-0.00106904
-0.00112407
0.000964189
-0.00107429
-0.00112247
-0.0011707
-0.00121713
0.00146869
-0.00112883
-0.000690827
-0.00106463
-0.00145897
-0.00192583
-0.00245939
-0.00286898
0.000720141
0.000263496
-0.000118749
-0.0032881
-0.0004886
)
;
    }
    procBoundary24to19
    {
        type            processor;
        value           nonuniform List<scalar> 8(1.20648e-05 0.000637831 0.000422098 9.31517e-05 0.000520086 0.00021922 0.000376622 0.000290742);
    }
    procBoundary24to25
    {
        type            processor;
        value           nonuniform List<scalar> 
24
(
0.00282473
0.00297836
0.00244846
0.000197421
0.00259371
0.00209509
0.000132431
0.00223049
0.00176651
6.73962e-05
0.00189443
1.49279e-05
0.00158213
0.00129037
3.10617e-05
0.00140669
0.00102005
1.03028e-06
0.00112881
0.000772333
-9.09397e-06
0.000872997
0.00595177
0.00635299
)
;
    }
    procBoundary24to30
    {
        type            processor;
        value           nonuniform List<scalar> 
17
(
-0.00122354
-0.00170958
-0.00159747
-0.0014857
0.00956346
-0.00136865
0.00162473
0.00255401
0.00328911
0.00389372
0.00431105
0.00455644
0.00460178
0.00442747
0.00423159
0.00898105
0.000473405
)
;
    }
    procBoundary24to31
    {
        type            processor;
        value           nonuniform List<scalar> 8(0.00673897 0.00711144 0.00747386 0.00782977 0.00818167 0.00853165 0.00888167 0.00923341);
    }
}


// ************************************************************************* //
