/*--------------------------------*- C++ -*----------------------------------*\
  =========                 |
  \\      /  F ield         | OpenFOAM: The Open Source CFD Toolbox
   \\    /   O peration     | Website:  https://openfoam.org
    \\  /    A nd           | Version:  7
     \\/     M anipulation  |
\*---------------------------------------------------------------------------*/
FoamFile
{
    version     2.0;
    format      ascii;
    class       volVectorField;
    location    "1.9";
    object      U;
}
// * * * * * * * * * * * * * * * * * * * * * * * * * * * * * * * * * * * * * //

dimensions      [0 1 -1 0 0 0 0];

internalField   nonuniform List<vector> 
197568
(
(3 -6.38597e-17 0)
(3 -2.93695e-16 0)
(3 -3.09432e-16 0)
(3 -1.43675e-17 0)
(3 1.41681e-16 0)
(3 1.41892e-16 0)
(3 -1.56733e-16 0)
(3 -2.9844e-16 0)
(3 -3.25933e-16 0)
(3 -4.24677e-16 0)
(3 -5.45453e-16 0)
(3 -5.24232e-16 0)
(3 -3.63044e-16 0)
(3 3.88696e-16 0)
(3 -8.59653e-16 0)
(3 -2.35228e-15 0)
(3 -1.6383e-15 0)
(3 -1.14636e-15 0)
(3 -3.98591e-16 0)
(3 -1.59875e-17 0)
(3 7.60689e-16 0)
(3 9.07483e-16 0)
(3 8.49458e-16 0)
(3 -7.03387e-17 0)
(3 -8.70179e-16 0)
(3 -8.9047e-16 0)
(3 -6.43781e-16 0)
(3 -1.20613e-16 0)
(3 2.56397e-16 0)
(3 9.59607e-16 0)
(3 7.86717e-16 0)
(3 3.56207e-16 0)
(3 2.94674e-16 0)
(3 -2.59352e-16 0)
(3 -8.03853e-16 0)
(3 -1.29648e-15 0)
(3 -5.85193e-16 0)
(3 -3.88663e-17 0)
(3 4.50594e-16 0)
(3 3.66903e-16 0)
(3 -8.48908e-17 0)
(3 -2.67792e-16 0)
(3 4.06537e-16 0)
(3 4.54583e-16 0)
(3 1.33247e-16 0)
(3 1.02093e-16 0)
(3 -3.08728e-17 0)
(3 6.75883e-17 0)
(3 -5.68324e-17 0)
(3 -8.58188e-16 0)
(3 -1.77669e-15 0)
(3 -2.20161e-15 0)
(3 -2.06144e-15 0)
(3 -1.27318e-15 0)
(3 -9.28877e-16 0)
(3 -1.7878e-16 0)
(3 -1.20959e-16 0)
(3 -3.02002e-16 0)
(3 -1.53161e-16 0)
(3 -1.74804e-17 0)
(3 -8.93515e-16 0)
(3 -1.65641e-15 0)
(3 -1.4199e-15 0)
(3 -9.86105e-16 0)
(3 -6.08242e-16 0)
(3 -5.03365e-16 0)
(3 -1.0787e-15 0)
(3 -1.1399e-15 0)
(3 1.62137e-16 0)
(3 7.39791e-16 0)
(3 5.56232e-16 0)
(3 3.9001e-16 0)
(3 6.05534e-16 0)
(3 3.94155e-16 0)
(3 5.62817e-17 0)
(3 3.21986e-16 0)
(3 6.51765e-17 0)
(3 -2.59279e-16 0)
(3 -3.1723e-16 0)
(3 -5.74653e-16 0)
(3 -2.95807e-16 0)
(3 -1.46184e-16 0)
(3 -1.14348e-17 0)
(3 2.15052e-16 0)
(3 6.14326e-16 0)
(3 -1.66744e-16 0)
(3 -1.25633e-15 0)
(3 -1.18772e-15 0)
(1.4738 0.0019593 0)
(0.781012 0.00128166 0)
(0.750993 0.00705886 0)
(0.740633 0.00410719 0)
(0.731253 0.00233581 0)
(0.722912 0.00176946 0)
(0.715622 0.00203051 0)
(0.70916 0.00265062 0)
(0.702717 0.00352078 0)
(0.694895 0.00452152 0)
(0.684904 0.00549417 0)
(0.672853 0.00613599 0)
(0.660022 0.00604775 0)
(0.6483 0.00503247 0)
(0.63892 0.00355928 0)
(0.631331 0.00254024 0)
(0.624046 0.00238969 0)
(0.616196 0.00280815 0)
(0.607803 0.00352295 0)
(0.599125 0.00427279 0)
(0.590275 0.0046965 0)
(0.581359 0.00456399 0)
(0.572348 0.00419495 0)
(0.562768 0.00401831 0)
(0.552043 0.0041512 0)
(0.540391 0.00429141 0)
(0.529171 0.00429281 0)
(0.519335 0.00424411 0)
(0.510685 0.00439532 0)
(0.502209 0.00468416 0)
(0.493256 0.004941 0)
(0.483868 0.00476841 0)
(0.4748 0.00406752 0)
(0.466419 0.0034212 0)
(0.458324 0.0032269 0)
(0.450029 0.00349773 0)
(0.441403 0.00390228 0)
(0.432644 0.00420605 0)
(0.423403 0.00427227 0)
(0.414453 0.00425851 0)
(0.405412 0.00421037 0)
(0.396912 0.00414988 0)
(0.388331 0.00417552 0)
(0.379743 0.00435813 0)
(0.370818 0.00457505 0)
(0.36154 0.00462541 0)
(0.352 0.0046407 0)
(0.341558 0.00469484 0)
(0.331264 0.00484845 0)
(0.321099 0.0049771 0)
(0.311321 0.00501078 0)
(0.302203 0.00493236 0)
(0.293153 0.00482018 0)
(0.283402 0.00463386 0)
(0.272834 0.00453097 0)
(0.261706 0.00455131 0)
(0.250617 0.00464315 0)
(0.240225 0.00472725 0)
(0.230366 0.004831 0)
(0.22103 0.00489159 0)
(0.21211 0.00488425 0)
(0.203194 0.00487454 0)
(0.193932 0.00492409 0)
(0.184069 0.00499212 0)
(0.173723 0.0050677 0)
(0.163048 0.00513182 0)
(0.152288 0.00516742 0)
(0.141594 0.00521987 0)
(0.13088 0.00529861 0)
(0.119912 0.00537526 0)
(0.10893 0.00543119 0)
(0.098091 0.00549001 0)
(0.0875201 0.00550707 0)
(0.0771138 0.00554034 0)
(0.0665119 0.00558452 0)
(0.0554326 0.00567773 0)
(0.043677 0.00580627 0)
(0.0313574 0.00597056 0)
(0.0187424 0.0060881 0)
(0.00618965 0.00624896 0)
(3 -2.35639e-16 0)
(3 -3.76036e-16 0)
(3 -4.35493e-16 0)
(3 -2.55995e-16 0)
(3 -2.79251e-16 0)
(3 -4.21256e-16 0)
(3 -9.38896e-16 0)
(3 -1.87577e-15 0)
(3 -2.0594e-15 0)
(3 -2.03516e-15 0)
(3 -1.02158e-15 0)
(3 -2.3355e-16 0)
(3 4.57131e-17 0)
(3 4.51292e-16 0)
(3 -6.90838e-16 0)
(3 -1.80628e-15 0)
(3 -2.39855e-15 0)
(3 -1.05316e-15 0)
(3 7.30199e-16 0)
(3 7.99276e-16 0)
(3 1.45696e-15 0)
(3 1.44055e-15 0)
(3 1.29103e-15 0)
(3 4.53033e-17 0)
(3 -4.5413e-16 0)
(3 -6.73592e-16 0)
(3 -4.70738e-16 0)
(3 -1.4828e-16 0)
(3 5.67257e-16 0)
(3 7.97319e-16 0)
(3 3.66794e-16 0)
(3 -4.91546e-17 0)
(3 1.74106e-16 0)
(3 2.1714e-17 0)
(3 -1.06272e-16 0)
(3 -2.52514e-16 0)
(3 4.60911e-16 0)
(3 3.59831e-16 0)
(3 -5.94494e-17 0)
(3 -3.77933e-16 0)
(3 -3.42345e-16 0)
(3 -6.30441e-16 0)
(3 -6.5185e-17 0)
(3 7.00573e-16 0)
(3 1.74743e-16 0)
(3 -2.28126e-16 0)
(3 -1.32877e-16 0)
(3 -2.33955e-16 0)
(3 -2.22758e-16 0)
(3 -8.89579e-16 0)
(3 -1.26882e-15 0)
(3 -2.00135e-15 0)
(3 -1.72258e-15 0)
(3 -6.77846e-16 0)
(3 -3.55011e-16 0)
(3 -8.72907e-16 0)
(3 -1.43642e-15 0)
(3 -1.82986e-15 0)
(3 -1.93303e-15 0)
(3 -1.00223e-15 0)
(3 -1.29983e-15 0)
(3 -2.09296e-15 0)
(3 -1.65026e-15 0)
(3 -1.96681e-15 0)
(3 -1.97825e-15 0)
(3 -1.92866e-15 0)
(3 -3.6734e-15 0)
(3 -2.69975e-15 0)
(3 -9.51888e-16 0)
(3 -1.89699e-16 0)
(3 7.04883e-16 0)
(3 5.33687e-16 0)
(3 6.29579e-16 0)
(3 7.5184e-16 0)
(3 9.10671e-16 0)
(3 1.09897e-15 0)
(3 1.00885e-15 0)
(3 5.56446e-16 0)
(3 2.60683e-16 0)
(3 3.5725e-16 0)
(3 7.94042e-16 0)
(3 1.17651e-15 0)
(3 1.37625e-15 0)
(3 1.40508e-15 0)
(3 1.54957e-15 0)
(3 7.00855e-16 0)
(3 -1.13647e-15 0)
(3 -1.77099e-16 0)
(1.47762 0.00948494 0)
(0.779911 0.00705611 0)
(0.750327 0.0189863 0)
(0.741117 0.014054 0)
(0.730538 0.00902018 0)
(0.721067 0.00563666 0)
(0.713073 0.00520323 0)
(0.706548 0.00688256 0)
(0.700439 0.00946329 0)
(0.693221 0.0123656 0)
(0.684112 0.0151094 0)
(0.673288 0.0168418 0)
(0.66181 0.0165651 0)
(0.651049 0.0140094 0)
(0.641626 0.0105333 0)
(0.633016 0.0083078 0)
(0.624513 0.00801459 0)
(0.615702 0.00900327 0)
(0.606679 0.0107948 0)
(0.597663 0.0127402 0)
(0.588655 0.0138379 0)
(0.579777 0.0135114 0)
(0.570859 0.0125763 0)
(0.561277 0.0121335 0)
(0.5505 0.0125076 0)
(0.538737 0.0129092 0)
(0.527282 0.0128577 0)
(0.51718 0.0125395 0)
(0.508405 0.012743 0)
(0.500134 0.0134036 0)
(0.491677 0.0140429 0)
(0.482845 0.0136782 0)
(0.474099 0.0121144 0)
(0.465578 0.010637 0)
(0.457151 0.0102096 0)
(0.448768 0.0109096 0)
(0.440428 0.011891 0)
(0.432179 0.0124476 0)
(0.423589 0.0123842 0)
(0.415032 0.0122118 0)
(0.406074 0.0121654 0)
(0.397385 0.0122138 0)
(0.38839 0.012547 0)
(0.379309 0.0132489 0)
(0.369995 0.0140554 0)
(0.360444 0.014334 0)
(0.350743 0.01441 0)
(0.340255 0.0145147 0)
(0.329933 0.0148137 0)
(0.319781 0.0149985 0)
(0.310071 0.0149336 0)
(0.301024 0.014653 0)
(0.292041 0.0143427 0)
(0.282375 0.0138669 0)
(0.271893 0.0136574 0)
(0.260843 0.0137753 0)
(0.249792 0.014059 0)
(0.239373 0.0142595 0)
(0.229438 0.0144929 0)
(0.220037 0.0146313 0)
(0.211074 0.0146121 0)
(0.202137 0.0145874 0)
(0.192903 0.0147293 0)
(0.183072 0.0149175 0)
(0.172752 0.0151013 0)
(0.162127 0.015259 0)
(0.151444 0.0153865 0)
(0.140842 0.0155957 0)
(0.130197 0.0159037 0)
(0.119217 0.0161944 0)
(0.108231 0.0164061 0)
(0.0973599 0.0166295 0)
(0.0867851 0.0167197 0)
(0.0764688 0.0168022 0)
(0.0660656 0.0169051 0)
(0.0552538 0.0171231 0)
(0.0437573 0.0174352 0)
(0.0315992 0.017851 0)
(0.0190253 0.018143 0)
(0.00629116 0.0186106 0)
(3 -9.49731e-17 0)
(3 -6.32604e-17 0)
(3 5.94512e-17 0)
(3 1.29959e-16 0)
(3 -6.62382e-16 0)
(3 -1.29573e-15 0)
(3 -1.04549e-15 0)
(3 -1.35047e-15 0)
(3 -1.74923e-15 0)
(3 -2.09978e-15 0)
(3 -1.18295e-15 0)
(3 -5.59918e-16 0)
(3 -3.85399e-16 0)
(3 1.14134e-16 0)
(3 -9.70804e-17 0)
(3 -7.35945e-16 0)
(3 -1.292e-15 0)
(3 -8.60891e-16 0)
(3 -7.76075e-18 0)
(3 9.91325e-16 0)
(3 1.36463e-15 0)
(3 5.09039e-16 0)
(3 -3.20364e-16 0)
(3 -4.53539e-17 0)
(3 3.97682e-16 0)
(3 4.6535e-16 0)
(3 4.50545e-16 0)
(3 4.70954e-16 0)
(3 9.71207e-16 0)
(3 4.55533e-16 0)
(3 -5.42496e-16 0)
(3 -5.2753e-16 0)
(3 -2.18887e-16 0)
(3 4.68834e-16 0)
(3 5.96324e-16 0)
(3 3.58427e-17 0)
(3 -4.99369e-16 0)
(3 7.24549e-16 0)
(3 1.78399e-17 0)
(3 -3.48498e-16 0)
(3 2.27841e-16 0)
(3 4.37078e-16 0)
(3 -3.21789e-17 0)
(3 8.43566e-16 0)
(3 6.35064e-16 0)
(3 -2.51991e-16 0)
(3 -5.60701e-16 0)
(3 -1.17933e-15 0)
(3 -1.20095e-15 0)
(3 -1.6545e-15 0)
(3 -1.39384e-15 0)
(3 -1.4066e-15 0)
(3 -1.35852e-15 0)
(3 -6.38704e-16 0)
(3 -6.0263e-16 0)
(3 -6.58683e-16 0)
(3 -7.17947e-16 0)
(3 -1.28323e-15 0)
(3 -1.2605e-15 0)
(3 -7.38438e-16 0)
(3 -7.71906e-16 0)
(3 -7.43065e-16 0)
(3 -3.62167e-16 0)
(3 -1.06115e-15 0)
(3 -2.28653e-15 0)
(3 -2.70888e-15 0)
(3 -2.93951e-15 0)
(3 -2.44248e-15 0)
(3 -2.07407e-15 0)
(3 -1.7943e-15 0)
(3 -1.5341e-15 0)
(3 -1.01039e-15 0)
(3 -2.81128e-16 0)
(3 6.1754e-16 0)
(3 1.47876e-15 0)
(3 1.25375e-15 0)
(3 1.14006e-15 0)
(3 4.30947e-16 0)
(3 -2.95638e-16 0)
(3 -6.15835e-17 0)
(3 2.95061e-16 0)
(3 6.05174e-16 0)
(3 1.02488e-15 0)
(3 7.65916e-16 0)
(3 1.12394e-15 0)
(3 1.15842e-15 0)
(3 -1.78775e-15 0)
(3 -2.94334e-15 0)
(1.49002 0.0176958 0)
(0.781323 0.0133052 0)
(0.752284 0.0271842 0)
(0.744134 0.0227936 0)
(0.732755 0.0172473 0)
(0.721469 0.0122637 0)
(0.711443 0.010633 0)
(0.703674 0.0122492 0)
(0.697362 0.0156603 0)
(0.690643 0.01979 0)
(0.682417 0.0236837 0)
(0.67269 0.0261175 0)
(0.662256 0.0259288 0)
(0.651997 0.0229681 0)
(0.642352 0.0186035 0)
(0.633093 0.0153233 0)
(0.623905 0.0146005 0)
(0.614672 0.0159278 0)
(0.605446 0.0185357 0)
(0.596344 0.0213055 0)
(0.587287 0.0227242 0)
(0.578577 0.0220952 0)
(0.569893 0.0207525 0)
(0.560429 0.0202756 0)
(0.549736 0.0210761 0)
(0.537961 0.021912 0)
(0.526279 0.0219451 0)
(0.515794 0.0213464 0)
(0.506693 0.021433 0)
(0.498431 0.0221819 0)
(0.490302 0.022826 0)
(0.481929 0.0219767 0)
(0.473509 0.0195865 0)
(0.464848 0.0174286 0)
(0.456021 0.0168975 0)
(0.447431 0.0181485 0)
(0.439243 0.0198202 0)
(0.431374 0.0207229 0)
(0.423377 0.0206207 0)
(0.415231 0.0204235 0)
(0.406473 0.0204343 0)
(0.39771 0.020531 0)
(0.388374 0.0210323 0)
(0.378789 0.0220981 0)
(0.369031 0.0233668 0)
(0.359131 0.0238647 0)
(0.349197 0.0240333 0)
(0.338649 0.024257 0)
(0.328318 0.024752 0)
(0.318209 0.025009 0)
(0.308593 0.0248406 0)
(0.299611 0.0243456 0)
(0.290686 0.0238193 0)
(0.281104 0.023068 0)
(0.270701 0.0227588 0)
(0.259714 0.0229705 0)
(0.248709 0.0234693 0)
(0.238245 0.0238385 0)
(0.22827 0.0242417 0)
(0.218818 0.024477 0)
(0.209805 0.0244366 0)
(0.200811 0.0243672 0)
(0.191562 0.0245495 0)
(0.181704 0.0248286 0)
(0.171376 0.0251193 0)
(0.160804 0.0253914 0)
(0.150226 0.0256267 0)
(0.139726 0.025947 0)
(0.129142 0.0263871 0)
(0.118146 0.0267869 0)
(0.10715 0.0270758 0)
(0.0962504 0.0274693 0)
(0.0856726 0.0277015 0)
(0.0754507 0.0279197 0)
(0.0652833 0.0282114 0)
(0.0547979 0.0286114 0)
(0.0436451 0.0290905 0)
(0.0317305 0.0296797 0)
(0.019273 0.0300614 0)
(0.00641942 0.0306861 0)
(3 7.79809e-17 0)
(3 3.49729e-17 0)
(3 5.08124e-17 0)
(3 2.21705e-16 0)
(3 -2.42232e-16 0)
(3 -1.13707e-15 0)
(3 -1.15519e-15 0)
(3 -4.89937e-16 0)
(3 -3.50692e-16 0)
(3 -6.79709e-16 0)
(3 -8.49863e-16 0)
(3 -1.35214e-15 0)
(3 -1.70283e-15 0)
(3 -4.47336e-16 0)
(3 -2.07041e-17 0)
(3 -8.05807e-16 0)
(3 -1.65524e-15 0)
(3 -1.76536e-15 0)
(3 -1.64413e-15 0)
(3 -1.12813e-16 0)
(3 1.34657e-16 0)
(3 2.90285e-17 0)
(3 -9.75904e-16 0)
(3 -1.35983e-15 0)
(3 -3.83332e-16 0)
(3 9.97124e-16 0)
(3 -4.69559e-16 0)
(3 -1.09257e-15 0)
(3 -4.53978e-16 0)
(3 -9.44379e-16 0)
(3 -1.21101e-15 0)
(3 -1.27363e-15 0)
(3 -1.33522e-15 0)
(3 -6.35994e-16 0)
(3 8.92179e-16 0)
(3 8.03964e-16 0)
(3 6.23451e-16 0)
(3 8.66792e-16 0)
(3 6.78679e-16 0)
(3 1.16439e-15 0)
(3 1.11682e-15 0)
(3 7.81917e-16 0)
(3 6.38331e-16 0)
(3 1.45747e-15 0)
(3 1.94864e-15 0)
(3 1.42349e-15 0)
(3 3.88408e-17 0)
(3 -9.29932e-16 0)
(3 -1.44779e-15 0)
(3 -2.04648e-15 0)
(3 -2.7451e-15 0)
(3 -2.3404e-15 0)
(3 -7.17324e-16 0)
(3 1.05771e-16 0)
(3 -1.15685e-15 0)
(3 -3.76887e-16 0)
(3 -4.32646e-16 0)
(3 -1.12121e-15 0)
(3 -1.3063e-15 0)
(3 -6.01503e-16 0)
(3 -2.04665e-16 0)
(3 -2.92187e-17 0)
(3 1.07031e-16 0)
(3 6.93729e-17 0)
(3 -4.93942e-16 0)
(3 -8.6316e-16 0)
(3 -1.0799e-15 0)
(3 -1.68992e-15 0)
(3 -1.53667e-15 0)
(3 -1.41624e-15 0)
(3 -2.20447e-15 0)
(3 -2.22412e-15 0)
(3 -1.96126e-16 0)
(3 1.20132e-16 0)
(3 -2.77207e-17 0)
(3 -4.72591e-16 0)
(3 -4.90595e-16 0)
(3 -5.83794e-16 0)
(3 -1.06863e-15 0)
(3 -6.40225e-16 0)
(3 -2.89683e-16 0)
(3 8.22291e-17 0)
(3 6.14762e-16 0)
(3 7.44598e-16 0)
(3 3.41858e-16 0)
(3 -1.5739e-15 0)
(3 -2.04641e-15 0)
(3 -4.69165e-15 0)
(1.51019 0.0251776 0)
(0.782751 0.0187455 0)
(0.75599 0.0332637 0)
(0.746986 0.0308932 0)
(0.734463 0.0268048 0)
(0.721835 0.0213087 0)
(0.710483 0.0182017 0)
(0.701647 0.0188699 0)
(0.694958 0.0220528 0)
(0.688763 0.0265504 0)
(0.681444 0.0309934 0)
(0.672721 0.0338526 0)
(0.663193 0.0339663 0)
(0.653571 0.0311502 0)
(0.644174 0.0265709 0)
(0.634716 0.0227592 0)
(0.625051 0.0217913 0)
(0.615434 0.0234221 0)
(0.605951 0.0265864 0)
(0.596735 0.0298925 0)
(0.587609 0.031338 0)
(0.579042 0.030356 0)
(0.570539 0.028735 0)
(0.561142 0.0283802 0)
(0.550524 0.0297034 0)
(0.538747 0.0311208 0)
(0.526827 0.0313844 0)
(0.515954 0.0305709 0)
(0.506519 0.0303916 0)
(0.498223 0.0309378 0)
(0.490344 0.0312146 0)
(0.482331 0.0297976 0)
(0.474102 0.0267625 0)
(0.46522 0.0241427 0)
(0.455956 0.0236362 0)
(0.447071 0.0254706 0)
(0.438898 0.0278581 0)
(0.431269 0.0290897 0)
(0.423733 0.028976 0)
(0.415856 0.0287734 0)
(0.407198 0.028865 0)
(0.398292 0.0290084 0)
(0.388616 0.0296539 0)
(0.378562 0.03099 0)
(0.368406 0.0326699 0)
(0.358207 0.0334468 0)
(0.348062 0.0337618 0)
(0.337497 0.0341423 0)
(0.327196 0.0348219 0)
(0.317172 0.0351064 0)
(0.307648 0.0347779 0)
(0.298663 0.0340434 0)
(0.289728 0.0332738 0)
(0.28017 0.0322889 0)
(0.269799 0.0319055 0)
(0.258871 0.0322204 0)
(0.247896 0.0329577 0)
(0.237355 0.0335315 0)
(0.227317 0.0341247 0)
(0.217759 0.0344548 0)
(0.208644 0.0343865 0)
(0.199542 0.0342343 0)
(0.190245 0.0344147 0)
(0.180336 0.0347674 0)
(0.169978 0.0351547 0)
(0.159444 0.0355435 0)
(0.148949 0.0358685 0)
(0.138508 0.0362827 0)
(0.127909 0.036783 0)
(0.11692 0.0372346 0)
(0.105882 0.0375585 0)
(0.0949503 0.0381061 0)
(0.0843851 0.0385303 0)
(0.0742633 0.0389566 0)
(0.0643492 0.0395088 0)
(0.054232 0.0401119 0)
(0.0434891 0.0407175 0)
(0.0318721 0.0414027 0)
(0.0195614 0.0418072 0)
(0.00656751 0.0424901 0)
(3 1.17429e-16 0)
(3 6.22973e-16 0)
(3 3.78383e-16 0)
(3 6.1839e-17 0)
(3 -1.546e-16 0)
(3 -4.06568e-16 0)
(3 -1.56384e-15 0)
(3 -1.29741e-15 0)
(3 -8.45028e-16 0)
(3 -4.39681e-17 0)
(3 -1.22815e-16 0)
(3 -8.9142e-16 0)
(3 -1.00277e-15 0)
(3 -1.51353e-15 0)
(3 -1.52974e-15 0)
(3 -1.43209e-15 0)
(3 -1.44457e-15 0)
(3 -1.58972e-15 0)
(3 -1.74214e-15 0)
(3 -7.65633e-16 0)
(3 -4.49549e-16 0)
(3 2.15992e-16 0)
(3 6.83049e-16 0)
(3 6.35434e-16 0)
(3 6.35656e-16 0)
(3 4.28209e-16 0)
(3 -9.87036e-17 0)
(3 1.33218e-16 0)
(3 -5.57552e-16 0)
(3 -3.52858e-16 0)
(3 -2.95907e-16 0)
(3 -4.43654e-16 0)
(3 -8.6111e-16 0)
(3 -2.69651e-16 0)
(3 5.0071e-16 0)
(3 8.27153e-16 0)
(3 5.329e-16 0)
(3 -2.61177e-16 0)
(3 6.41471e-17 0)
(3 1.80494e-15 0)
(3 1.63392e-15 0)
(3 1.21208e-15 0)
(3 1.98616e-15 0)
(3 2.96635e-15 0)
(3 3.4647e-15 0)
(3 2.9913e-15 0)
(3 2.40257e-15 0)
(3 1.39493e-15 0)
(3 -4.7224e-16 0)
(3 -1.14653e-15 0)
(3 -2.00163e-15 0)
(3 -2.01784e-15 0)
(3 -1.19501e-15 0)
(3 -9.09019e-16 0)
(3 -1.27577e-15 0)
(3 -1.52183e-15 0)
(3 -1.41503e-15 0)
(3 -7.88916e-16 0)
(3 -5.60737e-16 0)
(3 -3.99813e-16 0)
(3 -4.5869e-16 0)
(3 -4.17352e-16 0)
(3 -8.81873e-16 0)
(3 -8.27963e-17 0)
(3 -1.76223e-16 0)
(3 -6.361e-16 0)
(3 -1.44955e-15 0)
(3 -1.71979e-15 0)
(3 -8.54177e-16 0)
(3 -4.70317e-16 0)
(3 -1.75259e-15 0)
(3 -1.93615e-15 0)
(3 -1.47235e-15 0)
(3 -9.7033e-16 0)
(3 -8.28512e-16 0)
(3 3.93939e-18 0)
(3 4.03288e-16 0)
(3 1.00994e-16 0)
(3 -2.92333e-17 0)
(3 1.45702e-17 0)
(3 -1.55601e-16 0)
(3 5.43634e-17 0)
(3 -1.57202e-17 0)
(3 5.89281e-16 0)
(3 3.52111e-16 0)
(3 -1.53975e-16 0)
(3 9.94236e-17 0)
(3 -6.19221e-16 0)
(1.53682 0.0316582 0)
(0.783504 0.0234732 0)
(0.757328 0.0393648 0)
(0.747805 0.0387399 0)
(0.735146 0.0361362 0)
(0.722543 0.0311164 0)
(0.71102 0.0270823 0)
(0.701629 0.0263556 0)
(0.694362 0.0286741 0)
(0.688172 0.0328095 0)
(0.681237 0.0373357 0)
(0.672879 0.0405435 0)
(0.663528 0.0412317 0)
(0.653834 0.0390783 0)
(0.644217 0.0348927 0)
(0.634504 0.0309605 0)
(0.624503 0.0297192 0)
(0.614566 0.0312739 0)
(0.604981 0.034742 0)
(0.595812 0.0382135 0)
(0.586978 0.0394558 0)
(0.578856 0.0381927 0)
(0.570722 0.0365076 0)
(0.561577 0.0364588 0)
(0.551176 0.0384224 0)
(0.539477 0.0404935 0)
(0.527444 0.0410597 0)
(0.516421 0.0400103 0)
(0.506912 0.0393921 0)
(0.498742 0.0394838 0)
(0.491177 0.0392429 0)
(0.483546 0.0372473 0)
(0.475471 0.0337301 0)
(0.466439 0.0308163 0)
(0.456853 0.0304029 0)
(0.447716 0.0328244 0)
(0.439434 0.0359668 0)
(0.431774 0.0376335 0)
(0.424465 0.0375534 0)
(0.416745 0.0374417 0)
(0.408155 0.0375907 0)
(0.399082 0.037659 0)
(0.389141 0.0383326 0)
(0.378731 0.0398187 0)
(0.368261 0.0418303 0)
(0.357825 0.0429458 0)
(0.347503 0.0435046 0)
(0.336941 0.0441258 0)
(0.326687 0.0450014 0)
(0.316781 0.0452721 0)
(0.307367 0.0447331 0)
(0.29836 0.0437233 0)
(0.289387 0.042701 0)
(0.279809 0.0415592 0)
(0.269444 0.0411491 0)
(0.258582 0.041597 0)
(0.247603 0.0425874 0)
(0.23697 0.0433813 0)
(0.226843 0.04416 0)
(0.217146 0.0445959 0)
(0.20789 0.0444785 0)
(0.198648 0.0442368 0)
(0.18928 0.0443866 0)
(0.179309 0.0448037 0)
(0.168916 0.0452994 0)
(0.158376 0.0457878 0)
(0.14788 0.0461359 0)
(0.137408 0.0465995 0)
(0.126697 0.0470842 0)
(0.115679 0.0475133 0)
(0.104571 0.0478444 0)
(0.0935999 0.0485059 0)
(0.0830493 0.0491787 0)
(0.0730054 0.0499245 0)
(0.0632658 0.0507968 0)
(0.0534438 0.0516442 0)
(0.0430775 0.0523436 0)
(0.0317921 0.0530229 0)
(0.0197047 0.0533047 0)
(0.00667389 0.053932 0)
(3 4.41777e-16 0)
(3 5.61399e-16 0)
(3 1.99519e-16 0)
(3 1.06547e-16 0)
(3 1.7345e-16 0)
(3 8.80318e-17 0)
(3 -7.90925e-16 0)
(3 -4.93077e-16 0)
(3 -5.38857e-17 0)
(3 3.12641e-16 0)
(3 3.71534e-16 0)
(3 1.77842e-16 0)
(3 -4.09477e-17 0)
(3 -1.79456e-15 0)
(3 -3.31827e-15 0)
(3 -3.1125e-15 0)
(3 -1.64045e-15 0)
(3 -1.3146e-15 0)
(3 -1.5142e-15 0)
(3 -1.06259e-15 0)
(3 -6.14963e-16 0)
(3 -3.01742e-16 0)
(3 6.18687e-16 0)
(3 1.621e-15 0)
(3 1.25971e-15 0)
(3 5.24161e-16 0)
(3 7.36407e-16 0)
(3 1.39535e-15 0)
(3 7.00449e-16 0)
(3 6.63805e-16 0)
(3 3.73223e-16 0)
(3 -2.6138e-17 0)
(3 -4.15884e-16 0)
(3 -4.12947e-16 0)
(3 -4.84908e-16 0)
(3 -7.27596e-16 0)
(3 -1.23276e-15 0)
(3 -1.82362e-15 0)
(3 -6.10686e-16 0)
(3 1.79477e-17 0)
(3 8.15596e-16 0)
(3 1.09995e-15 0)
(3 1.7967e-15 0)
(3 2.35782e-15 0)
(3 2.3888e-15 0)
(3 2.16448e-15 0)
(3 2.32246e-15 0)
(3 1.89175e-15 0)
(3 7.79046e-16 0)
(3 2.41434e-16 0)
(3 -5.31136e-16 0)
(3 -6.751e-16 0)
(3 -4.78888e-16 0)
(3 -7.67607e-16 0)
(3 -8.72246e-16 0)
(3 -1.59997e-15 0)
(3 -1.80905e-15 0)
(3 -1.30967e-15 0)
(3 -6.68592e-16 0)
(3 -2.32095e-16 0)
(3 -3.51337e-16 0)
(3 -9.90928e-17 0)
(3 1.13126e-16 0)
(3 -2.8934e-16 0)
(3 2.21372e-17 0)
(3 -5.20115e-16 0)
(3 -1.0505e-15 0)
(3 -2.71398e-16 0)
(3 -1.15106e-16 0)
(3 -3.13389e-16 0)
(3 -4.54677e-16 0)
(3 -1.08921e-15 0)
(3 -1.82884e-15 0)
(3 -1.73784e-15 0)
(3 -3.49791e-16 0)
(3 7.16355e-16 0)
(3 1.06792e-15 0)
(3 6.06425e-16 0)
(3 9.88264e-18 0)
(3 -9.43624e-16 0)
(3 -1.21624e-15 0)
(3 -1.57649e-15 0)
(3 -1.29196e-15 0)
(3 -4.89093e-16 0)
(3 1.56403e-15 0)
(3 2.15976e-15 0)
(3 2.02095e-15 0)
(3 1.74872e-15 0)
(1.56979 0.0388172 0)
(0.784301 0.0285814 0)
(0.757123 0.0456891 0)
(0.74759 0.0463726 0)
(0.735398 0.0447381 0)
(0.723237 0.0403349 0)
(0.712058 0.0359435 0)
(0.702677 0.0341216 0)
(0.694995 0.0353737 0)
(0.68837 0.0389035 0)
(0.681193 0.0434297 0)
(0.672584 0.0472165 0)
(0.662852 0.0486153 0)
(0.65293 0.047065 0)
(0.64342 0.0432877 0)
(0.633993 0.039423 0)
(0.624143 0.0379698 0)
(0.614201 0.0394253 0)
(0.604633 0.0428696 0)
(0.595542 0.0461927 0)
(0.586957 0.0471307 0)
(0.579148 0.0457178 0)
(0.571166 0.0442172 0)
(0.562077 0.0446294 0)
(0.55169 0.0472206 0)
(0.539913 0.0499751 0)
(0.527728 0.0508104 0)
(0.516687 0.0494061 0)
(0.507338 0.0481483 0)
(0.499466 0.0476079 0)
(0.492277 0.0468534 0)
(0.485006 0.0445013 0)
(0.477115 0.0407535 0)
(0.468107 0.0376628 0)
(0.458375 0.0373641 0)
(0.449104 0.0403121 0)
(0.440675 0.0441097 0)
(0.432774 0.0462152 0)
(0.425318 0.0463223 0)
(0.417555 0.0461861 0)
(0.409013 0.0464756 0)
(0.399818 0.0465374 0)
(0.389753 0.0471372 0)
(0.379181 0.0486332 0)
(0.368552 0.0508988 0)
(0.357972 0.0523582 0)
(0.347527 0.0532447 0)
(0.336983 0.0541943 0)
(0.326789 0.0552708 0)
(0.317004 0.0554774 0)
(0.307707 0.0546455 0)
(0.29869 0.0533601 0)
(0.289669 0.0520932 0)
(0.280035 0.0508804 0)
(0.269666 0.0504832 0)
(0.258881 0.0511046 0)
(0.247869 0.0523737 0)
(0.237121 0.0533985 0)
(0.226887 0.0543496 0)
(0.21703 0.054868 0)
(0.207621 0.0547245 0)
(0.198248 0.0543711 0)
(0.18882 0.0544828 0)
(0.178817 0.0549701 0)
(0.168405 0.0555282 0)
(0.157838 0.0560952 0)
(0.147285 0.0565156 0)
(0.136698 0.0569438 0)
(0.125836 0.0573527 0)
(0.114761 0.0577083 0)
(0.103616 0.058046 0)
(0.0926477 0.0588144 0)
(0.0821347 0.0597618 0)
(0.07213 0.0608714 0)
(0.0624305 0.0620757 0)
(0.0527145 0.0631772 0)
(0.0425496 0.0639328 0)
(0.0315184 0.0645111 0)
(0.0196701 0.0645669 0)
(0.00672188 0.0650188 0)
(3 -5.78057e-17 0)
(3 -5.41019e-16 0)
(3 -5.46665e-16 0)
(3 -1.78153e-16 0)
(3 4.6683e-16 0)
(3 5.75121e-16 0)
(3 4.70851e-16 0)
(3 5.26854e-16 0)
(3 8.10711e-16 0)
(3 5.59725e-16 0)
(3 3.0795e-16 0)
(3 4.28172e-16 0)
(3 -4.12454e-16 0)
(3 -1.65448e-15 0)
(3 -1.54682e-15 0)
(3 -1.03865e-15 0)
(3 -9.61043e-17 0)
(3 3.95833e-17 0)
(3 -1.10263e-15 0)
(3 -9.47978e-16 0)
(3 -1.12733e-15 0)
(3 -1.0733e-15 0)
(3 -3.20543e-16 0)
(3 3.80556e-16 0)
(3 8.03726e-16 0)
(3 7.99757e-16 0)
(3 1.19872e-15 0)
(3 1.78626e-15 0)
(3 1.77555e-15 0)
(3 8.46218e-16 0)
(3 4.43022e-16 0)
(3 -8.7028e-16 0)
(3 -9.4347e-16 0)
(3 -7.046e-16 0)
(3 -1.8578e-15 0)
(3 -2.29773e-15 0)
(3 -2.5791e-15 0)
(3 -4.35307e-16 0)
(3 3.34935e-16 0)
(3 4.39366e-16 0)
(3 1.15312e-15 0)
(3 2.16755e-15 0)
(3 2.45229e-15 0)
(3 3.33453e-15 0)
(3 3.3687e-15 0)
(3 2.7502e-15 0)
(3 2.49622e-15 0)
(3 2.58481e-15 0)
(3 2.58814e-15 0)
(3 2.45036e-15 0)
(3 1.93577e-15 0)
(3 1.38145e-15 0)
(3 8.1525e-16 0)
(3 -4.188e-16 0)
(3 -7.23108e-16 0)
(3 -6.96526e-16 0)
(3 -3.71748e-16 0)
(3 -4.34919e-16 0)
(3 9.44525e-17 0)
(3 2.58005e-16 0)
(3 8.56364e-16 0)
(3 7.65675e-16 0)
(3 5.65659e-16 0)
(3 -1.24939e-16 0)
(3 -2.19447e-16 0)
(3 2.37551e-16 0)
(3 7.0297e-16 0)
(3 8.37125e-16 0)
(3 6.91799e-16 0)
(3 4.21113e-16 0)
(3 -3.2769e-16 0)
(3 -6.94163e-16 0)
(3 -1.47221e-15 0)
(3 -2.49349e-15 0)
(3 -5.6351e-16 0)
(3 5.24144e-16 0)
(3 7.44135e-16 0)
(3 5.40737e-16 0)
(3 -6.99493e-16 0)
(3 -1.95196e-15 0)
(3 -1.50347e-15 0)
(3 -1.35109e-15 0)
(3 -7.33224e-16 0)
(3 -5.44601e-16 0)
(3 -1.42631e-16 0)
(3 1.17645e-15 0)
(3 2.44867e-15 0)
(3 2.94812e-15 0)
(1.61157 0.0466876 0)
(0.786826 0.0344816 0)
(0.755953 0.0527806 0)
(0.746601 0.0539096 0)
(0.735468 0.0523642 0)
(0.724191 0.0482847 0)
(0.713438 0.043979 0)
(0.703926 0.0416428 0)
(0.695597 0.0422495 0)
(0.688163 0.0454968 0)
(0.680353 0.0501961 0)
(0.671307 0.0544534 0)
(0.661327 0.0563076 0)
(0.651516 0.0550168 0)
(0.642444 0.05143 0)
(0.633553 0.0476931 0)
(0.62407 0.0461942 0)
(0.614266 0.0475773 0)
(0.604691 0.0509198 0)
(0.59557 0.054005 0)
(0.587051 0.0546728 0)
(0.579309 0.0533044 0)
(0.571236 0.0521707 0)
(0.562041 0.0530964 0)
(0.551575 0.0562884 0)
(0.539782 0.0595274 0)
(0.527679 0.0603601 0)
(0.516977 0.0584236 0)
(0.508157 0.056318 0)
(0.500764 0.0550612 0)
(0.493933 0.0539729 0)
(0.486871 0.0516307 0)
(0.479033 0.047998 0)
(0.470039 0.0449412 0)
(0.460222 0.0447837 0)
(0.450858 0.0481023 0)
(0.442249 0.0523454 0)
(0.434023 0.0547074 0)
(0.426133 0.0550229 0)
(0.418097 0.0551477 0)
(0.409545 0.0555678 0)
(0.400402 0.0554508 0)
(0.390462 0.0559656 0)
(0.37998 0.057481 0)
(0.369383 0.0599249 0)
(0.358775 0.0617036 0)
(0.348275 0.0629714 0)
(0.337752 0.064297 0)
(0.327601 0.0655584 0)
(0.317882 0.0656627 0)
(0.308642 0.0645381 0)
(0.299603 0.0629206 0)
(0.290495 0.0614914 0)
(0.280726 0.0602865 0)
(0.270322 0.0599312 0)
(0.259544 0.0607459 0)
(0.248433 0.0623204 0)
(0.237515 0.063591 0)
(0.227137 0.0647152 0)
(0.217099 0.0652906 0)
(0.207547 0.0650903 0)
(0.198065 0.0646314 0)
(0.188588 0.0647035 0)
(0.178572 0.0652655 0)
(0.16815 0.0659359 0)
(0.157538 0.0665541 0)
(0.146879 0.0669393 0)
(0.136103 0.0672876 0)
(0.125109 0.0675865 0)
(0.113982 0.0678672 0)
(0.102864 0.0682329 0)
(0.0919776 0.0691369 0)
(0.0815309 0.0703462 0)
(0.071514 0.0717803 0)
(0.0617228 0.0733002 0)
(0.0519147 0.0746389 0)
(0.0417592 0.0754309 0)
(0.0308831 0.0758794 0)
(0.019295 0.0756234 0)
(0.00664987 0.0758675 0)
(3 -2.29398e-16 0)
(3 -3.71601e-16 0)
(3 1.05776e-16 0)
(3 1.94773e-16 0)
(3 4.56009e-16 0)
(3 1.52073e-15 0)
(3 2.34478e-15 0)
(3 2.45518e-15 0)
(3 2.19601e-15 0)
(3 8.67317e-16 0)
(3 -3.85982e-16 0)
(3 -1.24145e-15 0)
(3 -1.49027e-15 0)
(3 -1.21299e-15 0)
(3 -7.15844e-16 0)
(3 5.66591e-16 0)
(3 9.60705e-16 0)
(3 2.65254e-16 0)
(3 -7.86437e-17 0)
(3 -5.60468e-16 0)
(3 -7.9781e-16 0)
(3 -6.06438e-16 0)
(3 -3.1859e-16 0)
(3 -3.95018e-16 0)
(3 1.44117e-16 0)
(3 8.73179e-16 0)
(3 1.20889e-15 0)
(3 7.88202e-16 0)
(3 8.52935e-16 0)
(3 5.66792e-16 0)
(3 -3.97083e-16 0)
(3 -7.42283e-17 0)
(3 2.2385e-16 0)
(3 -3.55658e-16 0)
(3 -1.09041e-15 0)
(3 -1.71519e-15 0)
(3 -1.38443e-15 0)
(3 7.10714e-17 0)
(3 5.14538e-16 0)
(3 1.24693e-15 0)
(3 2.03296e-15 0)
(3 2.65587e-15 0)
(3 3.37627e-15 0)
(3 4.36502e-15 0)
(3 4.86095e-15 0)
(3 4.51891e-15 0)
(3 3.39837e-15 0)
(3 3.00921e-15 0)
(3 2.4366e-15 0)
(3 2.28025e-15 0)
(3 2.12699e-15 0)
(3 1.79912e-15 0)
(3 4.04117e-16 0)
(3 2.61928e-16 0)
(3 3.94535e-16 0)
(3 7.82313e-16 0)
(3 6.08993e-16 0)
(3 1.70813e-16 0)
(3 -4.197e-16 0)
(3 -1.41088e-15 0)
(3 -1.10862e-15 0)
(3 -2.07963e-16 0)
(3 2.12015e-16 0)
(3 4.58796e-16 0)
(3 3.5338e-16 0)
(3 1.182e-15 0)
(3 1.79727e-15 0)
(3 1.25164e-15 0)
(3 5.25911e-16 0)
(3 8.55034e-17 0)
(3 -1.44562e-16 0)
(3 -2.98463e-16 0)
(3 -1.84439e-16 0)
(3 -2.56461e-16 0)
(3 1.83552e-16 0)
(3 8.00786e-16 0)
(3 7.53371e-16 0)
(3 -7.61743e-16 0)
(3 -5.59851e-16 0)
(3 -7.57634e-16 0)
(3 -4.93609e-16 0)
(3 1.88049e-16 0)
(3 -3.68576e-17 0)
(3 -6.71188e-16 0)
(3 -5.42161e-16 0)
(3 2.64415e-16 0)
(3 1.84949e-15 0)
(3 1.66732e-15 0)
(1.663 0.0545793 0)
(0.791135 0.0412439 0)
(0.754586 0.0608591 0)
(0.745725 0.0611752 0)
(0.735739 0.0591684 0)
(0.725354 0.0550944 0)
(0.71487 0.0510928 0)
(0.705051 0.0488535 0)
(0.696043 0.0493767 0)
(0.687873 0.0526862 0)
(0.679462 0.0577398 0)
(0.670084 0.0624347 0)
(0.66013 0.0642557 0)
(0.650805 0.0627041 0)
(0.642341 0.0590861 0)
(0.633886 0.0555152 0)
(0.624627 0.0542039 0)
(0.614827 0.0557227 0)
(0.605091 0.059087 0)
(0.595816 0.0619315 0)
(0.587278 0.062354 0)
(0.579523 0.0611232 0)
(0.571315 0.0604262 0)
(0.562011 0.0619069 0)
(0.551449 0.0655482 0)
(0.539663 0.0689606 0)
(0.527744 0.0694314 0)
(0.517537 0.0667638 0)
(0.509354 0.0637471 0)
(0.502422 0.0618891 0)
(0.495813 0.0607936 0)
(0.48879 0.058844 0)
(0.480948 0.0555986 0)
(0.472038 0.0527202 0)
(0.46229 0.0526664 0)
(0.452955 0.0561874 0)
(0.444161 0.0606128 0)
(0.43557 0.0630501 0)
(0.427191 0.0634845 0)
(0.418795 0.0638522 0)
(0.410062 0.0646004 0)
(0.400911 0.0645966 0)
(0.391157 0.0650078 0)
(0.380917 0.0664279 0)
(0.370501 0.068988 0)
(0.359955 0.0710477 0)
(0.349438 0.0727027 0)
(0.33889 0.0744013 0)
(0.328705 0.0758239 0)
(0.318938 0.0758215 0)
(0.309652 0.0744301 0)
(0.300549 0.0725463 0)
(0.291353 0.0709832 0)
(0.28147 0.069822 0)
(0.271095 0.0695211 0)
(0.260244 0.0705134 0)
(0.249116 0.0723873 0)
(0.238057 0.0739073 0)
(0.22757 0.0752009 0)
(0.217416 0.0758353 0)
(0.207819 0.075551 0)
(0.198324 0.074992 0)
(0.188855 0.0750286 0)
(0.178866 0.0756642 0)
(0.168447 0.0764427 0)
(0.157761 0.0770718 0)
(0.146951 0.0773867 0)
(0.135963 0.0776507 0)
(0.124863 0.0778514 0)
(0.113759 0.0781058 0)
(0.102753 0.0785391 0)
(0.0919563 0.0796014 0)
(0.0815799 0.0810214 0)
(0.0714493 0.0826809 0)
(0.0614022 0.0844534 0)
(0.051275 0.0859794 0)
(0.0408961 0.0867939 0)
(0.0300105 0.0871087 0)
(0.0186244 0.0865641 0)
(0.00646587 0.0865793 0)
(3 -2.89986e-16 0)
(3 -4.32011e-16 0)
(3 1.29467e-16 0)
(3 4.216e-16 0)
(3 2.76508e-16 0)
(3 5.63749e-16 0)
(3 7.66267e-16 0)
(3 5.25357e-16 0)
(3 3.38492e-16 0)
(3 3.61486e-17 0)
(3 -4.62756e-16 0)
(3 -1.09421e-15 0)
(3 -1.38322e-15 0)
(3 -1.29781e-15 0)
(3 -1.57428e-15 0)
(3 -7.3947e-16 0)
(3 1.96322e-16 0)
(3 4.16862e-16 0)
(3 9.26871e-16 0)
(3 7.05514e-16 0)
(3 8.11328e-16 0)
(3 1.18903e-15 0)
(3 9.2769e-16 0)
(3 4.82016e-16 0)
(3 4.8339e-16 0)
(3 1.19007e-15 0)
(3 1.28063e-15 0)
(3 4.39484e-16 0)
(3 3.83746e-16 0)
(3 8.71936e-16 0)
(3 2.55708e-16 0)
(3 9.94772e-17 0)
(3 5.81845e-16 0)
(3 5.94558e-16 0)
(3 4.90947e-16 0)
(3 -5.19001e-16 0)
(3 -2.79886e-16 0)
(3 -2.86917e-16 0)
(3 -3.93013e-17 0)
(3 1.62228e-15 0)
(3 2.58818e-15 0)
(3 2.67355e-15 0)
(3 3.10704e-15 0)
(3 2.9456e-15 0)
(3 3.04803e-15 0)
(3 2.52707e-15 0)
(3 1.96872e-15 0)
(3 1.33799e-15 0)
(3 1.17584e-15 0)
(3 1.60095e-15 0)
(3 1.74911e-15 0)
(3 4.76092e-16 0)
(3 9.48333e-17 0)
(3 -1.48618e-16 0)
(3 2.03549e-16 0)
(3 1.99588e-15 0)
(3 2.04704e-15 0)
(3 2.94092e-16 0)
(3 -1.04037e-15 0)
(3 -1.44058e-15 0)
(3 -7.10142e-16 0)
(3 6.62652e-16 0)
(3 5.36484e-16 0)
(3 -1.77397e-16 0)
(3 -9.88078e-16 0)
(3 -1.05875e-16 0)
(3 4.08658e-16 0)
(3 2.92919e-16 0)
(3 -7.30086e-16 0)
(3 -1.12196e-15 0)
(3 -5.53976e-16 0)
(3 -4.74774e-16 0)
(3 -4.6637e-16 0)
(3 -1.78872e-17 0)
(3 -5.86103e-16 0)
(3 -1.0196e-15 0)
(3 -1.25451e-15 0)
(3 -1.01146e-15 0)
(3 -3.38507e-16 0)
(3 -6.40403e-16 0)
(3 -1.96029e-16 0)
(3 -4.86002e-17 0)
(3 -5.19144e-16 0)
(3 -1.15472e-15 0)
(3 -1.25186e-15 0)
(3 -5.34899e-16 0)