/*--------------------------------*- C++ -*----------------------------------*\
  =========                 |
  \\      /  F ield         | OpenFOAM: The Open Source CFD Toolbox
   \\    /   O peration     | Website:  https://openfoam.org
    \\  /    A nd           | Version:  7
     \\/     M anipulation  |
\*---------------------------------------------------------------------------*/
FoamFile
{
    version     2.0;
    format      ascii;
    class       volScalarField;
    location    "4";
    object      p;
}
// * * * * * * * * * * * * * * * * * * * * * * * * * * * * * * * * * * * * * //

dimensions      [0 2 -2 0 0 0 0];

internalField   nonuniform List<scalar> 
344
(
0.256123
0.258273
0.260272
0.262124
0.263832
0.2654
0.266831
0.268127
0.269293
0.27033
0.271242
0.272031
0.272701
0.273253
0.273691
0.274017
0.274233
0.274342
0.274346
0.274247
0.274047
0.273748
0.273354
0.272864
0.272282
0.27161
0.270848
0.27
0.269066
0.268049
0.26695
0.26577
0.264512
0.263176
0.261765
0.260279
0.258721
0.257091
0.25539
0.253621
0.251784
0.249881
0.247913
0.245881
0.243786
0.155362
0.162224
0.16882
0.175155
0.181238
0.187073
0.192667
0.198027
0.203158
0.208066
0.212756
0.217234
0.221506
0.225575
0.229448
0.233129
0.236622
0.239933
0.243066
0.246024
0.248813
0.251436
0.253897
0.256201
0.258349
0.260348
0.262199
0.263906
0.265473
0.266902
0.268198
0.269362
0.270398
0.271309
0.272098
0.272766
0.273318
0.273755
0.27408
0.274295
0.274403
0.274406
0.274306
0.274105
0.273806
0.27341
0.27292
0.272337
0.271664
0.270902
0.270053
0.269118
0.2681
0.267
0.26582
0.264561
0.263225
0.261813
0.260326
0.258767
0.257136
0.255436
0.253666
0.251829
0.249925
0.247956
0.245923
0.243828
0.155397
0.162259
0.168855
0.17519
0.181272
0.187108
0.192702
0.198061
0.203192
0.2081
0.21279
0.217268
0.221539
0.225608
0.22948
0.233161
0.236654
0.239965
0.243097
0.246055
0.248844
0.251466
0.253927
0.25623
0.258379
0.260376
0.262227
0.263934
0.2655
0.26693
0.268225
0.269389
0.270425
0.271335
0.272123
0.272792
0.273343
0.273779
0.274104
0.274319
0.274426
0.274429
0.274329
0.274128
0.273828
0.273432
0.272942
0.272359
0.271685
0.270923
0.270074
0.269139
0.268121
0.26702
0.26584
0.26458
0.263244
0.261832
0.260345
0.258786
0.257155
0.255454
0.253684
0.251846
0.249942
0.247973
0.24594
0.243845
0.162286
0.168882
0.175217
0.1813
0.187135
0.192729
0.198089
0.203219
0.208127
0.212817
0.217295
0.221566
0.225635
0.229507
0.233187
0.236681
0.239991
0.243123
0.246081
0.248869
0.251492
0.253952
0.256255
0.258403
0.260401
0.262251
0.263958
0.265524
0.266953
0.268248
0.269412
0.270447
0.271358
0.272145
0.272814
0.273365
0.273801
0.274125
0.27434
0.274447
0.274449
0.274349
0.274148
0.273848
0.273452
0.272961
0.272378
0.271704
0.270942
0.270092
0.269157
0.268139
0.267038
0.265857
0.264598
0.263261
0.261849
0.260362
0.258802
0.257171
0.25547
0.2537
0.251862
0.249958
0.247989
0.245956
0.24386
0.162312
0.168908
0.175244
0.181326
0.187162
0.192756
0.198116
0.203247
0.208154
0.212844
0.217322
0.221593
0.225662
0.229534
0.233214
0.236707
0.240018
0.243149
0.246107
0.248895
0.251518
0.253978
0.25628
0.258428
0.260426
0.262276
0.263983
0.265549
0.266977
0.268272
0.269435
0.270471
0.271381
0.272169
0.272837
0.273387
0.273823
0.274147
0.274362
0.274469
0.274471
0.27437
0.274169
0.273869
0.273473
0.272982
0.272398
0.271724
0.270962
0.270112
0.269177
0.268158
0.267057
0.265876
0.264617
0.26328
0.261867
0.26038
0.25882
0.257189
0.255488
0.253717
0.251879
0.249975
0.248006
0.245973
0.243876
0.162339
0.168935
0.175271
0.181354
0.18719
0.192784
0.198144
0.203275
0.208183
0.212873
0.21735
0.221621
0.22569
0.229562
0.233243
0.236735
0.240046
0.243177
0.246135
0.248923
0.251545
0.254005
0.256307
0.258455
0.260453
0.262303
0.264009
0.265575
0.267003
)
;

boundaryField
{
    inlet
    {
        type            zeroGradient;
    }
    outlet
    {
        type            fixedValue;
        value           nonuniform 0();
    }
    wall
    {
        type            zeroGradient;
    }
    wedge1
    {
        type            wedge;
    }
    wedge2
    {
        type            wedge;
    }
    axis
    {
        type            empty;
    }
    procBoundary22to16
    {
        type            processor;
        value           nonuniform List<scalar> 
69
(
0.256033
0.258185
0.260186
0.26204
0.26375
0.26532
0.266752
0.26805
0.269217
0.270256
0.27117
0.271961
0.272632
0.273186
0.273625
0.273952
0.27417
0.27428
0.274285
0.274187
0.273988
0.273691
0.273298
0.272809
0.272229
0.271557
0.270797
0.26995
0.269017
0.268
0.266902
0.265723
0.264466
0.263131
0.261721
0.260236
0.258678
0.257049
0.255349
0.253581
0.251745
0.249842
0.247875
0.245843
0.243749
0.155262
0.162125
0.168721
0.175057
0.18114
0.186976
0.192571
0.197932
0.203064
0.207973
0.212664
0.217143
0.221416
0.225486
0.22936
0.233042
0.236537
0.239849
0.242982
0.245942
0.248732
0.251356
0.253818
0.253818
)
;
    }
    procBoundary22to17
    {
        type            processor;
        value           uniform 0.241629;
    }
    procBoundary22to21
    {
        type            processor;
        value           nonuniform List<scalar> 5(0.148226 0.14826 0.155423 0.155423 0.155449);
    }
    procBoundary22to23
    {
        type            processor;
        value           nonuniform List<scalar> 4(0.241671 0.241687 0.241702 0.241719);
    }
    procBoundary22to27
    {
        type            processor;
        value           uniform 0.155475;
    }
    procBoundary22to28
    {
        type            processor;
        value           nonuniform List<scalar> 
68
(
0.268298
0.269461
0.270496
0.271406
0.272194
0.272861
0.273412
0.273848
0.274171
0.274386
0.274493
0.274494
0.274393
0.274192
0.273892
0.273495
0.273004
0.27242
0.271746
0.270983
0.270133
0.269198
0.268179
0.267078
0.265897
0.264637
0.2633
0.261887
0.2604
0.25884
0.257208
0.255507
0.253736
0.251898
0.249994
0.248024
0.245991
0.243895
0.162367
0.168964
0.175301
0.181384
0.187219
0.192814
0.198174
0.203305
0.208213
0.212903
0.217381
0.221651
0.22572
0.229593
0.233273
0.236765
0.240075
0.243207
0.246165
0.248952
0.251574
0.254034
0.256337
0.258484
0.260481
0.262331
0.264037
0.265603
0.268298
0.267031
)
;
    }
}


// ************************************************************************* //
