/*--------------------------------*- C++ -*----------------------------------*\
  =========                 |
  \\      /  F ield         | OpenFOAM: The Open Source CFD Toolbox
   \\    /   O peration     | Website:  https://openfoam.org
    \\  /    A nd           | Version:  7
     \\/     M anipulation  |
\*---------------------------------------------------------------------------*/
FoamFile
{
    version     2.0;
    format      ascii;
    class       volVectorField;
    location    "22";
    object      U;
}
// * * * * * * * * * * * * * * * * * * * * * * * * * * * * * * * * * * * * * //

dimensions      [0 1 -1 0 0 0 0];

internalField   nonuniform List<vector> 
13200
(
(-5.52294e-05 0.000159116 -2.9671e-22)
(-0.000312509 0.000445646 4.57643e-21)
(-0.000877838 0.000705785 -1.70567e-21)
(-0.00172886 0.000938632 -1.30252e-21)
(-0.00284105 0.00114335 6.53673e-21)
(-0.00420043 0.00131905 -1.40426e-21)
(-0.00579073 0.00146507 9.85056e-23)
(-0.00759042 0.00158106 -5.44449e-21)
(-0.00957391 0.00166702 1.8511e-21)
(-0.0117122 0.00172328 -2.7505e-21)
(-0.0139733 0.00175057 -1.08044e-21)
(-0.0163227 0.00175003 4.06701e-21)
(-0.0187239 0.00172323 7.31157e-22)
(-0.0211396 0.00167221 3.10823e-21)
(-0.0235325 0.00159956 -1.213e-20)
(-0.0258664 0.00150835 1.71316e-21)
(-0.0281079 0.00140225 1.14295e-20)
(-0.0302274 0.00128547 -6.35351e-21)
(-0.0322012 0.00116279 5.0175e-21)
(-0.0340131 0.00103946 3.54165e-21)
(-0.0356562 0.000921076 3.26893e-21)
(-0.0371345 0.00081329 4.72344e-21)
(-0.0384603 0.000721237 -1.13297e-20)
(-0.0396504 0.000650112 9.23147e-21)
(-0.0407756 0.000607486 -4.24143e-21)
(-7.92874e-05 0.000473933 5.31664e-21)
(-0.000377272 0.00132715 -5.77628e-21)
(-0.000973891 0.00210163 4.06928e-21)
(-0.00184659 0.00279466 -4.51966e-21)
(-0.0029706 0.00340373 8.93365e-21)
(-0.00433146 0.00392615 -1.40314e-20)
(-0.00591241 0.00435995 7.29049e-21)
(-0.00769149 0.00470413 1.92479e-21)
(-0.00964269 0.00495865 -1.40098e-20)
(-0.0117367 0.00512453 1.10289e-20)
(-0.013941 0.00520392 3.43189e-21)
(-0.0162209 0.00520022 -4.35179e-21)
(-0.0185397 0.00511814 6.5696e-21)
(-0.0208597 0.00496382 -2.86657e-20)
(-0.0231434 0.00474494 -2.48896e-21)
(-0.0253544 0.00447076 1.71202e-20)
(-0.0274589 0.00415226 -5.96502e-21)
(-0.0294276 0.0038021 1.13709e-20)
(-0.0312365 0.00343463 -8.77018e-21)
(-0.0328697 0.00306569 -7.79002e-21)
(-0.0343206 0.00271224 -1.39652e-20)
(-0.0355945 0.00239135 -1.6689e-20)
(-0.0367042 0.00211873 1.91326e-20)
(-0.0376628 0.00191058 1.10137e-20)
(-0.038549 0.0017897 -1.64504e-21)
(-0.000126496 0.000778585 -2.27876e-21)
(-0.000504204 0.00217954 -3.92011e-22)
(-0.00116185 0.00345068 5.23482e-22)
(-0.00207646 0.00458745 -8.51835e-21)
(-0.0032228 0.00558568 -1.47975e-20)
(-0.00458542 0.0064409 5.24697e-21)
(-0.00614658 0.00714988 -1.6342e-21)
(-0.00788343 0.00771094 1.55161e-22)
(-0.00976918 0.00812403 2.70263e-20)
(-0.0117737 0.00839084 8.16025e-21)
(-0.013864 0.00851493 8.44943e-21)
(-0.0160045 0.00850192 -3.72404e-20)
(-0.0181579 0.00835963 5.70597e-20)
(-0.0202862 0.00809823 1.88707e-20)
(-0.0223512 0.00773044 -1.75217e-20)
(-0.0243161 0.00727167 -1.0729e-20)
(-0.0261469 0.00674018 2.05569e-20)
(-0.0278139 0.00615714 9.2899e-21)
(-0.0292932 0.00554659 -1.79422e-20)
(-0.030569 0.0049352 4.78842e-21)
(-0.0316358 0.00435164 2.38585e-20)
(-0.032501 0.00382496 -7.71897e-21)
(-0.033179 0.00338224 2.44922e-20)
(-0.0336747 0.00305253 2.19564e-21)
(-0.0340832 0.00287429 1.06519e-21)
(-0.000195065 0.00106658 -1.30258e-21)
(-0.000688177 0.00298417 -5.36517e-21)
(-0.00143349 0.00472292 8.92178e-21)
(-0.00240742 0.00627645 2.37314e-21)
(-0.00358396 0.00763887 -2.9516e-20)
(-0.00494618 0.00880403 4.08273e-20)
(-0.00647489 0.00976744 2.65856e-21)
(-0.00814592 0.0105268 -3.45716e-20)
(-0.00993126 0.0110821 -8.33607e-21)
(-0.0117997 0.0114356 3.80733e-20)
(-0.0137171 0.0115923 -1.33988e-20)
(-0.0156471 0.01156 -1.99223e-20)
(-0.0175515 0.0113494 -4.68518e-20)
(-0.0193913 0.0109748 -2.34314e-20)
(-0.0211277 0.0104538 3.34032e-20)
(-0.0227233 0.00980788 1.7644e-20)
(-0.0241435 0.00906252 -2.15634e-20)
(-0.025358 0.00824744 3.25288e-20)
(-0.0263431 0.00739657 2.54404e-20)
(-0.0270833 0.00654778 2.92969e-20)
(-0.0275743 0.00574211 -3.39493e-20)
(-0.027827 0.00502142 -3.38858e-20)
(-0.0278581 0.00442551 8.82565e-21)
(-0.0276604 0.00399926 -2.95753e-20)
(-0.0273519 0.00379781 4.53805e-20)
(-0.000282369 0.00133181 2.45854e-20)
(-0.000921651 0.0037235 1.43505e-20)
(-0.00177673 0.00589011 -3.41856e-20)
(-0.00282312 0.0078234 -1.52541e-21)
(-0.00403378 0.00951579 2.8989e-20)
(-0.00538983 0.0109595 -1.25112e-20)
(-0.00687009 0.0121489 -1.72345e-20)
(-0.00844867 0.0130812 1.1693e-21)
(-0.0100959 0.0137562 9.67349e-22)
(-0.0117792 0.014177 4.59011e-21)
(-0.013463 0.0143499 -4.12099e-20)
(-0.0151096 0.0142847 3.16517e-20)
(-0.0166798 0.0139952 -3.26766e-20)
(-0.0181334 0.0134992 3.90691e-20)
(-0.0194307 0.0128194 -5.72958e-20)
(-0.0205332 0.0119829 7.06436e-20)
(-0.0214057 0.0110227 -3.29272e-20)
(-0.0220173 0.00997679 3.36967e-20)
(-0.022344 0.00888934 -2.72691e-20)
(-0.0223706 0.00780991 2.04437e-21)
(-0.0220947 0.00679277 -6.72145e-20)
(-0.0215315 0.00589379 7.1508e-20)
(-0.0207014 0.00516738 -6.02342e-20)
(-0.0195813 0.00467846 -6.44943e-20)
(-0.0183139 0.0045 6.67366e-21)
(-0.000385008 0.0015687 4.37846e-20)
(-0.00119484 0.00438145 -1.77976e-20)
(-0.00217578 0.00692628 4.4482e-21)
(-0.00330219 0.0091931 -1.5622e-20)
(-0.00454567 0.0111727 2.37071e-20)
(-0.0058849 0.0128558 -3.30228e-20)
(-0.00729624 0.0142357 9.6259e-21)
(-0.00875164 0.0153092 1.59415e-20)
(-0.0102195 0.0160761 -7.41102e-21)
(-0.0116652 0.0165402 -7.31781e-20)
(-0.0130518 0.016709 6.71812e-20)
(-0.0143398 0.0165943 2.93887e-20)
(-0.0154886 0.0162128 -1.91723e-20)
(-0.0164567 0.0155858 -4.50639e-21)
(-0.0172031 0.0147405 1.48133e-21)
(-0.0176883 0.01371 -3.61541e-20)
(-0.0178758 0.0125339 7.72852e-21)
(-0.0177339 0.011259 1.47005e-20)
(-0.0172384 0.00993959 -4.03708e-20)
(-0.0163742 0.00863771 3.5768e-20)
(-0.0151406 0.00742192 -4.27617e-20)
(-0.0135588 0.00636372 1.03614e-19)
(-0.0116545 0.00553505 -5.28304e-20)
(-0.00938613 0.00502814 3.16919e-20)
(-0.00692069 0.00493601 -1.46645e-20)
(-0.000498882 0.00177229 2.23017e-20)
(-0.00149588 0.00494366 -2.26581e-20)
(-0.00261148 0.0078082 -2.36947e-20)
(-0.00381856 0.010354 3.57199e-20)
(-0.00508706 0.0125703 -2.53206e-20)
(-0.00639273 0.0144466 -9.78215e-21)
(-0.00770903 0.0159753 3.07212e-20)
(-0.00900532 0.0171527 5.97745e-20)
(-0.0102476 0.0179789 -9.95032e-20)
(-0.0113993 0.0184583 -9.13033e-21)
(-0.0124211 0.0185997 4.64405e-20)
(-0.013272 0.0184167 3.2708e-20)
(-0.0139097 0.0179286 -7.86488e-20)
(-0.014291 0.0171601 6.90202e-20)
(-0.0143734 0.0161425 5.3965e-20)
(-0.014116 0.0149144 3.77557e-20)
(-0.0134808 0.0135221 -4.67686e-20)
(-0.0124352 0.0120208 -8.31211e-20)
(-0.010954 0.0104752 -7.79053e-20)
(-0.00902213 0.0089601 5.75057e-20)
(-0.00664081 0.00755986 1.28244e-19)
(-0.00383744 0.00636366 6.85386e-20)
(-0.000643673 0.00546479 -4.82129e-20)
(0.00300201 0.0049927 -8.24374e-20)
(0.00688358 0.00506065 9.01688e-20)
(-0.000619266 0.00193827 -9.54558e-21)
(-0.00181105 0.00539763 -1.72995e-20)
(-0.00306151 0.00851563 -6.67777e-21)
(-0.00434176 0.0112787 3.49897e-21)
(-0.00561973 0.0136746 5.48153e-21)
(-0.0068678 0.0156917 3.91297e-20)
(-0.00805608 0.017322 -9.96611e-20)
(-0.00915098 0.0185616 7.72594e-20)
(-0.0101158 0.0194107 -1.46657e-21)
(-0.0109115 0.0198744 5.86093e-20)
(-0.0114965 0.0199628 -3.945e-20)
(-0.0118279 0.0196913 -5.8265e-20)
(-0.0118611 0.0190813 6.01352e-20)
(-0.0115516 0.0181608 -5.58893e-20)
(-0.0108548 0.0169649 2.802e-20)
(-0.00972821 0.015537 -3.48097e-20)
(-0.0081322 0.0139295 1.10079e-19)
(-0.00603255 0.0122058 -1.68306e-19)
(-0.00340277 0.0104407 1.87838e-19)
(-0.00022738 0.0087226 -7.17987e-20)
(0.00349081 0.00715263 -3.86945e-20)
(0.00771745 0.0058401 5.5549e-20)
(0.0124152 0.00490457 -9.47947e-21)
(0.0176685 0.00452297 -9.61194e-20)
(0.0231893 0.00483086 -3.54478e-20)
(-0.000740873 0.00206304 4.9364e-20)
(-0.00212493 0.00573285 -8.58679e-20)
(-0.00350071 0.00903155 6.47961e-20)
(-0.00483724 0.011944 -4.9818e-21)
(-0.00610019 0.0144568 1.46147e-21)
(-0.00725809 0.0165577 -3.80583e-20)
(-0.00827735 0.0182382 2.354e-21)
(-0.00912105 0.0194944 -1.15436e-20)
(-0.00974957 0.0203272 1.03352e-19)
(-0.010121 0.0207424 -6.95481e-20)
(-0.0101915 0.0207511 4.31156e-20)
(-0.00991567 0.0203705 -1.936e-20)
(-0.00924713 0.0196241 4.76024e-20)
(-0.00813913 0.0185424 1.33463e-20)
(-0.00654541 0.0171639 -1.19283e-19)
(-0.00442134 0.0155362 2.40641e-20)
(-0.00172543 0.0137173 9.47791e-20)
(0.00157857 0.0117775 -5.8213e-20)
(0.00551896 0.00980183 2.10854e-20)
(0.0101125 0.00789188 8.12733e-20)
(0.0153553 0.00616695 -2.28723e-19)
(0.0212059 0.00475909 -3.85412e-20)
(0.0276203 0.00381996 2.94704e-20)
(0.034708 0.00358697 -4.12616e-20)
(0.0421013 0.00422781 7.97161e-21)
(-0.000857911 0.00214366 1.44566e-20)
(-0.00242055 0.00594078 6.45255e-20)
(-0.00390124 0.00934215 -7.1984e-20)
(-0.00526667 0.0123314 1.97623e-20)
(-0.00647995 0.0148941 5.97329e-21)
(-0.00750545 0.0170177 2.98763e-20)
(-0.00830547 0.0186939 1.82641e-20)
(-0.00883952 0.0199192 -9.42527e-20)
(-0.00906473 0.020695 8.53802e-20)
(-0.00893626 0.0210279 -1.66602e-19)
(-0.00840764 0.0209305 9.20308e-21)
(-0.00743109 0.0204213 7.82605e-20)
(-0.00595805 0.0195257 -3.86021e-20)
(-0.00393972 0.0182764 4.27396e-20)
(-0.00132786 0.0167146 3.32372e-20)
(0.00192425 0.0148913 8.00264e-20)
(0.00586032 0.0128687 -1.23563e-19)
(0.010519 0.0107236 4.26189e-20)
(0.0159311 0.00854934 -1.09681e-19)
(0.0221154 0.00646067 1.35659e-19)
(0.0290683 0.00459546 -4.09263e-20)
(0.0367418 0.00311084 8.52891e-20)
(0.0450847 0.00219712 4.24436e-20)
(0.0542346 0.00217035 7.43691e-20)
(0.063735 0.00324611 -1.11563e-20)
(-0.000964115 0.00217781 5.33199e-20)
(-0.00267949 0.00601476 -6.42212e-20)
(-0.00423281 0.00943681 5.00568e-20)
(-0.00558819 0.0124267 -8.79631e-20)
(-0.00670595 0.0149693 6.14533e-20)
(-0.00754599 0.0170523 -1.227e-20)
(-0.00806626 0.018668 -4.14099e-20)
(-0.00822242 0.0198135 -6.29471e-20)
(-0.00796817 0.0204912 8.13057e-20)
(-0.00725559 0.0207089 5.30454e-20)
(-0.00603545 0.0204804 -3.54311e-20)
(-0.00425752 0.0198257 -6.00418e-20)
(-0.00187105 0.0187717 8.25215e-20)
(0.00117478 0.017353 4.31471e-20)
(0.0049302 0.0156126 -1.21651e-19)
(0.00944399 0.0136039 -5.64393e-20)
(0.0147622 0.0113923 1.76565e-20)
(0.0209261 0.00905874 2.43868e-21)
(0.0279696 0.00670369 1.70876e-20)
(0.0359149 0.0044531 -3.38519e-20)
(0.04476 0.00246282 -4.38448e-20)
(0.0544519 0.000916407 3.24911e-20)
(0.0649338 4.94827e-05 -7.11433e-20)
(0.0763756 0.000278703 1.60992e-19)
(0.0882225 0.00188953 -3.13632e-19)
(-0.00105277 0.00216383 -2.34272e-20)
(-0.00288201 0.00595 -3.73411e-20)
(-0.00446284 0.00930808 1.78887e-20)
(-0.00575665 0.0122202 5.61893e-20)
(-0.00672085 0.014671 -6.68782e-20)
(-0.00731061 0.016649 8.72902e-21)
(-0.0074793 0.0181474 -2.2632e-20)
(-0.00717857 0.0191648 1.43051e-19)
(-0.00635855 0.0197045 3.3933e-20)
(-0.0049681 0.019776 -2.99516e-20)
(-0.00295518 0.0193943 1.15035e-19)
(-0.000267113 0.0185812 -1.29092e-19)
(0.003149 0.0173648 -4.54666e-20)
(0.00734587 0.0157812 4.15132e-21)
(0.0123755 0.0138746 5.60269e-20)
(0.0182886 0.0116995 -1.77382e-19)
(0.0251333 0.00932293 1.94728e-19)
(0.0329535 0.00682786 -8.41226e-20)
(0.0417868 0.00431888 1.42607e-19)
(0.0516597 0.00193012 -1.89942e-20)
(0.062574 -0.000167278 6.86179e-20)
(0.0744747 -0.00176425 4.77323e-20)
(0.0873023 -0.00257456 -2.64723e-20)
(0.101268 -0.00205647 4.79376e-20)
(0.11571 0.000172387 1.12524e-20)
(-0.00111674 0.00210059 -3.22034e-20)
(-0.00300706 0.00574351 1.73473e-20)
(-0.0045566 0.00895157 -3.44062e-20)
(-0.00572397 0.0117068 -7.21443e-20)
(-0.00646354 0.0139937 6.78296e-20)
(-0.00672561 0.0158025 8.82233e-20)
(-0.00645881 0.017128 -4.33814e-20)
(-0.00561064 0.0179703 -9.87796e-20)
(-0.00412753 0.0183347 1.62625e-20)
(-0.00195507 0.0182322 6.57707e-20)
(0.000961621 0.0176799 -3.63645e-20)
(0.00467764 0.0167008 -1.13773e-19)
(0.00924789 0.0153248 -1.8315e-19)
(0.0147268 0.0135889 2.62758e-19)
(0.0211677 0.0115381 -1.11001e-19)
(0.0286228 0.00922716 1.23564e-19)
(0.0371418 0.00672266 -5.66391e-20)
(0.0467709 0.00410707 1.55169e-19)
(0.0575508 0.0014852 -1.76028e-19)
(0.0695137 -0.00100559 1.62674e-20)
(0.0826672 -0.00318447 1.21934e-19)
(0.0969578 -0.00482178 -7.85293e-20)
(0.11233 -0.00557933 -6.30713e-21)
(0.129047 -0.00476774 -6.00721e-20)
(0.146341 -0.00188434 -1.6672e-19)
(-0.00114845 0.00198758 2.29454e-20)
(-0.00303243 0.00539415 -2.54184e-21)
(-0.00447751 0.00836609 3.25295e-20)
(-0.00543953 0.0108856 3.74065e-20)
(-0.0058698 0.0129379 -5.91245e-20)
(-0.00571363 0.0145149 -4.73622e-20)
(-0.0049148 0.015614 4.32958e-20)
(-0.00341655 0.0162374 9.08376e-20)
(-0.00116153 0.0163927 -2.15711e-19)
(0.00190799 0.0160931 2.51579e-19)
(0.00584979 0.0153577 -1.71204e-19)
(0.0107213 0.0142118 9.40861e-20)
(0.0165793 0.0126869 2.20321e-20)
(0.0234796 0.010821 -6.05813e-20)
(0.0314766 0.00865986 1.68927e-19)
(0.0406229 0.00625745 -1.35262e-19)
(0.0509689 0.00367857 -1.18288e-19)
(0.062562 0.00100239 4.45338e-20)
(0.0754455 -0.0016706 4.87764e-20)
(0.0896562 -0.00420666 2.34901e-20)
(0.10521 -0.00642453 6.25685e-20)
(0.122058 -0.00808456 5.11212e-20)
(0.140157 -0.00880264 -2.13835e-20)
(0.159833 -0.00772258 2.03579e-19)
(0.180203 -0.00417195 -3.65629e-19)
(-0.00113996 0.00182493 9.00887e-20)
(-0.0029349 0.00490276 -5.66451e-20)
(-0.0041875 0.00755382 -4.71285e-20)
(-0.00485084 0.00976085 -2.44357e-21)
(-0.00487322 0.0115099 -1.59167e-20)
(-0.00419488 0.0127957 -2.48693e-20)
(-0.00275469 0.0136184 2.74035e-21)
(-0.000491529 0.0139831 9.80141e-20)
(0.00265582 0.0139001 5.20876e-21)
(0.00674854 0.0133856 4.9504e-20)
(0.0118473 0.0124613 -5.2008e-20)
(0.018012 0.011155 -1.27867e-19)
(0.025301 0.00950032 1.16868e-19)
(0.0337713 0.00753721 -2.81644e-20)
(0.0434776 0.00531196 1.84059e-20)
(0.0544723 0.00287804 -5.81667e-20)
(0.0668051 0.000297578 1.01271e-19)
(0.0805226 -0.00235567 -2.90484e-19)
(0.0956684 -0.00499002 1.48186e-19)
(0.112283 -0.00748344 -3.36418e-19)
(0.130389 -0.0096673 1.35842e-19)
(0.14995 -0.0113108 8.96691e-20)
(0.170946 -0.0120018 -1.48262e-19)
(0.193803 -0.0107018 1.56126e-19)
(0.21756 -0.00649994 1.34611e-19)
(-0.00108304 0.00161348 9.75838e-20)
(-0.00269056 0.00427242 2.14323e-21)
(-0.00364755 0.00652068 -4.62996e-20)
(-0.00390442 0.00834182 -3.74916e-20)
(-0.00340646 0.00972308 7.81102e-20)
(-0.00208886 0.0106624 -2.10541e-20)
(0.000114541 0.0111634 -3.0153e-20)
(0.00326929 0.0112346 5.06833e-20)
(0.00744061 0.0108898 -5.44116e-20)
(0.0126932 0.0101484 2.29473e-19)
(0.019091 0.00903559 9.66628e-22)
(0.026696 0.00758244 -9.69372e-20)
(0.0355687 0.00582568 -1.6346e-19)
(0.0457668 0.00380777 8.58162e-20)
(0.0573451 0.00157681 -1.5988e-20)
(0.0703548 -0.000813365 2.86609e-19)
(0.0848433 -0.00330266 8.09159e-21)
(0.100854 -0.00582321 -5.67261e-20)
(0.118428 -0.00829495 4.63145e-20)
(0.137604 -0.010615 -1.60651e-19)
(0.15841 -0.0126432 1.96326e-19)
(0.180821 -0.0141864 -7.14684e-20)
(0.204854 -0.0148465 -7.47817e-20)
(0.231083 -0.0134278 -1.24132e-19)
(0.258535 -0.00875587 -2.30896e-19)
(-0.000969308 0.00135497 -4.15607e-20)
(-0.00227525 0.00350879 1.75524e-20)
(-0.00281854 0.00527685 1.25109e-20)
(-0.00254699 0.00664361 2.60216e-20)
(-0.00140291 0.00759774 2.25499e-23)
(0.000683605 0.00814086 -3.33797e-20)
(0.00378377 0.00828073 6.63055e-21)
(0.0079677 0.00802968 5.70059e-20)
(0.0133048 0.00740541 3.28338e-21)
(0.0198635 0.00643135 1.7733e-19)
(0.0277109 0.00513682 -1.61186e-19)
(0.036912 0.00355692 1.36069e-19)
(0.0475291 0.00173254 -1.42021e-19)
(0.0596211 -0.000289951 3.72608e-20)
(0.0732426 -0.00245893 -8.12292e-20)
(0.0884435 -0.00471804 -1.41225e-20)
(0.105268 -0.00700667 3.52526e-20)
(0.123753 -0.00926035 1.88699e-20)
(0.143934 -0.0114094 -3.67091e-21)
(0.165841 -0.0133732 1.03047e-19)
(0.189501 -0.0150527 -3.67762e-21)
(0.214893 -0.0163274 5.33205e-21)
(0.242076 -0.0168845 8.59779e-20)
(0.271827 -0.015456 2.72429e-19)
(0.303313 -0.0106178 6.45941e-20)
(-0.000790454 0.00105219 4.24297e-20)
(-0.00166518 0.00262061 -6.06557e-20)
(-0.00166226 0.00383736 8.52203e-20)
(-0.00072694 0.00468789 -2.75621e-20)
(0.00120147 0.00516235 4.19351e-20)
(0.00419793 0.0052665 1.74375e-20)
(0.0083388 0.00501257 -1.92208e-19)
(0.0136988 0.0044172 1.40166e-19)
(0.0203517 0.00350241 -1.73268e-20)
(0.02837 0.00229615 -1.84221e-19)
(0.0378244 0.000832353 6.04518e-20)
(0.0487829 -0.000848985 -4.02489e-20)
(0.0613105 -0.00270189 -5.70487e-20)
(0.0754677 -0.00467456 2.50146e-19)
(0.0913097 -0.00670976 -1.10951e-19)
(0.108885 -0.00874545 -8.51546e-20)
(0.128236 -0.010716 4.2991e-20)
(0.149393 -0.0125541 -1.21561e-19)
(0.17238 -0.0141925 1.04302e-19)
(0.197215 -0.0155648 -2.42826e-19)
(0.223909 -0.0166124 2.61562e-19)
(0.252425 -0.0173115 -6.75357e-20)
(0.282845 -0.0175175 -1.32106e-19)
(0.316203 -0.0160437 -2.65379e-19)
(0.352107 -0.011388 1.10671e-19)
(-0.000538494 0.000709114 1.61346e-20)
(-0.000837672 0.00162 5.98096e-20)
(-0.000142606 0.00222268 -1.21086e-19)
(0.00160406 0.00250355 8.323e-20)
(0.004466 0.00245424 -1.91883e-19)
(0.00852326 0.00208495 4.43386e-20)
(0.0138573 0.00141266 1.02458e-20)
(0.0205476 0.000458581 6.06297e-20)
(0.0286722 -0.000750682 -4.3147e-20)
(0.038308 -0.00218245 -6.01901e-20)
(0.0495295 -0.00379783 1.105e-19)
(0.0624086 -0.00555156 2.96584e-20)
(0.0770132 -0.00739195 -3.32087e-20)
(0.0934066 -0.00926077 -7.88826e-20)
(0.111646 -0.0110934 -1.31999e-19)
(0.131782 -0.0128191 1.50237e-19)
(0.153855 -0.014362 -1.27219e-19)
(0.177893 -0.0156426 -4.46997e-20)
(0.203914 -0.0165809 -4.4728e-20)
(0.231919 -0.0171005 -1.62546e-19)
(0.261893 -0.0171494 2.15426e-19)
(0.293754 -0.0167643 -7.60203e-20)
(0.327514 -0.0159541 -9.58367e-20)
(0.364339 -0.0137285 4.37334e-19)
(0.404777 -0.00914365 -1.52311e-19)
(-0.000206062 0.000331064 -2.78653e-20)
(0.000228054 0.000522844 -8.59027e-21)
(0.00177321 0.000459173 3.94849e-21)
(0.00448943 0.000127289 -2.07503e-20)
(0.00844339 -0.000479695 -1.28632e-20)
(0.0137201 -0.00134701 2.38677e-19)
(0.020406 -0.00245275 -2.28299e-19)
(0.0285852 -0.00377106 8.82809e-20)
(0.0383403 -0.00527076 -5.09578e-20)
(0.0497522 -0.0069145 8.45209e-20)
(0.0628997 -0.00865857 1.54917e-19)
(0.0778584 -0.0104527 -1.4635e-19)
(0.0947001 -0.0122396 4.77995e-20)
(0.113492 -0.013955 3.93104e-20)
(0.134296 -0.0155267 -1.27774e-19)
(0.157165 -0.0168744 1.70298e-19)
(0.182148 -0.0179095 1.01124e-19)
(0.209279 -0.0185341 1.83307e-19)
(0.238583 -0.0186409 1.0716e-19)
(0.270076 -0.0181132 -2.59876e-19)
(0.303751 -0.0168432 -6.30047e-20)
(0.33954 -0.0147854 -1.33022e-19)
(0.377389 -0.0118383 6.35837e-19)
(0.418102 -0.00715803 -1.43995e-19)
(0.462715 -0.00159745 -1.3344e-19)
(0.000213318 -7.53043e-05 -8.95802e-21)
(0.00155015 -0.000651225 -5.5043e-21)
(0.00411357 -0.00142084 -8.39957e-20)
(0.0079663 -0.00239614 4.16305e-20)
(0.013178 -0.00358264 -7.29647e-20)
(0.0198384 -0.00496089 2.1649e-19)
(0.0280386 -0.00650402 -1.46951e-19)
(0.0378671 -0.00818167 -5.74199e-20)
(0.0494106 -0.00995829 -1.1867e-19)
(0.0627539 -0.0117923 9.36515e-20)
(0.0779795 -0.0136359 9.73738e-21)
(0.0951666 -0.0154345 1.36171e-19)
(0.114391 -0.0171271 1.83928e-19)
(0.135723 -0.0186447 -2.95843e-20)
(0.159231 -0.0199107 -9.08465e-20)
(0.184974 -0.0208389 -1.03197e-19)
(0.213012 -0.0213331 -1.95952e-19)
(0.243398 -0.0212837 -8.05449e-20)
(0.276192 -0.0205645 3.19429e-19)
(0.31147 -0.0190272 -4.07189e-19)
(0.349355 -0.0165027 1.46905e-19)
(0.390094 -0.0127797 -1.90071e-19)
(0.434315 -0.00743857 -2.09704e-20)
(0.483666 -8.53071e-05 1.00049e-19)
(0.542248 0.00550821 4.3734e-20)
(0.000725025 -0.000502067 9.4876e-21)
(0.0031436 -0.00187898 7.39148e-20)
(0.00690164 -0.00337927 -9.87337e-20)
(0.0120646 -0.00501424 2.03635e-20)
(0.0187048 -0.00678805 1.02071e-19)
(0.0269164 -0.00867654 -2.19723e-21)
(0.0367946 -0.010648 -1.38167e-19)
(0.0484316 -0.0126677 3.05468e-20)
(0.0619175 -0.0146962 1.0545e-19)
(0.0773401 -0.0166884 -2.29385e-20)
(0.0947845 -0.0185932 1.67133e-20)
(0.114332 -0.0203539 -1.23551e-19)
(0.136061 -0.021907 1.78586e-19)
(0.160045 -0.023183 -6.77897e-20)
(0.186352 -0.0241051 -5.16619e-21)
(0.215049 -0.0245894 2.02256e-19)
(0.2462 -0.0245435 -3.08089e-20)
(0.279874 -0.0238669 -7.63272e-20)
(0.316153 -0.0224498 -4.66952e-20)
(0.355158 -0.0201781 4.14957e-20)
(0.397085 -0.0169466 2.96228e-20)
(0.44232 -0.0126566 2.01637e-21)
(0.491632 -0.00723431 -8.8597e-20)
(0.546091 -0.00157334 -2.66282e-19)
(0.606986 -5.61826e-05 1.18248e-20)
(0.00133324 -0.000940219 -2.66375e-20)
(0.00501992 -0.00313408 1.32769e-19)
(0.010155 -0.005373 -2.2233e-20)
(0.0168063 -0.00766752 -1.7502e-20)
(0.0250489 -0.0100205 -5.00181e-20)
(0.0349802 -0.0124031 -3.24667e-20)
(0.046699 -0.0147787 -2.97705e-20)
(0.0603 -0.0171086 3.37602e-20)
(0.0758756 -0.0193501 3.23703e-20)
(0.0935152 -0.0214552 -2.20163e-19)
(0.113305 -0.0233709 3.56877e-20)
(0.135326 -0.0250394 -5.79566e-20)
(0.159655 -0.0263978 1.62538e-20)
(0.186364 -0.0273787 2.61458e-19)
(0.215519 -0.0279102 -1.47969e-19)
(0.247182 -0.0279168 -2.79278e-20)
(0.281414 -0.0273202 6.80094e-21)
(0.318277 -0.0260423 -7.30275e-21)
(0.357846 -0.0240102 1.32461e-19)
(0.400225 -0.0211702 -3.42848e-20)
(0.445577 -0.0175128 3.88052e-19)
(0.494196 -0.013086 -1.07833e-19)
(0.54659 -0.00808811 7.39858e-20)
(0.603004 -0.00383231 1.80549e-19)
(0.662862 -0.00374002 3.24872e-20)
(0.00204094 -0.00137993 1.02273e-20)
(0.00718715 -0.00438778 2.45338e-20)
(0.0138855 -0.00735485 -7.42219e-20)
(0.0222059 -0.0102908 -2.44032e-20)
(0.0322254 -0.0131973 -1.22137e-20)
(0.044044 -0.0160405 3.97026e-20)
(0.0577625 -0.0187795 1.81879e-20)
(0.0734774 -0.0213717 4.02002e-20)
(0.0912813 -0.0237714 -4.17782e-20)
(0.111263 -0.0259286 -2.29674e-20)
(0.133507 -0.0277894 -1.95118e-19)
(0.158092 -0.0292964 2.11903e-19)
(0.18509 -0.0303891 -1.15306e-19)
(0.214564 -0.0310048 -6.46652e-20)
(0.246572 -0.0310793 1.56814e-20)
(0.281162 -0.0305493 -6.04558e-21)
(0.318375 -0.0293551 1.45578e-20)
(0.358249 -0.0274449 6.05157e-20)
(0.400821 -0.0247846 -7.55248e-20)
(0.446135 -0.0213741 -2.02472e-19)
(0.494256 -0.0172749 1.27605e-19)
(0.545302 -0.0126186 -1.58354e-19)
(0.599453 -0.00769421 -1.20602e-20)
(0.656402 -0.00377494 1.4193e-20)
(0.714897 -0.00340417 2.36747e-20)
(0.00284997 -0.00181083 6.5973e-20)
(0.00964994 -0.00560965 1.02858e-19)
(0.0180994 -0.00927477 6.38998e-21)
(0.0282699 -0.0128149 1.99699e-21)
(0.0402396 -0.0162303 -1.01695e-19)
(0.0541098 -0.0194826 5.54489e-20)
(0.0699823 -0.022526 3.52342e-20)
(0.087953 -0.0253148 1.14639e-19)
(0.108113 -0.0278007 -2.20397e-19)
(0.130549 -0.0299324 2.35048e-20)
(0.155341 -0.0316559 5.25136e-20)
(0.182559 -0.0329154 5.19459e-20)
(0.212268 -0.0336539 -2.38975e-19)
(0.244517 -0.0338149 5.86035e-20)
(0.279348 -0.0333439 7.95555e-20)
(0.316785 -0.0321912 5.84504e-21)
(0.356839 -0.0303158 -8.58273e-20)
(0.399508 -0.0276914 1.32406e-19)
(0.444773 -0.0243164 -1.704e-19)
(0.492598 -0.0202305 1.29044e-19)
(0.54293 -0.0155368 -1.16584e-19)
(0.595716 -0.0104008 -1.02133e-19)
(0.650874 -0.00511568 -1.50372e-19)
(0.7078 -0.000815515 2.4487e-19)
(0.765113 0.000550832 2.5546e-19)
(0.00376111 -0.00222223 -1.84704e-20)
(0.0124098 -0.00676827 -1.17606e-19)
(0.0227978 -0.011081 2.20801e-19)
(0.0349976 -0.0151681 -1.33043e-19)
(0.0490873 -0.0190283 -2.60045e-20)
(0.0651684 -0.0226188 3.58701e-20)
(0.0833415 -0.0258895 -1.01893e-19)
(0.103701 -0.0287913 1.47702e-20)
(0.126333 -0.0312742 1.33644e-19)
(0.151321 -0.0332858 -5.08497e-20)
(0.178734 -0.034773 -3.65392e-20)
(0.208636 -0.0356824 2.00894e-19)
(0.241074 -0.0359616 -1.32708e-19)
(0.276082 -0.0355614 1.72268e-19)
(0.313676 -0.0344374 -7.16797e-20)
(0.353852 -0.0325538 -1.08512e-19)
(0.396583 -0.0298877 -9.31081e-21)
(0.441814 -0.0264352 4.76252e-20)
(0.489462 -0.0222205 5.29835e-20)
(0.539407 -0.0173108 -2.90174e-19)
(0.591485 -0.0118319 1.16933e-19)
(0.645494 -0.00595752 1.80672e-19)
(0.701165 4.20969e-05 1.39555e-19)
(0.75774 0.00516587 9.03032e-20)
(0.813869 0.00786644 -4.06703e-19)
(0.00477416 -0.00260329 -6.66109e-21)
(0.015465 -0.0078318 2.41518e-20)
(0.0279765 -0.012721 -8.56312e-20)
(0.0423806 -0.0172776 1.52287e-19)
(0.0587546 -0.021499 -7.48669e-20)
(0.0771984 -0.0253379 -5.15062e-21)
(0.0978097 -0.0287401 -3.68788e-20)
(0.120678 -0.0316539 9.61264e-20)
(0.145886 -0.0340275 5.4565e-20)
(0.173505 -0.0358088 -1.41325e-19)
(0.203598 -0.0369457 -9.0059e-20)
(0.23621 -0.0373883 3.09975e-20)
(0.271374 -0.0370898 9.76595e-20)
(0.309099 -0.0360087 -2.66092e-19)
(0.349374 -0.0341118 -5.94319e-20)
(0.392157 -0.0313771 1.11329e-19)
(0.437378 -0.0277988 4.49888e-20)
(0.484927 -0.0233928 -3.44894e-19)
(0.534654 -0.018205 -9.35955e-21)
(0.586356 -0.0123227 1.09072e-19)
(0.639768 -0.00588504 -2.0175e-21)
(0.694569 0.000934172 1.39405e-19)
(0.750355 0.00788743 -5.15937e-20)
(0.806288 0.0140802 -3.39676e-19)
(0.861085 0.0182522 2.32826e-19)
(0.00588796 -0.0029432 3.75293e-20)
(0.018811 -0.0087684 -1.06852e-19)
(0.0336258 -0.0141424 6.66941e-20)
(0.0504031 -0.019071 4.78459e-20)
(0.0692178 -0.0235506 -2.19173e-20)
(0.0901662 -0.0275296 7.97894e-20)
(0.113342 -0.0309501 -1.6787e-19)
(0.138827 -0.0337582 1.46869e-19)
(0.166697 -0.0359014 8.33727e-20)
(0.197011 -0.037328 8.02225e-20)
(0.229819 -0.0379885 -3.16523e-20)
(0.265149 -0.0378369 -1.44782e-20)
(0.30301 -0.0368331 2.60675e-20)
(0.343387 -0.0349447 9.70767e-20)
(0.386234 -0.0321501 -1.9234e-20)
(0.431471 -0.0284416 6.69012e-20)
(0.478978 -0.0238305 1.46249e-19)
(0.52859 -0.0183519 -1.67799e-19)
(0.58009 -0.0120711 -4.95851e-20)
(0.633196 -0.0050931 -7.28228e-20)
(0.687558 0.00243178 -4.39673e-20)
(0.742757 0.0103283 2.81957e-19)
(0.798289 0.0183621 -1.09431e-19)
(0.853277 0.0257211 2.81251e-19)
(0.906505 0.0313655 -1.91174e-20)
(0.00710031 -0.00323117 -2.73283e-20)
(0.02244 -0.0095465 1.10867e-19)
(0.0397309 -0.0152935 -1.18304e-19)
(0.0590413 -0.0204772 6.28943e-20)
(0.0804426 -0.0250933 2.23098e-20)
(0.104026 -0.0290866 -8.7701e-20)
(0.129877 -0.0323961 8.50912e-20)
(0.158072 -0.0349664 -3.07505e-20)
(0.188671 -0.0367449 2.66947e-21)
(0.221725 -0.0376815 -1.16945e-19)
(0.257262 -0.0377301 1.27865e-19)
(0.295293 -0.0368503 -3.21985e-19)
(0.335801 -0.0350098 1.25351e-19)
(0.378739 -0.0321865 7.40605e-20)
(0.424026 -0.0283717 -7.03449e-20)
(0.471539 -0.0235735 1.01785e-19)
(0.52111 -0.0178211 -7.9272e-20)
(0.572515 -0.011169 2.44451e-19)
(0.625473 -0.00370276 -1.69664e-19)
(0.679634 0.0044546 1.55328e-19)
(0.73457 0.0131398 -1.88294e-20)
(0.789786 0.022171 7.9297e-20)
(0.8447 0.0313164 -9.6531e-22)
(0.89842 0.0398294 -4.4621e-20)
(0.949798 0.0468489 -1.04231e-19)
(0.0084079 -0.00345655 5.62e-21)
(0.0263405 -0.0101351 3.2188e-20)
(0.0462708 -0.0161237 5.85864e-20)
(0.0682631 -0.021427 -1.16483e-19)
(0.0923839 -0.0260409 -2.20734e-20)
(0.118717 -0.0299068 1.09668e-19)
(0.14734 -0.0329616 -6.93727e-20)
(0.178316 -0.0351493 -3.68834e-20)
(0.211695 -0.0364184 1.57515e-19)
(0.247509 -0.0367217 8.90855e-21)
(0.285769 -0.0360176 1.59604e-21)
(0.326459 -0.0342732 -7.71647e-20)
(0.369536 -0.0314653 1.80426e-19)
(0.41492 -0.0275842 1.80052e-20)
(0.46249 -0.0226359 -2.43393e-19)
(0.51208 -0.0166459 -2.69889e-20)
(0.56347 -0.0096632 -7.57749e-20)
(0.616383 -0.00176365 -4.2383e-20)
(0.670476 0.0069455 1.22105e-19)
(0.725335 0.0163209 1.43852e-20)
(0.780472 0.026183 -5.86364e-20)
(0.835326 0.0363377 -1.67528e-20)
(0.889262 0.0465473 2.35885e-19)
(0.941388 0.0561197 1.12972e-19)
(0.99062 0.064343 -1.60999e-19)
(0.00980613 -0.00360884 2.52222e-20)
(0.0304975 -0.0105038 6.99109e-20)
(0.053218 -0.016584 -1.02733e-19)
(0.0780272 -0.0218544 1.44203e-19)
(0.104985 -0.0263112 -1.48859e-19)
(0.134166 -0.029894 1.39815e-20)
(0.165637 -0.0325384 3.3073e-20)
(0.199448 -0.0341889 -1.84007e-20)
(0.235634 -0.0347965 7.90915e-20)
(0.274206 -0.0343183 -4.73708e-20)
(0.315154 -0.0327194 -2.58589e-21)
(0.358437 -0.0299755 -5.37425e-20)
(0.40398 -0.0260753 7.34615e-20)
(0.451668 -0.0210231 2.71489e-20)
(0.501339 -0.0148422 5.75153e-20)
(0.552782 -0.00757798 2.30482e-20)
(0.605729 0.000698776 1.49515e-19)
(0.659848 0.0098884 -2.46212e-19)
(0.714741 0.0198595 9.6209e-20)
(0.76994 0.0304458 6.68826e-20)
(0.824904 0.041448 -3.07817e-20)
(0.879026 0.0526552 -1.59767e-19)
(0.931632 0.0638181 -1.29097e-19)
(0.981847 0.074293 -4.75422e-20)
(1.02865 0.083494 -2.55647e-20)
(0.011289 -0.00367783 -4.68558e-21)
(0.0348915 -0.0106235 1.13592e-19)
(0.0605384 -0.0166278 -1.5362e-19)
(0.0882827 -0.0216967 1.19343e-19)
(0.118177 -0.0258279 -7.5545e-20)
(0.150284 -0.0289598 4.41932e-20)
(0.184658 -0.0310283 2.11382e-20)
(0.221335 -0.0319798 -7.04902e-20)
(0.260329 -0.0317695 1.35859e-19)
(0.301633 -0.0303605 -1.52237e-19)
(0.345212 -0.0277264 5.61365e-20)
(0.390994 -0.0238542 -7.4515e-20)
(0.438873 -0.0187464 -2.13392e-20)
(0.488697 -0.0124241 -2.99012e-20)
(0.540263 -0.00493037 1.10533e-19)
(0.593315 0.00366722 1.60407e-19)
(0.647536 0.0132731 2.62282e-20)
(0.702547 0.0237615 -1.01293e-19)
(0.757898 0.0349744 -1.58151e-19)
(0.813077 0.0467202 1.82341e-19)
(0.867501 0.0587777 1.06355e-19)
(0.920532 0.070916 1.74697e-19)
(0.971477 0.0828715 -1.80522e-19)
(1.01949 0.0940457 -8.12697e-20)
(1.06361 0.103959 1.15779e-19)
(0.0128488 -0.00365367 -7.1328e-20)
(0.0394988 -0.0104663 5.763e-20)
(0.0681901 -0.0162111 2.04347e-20)
(0.0989687 -0.020896 -8.32602e-21)
(0.131877 -0.0245209 -4.23205e-20)
(0.166967 -0.0270247 8.3246e-20)
(0.204277 -0.0283447 -7.62634e-20)
(0.243824 -0.0284313 3.90074e-20)
(0.285605 -0.0272454 -8.22183e-20)
(0.329588 -0.0247584 1.64458e-19)
(0.375711 -0.0209547 -5.57409e-20)
(0.423873 -0.0158348 -9.70234e-20)
(0.473933 -0.00941755 4.20556e-20)
(0.525701 -0.00174378 -1.00164e-19)
(0.578934 0.00712126 2.091e-20)
(0.633331 0.0170848 -2.15445e-19)
(0.688531 0.0280243 1.88909e-20)
(0.744109 0.0397856 1.2841e-19)
(0.799575 0.0521822 -1.18508e-19)
(0.854378 0.0649958 1.16425e-19)
(0.907909 0.0779815 -1.43549e-19)
(0.959512 0.0908881 -7.6996e-20)
(1.00849 0.103438 1.49406e-19)
(1.05404 0.115076 5.42886e-20)
(1.09528 0.125414 -1.09326e-19)
(0.0144765 -0.00352706 1.51114e-21)
(0.0442905 -0.0100063 -6.42648e-20)
(0.0761238 -0.0152937 -2.91216e-20)