/*--------------------------------*- C++ -*----------------------------------*\
  =========                 |
  \\      /  F ield         | OpenFOAM: The Open Source CFD Toolbox
   \\    /   O peration     | Website:  https://openfoam.org
    \\  /    A nd           | Version:  7
     \\/     M anipulation  |
\*---------------------------------------------------------------------------*/
FoamFile
{
    version     2.0;
    format      ascii;
    class       volScalarField;
    location    "20";
    object      p;
}
// * * * * * * * * * * * * * * * * * * * * * * * * * * * * * * * * * * * * * //

dimensions      [0 2 -2 0 0 0 0];

internalField   nonuniform List<scalar> 
15600
(
-479.241
-450.49
-424.61
-398.383
-367.86
-334.978
-301.167
-267.267
-233.179
-198.781
-164.534
-131.73
-101.915
-76.3064
-55.4689
-39.296
-27.1443
-18.2909
-12.0346
-7.75693
-4.93561
-3.14928
-2.06206
-1.42727
-1.07424
-0.888758
-0.798055
-0.757687
-0.741955
-0.736894
-0.735459
-0.734463
-0.732708
-0.729922
-0.726198
-0.721725
-0.716677
-0.711122
-0.705157
-0.69897
206.496
202.396
196.113
180.751
157.33
129.829
102.21
77.5765
58.3023
45.5126
38.1358
33.7069
29.8866
25.4758
20.4864
15.5302
11.1022
7.4473
4.63411
2.59802
1.19591
0.277546
-0.297622
-0.642608
-0.836754
-0.938054
-0.986064
-1.00507
-1.0094
-1.00694
-1.00173
-0.995573
-0.989155
-0.982631
-0.975961
-0.969053
-0.961818
-0.954078
-0.945809
-0.936928
540.317
518.469
500.489
475.731
440.066
397.106
349.293
300.273
253.828
212.042
175.155
142.165
112.255
85.6006
62.8675
44.4626
30.274
19.7929
12.3308
7.19906
3.79961
1.63561
0.314171
-0.457505
-0.885153
-1.10739
-1.21324
-1.25692
-1.26954
-1.26797
-1.26084
-1.25204
-1.24307
-1.23427
-1.22555
-1.2167
-1.20752
-1.19768
-1.18709
-1.17548
28.6164
27.8316
30.0015
34.9252
41.6452
47.8715
50.0763
46.6907
39.2484
30.8542
23.2312
16.5879
10.8655
6.2547
2.93436
0.815239
-0.418661
-1.07362
-1.39384
-1.53238
-1.57833
-1.58177
-1.56796
-1.55327
-1.54125
-1.53277
-1.52645
-1.52081
-1.51556
-1.51019
-1.50437
-1.49794
-1.49078
-1.48283
-1.47405
-1.46441
-1.45386
-1.44217
-1.42932
-1.41493
-542.652
-514.04
-486.448
-454.134
-413.735
-369.621
-325.789
-284.634
-246.126
-209.494
-174.577
-141.918
-112.296
-86.3776
-64.5669
-47.0173
-33.4047
-23.1998
-15.8094
-10.6449
-7.16976
-4.92237
-3.53044
-2.70396
-2.23559
-1.98407
-1.85664
-1.79635
-1.76965
-1.75811
-1.75214
-1.74719
-1.74128
-1.73385
-1.72479
-1.71417
-1.7021
-1.68837
-1.67305
-1.65567
-269.346
-250.144
-234.537
-222.727
-211.195
-199.371
-185.873
-170.118
-151.504
-130.081
-107.058
-84.3207
-63.7712
-46.6585
-33.326
-23.4356
-16.3572
-11.3957
-7.98846
-5.71
-4.22933
-3.29868
-2.73396
-2.40674
-2.22322
-2.12419
-2.07262
-2.04639
-2.03261
-2.02415
-2.01722
-2.01
-2.00173
-1.992
-1.9807
-1.96785
-1.95344
-1.93712
-1.91888
-1.89811
438.362
422.194
406.261
380.669
344.228
301.936
257.709
215.121
177.279
145.916
120.645
99.5289
80.6669
63.2752
47.6031
34.2423
23.4772
15.2472
9.22606
4.98896
2.12573
0.270679
-0.878825
-1.55804
-1.94051
-2.14543
-2.24408
-2.28634
-2.29951
-2.29846
-2.29094
-2.28049
-2.26851
-2.25535
-2.241
-2.2253
-2.20808
-2.18876
-2.16719
-2.1425
422.383
404.832
391.651
375.46
352.599
324.281
290.296
252.249
213.726
177.66
145.166
116.1
90.1065
67.4025
48.4589
33.4989
22.2179
13.974
8.13555
4.14108
1.49614
-0.196549
-1.24053
-1.85979
-2.21115
-2.4041
-2.50118
-2.5454
-2.56133
-2.56258
-2.55641
-2.54635
-2.5339
-2.51959
-2.50353
-2.48566
-2.46588
-2.44357
-2.41837
-2.3889
-245.739
-233.509
-219.745
-200.949
-176.111
-149.154
-124.439
-104.87
-89.9221
-77.1833
-65.317
-54.2977
-44.4089
-35.6933
-28.0945
-21.6647
-16.3908
-12.238
-9.10828
-6.85389
-5.29935
-4.27463
-3.63183
-3.2504
-3.03813
-2.92611
-2.87126
-2.84627
-2.83483
-2.82795
-2.82115
-2.8124
-2.80098
-2.78672
-2.76967
-2.74997
-2.7277
-2.70231
-2.67338
-2.6389
-555.727
-524.518
-495.591
-464.145
-426.175
-384.851
-343.102
-302.611
-263.358
-224.944
-187.479
-151.854
-119.354
-91.0478
-67.584
-48.9943
-34.8312
-24.3857
-16.9263
-11.7773
-8.35022
-6.15794
-4.81458
-4.02422
-3.57858
-3.33969
-3.21798
-3.15911
-3.13119
-3.11615
-3.10504
-3.09349
-3.07968
-3.06296
-3.04322
-3.02053
-2.995
-2.96601
-2.93335
-2.89572
19.8389
24.9348
26.8959
21.1816
10.0487
-3.62926
-16.5041
-26.1176
-30.7994
-29.9425
-24.8027
-17.7903
-11.2257
-6.46159
-3.69149
-2.42001
-2.10776
-2.25106
-2.54108
-2.83386
-3.07314
-3.2458
-3.35614
-3.41969
-3.4517
-3.46296
-3.46166
-3.45329
-3.44092
-3.42641
-3.4101
-3.39194
-3.37189
-3.3497
-3.32509
-3.29793
-3.26808
-3.23464
-3.19739
-3.1552
544.686
523.034
504.175
476.848
437.684
391.331
341.103
290.792
244.112
203.011
167.502
136.2
107.913
82.5085
60.5191
42.399
28.2813
17.7283
10.1374
4.89126
1.40674
-0.813781
-2.16753
-2.954
-3.38568
-3.60733
-3.70903
-3.74567
-3.74917
-3.73682
-3.71724
-3.6943
-3.66916
-3.64204
-3.61273
-3.58095
-3.54644
-3.50811
-3.4657
-3.4182
194.165
185.999
181.602
178.221
173.799
167.103
155.242
137.55
116.42
95.1369
75.7205
58.4689
43.3196
30.5119
20.308
12.6753
7.14969
3.26359
0.596438
-1.19051
-2.35414
-3.08664
-3.53019
-3.78774
-3.93248
-4.00739
-4.04071
-4.04993
-4.04516
-4.03213
-4.01373
-3.99139
-3.96567
-3.9367
-3.90445
-3.86886
-3.82985
-3.78633
-3.73813
-3.68434
-462.973
-439.532
-416.098
-387.063
-349.863
-309.261
-269.715
-234.066
-202.128
-172.4
-144.282
-118.132
-94.5202
-73.8468
-56.3183
-42.0584
-30.8874
-22.4376
-16.2653
-11.9194
-8.97608
-7.0642
-5.87612
-5.17233
-4.77387
-4.55861
-4.44711
-4.39077
-4.36001
-4.33868
-4.31865
-4.29614
-4.26965
-4.2387
-4.20327
-4.16349
-4.11945
-4.07003
-4.01517
-3.95412
-415.299
-389.797
-367.542
-346.402
-322.481
-296.795
-269.825
-241.925
-212.827
-182.416
-151.477
-121.516
-94.2599
-71.0094
-52.3007
-37.9804
-27.3581
-19.6952
-14.3275
-10.6855
-8.2968
-6.78749
-5.87332
-5.33865
-5.03616
-4.8708
-4.78208
-4.73288
-4.70155
-4.67627
-4.65101
-4.62291
-4.59077
-4.55415
-4.51293
-4.46712
-4.41668
-4.36017
-4.29743
-4.22787
303.34
293.912
283.019
262.563
232.917
198.611
163.577
131.023
103.526
82.6471
67.7318
56.5297
46.7674
37.2676
28.0478
19.7253
12.7165
7.16365
3.00338
0.0362105
-1.98882
-3.30885
-4.12588
-4.60732
-4.87423
-5.00836
-5.06412
-5.07572
-5.06333
-5.03806
-5.00552
-4.96822
-4.92704
-4.88209
-4.83313
-4.77988
-4.72195
-4.65733
-4.58551
-4.50595
506.056
485.549
469.329
447.711
416.641
378.776
335.508
289.508
244.565
203.239
166.426
133.499
103.891
77.7697
55.679
37.9703
24.4106
14.4368
7.3511
2.48794
-0.728713
-2.7747
-4.02127
-4.74315
-5.13686
-5.33498
-5.41961
-5.44102
-5.42886
-5.39936
-5.36073
-5.31671
-5.26864
-5.21677
-5.16082
-5.10044
-5.03504
-4.96207
-4.88058
-4.78979
-90.127
-85.4191
-78.2554
-67.0748
-51.8739
-35.7614
-23.0707
-16.2405
-14.4587
-14.7017
-15.0231
-15.0507
-14.8577
-14.3542
-13.4366
-12.2074
-10.8608
-9.58679
-8.50892
-7.6654
-7.04288
-6.6058
-6.31361
-6.12794
-6.01209
-5.9359
-5.88158
-5.83782
-5.79756
-5.75672
-5.71313
-5.66568
-5.61383
-5.55725
-5.49568
-5.42888
-5.35645
-5.27547
-5.18454
-5.08184
-572.161
-541.741
-512.879
-479.955
-439.181
-394.543
-349.86
-307.459
-267.278
-228.677
-191.541
-156.499
-124.517
-96.4922
-72.9922
-54.1653
-39.6525
-28.8423
-21.0563
-15.6408
-12.0126
-9.66859
-8.20707
-7.32445
-6.81166
-6.52044
-6.35468
-6.25559
-6.18853
-6.1343
-6.08291
-6.02952
-5.97196
-5.90933
-5.8412
-5.76741
-5.6876
-5.59844
-5.49832
-5.3813
-156.198
-142.818
-133.09
-128.958
-127.305
-126.501
-124.206
-119.027
-109.926
-96.7024
-80.6195
-63.8143
-48.4288
-35.8426
-26.3952
-19.7117
-15.1983
-12.193
-10.2081
-8.91482
-8.08091
-7.55902
-7.23197
-7.02357
-6.88661
-6.79075
-6.71712
-6.65439
-6.59589
-6.53776
-6.47778
-6.41467
-6.34768
-6.2763
-6.20012
-6.11879
-6.03173
-5.93561
-5.83283
-5.71007
498.953
479.595
461.598
434.101
395.01
349.472
301.201
253.749
210.429
173.17
141.948
115.182
91.2712
69.6386
50.5969
34.651
22.0228
12.4853
5.57592
0.771194
-2.43451
-4.47586
-5.71856
-6.43415
-6.81505
-6.99253
-7.0522
-7.04676
-7.00689
-6.94929
-6.8824
-6.81005
-6.73376
-6.654
-6.57091
-6.48476
-6.39619
-6.30657
-6.21909
-6.18178
327.012
313.325
303.814
293.179
278.512
259.869
235.497
205.774
173.773
142.815
114.66
89.5917
67.4372
48.3822
32.7534
20.6382
11.6195
5.09641
0.518054
-2.59185
-4.63021
-5.91322
-6.68285
-7.1225
-7.3536
-7.45535
-7.47974
-7.4591
-7.41252
-7.3508
-7.27976
-7.20233
-7.11995
-7.03329
-6.9428
-6.84882
-6.7518
-6.65333
-6.55785
-6.50168
-361.003
-343.206
-324.558
-300.257
-268.583
-233.856
-200.785
-172.504
-148.849
-127.693
-107.911
-89.574
-73.0865
-58.6504
-46.3159
-36.1501
-28.0546
-21.8367
-17.2365
-13.9595
-11.7131
-10.2344
-9.29834
-8.71828
-8.36851
-8.15556
-8.01914
-7.92141
-7.84005
-7.76283
-7.68369
-7.60001
-7.51097
-7.4166
-7.31722
-7.2132
-7.10489
-6.99361
-6.88303
-6.80206
-512.822
-483.438
-456.815
-429.181
-396.525
-361.102
-324.87
-288.923
-253.178
-217.363
-181.878
-147.79
-116.649
-89.7179
-67.6485
-50.404
-37.3925
-27.8751
-21.1223
-16.4848
-13.4073
-11.4243
-10.1816
-9.42545
-8.97193
-8.69721
-8.52233
-8.39887
-8.29862
-8.20618
-8.1137
-8.01765
-7.91667
-7.81047
-7.69919
-7.58301
-7.46218
-7.33773
-7.21276
-7.11246
153.529
151.557
147.049
133.657
112.819
88.3138
63.9616
42.6632
26.6694
17.042
12.7379
11.3229
10.3985
8.62175
5.87732
2.70698
-0.375407
-3.03906
-5.136
-6.64949
-7.67197
-8.32722
-8.71531
-8.91676
-8.99405
-8.99283
-8.94421
-8.86794
-8.77572
-8.67397
-8.56594
-8.45307
-8.33591
-8.21459
-8.08911
-7.95938
-7.82537
-7.68783
-7.54936
-7.43226
537.984
516.295
498.253
472.907
436.311
392.364
343.669
293.911
246.762
204.383
167.103
133.924
104.013
77.3822
54.6066
36.0992
21.8084
11.2392
3.72731
-1.41181
-4.79183
-6.91834
-8.18853
-8.89594
-9.24814
-9.38548
-9.39831
-9.34214
-9.24937
-9.13769
-9.0161
-8.88872
-8.75717
-8.6219
-8.4829
-8.34002
-8.19315
-8.04288
-7.89148
-7.75884
55.2915
53.084
53.9777
57.2843
61.9208
65.8384
65.5061
59.2848
48.816
37.3078
26.7363
17.4691
9.48577
2.96556
-1.92484
-5.27243
-7.4418
-8.77714
-9.56197
-9.99888
-10.2148
-10.2927
-10.2883
-10.236
-10.1557
-10.0586
-9.95068
-9.83494
-9.71298
-9.58562
-9.45328
-9.31619
-9.1745
-9.0283
-8.87771
-8.72279
-8.56367
-8.40103
-8.23696
-8.0893
-539.79
-512.067
-485.254
-453.558
-413.718
-370.128
-326.879
-286.47
-248.905
-213.298
-179.409
-147.741
-119.032
-93.8923
-72.6989
-55.623
-42.3339
-32.3442
-25.0785
-19.9664
-16.4783
-14.1669
-12.6807
-11.7457
-11.1606
-10.7874
-10.5351
-10.3466
-10.1882
-10.0411
-9.8958
-9.74768
-9.59501
-9.43732
-9.2747
-9.1074
-8.93577
-8.76053
-8.5836
-8.42095
-308.13
-287.61
-270.651
-257.008
-243.136
-228.75
-212.722
-194.621
-173.918
-150.649
-125.956
-101.667
-79.6601
-61.2051
-46.6858
-35.8267
-27.9562
-22.3642
-18.4828
-15.8668
-14.1279
-12.9884
-12.2478
-11.7618
-11.431
-11.1903
-10.9983
-10.8301
-10.6713
-10.5142
-10.3549
-10.1916
-10.0237
-9.85117
-9.6742
-9.49299
-9.30785
-9.11935
-8.92909
-8.75123
406.329
391.362
376.305
351.557
316.133
274.942
232.032
191.027
154.947
125.439
101.996
82.6009
65.2955
49.2328
34.633
22.1319
12.0199
4.28911
-1.35958
-5.29254
-7.9223
-9.59703
-10.5974
-11.1413
-11.3892
-11.453
-11.4071
-11.2983
-11.1545
-10.9917
-10.8182
-10.6381
-10.4532
-10.2644
-10.072
-9.87612
-9.6769
-9.4747
-9.27072
-9.07748
429.811
411.575
397.596
379.902
354.676
323.604
287.098
247.205
207.557
170.833
137.865
108.355
81.9008
58.707
39.278
23.8994
12.2893
3.83078
-2.09537
-6.08399
-8.67664
-10.2873
-11.2276
-11.7243
-11.9377
-11.9768
-11.9121
-11.7875
-11.6294
-11.4527
-11.2652
-11.071
-10.8719
-10.6689
-10.4623
-10.2524
-10.0393
-9.82343
-9.60562
-9.39695
-230.344
-219.509
-207.316
-190.817
-169.152
-145.576
-123.866
-106.48
-93.0148
-81.4409
-70.649
-60.6905
-51.8205
-44.0363
-37.2351
-31.4333
-26.5943
-22.7037
-19.718
-17.5191
-15.9308
-14.8072
-14.022
-13.4717
-13.0757
-12.7748
-12.5284
-12.3103
-12.1043
-11.9017
-11.6977
-11.4902
-11.2785
-11.0625
-10.8426
-10.619
-10.3923
-10.1628
-9.93103
-9.70691
-577.392
-545.473
-515.805
-483.552
-444.752
-402.543
-359.734
-318.09
-277.772
-238.563
-200.627
-164.773
-132.156
-103.782
-80.2247
-61.4879
-47.1208
-36.4504
-28.7583
-23.3572
-19.6599
-17.203
-15.5991
-14.561
-13.8823
-13.4211
-13.0843
-12.814
-12.5758
-12.3507
-12.1287
-11.9052
-11.6783
-11.4474
-11.2127
-10.9747
-10.7338
-10.4901
-10.2442
-10.0046
-25.6629
-18.4789
-14.4118
-17.6375
-26.0074
-36.8922
-46.8505
-53.4207
-55.1267
-51.6809
-44.5176
-36.0015
-28.2648
-22.4795
-18.7394
-16.5934
-15.5178
-15.0079
-14.7606
-14.6138
-14.4978
-14.3776
-14.2375
-14.0741
-13.8898
-13.689
-13.4761
-13.2543
-13.026
-12.7927
-12.5551
-12.3137
-12.0688
-11.8207
-11.5698
-11.3162
-11.0604
-10.8024
-10.5421
-10.2871
522.569
501.073
482.203
454.796
415.397
368.765
318.619
269.123
224.004
184.761
150.937
120.965
93.6748
69.0082
47.5647
29.8838
16.1337
5.89454
-1.39923
-6.42128
-9.73148
-11.8001
-13.0064
-13.6375
-13.8999
-13.9352
-13.8364
-13.6615
-13.445
-13.2064
-12.956
-12.6991
-12.4379
-12.1738
-11.9072
-11.6385
-11.3681
-11.0958
-10.8214
-10.5513
216.806
206.328
199.318
192.127
182.196
169.297
151.932
130.665
108.072
86.6774
67.4777
50.2627
34.8477
21.5261
10.6854
2.46879
-3.5384
-7.76174
-10.6222
-12.4661
-13.5993
-14.2449
-14.5599
-14.6567
-14.6135
-14.4822
-14.2961
-14.0765
-13.836
-13.5823
-13.3198
-13.0509
-12.7772
-12.4999
-12.2196
-11.937
-11.6529
-11.3669
-11.0787
-10.794
-444.147
-422.34
-400.769
-374.48
-341.144
-304.614
-268.368
-234.742
-203.999
-175.172
-148.075
-123.166
-100.948
-81.6712
-65.3982
-52.1604
-41.7303
-33.7488
-27.8444
-23.6038
-20.6232
-18.587
-17.2134
-16.287
-15.6486
-15.1853
-14.8216
-14.5097
-14.2213
-13.941
-13.661
-13.3779
-13.0908
-12.7999
-12.5059
-12.2095
-11.9117
-11.6123
-11.3107
-11.0119
-461.558
-432.97
-407.34
-382.406
-354.456
-324.988
-294.525
-263.47
-231.817
-199.548
-167.466
-136.936
-109.43
-86.0051
-67.0789
-52.3846
-41.2974
-33.177
-27.4002
-23.3633
-20.5966
-18.734
-17.4853
-16.6369
-16.0383
-15.5877
-15.2195
-14.8938
-14.5873
-14.2874
-13.988
-13.6863
-13.3816
-13.0742
-12.7645
-12.4534
-12.1416
-11.8287
-11.514
-11.2019
226.006
220.873
214.077
197.93
172.58
142.354
111.99
85.3535
64.7325
50.4911
40.8271
33.191
25.7334
17.9018
10.1596
3.16835
-2.68811
-7.24618
-10.5559
-12.8535
-14.356
-15.2573
-15.7251
-15.8935
-15.8645
-15.7107
-15.4816
-15.209
-14.9121
-14.6019
-14.2847
-13.9635
-13.64
-13.315
-12.9893
-12.6634
-12.3379
-12.0121
-11.6849
-11.3605
504.344
481.883
463.046
437.581
400.931
357.22
309.964
263.519
221.161
183.444
149.54
118.289
89.4415
63.6407
41.7734
24.3136
11.0521
1.40352
-5.32721
-9.85264
-12.7574
-14.5102
-15.4754
-15.9216
-16.0382
-15.9536
-15.7512
-15.4826
-15.1786
-14.8561
-14.5245
-14.1885
-13.8503
-13.5112
-13.172
-12.8332
-12.4955
-12.158
-11.8196
-11.4842
-9.42983
-10.915
-10.5606
-9.05081
-7.72646
-7.2582
-8.69906
-11.7121
-14.9662
-17.3329
-18.9768
-20.4111
-21.7194
-22.6199
-22.8952
-22.5883
-21.8878
-21.0128
-20.1585
-19.3754
-18.6908
-18.1063
-17.6067
-17.1715
-16.7807
-16.4173
-16.0689
-15.7271
-15.3867
-15.0452
-14.7014
-14.3552
-14.007
-13.6575
-13.3077
-12.9583
-12.6102
-12.2627
-11.9145
-11.5699
-564.798
-535.066
-506.925
-475.275
-436.997
-395.369
-352.728
-310.791
-270.09
-230.898
-193.77
-159.507
-128.919
-102.598
-80.7948
-63.3739
-49.8847
-39.7806
-32.3938
-27.127
-23.4668
-20.9772
-19.2999
-18.164
-17.3727
-16.7892
-16.3239
-15.9212
-15.5484
-15.1878
-14.8307
-14.4733
-14.1146
-13.755
-13.3953
-13.0363
-12.6792
-12.323
-11.9665
-11.6145
-270.618
-249.659
-232.087
-218.841
-206.968
-195.573
-182.063
-165.238
-145.153
-123.015
-100.947
-80.9396
-64.2078
-51.0519
-41.1894
-34.0088
-28.8625
-25.2246
-22.682
-20.9106
-19.6708
-18.7857
-18.1272
-17.6065
-17.1651
-16.7662
-16.3879
-16.0181
-15.6505
-15.2825
-14.9132
-14.5428
-14.1719
-13.8012
-13.4316
-13.0639
-12.699
-12.3357
-11.9727
-11.6154
412.212
397.104
382.307
357.462
320.48
277.245
233.827
195.294
163.698
137.678
114.564
92.3984
70.8439
50.7355
33.1501
18.6769
7.38438
-1.02614
-7.04106
-11.1548
-13.8218
-15.434
-16.3084
-16.6871
-16.7459
-16.6073
-16.3523
-16.0321
-15.6776
-15.3064
-14.9278
-14.5469
-14.1662
-13.787
-13.41
-13.036
-12.6657
-12.2975
-11.9303
-11.5704
398.622
379.171
362.896
341.715
311.018
274.4
235.429
198.216
164.942
135.25
107.843
82.1341
58.6725
38.5082
22.1488
9.49465
0.150049
-6.4173
-10.864
-13.7366
-15.4805
-16.4422
-16.8807
-16.9817
-16.8723
-16.6367
-16.3286
-15.9808
-15.6125
-15.2342
-14.8518
-14.4682
-14.0851
-13.7036
-13.3244
-12.9483
-12.576
-12.206
-11.8373
-11.4777
-250.485
-241.413
-232.15
-220.503
-206.531
-191.421
-175.628
-159.251
-142.176
-124.83
-108.037
-92.364
-78.0719
-65.3664
-54.3455
-45.0926
-37.6087
-31.7841
-27.3622
-24.0897
-21.7169
-20.0186
-18.8041
-17.9209
-17.2536
-16.7197
-16.2633
-15.849
-15.4555
-15.0711
-14.69
-14.3097
-13.93
-13.5511
-13.174
-12.7995
-12.4285
-12.0598
-11.6925
-11.3364
-574.325
-541.086
-510.4
-478.194
-441.419
-402.479
-361.949
-320.24
-277.942
-235.767
-195.13
-157.828
-125.276
-98.1974
-76.4838
-59.5833
-46.7854
-37.3674
-30.5876
-25.8181
-22.5347
-20.3085
-18.8052
-17.7749
-17.04
-16.4798
-16.0169
-15.6044
-15.2154
-14.8359
-14.4595
-14.0837
-13.7082
-13.3335
-12.9605
-12.5902
-12.2235
-11.8589
-11.4959
-11.1464
11.1061
18.3129
22.311
18.0822
6.93905
-6.29357
-16.0258
-18.9373
-15.197
-8.24623
-2.00141
1.34098
1.52239
-0.547361
-3.72368
-7.05095
-9.98994
-12.2871
-13.9735
-15.1297
-15.8502
-16.2319
-16.3623
-16.3135
-16.1417
-15.8885
-15.5835
-15.2471
-14.8925
-14.5281
-14.159
-13.7884
-13.4182
-13.0496
-12.6834
-12.3203
-11.961
-11.6038
-11.2481
-10.9088
511.66
491.005
471.839
442.708
400.077
351.659
304.795
263.532
227.289
193.201
159.443
126.341
95.5579
68.4528
45.8348
27.7276
13.817
3.54251
-3.73917
-8.67687
-11.8595
-13.7835
-14.8409
-15.3245
-15.4438
-15.3421
-15.1125
-14.813
-14.4779
-14.1264
-13.7684
-13.4091
-13.0507
-12.6943
-12.3403
-11.9893
-11.6417
-11.2956
-10.9509
-10.6251
206.856
194.934
184.053
168.771
145.859
119.211
93.0977
70.819
52.6316
37.0176
23.3345
11.9387
2.95016
-3.71462
-8.46167
-11.718
-13.8679
-15.2097
-15.9555
-16.2768
-16.3166
-16.1785
-15.936
-15.6372
-15.3109
-14.9731
-14.6321
-14.2913
-13.9518
-13.6135
-13.2762
-12.9396
-12.6034
-12.2679
-11.9332
-11.5999
-11.2685
-10.9376
-10.6073
-10.2985
-457.17
-437.12
-418.637
-397.628
-372.798
-345.473
-315.895
-284.522
-251.997
-218.97
-186.447
-155.36
-126.595
-101.144
-79.5816
-62.0283
-48.2751
-37.8839
-30.2913
-24.9007
-21.1631
-18.6231
-16.9192
-15.7766
-14.9951
-14.4354
-14.0045
-13.644
-13.3185
-13.0083
-12.703
-12.3976
-12.0904
-11.7812
-11.4704
-11.1588
-10.8473
-10.5347
-10.2216
-9.93283
-429.978
-403.677
-380.718
-358.535
-334.271
-307.424
-276.554
-241.275
-202.838
-164.066
-128.379
-98.6365
-75.662
-58.6192
-46.0542
-36.7089
-29.7524
-24.6562
-21.0144
-18.4598
-16.6996
-15.5035
-14.6917
-14.1295
-13.7201
-13.3974
-13.1187
-12.8584
-12.6021
-12.3428
-12.0777
-11.8064
-11.5294
-11.2477
-10.9624
-10.6745
-10.385
-10.093
-9.79933
-9.53374
283.753
277.637
270.306
253.501
226.933
198.268
173.734
155.705
141.926
128.312
112.244
93.5356
73.6692
54.5691
37.7095
23.7985
12.9054
4.72824
-1.19325
-5.35551
-8.18175
-10.0191
-11.1485
-11.7872
-12.0964
-12.1912
-12.1502
-12.0252
-11.849
-11.6418
-11.4153
-11.1764
-10.929
-10.6753
-10.4167
-10.1542
-9.88859
-9.61897
-9.34668
-9.10549
496.727
474.856
454.235
424.696
382.844
336.343
291.19
250.199
212.746
177.381
144.039
113.434
86.2659
63.0525
43.872
28.4767
16.4728
7.40345
0.792705
-3.84609
-6.9757
-8.99281
-10.2214
-10.9125
-11.2505
-11.3651
-11.3431
-11.2398
-11.0891
-10.9103
-10.7144
-10.5071
-10.2912
-10.0683
-9.83926
-9.60473
-9.36536
-9.12015
-8.87067
-8.65434
-9.33115
-11.813
-15.7429
-23.4688
-35.5615
-48.1064
-57.4643
-62.8224
-65.2246
-65.374
-63.5274
-59.4899
-53.279
-45.744
-38.0394
-31.0993
-25.4067
-21.0366
-17.8243
-15.5248
-13.9109
-12.7945
-12.029
-11.5037
-11.1363
-10.8675
-10.6564
-10.4761
-10.3092
-10.1453
-9.97836
-9.80528
-9.62463
-9.43598
-9.23943
-9.03532
-8.82428
-8.60547
-8.3804
-8.19142
-545.214
-516.997
-491.321
-464.018
-432.147
-396.814
-358.376
-317.923
-276.832
-236.66
-198.549
-163.518
-132.189
-104.771
-81.3598
-62.031
-46.7225
-35.1166
-26.6721
-20.739
-16.6874
-13.9974
-12.2607
-11.1682
-10.4937
-10.0779
-9.81309
-9.62996
-9.48586
-9.35598
-9.22679
-9.09155
-8.94737
-8.79341
-8.62972
-8.45669
-8.27498
-8.08393
-7.88494
-7.7251
-237.896
-221.942
-208.708
-196.609
-182.556
-164.274
-140.379
-111.714
-81.2214
-53.4258
-32.3115
-19.2072
-12.7151
-10.237
-9.51143
-9.27506
-9.09946
-8.93973
-8.81646
-8.75407
-8.72347
-8.7143
-8.71872
-8.72789
-8.73407
-8.73097
-8.71413
-8.68106
-8.63093
-8.56408
-8.48153
-8.38459
-8.2746
-8.15281
-8.02022
-7.87757
-7.72562
-7.56377
-7.39314
-7.26581
423.58
409.528
396.779
376.305
346.305
313.899
283.025
254.333
226.32
197.486
167.64
137.748
109.149
83.295
61.138
42.9788
28.6405
17.6835
9.54716
3.68032
-0.447731
-3.26592
-5.12556
-6.30919
-7.03274
-7.45353
-7.68083
-7.78712
-7.81855
-7.80334
-7.75814
-7.69247
-7.61163
-7.5186
-7.41507
-7.30205
-7.18042
-7.05001
-6.91202
-6.82373
425.291
404.384
383.776
355.237
315.978
272.966
231.434
193.798
159.988
129.768
103.14
80.0874
60.8754
45.2633
32.6954
22.6098
14.577
8.29276
3.51183
-0.00881565
-2.51987
-4.25093
-5.40263
-6.14074
-6.59453
-6.86003
-7.00473
-7.07364
-7.09523
-7.0866
-7.05754
-7.01343
-6.95719
-6.8905
-6.81445
-6.72998
-6.63857
-6.54159
-6.4413
-6.39689
-133.495
-128.528
-126.076
-127.459
-131.206
-134.031
-133.395
-129.055
-122.049
-113.444
-103.515
-91.8101
-78.5384
-64.6083
-51.2758
-39.5797
-30.0686
-22.7699
-17.4093
-13.6033
-10.9768
-9.21614
-8.07288
-7.35667
-6.92555
-6.67705
-6.53996
-6.46657
-6.42618
-6.39978
-6.37605
-6.34867
-6.31432
-6.27162
-6.22028
-6.16093
-6.09586
-6.0279
-5.95632
-5.9624
-543.91
-513.64
-486.262
-457.439
-423.237
-384.57
-342.066
-297.757
-254.371
-214.014
-177.825
-146.037
-118.193
-93.7955
-72.705
-55.0414
-40.8676
-29.9985
-22.0153
-16.3537
-12.4434
-9.81707
-8.11077
-7.04447
-6.40795
-6.04834
-5.85897
-5.7683
-5.73027
-5.71683
-5.71128
-5.70437
-5.69128
-5.66973
-5.63881
-5.5985
-5.5501
-5.49165
-5.43824
-5.35099
-160.28
-147.652
-136.402
-125.41
-111.882
-94.0231
-71.6781
-46.8053
-22.9774
-4.24179
7.18355
11.6096
11.1565
8.40472
5.24351
2.54718
0.46663
-1.08392
-2.20762
-3.02443
-3.614
-4.02896
-4.31993
-4.52675
-4.67753
-4.79086
-4.87825
-4.94666
-5.00004
-5.04066
-5.06972
-5.08786
-5.09538
-5.09239
-5.07889
-5.05489
-5.0209
-4.97302
-4.91673
-4.81822
436.657
420.586
406.947
387.472
359.39
328.436
297.112
265.939
234.501
202.656
170.933
140.147
111.547
86.1921
64.6467
46.9859
32.9704
22.1539
14.0231
8.08524
3.85943
0.929844
-1.04221
-2.33263
-3.15658
-3.67333
-3.99489
-4.19607
-4.32448
-4.40896
-4.4661
-4.50488
-4.5298
-4.54286
-4.54468
-4.5352
-4.51432
-4.4777
-4.42801
-4.34424
394.515
373.613
352.03
322.541
283.006
240.879
201.174
165.94
135.224
108.708
85.9645
67.0303
51.6788
39.3459
29.3973
21.3381
14.846
9.71431
5.77152
2.83186
0.700437
-0.803176
-1.83736
-2.53371
-2.99647
-3.3039
-3.51153
-3.65651
-3.7624
-3.84318
-3.90663
-3.95669
-3.99506
-4.02228
-4.03819
-4.0423
-4.03426
-4.01028
-3.97245
-3.90607
-118.953
-113.852
-112.54
-116.675
-123.364
-128.361
-129.061
-125.848
-120.196
-113.01
-103.638
-91.6507
-77.5836
-62.8117
-48.8736
-36.8366
-27.1334
-19.6974
-14.2133
-10.2976
-7.58745
-5.77119
-4.60941
-3.9037
-3.50647
-3.30974
-3.23712
-3.2368
-3.27498
-3.33041
-3.39023
-3.44694
-3.49628
-3.53587
-3.56432
-3.58071
-3.58471
-3.5732
-3.54823
-3.49886
-512.637
-483.395
-456.625
-428.122
-393.614
-354.245
-311.482
-268.261
-228.039
-192.141
-160.663
-132.758
-107.544
-84.7774
-64.802
-48.0697
-34.7454
-24.6282
-17.2536
-12.0446
-8.47075
-6.08803
-4.56274
-3.63685
-3.1145
-2.85272
-2.75123
-2.74257
-2.78317
-2.84611
-2.91547
-2.98225
-3.04157
-3.0909
-3.1289
-3.15483
-3.16858
-3.1676
-3.15385
-3.11898
-179.13
-166.355
-153.882
-139.147
-119.08
-93.1443
-63.1932
-33.2636
-8.09248
8.7788
16.8554
18.171
15.8229
12.3938
9.22742
6.66694
4.61686
2.98533
1.70502
0.702692
-0.0630095
-0.64048
-1.07507
-1.4055
-1.66204
-1.86662
-2.03439
-2.1754
-2.29616
-2.40071
-2.49145
-2.56974
-2.63625
-2.69122
-2.73466
-2.76643
-2.7867
-2.79325
-2.78789
-2.76421
441.592
425.731
412.912
395.252
370.371
342.645
313.016
281.249
247.306
211.759
176.14
142.447
112.29
86.5021
65.1954
48.0312
34.526
24.1127
16.2656
10.5106
6.3886
3.51023
1.55398
0.255991
-0.590405
-1.13856
-1.49655
-1.73687
-1.90587
-2.03177
-2.13083
-2.21186
-2.2793
-2.33512
-2.38004
-2.4142
-2.43782
-2.44877
-2.44875
-2.43286
403.094
383.314
362.313
331.97
291.286
247.888
206.59
169.504
137.102
109.244
85.9477
67.0308
51.9019
39.7888
30.0138
22.121
15.8305
10.9326
7.22155
4.4848
2.51403
1.13058
0.182318
-0.456814
-0.88525
-1.17593
-1.37981
-1.53044
-1.64856
-1.74618
-1.82969
-1.90216
-1.96482
-2.01801
-2.06164
-2.09553
-2.11978
-2.13225
-2.13461
-2.12328
-175.547
-167.06
-162.839
-163.383
-164.554
-163.244
-158.28
-150.91
-142.176
-131.346
-117.441
-100.708
-82.6153
-65.0208
-49.3708
-36.3983
-26.1991
-18.4854
-12.8259
-8.79099
-5.99583
-4.1209
-2.9106
-2.16743
-1.74186
-1.52422
-1.43696
-1.42716
-1.46005
-1.5136
-1.57441
-1.63467
-1.69001
-1.73812
-1.77786
-1.80869
-1.83068
-1.8417
-1.84351
-1.83364
-506.458
-479.487
-454.011
-424.602
-386.673
-342.737
-296.682
-253.481
-216.134
-184.398
-156.478
-130.665
-106.292
-83.7042
-63.6861
-46.8729
-33.512
-23.3664
-15.9411
-10.6831
-7.08107
-4.67678
-3.13458
-2.19451
-1.65837
-1.38171
-1.26383
-1.23752
-1.25995
-1.305
-1.35757
-1.40938
-1.4562
-1.49605
-1.52812
-1.55215
-1.56837
-1.57469
-1.57298
-1.56159
-97.0204
-91.2845
-84.4219
-73.2688
-54.9497
-29.9633
-2.59113
21.119
36.0274
40.8645
38.0429
31.3437
23.9401
17.5653
12.7033
9.18837
6.59686
4.6553
3.16641
2.02483
1.16186
0.520669
0.0498718
-0.294776
-0.547867
-0.735298
-0.875977
-0.983383
-1.06694
-1.13308
-1.18611
-1.2288
-1.26287
-1.28941
-1.30903
-1.32207
-1.32893
-1.32746
-1.31951
-1.304
476.625
458.152
443.656
424.978
399.489
370.312
337.743
301.787
263.182
223.479
185.025
149.812
118.791
92.128
69.7719
51.5278
37.0892
25.9395
17.564
11.4555
7.13902
4.16338
2.17524
0.889389
0.0830315
-0.408721
-0.701515
-0.872883
-0.972568
-1.03108
-1.06625
-1.088
-1.10149
-1.10927
-1.11241
-1.11129
-1.10618
-1.09465
-1.07846
-1.05682
314.477
302.27
288.612
265.905
235.055
201.047
167.087
135.236
106.759
82.9898
64.592
50.9401
40.6286
32.2884
25.1157
18.8972
13.656
9.40884
6.11488
3.68609
1.97352
0.802022
0.0358766
-0.442309
-0.720857
-0.873295
-0.949234
-0.981349
-0.990043
-0.987087
-0.978712
-0.967839
-0.955574
-0.942138
-0.92736
-0.910926
-0.892714
-0.870009
-0.84447
-0.815409
-328.67
-310.094
-295.448
-283.445
-269.779
-254.365
-237.391
-219.703
-200.683
-179.134
-154.926
-129.252
-103.989
-80.9002
-61.1384
-45.1344
-32.6664
-23.2427
-16.3
-11.3083
-7.81291
-5.40751
-3.78583
-2.71542
-2.02439
-1.58492
-1.30803
-1.13326
-1.02072
-0.944963
-0.890282
-0.847276
-0.810495
-0.776878
-0.744731
-0.713095
-0.681586
-0.647348
-0.612012
-0.574888
-490.703
-465.647
-441.348
-411.792
-372.895
-328.93
-285.189
-246.429
-213.552
-184.688
-157.827
-132.217
-108.122
-86.1211
-66.6721
-50.2304
-36.9346
-26.5505
-18.7087
-12.981
-8.90639
-6.09263
-4.18824
-2.92911
-2.12147
-1.61034
-1.28831
-1.08273
-0.94627
-0.849518
-0.774995
-0.712763
-0.657427
-0.606201
-0.557694
-0.511189
-0.466458
-0.420714
-0.375602
-0.330311
47.0644
45.4941
46.895
51.8931
60.9623
72.5839
82.37
85.6005
80.854
70.5603
58.1338
45.7922
34.5481
24.9408
17.2894
11.6019
7.52142
4.64532
2.64142
1.26874
0.354397
-0.225591
-0.586016
-0.785844
-0.878232
-0.901623
-0.881477
-0.835069
-0.773752
-0.70488
-0.633112
-0.561315
-0.491191
-0.423709
-0.359366
-0.298337
-0.240758
-0.184
-0.12966
-0.0766867
513.437
491.817
474.491
452.411
422.07
386.53
346.806
304.399
261.703
221.19
184.623
152.176
122.997
96.799
73.8498
54.5531
39.0477
27.0402
18.0552
11.5474
6.99088
3.9233
1.93719
0.699924
-0.0257532
-0.415947
-0.592765
-0.642252
-0.619189
-0.557557
-0.477682
-0.391172
-0.304335
-0.220413
-0.140933
-0.0664818
0.00269255
0.0691337
0.131392
0.190845
226.714
219.685
210.948
194.04
170.057
142.871
115.322
89.6838
67.8243
51.4956
40.8984
34.5101
30.111
26.0027
21.532
16.9034
12.5589
8.79061
5.74206
3.42487
1.76275
0.636993
-0.0745523
-0.480642
-0.675617
-0.73354
-0.705411
-0.628194
-0.526484
-0.414712
-0.301067
-0.190184
-0.0845208
0.0147261
0.10707
0.192423
0.270774
0.344606
0.412657
0.476454
-402.377
-378.655
-358.762
-340.648
-320.068
-297.993
-275.04
-251.765
-227.205
-200.491
-171.734
-142.3
-114.013
-88.5227
-66.866
-49.378
-35.7517
-25.4196
-17.7845
-12.272
-8.38515
-5.70413
-3.88435
-2.66327
-1.84221
-1.28847
-0.902643
-0.621864
-0.405245
-0.228252
-0.076713
0.0575087
0.178893
0.289782
0.391367
0.484285
0.568814
0.647297
0.718679
0.784757
-460.863
-436.581
-412.833
-384.271
-347.553
-307.299
-268.256
-233.879
-204.061
-176.93
-151.153
-126.588
-103.684
-82.951
-64.6739
-49.2039
-36.584
-26.6003
-18.9336
-13.2236
-9.07946
-6.14265
-4.10497
-2.7131
-1.77142
-1.13366
-0.692589
-0.375742
-0.135741
0.0569792
0.21998
0.363212
0.492027
0.609146
0.715889
0.812913
0.900495
0.980658
1.05257
1.11821
115.499
111.673
111.363
113.564
117.577
121.92
122.739
116.885
104.438
88.5112
72.0811
56.7157
42.9837
31.2436
21.7838
14.6633
9.49139
5.85613
3.37604
1.74191
0.730479
0.15313
-0.132613
-0.229927
-0.210668
-0.122456
0.00374242
0.148333
0.299221
0.449114
0.59373
0.730608
0.858375
0.976303
1.08405
1.18155
1.2688
1.34736
1.41667
1.47875
522.293
500.48
482.596
459.314
426.955
389.008
347.031
303.16
259.951
219.648
183.637
151.599
122.756
96.7944
73.9916
54.7715
39.3145
27.3915
18.5216
12.1483
7.71583
4.75267
2.86169
1.72215
1.08844
0.784279
0.683491
0.702028
0.78594
0.901758
1.02958
1.15808
1.28111
1.39552
1.49983
1.59347
1.67631
1.74938
1.81247
1.86754
187.329
182.127
174.396
158.244
135.246
109.597
84.2029
61.2545
42.6663
30.0758
23.3573
20.7274
19.7877
18.7063
16.739
14.0667
11.1866
8.4473
6.11604
4.31137
2.99194
2.08162
1.5012
1.17213
1.02344
0.997279
1.04847
1.14499
1.265
1.39423
1.52371
1.64803
1.76412
1.87033
1.96589
2.05052
2.12418
2.18739
2.2403
2.28468
-418.471
-393.671
-372.768
-353.348
-331.073
-307.103
-282.546
-258.374
-233.47
-206.443
-177.094
-146.629
-117.016
-90.1107
-67.1379
-48.5703
-34.1489