/*--------------------------------*- C++ -*----------------------------------*\
  =========                 |
  \\      /  F ield         | OpenFOAM: The Open Source CFD Toolbox
   \\    /   O peration     | Website:  https://openfoam.org
    \\  /    A nd           | Version:  7
     \\/     M anipulation  |
\*---------------------------------------------------------------------------*/
FoamFile
{
    version     2.0;
    format      ascii;
    class       volVectorField;
    location    "2";
    object      U;
}
// * * * * * * * * * * * * * * * * * * * * * * * * * * * * * * * * * * * * * //

dimensions      [0 1 -1 0 0 0 0];

internalField   nonuniform List<vector> 
344
(
(1.06446 -0.000272865 1.0112e-14)
(1.06425 -0.000778465 5.42947e-15)
(1.06462 -0.000687973 8.69814e-15)
(1.06416 -0.000824403 5.07425e-15)
(1.06433 -0.000801658 7.49557e-15)
(1.06439 -0.00127837 4.64277e-15)
(1.06376 -0.000748955 6.92322e-15)
(1.06475 -0.00168544 4.47307e-15)
(1.06311 -0.00114905 5.89477e-15)
(1.0651 -0.00167117 4.24095e-15)
(1.06252 -0.00196352 4.55746e-15)
(1.06535 -0.00174415 3.7034e-15)
(1.06209 -0.00278447 3.11671e-15)
(1.06532 -0.00220598 2.83321e-15)
(1.06191 -0.00364613 2.28998e-15)
(1.06512 -0.00315493 2.6852e-15)
(1.06155 -0.00455464 1.56228e-15)
(1.06496 -0.00470828 2.54481e-15)
(1.06097 -0.00548788 5.49308e-16)
(1.06471 -0.00701151 2.06867e-15)
(1.05999 -0.00665788 -8.85763e-16)
(1.06447 -0.00948343 1.22755e-15)
(1.05888 -0.00900358 -1.57964e-15)
(1.06359 -0.0116817 5.7875e-16)
(1.05812 -0.0124794 -2.35166e-15)
(1.06231 -0.0143087 -7.93533e-16)
(1.05727 -0.0167787 -3.1306e-15)
(1.06092 -0.0183637 -2.425e-15)
(1.05612 -0.0213776 -4.115e-15)
(1.05999 -0.024694 -3.82103e-15)
(1.05401 -0.0271608 -4.38993e-15)
(1.05946 -0.0326287 -3.90473e-15)
(1.05143 -0.0356156 -4.56643e-15)
(1.0588 -0.0419308 -4.99277e-15)
(1.04905 -0.0476726 -5.17659e-15)
(1.05705 -0.0535954 -5.95741e-15)
(1.04771 -0.0630303 -5.0163e-15)
(1.0544 -0.0690008 -6.21621e-15)
(1.04672 -0.0830417 -3.93737e-15)
(1.0515 -0.0881679 -4.91261e-15)
(1.04601 -0.108787 -2.56744e-15)
(1.04832 -0.113444 -3.98034e-15)
(1.04419 -0.139432 -1.48898e-15)
(1.04731 -0.147796 -3.5781e-15)
(1.0383 -0.175092 -1.75936e-15)
(1.04748 -0.193121 -4.11508e-15)
(1.02759 -0.21958 -2.24709e-15)
(1.0453 -0.245732 -3.45985e-15)
(1.01341 -0.279476 -2.98368e-15)
(1.028 -0.307631 -4.30047e-15)
(0.984039 -0.347614 -4.6662e-15)
(1.0032 -0.394475 -1.17491e-14)
(0.890886 -0.402942 -1.82614e-14)
(0.95541 -0.492625 -2.28891e-14)
(0.695806 -0.437075 -1.08036e-14)
(0.71294 -0.415825 -5.10334e-15)
(0.268128 -0.28782 -5.04077e-16)
(0.398377 -0.0881414 -3.43595e-15)
(1.06471 0.000245888 1.45724e-14)
(1.06502 -0.00113872 1.28507e-14)
(1.06422 0.000513248 1.36585e-14)
(1.06518 -0.00136655 1.17912e-14)
(1.06402 0.000426535 1.2291e-14)
(1.06497 -0.0011625 1.06485e-14)
(1.06422 -8.07583e-06 1.11635e-14)
(1.06449 -0.000778971 9.6555e-15)
(1.06453 -0.000485879 9.88368e-15)
(1.06416 -0.000563276 8.3032e-15)
(1.06452 -0.000815703 8.94039e-15)
(1.06416 -0.000660047 7.86962e-15)
(1.06422 -0.000887779 8.08617e-15)
(1.06428 -0.00110711 7.19517e-15)
(1.06379 -0.000846651 7.37817e-15)
(1.06449 -0.00148662 6.96671e-15)
(1.06326 -0.00123927 6.86448e-15)
(1.06469 -0.00149954 6.79689e-15)
(1.06282 -0.00198167 6.10658e-15)
(1.06466 -0.00165684 6.0978e-15)
(1.06264 -0.00267453 5.19459e-15)
(1.06437 -0.00222311 5.20562e-15)
(1.06253 -0.00340321 4.33082e-15)
(1.06405 -0.00322738 4.89114e-15)
(1.06219 -0.00420171 4.01867e-15)
(1.06375 -0.0047728 4.55431e-15)
(1.0616 -0.00512822 3.52246e-15)
(1.0634 -0.00682544 3.77942e-15)
(1.06058 -0.00652955 2.73687e-15)
(1.06302 -0.00890942 2.87606e-15)
(1.05945 -0.00901341 2.01335e-15)
(1.062 -0.0109716 2.07663e-15)
(1.05863 -0.0122794 1.30838e-15)
(1.06043 -0.0138496 1.32779e-15)
(1.05781 -0.0160273 6.59297e-16)
(1.05872 -0.0182086 2.60523e-16)
(1.05641 -0.020339 -4.86038e-16)
(1.05759 -0.0243048 -6.69977e-16)
(1.054 -0.0262253 -8.93865e-16)
(1.05651 -0.0318234 -1.14979e-15)
(1.05149 -0.0345153 -1.29073e-15)
(1.05472 -0.0412876 -1.91812e-15)
(1.04918 -0.0455081 -2.07541e-15)
(1.05247 -0.0538697 -2.65548e-15)
(1.04602 -0.0591342 -2.27109e-15)
(1.05149 -0.0709121 -2.6765e-15)
(1.04086 -0.0760405 -1.66847e-15)
(1.05167 -0.0932479 -2.30959e-15)
(1.03473 -0.0977446 -6.46936e-16)
(1.05188 -0.120374 -1.93002e-15)
(1.028 -0.127741 4.57809e-16)
(1.05089 -0.151269 -1.995e-15)
(1.02194 -0.168015 1.02019e-15)
(1.04593 -0.187463 -2.5085e-15)
(1.0142 -0.218882 1.47688e-15)
(1.03519 -0.233826 -3.26992e-15)
(1.0008 -0.275488 -5.48077e-16)
(1.01452 -0.292146 -6.91863e-15)
(0.967 -0.34602 -8.95791e-15)
(0.964934 -0.348813 -1.66838e-14)
(0.897761 -0.423541 -2.07729e-14)
(0.839084 -0.40087 -1.36901e-14)
(0.732492 -0.420939 -7.67466e-15)
(0.468652 -0.328837 -3.28969e-17)
(0.387533 -0.213305 9.35519e-16)
(0.160334 -0.000587175 3.33474e-15)
(1.06496 -0.000987486 1.05189e-14)
(1.06431 0.000333678 1.14963e-14)
(1.065 -0.00106961 9.68299e-15)
(1.06419 0.000147412 1.03919e-14)
(1.06477 -0.000835121 8.83427e-15)
(1.06435 -0.00025474 9.54345e-15)
(1.06438 -0.00053703 8.20214e-15)
(1.06453 -0.000626969 8.40666e-15)
(1.06415 -0.000426111 7.16856e-15)
(1.06445 -0.000851139 7.65057e-15)
(1.06413 -0.000596151 6.76693e-15)
(1.06422 -0.000869758 6.9644e-15)
(1.06414 -0.00103221 6.15113e-15)
(1.06389 -0.000862406 6.39194e-15)
(1.06422 -0.00135429 6.07154e-15)
(1.06347 -0.00126797 5.99888e-15)
(1.06424 -0.00138649 6.08017e-15)
(1.06323 -0.00194026 5.40731e-15)
(1.06397 -0.00160222 5.67951e-15)
(1.06317 -0.00256389 4.66658e-15)
(1.06358 -0.0021828 5.00116e-15)
(1.06302 -0.00324693 3.94457e-15)
(1.06323 -0.00317166 4.89146e-15)
(1.06261 -0.0039849 3.50415e-15)
(1.06289 -0.00467923 4.66748e-15)
(1.0619 -0.00488451 3.02804e-15)
(1.06252 -0.00659065 4.08735e-15)
(1.06086 -0.00631626 2.24607e-15)
(1.0619 -0.00852408 3.38253e-15)
(1.05985 -0.00875312 1.54423e-15)
(1.06058 -0.0104888 2.70528e-15)
(1.05908 -0.0119802 9.38153e-16)
(1.05877 -0.0131838 1.99625e-15)
(1.05807 -0.0157973 5.85733e-16)
(1.05705 -0.0171717 1.14776e-15)
(1.05616 -0.0203191 -2.43079e-16)
(1.05588 -0.0227841 2.48788e-16)
(1.05333 -0.0263449 -6.26733e-16)
(1.05451 -0.0298036 -5.70624e-16)
(1.05038 -0.0348338 -1.14248e-15)
(1.05234 -0.0385305 -1.39731e-15)
(1.04749 -0.0462309 -1.8223e-15)
(1.04952 -0.0499847 -2.21273e-15)
(1.04413 -0.060719 -2.26564e-15)
(1.04645 -0.0651178 -2.33639e-15)
(1.04076 -0.0794129 -1.9961e-15)
(1.04199 -0.0843699 -1.89829e-15)
(1.03799 -0.103281 -1.49422e-15)
(1.03675 -0.10952 -1.34154e-15)
(1.03362 -0.131627 -1.08023e-15)
(1.0322 -0.143787 -1.31636e-15)
(1.02551 -0.163787 -1.19771e-15)
(1.02839 -0.187991 -2.36935e-15)
(1.01055 -0.203519 -2.26681e-15)
(1.02005 -0.237916 -5.78203e-15)
(0.987653 -0.257969 -6.25215e-15)
(0.997106 -0.286439 -1.347e-14)
(0.943019 -0.324176 -1.36518e-14)
(0.943441 -0.33942 -2.20885e-14)
(0.825112 -0.37498 -1.53918e-14)
(0.839368 -0.376907 -1.36572e-14)
(0.525803 -0.34015 -2.32559e-15)
(0.514626 -0.261837 -1.53346e-16)
(0.207393 -0.144728 6.38494e-16)
(0.114108 0.08866 3.02356e-15)
(1.06482 -0.00090084 6.07722e-15)
(1.06442 0.000221064 8.31601e-15)
(1.06484 -0.000841125 4.98338e-15)
(1.06429 -6.86825e-05 8.00495e-15)
(1.06466 -0.000565621 4.45209e-15)
(1.06436 -0.000447075 7.87829e-15)
(1.06435 -0.000347505 4.03397e-15)
(1.06447 -0.000706074 6.80851e-15)
(1.06413 -0.000359823 3.34749e-15)
(1.06443 -0.000806811 5.94805e-15)
(1.06403 -0.000612184 3.19754e-15)
(1.06425 -0.000777183 5.23571e-15)
(1.06398 -0.00102371 2.85795e-15)
(1.06396 -0.000816322 5.05677e-15)
(1.064 -0.00128387 2.93337e-15)
(1.06363 -0.00122893 4.56323e-15)
(1.06387 -0.00134224 3.16685e-15)
(1.06348 -0.00182605 3.80544e-15)
(1.06351 -0.00161022 3.13381e-15)
(1.06338 -0.00238571 2.94027e-15)
(1.06314 -0.00220159 2.99194e-15)
(1.06314 -0.00301926 2.81443e-15)
(1.06276 -0.00316854 3.09626e-15)
(1.0627 -0.00372736 1.89156e-15)
(1.06233 -0.00457481 3.10522e-15)
(1.06199 -0.00468525 1.19983e-15)
(1.06177 -0.00624801 3.01626e-15)
(1.06106 -0.00625377 2.07328e-17)
(1.0609 -0.00792009 2.79374e-15)
(1.06004 -0.0087162 -2.86987e-16)
(1.05957 -0.00982658 2.60889e-15)
(1.05888 -0.0116599 -5.52749e-16)
(1.05801 -0.0127973 1.92535e-15)
(1.05724 -0.0148791 -6.29527e-16)
(1.05658 -0.0171845 1.01792e-15)
(1.05472 -0.0188223 -1.11262e-15)
(1.05532 -0.0229859 -2.30307e-17)
(1.0516 -0.0244051 -1.12061e-15)
(1.05343 -0.0300995 -1.85659e-16)
(1.04853 -0.0322388 -1.43458e-15)
(1.05055 -0.0392778 -8.93268e-16)
(1.04515 -0.0424448 -1.69889e-15)
(1.04751 -0.051524 -1.7913e-15)
(1.0404 -0.0554091 -1.70979e-15)
(1.04478 -0.067727 -1.94476e-15)
(1.03455 -0.0720135 -1.04277e-15)
(1.04178 -0.0884201 -9.33978e-16)
(1.02756 -0.0938173 -2.8497e-16)
(1.03852 -0.113444 -6.04955e-16)
(1.01949 -0.123088 -1.04192e-16)
(1.03298 -0.142525 -1.25722e-15)
(1.01024 -0.161505 -1.02305e-15)
(1.02471 -0.175901 -3.85585e-15)
(0.995274 -0.20834 -3.81025e-15)
(1.00958 -0.218482 -8.78036e-15)
(0.967221 -0.2559 -9.7922e-15)
(0.97771 -0.272593 -1.59282e-14)
(0.91453 -0.301687 -1.6724e-14)
(0.887833 -0.317871 -1.81401e-14)
(0.804456 -0.343202 -1.30618e-14)
(0.685055 -0.314539 -4.67881e-15)
(0.503086 -0.277004 1.11832e-15)
(0.327015 -0.204296 1.83931e-15)
(0.212015 -0.0690939 2.86794e-15)
(0.0692276 0.121406 1.52666e-15)
(1.06464 -0.000850262 7.20711e-15)
(1.06441 0.000147793 8.5299e-15)
(1.06469 -0.000657622 6.7365e-15)
(1.06422 -0.000240554 7.89545e-15)
(1.06457 -0.000339785 6.4564e-15)
(1.06425 -0.000597338 7.47445e-15)
(1.06428 -0.00019872 6.17164e-15)
(1.06437 -0.000744957 6.83014e-15)
(1.06401 -0.000327314 5.79638e-15)
(1.06436 -0.00073656 6.18421e-15)
(1.06388 -0.000640011 5.58785e-15)
(1.06418 -0.000685667 5.7232e-15)
(1.06384 -0.00100547 5.29347e-15)
(1.06387 -0.000781319 5.39168e-15)
(1.0638 -0.00119954 5.34641e-15)
(1.06361 -0.00120965 5.21807e-15)
(1.06358 -0.00125508 5.45545e-15)
(1.06348 -0.00177583 4.76965e-15)
(1.06323 -0.00152443 5.27405e-15)
(1.06329 -0.00230589 4.45444e-15)
(1.06287 -0.00211039 5.05496e-15)
(1.06298 -0.00289013 4.3652e-15)
(1.06246 -0.00305576 5.051e-15)
(1.06245 -0.00355996 3.94135e-15)
(1.06204 -0.00440025 4.8974e-15)
(1.06164 -0.00447325 3.88093e-15)
(1.0614 -0.00600488 4.53912e-15)
(1.06069 -0.00596795 3.39669e-15)
(1.0604 -0.00761495 3.95228e-15)
(1.05956 -0.00832011 3.21253e-15)
(1.05902 -0.00945754 3.61153e-15)
(1.05828 -0.0111923 3.031e-15)
(1.05722 -0.0122052 3.36389e-15)
(1.05669 -0.0145698 3.02439e-15)
(1.05519 -0.0160341 2.91237e-15)
(1.05454 -0.0189414 2.61182e-15)
(1.05289 -0.0210305 2.29012e-15)
(1.05189 -0.0250126 2.43013e-15)
(1.04998 -0.0272539 1.66902e-15)
(1.04886 -0.033356 2.12003e-15)
(1.04641 -0.0353497 1.08037e-15)
(1.04505 -0.0442017 1.90948e-15)
(1.04239 -0.0463482 5.16461e-16)
(1.04052 -0.0577237 1.62274e-15)
(1.03725 -0.0612869 2.29825e-16)
(1.0358 -0.0749153 1.83278e-15)
(1.03081 -0.0804288 1.17449e-16)
(1.0302 -0.0969199 1.43379e-15)
(1.02319 -0.105319 -7.0623e-16)
(1.02305 -0.122879 -4.13462e-16)
(1.01426 -0.138376 -3.00731e-15)
(1.01063 -0.152933 -4.33232e-15)
(1.00371 -0.179103 -7.1292e-15)
(0.990051 -0.188446 -9.84211e-15)
(0.983932 -0.22373 -1.40376e-14)
(0.950471 -0.23377 -1.53377e-14)
(0.942459 -0.261299 -2.01659e-14)
(0.869115 -0.282992 -1.54459e-14)
(0.844707 -0.280439 -1.67557e-14)
(0.691107 -0.309564 -4.66756e-15)
(0.618212 -0.241374 -1.80424e-15)
(0.302052 -0.223055 1.91623e-15)
(0.32289 -0.166376 8.94677e-16)
(0.240386 -0.0340964 2.9628e-16)
(0.0638847 0.164022 1.26724e-15)
(1.0643 -0.000815341 7.0981e-15)
(1.06412 0.000103743 9.35906e-15)
(1.06438 -0.000519937 7.26671e-15)
(1.0639 -0.000357985 8.6775e-15)
(1.06428 -0.00017489 7.43403e-15)
(1.06392 -0.000688284 8.18547e-15)
(1.06398 -0.000104156 6.96142e-15)
(1.06405 -0.000738388 7.80493e-15)
(1.06369 -0.000329147 7.05798e-15)
(1.06402 -0.000641203 6.91903e-15)
(1.06359 -0.000686163 6.643e-15)
(1.06378 -0.000572619 7.02229e-15)
(1.06358 -0.00101743 6.77579e-15)
(1.06347 -0.000700788 6.63293e-15)
(1.06349 -0.00117038 6.48512e-15)
(1.06324 -0.00112773 6.28608e-15)
(1.06324 -0.00122753 6.93699e-15)
(1.06304 -0.00165963 5.6496e-15)
(1.06294 -0.00150647 6.50498e-15)
(1.06276 -0.00214191 5.85822e-15)
(1.06259 -0.00209709 6.68295e-15)
(1.06238 -0.00268637 5.58396e-15)
(1.06216 -0.00298158 6.40868e-15)
(1.06178 -0.00337492 5.03917e-15)
(1.06165 -0.00419615 6.65317e-15)
)
;

boundaryField
{
    inlet
    {
        type            uniformFixedValue;
        uniformValue    constant (1 0 0);
        value           nonuniform 0();
    }
    outlet
    {
        type            pressureInletOutletVelocity;
        value           nonuniform 0();
    }
    wall
    {
        type            fixedValue;
        value           uniform (0 0 0);
    }
    wedge1
    {
        type            wedge;
    }
    wedge2
    {
        type            wedge;
    }
    axis
    {
        type            empty;
    }
    procBoundary32to26
    {
        type            processor;
        value           nonuniform List<vector> 
67
(
(1.06439 4.25481e-05 1.00221e-14)
(1.06443 -0.00108688 5.26891e-15)
(1.06479 -0.000461064 8.48138e-15)
(1.06414 -0.00109558 4.8765e-15)
(1.06465 -0.000599623 7.09139e-15)
(1.06436 -0.00156434 4.33221e-15)
(1.064 -0.000546426 6.46834e-15)
(1.06488 -0.00197214 4.06098e-15)
(1.06325 -0.000979336 5.18228e-15)
(1.0653 -0.00192381 3.61436e-15)
(1.06262 -0.00184184 3.49877e-15)
(1.06573 -0.00194484 2.93205e-15)
(1.062 -0.00276503 1.77718e-15)
(1.06598 -0.00230575 1.91064e-15)
(1.0617 -0.00376339 7.35258e-16)
(1.0659 -0.00318917 1.73705e-15)
(1.06137 -0.00480553 1.19484e-17)
(1.06582 -0.00468782 1.66593e-15)
(1.06087 -0.00585068 -1.12406e-15)
(1.06565 -0.00710548 1.19593e-15)
(1.05991 -0.00693973 -2.80247e-15)
(1.06561 -0.00982202 2.02123e-16)
(1.05884 -0.00923973 -3.84529e-15)
(1.0647 -0.0121862 -7.06611e-16)
(1.05849 -0.0127143 -4.79976e-15)
(1.0632 -0.0148846 -2.42874e-15)
(1.05819 -0.0172569 -5.96314e-15)
(1.06164 -0.0187315 -4.2854e-15)
(1.05765 -0.0223145 -7.18466e-15)
(1.06052 -0.0248561 -5.93884e-15)
(1.05652 -0.0284823 -7.73538e-15)
(1.05941 -0.0329248 -6.11595e-15)
(1.0554 -0.036854 -8.00933e-15)
(1.05832 -0.0428833 -7.28367e-15)
(1.05378 -0.0486541 -8.66606e-15)
(1.05779 -0.0552744 -8.44669e-15)
(1.05148 -0.0634855 -8.40517e-15)
(1.05813 -0.0725671 -8.46485e-15)
(1.04844 -0.080984 -7.28508e-15)
(1.05973 -0.096072 -6.53012e-15)
(1.0443 -0.102966 -4.75359e-15)
(1.06213 -0.124974 -4.42394e-15)
(1.04063 -0.133204 -1.92304e-15)
(1.06328 -0.15815 -2.25139e-15)
(1.038 -0.175016 -1.48532e-16)
(1.06076 -0.196613 -1.42882e-15)
(1.03627 -0.229342 4.13109e-16)
(1.05615 -0.245389 -2.85575e-15)
(1.02094 -0.29376 1.21469e-16)
(1.05589 -0.310648 -7.3e-15)
(0.979279 -0.372393 -1.72004e-15)
(1.04177 -0.385423 -6.73913e-15)
(0.925286 -0.472253 -1.19044e-14)
(0.934258 -0.45837 -2.00328e-14)
(0.866326 -0.562411 -1.80111e-14)
(0.597268 -0.451183 -6.1442e-15)
(0.542297 -0.367043 -2.91334e-16)
(0.0100164 -0.221699 2.17958e-15)
(1.06487 0.000354168 1.49091e-14)
(1.065 -0.00138097 1.14954e-14)
(1.06425 0.000791326 1.41196e-14)
(1.06532 -0.00176574 9.55886e-15)
(1.06388 0.000801237 1.28579e-14)
(1.06524 -0.00157713 8.171e-15)
(1.06403 0.000316626 1.19767e-14)
(1.06473 -0.00109064 6.95473e-15)
(1.06473 -0.00109064 6.95473e-15)
)
;
    }
    procBoundary32to31
    {
        type            processor;
        value           nonuniform List<vector> 5((1.06468 -0.00065797 1.35479e-14) (1.06467 0.000214318 1.19861e-14) (1.06467 0.000214318 1.19861e-14) (1.0647 0.000236766 8.28039e-15) (1.06468 0.000284929 8.71373e-15));
    }
    procBoundary32to37
    {
        type            processor;
        value           uniform (1.0644 0.000333977 9.4592e-15);
    }
    procBoundary32to38
    {
        type            processor;
        value           nonuniform List<vector> 
66
(
(1.061 -0.00432031 4.63306e-15)
(1.06081 -0.00562959 6.36149e-15)
(1.06007 -0.00587703 4.39315e-15)
(1.05974 -0.00701969 5.80165e-15)
(1.0587 -0.00824278 4.3498e-15)
(1.05846 -0.00877011 5.34833e-15)
(1.05706 -0.0108859 3.74625e-15)
(1.05669 -0.0116823 4.9855e-15)
(1.05513 -0.0137444 3.82631e-15)
(1.05458 -0.0158634 4.17539e-15)
(1.05252 -0.0174512 2.87205e-15)
(1.05231 -0.021196 3.9548e-15)
(1.04907 -0.0228163 2.46196e-15)
(1.04948 -0.0277949 2.8155e-15)
(1.04523 -0.0301641 1.1863e-15)
(1.04546 -0.0365908 1.65065e-15)
(1.04095 -0.0395526 8.76192e-16)
(1.04043 -0.0484676 8.70951e-17)
(1.03568 -0.0516636 -3.50672e-16)
(1.03478 -0.0636953 -8.54636e-16)
(1.02855 -0.0680722 -8.90788e-16)
(1.0287 -0.0823549 -2.90373e-15)
(1.01957 -0.0897819 -3.00705e-15)
(1.02052 -0.105331 -6.00919e-15)
(1.00881 -0.117794 -5.47188e-15)
(1.00889 -0.132043 -1.03005e-14)
(0.99402 -0.153378 -1.02454e-14)
(0.988841 -0.162807 -1.39695e-14)
(0.971624 -0.193777 -1.54462e-14)
(0.953136 -0.198601 -1.66352e-14)
(0.925706 -0.231566 -1.77308e-14)
(0.883133 -0.237272 -1.59406e-14)
(0.827101 -0.253191 -1.15844e-14)
(0.733409 -0.252934 -7.89624e-15)
(0.624989 -0.246552 4.56844e-16)
(0.407132 -0.17175 4.434e-16)
(0.260869 -0.181371 3.06379e-15)
(0.264362 -0.1613 7.44067e-16)
(0.201705 0.0210716 9.2072e-16)
(0.0540499 0.212237 8.73839e-16)
(1.06337 -0.000782161 5.84407e-15)
(1.06319 8.3996e-05 6.22908e-15)
(1.06344 -0.00042972 5.70551e-15)
(1.06299 -0.000416337 5.67208e-15)
(1.06332 -7.09218e-05 5.29449e-15)
(1.06301 -0.000731124 5.10843e-15)
(1.06302 -3.68772e-05 4.89555e-15)
(1.0631 -0.000728394 4.70857e-15)
(1.06278 -0.00031004 4.59535e-15)
(1.06301 -0.000582787 4.16278e-15)
(1.0627 -0.000685256 4.09202e-15)
(1.06276 -0.000505382 3.70605e-15)
(1.06266 -0.000986287 3.80269e-15)
(1.06249 -0.000659639 3.49278e-15)
(1.0625 -0.00109263 3.7034e-15)
(1.06226 -0.00110583 3.08552e-15)
(1.06224 -0.00111826 3.5795e-15)
(1.06202 -0.00163225 2.84265e-15)
(1.06193 -0.00138648 3.21248e-15)
(1.0617 -0.00207431 2.5114e-15)
(1.06152 -0.00197654 3.0044e-15)
(1.06128 -0.00257397 2.45936e-15)
(1.06105 -0.00282324 2.67067e-15)
(1.06062 -0.00322175 2.14945e-15)
(1.061 -0.00432031 4.63306e-15)
(1.06046 -0.00399905 2.56957e-15)
)
;
    }
}


// ************************************************************************* //
