/*--------------------------------*- C++ -*----------------------------------*\
  =========                 |
  \\      /  F ield         | OpenFOAM: The Open Source CFD Toolbox
   \\    /   O peration     | Website:  https://openfoam.org
    \\  /    A nd           | Version:  7
     \\/     M anipulation  |
\*---------------------------------------------------------------------------*/
FoamFile
{
    version     2.0;
    format      ascii;
    class       surfaceScalarField;
    location    "188";
    object      phi;
}
// * * * * * * * * * * * * * * * * * * * * * * * * * * * * * * * * * * * * * //

dimensions      [0 3 -1 0 0 0 0];

internalField   nonuniform List<scalar> 
24510
(
-5.18273e-06
3.01036e-05
-2.49209e-05
-1.91746e-05
0.000104409
-9.0417e-05
-4.15701e-05
0.000195798
-0.000173403
-7.21939e-05
0.000301021
-0.000270397
-0.000110931
0.000416334
-0.000377597
-0.000157544
0.00053898
-0.000492367
-0.000211501
0.000668328
-0.000614372
-0.000271862
0.000806509
-0.000746147
-0.000337253
0.000958147
-0.000892756
-0.000405866
0.00112918
-0.00106056
-0.000475416
0.00132514
-0.00125559
-0.000542953
0.00154945
-0.00148191
-0.000604515
0.00180178
-0.00174022
-0.000654647
0.00207638
-0.00202625
-0.000685866
0.00235984
-0.00232862
-0.000688269
0.00262816
-0.00262575
-0.000649444
0.00284333
-0.00288216
-0.000554136
0.00295071
-0.00304601
-0.000389854
0.0028861
-0.00305038
0.00255324
-0.00280505
-0.000138047
-3.98771e-06
3.40913e-05
-1.48612e-05
0.000115282
-3.24302e-05
0.000213367
-5.66961e-05
0.000325287
-8.76807e-05
0.000447319
-0.00012521
0.000576509
-0.000168692
0.00071181
-0.000216961
0.000854777
-0.000268212
0.0010094
-0.000320006
0.00118097
-0.000369253
0.00137439
-0.000412072
0.00159227
-0.000443501
0.00183321
-0.000457086
0.00208997
-0.000444471
0.00234722
-0.000395188
0.00257887
-0.000297405
0.00274555
-0.000137319
0.00279062
9.5387e-05
0.00265339
0.00223003
0.000418596
-2.74857e-06
3.68399e-05
-1.03552e-05
0.000122889
-2.28046e-05
0.000225817
-4.02286e-05
0.000342711
-6.27442e-05
0.000469834
-9.0212e-05
0.000603977
-0.000121974
0.000743572
-0.00015664
0.000889444
-0.000191989
0.00104475
-0.00022495
0.00121393
-0.000251617
0.00140105
-0.000267165
0.00160782
-0.000265647
0.00183169
-0.00023969
0.00206401
-0.000180275
0.00228781
-7.68765e-05
0.00247548
8.20834e-05
0.00258659
0.000309612
0.00256309
0.000607097
0.0023559
0.00183983
0.000997304
-1.53427e-06
3.83741e-05
-5.89304e-06
0.000127248
-1.31737e-05
0.000233098
-2.35729e-05
0.00035311
-3.72446e-05
0.000483506
-5.40471e-05
0.00062078
-7.32449e-05
0.00076277
-9.32482e-05
0.000909447
-0.000111456
0.00106295
-0.00012422
0.0012267
-0.000126867
0.0014037
-0.000113678
0.00159463
-7.78015e-05
0.00179582
-1.10791e-05
0.00199729
9.59836e-05
0.00218074
0.000254166
0.00231729
0.000472926
0.00236783
0.000765957
0.00227006
0.0011257
0.00199617
0.00138722
0.0015783
-4.10803e-07
3.8785e-05
-1.70386e-06
0.000128541
-4.01287e-06
0.000235407
-7.51886e-06
0.000356616
-1.23424e-05
0.00048833
-1.82889e-05
0.000626726
-2.45323e-05
0.000769013
-2.9307e-05
0.000914222
-2.96976e-05
0.00106334
-2.15664e-05
0.00121857
4.11714e-07
0.00138172
4.27011e-05
0.00155234
0.00011295
0.00172557
0.000219918
0.00189032
0.000373323
0.00202734
0.000583833
0.00210678
0.000858862
0.0020928
0.00121291
0.00191601
0.00162994
0.00157914
0.000876035
0.00214112
5.67947e-07
3.8217e-05
2.00438e-06
0.000127104
4.23156e-06
0.000233179
7.1712e-06
0.000353677
1.0818e-05
0.000484683
1.54775e-05
0.000622067
2.20906e-05
0.0007624
3.25722e-05
0.000903741
5.00715e-05
0.00104585
7.90881e-05
0.00118955
0.000125455
0.00133536
0.000196245
0.00148155
0.000299638
0.00162217
0.000444789
0.00174517
0.000641324
0.0018308
0.000899688
0.00184842
0.00122517
0.00176731
0.00163298
0.00150821
0.00209944
0.00111268
0.000308727
0.00266675
1.35007e-06
3.68669e-05
5.05449e-06
0.0001234
1.11732e-05
0.000227061
1.98183e-05
0.000345031
3.11832e-05
0.000473318
4.57519e-05
0.000607498
6.46135e-05
0.000743539
8.98178e-05
0.000878536
0.000124675
0.00101099
0.000173915
0.00114031
0.000243686
0.00126558
0.000341426
0.00138381
0.000475635
0.00148797
0.00065561
0.00156519
0.000890657
0.00159576
0.00119063
0.00154844
0.0015595
0.00139845
0.00201233
0.00105538
0.00251966
0.000605347
-0.000314659
0.00314304
1.90343e-06
3.49635e-05
7.31081e-06
0.000117993
1.6502e-05
0.000217869
2.98586e-05
0.000331675
4.78503e-05
0.000455326
7.12071e-05
0.000584141
0.000101208
0.000713537
0.000140036
0.000839708
0.0001911
0.000959925
0.000259233
0.00107218
0.000350711
0.00117411
0.000473104
0.00126142
0.00063498
0.00132609
0.00084554
0.00135463
0.00111371
0.00132759
0.00144831
0.00121384
0.00185372
0.000993041
0.00234372
0.000565381
0.00288933
5.97387e-05
-0.000998159
0.00357283
2.20573e-06
3.27578e-05
8.68472e-06
0.000111514
2.00063e-05
0.000206548
3.68871e-05
0.000314794
6.01385e-05
0.000432075
9.07967e-05
0.000553483
0.000130376
0.000673958
0.000181202
0.000788882
0.000246745
0.000894381
0.00033184
0.000987082
0.00044273
0.00106322
0.000586919
0.00111723
0.000772844
0.00114016
0.00100946
0.00111802
0.00130551
0.00103153
0.0016687
0.000850655
0.00210635
0.000555394
0.0026294
4.23232e-05
0.00322161
-0.000532469
-0.00175155
0.00397501
2.24929e-06
3.05085e-05
9.14082e-06
0.000104622
2.15895e-05
0.000194099
4.06947e-05
0.000295689
6.76566e-05
0.000405113
0.000103865
0.000517274
0.000151111
0.000626713
0.000211888
0.000728105
0.000289716
0.000816553
0.000389379
0.00088742
0.000516994
0.000935602
0.000679895
0.000954325
0.000886335
0.000933725
0.00114509
0.00085926
0.00146534
0.000711286
0.00185438
0.000461612
0.00232505
8.47302e-05
0.00288595
-0.000518576
0.00354324
-0.00118976
-0.00257899
0.00437068
2.04156e-06
2.84669e-05
8.70218e-06
9.79614e-05
2.12847e-05
0.000181517
4.13007e-05
0.000275673
7.03666e-05
0.000376047
0.000110258
0.000477383
0.000163079
0.000573892
0.000231529
0.000659655
0.00031921
0.000728872
0.00043087
0.00077576
0.000572523
0.000793948
0.000751405
0.000775443
0.0009758
0.000709331
0.0012548
0.000580262
0.00159896
0.000367129
0.00201704
4.35319e-05
0.00252953
-0.000427767
0.00314085
-0.00112989
0.00388757
-0.00193648
-0.00348004
0.00478862
1.60647e-06
2.68605e-05
7.45542e-06
9.21124e-05
1.92678e-05
0.000169704
3.89807e-05
0.00025596
6.86386e-05
0.000346389
0.000110423
0.000435598
0.00016679
0.000517526
0.000240705
0.000585739
0.000335938
0.000633639
0.000457331
0.000654366
0.000610992
0.000640288
0.000804388
0.000582047
0.00104641
0.000467306
0.00134742
0.000279254
0.00172044
-5.89016e-06
0.00217847
-0.000414499
0.00274678
-0.000996072
0.003427
-0.00181011
0.00427202
-0.00278151
-0.00442257
0.00521456
9.85974e-07
2.58745e-05
5.55473e-06
8.75436e-05
1.58654e-05
0.000159394
3.42843e-05
0.000237541
6.3288e-05
0.000317385
0.000105485
0.000393402
0.000163735
0.000459275
0.000241375
0.000508099
0.000342516
0.000532499
0.000472366
0.000524516
0.000637547
0.000475107
0.000846386
0.000373207
0.00110928
0.000204413
0.00143898
-5.04483e-05
0.00185186
-0.000418767
0.00236533
-0.000927967
0.00300389
-0.00163463
0.0037635
-0.00256973
0.00468475
-0.00370275
-0.00535288
0.00561505
2.41133e-07
2.56333e-05
3.22223e-06
8.45625e-05
1.1554e-05
0.000151062
2.80339e-05
0.000221061
5.55797e-05
0.00028984
9.72646e-05
0.000351717
0.000156443
0.000400096
0.000236992
0.00042755
0.000343648
0.000425843
0.000482424
0.00038574
0.000661074
0.000296457
0.0008896
0.000144681
0.00118078
-8.67622e-05
0.0015504
-0.000420078
0.00201708
-0.000885442
0.0026001
-0.00151099
0.00331309
-0.00234763
0.00414062
-0.00339726
0.0050845
-0.00464663
-0.0062154
0.00594702
-5.5054e-07
2.61839e-05
7.40312e-07
8.32717e-05
6.94123e-06
0.000144861
2.12909e-05
0.000206712
4.71764e-05
0.000263954
8.82084e-05
0.000310685
0.000148382
0.000339923
0.000232363
0.000343569
0.000345907
0.000312299
0.00049638
0.000235268
0.00069335
9.94864e-05
0.000949151
-0.000111119
0.00127916
-0.00041677
0.0017013
-0.000842214
0.00223303
-0.00141717
0.00288871
-0.00216667
0.0036614
-0.00312032
0.00451912
-0.00425498
0.00541845
-0.00554595
-0.00697078
0.00617383
-1.29631e-06
2.74802e-05
-1.56412e-06
8.35395e-05
2.72314e-06
0.000140574
1.52797e-05
0.000194155
4.00118e-05
0.000239222
8.11885e-05
0.000269508
0.000143648
0.000277464
0.000233164
0.000254053
0.000356946
0.000188517
0.00052423
6.79844e-05
0.000746842
-0.000123126
0.00103945
-0.000403727
0.00141895
-0.000796273
0.00190237
-0.00132563
0.00250052
-0.00201533
0.00321444
-0.00288058
0.00401239
-0.00391827
0.00484733
-0.00508992
0.00564658
-0.00634521
-0.00760521
0.00628101
-1.90219e-06
2.93824e-05
-3.35706e-06
8.49944e-05
-3.55945e-07
0.000137572
1.12642e-05
0.000182535
3.60839e-05
0.000214402
7.9172e-05
0.00022642
0.000146446
0.000210189
0.000245108
0.000155391
0.000384182
4.94439e-05
0.000575031
-0.000122865
0.000831593
-0.000379688
0.00116981
-0.000741943
0.00160545
-0.00123192
0.00214991
-0.00187008
0.00280159
-0.00266702
0.00354251
-0.0036215
0.0043208
-0.00469655
0.00508397
-0.00585309
0.00575526
-0.0070165
-0.00812765
0.0062777
-2.28294e-06
3.16653e-05
-4.34313e-06
8.70546e-05
-1.71421e-06
0.000134944
1.03778e-05
0.000170443
3.71952e-05
0.000187585
8.48038e-05
0.000178811
0.000160429
0.000134564
0.000272935
4.28846e-05
0.000433283
-0.000110904
0.000654741
-0.000344323
0.000952381
-0.000677328
0.0013412
-0.00113076
0.00183207
-0.00172279
0.00242576
-0.00246378
0.00310495
-0.0033462
0.00383315
-0.0043497
0.00455064
-0.00541405
0.00521149
-0.00651393
0.00575471
-0.00755973
-0.00855977
0.00618683
-2.3728e-06
3.40381e-05
-4.28324e-06
8.8965e-05
-7.7739e-07
0.000131438
1.35012e-05
0.000156164
4.46993e-05
0.000156387
0.000100005
0.000123505
0.000188092
4.64769e-05
0.000319529
-8.85522e-05
0.000506974
-0.000298349
0.000764769
-0.000602117
0.00110732
-0.00101988
0.00154565
-0.00156909
0.00208183
-0.00225897
0.00270287
-0.00308482
0.00337667
-0.00402
0.00405558
-0.0050286
0.00468603
-0.0060445
0.00523507
-0.00706297
0.00566711
-0.00799177
-0.00892685
0.00603419
-2.13895e-06
3.61771e-05
-3.0591e-06
8.98852e-05
2.66845e-06
0.00012571
2.11104e-05
0.000137722
5.93186e-05
0.000118179
0.000125704
5.71203e-05
0.000230397
-5.82162e-05
0.000385457
-0.000243612
0.000604577
-0.00051747
0.000901765
-0.000899304
0.00128838
-0.0014065
0.00176831
-0.00204901
0.00233215
-0.00282282
0.00295331
-0.00370598
0.0035904
-0.00465708
0.0041953
-0.0056335
0.0047303
-0.0065795
0.00517459
-0.00750725
0.00551326
-0.00833045
-0.00925192
0.00583833
-1.58238e-06
3.77594e-05
-6.4411e-07
8.89469e-05
8.70258e-06
0.000116363
3.32726e-05
0.000113152
8.10941e-05
7.03573e-05
0.000161781
-2.35669e-05
0.000286753
-0.000183188
0.000469063
-0.000425923
0.000722383
-0.000770789
0.00105855
-0.00123548
0.00148336
-0.0018313
0.00199111
-0.00255677
0.00256052
-0.00339223
0.00315528
-0.00430074
0.00373252
-0.00523432
0.00425306
-0.00615404
0.00469744
-0.00702388
0.00505693
-0.00786674
0.00534363
-0.00861716
-0.00947492
0.00556663
-7.40514e-07
3.84999e-05
2.8324e-06
8.5374e-05
1.71284e-05
0.000102067
4.9676e-05
8.06048e-05
0.000109477
1.05563e-05
0.000207236
-0.000121326
0.000355311
-0.000331263
0.000566989
-0.000637601
0.000854552
-0.00105835
0.00122566
-0.00160658
0.00167835
-0.00228399
0.00219647
-0.00307489
0.00274916
-0.00394491
0.00329662
-0.00484821
0.00380185
-0.00573954
0.00423945
-0.00659164
0.00460466
-0.00738909
0.00489787
-0.00815995
0.00515076
-0.00887004
-0.00967325
0.00534909
3.47296e-07
3.81527e-05
7.24757e-06
7.84737e-05
2.76291e-05
8.16859e-05
6.97556e-05
3.84782e-05
0.000143519
-6.32068e-05
0.000260482
-0.000238289
0.00043342
-0.0005042
0.000674863
-0.000879045
0.00099414
-0.00137763
0.00139284
-0.00200528
0.00186
-0.00275115
0.00237014
-0.00358503
0.0028873
-0.00446207
0.00337467
-0.00533558
0.0038057
-0.00617057
0.00416888
-0.00695483
0.00446943
-0.00768964
0.00471698
-0.0084075
0.00493337
-0.00908643
-0.00985552
0.00511564
1.6086e-06
3.65441e-05
1.24025e-05
6.76798e-05
3.98229e-05
5.42656e-05
9.28375e-05
-1.45364e-05
0.000182092
-0.000152462
0.000319669
-0.000375865
0.000518067
-0.000702599
0.000787893
-0.00114887
0.00113392
-0.00172366
0.00155027
-0.00242163
0.00201714
-0.00321802
0.00250273
-0.00407062
0.00297132
-0.00493066
0.00339382
-0.00575809
0.00375547
-0.00653222
0.00405583
-0.00725518
0.00430649
-0.0079403
0.00451842
-0.00861944
0.00471276
-0.00928076
-0.010029
0.00488627
3.0053e-06
3.35388e-05
1.81309e-05
5.25542e-05
5.33485e-05
1.9048e-05
0.000118262
-7.94498e-05
0.000224067
-0.000258266
0.000382906
-0.000534705
0.000606165
-0.000925858
0.000901239
-0.00144395
0.00126696
-0.00208938
0.00168944
-0.00284411
0.00214179
-0.00367037
0.00259004
-0.00451887
0.00300331
-0.00534393
0.00336249
-0.00611726
0.00366332
-0.00683306
0.00391293
-0.00750479
0.00412515
-0.00815252
0.00431137
-0.00880566
0.00448769
-0.00945708
-0.01019
0.00464869
4.50203e-06
2.90367e-05
2.4307e-05
3.27491e-05
6.79118e-05
-2.45567e-05
0.000145453
-0.000156991
0.000268395
-0.000381208
0.000448367
-0.000714676
0.000694663
-0.00117215
0.00101021
-0.00175949
0.00138699
-0.00246615
0.00180376
-0.00326089
0.00222951
-0.00409612
0.00263231
-0.00492167
0.00298904
-0.00570065
0.00329047
-0.0064187
0.00354034
-0.00708293
0.00374982
-0.00771426
0.00393275
-0.00833546
0.0040987
-0.00897161
0.00426017
-0.00961855
-0.0103418
0.00441191
6.08422e-06
2.29525e-05
3.08526e-05
7.98073e-06
8.3295e-05
-7.69991e-05
0.000173926
-0.000247622
0.00031411
-0.000521393
0.000514266
-0.000914832
0.000780559
-0.00143845
0.0011104
-0.00208933
0.00148878
-0.00284453
0.00188895
-0.00366106
0.00227926
-0.00448644
0.0026331
-0.00527551
0.00293606
-0.00600362
0.00318728
-0.00666992
0.0033956
-0.00729125
0.00357361
-0.00789227
0.00373359
-0.00849544
0.00388316
-0.00912118
0.00403153
-0.00976691
-0.0104831
0.00417286
7.75125e-06
1.52013e-05
3.77256e-05
-2.19936e-05
9.93322e-05
-0.000138606
0.000203245
-0.000351535
0.000360262
-0.00067841
0.0005788
-0.00113337
0.000860901
-0.00172055
0.00119786
-0.00242629
0.00156847
-0.00321514
0.0019431
-0.00403569
0.00229274
-0.00483607
0.00259783
-0.0055806
0.00285223
-0.00625801
0.00306116
-0.00687885
0.00323607
-0.00746616
0.00338917
-0.00804537
0.00353058
-0.00863685
0.00366592
-0.00925652
0.00380185
-0.00990284
-0.0106143
0.00393306
9.50883e-06
5.69243e-06
4.48977e-05
-5.73824e-05
0.000115868
-0.000209576
0.000232958
-0.000468625
0.000405841
-0.000851292
0.000640103
-0.00136763
0.000932868
-0.00201331
0.00126934
-0.00276276
0.00162378
-0.00356959
0.00196653
-0.00437843
0.00227351
-0.00514305
0.00253273
-0.00583983
0.00274479
-0.00647007
0.00291878
-0.00705285
0.00306683
-0.00761421
0.00319973
-0.00817827
0.00332537
-0.00876248
0.00344772
-0.00937888
0.00357157
-0.0100267
-0.0107348
0.00369206
1.13611e-05
-5.66866e-06
5.23311e-05
-9.83525e-05
0.000132715
-0.00028996
0.000262543
-0.000598453
0.000449737
-0.00103849
0.000696274
-0.00161417
0.000993928
-0.00231097
0.00132255
-0.00309138
0.00165405
-0.00390108
0.00196121
-0.0046856
0.00222619
-0.00540804
0.00244392
-0.00605755
0.00261993
-0.00664608
0.00276526
-0.00719817
0.00289141
-0.00774036
0.00300736
-0.00829421
0.00311895
-0.00887408
0.00322893
-0.00948886
0.00334069
-0.0101384
-0.0108442
0.00345007
1.33045e-05
-1.89731e-05
5.9961e-05
-0.000145009
0.000149627
-0.000379626
0.000291383
-0.000740209
0.00049075
-0.00123785
0.00074548
-0.0018689
0.00104204
-0.00260753
0.00135627
-0.00340561
0.00165999
-0.0042048
0.00193027
-0.00495587
0.0021557
-0.00563347
0.00233692
-0.00623877
0.00248265
-0.00679181
0.00260436
-0.00731989
0.00271223
-0.00784824
0.00281335
-0.00839533
0.00291191
-0.00897265
0.00300976
-0.0095867
0.00310931
-0.010238
-0.010942
0.0032071
1.53245e-05
-3.42976e-05
6.76868e-05
-0.000197371
0.000166289
-0.000478228
0.000318773
-0.000892692
0.00052765
-0.00144673
0.000786091
-0.00212734
0.00107581
-0.00289725
0.00137036
-0.00370016
0.00164345
-0.00447789
0.00187739
-0.00518981
0.00206675
-0.00582282
0.00221642
-0.00638845
0.00233679
-0.00691217
0.00243877
-0.00742187
0.00253088
-0.00794035
0.00261852
-0.00848296
0.0027046
-0.00905873
0.00279034
-0.00967244
0.0028775
-0.0103252
-0.0110277
0.00296325
1.73952e-05
-5.16928e-05
7.53722e-05
-0.000255348
0.000182326
-0.000585183
0.000343956
-0.00105432
0.000559267
-0.00166204
0.000816828
-0.0023849
0.00109459
-0.00317502
0.0013656
-0.00397116
0.00160693
-0.00471922
0.00180639
-0.00538928
0.00196358
-0.00598
0.00208625
-0.00651113
0.00218525
-0.00701117
0.00227036
-0.00750697
0.00234841
-0.00801841
0.00242338
-0.00855793
0.00249723
-0.00913258
0.0025708
-0.00974601
0.00264535
-0.0103997
-0.011101
0.00271862
1.94804e-05
-7.11732e-05
8.28531e-05
-0.000318721
0.000197327
-0.000699656
0.000366182
-0.00122318
0.000584591
-0.00188045
0.000836855
-0.00263716
0.00109844
-0.0034366
0.00134347
-0.00421619
0.00155329
-0.00492905
0.00172091
-0.0055569
0.0018498
-0.0061089
0.0019494
-0.00661073
0.00203015
-0.00709192
0.00210042
-0.00757724
0.00216552
-0.00808351
0.00222827
-0.00862068
0.00228999
-0.0091943
0.00235125
-0.00980728
0.00241297
-0.0104614
-0.0111614
0.00247337
2.15368e-05
-9.271e-05
8.99473e-05
-0.000387132
0.00021087
-0.000820579
0.000384758
-0.00139707
0.000602849
-0.00209854
0.000845818
-0.00288013
0.00108801
-0.00367879
0.0013059
-0.00443408
0.00148545
-0.00510859
0.00162419
-0.00569564
0.0017284
-0.00621311
0.00180814
-0.00669047
0.001873
-0.00715678
0.00192984
-0.00763408
0.00198267
-0.00813634
0.00203345
-0.00867146
0.00208303
-0.00924389
0.00213184
-0.00985608
0.00218051
-0.0105101
-0.0112086
0.00222768
2.35166e-05
-0.000116227
9.64671e-05
-0.000460082
0.000222555
-0.000946667
0.000399107
-0.00157362
0.000613554
-0.00231299
0.000843823
-0.0031104
0.00106443
-0.00389939
0.00125506
-0.00462472
0.00140618
-0.00525972
0.00151904
-0.0058085
0.00160172
-0.00629579
0.00166421
-0.00675296
0.00171488
-0.00720745
0.00175924
-0.00767844
0.00180021
-0.0081773
0.00183911
-0.00871036
0.00187651
-0.00928128
0.0019127
-0.00989227
0.00194814
-0.0105455
-0.0112422
0.00198175
2.537e-05
-0.000141597
0.00010223
-0.000536942
0.000232028
-0.00107646
0.0004088
-0.00175039
0.000616522
-0.00252071
0.000831367
-0.00332525
0.00102911
-0.00409714
0.00119313
-0.00478873
0.001318
-0.00538458
0.00140783
-0.00589833
0.00147164
-0.00635961
0.00151885
-0.00680017
0.00155657
-0.00724517
0.00158905
-0.00771092
0.00161839
-0.00820664
0.00164545
-0.00873743
0.00167058
-0.00930641
0.00169402
-0.00991571
0.00171604
-0.0105676
-0.0112619
0.0017358
2.70482e-05
-0.000168645
0.00010707
-0.000616964
0.000239001
-0.0012084
0.000413574
-0.00192496
0.000611849
-0.00271899
0.000809246
-0.00352265
0.000983644
-0.00427154
0.00112221
-0.0049273
0.00122309
-0.00548546
0.00129244
-0.00596768
0.00133957
-0.00640674
0.00137301
-0.0068336
0.00139862
-0.00727078
0.00141961
-0.00773191
0.00143744
-0.00822446
0.00145264
-0.00875263
0.00146543
-0.0093192
0.00147597
-0.00992625
0.00148442
-0.010576
-0.0112676
0.00149009
2.85055e-05
-0.00019715
0.000110844
-0.000699303
0.000243267
-0.00134082
0.000413342
-0.00209504
0.000599876
-0.00290552
0.000778459
-0.00370123
0.00092963
-0.00442271
0.00104422
-0.00504189
0.00112332
-0.00556457
0.00117441
-0.00601877
0.0012066
-0.00643894
0.00122738
-0.00685438
0.00124145
-0.00728485
0.00125118
-0.00774165
0.00125754
-0.00823082
0.00126085
-0.00875594
0.00126122
-0.00931956
0.00125876
-0.00992379
0.00125349
-0.0105707
-0.011259
0.00124489
2.97011e-05
-0.000226851
0.00011344
-0.000783041
0.000244703
-0.00147208
0.000408175
-0.00225851
0.000581132
-0.00307848
0.000740113
-0.00386021
0.000868628
-0.00455122
0.000960868
-0.00513413
0.00102024
-0.00562394
0.00105494
-0.00605347
0.00107355
-0.00645754
0.00108246
-0.00686329
0.00108537
-0.00728776
0.00108398
-0.00774026
0.00107889
-0.00822574
0.00107027
-0.00874732
0.00105814
-0.00930743
0.00104258
-0.00990824
0.0010235
-0.0105517
-0.011236
0.00100048
3.06004e-05
-0.000257452
0.000114777
-0.000867218
0.000243276
-0.00160058
0.000398286
-0.00241352
0.000556276
-0.00323647
0.000695353
-0.00399929
0.000802089
-0.00465796
0.000873634
-0.00520567
0.000915111
-0.00566541
0.000934964
-0.00607332
0.000941023
-0.0064636
0.000938636
-0.0068609
0.000930638
-0.00727976
0.000918199
-0.00772782
0.000901663
-0.0082092
0.00088107
-0.00872673
0.000856389
-0.00928275
0.000827657
-0.00987951
0.000794706
-0.0105187
-0.0111985
0.000757204
3.11767e-05
-0.000288628
0.000114813
-0.000950854
0.000239031
-0.0017248
0.000383996
-0.00255848
0.000526049
-0.00337852
0.0006453
-0.00411854
0.000731319
-0.00474398
0.000783766
-0.00525812
0.000808952
-0.0056906
0.000815206
-0.00607957
0.000809501
-0.0064579
0.000796215
-0.00684762
0.000777467
-0.00726101
0.000754021
-0.00770437
0.000726032
-0.00818121
0.000693446
-0.00869414
0.000656172
-0.00924547
0.000614185
-0.00983752
0.00056732
-0.0104718
-0.0111465
0.000515394
3.14114e-05
-0.00032004
0.000113538
-0.00103298
0.000232085
-0.00184335
0.000365708
-0.00269211
0.00049122
-0.00350403
0.000591013
-0.00421833
0.000657469
-0.00481043
0.000692306
-0.00529296
0.000702573
-0.00570087
0.000696224
-0.00607322
0.00067934
-0.00644101
0.000655434
-0.00682371
0.000626041
-0.00723162
0.000591619
-0.00766995
0.000552176
-0.00814177
0.000507586
-0.00864955
0.000457711
-0.0091956
0.000402449
-0.00978226
0.000341484
-0.0104109
-0.0110802
0.000275134
3.12945e-05
-0.000351334
0.000110975
-0.00111266
0.000222609
-0.00195498
0.000343876
-0.00281337
0.000452558
-0.00361271
0.000533463
-0.00429924
0.000581532
-0.0048585
0.000600109
-0.00531153
0.000596613
-0.00569737
0.000578449
-0.00605506
0.000550822
-0.00641339
0.000516494
-0.00678938
0.000476531
-0.00719166
0.00043116
-0.00762458
0.000380273
-0.00809088
0.000323672
-0.00859295
0.000261195
-0.00913312
0.000192766
-0.00971383
0.000117902
-0.010336
-0.0109972
3.495e-05
3.08239e-05
-0.000382158
0.000107176
-0.00118901
0.000210821
-0.00205862
0.000318981
-0.00292153
0.000410796
-0.00370453
0.000473518
-0.00436196
0.000504352
-0.00488934
0.000507873
-0.00531505
0.000491577
-0.00568108
0.000462216
-0.0060257
0.000424173
-0.00637534
0.000379567
-0.00674478
0.000329096
-0.00714119
0.000272802
-0.00756829
0.000210501
-0.00802858
0.000141888
-0.00852433
6.6685e-05
-0.00905792
-1.5244e-05
-0.0096319
-0.000103513
-0.0102477
-0.0109003
-0.000200434
3.00055e-05
-0.000412164
0.000102214
-0.00126122
0.000196966
-0.00215338
0.000291505
-0.00301607
0.000366619
-0.00377964
0.000411942
-0.00440728
0.000426636
-0.00490403
0.000416156
-0.00530457
0.000387857
-0.00565278
0.000347787
-0.00598563
0.000299577
-0.00632714
0.000244806
-0.00669001
0.000183885
-0.00708027
0.000116684
-0.00750109
4.29218e-05
-0.00795482
-3.75876e-05
-0.00844383
-0.000125132
-0.00897038
-0.000219908
-0.00953712
-0.000322947
-0.0101447
-0.0107897
-0.000433601
2.88515e-05
-0.000441015
9.61831e-05
-0.00132855
0.000181308
-0.0022385
0.000261918
-0.00309668
0.000320649
-0.00383837
0.000349396
-0.00443603
0.000348968
-0.0049036
0.000325408
-0.00528101
0.000285764
-0.00561313
0.000235374
-0.00593524
0.00017719
-0.00626895
0.000112344
-0.00662516
4.0945e-05
-0.00700887
-3.70543e-05
-0.00742309
-0.000121971
-0.0078699
-0.000214322
-0.00835147
-0.000314372
-0.00887033
-0.000422435
-0.00942906
-0.000539159
-0.010028
-0.0106644
-0.000664406
2.738e-05
-0.000468395
8.91888e-05
-0.00139036
0.000164113
-0.00231343
0.000230665
-0.00316323
0.000273444
-0.00388115
0.000286444
-0.00444903
0.000271829
-0.00488898
0.000235985
-0.00524517
0.000185541
-0.00556269
0.000125153
-0.00587485
5.70942e-05
-0.00620089
-1.7799e-05
-0.00655027
-9.93255e-05
-0.00692734
-0.000188024
-0.00733439
-0.000284258
-0.00777367
-0.000388412
-0.00824732
-0.000500875
-0.00875786
-0.000622058
-0.00930788
-0.000752416
-0.00989763
-0.0105248
-0.000892079
2.56138e-05
-0.000494009
8.13451e-05
-0.00144609
0.000145646
-0.00237773
0.000198159
-0.00321575
0.000225496
-0.00390849
0.000223561
-0.00444709
0.00019561
-0.00486103
0.000148168
-0.00519773
8.7381e-05
-0.0055019
1.71225e-05
-0.00580459
-6.04707e-05
-0.0061233
-0.00014509
-0.00646565
-0.000236962
-0.00683547
-0.000336358
-0.00723499
-0.000443749
-0.00766628
-0.000559597
-0.00813147
-0.000684363
-0.0086331
-0.000818517
-0.00917372
-0.000962463
-0.00975368
-0.0103708
-0.00111639
2.35793e-05
-0.000517588
7.27705e-05
-0.00149529
0.000126162
-0.00243112
0.000164776
-0.00325436
0.000177234
-0.00392095
0.000161149
-0.00443101
0.000120631
-0.00482052
6.21732e-05
-0.00513927
-8.67609e-06
-0.00543105
-8.82234e-05
-0.00572504
-0.000175396
-0.00603613
-0.000269847
-0.0063712
-0.000371856
-0.00673346
-0.000481827
-0.00712502
-0.000600258
-0.00754785
-0.000727676
-0.00800405
-0.000864615
-0.00849616
-0.00101161
-0.00902673
-0.00116903
-0.00959626
-0.0102029
-0.00133701
2.13061e-05
-0.000538894
6.35843e-05
-0.00153756
0.000105901
-0.00247343
0.000130856
-0.00327932
0.000129025
-0.00391912
9.9534e-05
-0.00440152
4.71468e-05
-0.00476813
-2.17918e-05
-0.00507033
-0.000102104
-0.00535074
-0.000191102
-0.00563605
-0.000287685
-0.00593954
-0.00039182
-0.00626706
-0.000503858
-0.00662142
-0.000624278
-0.0070046
-0.00075362
-0.0074185
-0.000892464
-0.00786521
-0.00104142
-0.0083472
-0.00120111
-0.00886704
-0.00137187
-0.0094255
-0.010021
-0.00155369
1.88268e-05
-0.000557721
5.39053e-05
-0.00157264
8.50924e-05
-0.00250462
9.67041e-05
-0.00329093
8.11795e-05
-0.00390359
3.90068e-05
-0.00435934
-2.46243e-05
-0.0047045
-0.000103549
-0.00499141
-0.000193234
-0.00526105
-0.000291364
-0.00553792
-0.000397213
-0.00583369
-0.000510896
-0.00615338
-0.000632838
-0.00649948
-0.00076357
-0.00687387
-0.000903674
-0.0072784
-0.00105378
-0.0077151
-0.00121458
-0.00818641
-0.00138678
-0.00869484
-0.00157072
-0.00924155
-0.00982562
-0.00176615
1.61793e-05
-0.000573901
4.38505e-05
-0.00160031
6.39521e-05
-0.00252472
6.25806e-05
-0.00328956
3.40078e-05
-0.00387502
-2.02078e-05
-0.00430513
-9.45328e-05
-0.00463017
-0.000183077
-0.00490286
-0.000281834
-0.0051623
-0.000388916
-0.00543083
-0.000503881
-0.00571873
-0.000626972
-0.00603029
-0.000758675
-0.00636777
-0.000899565
-0.00673298
-0.00105027
-0.0071277
-0.00121145
-0.00755392
-0.00138389
-0.00801397
-0.00156841
-0.00851032
-0.00176534
-0.00904462
-0.00961683
-0.00197413
1.34157e-05
-0.000587316
3.35443e-05
-0.00162044
4.26778e-05
-0.00253386
2.87346e-05
-0.00327561
-1.21769e-05
-0.00383411
-7.79741e-05
-0.00423933
-0.000162473
-0.00454567
-0.000260259
-0.00480508
-0.000367826
-0.00505473
-0.00048368
-0.00531498
-0.000607604
-0.0055948
-0.000739946
-0.00589795
-0.00088125
-0.00622647
-0.00103213
-0.0065821
-0.00119325
-0.00696658
-0.00136532
-0.00738185
-0.00154918
-0.00783011
-0.0017458
-0.00831369
-0.00195551
-0.0088349
-0.00939499
-0.00217736
1.05609e-05
-0.000597877
2.31131e-05
-0.00163299
2.14099e-05
-0.00253215
-4.07155e-06
-0.00325013
-5.76146e-05
-0.00378057
-0.000134185
-0.00416276
-0.000228345
-0.00445151
-0.000335018
-0.00469841
-0.000451149
-0.0049386
-0.000575586
-0.00519054
-0.000708297
-0.00546209
-0.000849721
-0.00575652
-0.00100045
-0.00607574
-0.00116114
-0.00642141
-0.00133247
-0.00679525
-0.00151521
-0.00719911
-0.00171026
-0.00763506
-0.00191876
-0.0081052
-0.00214104
-0.00861262
-0.0091605
-0.00237552
7.62605e-06
-0.000605503
1.26649e-05
-0.00163803
1.18675e-06
-0.00252068
-3.75037e-05
-0.00321144
-0.000101915
-0.00371615
-0.000188693
-0.00407598
-0.000292062
-0.00434815
-0.000407289
-0.00458318
-0.000531743
-0.00481415
-0.000664566
-0.00505772
-0.000805881
-0.00532078
-0.0009562
-0.0056062
-0.00111616
-0.00591578
-0.00128645
-0.00625112
-0.0014678
-0.0066139
-0.00166097
-0.00700593
-0.00186697
-0.00742906
-0.00208708
-0.00788509
-0.00232166
-0.00837804
-0.00891385
-0.00256832
4.58918e-06
-0.000610092
2.07752e-06
-0.00163552
-2.08162e-05
-0.00249778
-6.97861e-05
-0.00316247
-0.000144896
-0.00364104
-0.000241387
-0.00397949
-0.000353546
-0.00423599
-0.000477017
-0.00445971
-0.000609556
-0.00468161
-0.000750558
-0.00491672
-0.000900278
-0.00517106
-0.00105929
-0.00544719
-0.00122827
-0.0057468
-0.00140796
-0.00607144
-0.00159908
-0.00642277
-0.00180246
-0.00680255
-0.00201914
-0.00721239
-0.00225051
-0.00765371
-0.00249709
-0.00813147
-0.00865496
-0.00275598
1.18476e-06
-0.000611277
-8.75298e-06
-0.00162558
-4.14587e-05
-0.00246508
-0.000101165
-0.00310277
-0.000186453
-0.00355576
-0.000292179
-0.00387376
-0.000412739
-0.00411543
-0.000544155
-0.00432829
-0.000684536
-0.00454123
-0.000833501
-0.00476775
-0.000991411
-0.00501315
-0.0011589
-0.00527971
-0.00133668
-0.00556901
-0.00152552
-0.0058826
-0.0017262
-0.00622209
-0.00193957
-0.00658919
-0.00216668
-0.00698527
-0.00240895
-0.00741144
-0.00266716
-0.00787326
-0.00838344
-0.00293867
-1.92302e-06
-0.000609354
-1.93211e-05
-0.00160819
-6.1594e-05
-0.0024228
-0.000131545
-0.00303281
-0.000226517
-0.00346078
-0.00034101
-0.00375927
-0.000469595
-0.00398684
-0.000608661
-0.00418923
-0.000756637
-0.00439325
-0.000913334
-0.00461105
-0.00107921
-0.00484728
-0.00125493
-0.00510398
-0.00144127
-0.00538267
-0.00163902
-0.00568485
-0.00184901
-0.0060121
-0.00207216
-0.00636604
-0.0023096
-0.00674782
-0.00256264
-0.00715841
-0.00283142
-0.00760447
-0.00810115
-0.00311372
-4.89893e-06
-0.000604455
-2.96031e-05
-0.00158348
-8.11782e-05
-0.00237123
-0.000160871
-0.00295312
-0.000265018
-0.00335664
-0.00038783
-0.00363646
-0.000524077
-0.00385059
-0.000670499
-0.0040428
-0.000825817
-0.00423793
-0.000990002
-0.00444687
-0.00116359
-0.00467369
-0.0013473
-0.00492027
-0.00154194
-0.00518804
-0.00174832
-0.00547846
-0.00196735
-0.00579307
-0.00220006
-0.00613334
-0.00244764
-0.00650024
-0.00271131
-0.00689474
-0.00299315
-0.00732263
-0.00781859
-0.00327571
-7.95674e-06
-0.000596498
-3.96422e-05
-0.0015518
-0.000100142
-0.00231073
-0.000189085
-0.00286418
-0.000301906
-0.00324382
-0.000432601
-0.00350577
-0.000576153
-0.00370704
-0.000729637
-0.00388932
-0.000892031
-0.00407554
-0.00106345
-0.00427545
-0.00124449
-0.00449265
-0.00143592
-0.00472883
-0.00163857
-0.00498539
-0.00185331
-0.00526373
-0.00208109
-0.0055653
-0.00232303
-0.00589139
-0.00258024
-0.00624303
-0.00285232
-0.00662266
-0.00313675
-0.0070382
-0.00748864
-0.0034667
-1.09777e-05
-0.000585521
-4.9406e-05
-0.00151337
-0.000118426
-0.00224171
-0.00021613
-0.00276648
-0.000337137
-0.00312281
-0.00047529
-0.00336761
-0.000625797
-0.00355654
-0.000786045
-0.00372907
-0.000955241