/*--------------------------------*- C++ -*----------------------------------*\
  =========                 |
  \\      /  F ield         | OpenFOAM: The Open Source CFD Toolbox
   \\    /   O peration     | Website:  https://openfoam.org
    \\  /    A nd           | Version:  7
     \\/     M anipulation  |
\*---------------------------------------------------------------------------*/
FoamFile
{
    version     2.0;
    format      ascii;
    class       volScalarField;
    location    "1.7";
    object      p;
}
// * * * * * * * * * * * * * * * * * * * * * * * * * * * * * * * * * * * * * //

dimensions      [1 -1 -2 0 0 0 0];

internalField   nonuniform List<scalar> 
12096
(
1.03401
1.03087
1.0228
1.00458
0.982409
0.97041
0.965993
0.963505
0.961797
0.960787
0.960224
0.961633
0.972215
0.99265
1.00159
1.00176
1.00091
0.999474
0.996673
0.988682
0.96682
0.937143
0.92569
0.924184
0.923676
0.923311
0.923776
0.929261
0.947383
0.971381
0.977487
0.976995
0.976371
0.975608
0.973976
0.969034
0.956108
0.938718
0.929335
0.92685
0.926019
0.925716
0.925442
0.925392
0.926264
0.926257
0.924528
0.921162
0.913685
0.902058
0.896094
0.89471
0.894021
0.893496
0.89318
0.894505
0.900889
0.906607
0.907562
0.907481
0.907517
0.90715
0.906559
0.905934
0.905141
0.903574
0.898727
0.887744
0.875345
0.86945
0.867498
0.866304
0.865198
0.863948
0.862652
0.862036
0.86169
0.86132
0.861057
0.860708
0.860018
0.858976
0.856831
0.852002
0.843698
0.837956
0.836694
0.835916
0.834853
0.833632
0.832539
0.831671
0.830971
0.830993
0.832697
0.833179
0.831988
0.830341
0.828604
0.826749
0.825153
0.823866
0.822282
0.819567
0.815719
0.813481
0.812846
0.812851
0.812655
0.811731
0.810297
0.807813
0.803764
0.799821
0.798311
0.797946
0.797846
0.798319
0.800807
0.802481
0.802177
0.801423
0.800479
0.798951
0.796614
0.793814
0.791222
0.788439
0.783988
0.776857
0.770717
0.768181
0.76684
0.766383
0.766179
0.766271
0.766846
0.767828
0.770079
0.773192
0.774714
0.77479
0.774784
0.774966
0.774469
0.772131
0.765303
0.750141
0.734611
0.730418
0.729896
0.729527
0.72906
0.728391
0.727509
0.726846
0.727668
0.730937
0.737588
0.747708
0.754193
0.754835
0.754095
0.75289
0.750751
0.745621
0.733025
0.711451
0.696027
0.693017
0.692245
0.691561
0.690983
0.692166
0.697858
0.711689
0.733577
0.748503
0.750671
0.750353
0.749424
0.746493
0.73652
0.710908
0.676919
0.662155
0.659309
0.658032
0.657825
0.658338
0.659156
0.663177
0.678172
0.702931
0.717321
0.719768
0.720752
0.722273
0.723194
0.720389
0.715782
0.70655
0.687543
0.668505
0.661624
0.659057
0.656485
0.65557
0.656868
0.657743
0.657934
0.658137
0.659376
0.661297
0.663048
0.664348
0.665479
0.667806
0.671527
0.674476
0.674507
0.673765
0.672435
0.669964
0.665
0.654375
0.63909
0.632711
0.632366
0.6323
0.631955
0.631518
0.630857
0.629922
0.628762
0.6278
0.628056
0.630492
0.635782
0.643388
0.648001
0.648225
0.647815
0.647358
0.647023
0.646589
0.645599
0.643653
0.639128
0.62843
0.613737
0.606649
1.03255
1.03072
1.02417
1.00733
0.983368
0.969715
0.965298
0.963181
0.961918
0.96103
0.960499
0.961461
0.967867
0.9845
1.00003
1.00213
1.00117
0.999866
0.998209
0.993755
0.97986
0.950784
0.928358
0.923997
0.92326
0.922683
0.922333
0.923896
0.934355
0.958852
0.977496
0.978729
0.978016
0.977395
0.976059
0.971916
0.960122
0.940376
0.928962
0.926895
0.926541
0.926316
0.926035
0.926375
0.927624
0.92734
0.925551
0.923058
0.917865
0.906781
0.89721
0.894612
0.893713
0.893116
0.892731
0.893478
0.899707
0.908402
0.909826
0.909194
0.908627
0.908067
0.907429
0.9065
0.904886
0.901848
0.896186
0.88835
0.880243
0.873634
0.869928
0.868516
0.867381
0.865885
0.864226
0.863358
0.863064
0.862907
0.86248
0.861747
0.86057
0.858469
0.854827
0.8482
0.841004
0.837529
0.836452
0.835876
0.835627
0.835905
0.835464
0.834674
0.834837
0.836245
0.836413
0.834784
0.832718
0.830613
0.828125
0.825572
0.823112
0.820351
0.816634
0.812345
0.810137
0.809776
0.810609
0.812734
0.814677
0.814959
0.814347
0.813412
0.811479
0.807074
0.800516
0.796624
0.796161
0.796075
0.796554
0.798452
0.799681
0.799316
0.798421
0.797256
0.795741
0.793673
0.79194
0.79075
0.788987
0.784915
0.777346
0.770931
0.768329
0.766626
0.76536
0.764768
0.765022
0.7665
0.768947
0.771043
0.772775
0.774251
0.77477
0.77482
0.774296
0.772038
0.765471
0.749992
0.733867
0.729775
0.729398
0.729096
0.728715
0.728192
0.727478
0.72701
0.72802
0.731491
0.738469
0.749029
0.756233
0.757076
0.756245
0.754897
0.752873
0.74826
0.736163
0.713559
0.695609
0.69092
0.690046
0.689411
0.68861
0.688974
0.694308
0.710874
0.73722
0.75216
0.753192
0.752261
0.750553
0.746779
0.735932
0.709126
0.67596
0.661787
0.659073
0.65816
0.658236
0.65881
0.659964
0.665935
0.683047
0.705166
0.717024
0.72093
0.722567
0.724413
0.724693
0.721284
0.715929
0.703835
0.681187
0.664949
0.660868
0.65935
0.657471
0.656119
0.657222
0.658252
0.65859
0.658756
0.659411
0.660665
0.662049
0.663255
0.664459
0.666627
0.670532
0.67405
0.674257
0.67355
0.672408
0.670906
0.66804
0.66156
0.648466
0.63524
0.631192
0.630569
0.629954
0.629229
0.628434
0.627512
0.626455
0.625624
0.625984
0.628522
0.633897
0.642042
0.648212
0.648867
0.648498
0.647949
0.647371
0.646775
0.645902
0.64443
0.641414
0.633587
0.618726
0.607288
1.03128
1.02887
1.02316
1.00958
0.986226
0.969562
0.96551
0.964374
0.963398
0.962487
0.961977
0.962646
0.966635
0.977391
0.994926
1.00222
1.00165
1.0002
0.998533
0.995888
0.988334
0.967406
0.937183
0.924613
0.922934
0.92226
0.921707
0.921877
0.926734
0.9435
0.966926
0.974978
0.974713
0.974407
0.973585
0.970712
0.962214
0.945987
0.931912
0.928788
0.928544
0.928641
0.929072
0.92995
0.930735
0.930033
0.928147
0.925555
0.920665
0.910851
0.899633
0.895398
0.89421
0.89346
0.893022
0.893492
0.898144
0.905533
0.907248
0.906563
0.905864
0.905331
0.904804
0.904116
0.902497
0.898695
0.892515
0.886506
0.882833
0.879389
0.87483
0.870296
0.867137
0.864733
0.862839
0.86149
0.860795
0.860404
0.860042
0.859361
0.858227
0.856081
0.851809
0.845239
0.839797
0.838338
0.837969
0.837755
0.837591
0.837466
0.837635
0.838354
0.840004
0.840521
0.838887
0.836506
0.833994
0.831086
0.827949
0.824711
0.820783
0.815463
0.809911
0.807196
0.806564
0.806528
0.808033
0.812664
0.817384
0.819002
0.819097
0.818439
0.816933
0.813678
0.806479
0.797805
0.794235
0.793882
0.793391
0.793339
0.794745
0.796758
0.796837
0.795826
0.794578
0.794036
0.793888
0.793819
0.793126
0.79097
0.785629
0.77672
0.770025
0.767026
0.765436
0.764508
0.764241
0.765685
0.768562
0.770117
0.771292
0.772603
0.772915
0.77265
0.771999
0.770092
0.764656
0.751039
0.734803
0.729924
0.729388
0.729054
0.728721
0.728281
0.727744
0.727843
0.729362
0.732755
0.739191
0.749316
0.756634
0.757342
0.75622
0.754941
0.753404
0.749763
0.739491
0.717715
0.696648
0.689983
0.688963
0.68835
0.687516
0.687542
0.692042
0.707542
0.733381
0.748822
0.750371
0.749867
0.748696
0.745539
0.735581
0.710559
0.677047
0.662524
0.660373
0.659766
0.659845
0.660499
0.662333
0.670076
0.688083
0.709502
0.718164
0.718991
0.72007
0.722417
0.723113
0.719813
0.714053
0.700645
0.678434
0.6646
0.661598
0.660073
0.657672
0.655978
0.657025
0.658157
0.658613
0.659052
0.659895
0.660945
0.661992
0.663125
0.664363
0.666047
0.668823
0.672704
0.674262
0.673694
0.672582
0.67167
0.670311
0.666366
0.657053
0.640989
0.630268
0.628228
0.627574
0.626934
0.62624
0.625378
0.624381
0.62356
0.623778
0.626192
0.631987
0.641301
0.648724
0.649862
0.649555
0.648885
0.648043
0.647236
0.646416
0.64516
0.642803
0.636967
0.624033
0.609514
1.0288
1.02518
1.01968
1.00972
0.993299
0.974923
0.967051
0.96569
0.965007
0.96431
0.963834
0.964216
0.966136
0.971266
0.983742
0.999761
1.00347
1.00226
1.00056
0.998268
0.993354
0.980626
0.952993
0.928316
0.923011
0.922239
0.921712
0.921521
0.923236
0.932353
0.953003
0.970818
0.97284
0.971763
0.969993
0.967052
0.962191
0.954063
0.94184
0.931743
0.929324
0.928915
0.928668
0.928521
0.928556
0.928287
0.926887
0.92473
0.921431
0.914143
0.903139
0.897033
0.895473
0.894653
0.894148
0.894296
0.897765
0.904113
0.906436
0.905931
0.90525
0.904653
0.903888
0.902802
0.90064
0.896208
0.890537
0.887034
0.884996
0.882674
0.879376
0.874449
0.868823
0.865057
0.862804
0.861153
0.860293
0.859688
0.859072
0.858318
0.857064
0.854582
0.849211
0.843146
0.841775
0.841479
0.841131
0.8409
0.84055
0.839924
0.839877
0.84146
0.843061
0.842129
0.840053
0.837889
0.835347
0.832089
0.828129
0.823332
0.816995
0.809814
0.805408
0.804101
0.803554
0.803393
0.804776
0.810173
0.818325
0.822729
0.82317
0.822327
0.820902
0.818634
0.813479
0.803101
0.793488
0.790554
0.79005
0.789621
0.789633
0.791015
0.793552
0.794419
0.794567
0.794876
0.795284
0.795408
0.794857
0.793619
0.790577
0.78362
0.774392
0.768985
0.766915
0.765855
0.765269
0.765739
0.767855
0.768864
0.769487
0.770551
0.770768
0.770295
0.769385
0.767444
0.763255
0.753479
0.738591
0.731004
0.729859
0.729433
0.729067
0.728633
0.728121
0.728346
0.730145
0.733677
0.740384
0.751105
0.758007
0.758302
0.756966
0.755516
0.75389
0.750559
0.74197
0.722201
0.698539
0.689977
0.688874
0.68828
0.687551
0.687734
0.691874
0.705774
0.730054
0.74493
0.746653
0.746204
0.744792
0.741592
0.733294
0.712992
0.682135
0.665276
0.662902
0.662619
0.66292
0.663696
0.666235
0.675626
0.693377
0.709303
0.714868
0.716076
0.717472
0.719971
0.720584
0.717323
0.711536
0.698748
0.677843
0.665111
0.662373
0.660918
0.658978
0.657063
0.657701
0.658835
0.659143
0.659173
0.659576
0.660971
0.662809
0.664115
0.664769
0.665735
0.668257
0.671856
0.673679
0.673277
0.67235
0.67174
0.6713
0.669058
0.66251
0.647715
0.631534
0.626461
0.625805
0.625184
0.624447
0.623625
0.622727
0.62199
0.622187
0.624359
0.630084
0.640954
0.650401
0.651826
0.651263
0.65038
0.649543
0.648764
0.647611
0.646131
0.643983
0.639475
0.628862
0.61197
1.0262
1.0206
1.01379
1.00673
0.998592
0.987382
0.974246
0.967847
0.966594
0.965958
0.965413
0.965235
0.966007
0.968456
0.975034
0.988608
0.999545
1.00027
0.998904
0.997276
0.994883
0.988363
0.970403
0.940598
0.924771
0.922632
0.922086
0.921775
0.922494
0.926556
0.938747
0.959455
0.969477
0.968806
0.966679
0.964247
0.96163
0.958238
0.951706
0.940091
0.931807
0.930428
0.929879
0.929091
0.928442
0.927951
0.92703
0.925125
0.921773
0.915265
0.905732
0.898735
0.896605
0.895889
0.895524
0.895858
0.898901
0.90366
0.906128
0.90594
0.9053
0.904565
0.903564
0.901957
0.899349
0.894672
0.888673
0.884921
0.883239
0.881948
0.880451
0.877809
0.873248
0.867793
0.864025
0.862303
0.861323
0.860414
0.85929
0.857857
0.856123
0.853232
0.847826
0.842393
0.840826
0.840473
0.840219
0.840047
0.840234
0.841654
0.844027
0.845916
0.845523
0.843546
0.84139
0.83929
0.836681
0.833195
0.828752
0.821909
0.812465
0.80482
0.802069
0.801186
0.800698
0.800655
0.802656
0.809376
0.820007
0.825868
0.826095
0.825083
0.823805
0.822141
0.818787
0.810334
0.796628
0.788421
0.786874
0.786125
0.785521
0.785552
0.786918
0.791877
0.796457
0.797271
0.797112
0.796776
0.796328
0.795453
0.793715
0.789803
0.781492
0.77118
0.765602
0.764277
0.763963
0.76413
0.765922
0.76688
0.766672
0.767013
0.767183
0.766637
0.765621
0.763945
0.760925
0.75488
0.743901
0.733733
0.731024
0.730506
0.730133
0.729748
0.729315
0.729306
0.730514
0.733909
0.741124
0.750887
0.755713
0.755639
0.754304
0.752856
0.751456
0.749053
0.742768
0.727232
0.704428
0.692722
0.690793
0.690095
0.6894
0.689659
0.693248
0.704006
0.724085
0.739005
0.741332
0.740903
0.739172
0.735685
0.728881
0.714334
0.689652
0.67024
0.665858
0.665495
0.665913
0.666935
0.670328
0.681354
0.699481
0.711347
0.713559
0.713772
0.714119
0.715699
0.716122
0.713203
0.707768
0.696575
0.678878
0.66647
0.662921
0.661468
0.659993
0.658145
0.658465
0.659701
0.65996
0.659759
0.659918
0.660933
0.662033
0.662842
0.663704
0.665047
0.667519
0.671372
0.674144
0.67407
0.673539
0.673194
0.672697
0.670671
0.66578
0.654204
0.635776
0.625862
0.624289
0.623748
0.623115
0.622478
0.621734
0.621062
0.621252
0.623051
0.627684
0.6369
0.647844
0.651263
0.651124
0.650494
0.649496
0.648295
0.647125
0.645842
0.644083
0.640767
0.63256
0.615099
1.02329
1.01588
1.00893
1.00439
1.0009
0.99615
0.986871
0.974425
0.968685
0.967459
0.966821
0.966379
0.966426
0.967283
0.969796
0.977973
0.992539
0.999224
0.998599
0.996988
0.994975
0.991243
0.981474
0.958592
0.932637
0.925146
0.924438
0.923843
0.923361
0.923802
0.928303
0.942096
0.960929
0.965869
0.964589
0.962892
0.961292
0.959693
0.956869
0.949868
0.937724
0.92952
0.927821
0.927509
0.927142
0.926577
0.925394
0.923252
0.91954
0.914459
0.908433
0.902392
0.898653
0.897565
0.897209
0.897583
0.9006
0.905121
0.907339
0.907347
0.906765
0.90595
0.904822
0.902543
0.897805
0.89159
0.886913
0.884447
0.883377
0.882398
0.881113
0.879346
0.876743
0.872372
0.866343
0.861514
0.859009
0.857795
0.856982
0.856163
0.854596
0.850937
0.845315
0.841776
0.840908
0.840616
0.840436
0.840329
0.840687
0.843014
0.846797
0.848331
0.847467
0.845654
0.843656
0.841491
0.838692
0.834659
0.828457
0.818843
0.80749
0.801676
0.800182
0.799612
0.799273
0.799137
0.801308
0.810557
0.823223
0.828018
0.827753
0.826729
0.825559
0.824145
0.821837
0.816289
0.803642
0.789515
0.783761
0.782615
0.781898
0.781728
0.782224
0.785127
0.793181
0.798274
0.798294
0.798105
0.797981
0.797698
0.796674
0.794296
0.788617
0.776972
0.766497
0.763641
0.763265
0.763098
0.763587
0.764524
0.76428
0.764045
0.764145
0.763762
0.762857
0.761519
0.759541
0.755981
0.748496
0.738149
0.732769
0.73189
0.731524
0.731125
0.730622
0.730292
0.731469
0.735635
0.743863
0.75257
0.755022
0.754481
0.753048
0.751305
0.749191
0.746272
0.740838
0.729014
0.710548
0.697314
0.694136
0.693453
0.692992
0.693503
0.696471
0.703923
0.717324
0.730943
0.735156
0.734785
0.73296
0.729589
0.723967
0.713696
0.696403
0.677861
0.66992
0.668659
0.668855
0.670152
0.674557
0.686864
0.705247
0.712307
0.712155
0.711615
0.711245
0.711689
0.7109
0.707776
0.702342
0.692981
0.680338
0.67026
0.665674
0.663434
0.661045
0.65841
0.658391
0.659765
0.660467
0.660857
0.661406
0.661682
0.662053
0.662729
0.663609
0.664769
0.666861
0.670092
0.672704
0.672864
0.672443
0.672014
0.671467
0.670183
0.667033
0.65939
0.642899
0.627337
0.623368
0.622814
0.622426
0.621978
0.621371
0.620688
0.620643
0.621912
0.625547
0.6332
0.644988
0.651101
0.651304
0.650699
0.649614
0.648202
0.646929
0.645753
0.644211
0.641463
0.635084
0.618711
1.01878
1.01171
1.00725
1.00437
1.00259
1.00026
0.995373
0.985064
0.974018
0.970542
0.969657
0.968811
0.967908
0.967119
0.967096
0.970248
0.981636
0.99563
0.998237
0.997156
0.995432
0.993137
0.988406
0.97552
0.949065
0.927457
0.922515
0.921899
0.921467
0.921227
0.922211
0.928505
0.945176
0.96159
0.963631
0.962783
0.962352
0.961907
0.960478
0.956219
0.945139
0.931507
0.927332
0.926945
0.926495
0.925805
0.924329
0.921221
0.916708
0.912683
0.909497
0.906143
0.902638
0.901011
0.900456
0.900622
0.902989
0.904549
0.904275
0.90389
0.903393
0.902736
0.901787
0.899573
0.893747
0.887139
0.88512
0.884571
0.884014
0.883609
0.883165
0.881748
0.879548
0.876076
0.86973
0.862329
0.858359
0.85678
0.855832
0.854776
0.852738
0.848304
0.843115
0.841485
0.841268
0.841166
0.841055
0.841096
0.84216
0.845169
0.847674
0.848685
0.84872
0.847643
0.845882
0.843823
0.840893
0.835626
0.826567
0.814697
0.804942
0.800823
0.799737
0.799214
0.798962
0.798887
0.799509
0.805169
0.819369
0.828467
0.828848
0.82802
0.826859
0.825549
0.823799
0.82026
0.811044
0.794406
0.782848
0.779941
0.779486
0.77934
0.779638
0.780826
0.786073
0.794848
0.79848
0.798804
0.798685
0.798554
0.79799
0.796277
0.792701
0.78446
0.771741
0.764003
0.762718
0.762444
0.762318
0.762496
0.762308
0.761864
0.761828
0.761495
0.760526
0.758995
0.757052
0.754536
0.750628
0.743882
0.736178
0.733155
0.732518
0.73204
0.731473
0.73116
0.732392
0.735999
0.742912
0.750923
0.753346
0.752705
0.751194
0.74931
0.746729
0.743117
0.737762
0.72932
0.716797
0.704138
0.697684
0.696325
0.696109
0.697039
0.699863
0.704939
0.712143
0.720581
0.727104
0.728057
0.726633
0.723619
0.718894
0.71182
0.701147
0.687724
0.677817
0.674783
0.674529
0.675796
0.68077
0.692468
0.705446
0.710513
0.710402
0.709396
0.708697
0.708025
0.706388
0.702978
0.697068
0.688513
0.679955
0.673607
0.669907
0.667343
0.664681
0.661319
0.659494
0.660396
0.6611
0.661118
0.661026
0.66098
0.661529
0.662978
0.664418
0.665015
0.666167
0.669167
0.672146
0.672703
0.672524
0.67201
0.671263
0.669976
0.667329
0.662091
0.650657
0.633075
0.62392
0.622481
0.622138
0.621759
0.621174
0.62031
0.619677
0.620441
0.623383
0.629618
0.640897
0.650829
0.651789
0.651156
0.650189
0.648809
0.647219
0.645721
0.644152
0.641866
0.637042
0.622216
1.01431
1.00949
1.00712
1.00631
1.00545
1.0041
1.00146
0.995182
0.982858
0.97172
0.967785
0.966759
0.965965
0.965285
0.964837
0.965633
0.971954
0.986637
0.997117
0.99752
0.996498
0.995227
0.992961
0.986493
0.967864
0.937886
0.923055
0.920662
0.91958
0.918706
0.918331
0.919939
0.929951
0.950468
0.962993
0.964077
0.963949
0.963501
0.962419
0.959778
0.952718
0.939549
0.928741
0.92545
0.924399
0.923229
0.921329
0.91813
0.914622
0.912123
0.910188
0.908247
0.905995
0.904859
0.904726
0.905061
0.904727
0.904139
0.903846
0.90331
0.902478
0.901599
0.899741
0.895695
0.889718
0.88589
0.885122
0.88476
0.884243
0.883829
0.88383
0.882541
0.880542
0.877928
0.873154
0.865585
0.859332
0.856513
0.854907
0.853153
0.85028
0.846089
0.842781
0.842062
0.842094
0.842213
0.842223
0.842357
0.843622
0.846527
0.848801
0.849934
0.850389
0.849845
0.848256
0.846177
0.843122
0.83689
0.824869
0.810881
0.803241
0.801018
0.800179
0.799509
0.799174
0.799104
0.799471
0.802596
0.812904
0.826209
0.829521
0.828708
0.827124
0.825679
0.824321
0.822216
0.816616
0.802623
0.785596
0.779049
0.778013
0.777788
0.777971
0.778539
0.780643
0.788449
0.798315
0.799867
0.799646
0.799299
0.798822
0.797758
0.795104
0.790075
0.78041
0.767535
0.762063
0.761297
0.760775
0.760221
0.75988
0.759582
0.75938
0.759028
0.758299
0.757119
0.755608
0.754078
0.751975
0.74794
0.742125
0.736774
0.73452
0.733677
0.732996
0.732459
0.733112
0.736516
0.743171
0.749284
0.750944
0.750361
0.748964
0.747214
0.74465
0.74065
0.734795
0.72792
0.720979
0.713893
0.706546
0.70156
0.70044
0.700894
0.703204
0.706913
0.709931
0.712288
0.716091
0.720076
0.720135
0.717972
0.713991
0.708844
0.702794
0.695339
0.687123
0.682243
0.681446
0.682544
0.687429
0.697332
0.705012
0.707597
0.707679
0.706965
0.706156
0.705097
0.703044
0.699208
0.692507
0.683768
0.677431
0.674279
0.672376
0.670482
0.668053
0.664291
0.661157
0.661239
0.661959
0.661798
0.661477
0.661255
0.661705
0.662744
0.663688
0.664363
0.665225
0.667515
0.670443
0.671106
0.670572
0.669825
0.669092
0.668059
0.666133
0.662905
0.656224
0.641928
0.626824
0.622576
0.622004
0.621672
0.621153
0.620345
0.61955
0.619907
0.622127
0.626826
0.635355
0.646702
0.651572
0.651482
0.650728
0.649533
0.647933
0.646147
0.644367
0.642198
0.638397
0.625273
1.01052
1.00863
1.00838
1.0084
1.0083
1.00764
1.00604
1.00206
0.991883
0.976088
0.968043
0.966194
0.965261
0.964469
0.963878
0.963656
0.965761
0.976086
0.99245
0.998365
0.998074
0.997108
0.995532
0.992176
0.981754
0.955887
0.928056
0.9186
0.916478
0.915153
0.914373
0.914359
0.919082
0.936487
0.95835
0.964988
0.965152
0.964611
0.963712
0.961969
0.957583
0.94711
0.932908
0.924968
0.922079
0.919753
0.917245
0.91543
0.914015
0.913342
0.912854
0.910658
0.908944
0.909023
0.909042
0.907726
0.90592
0.904623
0.903986
0.903797
0.903072
0.900622
0.895499
0.889178
0.887045
0.886573
0.885981
0.885416
0.885087
0.885419
0.885014
0.883176
0.881022
0.878738
0.875259
0.869017
0.861366
0.857042
0.855155
0.852589
0.848482
0.844404
0.842767
0.842525
0.842855
0.843289
0.843577
0.843805
0.844767
0.847456
0.850119
0.851435
0.852114
0.852007
0.850439
0.8481
0.844711
0.83745
0.823392
0.80906
0.802786
0.801329
0.800642
0.800247
0.800106
0.800072
0.800193
0.801641
0.807489
0.819863
0.829682
0.830029
0.828415
0.826862
0.825424
0.823506
0.819863
0.811121
0.794529
0.78082
0.776753
0.776222
0.776218
0.776564
0.777288
0.780871
0.790881
0.799565
0.800348
0.800161
0.799915
0.799297
0.797139
0.793586
0.786951
0.773789
0.763127
0.76064
0.759899
0.758865
0.757563
0.757179
0.757187
0.756952
0.756486
0.755683
0.754215
0.752217
0.750226
0.748259
0.745445
0.741538
0.737972
0.736198
0.735303
0.734722
0.735137
0.737902
0.742771
0.746862
0.748001
0.747587
0.746356
0.744577
0.742021
0.738139
0.732561
0.726791
0.722677
0.719779
0.716077
0.710506
0.706012
0.704927
0.705145
0.706113
0.706316
0.706029
0.706322
0.708696
0.711893
0.711995
0.709974
0.706897
0.703985
0.701265
0.697166
0.691752
0.689302
0.68976
0.693543
0.700632
0.704209
0.704666
0.70479
0.704457
0.703669
0.702239
0.699483
0.694565
0.687313
0.680506
0.676475
0.675075
0.674416
0.673694
0.671787
0.667463
0.662605
0.66148
0.662118
0.662413
0.662457
0.662813
0.663316
0.663748
0.664374
0.664855
0.664857
0.665563
0.66782
0.669631
0.669342
0.668503
0.667713
0.666997
0.665898
0.663416
0.658714
0.649313
0.634015
0.624453
0.623141
0.622849
0.622373
0.621593
0.620631
0.62037
0.621592
0.624624
0.630484
0.640953
0.650638
0.651851
0.65134
0.65031
0.648826
0.646929
0.644941
0.642798
0.639711
0.628248
1.01002
1.00972
1.00988
1.01016
1.00983
1.00907
1.00785
1.00548
0.999334
0.986043
0.971717
0.965251
0.963402
0.962526
0.961839
0.96134
0.961737
0.968101
0.984413
0.99768
1.00004
0.999391
0.998054
0.99595
0.99009
0.970924
0.937572
0.917847
0.913568
0.912225
0.911428
0.911026
0.912666
0.92478
0.950333
0.965229
0.96635
0.965908
0.965441
0.964537
0.961742
0.953229
0.936949
0.923251
0.918554
0.916796
0.915533
0.914416
0.913082
0.911985
0.912578
0.91313
0.913309
0.913469
0.912431
0.910552
0.908517
0.906587
0.904649
0.902772
0.900413
0.895778
0.888676
0.885147
0.884639
0.884441
0.884287
0.88445
0.885581
0.887115
0.886799
0.884847
0.882494
0.880064
0.877031
0.8724
0.86534
0.857341
0.852149
0.849596
0.846956
0.844281
0.842903
0.84274
0.843129
0.843617
0.844136
0.844664
0.845552
0.847292
0.849398
0.851652
0.853458
0.853756
0.85207
0.849481
0.845834
0.837808
0.822835
0.8093
0.804379
0.802339
0.800989
0.800497
0.800574
0.800821
0.801009
0.801585
0.804141
0.811223
0.822346
0.827833
0.827569
0.826393
0.825232
0.823958
0.821854
0.81705
0.805091
0.786655
0.776874
0.774897
0.774648
0.774888
0.775436
0.776801
0.78255
0.793437
0.800052
0.800906
0.800933
0.800556
0.798983
0.796068
0.791466
0.781536
0.767311
0.760399
0.758751
0.757746
0.755909
0.75476
0.755015
0.754968
0.754282
0.753458
0.752643
0.75149
0.749872
0.748215
0.746625
0.744782
0.742113
0.739284
0.73775
0.737089
0.737226
0.739337
0.74311
0.745099
0.744887
0.743899
0.742777
0.741343
0.739079
0.735442
0.731136
0.727267
0.725369
0.724005
0.72233
0.719406
0.714517
0.709315
0.706026
0.704152
0.702824
0.701529
0.700415
0.699899
0.701109
0.705303
0.706789
0.706065
0.70582
0.706002
0.705341
0.702672
0.698791
0.697479
0.698543
0.701625
0.7026
0.702192
0.702128
0.701901
0.701054
0.699238
0.695615
0.689073
0.682184
0.678541
0.676888
0.676478
0.676156
0.67558
0.6744
0.671592
0.666755
0.663267
0.662974
0.663157
0.663032
0.662954
0.662851
0.662766
0.662712
0.662954
0.663323
0.663717
0.665152
0.667437
0.668032
0.667447
0.666667
0.665579
0.663846
0.661768
0.658841
0.65382
0.643594
0.629635
0.622944
0.621777
0.621352
0.620728
0.619882
0.619659
0.620571
0.622562
0.626567
0.634159
0.645754
0.6519
0.651761
0.650931
0.649658
0.647871
0.645796
0.643639
0.640983
0.630943
1.01113
1.01125
1.01154
1.01171
1.01129
1.0107
1.00973
1.00791
1.00402
0.994399
0.977556
0.966028
0.962694
0.961459
0.960695
0.960186
0.960103
0.963544
0.977241
0.996821
1.00356
1.00303
1.00147
0.99923
0.994449
0.980785
0.949385
0.920463
0.912595
0.91115
0.91039
0.909813
0.909846
0.915858
0.937198
0.963015
0.968913
0.968476
0.968003
0.967124
0.96463
0.956621
0.938407
0.921914
0.917361
0.91611
0.915249
0.914231
0.913015
0.912413
0.913446
0.915469
0.917649
0.917038
0.915199
0.913249
0.911223
0.909226
0.907105
0.903391
0.896763
0.888225
0.883738
0.883122
0.883239
0.883431
0.884111
0.885451
0.887137
0.888662
0.888715
0.887096
0.884785
0.882173
0.879128
0.87517
0.86898
0.859469
0.850497
0.846965
0.846245
0.845659
0.844676
0.844443
0.844783
0.845178
0.845509
0.845762
0.84635
0.848139
0.850714
0.852578
0.853583
0.853737
0.852352
0.849794
0.84613
0.837967
0.822636
0.810278
0.806247
0.804394
0.802584
0.801305
0.801112
0.801388
0.801632
0.801865
0.802798
0.805803
0.813507
0.823405
0.826939
0.826736
0.825546
0.824164
0.822554
0.819714
0.81296
0.797585
0.780187
0.774471
0.773806
0.773889
0.774338
0.774955
0.77692
0.784592
0.796621
0.802469
0.8028
0.80222
0.800626
0.798108
0.794643
0.787948
0.774412
0.761745
0.757746
0.756654
0.755592
0.754005
0.752913
0.75282
0.752654
0.752052
0.751067
0.749679
0.748322
0.74786
0.747674
0.747173
0.74623
0.744204
0.741744
0.740526
0.74015
0.740841
0.742132
0.742874
0.742252
0.740907
0.739484
0.738017
0.735886
0.732574
0.730048
0.729686
0.729435
0.728984
0.727864
0.725703
0.7219
0.715652
0.708181
0.702367
0.698741
0.695993
0.693905
0.692762
0.692637
0.695333
0.702345
0.707123
0.708775
0.710031
0.711194
0.710977
0.708915
0.705234
0.70218
0.701293
0.70107
0.700542
0.699822
0.6992
0.698209
0.695954
0.691166
0.684037
0.679404
0.677597
0.677075
0.677116
0.676924
0.676413
0.675658
0.674126
0.670655
0.666376
0.664727
0.664356
0.663943
0.663586
0.663293
0.662958
0.662429
0.662048
0.662527
0.663094
0.663423
0.664433
0.665577
0.665364
0.664529
0.663702
0.662538
0.660964
0.659524
0.657052
0.651019
0.637834
0.624948
0.621829
0.621312
0.620838
0.620157
0.619726
0.620013
0.621036
0.623525
0.628736
0.638509
0.648852
0.651343
0.650956
0.650034
0.648822
0.647049
0.644958
0.642574
0.633595
1.01161
1.01171
1.01186
1.01182
1.01164
1.01149
1.01076
1.00925
1.00686
1.00088
0.986438
0.969418
0.962986
0.961509
0.960737
0.960225
0.960077
0.962135
0.970921
0.98728
0.998537
1.00006
0.999284
0.997619
0.994821
0.986464
0.963344
0.928763
0.913237
0.911146
0.910393
0.909739
0.909466
0.911675
0.924527
0.950058
0.966433
0.967901
0.967442
0.966917
0.965295
0.958849
0.940303
0.921768
0.917947
0.917301
0.91654
0.915592
0.914509
0.914099
0.915147
0.918323
0.921344
0.920577
0.918699
0.916884
0.914527
0.911227
0.906704
0.900036
0.890515
0.883501
0.881669
0.881434
0.881463
0.881385
0.881561
0.883057
0.88537
0.887315
0.888933
0.889171
0.887587
0.885277
0.882538
0.87881
0.872421
0.86124
0.849485
0.845217
0.844217
0.843473
0.842626
0.842402
0.842813
0.843394
0.844003
0.844748
0.846891
0.851438
0.854455
0.85502
0.85515
0.85479
0.85305
0.850318
0.846423
0.838381
0.824334
0.81256
0.807916
0.806041
0.804747
0.803583
0.803069
0.803124
0.803158
0.802949
0.802724
0.803176
0.806738
0.815747
0.82524
0.826812
0.825847
0.824235
0.822692
0.820911
0.817441
0.808352
0.790418
0.776199
0.772822
0.772532
0.772694
0.773101
0.773841
0.777455
0.786751
0.797405
0.802529
0.802664
0.801384
0.799086
0.796095
0.791797
0.782843
0.768384
0.758644
0.755804
0.754873
0.753717
0.751968
0.750312
0.749741
0.749216
0.748197
0.747708
0.747762
0.7478
0.747517
0.747599
0.747939
0.747435
0.745756
0.744319
0.743464
0.74262
0.741681
0.741128
0.74036
0.738839
0.736579
0.733496
0.73103
0.730449
0.730399
0.730976
0.732665
0.733568
0.732984
0.730913
0.727315
0.721012
0.711365
0.701423
0.69427
0.689784
0.687287
0.686317
0.686332
0.688906
0.69702
0.707597
0.713236
0.716067
0.717323
0.717042
0.715842
0.713258
0.708204
0.702424
0.69993
0.698868
0.69777
0.696488
0.694527
0.690875
0.685046
0.680339
0.678324
0.677267
0.677435
0.678012
0.677963
0.677628
0.67706
0.675971
0.673369
0.669444
0.666605
0.665533
0.664891
0.664434
0.664039
0.66352
0.662755
0.662271
0.662826
0.662531
0.661402
0.661034
0.661654
0.662648
0.66243
0.661866
0.661707
0.66152
0.660624
0.658531
0.654524
0.645974
0.632176
0.623968
0.622688
0.622213
0.621483
0.620368
0.61959
0.619823
0.621145
0.624638
0.631989
0.644182
0.651365
0.651549
0.650777
0.649654
0.648335
0.646626
0.644694
0.636691
1.0136
1.01376
1.014
1.01408
1.01407
1.01393
1.0128
1.01103
1.00855
1.00398
0.994202
0.977241
0.965176
0.962647
0.961972
0.9615
0.961319
0.962569
0.967959
0.980224
0.993562
0.997209
0.996672
0.99529
0.992806
0.987384
0.973367
0.944887
0.918933
0.912331
0.911224
0.910548
0.910167
0.911073
0.917311
0.936034
0.960298
0.968384
0.968191
0.967419
0.965607
0.959992
0.944792
0.924548
0.916561
0.915354
0.914602
0.913617
0.912423
0.912119
0.914498
0.919817
0.924588
0.924583
0.922609
0.920634
0.918054
0.914044
0.906682
0.894944
0.88408
0.880343
0.87967
0.879785
0.879846
0.879811
0.880159
0.882225
0.885296
0.887634
0.8894
0.890389
0.890174
0.888511
0.886192
0.882659
0.875136
0.860786
0.847739
0.844196
0.843477
0.842826
0.842036
0.841792
0.842251
0.843009
0.843783
0.845341
0.850176
0.853265
0.853079
0.852701
0.852378
0.851628
0.849623
0.846894
0.84309
0.836139
0.826516
0.819042
0.814044
0.809912
0.806552
0.803567
0.801496
0.801103
0.801195
0.801248
0.801175
0.801159
0.802689
0.808576
0.819263
0.826059
0.826278
0.824955
0.823308
0.821863
0.819845
0.814903
0.801706
0.781276
0.772328
0.771435
0.771508
0.771912
0.772557
0.773863
0.778911
0.789578
0.799129
0.802196
0.802228
0.800773
0.798269
0.794857
0.788838
0.776821
0.762152
0.755368
0.753418
0.752437
0.751022
0.748663
0.746522
0.745823
0.746033
0.746889
0.748747
0.749319
0.748692
0.748613
0.749451
0.750078
0.749549
0.748603
0.74684
0.744028
0.741323
0.73971
0.738538
0.736775
0.733656
0.729841
0.728224
0.728024
0.728594
0.731314
0.735661
0.73778
0.737524
0.735777
0.732378
0.726185
0.714895
0.699898
0.688371
0.683265
0.681512
0.680963
0.681108
0.683642
0.691751
0.705421
0.717291
0.72187
0.72215
0.721612
0.720776
0.718834
0.714201
0.705732
0.699193
0.697104
0.695738
0.693793
0.690331
0.685025
0.680763
0.678924
0.678028
0.678329
0.679156
0.679211
0.679176
0.67898
0.678471
0.677478
0.675608
0.672645
0.669402
0.667153
0.666102
0.665539
0.66512
0.664739
0.66418
0.663697
0.66326
0.661649
0.659804
0.65878
0.658513
0.659248
0.660288
0.660165
0.65972
0.659516
0.659174
0.658128
0.656028
0.651714
0.64188
0.628469
0.622121
0.620862
0.620208
0.619306
0.618478
0.618453
0.619195
0.621452
0.626472
0.636743
0.649156
0.652219
0.651795
0.650862
0.649781
0.648295
0.646494
0.639147
1.01114
1.01134
1.01166
1.01189
1.01192
1.01214
1.01129
1.00959
1.00762
1.00511
0.99998
0.988344
0.971929
0.964662
0.96371
0.96339
0.963275
0.963938
0.966634
0.97296
0.984392
0.992861
0.993345
0.991809
0.989512
0.985805
0.977795
0.959796
0.932221
0.916242
0.913472