0.0826367 	0.499829 	-1.44825e-18 	0.597357 	-0.0283725 	8.42044e-17
