/*--------------------------------*- C++ -*----------------------------------*\
  =========                 |
  \\      /  F ield         | OpenFOAM: The Open Source CFD Toolbox
   \\    /   O peration     | Website:  https://openfoam.org
    \\  /    A nd           | Version:  7
     \\/     M anipulation  |
\*---------------------------------------------------------------------------*/
FoamFile
{
    version     2.0;
    format      ascii;
    class       surfaceScalarField;
    location    "1.8";
    object      phi;
}
// * * * * * * * * * * * * * * * * * * * * * * * * * * * * * * * * * * * * * //

dimensions      [0 3 -1 0 0 0 0];

internalField   nonuniform List<scalar> 
615
(
0.000195014
-1.68604e-06
0.000195475
-1.65689e-06
0.000195926
-1.62816e-06
0.00019637
-1.59982e-06
0.000196805
-1.57182e-06
0.000197231
-1.54414e-06
0.00019765
-1.51674e-06
0.000198061
-1.48959e-06
0.000198463
-1.46265e-06
0.000198858
-1.43589e-06
0.000199245
-1.40928e-06
0.000199624
-1.38277e-06
0.000199996
-1.35635e-06
0.00020036
-1.32996e-06
0.000200716
-1.30358e-06
0.000201064
-1.27718e-06
0.000201405
-1.25072e-06
0.000201738
-1.22419e-06
0.000202064
-1.19755e-06
0.000202381
-1.17078e-06
0.000202691
-1.14387e-06
0.000202994
-1.11679e-06
0.000203288
-1.08953e-06
0.000203575
-1.06209e-06
0.000203853
-1.03446e-06
0.000204124
-1.00664e-06
0.000204387
-9.7864e-07
0.000204642
-9.50457e-07
0.000204888
-9.22106e-07
0.000205127
-8.93602e-07
0.000205357
-8.64961e-07
0.00020558
-8.36202e-07
0.000205794
-8.07348e-07
0.000206
-7.78421e-07
0.000206197
-7.49445e-07
0.000206387
-7.20445e-07
0.000206569
-6.91447e-07
0.000206742
-6.62477e-07
0.000206907
-6.33562e-07
0.000207064
-6.0473e-07
0.000207214
-5.7601e-07
0.000207355
-5.47434e-07
0.000207488
-5.19033e-07
0.000207614
-4.90846e-07
0.000207732
-4.62912e-07
0.000207842
-4.35277e-07
0.000207946
-4.07991e-07
0.000208041
-3.81111e-07
0.00020813
-3.54697e-07
0.000208212
-3.28818e-07
0.000208287
-3.03547e-07
0.000208355
-2.7896e-07
0.000208418
-2.55138e-07
0.000208474
-2.32165e-07
0.000208525
-2.10122e-07
0.00020857
-1.8909e-07
0.00020861
-1.69148e-07
-1.50367e-07
0.000224466
-2.57488e-06
0.000225057
-2.52817e-06
0.000225635
-2.48247e-06
0.000226201
-2.43775e-06
0.000226756
-2.39396e-06
0.0002273
-2.35106e-06
0.000227833
-2.30899e-06
0.000228355
-2.26772e-06
0.000228866
-2.2272e-06
0.000229368
-2.18738e-06
0.000229859
-2.14823e-06
0.00023034
-2.10969e-06
0.000230812
-2.07172e-06
0.000231275
-2.03427e-06
0.000231728
-1.9973e-06
0.000232172
-1.96076e-06
0.000232607
-1.9246e-06
0.000233033
-1.88876e-06
0.00023345
-1.85321e-06
0.000233859
-1.81789e-06
0.000234259
-1.78276e-06
0.00023465
-1.74776e-06
0.000235033
-1.71285e-06
0.000235408
-1.67798e-06
0.000235774
-1.64311e-06
0.000236131
-1.6082e-06
0.00023648
-1.57322e-06
0.000236821
-1.53811e-06
0.000237153
-1.50287e-06
0.000237476
-1.46745e-06
0.000237791
-1.43183e-06
0.000238098
-1.39601e-06
0.000238396
-1.35996e-06
0.000238685
-1.32369e-06
0.000238966
-1.28718e-06
0.000239237
-1.25046e-06
0.0002395
-1.21352e-06
0.000239755
-1.17638e-06
0.00024
-1.13906e-06
0.000240237
-1.10158e-06
0.000240465
-1.06398e-06
0.000240683
-1.02627e-06
0.000240894
-9.88498e-07
0.000241095
-9.5069e-07
0.000241287
-9.12881e-07
0.000241471
-8.75108e-07
0.000241646
-8.37409e-07
0.000241812
-7.99821e-07
0.00024197
-7.62384e-07
0.000242119
-7.2514e-07
0.00024226
-6.88133e-07
0.000242392
-6.5141e-07
0.000242516
-6.15024e-07
0.000242632
-5.79029e-07
0.00024274
-5.4349e-07
0.000242841
-5.08473e-07
0.000242934
-4.74053e-07
0.000243019
-4.40313e-07
0.000243098
-4.07339e-07
0.00024317
-3.75224e-07
0.000243235
-3.44067e-07
0.000243294
-3.13967e-07
0.000243346
-2.85026e-07
0.000243394
-2.57344e-07
0.000243436
-2.31017e-07
0.000243473
-2.06136e-07
-1.82785e-07
0.000257805
-3.19367e-06
0.00025841
-3.13305e-06
0.000259001
-3.07386e-06
0.000259579
-3.01605e-06
0.000260145
-2.95954e-06
0.000260698
-2.90427e-06
0.000261239
-2.85018e-06
0.000261769
-2.7972e-06
0.000262287
-2.74528e-06
0.000262794
-2.69435e-06
0.00026329
-2.64434e-06
0.000263775
-2.5952e-06
0.000264251
-2.54686e-06
0.000264716
-2.49926e-06
0.000265171
-2.45234e-06
0.000265616
-2.40602e-06
0.000266052
-2.36024e-06
0.000266478
-2.31495e-06
0.000266895
-2.27006e-06
0.000267302
-2.22552e-06
0.000267701
-2.18126e-06
0.00026809
-2.13722e-06
0.000268471
-2.09333e-06
0.000268842
-2.04954e-06
0.000269205
-2.00578e-06
0.000269559
-1.96201e-06
0.000269904
-1.91817e-06
0.00027024
-1.87421e-06
0.000270567
-1.8301e-06
0.000270885
-1.7858e-06
0.000271195
-1.74129e-06
0.000271495
-1.69654e-06
0.000271787
-1.65153e-06
0.000272069
-1.60627e-06
0.000272343
-1.56075e-06
0.000272608
-1.51497e-06
0.000272863
-1.46895e-06
0.000273109
-1.42272e-06
0.000273347
-1.37629e-06
0.000273575
-1.32969e-06
0.000273794
-1.28297e-06
0.000274004
-1.23616e-06
0.000274204
-1.1893e-06
0.000274396
-1.14244e-06
0.000274579
-1.09562e-06
0.000274753
-1.04889e-06
0.000274917
-1.0023e-06
0.000275074
-9.55914e-07
0.000275221
-9.09771e-07
0.00027536
-8.63933e-07
0.00027549
-8.1846e-07
0.000275612
-7.73414e-07
0.000275726
-7.28865e-07
0.000275832
-6.84887e-07
0.00027593
-6.41561e-07
0.00027602
-5.98973e-07
0.000276104
-5.57217e-07
0.00027618
-5.16396e-07
0.000276249
-4.76616e-07
0.000276312
-4.37988e-07
0.000276368
-4.00628e-07
0.000276419
-3.64653e-07
0.000276464
-3.30179e-07
0.000276504
-2.9732e-07
0.000276539
-2.66181e-07
0.00027657
-2.36863e-07
-2.0945e-07
0.000290073
-3.79402e-06
0.000290658
-3.71866e-06
0.00029123
-3.64522e-06
0.000291787
-3.57363e-06
0.000292331
-3.50378e-06
0.000292863
-3.4356e-06
0.000293382
-3.36899e-06
0.000293888
-3.30387e-06
0.000294383
-3.24015e-06
0.000294867
-3.17776e-06
0.000295339
-3.11661e-06
0.0002958
-3.05662e-06
0.000296251
-2.99769e-06
0.000296692
-2.93976e-06
0.000297122
-2.88273e-06
0.000297542
-2.82652e-06
0.000297953
-2.77104e-06
0.000298355
-2.71622e-06
0.000298746
-2.66195e-06
0.000299129
-2.60817e-06
0.000299503
-2.55478e-06
0.000299867
-2.5017e-06
0.000300223
-2.44886e-06
0.000300569
-2.39618e-06
0.000300907
-2.34358e-06
0.000301236
-2.291e-06
0.000301556
-2.23838e-06
0.000301868
-2.18565e-06
0.00030217
-2.13276e-06
0.000302464
-2.07969e-06
0.000302749
-2.02638e-06
0.000303026
-1.97281e-06
0.000303293
-1.91897e-06
0.000303552
-1.86485e-06
0.000303801
-1.81045e-06
0.000304042
-1.75578e-06
0.000304274
-1.70085e-06
0.000304497
-1.64569e-06
0.000304711
-1.59034e-06
0.000304916
-1.53484e-06
0.000305112
-1.47922e-06
0.0003053
-1.42354e-06
0.000305478
-1.36785e-06
0.000305648
-1.31222e-06
0.000305809
-1.25669e-06
0.000305962
-1.20134e-06
0.000306106
-1.14622e-06
0.000306241
-1.09141e-06
0.000306368
-1.03697e-06
0.000306487
-9.82981e-07
0.000306598
-9.29517e-07
0.000306702
-8.76659e-07
0.000306797
-8.24494e-07
0.000306885
-7.73115e-07
0.000306967
-7.22621e-07
0.000307041
-6.73118e-07
0.000307108
-6.24719e-07
0.000307169
-5.77542e-07
0.000307224
-5.3171e-07
0.000307274
-4.87352e-07
0.000307318
-4.44596e-07
0.000307357
-4.0357e-07
0.000307391
-3.644e-07
0.000307421
-3.27205e-07
0.000307447
-2.92095e-07
0.000307469
-2.5917e-07
-2.28512e-07
0.00032075
-4.33866e-06
0.00032128
-4.24858e-06
0.000321796
-4.16097e-06
0.000322298
-4.07573e-06
0.000322787
-3.99272e-06
0.000323263
-3.91185e-06
0.000323727
-3.83298e-06
0.000324179
-3.75602e-06
0.00032462
-3.68085e-06
0.00032505
-3.60737e-06
0.000325468
-3.53546e-06
0.000325877
-3.46504e-06
0.000326275
-3.39597e-06
0.000326664
-3.32817e-06
0.000327042
-3.26152e-06
0.000327412
-3.19592e-06
0.000327772
-3.13126e-06
0.000328123
-3.06743e-06
0.000328466
0.000328799
0.000329124
0.000329441
0.000329749
0.000330049
0.000330341
0.000330625
0.0003309
0.000331167
0.000331426
0.000331677
0.00033192
0.000332154
0.000332381
0.000332599
0.000332809
0.000333011
0.000333204
0.000333389
0.000333567
0.000333736
0.000333896
0.000334049
0.000334194
0.000334331
0.00033446
0.000334581
0.000334694
0.0003348
0.000334899
0.00033499
0.000335075
0.000335153
0.000335224
0.000335289
0.000335347
0.0003354
0.000335448
0.00033549
0.000335528
0.000335561
0.000335589
0.000335614
0.000335635
0.000335654
0.000335669
0.000335682
0.000349187
0.000349624
0.000350049
0.000350461
0.000350861
0.000351249
0.000351626
0.000351993
0.00035235
0.000352696
0.000353033
0.000353361
0.000353679
0.00035399
0.000354291
0.000354585
0.00035487
)
;

boundaryField
{
    inlet
    {
        type            calculated;
        value           nonuniform 0();
    }
    outlet
    {
        type            calculated;
        value           nonuniform 0();
    }
    wall
    {
        type            calculated;
        value           nonuniform 0();
    }
    wedge1
    {
        type            wedge;
        value           nonuniform List<scalar> 
344
(
3.90245e-16
6.31891e-17
4.58275e-16
6.93104e-17
4.84296e-16
3.8326e-16
6.19921e-17
4.49262e-16
6.78416e-17
4.73849e-16
3.76617e-16
6.10209e-17
4.40668e-16
6.65765e-17
4.63872e-16
3.70007e-16
5.97918e-17
4.32192e-16
6.51268e-17
4.54128e-16
3.63411e-16
5.88446e-17
4.2383e-16
6.39118e-17
4.44563e-16
3.57019e-16
5.76318e-17
4.15743e-16
6.25132e-17
4.35345e-16
3.50634e-16
5.67124e-17
4.07762e-16
6.13838e-17
4.26295e-16
3.44539e-16
5.55403e-17
4.0005e-16
6.00651e-17
4.17573e-16
3.38402e-16
5.46642e-17
3.92397e-16
5.89648e-17
4.08956e-16
4.44977e-17
3.32455e-16
5.35182e-17
3.84996e-16
5.76853e-17
4.0063e-16
4.35313e-17
3.26464e-16
5.26467e-17
3.77613e-16
5.66389e-17
3.92403e-16
4.27433e-17
3.20741e-16
5.1523e-17
3.70473e-16
5.54009e-17
3.84461e-16
4.212e-17
3.1494e-16
5.06816e-17
3.6336e-16
5.43989e-17
3.76568e-16
4.13835e-17
3.09459e-16
4.96178e-17
3.565e-16
5.32104e-17
3.68967e-16
4.02518e-17
3.03661e-16
4.85997e-17
3.49569e-16
5.21267e-17
3.61326e-16
3.95658e-17
2.98007e-16
4.78332e-17
3.42859e-16
5.12245e-17
3.53945e-16
3.89072e-17
2.92645e-16
4.68748e-17
3.3621e-16
5.01593e-17
3.46656e-16
3.82767e-17
2.87312e-16
4.59784e-17
3.29644e-16
4.91207e-17
3.39462e-16
3.76415e-17
2.81999e-16
4.50765e-17
3.23127e-16
4.81113e-17
3.70024e-17
2.76711e-16
4.41764e-17
3.16661e-16
4.7107e-17
3.63822e-17
2.71449e-16
4.33194e-17
3.10258e-16
4.61034e-17
3.57668e-17
2.66238e-16
4.24656e-17
3.03882e-16
4.51053e-17
3.51382e-17
2.61011e-16
4.1609e-17
2.97538e-16
4.4128e-17
3.45153e-17
2.55788e-16
4.07523e-17
2.91222e-16
4.31518e-17
3.39034e-17
2.50585e-16
3.99073e-17
2.84908e-16
4.21756e-17
3.32993e-17
2.45398e-16
3.90687e-17
2.78606e-16
4.12082e-17
3.26521e-17
2.40096e-16
3.81762e-17
2.72228e-16
4.01885e-17
3.21018e-17
2.34976e-16
3.74901e-17
2.66018e-16
3.93373e-17
3.1354e-17
2.29776e-16
3.65127e-17
2.59719e-16
3.82594e-17
3.07773e-17
2.24361e-16
3.57848e-17
2.53267e-16
3.73767e-17
2.99888e-17
2.19047e-16
3.47984e-17
2.46944e-16
3.62943e-17
2.90588e-17
2.13519e-16
3.40332e-17
2.4043e-16
3.54085e-17
2.84242e-17
2.08292e-16
3.30779e-17
2.34108e-16
3.43588e-17
2.76737e-17
2.02542e-16
3.21517e-17
2.27435e-16
3.3339e-17
2.67727e-17
1.97064e-16
3.12483e-17
2.20901e-16
3.23342e-17
2.60416e-17
1.91458e-16
3.03257e-17
2.14349e-16
3.13368e-17
2.5128e-17
1.85904e-16
2.941e-17
2.0775e-16
3.03391e-17
2.43727e-17
1.80239e-16
2.84781e-17
2.01113e-16
2.93219e-17
2.34631e-17
1.74598e-16
2.75451e-17
1.94461e-16
2.8316e-17
2.27132e-17
1.6886e-16
2.66104e-17
1.87779e-16
2.73039e-17
2.17767e-17
1.63166e-16
2.56732e-17
1.81074e-16
2.62964e-17
2.1026e-17
1.57374e-16
2.47216e-17
1.74353e-16
2.52807e-17
2.00873e-17
1.51645e-16
2.37705e-17
1.67657e-16
2.42643e-17
1.93537e-17
1.45845e-16
2.28074e-17
1.60931e-16
2.32377e-17
1.83633e-17
1.40153e-16
2.18974e-17
1.54266e-16
2.22706e-17
1.76688e-17
1.34399e-16
2.08596e-17
1.4754e-16
2.11791e-17
1.69131e-17
1.28426e-16
1.98793e-17
1.40704e-16
2.01253e-17
1.60017e-17
1.2277e-16
1.89309e-17
1.34085e-16
1.91079e-17
1.52605e-17
1.17047e-16
1.79946e-17
1.27504e-16
1.81073e-17
1.43641e-17
1.11416e-16
1.70789e-17
1.20961e-16
1.7117e-17
1.36431e-17
1.05705e-16
1.61279e-17
1.14456e-16
1.61527e-17
1.27431e-17
1.00123e-16
1.5203e-17
1.08024e-16
1.52034e-17
1.20547e-17
9.45168e-17
1.43015e-17
1.0168e-16
1.42482e-17
1.1182e-17
8.90222e-17
1.34082e-17
9.541e-17
1.33136e-17
1.04913e-17
8.35409e-17
1.25076e-17
8.92603e-17
1.23993e-17
9.64442e-18
7.8203e-17
1.16665e-17
8.321e-17
1.1512e-17
8.97588e-18
7.28733e-17
1.08148e-17
7.72799e-17
1.06405e-17
8.18407e-18
6.77163e-17
9.97975e-18
7.14999e-17
9.79137e-18
7.56626e-18
6.26106e-17
9.15136e-18
6.58608e-17
8.96655e-18
6.78109e-18
5.76743e-17
8.36105e-18
6.03979e-17
8.1617e-18
6.16536e-18
5.28084e-17
7.57022e-18
5.51143e-17
7.39636e-18
5.38466e-18
4.8171e-17
6.83154e-18
5.00434e-17
6.64925e-18
4.85345e-18
4.36382e-17
6.12401e-18
4.51851e-17
5.94472e-18
4.15351e-18
3.93628e-17
5.43012e-18
4.05581e-17
5.27564e-18
3.64768e-18
3.51977e-17
4.77222e-18
3.61808e-17
4.6388e-18
2.99426e-18
3.13494e-17
4.16415e-18
3.20721e-17
4.05484e-18
2.55163e-18
2.76389e-17
3.56465e-18
2.82143e-17
3.4898e-18
)
;
    }
    wedge2
    {
        type            wedge;
        value           nonuniform List<scalar> 
344
(
3.8578e-16
5.98706e-17
4.55929e-16
6.79082e-17
4.83829e-16
3.78918e-16
5.87694e-17
4.47086e-16
6.65708e-17
4.7361e-16
3.72004e-16
5.74955e-17
4.38266e-16
6.51046e-17
4.63515e-16
3.65344e-16
5.65302e-17
4.29755e-16
6.38955e-17
4.53754e-16
3.58936e-16
5.53312e-17
4.21534e-16
6.25197e-17
4.44349e-16
3.52582e-16
5.44436e-17
4.13421e-16
6.13924e-17
4.35106e-16
3.4646e-16
5.33065e-17
4.05566e-16
6.00571e-17
4.26176e-16
3.4028e-16
5.24631e-17
3.97788e-16
5.89696e-17
4.17374e-16
3.34357e-16
5.13627e-17
3.90275e-16
5.77184e-17
4.08894e-16
3.9623e-17
3.2845e-16
5.05691e-17
3.82817e-16
5.66977e-17
4.00526e-16
3.91734e-17
3.22776e-16
4.95353e-17
3.75629e-16
5.54929e-17
3.92436e-16
3.85449e-17
3.17013e-16
4.87858e-17
3.68466e-16
5.45242e-17
3.84414e-16
3.77707e-17
3.11492e-16
4.77837e-17
3.61525e-16
5.33618e-17
3.76669e-16
3.71084e-17
3.05802e-16
4.70315e-17
3.54561e-16
5.24246e-17
3.68934e-16
3.68918e-17
3.00566e-16
4.62491e-17
3.4788e-16
5.14122e-17
3.61517e-16
3.62253e-17
2.95315e-16
4.52564e-17
3.41167e-16
5.02621e-17
3.54088e-16
3.55433e-17
2.89877e-16
4.44664e-17
3.34563e-16
4.92977e-17
3.46794e-16
3.48437e-17
2.84504e-16
4.36324e-17
3.28027e-16
4.8333e-17
3.39606e-16
3.41569e-17
2.79192e-16
4.28191e-17
3.21573e-16
4.73615e-17
3.34813e-17
2.73923e-16
4.20167e-17
3.1518e-16
4.64041e-17
3.27918e-17
2.68679e-16
4.11817e-17
3.08816e-16
4.5462e-17
3.21008e-17
2.63424e-16
4.03516e-17
3.02498e-16
4.45276e-17
3.14251e-17
2.58209e-16
3.953e-17
2.96202e-16
4.35822e-17
3.07439e-17
2.53e-16
3.87115e-17
2.89915e-16
4.2643e-17
3.00502e-17
2.4777e-16
3.78829e-17
2.83645e-16
4.1708e-17
2.93461e-17
2.42511e-16
3.70468e-17
2.77365e-16
4.0766e-17
2.86809e-17
2.3734e-16
3.62618e-17
2.71149e-16
3.98757e-17
2.79133e-17
2.31945e-16
3.52661e-17
2.64736e-16
3.88141e-17
2.7337e-17
2.26594e-16
3.45553e-17
2.58378e-16
3.79746e-17
2.65818e-17
2.21402e-16
3.3588e-17
2.52125e-16
3.69338e-17
2.60158e-17
2.16051e-16
3.28706e-17
2.45685e-16
3.60848e-17
2.56114e-17
2.10847e-16
3.19225e-17
2.39374e-16
3.50309e-17
2.48876e-17
2.05275e-16
3.11545e-17
2.32803e-16
3.41314e-17
2.42563e-17
2.00161e-16
3.03473e-17
2.26516e-16
3.31926e-17
2.37934e-17
1.94697e-16
2.95068e-17
2.20017e-16
3.22292e-17
2.31228e-17
1.89292e-16
2.86754e-17
2.13468e-16
3.12492e-17
2.26544e-17
1.83768e-16
2.78274e-17
2.069e-16
3.02609e-17
2.19922e-17
1.78293e-16
2.69866e-17
2.00312e-16
2.92845e-17
2.15011e-17
1.72735e-16
2.61389e-17
1.93688e-16
2.82903e-17
2.08171e-17
1.67224e-16
2.52859e-17
1.8705e-16
2.72973e-17
2.03402e-17
1.61625e-16
2.44296e-17
1.80403e-16
2.62962e-17
1.96463e-17
1.56089e-16
2.35837e-17
1.7375e-16
2.5302e-17
1.91614e-17
1.50465e-16
2.27343e-17
1.67063e-16
2.43091e-17
1.8444e-17
1.44896e-16
2.1896e-17
1.60412e-16
2.3329e-17
1.80049e-17
1.39212e-16
2.1005e-17
1.53717e-16
2.22943e-17
1.72577e-17
1.33587e-16
2.02443e-17
1.47111e-16
2.13913e-17
1.65617e-17
1.28213e-16
1.94304e-17
1.4067e-16
2.04601e-17
1.60442e-17
1.22538e-16
1.85907e-17
1.34071e-16
1.95049e-17
1.53391e-17
1.16968e-16
1.77469e-17
1.27512e-16
1.85477e-17
1.4814e-17
1.11356e-16
1.68927e-17
1.21012e-16
1.75976e-17
1.40994e-17
1.05884e-16
1.60862e-17
1.14586e-16
1.66422e-17
1.35916e-17
1.00359e-16
1.52682e-17
1.08218e-16
1.56952e-17
1.28628e-17
9.49492e-17
1.44442e-17
1.01916e-16
1.4781e-17
1.23466e-17
8.9534e-17
1.36321e-17
9.57136e-17
1.38763e-17
1.1645e-17
8.42302e-17
1.285e-17
8.95883e-17
1.29851e-17
1.11322e-17
7.89279e-17
1.2035e-17
8.35863e-17
1.21046e-17
1.04444e-17
7.37844e-17
1.12605e-17
7.7714e-17
1.12501e-17
9.91559e-18
6.86596e-17
1.05031e-17
7.19701e-17
1.0419e-17
9.22438e-18
6.37014e-17
9.77715e-18
6.63939e-17
9.61424e-18
8.74194e-18
5.88197e-17
9.05537e-18
6.09816e-17
8.8442e-18
8.11004e-18
5.41436e-17
8.38108e-18
5.5762e-17
8.09404e-18
7.69207e-18
4.95458e-17
7.70605e-18
5.07341e-17
7.38942e-18
7.05443e-18
4.51815e-17
7.05616e-18
4.59292e-17
6.7102e-18
6.64026e-18
4.09292e-17
6.45328e-18
4.13593e-17
6.06756e-18
6.07231e-18
3.69666e-17
5.87952e-18
3.70343e-17
5.46825e-18
5.71323e-18
3.31156e-17
5.32505e-18
3.2961e-17
4.89497e-18
5.19336e-18
2.95816e-17
4.83468e-18
2.91793e-17
4.38414e-18
)
;
    }
    axis
    {
        type            empty;
        value           nonuniform 0();
    }
    procBoundary7to1
    {
        type            processor;
        value           nonuniform List<scalar> 
68
(
1.2168e-06
1.19644e-06
1.17634e-06
1.15648e-06
1.13684e-06
1.11739e-06
1.09812e-06
1.079e-06
1.06001e-06
1.04112e-06
1.02231e-06
1.00356e-06
9.84849e-07
9.66147e-07
9.47434e-07
9.2869e-07
9.09894e-07
8.91027e-07
8.72072e-07
8.53013e-07
8.33837e-07
8.14533e-07
7.95092e-07
7.7551e-07
7.55782e-07
7.35908e-07
7.15891e-07
6.95737e-07
6.75451e-07
6.55045e-07
6.3453e-07
6.1392e-07
5.93228e-07
5.72472e-07
5.51667e-07
5.3083e-07
5.09979e-07
4.8913e-07
4.68303e-07
4.47515e-07
4.26786e-07
4.06135e-07
3.85586e-07
3.65161e-07
3.44889e-07
3.248e-07
3.0493e-07
2.85316e-07
2.66003e-07
2.4704e-07
2.2848e-07
2.10378e-07
1.92796e-07
1.75795e-07
1.59439e-07
1.43789e-07
1.28907e-07
1.1485e-07
1.97206e-06
1.9378e-06
1.90424e-06
1.87133e-06
1.83905e-06
1.80738e-06
1.77627e-06
1.74569e-06
-0.000194545
1.71563e-06
)
;
    }
    procBoundary7to6
    {
        type            processor;
        value           nonuniform List<scalar> 4(-0.000223863 -0.000257186 -0.000289472 -0.000320206);
    }
    procBoundary7to8
    {
        type            processor;
        value           nonuniform List<scalar> 5(0.000208646 0.000243505 0.000276597 0.000307488 0.000335692);
    }
    procBoundary7to12
    {
        type            processor;
        value           uniform -0.000348735;
    }
    procBoundary7to13
    {
        type            processor;
        value           nonuniform List<scalar> 
68
(
-3.00433e-06
-2.94186e-06
-2.8799e-06
-2.81837e-06
-2.75715e-06
-2.69617e-06
-2.63532e-06
-2.57454e-06
-2.51373e-06
-2.45284e-06
-2.39181e-06
-2.33057e-06
-2.2691e-06
-2.20736e-06
-2.14534e-06
-2.08302e-06
-2.02041e-06
-1.95753e-06
-1.89439e-06
-1.83102e-06
-1.76748e-06
-1.7038e-06
-1.64005e-06
-1.57628e-06
-1.51257e-06
-1.44898e-06
-1.3856e-06
-1.32248e-06
-1.25973e-06
-1.19741e-06
-1.13563e-06
-1.07446e-06
-1.01401e-06
-9.54368e-07
-8.95645e-07
-8.3795e-07
-7.814e-07
-7.26116e-07
-6.72228e-07
-6.19866e-07
-5.69168e-07
-5.20269e-07
-4.73307e-07
-4.28415e-07
-3.85719e-07
-3.45338e-07
-3.07378e-07
-2.7193e-07
-2.39068e-07
-4.78991e-06
-4.68619e-06
-4.58551e-06
-4.48774e-06
-4.39272e-06
-4.3003e-06
-4.21034e-06
-4.1227e-06
-4.03726e-06
-3.95387e-06
-3.8724e-06
-3.79273e-06
-3.71472e-06
-3.63824e-06
-3.56316e-06
-3.48936e-06
-3.4167e-06
0.000355148
-3.34506e-06
)
;
    }
}


// ************************************************************************* //
