/*--------------------------------*- C++ -*----------------------------------*\
  =========                 |
  \\      /  F ield         | OpenFOAM: The Open Source CFD Toolbox
   \\    /   O peration     | Website:  https://openfoam.org
    \\  /    A nd           | Version:  7
     \\/     M anipulation  |
\*---------------------------------------------------------------------------*/
FoamFile
{
    version     2.0;
    format      ascii;
    class       volScalarField;
    location    "83.00012";
    object      p;
}
// * * * * * * * * * * * * * * * * * * * * * * * * * * * * * * * * * * * * * //

dimensions      [0 2 -2 0 0 0 0];

internalField   nonuniform List<scalar> 
5800
(
-0.225116
-0.225615
-0.226073
-0.226437
-0.226626
-0.224522
-0.224006
-0.223425
-0.22279
-0.222094
-0.221336
-0.220514
-0.219625
-0.218669
-0.217644
-0.216549
-0.215381
-0.214141
-0.212825
-0.211433
-0.209963
-0.208413
-0.206781
-0.205066
-0.203263
-0.20137
-0.199383
-0.197296
-0.195102
-0.192788
-0.190327
-0.187793
-0.185142
-0.182371
-0.179471
-0.176435
-0.173262
-0.16995
-0.166499
-0.162916
-0.159206
-0.155381
-0.15145
-0.147425
-0.143312
-0.139112
-0.134824
-0.130429
-0.125902
-0.121196
-0.11627
-0.111061
-0.105442
-0.0995477
-0.0932557
-0.0865953
-0.079619
-0.0723805
-0.0650704
-0.0578031
-0.0507725
-0.0441423
-0.0380626
-0.0326403
-0.0279093
-0.0238616
-0.020373
-0.0173548
-0.0145574
-0.012
-0.00923844
-0.00704849
-0.00364201
-0.00298122
0.00224213
-0.22514
-0.224603
-0.22399
-0.223322
-0.222584
-0.221773
-0.220886
-0.219922
-0.218878
-0.217751
-0.216541
-0.215245
-0.213862
-0.212391
-0.210832
-0.209183
-0.207445
-0.205618
-0.203702
-0.201698
-0.199605
-0.197424
-0.195154
-0.192796
-0.190347
-0.18782
-0.185144
-0.182455
-0.179699
-0.176868
-0.173962
-0.170983
-0.167933
-0.164815
-0.161634
-0.158394
-0.155102
-0.151761
-0.14837
-0.144922
-0.141395
-0.137773
-0.13401
-0.130055
-0.125832
-0.121278
-0.11631
-0.110836
-0.104813
-0.0982626
-0.091183
-0.08364
-0.0756699
-0.0675468
-0.0593788
-0.0513976
-0.0438003
-0.0367772
-0.0304765
-0.0249694
-0.0203059
-0.0163603
-0.0131441
-0.0102928
-0.00802951
-0.00558422
-0.00410147
-0.00131963
-0.00156044
0.002635
-0.22587
-0.225299
-0.224632
-0.223938
-0.223161
-0.222298
-0.221348
-0.220308
-0.219177
-0.217951
-0.216628
-0.215206
-0.213684
-0.212061
-0.210338
-0.208514
-0.206592
-0.204574
-0.202462
-0.20026
-0.197972
-0.195602
-0.193155
-0.190636
-0.188048
-0.185389
-0.182643
-0.179928
-0.17719
-0.174427
-0.171647
-0.168857
-0.166063
-0.163271
-0.160482
-0.157699
-0.154925
-0.152157
-0.14938
-0.146574
-0.143694
-0.140711
-0.137549
-0.134135
-0.130359
-0.126138
-0.121355
-0.115962
-0.109855
-0.103027
-0.0955073
-0.0873947
-0.0787517
-0.0698303
-0.0607999
-0.051917
-0.0434058
-0.0354914
-0.0283568
-0.0221045
-0.0168384
-0.0124317
-0.00899747
-0.00606017
-0.00405771
-0.00189813
-0.00111028
0.00105282
-9.33823e-05
0.00300048
-0.226683
-0.226087
-0.225398
-0.224644
-0.223809
-0.222895
-0.221884
-0.220773
-0.219558
-0.218237
-0.216806
-0.215263
-0.213608
-0.21184
-0.209959
-0.207968
-0.205869
-0.203666
-0.201366
-0.198974
-0.196499
-0.193948
-0.191331
-0.188657
-0.185933
-0.183155
-0.180321
-0.177599
-0.174882
-0.172184
-0.169524
-0.166916
-0.164369
-0.161888
-0.159476
-0.157129
-0.15485
-0.152627
-0.150435
-0.148239
-0.145967
-0.143584
-0.140981
-0.138069
-0.134691
-0.130761
-0.126165
-0.120732
-0.114545
-0.107446
-0.0995127
-0.0908367
-0.0815343
-0.0718584
-0.0620193
-0.052298
-0.0429426
-0.034207
-0.0263025
-0.0193561
-0.0135209
-0.00866679
-0.00500827
-0.00196483
-0.00019109
0.00173731
0.00183009
0.00338658
0.0013597
0.00332019
-0.227584
-0.226904
-0.226147
-0.225382
-0.224519
-0.223534
-0.22247
-0.221295
-0.220004
-0.218594
-0.217064
-0.215409
-0.21363
-0.211725
-0.209697
-0.207548
-0.205283
-0.202907
-0.20043
-0.197859
-0.195207
-0.192485
-0.189709
-0.186892
-0.184048
-0.181172
-0.178123
-0.175507
-0.172812
-0.17017
-0.167621
-0.165183
-0.162868
-0.16068
-0.158622
-0.156685
-0.154871
-0.153158
-0.15151
-0.149886
-0.148166
-0.146339
-0.144248
-0.141792
-0.138709
-0.135016
-0.130557
-0.125204
-0.118856
-0.11147
-0.103115
-0.0939002
-0.0839715
-0.0735942
-0.0630111
-0.052526
-0.0424084
-0.0329349
-0.0243395
-0.0167663
-0.0104125
-0.00514141
-0.00126627
0.00189145
0.00346236
0.00515558
0.00462313
0.00559278
0.00273844
0.00357751
-0.228638
-0.227742
-0.226915
-0.226121
-0.225229
-0.224226
-0.223077
-0.221845
-0.220489
-0.219002
-0.217382
-0.215628
-0.213736
-0.211708
-0.209546
-0.207253
-0.204836
-0.202301
-0.19966
-0.196925
-0.194109
-0.19123
-0.188307
-0.18536
-0.182418
-0.179533
-0.176884
-0.173765
-0.171009
-0.168406
-0.165956
-0.163674
-0.161573
-0.159655
-0.157925
-0.156365
-0.154979
-0.153734
-0.152583
-0.151491
-0.150234
-0.148912
-0.147271
-0.145191
-0.142425
-0.138959
-0.134624
-0.129224
-0.122711
-0.11504
-0.106276
-0.0965541
-0.0860433
-0.0750258
-0.0637716
-0.0526054
-0.0418159
-0.0316962
-0.0224984
-0.0143765
-0.00756766
-0.00192305
0.00214856
0.00541762
0.00680803
0.00829143
0.00718271
0.00759103
0.00398853
0.00375927
-0.230012
-0.228527
-0.227642
-0.226831
-0.225899
-0.224861
-0.223708
-0.222391
-0.220978
-0.219428
-0.217734
-0.215895
-0.213907
-0.211772
-0.209492
-0.207072
-0.204519
-0.201843
-0.199056
-0.196172
-0.19321
-0.190188
-0.187131
-0.184064
-0.181017
-0.178028
-0.175135
-0.172123
-0.169452
-0.166897
-0.164537
-0.162396
-0.160487
-0.158813
-0.157388
-0.156162
-0.155157
-0.154327
-0.153613
-0.152953
-0.152195
-0.151291
-0.150046
-0.148292
-0.145716
-0.142497
-0.138223
-0.132768
-0.126081
-0.118129
-0.108982
-0.0987912
-0.0877515
-0.0761625
-0.0643167
-0.0525581
-0.0411913
-0.0305209
-0.0208137
-0.0122268
-0.00503364
0.000932094
0.00517072
0.00853907
0.00976815
0.0110628
0.00943716
0.00931643
0.00506656
0.00385734
-0.230943
-0.229419
-0.228337
-0.227461
-0.226504
-0.225432
-0.224245
-0.222922
-0.221437
-0.219837
-0.218085
-0.216177
-0.21411
-0.211885
-0.209507
-0.20698
-0.204312
-0.201515
-0.198602
-0.195591
-0.192502
-0.189357
-0.186184
-0.183011
-0.179872
-0.176804
-0.173871
-0.171122
-0.168236
-0.16567
-0.163377
-0.161354
-0.159611
-0.15815
-0.156969
-0.156052
-0.155385
-0.15492
-0.154591
-0.154317
-0.153963
-0.153424
-0.152512
-0.151034
-0.14887
-0.145617
-0.141344
-0.135814
-0.128951
-0.120733
-0.111233
-0.100622
-0.0891156
-0.0770305
-0.0646782
-0.0524192
-0.0405711
-0.0294453
-0.0193215
-0.0103538
-0.00284944
0.00338111
0.00775204
0.0112016
0.0122859
0.0134088
0.0113352
0.0107241
0.00594323
0.00386949
-0.231388
-0.230314
-0.228944
-0.227956
-0.226988
-0.225898
-0.224685
-0.223343
-0.22184
-0.220185
-0.218394
-0.216439
-0.214316
-0.212027
-0.209574
-0.206965
-0.204207
-0.201313
-0.198297
-0.19518
-0.191983
-0.188732
-0.185457
-0.18219
-0.178967
-0.175827
-0.172812
-0.169943
-0.167222
-0.164659
-0.162441
-0.160525
-0.158925
-0.157647
-0.156688
-0.15603
-0.155647
-0.155492
-0.155489
-0.155544
-0.155519
-0.155282
-0.154634
-0.153372
-0.151347
-0.148238
-0.143964
-0.138351
-0.131319
-0.122858
-0.113046
-0.102072
-0.0901675
-0.0776675
-0.0648973
-0.0522317
-0.039997
-0.0285086
-0.0180572
-0.00878923
-0.00104433
0.00539522
0.00986277
0.013373
0.0143281
0.0152936
0.0128479
0.0117911
0.00660456
0.00379974
-0.231037
-0.229399
-0.228282
-0.227305
-0.226211
-0.224982
-0.223627
-0.222127
-0.220439
-0.218602
-0.216625
-0.214469
-0.212139
-0.209637
-0.206971
-0.204149
-0.201184
-0.198092
-0.194895
-0.191616
-0.188283
-0.184928
-0.181586
-0.178296
-0.175096
-0.17203
-0.169138
-0.166415
-0.163853
-0.161734
-0.159908
-0.158423
-0.157296
-0.156519
-0.156071
-0.155923
-0.156023
-0.156286
-0.156608
-0.156845
-0.156843
-0.156397
-0.15533
-0.1534
-0.150367
-0.146078
-0.14038
-0.133194
-0.12452
-0.114445
-0.103172
-0.0909461
-0.0781166
-0.0650196
-0.0520402
-0.0395111
-0.0277478
-0.0170517
-0.00755782
0.000362947
0.00695982
0.0114911
0.0150419
0.0158844
0.0167071
0.0139677
0.0125152
0.0070512
0.00365787
-0.231479
-0.22965
-0.228386
-0.227403
-0.226317
-0.225084
-0.223726
-0.222233
-0.220578
-0.218712
-0.216689
-0.21454
-0.212198
-0.209667
-0.206966
-0.204106
-0.201097
-0.197957
-0.194707
-0.191371
-0.187981
-0.184568
-0.181171
-0.177829
-0.174584
-0.171481
-0.168557
-0.165855
-0.16352
-0.16125
-0.159481
-0.158084
-0.157073
-0.156438
-0.156153
-0.156191
-0.156486
-0.15695
-0.157481
-0.157923
-0.158093
-0.157819
-0.156861
-0.155002
-0.152004
-0.147689
-0.141912
-0.134592
-0.125745
-0.115463
-0.103959
-0.0914925
-0.0784212
-0.065089
-0.0518867
-0.0391508
-0.0271945
-0.016329
-0.00667539
0.00136471
0.00807372
0.0126416
0.0162164
0.0169656
0.0176607
0.0147011
0.0129135
0.00729643
0.00345826
-0.231454
-0.229589
-0.228198
-0.227215
-0.226154
-0.224934
-0.223588
-0.22211
-0.220477
-0.218668
-0.216634
-0.214387
-0.212077
-0.209586
-0.206893
-0.204024
-0.201002
-0.197844
-0.19457
-0.191207
-0.187785
-0.184339
-0.180908
-0.177534
-0.17426
-0.171133
-0.168198
-0.165504
-0.163103
-0.161034
-0.159207
-0.157876
-0.156952
-0.156419
-0.156254
-0.156424
-0.156858
-0.157463
-0.158147
-0.158727
-0.159017
-0.158844
-0.157965
-0.156146
-0.153156
-0.148809
-0.142962
-0.135538
-0.126562
-0.116132
-0.104472
-0.0918468
-0.0786221
-0.0651442
-0.0518058
-0.0389455
-0.0268709
-0.0159032
-0.0061476
0.00196447
0.00874808
0.0133328
0.0169199
0.017599
0.0181839
0.0150787
0.0130192
0.0073632
0.0032181
-0.229049
-0.227626
-0.226663
-0.225647
-0.22446
-0.223146
-0.221706
-0.220116
-0.218358
-0.216424
-0.214279
-0.211838
-0.2093
-0.20667
-0.203855
-0.200853
-0.197703
-0.194433
-0.191073
-0.187648
-0.184195
-0.180753
-0.177367
-0.174081
-0.170943
-0.168001
-0.165303
-0.162906
-0.160833
-0.159139
-0.157741
-0.156891
-0.156429
-0.156343
-0.156595
-0.157121
-0.157823
-0.158581
-0.159214
-0.159604
-0.159485
-0.158642
-0.156834
-0.153836
-0.149454
-0.143553
-0.136059
-0.127002
-0.116488
-0.104747
-0.0920462
-0.078754
-0.0652162
-0.0518233
-0.0389141
-0.0267887
-0.0157773
-0.00596918
0.00217653
0.00900516
0.0135947
0.0171875
0.017824
0.018319
0.0151492
0.0128752
0.00728003
0.002955
-0.226541
-0.225649
-0.224703
-0.223581
-0.222327
-0.220947
-0.219418
-0.21772
-0.215836
-0.213767
-0.211515
-0.209004
-0.206248
-0.203448
-0.200546
-0.197476
-0.194246
-0.190911
-0.187509
-0.184078
-0.180652
-0.177276
-0.173995
-0.170861
-0.16792
-0.165224
-0.162823
-0.160759
-0.159075
-0.157821
-0.15689
-0.156427
-0.156387
-0.156678
-0.157228
-0.157965
-0.158756
-0.159444
-0.159849
-0.159741
-0.158898
-0.157078
-0.15406
-0.149649
-0.143715
-0.136186
-0.127101
-0.116568
-0.10482
-0.0921234
-0.0788454
-0.0653275
-0.0519547
-0.0390646
-0.0269478
-0.0159432
-0.00612403
0.00202495
0.00887646
0.0134659
0.0170627
0.017688
0.0181164
0.0149604
0.012551
0.00707828
0.00268585
-0.224818
-0.22406
-0.223224
-0.22221
-0.221054
-0.219765
-0.218328
-0.216727
-0.214946
-0.212975
-0.210806
-0.208454
-0.205911
-0.203069
-0.200032
-0.19701
-0.193913
-0.190684
-0.187338
-0.183944
-0.180551
-0.177207
-0.173952
-0.170835
-0.167905
-0.165213
-0.162811
-0.160744
-0.15905
-0.15776
-0.156883
-0.156421
-0.156339
-0.156606
-0.15717
-0.157924
-0.158696
-0.159369
-0.159748
-0.159615
-0.158745
-0.156897
-0.153854
-0.149423
-0.14348
-0.135956
-0.126897
-0.116408
-0.104723
-0.0921065
-0.0789175
-0.0654918
-0.0522057
-0.0393943
-0.0273376
-0.0163824
-0.00658639
0.00154273
0.00840041
0.0129909
0.0165938
0.0172417
0.0176289
0.0145564
0.0120464
0.00678825
0.00242739
-0.221805
-0.221127
-0.220272
-0.219259
-0.218099
-0.216786
-0.215308
-0.213649
-0.211803
-0.20976
-0.207516
-0.205076
-0.202466
-0.199679
-0.196586
-0.193341
-0.190171
-0.186981
-0.183714
-0.180392
-0.177097
-0.173883
-0.170803
-0.167897
-0.165217
-0.162815
-0.16074
-0.15903
-0.157717
-0.156808
-0.156315
-0.156212
-0.156442
-0.156951
-0.15764
-0.158368
-0.15899
-0.159308
-0.159122
-0.158202
-0.156315
-0.153247
-0.148811
-0.142886
-0.135409
-0.126426
-0.116042
-0.104487
-0.092017
-0.0789835
-0.065713
-0.0525712
-0.0398894
-0.0279366
-0.0170659
-0.00732183
0.000770551
0.00762126
0.0122182
0.0158314
0.0165365
0.0169091
0.01398
0.0114317
0.00643739
0.00218873
-0.218836
-0.218368
-0.217719
-0.216889
-0.215898
-0.214747
-0.213427
-0.211926
-0.210237
-0.208353
-0.20627
-0.203989
-0.201504
-0.198834
-0.196021
-0.193065
-0.189828
-0.186478
-0.183265
-0.180095
-0.176915
-0.173759
-0.170725
-0.167851
-0.165188
-0.162789
-0.160703
-0.158969
-0.15762
-0.156668
-0.156119
-0.155953
-0.156118
-0.156541
-0.157141
-0.157786
-0.158314
-0.158548
-0.158284
-0.1573
-0.155368
-0.15228
-0.147854
-0.141977
-0.134585
-0.125726
-0.115501
-0.104133
-0.0918688
-0.0790475
-0.0659855
-0.0530365
-0.0405265
-0.0287143
-0.017957
-0.008289
-0.000245986
0.00658677
0.0111981
0.0148263
0.0156215
0.0160066
0.0132716
0.0107464
0.00604949
0.0019758
-0.214983
-0.214573
-0.213953
-0.213155
-0.212188
-0.211044
-0.209715
-0.208198
-0.206486
-0.204575
-0.202463
-0.200154
-0.197656
-0.194968
-0.192118
-0.189162
-0.18612
-0.182855
-0.179542
-0.176457
-0.173468
-0.170537
-0.167714
-0.165073
-0.16268
-0.160583
-0.158823
-0.157428
-0.156417
-0.155796
-0.155544
-0.155616
-0.155937
-0.156419
-0.156944
-0.15736
-0.157492
-0.157138
-0.156083
-0.154107
-0.15101
-0.146616
-0.140815
-0.133547
-0.124856
-0.114838
-0.103707
-0.0916973
-0.0791347
-0.0663241
-0.0536059
-0.0413002
-0.0296562
-0.0190327
-0.00945829
-0.00147115
0.00533663
0.00997356
0.0136227
0.0145388
0.0149641
0.0124668
0.0100184
0.00566967
0.00179231
-0.210955
-0.210606
-0.210064
-0.209334
-0.208412
-0.207297
-0.205986
-0.204475
-0.202761
-0.200844
-0.198723
-0.196406
-0.193904
-0.191234
-0.188402
-0.185441
-0.182415
-0.179356
-0.176116
-0.172919
-0.17012
-0.167421
-0.164849
-0.162478
-0.160377
-0.158588
-0.157142
-0.156059
-0.155343
-0.154977
-0.15492
-0.155105
-0.155446
-0.155831
-0.156116
-0.156131
-0.15568
-0.154558
-0.15255
-0.149466
-0.145133
-0.139447
-0.132346
-0.123871
-0.114109
-0.103262
-0.0915496
-0.0792843
-0.0667579
-0.0542985
-0.0422193
-0.0307616
-0.0202829
-0.0108115
-0.00287936
0.00390186
0.00857961
0.0122583
0.0133234
0.0138143
0.0115899
0.00926559
0.00525902
0.0016375
-0.206152
-0.206009
-0.205697
-0.205207
-0.204531
-0.203662
-0.202599
-0.201338
-0.199875
-0.19821
-0.196344
-0.194281
-0.192029
-0.1896
-0.187014
-0.184302
-0.181475
-0.178574
-0.175672
-0.172807
-0.169758
-0.166982
-0.164424
-0.162096
-0.159999
-0.158177
-0.156669
-0.155502
-0.154686
-0.15421
-0.154033
-0.15409
-0.154287
-0.154516
-0.154643
-0.15451
-0.153933
-0.152717
-0.150658
-0.147574
-0.143299
-0.137731
-0.130805
-0.122559
-0.11307
-0.102528
-0.0911396
-0.0792011
-0.0669914
-0.0548269
-0.0430125
-0.0317822
-0.021487
-0.0121567
-0.00431034
0.00241679
0.00711874
0.0108183
0.0120307
0.0126021
0.0106556
0.00849952
0.00484313
0.00150287
-0.20274
-0.202557
-0.202197
-0.201652
-0.200915
-0.199982
-0.19885
-0.197517
-0.195981
-0.194244
-0.192309
-0.190186
-0.187886
-0.185428
-0.182833
-0.180128
-0.177356
-0.174542
-0.171736
-0.168992
-0.166312
-0.163756
-0.161423
-0.159354
-0.157562
-0.156071
-0.154904
-0.154067
-0.153546
-0.153303
-0.153276
-0.153379
-0.153506
-0.153525
-0.15328
-0.152591
-0.15127
-0.149119
-0.145968
-0.141658
-0.136096
-0.129224
-0.121083
-0.111749
-0.101409
-0.0902597
-0.0785881
-0.0666593
-0.0547786
-0.0432375
-0.0322607
-0.0221898
-0.0130495
-0.00534771
0.00127161
0.00593328
0.0096132
0.010913
0.0115561
0.00982765
0.00783772
0.00447736
0.00139177
-0.198765
-0.198683
-0.19843
-0.197997
-0.197375
-0.196559
-0.195547
-0.194336
-0.192926
-0.191318
-0.189516
-0.187529
-0.18537
-0.183054
-0.180603
-0.178045
-0.175412
-0.172735
-0.17006
-0.167413
-0.164838
-0.162457
-0.160299
-0.158344
-0.15663
-0.155192
-0.15405
-0.153209
-0.152655
-0.152352
-0.15224
-0.152237
-0.152241
-0.152123
-0.151734
-0.150901
-0.149447
-0.147185
-0.143956
-0.139612
-0.134069
-0.127273
-0.119268
-0.110126
-0.100027
-0.0891551
-0.0777862
-0.06617
-0.0545989
-0.0433506
-0.0326429
-0.0228031
-0.0138603
-0.00629938
0.00020788
0.00483978
0.00849594
0.00989111
0.0105972
0.0090823
0.00725164
0.00415863
0.00130461
-0.194427
-0.194445
-0.194301
-0.193982
-0.193479
-0.192787
-0.191904
-0.190827
-0.189555
-0.188092
-0.18644
-0.184608
-0.182608
-0.180455
-0.178172
-0.175782
-0.173315
-0.170804
-0.168288
-0.165796
-0.163389
-0.161153
-0.159076
-0.157194
-0.155541
-0.154143
-0.153018
-0.152166
-0.151572
-0.151202
-0.150997
-0.150878
-0.150746
-0.150478
-0.149933
-0.148946
-0.147352
-0.144978
-0.141674
-0.137304
-0.131792
-0.12509
-0.117241
-0.108313
-0.098478
-0.0879089
-0.0768665
-0.0655862
-0.0543473
-0.0434128
-0.0329947
-0.0234032
-0.0146763
-0.00726746
-0.000886994
0.00371224
0.00733544
0.00883266
0.00960184
0.00831446
0.00665383
0.00383776
0.00122437
-0.190021
-0.190138
-0.190099
-0.189894
-0.189509
-0.188941
-0.188186
-0.187242
-0.18611
-0.184791
-0.183289
-0.181612
-0.179772
-0.177783
-0.175665
-0.173442
-0.171141
-0.168793
-0.166434
-0.164099
-0.161841
-0.159715
-0.15773
-0.155926
-0.154333
-0.152971
-0.151857
-0.150989
-0.150352
-0.14991
-0.149609
-0.149373
-0.149107
-0.148692
-0.147996
-0.146865
-0.145143
-0.142669
-0.139305
-0.134925
-0.12946
-0.122866
-0.115186
-0.106485
-0.0969236
-0.0866647
-0.0759551
-0.0650155
-0.0541131
-0.0434956
-0.0333703
-0.024029
-0.0155203
-0.00826364
-0.00201096
0.00255777
0.00615007
0.00775397
0.00859361
0.00753866
0.00605726
0.00351973
0.00114956
-0.185568
-0.18578
-0.185843
-0.185745
-0.185474
-0.185025
-0.184394
-0.18358
-0.182584
-0.181407
-0.180052
-0.178528
-0.176844
-0.175016
-0.17306
-0.171
-0.168861
-0.166673
-0.164468
-0.162283
-0.16016
-0.158142
-0.156255
-0.154532
-0.152998
-0.151672
-0.150565
-0.149679
-0.148996
-0.148482
-0.148086
-0.147733
-0.147335
-0.14678
-0.145941
-0.144675
-0.142837
-0.140277
-0.136867
-0.132491
-0.127087
-0.120614
-0.113115
-0.104649
-0.0953697
-0.0854272
-0.0750553
-0.0644601
-0.0538971
-0.0435985
-0.033768
-0.0246773
-0.0163878
-0.00928257
-0.003157
0.00138361
0.00494863
0.00666235
0.00757991
0.00675883
0.00546463
0.003204
0.00107783
-0.181073
-0.181376
-0.181535
-0.18154
-0.181378
-0.181043
-0.180532
-0.179844
-0.17898
-0.177941
-0.17673
-0.175354
-0.173824
-0.172153
-0.170357
-0.168457
-0.166477
-0.164445
-0.162391
-0.160349
-0.158357
-0.156451
-0.154661
-0.153016
-0.151538
-0.150244
-0.149145
-0.148238
-0.147509
-0.146923
-0.146432
-0.145967
-0.145441
-0.144751
-0.143777
-0.142386
-0.140443
-0.137809
-0.134366
-0.130007
-0.124676
-0.118336
-0.111026
-0.102804
-0.0938124
-0.0841908
-0.0741599
-0.0639114
-0.0536896
-0.0437111
-0.0341765
-0.0253371
-0.0172676
-0.0103133
-0.00431446
0.000199239
0.00373979
0.00556441
0.00656595
0.00597763
0.0048769
0.00288962
0.00100716
-0.176557
-0.176949
-0.1772
-0.177304
-0.177246
-0.17702
-0.176625
-0.176059
-0.175322
-0.174416
-0.173344
-0.172113
-0.170732
-0.169213
-0.167573
-0.165829
-0.164004
-0.162124
-0.160217
-0.158313
-0.156447
-0.154652
-0.152956
-0.151386
-0.149961
-0.148698
-0.147603
-0.146676
-0.145901
-0.145245
-0.144663
-0.144088
-0.143441
-0.142622
-0.141523
-0.140017
-0.13798
-0.135283
-0.13182
-0.127489
-0.122242
-0.116043
-0.108931
-0.100958
-0.0922572
-0.0829583
-0.0732692
-0.0633673
-0.0534864
-0.0438273
-0.0345885
-0.0259997
-0.01815
-0.0113462
-0.00547336
-0.000986265
0.00253237
0.004467
0.00555748
0.00519833
0.00429547
0.00257634
0.000935918
-0.17204
-0.172518
-0.172859
-0.173057
-0.173099
-0.172979
-0.172694
-0.172245
-0.171631
-0.170853
-0.169916
-0.168824
-0.167587
-0.166215
-0.164724
-0.163131
-0.161456
-0.159722
-0.157956
-0.156186
-0.154442
-0.152754
-0.151149
-0.14965
-0.148276
-0.147042
-0.145952
-0.145005
-0.144185
-0.143463
-0.142793
-0.142114
-0.141352
-0.140415
-0.139199
-0.137588
-0.135469
-0.132722
-0.129249
-0.124957
-0.119802
-0.113751
-0.106841
-0.0991192
-0.0907105
-0.0817336
-0.0723845
-0.062827
-0.0532847
-0.0439428
-0.0349979
-0.026658
-0.019027
-0.0123729
-0.00662479
-0.00216471
0.00133448
0.00337652
0.00455996
0.00442423
0.00372174
0.00226417
0.000862716
-0.167532
-0.168095
-0.168523
-0.168812
-0.16895
-0.168932
-0.168755
-0.168418
-0.167922
-0.167267
-0.166459
-0.165501
-0.164402
-0.163172
-0.161824
-0.160375
-0.158844
-0.157251
-0.15562
-0.153978
-0.152351
-0.150766
-0.149248
-0.147818
-0.146494
-0.145288
-0.144203
-0.143237
-0.142376
-0.14159
-0.140838
-0.140063
-0.139194
-0.138146
-0.136824
-0.13512
-0.13293
-0.130143
-0.12667
-0.122426
-0.117369
-0.111472
-0.104766
-0.0972956
-0.0891773
-0.0805194
-0.0715066
-0.0622892
-0.0530815
-0.0440531
-0.035399
-0.0273056
-0.0198912
-0.0133858
-0.00776073
-0.00332874
0.000153353
0.00229878
0.00357815
0.00365831
0.00315688
0.00195329
0.000786503
-0.163044
-0.163689
-0.164201
-0.164578
-0.16481
-0.16489
-0.164816
-0.164587
-0.164204
-0.163669
-0.162984
-0.162154
-0.161187
-0.160093
-0.158883
-0.157572
-0.156178
-0.15472
-0.153219
-0.151699
-0.150184
-0.148698
-0.147264
-0.1459
-0.144624
-0.143445
-0.142366
-0.141384
-0.140484
-0.13964
-0.138812
-0.137948
-0.136981
-0.135832
-0.134414
-0.132629
-0.130378
-0.127562
-0.124098
-0.119909
-0.114956
-0.109214
-0.102714
-0.0954927
-0.0876612
-0.0793176
-0.0706355
-0.0617526
-0.052874
-0.0441541
-0.0357866
-0.0279367
-0.0207359
-0.0143784
-0.0088741
-0.0044718
-0.00100469
0.00123893
0.00261617
0.00290335
0.00260193
0.00164405
0.000706591
-0.158581
-0.159306
-0.1599
-0.160363
-0.160685
-0.160859
-0.160884
-0.160759
-0.160486
-0.160064
-0.159498
-0.158791
-0.157951
-0.156987
-0.155909
-0.15473
-0.153467
-0.152138
-0.15076
-0.149357
-0.147949
-0.146558
-0.145205
-0.143906
-0.142676
-0.141525
-0.140452
-0.139456
-0.138522
-0.137625
-0.136729
-0.135783
-0.134727
-0.133488
-0.131985
-0.130128
-0.127828
-0.124991
-0.121545
-0.117416
-0.112572
-0.106986
-0.100689
-0.0937149
-0.0861652
-0.0781295
-0.0697713
-0.0612158
-0.0526597
-0.0442425
-0.0361564
-0.0285461
-0.0215556
-0.0153446
-0.00995881
-0.00558823
-0.00213426
0.000201488
0.00167747
0.00216189
0.00205785
0.00133702
0.000622654
-0.154151
-0.154954
-0.155626
-0.156172
-0.15658
-0.156846
-0.156966
-0.156941
-0.156772
-0.15646
-0.156008
-0.155419
-0.154701
-0.15386
-0.152908
-0.151856
-0.150718
-0.149511
-0.148252
-0.14696
-0.145654
-0.144355
-0.143079
-0.141842
-0.140658
-0.139531
-0.13847
-0.137464
-0.136501
-0.135557
-0.134599
-0.13358
-0.132445
-0.131126
-0.129549
-0.12763
-0.12529
-0.122442
-0.119019
-0.114956
-0.110222
-0.104794
-0.0986981
-0.0919655
-0.0846914
-0.0769562
-0.0689137
-0.0606777
-0.0524364
-0.0443153
-0.0365046
-0.0291298
-0.0223453
-0.0162796
-0.0110097
-0.0066732
-0.00323084
-0.000809625
0.000764943
0.00143626
0.00152555
0.00103289
0.000534698
-0.149759
-0.150636
-0.151384
-0.152009
-0.152501
-0.152853
-0.153065
-0.153137
-0.153069
-0.152862
-0.152518
-0.152042
-0.15144
-0.150718
-0.149885
-0.148954
-0.147936
-0.146846
-0.145699
-0.144514
-0.143306
-0.142094
-0.140893
-0.139718
-0.138578
-0.137481
-0.13643
-0.135416
-0.134428
-0.133444
-0.132431
-0.131348
-0.130143
-0.128754
-0.127113
-0.125143
-0.122772
-0.119921
-0.116529
-0.112536
-0.107914
-0.102641
-0.096743
-0.0902468
-0.0832409
-0.0757979
-0.0680625
-0.0601372
-0.0522023
-0.0443701
-0.0368281
-0.0296841
-0.0231012
-0.0171795
-0.0120227
-0.00772271
-0.00429078
-0.00179109
-0.000119047
0.000728578
0.0010059
0.000732507
0.000443016
-0.14541
-0.146358
-0.147179
-0.147879
-0.14845
-0.148887
-0.149187
-0.14935
-0.149378
-0.149271
-0.149032
-0.148664
-0.148172
-0.147564
-0.146846
-0.14603
-0.145126
-0.144147
-0.143108
-0.142024
-0.140911
-0.139783
-0.138655
-0.137539
-0.136444
-0.135376
-0.134337
-0.13332
-0.132312
-0.131293
-0.130234
-0.129096
-0.12783
-0.126381
-0.124685
-0.122675
-0.120281
-0.117434
-0.114078
-0.110158
-0.105649
-0.10053
-0.094826
-0.08856
-0.0818147
-0.074655
-0.0672171
-0.0595933
-0.051956
-0.0444049
-0.0371246
-0.0302064
-0.0238203
-0.0180409
-0.0129944
-0.00873352
-0.00531119
-0.00274016
-0.000972633
4.07104e-05
0.000499741
0.000436764
0.00034813
-0.14111
-0.142124
-0.143014
-0.143786
-0.144433
-0.144949
-0.145333
-0.145584
-0.145704
-0.145693
-0.145554
-0.145289
-0.144903
-0.144402
-0.143793
-0.143087
-0.142291
-0.141419
-0.140483
-0.139496
-0.138473
-0.137426
-0.136368
-0.13531
-0.13426
-0.133223
-0.132199
-0.131181
-0.130159
-0.129112
-0.128014
-0.126828
-0.125511
-0.124011
-0.122271
-0.120228
-0.117821
-0.114985
-0.11167
-0.107825
-0.103429
-0.0984627
-0.092948
-0.0869056
-0.0804127
-0.0735272
-0.0663771
-0.0590453
-0.0516962
-0.0444182
-0.0373922
-0.0306946
-0.0245
-0.0188614
-0.0139223
-0.00970307
-0.00628988
-0.00365457
-0.00179436
-0.000625697
7.90107e-06
0.000146594
0.000250736
-0.136864
-0.13794
-0.138894
-0.139734
-0.140452
-0.141044
-0.141508
-0.141843
-0.14205
-0.14213
-0.142086
-0.141919
-0.141633
-0.141235
-0.140731
-0.140128
-0.139437
-0.138666
-0.137828
-0.136934
-0.135997
-0.135028
-0.134039
-0.133038
-0.132032
-0.131026
-0.130019
-0.129005
-0.127973
-0.126904
-0.125774
-0.12455
-0.123191
-0.121649
-0.119874
-0.117807
-0.115394
-0.112575
-0.109306
-0.105539
-0.101257
-0.0964393
-0.0911092
-0.0852837
-0.0790348
-0.0724141
-0.065542
-0.0584923
-0.0514221
-0.0444089
-0.0376296
-0.0311471
-0.0251389
-0.019639
-0.0148047
-0.0106294
-0.00722527
-0.00453255
-0.00258315
-0.00126923
-0.000468832
-0.000137078
0.000151643
-0.132675
-0.133809
-0.134824
-0.135727
-0.136513
-0.137176
-0.137715
-0.138129
-0.138419
-0.138586
-0.138631
-0.138557
-0.138368
-0.138068
-0.137662
-0.137159
-0.136566
-0.135892
-0.135147
-0.134342
-0.133488
-0.132594
-0.131671
-0.130726
-0.129765
-0.128791
-0.127804
-0.126797
-0.12576
-0.124675
-0.123521
-0.122265
-0.120872
-0.119298
-0.117496
-0.115414
-0.113002
-0.110206
-0.106986
-0.1033
-0.09913
-0.0944595
-0.0893091
-0.0836937
-0.0776804
-0.0713153
-0.0647112
-0.0579338
-0.0511329
-0.0443762
-0.0378358
-0.0315628
-0.0257355
-0.0203726
-0.0156402
-0.011511
-0.00811628
-0.00537272
-0.00333821
-0.00188869
-0.000929705
-0.00041337
5.17156e-05
-0.128548
-0.129736
-0.130806
-0.131768
-0.132617
-0.133347
-0.133957
-0.134446
-0.134814
-0.135063
-0.135194
-0.135208
-0.135109
-0.134901
-0.13459
-0.134181
-0.133681
-0.1331
-0.132444
-0.131724
-0.130949
-0.130128
-0.129269
-0.128379
-0.127462
-0.126522
-0.125557
-0.12456
-0.123523
-0.122428
-0.121255
-0.119976
-0.118557
-0.116959
-0.115139
-0.113049
-0.110645
-0.107878
-0.104711
-0.101106
-0.0970489
-0.0925226
-0.0875469
-0.0821349
-0.076349
-0.0702301
-0.0638841
-0.0573694
-0.0508282
-0.0443196
-0.0380102
-0.031941
-0.0262893
-0.0210611
-0.016428
-0.012347
-0.00896226
-0.00617407
-0.00405901
-0.0024831
-0.00137401
-0.000681462
-4.8172e-05
-0.124488
-0.125723
-0.126845
-0.127861
-0.128768
-0.129561
-0.130237
-0.130796
-0.131238
-0.131564
-0.131775
-0.131873
-0.13186
-0.13174
-0.131518
-0.131198
-0.130788
-0.130293
-0.129723
-0.129084
-0.128385
-0.127633
-0.126837
-0.126001
-0.125129
-0.124223
-0.123282
-0.122299
-0.121266
-0.120167
-0.118982
-0.117686
-0.116249
-0.114634
-0.112804
-0.110714
-0.108324
-0.10559
-0.10248
-0.0989583
-0.0950124
-0.0906273
-0.0858215
-0.0806061
-0.0750395
-0.0691578
-0.0630602
-0.0567985
-0.0505075
-0.0442387
-0.0381525
-0.0322814
-0.0267999
-0.021704
-0.0171678
-0.0131368
-0.00976287
-0.0069359
-0.0047452
-0.00305168
-0.00180109
-0.000940616
-0.000147176
-0.120497
-0.121775
-0.122943
-0.124009
-0.12497
-0.125821
-0.126559
-0.127183
-0.127694
-0.128093
-0.128379
-0.128556
-0.128624
-0.128587
-0.128448
-0.128213
-0.127887
-0.127476
-0.126986
-0.126425
-0.125799
-0.125115
-0.124379
-0.123596
-0.122769
-0.121898
-0.120983
-0.120017
-0.118992
-0.117893
-0.116703
-0.115397
-0.113949
-0.112325
-0.110491
-0.108407
-0.106037
-0.103342
-0.100291
-0.096854
-0.0930189
-0.0887722
-0.0841315
-0.0791064
-0.0737511
-0.0680977
-0.062239
-0.0562209
-0.0501708
-0.0441334
-0.0382626
-0.0325837
-0.0272671
-0.0223012
-0.0178596
-0.0138799
-0.0105181
-0.00765776
-0.00539663
-0.00359382
-0.00221035
-0.00119018
-0.000244512
-0.116578
-0.117895
-0.119104
-0.120215
-0.121225
-0.122129
-0.122924
-0.123609
-0.124185
-0.124651
-0.125009
-0.125259
-0.125403
-0.125444
-0.125385
-0.12523
-0.124984
-0.124651
-0.124238
-0.123751
-0.123195
-0.122576
-0.121899
-0.121168
-0.120385
-0.119551
-0.118664
-0.117718
-0.116704
-0.115611
-0.11442
-0.113111
-0.111658
-0.110032
-0.108201
-0.10613
-0.103786
-0.101132
-0.098144
-0.0947921
-0.0910669
-0.0869559
-0.0824756
-0.0776344
-0.0724827
-0.067049
-0.0614199
-0.0556362
-0.0498178
-0.0440037
-0.0383407
-0.0328482
-0.0276913
-0.0228526
-0.0185035
-0.0145763
-0.011228
-0.00833946
-0.00601327
-0.0041091
-0.00260128
-0.00142962
-0.000339478
-0.112734
-0.114084
-0.11533
-0.116482
-0.117536
-0.118488
-0.119336
-0.120077
-0.120712
-0.121242
-0.121666
-0.121985
-0.1222
-0.122315
-0.12233
-0.122251
-0.12208
-0.121823
-0.121483
-0.121066
-0.120577
-0.12002
-0.119401
-0.118721
-0.117982
-0.117185
-0.116328
-0.115404
-0.114406
-0.113322
-0.112136
-0.110829
-0.109378
-0.107756
-0.105935
-0.103882
-0.101568
-0.0989607
-0.096037
-0.0927712
-0.089155
-0.0851767
-0.0808524
-0.0761889
-0.0712335
-0.066011
-0.0606026
-0.0550441
-0.0494486
-0.0438496
-0.0383869
-0.0330749
-0.0280726
-0.0233587
-0.0190999
-0.0152263
-0.0118931
-0.00898099
-0.00659518
-0.00459723
-0.00297345
-0.00165845
-0.000431465
-0.108968
-0.110346
-0.111625
-0.112812
-0.113906
-0.114902
-0.115797
-0.116589
-0.11728
-0.117868
-0.118353
-0.118737
-0.119019
-0.119202
-0.119288
-0.11928
-0.11918
-0.118993
-0.118723
-0.118373
-0.117948
-0.117452
-0.116888
-0.116258
-0.115564
-0.114805
-0.113978
-0.113079
-0.1121
-0.11103
-0.109854
-0.108554
-0.107111
-0.105498
-0.103692
-0.101662
-0.0993831
-0.0968256
-0.0939688
-0.0907897
-0.0872814
-0.0834332
-0.0792603
-0.0747687
-0.0700023
-0.064983
-0.0597866
-0.0544446
-0.0490633
-0.0436715
-0.0384016
-0.0332644
-0.0284117
-0.0238196
-0.0196494
-0.0158301
-0.0125137
-0.00958251
-0.00714256
-0.00505808
-0.00332649
-0.00187632
-0.000519961
-0.105281
-0.106683
-0.107989
-0.109207
-0.110336
-0.111371
-0.112309
-0.113149
-0.11389
-0.114532
-0.115074
-0.115517
-0.115862
-0.116109
-0.116261
-0.116319
-0.116287
-0.116167
-0.115962
-0.115676
-0.115312
-0.114874
-0.114364
-0.113783
-0.113133
-0.112412
-0.111618
-0.110746
-0.109789
-0.108736
-0.107574
-0.106287
-0.104856
-0.103259
-0.101472
-0.0994711
-0.097231
-0.0947261
-0.0919381
-0.0888462
-0.0854447
-0.0817238
-0.0776981
-0.0733726
-0.0687882