/*--------------------------------*- C++ -*----------------------------------*\
  =========                 |
  \\      /  F ield         | OpenFOAM: The Open Source CFD Toolbox
   \\    /   O peration     | Website:  https://openfoam.org
    \\  /    A nd           | Version:  7
     \\/     M anipulation  |
\*---------------------------------------------------------------------------*/
FoamFile
{
    version     2.0;
    format      ascii;
    class       volScalarField;
    location    "8";
    object      p;
}
// * * * * * * * * * * * * * * * * * * * * * * * * * * * * * * * * * * * * * //

dimensions      [0 2 -2 0 0 0 0];

internalField   nonuniform List<scalar> 
433
(
142.322
-509.948
-479.45
-267.761
-257.473
-248.128
-237.413
410.121
390.95
373.795
350.377
316.974
278.905
464.857
449.935
436.509
414.374
380.989
343.523
307.845
276.602
-205.129
-189.197
-176.225
-165.174
-153.346
-138.604
-118.76
-93.3015
-64.1779
-35.7349
-518.201
-490.3
-465.161
-438.58
-407.58
-373.194
-335.456
-294.957
-253.079
-211.668
-172.341
-136.333
22.0862
19.3008
15.0497
6.57858
-6.49731
-20.1654
-30.9513
-37.6209
-40.4891
-40.0516
-36.9846
-31.6871
-24.4996
-16.3438
528.481
506.095
485.775
457.615
417.619
372.027
325.734
281.78
241.04
203.517
169.406
139.114
112.862
90.7956
72.7046
58.1552
310.57
302.52
295.069
281.992
262.584
242.731
225.656
211.48
197.616
181.193
161.152
138.443
115.143
93.3259
74.3383
58.7428
46.5049
37.2071
-366.028
-343.224
-323.06
-301.926
-275.946
-244.509
-207.617
-167.134
-126.379
-89.3888
-59.5474
-37.8832
-23.1723
-13.1635
-5.87129
-0.211498
4.21128
7.60364
10.1234
11.9154
13.1466
-446.571
-421.94
-399.98
-377.695
-352.145
-323.79
-292.302
-258.552
-224.274
-191.268
-159.997
-130.625
-103.199
-78.0159
-55.6709
-36.7597
-21.5569
-9.92929
-1.52433
4.3458
8.32867
10.9164
12.5055
118.183
112.665
105.324
91.406
70.7968
48.7558
29.5877
14.8357
4.09714
-3.23428
-7.6077
-8.8332
-7.14521
-3.4819
0.940437
5.11705
8.49977
10.9455
12.5919
13.6136
14.1725
14.4224
14.4677
14.3807
14.2112
522.213
498.968
477.94
449.971
411.071
367.083
322.254
279.344
239.41
202.768
169.58
139.963
114.15
92.2229
73.9774
59.0587
47.0727
37.6933
30.5813
25.3112
21.4838
18.7665
16.8742
15.5675
14.6584
278.768
270.361
263.746
254.126
240.462
226.606
213.679
200.948
186.498
168.77
147.941
125.643
103.83
83.9805
66.9296
53.0122
42.0258
33.5839
27.3056
22.7402
19.4992
17.2473
15.7019
14.6395
-358.974
-336.466
-315.407
-291.533
-261.149
-225.061
-185.302
-145.523
-109.464
-79.8569
-57.4888
-41.3363
-29.4357
-20.0143
-12.1256
-5.59143
-0.317039
3.77485
6.77584
8.92523
10.4004
11.3508
-455.96
-429.012
-404.748
-380.128
-351.405
-319.413
-284.823
-249.82
-216.916
-186.437
-157.771
-130.113
-103.35
-78.2416
-55.9051
-37.1847
-22.3465
-11.2244
-3.2235
2.32936
6.06255
75.3907
72.936
67.6984
55.3379
37.5369
19.7272
5.52724
-4.5341
-11.2037
-15.1671
-16.1609
-14.0854
-9.68127
-4.26054
0.917998
5.08648
8.01342
9.87259
10.939
527.915
504.738
483.594
454.789
414.66
369.109
322.402
277.594
236.284
198.864
165.387
135.936
110.502
88.862
70.6828
55.643
43.5081
34.0115
304.69
294.644
288.124
280.41
269.756
258.171
244.696
227.465
205.16
178.61
150.234
122.702
97.9016
76.7409
59.4175
45.7068
35.0912
-348.189
-325.716
-302.781
-274.781
-238.497
-197.189
-155.677
-119.438
-91.6115
-72.0554
-58.3448
-47.6211
-38.0276
-29.0014
-20.7596
-470.521
-442.607
-417.762
-392.537
-362.445
-329.144
-294.65
-262.011
-231.795
-202.745
-173.346
-143.361
-113.876
-86.5561
61.9299
62.1675
58.5673
46.8772
30.051
12.5741
-2.91169
-15.3461
-24.0245
-27.6655
-26.1237
-20.7278
-13.5825
521.144
499.676
480.606
454.121
417.19
375.004
330.591
286.552
244.504
205.625
170.836
140.263
253.248
244.762
240.468
237.09
233.225
228.781
220.538
205.569
183.572
157.048
129.378
103.185
-377.974
-356.357
-334.183
-306.436
-270.121
-229.902
-191.425
-159.463
-134.843
-115.458
-98.7725
-466.731
-439.734
-416.244
-392.982
-365.59
-336.042
-306.193
-277.494
-249.03
-219.308
100.523
99.8098
95.8344
83.7221
65.7197
45.5942
26.1037
9.27233
-3.02806
-9.30746
521.503
499.684
481.142
456.3
421.829
381.836
338.527
294.188
251.289
200.509
192.837
189.088
186.919
185.016
182.532
176.069
163.128
144.2
-407.912
-386.421
-364.848
-338.06
-303.188
-264.571
-227.478
-195.75
-169.504
-456.279
-430.323
-407.908
)
;

boundaryField
{
    inlet
    {
        type            zeroGradient;
    }
    outlet
    {
        type            fixedValue;
        value           nonuniform 0();
    }
    cylinder
    {
        type            zeroGradient;
    }
    top
    {
        type            symmetryPlane;
    }
    bottom
    {
        type            symmetryPlane;
    }
    defaultFaces
    {
        type            empty;
    }
    procBoundary19to12
    {
        type            processor;
        value           uniform -146.647;
    }
    procBoundary19to13
    {
        type            processor;
        value           nonuniform List<scalar> 10(-386.029 -360.372 -332.661 -304.279 -276.293 -247.862 142.306 139.549 -386.029 134.312);
    }
    procBoundary19to18
    {
        type            processor;
        value           nonuniform List<scalar> 
25
(
11.4561
11.6301
11.4561
26.773
26.773
27.1005
-13.6554
27.1005
-7.80748
-13.6554
-62.8447
-62.8447
-6.66353
-6.66353
113.482
113.482
79.9335
-83.2989
-83.2989
-187.951
-187.951
-9.9176
211.859
211.859
122.436
)
;
    }
    procBoundary19to24
    {
        type            processor;
        value           nonuniform List<scalar> 8(14.0078 13.8934 11.9066 13.8934 12.1754 11.9066 8.463 8.463);
    }
    procBoundary19to25
    {
        type            processor;
        value           nonuniform List<scalar> 
38
(
547.788
143.353
143.353
-451.943
-451.943
-423.622
-224.937
-224.937
-210.874
241.012
241.012
206.545
248.694
248.694
221.201
-12.7093
-12.7093
2.3848
-104.406
-104.406
-76.7748
-8.2921
-8.2921
-1.19385
46.6568
46.6568
37.7779
30.3475
30.3475
25.4008
21.9082
13.9423
13.9423
14.406
13.4051
13.4051
13.8439
13.9914
)
;
    }
}


// ************************************************************************* //
