/*--------------------------------*- C++ -*----------------------------------*\
  =========                 |
  \\      /  F ield         | OpenFOAM: The Open Source CFD Toolbox
   \\    /   O peration     | Website:  https://openfoam.org
    \\  /    A nd           | Version:  7
     \\/     M anipulation  |
\*---------------------------------------------------------------------------*/
FoamFile
{
    version     2.0;
    format      ascii;
    class       surfaceScalarField;
    location    "19";
    object      phi;
}
// * * * * * * * * * * * * * * * * * * * * * * * * * * * * * * * * * * * * * //

dimensions      [0 3 -1 0 0 0 0];

internalField   nonuniform List<scalar> 
821
(
0.0244059
-4.45543e-05
0.0245137
-0.000107847
0.024654
-0.000140251
0.0248061
-0.000152111
0.0249569
-0.000150864
0.025099
-0.000142097
0.0252283
-0.000129314
0.0253436
-0.000115278
0.0254446
-0.00010094
-8.81925e-05
0.0255328
0.0235541
-8.80692e-05
0.0236588
-0.000212577
0.0237954
-0.00027681
0.0239438
-0.000300531
0.0240912
-0.000298234
0.0242301
-0.000281
0.0243565
-0.000255784
0.0244693
-0.000228057
0.0245681
-0.000199697
-0.000174438
0.0246543
0.0227322
-0.000130688
0.0228349
-0.00031528
0.022969
-0.000410956
0.0231151
-0.000446661
0.0232605
-0.000443612
0.0233978
-0.00041824
0.0235228
-0.000380869
0.0236345
-0.000339692
0.0237323
-0.000297489
-0.000259934
0.0238178
0.0219392
-0.000172654
0.0220404
-0.000416569
0.0221731
-0.000543618
0.0223181
-0.00059165
0.0224627
-0.000588258
0.0225996
-0.000555106
0.0227245
-0.000505811
0.0228362
-0.000451338
0.022934
-0.000395336
-0.000345535
0.0230196
0.021174
-0.000214133
0.0212743
-0.000516875
0.0214061
-0.000675479
0.0215509
-0.000736382
0.0216958
-0.000733178
0.0218333
-0.000692653
0.0219592
-0.00063164
0.0220718
-0.000563966
0.0221706
-0.000494112
-0.000432061
0.0222571
0.0204356
-0.000255219
0.0205352
-0.00061646
0.0206667
-0.000806999
0.0208118
-0.000881508
0.0209578
-0.000879156
0.0210969
-0.000831738
0.0212245
-0.000759222
0.0213389
-0.000678405
0.0214394
-0.000594573
-0.000520186
0.0215275
0.019723
-0.000295943
0.019822
-0.000715427
0.0199534
-0.000938436
0.0200994
-0.00102746
0.020247
-0.00102678
0.0203883
-0.000973049
0.0205184
-0.000889276
0.0206353
-0.000795369
0.0207381
-0.000697378
-0.000610527
0.0208285
0.0190353
-0.000336283
0.0191336
-0.000813734
0.019265
-0.00106986
0.0194121
-0.00117449
0.0195617
-0.00117645
0.0197058
-0.00111712
0.0198389
-0.0010224
0.019959
-0.000915474
0.0200648
-0.000803111
-0.000703635
0.0201579
0.0183715
-0.000376161
0.018469
-0.000911208
0.0186003
-0.00120117
0.0187485
-0.00132265
0.0189004
-0.00132841
0.0190476
-0.00126435
0.0191843
-0.00115909
0.0193081
-0.00103925
0.0194173
-0.000912291
-0.000800011
0.0195137
0.0177308
-0.000415459
0.0178271
-0.00100756
0.0179581
-0.00133212
0.0181072
-0.00147182
0.0182616
-0.00148274
0.0184122
-0.001415
0.0185528
-0.00129972
0.0186808
-0.00116717
0.0187939
-0.00102539
-0.000900126
0.018894
0.0171122
-0.000454016
0.017207
-0.00110239
0.0173372
-0.0014623
0.0174871
-0.00162174
0.0176438
-0.00163937
0.017798
-0.00156922
0.0179429
-0.00144461
0.0180753
-0.00129963
0.0181928
-0.00114283
-0.00100442
0.0182971
0.016515
-0.000491641
0.0166079
-0.00119521
0.0167367
-0.00159118
0.016887
-0.00177197
0.0170457
-0.0017981
0.0172035
-0.00172705
0.0173529
-0.00159396
0.0174902
-0.00143696
0.0176124
-0.00126501
-0.00111331
0.0177213
0.0159385
-0.000528118
0.0160287
-0.00128548
0.0161557
-0.00171814
0.0163057
-0.00192196
0.0164662
-0.00195858
0.0166275
-0.00188837
0.0167814
-0.0017479
0.0169239
-0.00157947
0.0170512
-0.00139228
-0.00122722
0.0171651
0.0153818
-0.000563209
0.0154689
-0.00137258
0.0155932
-0.00184244
0.0157422
-0.00207098
0.0159039
-0.00212032
0.0160685
-0.00205299
0.0162271
-0.00190647
0.016375
-0.00172739
0.0165077
-0.00152498
-0.00134653
0.016627
0.0148442
-0.000596664
0.0149275
-0.00145587
0.0150483
-0.00196326
0.0151955
-0.00221821
0.0153579
-0.00228271
0.0155255
-0.00222057
0.0156886
-0.00206962
0.0158422
-0.00188089
0.0159806
-0.00166342
-0.00147166
0.0161057
0.0143251
-0.000628227
0.0144039
-0.00153467
0.0145203
-0.00207972
0.0146649
-0.00236272
0.0148271
-0.00244501
0.0149972
-0.00239065
0.0151648
-0.00223722
0.0153241
-0.00204012
0.0154685
-0.00180788
-0.00160299
0.0155999
0.0138238
-0.000657643
0.0138974
-0.00160831
0.0140086
-0.00219091
0.0141494
-0.00250347
0.0143107
-0.00260635
0.0144827
-0.00256264
0.0146545
-0.00240901
0.0148195
-0.00220514
0.0149703
-0.00195863
-0.00174095
0.0151082
0.0133397
-0.000684662
0.0134075
-0.00167615
0.0135125
-0.00229587
0.0136483
-0.00263935
0.0138078
-0.00276577
0.0139809
-0.0027358
0.0141566
-0.00258468
0.0143274
-0.00237596
0.0144847
-0.0021159
-0.00188594
0.0146297
0.0128721
-0.000709047
0.0129335
-0.00173757
0.0130313
-0.00239367
0.0131612
-0.00276918
0.0133176
-0.00292218
0.0134911
-0.00290928
0.0136701
-0.00276375
0.0138467
-0.0025525
0.0140107
-0.0022799
-0.0020384
0.0141631
0.0124206
-0.000730578
0.012475
-0.00179201
0.0125647
-0.00248336
0.0126873
-0.00289177
0.0128395
-0.00307439
0.0130123
-0.00308204
0.0131942
-0.00294567
0.0133763
-0.00273462
0.0135472
-0.00245079
-0.00219877
0.0137076
0.0119846
-0.00074906
0.0120315
-0.00183898
0.0121122
-0.00256404
0.0122263
-0.0030059
0.0123731
-0.00322115
0.012544
-0.00325294
0.0127281
-0.00312975
0.0129155
-0.00292204
0.0130934
-0.00262873
-0.00236752
0.0132622
0.0115635
-0.000764328
0.0116026
-0.00187806
0.0116734
-0.00263488
0.0117779
-0.00311038
0.0119178
-0.00336111
0.0120856
-0.00342068
0.012271
-0.00331515
0.0124633
-0.00311438
0.0126484
-0.00281379
-0.00254514
0.012826
0.0111568
-0.000776249
0.0111877
-0.00190893
0.0112479
-0.0026951
0.0113416
-0.00320407
0.0114734
-0.00349287
0.0116365
-0.00358381
0.0118223
-0.00350091
0.012019
-0.0033111
0.0122112
-0.00300603
-0.00273214
0.0123982
0.0107642
-0.000784729
0.0107866
-0.00193136
0.0108355
-0.00274402
0.0109174
-0.0032859
0.0110395
-0.00361498
0.0111965
-0.00374078
0.0113815
-0.00368592
0.0115819
-0.0035115
0.0117813
-0.00320543
-0.00292907
0.0119782
0.0103851
-0.000789715
0.0103989
-0.0019452
0.010436
-0.00278107
0.010505
-0.0033549
0.010616
-0.00372596
0.0107652
-0.00388997
0.0109481
-0.00386889
0.0111513
-0.00371464
0.0113578
-0.00341192
-0.00313646
0.0115652
0.0100191
-0.000791196
0.0100243
-0.00195043
0.0100491
-0.00280579
0.0101044
-0.00341023
0.0102028
-0.00382433
0.0103425
-0.00402969
0.0105219
-0.00404836
0.0107267
-0.00391938
0.0109401
-0.00362537
-0.00335484
0.0111585
0.0096658
-0.000789206
0.00966246
-0.00194709
0.00967457
-0.0028179
0.00971553
-0.0034512
0.00979984
-0.00390864
0.00992839
-0.00415824
0.0101027
-0.00422265
0.0103076
-0.00412431
0.0105278
-0.00384558
-0.00358465
0.0107576
0.00932479
-0.000783818
0.00931302
-0.00193532
0.00931235
-0.00281723
0.0093384
-0.00347724
0.00940727
-0.00397751
0.00952299
-0.00427396
0.00969018
-0.00438984
0.00989369
-0.00432782
0.0101203
-0.00407224
-0.00382617
0.0103619
0.00899568
0.00897571
0.00896228
0.00897301
0.00902518
0.00912648
0.00928442
0.00948467
0.0097173
0.00997052
0.0254219
0.000110852
0.0253163
0.000105584
0.0252162
0.000100084
9.43763e-05
0.024547
0.000218143
0.0244449
0.000207723
0.0243481
0.000196854
0.000185577
0.023714
0.000321905
0.0236153
0.000306458
0.0235218
0.000290349
0.00027364
0.0229193
0.000422202
0.022824
0.000401845
0.0227337
0.000380621
0.00035861
0.0221602
0.000519094
0.0220681
0.000493942
0.021981
0.00046772
0.000440529
0.021434
0.000612645
0.0213451
0.000582807
0.0212611
0.000551699
0.0211822
0.000519445
0.000486221
0.0207382
0.00070291
0.0206525
0.000668489
0.0205716
0.000632602
0.0204957
0.000595395
0.000557083
0.0200709
0.000789935
0.0199883
0.000751033
0.0199104
0.00071047
0.0198374
0.000668413
0.000625125
0.0194298
0.000873757
0.0193504
0.000830473
0.0192755
0.000785332
0.0192054
0.000738524
0.000690366
0.0188133
0.000954399
0.018737
0.000906828
0.0186651
0.000857204
0.0185979
0.000805741
0.000752815
0.0182196
0.00103187
0.0181463
0.000980104
0.0180774
0.000926091
0.0180131
0.000870065
0.000812471
0.017647
0.00110616
0.0175768
0.00105029
0.0175109
0.000991981
0.0174495
0.000931482
0.000869317
0.017094
0.00117723
0.017027
0.00111736
0.0169641
0.00105484
0.0169056
0.000989963
0.000923325
0.0165592
0.00124504
0.0164953
0.00118126
0.0164355
0.00111464
0.01638
0.00104546
0.000974448
0.0160412
0.00130951
0.0159806
0.00124193
0.0159239
0.00117129
0.0158715
0.00109791
0.00102262
0.0155388
0.00137056
0.0154815
0.00129927
0.015428
0.00122472
0.0153787
0.00114724
0.00106778
0.0150507
0.00142805
0.0149968
0.00135318
0.0149467
0.00127483
0.0149006
0.00119334
0.00110981
0.0145759
0.00148186
0.0145255
0.00140351
0.0144789
0.00132147
0.0144361
0.00123608
0.0011486
0.0141132
0.0015318
0.0140666
0.00145012
0.0140235
0.00136452
0.0139843
0.00127534
0.00118402
0.0136617
0.00157769
0.013619
0.00149282
0.0135798
0.00140378
0.0135442
0.00131094
0.00121592
0.0132206
0.00161932
0.013182
0.0015314
0.0131467
0.00143908
0.0131149
0.0013427
0.00124412
0.0127889
0.00165643
0.0127546
0.00156564
0.0127235
0.0014702
0.0126958
0.00137043
0.00126843
0.0123659
0.00168875
0.0123363
0.00159527
0.0123096
0.00149688
0.0122861
0.00139388
0.00128863
0.0119509
0.00171599
0.0119262
0.00162003
0.0119042
0.00151888
0.0118853
0.00141282
0.0013045
0.0115433
0.00173782
0.0115238
0.00163958
0.0115068
0.00153588
0.0114926
0.00142695
0.00131575
0.0111424
0.00175389
0.0111284
0.0016536
0.0111167
0.00154757
0.0111077
0.00143597
0.0013221
0.0107477
0.00176381
0.0107396
0.0016617
0.0107336
0.00155359
0.01073
0.00143953
0.00132323
0.0103585
0.00176716
0.0103567
0.00166348
0.0103568
0.00155354
0.0103591
0.00143727
0.00131878
0.00997418
0.00997919
0.00998576
0.00154697
0.00999427
0.00142876
0.00130835
0.00961975
0.009635
)
;

boundaryField
{
    inlet
    {
        type            calculated;
        value           nonuniform List<scalar> 
29
(
-0.0243613
-0.0235106
-0.0226895
-0.0218972
-0.0211325
-0.0203945
-0.0196823
-0.018995
-0.0183316
-0.0176915
-0.0170736
-0.0164774
-0.015902
-0.0153467
-0.0148107
-0.0142935
-0.0137944
-0.0133126
-0.0128477
-0.0123991
-0.0119661
-0.0115482
-0.0111449
-0.0107557
-0.0103801
-0.0100176
-0.00966779
-0.00933018
-0.00900435
)
;
    }
    outlet
    {
        type            calculated;
        value           nonuniform 0();
    }
    cylinder
    {
        type            calculated;
        value           nonuniform 0();
    }
    top
    {
        type            symmetryPlane;
        value           nonuniform 0();
    }
    bottom
    {
        type            symmetryPlane;
        value           uniform 0;
    }
    defaultFaces
    {
        type            empty;
        value           nonuniform 0();
    }
    procBoundary0to1
    {
        type            processor;
        value           nonuniform List<scalar> 
31
(
0.0251219
0.0242569
0.0234337
0.0226487
0.0218991
-0.000412511
0.0211085
0.0204248
0.0197694
0.0191402
0.0185354
0.0179535
0.0173927
0.0168516
0.0163289
0.0158233
0.0153336
0.0148586
0.0143973
0.0139489
0.0135123
0.0130867
0.0126715
0.0122659
0.0118694
0.0114814
0.0111014
0.0107289
0.0103635
0.0100047
0.00965187
)
;
    }
    procBoundary0to6
    {
        type            processor;
        value           nonuniform List<scalar> 
16
(
-0.000775146
-0.00191535
-0.0028038
-0.00348797
-0.00402968
-0.00437526
-0.00454778
-0.00452807
-0.00430486
-0.00407939
0.0017635
0.00165846
-0.00960617
0.00153339
0.00141351
0.00129147
)
;
    }
}


// ************************************************************************* //
