/*--------------------------------*- C++ -*----------------------------------*\
  =========                 |
  \\      /  F ield         | OpenFOAM: The Open Source CFD Toolbox
   \\    /   O peration     | Website:  https://openfoam.org
    \\  /    A nd           | Version:  7
     \\/     M anipulation  |
\*---------------------------------------------------------------------------*/
FoamFile
{
    version     2.0;
    format      ascii;
    class       volScalarField;
    location    "18";
    object      p;
}
// * * * * * * * * * * * * * * * * * * * * * * * * * * * * * * * * * * * * * //

dimensions      [0 2 -2 0 0 0 0];

internalField   nonuniform List<scalar> 
435
(
-0.18001
-0.161714
-0.0747742
-0.0950608
-0.114886
-0.133506
-0.150956
-0.167335
-0.00365031
-0.0239873
-0.0436406
-0.062613
-0.0808942
-0.0980166
-0.114821
-0.130692
-0.145642
0.0330115
0.0141354
-0.00411028
-0.021751
-0.0388038
-0.0552628
-0.0710763
-0.0859407
-0.100761
-0.114826
-0.128156
0.0290444
0.0125732
-0.00336029
-0.0187786
-0.0337079
-0.0481549
-0.0621699
-0.0758035
-0.0883741
-0.100792
-0.112778
0.0261591
0.0117644
-0.00217824
-0.0156887
-0.0287918
-0.0414885
-0.0537812
-0.0656682
-0.0770148
-0.0882426
-0.0990629
0.024075
0.0114489
-0.000799458
-0.0126904
-0.0242487
-0.0354811
-0.0463926
-0.056993
-0.0672616
-0.0772349
-0.0869581
0.0226363
0.0115256
0.000726594
-0.00978135
-0.0200212
-0.0300011
-0.0397275
-0.0492182
-0.0584906
-0.0673931
-0.0761694
0.0216898
0.0118804
0.00232623
-0.00699287
-0.0160967
-0.0249929
-0.0336869
-0.0421884
-0.0505033
-0.0585879
-0.0665742
0.0211208
0.0124322
0.00395157
-0.00433959
-0.0124576
-0.020408
-0.0281943
-0.0358195
-0.0432618
-0.0504606
-0.0578865
0.020832
0.0131094
0.00555413
-0.00185192
-0.00912393
-0.0162688
-0.023292
-0.0302035
-0.0370396
-0.0438505
-0.0502149
0.020758
0.0138752
0.00712704
0.000497654
-0.00602515
-0.0124459
-0.0187674
-0.0249923
-0.0311258
-0.0371765
-0.0431101
0.0208463
0.0146958
0.00865305
0.00270391
-0.00316175
-0.00894751
-0.0146561
-0.020291
-0.0258562
-0.0313549
-0.0367783
0.0210583
0.015549
0.0101255
0.00477528
-0.000509971
-0.00573298
-0.0108958
-0.0160014
-0.0210528
-0.0260514
-0.0309921
0.0213647
0.016419
0.0115411
0.00672013
0.00194938
-0.00277311
-0.00744877
-0.0120797
-0.0166679
-0.0212131
-0.0257105
0.0217418
0.0172926
0.0128963
0.00854362
0.00422897
-4.91694e-05
-0.00429197
-0.00850106
-0.0126786
-0.0168301
-0.0209624
0.022173
0.0181628
0.0141937
0.0102578
0.00635057
0.00247126
-0.00138076
-0.00520645
-0.00900685
-0.0127836
-0.0165387
0.0226433
0.0190219
0.015432
0.0118669
0.00832312
0.00480013
0.00129771
-0.0021848
-0.00564815
-0.00909327
-0.0125209
0.0231404
0.019864
0.0166115
0.013377
0.010158
0.00695424
0.00376579
0.000592313
-0.00256665
-0.00571161
-0.00884289
0.0236536
0.0206836
0.0177315
0.0147921
0.0118636
0.00894589
0.00603936
0.0031439
0.000259292
-0.00261467
-0.00547798
0.0241735
0.0214762
0.0187918
0.0161161
0.0134476
0.0107866
0.00813347
0.00548843
0.00285144
0.000222547
-0.00239773
0.0246919
0.0222373
0.0197917
0.0173516
0.0149159
0.0124851
0.0100596
0.00763974
0.00522569
0.00281761
0.000415637
0.0252015
0.0229632
0.0207308
0.0185015
0.0162745
0.0140502
0.0118294
0.00961231
0.00739931
0.00519067
0.0029862
0.0256965
0.023651
0.0216093
0.0195688
0.0175289
0.0154904
0.0134538
0.0114196
0.00938822
0.00736009
0.00533547
0.0261713
0.0242981
0.0224267
0.0205552
0.0186832
0.0168114
0.0149404
0.0130708
0.011203
0.00933754
0.00747473
0.0266219
0.0249025
0.0231835
0.0214634
0.019742
0.01802
0.016298
0.0145766
0.0128563
0.0111376
0.00942093
0.0270446
0.0254626
0.02388
0.0222956
0.0207093
0.0191218
0.0175338
0.0159458
0.0143583
0.012772
0.0111872
0.0274368
0.0259776
0.024517
0.0230542
0.0215891
0.0201224
0.0186548
0.0171869
0.0157191
0.014252
0.0127862
0.0277966
0.0264471
0.0250957
0.0237417
0.0223853
0.021027
0.0196676
0.0183075
0.0169474
0.0155877
0.0142291
0.0281229
0.0268713
0.0256174
0.0243608
0.0231017
0.0218406
0.0205782
0.019315
0.0180516
0.0167885
0.0155262
0.0284152
0.0272508
0.0260839
0.0249143
0.0237421
0.022568
0.0213924
0.020216
0.0190392
0.0178626
0.0166868
0.0286733
0.0275865
0.0264971
0.0254049
0.0243102
0.0232135
0.0221155
0.0210165
0.0199172
0.018818
0.0177194
0.0288981
0.0278799
0.026859
0.0258355
0.0248095
0.0237817
0.0227525
0.0217224
0.020692
0.0196616
0.0186319
0.0290904
0.0281324
0.0271719
0.0262087
0.0252433
0.0242761
0.0233077
0.0223384
0.0213687
0.0203992
0.0194302
0.0292515
0.0283461
0.027438
0.0265276
0.0256151
0.024701
0.0237856
0.0228695
0.0219532
0.021037
0.0201214
0.0293832
0.0285227
0.0276598
0.0267947
0.0259277
0.0250592
0.0241896
0.0233195
0.0224491
0.021579
0.0207095
0.0294865
0.0286636
0.0278385
0.0270115
0.0261828
0.0253528
0.024522
0.0236907
0.0228593
0.0220282
0.0211979
0.0295643
0.0287718
0.0279774
0.0271813
0.0263839
0.0255854
0.0247862
0.0239868
0.0231874
0.0223885
0.0215903
0.0296143
0.0288447
0.0280736
0.0273012
0.0265277
0.0257535
0.024979
0.0242045
0.0234302
0.0226565
0.0218838
0.0296451
0.0288911
0.028136
0.0273798
0.0266231
0.0258659
0.0251086
0.0243516
0.023595
0.0228391
0.0220844
0.0296381
0.0288906
0.0281426
0.0273944
0.0266463
0.0258984
0.0251511
0.0244045
0.0236589
0.0229144
0.0221715
)
;

boundaryField
{
    inlet
    {
        type            zeroGradient;
    }
    outlet
    {
        type            fixedValue;
        value           nonuniform 0();
    }
    cylinder
    {
        type            zeroGradient;
    }
    top
    {
        type            symmetryPlane;
    }
    bottom
    {
        type            symmetryPlane;
    }
    defaultFaces
    {
        type            empty;
    }
    procBoundary31to24
    {
        type            processor;
        value           nonuniform List<scalar> 8(0.0523372 0.045896 0.0408788 0.0369802 0.0339835 0.0316964 0.0299723 0.0286868);
    }
    procBoundary31to25
    {
        type            processor;
        value           nonuniform List<scalar> 
14
(
-0.19236
-0.173643
-0.14225
-0.14225
-0.121575
-0.0995179
-0.0766868
-0.00776975
-0.0309629
-0.0533248
-0.0533248
0.0390694
0.0173636
0.0173636
)
;
    }
    procBoundary31to26
    {
        type            processor;
        value           nonuniform List<scalar> 8(-0.19711 -0.182634 -0.159749 -0.140851 -0.124255 -0.109465 -0.0963909 -0.0847482);
    }
    procBoundary31to30
    {
        type            processor;
        value           nonuniform List<scalar> 
30
(
0.0277477
0.0270824
0.0266354
0.0263635
0.0262321
0.0262145
0.0262881
0.0264339
0.0266355
0.0268788
0.0271513
0.0274422
0.0277423
0.0280436
0.0283392
0.0286238
0.0288927
0.0291425
0.0293707
0.0295757
0.0297564
0.0299126
0.0300448
0.0301537
0.0302407
0.0303066
0.0303543
0.0303819
0.0303976
0.030385
)
;
    }
    procBoundary31to32
    {
        type            processor;
        value           nonuniform List<scalar> 
33
(
-0.0743749
-0.0650438
-0.0566303
-0.0490076
-0.0421587
-0.0359084
-0.030207
-0.0250206
-0.0202633
-0.0159283
-0.0119592
-0.00832977
-0.00500819
-0.00197991
0.00078551
0.00331459
0.00561504
0.00770683
0.0096046
0.0113222
0.012872
0.0142652
0.0155122
0.0166221
0.0176034
0.0184623
0.0192069
0.0198411
0.0203686
0.0207933
0.0211124
0.021331
0.0214301
)
;
    }
}


// ************************************************************************* //
