/*--------------------------------*- C++ -*----------------------------------*\
  =========                 |
  \\      /  F ield         | OpenFOAM: The Open Source CFD Toolbox
   \\    /   O peration     | Website:  https://openfoam.org
    \\  /    A nd           | Version:  7
     \\/     M anipulation  |
\*---------------------------------------------------------------------------*/
FoamFile
{
    version     2.0;
    format      ascii;
    class       volScalarField;
    location    "19";
    object      p;
}
// * * * * * * * * * * * * * * * * * * * * * * * * * * * * * * * * * * * * * //

dimensions      [0 2 -2 0 0 0 0];

internalField   nonuniform List<scalar> 
433
(
-478.21
-448.593
-421.664
-394.401
-363.08
-329.642
-295.271
-260.684
-226.042
-191.398
-157.393
-125.282
-96.4811
-72.0143
-52.2642
-36.9887
-25.5292
-17.1825
-11.2899
-7.26787
-4.62308
-2.95613
-1.94805
-1.36549
-1.04598
208.891
205.357
199.903
185.371
162.217
134.426
106.502
82.0546
63.4755
51.3207
43.9404
38.7367
33.6645
27.9635
21.9515
16.2979
11.4457
7.56479
4.6448
2.56999
1.16221
0.251554
-0.312428
-0.648186
-0.834993
537.281
514.997
496.345
470.563
433.223
388.388
339.427
290.762
246.02
206.257
170.888
138.691
109.18
82.8422
60.4639
42.4881
28.7375
18.6526
11.5251
6.659
3.45835
1.4359
0.209426
-0.501244
-0.891786
31.769
30.0069
30.6436
32.8872
35.3726
36.8173
35.3727
30.7905
24.736
19.0869
14.2471
9.89207
5.95911
2.74642
0.496812
-0.834574
-1.49755
-1.75187
-1.79645
-1.75055
-1.67749
-1.60709
-1.54933
-1.50702
-1.48128
-1.46646
-545.561
-516.533
-488.732
-456.632
-417.012
-373.7
-329.817
-287.509
-247.252
-208.972
-172.883
-139.579
-109.76
-83.9702
-62.4939
-45.3378
-32.0954
-22.2043
-15.0657
-10.0961
-6.76621
-4.62338
-3.30286
-2.52572
-2.08854
-1.85611
-265.594
-245.714
-229.124
-216.19
-203.768
-191.345
-177.206
-160.46
-140.911
-119.029
-96.3517
-74.8194
-56.0257
-40.7847
-29.0947
-20.508
-14.3613
-10.0389
-7.06436
-5.07263
-3.77989
-2.97055
-2.48435
-2.2039
-2.0485
-1.96647
441.461
425.421
410.02
385.012
348.45
305.247
259.962
217.073
179.971
149.609
124.749
103.171
83.2836
64.8061
48.3155
34.4848
23.4954
15.1944
9.17762
4.97981
2.16455
0.352257
-0.765144
-1.42261
-1.79076
-1.98764
-2.08238
418.146
399.883
385.596
367.71
342.153
310.747
274.598
236.442
199.833
166.463
136.548
109.402
84.7821
63.1741
45.1942
31.0914
20.5117
12.8221
7.41308
3.73386
1.31079
-0.231337
-1.17741
-1.73568
-2.05345
-2.22749
-2.31466
-248.318
-236.605
-223.805
-206.811
-184.92
-161.151
-138.597
-119.098
-102.304
-86.8827
-72.4881
-59.4587
-48.0225
-38.1194
-29.6363
-22.5898
-16.8868
-12.4474
-9.13197
-6.75985
-5.13422
-4.0705
-3.40924
-3.02092
-2.80537
-2.6938
-2.64095
-2.61866
-556.373
-524.29
-494.416
-462.164
-423.723
-382.122
-339.808
-298.329
-258.039
-218.897
-181.21
-145.855
-114.001
-86.5754
-64.0545
-46.3183
-32.8401
-22.9111
-15.8308
-10.9549
-7.7208
-5.66091
-4.40529
-3.67179
-3.26293
-3.04748
-2.94158
-2.89358
-2.87321
30.6515
35.8552
38.3053
33.2373
22.3607
8.46638
-4.71262
-14.4612
-19.1112
-18.4611
-14.1434
-8.62629
-3.95501
-1.07633
0.1236
0.219213
-0.290538
-0.974474
-1.61562
-2.13538
-2.52163
-2.78987
-2.96019
-3.06225
-3.11974
-3.14851
-3.15988
-3.16117
-3.15615
543.15
521.13
502.022
474.534
434.86
387.657
336.747
286.638
241.139
201.504
167.01
136.038
107.637
82.0282
59.9367
41.8709
27.9007
17.5161
10.0839
4.96892
1.58268
-0.570142
-1.88343
-2.64928
-3.07253
-3.29251
-3.39597
-3.43575
-3.44316
-3.4347
189.007
180.246
174.903
169.947
162.921
153.129
138.913
120.826
101.238
82.7539
66.2013
51.3223
38.0283
26.6793
17.6205
10.8795
6.02009
2.62192
0.301956
-1.2462
-2.25194
-2.88451
-3.2678
-3.49109
-3.61846
-3.68535
-3.71582
-463.965
-440.413
-417.122
-388.789
-352.968
-313.882
-275.19
-239.22
-206.063
-174.882
-145.548
-118.529
-94.3603
-73.3672
-55.6953
-41.4121
-30.2633
-21.852
-15.7281
-11.4287
-8.52613
-6.64791
-5.48586
-410.493
-384.219
-360.998
-338.938
-314.381
-288.367
-261.045
-232.676
-203.197
-172.78
-142.352
-113.413
-87.5228
-65.7314
-48.359
-35.1121
-25.297
-18.2146
-13.2452
306.568
297.5
287.324
267.732
238.44
203.844
168.32
135.699
108.739
88.515
73.7702
62.0193
51.1867
40.4874
30.2471
504.496
483.306
466.128
443.101
409.805
369.374
324.212
277.952
234.422
195.307
160.55
129.083
-83.4437
-79.752
-74.1516
-65.7627
-54.9951
-43.9703
-35.4152
-30.3559
-576.308
-545.091
-515.529
-386.88
-367.682
-348.207
)
;

boundaryField
{
    inlet
    {
        type            zeroGradient;
    }
    outlet
    {
        type            fixedValue;
        value           nonuniform 0();
    }
    cylinder
    {
        type            zeroGradient;
    }
    top
    {
        type            symmetryPlane;
    }
    bottom
    {
        type            symmetryPlane;
    }
    defaultFaces
    {
        type            empty;
    }
    procBoundary21to15
    {
        type            processor;
        value           nonuniform List<scalar> 
26
(
-323.767
-292.553
-258.436
-224.833
-194.035
-166.128
-140.128
-115.848
-93.6957
-74.0562
-57.0768
-42.7743
-31.1622
-22.0475
-15.1356
-10.0842
-6.53381
-4.13895
-2.59363
-1.64405
-1.09223
-0.791855
291.199
277.914
268.325
-323.767
)
;
    }
    procBoundary21to16
    {
        type            processor;
        value           uniform -0.882256;
    }
    procBoundary21to22
    {
        type            processor;
        value           nonuniform List<scalar> 
16
(
-0.932656
-1.09303
-1.09303
-1.45786
-1.74092
-1.92552
-1.92552
-2.12322
-2.35472
-2.35472
-2.61024
-2.61024
-2.86397
-3.14724
-3.14724
-3.41864
)
;
    }
    procBoundary21to27
    {
        type            processor;
        value           nonuniform List<scalar> 
37
(
-3.72493
-3.72133
-3.71
-4.80101
-4.41439
-4.20672
-3.72493
-4.09975
-9.87149
-7.66009
-6.26486
-4.80101
-5.4213
21.1812
13.6893
7.84226
-9.87149
3.51955
100.444
75.0437
21.1812
53.5495
-27.7255
-25.5829
-23.2674
100.444
-21.0554
-482.198
-441.46
-396.987
-351.862
-27.7255
-308.26
-160.265
-145.939
-482.198
-134.908
)
;
    }
}


// ************************************************************************* //
