/*--------------------------------*- C++ -*----------------------------------*\
  =========                 |
  \\      /  F ield         | OpenFOAM: The Open Source CFD Toolbox
   \\    /   O peration     | Website:  https://openfoam.org
    \\  /    A nd           | Version:  7
     \\/     M anipulation  |
\*---------------------------------------------------------------------------*/
FoamFile
{
    version     2.0;
    format      ascii;
    class       volVectorField;
    location    "14";
    object      U;
}
// * * * * * * * * * * * * * * * * * * * * * * * * * * * * * * * * * * * * * //

dimensions      [0 1 -1 0 0 0 0];

internalField   nonuniform List<vector> 
433
(
(0.416507 -0.0570775 -1.40475e-20)
(0.425343 -0.0502528 6.1477e-20)
(0.435751 -0.043406 -2.33236e-20)
(0.447808 -0.0369116 5.67051e-20)
(0.46155 -0.0311729 -8.17291e-20)
(0.476976 -0.0266107 5.48041e-20)
(0.445383 -0.0591672 4.67212e-20)
(0.453163 -0.0525965 -5.70627e-21)
(0.462549 -0.045962 3.0047e-20)
(0.473617 -0.0396359 2.2307e-20)
(0.486404 -0.0340206 -1.84841e-20)
(0.500907 -0.029536 1.04879e-21)
(0.517044 -0.0266024 8.53844e-22)
(0.534689 -0.0255696 5.33876e-21)
(0.553596 -0.0267526 1.90263e-21)
(0.573517 -0.0302471 -8.35113e-21)
(0.593976 -0.0361445 -3.92883e-21)
(0.614701 -0.0440308 4.99835e-21)
(0.634892 -0.0538298 -8.35006e-21)
(0.654594 -0.0642787 5.94555e-21)
(0.672393 -0.0756923 -5.82434e-21)
(0.689491 -0.085251 6.96618e-21)
(0.702939 -0.0953471 -2.35245e-21)
(0.717033 -0.0995211 -7.74784e-22)
(0.724732 -0.106454 1.36972e-21)
(0.737749 -0.100108 -9.6715e-22)
(0.739245 -0.10502 1.15677e-22)
(0.75619 -0.0840154 -3.89756e-23)
(0.489919 -0.0554788 0)
(0.498158 -0.0491353 0)
(0.508105 -0.043072 0)
(0.519795 -0.0376824 0)
(0.533219 -0.033377 0)
(0.548292 -0.0305687 0)
(0.564881 -0.0296014 0)
(0.582735 -0.0307856 0)
(0.601595 -0.0342145 0)
(0.620986 -0.0399803 0)
(0.640624 -0.0476698 0)
(0.659726 -0.0572184 0)
(0.678309 -0.0673626 0)
(0.695023 -0.0784489 0)
(0.710976 -0.0876413 0)
(0.723404 -0.097404 0)
(0.7363 -0.101217 0)
(0.74316 -0.107903 0)
(0.754765 -0.101322 0)
(0.755816 -0.106132 0)
(0.770777 -0.0853577 0)
(0.540723 -0.0578238 0)
(0.547316 -0.0520274 0)
(0.555646 -0.0464957 0)
(0.565743 -0.0416058 0)
(0.577594 -0.0377497 0)
(0.591108 -0.0353195 0)
(0.606144 -0.0346421 0)
(0.622446 -0.0360068 0)
(0.639742 -0.0394979 0)
(0.657561 -0.04519 0)
(0.675604 -0.0526824 0)
(0.693115 -0.0618966 0)
(0.710075 -0.071619 0)
(0.725219 -0.0821727 0)
(0.739539 -0.0908296 0)
(0.75051 -0.0999845 0)
(0.76174 -0.103323 0)
(0.767414 -0.109469 0)
(0.777137 -0.102724 0)
(0.777547 -0.107123 0)
(0.789948 -0.0868821 0)
(0.59476 -0.0596819 0)
(0.599577 -0.054468 0)
(0.606154 -0.0494987 0)
(0.614518 -0.0451353 0)
(0.62465 -0.0417514 0)
(0.636454 -0.0397184 0)
(0.649783 -0.0393462 0)
(0.664373 -0.040903 0)
(0.679947 -0.0444647 0)
(0.696036 -0.0500891 0)
(0.712329 -0.0573896 0)
(0.728097 -0.0662726 0)
(0.74329 -0.0755794 0)
(0.756728 -0.0856026 0)
(0.769292 -0.0937374 0)
(0.778695 -0.102282 0)
(0.788173 -0.105176 0)
(0.79259 -0.110758 0)
(0.800392 -0.103913 0)
(0.800138 -0.107833 0)
(0.809969 -0.0882117 0)
(0.651505 -0.0609264 0)
(0.654456 -0.056344 0)
(0.659181 -0.051978 0)
(0.665704 -0.0481738 0)
(0.673999 -0.0452871 0)
(0.683968 -0.0436696 0)
(0.695455 -0.0436147 0)
(0.708195 -0.0453716 0)
(0.721904 -0.0490087 0)
(0.736118 -0.0545698 0)
(0.750518 -0.0616827 0)
(0.764404 -0.0702425 0)
(0.777697 -0.079144 0)
(0.789306 -0.0886525 0)
(0.800005 -0.0962845 0)
(0.807744 -0.104239 0)
(0.815395 -0.106718 0)
(0.818496 -0.111749 0)
(0.82435 -0.104846 0)
(0.823418 -0.108272 0)
(0.830688 -0.0893129 0)
(0.710265 -0.0614048 0)
(0.71131 -0.0575107 0)
(0.714132 -0.0538005 0)
(0.718747 -0.0506027 0)
(0.725126 -0.0482548 0)
(0.733167 -0.0470888 0)
(0.74271 -0.0473811 0)
(0.753489 -0.0493625 0)
(0.765215 -0.053094 0)
(0.777434 -0.0586069 0)
(0.78982 -0.065544 0)
(0.801706 -0.0737915 0)
(0.812988 -0.0822989 0)
(0.822664 -0.0913044 0)
(0.831406 -0.0984511 0)
(0.837403 -0.105829 0)
(0.84317 -0.107924 0)
(0.844912 -0.11241 0)
(0.848805 -0.105499 0)
(0.847183 -0.108416 0)
(0.851925 -0.0901667 0)
(0.770189 -0.0610669 0)
(0.769351 -0.0579136 0)
(0.770271 -0.0549079 0)
(0.772963 -0.0523616 0)
(0.777394 -0.0505935 0)
(0.783458 -0.0499152 0)
(0.790993 -0.0505859 0)
(0.799737 -0.0528182 0)
(0.809397 -0.0566656 0)
(0.819533 -0.0621482 0)
(0.829815 -0.0689242 0)
(0.839611 -0.0768726 0)
(0.848799 -0.0849998 0)
(0.856464 -0.0935163 0)
(0.863185 -0.100198 0)
(0.867384 -0.107017 0)
(0.871231 -0.108763 0)
(0.871585 -0.112712 0)
(0.873523 -0.105851 0)
(0.87121 -0.108245 0)
(0.873477 -0.090757 0)
(0.830285 -0.0598884 0)
(0.827653 -0.0575201 0)
(0.826737 -0.0552603 0)
(0.82755 -0.0534034 0)
(0.830053 -0.0522494 0)
(0.834143 -0.0520897 0)
(0.839656 -0.0531658 0)
(0.846334 -0.0556724 0)
(0.853888 -0.0596557 0)
(0.861892 -0.0651255 0)
(0.870018 -0.0717566 0)
(0.877672 -0.0794222 0)
(0.884717 -0.0871868 0)
(0.890326 -0.0952338 0)
(0.894992 -0.101477 0)
(0.897365 -0.10776 0)
(0.899282 -0.109198 0)
(0.898241 -0.112632 0)
(0.898252 -0.105878 0)
(0.895251 -0.10775 0)
(0.89512 -0.0910687 0)
(0.889442 -0.0578736 0)
(0.885177 -0.0563226 0)
(0.882559 -0.0548391 0)
(0.881599 -0.0536999 0)
(0.882258 -0.053186 0)
(0.884433 -0.0535684 0)
(0.887964 -0.0550709 0)
(0.892599 -0.0578708 0)
(0.898056 -0.0620073 0)
(0.903926 -0.0674812 0)
(0.909889 -0.0739839 0)
(0.915391 -0.0813851 0)
(0.920283 -0.0888083 0)
(0.92383 -0.0964102 0)
(0.926443 -0.102246 0)
(0.926996 -0.108023 0)
(0.927005 -0.1092 0)
(0.924585 -0.112146 0)
(0.922718 -0.105559 0)
(0.919044 -0.106922 0)
(0.916615 -0.0910885 0)
(0.946477 -0.0550658 0)
(0.940811 -0.0543482 0)
(0.936693 -0.0536567 0)
(0.934131 -0.0532505 0)
(0.933091 -0.0533912 0)
(0.933472 -0.0543296 0)
(0.935118 -0.0562718 0)
(0.937789 -0.0593781 0)
(0.941212 -0.0636809 0)
(0.944999 -0.0691733 0)
(0.948843 -0.0755638 0)
(0.95223 -0.0827199 0)
(0.955008 -0.0898249 0)
(0.956531 -0.0970094 0)
(0.957132 -0.102473 0)
(0.955907 -0.107781 0)
(0.954061 -0.108744 0)
(0.950305 -0.111239 0)
(0.946638 -0.104879 0)
(0.942316 -0.105757 0)
(0.937711 -0.0908064 0)
(1.0002 -0.0515514 0)
(0.993425 -0.0516626 0)
(0.988067 -0.0517607 0)
(0.984138 -0.0520865 0)
(0.981603 -0.052882 0)
(0.980369 -0.054378 0)
(0.980287 -0.0567628 0)
(0.98113 -0.0601805 0)
(0.982638 -0.0646568 0)
(0.984449 -0.070178 0)
(0.98627 -0.0764701 0)
(0.987632 -0.0834001 0)
(0.988383 -0.0902109 0)
(0.987965 -0.0970081 0)
(0.986641 -0.102136 0)
(0.983719 -0.107015 0)
(0.980109 -0.107815 0)
(0.975086 -0.109902 0)
(0.969724 -0.103825 0)
(0.964792 -0.104257 0)
(0.958157 -0.0902156 0)
(1.04948 -0.0474574 0)
(1.04194 -0.0483699 0)
(1.03565 -0.0492341 0)
(1.03064 -0.050272 0)
(1.02686 -0.0517059 0)
(1.02425 -0.0537466 0)
(1.02265 -0.0565645 0)
(1.02185 -0.0602883 0)
(1.02162 -0.0649372 0)
(1.02161 -0.070492 0)
(1.02156 -0.0766958 0)
(1.02104 -0.0834166 0)
(1.0199 -0.0899565 0)
(1.01767 -0.0963971 0)
(1.01456 -0.101227 0)
(1.01006 -0.10572 0)
(1.00481 -0.106408 0)
(0.998618 -0.108134 0)
(0.991693 -0.102392 0)
(0.986199 -0.102425 0)
(0.977704 -0.0893137 0)
(1.09337 -0.0429441 0)
(1.08541 -0.0446065 0)
(1.07853 -0.0461916 0)
(1.07274 -0.047902 0)
(1.06802 -0.04994 0)
(1.06429 -0.0524964 0)
(1.06143 -0.0557244 0)
(1.05923 -0.0597375 0)
(1.05748 -0.0645489 0)
(1.05587 -0.0701346 0)
(1.05414 -0.076255 0)
(1.05193 -0.0827801 0)
(1.04908 -0.0890705 0)
(1.04522 -0.0951843 0)
(1.04048 -0.0997529 0)
(1.03456 -0.103904 0)
(1.02784 -0.104528 0)
(1.0206 -0.105945 0)
(1.01227 -0.100583 0)
(1.00628 -0.100274 0)
(0.996116 -0.0881028 0)
(1.13111 -0.0381929 0)
(1.12309 -0.0405319 0)
(1.11595 -0.0427722 0)
(1.10972 -0.0450964 0)
(1.10436 -0.0476866 0)
(1.09982 -0.0507142 0)
(1.09597 -0.0543153 0)
(1.09264 -0.0585889 0)
(1.08963 -0.0635426 0)
(1.08666 -0.0691485 0)
(1.0835 -0.0751842 0)
(1.07982 -0.0815221 0)
(1.07549 -0.0875806 0)
(1.07021 -0.0933949 0)
(1.06406 -0.0977367 0)
(1.05691 -0.101587 0)
(1.0489 -0.102192 0)
(1.04077 -0.103354 0)
(1.03123 -0.0984081 0)
(1.02481 -0.0978186 0)
(1.01318 -0.0865902 0)
(1.1623 -0.03339 0)
(1.15453 -0.0363151 0)
(1.14744 -0.0391277 0)
(1.14106 -0.0419907 0)
(1.13537 -0.0450662 0)
(1.13031 -0.0485063 0)
(1.12577 -0.0524307 0)
(1.12159 -0.0569247 0)
(1.1176 -0.0619909 0)
(1.11354 -0.0675978 0)
(1.10921 -0.0735405 0)
(1.10434 -0.0796943 0)
(1.09878 -0.0855335 0)
(1.09232 -0.0910716 0)
(1.08499 -0.0952164 0)
(1.07683 -0.0988067 0)
(1.06775 -0.0994292 0)
(1.0589 -0.100388 0)
(1.04834 -0.0958869 0)
(1.04158 -0.0950818 0)
(1.02871 -0.0847881 0)
(1.18682 -0.028709 0)
(1.17955 -0.0321185 0)
(1.17278 -0.0354092 0)
(1.16653 -0.0387244 0)
(1.16077 -0.0422068 0)
(1.15547 -0.0459898 0)
(1.15052 -0.0501775 0)
(1.14578 -0.0548425 0)
(1.14108 -0.0599828 0)
(1.13622 -0.0655643 0)
(1.13101 -0.071399 0)
(1.1252 -0.0773657 0)
(1.11869 -0.0829929 0)
(1.11132 -0.0882732 0)
(1.10306 -0.092245 0)
(1.09413 -0.0956104 0)
(1.08421 -0.0962813 0)
(1.07481 -0.0970872 0)
(1.06344 -0.0930463 0)
(1.05645 -0.0920907 0)
(1.04256 -0.0827142 0)
(1.20491 -0.0242944 0)
(1.19833 -0.0280833 0)
(1.19206 -0.031753 0)
(1.18615 -0.0354281 0)
(1.18056 -0.0392327 0)
(1.17525 -0.0432826 0)
(1.17013 -0.0476673 0)
(1.16509 -0.0524475 0)
(1.15996 -0.0576173 0)
(1.15456 -0.063141 0)
(1.14873 -0.0688471 0)
(1.14227 -0.0746184 0)
(1.13507 -0.0800353 0)
(1.12705 -0.0850707 0)
(1.11814 -0.0888871 0)
(1.10866 -0.0920576 0)
(1.09814 -0.0927987 0)
(1.08838 -0.0934968 0)
(1.07643 -0.0899211 0)
(1.06929 -0.0888769 0)
(1.05462 -0.0803906 0)
(1.21709 -0.0202511 0)
(1.21128 -0.0243179 0)
(1.20565 -0.0282693 0)
(1.20022 -0.0322124 0)
(1.19496 -0.0362539 0)
(1.18983 -0.0404932 0)
(1.18475 -0.0450063 0)
(1.17962 -0.0498432 0)
(1.17429 -0.0549953 0)
(1.1686 -0.0604255 0)
(1.16241 -0.0659788 0)
(1.15556 -0.0715422 0)
(1.14794 -0.0767454 0)
(1.13952 -0.0815439 0)
(1.13019 -0.0852159 0)
(1.1204 -0.0882153 0)
(1.10952 -0.0890391 0)
(1.09957 -0.0896688 0)
(1.08725 -0.0865519 0)
(1.08007 -0.0854758 0)
(1.06485 -0.0778438 0)
(1.22408 -0.0166392 0)
(1.21908 -0.0208916 0)
(1.21413 -0.0250349 0)
(1.20925 -0.0291599 0)
(1.20442 -0.0333575 0)
(1.1996 -0.037712 0)
(1.19472 -0.0422874 0)
(1.18967 -0.0471241 0)
(1.18433 -0.0522115 0)
(1.17856 -0.057512 0)
(1.17222 -0.0628868 0)
(1.1652 -0.0682274 0)
(1.15739 -0.0732103 0)
(1.1488 -0.0777753 0)
(1.1393 -0.0813077 0)
(1.12941 -0.084154 0)
(1.11837 -0.0850643 0)
(1.10841 -0.0856582 0)
(1.09593 -0.0829836 0)
(1.08878 -0.0819243 0)
(1.07322 -0.0751026 0)
(1.22674 -0.0134768 0)
(1.2225 -0.0178351 0)
(1.21822 -0.0220915 0)
(1.21392 -0.0263221 0)
(1.20957 -0.0306035 0)
(1.20513 -0.0350064 0)
(1.20053 -0.0395839 0)
(1.19568 -0.0443684 0)
(1.19047 -0.0493479 0)
(1.18477 -0.054485 0)
(1.17847 -0.0596567 0)
(1.17147 -0.0647595 0)
(1.16366 -0.0695134 0)
(1.1551 -0.0738453 0)
(1.14562 -0.0772382 0)
(1.13581 -0.0799439 0)
(1.12482 -0.0809368 0)
(1.11499 -0.0815199 0)
(1.10252 -0.0792621 0)
(1.0955 -0.07826 0)
(1.0798 -0.0721977 0)
(1.22594 -0.0107477 0)
(1.22238 -0.0151459 0)
(1.21873 -0.0194493 0)
(1.21497 -0.0237209 0)
(1.2111 -0.0280245 0)
(1.20706 -0.0324186 0)
)
;

boundaryField
{
    inlet
    {
        type            uniformFixedValue;
        uniformValue    constant (1 0 0);
        value           nonuniform 0();
    }
    outlet
    {
        type            pressureInletOutletVelocity;
        value           nonuniform List<vector> 
20
(
(0.770777 -0.0853577 0)
(0.789948 -0.0868821 0)
(0.809969 -0.0882117 0)
(0.830688 -0.0893129 0)
(0.851925 -0.0901667 0)
(0.873477 -0.090757 0)
(0.89512 -0.0910687 0)
(0.916615 -0.0910885 0)
(0.937711 -0.0908064 0)
(0.958157 -0.0902156 0)
(0.977704 -0.0893137 0)
(0.996116 -0.0881028 0)
(1.01318 -0.0865902 0)
(1.02871 -0.0847881 0)
(1.04256 -0.0827142 0)
(1.05462 -0.0803906 0)
(1.06485 -0.0778438 0)
(1.07322 -0.0751026 0)
(1.0798 -0.0721977 0)
(0.75619 -0.0840154 -3.89756e-23)
)
;
    }
    cylinder
    {
        type            fixedValue;
        value           nonuniform 0();
    }
    top
    {
        type            symmetryPlane;
    }
    bottom
    {
        type            symmetryPlane;
    }
    defaultFaces
    {
        type            empty;
    }
    procBoundary29to23
    {
        type            processor;
        value           nonuniform List<vector> 
23
(
(0.388058 -0.0545909 -6.11651e-20)
(0.397946 -0.047556 6.66582e-21)
(0.409369 -0.0405372 1.2094e-20)
(0.422402 -0.0339115 -2.54451e-20)
(0.437081 -0.0280825 6.46156e-22)
(0.453405 -0.0234721 1.468e-20)
(0.494006 -0.0236439 1.38322e-20)
(0.494006 -0.0236439 1.38322e-20)
(0.51252 -0.0226217 6.44037e-21)
(0.532276 -0.023854 -4.48197e-21)
(0.553034 -0.0274367 -9.13366e-21)
(0.574319 -0.0334515 2.67121e-21)
(0.595872 -0.0414907 -3.12276e-21)
(0.616881 -0.051457 1.06325e-20)
(0.637414 -0.0621113 -2.99351e-21)
(0.656012 -0.0737174 4.47031e-21)
(0.673947 -0.0835223 -2.04354e-21)
(0.688134 -0.0937974 -1.06551e-21)
(0.703094 -0.0982409 -6.98636e-22)
(0.711392 -0.105275 1.03586e-21)
(0.725422 -0.0991628 -2.24475e-22)
(0.727221 -0.104049 -1.46267e-22)
(0.745593 -0.0829526 3.63712e-23)
)
;
    }
    procBoundary29to28
    {
        type            processor;
        value           nonuniform List<vector> 
20
(
(0.409136 -0.0635557 4.25135e-20)
(0.439102 -0.0653524 1.52947e-19)
(0.483311 -0.0617414 0)
(0.483311 -0.0617414 0)
(0.535793 -0.0635395 0)
(0.591634 -0.0648098 0)
(0.650264 -0.0654092 0)
(0.710934 -0.065181 0)
(0.772729 -0.0640809 0)
(0.834581 -0.062093 0)
(0.895304 -0.0592346 0)
(0.953641 -0.0555677 0)
(1.00834 -0.0512014 0)
(1.05823 -0.0462881 0)
(1.10235 -0.0410139 0)
(1.13996 -0.0355833 0)
(1.17069 -0.0301997 0)
(1.19452 -0.0250466 0)
(1.21177 -0.0202704 0)
(1.22303 -0.0159699 0)
)
;
    }
    procBoundary29to34
    {
        type            processor;
        value           nonuniform List<vector> 3((1.22911 -0.0121943 0) (1.23093 -0.00894719 0) (1.22938 -0.00619786 0));
    }
    procBoundary29to35
    {
        type            processor;
        value           nonuniform List<vector> 
22
(
(1.20279 -0.0369469 0)
(1.19822 -0.0416346 0)
(1.19323 -0.0464691 0)
(1.18772 -0.051414 0)
(1.18158 -0.0563613 0)
(1.17473 -0.061213 0)
(1.16707 -0.0657293 0)
(1.1587 -0.0698274 0)
(1.1494 -0.0730771 0)
(1.13983 -0.0756504 0)
(1.12903 -0.0767157 0)
(1.11946 -0.0773062 0)
(1.10716 -0.0754328 0)
(1.10033 -0.0745187 0)
(1.08468 -0.0691598 0)
(1.2225 -0.00841288 0)
(1.21954 -0.0127976 0)
(1.21643 -0.0170943 0)
(1.21317 -0.0213543 0)
(1.20973 -0.0256297 0)
(1.20279 -0.0369469 0)
(1.20608 -0.0299684 0)
)
;
    }
}


// ************************************************************************* //
