/*--------------------------------*- C++ -*----------------------------------*\
  =========                 |
  \\      /  F ield         | OpenFOAM: The Open Source CFD Toolbox
   \\    /   O peration     | Website:  https://openfoam.org
    \\  /    A nd           | Version:  7
     \\/     M anipulation  |
\*---------------------------------------------------------------------------*/
FoamFile
{
    version     2.0;
    format      ascii;
    class       volScalarField;
    location    "117";
    object      p;
}
// * * * * * * * * * * * * * * * * * * * * * * * * * * * * * * * * * * * * * //

dimensions      [0 2 -2 0 0 0 0];

internalField   nonuniform List<scalar> 
12400
(
-0.378946
-0.37993
-0.380504
-0.380963
-0.381646
-0.382845
-0.384818
-0.387765
-0.391844
-0.397206
-0.404012
-0.412436
-0.422621
-0.4346
-0.448171
-0.46272
-0.47701
-0.488968
-0.496306
-0.493472
-0.384667
-0.385033
-0.385264
-0.385522
-0.386098
-0.387302
-0.389416
-0.392672
-0.397267
-0.403397
-0.411283
-0.421162
-0.433246
-0.44763
-0.46414
-0.482125
-0.500243
-0.51599
-0.527213
-0.526187
-0.390136
-0.389886
-0.389765
-0.389801
-0.390239
-0.391401
-0.393592
-0.397073
-0.402075
-0.408835
-0.417616
-0.428705
-0.442366
-0.458733
-0.477641
-0.498396
-0.519601
-0.538289
-0.552391
-0.552434
-0.395208
-0.394369
-0.393893
-0.393691
-0.393953
-0.395015
-0.397203
-0.400804
-0.40608
-0.413299
-0.422758
-0.434777
-0.449648
-0.467526
-0.488247
-0.511057
-0.534516
-0.555227
-0.571497
-0.571736
-0.399773
-0.398391
-0.397569
-0.397109
-0.397154
-0.39805
-0.400141
-0.403739
-0.409135
-0.416623
-0.42652
-0.439166
-0.454863
-0.473765
-0.495692
-0.519816
-0.544761
-0.566544
-0.584293
-0.583899
-0.403746
-0.401888
-0.400738
-0.400007
-0.399793
-0.400451
-0.402341
-0.405802
-0.411151
-0.418702
-0.42879
-0.441756
-0.4579
-0.477357
-0.499926
-0.524677
-0.550396
-0.572356
-0.59088
-0.589119
-0.407082
-0.404831
-0.403382
-0.40237
-0.401858
-0.402203
-0.403785
-0.406967
-0.412096
-0.419507
-0.429541
-0.442537
-0.458778
-0.478368
-0.501086
-0.525873
-0.551738
-0.573139
-0.591672
-0.587915
-0.409767
-0.407221
-0.405512
-0.404218
-0.403372
-0.403335
-0.404503
-0.407268
-0.412009
-0.419081
-0.428833
-0.441597
-0.457632
-0.477
-0.499468
-0.523812
-0.549229
-0.569555
-0.587272
-0.581004
-0.411827
-0.409091
-0.407167
-0.405596
-0.40439
-0.403909
-0.404567
-0.406789
-0.410986
-0.417541
-0.426813
-0.439124
-0.454708
-0.47358
-0.495491
-0.519046
-0.543619
-0.562378
-0.578365
-0.569184
-0.413315
-0.410499
-0.408411
-0.406576
-0.404992
-0.40402
-0.40409
-0.405661
-0.409183
-0.415071
-0.4237
-0.435387
-0.450341
-0.468523
-0.489659
-0.512179
-0.535495
-0.552321
-0.565622
-0.553217
-0.414318
-0.411529
-0.409328
-0.407247
-0.40528
-0.403784
-0.40321
-0.40405
-0.406799
-0.41191
-0.419779
-0.430723
-0.444927
-0.462296
-0.482477
-0.5038
-0.52546
-0.53995
-0.54966
-0.533793
-0.414948
-0.412283
-0.410017
-0.407713
-0.405366
-0.403334
-0.402086
-0.402151
-0.404068
-0.408334
-0.415375
-0.42551
-0.438902
-0.455384
-0.474518
-0.494414
-0.513986
-0.525631
-0.53105
-0.511602
-0.41534
-0.412879
-0.41059
-0.408084
-0.405371
-0.40281
-0.400886
-0.400167
-0.401238
-0.404642
-0.410836
-0.420143
-0.432695
-0.448244
-0.466178
-0.484378
-0.501369
-0.509585
-0.510342
-0.487431
-0.415651
-0.413451
-0.411169
-0.408481
-0.405424
-0.402356
-0.399785
-0.39831
-0.398564
-0.401131
-0.406501
-0.414995
-0.426694
-0.441233
-0.457754
-0.473886
-0.487736
-0.49201
-0.488129
-0.462188
-0.416054
-0.414142
-0.411883
-0.40903
-0.405654
-0.40212
-0.398953
-0.396785
-0.396286
-0.398082
-0.40268
-0.410388
-0.421198
-0.434586
-0.44938
-0.462976
-0.473124
-0.473192
-0.465078
-0.436821
-0.416734
-0.415104
-0.412867
-0.409859
-0.406194
-0.402246
-0.398555
-0.395781
-0.394623
-0.395733
-0.399622
-0.406552
-0.416385
-0.428385
-0.441027
-0.451592
-0.457584
-0.453546
-0.441876
-0.412145
-0.417876
-0.416486
-0.414253
-0.411098
-0.407176
-0.402873
-0.398744
-0.395465
-0.393754
-0.394267
-0.397491
-0.403603
-0.412286
-0.422561
-0.43257
-0.439672
-0.441269
-0.433558
-0.41905
-0.388681
-0.419658
-0.418432
-0.416171
-0.412867
-0.408719
-0.404124
-0.399646
-0.395965
-0.393799
-0.393784
-0.396344
-0.401525
-0.408798
-0.41694
-0.423875
-0.427228
-0.424482
-0.413683
-0.396745
-0.366597
-0.422228
-0.421073
-0.418734
-0.415273
-0.410924
-0.406095
-0.401347
-0.397355
-0.394808
-0.394291
-0.396123
-0.400182
-0.405718
-0.411318
-0.414875
-0.414402
-0.407674
-0.394321
-0.374826
-0.345863
-0.42572
-0.424503
-0.422029
-0.418395
-0.413862
-0.408842
-0.403889
-0.399646
-0.396752
-0.395702
-0.396674
-0.399355
-0.402805
-0.40553
-0.405584
-0.401434
-0.391352
-0.375891
-0.353686
-0.326515
-0.430215
-0.428792
-0.426118
-0.422285
-0.417569
-0.412384
-0.40726
-0.402792
-0.399535
-0.39786
-0.397776
-0.398788
-0.399837
-0.39948
-0.396089
-0.388598
-0.375872
-0.35877
-0.335138
-0.30886
-0.435748
-0.433986
-0.431035
-0.426965
-0.422051
-0.416703
-0.411412
-0.406701
-0.403012
-0.400562
-0.399185
-0.398239
-0.396649
-0.393146
-0.38652
-0.376134
-0.361356
-0.342975
-0.319512
-0.294527
-0.442326
-0.440097
-0.436789
-0.432434
-0.427292
-0.421759
-0.416272
-0.411258
-0.407017
-0.403596
-0.400666
-0.397509
-0.393136
-0.386563
-0.377011
-0.364203
-0.347836
-0.328686
-0.305527
-0.281526
-0.449931
-0.447116
-0.443376
-0.438683
-0.433268
-0.427506
-0.421764
-0.416343
-0.411384
-0.406759
-0.402018
-0.396449
-0.389257
-0.379795
-0.367676
-0.352877
-0.335312
-0.315637
-0.292905
-0.269965
-0.45853
-0.455027
-0.450786
-0.445697
-0.439957
-0.433905
-0.427815
-0.421843
-0.415954
-0.409868
-0.403075
-0.394967
-0.385013
-0.372912
-0.358585
-0.342166
-0.323679
-0.303673
-0.281366
-0.259213
-0.468085
-0.463809
-0.459006
-0.45347
-0.447346
-0.440923
-0.434361
-0.427649
-0.420581
-0.412765
-0.403716
-0.393013
-0.380433
-0.365973
-0.349768
-0.332028
-0.312826
-0.292586
-0.270662
-0.249192
-0.478555
-0.473441
-0.468028
-0.461998
-0.455426
-0.448532
-0.441336
-0.433651
-0.425124
-0.415316
-0.403856
-0.390576
-0.375553
-0.359013
-0.341218
-0.322391
-0.302616
-0.282205
-0.260626
-0.239699
-0.489903
-0.4839
-0.47784
-0.471275
-0.464185
-0.456693
-0.448661
-0.439731
-0.429446
-0.417407
-0.40344
-0.387663
-0.370405
-0.352046
-0.332898
-0.313164
-0.29292
-0.272373
-0.251095
-0.230628
-0.502081
-0.495153
-0.488425
-0.481287
-0.473595
-0.465348
-0.456235
-0.445753
-0.433412
-0.418944
-0.402438
-0.384287
-0.365007
-0.345058
-0.324752
-0.304251
-0.283612
-0.262954
-0.241945
-0.221862
-0.515032
-0.507157
-0.499745
-0.491996
-0.4836
-0.474404
-0.463927
-0.451567
-0.436891
-0.419854
-0.400833
-0.380457
-0.359361
-0.338019
-0.316711
-0.295553
-0.274576
-0.253828
-0.233061
-0.213309
-0.528672
-0.519841
-0.511741
-0.503334
-0.494105
-0.483728
-0.471571
-0.457008
-0.439761
-0.420073
-0.398609
-0.376173
-0.353447
-0.330881
-0.3087
-0.286974
-0.265706
-0.244888
-0.224348
-0.204886
-0.542889
-0.533109
-0.524318
-0.515193
-0.504972
-0.493145
-0.478977
-0.461904
-0.441904
-0.419547
-0.395749
-0.37142
-0.347235
-0.323588
-0.300641
-0.278423
-0.256908
-0.236043
-0.21572
-0.196519
-0.557534
-0.546827
-0.537341
-0.52742
-0.516016
-0.502444
-0.48593
-0.466082
-0.443213
-0.418224
-0.392226
-0.366168
-0.340678
-0.316074
-0.292457
-0.269815
-0.248095
-0.227211
-0.207101
-0.188143
-0.572418
-0.560822
-0.550636
-0.539819
-0.527008
-0.511376
-0.492201
-0.469372
-0.443586
-0.41605
-0.388002
-0.360376
-0.333721
-0.308272
-0.284072
-0.261071
-0.23919
-0.218317
-0.198426
-0.179701
-0.587314
-0.57488
-0.563982
-0.552144
-0.537679
-0.519671
-0.497561
-0.47161
-0.442925
-0.412967
-0.383032
-0.353993
-0.326303
-0.300114
-0.275413
-0.252119
-0.230123
-0.209298
-0.189637
-0.171145
-0.601952
-0.588748
-0.577118
-0.564111
-0.547729
-0.527046
-0.501779
-0.472643
-0.441138
-0.408912
-0.377259
-0.346959
-0.318358
-0.291531
-0.266413
-0.242891
-0.220832
-0.200096
-0.18068
-0.162429
-0.616031
-0.602136
-0.589742
-0.5754
-0.556835
-0.533211
-0.504638
-0.472327
-0.438131
-0.403817
-0.370622
-0.339211
-0.309822
-0.282458
-0.257008
-0.233328
-0.211261
-0.19066
-0.171511
-0.153517
-0.629216
-0.614718
-0.601521
-0.585666
-0.564663
-0.537885
-0.505934
-0.470528
-0.433817
-0.397611
-0.363055
-0.330682
-0.300631
-0.272833
-0.247138
-0.223376
-0.201362
-0.180946
-0.16209
-0.144376
-0.64115
-0.626146
-0.612096
-0.594545
-0.570879
-0.5408
-0.505478
-0.467124
-0.428107
-0.390224
-0.354491
-0.32131
-0.290722
-0.2626
-0.236753
-0.212985
-0.191092
-0.170915
-0.152383
-0.134983
-0.651464
-0.636053
-0.621095
-0.601674
-0.575161
-0.541708
-0.503103
-0.462001
-0.42092
-0.381585
-0.344864
-0.311032
-0.28004
-0.251706
-0.225806
-0.202116
-0.180412
-0.160532
-0.142363
-0.125325
-0.659778
-0.644062
-0.628139
-0.606693
-0.577206
-0.540388
-0.498659
-0.45506
-0.412179
-0.371625
-0.334114
-0.299792
-0.268534
-0.240106
-0.214256
-0.190734
-0.169293
-0.14977
-0.132009
-0.115386
-0.66572
-0.6498
-0.632858
-0.609262
-0.576741
-0.536646
-0.49202
-0.446213
-0.401814
-0.360285
-0.322184
-0.287541
-0.256159
-0.227764
-0.202071
-0.178808
-0.15771
-0.13861
-0.121304
-0.105129
-0.668932
-0.652906
-0.634901
-0.60907
-0.573524
-0.53032
-0.483082
-0.435387
-0.389765
-0.347512
-0.309027
-0.274237
-0.242881
-0.214646
-0.189222
-0.166314
-0.145644
-0.127044
-0.110249
-0.0944994
-0.669079
-0.653041
-0.633944
-0.605842
-0.567355
-0.521281
-0.471762
-0.422524
-0.375986
-0.333264
-0.294607
-0.259846
-0.228669
-0.200729
-0.17569
-0.153233
-0.133075
-0.115068
-0.0988418
-0.0834895
-0.665858
-0.649901
-0.629701
-0.599345
-0.558074
-0.50943
-0.458002
-0.407581
-0.360441
-0.317509
-0.278895
-0.244344
-0.213503
-0.185996
-0.161462
-0.139562
-0.120001
-0.102679
-0.0870088
-0.0722559
-0.659008
-0.64322
-0.621931
-0.589396
-0.545566
-0.494706
-0.441766
-0.390535
-0.343108
-0.300228
-0.261873
-0.227717
-0.197374
-0.170446
-0.146541
-0.125315
-0.10646
-0.0898355
-0.0747823
-0.0607404
-0.648314
-0.632779
-0.610447
-0.575861
-0.529758
-0.477078
-0.423045
-0.371381
-0.32398
-0.281408
-0.243528
-0.209973
-0.180291
-0.154102
-0.130942
-0.110479
-0.0924238
-0.0765671
-0.0621953
-0.0489236
-0.633613
-0.618415
-0.595111
-0.558658
-0.51062
-0.456548
-0.401852
-0.350131
-0.303068
-0.261059
-0.223873
-0.191144
-0.16229
-0.136944
-0.114662
-0.0950734
-0.0779022
-0.0628901
-0.0492646
-0.0368144
-0.6148
-0.600017
-0.575847
-0.537759
-0.488166
-0.433153
-0.378226
-0.326819
-0.2804
-0.239223
-0.202989
-0.171209
-0.143361
-0.119009
-0.0977225
-0.0791164
-0.0629162
-0.0488233
-0.0360055
-0.0244334
-0.591826
-0.577538
-0.552635
-0.513184
-0.462451
-0.406961
-0.352231
-0.301499
-0.256039
-0.215955
-0.180858
-0.150226
-0.123538
-0.100327
-0.0801547
-0.0626351
-0.0474924
-0.0343892
-0.0224392
-0.0118054
-0.564702
-0.550984
-0.525508
-0.485006
-0.433572
-0.378069
-0.323951
-0.274253
-0.230044
-0.191291
-0.15754
-0.128243
-0.10287
-0.0809353
-0.0619955
-0.0456632
-0.0316624
-0.0196161
-0.0085942
0.00103995
-0.533497
-0.52042
-0.49456
-0.453352
-0.401672
-0.346591
-0.293485
-0.245171
-0.202492
-0.165305
-0.133104
-0.105319
-0.0814105
-0.0608837
-0.0432889
-0.028241
-0.015463
-0.00453888
0.0054929
0.0140666
-0.498335
-0.485968
-0.45994
-0.418407
-0.366901
-0.312635
-0.260978
-0.214366
-0.173484
-0.138087
-0.10763
-0.0815249
-0.059224
-0.0402286
-0.0240859
-0.0104146
0.00106428
0.0108027
0.0197789
0.027231
-0.459382
-0.447809
-0.421861
-0.380362
-0.329341
-0.276443
-0.226581
-0.181974
-0.143136
-0.109741
-0.0812089
-0.0569405
-0.0363829
-0.0190346
-0.00444411
0.00776405
0.0178733
0.0263671
0.0342213
0.0404884
-0.416843
-0.40619
-0.380572
-0.339292
-0.289314
-0.238204
-0.190469
-0.148145
-0.111583
-0.0803847
-0.053945
-0.0316579
-0.0129679
0.00262638
0.0155717
0.0262366
0.0349138
0.0421144
0.0487857
0.0538041
-0.370965
-0.361414
-0.336238
-0.295451
-0.247144
-0.198137
-0.152838
-0.113047
-0.0789702
-0.0501462
-0.0259519
-0.00577764
0.0109321
0.0246756
0.0358906
0.0449389
0.0521324
0.0580047
0.0634338
0.0671397
-0.322003
-0.313838
-0.288898
-0.249486
-0.203055
-0.15648
-0.113896
-0.0768637
-0.0454573
-0.0191663
0.00264631
0.0205912
0.0352212
0.047028
0.0564365
0.0638058
0.0694798
0.0739932
0.0780748
0.0803392
-0.270267
-0.263569
-0.239483
-0.201548
-0.157326
-0.113488
-0.0738633
-0.0397872
-0.0112151
0.0124046
0.0317171
0.0473318
0.0597966
0.0695929
0.077131
0.0827773
0.0869185
0.0900253
0.0925148
0.0929745
-0.216549
-0.210978
-0.188116
-0.151954
-0.110256
-0.0694251
-0.0329741
-0.00202285
0.023576
0.044407
0.0611201
0.0743207
0.0845493
0.0922742
0.0978939
0.101798
0.104411
0.106019
0.106517
0.104684
-0.161004
-0.156571
-0.135146
-0.101054
-0.0621623
-0.0245704
0.00852807
0.0362148
0.0587269
0.0766744
0.0907083
0.101428
0.109365
0.114972
0.118643
0.120801
0.121875
0.121829
0.120039
0.116448
-0.103997
-0.100812
-0.080981
-0.0492149
-0.0133722
0.0207884
0.0503909
0.0747038
0.0940417
0.109034
0.120329
0.12852
0.134124
0.137583
0.13929
0.139697
0.139168
0.137289
0.133254
0.130987
-0.0459876
-0.0441314
-0.0260385
0.00318449
0.0357779
0.0663566
0.0923557
0.113216
0.129319
0.141308
0.149827
0.155458
0.158707
0.160003
0.159745
0.158382
0.156163
0.152471
0.147008
0.145302
0.0125618
0.0130351
0.0292579
0.0557592
0.0849478
0.111835
0.13416
0.151521
0.164355
0.173316
0.179041
0.182101
0.18299
0.182126
0.179909
0.176765
0.172836
0.167495
0.160961
0.158868
0.0711871
0.0702424
0.0844837
0.108123
0.133796
0.156924
0.175539
0.189384
0.198943
0.204875
0.207811
0.208309
0.206849
0.203841
0.199679
0.194754
0.189141
0.182298
0.174783
0.171838
0.129425
0.127043
0.139216
0.159894
0.181982
0.201324
0.216229
0.226572
0.232877
0.235805
0.235977
0.233939
0.230159
0.225038
0.218956
0.212271
0.205025
0.196774
0.188252
0.184232
0.186814
0.182992
0.193037
0.210692
0.229172
0.24474
0.25597
0.262855
0.265953
0.265923
0.263378
0.258851
0.252797
0.245605
0.237643
0.229237
0.220415
0.210822
0.201269
0.196067
0.242904
0.237651
0.245538
0.260148
0.275038
0.286881
0.294505
0.298005
0.297969
0.295053
0.289859
0.282907
0.27464
0.265435
0.255645
0.245571
0.235234
0.224353
0.21376
0.207326
0.297252
0.290594
0.29632
0.307904
0.319261
0.327468
0.331585
0.331803
0.328731
0.323022
0.315266
0.305972
0.295569
0.284423
0.272871
0.261192
0.249406
0.237291
0.22567
0.217986
0.349433
0.34141
0.345001
0.353614
0.361535
0.366228
0.36697
0.364035
0.358049
0.349662
0.339452
0.327915
0.315469
0.302468
0.289232
0.276021
0.262858
0.249569
0.236948
0.228019
0.399039
0.389703
0.391215
0.396951
0.401569
0.402904
0.400431
0.394497
0.385743
0.374813
0.362274
0.348611
0.33423
0.319472
0.304642
0.289983
0.275522
0.261128
0.247544
0.237394
0.445685
0.435103
0.434617
0.437604
0.439087
0.437251
0.43175
0.422996
0.411642
0.398324
0.3836
0.367943
0.351747
0.335343
0.319021
0.303007
0.287334
0.27191
0.257414
0.246082
0.489011
0.477261
0.474886
0.475283
0.473833
0.469041
0.460725
0.449353
0.435585
0.420053
0.403304
0.385799
0.367923
0.349996
0.332293
0.315026
0.298235
0.281863
0.266515
0.254056
0.528683
0.515858
0.511725
0.509723
0.505569
0.498063
0.487168
0.4734
0.457426
0.439869
0.421269
0.402078
0.382668
0.363351
0.344388
0.325978
0.308171
0.290939
0.274805
0.26129
0.564399
0.5506
0.544864
0.540682
0.534081
0.524128
0.51091
0.494986
0.477028
0.457653
0.437391
0.416685
0.3959
0.375335
0.355242
0.335808
0.317092
0.299093
0.282248
0.267761
0.595889
0.58123
0.574065
0.567944
0.559177
0.547062
0.531798
0.513977
0.494273
0.473298
0.451575
0.429537
0.407543
0.385884
0.364799
0.344466
0.324954
0.306284
0.28881
0.27345
0.622917
0.607519
0.599117
0.591322
0.580691
0.56672
0.549701
0.530253
0.509055
0.486711
0.463737
0.440562
0.417535
0.394941
0.373008
0.351907
0.331718
0.312478
0.294463
0.278341
0.645283
0.629275
0.619844
0.610657
0.598479
0.582973
0.564505
0.543715
0.521284
0.497813
0.47381
0.449698
0.425821
0.402457
0.379827
0.358095
0.33735
0.317644
0.299182
0.282419
0.662825
0.646344
0.636102
0.625819
0.612428
0.59572
0.576119
0.554282
0.530889
0.506539
0.481734
0.456893
0.432355
0.408393
0.385221
0.362999
0.341823
0.321757
0.302945
0.285672
0.67542
0.658606
0.647782
0.636712
0.622451
0.604883
0.584473
0.561891
0.537815
0.51284
0.487467
0.46211
0.437104
0.412719
0.389164
0.366596
0.345116
0.324796
0.305737
0.288098
0.682984
0.665981
0.65481
0.643269
0.628488
0.610409
0.589522
0.5665
0.542023
0.516683
0.490979
0.465322
0.440045
0.415414
0.391638
0.368869
0.347213
0.32675
0.307555
0.289711
0.685472
0.668428
0.657148
0.645454
0.630509
0.612271
0.591239
0.568087
0.543494
0.518051
0.492254
0.466514
0.441163
0.416467
0.392632
0.36981
0.348109
0.327613
0.308399
0.290511
0.682883
0.665942
0.654793
0.643266
0.62851
0.610466
0.589622
0.56665
0.542225
0.51694
0.49129
0.465685
0.440459
0.415876
0.392144
0.369416
0.347798
0.327377
0.308243
0.29045
0.675252
0.65856
0.647777
0.636734
0.622519
0.605018
0.584692
0.562206
0.538233
0.513365
0.488099
0.462846
0.43794
0.413649
0.390182
0.367693
0.346287
0.326043
0.30707
0.289516
0.662658
0.646356
0.636169
0.62592
0.612589
0.595974
0.576493
0.554795
0.531552
0.507356
0.482707
0.458019
0.433627
0.409803
0.38676
0.364655
0.343587
0.323627
0.304917
0.28772
0.645216
0.629442
0.620073
0.610916
0.598805
0.58341
0.565089
0.544474
0.522233
0.498959
0.475155
0.451239
0.427552
0.404366
0.381903
0.360322
0.339718
0.32015
0.301811
0.285126
0.623084
0.607968
0.599627
0.591846
0.581275
0.567421
0.550568
0.531321
0.510344
0.488233
0.465496
0.442555
0.419754
0.397374
0.375641
0.354723
0.334704
0.315629
0.297761
0.281724
0.596452
0.58212
0.575002
0.568865
0.560136
0.548131
0.533038
0.515431
0.49597
0.475255
0.453797
0.432024
0.410287
0.388872
0.368015
0.347891
0.328574
0.310094
0.292786
0.277516
0.565552
0.552118
0.546402
0.542154
0.535551
0.525683
0.512627
0.49692
0.479214
0.460113
0.440136
0.419716
0.399211
0.378914
0.359072
0.339867
0.321367
0.303579
0.286915
0.272517
0.530646
0.518216
0.51406
0.511924
0.507708
0.500245
0.489484
0.475918
0.460192
0.442912
0.424605
0.405711
0.386596
0.367562
0.348866
0.330701
0.313125
0.29612
0.280179
0.266747
0.492029
0.480698
0.478241
0.478412
0.476816
0.472002
0.463774
0.452573
0.439034
0.423767
0.407306
0.3901
0.372523
0.354886
0.337458
0.320444
0.303894
0.287762
0.272613
0.260226
0.450029
0.43988
0.439234
0.44188
0.443107
0.441161
0.435681
0.427048
0.415885
0.402806
0.388352
0.372981
0.357078
0.340962
0.324915
0.309156
0.293728
0.278551
0.264258
0.252977
0.404999
0.396102
0.397357
0.40261
0.406835
0.407945
0.405403
0.399519
0.390901
0.380167
0.367865
0.354464
0.340357
0.325875
0.311312
0.296901
0.282683
0.268538
0.255153
0.245028
0.357315
0.349729
0.352947
0.360907
0.368268
0.372595
0.373153
0.370175
0.36425
0.355998
0.345976
0.334663
0.322461
0.309713
0.296726
0.28375
0.270821
0.257777
0.245344
0.236407
0.30738
0.301147
0.306363
0.317095
0.327695
0.335365
0.339158
0.339217
0.336109
0.330456
0.322824
0.3137
0.303499
0.292572
0.281241
0.269775
0.258208
0.246327
0.234879
0.227143
0.255609
0.250761
0.257981
0.271512
0.285416
0.296521
0.303652
0.306854
0.306664
0.303706
0.298553
0.291704
0.283582
0.274551
0.264943
0.255053
0.244915
0.234253
0.223807
0.217267
0.202436
0.198988
0.208192
0.224511
0.241743
0.256339
0.26688
0.273301
0.276107
0.275918
0.273314
0.268806
0.262829
0.255752
0.247924
0.239664
0.231016
0.221627
0.212181
0.206804
0.148303
0.146259
0.157397
0.176455
0.196998
0.215104
0.229095
0.238784
0.244635
0.247265
0.247261
0.245144
0.241358
0.236283
0.230276
0.223687
0.216588
0.208533
0.20007
0.195773
0.0936609
0.0930081
0.106006
0.127713
0.151511
0.173106
0.190552
0.203527
0.212449
0.217926
0.220551
0.220854
0.219292
0.216251
0.212095
0.207202
0.201701
0.195067
0.187561
0.184155
0.0389621
0.0396738
0.0544315
0.0786622
0.105615
0.130638
0.15151
0.167761
0.179752
0.188079
0.193342
0.196078
0.196754
0.195766
0.193477
0.190287
0.186414
0.181333
0.174851
0.171926
-0.0153418
-0.0133096
0.00308727
0.0296786
0.0596437
0.0879958
0.11223
0.131714
0.146745
0.157904
0.165792
0.170953
0.173867
0.174937
0.174525
0.173031
0.170774
0.167394
0.162237
0.158916
-0.068802
-0.065517
-0.0476159
-0.0188627
0.0139298
0.0454709
0.0729676
0.095614
0.113631
0.127579
0.138058
0.14562
0.150752
0.153871
0.155335
0.155524
0.154811
0.153162
0.150052
0.145559
-0.120973
-0.116533
-0.0972737
-0.0665932
-0.031199
0.00335152
0.0339767
0.0596835
0.080606
0.0972777
0.110295
0.120214
0.12753
0.13267
0.135999
0.137867
0.138648
0.138586
0.137588
0.13465
-0.171477
-0.165923
-0.145497
-0.113156
-0.075423
-0.0380815
-0.00449648
0.02414
0.0478624
0.06717
0.0826527
0.0948683
0.104317
0.111438
0.116604
0.120147
0.122412
0.123802
0.124668
0.123784
-0.220183
-0.213176
-0.191942
-0.158211
-0.118435
-0.0785575
-0.0422142
-0.0108073
0.0155851
0.0374197
0.0552756
0.0697105
0.081228
0.0902742
0.0972342
0.102434
0.106182
0.108939
0.111316
0.112095
-0.266353
-0.258023
-0.236423
-0.201448
-0.159944
-0.117819
-0.0789499
-0.0449585
-0.0160494
0.00818289
0.0283021
0.0448631
0.0583705
0.0692747
0.0779707
0.084786
0.0900015
0.0940785
0.0977527
0.0998921
-0.309679
-0.300271
-0.278179
-0.242715
-0.199683
-0.155621
-0.114489
-0.0781255
-0.0468748
-0.0203931
0.0018626
0.0204415
0.035847
0.0485305
0.0588932
0.0672669
0.0739164
0.0792839
0.084163
0.0875545
-0.349923
-0.339599
-0.317144
-0.281411
-0.237444
-0.191736
-0.148632
-0.110133
-0.0767362
-0.0481711
-0.0239213
-0.00344629
0.0137535
0.0281274
0.0400789
0.0499446
0.0579809
0.0646055
0.0706358
0.0752252
-0.386861
-0.375729
-0.353142
-0.317343
-0.272892
-0.225959
-0.181192
-0.140818
-0.105491
-0.0750249
-0.0489379
-0.0267009
-0.00782112
0.00814524
0.0216006
0.0328854
0.0422511
0.0500878
0.0572138
0.0629463
-0.420309
-0.408441
-0.385941
-0.350406
-0.305785
-0.258092
-0.212003
-0.170037
-0.133012
-0.10084
-0.073087
-0.0492319
-0.0287953
-0.0113427
0.0035249
0.0161499
0.0267807
0.0357755
0.0439371
0.0507562
-0.450112
-0.437579
-0.415357
-0.380421
-0.336019
-0.287941
-0.240918
-0.197662
-0.159184
-0.125514
-0.0962824
-0.070959
-0.0490956
-0.0302703
-0.014088
-0.000206762
0.0116195
0.0217142
0.0308519
0.0387023
-0.476167
-0.463043
-0.441265
-0.40723
-0.363454
-0.315397
-0.267814
-0.223591
-0.183914
-0.148952
-0.118453
-0.0918098
-0.0686572
-0.0485785
-0.031184
-0.0161348
-0.00318672
0.00794796
0.0180051
0.0268304
-0.498423
-0.48479
-0.463595
-0.430729
-0.387968
-0.340353
-0.292593
-0.247735
-0.207143
-0.171068
-0.139546
-0.111719
-0.0874247
-0.0662165
-0.0477157
-0.0315898
-0.0175963
-0.00548332
0.00543723
0.0151804
-0.516887
-0.502828
-0.482333
-0.450869
-0.409484
-0.362727
-0.315182
-0.270022
-0.228812
-0.191964
-0.159384
-0.130629
-0.105352
-0.0831408
-0.0636421
-0.0465333
-0.0315726
-0.0185446
-0.00681801
0.00378669
-0.531621
-0.517222
-0.497518
-0.467649
-0.427966
-0.382464
-0.335525
-0.290403
-0.248844
-0.211424
-0.178089
-0.148539
-0.122401
-0.0993169
-0.0789289
-0.060933
-0.0450847
-0.0312041
-0.0187341
-0.00732024
-0.542743
-0.528094
-0.509244
-0.481117
-0.443419
-0.399544
-0.353596
-0.30885
-0.267221
-0.229451
-0.195597
-0.165415
-0.138569
-0.11472
-0.0935471
-0.0747631
-0.0581077
-0.0434317
-0.0302876
-0.0181152
-0.550422
-0.535615
-0.517657
-0.491372
-0.45589
-0.413979
-0.369388
-0.325359
-0.283945
-0.246058
-0.211878
-0.18123
-0.153822
-0.129341
-0.107494
-0.0880041
-0.0706238
-0.0552083
-0.0414453
-0.0285875
-0.554872
-0.540003
-0.522955
-0.49856
-0.465468
-0.425814
-0.382925
-0.339942
-0.299027
-0.261255
-0.226937
-0.195984
-0.168152
-0.143163
-0.120745
-0.100643
-0.082627
-0.0665496
-0.0521395
-0.0387562
-0.556352
-0.541519
-0.525377
-0.502876
-0.472285
-0.435126
-0.394251
-0.352629
-0.312491
-0.275062
-0.240793
-0.209689
-0.181566
-0.156182
-0.133293
-0.112665
-0.0940869
-0.0774121
-0.0624177
-0.0485894
-0.55515
-0.540456
-0.525201
-0.504553
-0.47651
-0.442025
-0.403436
-0.363471
-0.324374
-0.287511
-0.253472
-0.222368
-0.19408
-0.168408
-0.14514
-0.124067
-0.104993
-0.0877841
-0.0722732
-0.0579682
-0.551583
-0.537131
-0.522736
-0.503863
-0.478352
-0.446654
-0.410573
-0.372531
-0.334731
-0.298648
-0.265013
-0.234049
-0.205714
-0.179856
-0.156296
-0.134853
-0.11535
-0.0976636
-0.0816791
-0.0669101
-0.545985
-0.531877
-0.51831
-0.501104
-0.478052
-0.449185
-0.415778
-0.379893
-0.343626
-0.308527
-0.275462
-0.244772
-0.2165
-0.190549
-0.166776
-0.145031
-0.12516
-0.10705
-0.0906284
-0.0754473
-0.538696
-0.525033
-0.512261
-0.496596
-0.47588
-0.449818
-0.41919
-0.385653
-0.351135
-0.317214
-0.284875
-0.254584
-0.226475
-0.200513
-0.176599
-0.154614
-0.13443
-0.115944
-0.0991227
-0.0835838
-0.530055
-0.516934
-0.504925
-0.490665
-0.472124
-0.448777
-0.420967
-0.389923
-0.357342
-0.324778
-0.293315
-0.263538
-0.235681
-0.209782
-0.185788
-0.163617
-0.143168
-0.12435
-0.107161
-0.0913068
-0.520391
-0.5079
-0.496629
-0.483637
-0.467083
-0.446308
-0.421286
-0.392827
-0.362339
-0.331298
-0.300848
-0.271692
-0.244169
-0.218396
-0.194373
-0.172058
-0.151384
-0.132273
-0.114742
-0.0986041
-0.510014
-0.498231
-0.487679
-0.475826
-0.461058
-0.442665
-0.420342
-0.394501
-0.366226
-0.336852
-0.307545
-0.279108
-0.25199
-0.226395
-0.202385
-0.17996
-0.159091
-0.139717
-0.121866
-0.105468
-0.499209
-0.488199
-0.478354
-0.467522
-0.45434
-0.438114
-0.418344
-0.395095
-0.369109
-0.341523
-0.313476
-0.28585
-0.2592
-0.233825
-0.209858
-0.187347
-0.166302
-0.146689
-0.128535
-0.111894
-0.488232
-0.478045
-0.468897
-0.458989
-0.447203
-0.432912
-0.415505
-0.394767
-0.371099
-0.345395
-0.318713
-0.291981
-0.265855
-0.240733
-0.216827
-0.194243
-0.173034
-0.153197
-0.134749
-0.117878
-0.477304
-0.467972
-0.459516
-0.450451
-0.439892
-0.427306
-0.412045
-0.393684
-0.372313
-0.348551
-0.323324
-0.297562
-0.272009
-0.247164
-0.22333
-0.200674
-0.179299
-0.159245
-0.140509
-0.123411
-0.46661
-0.458148
-0.45038
-0.442096
-0.432617
-0.421522
-0.408175
-0.392017
-0.372872
-0.351076
-0.327372
-0.302649
-0.277713
-0.253165
-0.229401
-0.206665
-0.185113
-0.164838
-0.145813
-0.128487
-0.456299
-0.448704
-0.44162
-0.43407
-0.425553
-0.415756
-0.404094
-0.389937
-0.372902
-0.353054
-0.330917
-0.307293
-0.283014
-0.258774
-0.235072
-0.212238
-0.190487
-0.169977
-0.150656
-0.133092
-0.446483
-0.439736
-0.433328
-0.426478
-0.418832
-0.410171
-0.39998
-0.387609
-0.37253
-0.354569
-0.334015
-0.311535
-0.287949
-0.264027
-0.240372
-0.217412
-0.195429
-0.174659
-0.155029
-0.137212
-0.437236
-0.431304
-0.425563
-0.419391
-0.412547
-0.404889
-0.395978
-0.38518
-0.371878
-0.355703
-0.336714
-0.315406
-0.292545
-0.268949
-0.245322
-0.2222
-0.199942
-0.178878
-0.158916
-0.140824
-0.428599
-0.42344
-0.418352
-0.412843
-0.406753
-0.399997
-0.392203
-0.382777
-0.371059
-0.356537
-0.339059
-0.318929
-0.296816
-0.273553
-0.249934
-0.226609
-0.204024
-0.182619
-0.162296
-0.1439
-0.420578
-0.416144
-0.411693
-0.406837
-0.401469
-0.395539
-0.38873
-0.380496
-0.370169
-0.357143
-0.341089
-0.322117
-0.300764
-0.27784
-0.254207
-0.230634
-0.207663
-0.185859
-0.165138
-0.146403
-0.413147
-0.40939
-0.40556
-0.401348
-0.396681
-0.391521
-0.385593
-0.378397
-0.369279
-0.35758
-0.342836
-0.324974
-0.304377
-0.281795
-0.258128
-0.234261
-0.210839
-0.188565
-0.167397
-0.148284
-0.406256
-0.403132
-0.399905
-0.396327
-0.392343
-0.387913
-0.382786
-0.3765
-0.368428
-0.357889
-0.344323
-0.327498
-0.307635
-0.285392
-0.261671
-0.237461
-0.213517
-0.190694
-0.16902
-0.149474
-0.399833
-0.397308
-0.394664
-0.391708
-0.38839
-0.384657
-0.380267
-0.374787
-0.367621
-0.358085
-0.345558
-0.329678
-0.31051
-0.288592
-0.264797
-0.240197
-0.215657
-0.192192
-0.169927
-0.149903
-0.393797
-0.391845
-0.389765
-0.387412
-0.384737
-0.381667
-0.37796
-0.373203
-0.366826
-0.358155
-0.346534
-0.3315
-0.312972
-0.291355
-0.267464
-0.242425
-0.21721
-0.192998
-0.170041
-0.149446
-0.388067
-0.386673
-0.385136
-0.383359
-0.381295
-0.378849
-0.375774
-0.371668
-0.365983
-0.358061
-0.347225
-0.332939
-0.31499
-0.293646
-0.269636
-0.244107
-0.218137
-0.193053
-0.169277
-0.148035
-0.38257
-0.38173
-0.380712
-0.379476
-0.377981
-0.37611
-0.373611
-0.370089
-0.365014
-0.357745
-0.347594
-0.333967
-0.31654
-0.29544
-0.271291
-0.245224
-0.218415
-0.192344
-0.167581
-0.145511
-0.377255
-0.37697
-0.376445
-0.375707
-0.374726
-0.373371
-0.371384
-0.368379
-0.363841
-0.357144
-0.347594
-0.334555
-0.317604
-0.29673
-0.272437
-0.245793
-0.218081
-0.190833
-0.165282
-0.1419
-0.372098
-0.37237
-0.372309
-0.372018
-0.37149
-0.370581
-0.369035
-0.366476
-0.362405
-0.35621
-0.347193
-0.334686
-0.318182
-0.297534
-0.273113
-0.245874
-0.217245
-0.188593
-0.162341
-0.137426
-0.367107
-0.367935
-0.368305
-0.368406
-0.368262
-0.367726
-0.366546
-0.36436
-0.360684
-0.354932
-0.346389
-0.334371
-0.3183
-0.297901
-0.273405
-0.245588
-0.216084
-0.185752
-0.158821
-0.132077
-0.362322
-0.363698
-0.364462
-0.364898
-0.36507
-0.364833
-0.363944
-0.362057
-0.358704
-0.353353
-0.345228
-0.333667
-0.31803
-0.297925
-0.27344
-0.245118
-0.214854
-0.182539
-0.155085
-0.125713
-0.357812
-0.359717
-0.360834
-0.36155
-0.361973
-0.361965
-0.361302
-0.359649
-0.356533
-0.351589
-0.343817
-0.332692
-0.317506
-0.29776
-0.273403
-0.24472
-0.213876
-0.179353
-0.151695
-0.118685
-0.353668
-0.356071
-0.357499
-0.35844
-0.359055
-0.35922
-0.358728
-0.35727
-0.354419
-0.349683
-0.342312
-0.331633
-0.31693
-0.297634
-0.273548
-0.244733
-0.213503
-0.176824
-0.149216
-0.111591
-0.349999
-0.352856
-0.354548
-0.355666
-0.356423
-0.356713
-0.356352
-0.355055
-0.35242
-0.347937
-0.340942
-0.330733
-0.316576
-0.297845
-0.274205
-0.245565
-0.214138
-0.175783
-0.148116
-0.105099
-0.346917
-0.35017
-0.352079
-0.35333
-0.354188
-0.35457
-0.354316
-0.353165
-0.350738
-0.346541
-0.33995
-0.330268
-0.316754
-0.298742
-0.275771
-0.247659
-0.216292
-0.177087
-0.14899
-0.101801
-0.344529
-0.348112
-0.350191
-0.351535
-0.352462
-0.352913
-0.352755
-0.351754
-0.349556
-0.345691
-0.339569
-0.330509
-0.317777
-0.300677
-0.27866
-0.251461
-0.220621
-0.181345
-0.152479
-0.102657
-0.342936
-0.346771
-0.34897
-0.350372
-0.351343
-0.35185
-0.351791
-0.350959
-0.349029
-0.34556
-0.339998
-0.33169
-0.31992
-0.303972
-0.283224
-0.257424
-0.227727
-0.188911
-0.159454
-0.108703
-0.342213
-0.346215
-0.348486
-0.349915
-0.35091
-0.351469
-0.351519
-0.350885
-0.349274
-0.34628
-0.34139
-0.333987
-0.323383
-0.308862
-0.289762
-0.265737
-0.23706
-0.201226
-0.170507
-0.11983
-0.342411
-0.346492
-0.348786
-0.350214
-0.351218