/*--------------------------------*- C++ -*----------------------------------*\
  =========                 |
  \\      /  F ield         | OpenFOAM: The Open Source CFD Toolbox
   \\    /   O peration     | Website:  https://openfoam.org
    \\  /    A nd           | Version:  7
     \\/     M anipulation  |
\*---------------------------------------------------------------------------*/
FoamFile
{
    version     2.0;
    format      ascii;
    class       surfaceScalarField;
    location    "14";
    object      phi;
}
// * * * * * * * * * * * * * * * * * * * * * * * * * * * * * * * * * * * * * //

dimensions      [0 3 -1 0 0 0 0];

internalField   nonuniform List<scalar> 
819
(
0.0007659
-0.000425972
-0.000470024
0.00085964
0.000693127
-0.000412545
0.000776248
-0.000464346
0.000869817
-0.000519541
-0.000575358
0.000975151
0.000784877
0.000875591
0.000977759
-0.000621709
-0.000692003
0.0010944
0.00109276
-0.000820203
0.00122096
0.00136204
0.000769081
-3.43853e-05
0.000795103
-0.000162475
0.000821742
-0.000246759
0.000846928
-0.000328257
-0.00040417
0.000885928
-6.06736e-05
0.000913021
-0.000189568
0.000938389
-0.000272128
0.000960777
-0.000350645
0.00098058
-0.000423973
0.000998911
-0.000493231
0.00101691
-0.000559361
0.00103553
-0.000621982
0.00105548
-0.00068068
0.00107728
-0.000735103
0.00110125
-0.000784988
0.00112762
-0.000830188
0.00115645
-0.000870669
0.00118777
-0.000906485
0.00122151
-0.000937762
0.00125757
-0.00096468
0.00129583
-0.000987455
-0.00100633
0.00100676
-9.22823e-05
0.00103418
-0.000216983
0.00105664
-0.000294588
0.00107468
-0.000368684
0.00108958
-0.000438874
0.00110285
-0.000506502
0.0011158
-0.000572311
0.00112945
-0.000635638
0.00114456
-0.000695791
0.00116166
-0.0007522
0.0011811
-0.000804425
0.00120309
-0.000852178
0.00122773
-0.000895309
0.00125503
-0.000933788
0.00128495
-0.000967678
0.00131738
-0.000997112
0.0013522
-0.00102228
-0.00104339
0.00113126
-0.000129143
0.00115771
-0.000243431
0.00117516
-0.000312033
0.00118703
-0.000380554
0.00119579
-0.000447641
0.00120321
-0.000513919
0.0012106
-0.0005797
0.00121898
-0.000644016
0.00122907
-0.000705885
0.00124139
-0.000764521
0.00125628
-0.000819316
0.00127395
-0.000869843
0.00129448
-0.000915843
0.0013179
-0.000957201
0.00134413
-0.000993917
0.0013731
-0.00102608
0.00140466
-0.00105384
-0.00107741
0.00126092
-0.000169103
0.00128339
-0.000265903
0.00129275
-0.000321384
0.00129629
-0.000384098
0.00129768
-0.000449035
0.00129854
-0.00051477
0.00129995
-0.000581118
0.00130283
-0.000646894
0.00130781
-0.000710866
0.00131535
-0.000772059
0.00132575
-0.000829717
0.00133919
-0.000883289
0.00135576
-0.000932412
0.00137546
-0.000976892
0.00139821
-0.00101667
0.00142391
-0.00105178
0.00145243
-0.00108237
-0.0011086
0.00140126
-0.000208331
0.00141144
-0.000276079
0.0014079
-0.000317846
0.00140093
-0.000377128
0.00139387
-0.000441972
0.00138764
-0.000508537
0.00138285
-0.000576334
0.00138016
-0.0006442
0.00138005
-0.000710761
0.0013829
-0.000774906
0.00138895
-0.000835764
0.00139834
-0.00089268
0.00141113
-0.000945201
0.0014273
-0.00099306
0.00144677
-0.00103614
0.00146943
-0.00107444
0.00149513
-0.00110807
-0.00113719
0.00374613
-0.000118148
0.00368796
-0.000217905
0.00365294
-0.00028283
0.00362469
-0.000348882
0.00360067
-0.000417948
0.00357983
-0.0004877
0.00356159
-0.000558093
0.0035459
-0.000628509
0.00353296
-0.000697815
0.00352302
-0.000764974
0.00351639
-0.000829133
0.00351332
-0.000889606
0.00351401
-0.000945888
0.00351859
-0.000997642
0.00352713
-0.00104468
0.00353963
-0.00108695
0.00355605
-0.00112449
0.00357628
-0.00115742
-0.00118594
0.00456602
-1.13235e-05
0.00446491
-0.0001168
0.00438619
-0.000204108
0.00432119
-0.000283887
0.00426593
-0.000362688
0.00421837
-0.000440137
0.00417685
-0.000516574
0.00414043
-0.000592089
0.00410868
-0.000666061
0.00408142
-0.000737717
0.00405863
-0.000806345
0.00404035
-0.000871325
0.00402663
-0.000932162
0.00401748
-0.000988501
0.00401292
-0.00104012
0.00401289
-0.00108691
0.00401729
-0.00112889
0.004026
-0.00116613
-0.00119881
0.00538984
0.000107385
0.00526984
3.19386e-06
0.00516341
-9.76719e-05
0.00506956
-0.000190037
0.0049866
-0.000279737
0.00491334
-0.000366876
0.0048483
-0.000451529
0.0047903
-0.000534087
0.0047386
-0.000614364
0.00469275
-0.000691871
0.0046525
-0.000766086
0.00461768
-0.000836508
0.00458821
-0.000902699
0.00456404
-0.000964322
0.00454506
-0.00102115
0.0045312
-0.00107305
0.00452233
-0.00112001
0.00451828
-0.00116209
-0.00119942
0.006215
0.000233466
0.00608508
0.000133113
0.00596238
2.50326e-05
0.00584898
-7.66457e-05
0.00574485
-0.000175606
0.00565
-0.000272019
0.00556381
-0.000365344
0.00548549
-0.000455767
0.00541438
-0.000543255
0.00535001
-0.000627499
0.00529204
-0.000708113
0.00524023
-0.000784705
0.00519444
-0.000856906
0.00515453
-0.000924411
0.00512038
-0.000986999
0.00509186
-0.00104454
0.00506884
-0.00109699
0.00505114
-0.00114438
-0.00118685
0.00702644
0.000363602
0.00689343
0.00026612
0.00676343
0.000155029
0.00663925
4.75333e-05
0.00652156
-5.79079e-05
0.00641114
-0.000161604
0.00630832
-0.000262522
0.00621293
-0.000360374
0.00612469
-0.00045502
0.00604336
-0.000546163
0.0059687
-0.000633455
0.00590054
-0.000716549
0.00583875
-0.000795117
0.00578322
-0.000868872
0.00573381
-0.000937597
0.00569043
-0.00100115
0.00565292
-0.00105948
0.00562113
-0.0011126
-0.0011606
0.00780883
0.000491813
0.00767873
0.000396212
0.00754879
0.000284975
0.00742153
0.00017479
0.00729781
6.58186e-05
0.00717867
-4.24636e-05
0.00706502
-0.000148878
0.00695733
-0.000252678
0.00685579
-0.000353481
0.0067605
-0.00045088
0.00667151
-0.000544467
0.00658883
-0.000633862
0.00651243
-0.000718721
0.0064423
-0.000798744
0.0063784
-0.000873696
0.00632067
-0.000943414
0.006269
-0.00100781
0.00622329
-0.00106688
-0.0011207
0.00854758
0.000611297
0.00842621
0.00051758
0.00830267
0.000408514
0.00817902
0.000298438
0.00805614
0.000188698
0.00793505
7.86355e-05
0.00781687
-3.07008e-05
0.00770249
-0.000138304
0.00759255
-0.000243532
0.0074875
-0.000345831
0.0073877
-0.000444673
0.00729343
-0.000539588
0.00720487
-0.000630162
0.00712217
-0.000716043
0.00704542
-0.000796945
0.00697466
-0.000872659
0.00690991
-0.000943056
0.00685111
-0.00100809
-0.00106778
0.00923106
0.000715838
0.00912371
0.000624934
0.00901205
0.000520168
0.00889772
0.000412775
0.00878164
0.000304775
0.00866471
0.00019556
0.00854809
8.592e-05
0.00843283
-2.30457e-05
0.00831986
-0.000130553
0.00820992
-0.000235894
0.00810367
-0.000338424
0.00800164
-0.000437558
0.00790426
-0.000532786
0.00781189
-0.000623667
0.00772478
-0.000709841
0.00764315
-0.000791027
0.00756713
-0.000867032
0.00749679
-0.000937747
-0.00100315
0.00985248
0.00080082
0.00976321
0.000714206
0.00966773
0.00061565
0.00956726
0.000513242
0.00946282
0.000409213
0.00935522
0.000303163
0.00924549
0.000195646
0.00913475
8.76975e-05
0.009024
-1.97984e-05
0.0089142
-0.000126094
0.0088062
-0.000230423
0.00870075
-0.000332109
0.0085985
-0.00043054
0.00850001
-0.000525178
0.00840574
-0.000615571
0.00831607
-0.000701352
0.00823128
-0.000782245
0.0081516
-0.000858065
-0.000928719
0.0104106
0.000863823
0.0103418
0.000783061
0.0102652
0.000692233
0.0101818
0.000596689
0.0100925
0.000498502
0.00999809
0.000397545
0.00989952
0.000294222
0.00979778
0.000189438
0.00969391
8.40723e-05
0.00958888
-2.10716e-05
0.00948369
-0.000125231
0.00937921
-0.000227628
0.00927625
-0.00032758
0.00917554
-0.000424463
0.0090777
-0.000517735
0.00898328
-0.000606937
0.00889274
-0.000691705
0.00880645
-0.000771767
-0.000846951
0.0109097
0.000904683
0.0108617
0.000831041
0.010805
0.000748936
0.0107401
0.000661566
0.010668
0.000570624
0.0105893
0.000476228
0.0105048
0.000378716
0.0104154
0.00027885
0.010322
0.000177449
0.0102257
7.53035e-05
0.0101272
-2.68032e-05
0.0100277
-0.000128107
0.00992799
-0.000227849
0.00982888
-0.000325353
0.00973115
-0.000420003
0.00963547
-0.00051126
0.00954244
-0.000598675
0.00945256
-0.000681891
-0.000760649
0.0113579
0.000925107
0.0113296
0.000859376
0.0112921
0.000786412
0.0112458
0.000707895
0.0111913
0.000625059
0.0111294
0.000538188
0.0110605
0.000447604
0.0109854
0.000353936
0.0109049
0.000257917
0.0108199
0.000160287
0.0107313
6.18031e-05
0.01064
-3.67754e-05
0.0105469
-0.000134702
0.0104528
-0.00023125
0.0103585
-0.000325765
0.0102649
-0.000417647
0.0101726
-0.000506376
0.0100822
-0.000591521
-0.000672743
0.011766
0.000928062
0.0117549
0.000870491
0.0117348
0.000806566
0.0117057
0.000737002
0.0116681
0.000662602
0.0116226
0.000583722
0.0115695
0.000500685
0.0115094
0.000414008
0.011443
0.000324326
0.011371
0.00023231
0.0112941
0.00013866
0.0112133
4.41052e-05
0.0111292
-5.0633e-05
0.0110428
-0.000144836
0.0109548
-0.000237826
0.0108662
-0.000328967
0.0107775
-0.000417692
0.0106895
-0.000503514
-0.000586026
0.0121455
0.000917063
0.0121486
0.000867425
0.0121431
0.000812052
0.012129
0.000751096
0.0121066
0.000685011
0.0120762
0.000614153
0.012038
0.000538843
0.0119925
0.000459504
0.0119402
0.000376672
0.0118816
0.00029094
0.0118173
0.00020294
0.011748
0.000113339
0.0116746
2.2832e-05
0.0115976
-6.79038e-05
0.011518
-0.000158205
0.0114365
-0.00024741
0.0113537
-0.000334936
0.0112705
-0.000420257
-0.000502919
0.0125072
0.000895583
0.0125213
0.000853323
0.0125276
0.000805775
0.0125259
0.000752797
0.0125163
0.000694586
0.012499
0.000631456
0.0124742
0.000563708
0.012442
0.000491691
0.0124028
0.000415848
0.0123571
0.00033669
0.0123052
0.000254777
0.0122478
0.000170708
0.0121856
8.5113e-05
0.012119
-1.3239e-06
0.0120488
-8.80663e-05
0.0119758
-0.000174375
0.0119006
-0.000259706
0.0118238
-0.000343507
-0.000425295
0.0128603
0.000866666
0.0128826
0.000831051
0.0128979
0.000790498
0.012906
0.000744731
0.0129068
0.000693769
0.0129004
0.000637866
0.0128868
0.000577287
0.0128662
0.000512319
0.0128387
0.000443324
0.0128046
0.000370735
0.0127644
0.000295037
0.0127183
0.000216761
0.012667
0.000136477
0.0126108
5.47848e-05
0.0125505
-2.77408e-05
0.0124866
-0.000110479
0.0124198
-0.000192852
0.0123506
-0.000274321
-0.000354388
0.0132121
0.00083275
0.0132402
0.000802992
0.0132621
0.0132776
0.0132865
0.0132888
0.0132844
0.0132734
0.0132559
0.0132321
0.0132021
0.0131663
0.013125
0.0130788
0.013028
0.0129732
0.0129149
0.0128537
0.013568
)
;

boundaryField
{
    inlet
    {
        type            calculated;
        value           nonuniform 0();
    }
    outlet
    {
        type            calculated;
        value           nonuniform 0();
    }
    cylinder
    {
        type            calculated;
        value           nonuniform 0();
    }
    top
    {
        type            symmetryPlane;
        value           nonuniform 0();
    }
    bottom
    {
        type            symmetryPlane;
        value           nonuniform 0();
    }
    defaultFaces
    {
        type            empty;
        value           nonuniform 0();
    }
    procBoundary28to22
    {
        type            processor;
        value           nonuniform List<scalar> 
26
(
0.00034184
0.000376284
-0.00074741
0.00033831
-0.000681768
0.000381224
-0.000618892
1.27148e-05
0.000136454
0.00022012
0.000303071
0.000380639
0.000870459
0.0004749
0.000541361
0.000603363
0.000660729
0.000713309
0.000761009
0.000803826
0.000841833
0.000875169
0.000904024
0.000928618
0.000949198
0.00096602
)
;
    }
    procBoundary28to23
    {
        type            processor;
        value           nonuniform List<scalar> 3(0.00133613 0.00138927 0.00143868);
    }
    procBoundary28to27
    {
        type            processor;
        value           nonuniform List<scalar> 10(-0.000703384 -0.000494038 -0.00055506 -0.000982867 -0.000731603 -0.00122794 -0.000954296 -0.00383631 -0.00467284 -0.00550854);
    }
    procBoundary28to29
    {
        type            processor;
        value           nonuniform List<scalar> 
20
(
0.00148362
0.00152373
0.00116203
0.00360018
0.00403887
0.00451889
0.00503857
0.00559488
0.00618339
0.00679819
0.00743215
0.00807717
0.00872468
0.00936626
0.00999433
0.0106027
0.0111873
0.0117462
0.0122797
0.0127901
)
;
    }
    procBoundary28to33
    {
        type            processor;
        value           nonuniform List<scalar> 
15
(
-0.00634108
-0.00715657
-0.00793704
-0.00866706
-0.0093356
-0.00993746
-0.0104737
-0.0109505
-0.0113783
-0.011769
-0.0121345
-0.0124858
-0.0128314
-0.0131782
-0.0135309
)
;
    }
    procBoundary28to34
    {
        type            processor;
        value           nonuniform List<scalar> 
20
(
0.000768602
0.00072925
0.000684844
0.000635568
0.000581643
0.000523302
0.000460835
0.000394603
0.000325024
0.00025256
0.000177716
0.000101029
2.30487e-05
-5.56666e-05
-0.00013456
-0.0002131
-0.000290797
0.000795661
0.0136
0.000770995
)
;
    }
}


// ************************************************************************* //
