/*--------------------------------*- C++ -*----------------------------------*\
  =========                 |
  \\      /  F ield         | OpenFOAM: The Open Source CFD Toolbox
   \\    /   O peration     | Website:  https://openfoam.org
    \\  /    A nd           | Version:  7
     \\/     M anipulation  |
\*---------------------------------------------------------------------------*/
FoamFile
{
    version     2.0;
    format      ascii;
    class       volScalarField;
    location    "120.999914";
    object      p;
}
// * * * * * * * * * * * * * * * * * * * * * * * * * * * * * * * * * * * * * //

dimensions      [0 2 -2 0 0 0 0];

internalField   nonuniform List<scalar> 
23200
(
-0.379362
-0.380926
-0.381824
-0.382589
-0.383537
-0.384885
-0.386819
-0.389462
-0.39289
-0.397155
-0.402282
-0.408259
-0.414993
-0.422248
-0.429562
-0.436145
-0.440768
-0.441816
-0.437776
-0.425348
-0.387093
-0.388191
-0.388882
-0.389575
-0.390565
-0.392097
-0.394376
-0.397553
-0.401736
-0.407012
-0.413453
-0.421092
-0.429878
-0.439595
-0.44976
-0.459487
-0.46735
-0.471205
-0.46951
-0.456848
-0.39473
-0.395329
-0.395789
-0.396382
-0.397385
-0.39906
-0.401635
-0.405285
-0.410145
-0.416337
-0.423968
-0.43311
-0.443744
-0.455668
-0.468371
-0.480852
-0.491516
-0.497545
-0.497907
-0.484035
-0.402135
-0.402213
-0.402423
-0.402888
-0.403863
-0.40563
-0.408434
-0.412472
-0.417905
-0.42488
-0.433533
-0.443966
-0.456179
-0.469971
-0.484808
-0.499529
-0.51247
-0.519916
-0.521994
-0.506027
-0.409171
-0.408734
-0.408677
-0.408986
-0.409886
-0.411679
-0.414629
-0.41895
-0.424825
-0.432421
-0.441896
-0.453365
-0.466839
-0.482097
-0.498622
-0.515011
-0.529628
-0.538094
-0.540724
-0.522323
-0.415729
-0.414796
-0.414463
-0.414584
-0.41536
-0.417107
-0.420104
-0.424585
-0.430751
-0.438786
-0.448857
-0.461088
-0.475485
-0.491818
-0.509459
-0.526971
-0.542605
-0.551382
-0.554056
-0.532836
-0.42172
-0.42033
-0.41972
-0.419626
-0.420224
-0.421843
-0.42478
-0.429286
-0.43558
-0.443856
-0.454286
-0.466991
-0.481963
-0.498936
-0.517224
-0.535271
-0.551341
-0.559694
-0.561941
-0.537608
-0.427083
-0.425292
-0.424412
-0.424079
-0.424445
-0.425854
-0.428617
-0.433008
-0.439259
-0.447576
-0.45813
-0.471029
-0.486242
-0.503461
-0.521951
-0.539988
-0.555942
-0.563233
-0.564487
-0.536956
-0.431788
-0.429667
-0.428534
-0.427942
-0.428028
-0.429144
-0.431622
-0.435756
-0.441798
-0.449962
-0.460416
-0.473252
-0.488407
-0.505524
-0.523819
-0.541382
-0.556685
-0.562388
-0.561971
-0.531364
-0.435837
-0.433471
-0.432107
-0.431244
-0.431006
-0.431754
-0.433841
-0.437585
-0.443261
-0.451094
-0.461247
-0.473795
-0.48864
-0.505362
-0.523116
-0.539816
-0.553959
-0.557647
-0.554819
-0.521427
-0.439267
-0.436745
-0.43518
-0.43404
-0.433441
-0.433757
-0.43536
-0.438597
-0.443769
-0.451115
-0.460798
-0.472872
-0.4872
-0.503283
-0.520225
-0.535714
-0.548202
-0.549505
-0.543576
-0.507793
-0.442144
-0.439556
-0.437821
-0.436405
-0.435421
-0.435253
-0.436297
-0.438931
-0.443486
-0.45022
-0.4593
-0.470757
-0.484407
-0.49967
-0.515534
-0.529497
-0.539841
-0.538412
-0.528894
-0.491159
-0.444564
-0.441995
-0.440122
-0.438434
-0.43705
-0.436364
-0.436795
-0.438758
-0.442615
-0.448649
-0.457028
-0.467763
-0.480608
-0.494891
-0.509426
-0.521535
-0.529257
-0.524772
-0.511499
-0.472293
-0.446649
-0.444171
-0.442189
-0.440237
-0.438448
-0.437226
-0.437018
-0.43827
-0.441383
-0.446663
-0.454283
-0.464213
-0.476156
-0.489291
-0.502227
-0.512118
-0.516768
-0.508995
-0.492166
-0.452034
-0.448544
-0.446209
-0.444138
-0.441933
-0.439744
-0.437988
-0.437136
-0.43767
-0.440026
-0.444531
-0.451352
-0.460436
-0.471359
-0.48315
-0.494165
-0.501456
-0.502659
-0.491556
-0.471689
-0.431236
-0.450411
-0.448246
-0.446099
-0.443649
-0.441073
-0.438799
-0.437324
-0.437162
-0.438776
-0.442511
-0.448525
-0.45669
-0.466451
-0.476651
-0.485377
-0.489706
-0.487216
-0.473009
-0.450817
-0.410646
-0.452423
-0.450427
-0.448204
-0.445516
-0.442572
-0.439812
-0.437754
-0.436937
-0.437846
-0.440831
-0.446012
-0.453168
-0.461578
-0.469879
-0.475932
-0.477015
-0.470772
-0.453932
-0.430108
-0.39076
-0.454758
-0.452897
-0.450585
-0.447664
-0.444375
-0.441169
-0.438581
-0.437166
-0.437415
-0.439662
-0.443963
-0.449974
-0.456783
-0.462839
-0.465891
-0.463576
-0.453734
-0.434841
-0.409757
-0.371764
-0.457584
-0.455795
-0.45337
-0.450216
-0.446604
-0.442997
-0.439936
-0.43798
-0.437607
-0.439106
-0.442442
-0.447116
-0.452029
-0.455506
-0.455349
-0.449659
-0.436599
-0.416164
-0.38966
-0.35373
-0.461052
-0.459245
-0.456671
-0.453278
-0.449364
-0.445396
-0.441915
-0.439463
-0.438483
-0.439189
-0.441422
-0.444518
-0.447231
-0.447866
-0.44445
-0.435585
-0.419902
-0.398307
-0.370107
-0.336968
-0.465286
-0.463352
-0.460581
-0.456936
-0.452731
-0.448435
-0.444572
-0.441647
-0.440041
-0.43986
-0.440803
-0.442056
-0.442299
-0.43994
-0.433369
-0.421675
-0.404031
-0.381641
-0.352769
-0.321857
-0.470376
-0.468195
-0.46517
-0.461252
-0.456758
-0.452149
-0.447919
-0.444513
-0.442217
-0.441011
-0.440443
-0.439593
-0.437166
-0.431792
-0.422295
-0.408199
-0.389132
-0.366204
-0.338231
-0.309484
-0.476378
-0.473824
-0.470485
-0.466263
-0.461467
-0.456543
-0.451933
-0.448001
-0.44491
-0.442497
-0.440182
-0.437005
-0.431801
-0.42351
-0.411397
-0.395335
-0.375245
-0.352175
-0.32515
-0.297904
-0.483317
-0.480269
-0.476551
-0.471987
-0.466863
-0.461599
-0.456569
-0.452025
-0.447992
-0.44416
-0.439868
-0.434197
-0.426205
-0.415188
-0.400805
-0.383164
-0.362372
-0.339314
-0.313248
-0.287409
-0.491192
-0.487536
-0.483378
-0.478428
-0.472938
-0.467291
-0.461767
-0.456487
-0.451324
-0.445848
-0.43937
-0.431107
-0.420403
-0.406911
-0.390592
-0.3717
-0.350418
-0.327481
-0.302272
-0.27752
-0.499984
-0.495621
-0.490964
-0.485583
-0.479681
-0.473584
-0.46746
-0.46128
-0.454768
-0.447415
-0.438582
-0.427699
-0.414429
-0.398734
-0.380788
-0.360898
-0.339274
-0.316487
-0.292023
-0.268215
-0.50966
-0.50451
-0.499304
-0.493447
-0.487074
-0.480439
-0.473575
-0.46629
-0.458187
-0.448733
-0.437425
-0.423961
-0.408316
-0.390688
-0.371375
-0.350684
-0.328809
-0.306178
-0.282363
-0.259336
-0.520181
-0.514177
-0.508383
-0.502007
-0.495097
-0.48781
-0.480025
-0.471396
-0.461444
-0.44969
-0.435841
-0.419891
-0.402083
-0.382773
-0.362308
-0.34096
-0.318894
-0.296408
-0.273158
-0.250799
-0.531496
-0.524588
-0.518176
-0.511239
-0.503711
-0.495628
-0.486704
-0.476463
-0.464404
-0.45019
-0.433792
-0.415492
-0.395735
-0.374963
-0.353519
-0.331624
-0.309404
-0.28705
-0.264297
-0.242511
-0.543538
-0.535694
-0.528644
-0.521103
-0.512858
-0.5038
-0.493484
-0.481344
-0.466939
-0.450151
-0.431249
-0.410758
-0.389258
-0.367214
-0.34493
-0.322572
-0.300224
-0.277991
-0.25568
-0.234394
-0.556218
-0.547424
-0.539723
-0.531528
-0.522444
-0.512199
-0.500207
-0.485879
-0.468924
-0.449506
-0.428185
-0.405676
-0.382622
-0.359465
-0.336456
-0.3137
-0.291247
-0.26913
-0.24722
-0.226375
-0.569425
-0.559682
-0.551322
-0.542413
-0.53234
-0.520662
-0.506693
-0.489903
-0.470241
-0.448192
-0.424572
-0.400219
-0.375781
-0.35165
-0.328009
-0.304914
-0.282376
-0.260376
-0.238838
-0.218392
-0.583013
-0.572338
-0.563313
-0.553613
-0.542372
-0.528989
-0.512739
-0.493249
-0.470782
-0.446151
-0.420374
-0.394348
-0.368681
-0.343693
-0.319504
-0.296122
-0.273525
-0.25165
-0.230465
-0.210385
-0.5968
-0.585228
-0.575529
-0.564943
-0.552328
-0.536951
-0.518131
-0.495751
-0.470445
-0.443324
-0.415548
-0.388014
-0.361256
-0.335519
-0.310858
-0.287241
-0.264613
-0.242879
-0.222039
-0.202306
-0.610567
-0.598151
-0.587764
-0.576175
-0.561956
-0.544292
-0.522647
-0.497253
-0.46913
-0.439649
-0.410042
-0.381156
-0.353439
-0.327052
-0.301993
-0.278195
-0.255569
-0.234
-0.213503
-0.194108
-0.624061
-0.610865
-0.599769
-0.587041
-0.570974
-0.550746
-0.526071
-0.497603
-0.466746
-0.435061
-0.403796
-0.373712
-0.345158
-0.318218
-0.292836
-0.268912
-0.246329
-0.224954
-0.204807
-0.185749
-0.636992
-0.623097
-0.611262
-0.597241
-0.579079
-0.556038
-0.528191
-0.496662
-0.463198
-0.429491
-0.396744
-0.365612
-0.336343
-0.308946
-0.283319
-0.25933
-0.236835
-0.215691
-0.195906
-0.177194
-0.649043
-0.634539
-0.621927
-0.606446
-0.585954
-0.559899
-0.528811
-0.494297
-0.4584
-0.422867
-0.388818
-0.356789
-0.326926
-0.29917
-0.273378
-0.24939
-0.227038
-0.206165
-0.18676
-0.168414
-0.659874
-0.64486
-0.631423
-0.614316
-0.591281
-0.562071
-0.527747
-0.49039
-0.452265
-0.415118
-0.379951
-0.347175
-0.31684
-0.288828
-0.262959
-0.239043
-0.216891
-0.196336
-0.177338
-0.159391
-0.669131
-0.653711
-0.639395
-0.6205
-0.594751
-0.562315
-0.524836
-0.484828
-0.444712
-0.406171
-0.370074
-0.336704
-0.306027
-0.277867
-0.25201
-0.228245
-0.206356
-0.186169
-0.167616
-0.150123
-0.676453
-0.660733
-0.645484
-0.624656
-0.596073
-0.560415
-0.519932
-0.477514
-0.435663
-0.39596
-0.359124
-0.32532
-0.294431
-0.266237
-0.240491
-0.216957
-0.195399
-0.175633
-0.157571
-0.140594
-0.681482
-0.665569
-0.649335
-0.626459
-0.59498
-0.556182
-0.51291
-0.468361
-0.42505
-0.384422
-0.347045
-0.312969
-0.282008
-0.253897
-0.228363
-0.205147
-0.18399
-0.164703
-0.147183
-0.130743
-0.683874
-0.667873
-0.650609
-0.625607
-0.591239
-0.549457
-0.503666
-0.457296
-0.412813
-0.371504
-0.333787
-0.299608
-0.268718
-0.240814
-0.215597
-0.192785
-0.172104
-0.153369
-0.136444
-0.120466
-0.683306
-0.667318
-0.648994
-0.621833
-0.584654
-0.540112
-0.49212
-0.44426
-0.398903
-0.357163
-0.319311
-0.285202
-0.25453
-0.226957
-0.202166
-0.179851
-0.159721
-0.141625
-0.12536
-0.109738
-0.679485
-0.663609
-0.644215
-0.614911
-0.575066
-0.528048
-0.478211
-0.429213
-0.383285
-0.341365
-0.303587
-0.269722
-0.239418
-0.212306
-0.188053
-0.166343
-0.146841
-0.129479
-0.113864
-0.0988141
-0.672159
-0.656487
-0.636036
-0.604658
-0.562358
-0.513203
-0.461904
-0.412128
-0.365937
-0.32409
-0.286592
-0.253145
-0.22336
-0.196866
-0.173258
-0.15228
-0.133509
-0.116905
-0.101935
-0.0876376
-0.661118
-0.645739
-0.624273
-0.590942
-0.546458
-0.495544
-0.443186
-0.392997
-0.346848
-0.305322
-0.268313
-0.235477
-0.206363
-0.180668
-0.15783
-0.137622
-0.119689
-0.103903
-0.0896312
-0.0761641
-0.646202
-0.631203
-0.608792
-0.573679
-0.527332
-0.47507
-0.422069
-0.371831
-0.326021
-0.285063
-0.248767
-0.216761
-0.188506
-0.163654
-0.141727
-0.122402
-0.105386
-0.090483
-0.0769785
-0.0643882
-0.627307
-0.612768
-0.589514
-0.552836
-0.504989
-0.451812
-0.398588
-0.348656
-0.303482
-0.263354
-0.228035
-0.196983
-0.16974
-0.145881
-0.12497
-0.106639
-0.0906189
-0.0766646
-0.0639927
-0.0523249
-0.604384
-0.590383
-0.566416
-0.52843
-0.479479
-0.425835
-0.372799
-0.323524
-0.279299
-0.240277
-0.206075
-0.176178
-0.150096
-0.127375
-0.107589
-0.0903564
-0.0754114
-0.0624705
-0.0506913
-0.0399968
-0.577439
-0.564051
-0.53953
-0.500526
-0.450897
-0.397233
-0.344784
-0.296519
-0.253538
-0.21583
-0.182959
-0.154392
-0.12962
-0.108174
-0.0896218
-0.0735838
-0.0597934
-0.0479281
-0.0370985
-0.0274318
-0.546539
-0.53383
-0.508942
-0.469249
-0.41938
-0.366109
-0.314637
-0.26773
-0.226256
-0.190091
-0.158751
-0.131684
-0.108366
-0.0883212
-0.0711115
-0.0563599
-0.0438004
-0.0330704
-0.0232469
-0.0146642
-0.511804
-0.499834
-0.474796
-0.434781
-0.385067
-0.332553
-0.282501
-0.237261
-0.19755
-0.163148
-0.133527
-0.108121
-0.0863969
-0.0678719
-0.0521069
-0.0387293
-0.0274726
-0.0179357
-0.00917574
-0.00173521
-0.473399
-0.462231
-0.437294
-0.397301
-0.348009
-0.296816
-0.24852
-0.205243
-0.167537
-0.135102
-0.107377
-0.0837826
-0.0637818
-0.0468885
-0.032664
-0.0207427
-0.0108557
-0.00256502
0.00507423
0.0113119
-0.431499
-0.421271
-0.396677
-0.356857
-0.308517
-0.259097
-0.212868
-0.171821
-0.136346
-0.106067
-0.0803997
-0.0587573
-0.0406
-0.0254411
-0.0128459
-0.0024574
0.00600008
0.0130008
0.019468
0.0244418
-0.386328
-0.377273
-0.353068
-0.313646
-0.266974
-0.219594
-0.175732
-0.137161
-0.104118
-0.0761675
-0.0527068
-0.0331435
-0.0169383
-0.00360658
0.00727817
0.0160636
0.0230416
0.0287227
0.0339699
0.0376131
-0.338134
-0.3306
-0.306426
-0.268397
-0.22356
-0.178538
-0.137316
-0.101438
-0.0710093
-0.0455417
-0.0244188
-0.00704756
0.00710953
0.0185317
0.0276333
0.0347548
0.0402189
0.0445609
0.0485064
0.050678
-0.287239
-0.281239
-0.257797
-0.221228
-0.178545
-0.136177
-0.0978342
-0.064843
-0.0371864
-0.0143358
0.00433436
0.0194161
0.0314426
0.0408844
0.048141
0.0535543
0.0574925
0.0604681
0.0629121
0.0632572
-0.234431
-0.229571
-0.207293
-0.172445
-0.132219
-0.0927697
-0.057515
-0.0275745
-0.00282544
0.0172943
0.0334155
0.0461265
0.055954
0.0633569
0.0687208
0.0724034
0.0748233
0.0763674
0.0769576
0.0750167
-0.17983
-0.176128
-0.155234
-0.122389
-0.0848903
-0.0485869
-0.0165963
0.0101573
0.0318885
0.0491855
0.0626804
0.0729564
0.0805312
0.0858499
0.0892894
0.0912359
0.0921347
0.0921195
0.0905495
0.0866512
-0.123808
-0.121362
-0.102007
-0.0714167
-0.0368799
-0.00391044
0.0246749
0.0481352
0.0667636
0.0811682
0.0919798
0.099774
0.105058
0.108262
0.109761
0.109967
0.109295
0.107551
0.103774
0.100419
-0.06681
-0.0656933
-0.0480195
-0.0198983
0.0114831
0.0409708
0.0660452
0.0861358
0.101603
0.113068
0.12116
0.126444
0.129415
0.130491
0.130046
0.1285
0.126181
0.122677
0.11731
0.114155
-0.00928911
-0.00955121
0.00631329
0.0317905
0.059865
0.0857636
0.107257
0.123932
0.136205
0.144709
0.150064
0.152828
0.153481
0.15243
0.15005
0.146746
0.142757
0.1376
0.130984
0.127378
0.0483011
0.0466288
0.0605749
0.0832716
0.107931
0.130173
0.148051
0.161294
0.170368
0.175911
0.178535
0.178786
0.177133
0.173973
0.169673
0.164616
0.15897
0.152277
0.144558
0.14017
0.105506
0.102408
0.11435
0.134169
0.155346
0.173906
0.188168
0.197994
0.203889
0.206494
0.206414
0.204181
0.200251
0.19501
0.188819
0.18203
0.174766
0.166628
0.157838
0.152492
0.161874
0.157349
0.167229
0.18411
0.201783
0.21667
0.227351
0.233804
0.236567
0.236282
0.233543
0.228871
0.22271
0.215434
0.207392
0.198909
0.19008
0.180567
0.170724
0.164329
0.216961
0.211022
0.218808
0.232733
0.246917
0.258182
0.265349
0.268501
0.268204
0.265099
0.259769
0.252723
0.244391
0.235138
0.225297
0.215171
0.204836
0.194011
0.183133
0.175643
0.270334
0.263008
0.268698
0.279684
0.290436
0.298164
0.301915
0.301867
0.298608
0.292774
0.28494
0.275601
0.265176
0.254017
0.242444
0.230737
0.218962
0.206888
0.195003
0.186397
0.321574
0.312902
0.316521
0.324624
0.33204
0.33635
0.336815
0.333692
0.327592
0.319144
0.308912
0.297379
0.284951
0.271971
0.258745
0.24553
0.232387
0.219131
0.206273
0.196552
0.370282
0.360317
0.361918
0.36723
0.37144
0.372486
0.369821
0.363777
0.354978
0.344049
0.331543
0.317931
0.303609
0.288906
0.274114
0.259475
0.245044
0.230678
0.216891
0.206072
0.416077
0.404887
0.404551
0.407196
0.408366
0.406331
0.40072
0.391932
0.380599
0.367342
0.352703
0.337142
0.321044
0.304728
0.288472
0.2725
0.256868
0.241472
0.226807
0.214921
0.458607
0.446271
0.444102
0.44424
0.442565
0.43766
0.429313
0.417978
0.404296
0.388881
0.372267
0.354903
0.337162
0.319354
0.301744
0.284541
0.267802
0.251459
0.235975
0.223067
0.497544
0.484155
0.480283
0.478098
0.473805
0.466267
0.455416
0.441752
0.425924
0.408539
0.390121
0.371111
0.351872
0.332704
0.313859
0.295534
0.27779
0.26059
0.244352
0.230481
0.532593
0.518251
0.512827
0.508535
0.501875
0.491965
0.478862
0.463106
0.445351
0.426198
0.406162
0.385676
0.365094
0.344706
0.324755
0.305425
0.286782
0.26882
0.2519
0.237138
0.563488
0.548307
0.541502
0.535339
0.526587
0.514587
0.499502
0.481907
0.462459
0.441753
0.420297
0.398515
0.376755
0.355297
0.334376
0.314163
0.294735
0.276107
0.258585
0.243014
0.589999
0.5741
0.566102
0.558327
0.547778
0.533986
0.517207
0.49804
0.477145
0.455113
0.432445
0.409557
0.386791
0.364421
0.342671
0.321706
0.301609
0.282417
0.264375
0.248094
0.611933
0.595445
0.586456
0.577345
0.565311
0.550042
0.531867
0.511407
0.489323
0.466202
0.442537
0.418742
0.39515
0.372031
0.3496
0.328016
0.307371
0.287717
0.269246
0.252361
0.629133
0.61219
0.602425
0.592268
0.579074
0.562655
0.543394
0.52193
0.498923
0.474956
0.45052
0.42602
0.401787
0.378087
0.355128
0.333064
0.311993
0.291983
0.273175
0.255808
0.641481
0.624223
0.613905
0.603003
0.588985
0.57175
0.551722
0.529549
0.505892
0.48133
0.456349
0.431354
0.406671
0.382561
0.359229
0.336827
0.315455
0.295194
0.276148
0.258429
0.648898
0.631467
0.620827
0.609487
0.594987
0.577279
0.556807
0.534225
0.510194
0.485291
0.459999
0.43472
0.409779
0.385434
0.361888
0.339289
0.317743
0.297338
0.278155
0.260227
0.651346
0.633887
0.623156
0.61169
0.597054
0.579217
0.558627
0.535939
0.511813
0.486824
0.461455
0.436105
0.411099
0.386695
0.363093
0.340442
0.318848
0.298404
0.279185
0.261185
0.648826
0.631485
0.620895
0.609614
0.595188
0.577564
0.557182
0.534691
0.510748
0.485929
0.460716
0.435509
0.410632
0.386344
0.362845
0.340285
0.318771
0.298392
0.279229
0.261304
0.641382
0.6243
0.614082
0.603292
0.589418
0.572349
0.552497
0.530502
0.507019
0.482623
0.457798
0.432945
0.408388
0.38439
0.361152
0.338827
0.317517
0.297308
0.278303
0.260588
0.629094
0.612411
0.602788
0.592791
0.579802
0.563623
0.544618
0.523413
0.500661
0.476937
0.452728
0.428436
0.40439
0.380852
0.358031
0.33608
0.315099
0.295166
0.276418
0.259051
0.612085
0.595936
0.587122
0.578206
0.566428
0.551461
0.533612
0.513485
0.491728
0.468919
0.445548
0.422021
0.398668
0.375759
0.353506
0.332067
0.311537
0.291981
0.273585
0.256698
0.590513
0.575029
0.567226
0.559665
0.549407
0.535966
0.51957
0.500797
0.480291
0.458632
0.436314
0.413747
0.391267
0.369148
0.34761
0.326817
0.306856
0.287778
0.269825
0.253532
0.564577
0.549878
0.543275
0.537326
0.528881
0.517262
0.502602
0.485448
0.466437
0.446153
0.425093
0.403675
0.38224
0.361067
0.340384
0.320364
0.301088
0.282588
0.265161
0.249566
0.534508
0.520708
0.515475
0.511374
0.505014
0.495496
0.48284
0.467554
0.45027
0.431573
0.411968
0.391876
0.371648
0.351569
0.331876
0.312753
0.294272
0.276444
0.259623
0.244818
0.500573
0.487776
0.484063
0.482023
0.477996
0.470837
0.460433
0.44725
0.431908
0.414998
0.397029
0.378433
0.359564
0.340718
0.322143
0.30403
0.28645
0.269387
0.253244
0.239305
0.463071
0.451368
0.449307
0.449511
0.448041
0.443473
0.43555
0.424683
0.411483
0.396544
0.380382
0.363435
0.346069
0.328586
0.311245
0.294252
0.277672
0.26146
0.246062
0.233053
0.422329
0.411802
0.411497
0.414103
0.415382
0.413612
0.408375
0.400019
0.389142
0.37634
0.362139
0.346984
0.331251
0.31525
0.299252
0.283478
0.267991
0.252712
0.238117
0.226089
0.378701
0.36942
0.370952
0.376083
0.380272
0.38148
0.379108
0.373434
0.365041
0.354527
0.342424
0.329189
0.315205
0.300794
0.286238
0.271773
0.257464
0.243195
0.229454
0.218445
0.332566
0.324586
0.32801
0.335757
0.342984
0.347316
0.347962
0.345119
0.339349
0.331252
0.321369
0.310166
0.298035
0.285309
0.272282
0.259208
0.246155
0.232965
0.220122
0.210153
0.284323
0.277687
0.283031
0.293447
0.303804
0.311377
0.315165
0.315274
0.312244
0.306673
0.299112
0.290036
0.279849
0.26889
0.257469
0.245856
0.234129
0.222083
0.210172
0.201251
0.234387
0.229126
0.236388
0.249493
0.263033
0.273927
0.28095
0.284108
0.28391
0.280954
0.275799
0.268929
0.260758
0.251636
0.241884
0.231794
0.221456
0.210614
0.199661
0.191776
0.183188
0.179318
0.188471
0.204245
0.220983
0.235242
0.245562
0.251837
0.254539
0.254265
0.251579
0.246976
0.24088
0.233651
0.225619
0.217101
0.208209
0.198629
0.188649
0.181765
0.131166
0.128688
0.139679
0.158065
0.177973
0.195606
0.209253
0.218683
0.224328
0.226778
0.226605
0.224311
0.220334
0.215039
0.208766
0.201857
0.19446
0.186207
0.177213
0.171255
0.0787636
0.0776682
0.0904153
0.111318
0.134331
0.155306
0.172275
0.184871
0.193475
0.198671
0.201033
0.201074
0.19924
0.195908
0.191421
0.186142
0.180279
0.173431
0.165446
0.160256
0.026428
0.0266889
0.0410893
0.064377
0.0903859
0.114633
0.134885
0.150627
0.162182
0.17012
0.175019
0.177401
0.177721
0.176366
0.173678
0.170035
0.165721
0.160384
0.153522
0.148804
-0.0253979
-0.0238222
-0.00789221
0.0176125
0.0464681
0.0738776
0.0973395
0.116177
0.130647
0.141302
0.14872
0.15343
0.155898
0.156518
0.155636
0.153624
0.150841
0.147111
0.14166
0.136832
-0.0762763
-0.0734455
-0.0561278
-0.0286079
0.00290542
0.0333289
0.0598915
0.0817456
0.099069
0.112391
0.12229
0.129298
0.133889
0.136471
0.137389
0.136995
0.135679
0.133543
0.130051
0.124764
-0.125792
-0.121761
-0.10323
-0.0739249
-0.0399798
-0.00673042
0.0227894
0.0475508
0.0676409
0.0835598
0.0958798
0.105138
0.111813
0.116325
0.119025
0.120242
0.12035
0.119672
0.118125
0.114491
-0.173641
-0.168308
-0.148841
-0.117991
-0.0818731
-0.0460251
-0.0137261
0.0138051
0.0365504
0.0549728
0.0696364
0.081079
0.0897846
0.0961803
0.10063
0.103448
0.104969
0.105631
0.105776
0.104101
-0.219478
-0.212681
-0.192659
-0.160481
-0.122471
-0.0842914
-0.0494242
-0.0192878
0.00597761
0.0267898
0.0437008
0.0572468
0.0679139
0.0761352
0.0822859
0.0866784
0.0896087
0.0915399
0.093063
0.093004
-0.262739
-0.254634
-0.234341
-0.201136
-0.16148
-0.121282
-0.0840863
-0.0515343
-0.0239065
-0.000837755
0.018207
0.0337597
0.0463062
0.0562826
0.064073
0.0699939
0.0743148
0.0774796
0.0801998
0.0814662
-0.303122
-0.293945
-0.273148
-0.239899
-0.198637
-0.15677
-0.117506
-0.0827525
-0.0529413
-0.0277676
-0.00671867
0.0107296
0.0250608
0.0367109
0.0460693
0.0534586
0.059133
0.0635067
0.0673455
0.0698141
-0.340399
-0.330328
-0.309189
-0.275626
-0.234073
-0.190544
-0.149487
-0.112774
-0.0809785
-0.0538679
-0.030959
-0.0117393
0.00427
0.0175027
0.0283494
0.0371382
0.0441161
0.049666
0.0545743
0.0581836
-0.374397
-0.363508
-0.342296
-0.308727
-0.266882
-0.222441
-0.179852
-0.141442
-0.107883
-0.0790183
-0.0544066
-0.0335514
-0.0159808
-0.00126569
0.0109827
0.0210962
0.0293181
0.0359992
0.0419254
0.0466188
-0.404938
-0.393289
-0.372225
-0.339026
-0.297124
-0.252124
-0.208446
-0.168615
-0.133531
-0.10311
-0.0769645
-0.0546201
-0.035614
-0.0195245
-0.00596748
0.00539034
0.0147902
0.0225487
0.0294365
0.0351568
-0.431885
-0.419539
-0.398798
-0.366285
-0.324731
-0.279518
-0.235114
-0.194167
-0.157818
-0.126047
-0.098547
-0.0748689
-0.0545605
-0.037211
-0.0224444
-0.0099275
0.000579613
0.00935747
0.0171495
0.023841
-0.455151
-0.442182
-0.421912
-0.390356
-0.349552
-0.304528
-0.259758
-0.218047
-0.180623
-0.147749
-0.11908
-0.0942312
-0.0727602
-0.05427
-0.0383977
-0.0248109
-0.0132708
-0.00353424
0.0051049
0.0127135
-0.474706
-0.461193
-0.441522
-0.411161
-0.371474
-0.327049
-0.282283
-0.240124
-0.201956
-0.168146
-0.138501
-0.112651
-0.0901617
-0.070653
-0.0537841
-0.0392192
-0.0267229
-0.0160907
-0.00666377
0.00181082
-0.490577
-0.476605
-0.457635
-0.428674
-0.390435
-0.347005
-0.302623
-0.260335
-0.221708
-0.187227
-0.156794
-0.130074
-0.106724
-0.0863185
-0.0685672
-0.0531169
-0.0397433
-0.0282803
-0.018131
-0.0088361
-0.502846
-0.488504
-0.470309
-0.442914
-0.406419
-0.364358
-0.320736
-0.278651
-0.239837
-0.204925
-0.173911
-0.146519
-0.122413
-0.101233
-0.0827169
-0.0664738
-0.0523055
-0.0400733
-0.0292782
-0.0192016
-0.511646
-0.49703
-0.47966
-0.453949
-0.419448
-0.379101
-0.336607
-0.295056
-0.25633
-0.221215
-0.189816
-0.161923
-0.137229
-0.115417
-0.0961973
-0.079265
-0.0643911
-0.0514421
-0.0400805
-0.0292757
-0.517164
-0.502371
-0.485851
-0.461898
-0.429586
-0.391258
-0.350239
-0.30955
-0.27119
-0.236099
-0.204505
-0.176273
-0.15114
-0.128817
-0.109022
-0.0914959
-0.0759922
-0.0623701
-0.0504834
-0.0390836
-0.519626
-0.50476
-0.489094
-0.466924
-0.436939
-0.400888
-0.361662
-0.322149
-0.284429
-0.24959
-0.217988
-0.189575
-0.16414
-0.141422
-0.121168
-0.103137
-0.0870925
-0.0728776
-0.0603639
-0.0487298
-0.519301
-0.504468
-0.489644
-0.469239
-0.441656
-0.408081
-0.370931
-0.332891
-0.296077
-0.261713
-0.230287
-0.201846
-0.176238
-0.153241
-0.132628
-0.114178
-0.0976729
-0.0829503
-0.0699011
-0.0579437
-0.516484
-0.501795
-0.487788
-0.46909
-0.443921
-0.412961
-0.378124
-0.341829
-0.306175
-0.272502
-0.24143
-0.213109
-0.187454
-0.164286
-0.143407
-0.124621
-0.10773
-0.0925776
-0.0790719
-0.0666901
-0.511497
-0.497064
-0.48384
-0.46676
-0.443958
-0.415684
-0.383344
-0.349035
-0.31478
-0.282003
-0.251455
-0.223394
-0.19781
-0.174574
-0.15352
-0.134476
-0.117268
-0.101748
-0.0878412
-0.0750456
-0.504672
-0.490604
-0.47813
-0.462554
-0.442021
-0.416434
-0.386716
-0.354594
-0.321956
-0.290271
-0.260407
-0.232738
-0.207336
-0.184127
-0.162981
-0.143754
-0.126294
-0.110462
-0.0962067
-0.0830641
-0.496347
-0.482751
-0.470993
-0.456793
-0.438386
-0.415423
-0.388388
-0.35861
-0.327781
-0.297369
-0.268342
-0.241187
-0.216069
-0.192973
-0.171811
-0.152468
-0.134816
-0.118728
-0.104175
-0.0907589
-0.486852
-0.47383
-0.46276
-0.449803
-0.433348
-0.412886
-0.388528
-0.361198
-0.332339
-0.303365
-0.275317
-0.248792
-0.224048
-0.201143
-0.180033
-0.160636
-0.142849
-0.126556
-0.111751
-0.0981194
-0.476506
-0.464149
-0.453746
-0.441903
-0.427208
-0.409076
-0.387322
-0.362488
-0.335724
-0.308334
-0.281395
-0.255604
-0.23132
-0.208674
-0.187675
-0.168277
-0.150405
-0.133957
-0.118938
-0.105136
-0.465607
-0.453993
-0.444244
-0.433398
-0.420263
-0.404254
-0.384975
-0.362624
-0.338035
-0.31235
-0.286639
-0.26168
-0.23793
-0.215603
-0.194766
-0.175413
-0.157501
-0.140941
-0.125741
-0.111807
-0.454425
-0.443619
-0.434515
-0.424563
-0.412799
-0.398684
-0.381699
-0.361759
-0.339379
-0.315492
-0.291114
-0.267075
-0.243926
-0.22197
-0.201338
-0.182068
-0.164151
-0.147519
-0.132171
-0.118138
-0.443198
-0.433247
-0.424786
-0.415645
-0.405075
-0.392623
-0.377717
-0.360059
-0.339869
-0.317838
-0.294879
-0.27184
-0.249354
-0.227813
-0.20742
-0.188264
-0.170372
-0.153704
-0.138236
-0.124134
-0.43213
-0.423063
-0.415246
-0.40685
-0.397322
-0.386309
-0.373247
-0.357697
-0.339625
-0.31947
-0.297993
-0.276024
-0.254256
-0.233168
-0.213043
-0.194023
-0.176179
-0.159504
-0.143945
-0.1298
-0.421387
-0.413217
-0.406044
-0.398346
-0.389733
-0.379957
-0.368499
-0.354848
-0.338773
-0.320467
-0.300511
-0.279669
-0.258668
-0.238067
-0.218231
-0.199367
-0.181586
-0.16493
-0.149305
-0.135141
-0.411099
-0.40382
-0.397293
-0.39026
-0.382462
-0.373747
-0.363664
-0.351685
-0.337442
-0.320914
-0.302483
-0.282809
-0.262618
-0.242535
-0.223006
-0.20431
-0.186605
-0.169987
-0.154321
-0.140159
-0.40136
-0.394952
-0.389068
-0.382677
-0.375621
-0.367822
-0.358906
-0.348368
-0.335762
-0.320896
-0.303958
-0.285471
-0.266126
-0.246587
-0.227381
-0.208864
-0.191242
-0.174677
-0.158994
-0.144854
-0.392226
-0.386659
-0.381413
-0.37565
-0.369282
-0.362284
-0.354358
-0.345041
-0.333857
-0.320501
-0.304983
-0.287675
-0.269197
-0.250228
-0.23136
-0.21303
-0.195496
-0.178999
-0.163323
-0.149225
-0.383725
-0.378961
-0.374342
-0.369196
-0.363479
-0.357197
-0.350112
-0.341816
-0.331842
-0.319812
-0.305603
-0.289436
-0.27183
-0.25345
-0.234935
-0.216801
-0.19936
-0.182943
-0.167299
-0.153264
-0.375855
-0.37185
-0.367846
-0.363306
-0.358214
-0.352583
-0.346222
-0.338778
-0.329809
-0.318911
-0.305867
-0.290765
-0.274013
-0.256231
-0.238082
-0.220155
-0.202816
-0.186491
-0.17091
-0.156962
-0.36859
-0.365305
-0.361896
-0.35795
-0.353458
-0.348431
-0.342704
-0.335969
-0.327825
-0.317866
-0.305822
-0.291677
-0.275731
-0.258541
-0.240764
-0.223057
-0.205831
-0.189614
-0.174129
-0.160303
-0.361893
-0.359287
-0.356452
-0.35308
-0.349166
-0.344703
-0.33954
-0.333402
-0.325927
-0.316729
-0.305511
-0.292191
-0.276973
-0.260343
-0.242936
-0.225457
-0.208358
-0.192269
-0.176927
-0.163259
-0.355718
-0.353756
-0.351467
-0.348645
-0.345279
-0.341342
-0.336686
-0.331057
-0.324124
-0.31553
-0.304975
-0.292333
-0.277737
-0.261609
-0.244548
-0.227294
-0.210335
-0.194398
-0.179244
-0.165817
-0.35002
-0.348671
-0.346899
-0.344591
-0.341738
-0.338286
-0.334085
-0.328893
-0.322404
-0.314283
-0.304242
-0.292133
-0.278038
-0.262324
-0.245558
-0.228507
-0.211687
-0.195928
-0.181019
-0.167913
-0.344766
-0.344004
-0.34271
-0.340877
-0.338491
-0.335479
-0.331682
-0.326866
-0.320739
-0.31299
-0.30334
-0.29163
-0.277909
-0.262503
-0.245953
-0.229047
-0.21235
-0.196764
-0.182158
-0.169569
-0.33994
-0.339738
-0.338879
-0.337475
-0.335507
-0.332882
-0.329437
-0.32494
-0.319111
-0.311652
-0.302294
-0.290873
-0.277409
-0.262196
-0.245761
-0.228908
-0.212272
-0.196852
-0.182515
-0.170654
-0.335542
-0.335864
-0.335409
-0.33438
-0.332774
-0.330482
-0.327334
-0.323104
-0.317518
-0.310287
-0.301146
-0.289925
-0.276621
-0.261494
-0.245064
-0.228137
-0.211482
-0.196061
-0.182313
-0.170634
-0.331591
-0.332404
-0.332309
-0.331605
-0.330307
-0.328294
-0.325394
-0.321382
-0.315992
-0.308939
-0.299962
-0.288877
-0.27566
-0.260531
-0.244006
-0.226853
-0.210106
-0.194383
-0.181438
-0.169573
-0.328123
-0.329388
-0.329608
-0.329183
-0.328143
-0.32636
-0.323663
-0.319831
-0.314601
-0.307693
-0.298843
-0.287855
-0.274678
-0.259488
-0.242791
-0.225265
-0.208363
-0.191889
-0.179839
-0.167452
-0.325183
-0.326857
-0.327352
-0.327161
-0.326335
-0.324743
-0.322217
-0.318537
-0.313446
-0.306666
-0.297928
-0.287023
-0.273868
-0.258593
-0.241681
-0.223665
-0.206575
-0.188802
-0.177886
-0.164178
-0.322822
-0.324858
-0.325587
-0.325594
-0.324948
-0.323518
-0.32114
-0.317603
-0.312649
-0.306001
-0.297384
-0.286575
-0.273457
-0.25811
-0.240984
-0.222431
-0.205132
-0.185566
-0.176116
-0.159973
-0.321091
-0.323439
-0.324368
-0.32454
-0.324047
-0.322761
-0.320526
-0.317134
-0.312333
-0.305843
-0.297385
-0.286716
-0.273686
-0.258329
-0.241031
-0.22199
-0.204431
-0.182893
-0.174925
-0.155357
-0.320035
-0.322647
-0.323742
-0.324053
-0.323694
-0.322543
-0.320454
-0.317226
-0.31261
-0.306326
-0.298089
-0.287638
-0.274787
-0.259523
-0.242152
-0.222771
-0.204852
-0.181655
-0.174497
-0.151238
-0.319692
-0.322521
-0.323753
-0.324181
-0.323942
-0.322924
-0.320993
-0.317956
-0.313569
-0.307556
-0.299622
-0.289492
-0.276951
-0.261919
-0.244633
-0.225135
-0.206782
-0.182597
-0.175062
-0.148859
-0.32009
-0.323092
-0.324435
-0.324963
-0.324833
-0.32395
-0.322192
-0.319378
-0.315274
-0.309605
-0.302073
-0.292385
-0.280296
-0.26569
-0.248693
-0.229326
-0.210595
-0.186114
-0.177154
-0.149299
-0.321249
-0.324384
-0.325814
-0.326424
-0.326396
-0.325652
-0.324085
-0.321531
-0.317765
-0.312518
-0.305492
-0.296381
-0.284911
-0.27092
-0.25445
-0.235495
-0.216585
-0.192307
-0.181495
-0.153049
-0.323178
-0.326408
-0.327902
-0.328581
-0.32865
-0.328049
-0.326694
-0.324436
-0.321065
-0.31632
-0.309906
-0.301511
-0.290837
-0.277676
-0.261967
-0.243732
-0.224883
-0.201186
-0.18859