/*--------------------------------*- C++ -*----------------------------------*\
  =========                 |
  \\      /  F ield         | OpenFOAM: The Open Source CFD Toolbox
   \\    /   O peration     | Website:  https://openfoam.org
    \\  /    A nd           | Version:  7
     \\/     M anipulation  |
\*---------------------------------------------------------------------------*/
FoamFile
{
    version     2.0;
    format      ascii;
    class       volVectorField;
    location    "9.8";
    object      U;
}
// * * * * * * * * * * * * * * * * * * * * * * * * * * * * * * * * * * * * * //

dimensions      [0 1 -1 0 0 0 0];

internalField   nonuniform List<vector> 
16528
(
(1.00014 -0.000244853 -5.99494e-16)
(1.00145 -0.000722192 2.42375e-16)
(1.00426 -0.00119827 2.4382e-15)
(1.00852 -0.00165953 2.08626e-15)
(1.0141 -0.00209531 6.21702e-16)
(1.02092 -0.00250064 8.69667e-16)
(1.02889 -0.00287138 -1.64586e-15)
(1.03791 -0.00320403 7.06354e-16)
(1.04785 -0.00349646 2.37838e-15)
(1.0586 -0.00374796 2.4914e-16)
(1.07003 -0.00395903 -3.22382e-16)
(1.08202 -0.00413113 -6.91815e-16)
(1.09447 -0.00426645 -1.17362e-15)
(1.10727 -0.00436774 -2.9828e-15)
(1.12031 -0.00443812 -2.5325e-15)
(1.13352 -0.00448088 -2.6752e-15)
(1.14681 -0.00449934 -4.82196e-15)
(1.16013 -0.0044968 -4.43137e-15)
(1.17341 -0.00447635 -4.50059e-15)
(1.1866 -0.00444093 -5.07522e-15)
(1.19967 -0.00439319 -4.74565e-15)
(1.21258 -0.00433554 -5.11567e-15)
(1.2253 -0.00427011 -5.48081e-15)
(1.23783 -0.00419876 -1.13772e-14)
(1.25013 -0.00412312 -7.67824e-15)
(1.2622 -0.00404455 -6.26629e-15)
(1.27404 -0.00396422 -5.45842e-15)
(1.28564 -0.00388309 -6.12534e-15)
(1.297 -0.00380194 -4.57677e-15)
(1.30811 -0.00372142 -5.23408e-15)
(1.31899 -0.00364203 -5.64825e-15)
(1.32964 -0.00356415 -6.1906e-15)
(1.34006 -0.00348807 -6.1443e-15)
(1.35026 -0.00341402 -6.32734e-15)
(1.36024 -0.00334211 -5.25847e-15)
(1.37001 -0.00327246 -5.70772e-15)
(1.37958 -0.00320508 -5.65657e-15)
(1.38895 -0.00313998 -5.7655e-15)
(1.39813 -0.00307714 -5.88957e-15)
(1.40713 -0.00301651 -6.76788e-15)
(1.41596 -0.00295803 -5.51411e-15)
(1.42461 -0.0029016 -5.33293e-15)
(1.4331 -0.00284716 -5.78253e-15)
(1.44143 -0.00279461 -5.47362e-15)
(1.44961 -0.00274384 -5.63761e-15)
(1.45764 -0.00269478 -7.00497e-15)
(1.46552 -0.00264732 -5.7346e-15)
(1.47327 -0.00260138 -6.31445e-15)
(1.48088 -0.00255686 -6.7515e-15)
(1.48837 -0.00251368 -6.81678e-15)
(1.49573 -0.00247176 -5.23257e-15)
(1.50296 -0.00243103 -6.21195e-15)
(1.51008 -0.00239141 -5.949e-15)
(1.51708 -0.00235284 -6.8746e-15)
(1.52397 -0.00231525 -5.92095e-15)
(1.53075 -0.00227859 -7.35783e-15)
(1.53742 -0.0022428 -5.01969e-15)
(1.54398 -0.00220783 -4.71833e-15)
(1.55044 -0.00217365 -5.72729e-15)
(1.55681 -0.0021402 -6.49804e-15)
(1.56307 -0.00210745 -5.53065e-15)
(1.56924 -0.00207537 -5.91382e-15)
(1.57532 -0.00204392 -5.88982e-15)
(1.5813 -0.00201307 -6.10785e-15)
(1.58719 -0.0019828 -6.18568e-15)
(1.59299 -0.00195309 -5.55841e-15)
(1.59871 -0.00192391 -5.4754e-15)
(1.60434 -0.00189524 -5.5626e-15)
(1.60989 -0.00186706 -4.65312e-15)
(1.61535 -0.00183936 -3.32416e-15)
(1.62073 -0.00181213 -4.9756e-15)
(1.62603 -0.00178533 -4.65182e-15)
(1.63126 -0.00175898 -3.94687e-15)
(1.6364 -0.00173305 -5.52592e-15)
(1.64147 -0.00170752 -5.53454e-15)
(1.64647 -0.0016824 -4.95947e-15)
(1.65139 -0.00165767 -5.04694e-15)
(1.65624 -0.00163333 -4.67597e-15)
(1.66102 -0.00160936 -4.40017e-15)
(1.66573 -0.00158576 -5.45433e-15)
(1.67036 -0.00156252 -4.68327e-15)
(1.67493 -0.00153963 -3.37699e-15)
(1.67944 -0.00151709 -2.62882e-15)
(1.68387 -0.00149489 -3.7211e-15)
(1.68824 -0.00147302 -4.21835e-15)
(1.69255 -0.00145148 -3.38777e-15)
(1.6968 -0.00143027 -4.60941e-15)
(1.70098 -0.00140938 -4.68956e-15)
(1.7051 -0.0013888 -4.51753e-15)
(1.70916 -0.00136853 -4.68568e-15)
(1.71316 -0.00134857 -5.23751e-15)
(1.7171 -0.00132891 -5.4001e-15)
(1.72099 -0.00130954 -5.19692e-15)
(1.72482 -0.00129046 -4.34148e-15)
(1.72859 -0.00127167 -3.62981e-15)
(1.73231 -0.00125316 -3.957e-15)
(1.73597 -0.00123494 -4.10413e-15)
(1.73958 -0.00121698 -3.6518e-15)
(1.74314 -0.0011993 -4.11301e-15)
(1.74664 -0.00118188 -5.57066e-15)
(1.7501 -0.00116473 -3.26315e-15)
(1.7535 -0.00114784 -3.21725e-15)
(1.75686 -0.0011312 -2.19054e-15)
(1.76016 -0.00111481 -3.59079e-15)
(1.76342 -0.00109867 -2.87863e-15)
(1.76663 -0.00108278 -2.91208e-15)
(1.7698 -0.00106712 -2.67731e-15)
(1.77291 -0.00105171 -3.34135e-15)
(1.77599 -0.00103653 -3.02975e-15)
(1.77902 -0.00102158 -2.89714e-15)
(1.782 -0.00100685 -2.42641e-15)
(1.78494 -0.000992356 -2.63783e-15)
(1.78784 -0.000978079 -2.36216e-15)
(1.7907 -0.000964019 -1.44352e-15)
(1.79352 -0.000950175 -2.09873e-15)
(1.7963 -0.000936543 -9.19993e-16)
(1.79903 -0.00092312 -1.45525e-15)
(1.80173 -0.000909904 -1.34842e-15)
(1.80439 -0.000896892 -9.08789e-16)
(1.80701 -0.000884081 1.1694e-16)
(1.80959 -0.00087147 -5.45783e-16)
(1.81214 -0.000859055 -8.54711e-16)
(1.81465 -0.000846835 -1.33212e-15)
(1.81712 -0.000834809 3.70491e-16)
(1.81956 -0.000822974 -9.48244e-16)
(1.82197 -0.00081133 -5.93691e-16)
(1.82434 -0.000799875 -1.16921e-15)
(1.82668 -0.000788609 -1.37144e-15)
(1.82898 -0.000777531 -4.62712e-16)
(1.83125 -0.000766643 -3.67453e-16)
(1.83349 -0.000755944 -4.32097e-16)
(1.8357 -0.000745437 -6.98141e-16)
(1.83788 -0.000735124 -2.09482e-15)
(1.84003 -0.000725008 -3.2172e-16)
(1.84215 -0.000715094 -7.01063e-16)
(1.84424 -0.000705386 -7.90596e-16)
(1.8463 -0.000695893 -6.14665e-16)
(1.84833 -0.000686622 -3.58441e-16)
(1.85034 -0.000677585 5.77529e-16)
(1.85232 -0.000668795 7.87545e-16)
(1.85427 -0.000660268 1.30739e-15)
(1.8562 -0.000652022 2.12917e-16)
(1.85811 -0.000644082 -2.93308e-16)
(1.85999 -0.000636473 -1.04156e-15)
(1.86186 -0.000629231 -6.70921e-16)
(1.8637 -0.000622392 -1.00792e-15)
(1.86552 -0.000616004 -3.17974e-16)
(1.86732 -0.000610123 2.55207e-16)
(1.86911 -0.000604812 3.78207e-16)
(1.87088 -0.00060015 -2.89486e-16)
(1.87264 -0.000596227 6.11583e-16)
(1.87439 -0.000593152 -3.49746e-16)
(1.87613 -0.000591052 6.4025e-16)
(1.87787 -0.000590076 2.06909e-16)
(1.87961 -0.000590403 -1.21395e-16)
(1.88134 -0.000592241 2.15439e-16)
(1.88309 -0.000595835 1.17104e-15)
(1.88485 -0.000601476 6.04306e-16)
(1.88663 -0.000609505 1.33294e-15)
(1.88844 -0.000620321 -4.33125e-16)
(1.89028 -0.000634398 5.43941e-16)
(1.89217 -0.000652288 2.72926e-17)
(1.89412 -0.000674643 -3.57798e-16)
(1.89614 -0.000702227 1.70534e-16)
(1.89826 -0.000735934 1.11226e-15)
(1.90048 -0.000776814 1.10005e-15)
(1.90283 -0.000826094 4.42753e-16)
(1.90534 -0.00088521 8.32828e-16)
(1.90804 -0.000955834 2.08808e-16)
(1.91097 -0.00103992 1.1973e-15)
(1.91417 -0.00113972 -9.50727e-17)
(1.91769 -0.00125788 -4.47262e-17)
(1.92158 -0.00139743 1.02028e-15)
(1.92592 -0.00156187 5.2769e-16)
(1.93078 -0.00175521 -5.60048e-16)
(1.93626 -0.00198204 -8.9716e-16)
(1.94247 -0.00224753 3.613e-16)
(1.94951 -0.00255753 4.97218e-17)
(1.95754 -0.00291856 -5.97228e-16)
(1.96672 -0.00333778 -6.05532e-17)
(1.97722 -0.00382296 2.54708e-16)
(1.98926 -0.00438238 1.04195e-15)
(2.00306 -0.00502459 9.15624e-16)
(2.01889 -0.00575815 1.0303e-15)
(2.03702 -0.00659114 1.91018e-19)
(2.05776 -0.00753052 8.78372e-16)
(2.08144 -0.00858132 -7.26846e-17)
(2.10838 -0.00974552 6.01081e-16)
(2.13893 -0.0110207 -8.27842e-18)
(2.17341 -0.0123985 2.87882e-16)
(2.2121 -0.0138631 1.57812e-15)
(2.25523 -0.0153892 1.31317e-15)
(2.30294 -0.016941 1.10824e-15)
(2.35526 -0.0184713 6.56266e-16)
(2.41203 -0.0199213 9.33553e-16)
(2.47294 -0.0212236 6.62184e-16)
(2.53744 -0.0223043 1.04792e-15)
(2.60478 -0.0230899 1.11692e-15)
(2.67399 -0.0235151 1.03896e-15)
(2.74391 -0.0235303 5.89515e-16)
(1.00014 -0.000568189 -7.71196e-16)
(1.00147 -0.00169332 1.36484e-15)
(1.0043 -0.00280669 5.27042e-15)
(1.00858 -0.00388364 6.71591e-15)
(1.01421 -0.00490282 2.58913e-15)
(1.02108 -0.00585089 4.14233e-15)
(1.02911 -0.00671746 -2.75347e-15)
(1.03819 -0.00749446 2.95789e-15)
(1.04819 -0.0081771 2.04747e-15)
(1.059 -0.00876381 -3.67449e-15)
(1.07049 -0.00925581 -2.33496e-15)
(1.08255 -0.00965657 -1.91235e-15)
(1.09505 -0.00997132 -5.14905e-15)
(1.1079 -0.0102065 -7.8906e-15)
(1.12099 -0.0103696 -5.73915e-15)
(1.13424 -0.0104681 -8.72124e-15)
(1.14758 -0.01051 -1.06596e-14)
(1.16093 -0.010503 -8.74577e-15)
(1.17425 -0.0104542 -1.07751e-14)
(1.18747 -0.0103706 -1.21441e-14)
(1.20056 -0.0102583 -9.50205e-15)
(1.2135 -0.010123 -1.09112e-14)
(1.22624 -0.00996964 -1.25656e-14)
(1.23878 -0.00980252 -1.03797e-14)
(1.2511 -0.00962543 -1.26115e-14)
(1.26319 -0.00944156 -1.32947e-14)
(1.27504 -0.00925361 -1.33523e-14)
(1.28665 -0.00906381 -1.43481e-14)
(1.29802 -0.008874 -1.02987e-14)
(1.30914 -0.00868565 -1.10603e-14)
(1.32003 -0.00849994 -1.25005e-14)
(1.33068 -0.00831775 -1.34001e-14)
(1.3411 -0.00813978 -1.36315e-14)
(1.3513 -0.0079665 -1.43057e-14)
(1.36128 -0.00779824 -1.08327e-14)
(1.37105 -0.0076352 -1.21174e-14)
(1.38061 -0.00747747 -1.27263e-14)
(1.38998 -0.00732505 -1.36263e-14)
(1.39916 -0.00717789 -1.3941e-14)
(1.40815 -0.00703588 -1.48365e-14)
(1.41696 -0.00689885 -1.11374e-14)
(1.4256 -0.00676664 -1.25726e-14)
(1.43407 -0.00663904 -1.34779e-14)
(1.44239 -0.00651584 -1.34768e-14)
(1.45055 -0.00639683 -1.3796e-14)
(1.45856 -0.00628178 -1.40002e-14)
(1.46642 -0.00617049 -1.39161e-14)
(1.47415 -0.00606273 -1.44421e-14)
(1.48173 -0.00595831 -1.47719e-14)
(1.48919 -0.00585703 -1.46616e-14)
(1.49652 -0.00575869 -1.44247e-14)
(1.50373 -0.00566314 -1.47834e-14)
(1.51081 -0.0055702 -1.46955e-14)
(1.51778 -0.00547971 -1.51161e-14)
(1.52463 -0.00539154 -1.48421e-14)
(1.53137 -0.00530554 -1.55107e-14)
(1.538 -0.0052216 -1.16488e-14)
(1.54453 -0.0051396 -1.20482e-14)
(1.55095 -0.00505944 -1.24931e-14)
(1.55727 -0.00498102 -1.3071e-14)
(1.5635 -0.00490425 -1.35914e-14)
(1.56962 -0.00482905 -1.34194e-14)
(1.57565 -0.00475535 -1.3483e-14)
(1.58159 -0.00468308 -1.35292e-14)
(1.58743 -0.00461218 -1.31027e-14)
(1.59319 -0.00454258 -1.40203e-14)
(1.59886 -0.00447425 -1.41756e-14)
(1.60444 -0.00440713 -1.52683e-14)
(1.60993 -0.00434118 -7.97217e-15)
(1.61535 -0.00427636 -1.00834e-14)
(1.62068 -0.00421263 -1.15167e-14)
(1.62593 -0.00414996 -1.2335e-14)
(1.6311 -0.00408832 -9.47075e-15)
(1.6362 -0.00402768 -1.04432e-14)
(1.64121 -0.00396802 -1.13609e-14)
(1.64616 -0.00390931 -1.18272e-14)
(1.65102 -0.00385153 -8.60819e-15)
(1.65582 -0.00379465 -9.69936e-15)
(1.66054 -0.00373867 -9.92232e-15)
(1.6652 -0.00368355 -1.08117e-14)
(1.66978 -0.00362929 -8.8007e-15)
(1.6743 -0.00357586 -5.83419e-15)
(1.67875 -0.00352325 -7.34352e-15)
(1.68313 -0.00347145 -8.44537e-15)
(1.68745 -0.00342044 -9.61369e-15)
(1.6917 -0.00337021 -1.03207e-14)
(1.69589 -0.00332074 -1.07483e-14)
(1.70002 -0.00327203 -1.06152e-14)
(1.70409 -0.00322405 -1.10081e-14)
(1.70809 -0.00317681 -1.14419e-14)
(1.71204 -0.00313028 -1.15742e-14)
(1.71593 -0.00308446 -1.15349e-14)
(1.71976 -0.00303934 -1.28912e-14)
(1.72354 -0.0029949 -7.04246e-15)
(1.72726 -0.00295114 -8.56105e-15)
(1.73093 -0.00290804 -9.67149e-15)
(1.73454 -0.0028656 -1.08761e-14)
(1.7381 -0.0028238 -8.00249e-15)
(1.7416 -0.00278264 -8.60887e-15)
(1.74506 -0.00274211 -1.01597e-14)
(1.74846 -0.00270219 -7.27512e-15)
(1.75182 -0.00266288 -8.77617e-15)
(1.75512 -0.00262417 -6.11487e-15)
(1.75838 -0.00258605 -8.23045e-15)
(1.76159 -0.00254851 -5.0934e-15)
(1.76475 -0.00251155 -7.19494e-15)
(1.76787 -0.00247515 -4.36778e-15)
(1.77094 -0.0024393 -6.78943e-15)
(1.77396 -0.00240401 -4.39781e-15)
(1.77695 -0.00236925 -6.10173e-15)
(1.77989 -0.00233503 -3.76325e-15)
(1.78278 -0.00230133 -5.41597e-15)
(1.78564 -0.00226815 -3.65863e-15)
(1.78845 -0.00223548 -2.14473e-15)
(1.79122 -0.00220331 -4.34421e-15)
(1.79395 -0.00217163 -2.08726e-15)
(1.79665 -0.00214045 -4.21546e-15)
(1.7993 -0.00210975 -2.5343e-15)
(1.80192 -0.00207952 -3.88567e-15)
(1.8045 -0.00204976 -9.91878e-16)
(1.80704 -0.00202047 -3.18973e-15)
(1.80954 -0.00199164 -1.27247e-15)
(1.81201 -0.00196327 -3.21203e-15)
(1.81445 -0.00193534 -1.24385e-15)
(1.81685 -0.00190786 -3.0212e-15)
(1.81921 -0.00188082 -1.0598e-15)
(1.82154 -0.00185423 -2.87052e-15)
(1.82384 -0.00182808 -5.91016e-16)
(1.82611 -0.00180236 -2.76182e-15)
(1.82834 -0.00177709 -5.89151e-16)
(1.83054 -0.00175226 -2.29992e-15)
(1.83271 -0.00172787 -6.28755e-16)
(1.83486 -0.00170393 -2.73511e-15)
(1.83697 -0.00168046 -2.08756e-16)
(1.83905 -0.00165745 -1.96026e-15)
(1.84111 -0.00163492 -3.77675e-16)
(1.84313 -0.0016129 -1.69027e-15)
(1.84513 -0.00159139 -2.0614e-16)
(1.8471 -0.00157042 5.12439e-16)
(1.84905 -0.00155002 1.20109e-15)
(1.85097 -0.00153024 2.0582e-15)
(1.85287 -0.00151111 -7.34404e-16)
(1.85474 -0.00149269 7.86219e-16)
(1.85659 -0.00147504 -1.25519e-15)
(1.85842 -0.00145824 8.13395e-16)
(1.86023 -0.00144238 -8.79207e-16)
(1.86202 -0.00142757 4.24118e-16)
(1.8638 -0.00141393 1.17901e-15)
(1.86555 -0.00140161 2.08782e-15)
(1.86729 -0.0013908 -6.94653e-17)
(1.86902 -0.00138171 1.5948e-15)
(1.87074 -0.00137458 -5.19664e-16)
(1.87245 -0.00136971 1.37785e-15)
(1.87416 -0.00136746 -6.92389e-16)
(1.87587 -0.00136822 2.69923e-16)
(1.87758 -0.00137249 1.24496e-15)
(1.87929 -0.00138084 2.31793e-15)
(1.88102 -0.00139393 3.65867e-16)
(1.88277 -0.00141256 2.23156e-15)
(1.88455 -0.00143766 -9.09292e-17)
(1.88636 -0.00147032 1.2857e-15)
(1.88822 -0.00151184 -4.41223e-16)
(1.89014 -0.00156371 7.07036e-16)
(1.89213 -0.00162771 1.44896e-15)
(1.89421 -0.00170592 2.24793e-15)
(1.8964 -0.00180078 3.43181e-15)
(1.89871 -0.00191512 6.43678e-16)
(1.90119 -0.0020523 2.25689e-15)
(1.90385 -0.00221618 2.00881e-16)
(1.90673 -0.0024113 1.60302e-15)
(1.90988 -0.00264293 -4.89211e-16)
(1.91335 -0.00291718 1.22786e-15)
(1.91719 -0.00324109 2.0076e-15)
(1.92147 -0.00362282 2.66113e-15)
(1.92627 -0.00407169 1.38385e-16)
(1.93168 -0.00459838 1.58617e-15)
(1.9378 -0.00521496 1.50242e-16)
(1.94476 -0.00593507 1.65492e-15)
(1.9527 -0.0067739 -1.25183e-16)
(1.96177 -0.0077482 1.24934e-15)
(1.97215 -0.00887618 1.70058e-15)
(1.98406 -0.0101772 2.57081e-15)
(1.99773 -0.0116715 6.4221e-16)
(2.0134 -0.0133792 2.2851e-15)
(2.03137 -0.0153195 6.32404e-16)
(2.05195 -0.0175091 2.16817e-15)
(2.07545 -0.0199603 7.37513e-16)
(2.10222 -0.0226784 1.42747e-15)
(2.13261 -0.0256585 1.68485e-15)
(2.16693 -0.0288822 2.37977e-15)
(2.2055 -0.0323128 3.18794e-15)
(2.24855 -0.0358925 1.17642e-15)
(2.29624 -0.0395373 2.69477e-15)
(2.3486 -0.0431371 1.48188e-15)
(2.40551 -0.0465535 2.79366e-15)
(2.46664 -0.0496266 1.84912e-15)
(2.53147 -0.0521807 2.53348e-15)
(2.59924 -0.0540405 2.78707e-15)
(2.66895 -0.0550491 3.22609e-15)
(2.73943 -0.0550873 2.43029e-15)
(1.00015 -0.000928354 1.87946e-16)
(1.0015 -0.0027836 2.94089e-15)
(1.00437 -0.00461125 3.16346e-15)
(1.00873 -0.00637593 9.26217e-16)
(1.01445 -0.00804666 -2.12632e-15)
(1.02144 -0.00960001 -3.09292e-16)
(1.02959 -0.0110179 -1.44873e-15)
(1.0388 -0.0122873 6.65711e-17)
(1.04895 -0.0134006 2.30588e-16)
(1.0599 -0.0143557 -1.30913e-15)
(1.07152 -0.0151549 -1.94788e-15)
(1.08371 -0.0158041 -2.04526e-15)
(1.09634 -0.0163123 -3.26878e-15)
(1.1093 -0.0166904 -4.7766e-15)
(1.12251 -0.0169505 -7.5352e-15)
(1.13586 -0.0171056 -7.12431e-15)
(1.14929 -0.0171686 -8.02509e-15)
(1.16272 -0.0171519 -9.77022e-15)
(1.17611 -0.0170678 -9.50749e-15)
(1.1894 -0.0169272 -9.49533e-15)
(1.20255 -0.0167403 -1.13866e-14)
(1.21554 -0.0165162 -1.05837e-14)
(1.22833 -0.016263 -1.07064e-14)
(1.24091 -0.0159878 -1.01658e-14)
(1.25327 -0.0156966 -1.05319e-14)
(1.26539 -0.0153945 -1.09189e-14)
(1.27726 -0.015086 -1.12129e-14)
(1.2889 -0.0147746 -1.22745e-14)
(1.30028 -0.0144632 -8.75291e-15)
(1.31142 -0.0141543 -9.30794e-15)
(1.32232 -0.0138497 -1.05331e-14)
(1.33298 -0.0135508 -1.12002e-14)
(1.3434 -0.0132588 -1.16225e-14)
(1.3536 -0.0129744 -1.23123e-14)
(1.36358 -0.0126982 -1.12693e-14)
(1.37334 -0.0124304 -1.1077e-14)
(1.38289 -0.0121712 -1.13869e-14)
(1.39224 -0.0119206 -1.17652e-14)
(1.40139 -0.0116785 -1.20612e-14)
(1.41036 -0.0114448 -1.24796e-14)
(1.41915 -0.0112192 -1.17092e-14)
(1.42775 -0.0110014 -1.14675e-14)
(1.43619 -0.0107911 -1.15877e-14)
(1.44447 -0.010588 -1.14698e-14)
(1.45258 -0.0103918 -1.18139e-14)
(1.46054 -0.0102019 -1.23371e-14)
(1.46835 -0.0100183 -1.24168e-14)
(1.47602 -0.0098404 -1.23143e-14)
(1.48355 -0.009668 -1.26824e-14)
(1.49094 -0.00950076 -1.28231e-14)
(1.4982 -0.00933837 -1.3082e-14)
(1.50534 -0.00918058 -1.31631e-14)
(1.51235 -0.00902709 -1.333e-14)
(1.51924 -0.00887768 -1.32069e-14)
(1.52601 -0.00873211 -1.31719e-14)
(1.53267 -0.00859016 -1.37595e-14)
(1.53921 -0.00845164 -1.08081e-14)
(1.54565 -0.00831636 -1.10167e-14)
(1.55198 -0.00818415 -1.12811e-14)
(1.55821 -0.00805486 -1.12932e-14)
(1.56433 -0.00792835 -1.14599e-14)
(1.57036 -0.00780447 -1.19627e-14)
(1.57628 -0.00768312 -1.21968e-14)
(1.58212 -0.00756418 -1.20435e-14)
(1.58786 -0.00744754 -1.18727e-14)
(1.59351 -0.00733313 -1.19431e-14)
(1.59906 -0.00722084 -1.24149e-14)
(1.60454 -0.0071106 -1.26679e-14)
(1.60992 -0.00700235 -1.17791e-14)
(1.61522 -0.00689601 -1.07247e-14)
(1.62044 -0.00679152 -1.03591e-14)
(1.62557 -0.00668882 -1.03992e-14)
(1.63063 -0.00658788 -9.70362e-15)
(1.63561 -0.00648862 -9.0111e-15)
(1.64051 -0.00639102 -9.13923e-15)
(1.64533 -0.00629503 -9.10305e-15)
(1.65008 -0.00620061 -8.58608e-15)
(1.65476 -0.00610773 -7.7578e-15)
(1.65937 -0.00601634 -7.8227e-15)
(1.6639 -0.00592643 -7.56852e-15)
(1.66837 -0.00583795 -8.17541e-15)
(1.67276 -0.00575088 -5.19356e-15)
(1.67709 -0.00566519 -5.76642e-15)
(1.68136 -0.00558086 -6.40398e-15)
(1.68556 -0.00549785 -6.88491e-15)
(1.68969 -0.00541616 -7.57193e-15)
(1.69376 -0.00533574 -7.83011e-15)
(1.69777 -0.00525659 -8.30846e-15)
(1.70172 -0.00517867 -8.6913e-15)
(1.70561 -0.00510198 -9.235e-15)
(1.70945 -0.00502648 -9.30508e-15)
(1.71322 -0.00495216 -9.26826e-15)
(1.71694 -0.004879 -1.00215e-14)
(1.7206 -0.00480698 -9.24976e-15)
(1.7242 -0.00473608 -8.44823e-15)
(1.72776 -0.00466629 -8.44175e-15)
(1.73125 -0.00459758 -7.9214e-15)
(1.7347 -0.00452995 -7.71215e-15)
(1.7381 -0.00446336 -7.17568e-15)
(1.74144 -0.00439782 -7.58391e-15)
(1.74473 -0.00433329 -6.70135e-15)
(1.74798 -0.00426977 -6.57475e-15)
(1.75118 -0.00420723 -5.55007e-15)
(1.75433 -0.00414567 -5.15856e-15)
(1.75743 -0.00408506 -4.26019e-15)
(1.76049 -0.0040254 -4.11288e-15)
(1.7635 -0.00396667 -3.04386e-15)
(1.76647 -0.00390885 -2.96778e-15)
(1.76939 -0.00385193 -2.56849e-15)
(1.77227 -0.0037959 -2.13418e-15)
(1.77511 -0.00374073 -1.68913e-15)
(1.77791 -0.00368643 -1.53066e-15)
(1.78066 -0.00363298 -9.53566e-16)
(1.78338 -0.00358036 -6.52194e-16)
(1.78605 -0.00352855 -8.77233e-16)
(1.78869 -0.00347756 -4.34568e-16)
(1.79129 -0.00342737 -7.08481e-17)
(1.79385 -0.00337797 5.8554e-16)
(1.79637 -0.00332934 6.02041e-16)
(1.79886 -0.00328147 1.17271e-15)
(1.80131 -0.00323437 9.99761e-16)
(1.80372 -0.00318801 1.14703e-15)
(1.8061 -0.00314239 9.96459e-16)
(1.80845 -0.0030975 1.42569e-15)
(1.81076 -0.00305334 1.44461e-15)
(1.81304 -0.0030099 1.72336e-15)
(1.81528 -0.00296718 1.80482e-15)
(1.8175 -0.00292517 2.2079e-15)
(1.81968 -0.00288387 2.17827e-15)
(1.82183 -0.00284329 2.28864e-15)
(1.82395 -0.00280342 2.21768e-15)
(1.82604 -0.00276427 2.67429e-15)
(1.82811 -0.00272586 2.53891e-15)
(1.83014 -0.00268818 3.03114e-15)
(1.83214 -0.00265126 2.65556e-15)
(1.83412 -0.00261512 2.87054e-15)
(1.83607 -0.00257979 3.04481e-15)
(1.838 -0.00254529 3.0582e-15)
(1.83989 -0.00251166 3.07209e-15)
(1.84177 -0.00247896 3.46996e-15)
(1.84362 -0.00244725 3.5856e-15)
(1.84544 -0.00241659 3.57138e-15)
(1.84725 -0.00238706 3.88384e-15)
(1.84903 -0.00235879 3.56916e-15)
(1.85079 -0.00233187 3.81103e-15)
(1.85253 -0.00230647 3.87631e-15)
(1.85425 -0.00228275 3.93406e-15)
(1.85595 -0.00226091 4.25981e-15)
(1.85764 -0.00224121 4.3027e-15)
(1.85932 -0.00222393 4.26013e-15)
(1.86098 -0.0022094 4.35071e-15)
(1.86264 -0.00219803 4.51889e-15)
(1.86428 -0.0021903 4.58478e-15)
(1.86592 -0.00218677 4.28724e-15)
(1.86757 -0.00218808 4.47288e-15)
(1.86921 -0.00219503 4.38478e-15)
(1.87086 -0.00220853 4.95602e-15)
(1.87253 -0.00222966 4.86531e-15)
(1.87421 -0.00225968 5.15272e-15)
(1.87593 -0.0023001 4.88568e-15)
(1.87767 -0.00235268 4.83719e-15)
(1.87946 -0.00241947 4.77471e-15)
(1.88131 -0.00250291 4.66719e-15)
(1.88323 -0.00260585 4.63092e-15)
(1.88524 -0.00273163 4.88751e-15)
(1.88735 -0.00288417 5.37536e-15)
(1.88959 -0.00306805 5.1792e-15)
(1.89198 -0.00328864 5.29659e-15)
(1.89455 -0.0035522 5.05041e-15)
(1.89734 -0.00386602 4.99966e-15)
(1.90039 -0.00423859 4.78702e-15)
(1.90375 -0.00467976 4.99854e-15)
(1.90748 -0.00520095 4.87223e-15)
(1.91163 -0.00581528 5.23983e-15)
(1.91629 -0.00653788 4.80335e-15)
(1.92155 -0.00738602 4.97936e-15)
(1.9275 -0.00837931 4.86508e-15)
(1.93427 -0.0095399 5.31421e-15)
(1.942 -0.0108926 5.01065e-15)
(1.95084 -0.0124647 5.11593e-15)
(1.96097 -0.0142861 5.28754e-15)
(1.9726 -0.0163888 5.46207e-15)
(1.98596 -0.0188063 5.42029e-15)
(2.00131 -0.0215722 5.723e-15)
(2.01893 -0.024719 5.26461e-15)
(2.03913 -0.0282756 5.56713e-15)
(2.06225 -0.0322642 5.41651e-15)
(2.08864 -0.0366959 5.09742e-15)
(2.11866 -0.0415658 4.98005e-15)
(2.15265 -0.0468469 5.32942e-15)
(2.19094 -0.0524831 5.66759e-15)
(2.23381 -0.0583824 5.57021e-15)
(2.28144 -0.0644096 5.84167e-15)
(2.3339 -0.0703845 5.66777e-15)
(2.3911 -0.0760773 5.69874e-15)
(2.45274 -0.0812207 5.69153e-15)
(2.51831 -0.0855158 5.77993e-15)
(2.58703 -0.0886624 5.8201e-15)
(2.65786 -0.0903879 6.03277e-15)
(2.72958 -0.0904821 5.76691e-15)
(1.00015 -0.00130711 -4.47901e-17)
(1.00154 -0.00392477 2.21931e-16)
(1.00449 -0.00649999 1.96316e-15)
(1.00897 -0.0089833 9.10964e-16)
(1.01484 -0.0113323 -2.10137e-15)
(1.022 -0.0135131 4.69201e-17)
(1.03035 -0.0154997 -2.51954e-15)
(1.03977 -0.0172742 -4.512e-16)
(1.05012 -0.0188264 -9.41373e-16)
(1.06129 -0.0201539 -3.19326e-15)
(1.07313 -0.0212607 -2.7108e-15)
(1.08552 -0.022156 -2.50961e-15)
(1.09835 -0.0228531 -4.6822e-15)
(1.11149 -0.0233678 -6.30553e-15)
(1.12486 -0.0237177 -5.49827e-15)
(1.13837 -0.0239213 -7.03393e-15)
(1.15194 -0.023997 -8.04095e-15)
(1.1655 -0.0239625 -7.57508e-15)
(1.179 -0.0238347 -8.95984e-15)
(1.19239 -0.0236292 -9.75655e-15)
(1.20563 -0.02336 -8.99371e-15)
(1.2187 -0.0230399 -1.04191e-14)
(1.23156 -0.02268 -1.11397e-14)
(1.24421 -0.0222901 -1.0082e-14)
(1.25662 -0.0218785 -1.10792e-14)
(1.26878 -0.0214522 -1.16394e-14)
(1.2807 -0.0210172 -1.21229e-14)
(1.29236 -0.0205785 -1.27265e-14)
(1.30377 -0.02014 -1.06753e-14)
(1.31493 -0.0197051 -1.11319e-14)
(1.32583 -0.0192762 -1.1753e-14)
(1.3365 -0.0188553 -1.21935e-14)
(1.34692 -0.0184439 -1.23093e-14)
(1.35711 -0.0180431 -1.29415e-14)
(1.36707 -0.0176536 -1.13577e-14)
(1.37681 -0.0172757 -1.18448e-14)
(1.38633 -0.0169098 -1.23489e-14)
(1.39565 -0.0165558 -1.26099e-14)
(1.40476 -0.0162136 -1.26606e-14)
(1.41368 -0.015883 -1.31023e-14)
(1.42241 -0.0155636 -1.16081e-14)
(1.43096 -0.0152552 -1.18475e-14)
(1.43933 -0.0149572 -1.23412e-14)
(1.44753 -0.0146692 -1.25955e-14)
(1.45556 -0.0143907 -1.28575e-14)
(1.46344 -0.0141213 -1.31631e-14)
(1.47116 -0.0138606 -1.34518e-14)
(1.47873 -0.013608 -1.33056e-14)
(1.48615 -0.0133631 -1.34562e-14)
(1.49344 -0.0131256 -1.36219e-14)
(1.50059 -0.0128949 -1.33538e-14)
(1.5076 -0.0126708 -1.35878e-14)
(1.51449 -0.0124528 -1.36502e-14)
(1.52125 -0.0122407 -1.36207e-14)
(1.52788 -0.0120341 -1.36456e-14)
(1.5344 -0.0118327 -1.41686e-14)
(1.54081 -0.0116362 -1.18924e-14)
(1.5471 -0.0114444 -1.20686e-14)
(1.55328 -0.0112571 -1.20216e-14)
(1.55935 -0.0110741 -1.21509e-14)
(1.56532 -0.0108951 -1.2363e-14)
(1.57119 -0.0107199 -1.25156e-14)
(1.57695 -0.0105484 -1.27888e-14)
(1.58262 -0.0103805 -1.27144e-14)
(1.58819 -0.010216 -1.27593e-14)
(1.59367 -0.0100547 -1.29648e-14)
(1.59906 -0.00989652 -1.3092e-14)
(1.60436 -0.00974138 -1.33583e-14)
(1.60957 -0.00958917 -1.22151e-14)
(1.61469 -0.00943977 -9.56094e-15)
(1.61973 -0.00929311 -1.08112e-14)
(1.62469 -0.00914909 -8.65188e-15)
(1.62957 -0.00900764 -1.01761e-14)
(1.63436 -0.00886869 -7.85159e-15)
(1.63908 -0.00873216 -9.59496e-15)
(1.64373 -0.00859801 -7.20318e-15)
(1.64829 -0.00846616 -8.71176e-15)
(1.65279 -0.00833657 -6.35131e-15)
(1.65721 -0.00820917 -7.86641e-15)
(1.66156 -0.00808392 -5.84551e-15)
(1.66585 -0.00796077 -7.56029e-15)
(1.67006 -0.00783968 -6.29493e-15)
(1.67421 -0.00772061 -6.84789e-15)
(1.67829 -0.00760351 -7.21476e-15)
(1.68231 -0.00748834 -7.5473e-15)
(1.68627 -0.00737506 -8.19102e-15)
(1.69016 -0.00726365 -8.54087e-15)
(1.69399 -0.00715406 -8.85961e-15)
(1.69776 -0.00704626 -9.25582e-15)
(1.70147 -0.00694021 -9.5126e-15)
(1.70513 -0.0068359 -9.89267e-15)
(1.70873 -0.00673327 -1.00955e-14)
(1.71227 -0.00663231 -1.0422e-14)
(1.71576 -0.00653299 -9.55346e-15)
(1.71919 -0.00643527 -7.07745e-15)
(1.72257 -0.00633913 -8.57326e-15)
(1.7259 -0.00624454 -6.23571e-15)
(1.72918 -0.00615148 -7.82174e-15)
(1.7324 -0.00605991 -5.64665e-15)
(1.73558 -0.00596982 -7.23574e-15)
(1.73871 -0.00588117 -5.626e-15)
(1.74179 -0.00579395 -4.38254e-15)
(1.74483 -0.00570812 -3.62082e-15)
(1.74782 -0.00562367 -2.66026e-15)
(1.75076 -0.00554057 -1.90282e-15)
(1.75366 -0.0054588 -1.3338e-15)
(1.75652 -0.00537834 -6.00787e-16)
(1.75933 -0.00529917 -1.38599e-16)
(1.7621 -0.00522126 1.58755e-16)
(1.76483 -0.00514459 5.51364e-16)
(1.76751 -0.00506914 1.10687e-15)
(1.77016 -0.0049949 1.57867e-15)
(1.77277 -0.00492185 7.97393e-16)
(1.77534 -0.00484996 1.45696e-15)
(1.77787 -0.00477921 1.92534e-15)
(1.78036 -0.0047096 2.15887e-15)
(1.78282 -0.0046411 2.77646e-15)
(1.78524 -0.00457369 3.35728e-15)
(1.78762 -0.00450736 3.53921e-15)
(1.78997 -0.0044421 3.82246e-15)
(1.79229 -0.00437789 3.98952e-15)
(1.79457 -0.00431472 4.13802e-15)
(1.79682 -0.00425257 4.33352e-15)
(1.79903 -0.00419144 4.51537e-15)
(1.80121 -0.00413131 4.7768e-15)
(1.80336 -0.00407218 4.9509e-15)
(1.80548 -0.00401403 5.01345e-15)
(1.80757 -0.00395688 5.24135e-15)
(1.80963 -0.00390071 5.23552e-15)
(1.81166 -0.00384551 5.46347e-15)
(1.81366 -0.00379131 5.78432e-15)
(1.81563 -0.0037381 5.73482e-15)
(1.81758 -0.00368589 5.98983e-15)
(1.81949 -0.00363471 6.15836e-15)
(1.82138 -0.00358456 6.06325e-15)
(1.82325 -0.00353548 6.12757e-15)
(1.82508 -0.0034875 6.48654e-15)
(1.8269 -0.00344067 5.12899e-15)
(1.82868 -0.00339503 5.5962e-15)
(1.83045 -0.00335067 5.91943e-15)
(1.83219 -0.00330764 6.29404e-15)
(1.83391 -0.00326606 6.60707e-15)
(1.83561 -0.00322604 7.05386e-15)
(1.83728 -0.00318771 7.05668e-15)
(1.83894 -0.00315125 7.10674e-15)
(1.84058 -0.00311684 7.44144e-15)
(1.8422 -0.00308473 7.40091e-15)
(1.84381 -0.0030552 7.35153e-15)
(1.8454 -0.00302857 7.42993e-15)
(1.84697 -0.00300524 7.47147e-15)
(1.84854 -0.00298567 7.71476e-15)
(1.8501 -0.0029704 7.58685e-15)
(1.85165 -0.00296009 7.95455e-15)
(1.85319 -0.00295549 7.82432e-15)
(1.85474 -0.00295751 7.88071e-15)
(1.85629 -0.0029672 7.9257e-15)
(1.85785 -0.00298581 8.16277e-15)
(1.85942 -0.00301482 8.19738e-15)
(1.86101 -0.00305595 8.19114e-15)
(1.86262 -0.00311125 8.18271e-15)
(1.86427 -0.00318311 8.2695e-15)
(1.86596 -0.00327435 8.5683e-15)
(1.86771 -0.00338828 7.17987e-15)
(1.86952 -0.0035288 7.52489e-15)
(1.87142 -0.00370046 7.83821e-15)
(1.87342 -0.00390861 8.06148e-15)
(1.87554 -0.00415951 8.18593e-15)
(1.87781 -0.0044605 8.29178e-15)
(1.88025 -0.00482013 8.3035e-15)
(1.8829 -0.00524839 8.38845e-15)
(1.88581 -0.0057569 8.30793e-15)
(1.88901 -0.00635918 8.29696e-15)
(1.89256 -0.00707086 8.36059e-15)
(1.89652 -0.00791002 8.48823e-15)
(1.90097 -0.00889746 8.38075e-15)
(1.906 -0.010057 8.55151e-15)
(1.9117 -0.0114158 8.63309e-15)
(1.91819 -0.0130045 8.67436e-15)
(1.9256 -0.0148576 8.76936e-15)
(1.9341 -0.0170135 8.77939e-15)
(1.94385 -0.0195139 8.68762e-15)
(1.95506 -0.0224043 8.65806e-15)
(1.96796 -0.0257322 8.63437e-15)
(1.98281 -0.0295464 8.67468e-15)
(1.99989 -0.0338947 8.58019e-15)
(2.01952 -0.0388206 8.56341e-15)
(2.04205 -0.0443594 8.81073e-15)
(2.06785 -0.050532 7.73645e-15)
(2.09729 -0.0573382 8.01883e-15)
(2.13075 -0.0647477 8.27389e-15)
(2.1686 -0.0726891 8.35457e-15)
(2.21116 -0.0810412 8.36473e-15)
(2.25867 -0.0896189 8.15411e-15)
(2.31125 -0.0981719 8.27175e-15)
(2.36888 -0.106371 8.36378e-15)
(2.43129 -0.113832 8.31221e-15)
(2.49799 -0.120109 8.36162e-15)
(2.56819 -0.124755 8.17773e-15)
(2.6408 -0.12735 8.16326e-15)
(2.71449 -0.127563 7.8433e-15)
(1.00016 -0.00170623 -1.38797e-18)
(1.00159 -0.00512507 -3.24148e-16)
(1.00466 -0.00848603 -1.5364e-15)
(1.0093 -0.0117228 -1.35876e-15)
(1.01537 -0.0147795 -2.36001e-15)
(1.02278 -0.0176111 -2.5259e-15)
(1.0314 -0.0201836 -2.78408e-15)
(1.04111 -0.0224739 -2.80538e-15)
(1.05176 -0.02447 -2.63602e-15)
(1.06323 -0.0261699 -2.52784e-15)
(1.07536 -0.0275803 -2.7823e-15)
(1.08803 -0.0287144 -3.14573e-15)
(1.10112 -0.0295907 -3.70558e-15)
(1.11452 -0.0302309 -4.24919e-15)
(1.12812 -0.0306587 -3.36951e-15)
(1.14184 -0.0308985 -4.35533e-15)
(1.1556 -0.0309746 -5.11702e-15)
(1.16933 -0.0309102 -5.7178e-15)
(1.18299 -0.0307273 -6.19642e-15)
(1.19652 -0.030446 -6.6214e-15)
(1.20988 -0.0300844 -7.07164e-15)
(1.22306 -0.0296587 -7.57999e-15)
(1.23601 -0.0291831 -7.65551e-15)
(1.24874 -0.0286699 -8.95925e-15)
(1.26121 -0.0281297 -8.79137e-15)
(1.27344 -0.0275714 -8.69065e-15)
(1.2854 -0.0270025 -8.65464e-15)
(1.29709 -0.0264292 -8.91355e-15)
(1.30852 -0.0258565 -8.72361e-15)
(1.31969 -0.0252885 -8.68784e-15)
(1.3306 -0.0247284 -8.55061e-15)
(1.34126 -0.0241787 -8.67764e-15)
(1.35166 -0.0236411 -8.74416e-15)
(1.36182 -0.0231171 -9.02212e-15)
(1.37175 -0.0226075 -8.87046e-15)
(1.38144 -0.0221129 -8.99252e-15)
(1.3909 -0.0216336 -9.04919e-15)
(1.40015 -0.0211695 -8.95629e-15)
(1.40919 -0.0207207 -9.04705e-15)
(1.41802 -0.0202867 -9.26078e-15)
(1.42665 -0.0198672 -9.1345e-15)
(1.43509 -0.0194618 -8.93971e-15)
(1.44335 -0.0190699 -8.97728e-15)
(1.45143 -0.018691 -9.10805e-15)
(1.45933 -0.0183245 -9.18339e-15)
(1.46707 -0.0179698 -9.36929e-15)
(1.47464 -0.0176265 -9.40656e-15)
(1.48206 -0.0172938 -9.35235e-15)
(1.48932 -0.0169713 -9.53999e-15)
(1.49644 -0.0166585 -9.72934e-15)
(1.50341 -0.0163547 -9.55603e-15)
(1.51024 -0.0160597 -9.58216e-15)
(1.51694 -0.0157729 -9.73894e-15)
(1.5235 -0.0154939 -9.70021e-15)
(1.52994 -0.0152222 -9.89394e-15)
(1.53626 -0.0149576 -1.01128e-14)
(1.54245 -0.0146997 -8.43231e-15)
(1.54853 -0.0144481 -8.71834e-15)
(1.5545 -0.0142026 -8.71462e-15)
(1.56035 -0.0139628 -8.83458e-15)