/*--------------------------------*- C++ -*----------------------------------*\
  =========                 |
  \\      /  F ield         | OpenFOAM: The Open Source CFD Toolbox
   \\    /   O peration     | Website:  https://openfoam.org
    \\  /    A nd           | Version:  7
     \\/     M anipulation  |
\*---------------------------------------------------------------------------*/
FoamFile
{
    version     2.0;
    format      ascii;
    class       surfaceScalarField;
    location    "9";
    object      phi;
}
// * * * * * * * * * * * * * * * * * * * * * * * * * * * * * * * * * * * * * //

dimensions      [0 3 -1 0 0 0 0];

internalField   nonuniform List<scalar> 
815
(
-0.0001592
5.14615e-05
-0.000171894
5.40529e-05
-0.00018526
5.70099e-05
-0.000199324
6.03887e-05
-0.0002141
6.43487e-05
-0.000229579
6.77337e-05
6.8331e-05
-0.000245767
-8.16887e-05
5.08223e-05
-8.95878e-05
5.01652e-05
-9.72153e-05
5.0406e-05
-0.00010507
5.13242e-05
-0.000113432
5.27847e-05
-0.000122425
5.46833e-05
-0.000132091
5.69504e-05
-0.000142433
5.95496e-05
-0.000153439
6.24671e-05
-0.000165095
6.57092e-05
-0.000177389
6.93036e-05
-0.000190313
7.33133e-05
-0.000203868
7.79036e-05
-0.000218033
8.18994e-05
8.31179e-05
-0.00023282
-0.000105537
-0.000102753
4.7382e-05
-0.000103077
5.073e-05
-0.000106022
5.42689e-05
-0.000111046
5.78085e-05
-0.000117669
6.13065e-05
-0.000125514
6.47956e-05
-0.000134302
6.83381e-05
-0.000143841
7.20066e-05
-0.000154007
7.58752e-05
-0.000164724
8.00202e-05
-0.000175949
8.45391e-05
-0.000187666
8.96203e-05
-0.000199845
9.40785e-05
9.57778e-05
-0.000212505
-8.1406e-05
5.13708e-05
-8.66262e-05
5.59504e-05
-9.26946e-05
6.03374e-05
-9.93848e-05
6.44987e-05
-0.000106557
6.84787e-05
-0.000114121
7.236e-05
-0.000122022
7.62386e-05
-0.000130224
8.02085e-05
-0.000138705
8.4357e-05
-0.000147455
8.87695e-05
-0.000156466
9.35504e-05
-0.000165741
9.88956e-05
-0.000175264
0.000103601
0.000105591
-0.000185077
-5.87211e-05
6.32162e-05
-6.92175e-05
6.64467e-05
-7.84073e-05
6.95273e-05
-8.653e-05
7.26214e-05
-9.38743e-05
7.58229e-05
-0.000100702
7.91878e-05
-0.000107216
8.27528e-05
-0.000113556
8.6548e-05
-0.000119806
9.06074e-05
-0.000126015
9.49778e-05
-0.000132205
9.97405e-05
-0.000138391
0.000105082
-0.000144565
0.000109775
0.000111828
-0.000150803
-5.83347e-05
-6.63437e-05
7.44558e-05
-7.28141e-05
7.5998e-05
-7.82136e-05
7.8021e-05
-8.28811e-05
8.04905e-05
-8.70484e-05
8.33551e-05
-9.08587e-05
8.65632e-05
-9.43873e-05
9.00768e-05
-9.76607e-05
9.38811e-05
-0.000100676
9.79929e-05
-0.000103415
0.00010248
-0.000105863
0.000107529
-0.000107992
0.000111905
0.000113739
-0.000109903
-7.49946e-05
7.18695e-05
-7.33433e-05
7.43466e-05
-7.24999e-05
7.71778e-05
-7.22352e-05
8.02259e-05
-7.22967e-05
8.34167e-05
-7.24469e-05
8.67135e-05
-7.24782e-05
9.01082e-05
-7.22159e-05
9.36189e-05
-7.15157e-05
9.72928e-05
-7.02608e-05
0.000101225
-6.83623e-05
0.000105631
-6.57521e-05
0.000109295
0.000110528
-6.25413e-05
-6.8306e-05
-6.28248e-05
6.88654e-05
-5.88146e-05
7.31679e-05
-5.5673e-05
7.70844e-05
-5.28964e-05
8.06404e-05
-5.00798e-05
8.38972e-05
-4.69022e-05
8.69309e-05
-4.3109e-05
8.98257e-05
-3.84941e-05
9.26779e-05
-3.28854e-05
9.56163e-05
-2.61227e-05
9.88681e-05
-1.79929e-05
0.000101165
0.000100821
-8.28572e-06
-3.59956e-05
-3.43932e-05
7.15657e-05
-3.18443e-05
7.45355e-05
-2.82765e-05
7.70729e-05
-2.36079e-05
7.92289e-05
-1.77395e-05
8.10628e-05
-1.05573e-05
8.26439e-05
-1.93882e-06
8.40598e-05
8.23868e-06
8.5439e-05
2.00876e-05
8.70193e-05
3.3724e-05
8.75284e-05
8.5363e-05
4.91818e-05
-1.00878e-05
7.11431e-05
-7.26868e-06
7.17166e-05
-2.29264e-06
7.20969e-05
4.69859e-06
7.22377e-05
1.36564e-05
7.21046e-05
2.46074e-05
7.16926e-05
3.76264e-05
7.10409e-05
5.28083e-05
7.02572e-05
7.02391e-05
6.95888e-05
8.99948e-05
6.77728e-05
6.34145e-05
0.000111944
7.16782e-06
1.37247e-05
6.51599e-05
2.23894e-05
6.34325e-05
3.31995e-05
6.14279e-05
4.6261e-05
5.90435e-05
6.17244e-05
5.62295e-05
7.97616e-05
5.30039e-05
0.00010054
4.94787e-05
0.000124193
4.59356e-05
0.000150808
4.11579e-05
3.40244e-05
0.000180199
3.28795e-05
4.66521e-05
4.96597e-05
6.22678e-05
4.58121e-05
8.01644e-05
4.11468e-05
0.000100736
3.56578e-05
0.000124337
2.94028e-05
0.000151274
2.25425e-05
0.000181778
1.54311e-05
0.000215997
6.93972e-06
-3.70886e-06
0.00025373
7.42526e-05
9.39861e-05
2.60786e-05
0.000116487
1.86462e-05
0.000142213
9.93149e-06
0.000171605
1.06289e-08
0.000205069
-1.09218e-05
0.00024294
-2.24398e-05
0.00028544
-3.55597e-05
-5.06326e-05
0.000332363
0.000128476
0.000155487
-8.36512e-06
0.000186424
-2.10048e-05
0.000221772
-3.53376e-05
0.00026204
-5.11893e-05
0.000307694
-6.80937e-05
0.000359086
-8.69513e-05
-0.000107589
0.000416043
0.000197401
0.000233749
-5.73524e-05
0.000275208
-7.67967e-05
0.000322456
-9.84379e-05
0.000376178
-0.000121815
0.00043696
0.000284894
0.000332549
-0.000124452
0.000386825
-0.000273993
0.000173935
-0.000293157
0.000192418
-0.000303596
0.000213446
-0.000303678
0.000230511
-0.000293739
0.000242564
-0.000274166
0.000246852
-0.000245433
0.000239842
-0.000208564
0.000219696
-0.000164256
0.000182333
-0.000113177
0.000126562
-5.60487e-05
5.00451e-05
6.60154e-06
-4.82156e-05
7.39582e-05
-0.000167861
0.000145858
-0.000307497
0.000221801
-0.000464785
0.000301377
-0.000635239
-0.000812911
-0.000258979
0.000200094
-0.000275989
0.000209428
-0.00028455
0.000222008
-0.000282987
0.000228948
-0.000271659
0.000231236
-0.000250964
0.000226157
-0.00022126
0.000210138
-0.000183677
0.000182113
-0.000138835
0.000137491
-8.74026e-05
7.51296e-05
-3.01445e-05
-7.21307e-06
3.23558e-05
-0.000110716
9.93029e-05
-0.000234808
0.000170511
-0.000378705
0.000245471
-0.000539745
0.000323766
-0.000713534
-0.000894214
-0.000236036
0.000223626
-0.000250167
0.000223558
-0.000256288
0.000228129
-0.000252586
0.000225246
-0.000239507
0.000218156
-0.000217475
0.000204125
-0.00018666
0.000179322
-0.000148348
0.000143801
-0.000103065
9.22078e-05
-5.1375e-05
2.34398e-05
6.4252e-06
-6.50133e-05
6.78242e-05
-0.000172115
0.000134064
-0.000301047
0.000204272
-0.000448914
0.000277924
-0.000613397
0.000354604
-0.000790214
-0.000973597
-0.000205453
0.000244002
-0.000216024
0.000234129
-0.000219167
0.000231273
-0.000212866
0.000218945
-0.000197703
0.000202994
-0.000174155
0.000180577
-0.000142094
0.000147261
-0.000103044
0.000104752
-5.74149e-05
4.65783e-05
-4.60674e-06
-2.93684e-05
5.11982e-05
-0.000120818
0.000112402
-0.000233319
0.0001777
-0.000366345
0.000246606
-0.000517819
0.000318634
-0.000685426
0.000393379
-0.000864959
-0.00105074
-0.000167515
0.000260714
-0.000173927
0.00024054
-0.000173592
0.000230938
-0.000164271
0.000209624
-0.00014673
0.000185452
-0.000121539
0.000155386
-8.80777e-05
0.000113799
-4.82278e-05
6.49024e-05
-9.12683e-08
-1.55835e-06
4.92579e-05
-7.87176e-05
0.000105191
-0.000176751
0.000165494
-0.000293622
0.000229543
-0.000430394
0.000296851
-0.000585128
0.000366953
-0.000755527
0.000439457
-0.000937463
-0.00112535
-0.000122395
0.000273206
-0.000124209
0.000242354
-0.000119939
0.000226669
-0.000107238
0.000196923
-8.70166e-05
0.000165231
-6.01403e-05
0.00012851
-2.46449e-05
7.83038e-05
1.75553e-05
2.27022e-05
6.09619e-05
-4.49651e-05
0.000112002
-0.000129758
0.000167119
-0.000231868
0.000226303
-0.000352806
0.000288817
-0.000492908
0.000354235
-0.000650546
0.000422117
-0.000823409
0.000492095
-0.00100744
-0.00119714
-6.96626e-05
0.000280328
-6.68527e-05
0.000239544
-5.81952e-05
0.000218012
-4.16566e-05
0.000180385
-1.76331e-05
0.000141207
1.52598e-05
9.56171e-05
4.63507e-05
4.72129e-05
8.58443e-05
-1.67915e-05
0.000131543
-9.06642e-05
0.000182152
-0.000180366
0.000236211
-0.000285927
0.000293948
-0.000410544
0.000354645
-0.000553604
0.000417888
-0.000713789
0.000483269
-0.00088879
0.000550454
-0.00107463
-0.00126588
-2.31694e-06
0.000274359
3.94383e-06
0.000233284
1.84152e-05
0.00020354
3.46725e-05
0.000164127
5.68178e-05
0.000119062
8.58776e-05
6.65573e-05
0.000122467
1.06236e-05
0.00016336
-5.76851e-05
0.000209283
-0.000136587
0.00025844
-0.000229524
0.000311463
-0.000338949
0.000367478
-0.000466559
0.000426072
-0.000612198
0.000486861
-0.000774579
0.000549477
-0.000951406
0.000613619
-0.00113877
-0.00133133
5.84568e-05
0.000265084
6.87653e-05
0.000222976
8.52542e-05
0.000187052
0.000107768
0.000141614
0.000135606
9.12244e-05
0.000167989
3.4174e-05
0.00020566
-2.70469e-05
0.000246976
-9.90014e-05
0.000292408
-0.000182019
0.000340449
-0.000277564
0.000391853
-0.000390354
0.000445871
-0.000520576
0.00050208
-0.000668407
0.000560147
-0.000832646
0.000619747
-0.00101101
0.00068062
-0.00119964
-0.0013933
0.000122514
0.000254514
0.000140821
0.00020467
0.000163366
0.000164507
0.000190448
0.000114531
0.000221387
6.02858e-05
0.000255895
-3.33724e-07
0.000294316
-6.54675e-05
0.000336041
-0.000140727
0.00037978
-0.000225758
0.000426822
-0.000324606
0.000476345
-0.000439877
0.000528062
-0.000572293
0.000581608
-0.000721953
0.000636694
-0.000887732
0.000693044
-0.00106736
0.000750444
-0.00125704
-0.00145162
0.000195996
0.000238717
0.000220336
0.000180331
0.000247919
0.000136925
0.000278667
8.37834e-05
0.000312538
2.64148e-05
0.000348546
-3.63408e-05
0.0003875
-0.000104422
0.000428588
-0.000181815
0.000471206
-0.000268376
0.000516484
-0.000369883
0.000563835
-0.000487229
0.000612955
-0.000621414
0.000663566
-0.000772563
0.000715426
-0.000939593
0.000768312
-0.00112024
0.000822058
-0.00131079
0.00087658
-0.00150614
-0.00169987
0.000275471
0.000216976
0.000305396
0.000150407
0.000337569
0.000104752
0.000371883
4.9469e-05
0.000407918
-9.61998e-06
0.0004451
-7.35225e-05
0.000484358
-0.000143679
0.000523761
-0.000221218
0.000565162
-0.000309777
0.000608375
-0.000413097
0.000653211
-0.000532065
0.00069944
-0.000667643
0.000746852
-0.000819975
0.000795258
-0.000987998
0.000844487
-0.00116947
0.000894426
-0.00136073
0.000945039
-0.00155676
-0.00175123
0.000360322
0.000189017
0.000395508
0.000115221
0.000431779
6.84811e-05
0.000469396
1.18515e-05
0.000506943
-4.71671e-05
0.000544962
-0.00011154
0.000583167
-0.000181885
0.000621064
-0.000259116
0.000660575
-0.000349287
0.000701368
-0.00045389
0.000743355
-0.000574052
0.000786405
-0.000710693
0.000830368
-0.000863938
0.00087511
-0.00103274
0.000920513
-0.00121487
0.000966519
-0.00140673
0.00101314
-0.00160338
-0.00179859
0.000450411
0.000490181
0.000530882
0.000570386
0.000608867
0.000646869
-0.000149543
0.000683153
-0.000218168
0.000719246
-0.000295209
0.00075637
-0.000386411
0.000794344
-0.000491864
0.000833155
-0.000612863
0.000872748
-0.000750286
0.000913031
-0.000904222
0.000953923
-0.00107363
0.00099536
-0.00125631
0.00103734
-0.00144871
0.00107992
-0.00164597
-0.00184195
0.000749843
0.000783163
0.000817157
0.000851429
0.000886191
0.000921509
0.000957386
0.000993784
0.00103067
0.00106803
0.00110592
0.00114445
)
;

boundaryField
{
    inlet
    {
        type            calculated;
        value           nonuniform 0();
    }
    outlet
    {
        type            calculated;
        value           nonuniform 0();
    }
    cylinder
    {
        type            calculated;
        value           nonuniform 0();
    }
    top
    {
        type            symmetryPlane;
        value           nonuniform 0();
    }
    bottom
    {
        type            symmetryPlane;
        value           nonuniform 0();
    }
    defaultFaces
    {
        type            empty;
        value           nonuniform 0();
    }
    procBoundary22to16
    {
        type            processor;
        value           nonuniform List<scalar> 
33
(
-4.17395e-05
-4.22658e-05
-4.27781e-05
-4.34689e-05
-4.44227e-05
-4.56898e-05
-4.72842e-05
0.000147134
-4.92073e-05
-3.93955e-05
-4.13588e-05
-4.3643e-05
-4.63246e-05
-4.9572e-05
-5.22537e-05
-5.21419e-05
-0.000145708
-0.000173254
-0.000203006
-0.000230427
-0.000252503
-0.000266426
-0.000268572
-0.000256566
-0.000226641
-0.000177641
-0.000107172
-1.44356e-05
0.000100504
0.000235597
0.000388842
0.000555663
0.000730023
)
;
    }
    procBoundary22to21
    {
        type            processor;
        value           nonuniform List<scalar> 
16
(
7.26058e-05
0.000111881
4.44774e-05
7.74165e-05
4.68753e-05
4.8188e-05
7.33633e-05
7.75813e-05
7.59588e-05
6.42166e-05
3.67351e-05
6.81265e-05
1.05108e-05
-2.77742e-06
6.6753e-05
-2.04598e-05
)
;
    }
    procBoundary22to23
    {
        type            processor;
        value           nonuniform List<scalar> 
16
(
0.000384265
0.00040507
0.000433986
0.000470522
0.000514064
0.000563892
0.000619191
0.000679072
0.00074259
0.000808761
0.00164455
0.000931903
0.000996399
0.0010605
0.00112328
0.00118384
)
;
    }
    procBoundary22to27
    {
        type            processor;
        value           nonuniform List<scalar> 
11
(
5.27407e-05
-5.68105e-05
3.22181e-05
-0.000104955
2.55875e-06
-0.000165554
-4.02121e-05
-0.000242943
-9.93026e-05
-0.000341001
-0.0001783
)
;
    }
    procBoundary22to28
    {
        type            processor;
        value           nonuniform List<scalar> 
26
(
-0.000147734
-0.000175399
0.00050477
-0.000152714
0.000448714
-0.000183703
0.000394851
0.000154651
7.54496e-05
2.77793e-05
-2.76515e-05
-8.56467e-05
-0.00071319
-0.000186196
-0.000251489
-0.000329202
-0.00042068
-0.000526627
-0.00064818
-0.000786164
-0.000940619
-0.00111052
-0.00129367
-0.0014866
-0.0016845
-0.00188134
)
;
    }
}


// ************************************************************************* //
