/*--------------------------------*- C++ -*----------------------------------*\
  =========                 |
  \\      /  F ield         | OpenFOAM: The Open Source CFD Toolbox
   \\    /   O peration     | Website:  https://openfoam.org
    \\  /    A nd           | Version:  7
     \\/     M anipulation  |
\*---------------------------------------------------------------------------*/
FoamFile
{
    version     2.0;
    format      ascii;
    class       volScalarField;
    location    "28.000462";
    object      p;
}
// * * * * * * * * * * * * * * * * * * * * * * * * * * * * * * * * * * * * * //

dimensions      [0 2 -2 0 0 0 0];

internalField   nonuniform List<scalar> 
5800
(
-0.288503
-0.292694
-0.295145
-0.296497
-0.297056
-0.296794
-0.295718
-0.293856
-0.291222
-0.287829
0.82075
0.781722
0.754065
0.731483
0.7104
0.690151
0.669892
0.648926
0.626905
0.603763
0.579628
0.82075
0.781722
0.754065
0.731483
0.7104
0.690151
0.669892
0.648926
0.626905
0.603763
0.579628
0.554758
0.529463
0.504062
0.478851
0.454081
0.429957
0.406639
0.384259
0.362885
0.816222
0.777374
0.749866
0.727442
0.706544
0.686505
0.666475
0.645749
0.623973
0.601071
0.577168
0.552515
0.527424
0.502211
0.477171
0.452557
0.428577
0.405389
0.383119
0.361869
0.8072
0.768711
0.7415
0.71939
0.698861
0.679238
0.659663
0.639417
0.618128
0.595705
0.572262
0.548044
0.523357
0.498517
0.47382
0.449519
0.425825
0.402894
0.380845
0.359843
0.793752
0.7558
0.729031
0.707388
0.687405
0.668402
0.649505
0.629971
0.609405
0.587696
0.56494
0.541369
0.517285
0.493002
0.468815
0.44498
0.421714
0.399168
0.377447
0.356814
0.775978
0.738737
0.712552
0.691525
0.672262
0.654074
0.636068
0.617472
0.597861
0.577093
0.555243
0.532528
0.509242
0.485695
0.462182
0.438965
0.416264
0.394228
0.372942
0.352796
0.754012
0.717652
0.692189
0.67192
0.653541
0.636356
0.619445
0.602004
0.583569
0.563961
0.543229
0.521572
0.499271
0.476634
0.453957
0.431503
0.409502
0.388099
0.367352
0.347804
0.728018
0.692703
0.668095
0.648719
0.63138
0.615372
0.599748
0.583667
0.566617
0.548379
0.528968
0.508561
0.487427
0.465869
0.444181
0.422633
0.401461
0.380808
0.360701
0.341859
0.698188
0.66408
0.640451
0.622095
0.605939
0.59127
0.577112
0.56258
0.547112
0.530441
0.512544
0.49357
0.473775
0.453456
0.432906
0.412398
0.392181
0.372392
0.353021
0.334985
0.664745
0.631995
0.609465
0.592245
0.577404
0.56422
0.551691
0.538882
0.525177
0.510255
0.494051
0.476683
0.45839
0.43946
0.420188
0.40085
0.381705
0.362888
0.344347
0.327207
0.627935
0.59669
0.575368
0.559389
0.54598
0.534413
0.523656
0.512727
0.500948
0.487943
0.473596
0.457994
0.441354
0.423956
0.406092
0.388044
0.370083
0.352342
0.334717
0.318556
0.588029
0.558425
0.538414
0.52377
0.511894
0.502057
0.493197
0.484284
0.474577
0.463637
0.451297
0.437607
0.422759
0.407023
0.390689
0.374044
0.357369
0.340799
0.324172
0.309061
0.545318
0.517484
0.498876
0.485649
0.475391
0.467377
0.460518
0.453737
0.446227
0.437483
0.427282
0.415634
0.402704
0.388749
0.374057
0.358916
0.343622
0.328311
0.312754
0.298754
0.500114
0.474166
0.457044
0.445302
0.436732
0.430614
0.42584
0.421284
0.416073
0.409636
0.401689
0.392196
0.381295
0.369228
0.356277
0.342732
0.328905
0.314932
0.300511
0.287665
0.452741
0.428788
0.413223
0.403021
0.396191
0.392023
0.389393
0.387132
0.384301
0.380259
0.374661
0.367421
0.358645
0.348559
0.337436
0.32557
0.313284
0.30072
0.28749
0.275826
0.403539
0.381675
0.367729
0.35911
0.354054
0.351868
0.35142
0.351499
0.351106
0.349526
0.346351
0.341443
0.334873
0.326845
0.317626
0.307508
0.296827
0.285732
0.27374
0.263265
0.352854
0.333165
0.320889
0.313881
0.310615
0.310424
0.31217
0.314612
0.316689
0.317616
0.316917
0.314402
0.310101
0.304196
0.296944
0.288632
0.279609
0.270035
0.259314
0.250009
0.301041
0.283598
0.273031
0.267651
0.266175
0.26797
0.271902
0.276704
0.281259
0.284714
0.286524
0.286442
0.284457
0.280724
0.275487
0.269029
0.261706
0.253696
0.244275
0.236066
0.248457
0.233318
0.22449
0.22074
0.221039
0.22479
0.230876
0.238012
0.245029
0.251009
0.255339
0.257711
0.258071
0.256545
0.25336
0.24879
0.243198
0.236788
0.228685
0.221413
0.195458
0.182669
0.175598
0.173468
0.17551
0.181172
0.189358
0.198776
0.208215
0.216693
0.223531
0.228359
0.231076
0.231776
0.230666
0.22801
0.224167
0.219375
0.212602
0.20603
0.142397
0.13199
0.126683
0.126153
0.129892
0.137398
0.14761
0.159237
0.171034
0.181961
0.191274
0.19854
0.203608
0.206536
0.207512
0.206788
0.204699
0.201523
0.196271
0.190143
0.0896211
0.0816127
0.078067
0.0791056
0.084482
0.09375
0.105894
0.119635
0.133703
0.147007
0.158739
0.168405
0.1758
0.180945
0.184006
0.185224
0.184902
0.183403
0.180597
0.176049
0.0374659
0.0318572
0.0300609
0.0326266
0.0395687
0.0505031
0.0644668
0.0802065
0.0964373
0.112024
0.126098
0.138106
0.147787
0.155121
0.16025
0.163403
0.164849
0.164941
0.164109
0.161615
-0.0137395
-0.0169721
-0.0170387
-0.0129951
-0.00456881
0.00792286
0.0235795
0.0411842
0.0594486
0.0772019
0.0935223
0.107794
0.119703
0.129182
0.136344
0.141407
0.144611
0.14625
0.147029
0.146597
-0.0636859
-0.0645857
-0.062952
-0.0574859
-0.0476652
-0.0337359
-0.0165272
0.00279262
0.0229431
0.0427282
0.0611776
0.0776178
0.0916769
0.103242
0.112392
0.119327
0.12427
0.127466
0.129725
0.131045
-0.112179
-0.110656
-0.107409
-0.10059
-0.0894714
-0.074232
-0.0556232
-0.0347524
-0.0128796
0.00878406
0.0292274
0.0477219
0.0638391
0.0774167
0.0884967
0.097256
0.103906
0.108665
0.112364
0.115198
-0.158818
-0.155022
-0.150173
-0.142069
-0.129758
-0.11334
-0.0934921
-0.0712456
-0.0478286
-0.0244556
-0.00217043
0.0182477
0.0363148
0.0518175
0.0647574
0.0752856
0.0836006
0.0899005
0.0950111
0.0992548
-0.203414
-0.197419
-0.191023
-0.181709
-0.168308
-0.150859
-0.129934
-0.106495
-0.0817224
-0.0568237
-0.0328643
-0.0106686
0.00922547
0.0265526
0.0412716
0.0535034
0.0634318
0.0712388
0.0777232
0.0833146
-0.24576
-0.237641
-0.229767
-0.219322
-0.204939
-0.186593
-0.164764
-0.140325
-0.114392
-0.0881626
-0.0627096
-0.0388965
-0.017312
0.00172639
0.0181325
0.031994
0.043477
0.0527478
0.0605642
0.0674476
-0.285668
-0.275517
-0.266238
-0.254742
-0.239486
-0.220383
-0.197818
-0.172567
-0.145685
-0.118326
-0.0915704
-0.0663126
-0.0431867
-0.0225617
-0.00457086
0.0108374
0.0238084
0.0344921
0.0435951
0.0517169
-0.322979
-0.310903
-0.300297
-0.287833
-0.271812
-0.252088
-0.228952
-0.203082
-0.175454
-0.147177
-0.119321
-0.0928008
-0.0682936
-0.0462179
-0.0267544
-0.009891
0.00449358
0.0165318
0.026871
0.0361784
-0.357566
-0.343682
-0.331834
-0.318486
-0.301803
-0.28159
-0.258046
-0.231744
-0.203577
-0.174593
-0.145844
-0.118254
-0.092535
-0.0691543
-0.0483395
-0.030121
-0.0144047
-0.00107753
0.0104421
0.0208813
-0.389332
-0.373767
-0.360768
-0.34662
-0.329376
-0.308799
-0.285001
-0.25845
-0.229944
-0.200467
-0.171034
-0.142573
-0.115821
-0.0912891
-0.0692535
-0.0497878
-0.0328288
-0.0182844
-0.00564678
0.00587009
-0.418208
-0.401102
-0.387045
-0.372183
-0.354474
-0.333651
-0.309742
-0.283114
-0.254466
-0.224704
-0.194801
-0.165669
-0.13807
-0.112549
-0.08943
-0.0688312
-0.0507263
-0.0350407
-0.0213575
-0.00881373
-0.444159
-0.425658
-0.410642
-0.395149
-0.377067
-0.356106
-0.33222
-0.305676
-0.277072
-0.247228
-0.217062
-0.187466
-0.159207
-0.132865
-0.108809
-0.0872006
-0.0680485
-0.0513
-0.0366559
-0.0231331
-0.467177
-0.447434
-0.431563
-0.415521
-0.397152
-0.376152
-0.35241
-0.326096
-0.297709
-0.267978
-0.237753
-0.207894
-0.179168
-0.152179
-0.127334
-0.104845
-0.0847564
-0.0670482
-0.0514584
-0.0370885
-0.487284
-0.466458
-0.449836
-0.433328
-0.414753
-0.393802
-0.37031
-0.344359
-0.316348
-0.28691
-0.256823
-0.2269
-0.197898
-0.170437
-0.14496
-0.121721
-0.100808
-0.0822294
-0.065779
-0.0507664
-0.504525
-0.482781
-0.465516
-0.448623
-0.429917
-0.409093
-0.385944
-0.360471
-0.332977
-0.304
-0.274233
-0.244439
-0.21535
-0.187595
-0.161644
-0.137792
-0.116172
-0.0968194
-0.07959
-0.0638972
-0.518975
-0.496478
-0.478679
-0.461481
-0.442713
-0.422086
-0.399357
-0.37446
-0.347606
-0.319238
-0.289964
-0.260481
-0.23149
-0.203616
-0.177351
-0.153027
-0.130818
-0.110793
-0.0928655
-0.0765345
-0.530728
-0.507645
-0.489421
-0.471997
-0.453232
-0.43286
-0.410616
-0.386375
-0.360265
-0.332637
-0.304009
-0.275008
-0.246291
-0.21847
-0.192051
-0.167398
-0.144723
-0.124128
-0.105589
-0.0887039
-0.539899
-0.516396
-0.497858
-0.480284
-0.461582
-0.441515
-0.419807
-0.396284
-0.371003
-0.344224
-0.316377
-0.288014
-0.259738
-0.232138
-0.205724
-0.180884
-0.157867
-0.136809
-0.117745
-0.100389
-0.546622
-0.522861
-0.504117
-0.48647
-0.467887
-0.448168
-0.427034
-0.404276
-0.379887
-0.354046
-0.327096
-0.299508
-0.271826
-0.244606
-0.218351
-0.193468
-0.170236
-0.148821
-0.129319
-0.111572
-0.551043
-0.527184
-0.508341
-0.490694
-0.472284
-0.452948
-0.432416
-0.410453
-0.387001
-0.362166
-0.336206
-0.309512
-0.282563
-0.255871
-0.229925
-0.205137
-0.181816
-0.160155
-0.1403
-0.122246
-0.553321
-0.529517
-0.51068
-0.493105
-0.474918
-0.455996
-0.436083
-0.414933
-0.392444
-0.368661
-0.343763
-0.318061
-0.291966
-0.265938
-0.24044
-0.215885
-0.192601
-0.170803
-0.150684
-0.132407
-0.553626
-0.530021
-0.51129
-0.493859
-0.475942
-0.457459
-0.438177
-0.417843
-0.39633
-0.373623
-0.349837
-0.325204
-0.300064
-0.27482
-0.249901
-0.22571
-0.202585
-0.18076
-0.160467
-0.142054
-0.55213
-0.528861
-0.510333
-0.493114
-0.475512
-0.457492
-0.438844
-0.419323
-0.398779
-0.377159
-0.354512
-0.331003
-0.306897
-0.282541
-0.258318
-0.234614
-0.211768
-0.190027
-0.169647
-0.151191
-0.54901
-0.526204
-0.50797
-0.491028
-0.473785
-0.456248
-0.438235
-0.419514
-0.399925
-0.379381
-0.357883
-0.335529
-0.312518
-0.289132
-0.265709
-0.242604
-0.220153
-0.198603
-0.178228
-0.159827
-0.544445
-0.522215
-0.50436
-0.487759
-0.470918
-0.453882
-0.436502
-0.418564
-0.399904
-0.380414
-0.360054
-0.338867
-0.316987
-0.294636
-0.272099
-0.249694
-0.227744
-0.206493
-0.186213
-0.167976
-0.538609
-0.517059
-0.499662
-0.48346
-0.467061
-0.450544
-0.433794
-0.416617
-0.398855
-0.380386
-0.361138
-0.341109
-0.320378
-0.299104
-0.277519
-0.255902
-0.234552
-0.213702
-0.19361
-0.175659
-0.531672
-0.510892
-0.494025
-0.478278
-0.462359
-0.446381
-0.430257
-0.413819
-0.396917
-0.379427
-0.361254
-0.342358
-0.322769
-0.302593
-0.282009
-0.26125
-0.24059
-0.22024
-0.200426
-0.182901
-0.523798
-0.503866
-0.487592
-0.472352
-0.456952
-0.441529
-0.426029
-0.410306
-0.394228
-0.377668
-0.360521
-0.342719
-0.32425
-0.305173
-0.285615
-0.265768
-0.245872
-0.226115
-0.20667
-0.189737
-0.515143
-0.496124
-0.4805
-0.465813
-0.450966
-0.436118
-0.421239
-0.406211
-0.390917
-0.375239
-0.359062
-0.342301
-0.324914
-0.306916
-0.288392
-0.26949
-0.250417
-0.231338
-0.212353
-0.196203
-0.505851
-0.487799
-0.472872
-0.458782
-0.44452
-0.430263
-0.416007
-0.401655
-0.38711
-0.372261
-0.356996
-0.341217
-0.324858
-0.307904
-0.290399
-0.272453
-0.254247
-0.235918
-0.21748
-0.20234
-0.496058
-0.479012
-0.464823
-0.451367
-0.437721
-0.424074
-0.410441
-0.396749
-0.382918
-0.36885
-0.354437
-0.339574
-0.324182
-0.30822
-0.291701
-0.274702
-0.257382
-0.23986
-0.222053
-0.20818
-0.485884
-0.469875
-0.456458
-0.443666
-0.430663
-0.417643
-0.404637
-0.391593
-0.378446
-0.365113
-0.351492
-0.337479
-0.322984
-0.30795
-0.292366
-0.276285
-0.259846
-0.243168
-0.226062
-0.213737
-0.47544
-0.460488
-0.447867
-0.435769
-0.423431
-0.411053
-0.398678
-0.386272
-0.373784
-0.361144
-0.348259
-0.335029
-0.32136
-0.307183
-0.292469
-0.277252
-0.261665
-0.245836
-0.229485
-0.218981
-0.464823
-0.450939
-0.439133
-0.427749
-0.416098
-0.404376
-0.392638
-0.380861
-0.36901
-0.357026
-0.344826
-0.332315
-0.319399
-0.306002
-0.292083
-0.277659
-0.262865
-0.247851
-0.232277
-0.223793
-0.454118
-0.441305
-0.430328
-0.419674
-0.408725
-0.397672
-0.386574
-0.375422
-0.36419
-0.352829
-0.341268
-0.329418
-0.317186
-0.304491
-0.291283
-0.277567
-0.263475
-0.249193
-0.234373
-0.2279
-0.443399
-0.431654
-0.421511
-0.4116
-0.401365
-0.39099
-0.380536
-0.370003
-0.359375
-0.348611
-0.337649
-0.326406
-0.314793
-0.302726
-0.290144
-0.27704
-0.263532
-0.249846
-0.235726
-0.230836
-0.432727
-0.422043
-0.412737
-0.403574
-0.394062
-0.38437
-0.374563
-0.364645
-0.354607
-0.344417
-0.334019
-0.323337
-0.312285
-0.300776
-0.288741
-0.276148
-0.26308
-0.249798
-0.2363
-0.231808
-0.422157
-0.412521
-0.404049
-0.395637
-0.38685
-0.377845
-0.368684
-0.359377
-0.349918
-0.340281
-0.330417
-0.320257
-0.309716
-0.298706
-0.287143
-0.274966
-0.262178
-0.249018
-0.235481
-0.227367
-0.411733
-0.403131
-0.395486
-0.387823
-0.37976
-0.37144
-0.362923
-0.354219
-0.345328
-0.336227
-0.326872
-0.317199
-0.307128
-0.296567
-0.285421
-0.273589
-0.260959
-0.247681
-0.23258
-0.205465
-0.401495
-0.393909
-0.387081
-0.380161
-0.372816
-0.365176
-0.357296
-0.349188
-0.340852
-0.33227
-0.323402
-0.314189
-0.304554
-0.294406
-0.283641
-0.272133
-0.259672
-0.246424
-0.231991
-0.198432
-0.391478
-0.384888
-0.378864
-0.372675
-0.366039
-0.359071
-0.351818
-0.344294
-0.3365
-0.32842
-0.320019
-0.311241
-0.302016
-0.292252
-0.281849
-0.270674
-0.258482
-0.245513
-0.23248
-0.199092
-0.381713
-0.376098
-0.370862
-0.36539
-0.359449
-0.353138
-0.346499
-0.339545
-0.332277
-0.324683
-0.316728
-0.308365
-0.299525
-0.290125
-0.280068
-0.269231
-0.257371
-0.244782
-0.232684
-0.200423
-0.372231
-0.367568
-0.3631
-0.358327
-0.353063
-0.347391
-0.341349
-0.334947
-0.328189
-0.32106
-0.313533
-0.305563
-0.297089
-0.288033
-0.278306
-0.267801
-0.256288
-0.244101
-0.232525
-0.201745
-0.363061
-0.359326
-0.355604
-0.351508
-0.3469
-0.341846
-0.336378
-0.330508
-0.324238
-0.317555
-0.310436
-0.302838
-0.294709
-0.285979
-0.276569
-0.266382
-0.255216
-0.243445
-0.23222
-0.203271
-0.354237
-0.3514
-0.348399
-0.344956
-0.340977
-0.336516
-0.331599
-0.326237
-0.320431
-0.314172
-0.307438
-0.300193
-0.292389
-0.283967
-0.274858
-0.264979
-0.254157
-0.242805
-0.231855
-0.204969
-0.34579
-0.343822
-0.341514
-0.338695
-0.335316
-0.331418
-0.327024
-0.322142
-0.316776
-0.310916
-0.304544
-0.29763
-0.290133
-0.282
-0.273178
-0.263597
-0.253115
-0.242173
-0.231457
-0.206744
-0.337758
-0.336624
-0.334976
-0.33275
-0.329939
-0.326573
-0.322669
-0.318239
-0.313284
-0.307797
-0.301764
-0.295158
-0.287946
-0.280087
-0.271537
-0.262242
-0.252094
-0.241545
-0.231049
-0.20853
-0.330179
-0.32984
-0.328818
-0.327149
-0.324871
-0.322001
-0.318555
-0.314543
-0.309969
-0.304828
-0.299107
-0.292786
-0.28584
-0.278236
-0.269943
-0.260922
-0.2511
-0.240924
-0.230653
-0.210278
-0.323095
-0.323506
-0.323071
-0.321921
-0.320137
-0.317726
-0.314701
-0.311074
-0.306849
-0.302024
-0.296589
-0.290531
-0.283828
-0.276461
-0.268409
-0.25965
-0.250142
-0.240315
-0.230283
-0.211949
-0.316549
-0.31766
-0.317768
-0.317097
-0.315765
-0.313773
-0.311131
-0.307854
-0.303945
-0.299406
-0.29423
-0.288408
-0.281928
-0.274778
-0.26695
-0.258438
-0.249229
-0.239725
-0.229946
-0.213509
-0.310585
-0.31234
-0.312945
-0.312707
-0.311784
-0.310169
-0.307871
-0.304906
-0.30128
-0.296995
-0.29205
-0.28644
-0.28016
-0.273206
-0.265584
-0.257301
-0.248373
-0.239164
-0.229646
-0.214931
-0.305247
-0.307584
-0.308633
-0.308782
-0.308223
-0.306941
-0.304946
-0.302255
-0.298877
-0.294816
-0.290073
-0.284649
-0.278545
-0.271766
-0.264329
-0.256256
-0.247585
-0.238641
-0.229384
-0.216197
-0.300579
-0.303428
-0.304867
-0.305353
-0.305109
-0.304115
-0.302382
-0.299927
-0.296761
-0.292891
-0.288322
-0.283058
-0.277106
-0.27048
-0.263206
-0.25532
-0.246878
-0.238166
-0.22916
-0.217294
-0.29662
-0.299906
-0.301677
-0.302447
-0.302469
-0.301717
-0.300202
-0.297944
-0.294956
-0.291245
-0.28682
-0.28169
-0.275866
-0.26937
-0.262235
-0.254509
-0.246264
-0.237749
-0.228974
-0.293406
-0.297048
-0.299089
-0.30009
-0.300325
-0.299768
-0.298429
-0.296329
-0.293482
-0.289899
-0.28559
-0.280567
-0.274846
-0.268455
-0.261433
-0.253839
-0.245757
-0.237402
-0.228826
-0.290967
-0.294882
-0.297126
-0.298302
-0.298699
-0.298289
-0.297082
-0.2951
-0.29236
-0.288872
-0.28465
-0.279707
-0.274064
-0.267752
-0.260816
-0.253324
-0.245366
-0.237133
-0.228716
-0.289327
-0.293425
-0.295807
-0.2971
-0.297606
-0.297294
-0.296175
-0.294272
-0.291603
-0.288179
-0.284014
-0.279125
-0.273534
-0.267275
-0.260398
-0.252974
-0.2451
-0.236949
-0.228642
-0.288503
-0.292694
-0.295145
-0.296497
-0.297056
-0.296794
-0.295719
-0.293856
-0.291222
-0.287829
-0.283694
-0.278831
-0.273266
-0.267034
-0.260186
-0.252797
-0.244965
-0.236855
-0.228606
0.176334
0.180421
0.188012
0.19663
0.205772
0.212982
0.218471
0.218379
0.216563
0.203103
0.177867
0.18206
0.189962
0.199071
0.208962
0.21723
0.224151
0.226023
0.226322
0.216816
0.179296
0.183537
0.191629
0.201072
0.211526
0.220644
0.228793
0.232417
0.234713
0.228588
0.180693
0.184975
0.193273
0.203071
0.214122
0.224137
0.233552
0.238984
0.2433
0.240337
0.182031
0.186369
0.194879
0.205039
0.216681
0.227585
0.238218
0.245407
0.251645
0.251579
0.1833
0.187709
0.196417
0.206921
0.219121
0.230868
0.242641
0.251494
0.259549
0.262172
0.184501
0.188986
0.197877
0.208707
0.221431
0.233979
0.246821
0.257248
0.267035
0.272165
0.18563
0.190111
0.199256
0.210396
0.223613
0.23692
0.250762
0.262671
0.274102
0.281563
0.186687
0.191252
0.20055
0.211982
0.22566
0.239679
0.254453
0.267743
0.280725
0.290349
0.187667
0.192299
0.201752
0.21346
0.227563
0.242246
0.257882
0.27245
0.286881
0.298503
0.188567
0.193255
0.20286
0.214823
0.229316
0.244612
0.261038
0.276776
0.292548
0.306005
0.189386
0.194125
0.203869
0.216067
0.230913
0.246767
0.263911
0.280709
0.297707
0.312833
0.190119
0.194907
0.204775
0.217186
0.232348
0.248704
0.266492
0.284236
0.30234
0.318963
0.190766
0.195598
0.205579
0.218177
0.233615
0.250416
0.268772
0.287349
0.306431
0.324377
0.191324
0.196194
0.206281
0.219036
0.234711
0.251895
0.270741
0.290035
0.309964
0.329054
0.191791
0.196693
0.206799
0.219757
0.235632
0.253136
0.272394
0.292288
0.312928
0.332978
0.192167
0.197096
0.2073
0.220338
0.236372
0.254135
0.273724
0.294099
0.315312
0.336134
0.19245
0.1974
0.207653
0.220773
0.23693
0.254887
0.274726
0.295462
0.317108
0.338512
0.192639
0.197603
0.207889
0.221065
0.237303
0.25539
0.275396
0.296374
0.318308
0.340101
0.192734
0.197705
0.208008
0.221211
0.23749
0.255642
0.275731
0.29683
0.31891
0.340898
0.0526919
0.0513735
0.0491039
0.0463955
0.0435764
0.0408304
0.0382596
0.0359169
0.0338185
0.0319651
0.0528304
0.051508
0.0492276
0.0465075
0.0436759
0.0409172
0.0383343
0.0359805
0.0338719
0.0320099
0.0531005
0.0517685
0.0494683
0.0467257
0.0438697
0.0410865
0.0384799
0.0361046
0.0339761
0.0320972
0.053495
0.0521486
0.0498203
0.0470447
0.0441531
0.0413339
0.0386929
0.036286
0.0341284
0.0322247
0.0540077
0.0526426
0.0502783
0.0474599
0.0445219
0.0416561
0.0389701
0.0365221
0.0343265
0.0323907
0.054633
0.0532454
0.0508376
0.0479672
0.0449726
0.0420498
0.039309
0.0368108
0.0345686
0.0325935
0.055366
0.0539521
0.0514939
0.0485629
0.0455021
0.0425126
0.0397073
0.0371499
0.034853
0.0328315
0.0562021
0.0547585
0.0522437
0.0492439
0.0461078
0.0430421
0.040163
0.037538
0.035178
0.0331035
0.0571371
0.0556608
0.0530834
0.0500074
0.0467873
0.0436364
0.0406746
0.0379735
0.0355425
0.0334083
0.058167
0.0566554
0.0540101
0.050851
0.0475386
0.0442939
0.0412406
0.0384553
0.0359454
0.0337452
0.0592883
0.0577391
0.055021
0.0517724
0.0483599
0.0450132
0.04186
0.0389824
0.0363859
0.0341132
0.0604976
0.0589086
0.0561137
0.0527697
0.04925
0.0457933
0.0425318
0.0395542
0.0368633
0.0345118
0.0617915
0.0601612
0.0572859
0.0538412
0.0502074
0.0466331
0.0432554
0.0401701
0.037377
0.0349405
0.063167
0.0614942
0.0585355
0.0549855
0.0512312
0.0475322
0.0440303
0.0408298
0.0379268
0.0353991
0.0646211
0.0629048
0.0598604
0.0562011
0.0523206
0.04849
0.0448563
0.0415331
0.0385125
0.0358875
0.0661507
0.0643906
0.0612588
0.0574869
0.0534748
0.0495062
0.0457334
0.04228
0.0391341
0.0364055
0.067753
0.065949
0.0627289
0.0588418
0.0546934
0.0505808
0.0466615
0.0430709
0.0397919
0.0369535
0.0694251
0.0675777
0.0642691
0.0602649
0.0559761
0.0517138
0.0476411
0.043906
0.0404861
0.0375316
0.0711641
0.0692741
0.0658777
0.0617551
0.0573225
0.0529055
0.0486725
0.044786
0.0412173
0.0381404
0.0729671
0.0710358
0.067553
0.0633118
0.0587327
0.0541561
0.0497565
0.0457116
0.0419862
0.0387806
0.0748311
0.0728603
0.0692935
0.0649341
0.0602064
0.0554663
0.0508938
0.0466838
0.0427936
0.0394528
0.0767531
0.0747453
0.0710975
0.0666213
0.0617439
0.0568367
0.0520853
0.0477035
0.0436407
0.0401581
0.0787302
0.076688
0.0729634
0.0683728
0.0633452
0.058268
0.0533322
0.0487722
0.0445286
0.0408975
0.0807593
0.078686
0.0748896
0.0701878
0.0650107
0.0597611
0.0546358
0.0498913
0.0454589
0.0416724
0.0828371
0.0807366
0.0768744
0.0720656
0.0667406
0.061317
0.0559975
0.0510623
0.046433
0.0424842
0.0849605
0.0828372
0.0789161
0.0740056
0.0685352
0.0629368
0.0574189
0.0522872
0.0474528
0.0433345
0.0871262
0.0849849
0.0810128
0.0760071
0.070395
0.0646217
0.0589018
0.0535678
0.0485203
0.0442252
0.089331
0.0871769
0.0831627
0.0780692
0.0723202
0.0663729
0.060448
0.0549064
0.0496377
0.0451582
0.0915713
0.0894104
0.0853639
0.0801912
0.0743115
0.0681918
0.0620595
0.0563052
0.0508075
0.0461358
0.0938438
0.0916823
0.0876144
0.0823722
0.0763691
0.0700798
0.0637386
0.0577668
0.0520322
0.0471604
0.096145
0.0939897
0.0899121
0.0846113
0.0784934
0.0720383
0.0654876
0.0592939
0.0533149
0.0482345
0.0984713
0.0963294
0.0922547
0.0869075
0.0806849
0.0740688
0.0673088
0.0608892
0.0546585
0.049361
0.100819
0.0986983
0.09464
0.0892597
0.0829439
0.0761728
0.0692048
0.0625559
0.0560664
0.0505428
0.103185
0.101093
0.0970656
0.0916665
0.0852705
0.0783517
0.0711784
0.064297
0.0575421
0.0517833
0.105565
0.103511
0.0995291
0.0941269
0.087665
0.0806071
0.0732322
0.0661159
0.0590896
0.0530859
0.107957
0.105948
0.102028
0.0966392
0.0901275
0.0829403
0.075369
0.068016
0.0607128
0.0544542
0.110355
0.108401
0.104559
0.099202
0.0926579
0.0853529
0.0775919
0.070001
0.0624162
0.0558923
0.112757
0.110867
0.10712
0.101813
0.0952561
0.087846
0.0799038
0.0720745
0.0642042
0.0574043
0.115159
0.113342
0.109708
0.104472
0.0979216
0.090421
0.0823076
0.0742404
0.0660817
0.0589945
0.117557
0.115823
0.112319
0.107175
0.100654
0.0930791
0.0848063
0.0765025
0.0680539
0.0606677
0.119949
0.118306
0.114952
0.109921
0.103452
0.095821
0.0874029
0.078865
0.070126
0.0624288
0.12233
0.120789
0.117602
0.112707
0.106316
0.0986478
0.0901004
0.0813317
0.0723038
0.0642828
0.124698
0.123268
0.120266
0.115531
0.109244
0.10156
0.0929015
0.0839069
0.074593
0.0662353
0.127048
0.125739
0.122942
0.11839
0.112234
0.104558
0.095809
0.0865947
0.0769998
0.0682918
0.129379
0.128199
0.125625
0.121282
0.115286
0.107643
0.0988254
0.0893991
0.0795306
0.0704582
0.131687
0.130645
0.128313
0.124203
0.118397
0.110813
0.101953
0.0923244
0.0821917
0.0727407
0.133969
0.133074
0.131001
0.12715
0.121564
0.114069
0.105194
0.0953744
0.0849899
0.0751456
0.136223
0.135483
0.133687
0.13012
0.124786
0.11741
0.108551
0.0985533
0.087932
0.0776796
0.138445
0.137868
0.136366
0.133109
0.128059
0.120836
0.112024
0.101865
0.091025
0.0803494
0.140633
0.140227
0.139036
0.136114
0.131381
0.124344
0.115615
0.105313
0.0942758
0.0831621
0.142785
0.142557
0.141693
0.13913
0.134748
0.127933
0.119325
0.1089
0.0976913
0.0861249
0.144899
0.144856
0.144333
0.142155
0.138156
0.131602
0.123153
0.112631
0.101279
0.089245
0.146973
0.14712
0.146953
0.145183
0.141602
0.135347
0.127101
0.116509
0.105044
0.0925301
0.149004
0.149348
0.14955
0.148211
0.14508
0.139165
0.131167
0.120535
0.108995
0.0959877
0.150992
0.151536
0.15212
0.151235
0.148588
0.143054
0.135349
0.124713
0.113136
0.0996256
0.152934
0.153684
0.15466
0.15425
0.152119
0.147009
0.139646
0.129045
0.117475
0.103451
0.154829
0.155788
0.157167
0.157253
0.155668
0.151027
0.144055
0.133532
0.122016
0.107473
0.156676
0.157848
0.159638
0.160238
0.159231
0.155102
0.148573
0.138176
0.126764
0.111699
0.158475
0.15986
0.16207
0.163201
0.162803
0.159229
0.153196
0.142977
0.131722
0.116136
0.160223
0.161825
0.16446
0.166139
0.166376
0.163403
0.157919
0.147936
0.136894
0.120793
0.16192
0.16374
0.166805
0.169047
0.169946
0.167618
0.162738
0.153053
0.142282
0.125677
0.163566
0.165604
0.169104
0.17192
0.173507
0.171868
0.167645
0.158326
0.147887
0.130796
0.16516
0.167416
0.171353
0.174755
0.177052
0.176145
0.172635
0.163755
0.153709
0.136156
0.166702
0.169176
0.173551
0.177548
0.180576
0.180442
0.177699
0.169337
0.159744
0.141762
0.168192
0.170882
0.175696
0.180296
0.184074
0.184754
0.182832
0.175074
0.166001
0.147634
0.16963
0.172535
0.177787
0.182996
0.187543
0.189079
0.188035
0.180979
0.172498
0.153812
0.171016
0.174134
0.179821
0.185645
0.190976
0.193403
0.193286
0.187025
0.17919
0.160238
0.172347
0.175671
0.181786
0.188216
0.194325
0.19765
0.198464
0.193043
0.185805
0.166479
0.173624
0.177142
0.183664
0.190676
0.197537
0.201744
0.203481
0.198943
0.192261
0.172337
0.174866
0.178597
0.185541
0.193176
0.20089
0.206177
0.209189
0.206077
0.200777
0.181513
0.0307364
0.030033
0.0293264
0.0286156
0.0279005
0.0271812
0.0264584
0.0257326
0.0250041
0.0242733
0.0235407
0.0228067
0.0220717
0.021336
0.0206002
0.0198646
0.0191296
0.0183956
0.017663
0.0169322
0.0307758
0.030072
0.029365
0.0286537
0.0279376
0.0272171
0.0264925
0.0257645
0.0250334
0.0242997
0.0235637
0.022826
0.022087
0.0213471
0.0206067
0.0198663
0.0191264
0.0183873
0.0176495
0.0169134
0.0308504
0.0301416
0.0294301
0.0287142
0.0279932
0.0272673
0.0265373
0.0258035
0.0250664
0.0243265
0.0235841
0.0228399
0.0220941
0.0213474
0.0206001
0.0198527
0.0191057
0.0183595
0.0176146
0.0168714
0.0309587
0.0302412
0.0295217
0.0287983
0.0280694
0.0273354
0.0265969
0.0258545
0.0251087
0.0243598
0.0236084
0.0228549
0.0220998
0.0213436
0.0205867
0.0198297
0.019073
0.0183172
0.0175626
0.0168099
0.031099
0.0303691
0.0296385
0.0289044
0.0281646
0.0274195
0.0266697
0.0259159
0.0251584
0.0243979
0.0236347
0.0228693
0.0221022
0.021334
0.0205651
0.0197961
0.0190274
0.0182595
0.0174929
0.0167282
0.0312697
0.0305238
0.0297791
0.0290314
0.0282779
0.0275188
0.0267549
0.025987
0.0252153
0.0244405
0.0236629
0.0228831
0.0221016
0.0213189
0.0205356
0.0197521
0.018969
0.0181867
0.0174059
0.016627
0.0314695
0.0307042
0.0299423
0.0291784
0.0284084
0.0276326
0.0268519
0.0260672
0.0252787
0.024487
0.0236925
0.0228959
0.0220975
0.021298
0.0204978
0.0196975
0.0188977
0.0180988
0.0173014
0.0165061
0.0316971
0.0309092
0.0301272
0.0293443
0.0285552
0.02776
0.0269599
0.0261558
0.0253479
0.0245369
0.0237231
0.0229071
0.0220895
0.0212708
0.0204515
0.0196321
0.0188133
0.0179955
0.0171794
0.0163654
0.0319517
0.0311376
0.0303328
0.0295283
0.0287174
0.0279003
0.0270783
0.0262522
0.0254225
0.0245896
0.0237541
0.0229164
0.0220772
0.0212369
0.0203962
0.0195555
0.0187154
0.0178766
0.0170395
0.0162047
0.0322322
0.0313888
0.0305584
0.0297297
0.0288945
0.0280528
0.0272063
0.0263558
0.0255018
0.0246447
0.023785
0.0229233
0.0220601
0.0211959
0.0203315
0.0194672
0.0186037
0.0177415
0.0168813
0.0160235
0.0325379
0.0316619
0.0308032
0.0299478
0.0290857
0.0282169
0.0273433
0.026466
0.0255852
0.0247014
0.0238152
0.022927
0.0220376
0.0211473
0.0202568
0.0193667
0.0184775
0.0175898
0.0167042
0.0158213
0.0328683
0.0319564
0.0310666
0.030182
0.0292905
0.028392
0.0274889
0.0265822
0.0256722
0.0247593
0.0238442
0.0229273
0.0220092
0.0210904
0.0201717
0.0192534
0.0183363
0.0174209
0.0165078
0.0155975
0.0332227
0.0322717
0.0313482
0.0304318
0.0295084
0.0285777
0.0276425
0.0267039
0.0257623
0.0248179
0.0238714
0.0229233
0.0219743
0.0210248
0.0200754
0.0191268
0.0181795
0.0172341
0.0162912
0.0153514
0.033601
0.0326075
0.0316475
0.0306969
0.0297389
0.0287735
0.0278037
0.0268308
0.0258549
0.0248766
0.0238964
0.0229147
0.0219323
0.0209497
0.0199674
0.0189861
0.0180063
0.0170287
0.0160539
0.0150823
0.034003
0.0329635
0.0319644
0.030977
0.0299819
0.0289791
0.0279721
0.0269622
0.0259497
0.024935
0.0239185
0.0229009
0.0218827
0.0208646
0.019847
0.0188307
0.0178161
0.016804
0.0157949
0.0147893
0.0344285
0.0333397
0.0322987
0.0312719
0.030237
0.0291941
0.0281473
0.027098
0.0260463
0.0249925
0.0239373
0.0228812
0.0218248
0.0207688
0.0197136
0.0186598
0.0176081
0.0165591
0.0155134
0.0144715
0.0348777
0.0337361
0.0326503
0.0315814
0.030504
0.0294185
0.0283292
0.0272377
0.0261441
0.0250488
0.0239523
0.0228552
0.0217582
0.0206617
0.0195663
0.0184727
0.0173815
0.0162932
0.0152086
0.014128
0.0353509
0.0341529
0.0330193
0.0319057
0.030783
0.0296519
0.0285174
0.0273811
0.026243
0.0251035
0.0239631
0.0228224
0.0216821
0.0205426
0.0194046
0.0182687
0.0171355
0.0160055
0.0148794
0.0137577
0.0358484
0.0345903
0.033406
0.0322448
0.031074
0.0298945
0.0287119
0.027528
0.0263426
0.0251562
0.0239692
0.0227823
0.021596
0.020411
0.0192278
0.018047
0.0168692
0.015695
0.014525
0.0133598
0.036371
0.0350489
0.0338107
0.032599
0.0313772
0.0301463
0.0289127
0.0276782
0.0264428
0.0252066
0.0239702
0.0227343
0.0214994
0.0202661
0.019035
0.0178067
0.0165817
0.0153607
0.0141443
0.012933
0.0369192
0.0355292
0.0342339
0.0329686
0.0316927
0.0304073
0.0291198
0.0278318
0.0265433
0.0252544
0.0239658
0.0226781
0.0213917
0.0201074
0.0188257
0.0175471
0.0162723
0.0150018
0.0137363
0.0124762
0.037494
0.0360321
0.0346761
0.0333542
0.0320209
0.0306779
0.0293332
0.0279886
0.026644
0.0252995
0.0239557
0.0226131
0.0212724
0.0199342
0.018599
0.0172674
0.0159399
0.0146172
0.0132999
0.0119883
0.0380966
0.0365584
0.0351383
0.0337563
0.0323623
0.0309583
0.0295532
0.0281488
0.0267449
0.0253416
0.0239394
0.022539
0.021141
0.0197459
0.0183543
0.0169667
0.0155837
0.0142058
0.0128339
0.0114681
0.038728
0.0371092
0.0356211
0.0341757
0.0327174
0.031249
0.02978
0.0283125
0.026846
0.0253806
0.0239169
0.0224555
0.020997
0.0195419
0.0180908
0.0166442
0.0152027
0.0137668
0.0123373
0.0109143
0.0393899
0.0376858
0.0361258
0.0346132
0.033087
0.0315505
0.0300141
0.0284799
0.0269473
0.0254165
0.0238878
0.0223621
0.0208398
0.0193215
0.0178078
0.016299
0.0147959
0.0132989
0.0118088
0.0103257
0.0400839
0.0382897
0.0366535
0.0350698
0.0334719
0.0318634
0.0302558
0.0286513
0.027049
0.0254491
0.0238521
0.0222586
0.0206691
0.0190843
0.0175045
0.0159304
0.0143624
0.012801
0.0112473
0.00970088
0.0408117
0.0389224
0.0372055
0.0355466
0.0338729
0.0321885
0.0305058
0.028827
0.0271513
0.0254786
0.0238095
0.0221446
0.0204844
0.0188295
0.0171803
0.0155374