# vtk DataFile Version 2.0
top
ASCII
DATASET POLYDATA
POINTS 182 float
-4 6 -0.05 -4 6 0.05 -3.4017 6 0.05 -3.4017 6
-0.05 -2.8888 6 0.05 -2.8888 6 -0.05 -2.44913 6 0.05
-2.44913 6 -0.05 -2.07222 6 0.05 -2.07222 6 -0.05 -1.74912
6 0.05 -1.74912 6 -0.05 -1.47215 6 0.05 -1.47215 6
-0.05 -1.23471 6 0.05 -1.23471 6 -0.05 -1.03117 6 0.05
-1.03117 6 -0.05 -0.856683 6 0.05 -0.856683 6 -0.05 -0.707107
6 0.05 -0.707107 6 -0.05 -0.671751 6 0.05 -0.671751 6
-0.05 -0.636396 6 0.05 -0.636396 6 -0.05 -0.601041 6 0.05
-0.601041 6 -0.05 -0.565685 6 0.05 -0.565685 6 -0.05 -0.53033
6 0.05 -0.53033 6 -0.05 -0.494975 6 0.05 -0.494975 6
-0.05 -0.459619 6 0.05 -0.459619 6 -0.05 -0.424264 6 0.05
-0.424264 6 -0.05 -0.388909 6 0.05 -0.388909 6 -0.05 -0.353553
6 0.05 -0.353553 6 -0.05 -0.318198 6 0.05 -0.318198 6
-0.05 -0.282843 6 0.05 -0.282843 6 -0.05 -0.247487 6 0.05
-0.247487 6 -0.05 -0.212132 6 0.05 -0.212132 6 -0.05 -0.176777
6 0.05 -0.176777 6 -0.05 -0.141421 6 0.05 -0.141421 6
-0.05 -0.106066 6 0.05 -0.106066 6 -0.05 -0.0707107 6 0.05
-0.0707107 6 -0.05 -0.0353553 6 0.05 -0.0353553 6 -0.05 0
6 0.05 0 6 -0.05 0.0353553 6 0.05 0.0353553 6
-0.05 0.0707107 6 0.05 0.0707107 6 -0.05 0.106066 6 0.05
0.106066 6 -0.05 0.141421 6 0.05 0.141421 6 -0.05 0.176777
6 0.05 0.176777 6 -0.05 0.212132 6 0.05 0.212132 6
-0.05 0.247487 6 0.05 0.247487 6 -0.05 0.282843 6 0.05
0.282843 6 -0.05 0.318198 6 0.05 0.318198 6 -0.05 0.353553
6 0.05 0.353553 6 -0.05 0.388909 6 0.05 0.388909 6
-0.05 0.424264 6 0.05 0.424264 6 -0.05 0.459619 6 0.05
0.459619 6 -0.05 0.494975 6 0.05 0.494975 6 -0.05 0.53033
6 0.05 0.53033 6 -0.05 0.565685 6 0.05 0.565685 6
-0.05 0.601041 6 0.05 0.601041 6 -0.05 0.636396 6 0.05
0.636396 6 -0.05 0.671751 6 0.05 0.671751 6 -0.05 0.707107
6 0.05 0.707107 6 -0.05 0.791023 6 0.05 0.791023 6
-0.05 0.877976 6 0.05 0.877976 6 -0.05 0.968076 6 0.05
0.968076 6 -0.05 1.06144 6 0.05 1.06144 6 -0.05 1.15817
6 0.05 1.15817 6 -0.05 1.25841 6 0.05 1.25841 6
-0.05 1.36228 6 0.05 1.36228 6 -0.05 1.4699 6 0.05
1.4699 6 -0.05 1.58142 6 0.05 1.58142 6 -0.05 1.69697
6 0.05 1.69697 6 -0.05 1.81671 6 0.05 1.81671 6
-0.05 1.94078 6 0.05 1.94078 6 -0.05 2.06933 6 0.05
2.06933 6 -0.05 2.20254 6 0.05 2.20254 6 -0.05 2.34057
6 0.05 2.34057 6 -0.05 2.4836 6 0.05 2.4836 6
-0.05 2.6318 6 0.05 2.6318 6 -0.05 2.78536 6 0.05
2.78536 6 -0.05 2.94448 6 0.05 2.94448 6 -0.05 3.10935
6 0.05 3.10935 6 -0.05 3.2802 6 0.05 3.2802 6
-0.05 3.45722 6 0.05 3.45722 6 -0.05 3.64065 6 0.05
3.64065 6 -0.05 3.83072 6 0.05 3.83072 6 -0.05 4.02766
6 0.05 4.02766 6 -0.05 4.23174 6 0.05 4.23174 6
-0.05 4.44319 6 0.05 4.44319 6 -0.05 4.6623 6 0.05
4.6623 6 -0.05 4.88934 6 0.05 4.88934 6 -0.05 5.12459
6 0.05 5.12459 6 -0.05 5.36835 6 0.05 5.36835 6
-0.05 5.62094 6 0.05 5.62094 6 -0.05 5.88266 6 0.05
5.88266 6 -0.05 6.15386 6 0.05 6.15386 6 -0.05 6.43487
6 0.05 6.43487 6 -0.05 6.72605 6 0.05 6.72605 6
-0.05 7.02776 6 0.05 7.02776 6 -0.05 7.34039 6 0.05
7.34039 6 -0.05 7.66433 6 0.05 7.66433 6 -0.05 8
6 0.05 8 6 -0.05 
POLYGONS 90 450
4 0 1 2 3 4 3 2 4 5 4
5 4 6 7 4 7 6 8 9 4
9 8 10 11 4 11 10 12 13 4
13 12 14 15 4 15 14 16 17 4
17 16 18 19 4 19 18 20 21 4
21 20 22 23 4 23 22 24 25 4
25 24 26 27 4 27 26 28 29 4
29 28 30 31 4 31 30 32 33 4
33 32 34 35 4 35 34 36 37 4
37 36 38 39 4 39 38 40 41 4
41 40 42 43 4 43 42 44 45 4
45 44 46 47 4 47 46 48 49 4
49 48 50 51 4 51 50 52 53 4
53 52 54 55 4 55 54 56 57 4
57 56 58 59 4 59 58 60 61 4
61 60 62 63 4 63 62 64 65 4
65 64 66 67 4 67 66 68 69 4
69 68 70 71 4 71 70 72 73 4
73 72 74 75 4 75 74 76 77 4
77 76 78 79 4 79 78 80 81 4
81 80 82 83 4 83 82 84 85 4
85 84 86 87 4 87 86 88 89 4
89 88 90 91 4 91 90 92 93 4
93 92 94 95 4 95 94 96 97 4
97 96 98 99 4 99 98 100 101 4
101 100 102 103 4 103 102 104 105 4
105 104 106 107 4 107 106 108 109 4
109 108 110 111 4 111 110 112 113 4
113 112 114 115 4 115 114 116 117 4
117 116 118 119 4 119 118 120 121 4
121 120 122 123 4 123 122 124 125 4
125 124 126 127 4 127 126 128 129 4
129 128 130 131 4 131 130 132 133 4
133 132 134 135 4 135 134 136 137 4
137 136 138 139 4 139 138 140 141 4
141 140 142 143 4 143 142 144 145 4
145 144 146 147 4 147 146 148 149 4
149 148 150 151 4 151 150 152 153 4
153 152 154 155 4 155 154 156 157 4
157 156 158 159 4 159 158 160 161 4
161 160 162 163 4 163 162 164 165 4
165 164 166 167 4 167 166 168 169 4
169 168 170 171 4 171 170 172 173 4
173 172 174 175 4 175 174 176 177 4
177 176 178 179 4 179 178 180 181 
CELL_DATA 90
FIELD attributes 2
patchID 1 90 float
3 3 3 3 3 3 3 3 3 3 3
3 3 3 3 3 3 3 3 3 3
3 3 3 3 3 3 3 3 3 3
3 3 3 3 3 3 3 3 3 3
3 3 3 3 3 3 3 3 3 3
3 3 3 3 3 3 3 3 3 3
3 3 3 3 3 3 3 3 3 3
3 3 3 3 3 3 3 3 3 3
3 3 3 3 3 3 3 3 3 
U 3 90 float
1.00016 0 0 1.00239 0 0 1.00584 0 0 1.01004 0
0 1.01458 0 0 1.01911 0 0 1.02337 0 0
1.02721 0 0 1.03058 0 0 1.03349 0 0 1.03512
0 3.15288e-22 1.03573 0 1.23035e-22 1.03635 0 -8.71835e-22 1.03695 0
7.07782e-22 1.03756 0 3.08441e-22 1.03816 0 2.21264e-22 1.03876 0 -5.02342e-22
1.03935 0 -5.37334e-22 1.03994 0 -2.81233e-22 1.04053 0 -3.99416e-22 1.0411
0 1.0342e-23 1.04168 0 4.3002e-22 1.04224 0 -7.49924e-23 1.0428 0
1.92548e-22 1.04336 0 4.96747e-22 1.0439 0 -3.472e-22 1.04444 0 -8.16567e-23
1.04497 0 1.44403e-22 1.04549 0 -4.0442e-23 1.046 0 5.81244e-23 1.04651
0 5.27946e-23 1.047 0 -3.63304e-23 1.04749 0 1.2615e-22 1.04796 0
-4.48826e-23 1.04842 0 -2.1891e-22 1.04888 0 3.18371e-22 1.04932 0 1.02197e-22
1.04975 0 -3.49367e-23 1.05018 0 2.68931e-22 1.05059 0 1.68009e-23 1.05098
0 -2.5814e-22 1.05137 0 -1.8562e-22 1.05175 0 -2.48788e-22 1.05211 0
-9.04287e-23 1.05246 0 -1.19502e-23 1.0528 0 1.52783e-22 1.05312 0 1.94726e-22
1.05343 0 -1.61456e-22 1.05373 0 3.42605e-23 1.05402 0 1.01086e-22 1.05448
0 0 1.05506 0 0 1.05559 0 0 1.05605 0
0 1.05643 0 0 1.05673 0 0 1.05694 0 0
1.05704 0 0 1.05703 0 0 1.05691 0 0 1.05665
0 0 1.05626 0 0 1.05572 0 0 1.05503 0
0 1.05419 0 0 1.05319 0 0 1.05204 0 0
1.05072 0 0 1.04924 0 0 1.04761 0 0 1.04584
0 0 1.04393 0 0 1.04189 0 0 1.03975 0
0 1.03753 0 0 1.03523 0 0 1.03288 0 0
1.03051 0 0 1.02813 0 0 1.02578 0 0 1.02347
0 0 1.02122 0 0 1.01906 0 0 1.017 0
0 1.01507 0 0 1.01322 0 0 1.01161 0 0
1.00993 0 0 1.00885 0 0 1.00689 0 0 
POINT_DATA  182
FIELD attributes 1
U 3 182 float
1.00016 0 0 1.00016 0 0 1.00136 0 0 1.00136 0
0 1.00424 0 0 1.00424 0 0 1.00809 0 0
1.00809 0 0 1.01247 0 0 1.01247 0 0 1.017
0 0 1.017 0 0 1.02138 0 0 1.02138 0
0 1.02541 0 0 1.02541 0 0 1.029 0 0
1.029 0 0 1.03212 0 0 1.03212 0 0 1.03452
0 1.98356e-22 1.03452 0 1.98356e-22 1.03542 0 2.19161e-22 1.03542 0
2.19161e-22 1.03604 0 -3.744e-22 1.03604 0 -3.744e-22 1.03665 0 -8.20265e-23
1.03665 0 -8.20265e-23 1.03726 0 5.08111e-22 1.03726 0 5.08111e-22 1.03786
0 2.64852e-22 1.03786 0 2.64852e-22 1.03846 0 -1.40539e-22 1.03846 0
-1.40539e-22 1.03905 0 -5.19838e-22 1.03905 0 -5.19838e-22 1.03964 0 -4.09284e-22
1.03964 0 -4.09284e-22 1.04024 0 -3.40324e-22 1.04024 0 -3.40324e-22 1.04081
0 -1.94537e-22 1.04081 0 -1.94537e-22 1.04139 0 2.20181e-22 1.04139 0
2.20181e-22 1.04196 0 1.77514e-22 1.04196 0 1.77514e-22 1.04252 0 5.87778e-23
1.04252 0 5.87778e-23 1.04308 0 3.44647e-22 1.04308 0 3.44647e-22 1.04363
0 7.47735e-23 1.04363 0 7.47735e-23 1.04417 0 -2.14428e-22 1.04417 0
-2.14428e-22 1.04471 0 3.13731e-23 1.04471 0 3.13731e-23 1.04523 0 5.19805e-23
1.04523 0 5.19805e-23 1.04575 0 8.8412e-24 1.04575 0 8.8412e-24 1.04625
0 5.54595e-23 1.04625 0 5.54595e-23 1.04675 0 8.2321e-24 1.04675 0
8.2321e-24 1.04725 0 4.49098e-23 1.04725 0 4.49098e-23 1.04772 0 4.06337e-23
1.04772 0 4.06337e-23 1.04819 0 -1.31896e-22 1.04819 0 -1.31896e-22 1.04865
0 4.97305e-23 1.04865 0 4.97305e-23 1.0491 0 2.10284e-22 1.0491 0
2.10284e-22 1.04954 0 3.36302e-23 1.04954 0 3.36302e-23 1.04997 0 1.16997e-22
1.04997 0 1.16997e-22 1.05038 0 1.42866e-22 1.05038 0 1.42866e-22 1.05078
0 -1.2067e-22 1.05078 0 -1.2067e-22 1.05117 0 -2.2188e-22 1.05117 0
-2.2188e-22 1.05156 0 -2.17204e-22 1.05156 0 -2.17204e-22 1.05193 0 -1.69608e-22
1.05193 0 -1.69608e-22 1.05228 0 -5.11894e-23 1.05228 0 -5.11894e-23 1.05263
0 7.04164e-23 1.05263 0 7.04164e-23 1.05296 0 1.73755e-22 1.05296 0
1.73755e-22 1.05327 0 1.6635e-23 1.05327 0 1.6635e-23 1.05358 0 -6.35978e-23
1.05358 0 -6.35978e-23 1.05387 0 6.76732e-23 1.05387 0 6.76732e-23 1.05423
0 5.5772e-23 1.05423 0 5.5772e-23 1.05477 0 0 1.05477 0
0 1.05532 0 0 1.05532 0 0 1.05582 0 0
1.05582 0 0 1.05624 0 0 1.05624 0 0 1.05658
0 0 1.05658 0 0 1.05683 0 0 1.05683 0
0 1.05699 0 0 1.05699 0 0 1.05704 0 0
1.05704 0 0 1.05697 0 0 1.05697 0 0 1.05678
0 0 1.05678 0 0 1.05646 0 0 1.05646 0
0 1.05599 0 0 1.05599 0 0 1.05538 0 0
1.05538 0 0 1.05461 0 0 1.05461 0 0 1.0537
0 0 1.0537 0 0 1.05262 0 0 1.05262 0
0 1.05139 0 0 1.05139 0 0 1.04999 0 0
1.04999 0 0 1.04844 0 0 1.04844 0 0 1.04674
0 0 1.04674 0 0 1.0449 0 0 1.0449 0
0 1.04292 0 0 1.04292 0 0 1.04083 0 0
1.04083 0 0 1.03866 0 0 1.03866 0 0 1.0364
0 0 1.0364 0 0 1.03407 0 0 1.03407 0
0 1.03171 0 0 1.03171 0 0 1.02934 0 0
1.02934 0 0 1.02697 0 0 1.02697 0 0 1.02464
0 0 1.02464 0 0 1.02236 0 0 1.02236 0
0 1.02016 0 0 1.02016 0 0 1.01805 0 0
1.01805 0 0 1.01605 0 0 1.01605 0 0 1.01416
0 0 1.01416 0 0 1.01243 0 0 1.01243 0
0 1.01078 0 0 1.01078 0 0 1.0094 0 0
1.0094 0 0 1.00789 0 0 1.00789 0 0 1.00689
0 0 1.00689 0 0 
