/*--------------------------------*- C++ -*----------------------------------*\
  =========                 |
  \\      /  F ield         | OpenFOAM: The Open Source CFD Toolbox
   \\    /   O peration     | Website:  https://openfoam.org
    \\  /    A nd           | Version:  7
     \\/     M anipulation  |
\*---------------------------------------------------------------------------*/
FoamFile
{
    version     2.0;
    format      ascii;
    class       volVectorField;
    location    "41.00026";
    object      U;
}
// * * * * * * * * * * * * * * * * * * * * * * * * * * * * * * * * * * * * * //

dimensions      [0 1 -1 0 0 0 0];

internalField   nonuniform List<vector> 
5800
(
(-0.105092 -0.0100876 -8.07057e-21)
(-0.132878 -0.00877163 -3.31058e-21)
(-0.153392 -0.00680214 2.02974e-20)
(-0.16695 -0.00430076 -7.95658e-21)
(-0.173701 -0.00146291 8.97128e-22)
(1.05137 -0.000797112 0)
(1.05197 -0.000780216 0)
(1.05257 -0.000762633 0)
(1.05316 -0.000744342 0)
(1.05375 -0.000725322 0)
(1.05434 -0.000705552 0)
(1.05493 -0.000685014 0)
(1.05551 -0.00066369 0)
(1.05608 -0.000641568 0)
(1.05664 -0.000618636 0)
(1.05719 -0.000594885 0)
(1.05774 -0.000570309 0)
(1.05827 -0.000544904 0)
(1.05878 -0.000518669 0)
(1.05928 -0.000491605 0)
(1.05976 -0.000463718 0)
(1.06023 -0.000435016 0)
(1.06067 -0.000405508 0)
(1.06109 -0.000375211 0)
(1.06148 -0.000344142 0)
(1.06185 -0.000312323 0)
(1.06218 -0.000279779 0)
(1.06249 -0.000246542 0)
(1.06276 -0.000212643 0)
(1.063 -0.000178122 0)
(1.0632 -0.000143021 0)
(1.06335 -0.000107386 0)
(1.06347 -7.1267e-05 0)
(1.06354 -3.47216e-05 0)
(1.06356 2.19443e-06 0)
(1.06353 3.94119e-05 0)
(1.06345 7.68696e-05 0)
(1.06331 0.000114486 0)
(1.06312 0.000152196 0)
(1.06287 0.000189903 0)
(1.06255 0.000227547 0)
(1.06217 0.000265008 0)
(1.06173 0.000302243 0)
(1.06122 0.000339097 0)
(1.06063 0.000375562 0)
(1.05998 0.000411426 0)
(1.05924 0.000446751 0)
(1.05844 0.000481229 0)
(1.05754 0.000515043 0)
(1.0566 0.000547734 0)
(1.05553 0.00057968 0)
(1.05445 0.00061018 0)
(1.0532 0.000639931 0)
(1.05198 0.000667846 0)
(1.05054 0.000695115 0)
(1.0492 0.000720063 0)
(1.04754 0.000744618 0)
(1.04611 0.000766237 0)
(1.0442 0.000787906 0)
(1.04272 0.000805858 0)
(1.04052 0.000824518 0)
(1.03906 0.000838507 0)
(1.0365 0.000854039 0)
(1.03516 0.000863849 0)
(1.03214 0.00087603 0)
(1.03106 0.000881643 0)
(1.02742 0.000889896 0)
(1.02681 0.000891881 0)
(1.02231 0.000894838 0)
(1.05159 -0.00236344 0)
(1.05219 -0.00231472 0)
(1.05279 -0.00226375 0)
(1.05339 -0.00221049 0)
(1.05398 -0.0021549 0)
(1.05457 -0.00209695 0)
(1.05516 -0.00203658 0)
(1.05574 -0.00197376 0)
(1.05631 -0.00190846 0)
(1.05688 -0.00184066 0)
(1.05743 -0.00177035 0)
(1.05798 -0.0016975 0)
(1.05851 -0.00162212 0)
(1.05902 -0.00154421 0)
(1.05952 -0.00146378 0)
(1.06001 -0.00138085 0)
(1.06047 -0.00129546 0)
(1.06091 -0.00120762 0)
(1.06133 -0.00111741 0)
(1.06173 -0.00102486 0)
(1.06209 -0.000930058 0)
(1.06243 -0.000833074 0)
(1.06274 -0.000734003 0)
(1.06301 -0.000632947 0)
(1.06325 -0.000530023 0)
(1.06344 -0.000425359 0)
(1.0636 -0.000319095 0)
(1.06371 -0.000211386 0)
(1.06378 -0.000102398 0)
(1.0638 7.69118e-06 0)
(1.06377 0.000118688 0)
(1.06369 0.000230401 0)
(1.06355 0.000342591 0)
(1.06336 0.000455052 0)
(1.0631 0.000567509 0)
(1.06278 0.000679762 0)
(1.0624 0.000791483 0)
(1.06195 0.0009025 0)
(1.06144 0.00101241 0)
(1.06085 0.00112111 0)
(1.06019 0.00122807 0)
(1.05945 0.00133333 0)
(1.05865 0.00143618 0)
(1.05775 0.00153688 0)
(1.05681 0.00163443 0)
(1.05573 0.00172949 0)
(1.05465 0.00182058 0)
(1.05339 0.00190898 0)
(1.05217 0.00199248 0)
(1.05072 0.00207329 0)
(1.04938 0.00214815 0)
(1.04771 0.00222061 0)
(1.04628 0.00228585 0)
(1.04437 0.00234932 0)
(1.04289 0.00240407 0)
(1.04068 0.00245803 0)
(1.03922 0.00250158 0)
(1.03665 0.00254555 0)
(1.03531 0.00257736 0)
(1.03228 0.00261065 0)
(1.03121 0.00263059 0)
(1.02755 0.00265191 0)
(1.02695 0.00266072 0)
(1.02244 0.00266751 0)
(1.05201 -0.00391632 0)
(1.05262 -0.00383532 0)
(1.05322 -0.00375059 0)
(1.05382 -0.00366204 0)
(1.05442 -0.00356964 0)
(1.05502 -0.0034733 0)
(1.05561 -0.00337297 0)
(1.05619 -0.0032686 0)
(1.05677 -0.00316013 0)
(1.05734 -0.00304754 0)
(1.0579 -0.00293079 0)
(1.05844 -0.00280987 0)
(1.05898 -0.00268477 0)
(1.0595 -0.0025555 0)
(1.06 -0.00242209 0)
(1.06048 -0.00228455 0)
(1.06095 -0.00214294 0)
(1.06139 -0.00199732 0)
(1.06181 -0.00184777 0)
(1.06221 -0.00169439 0)
(1.06258 -0.00153729 0)
(1.06291 -0.0013766 0)
(1.06322 -0.00121247 0)
(1.06349 -0.00104508 0)
(1.06373 -0.000874621 0)
(1.06393 -0.000701298 0)
(1.06408 -0.00052535 0)
(1.06419 -0.000347029 0)
(1.06426 -0.000166615 0)
(1.06428 1.56005e-05 0)
(1.06425 0.000199297 0)
(1.06416 0.000384148 0)
(1.06402 0.000569772 0)
(1.06382 0.000755813 0)
(1.06356 0.000941837 0)
(1.06324 0.00112748 0)
(1.06285 0.00131225 0)
(1.0624 0.00149579 0)
(1.06188 0.00167753 0)
(1.06128 0.00185717 0)
(1.06062 0.00203401 0)
(1.05987 0.00220789 0)
(1.05906 0.00237792 0)
(1.05816 0.00254417 0)
(1.0572 0.00270546 0)
(1.05612 0.00286224 0)
(1.05503 0.00301291 0)
(1.05377 0.0031585 0)
(1.05254 0.00329677 0)
(1.05108 0.00342958 0)
(1.04973 0.00355378 0)
(1.04806 0.00367244 0)
(1.04662 0.0037811 0)
(1.0447 0.00388441 0)
(1.04321 0.00397628 0)
(1.04099 0.00406325 0)
(1.03953 0.00413733 0)
(1.03695 0.00420699 0)
(1.0356 0.00426257 0)
(1.03256 0.00431382 0)
(1.03148 0.0043505 0)
(1.02782 0.00438173 0)
(1.02721 0.00439968 0)
(1.02269 0.00440836 0)
(1.05263 -0.00544812 0)
(1.05324 -0.00533518 0)
(1.05385 -0.00521703 0)
(1.05446 -0.00509359 0)
(1.05507 -0.00496477 0)
(1.05567 -0.00483048 0)
(1.05626 -0.00469063 0)
(1.05685 -0.00454515 0)
(1.05744 -0.00439398 0)
(1.05801 -0.00423706 0)
(1.05857 -0.00407436 0)
(1.05912 -0.00390586 0)
(1.05966 -0.00373155 0)
(1.06018 -0.00355144 0)
(1.06069 -0.00336555 0)
(1.06118 -0.00317395 0)
(1.06165 -0.00297668 0)
(1.06209 -0.00277385 0)
(1.06252 -0.00256557 0)
(1.06291 -0.00235196 0)
(1.06328 -0.0021332 0)
(1.06362 -0.00190946 0)
(1.06393 -0.00168097 0)
(1.0642 -0.00144795 0)
(1.06443 -0.00121069 0)
(1.06463 -0.000969473 0)
(1.06478 -0.000724634 0)
(1.06489 -0.000476526 0)
(1.06496 -0.000225537 0)
(1.06497 2.79214e-05 0)
(1.06494 0.000283401 0)
(1.06484 0.000540444 0)
(1.0647 0.000798524 0)
(1.06449 0.00105714 0)
(1.06423 0.0013157 0)
(1.0639 0.00157368 0)
(1.06351 0.0018304 0)
(1.06304 0.00208537 0)
(1.06252 0.0023378 0)
(1.06191 0.00258724 0)
(1.06124 0.00283279 0)
(1.06048 0.00307411 0)
(1.05967 0.00331012 0)
(1.05875 0.00354072 0)
(1.05778 0.00376454 0)
(1.05669 0.00398187 0)
(1.05559 0.00419091 0)
(1.05432 0.00439253 0)
(1.05307 0.00458434 0)
(1.05161 0.00476805 0)
(1.05024 0.00494039 0)
(1.04856 0.00510422 0)
(1.04711 0.00525514 0)
(1.04517 0.00539742 0)
(1.04368 0.00552526 0)
(1.04145 0.00564456 0)
(1.03997 0.00574802 0)
(1.03738 0.00584301 0)
(1.03603 0.00592114 0)
(1.03297 0.00599037 0)
(1.03189 0.00604258 0)
(1.02821 0.00608408 0)
(1.0276 0.00611019 0)
(1.02305 0.00612097 0)
(1.05344 -0.00696855 0)
(1.05406 -0.00682369 0)
(1.05468 -0.00667215 0)
(1.05529 -0.00651381 0)
(1.05591 -0.00634857 0)
(1.05651 -0.00617632 0)
(1.05712 -0.00599694 0)
(1.05771 -0.00581035 0)
(1.0583 -0.00561647 0)
(1.05888 -0.00541524 0)
(1.05945 -0.00520661 0)
(1.06001 -0.00499056 0)
(1.06055 -0.00476709 0)
(1.06108 -0.00453621 0)
(1.06159 -0.00429797 0)
(1.06208 -0.00405242 0)
(1.06256 -0.00379965 0)
(1.06301 -0.00353979 0)
(1.06343 -0.00327298 0)
(1.06383 -0.00299939 0)
(1.0642 -0.00271924 0)
(1.06454 -0.00243277 0)
(1.06485 -0.00214025 0)
(1.06512 -0.001842 0)
(1.06535 -0.00153836 0)
(1.06554 -0.00122972 0)
(1.0657 -0.000916501 0)
(1.0658 -0.000599156 0)
(1.06586 -0.000278186 0)
(1.06587 4.5879e-05 0)
(1.06583 0.000372464 0)
(1.06573 0.000700979 0)
(1.06558 0.00103075 0)
(1.06537 0.00136114 0)
(1.0651 0.00169139 0)
(1.06476 0.00202082 0)
(1.06436 0.00234858 0)
(1.06388 0.00267401 0)
(1.06334 0.00299613 0)
(1.06273 0.00331435 0)
(1.06204 0.00362754 0)
(1.06127 0.00393522 0)
(1.06045 0.00423609 0)
(1.05951 0.00452992 0)
(1.05854 0.00481509 0)
(1.05743 0.0050918 0)
(1.05631 0.00535801 0)
(1.05503 0.0056145 0)
(1.05377 0.00585865 0)
(1.05229 0.00609211 0)
(1.05091 0.00631139 0)
(1.04921 0.00651932 0)
(1.04774 0.00671128 0)
(1.04579 0.00689157 0)
(1.04428 0.00705419 0)
(1.04204 0.00720503 0)
(1.04055 0.00733671 0)
(1.03794 0.00745647 0)
(1.03658 0.00755606 0)
(1.03351 0.00764298 0)
(1.03241 0.00770971 0)
(1.02871 0.00776146 0)
(1.0281 0.00779497 0)
(1.02353 0.0078079 0)
(1.05442 -0.00848141 0)
(1.05505 -0.0083044 0)
(1.05568 -0.00811922 0)
(1.05631 -0.00792576 0)
(1.05693 -0.00772388 0)
(1.05755 -0.00751346 0)
(1.05816 -0.00729436 0)
(1.05876 -0.00706648 0)
(1.05936 -0.00682972 0)
(1.05995 -0.00658402 0)
(1.06053 -0.00632932 0)
(1.06109 -0.00606561 0)
(1.06164 -0.00579288 0)
(1.06217 -0.00551114 0)
(1.06269 -0.00522047 0)
(1.06319 -0.00492093 0)
(1.06366 -0.00461265 0)
(1.06412 -0.00429576 0)
(1.06455 -0.00397046 0)
(1.06495 -0.00363697 0)
(1.06532 -0.00329554 0)
(1.06566 -0.00294646 0)
(1.06597 -0.0025901 0)
(1.06624 -0.00222682 0)
(1.06647 -0.00185705 0)
(1.06666 -0.00148127 0)
(1.06681 -0.0011 0)
(1.06691 -0.000713789 0)
(1.06697 -0.000323257 0)
(1.06697 7.09518e-05 0)
(1.06692 0.00046813 0)
(1.06682 0.000867555 0)
(1.06666 0.00126841 0)
(1.06644 0.00166991 0)
(1.06615 0.00207114 0)
(1.0658 0.00247126 0)
(1.06539 0.00286926 0)
(1.0649 0.0032643 0)
(1.06435 0.00365523 0)
(1.06372 0.00404127 0)
(1.06303 0.00442112 0)
(1.06224 0.00479414 0)
(1.0614 0.00515882 0)
(1.06045 0.00551478 0)
(1.05945 0.00586019 0)
(1.05833 0.00619513 0)
(1.0572 0.00651733 0)
(1.05589 0.00682752 0)
(1.05462 0.00712279 0)
(1.05311 0.00740482 0)
(1.05172 0.00766981 0)
(1.05 0.00792069 0)
(1.04852 0.0081525 0)
(1.04655 0.0083697 0)
(1.04502 0.00856595 0)
(1.04276 0.00874734 0)
(1.04126 0.00890619 0)
(1.03863 0.00904989 0)
(1.03725 0.00917001 0)
(1.03415 0.00927399 0)
(1.03305 0.00935451 0)
(1.02933 0.00941608 0)
(1.02871 0.00945655 0)
(1.02411 0.00947142 0)
(1.05558 -0.00999042 0)
(1.05622 -0.00978092 0)
(1.05686 -0.00956178 0)
(1.0575 -0.00933286 0)
(1.05813 -0.00909402 0)
(1.05876 -0.0088451 0)
(1.05938 -0.00858595 0)
(1.06 -0.00831644 0)
(1.0606 -0.00803648 0)
(1.0612 -0.00774599 0)
(1.06179 -0.00744492 0)
(1.06236 -0.00713324 0)
(1.06292 -0.00681095 0)
(1.06346 -0.00647809 0)
(1.06398 -0.00613473 0)
(1.06448 -0.00578097 0)
(1.06496 -0.00541695 0)
(1.06542 -0.00504285 0)
(1.06585 -0.0046589 0)
(1.06626 -0.00426536 0)
(1.06663 -0.00386254 0)
(1.06697 -0.0034508 0)
(1.06728 -0.00303055 0)
(1.06755 -0.00260226 0)
(1.06778 -0.00216642 0)
(1.06797 -0.0017236 0)
(1.06811 -0.00127441 0)
(1.06821 -0.000819532 0)
(1.06826 -0.000359681 0)
(1.06826 0.000104373 0)
(1.0682 0.000571794 0)
(1.06809 0.00104173 0)
(1.06792 0.00151321 0)
(1.06769 0.0019853 0)
(1.06739 0.00245694 0)
(1.06703 0.00292712 0)
(1.0666 0.00339467 0)
(1.0661 0.00385857 0)
(1.06553 0.0043175 0)
(1.06488 0.00477052 0)
(1.06417 0.00521612 0)
(1.06337 0.00565353 0)
(1.06251 0.006081 0)
(1.06154 0.00649804 0)
(1.06053 0.00690259 0)
(1.05938 0.00729464 0)
(1.05823 0.00767166 0)
(1.0569 0.00803437 0)
(1.05561 0.00837954 0)
(1.05408 0.00870893 0)
(1.05267 0.00901839 0)
(1.05093 0.00931101 0)
(1.04942 0.00958144 0)
(1.04743 0.00983438 0)
(1.04589 0.0100631 0)
(1.0436 0.0102739 0)
(1.04208 0.0104589 0)
(1.03943 0.0106256 0)
(1.03804 0.0107653 0)
(1.03491 0.0108856 0)
(1.0338 0.0109792 0)
(1.03004 0.01105 0)
(1.02942 0.0110971 0)
(1.02479 0.0111136 0)
(1.0569 -0.0114994 0)
(1.05755 -0.0112569 0)
(1.05821 -0.0110033 0)
(1.05886 -0.0107385 0)
(1.0595 -0.0104622 0)
(1.06014 -0.0101742 0)
(1.06078 -0.00987452 0)
(1.0614 -0.00956288 0)
(1.06202 -0.00923921 0)
(1.06263 -0.00890343 0)
(1.06322 -0.00855548 0)
(1.06381 -0.00819535 0)
(1.06437 -0.00782303 0)
(1.06492 -0.00743859 0)
(1.06545 -0.00704209 0)
(1.06596 -0.00663369 0)
(1.06645 -0.00621353 0)
(1.06691 -0.00578184 0)
(1.06735 -0.00533889 0)
(1.06775 -0.00488498 0)
(1.06813 -0.0044205 0)
(1.06847 -0.00394585 0)
(1.06878 -0.00346152 0)
(1.06905 -0.00296804 0)
(1.06927 -0.00246601 0)
(1.06946 -0.00195608 0)
(1.0696 -0.00143898 0)
(1.06969 -0.000915461 0)
(1.06973 -0.000386384 0)
(1.06972 0.000147366 0)
(1.06966 0.000684821 0)
(1.06954 0.00122499 0)
(1.06935 0.00176676 0)
(1.06911 0.00230905 0)
(1.0688 0.00285063 0)
(1.06842 0.00339036 0)
(1.06798 0.00392685 0)
(1.06746 0.00445897 0)
(1.06688 0.00498518 0)
(1.06621 0.00550439 0)
(1.06548 0.0060149 0)
(1.06465 0.00651578 0)
(1.06377 0.00700507 0)
(1.06278 0.00748218 0)
(1.06175 0.00794479 0)
(1.06058 0.00839284 0)
(1.0594 0.00882352 0)
(1.05805 0.00923755 0)
(1.05673 0.0096314 0)
(1.05518 0.0100069 0)
(1.05375 0.0103596 0)
(1.05198 0.0106927 0)
(1.05045 0.0110004 0)
(1.04843 0.0112879 0)
(1.04687 0.0115478 0)
(1.04455 0.011787 0)
(1.04302 0.0119969 0)
(1.04034 0.0121856 0)
(1.03893 0.012344 0)
(1.03578 0.0124797 0)
(1.03466 0.0125857 0)
(1.03086 0.0126651 0)
(1.03024 0.0127184 0)
(1.02556 0.0127362 0)
(1.05838 -0.0130115 0)
(1.05905 -0.0127354 0)
(1.05971 -0.0124468 0)
(1.06038 -0.0121453 0)
(1.06104 -0.0118309 0)
(1.06169 -0.0115033 0)
(1.06234 -0.0111624 0)
(1.06298 -0.0108079 0)
(1.06361 -0.0104399 0)
(1.06423 -0.0100582 0)
(1.06484 -0.00966271 0)
(1.06543 -0.00925347 0)
(1.066 -0.0088305 0)
(1.06656 -0.00839385 0)
(1.0671 -0.00794363 0)
(1.06762 -0.00747999 0)
(1.06811 -0.00700313 0)
(1.06858 -0.00651332 0)
(1.06902 -0.00601087 0)
(1.06942 -0.00549613 0)
(1.0698 -0.00496953 0)
(1.07015 -0.00443158 0)
(1.07045 -0.0038828 0)
(1.07072 -0.00332384 0)
(1.07094 -0.00275535 0)
(1.07113 -0.00217811 0)
(1.07126 -0.00159292 0)
(1.07135 -0.00100067 0)
(1.07138 -0.000402332 0)
(1.07136 0.000201091 0)
(1.07129 0.000808491 0)
(1.07115 0.00141874 0)
(1.07096 0.00203058 0)
(1.0707 0.00264278 0)
(1.07037 0.00325394 0)
(1.06998 0.00386276 0)
(1.06952 0.0044677 0)
(1.06898 0.00506745 0)
(1.06838 0.00566028 0)
(1.06769 0.00624497 0)
(1.06693 0.00681958 0)
(1.06609 0.00738307 0)
(1.06518 0.00793326 0)
(1.06416 0.00846944 0)
(1.06311 0.00898906 0)
(1.06191 0.009492 0)
(1.06071 0.00997517 0)
(1.05933 0.0104393 0)
(1.05799 0.0108806 0)
(1.05641 0.0113009 0)
(1.05495 0.0116955 0)
(1.05315 0.0120678 0)
(1.0516 0.0124116 0)
(1.04955 0.0127323 0)
(1.04796 0.0130222 0)
(1.04562 0.0132885 0)
(1.04406 0.0135222 0)
(1.04135 0.0137317 0)
(1.03993 0.0139078 0)
(1.03674 0.014058 0)
(1.03561 0.0141757 0)
(1.03178 0.0142631 0)
(1.03114 0.0143221 0)
(1.02642 0.0143408 0)
(1.06001 -0.0145295 0)
(1.0607 -0.0142191 0)
(1.06138 -0.0138946 0)
(1.06206 -0.0135558 0)
(1.06274 -0.0132025 0)
(1.06341 -0.0128345 0)
(1.06407 -0.0124516 0)
(1.06472 -0.0120536 0)
(1.06536 -0.0116404 0)
(1.066 -0.0112119 0)
(1.06661 -0.0107681 0)
(1.06722 -0.010309 0)
(1.0678 -0.00983457 0)
(1.06837 -0.00934495 0)
(1.06892 -0.00884025 0)
(1.06944 -0.00832065 0)
(1.06994 -0.00778639 0)
(1.07041 -0.00723777 0)
(1.07086 -0.00667515 0)
(1.07127 -0.00609896 0)
(1.07165 -0.00550968 0)
(1.07199 -0.00490788 0)
(1.0723 -0.00429417 0)
(1.07256 -0.00366926 0)
(1.07279 -0.00303394 0)
(1.07296 -0.00238903 0)
(1.07309 -0.00173548 0)
(1.07317 -0.00107428 0)
(1.0732 -0.000406522 0)
(1.07317 0.000266662 0)
(1.07308 0.000944026 0)
(1.07293 0.0016243 0)
(1.07272 0.00230608 0)
(1.07245 0.00298798 0)
(1.0721 0.00366844 0)
(1.07169 0.00434601 0)
(1.07121 0.00501896 0)
(1.07065 0.00568582 0)
(1.07003 0.00634468 0)
(1.06931 0.00699416 0)
(1.06854 0.00763212 0)
(1.06766 0.0082574 0)
(1.06673 0.00886757 0)
(1.06569 0.00946185 0)
(1.0646 0.0100374 0)
(1.06338 0.0105941 0)
(1.06214 0.0111286 0)
(1.06074 0.0116417 0)
(1.05936 0.0121291 0)
(1.05775 0.012593 0)
(1.05626 0.0130282 0)
(1.05443 0.0134383 0)
(1.05286 0.0138168 0)
(1.05078 0.0141694 0)
(1.04917 0.0144879 0)
(1.04679 0.01478 0)
(1.04521 0.0150364 0)
(1.04246 0.0152655 0)
(1.04102 0.0154583 0)
(1.0378 0.015622 0)
(1.03665 0.0157506 0)
(1.03278 0.0158452 0)
(1.03214 0.0159096 0)
(1.02737 0.0159287 0)
(1.06179 -0.016056 0)
(1.06249 -0.0157105 0)
(1.0632 -0.0153493 0)
(1.0639 -0.0149722 0)
(1.06459 -0.0145791 0)
(1.06527 -0.0141698 0)
(1.06595 -0.0137439 0)
(1.06662 -0.0133014 0)
(1.06728 -0.0128421 0)
(1.06792 -0.012366 0)
(1.06855 -0.0118729 0)
(1.06917 -0.011363 0)
(1.06976 -0.0108362 0)
(1.07034 -0.0102927 0)
(1.0709 -0.00973266 0)
(1.07143 -0.00915623 0)
(1.07194 -0.00856373 0)
(1.07241 -0.00795549 0)
(1.07286 -0.00733194 0)
(1.07328 -0.00669354 0)
(1.07366 -0.00604087 0)
(1.074 -0.00537455 0)
(1.07431 -0.00469529 0)
(1.07457 -0.00400389 0)
(1.07479 -0.0033012 0)
(1.07496 -0.00258819 0)
(1.07508 -0.00186588 0)
(1.07515 -0.00113541 0)
(1.07517 -0.00039797 0)
(1.07513 0.000345161 0)
(1.07503 0.0010926 0)
(1.07486 0.00184293 0)
(1.07464 0.0025946 0)
(1.07435 0.00334608 0)
(1.07399 0.00409564 0)
(1.07355 0.00484166 0)
(1.07305 0.00558223 0)
(1.07247 0.00631574 0)
(1.07182 0.00704008 0)
(1.07108 0.00775371 0)
(1.07027 0.00845431 0)
(1.06937 0.00914056 0)
(1.06841 0.00980983 0)
(1.06734 0.0104612 0)
(1.06622 0.0110917 0)
(1.06497 0.0117011 0)
(1.0637 0.0122858 0)
(1.06226 0.0128465 0)
(1.06086 0.0133788 0)
(1.05921 0.0138849 0)
(1.05769 0.0143593 0)
(1.05583 0.0148058 0)
(1.05422 0.0152176 0)
(1.05211 0.0156007 0)
(1.05047 0.0159466 0)
(1.04806 0.0162631 0)
(1.04645 0.0165408 0)
(1.04367 0.0167884 0)
(1.04221 0.0169968 0)
(1.03894 0.017173 0)
(1.03778 0.0173117 0)
(1.03387 0.0174128 0)
(1.03322 0.0174821 0)
(1.0284 0.0175013 0)
(1.06371 -0.0175933 0)
(1.06444 -0.0172116 0)
(1.06516 -0.0168127 0)
(1.06588 -0.0163964 0)
(1.06659 -0.0159625 0)
(1.06729 -0.0155108 0)
(1.06799 -0.0150409 0)
(1.06867 -0.0145528 0)
(1.06935 -0.0140464 0)
(1.07 -0.0135215 0)
(1.07065 -0.0129782 0)
(1.07128 -0.0124164 0)
(1.07188 -0.0118363 0)
(1.07247 -0.0112379 0)
(1.07304 -0.0106214 0)
(1.07358 -0.00998717 0)
(1.07409 -0.00933545 0)
(1.07457 -0.00866666 0)
(1.07503 -0.00798126 0)
(1.07545 -0.00727981 0)
(1.07583 -0.00656292 0)
(1.07617 -0.00583131 0)
(1.07648 -0.00508578 0)
(1.07674 -0.0043272 0)
(1.07695 -0.00355654 0)
(1.07712 -0.00277487 0)
(1.07723 -0.00198333 0)
(1.07729 -0.00118317 0)
(1.0773 -0.000375707 0)
(1.07724 0.000437635 0)
(1.07713 0.00125533 0)
(1.07695 0.00207584 0)
(1.0767 0.00289743 0)
(1.07639 0.00371842 0)
(1.07601 0.00453691 0)
(1.07555 0.00535114 0)
(1.07503 0.00615901 0)
(1.07442 0.00695875 0)
(1.07374 0.00774805 0)
(1.07298 0.00852523 0)
(1.07214 0.00928776 0)
(1.07121 0.0100342 0)
(1.07022 0.0107617 0)
(1.06911 0.0114693 0)
(1.06796 0.0121537 0)
(1.06667 0.0128146 0)
(1.06537 0.0134482 0)
(1.0639 0.0140553 0)
(1.06246 0.0146312 0)
(1.06078 0.0151781 0)
(1.05923 0.0156903 0)
(1.05733 0.0161719 0)
(1.05569 0.0166156 0)
(1.05354 0.0170277 0)
(1.05187 0.0173994 0)
(1.04942 0.0177391 0)
(1.04779 0.0180368 0)
(1.04496 0.0183016 0)
(1.04348 0.0185245 0)
(1.04018 0.0187121 0)
(1.039 0.0188601 0)
(1.03504 0.0189668 0)
(1.03439 0.0190406 0)
(1.02951 0.0190593 0)
(1.06578 -0.0191432 0)
(1.06653 -0.0187243 0)
(1.06727 -0.0182866 0)
(1.06801 -0.01783 0)
(1.06874 -0.0173542 0)
(1.06946 -0.0168589 0)
(1.07017 -0.0163439 0)
(1.07087 -0.0158091 0)
(1.07156 -0.0152543 0)
(1.07224 -0.0146796 0)
(1.0729 -0.0140848 0)
(1.07354 -0.01347 0)
(1.07416 -0.0128353 0)
(1.07476 -0.0121808 0)
(1.07533 -0.0115069 0)
(1.07588 -0.0108137 0)
(1.0764 -0.0101017 0)
(1.07689 -0.00937131 0)
(1.07735 -0.00862307 0)
(1.07777 -0.00785758 0)
(1.07815 -0.00707556 0)
(1.0785 -0.0062778 0)
(1.0788 -0.00546517 0)
(1.07905 -0.00463866 0)
(1.07926 -0.00379933 0)
(1.07942 -0.00294837 0)
(1.07953 -0.00208703 0)
(1.07958 -0.00121667 0)
(1.07957 -0.00033878 0)
(1.0795 0.000545108 0)
(1.07937 0.00143332 0)
(1.07917 0.00232416 0)
(1.07891 0.00321575 0)
(1.07858 0.00410624 0)
(1.07817 0.00499358 0)
(1.07769 0.00587582 0)
(1.07714 0.00675069 0)
(1.0765 0.00761626 0)
(1.0758 0.00847003 0)
(1.075 0.00931019 0)
(1.07413 0.010134 0)
(1.07317 0.0109398 0)
(1.07214 0.0117247 0)
(1.071 0.0124875 0)
(1.06982 0.0132247 0)
(1.06849 0.013936 0)
(1.06716 0.0146174 0)
(1.06564 0.0152696 0)
(1.06417 0.0158877 0)
(1.06245 0.0164741 0)
(1.06086 0.0170226 0)
(1.05892 0.0175378 0)
(1.05725 0.0180118 0)
(1.05506 0.0184515 0)
(1.05336 0.0188477 0)
(1.05087 0.019209 0)
(1.04921 0.0195254 0)
(1.04634 0.0198061 0)
(1.04484 0.0200422 0)
(1.04149 0.0202402 0)
(1.0403 0.0203966 0)
(1.03629 0.0205081 0)
(1.03563 0.0205859 0)
(1.0307 0.0206037 0)
(1.06799 -0.0207075 0)
(1.06876 -0.0202502 0)
(1.06952 -0.0197726 0)
(1.07028 -0.0192744 0)
(1.07103 -0.0187554 0)
(1.07177 -0.0182153 0)
(1.0725 -0.0176539 0)
(1.07322 -0.0170711 0)
(1.07393 -0.0164668 0)
(1.07462 -0.0158408 0)
(1.07529 -0.0151932 0)
(1.07595 -0.0145241 0)
(1.07658 -0.0138336 0)
(1.07719 -0.0131219 0)
(1.07777 -0.0123892 0)
(1.07833 -0.0116359 0)
(1.07886 -0.0108625 0)
(1.07935 -0.0100694 0)
(1.07982 -0.00925717 0)
(1.08024 -0.0084266 0)
(1.08063 -0.00757844 0)
(1.08097 -0.00671356 0)
(1.08127 -0.00583293 0)
(1.08152 -0.00493765 0)
(1.08172 -0.00402888 0)
(1.08187 -0.00310792 0)
(1.08197 -0.00217615 0)
(1.08201 -0.00123506 0)
(1.08198 -0.000286251 0)
(1.0819 0.000668583 0)
(1.08175 0.00162761 0)
(1.08154 0.002589 0)
(1.08125 0.00355071 0)
(1.0809 0.00451074 0)
(1.08047 0.00546684 0)
(1.07996 0.00641693 0)
(1.07938 0.00735854 0)
(1.07871 0.00828958 0)
(1.07798 0.00920737 0)
(1.07715 0.0101099 0)
(1.07625 0.0109943 0)
(1.07524 0.0118588 0)
(1.07418 0.0127001 0)
(1.073 0.0135171 0)
(1.07178 0.0143061 0)
(1.07042 0.0150667 0)
(1.06904 0.0157946 0)
(1.06749 0.0164906 0)
(1.06598 0.0171496 0)
(1.06422 0.017774 0)
(1.06259 0.0183575 0)
(1.06061 0.0189046 0)
(1.0589 0.0194076 0)
(1.05667 0.0198733 0)
(1.05493 0.0202924 0)
(1.0524 0.0206738 0)
(1.05071 0.0210075 0)
(1.04781 0.0213027 0)
(1.04628 0.0215509 0)
(1.04288 0.0217581 0)
(1.04167 0.0219219 0)
(1.03762 0.0220374 0)
(1.03695 0.0221186 0)
(1.03195 0.022135 0)
(1.07032 -0.0222877 0)
(1.07112 -0.0217908 0)
(1.0719 -0.0212718 0)
(1.07268 -0.0207307 0)
(1.07346 -0.0201672 0)
(1.07422 -0.0195809 0)
(1.07497 -0.0189718 0)
(1.07571 -0.0183396 0)
(1.07643 -0.0176843 0)
(1.07714 -0.0170058 0)
(1.07783 -0.0163041 0)
(1.0785 -0.0155793 0)
(1.07914 -0.0148316 0)
(1.07977 -0.0140612 0)
(1.08036 -0.0132685 0)
(1.08093 -0.0124538 0)
(1.08146 -0.0116177 0)
(1.08196 -0.0107606 0)
(1.08243 -0.00988328 0)
(1.08286 -0.00898649 0)
(1.08324 -0.0080711 0)
(1.08358 -0.00713808 0)
(1.08388 -0.00618849 0)
(1.08413 -0.00522353 0)
(1.08432 -0.00424449 0)
(1.08446 -0.00325277 0)
(1.08455 -0.00224988 0)
(1.08457 -0.00123745 0)
(1.08454 -0.000217201 0)
(1.08444 0.00080901 0)
(1.08427 0.00183922 0)
(1.08403 0.00287142 0)
(1.08372 0.00390342 0)
(1.08334 0.00493304 0)
(1.08289 0.00595787 0)
(1.08235 0.00697566 0)
(1.08174 0.00798376 0)
(1.08104 0.00897992 0)
(1.08027 0.00996126 0)
(1.07941 0.0109257 0)
(1.07847 0.0118699 0)
(1.07743 0.0127923 0)
(1.07633 0.0136892 0)
(1.07511 0.0145595 0)
(1.07385 0.0153992 0)
(1.07244 0.0162079 0)
(1.07103 0.0169811 0)
(1.06943 0.0177196 0)
(1.06788 0.018418 0)
(1.06607 0.0190789 0)
(1.06441 0.0196958 0)
(1.06238 0.0202734 0)
(1.06064 0.0208036 0)
(1.05836 0.0212938 0)
(1.05659 0.0217343 0)
(1.05401 0.0221343 0)
(1.0523 0.0224838 0)
(1.04934 0.0227922 0)
(1.04779 0.0230512 0)
(1.04435 0.0232664 0)
(1.04312 0.0234367 0)
(1.03901 0.0235553 0)
(1.03833 0.0236394 0)
(1.03328 0.023654 0)
(1.07279 -0.023885 0)
(1.07361 -0.023347 0)
(1.07442 -0.0227854 0)
(1.07523 -0.0221999 0)
(1.07602 -0.0215904 0)
(1.0768 -0.0209566 0)
(1.07758 -0.0202982 0)
(1.07833 -0.0196152 0)
(1.07908 -0.0189074 0)
(1.0798 -0.0181748 0)
(1.08051 -0.0174175 0)
(1.08119 -0.0166356 0)
(1.08185 -0.0158293 0)
(1.08248 -0.0149989 0)
(1.08309 -0.0141447 0)
(1.08367 -0.0132673 0)
(1.08421 -0.012367 0)
(1.08471 -0.0114447 0)
(1.08518 -0.010501 0)
(1.08561 -0.0095368 0)
(1.086 -0.00855304 0)
(1.08634 -0.00755078 0)
(1.08663 -0.0065312 0)
(1.08687 -0.0054956 0)
(1.08706 -0.0044454 0)
(1.08719 -0.0033821 0)
(1.08726 -0.00230738 0)
(1.08727 -0.00122296 0)
(1.08722 -0.000130725 0)
(1.0871 0.000967309 0)
(1.08691 0.00206907 0)
(1.08665 0.00317238 0)
(1.08632 0.00427486 0)
(1.08591 0.00537416 0)
(1.08543 0.00646771 0)
(1.08486 0.00755308 0)
(1.08422 0.00862745 0)
(1.08349 0.0096884 0)
(1.08268 0.0107328 0)
(1.08178 0.0117585 0)
(1.0808 0.012762 0)
(1.07972 0.0137415 0)
(1.07858 0.0146932 0)
(1.07732 0.0156157 0)
(1.07602 0.016505 0)
(1.07457 0.0173607 0)
(1.07311 0.0181778 0)
(1.07146 0.0189574 0)
(1.06987 0.0196938 0)
(1.06802 0.0203898 0)
(1.06631 0.0210385 0)
(1.06424 0.021645 0)
(1.06245 0.0222009 0)
(1.06013 0.0227139 0)
(1.05833 0.0231741 0)
(1.0557 0.0235912 0)
(1.05395 0.0239549 0)
(1.05095 0.024275 0)
(1.04938 0.0245435 0)
(1.04588 0.0247655 0)
(1.04464 0.0249413 0)
(1.04048 0.0250622 0)
(1.03979 0.0251487 0)
(1.03468 0.0251608 0)
(1.07539 -0.0255005 0)
(1.07623 -0.0249199 0)
(1.07707 -0.0243141 0)
(1.0779 -0.0236828 0)
(1.07872 -0.0230258 0)
(1.07952 -0.0223428 0)
(1.08032 -0.0216336 0)
(1.0811 -0.0208982 0)
(1.08186 -0.0201363 0)
(1.0826 -0.0193481 0)
(1.08332 -0.0185337 0)
(1.08402 -0.0176931 0)
(1.08469 -0.0168266 0)
(1.08534 -0.0159347 0)
(1.08596 -0.0150176 0)
(1.08654 -0.0140759 0)
(1.08709 -0.0131102 0)
(1.0876 -0.0121213 0)
(1.08807 -0.0111099 0)
(1.0885 -0.010077 0)
(1.08889 -0.00902365 0)
(1.08922 -0.00795101 0)
(1.08951 -0.00686037 0)
(1.08974 -0.00575314 0)
(1.08992 -0.00463084 0)
(1.09004 -0.00349512 0)
(1.0901 -0.00234779 0)
(1.0901 -0.0011907 0)
(1.09003 -2.59707e-05 0)
(1.08989 0.00114444 0)
(1.08968 0.00231819 0)
(1.08939 0.00349292 0)
(1.08904 0.00466606 0)
(1.0886 0.00583515 0)
(1.08808 0.0069974 0)
(1.08749 0.00815024 0)
(1.08681 0.00929064 0)
(1.08604 0.010416 0)
(1.0852 0.0115231 0)
(1.08425 0.0126095 0)
(1.08324 0.0136716 0)
(1.08212 0.0147074 0)
(1.08093 0.0157129 0)
(1.07962 0.0166867 0)
(1.07827 0.0176245 0)
(1.07678 0.0185258 0)
(1.07527 0.0193856 0)
(1.07358 0.020205 0)
(1.07194 0.0209779 0)
(1.07004 0.0217075 0)
(1.06829 0.0223863 0)
(1.06617 0.0230201 0)
(1.06435 0.0236 0)
(1.06197 0.0241341 0)
(1.06013 0.0246124 0)
(1.05746 0.0250449 0)
(1.05568 0.0254214 0)
(1.05263 0.0257517 0)
(1.05103 0.0260283 0)
(1.04749 0.0262558 0)
(1.04622 0.0264361 0)
(1.042 0.0265583 0)
(1.04131 0.0266466 0)
(1.03613 0.0266558 0)
(1.07811 -0.0271349 0)
(1.07898 -0.0265103 0)
(1.07985 -0.0258587 0)
(1.0807 -0.0251799 0)
(1.08154 -0.0244737 0)
(1.08237 -0.0237399 0)
(1.08319 -0.0229783 0)
(1.08399 -0.0221888 0)
(1.08477 -0.0213712 0)
(1.08553 -0.0205257 0)
(1.08627 -0.0196525 0)
(1.08698 -0.0187516 0)
(1.08767 -0.0178234 0)
(1.08833 -0.0168683 0)
(1.08895 -0.0158867 0)
(1.08955 -0.0148793 0)
(1.0901 -0.0138467 0)
(1.09062 -0.0127898 0)
(1.09109 -0.0117093 0)
(1.09152 -0.0106064 0)
(1.09191 -0.00948227 0)
(1.09224 -0.00833808 0)
(1.09252 -0.00717527 0)
(1.09275 -0.00599537 0)
(1.09291 -0.00480002 0)
(1.09302 -0.00359101 0)
(1.09307 -0.00237026 0)
(1.09304 -0.00113979 0)
(1.09295 9.81459e-05 0)
(1.09279 0.00134144 0)
(1.09256 0.00258756 0)
(1.09225 0.00383397 0)
(1.09186 0.00507797 0)
(1.0914 0.00631692 0)
(1.09085 0.00754786 0)
(1.09022 0.00876804 0)
(1.0895 0.00997424 0)
(1.0887 0.0111637 0)
(1.08781 0.012333 0)
(1.08683 0.0134796 0)
(1.08577 0.0145995 0)
(1.0846 0.0156908 0)
(1.08337 0.0167492 0)
(1.08202 0.0177734 0)
(1.08062 0.0187585 0)
(1.07908 0.0197043 0)
(1.07752 0.0206054 0)
(1.07578 0.0214631 0)
(1.07409 0.022271 0)
(1.07215 0.0230325 0)
(1.07035 0.02374 0)
(1.06818 0.0243993 0)
(1.06631 0.0250015 0)
(1.06389 0.025555 0)
(1.06201 0.0260497 0)
(1.05929 0.0264959 0)
(1.05747 0.0268835 0)
(1.05437 0.0272224 0)
(1.05275 0.0275058 0)
(1.04915 0.0277376 0)
(1.04787 0.0279213 0)
(1.04359 0.0280439 0)
(1.04289 0.0281333 0)
(1.03765 0.0281392 0)
(1.08095 -0.028789 0)
(1.08186 -0.0281186 0)
(1.08275 -0.0274195 0)
(1.08363 -0.0266916 0)
(1.08449 -0.0259345 0)
(1.08535 -0.0251482 0)
(1.08618 -0.0243324 0)
(1.08701 -0.023487 0)
(1.08781 -0.022612 0)
(1.08859 -0.0217075 0)
(1.08934 -0.0207737 0)
(1.09007 -0.0198109 0)
(1.09077 -0.0188193 0)
(1.09144 -0.0177994 0)
(1.09208 -0.0167518 0)
(1.09268 -0.0156771 0)
(1.09324 -0.014576 0)
(1.09376 -0.0134496 0)
(1.09424 -0.0122987 0)
(1.09467 -0.0111245 0)
(1.09505 -0.0099282 0)
(1.09538 -0.00871125 0)
(1.09565 -0.00747513 0)
(1.09587 -0.0062215 0)
(1.09603 -0.00495212 0)
(1.09612 -0.00366892 0)
(1.09615 -0.00237395 0)
(1.09611 -0.00106939 0)
(1.096 0.000242446 0)
(1.09581 0.00155908 0)
(1.09556 0.00287792 0)
(1.09522 0.00419631 0)
(1.0948 0.00551138 0)
(1.0943 0.00682031 0)
(1.09372 0.00811994 0)
(1.09305 0.00940736 0)
(1.0923 0.0106791 0)
(1.09145 0.0119324 0)
(1.09052 0.0131634 0)
(1.08949 0.0143695 0)
(1.08839 0.0155467 0)
(1.08718 0.0166927 0)
(1.0859 0.0178031 0)
(1.0845 0.0188764 0)
(1.08305 0.0199077 0)
(1.08145 0.0208968 0)
(1.07985 0.0218378 0)
(1.07806 0.0227324 0)
(1.07632 0.0235738 0)
(1.07432 0.0243656 0)
(1.07247 0.0250999 0)
(1.07025 0.0257831 0)
(1.06834 0.0264058 0)
(1.06587 0.0269769 0)
(1.06394 0.0274862 0)
(1.06117 0.0279445 0)
(1.05933 0.0283415 0)
(1.05618 0.0286875 0)
(1.05452 0.0289763 0)
(1.05087 0.0292109 0)
(1.04957 0.029397 0)
(1.04524 0.029519 0)
(1.04452 0.0296091 0)
(1.03922 0.029611 0)
(1.08392 -0.0304632 0)
(1.08485 -0.0297452 0)
(1.08577 -0.0289969 0)
(1.08667 -0.0282179 0)
(1.08757 -0.0274082 0)
(1.08844 -0.0265675 0)
(1.08931 -0.0256957 0)
(1.09015 -0.0247926 0)
(1.09097 -0.0238584 0)
(1.09177 -0.0228932 0)
(1.09254 -0.0218971 0)
(1.09329 -0.0208705 0)
(1.094 -0.0198138 0)
(1.09468 -0.0187274 0)
(1.09533 -0.0176121 0)
(1.09594 -0.0164685 0)
(1.0965 -0.0152975 0)
(1.09703 -0.0141 0)
(1.09751 -0.0128772 0)
(1.09794 -0.0116303 0)
(1.09832 -0.0103607 0)
(1.09864 -0.00906972 0)
(1.09891 -0.00775915 0)
(1.09911 -0.00643071 0)
(1.09926 -0.00508633 0)
(1.09933 -0.00372804 0)
(1.09935 -0.00235805 0)
(1.09929 -0.000978687 0)
(1.09915 0.000407561 0)
(1.09894 0.00179808 0)
(1.09866 0.00319009 0)
(1.09829 0.00458081 0)
(1.09784 0.00596717 0)
(1.09731 0.00734618 0)
(1.09669 0.00871448 0)
(1.09598 0.010069 0)
(1.09519 0.0114061 0)
(1.0943 0.0127227 0)
(1.09333 0.014015 0)
(1.09225 0.0152801 0)
(1.0911 0.0165137 0)
(1.08984 0.0177136 0)
(1.08851 0.018875 0)
(1.08705 0.0199965 0)
(1.08556 0.0210728 0)
(1.08391 0.0221038 0)
(1.08225 0.0230834 0)
(1.0804 0.0240134 0)
(1.07861 0.0248866 0)
(1.07656 0.0257071 0)
(1.07467 0.0264666 0)
(1.07239 0.0271718 0)
(1.07043 0.0278132 0)