/*--------------------------------*- C++ -*----------------------------------*\
  =========                 |
  \\      /  F ield         | OpenFOAM: The Open Source CFD Toolbox
   \\    /   O peration     | Website:  https://openfoam.org
    \\  /    A nd           | Version:  7
     \\/     M anipulation  |
\*---------------------------------------------------------------------------*/
FoamFile
{
    version     2.0;
    format      ascii;
    class       volVectorField;
    location    "86.000586";
    object      U;
}
// * * * * * * * * * * * * * * * * * * * * * * * * * * * * * * * * * * * * * //

dimensions      [0 1 -1 0 0 0 0];

internalField   nonuniform List<vector> 
23200
(
(-0.000597072 0.000247304 -2.05113e-21)
(-0.00362121 0.000774409 -7.2402e-21)
(-0.0098701 0.0013239 1.31712e-21)
(-0.0181849 0.00189372 4.99134e-21)
(-0.028037 0.0024639 2.12727e-21)
(-0.0390079 0.00301494 -5.18715e-21)
(-0.0506911 0.00353474 -1.64812e-21)
(-0.0627426 0.00402212 -6.47255e-22)
(-0.0748845 0.00448888 -5.96511e-21)
(-0.0868968 0.00495907 -1.15003e-21)
(-0.0986084 0.00546563 -6.75816e-21)
(-0.109884 0.00604548 7.19129e-22)
(-0.12061 0.00673487 -2.27388e-21)
(-0.13068 0.00756591 4.09875e-21)
(-0.139984 0.00856511 -5.29302e-21)
(-0.148402 0.00975315 -5.66057e-21)
(-0.155815 0.0111451 -1.63957e-21)
(-0.16218 0.0127612 8.95942e-21)
(-0.167529 0.0146162 -7.65098e-21)
(-0.171653 0.0166712 -4.57366e-22)
(-0.000692056 0.00187296 -1.78398e-21)
(-0.00383265 0.00486769 -5.1192e-21)
(-0.0101124 0.00726614 4.36749e-21)
(-0.0183958 0.00916844 1.02845e-20)
(-0.0281633 0.0106301 1.7658e-21)
(-0.0390016 0.0117042 3.08577e-22)
(-0.0505083 0.0124497 -3.54712e-21)
(-0.0623418 0.0129307 1.90685e-21)
(-0.0742252 0.0132166 -1.10258e-20)
(-0.0859379 0.0133789 6.88661e-21)
(-0.0973064 0.0134864 2.50611e-20)
(-0.108192 0.0135999 -4.20475e-21)
(-0.118477 0.013768 6.20468e-21)
(-0.128049 0.0140257 -3.77246e-21)
(-0.13679 0.0143978 9.81588e-21)
(-0.144575 0.0149051 -1.16695e-21)
(-0.151264 0.015573 5.45476e-21)
(-0.156793 0.0164763 -3.33605e-20)
(-0.161215 0.0177416 3.3256e-21)
(-0.16395 0.0192692 -1.38879e-20)
(-0.000900123 0.00344457 9.69222e-21)
(-0.00429815 0.00883377 9.66937e-21)
(-0.0106575 0.0130344 -2.16231e-21)
(-0.018891 0.0162401 -4.73321e-21)
(-0.0284989 0.0185767 -1.85278e-21)
(-0.0390806 0.0201661 6.55689e-21)
(-0.0502441 0.0211351 9.66191e-21)
(-0.0616543 0.0216109 -2.13587e-20)
(-0.0730373 0.0217187 6.13226e-21)
(-0.0841726 0.0215764 -7.73769e-21)
(-0.0948839 0.0212882 -1.32697e-20)
(-0.105027 0.0209389 -2.57189e-21)
(-0.114477 0.0205895 -3.99221e-21)
(-0.123113 0.0202785 -9.10838e-21)
(-0.130806 0.0200278 1.06864e-20)
(-0.137417 0.0198562 -1.01676e-20)
(-0.142773 0.0197905 1.30391e-21)
(-0.146755 0.0199442 3.27232e-20)
(-0.149537 0.0206203 -2.30629e-20)
(-0.149638 0.0214041 2.07381e-20)
(-0.00121277 0.00492883 -7.17861e-21)
(-0.00500068 0.0125941 1.28418e-20)
(-0.0114878 0.0185212 -1.82734e-20)
(-0.0196561 0.0229835 8.40517e-21)
(-0.0290347 0.0261689 -4.53997e-20)
(-0.0392421 0.0282617 -2.76965e-20)
(-0.0499016 0.0294518 1.73568e-20)
(-0.0606882 0.0299258 4.20931e-20)
(-0.0713332 0.029862 -1.72622e-20)
(-0.0816162 0.0294233 -1.1851e-20)
(-0.091357 0.0287488 -1.69124e-20)
(-0.100404 0.0279469 3.44441e-20)
(-0.108622 0.0270925 4.25811e-20)
(-0.115876 0.0262275 -3.35348e-20)
(-0.122021 0.02537 -2.72848e-20)
(-0.126904 0.0245342 1.01855e-20)
(-0.13031 0.0237362 -2.25535e-20)
(-0.131985 0.0230856 -1.08809e-21)
(-0.13251 0.0232055 3.79408e-20)
(-0.128631 0.0228824 6.80217e-21)
(-0.00161803 0.00629679 2.83692e-20)
(-0.00591598 0.0160793 8.54858e-21)
(-0.0125776 0.0236297 2.90829e-20)
(-0.0206695 0.0292836 -8.71848e-21)
(-0.0297561 0.0332803 4.42446e-20)
(-0.0394792 0.0358588 2.6647e-20)
(-0.0494815 0.0372653 -3.18651e-20)
(-0.0594508 0.0377411 -4.08297e-20)
(-0.0691247 0.0375145 3.73626e-20)
(-0.078283 0.0367911 -1.04999e-20)
(-0.0867401 0.0357438 1.55724e-20)
(-0.0943339 0.0345055 -6.15202e-20)
(-0.100914 0.0331654 2.15083e-20)
(-0.106327 0.0317704 8.00741e-21)
(-0.110405 0.0303341 4.52127e-21)
(-0.112974 0.0288643 1.681e-20)
(-0.113799 0.027358 4.40365e-20)
(-0.112296 0.0258302 1.15433e-21)
(-0.11007 0.0254852 -1.33806e-20)
(-0.10069 0.0235885 -1.73622e-20)
(-0.00210134 0.00752515 1.96052e-20)
(-0.00701418 0.0192315 9.23034e-21)
(-0.0138947 0.0282766 -4.73452e-20)
(-0.0219033 0.0350386 -2.79061e-20)
(-0.0306426 0.0397965 -1.09114e-20)
(-0.0397802 0.0428344 3.61128e-20)
(-0.0489806 0.0444478 4.26195e-20)
(-0.0579458 0.0449271 -5.20259e-21)
(-0.0664201 0.0445462 -9.9865e-21)
(-0.0741831 0.043551 -8.64444e-21)
(-0.081041 0.0421473 -2.79063e-20)
(-0.0868173 0.0404924 6.33656e-20)
(-0.0913407 0.0386913 -3.68723e-22)
(-0.0944335 0.0367978 -2.46516e-20)
(-0.0958901 0.0348218 -2.13058e-21)
(-0.0955096 0.032764 4.99459e-21)
(-0.0931071 0.0306105 1.56823e-20)
(-0.087372 0.0281326 -5.81469e-20)
(-0.0819925 0.0274353 2.66113e-20)
(-0.0653652 0.0236427 -6.97188e-21)
(-0.00264659 0.0085971 -3.27003e-20)
(-0.00826169 0.0220064 1.80292e-20)
(-0.015402 0.0323948 2.12523e-20)
(-0.0233238 0.0401629 1.80955e-20)
(-0.0316679 0.045617 3.86912e-20)
(-0.0401273 0.0490771 5.56569e-21)
(-0.0483888 0.0508803 -5.44942e-21)
(-0.0561691 0.0513597 1.63341e-20)
(-0.0632189 0.0508308 -2.43554e-20)
(-0.0693152 0.0495763 -2.4169e-21)
(-0.0742534 0.0478332 1.1782e-20)
(-0.0778362 0.0457833 -5.37214e-20)
(-0.0798644 0.0435491 -1.77999e-20)
(-0.0801263 0.0411939 1.66382e-20)
(-0.0783649 0.0387263 -4.00118e-20)
(-0.0743134 0.0361386 4.45194e-20)
(-0.0680183 0.0334386 5.48459e-21)
(-0.0568007 0.0300603 -6.5658e-21)
(-0.0477317 0.0288824 -7.27579e-20)
(-0.0220904 0.0235738 4.25941e-20)
(-0.00323731 0.00950284 -1.28977e-20)
(-0.00962325 0.0243745 -1.33949e-20)
(-0.0170592 0.0359351 -6.26073e-20)
(-0.0248928 0.0445886 -2.75137e-20)
(-0.032799 0.0506578 -9.29591e-20)
(-0.0404942 0.0544896 -7.80296e-21)
(-0.0476856 0.0564549 -4.55868e-20)
(-0.0541039 0.0569239 -3.24425e-20)
(-0.059504 0.0562482 7.12967e-20)
(-0.0636578 0.0547441 1.20867e-20)
(-0.0663442 0.0526778 3.02235e-20)
(-0.0673386 0.0502554 3.80605e-20)
(-0.0664028 0.0476179 -1.29098e-20)
(-0.0632798 0.0448417 -4.30513e-20)
(-0.0576482 0.0419396 3.89339e-20)
(-0.0490886 0.0389002 3.68617e-20)
(-0.0381242 0.0357331 -3.72003e-20)
(-0.0201826 0.0319127 5.22698e-20)
(-0.00631471 0.0295497 8.21489e-20)
(0.0296558 0.0235608 2.29597e-20)
(-0.00385775 0.0102396 3.43423e-20)
(-0.0110639 0.0263213 3.95962e-20)
(-0.0188244 0.0388665 1.91632e-20)
(-0.0265677 0.0482671 4.72928e-20)
(-0.0339956 0.0548529 2.16437e-20)
(-0.0408431 0.0589905 5.69773e-20)
(-0.0468352 0.0610778 4.91438e-20)
(-0.0517129 0.0615159 -1.9389e-20)
(-0.0552325 0.060688 -3.11353e-20)
(-0.0571554 0.0589402 5.5594e-20)
(-0.0572375 0.0565656 -3.50757e-20)
(-0.0552167 0.0537934 2.57415e-20)
(-0.050802 0.0507851 3.50256e-20)
(-0.0436745 0.047633 3.88413e-20)
(-0.0334417 0.0443657 -1.14124e-19)
(-0.0194438 0.0410161 -5.4328e-20)
(-0.0026794 0.037356 -1.47939e-20)
(0.0231882 0.0335502 6.27767e-20)
(0.0428661 0.0300398 -1.37874e-19)
(0.0924487 0.0235249 -5.21034e-20)
(-0.00449385 0.0108112 5.09336e-20)
(-0.0125506 0.0278466 -5.8848e-20)
(-0.0206554 0.0411763 -6.10852e-20)
(-0.0283011 0.0511691 -6.27819e-20)
(-0.0352073 0.0581557 -3.86103e-20)
(-0.0411209 0.0625167 -9.14807e-21)
(-0.0457792 0.0646717 -6.21671e-20)
(-0.0489288 0.0650476 7.71129e-20)
(-0.0503216 0.0640547 2.22659e-20)
(-0.0497014 0.062065 2.17324e-20)
(-0.046791 0.0593961 -8.80519e-20)
(-0.0412775 0.0562998 1.35456e-20)
(-0.0327996 0.0529586 -1.08663e-20)
(-0.0209509 0.0494855 -3.68086e-21)
(-0.00524024 0.0459337 -4.29451e-20)
(0.0152122 0.0423881 5.60933e-20)
(0.0389568 0.0383395 -1.22974e-20)
(0.0749013 0.034767 -1.40419e-19)
(0.100549 0.0309096 2.00025e-20)
(0.168464 0.0239457 9.75397e-20)
(-0.00513405 0.0112271 3.62689e-20)
(-0.0140533 0.028963 -1.12524e-20)
(-0.0225097 0.0428686 6.41107e-20)
(-0.0300405 0.0532843 3.1796e-20)
(-0.0363715 0.0605393 4.51985e-20)
(-0.0412535 0.0650251 4.18259e-21)
(-0.0444287 0.0671795 8.44539e-20)
(-0.0456423 0.0674513 -7.57268e-20)
(-0.044633 0.0662736 -3.43957e-20)
(-0.0411163 0.0640418 -1.39503e-20)
(-0.034768 0.0610954 8.76196e-20)
(-0.0252069 0.0577083 -1.54155e-20)
(-0.0119791 0.0540859 1.318e-20)
(0.00543613 0.0503653 5.44533e-20)
(0.0276456 0.0466248 5.23235e-20)
(0.0558747 0.0430172 -9.14879e-20)
(0.0877626 0.0387949 -5.10291e-20)
(0.13641 0.0359096 2.7601e-20)
(0.168114 0.0317893 8.86005e-20)
(0.259536 0.0258741 -1.16286e-20)
(-0.00576969 0.0115014 -4.80292e-20)
(-0.0155456 0.0296932 -2.55001e-20)
(-0.0243444 0.0439617 -3.4945e-20)
(-0.0317256 0.0546199 -3.35339e-20)
(-0.0374089 0.0619965 3.78909e-20)
(-0.0411393 0.0664943 -7.28981e-20)
(-0.0426545 0.0685675 7.13004e-20)
(-0.041688 0.0686843 4.84605e-21)
(-0.0379533 0.0672986 -6.02289e-20)
(-0.0311224 0.0648262 -1.37166e-20)
(-0.020805 0.0616282 -5.56586e-20)
(-0.00652901 0.0580011 2.51761e-20)
(0.0122789 0.0541762 -1.73643e-20)
(0.0362843 0.050321 -1.04991e-19)
(0.0662068 0.0465411 4.93372e-21)
(0.103773 0.0431416 3.29165e-20)
(0.145192 0.0387761 7.26728e-20)
(0.209174 0.0375945 1.27108e-19)
(0.247129 0.0325753 2.17071e-20)
(0.366726 0.0300912 -1.36492e-19)
(-0.00639501 0.0116508 -6.6366e-20)
(-0.0170042 0.0300676 -9.08096e-21)
(-0.0261145 0.0444857 1.24859e-19)
(-0.0332857 0.0551981 -5.55057e-20)
(-0.0382186 0.0625392 2.78508e-21)
(-0.0406413 0.0669256 -5.26234e-20)
(-0.0402755 0.0688286 -5.01693e-20)
(-0.0368291 0.0687358 8.0522e-21)
(-0.0299738 0.0671203 2.63539e-20)
(-0.0193175 0.0644187 9.74447e-20)
(-0.00437953 0.0610143 -3.07952e-20)
(0.0154314 0.0572294 -1.31833e-19)
(0.0408358 0.053327 9.36437e-20)
(0.0726736 0.0495139 8.11681e-20)
(0.111755 0.0459188 5.29215e-20)
(0.160381 0.0431554 1.33147e-19)
(0.213018 0.0386451 -4.34209e-20)
(0.294316 0.0405011 -1.99919e-19)
(0.339288 0.0337893 3.2549e-20)
(0.489164 0.0370982 3.79528e-20)
(-0.00700666 0.0116934 -3.4499e-20)
(-0.0184073 0.0301198 4.36791e-20)
(-0.0277705 0.0444779 -4.3464e-20)
(-0.0346356 0.0550536 6.82203e-20)
(-0.038672 0.0621969 -7.77293e-20)
(-0.0395791 0.0663438 7.13993e-20)
(-0.0370475 0.0679861 1.41079e-20)
(-0.0307422 0.067632 -7.56543e-20)
(-0.020271 0.0657758 6.30059e-20)
(-0.00515189 0.0628769 -6.79333e-20)
(0.0152161 0.0593449 8.40691e-20)
(0.0415728 0.0555344 4.52217e-20)
(0.0748079 0.051749 3.63486e-20)
(0.115947 0.0482474 -5.5302e-20)
(0.165847 0.0451637 -9.10898e-21)
(0.227236 0.0436049 -7.0382e-20)
(0.293056 0.0391967 4.91248e-20)
(0.391958 0.0451514 2.26435e-21)
(0.445857 0.0367018 -8.69359e-20)
(0.622912 0.0471451 3.74311e-20)
(-0.00760272 0.0116461 7.77725e-21)
(-0.0197323 0.0298838 2.79933e-20)
(-0.0292546 0.0439795 6.03638e-21)
(-0.0356708 0.0542302 2.26841e-20)
(-0.038607 0.061016 5.36292e-20)
(-0.03772 0.0647982 4.9885e-20)
(-0.0326526 0.0660958 3.51626e-20)
(-0.0230041 0.0654422 4.38405e-20)
(-0.00829181 0.0633574 -8.81417e-20)
(0.012087 0.0603287 -1.2826e-20)
(0.0388839 0.0567998 -1.38577e-19)
(0.0730106 0.0531677 -4.32894e-20)
(0.115528 0.0497877 -4.92316e-20)
(0.167609 0.046985 8.04099e-20)
(0.230078 0.0448752 -1.25834e-19)
(0.305596 0.0451191 2.42882e-20)
(0.386505 0.0416441 9.52407e-21)
(0.500701 0.0517485 1.2373e-19)
(0.566366 0.0429386 -6.12924e-20)
(0.760529 0.0601821 4.61966e-20)
(-0.00818126 0.0115233 1.03184e-19)
(-0.0209524 0.0293894 3.55741e-20)
(-0.0304958 0.0430301 6.40526e-20)
(-0.0362627 0.0527801 5.752e-20)
(-0.0378211 0.059057 9.66684e-21)
(-0.0347731 0.0623612 -1.2111e-19)
(-0.0266915 0.0632484 -8.84356e-20)
(-0.0130842 0.0622841 -7.95716e-20)
(0.00665232 0.0600209 7.4553e-20)
(0.0332724 0.0569835 4.47453e-20)
(0.0677014 0.0536608 1.58059e-19)
(0.111025 0.0505045 -1.2877e-19)
(0.164433 0.0479329 4.7799e-20)
(0.229117 0.0463444 -9.07449e-20)
(0.305713 0.045832 6.7461e-20)
(0.395984 0.048343 -2.40338e-20)
(0.492927 0.0472775 3.23682e-20)
(0.617481 0.060334 -1.13998e-19)
(0.697022 0.0536 9.52285e-20)
(0.892165 0.0756062 4.06338e-20)
(-0.00873901 0.0113354 -1.42643e-19)
(-0.0220343 0.0286597 5.5746e-20)
(-0.0314064 0.0416707 -8.70744e-20)
(-0.0362508 0.0507572 -8.11252e-20)
(-0.0360676 0.0563904 2.92071e-20)
(-0.0303836 0.0591285 1.4489e-19)
(-0.0186801 0.0595715 -1.04768e-19)
(-0.000345296 0.058327 1.31796e-20)
(0.0253755 0.0559915 -2.94592e-20)
(0.0594112 0.0531394 -2.87695e-20)
(0.102863 0.0503181 7.41994e-20)
(0.156948 0.0480458 1.62749e-19)
(0.222861 0.0468069 -6.01758e-21)
(0.301561 0.0470554 1.37167e-20)
(0.393175 0.0488925 -5.38482e-21)
(0.49769 0.0539424 -9.04654e-20)
(0.609337 0.0568454 8.80283e-20)
(0.737719 0.0710041 1.38744e-19)
(0.830009 0.0685823 4.01895e-20)
(1.00793 0.0920518 -7.54728e-20)
(-0.00926921 0.0110877 -3.69379e-20)
(-0.0229311 0.0277123 1.13915e-19)
(-0.031878 0.0399344 -3.61572e-21)
(-0.035443 0.0482127 7.81908e-20)
(-0.0330503 0.0530991 3.59584e-20)
(-0.0241322 0.0552188 3.43616e-20)
(-0.00805407 0.0552293 -4.24407e-20)
(0.0159435 0.0537933 7.22214e-20)
(0.0487883 0.0515651 1.24702e-20)
(0.091586 0.0491834 -4.29913e-20)
(0.145573 0.0472658 -2.48249e-20)
(0.211977 0.0464004 -1.1139e-19)
(0.291765 0.0471233 -1.1156e-19)
(0.385255 0.0498824 2.60361e-20)
(0.491541 0.0548003 -9.31327e-21)
(0.608252 0.0625539 -3.68373e-20)
(0.730117 0.0701545 -1.19967e-19)
(0.855574 0.0837611 -1.4397e-19)
(0.954809 0.0865977 -1.67972e-19)
(1.10049 0.107627 1.73996e-20)
(-0.00975917 0.0107803 7.58947e-21)
(-0.0235821 0.0265532 -1.02967e-19)
(-0.0317744 0.0378437 -9.5812e-20)
(-0.0336106 0.0452015 -6.32516e-20)
(-0.0284259 0.0492754 1.12426e-19)
(-0.0155411 0.0507724 -2.40172e-19)
(0.00581816 0.050422 4.86091e-20)
(0.0365788 0.0489573 -2.77051e-20)
(0.0778443 0.0471061 7.90477e-20)
(0.130861 0.0455835 9.69101e-21)
(0.196887 0.0450816 -1.20358e-19)
(0.276938 0.0462437 5.24175e-20)
(0.37137 0.04961 1.63979e-20)
(0.479332 0.0555085 5.15565e-20)
(0.598211 0.0639784 -5.46925e-20)
(0.723189 0.0745094 9.63256e-20)
(0.848033 0.0861828 -4.11166e-20)
(0.964528 0.0981927 2.08761e-20)
(1.06131 0.105733 -1.46918e-20)
(1.16666 0.120447 -5.65226e-20)
(-0.0101885 0.0104067 1.20119e-19)
(-0.0239079 0.0251789 -2.14884e-20)
(-0.0309328 0.0354177 -1.34592e-20)
(-0.0304875 0.041778 7.62283e-20)
(-0.0218071 0.0450206 -3.84483e-20)
(-0.0040841 0.0459503 2.16756e-19)
(0.0236117 0.0453845 1.0066e-20)
(0.0623785 0.0441425 6.56527e-20)
(0.113464 0.0430385 -1.09664e-19)
(0.178154 0.0428694 -8.32398e-20)
(0.257524 0.04439 1.22157e-19)
(0.352014 0.0482506 -9.97489e-20)
(0.460858 0.0548979 8.0301e-20)
(0.581449 0.0643812 -1.43456e-20)
(0.708938 0.0764129 2.43376e-19)
(0.836366 0.0894847 -4.92366e-21)
(0.955922 0.103476 8.31287e-20)
(1.0586 0.113499 1.1976e-19)
(1.14293 0.123916 7.14704e-20)
(1.20764 0.128779 1.12758e-19)
(-0.0105279 0.0099575 5.81984e-20)
(-0.023807 0.0235803 -1.24137e-19)
(-0.0291614 0.0326713 4.12263e-20)
(-0.0257731 0.037998 6.6475e-20)
(-0.0127697 0.0404465 5.54319e-20)
(0.010796 0.0409352 -1.57681e-19)
(0.0460131 0.0403849 7.04634e-20)
(0.0941242 0.0397142 3.19525e-20)
(0.156437 0.0398303 1.3657e-20)
(0.234092 0.0416036 5.63331e-20)
(0.327651 0.0458076 -3.28193e-20)
(0.436499 0.0530054 1.00997e-19)
(0.558164 0.0633937 -8.43375e-20)
(0.687807 0.0765546 -8.63101e-20)
(0.818282 0.0916208 -1.48035e-19)
(0.941212 0.106428 -4.63996e-20)
(1.04829 0.120597 -1.00316e-19)
(1.13379 0.128746 -1.10417e-19)
(1.19825 0.138785 -9.9482e-20)
(1.22983 0.131505 -5.49381e-20)
(-0.0107402 0.00942006 8.87551e-20)
(-0.0231572 0.0217442 -2.17271e-20)
(-0.0262398 0.0296191 -5.71273e-20)
(-0.0191369 0.0339232 -1.8262e-19)
(-0.000865017 0.0356789 -1.43939e-20)
(0.0296641 0.0359328 1.89007e-19)
(0.0736772 0.0357216 -4.22307e-20)
(0.132491 0.036071 3.60124e-20)
(0.207313 0.0379752 8.52069e-20)
(0.298849 0.0423407 2.53695e-20)
(0.406703 0.049874 -1.63404e-19)
(0.528642 0.0609007 -4.02992e-20)
(0.65999 0.0751652 -2.81229e-20)
(0.793559 0.0916087 7.97802e-20)
(0.920514 0.108688 2.29407e-19)
(1.0323 0.123891 -7.22985e-20)
(1.12224 0.136518 -4.74794e-20)
(1.18871 0.142742 1.21712e-19)
(1.23089 0.14823 6.60877e-20)
(1.25477 0.141103 2.77811e-20)
(-0.0107783 0.00878077 -9.52169e-20)
(-0.0218165 0.0196591 6.67213e-20)
(-0.0219233 0.0262814 -1.34081e-19)
(-0.0102268 0.0296267 1.49322e-20)
(0.0143646 0.0308622 9.13567e-20)
(0.0530638 0.0311742 -1.91749e-19)
(0.107179 0.0317224 -1.99256e-19)
(0.177969 0.0336355 3.59447e-21)
(0.266292 0.0379651 -1.16869e-19)
(0.372017 0.0455781 -8.21253e-20)
(0.493262 0.0569745 1.30451e-19)
(0.62566 0.0720446 2.06826e-19)
(0.762128 0.089879 -8.08268e-20)
(0.893587 0.108702 -5.09546e-20)
(1.01076 0.126428 -1.2796e-19)
(1.10655 0.140557 8.7764e-21)
(1.17747 0.150662 -4.7191e-21)
(1.22482 0.154005 -4.48932e-21)
(1.25153 0.15628 1.35227e-20)
(1.26539 0.147805 1.69115e-19)
(-0.0105864 0.00802802 9.54153e-20)
(-0.0196242 0.0173206 1.00196e-19)
(-0.0159478 0.022691 1.30188e-19)
(0.00132094 0.0252007 5.10477e-20)
(0.033367 0.0261664 -6.89694e-20)
(0.0814848 0.02692 -4.77606e-20)
(0.146959 0.0287412 -6.64187e-21)
(0.230784 0.0328386 6.74742e-20)
(0.333118 0.040257 6.19286e-20)
(0.452507 0.051699 3.96717e-20)
(0.585055 0.0672671 -4.73633e-21)
(0.723971 0.086205 -9.92167e-20)
(0.860059 0.106828 7.98751e-20)
(0.983438 0.12675 -1.19683e-20)
(1.08598 0.143679 3.70151e-20)
(1.1634 0.155584 1.60542e-20)
(1.21571 0.162563 -1.26987e-20)
(1.24708 0.163135 3.15902e-20)
(1.26177 0.162605 -2.43409e-20)
(1.2679 0.153205 -1.68932e-19)
(-0.0101014 0.0071545 4.97787e-20)
(-0.0164052 0.0147366 -1.80455e-19)
(-0.00803661 0.0189005 8.7451e-20)
(0.0158691 0.0207642 3.61272e-20)
(0.0565578 0.0217928 -1.04938e-19)
(0.115326 0.0234617 1.01596e-19)
(0.19327 0.0271521 5.68019e-20)
(0.290824 0.0340994 -1.34854e-19)
(0.40701 0.0452335 1.63708e-20)
(0.538534 0.0609151 -2.56051e-20)
(0.679111 0.0806311 6.03972e-20)
(0.819639 0.10282 -4.56646e-20)
(0.949701 0.125064 -6.98409e-20)
(1.0601 0.144671 1.03136e-19)
(1.14524 0.159586 -5.06084e-20)
(1.20428 0.168572 2.02618e-20)
(1.24033 0.172378 -4.8497e-20)
(1.25911 0.170494 2.96386e-22)
(1.26542 0.167818 -4.33103e-20)
(1.26706 0.157776 4.67758e-20)
(-0.00925431 0.00615935 -1.24625e-20)
(-0.0119741 0.0119328 -5.35503e-20)
(0.00209059 0.0149891 -5.96065e-20)
(0.0337639 0.0164698 3.38435e-20)
(0.0842956 0.0179797 -9.83401e-21)
(0.154858 0.0211225 6.18049e-20)
(0.24612 0.0273383 4.37137e-20)
(0.357579 0.0377981 4.16037e-20)
(0.486634 0.0531578 1.35822e-20)
(0.627711 0.0732199 3.60131e-20)
(0.772073 0.0966617 6.08495e-20)
(0.90896 0.12109 1.35875e-20)
(1.02806 0.143597 -3.03012e-20)
(1.12231 0.161611 2.2923e-20)
(1.18945 0.173698 7.54782e-20)
(1.23185 0.179549 -1.36693e-19)
(1.2547 0.18046 4.37517e-20)
(1.26427 0.176602 5.1644e-20)
(1.26515 0.172319 1.70591e-20)
(1.26357 0.161889 3.37049e-20)
(-0.00797168 0.00505 -1.98608e-20)
(-0.00614121 0.00895709 1.16874e-19)
(0.0147073 0.0110692 4.03686e-20)
(0.0553177 0.0125095 -1.22072e-19)
(0.116853 0.0150039 -3.24747e-20)
(0.200179 0.0202508 6.08616e-20)
(0.305224 0.0296735 2.94241e-20)
(0.430111 0.0442415 1.02299e-19)
(0.570145 0.0641318 -3.82133e-21)
(0.717252 0.0883695 4.91345e-21)
(0.860634 0.114724 -5.13804e-20)
(0.988997 0.14013 -8.08578e-20)
(1.09358 0.161585 -8.8343e-21)
(1.17043 0.177053 -5.07006e-20)
(1.22065 0.185941 4.27097e-20)
(1.24906 0.188793 2.08009e-19)
(1.26186 0.187253 8.12957e-20)
(1.26504 0.181896 -7.98291e-20)
(1.26243 0.176412 -3.98632e-20)
(1.25898 0.165759 1.62783e-20)
(-0.00617778 0.00384367 9.76702e-20)
(0.00128138 0.00588327 -1.42333e-19)
(0.0300677 0.00728943 -1.33881e-19)
(0.0807882 0.00911669 1.80187e-19)
(0.154387 0.0131784 5.35021e-20)
(0.251179 0.0212077 -3.28864e-20)
(0.369975 0.0344964 -9.46721e-20)
(0.507059 0.0536269 -1.17044e-19)
(0.655308 0.0780684 7.80227e-20)
(0.804278 0.105905 1.37921e-20)
(0.94197 0.13406 4.13075e-20)
(1.05792 0.159128 3.40453e-20)
(1.14607 0.178452 -2.12807e-21)
(1.2059 0.190816 -2.2895e-20)
(1.24135 0.196494 -4.6095e-20)
(1.25867 0.196687 -1.25021e-19)
(1.26418 0.193171 -4.95016e-20)
(1.26309 0.186708 1.64963e-19)
(1.25836 0.180301 2.74586e-20)
(1.25367 0.169554 -4.07802e-20)
(-0.00379669 0.00256832 -1.02003e-19)
(0.0104721 0.00281285 1.00251e-19)
(0.0483932 0.00383674 2.29824e-21)
(0.110357 0.00656427 -4.08168e-20)
(0.19691 0.0128428 -1.30823e-20)
(0.307509 0.0243476 -1.14154e-20)
(0.439428 0.0420791 -6.95996e-20)
(0.586709 0.0660096 8.37145e-20)
(0.739703 0.09469 -1.38493e-19)
(0.886157 0.125221 3.97101e-22)
(1.01406 0.153918 -2.45926e-20)
(1.11505 0.177465 -1.20388e-20)
(1.18641 0.193909 2.83264e-20)
(1.23075 0.202968 -6.2833e-20)
(1.25399 0.205666 -3.62669e-21)
(1.26292 0.203616 3.46711e-20)
(1.26334 0.198546 -8.52596e-20)
(1.25948 0.191267 -5.52862e-22)
(1.25347 0.184118 2.6946e-22)
(1.24798 0.173329 7.22067e-20)
(-0.000754806 0.00126324 1.48728e-20)
(0.0215915 -0.00012432 2.7678e-20)
(0.0698566 0.000934367 5.35017e-20)
(0.144106 0.00515801 -2.87387e-20)
(0.24426 0.0143489 -9.18951e-20)
(0.368561 0.0299928 2.37174e-20)
(0.51233 0.052596 5.32305e-20)
(0.667108 0.0812872 2.91373e-20)
(0.82097 0.113562 9.76111e-20)
(0.960787 0.145658 -2.66808e-20)
(1.07582 0.173659 -1.58836e-20)
(1.16071 0.194753 1.35925e-20)
(1.2161 0.207908 -3.86387e-20)
(1.24711 0.213731 -5.36454e-20)
(1.26071 0.213799 -3.5156e-20)
(1.26352 0.20991 2.87537e-20)
(1.26049 0.203624 7.24276e-20)
(1.25487 0.19572 -3.51522e-20)
(1.24809 0.18793 -5.52431e-20)
(1.24204 0.177126 8.56434e-21)
(0.00301672 -2.0966e-05 2.65789e-20)
(0.0347733 -0.00277124 5.7882e-21)
(0.0945665 -0.00116274 -7.21332e-20)
(0.181996 0.00522542 9.41829e-20)
(0.296083 0.0180403 2.07081e-20)
(0.433472 0.038405 -1.07654e-19)
(0.587181 0.0661 4.07068e-20)
(0.746233 0.0992061 -5.30651e-20)
(0.897042 0.134154 2.66652e-21)
(1.02677 0.166598 8.62176e-21)
(1.12704 0.192819 2.47366e-20)
(1.19587 0.210825 2.88524e-21)
(1.23691 0.220565 1.09002e-19)
(1.25693 0.223389 4.31555e-20)
(1.2632 0.221209 -2.02272e-20)
(1.26166 0.215825 -2.36382e-20)
(1.25636 0.208572 1.36617e-20)
(1.24962 0.200151 1.40012e-20)
(1.24236 0.191777 -2.34275e-20)
(1.23591 0.180954 -2.62637e-20)
(0.00757832 -0.00122201 -3.12021e-20)
(0.0501146 -0.0049459 1.91896e-21)
(0.122552 -0.0021754 1.47661e-20)
(0.223854 0.00710101 -3.97078e-20)
(0.351827 0.0242295 7.59988e-20)
(0.501153 0.0497607 4.2935e-20)
(0.662341 0.0825127 -4.33032e-20)
(0.822174 0.119393 -2.84095e-20)
(0.966327 0.155913 2.55177e-20)
(1.08341 0.187529 -3.93129e-20)
(1.16816 0.211117 2.91699e-20)
(1.2219 0.225681 -5.80273e-22)
(1.25059 0.232088 9.56502e-22)
(1.26187 0.23223 -2.14073e-20)
(1.26271 0.228157 6.061e-20)
(1.25818 0.221547 -5.01488e-21)
(1.25137 0.21349 2.57969e-20)
(1.24393 0.204605 -3.73699e-20)
(1.23637 0.195669 2.88316e-20)
(1.22961 0.184814 -1.16023e-20)
(0.012978 -0.00226726 5.16717e-20)
(0.067666 -0.00644636 5.92371e-20)
(0.153749 -0.00181046 4.32536e-20)
(0.269354 0.0111088 -6.15552e-21)
(0.410748 0.0331754 8.82874e-21)
(0.570345 0.0641329 7.81424e-22)
(0.736144 0.101633 9.39889e-20)
(0.893286 0.141405 -2.76419e-20)
(1.02778 0.178326 1.9203e-20)
(1.13067 0.20808 -9.64727e-20)
(1.20008 0.228435 1.40249e-20)
(1.24025 0.239435 4.17658e-20)
(1.25869 0.242717 -1.87688e-20)
(1.26322 0.240508 3.84911e-20)
(1.26014 0.234842 -5.00495e-20)
(1.25356 0.227197 6.78491e-20)
(1.24579 0.218438 2.16299e-21)
(1.23789 0.209098 -2.26354e-20)
(1.23014 0.199609 9.0972e-22)
(1.22314 0.188695 3.47128e-20)
(0.0192486 -0.00307489 -9.79222e-20)
(0.0874229 -0.00705625 2.40476e-20)
(0.187992 0.000227081 -8.99119e-21)
(0.318024 0.0175438 -6.58494e-20)
(0.471938 0.0450633 -2.38273e-20)
(0.639693 0.0814843 -4.55389e-20)
(0.807035 0.12316 -3.88485e-20)
(0.958299 0.164778 -4.15297e-20)
(1.0809 0.200963 4.21044e-20)
(1.16897 0.228018 2.06023e-20)
(1.22394 0.244774 -5.99606e-20)
(1.25233 0.252258 -1.47752e-20)
(1.2625 0.252685 -6.96371e-21)
(1.26195 0.248433 -2.89957e-20)
(1.25609 0.241403 -4.96164e-21)
(1.24814 0.232848 -1.19807e-20)
(1.23974 0.22344 -4.79775e-20)
(1.23155 0.21363 2.35254e-20)
(1.22368 0.203588 2.89134e-20)
(1.21649 0.192583 -7.07386e-21)
(0.0264031 -0.00355572 3.67271e-21)
(0.109318 -0.00655212 -4.36186e-20)
(0.225005 0.00422061 1.99486e-20)
(0.369251 0.0266544 -1.36719e-20)
(0.534363 0.0599909 1.67207e-20)
(0.707833 0.101673 7.52662e-20)
(0.873664 0.146729 -3.25175e-20)
(1.01636 0.189073 7.97374e-20)
(1.12564 0.223496 3.86859e-21)
(1.19903 0.247225 3.8746e-20)
(1.2409 0.260214 3.39288e-21)
(1.25938 0.264337 2.62444e-20)
(1.26305 0.262194 5.39562e-21)
(1.25875 0.256157 2.62693e-21)
(1.25096 0.24793 -3.77974e-20)
(1.2421 0.238539 6.66648e-21)
(1.23328 0.228499 3.4461e-20)
(1.22491 0.218192 1.5341e-21)
(1.21697 0.207591 -1.718e-20)
(1.20965 0.196462 6.99032e-21)
(0.0344321 -0.00361583 1.22993e-20)
(0.133217 -0.0047121 3.58145e-20)
(0.264409 0.0104279 3.79847e-20)
(0.422299 0.0386267 -1.00678e-20)
(0.59692 0.0779617 4.82829e-20)
(0.77348 0.124467 -9.53648e-21)
(0.934955 0.171948 7.69579e-20)
(1.067 0.213905 -9.64467e-20)
(1.16231 0.245697 -1.69837e-20)
(1.22174 0.265674 -1.67365e-20)
(1.25209 0.274876 -1.99764e-20)
(1.26244 0.275853 -4.73526e-21)
(1.26111 0.271405 6.66921e-21)
(1.25409 0.263788 -2.43623e-20)
(1.24498 0.254473 2.51607e-20)
(1.23552 0.24428 -1.08888e-20)
(1.22645 0.233605 -8.51832e-21)
(1.21797 0.222765 -7.64601e-21)
(1.21002 0.211602 -4.76118e-21)
(1.2026 0.200311 -1.56496e-20)
(0.0433008 -0.0031598 5.85559e-20)
(0.158915 -0.00132541 -5.54703e-20)
(0.305722 0.0190675 6.52138e-21)
(0.476343 0.0535728 -6.66398e-21)
(0.658494 0.0988862 -1.76773e-20)
(0.835492 0.149569 -3.58265e-20)
(0.990139 0.198426 -5.30095e-21)
(1.11011 0.238956 2.35926e-20)
(1.19143 0.267421 1.06777e-20)
(1.23802 0.283393 -1.29318e-20)
(1.2585 0.288894 1.44076e-20)
(1.26233 0.28696 -3.12354e-21)
(1.25723 0.280437 -2.81439e-20)
(1.24829 0.271388 4.08799e-20)
(1.23828 0.26105 1.12769e-20)
(1.22845 0.250063 -5.99108e-21)
(1.21924 0.238737 7.31138e-21)
(1.21073 0.227328 1.14218e-20)
(1.20279 0.2156 1.13371e-20)
(1.19532 0.204107 1.20523e-20)
(0.0529477 -0.00209439 -6.12012e-20)
(0.186141 0.00379787 4.66917e-20)
(0.348378 0.0303064 2.01413e-20)
(0.5305 0.0715236 -4.06789e-20)
(0.718013 0.122591 -8.75502e-21)
(0.892919 0.176638 -3.29984e-20)
(1.03873 0.225795 1.30593e-20)
(1.14584 0.263973 -2.14431e-20)
(1.21366 0.288588 1.59613e-21)
(1.24877 0.300443 3.36706e-21)
(1.26098 0.302393 6.31248e-21)
(1.25968 0.297778 -2.37406e-20)
(1.2518 0.289367 2.41051e-20)
(1.24153 0.278988 -1.7093e-20)
(1.23095 0.267657 -4.72512e-21)
(1.22091 0.255869 2.26209e-21)
(1.21165 0.243869 -5.04665e-21)
(1.20315 0.231856 -1.1572e-20)
(1.19529 0.219561 -5.38534e-22)
(1.18781 0.207824 -8.03052e-21)
(0.0632842 -0.000332516 -7.70145e-21)
(0.214559 0.0108172 -2.20829e-20)
(0.391743 0.0442504 -7.40227e-21)
(0.583866 0.0924269 1.16331e-20)
(0.774498 0.14883 -7.32468e-21)
(0.945025 0.205314 7.37726e-21)
(1.08052 0.253722 1.70471e-20)
(1.17452 0.288762 1.49503e-20)
(1.2297 0.309162 1.17188e-20)
(1.25477 0.316896 -2.54751e-21)
(1.26022 0.315477 -6.68622e-21)
(1.25497 0.308388 7.83982e-21)
(1.24509 0.298233 -3.8372e-21)
(1.23393 0.28659 4.76159e-21)
(1.22302 0.274275 -2.90963e-21)
(1.21289 0.261668 6.13896e-21)
(1.20366 0.248967 -1.66639e-21)
(1.19525 0.236321 7.25558e-21)
(1.1875 0.223459 -1.70224e-21)
(1.18005 0.211436 1.18731e-21)
(0.0741956 0.00220269 -1.84291e-22)
(0.243781 0.0198527 -8.34077e-23)
(0.435139 0.0609367 -2.61257e-21)
(0.635559 0.11615 1.29374e-20)
(0.827094 0.177301 8.21508e-21)
(0.991289 0.235229 -6.25e-21)
(1.11548 0.281915 -4.64778e-21)
(1.19659 0.313175 -1.40547e-21)
(1.24024 0.329133 -6.59789e-21)
(1.25673 0.332818 -3.97544e-22)
(1.25674 0.328223 2.66005e-22)
(1.24853 0.318841 -2.74632e-21)
(1.23726 0.307047 -1.75043e-21)
(1.22556 0.294176 -3.92715e-21)
(1.2145 0.280871 -4.13166e-21)
(1.20439 0.267424 -3.4653e-22)
(1.19526 0.253996 1.49897e-21)
(1.18699 0.240693 1.60915e-21)
(1.17941 0.227265 1.87851e-21)
(1.17206 0.214913 2.6603e-21)
(0.0855434 0.005574 9.44835e-21)
(0.273374 0.0309784 -1.46373e-21)
(0.477868 0.0803306 -2.49537e-21)
(0.684749 0.142487 6.25212e-21)
(0.875095 0.207663 1.22846e-20)
(1.03138 0.266027 -5.36248e-21)
(1.14377 0.310114 -4.28168e-21)
(1.21256 0.3371 -7.81652e-21)
(1.24592 0.348502 -6.84259e-21)
(1.25523 0.34826 1.29281e-21)
(1.25097 0.34068 -1.10705e-21)
(1.2406 0.329152 -4.37941e-22)
(1.22843 0.315794 -2.49776e-21)
(1.21645 0.301712 -3.91036e-21)
(1.20538 0.287404 -8.3233e-22)
(1.19538 0.273094 -3.07386e-22)
(1.18643 0.258917 -1.27598e-22)
(1.17837 0.244938 7.20753e-22)
(1.17102 0.230943 2.71927e-21)
(1.16382 0.218226 2.13643e-21)
(0.0971684 0.00982667 -5.7765e-21)
(0.302878 0.0442163 -8.76608e-21)
(0.519235 0.102325 -1.1466e-20)
(0.730681 0.171165 1.50796e-20)
(0.917948 0.239545 1.40053e-20)
(1.06516 0.297362 7.56117e-23)
(1.16564 0.338095 4.98326e-21)
(1.22295 0.360443 1.35888e-20)
(1.24731 0.367266 1.43841e-20)
(1.25072 0.363251 8.88238e-21)
(1.24321 0.352864 -2.11717e-20)
(1.23135 0.33931 8.60263e-21)
(1.21866 0.32444 -3.57994e-21)
(1.2066 0.309151 8.42103e-21)
(1.19565 0.293825 -1.51974e-22)
(1.18587 0.278633 -1.32321e-21)
(1.17716 0.263689 7.20331e-22)
(1.16939 0.24902 6.09465e-21)
(1.16232 0.234452 -2.48678e-21)
(1.15536 0.221346 -3.45715e-22)
(0.108895 0.0149855 -1.92185e-20)
(0.331816 0.0595338 4.22691e-20)
(0.558575 0.126744 4.00752e-21)
(0.772702 0.201862 -5.15302e-20)
(0.95525 0.272563 -9.01692e-21)
(1.09259 0.328909 2.08596e-20)
(1.18143 0.365656 -4.692e-20)
(1.22825 0.383124 -2.49226e-22)
(1.24491 0.385417 3.67145e-21)
(1.2436 0.377799 -1.01383e-21)
(1.23369 0.364765 1.11144e-20)
(1.22088 0.349282 -1.72254e-20)
(1.20797 0.332934 2.57866e-21)
(1.19603 0.316438 -5.43757e-21)
(1.18532 0.300081 -3.93354e-21)
(1.17583 0.283994 3.80972e-21)
(1.16745 0.268269 -3.3354e-22)
(1.16002 0.252899 -9.47401e-21)
(1.15331 0.237748 4.09829e-22)
(1.14664 0.22424 -3.8094e-21)
(0.120537 0.021053 1.4441e-20)
(0.359712 0.0768427 -2.42394e-20)
(0.595266 0.153347 -1.91755e-21)
(0.810267 0.234208 -4.42426e-20)
(0.98674 0.306326 -2.57604e-20)
(1.11379 0.360357 2.06328e-20)
(1.19149 0.392613 -2.3364e-20)
(1.22894 0.405065 2.50773e-21)
(1.23914 0.402929 1.74661e-20)
(1.23416 0.391887 -4.6803e-21)
(1.22258 0.37635 1.88325e-21)
(1.20926 0.359016 5.51253e-21)
(1.1964 0.341215 -1.69038e-20)
(1.18472 0.323511 2.04704e-20)
(1.17437 0.306114 1.8111e-20)
(1.16527 0.289125 -4.32665e-21)