/*--------------------------------*- C++ -*----------------------------------*\
  =========                 |
  \\      /  F ield         | OpenFOAM: The Open Source CFD Toolbox
   \\    /   O peration     | Website:  https://openfoam.org
    \\  /    A nd           | Version:  7
     \\/     M anipulation  |
\*---------------------------------------------------------------------------*/
FoamFile
{
    version     2.0;
    format      ascii;
    class       surfaceScalarField;
    location    "5";
    object      phi;
}
// * * * * * * * * * * * * * * * * * * * * * * * * * * * * * * * * * * * * * //

dimensions      [0 3 -1 0 0 0 0];

internalField   nonuniform List<scalar> 
824
(
0.0261567
3.12086e-05
0.0261184
3.83077e-05
0.0260729
4.54917e-05
0.0260203
5.26341e-05
0.0259607
5.95975e-05
0.0258945
6.62382e-05
0.025822
7.24105e-05
0.0257441
7.79719e-05
0.0256613
8.27889e-05
0.0255745
8.67433e-05
0.0254848
8.97377e-05
0.0253931
9.17014e-05
0.0253005
9.25951e-05
0.0252081
9.24108e-05
0.0251169
9.11829e-05
0.025028
8.89575e-05
0.0249421
8.58809e-05
0.0248601
8.19461e-05
0.0247825
7.76574e-05
0.0247102
7.22914e-05
0.0246419
6.82566e-05
6.0332e-05
0.025257
6.27323e-05
0.0252186
7.67622e-05
0.0251731
9.09422e-05
0.0251207
0.000105021
0.0250616
0.000118725
0.0249961
0.000131769
0.0249246
0.000143867
0.0248479
0.000154737
0.0247665
0.000164116
0.0246815
0.000171775
0.0245937
0.000177524
0.0245042
0.000181227
0.024414
0.000182814
0.0243241
0.00018227
0.0242356
0.000179681
0.0241495
0.000175116
0.0240664
0.000168931
0.0239874
0.00016098
0.0239125
0.000152563
0.0238431
0.000141648
0.0237772
0.000134199
0.00011782
0.0244002
9.57744e-05
0.0243604
0.000116638
0.0243136
0.000137683
0.0242601
0.000158531
0.0242001
0.000178773
0.0241339
0.000197985
0.024062
0.000215737
0.0239851
0.000231615
0.023904
0.000245232
0.0238195
0.000256253
0.0237326
0.000264405
0.0236444
0.000269497
0.0235557
0.000271436
0.0234678
0.000270212
0.0233815
0.000265972
0.0232978
0.000258817
0.0232174
0.000249322
0.0231412
0.000237212
0.0230692
0.000224564
0.0230027
0.00020811
0.0229398
0.000197132
0.000172597
0.0235829
0.000131358
0.0235406
0.000159013
0.0234914
0.000186834
0.0234356
0.000214314
0.0233735
0.000240904
0.0233054
0.000266038
0.023232
0.000289149
0.0231539
0.000309689
0.023072
0.000327156
0.0229872
0.000341115
0.0229003
0.000351222
0.0228126
0.000357241
0.022725
0.000359073
0.0226385
0.000356725
0.022554
0.000350421
0.0224725
0.000340308
0.0223946
0.00032719
0.0223212
0.000310675
0.0222521
0.00029361
0.0221887
0.000271532
0.0221289
0.000256938
0.00022441
0.0228021
0.000170371
0.0227563
0.000204818
0.0227037
0.000239358
0.0226447
0.000273347
0.0225795
0.000306096
0.0225087
0.000336893
0.0224328
0.000365034
0.0223526
0.000389844
0.0222691
0.00041071
0.0221831
0.000427107
0.0220957
0.000438633
0.0220079
0.000445022
0.0219208
0.000446186
0.0218353
0.000442167
0.0217525
0.000433284
0.021673
0.000419748
0.0215976
0.000402604
0.0215269
0.000381364
0.0214609
0.000359629
0.0214006
0.000331798
0.0213441
0.000313465
0.00027307
0.022055
0.000213601
0.0220049
0.00025487
0.0219482
0.000296089
0.0218851
0.000336471
0.021816
0.000375179
0.0217415
0.000411358
0.0216624
0.000444165
0.0215794
0.000472801
0.0214936
0.00049655
0.0214059
0.000514812
0.0213174
0.000527139
0.0212292
0.000533255
0.0211422
0.000533101
0.0210576
0.000526777
0.0209762
0.000514717
0.0208987
0.000497216
0.0208258
0.000475576
0.0207579
0.000449232
0.020695
0.000422532
0.020638
0.000388785
0.0205849
0.00036657
0.000318421
0.0213392
0.000261757
0.0212842
0.000309896
0.0212225
0.000357761
0.0211546
0.000404413
0.0210809
0.000448863
0.0210022
0.00049011
0.0209192
0.000527172
0.0208328
0.000559135
0.0207442
0.00058519
0.0206543
0.000604672
0.0205644
0.000617105
0.0204754
0.000622226
0.0203885
0.000620027
0.0203046
0.000610689
0.0202245
0.000594787
0.020149
0.000572721
0.0200785
0.000546066
0.0200135
0.000514201
0.0199538
0.000482212
0.0199003
0.000442366
0.0198507
0.000416123
0.000360332
0.0206527
0.000315483
0.020592
0.00037055
0.0205247
0.000425023
0.0204514
0.000477806
0.0203725
0.000527753
0.0202889
0.000573712
0.0202015
0.00061457
0.0201113
0.0006493
0.0200195
0.000677014
0.0199271
0.000696999
0.0198355
0.000708773
0.0197456
0.000712104
0.0196586
0.000707065
0.0195753
0.000693944
0.0194966
0.00067348
0.0194231
0.000646204
0.0193552
0.000613984
0.0192933
0.00057616
0.0192369
0.000538549
0.0191869
0.000492416
0.019141
0.000462003
0.000398691
0.0199932
0.000375376
0.0199264
0.000437425
0.0198529
0.000498456
0.0197735
0.000557205
0.0196889
0.000612364
0.0196
0.00066263
0.0195078
0.000706764
0.0194135
0.000743638
0.0193182
0.000772296
0.0192232
0.000791997
0.0191297
0.000802276
0.0190388
0.000802959
0.0189517
0.000794226
0.0188691
0.000776501
0.0187919
0.000750716
0.0187205
0.000717557
0.0186553
0.000679202
0.0185965
0.00063497
0.0185436
0.000591408
0.0184973
0.00053881
0.0184552
0.0005041
0.00043341
0.0193592
0.000441984
0.0192855
0.000511061
0.0192054
0.000578576
0.0191195
0.00064309
0.0190288
0.000703128
0.0189341
0.000757241
0.0188368
0.000804067
0.0187381
0.000842391
0.0186392
0.000871206
0.0185414
0.000889768
0.018446
0.000897651
0.0183542
0.000894768
0.018267
0.000881437
0.0181853
0.000858248
0.0181096
0.000826356
0.0180406
0.000786622
0.0179782
0.000741561
0.0179227
0.000690479
0.0178735
0.000640651
0.0178308
0.000581429
0.0177926
0.000542317
0.000464419
0.0187487
0.000515821
0.0186678
0.000591951
0.0185806
0.000665843
0.0184878
0.000735875
0.0183905
0.000800405
0.0182899
0.000857838
0.0181873
0.000906701
0.018084
0.000945708
0.0179813
0.000973823
0.0178808
0.000990322
0.0177836
0.000994847
0.0176909
0.00098743
0.0176038
0.000968556
0.0175231
0.000939013
0.0174492
0.00090021
0.0173826
0.000853207
0.0173233
0.000800874
0.0172713
0.000742517
0.0172258
0.000686138
0.017187
0.00062016
0.0171528
0.000576575
0.000491673
0.0181604
0.00059736
0.0180718
0.000680543
0.017977
0.000760666
0.0178769
0.000835916
0.0177729
0.000904483
0.0176661
0.000964637
0.017558
0.00101481
0.01745
0.00105365
0.0173437
0.00108014
0.0172404
0.00109359
0.0171415
0.00109374
0.0170482
0.00108077
0.0169614
0.00105538
0.0168818
0.00101857
0.01681
0.00097205
0.0167461
0.00091709
0.01669
0.000856942
0.0166416
0.000790911
0.0166
0.000727731
0.0165653
0.000654905
0.0165351
0.000606811
0.000515149
0.0175927
0.000687041
0.017496
0.000777243
0.0173932
0.0008634
0.0172857
0.000943506
0.0171746
0.00101558
0.0170614
0.00107778
0.0169478
0.00112844
0.0168352
0.00116621
0.0167253
0.00119007
0.0166195
0.00119941
0.0165191
0.00119412
0.0164253
0.00117456
0.016339
0.00114165
0.0162609
0.00109666
0.0161914
0.00104162
0.0161304
0.000978028
0.0160778
0.000909551
0.0160333
0.000835486
0.0159957
0.000765303
0.015965
0.000685577
0.0159388
0.000632984
0.000534848
0.0170442
0.000785274
0.0169391
0.000882416
0.0168281
0.000974354
0.0167127
0.00105888
0.0165945
0.00113386
0.0164749
0.00119734
0.0163558
0.0012476
0.0162387
0.00128328
0.0161253
0.00130344
0.0160171
0.00130757
0.0159155
0.00129574
0.0158216
0.0012685
0.0157362
0.00122706
0.0156599
0.00117298
0.0155929
0.00110862
0.0155351
0.00103576
0.0154862
0.000958486
0.0154456
0.000876072
0.0154122
0.000798736
0.0153856
0.00071211
0.0153635
0.000655074
0.000550794
0.0165138
0.00089243
0.0163998
0.000996388
0.0162804
0.00109379
0.016157
0.00118222
0.0160315
0.00125941
0.0159055
0.00132331
0.0157809
0.00137218
0.0156595
0.00140471
0.0155429
0.00142002
0.0154327
0.00141779
0.0153302
0.00139826
0.0152364
0.00136225
0.0151522
0.00131127
0.015078
0.00124719
0.0150139
0.00117277
0.0149596
0.00109003
0.0149146
0.00100353
0.0148781
0.000912507
0.0148489
0.00082793
0.0148266
0.000734455
0.0148086
0.000673085
0.000563034
0.016
0.00100885
0.015877
0.00111944
0.0157489
0.0012219
0.0156174
0.00131364
0.0154846
0.00139225
0.0153523
0.00145561
0.0152225
0.00150202
0.0150969
0.00153023
0.0149775
0.00153951
0.0148655
0.00152972
0.0147625
0.00150133
0.0146693
0.00145544
0.0145866
0.00139391
0.0145149
0.00131895
0.0144539
0.00123373
0.0144034
0.00114057
0.0143624
0.00104448
0.0143303
0.000944641
0.0143054
0.000852802
0.0142873
0.000752586
0.0142733
0.000687045
0.000571641
0.0155017
0.00113483
0.0153693
0.0012518
0.0152324
0.00135884
0.0150928
0.00145318
0.0149528
0.00153231
0.0148143
0.00159409
0.0146795
0.00163687
0.0145502
0.00165953
0.0144281
0.00166152
0.0143149
0.00164293
0.0142118
0.0016045
0.0141196
0.00154764
0.0140389
0.00147458
0.01397
0.00138789
0.0139125
0.00129119
0.013866
0.0011871
0.0138293
0.00108112
0.0138016
0.000972341
0.0137811
0.00087329
0.0137672
0.000766501
0.0137573
0.000697005
0.000576708
0.0150174
0.00127062
0.0148756
0.00139363
0.0147297
0.00150468
0.0145821
0.00160081
0.014435
0.00167945
0.0142906
0.00173849
0.0141511
0.00177638
0.0140184
0.00179219
0.0138943
0.0017856
0.0137803
0.00175696
0.0136775
0.0017073
0.0135868
0.00163838
0.0135085
0.00155283
0.0134428
0.00145361
0.0133892
0.00134482
0.0133469
0.00122936
0.0133147
0.00111327
0.0132916
0.00099549
0.0132755
0.000889353
0.0132658
0.00077622
0.0132598
0.00070304
0.000578352
0.0145457
0.00141638
0.0143943
0.00154501
0.0142396
0.00165938
0.014084
0.00175638
0.0139301
0.00183341
0.0137801
0.00188844
0.0136364
0.0019201
0.0135009
0.00192771
0.0133753
0.00191121
0.013261
0.00187124
0.0131591
0.00180918
0.0130704
0.00172715
0.012995
0.00162819
0.0129329
0.0015157
0.0128834
0.00139428
0.0128457
0.0128182
0.0127997
0.0127881
0.0127825
0.0127803
0.0140847
0.0139239
0.0137605
0.0135973
0.0134369
0.0132819
0.0131346
0.0129968
0.0128703
0.0127564
0.0126561
0.0125698
0.0124979
0.0124398
)
;

boundaryField
{
    inlet
    {
        type            calculated;
        value           nonuniform 0();
    }
    outlet
    {
        type            calculated;
        value           nonuniform List<scalar> 
19
(
0.0245816
0.0237197
0.022885
0.0220771
0.0212955
0.0205395
0.0198088
0.0191026
0.0184204
0.0177616
0.0171255
0.0165116
0.0159191
0.0153476
0.0147963
0.0142647
0.0137522
0.0132581
0.012782
)
;
    }
    cylinder
    {
        type            calculated;
        value           nonuniform 0();
    }
    top
    {
        type            symmetryPlane;
        value           nonuniform 0();
    }
    bottom
    {
        type            symmetryPlane;
        value           uniform 0;
    }
    defaultFaces
    {
        type            empty;
        value           nonuniform 0();
    }
    procBoundary5to4
    {
        type            processor;
        value           nonuniform List<scalar> 
21
(
-0.0261879
-0.0252886
-0.0244333
-0.0236185
-0.0228411
-0.0220982
-0.0213874
-0.0207064
-0.0200531
-0.0194258
-0.0188226
-0.0182419
-0.0176824
-0.0171425
-0.0166209
-0.0161164
-0.0156277
-0.0151532
-0.0146915
-0.0142405
0.00157218
)
;
    }
    procBoundary5to11
    {
        type            processor;
        value           nonuniform List<scalar> 
22
(
0.00126709
0.00114076
0.00101399
0.000900975
0.00078179
0.00070525
0.000576709
0.00170589
0.00182276
0.00191958
0.00199377
0.00204343
0.00206746
0.00206545
0.00203769
0.00198514
0.00190954
0.00181339
0.00170018
0.00157374
0.0123949
0.00143921
)
;
    }
}


// ************************************************************************* //
