/*--------------------------------*- C++ -*----------------------------------*\
  =========                 |
  \\      /  F ield         | OpenFOAM: The Open Source CFD Toolbox
   \\    /   O peration     | Website:  https://openfoam.org
    \\  /    A nd           | Version:  7
     \\/     M anipulation  |
\*---------------------------------------------------------------------------*/
FoamFile
{
    version     2.0;
    format      ascii;
    class       volVectorField;
    location    "23";
    object      U;
}
// * * * * * * * * * * * * * * * * * * * * * * * * * * * * * * * * * * * * * //

dimensions      [0 1 -1 0 0 0 0];

internalField   nonuniform List<vector> 
435
(
(1.20499 0.336338 6.23195e-19)
(1.20635 0.357014 -6.53121e-18)
(1.20125 0.420759 -3.01547e-20)
(1.21053 0.407593 -3.2113e-19)
(1.21794 0.393185 2.84137e-18)
(1.22324 0.37768 -1.1984e-18)
(1.2263 0.361099 3.1442e-18)
(1.22702 0.343449 9.33846e-20)
(1.17314 0.431116 4.22443e-18)
(1.18755 0.422651 8.01935e-19)
(1.20072 0.413372 3.45457e-18)
(1.21245 0.403337 4.94037e-18)
(1.22236 0.392633 1.69765e-18)
(1.23075 0.381011 -2.09692e-18)
(1.23759 0.368505 -1.33592e-18)
(1.24264 0.355132 4.10397e-20)
(1.24577 0.340874 -1.36386e-18)
(1.14489 0.423037 -3.13343e-18)
(1.16127 0.416899 -6.08608e-19)
(1.17641 0.410117 -1.71648e-18)
(1.19033 0.402777 -6.20975e-18)
(1.20298 0.394924 -1.0497e-18)
(1.21478 0.386427 -3.48338e-18)
(1.22545 0.37726 -4.07919e-18)
(1.23462 0.367573 3.98437e-19)
(1.24256 0.357261 -4.20883e-19)
(1.24913 0.346311 4.66551e-19)
(1.25423 0.334714 -1.43813e-18)
(1.15022 0.398542 7.11535e-19)
(1.16464 0.393168 -1.93792e-18)
(1.1783 0.387252 7.12811e-19)
(1.19117 0.380872 6.04508e-18)
(1.20321 0.374088 1.39814e-18)
(1.21415 0.366951 4.41556e-18)
(1.22425 0.35924 4.20613e-18)
(1.23361 0.351199 -2.48197e-18)
(1.24198 0.342742 2.51147e-18)
(1.24938 0.33384 -1.78579e-18)
(1.25569 0.324482 4.90628e-20)
(1.15446 0.374696 3.01723e-18)
(1.16699 0.369867 -1.3561e-18)
(1.17902 0.364622 1.87393e-18)
(1.1905 0.359013 1.93975e-18)
(1.20138 0.353069 -5.9144e-18)
(1.21159 0.346813 -2.88277e-18)
(1.22119 0.340392 -1.93977e-18)
(1.23021 0.333649 3.67086e-18)
(1.23847 0.32666 1.70542e-19)
(1.24605 0.319389 -1.33089e-19)
(1.25288 0.311801 -5.49406e-19)
(1.15746 0.352025 6.17111e-19)
(1.16834 0.3476 5.98705e-18)
(1.17888 0.342887 -2.45388e-18)
(1.18903 0.337917 -1.66353e-18)
(1.19878 0.33272 4.43059e-18)
(1.20809 0.327326 -2.85644e-18)
(1.21688 0.321772 -9.56398e-19)
(1.22525 0.315983 -1.49115e-18)
(1.23321 0.310107 -4.20584e-19)
(1.24065 0.30406 9.31325e-19)
(1.24757 0.29781 -1.85618e-20)
(1.15922 0.330611 -1.55635e-18)
(1.16872 0.326528 -8.41172e-19)
(1.17796 0.322256 -6.31538e-19)
(1.18692 0.317813 6.47669e-19)
(1.19559 0.313221 -1.37968e-18)
(1.20393 0.308499 1.36931e-18)
(1.2119 0.303674 1.30402e-18)
(1.21969 0.298793 -2.15701e-19)
(1.22724 0.293732 -1.08179e-19)
(1.2343 0.288567 4.06576e-19)
(1.241 0.283306 -8.93435e-20)
(1.15988 0.31041 2.61017e-19)
(1.16824 0.306646 -2.0189e-18)
(1.17639 0.302762 -6.379e-19)
(1.18434 0.298771 -2.91231e-18)
(1.19208 0.294687 -7.10276e-19)
(1.19963 0.290525 -3.53057e-20)
(1.20697 0.286306 1.20867e-18)
(1.21393 0.282053 1.34641e-18)
(1.22065 0.277658 1.18765e-18)
(1.22732 0.273216 -1.04711e-18)
(1.23375 0.268735 8.16416e-19)
(1.15963 0.291354 2.96303e-18)
(1.16701 0.287895 1.76562e-18)
(1.17422 0.284364 1.71336e-19)
(1.18129 0.280765 1.2326e-18)
(1.18821 0.277106 9.97829e-19)
(1.19497 0.273392 -6.19429e-19)
(1.20157 0.269624 -2.93332e-18)
(1.20799 0.265804 -2.58944e-19)
(1.21426 0.26202 4.13827e-20)
(1.22042 0.25822 -6.55065e-19)
(1.22642 0.254387 4.31734e-19)
(1.15862 0.273386 -2.50555e-18)
(1.16516 0.270223 3.27095e-19)
(1.17158 0.26702 3.38305e-19)
(1.17788 0.26378 -2.73915e-18)
(1.18408 0.260507 1.09973e-18)
(1.19016 0.257209 7.51185e-19)
(1.19612 0.253891 1.54737e-18)
(1.20198 0.250562 -1.49265e-18)
(1.20776 0.247239 -1.29293e-18)
(1.21346 0.243888 1.81719e-18)
(1.21904 0.240532 -3.98366e-19)
(1.15701 0.25645 1.78536e-18)
(1.16283 0.253567 -1.31593e-18)
(1.16856 0.250666 2.20371e-18)
(1.1742 0.247748 2.14436e-18)
(1.17977 0.244817 -3.4034e-19)
(1.18526 0.241877 -7.48246e-19)
(1.19069 0.238932 9.10744e-19)
(1.19605 0.235988 -4.32266e-19)
(1.2013 0.23305 -2.44569e-19)
(1.2065 0.230099 -1.88993e-18)
(1.21169 0.22715 -3.15812e-20)
(1.1549 0.240481 -1.40407e-18)
(1.16009 0.23786 4.33868e-19)
(1.16521 0.235234 1.43881e-18)
(1.17027 0.232605 -6.56322e-21)
(1.17529 0.229973 -1.24217e-18)
(1.18026 0.227341 -2.93877e-19)
(1.18518 0.224711 -1.84329e-19)
(1.19006 0.222083 -1.66468e-19)
(1.1949 0.21946 5.43959e-19)
(1.1997 0.216859 1.38061e-18)
(1.20448 0.214268 -1.06271e-19)
(1.15235 0.22542 -2.42848e-18)
(1.15699 0.22304 -7.20755e-19)
(1.16158 0.220666 -1.73529e-18)
(1.16614 0.218296 -2.54827e-19)
(1.17067 0.215932 -3.4609e-20)
(1.17517 0.213576 -2.98695e-19)
(1.17964 0.211227 -2.30826e-19)
(1.18409 0.208889 -4.67408e-19)
(1.18852 0.206561 -4.00776e-19)
(1.19295 0.204247 -4.6241e-19)
(1.19737 0.201948 2.20446e-19)
(1.14943 0.2112 1.72308e-18)
(1.15358 0.209043 -5.01104e-19)
(1.15771 0.206896 -3.08679e-18)
(1.16182 0.20476 5.5401e-19)
(1.16591 0.202636 4.94809e-19)
(1.17 0.200522 1.4028e-18)
(1.17407 0.198422 -5.59694e-19)
(1.17814 0.196334 8.69087e-19)
(1.1822 0.194261 9.60603e-19)
(1.18627 0.192204 4.52088e-19)
(1.19033 0.190154 2.30459e-19)
(1.14616 0.197758 3.14667e-19)
(1.14989 0.195805 1.36883e-18)
(1.15361 0.193865 1.89102e-18)
(1.15732 0.191939 -2.95169e-19)
(1.16103 0.190028 -5.76587e-19)
(1.16474 0.18813 -6.4558e-19)
(1.16845 0.186246 3.09563e-19)
(1.17218 0.184377 -4.33803e-19)
(1.17591 0.182522 -1.08633e-18)
(1.17964 0.180682 -1.15111e-19)
(1.18338 0.178857 -1.60252e-20)
(1.14257 0.185036 -9.63657e-19)
(1.14593 0.183268 -5.53116e-19)
(1.14928 0.181517 -6.60569e-19)
(1.15264 0.179781 -2.48588e-19)
(1.15601 0.17806 9.50911e-19)
(1.15939 0.176354 2.08213e-19)
(1.16278 0.174664 -9.25276e-20)
(1.16619 0.172989 2.55124e-19)
(1.16961 0.171328 4.87799e-19)
(1.17304 0.169682 -3.40343e-19)
(1.1765 0.168053 1.22962e-19)
(1.1387 0.172979 4.15071e-19)
(1.14173 0.171382 -8.21126e-19)
(1.14476 0.169802 1.77356e-18)
(1.14781 0.168238 4.55095e-19)
(1.15088 0.166689 -1.39092e-19)
(1.15396 0.165157 3.41817e-19)
(1.15706 0.16364 -2.47138e-19)
(1.16018 0.162139 -2.15602e-20)
(1.16332 0.160652 4.46572e-19)
(1.16648 0.159181 2.25446e-20)
(1.16967 0.157726 -4.41167e-19)
(1.13457 0.161541 -1.18457e-18)
(1.13731 0.160099 1.69519e-19)
(1.14006 0.158675 -1.27449e-18)
(1.14283 0.157267 -9.72138e-19)
(1.14563 0.155874 6.08008e-19)
(1.14844 0.154498 7.49387e-19)
(1.15128 0.153137 4.37404e-20)
(1.15414 0.151791 1.91747e-19)
(1.15703 0.150461 -1.46635e-18)
(1.15994 0.149145 6.10943e-20)
(1.16288 0.147844 4.28029e-20)
(1.13021 0.150676 1.67559e-18)
(1.1327 0.149378 7.13019e-19)
(1.1352 0.148095 5.144e-19)
(1.13773 0.146829 5.11797e-19)
(1.14028 0.145578 -5.79425e-19)
(1.14286 0.144343 -4.55761e-19)
(1.14546 0.143123 -4.99034e-19)
(1.14809 0.141918 3.06718e-19)
(1.15075 0.140728 5.67432e-19)
(1.15343 0.139553 -3.70336e-19)
(1.15615 0.138392 -2.13178e-20)
(1.12566 0.140347 -7.48756e-19)
(1.12793 0.139179 -3.51906e-19)
(1.13021 0.138027 -5.0462e-19)
(1.13252 0.13689 -1.3425e-20)
(1.13486 0.135768 -1.27486e-19)
(1.13722 0.134661 1.45586e-19)
(1.13961 0.133568 8.6552e-19)
(1.14203 0.132489 -3.69933e-19)
(1.14448 0.131425 4.4556e-19)
(1.14697 0.130375 2.41395e-19)
(1.14947 0.129338 -2.34712e-19)
(1.12096 0.130519 7.78025e-19)
(1.12303 0.129471 1.50457e-20)
(1.12512 0.128437 1.85077e-19)
(1.12723 0.127418 -1.6402e-19)
(1.12938 0.126412 -2.9952e-19)
(1.13155 0.125421 4.2099e-19)
(1.13376 0.124443 -2.55454e-19)
(1.13599 0.123479 4.7014e-19)
(1.13825 0.122528 -5.53178e-19)
(1.14054 0.12159 5.04266e-20)
(1.14286 0.120664 5.80299e-20)
(1.11615 0.121159 4.81041e-20)
(1.11804 0.120221 6.35662e-19)
(1.11996 0.119296 3.94179e-19)
(1.1219 0.118384 5.14193e-19)
(1.12388 0.117486 1.00236e-19)
(1.12588 0.1166 -3.43706e-19)
(1.12791 0.115727 4.42216e-19)
(1.12998 0.114867 -5.02515e-19)
(1.13207 0.11402 3.70785e-19)
(1.13419 0.113184 -2.13191e-19)
(1.13633 0.112361 1.39966e-19)
(1.11125 0.112239 3.38801e-19)
(1.11299 0.111401 6.86451e-20)
(1.11476 0.110576 2.31311e-19)
(1.11656 0.109763 -3.76338e-19)
(1.11838 0.108961 1.40833e-19)
(1.12023 0.108172 -3.26921e-19)
(1.12211 0.107395 -2.26529e-19)
(1.12402 0.106629 -2.79975e-19)
(1.12596 0.105874 1.61463e-19)
(1.12792 0.105132 -3.06803e-19)
(1.12991 0.1044 1.06538e-19)
(1.10632 0.10373 -7.24373e-19)
(1.10793 0.102985 -5.58318e-19)
(1.10957 0.102251 -1.53477e-19)
(1.11123 0.101527 6.78395e-19)
(1.11292 0.100815 -6.27904e-20)
(1.11463 0.100113 -1.5486e-19)
(1.11638 0.0994223 -6.48859e-19)
(1.11815 0.0987421 1.71678e-19)
(1.11994 0.0980725 -1.43709e-19)
(1.12177 0.0974135 4.40709e-19)
(1.12362 0.0967651 -9.92669e-21)
(1.10139 0.0956075 2.9279e-19)
(1.10289 0.0949466 7.13702e-19)
(1.1044 0.0942956 -2.31372e-19)
(1.10595 0.0936544 -5.78015e-19)
(1.10752 0.0930228 -5.96072e-19)
(1.10911 0.092401 2.53033e-19)
(1.11073 0.0917889 7.25824e-19)
(1.11238 0.0911864 -1.84847e-19)
(1.11405 0.0905935 2.48308e-19)
(1.11575 0.0900103 -5.10508e-19)
(1.11747 0.0894366 6.67632e-20)
(1.0965 0.0878458 -3.42135e-19)
(1.0979 0.0872622 -3.98135e-19)
(1.09931 0.0866873 3.52741e-19)
(1.10075 0.086121 6.30423e-19)
(1.10222 0.0855633 5.66333e-19)
(1.10371 0.0850142 -2.61158e-19)
(1.10522 0.0844738 -2.04728e-19)
(1.10675 0.0839421 -6.45428e-20)
(1.10831 0.0834191 5.09888e-20)
(1.10989 0.0829049 5.63028e-20)
(1.11149 0.0823994 9.64111e-22)
(1.0917 0.0804208 2.78805e-19)
(1.093 0.0799077 5.60608e-20)
(1.09433 0.0794021 1.49533e-20)
(1.09568 0.078904 -4.27605e-19)
(1.09705 0.0784134 5.44369e-20)
(1.09844 0.0779304 -1.54194e-19)
(1.09985 0.0774551 1.04215e-21)
(1.10129 0.0769875 4.11151e-21)
(1.10274 0.0765276 -1.35717e-20)
(1.10422 0.0760755 4.99577e-20)
(1.10572 0.0756314 -1.31968e-19)
(1.08701 0.0733089 1.32443e-19)
(1.08824 0.07286 1.76288e-20)
(1.08948 0.0724175 -8.28687e-19)
(1.09075 0.0719814 1.43259e-19)
(1.09204 0.0715519 -1.25004e-19)
(1.09335 0.0711288 -1.23318e-19)
(1.09467 0.0707124 3.66067e-20)
(1.09602 0.0703027 2.21247e-19)
(1.09738 0.0698998 -5.22444e-20)
(1.09876 0.0695038 1.56225e-19)
(1.10016 0.0691146 1.01962e-19)
(1.08248 0.0664867 -4.06966e-19)
(1.08364 0.0660963 -3.87881e-19)
(1.08481 0.0657112 3.80441e-19)
(1.08601 0.0653316 1.48967e-19)
(1.08722 0.0649574 -2.66457e-20)
(1.08845 0.0645889 -5.10725e-20)
(1.0897 0.0642261 1.36245e-19)
(1.09097 0.0638691 1.03094e-19)
(1.09225 0.0635181 -9.11942e-20)
(1.09354 0.063173 6.9868e-20)
(1.09486 0.0628341 -2.79131e-19)
(1.07813 0.0599307 -1.3346e-19)
(1.07923 0.0595933 2.63203e-19)
(1.08035 0.0592603 4.05278e-21)
(1.08148 0.0589318 -6.06931e-20)
(1.08263 0.0586079 -7.38539e-20)
(1.08379 0.0582888 -3.72158e-20)
(1.08497 0.0579746 2.25915e-19)
(1.08617 0.0576654 1.61773e-19)
(1.08737 0.0573612 6.68984e-20)
(1.08859 0.0570623 -6.38768e-20)
(1.08983 0.0567686 1.67034e-19)
(1.07401 0.0536166 1.72967e-19)
(1.07506 0.0533273 -7.41781e-20)
(1.07613 0.0530414 -4.94814e-20)
(1.0772 0.0527593 -1.69956e-19)
(1.07829 0.052481 -1.09863e-19)
(1.0794 0.0522067 2.33126e-19)
(1.08051 0.0519364 9.08586e-20)
(1.08164 0.0516704 -4.31786e-19)
(1.08278 0.0514087 2.65303e-20)
(1.08394 0.0511515 7.37399e-21)
(1.0851 0.0508988 -3.45251e-20)
(1.07015 0.0475194 1.46312e-19)
(1.07115 0.0472734 2.26884e-20)
(1.07217 0.0470303 1.5923e-19)
(1.0732 0.0467901 1.4781e-19)
(1.07424 0.0465531 3.07253e-20)
(1.07529 0.0463193 -8.53242e-20)
(1.07635 0.0460889 -2.48078e-19)
(1.07742 0.045862 1.15501e-19)
(1.07851 0.0456387 -2.33836e-19)
(1.0796 0.0454192 2.29633e-19)
(1.0807 0.0452035 1.3944e-19)
(1.06657 0.0416128 -1.41715e-19)
(1.06754 0.041406 1.84456e-19)
(1.06852 0.0412015 -1.45369e-19)
(1.0695 0.0409992 4.28022e-19)
(1.0705 0.0407995 -1.72891e-19)
(1.0715 0.0406024 1.51175e-19)
(1.07252 0.040408 9.80945e-20)
(1.07354 0.0402166 1.89719e-19)
(1.07457 0.0400281 1.2195e-19)
(1.07561 0.0398428 -4.47553e-21)
(1.07665 0.0396607 2.26566e-20)
(1.06332 0.0358683 4.48369e-20)
(1.06425 0.035697 -1.10364e-19)
(1.06519 0.0355273 -2.16841e-19)
(1.06614 0.0353594 -2.90557e-19)
(1.0671 0.0351934 2.30624e-19)
(1.06807 0.0350296 -1.41896e-19)
(1.06904 0.034868 -3.99839e-19)
(1.07002 0.0347087 9.86574e-20)
(1.071 0.0345518 1.77666e-20)
(1.07199 0.0343976 8.26497e-20)
(1.07298 0.034246 -1.31271e-19)
(1.06042 0.0302555 -4.96197e-20)
(1.06132 0.0301163 -1.05306e-19)
(1.06224 0.0299782 2.22228e-19)
(1.06315 0.0298415 2.7377e-20)
(1.06408 0.0297062 3.176e-20)
(1.06501 0.0295726 1.205e-19)
(1.06594 0.0294408 1.98502e-19)
(1.06688 0.0293108 -1.18335e-19)
(1.06783 0.0291828 -2.01077e-19)
(1.06878 0.0290569 1.80349e-19)
(1.06973 0.0289331 -2.28696e-20)
(1.0579 0.0247402 4.09422e-20)
(1.05878 0.02463 -1.22985e-19)
(1.05967 0.0245207 1.09195e-19)
(1.06056 0.0244124 1.01011e-20)
(1.06146 0.0243052 -3.70473e-20)
(1.06236 0.0241993 1.8798e-20)
(1.06327 0.0240947 -1.15359e-19)
(1.06417 0.0239916 -7.65906e-20)
(1.06508 0.02389 -6.07216e-20)
(1.066 0.0237901 3.74686e-20)
(1.06691 0.0236918 -1.25984e-20)
(1.0558 0.019285 -4.11254e-20)
(1.05667 0.0192016 -2.2889e-20)
(1.05754 0.0191188 2.44702e-19)
(1.05841 0.0190366 -2.4289e-19)
(1.05928 0.0189553 3.06425e-19)
(1.06016 0.018875 -2.49945e-19)
(1.06104 0.0187956 1.03867e-19)
(1.06192 0.0187173 7.48037e-20)
(1.0628 0.0186403 -1.02496e-19)
(1.06369 0.0185644 1.08921e-19)
(1.06457 0.0184899 -9.35099e-21)
(1.05417 0.0138449 -7.76499e-20)
(1.05502 0.0137862 -5.60385e-20)
(1.05587 0.0137279 1.84681e-19)
(1.05673 0.0136701 -3.32784e-19)
(1.05759 0.0136129 1.36208e-19)
(1.05844 0.0135564 1.75393e-19)
(1.0593 0.0135006 -6.99332e-20)
(1.06016 0.0134456 5.85591e-20)
(1.06102 0.0133915 2.96476e-20)
(1.06189 0.0133384 -1.42254e-19)
(1.06275 0.0132861 1.59225e-19)
(1.05303 0.00837408 -9.58937e-20)
(1.05388 0.00833929 -9.95591e-20)
(1.05472 0.00830476 1.21978e-19)
(1.05556 0.00827055 1.36581e-19)
(1.05641 0.00823669 -7.81403e-20)
(1.05725 0.00820324 1.08094e-19)
(1.0581 0.00817023 -4.81921e-19)
(1.05894 0.00813769 1.61112e-19)
(1.05979 0.00810566 3.46258e-20)
(1.06063 0.00807416 1.38933e-19)
(1.06148 0.00804321 -2.53503e-19)
(1.05246 0.002805 -2.88238e-19)
(1.05329 0.00279266 8.57696e-20)
(1.05413 0.00278056 9.58165e-20)
(1.05497 0.00276871 5.29076e-20)
(1.05581 0.00275714 7.80579e-20)
(1.05664 0.00274588 1.96187e-21)
(1.05748 0.00273492 -8.1972e-20)
(1.05831 0.00272429 1.7121e-20)
(1.05915 0.00271398 -3.82336e-20)
(1.05998 0.002704 -1.0576e-19)
(1.06081 0.00269432 7.56701e-20)
)
;

boundaryField
{
    inlet
    {
        type            uniformFixedValue;
        uniformValue    constant (1 0 0);
        value           nonuniform 0();
    }
    outlet
    {
        type            pressureInletOutletVelocity;
        value           nonuniform 0();
    }
    cylinder
    {
        type            fixedValue;
        value           nonuniform 0();
    }
    top
    {
        type            symmetryPlane;
    }
    bottom
    {
        type            symmetryPlane;
    }
    defaultFaces
    {
        type            empty;
    }
    procBoundary31to24
    {
        type            processor;
        value           nonuniform List<vector> 8((1.12749 0.428391 -3.97063e-18) (1.13526 0.403265 4.92299e-18) (1.14161 0.379059 -2.93317e-18) (1.14633 0.35614 7.4805e-19) (1.1495 0.334496 -3.42425e-18) (1.15135 0.314051 3.87166e-18) (1.1521 0.294737 6.9138e-19) (1.15196 0.276508 -4.16914e-18));
    }
    procBoundary31to25
    {
        type            processor;
        value           nonuniform List<vector> 
14
(
(1.18721 0.328371 -6.8023e-18)
(1.1902 0.350291 -1.31445e-18)
(1.20495 0.376865 -4.14809e-18)
(1.20495 0.376865 -4.14809e-18)
(1.2009 0.395831 -4.80801e-18)
(1.19421 0.413871 4.27541e-18)
(1.18509 0.431023 -5.40048e-18)
(1.163 0.453713 6.22023e-18)
(1.17761 0.443872 -2.79759e-18)
(1.19034 0.432829 -2.33647e-19)
(1.19034 0.432829 -2.33647e-19)
(1.13944 0.445665 6.61404e-19)
(1.15716 0.438787 4.10313e-19)
(1.15716 0.438787 4.10313e-19)
)
;
    }
    procBoundary31to26
    {
        type            processor;
        value           nonuniform List<vector> 8((1.20072 0.314917 -6.25389e-19) (1.22523 0.324773 1.79775e-18) (1.24688 0.325734 -5.77907e-19) (1.25775 0.322439 6.59957e-19) (1.26083 0.314628 -8.29796e-19) (1.25889 0.30387 1.11158e-18) (1.25393 0.291342 -7.36963e-19) (1.24735 0.277931 3.0015e-19));
    }
    procBoundary31to30
    {
        type            processor;
        value           nonuniform List<vector> 
30
(
(1.1511 0.259313 -2.25985e-18)
(1.14964 0.243098 6.50202e-19)
(1.14767 0.227804 2.02655e-18)
(1.14524 0.213367 -3.51514e-18)
(1.14241 0.199726 2.95763e-18)
(1.13921 0.18682 -3.05043e-18)
(1.13568 0.174594 6.46034e-19)
(1.13184 0.163 1.10523e-18)
(1.12775 0.151992 -1.43091e-18)
(1.12343 0.141532 6.69994e-19)
(1.11892 0.131583 9.8728e-19)
(1.11428 0.122112 -1.87898e-19)
(1.10954 0.11309 -2.55995e-19)
(1.10474 0.104487 -2.05423e-19)
(1.09992 0.0962787 -2.27988e-19)
(1.09514 0.0884384 -6.95911e-20)
(1.09042 0.0809416 -2.67037e-20)
(1.0858 0.0737642 1.38805e-19)
(1.08133 0.0668826 -3.87337e-20)
(1.07705 0.0602725 2.34888e-19)
(1.07297 0.0539096 4.99727e-20)
(1.06915 0.0477681 -1.11447e-19)
(1.06561 0.0418216 3.60145e-20)
(1.06239 0.0360412 6.98403e-20)
(1.05952 0.030396 -1.83359e-19)
(1.05702 0.0248512 -2.20017e-19)
(1.05494 0.0193689 -1.26271e-19)
(1.05332 0.0139039 -9.11096e-20)
(1.05219 0.00840909 -1.97993e-20)
(1.05162 0.00281752 -5.37447e-20)
)
;
    }
    procBoundary31to32
    {
        type            processor;
        value           nonuniform List<vector> 
33
(
(1.23993 0.264199 -1.28212e-19)
(1.23227 0.25052 3.365e-19)
(1.22453 0.237171 -5.73196e-19)
(1.21682 0.224207 -6.28193e-20)
(1.20923 0.211685 6.66705e-19)
(1.20177 0.19966 1.37631e-19)
(1.19441 0.188118 3.14681e-19)
(1.18715 0.177046 -1.85176e-19)
(1.17998 0.16644 -1.26691e-19)
(1.17289 0.156285 -3.62864e-19)
(1.16586 0.146557 1.81435e-19)
(1.1589 0.137243 1.90927e-19)
(1.15201 0.128314 -6.43946e-20)
(1.14521 0.119753 -1.89468e-19)
(1.13851 0.11155 1.66767e-19)
(1.13193 0.10368 6.51678e-20)
(1.12549 0.0961271 -3.39022e-20)
(1.11921 0.0888725 -7.20199e-20)
(1.11312 0.0819028 2.50781e-20)
(1.10723 0.0751951 -9.24358e-21)
(1.10158 0.0687323 -5.95937e-20)
(1.09619 0.0625013 -5.85894e-20)
(1.09108 0.0564803 9.69518e-20)
(1.08627 0.0506507 -1.17076e-19)
(1.08181 0.0449918 9.82674e-20)
(1.0777 0.0394819 -5.08299e-22)
(1.07398 0.0340971 -3.37071e-20)
(1.07068 0.0288115 -4.62824e-20)
(1.06783 0.0235954 3.93254e-20)
(1.06546 0.0184167 -1.65257e-20)
(1.06361 0.0132349 8.50319e-20)
(1.06232 0.00801283 -1.41195e-19)
(1.06164 0.00268495 6.48014e-20)
)
;
    }
}


// ************************************************************************* //
