/*--------------------------------*- C++ -*----------------------------------*\
  =========                 |
  \\      /  F ield         | OpenFOAM: The Open Source CFD Toolbox
   \\    /   O peration     | Website:  https://openfoam.org
    \\  /    A nd           | Version:  7
     \\/     M anipulation  |
\*---------------------------------------------------------------------------*/
FoamFile
{
    version     2.0;
    format      ascii;
    class       volVectorField;
    location    "16";
    object      U;
}
// * * * * * * * * * * * * * * * * * * * * * * * * * * * * * * * * * * * * * //

dimensions      [0 1 -1 0 0 0 0];

internalField   nonuniform List<vector> 
433
(
(0.280836 -0.013119 -8.76499e-19)
(0.205559 -0.010019 4.52516e-20)
(0.233411 -0.00842978 2.00185e-19)
(0.123289 -0.015723 8.51385e-20)
(0.144318 -0.0135162 7.67886e-19)
(0.167398 -0.0120682 -9.83231e-19)
(0.191484 -0.0115954 -9.94555e-19)
(0.0779277 -0.0222147 -8.05876e-20)
(0.0949443 -0.0197565 8.01769e-20)
(0.11331 -0.0177747 3.01607e-19)
(0.133298 -0.0168227 4.68429e-19)
(0.153891 -0.0170749 6.15386e-19)
(0.0703134 -0.0247189 2.8792e-19)
(0.0860752 -0.0229383 1.57949e-19)
(0.103097 -0.0222156 -5.15031e-19)
(0.120552 -0.0226425 1.05979e-19)
(0.0764899 -0.0274812 -1.95449e-19)
(0.0911331 -0.027739 7.45642e-20)
(1.23906 0.00958644 0)
(1.23327 0.0164441 0)
(1.22709 0.0230605 0)
(1.27335 -0.121822 0)
(1.27533 -0.113105 0)
(1.27625 -0.104234 0)
(1.277 -0.0952551 0)
(1.27722 -0.0862193 0)
(1.27671 -0.077171 0)
(1.27546 -0.0681456 0)
(1.27355 -0.0591785 0)
(1.271 -0.0503067 0)
(1.26782 -0.0415653 0)
(1.26406 -0.0329858 0)
(1.25976 -0.0245953 0)
(1.25494 -0.016416 0)
(1.24967 -0.00846497 0)
(1.24397 -0.000752737 0)
(1.23789 0.00671075 0)
(1.23147 0.0139224 0)
(1.22472 0.0208785 0)
(1.21767 0.0275729 0)
(1.28163 -0.124434 0)
(1.28246 -0.114806 0)
(1.28217 -0.105022 0)
(1.28159 -0.0951822 0)
(1.28039 -0.0853646 0)
(1.2784 -0.0756104 0)
(1.27565 -0.0659486 0)
(1.27219 -0.0564156 0)
(1.26808 -0.0470506 0)
(1.26337 -0.0378889 0)
(1.25809 -0.0289605 0)
(1.25232 -0.02029 0)
(1.2461 -0.0118953 0)
(1.2395 -0.00378676 0)
(1.23257 0.00402842 0)
(1.22537 0.0115535 0)
(1.21793 0.0187933 0)
(1.2103 0.025753 0)
(1.20247 0.0324357 0)
(1.28634 -0.125375 0)
(1.28558 -0.114848 0)
(1.28366 -0.104141 0)
(1.28132 -0.0934431 0)
(1.27829 -0.0828733 0)
(1.27444 -0.0724598 0)
(1.26984 -0.0622222 0)
(1.26456 -0.052198 0)
(1.25865 -0.0424277 0)
(1.2522 -0.0329453 0)
(1.24526 -0.0237774 0)
(1.23792 -0.0149435 0)
(1.23025 -0.00645461 0)
(1.22232 0.0016857 0)
(1.21421 0.00948143 0)
(1.20596 0.0169473 0)
(1.19764 0.0240991 0)
(1.18927 0.0309537 0)
(1.18086 0.0375252 0)
(1.28564 -0.12413 0)
(1.28283 -0.112787 0)
(1.27888 -0.101203 0)
(1.27435 -0.0897129 0)
(1.26909 -0.0784807 0)
(1.26308 -0.0675105 0)
(1.25637 -0.0568106 0)
(1.24905 -0.0464205 0)
(1.2412 -0.0363808 0)
(1.23292 -0.0267212 0)
(1.22429 -0.0174625 0)
(1.2154 -0.00861669 0)
(1.20635 -0.000186192 0)
(1.19722 0.00783617 0)
(1.18809 0.0154707 0)
(1.17901 0.0227421 0)
(1.17003 0.0296801 0)
(1.16118 0.0363151 0)
(1.15246 0.0426734 0)
(1.27734 -0.120215 0)
(1.2721 -0.108228 0)
(1.26581 -0.0958946 0)
(1.25873 -0.083759 0)
(1.25096 -0.0720267 0)
(1.24257 -0.0606663 0)
(1.23363 -0.0496758 0)
(1.22422 -0.0390983 0)
(1.21443 -0.0289717 0)
(1.20439 -0.0193188 0)
(1.19419 -0.0101521 0)
(1.18394 -0.00147367 0)
(1.17374 0.00672563 0)
(1.16366 0.0144689 0)
(1.1538 0.0217892 0)
(1.1442 0.0287266 0)
(1.13491 0.0353257 0)
(1.12593 0.0416308 0)
(1.11726 0.0476808 0)
(1.25908 -0.113286 0)
(1.25122 -0.100921 0)
(1.24247 -0.088056 0)
(1.23265 -0.075511 0)
(1.22225 -0.0635149 0)
(1.21148 -0.0519916 0)
(1.20038 -0.0409358 0)
(1.189 -0.0303949 0)
(1.17748 -0.0204011 0)
(1.16593 -0.0109678 0)
(1.15446 -0.00209691 0)
(1.14319 0.00622156 0)
(1.1322 0.0140123 0)
(1.12158 0.0213132 0)
(1.11139 0.0281724 0)
(1.10169 0.0346459 0)
(1.09249 0.0407933 0)
(1.0838 0.0466728 0)
(1.07559 0.0523352 0)
(1.22861 -0.103247 0)
(1.21828 -0.0908465 0)
(1.20717 -0.0777541 0)
(1.19466 -0.0651169 0)
(1.18178 -0.0531519 0)
(1.16887 -0.0417386 0)
(1.15589 -0.0308804 0)
(1.14291 -0.0206288 0)
(1.13004 -0.0110068 0)
(1.11742 -0.00201623 0)
(1.10516 0.00635301 0)
(1.09334 0.0141256 0)
(1.08206 0.0213414 0)
(1.07139 0.0280532 0)
(1.06137 0.0343245 0)
(1.05204 0.0402263 0)
(1.0434 0.0458324 0)
(1.03544 0.0512137 0)
(1.02811 0.0564318 0)
(1.18419 -0.0903432 0)
(1.17195 -0.0782784 0)
(1.1589 -0.0653246 0)
(1.14401 -0.0529639 0)
(1.12906 -0.0413529 0)
(1.1145 -0.0303424 0)
(1.10018 -0.0199586 0)
(1.08613 -0.0102538 0)
(1.07251 -0.0012378 0)
(1.05943 0.00709993 0)
(1.04696 0.0147827 0)
(1.0352 0.0218493 0)
(1.0242 0.0283533 0)
(1.01402 0.0343614 0)
(1.00469 0.0399506 0)
(0.996227 0.0452052 0)
(0.98861 0.050211 0)
(0.981805 0.0550499 0)
(0.975749 0.0597932 0)
(1.12493 -0.0751889 0)
(1.11177 -0.0637961 0)
(1.09743 -0.0513647 0)
(1.08076 -0.0396547 0)
(1.06443 -0.0287112 0)
(1.04893 -0.0183867 0)
(1.03399 -0.00874016 0)
(1.01963 0.000183239 0)
(1.00598 0.00839024 0)
(0.993126 0.0159033 0)
(0.981134 0.0227571 0)
(0.970054 0.0290016 0)
(0.959931 0.0347017 0)
(0.950794 0.0399345 0)
(0.942656 0.0447881 0)
(0.935513 0.049357 0)
(0.929334 0.0537371 0)
(0.924067 0.0580196 0)
(0.919632 0.0622836 0)
(1.05101 -0.058716 0)
(1.03827 -0.0482294 0)
(1.02351 -0.0366724 0)
(1.00588 -0.0259452 0)
(0.989089 -0.0159392 0)
(0.973545 -0.00654645 0)
(0.958847 0.00214091 0)
(0.945 0.0100993 0)
(0.932114 0.0173517 0)
(0.920234 0.023928 0)
(0.909387 0.0298697 0)
(0.8996 0.0352336 0)
(0.890897 0.0400905 0)
(0.88329 0.0445247 0)
(0.876777 0.0486314 0)
(0.871341 0.0525131 0)
(0.866942 0.0562741 0)
(0.863516 0.0600134 0)
(0.860971 0.0638169 0)
(0.963763 -0.0420541 0)
(0.952984 -0.0325532 0)
(0.938751 -0.0221526 0)
(0.921155 -0.0126642 0)
(0.90496 -0.0038006 0)
(0.890372 0.00447153 0)
(0.876851 0.0120493 0)
(0.864386 0.0189376 0)
(0.853041 0.0251688 0)
(0.842818 0.0307722 0)
(0.833714 0.0357887 0)
(0.825739 0.0402752 0)
(0.818904 0.0443035 0)
(0.813211 0.047961 0)
(0.808655 0.0513478 0)
(0.805212 0.054573 0)
(0.802837 0.0577481 0)
(0.80146 0.0609792 0)
(0.800985 0.0643586 0)
(0.865515 -0.0263781 0)
(0.858212 -0.0177674 0)
(0.845433 -0.00872121 0)
(0.829004 -0.000636357 0)
(0.81456 0.00695449 0)
(0.801958 0.0140023 0)
(0.790532 0.0204197 0)
(0.780244 0.0262333 0)
(0.771111 0.0314696 0)
(0.763101 0.0361456 0)
(0.756202 0.0402928 0)
(0.750418 0.0439616 0)
(0.745761 0.0472214 0)
(0.74224 0.0501608 0)
(0.73985 0.0528843 0)
(0.738571 0.0555072 0)
(0.738359 0.0581483 0)
(0.739144 0.0609211 0)
(0.740827 0.0639245 0)
(0.75922 -0.0127376 0)
(0.756702 -0.00478734 0)
(0.746305 0.00277394 0)
(0.732298 0.00938319 0)
(0.720787 0.0156646 0)
(0.711143 0.0215 0)
(0.702606 0.0268275 0)
(0.695126 0.0316722 0)
(0.688689 0.0360315 0)
(0.683263 0.0398976 0)
(0.678848 0.0432862 0)
(0.675467 0.0462384 0)
(0.67315 0.0488208 0)
(0.671919 0.0511241 0)
(0.671782 0.0532587 0)
(0.672728 0.055347 0)
(0.674718 0.0575166 0)
(0.677686 0.0598889 0)
(0.681535 0.0625702 0)
(0.647941 -0.00187514 0)
(0.65133 0.00563203 0)
(0.644387 0.0115319 0)
(0.634193 0.016678 0)
(0.626727 0.0217445 0)
(0.620833 0.0265295 0)
(0.615748 0.0309773 0)
(0.611453 0.0350666 0)
(0.607957 0.0387446 0)
(0.605265 0.0419725 0)
(0.603424 0.0447499 0)
(0.602492 0.0471114 0)
(0.60253 0.0491244 0)
(0.603582 0.0508855 0)
(0.605674 0.0525133 0)
(0.608807 0.0541402 0)
(0.612951 0.0559039 0)
(0.618046 0.0579349 0)
(0.623995 0.0603482 0)
(0.534644 0.00521713 0)
(0.544867 0.0124994 0)
(0.542887 0.016293 0)
(0.538012 0.020147 0)
(0.535467 0.0243872 0)
(0.533786 0.0285497 0)
(0.532381 0.0325221 0)
(0.531344 0.0361996 0)
(0.530771 0.0394794 0)
(0.53075 0.0422991 0)
(0.531393 0.0446521 0)
(0.532808 0.0465752 0)
(0.535091 0.0481441 0)
(0.538313 0.0494669 0)
(0.542519 0.0506752 0)
(0.547723 0.0519146 0)
(0.553903 0.0533356 0)
(0.561005 0.0550805 0)
(0.568938 0.0572741 0)
(0.421974 0.0074268 0)
(0.440416 0.0129292 0)
(0.445282 0.0152089 0)
(0.447227 0.018976 0)
(0.45 0.0234062 0)
(0.45248 0.027729 0)
(0.454558 0.0318085 0)
(0.456525 0.0354974 0)
(0.45861 0.0386917 0)
(0.461004 0.0413366 0)
(0.463891 0.0434417 0)
(0.467431 0.0450612 0)
(0.471751 0.0462906 0)
(0.476947 0.0472574 0)
(0.483081 0.0481119 0)
(0.490178 0.0490171 0)
(0.498224 0.0501397 0)
(0.507169 0.0516354 0)
(0.516925 0.0536415 0)
(0.340818 0.00660849 1.34204e-19)
(0.363838 0.0153984 -5.6155e-20)
(0.376316 0.0193848 -2.00863e-19)
(0.383697 0.0238607 1.13668e-19)
(0.390013 0.0279509 8.23011e-20)
(0.395121 0.0318057 9.93033e-21)
(0.399397 0.0353684 1.05311e-19)
(0.403271 0.0384855 -1.62403e-19)
(0.407065 0.0410837 6.67252e-20)
(0.411031 0.0431251 -6.60678e-20)
(0.415401 0.044635 9.90333e-20)
(0.420359 0.0456812 -3.43857e-20)
(0.426054 0.0463718 7.17603e-20)
(0.432594 0.0468446 -3.40806e-20)
(0.440049 0.047258 -1.02022e-20)
(0.448449 0.0477811 1.0682e-20)
(0.457785 0.0485848 -5.4237e-20)
(0.468009 0.0498269 8.5456e-20)
(0.283208 -0.00378072 -7.2472e-20)
(0.305113 0.00762037 3.07613e-20)
(0.322531 0.013903 -6.66322e-20)
(0.33349 0.0201833 2.45911e-19)
(0.342308 0.0252263 -1.14301e-19)
(0.349417 0.0296309 1.89754e-19)
(0.355443 0.0334937 -1.15068e-19)
(0.360887 0.0367351 -4.2777e-20)
(0.366125 0.0393466 1.62197e-20)
(0.371449 0.0413269 -2.28763e-20)
(0.377119 0.0427334 -2.59983e-20)
(0.383334 0.0436572 -1.144e-21)
(0.390255 0.0442243 2.16153e-20)
(0.397996 0.0445858 4.46824e-20)
(0.40663 0.0449089 -4.2372e-20)
(0.41619 0.0453687 -2.14556e-20)
(0.426668 0.0461396 3.30387e-20)
(0.438017 0.0473803 2.06713e-20)
(0.233458 -0.0123509 5.99427e-19)
(0.252466 0.00236287 -1.84557e-19)
(0.272681 0.00952544 -1.19423e-19)
(0.285859 0.0171498 -1.6447e-19)
(0.296552 0.0228624 9.69443e-20)
(0.305288 0.0276788 9.88628e-20)
(0.312787 0.0317651 4.85645e-20)
(0.31959 0.0350781 -2.25679e-19)
(0.326112 0.037665 1.68146e-19)
(0.332669 0.0395549 -5.05681e-20)
(0.33954 0.040835 3.09771e-20)
(0.346933 0.0416181 5.63281e-22)
(0.355013 0.0420475 -8.45533e-20)
(0.363896 0.0422861 3.01283e-20)
(0.373658 0.0425095 1.54928e-20)
(0.384332 0.0428982 7.45977e-20)
(0.395907 0.0436293 -2.00538e-20)
(0.408337 0.0448623 -5.2719e-20)
(0.189785 -0.0197628 -3.30173e-19)
(0.205613 -0.0023847 1.07296e-19)
(0.226716 0.00511624 1.48666e-19)
(0.241173 0.0137806 -5.11687e-20)
(0.253008 0.0202427 -3.26238e-20)
(0.262954 0.0254792 -9.35933e-20)
(0.271626 0.0297968 1.88755e-19)
(0.279563 0.0331836 -2.06697e-19)
(0.287201 0.0357481 2.77354e-20)
(0.29486 0.037548 2.45677e-20)
(0.302828 0.0387016 -3.06005e-20)
(0.311313 0.0393438 -3.21075e-20)
(0.320481 0.0396344 8.04474e-20)
(0.330446 0.0397488 -4.65355e-20)
(0.34128 0.0398706 3.93908e-20)
(0.353014 0.040186 -1.25968e-20)
(0.365637 0.0408754 3.66593e-20)
(0.379101 0.0420992 -4.38856e-20)
(0.151396 -0.0256836 4.46012e-20)
(0.164149 -0.00745211 1.65574e-19)
(0.184789 0.00101809 -4.53992e-20)
(0.199634 0.0100608 -1.49152e-19)
(0.211993 0.0172052 7.95386e-20)
(0.222711 0.0228438 -1.89918e-20)
(0.232238 0.0273955 7.6189e-20)
(0.241071 0.0308621 5.76208e-21)
(0.249643 0.0334148 -2.77082e-20)
(0.25826 0.0351357 -1.34697e-19)
(0.26721 0.0361751 -2.28952e-21)
(0.276692 0.0366888 9.53535e-20)
(0.286867 0.0368534 -1.20211e-20)
(0.29784 0.036856 -2.06591e-20)
(0.309681 0.036888 4.62463e-20)
(0.322415 0.0371416 -1.72084e-20)
(0.336028 0.0378 1.42774e-20)
(0.350469 0.0390248 -3.2825e-20)
(0.117564 -0.0303544 -1.04359e-19)
(0.127586 -0.0124121 9.05809e-20)
(0.146865 -0.00280502 -5.7382e-20)
(0.161264 0.00615429 1.02611e-19)
(0.173683 0.0139252 -1.8301e-19)
(0.184764 0.0198951 8.90299e-20)
(0.194837 0.0246419 -2.48503e-20)
(0.204327 0.0281663 6.1766e-20)
(0.213652 0.0306998 1.23127e-21)
(0.22308 0.0323404 2.87044e-20)
(0.232893 0.0332694 -1.77476e-21)
(0.243272 0.0336623 -1.25841e-19)
(0.254365 0.0337107 9.47085e-20)
(0.26627 0.0336125 -3.25073e-20)
(0.279045 0.0335666 -8.37636e-21)
(0.292711 0.0337704 1.96389e-21)
(0.307248 0.0344096 -8.20785e-21)
(0.322604 0.0356471 5.57249e-20)
)
;

boundaryField
{
    inlet
    {
        type            uniformFixedValue;
        uniformValue    constant (1 0 0);
        value           nonuniform 0();
    }
    outlet
    {
        type            pressureInletOutletVelocity;
        value           nonuniform 0();
    }
    cylinder
    {
        type            fixedValue;
        value           nonuniform 0();
    }
    top
    {
        type            symmetryPlane;
    }
    bottom
    {
        type            symmetryPlane;
    }
    defaultFaces
    {
        type            empty;
    }
    procBoundary10to3
    {
        type            processor;
        value           nonuniform List<vector> 
13
(
(1.26704 -0.127736 2.40208e-19)
(1.27597 -0.131038 -2.4786e-20)
(1.28193 -0.132678 -2.50253e-20)
(1.28325 -0.132074 -7.07696e-20)
(1.27786 -0.128656 5.96007e-20)
(1.26343 -0.121973 -4.51727e-20)
(1.23766 -0.111832 2.18354e-19)
(1.19858 -0.0984117 -1.45291e-19)
(1.14496 -0.0823268 -2.39915e-19)
(1.07657 -0.0645947 4.55738e-19)
(0.994316 -0.0465241 -7.96916e-20)
(0.900146 -0.029549 -4.34309e-19)
(0.796701 -0.0150138 2.92425e-19)
)
;
    }
    procBoundary10to4
    {
        type            processor;
        value           nonuniform List<vector> 
20
(
(1.24171 0.00582652 0)
(1.23685 0.0125094 0)
(1.23154 0.0189735 0)
(1.26292 -0.118015 0)
(1.26565 -0.110171 0)
(1.26743 -0.102164 0)
(1.26911 -0.0940122 0)
(1.27037 -0.0857455 0)
(1.27096 -0.077408 0)
(1.27089 -0.069038 0)
(1.27021 -0.0606697 0)
(1.26891 -0.0523378 0)
(1.26703 -0.0440763 0)
(1.26456 -0.0359166 0)
(1.26154 -0.0278868 0)
(1.258 -0.0200114 0)
(1.25395 -0.0123112 0)
(1.24942 -0.00480194 0)
(1.24445 0.00250091 0)
(1.24445 0.00250091 0)
)
;
    }
    procBoundary10to9
    {
        type            processor;
        value           nonuniform List<vector> 
12
(
(0.363109 -0.0232233 5.23896e-19)
(0.250572 -0.0144772 -1.39899e-18)
(0.250572 -0.0144772 -1.39899e-18)
(0.155896 -0.0135521 -5.50643e-19)
(0.179545 -0.0116445 2.91652e-19)
(0.179545 -0.0116445 2.91652e-19)
(0.103812 -0.0181546 6.91564e-19)
(0.103812 -0.0181546 6.91564e-19)
(0.0621761 -0.024797 -5.71998e-21)
(0.686846 -0.00423542 1.38316e-19)
(0.573559 0.000929142 -7.59897e-20)
(0.455518 -0.00126592 1.78295e-19)
)
;
    }
    procBoundary10to11
    {
        type            processor;
        value           nonuniform List<vector> 
19
(
(1.22053 0.0294176 0)
(1.21033 0.0339941 0)
(1.19448 0.0388383 0)
(1.17241 0.0438199 0)
(1.14387 0.0487715 0)
(1.10888 0.0535027 0)
(1.06781 0.0578173 0)
(1.02133 0.0615322 0)
(0.970352 0.0644934 0)
(0.915925 0.0665879 0)
(0.859192 0.0677486 0)
(0.801287 0.0679553 0)
(0.74328 0.0672327 0)
(0.686134 0.0656402 0)
(0.630672 0.0632296 0)
(0.577573 0.0600105 0)
(0.527365 0.0562609 0)
(0.479033 0.0516456 7.59545e-20)
(0.479033 0.0516456 7.59545e-20)
)
;
    }
    procBoundary10to16
    {
        type            processor;
        value           nonuniform List<vector> 
25
(
(0.0556744 -0.027096 1.32215e-19)
(0.0556744 -0.027096 1.32215e-19)
(0.0489582 -0.0298646 6.23519e-19)
(0.0622273 -0.0281966 -5.55779e-19)
(0.0622273 -0.0281966 -5.55779e-19)
(0.0531898 -0.0322083 -3.3403e-19)
(0.0653266 -0.0321588 9.18418e-19)
(0.0877737 -0.0339958 1.2751e-20)
(0.0953804 -0.0168622 -2.35452e-19)
(0.112682 -0.00660799 2.67887e-21)
(0.126053 0.00222463 -1.15904e-20)
(0.138221 0.0105253 7.69186e-20)
(0.149254 0.0167577 -1.18761e-19)
(0.15959 0.0216378 -2.64527e-20)
(0.169514 0.0251784 6.84697e-20)
(0.179416 0.0276723 5.8704e-22)
(0.18951 0.0292206 3.50587e-20)
(0.200067 0.0300349 -6.49678e-21)
(0.211239 0.0303082 -5.57109e-20)
(0.223161 0.0302453 6.89141e-20)
(0.235913 0.0300533 5.28691e-22)
(0.249546 0.0299379 -7.05268e-21)
(0.26407 0.0301011 6.81591e-21)
(0.279461 0.0307304 -2.55878e-20)
(0.295662 0.03199 1.19167e-20)
)
;
    }
    procBoundary10to17
    {
        type            processor;
        value           nonuniform List<vector> 5((0.450148 0.0492289 3.98788e-20) (0.421534 0.046735 -2.55412e-20) (0.393317 0.0439953 -1.61127e-20) (0.36565 0.0409545 -2.91469e-20) (0.338688 0.0376218 6.35634e-20));
    }
}


// ************************************************************************* //
