0.155265 	0.479017 	2.84542e-18 	1.07211 	-0.0344835 	2.89871e-17
0.156341 	0.482335 	2.5692e-18 	0.972116 	-0.0274809 	1.81792e-17
0.157961 	0.487333 	2.43495e-18 	0.779875 	-0.0165646 	2.46823e-17
0.159385 	0.491728 	2.11402e-18 	0.497593 	-0.00551278 	1.33321e-17
0.160195 	0.494227 	1.62483e-18 	0.489562 	-0.00523544 	7.82562e-18
0.161201 	0.49733 	1.05031e-18 	0.166539 	-0.000503342 	3.48241e-18
