0.144637 	0.481043 	-4.62035e-18 	0.998197 	-0.0310532 	1.73438e-17
0.145388 	0.483542 	-4.96225e-18 	0.989462 	-0.0297962 	1.61575e-17
0.146528 	0.487333 	-4.03936e-18 	0.802025 	-0.0184125 	3.35725e-17
0.148031 	0.492331 	-4.05932e-18 	0.514973 	-0.00613995 	8.65805e-18
0.149391 	0.496855 	-4.2358e-18 	0.175324 	-0.000565075 	2.59339e-17
0.150143 	0.499354 	-3.77473e-18 	0.172242 	-0.000545961 	1.23168e-17
