/*--------------------------------*- C++ -*----------------------------------*\
  =========                 |
  \\      /  F ield         | OpenFOAM: The Open Source CFD Toolbox
   \\    /   O peration     | Website:  https://openfoam.org
    \\  /    A nd           | Version:  7
     \\/     M anipulation  |
\*---------------------------------------------------------------------------*/
FoamFile
{
    version     2.0;
    format      ascii;
    class       volVectorField;
    location    "5.2";
    object      U;
}
// * * * * * * * * * * * * * * * * * * * * * * * * * * * * * * * * * * * * * //

dimensions      [0 1 -1 0 0 0 0];

internalField   nonuniform List<vector> 
344
(
(3.00875 -0.0194111 1.01982e-15)
(3.06461 -0.0176077 1.05483e-15)
(3.11477 -0.0156782 1.03895e-15)
(3.15897 -0.0137116 1.13008e-15)
(3.19724 -0.0117793 1.16528e-15)
(3.00618 -0.0453538 2.66018e-15)
(3.06227 -0.0411076 2.60208e-15)
(3.11252 -0.0365749 2.75294e-15)
(3.15672 -0.0319638 2.926e-15)
(3.19489 -0.0274394 2.94928e-15)
(3.05717 -0.0671227 5.60276e-15)
(3.10762 -0.0595973 5.46178e-15)
(3.15178 -0.0519718 5.25248e-15)
(3.18973 -0.0445151 5.15813e-15)
(3.04952 -0.0937671 6.78696e-15)
(3.10022 -0.0829767 6.59269e-15)
(3.14428 -0.0721065 6.37281e-15)
(3.18186 -0.0615322 6.18344e-15)
(3.03943 -0.120906 6.56133e-15)
(3.09041 -0.106496 6.38849e-15)
(3.13424 -0.0920936 6.19819e-15)
(3.17123 -0.0781807 6.04033e-15)
(3.22953 -0.00994998 1.25736e-15)
(3.25633 -0.00825763 1.09688e-15)
(3.27832 -0.00671131 1.74383e-15)
(3.29595 -0.00532251 1.39978e-15)
(3.30971 -0.00409302 1.46996e-15)
(3.32006 -0.0030171 1.11275e-15)
(3.32745 -0.0020841 1.83317e-15)
(3.33228 -0.00128055 1.39579e-15)
(3.33493 -0.000592441 1.42189e-15)
(3.3357 -5.4064e-06 1.07124e-15)
(3.33489 0.000493389 1.87132e-15)
(3.33272 0.000915846 1.2155e-15)
(3.32941 0.00127254 1.33855e-15)
(3.32515 0.00157282 7.54791e-16)
(3.32007 0.00182482 1.63732e-15)
(3.31432 0.00203553 1.17479e-15)
(3.308 0.00221087 1.15649e-15)
(3.30121 0.00235591 7.5095e-16)
(3.29404 0.00247499 1.4318e-15)
(3.28655 0.0025718 1.21814e-15)
(3.2788 0.00264949 9.16742e-16)
(3.27086 0.00271079 7.85444e-16)
(3.26275 0.00275802 5.97871e-16)
(3.25452 0.00279319 1.16933e-15)
(3.2462 0.00281803 8.01564e-16)
(3.23783 0.00283406 7.84168e-16)
(3.22942 0.00284258 5.29344e-16)
(3.22099 0.00284472 1.04255e-15)
(3.21256 0.00284147 7.01465e-16)
(3.20415 0.0028337 6.68194e-16)
(3.19577 0.00282215 4.69291e-16)
(3.18742 0.00280748 8.21241e-16)
(3.17913 0.00279025 5.78026e-16)
(3.17088 0.00277097 4.65425e-16)
(3.1627 0.00275007 3.70678e-16)
(3.15457 0.00272792 6.32939e-16)
(3.14652 0.00270484 4.36116e-16)
(3.13853 0.00268111 4.00236e-16)
(3.13061 0.00265699 2.9754e-16)
(3.12276 0.00263267 5.03517e-16)
(3.11499 0.00260833 3.88426e-16)
(3.10728 0.00258412 3.03877e-16)
(3.09965 0.00256017 2.21396e-16)
(3.09209 0.00253658 3.25154e-16)
(3.08459 0.00251344 2.69683e-16)
(3.07716 0.00249082 2.20596e-16)
(3.0698 0.00246877 1.98213e-16)
(3.0625 0.00244735 1.8248e-16)
(3.05526 0.00242658 1.76602e-16)
(3.04809 0.0024065 1.62981e-16)
(3.04097 0.0023871 1.33753e-16)
(3.03391 0.00236841 1.38572e-16)
(3.0269 0.00235042 6.95025e-17)
(3.01994 0.00233314 1.02375e-16)
(3.01304 0.00231655 8.20715e-17)
(3.00618 0.00230065 1.10944e-16)
(2.99937 0.00228542 -9.58978e-18)
(2.9926 0.00227084 2.88834e-17)
(2.98587 0.00225689 2.66205e-17)
(2.97919 0.00224356 7.32706e-17)
(2.97254 0.00223082 -5.64748e-17)
(2.96594 0.00221865 3.7829e-18)
(2.95936 0.00220702 -7.55573e-19)
(2.95282 0.00219591 4.91127e-18)
(2.94632 0.00218529 -9.96761e-18)
(3.22703 -0.0231616 3.16495e-15)
(3.25364 -0.0192082 3.07324e-15)
(3.27541 -0.0155994 3.08694e-15)
(3.29282 -0.0123613 2.9185e-15)
(3.30635 -0.00949677 3.18555e-15)
(3.31649 -0.0069915 3.0247e-15)
(3.32368 -0.00481979 2.96068e-15)
(3.32834 -0.00294974 2.69559e-15)
(3.33082 -0.00134842 3.03342e-15)
(3.33145 1.78158e-05 2.6822e-15)
(3.33051 0.00117837 2.60667e-15)
(3.32823 0.00216109 2.42992e-15)
(3.32482 0.002991 2.63035e-15)
(3.32046 0.00368998 2.35162e-15)
(3.3153 0.00427686 2.30534e-15)
(3.30946 0.00476776 2.07046e-15)
(3.30307 0.00517648 2.27868e-15)
(3.29621 0.0055148 2.05733e-15)
(3.28897 0.00579279 1.97229e-15)
(3.28141 0.00601903 1.87226e-15)
(3.27359 0.00620086 1.69247e-15)
(3.26557 0.0063446 1.90448e-15)
(3.25739 0.00645565 1.68874e-15)
(3.24909 0.00653868 1.61512e-15)
(3.24069 0.00659772 1.41805e-15)
(3.23224 0.00663627 1.59831e-15)
(3.22374 0.00665737 1.45124e-15)
(3.21523 0.00666363 1.38938e-15)
(3.20671 0.00665736 1.25649e-15)
(3.1982 0.00664054 1.38024e-15)
(3.18972 0.00661493 1.21534e-15)
(3.18127 0.00658203 1.16646e-15)
(3.17287 0.00654316 1.0323e-15)
(3.16452 0.00649948 1.12513e-15)
(3.15622 0.00645197 1.03673e-15)
(3.14797 0.00640151 9.76064e-16)
(3.1398 0.00634885 9.02575e-16)
(3.13168 0.00629464 9.61251e-16)
(3.12364 0.00623942 8.67907e-16)
(3.11566 0.00618369 8.19548e-16)
(3.10775 0.00612785 7.54522e-16)
(3.09991 0.00607224 7.72342e-16)
(3.09214 0.00601716 7.11121e-16)
(3.08443 0.00596285 6.79749e-16)
(3.07679 0.00590951 6.45828e-16)
(3.06922 0.00585731 6.02919e-16)
(3.06171 0.00580638 5.95709e-16)
(3.05426 0.00575682 5.65088e-16)
(3.04688 0.00570871 5.33544e-16)
(3.03955 0.00566211 5.08942e-16)
(3.03228 0.00561706 4.7669e-16)
(3.02507 0.00557357 4.56878e-16)
(3.01791 0.00553166 4.29888e-16)
(3.0108 0.00549132 4.25038e-16)
(3.00375 0.00545254 3.72595e-16)
(2.99674 0.00541529 3.74778e-16)
(2.98978 0.00537954 3.48848e-16)
(2.98286 0.00534526 3.51497e-16)
(2.97599 0.0053124 2.88279e-16)
(2.96916 0.00528092 2.94263e-16)
(2.96237 0.00525076 2.82927e-16)
(2.95562 0.00522189 2.99277e-16)
(2.9489 0.00519423 2.01613e-16)
(2.94223 0.00516774 2.48001e-16)
(2.93558 0.00514237 1.63168e-16)
(3.22151 -0.0374869 4.90295e-15)
(3.24769 -0.0310106 4.86925e-15)
(3.26898 -0.0251158 4.54274e-15)
(3.28588 -0.019841 4.54058e-15)
(3.29891 -0.0151867 4.20813e-15)
(3.30858 -0.0111249 4.268e-15)
(3.31533 -0.00761003 3.94469e-15)
(3.31959 -0.00458737 3.95421e-15)
(3.32171 -0.00200152 3.61584e-15)
(3.32202 0.00020357 3.63387e-15)
(3.32079 0.00207549 3.26487e-15)
(3.31825 0.00365989 3.33077e-15)
(3.3146 0.00499808 2.98198e-15)
(3.31002 0.00612577 3.08726e-15)
(3.30466 0.00707336 2.77461e-15)
(3.29863 0.00786678 2.81194e-15)
(3.29205 0.00852823 2.54986e-15)
(3.28502 0.00907668 2.63548e-15)
(3.2776 0.00952828 2.39512e-15)
(3.26986 0.00989684 2.36101e-15)
(3.26187 0.0101941 2.38215e-15)
(3.25367 0.0104303 2.1398e-15)
(3.24531 0.0106139 2.17795e-15)
(3.23682 0.0107526 1.92034e-15)
(3.22823 0.0108527 1.96121e-15)
(3.21958 0.0109199 1.76931e-15)
(3.21087 0.0109589 1.83901e-15)
(3.20214 0.0109741 1.64585e-15)
(3.1934 0.0109691 1.69063e-15)
(3.18466 0.010947 1.53837e-15)
(3.17594 0.0109106 1.57605e-15)
(3.16725 0.0108623 1.41199e-15)
(3.15859 0.0108043 1.46154e-15)
(3.14997 0.0107384 1.33076e-15)
(3.1414 0.0106661 1.37089e-15)
(3.13288 0.0105888 1.25107e-15)
(3.12442 0.0105077 1.25231e-15)
(3.11601 0.0104239 1.16266e-15)
(3.10767 0.0103382 1.17103e-15)
(3.09939 0.0102514 1.07361e-15)
(3.09117 0.0101641 1.07312e-15)
(3.08302 0.0100769 1.01025e-15)
(3.07493 0.00999022 1.00383e-15)
(3.0669 0.0099045 9.55951e-16)
(3.05894 0.00982005 9.31533e-16)
(3.05104 0.00973712 9.11843e-16)
(3.0432 0.00965594 8.74076e-16)
(3.03542 0.00957667 8.50983e-16)
(3.02771 0.00949945 8.1461e-16)
(3.02005 0.00942436 7.8583e-16)
(3.01245 0.00935149 7.60424e-16)
(3.00491 0.00928087 7.28349e-16)
(2.99742 0.00921252 7.14093e-16)
(2.98998 0.00914645 6.82421e-16)
(2.9826 0.00908264 6.77404e-16)
(2.97527 0.00902106 6.34522e-16)
(2.96798 0.00896168 6.41112e-16)
(2.96075 0.00890444 5.96118e-16)
(2.95356 0.00884929 6.05367e-16)
(2.94641 0.00879616 5.52983e-16)
(2.93931 0.00874499 5.75383e-16)
(2.93226 0.00869571 5.33965e-16)
(2.92524 0.00864823 5.5278e-16)
(2.91827 0.00860248 5.07618e-16)
(2.91133 0.00855838 5.27359e-16)
(3.21306 -0.0516137 5.97439e-15)
(3.23854 -0.0425166 5.80086e-15)
(3.25905 -0.0342743 5.58301e-15)
(3.27516 -0.0269321 5.43435e-15)
(3.28741 -0.0204805 5.22072e-15)
(3.29634 -0.0148702 5.04852e-15)
(3.30241 -0.0100293 4.88917e-15)
(3.30604 -0.00587571 4.77565e-15)
(3.3076 -0.00232864 4.50698e-15)
(3.30739 0.000693156 4.34486e-15)
(3.30569 0.00325698 4.11976e-15)
(3.30272 0.00542658 4.02807e-15)
(3.29868 0.00725974 3.85417e-15)
(3.29373 0.00880591 3.70865e-15)
(3.28802 0.0101068 3.5327e-15)
(3.28166 0.011198 3.44474e-15)
(3.27476 0.0121098 3.30048e-15)
(3.2674 0.012868 3.16201e-15)
(3.25966 0.0134945 3.046e-15)
(3.2516 0.0140082 2.92301e-15)
(3.24328 0.0144249 2.85427e-15)
(3.23475 0.0147584 2.71353e-15)
(3.22605 0.0150204 2.61395e-15)
(3.21721 0.0152211 2.49028e-15)
(3.20826 0.0153691 2.41902e-15)
(3.19923 0.015472 2.31213e-15)
(3.19015 0.0155364 2.25165e-15)
(3.18103 0.0155679 2.1537e-15)
(3.17189 0.0155716 2.08048e-15)
(3.16274 0.0155515 1.98569e-15)
(3.15359 0.0155116 1.93732e-15)
(3.14447 0.015455 1.84949e-15)
(3.13537 0.0153846 1.80503e-15)
(3.1263 0.0153028 1.7189e-15)
(3.11727 0.0152117 1.66652e-15)
(3.10828 0.0151132 1.60313e-15)
(3.09934 0.015009 1.5499e-15)
(3.09045 0.0149003 1.48967e-15)
(3.08162 0.0147884 1.43707e-15)
(3.07285 0.0146743 1.37532e-15)
(3.06414 0.014559 1.33047e-15)
(3.05548 0.014443 1.28433e-15)
(3.04689 0.0143272 1.23825e-15)
(3.03836 0.0142119 1.19717e-15)
(3.02989 0.0140977 1.15591e-15)
(3.02148 0.013985 1.12053e-15)
(3.01314 0.013874 1.08223e-15)
(3.00486 0.0137651 1.04391e-15)
(2.99663 0.0136583 1.00618e-15)
(2.98847 0.0135538 9.69565e-16)
(2.98037 0.0134519 9.35912e-16)
(2.97233 0.0133524 9.02263e-16)
(2.96435 0.0132556 8.74408e-16)
(2.95643 0.0131613 8.42152e-16)
(2.94856 0.0130697 8.19678e-16)
(2.94075 0.0129807 7.88608e-16)
(2.933 0.0128943 7.69405e-16)
(2.9253 0.0128104 7.37708e-16)
(2.91765 0.0127289 7.23638e-16)
(2.91005 0.0126499 6.9644e-16)
(2.90251 0.0125732 6.82618e-16)
(2.89501 0.0124988 6.56758e-16)
(2.88757 0.0124265 6.50904e-16)
(2.88017 0.0123564 6.20187e-16)
(2.87283 0.0122882 6.12775e-16)
(3.20159 -0.0652155 5.79551e-15)
(3.22605 -0.0533987 5.65851e-15)
(3.24545 -0.0427598 5.45894e-15)
(3.26043 -0.0333412 5.37586e-15)
(3.27157 -0.0251116 5.07831e-15)
(3.27945 -0.0179891 4.97792e-15)
(3.28455 -0.0118656 4.77038e-15)
(3.28729 -0.00662612 4.71962e-15)
(3.28803 -0.00216096 4.41805e-15)
(3.28707 0.00163845 4.29633e-15)
(3.28467 0.00486055 4.11822e-15)
(3.28105 0.00758852 4.09305e-15)
(3.27639 0.00989617 3.81781e-15)
(3.27086 0.0118458 3.71586e-15)
(3.26457 0.0134898 3.57216e-15)
(3.25766 0.0148726 3.51237e-15)
(3.2502 0.0160322 3.26827e-15)
(3.24229 0.0170005 3.1742e-15)
(3.234 0.0178048 3.09731e-15)
(3.22539 0.0184682 2.96346e-15)
(3.2165 0.0190106 2.91091e-15)
(3.2074 0.0194487 2.70788e-15)
(3.19811 0.0197971 2.62235e-15)
(3.18868 0.0200684 2.53097e-15)
(3.17913 0.0202732 2.47975e-15)
(3.16949 0.0204209 2.31608e-15)
(3.15978 0.0205196 2.25504e-15)
(3.15002 0.0205762 2.17606e-15)
(3.14023 0.0205969 2.14787e-15)
(3.13043 0.020587 2.0035e-15)
(3.12062 0.0205511 1.96723e-15)
(3.11082 0.0204931 1.8949e-15)
(3.10104 0.0204166 1.8653e-15)
(3.09128 0.0203247 1.7512e-15)
(3.08156 0.02022 1.7043e-15)
(3.07189 0.0201047 1.64996e-15)
(3.06225 0.019981 1.61609e-15)
(3.05267 0.0198505 1.51629e-15)
(3.04314 0.0197148 1.4729e-15)
(3.03367 0.0195751 1.42183e-15)
(3.02425 0.0194325 1.3856e-15)
(3.0149 0.0192882 1.321e-15)
(3.00562 0.0191427 1.28048e-15)
(2.99639 0.018997 1.24222e-15)
(2.98724 0.0188515 1.20212e-15)
(2.97815 0.0187069 1.16736e-15)
(2.96913 0.0185634 1.11801e-15)
(2.96018 0.0184214 1.08145e-15)
(2.9513 0.0182813 1.04476e-15)
(2.94249 0.0181433 1.00867e-15)
(2.93375 0.0180076 9.76377e-16)
(2.92507 0.0178742 9.4367e-16)
(2.91646 0.0177433 9.13908e-16)
(2.90792 0.0176151 8.78511e-16)
(2.89945 0.0174894 8.63298e-16)
(2.89104 0.0173664 8.30963e-16)
(2.8827 0.017246 8.05424e-16)
(2.87443 0.0171283 7.73117e-16)
(2.86622 0.0170132 7.70058e-16)
(2.85807 0.0169006 7.39453e-16)
(2.84999 0.0167906 7.21853e-16)
(2.84198 0.016683 6.84042e-16)
)
;

boundaryField
{
    inlet
    {
        type            uniformFixedValue;
        uniformValue    constant (1 0 0);
        value           nonuniform 0();
    }
    outlet
    {
        type            pressureInletOutletVelocity;
        value           nonuniform 0();
    }
    wall
    {
        type            fixedValue;
        value           nonuniform 0();
    }
    wedge1
    {
        type            wedge;
    }
    wedge2
    {
        type            wedge;
    }
    axis
    {
        type            empty;
    }
    procBoundary3to2
    {
        type            processor;
        value           nonuniform List<vector> 5((2.94772 -0.0209892 9.68009e-16) (2.9448 -0.0490783 2.52019e-15) (3.00061 -0.0742025 5.73203e-15) (3.00061 -0.0742025 5.73203e-15) (2.99226 -0.103983 7.03953e-15));
    }
    procBoundary3to4
    {
        type            processor;
        value           nonuniform List<vector> 4((2.93984 0.00217514 7.71892e-18) (2.92897 0.00511805 2.07862e-16) (2.90443 0.00851584 4.70167e-16) (2.86553 0.012222 5.98148e-16));
    }
    procBoundary3to8
    {
        type            processor;
        value           uniform (2.98127 -0.134671 6.75919e-15);
    }
    procBoundary3to9
    {
        type            processor;
        value           nonuniform List<vector> 
70
(
(3.0271 -0.148529 5.41851e-15)
(3.07829 -0.130032 5.26697e-15)
(3.1217 -0.111728 5.14331e-15)
(3.15779 -0.0942 4.96449e-15)
(2.83402 0.0165778 6.96317e-16)
(2.82613 0.0164748 6.58219e-16)
(2.81829 0.0163741 6.70545e-16)
(3.18692 -0.0779976 4.86244e-15)
(3.20994 -0.0633466 4.73094e-15)
(3.2278 -0.0502614 4.61821e-15)
(3.24119 -0.0387684 4.49972e-15)
(3.2508 -0.0287972 4.38396e-15)
(3.25722 -0.0202164 4.20786e-15)
(3.26096 -0.0128693 4.09603e-15)
(3.26243 -0.00660255 3.99114e-15)
(3.26199 -0.00126282 3.88708e-15)
(3.25993 0.00326726 3.71856e-15)
(3.25647 0.00710739 3.61144e-15)
(3.25184 0.0103637 3.49597e-15)
(3.24622 0.0131247 3.39145e-15)
(3.23974 0.0154635 3.26e-15)
(3.23253 0.0174421 3.17319e-15)
(3.22469 0.0191128 3.04357e-15)
(3.21633 0.0205201 2.94692e-15)
(3.20751 0.0217013 2.82073e-15)
(3.1983 0.0226882 2.73709e-15)
(3.18877 0.0235077 2.6338e-15)
(3.17897 0.0241828 2.5441e-15)
(3.16894 0.0247333 2.44168e-15)
(3.15872 0.0251759 2.33312e-15)
(3.14835 0.0255254 2.23898e-15)
(3.13786 0.0257943 2.15826e-15)
(3.12727 0.0259935 2.09483e-15)
(3.11661 0.0261324 2.0061e-15)
(3.1059 0.0262194 1.94072e-15)
(3.09516 0.0262616 1.88579e-15)
(3.0844 0.0262653 1.81209e-15)
(3.07364 0.0262359 1.74564e-15)
(3.0629 0.0261782 1.69381e-15)
(3.05217 0.0260963 1.64424e-15)
(3.04148 0.025994 1.59075e-15)
(3.03082 0.0258744 1.52776e-15)
(3.02021 0.0257404 1.4769e-15)
(3.00966 0.0255942 1.42984e-15)
(2.99916 0.0254382 1.37827e-15)
(2.98873 0.0252741 1.32065e-15)
(2.97837 0.0251036 1.28045e-15)
(2.96808 0.024928 1.23876e-15)
(2.95786 0.0247487 1.19447e-15)
(2.94772 0.0245666 1.15062e-15)
(2.93765 0.0243826 1.11592e-15)
(2.92767 0.0241977 1.08004e-15)
(2.91777 0.0240123 1.04519e-15)
(2.90796 0.0238272 1.00773e-15)
(2.89822 0.0236428 9.72373e-16)
(2.88857 0.0234595 9.38124e-16)
(2.87901 0.0232776 9.07633e-16)
(2.86953 0.0230976 8.76874e-16)
(2.86014 0.0229195 8.50114e-16)
(2.85083 0.0227436 8.22036e-16)
(2.8416 0.02257 7.96176e-16)
(2.83246 0.0223989 7.70659e-16)
(2.82341 0.0222303 7.50022e-16)
(2.81444 0.0220643 7.27512e-16)
(2.80555 0.0219009 7.04523e-16)
(2.79674 0.0217401 6.85646e-16)
(2.78802 0.021582 6.67716e-16)
(2.77938 0.0214265 6.49023e-16)
(2.83402 0.0165778 6.96317e-16)
(2.77081 0.0212736 6.28019e-16)
)
;
    }
}


// ************************************************************************* //
