2 	-3.93236 	-1.24028e-18 	1.10356 	0.00122675 	0
2 	-3.79943 	-3.9291e-18 	1.10399 	0.00367243 	0
2 	-3.67115 	-4.53626e-18 	1.10481 	0.00610169 	0
2 	-3.54734 	-6.87813e-18 	1.10598 	0.00856338 	0
2 	-3.42786 	-8.61286e-18 	1.10747 	0.0110885 	0
2 	-3.31256 	-9.9139e-18 	1.10924 	0.0137058 	0
2 	-3.20128 	-1.19088e-17 	1.11127 	0.0164396 	0
2 	-3.09388 	-1.32966e-17 	1.11354 	0.0193098 	0
2 	-2.99024 	-1.52915e-17 	1.11601 	0.0223335 	0
2 	-2.89021 	-1.72865e-17 	1.11867 	0.0255251 	0
2 	-2.79368 	-1.79804e-17 	1.1215 	0.0288965 	0
2 	-2.70052 	-1.79804e-17 	1.12447 	0.0324578 	0
2 	-2.61061 	-2.12763e-17 	1.12758 	0.036217 	0
2 	-2.52385 	-2.39652e-17 	1.1308 	0.0401809 	0
2 	-2.44011 	-2.70877e-17 	1.13411 	0.0443543 	0
2 	-2.35929 	-3.15112e-17 	1.13751 	0.0487412 	0
2 	-2.2813 	-3.22051e-17 	1.14097 	0.053344 	0
2 	-2.20604 	-3.22051e-17 	1.1445 	0.0581644 	0
2 	-2.1334 	-3.42e-17 	1.14806 	0.0632031 	0
2 	-2.06329 	-3.6195e-17 	1.15166 	0.0684602 	0
2 	-1.99564 	-3.6195e-17 	1.15528 	0.0739354 	0
2 	-1.93035 	-3.6195e-17 	1.15893 	0.0796283 	0
2 	-1.86734 	-3.6195e-17 	1.1626 	0.0855386 	0
2 	-1.80652 	-3.55878e-17 	1.16628 	0.0916658 	0
2 	-1.74784 	-3.49807e-17 	1.16996 	0.0980093 	0
2 	-1.6912 	-3.56745e-17 	1.17364 	0.104567 	0
2 	-1.63654 	-3.70623e-17 	1.17729 	0.111337 	0
2 	-1.58379 	-3.84501e-17 	1.18089 	0.118314 	0
2 	-1.53288 	-3.9144e-17 	1.18442 	0.125492 	0
2 	-1.48375 	-3.9144e-17 	1.18786 	0.132863 	0
2 	-1.43633 	-3.98379e-17 	1.19118 	0.14042 	0
2 	-1.39057 	-4.05318e-17 	1.19436 	0.148154 	0
2 	-1.34641 	-4.25267e-17 	1.19739 	0.156058 	0
2 	-1.30379 	-4.52155e-17 	1.20022 	0.16412 	0
2 	-1.26266 	-4.59094e-17 	1.20281 	0.17233 	0
2 	-1.22296 	-4.48686e-17 	1.20507 	0.180681 	0
2 	-1.18466 	-4.38277e-17 	1.20685 	0.189179 	0
2 	-1.14768 	-4.38277e-17 	1.2079 	0.197714 	0
2 	-1.112 	-4.38277e-17 	1.20784 	0.20585 	0
2 	-1.07757 	-4.38277e-17 	1.20596 	0.214408 	0
2 	-1.03863 	-4.20514e-17 	1.19907 	0.235569 	1.0231e-20
2 	-1.01586 	-3.9958e-17 	1.18851 	0.252326 	-9.14283e-20
2 	-0.993217 	-4.09841e-17 	1.21644 	0.246058 	-6.79139e-20
2 	-0.948059 	-4.40032e-17 	1.20337 	0.26235 	-6.00075e-20
2 	-0.900995 	-4.85292e-17 	1.18517 	0.279395 	4.00715e-20
2 	-0.876272 	-5.07208e-17 	1.16025 	0.295611 	6.70173e-21
2 	-0.851886 	-4.48071e-17 	1.18393 	0.2889 	5.79309e-20
2 	-0.803473 	-3.76615e-17 	1.14722 	0.304434 	-2.36441e-20
2 	-0.753096 	-3.74524e-17 	1.09946 	0.317282 	-1.20531e-20
2 	-0.71814 	-3.83767e-17 	1.0397 	0.3265 	-5.7967e-20
2 	-0.692197 	-3.7545e-17 	1.04546 	0.315433 	1.15617e-19
2 	-0.649352 	-3.747e-17 	0.966209 	0.320241 	-2.74978e-20
2 	-0.596093 	-3.59978e-17 	0.874458 	0.319799 	-6.47847e-20
2 	-0.541991 	-3.50827e-17 	0.771411 	0.313737 	8.90732e-20
2 	-0.502352 	-3.52256e-17 	0.658639 	0.301958 	-3.74179e-20
2 	-0.474727 	-3.50998e-17 	0.633252 	0.284643 	7.54248e-20
2 	-0.431525 	-3.67761e-17 	0.506127 	0.268102 	4.87149e-20
2 	-0.375304 	-3.95517e-17 	0.373381 	0.246407 	3.85219e-20
2 	-0.318526 	-3.87104e-17 	0.237872 	0.219611 	5.30843e-21
2 	-0.261272 	-3.63218e-17 	0.103787 	0.188127 	2.97389e-20
2 	-0.203624 	-3.69048e-17 	-0.0231118 	0.151753 	9.0947e-22
2 	-0.145668 	-3.87722e-17 	-0.133601 	0.111159 	-3.4186e-20
2 	-0.0874897 	-3.70676e-17 	-0.217221 	0.0679062 	-5.34216e-22
2 	-0.0291781 	-3.87305e-17 	-0.262748 	0.0228478 	-2.47964e-21
2 	0.0291781 	-4.8098e-17 	-0.262748 	-0.0228481 	2.59378e-21
2 	0.0874897 	-4.85168e-17 	-0.21722 	-0.0679066 	1.26479e-22
2 	0.145668 	-4.38029e-17 	-0.1336 	-0.111159 	3.47792e-20
2 	0.203624 	-4.08946e-17 	-0.023111 	-0.151753 	-5.11204e-23
2 	0.261272 	-4.15259e-17 	0.103788 	-0.188128 	-3.44351e-20
2 	0.318526 	-4.21799e-17 	0.237873 	-0.219611 	-4.6625e-21
2 	0.375304 	-3.7817e-17 	0.373381 	-0.246408 	-3.59201e-20
2 	0.431525 	-3.46945e-17 	0.506128 	-0.268102 	-4.40988e-20
2 	0.474727 	-3.39422e-17 	0.633253 	-0.284644 	-7.66102e-20
2 	0.502352 	-3.37209e-17 	0.658639 	-0.301959 	3.40977e-20
2 	0.541991 	-3.71644e-17 	0.771412 	-0.313737 	-8.99925e-20
2 	0.596093 	-4.32836e-17 	0.874458 	-0.3198 	6.26148e-20
2 	0.649352 	-4.85723e-17 	0.966209 	-0.320241 	2.44409e-20
2 	0.692197 	-5.188e-17 	1.04546 	-0.315433 	4.55221e-20
2 	0.71814 	-5.30587e-17 	1.03971 	-0.3265 	6.59953e-20
2 	0.753096 	-5.38455e-17 	1.09946 	-0.317283 	3.0949e-21
2 	0.803473 	-5.30138e-17 	1.14722 	-0.304434 	2.76465e-20
2 	0.851886 	-5.30313e-17 	1.18393 	-0.2889 	-6.24318e-20
2 	0.876272 	-5.3047e-17 	1.16025 	-0.295611 	-7.84525e-21
2 	0.900995 	-5.11313e-17 	1.18517 	-0.279395 	-4.06541e-20
2 	0.948059 	-5.04217e-17 	1.20337 	-0.26235 	5.75905e-20
2 	0.993217 	-5.19971e-17 	1.21644 	-0.246058 	-6.38352e-20
2 	1.01586 	-5.37466e-17 	1.18851 	-0.252326 	9.07961e-20
2 	1.03863 	-5.34138e-17 	1.19907 	-0.235569 	-9.01796e-21
2 	1.07757 	-5.19809e-17 	1.20596 	-0.214408 	0
2 	1.112 	-5.19809e-17 	1.20784 	-0.205851 	0
2 	1.14768 	-5.19809e-17 	1.2079 	-0.197714 	0
2 	1.18466 	-5.19809e-17 	1.20685 	-0.189179 	0
2 	1.22296 	-5.19809e-17 	1.20507 	-0.180681 	0
2 	1.26266 	-5.06799e-17 	1.20281 	-0.17233 	0
2 	1.30379 	-4.87717e-17 	1.20022 	-0.16412 	0
2 	1.34641 	-4.88584e-17 	1.19739 	-0.156058 	0
2 	1.39057 	-4.95523e-17 	1.19436 	-0.148155 	0
2 	1.43633 	-5.02462e-17 	1.19118 	-0.14042 	0
2 	1.48375 	-5.09401e-17 	1.18786 	-0.132863 	0
2 	1.53288 	-5.22412e-17 	1.18442 	-0.125492 	0
2 	1.58379 	-5.2935e-17 	1.18089 	-0.118314 	0
2 	1.63654 	-5.30218e-17 	1.17729 	-0.111337 	0
2 	1.6912 	-5.57106e-17 	1.17364 	-0.104567 	0
2 	1.74784 	-5.77055e-17 	1.16996 	-0.0980094 	0
2 	1.80652 	-5.83994e-17 	1.16628 	-0.0916659 	0
2 	1.86734 	-5.77923e-17 	1.1626 	-0.0855386 	0
2 	1.93035 	-5.64912e-17 	1.15893 	-0.0796284 	0
2 	1.99564 	-5.64912e-17 	1.15528 	-0.0739355 	0
2 	2.06329 	-5.47565e-17 	1.15166 	-0.0684603 	0
2 	2.1334 	-5.30218e-17 	1.14806 	-0.0632032 	0
2 	2.20604 	-5.17207e-17 	1.1445 	-0.0581645 	0
2 	2.2813 	-5.04197e-17 	1.14097 	-0.0533441 	0
2 	2.35929 	-5.04197e-17 	1.13751 	-0.0487412 	0
2 	2.44011 	-5.04197e-17 	1.13411 	-0.0443543 	0
2 	2.52385 	-5.17207e-17 	1.1308 	-0.0401809 	0
2 	2.61061 	-5.17207e-17 	1.12758 	-0.0362171 	0
2 	2.70052 	-5.04197e-17 	1.12447 	-0.0324578 	0
2 	2.79368 	-5.04197e-17 	1.1215 	-0.0288965 	0
2 	2.89021 	-5.11136e-17 	1.11867 	-0.0255251 	0
2 	2.99024 	-5.12003e-17 	1.11601 	-0.0223335 	0
2 	3.09388 	-5.05932e-17 	1.11354 	-0.0193098 	0
2 	3.20128 	-5.05932e-17 	1.11127 	-0.0164396 	0
2 	3.31256 	-5.05932e-17 	1.10924 	-0.0137059 	0
2 	3.42786 	-5.05932e-17 	1.10747 	-0.0110885 	0
2 	3.54734 	-5.12871e-17 	1.10598 	-0.00856339 	0
2 	3.67115 	-5.26748e-17 	1.10481 	-0.0061017 	0
2 	3.79943 	-5.33687e-17 	1.10399 	-0.00367243 	0
2 	3.93236 	-5.3603e-17 	1.10356 	-0.00122675 	0
