/*--------------------------------*- C++ -*----------------------------------*\
  =========                 |
  \\      /  F ield         | OpenFOAM: The Open Source CFD Toolbox
   \\    /   O peration     | Website:  https://openfoam.org
    \\  /    A nd           | Version:  7
     \\/     M anipulation  |
\*---------------------------------------------------------------------------*/
FoamFile
{
    version     2.0;
    format      ascii;
    class       volVectorField;
    location    "3";
    object      U;
}
// * * * * * * * * * * * * * * * * * * * * * * * * * * * * * * * * * * * * * //

dimensions      [0 1 -1 0 0 0 0];

internalField   nonuniform List<vector> 
344
(
(1.60434 -0.00189524 -5.6699e-15)
(1.60989 -0.00186706 -4.63287e-15)
(1.61535 -0.00183936 -4.30032e-15)
(1.62073 -0.00181213 -4.14158e-15)
(1.62603 -0.00178533 -4.89233e-15)
(1.63126 -0.00175898 -4.64305e-15)
(1.6364 -0.00173304 -4.01895e-15)
(1.64147 -0.00170752 -5.00352e-15)
(1.64647 -0.0016824 -5.34572e-15)
(1.65139 -0.00165767 -4.24943e-15)
(1.65624 -0.00163333 -4.33186e-15)
(1.66102 -0.00160936 -5.14106e-15)
(1.66573 -0.00158576 -4.88279e-15)
(1.67036 -0.00156252 -4.39924e-15)
(1.67493 -0.00153963 -2.82009e-15)
(1.67944 -0.00151709 -2.91382e-15)
(1.68387 -0.00149489 -3.41598e-15)
(1.68824 -0.00147302 -3.70652e-15)
(1.69255 -0.00145148 -4.0628e-15)
(1.6968 -0.00143027 -4.29018e-15)
(1.70098 -0.00140938 -4.03933e-15)
(1.7051 -0.0013888 -4.00419e-15)
(1.70916 -0.00136853 -5.13389e-15)
(1.71316 -0.00134857 -4.59008e-15)
(1.7171 -0.00132891 -4.2324e-15)
(1.72099 -0.00130954 -5.36441e-15)
(1.72482 -0.00129046 -4.09826e-15)
(1.72859 -0.00127167 -4.35337e-15)
(1.73231 -0.00125316 -4.88722e-15)
(1.73597 -0.00123494 -4.0972e-15)
(1.73958 -0.00121698 -3.38188e-15)
(1.74314 -0.0011993 -3.83063e-15)
(1.74664 -0.00118188 -4.24438e-15)
(1.7501 -0.00116473 -3.93742e-15)
(1.7535 -0.00114784 -3.48968e-15)
(1.75686 -0.0011312 -3.22859e-15)
(1.76016 -0.00111481 -3.02757e-15)
(1.76342 -0.00109867 -2.84907e-15)
(1.76663 -0.00108278 -2.6182e-15)
(1.7698 -0.00106713 -2.79194e-15)
(1.77291 -0.00105171 -2.86441e-15)
(1.77599 -0.00103653 -2.15624e-15)
(1.77902 -0.00102158 -2.13959e-15)
(1.782 -0.00100686 -1.78751e-15)
(1.78494 -0.000992361 -2.17407e-15)
(1.78784 -0.000978085 -1.59519e-15)
(1.7907 -0.000964027 -1.42407e-15)
(1.79352 -0.000950184 -1.79042e-15)
(1.7963 -0.000936554 -1.0718e-15)
(1.79903 -0.000923133 -1.56076e-15)
(1.80173 -0.000909919 -8.63118e-16)
(1.80439 -0.00089691 -1.63775e-15)
(1.80701 -0.000884102 -1.2087e-15)
(1.80959 -0.000871494 -1.3718e-15)
(1.81214 -0.000859083 -1.28096e-15)
(1.81465 -0.000846868 -2.16894e-15)
(1.81712 -0.000834846 -1.218e-15)
(1.81956 -0.000823017 -1.69819e-15)
(1.82197 -0.000811379 -1.2333e-15)
(1.82434 -0.000799931 -1.25949e-15)
(1.82668 -0.000788672 -5.62221e-16)
(1.82898 -0.000777603 -1.187e-15)
(1.83125 -0.000766723 -5.18737e-16)
(1.83349 -0.000756034 -1.45309e-15)
(1.8357 -0.000745537 -6.6047e-16)
(1.83788 -0.000735235 -1.09413e-15)
(1.84003 -0.000725131 8.35288e-17)
(1.60444 -0.00440713 -1.48638e-14)
(1.60993 -0.00434118 -8.32353e-15)
(1.61535 -0.00427636 -1.0285e-14)
(1.62068 -0.00421263 -1.11991e-14)
(1.62593 -0.00414996 -1.19534e-14)
(1.6311 -0.00408832 -9.49126e-15)
(1.6362 -0.00402768 -1.07088e-14)
(1.64121 -0.00396802 -1.12191e-14)
(1.64616 -0.00390931 -1.20043e-14)
(1.65102 -0.00385153 -8.86007e-15)
(1.65582 -0.00379465 -9.91709e-15)
(1.66054 -0.00373867 -1.06375e-14)
(1.6652 -0.00368355 -1.11027e-14)
(1.66978 -0.00362929 -8.86383e-15)
(1.6743 -0.00357586 -6.22416e-15)
(1.67875 -0.00352325 -7.40293e-15)
(1.68313 -0.00347145 -8.69033e-15)
(1.68745 -0.00342044 -9.09879e-15)
(1.6917 -0.00337021 -9.62761e-15)
(1.69589 -0.00332074 -1.0099e-14)
(1.70002 -0.00327203 -1.0544e-14)
(1.70409 -0.00322405 -1.10319e-14)
(1.70809 -0.00317681 -1.12833e-14)
(1.71204 -0.00313028 -1.16483e-14)
(1.71593 -0.00308446 -1.15506e-14)
(1.71976 -0.00303934 -1.30444e-14)
(1.72354 -0.0029949 -7.04969e-15)
(1.72726 -0.00295114 -8.82779e-15)
(1.73093 -0.00290804 -9.85173e-15)
(1.73454 -0.0028656 -1.06449e-14)
(1.7381 -0.0028238 -8.09428e-15)
(1.7416 -0.00278264 -8.52761e-15)
(1.74506 -0.00274211 -9.91671e-15)
(1.74846 -0.00270219 -7.11475e-15)
(1.75182 -0.00266288 -8.86942e-15)
(1.75512 -0.00262417 -6.23889e-15)
(1.75838 -0.00258605 -8.00226e-15)
(1.76159 -0.00254852 -5.35255e-15)
(1.76475 -0.00251155 -7.21548e-15)
(1.76787 -0.00247515 -4.83776e-15)
(1.77094 -0.00243931 -6.32614e-15)
(1.77396 -0.00240401 -3.88788e-15)
(1.77695 -0.00236926 -5.59828e-15)
(1.77989 -0.00233504 -3.28391e-15)
(1.78278 -0.00230134 -5.01668e-15)
(1.78564 -0.00226816 -3.70551e-15)
(1.78845 -0.00223549 -1.93968e-15)
(1.79122 -0.00220333 -4.24336e-15)
(1.79396 -0.00217166 -1.81337e-15)
(1.79665 -0.00214048 -3.89938e-15)
(1.7993 -0.00210978 -2.19021e-15)
(1.80192 -0.00207956 -3.94735e-15)
(1.8045 -0.00204981 -1.61971e-15)
(1.80704 -0.00202053 -3.84555e-15)
(1.80954 -0.00199171 -1.69426e-15)
(1.81201 -0.00196334 -3.47079e-15)
(1.81445 -0.00193543 -1.35252e-15)
(1.81685 -0.00190796 -3.11082e-15)
(1.81921 -0.00188094 -1.03182e-15)
(1.82154 -0.00185436 -3.03044e-15)
(1.82384 -0.00182822 -9.24214e-16)
(1.82611 -0.00180253 -2.77893e-15)
(1.82834 -0.00177727 -7.15178e-16)
(1.83054 -0.00175246 -2.67013e-15)
(1.83272 -0.0017281 -4.37542e-16)
(1.83486 -0.00170419 -2.49524e-15)
(1.83697 -0.00168074 -2.04826e-16)
(1.60454 -0.0071106 -1.27183e-14)
(1.60992 -0.00700235 -1.15983e-14)
(1.61522 -0.006896 -1.04482e-14)
(1.62044 -0.00679152 -1.05631e-14)
(1.62557 -0.00668882 -1.00504e-14)
(1.63063 -0.00658788 -9.78349e-15)
(1.63561 -0.00648862 -8.86585e-15)
(1.64051 -0.00639102 -9.14245e-15)
(1.64533 -0.00629503 -8.9625e-15)
(1.65008 -0.00620061 -8.64906e-15)
(1.65476 -0.00610773 -8.02632e-15)
(1.65937 -0.00601634 -8.20098e-15)
(1.6639 -0.00592643 -7.69721e-15)
(1.66837 -0.00583795 -7.99201e-15)
(1.67276 -0.00575088 -5.25662e-15)
(1.67709 -0.00566519 -5.84175e-15)
(1.68136 -0.00558086 -6.21448e-15)
(1.68556 -0.00549785 -6.74179e-15)
(1.68969 -0.00541616 -7.38755e-15)
(1.69376 -0.00533574 -7.67421e-15)
(1.69777 -0.00525659 -8.12346e-15)
(1.70172 -0.00517867 -8.5167e-15)
(1.70561 -0.00510198 -8.85334e-15)
(1.70945 -0.00502648 -9.32563e-15)
(1.71322 -0.00495216 -9.42464e-15)
(1.71694 -0.004879 -1.03207e-14)
(1.7206 -0.00480698 -9.27448e-15)
(1.7242 -0.00473608 -8.41397e-15)
(1.72776 -0.00466629 -8.41435e-15)
(1.73125 -0.00459759 -8.14931e-15)
(1.7347 -0.00452995 -7.83815e-15)
(1.7381 -0.00446337 -7.03886e-15)
(1.74144 -0.00439782 -7.42161e-15)
(1.74473 -0.00433329 -6.67301e-15)
(1.74798 -0.00426977 -6.56652e-15)
(1.75118 -0.00420723 -5.55507e-15)
(1.75433 -0.00414567 -5.21414e-15)
(1.75743 -0.00408507 -4.38433e-15)
(1.76049 -0.00402541 -4.00136e-15)
(1.7635 -0.00396668 -3.12162e-15)
(1.76647 -0.00390886 -2.8747e-15)
(1.76939 -0.00385194 -2.16553e-15)
(1.77227 -0.00379591 -2.10667e-15)
(1.77511 -0.00374075 -1.47566e-15)
(1.77791 -0.00368645 -1.18005e-15)
(1.78066 -0.003633 -1.14122e-15)
(1.78338 -0.00358038 -6.93337e-16)
(1.78605 -0.00352859 -6.09722e-16)
(1.78869 -0.0034776 -7.75082e-17)
(1.79129 -0.00342742 -2.57594e-16)
(1.79385 -0.00337802 4.18108e-16)
(1.79637 -0.0033294 4.393e-16)
(1.79886 -0.00328155 9.50366e-16)
(1.80131 -0.00323446 8.09021e-16)
(1.80372 -0.00318811 1.2218e-15)
(1.8061 -0.00314251 1.22179e-15)
(1.80845 -0.00309764 1.491e-15)
(1.81076 -0.0030535 1.34501e-15)
(1.81304 -0.00301009 1.86879e-15)
(1.81528 -0.00296739 1.79429e-15)
(1.8175 -0.00292541 2.0263e-15)
(1.81968 -0.00288414 2.0726e-15)
(1.82183 -0.00284359 2.37265e-15)
(1.82395 -0.00280376 2.08429e-15)
(1.82605 -0.00276465 2.43732e-15)
(1.82811 -0.00272628 2.33627e-15)
(1.83014 -0.00268865 2.88962e-15)
(1.60436 -0.00974138 -1.31746e-14)
(1.60957 -0.00958917 -1.22095e-14)
(1.61469 -0.00943977 -9.3584e-15)
(1.61973 -0.00929311 -1.08503e-14)
(1.62469 -0.00914909 -8.45013e-15)
(1.62957 -0.00900764 -1.00553e-14)
(1.63436 -0.00886869 -7.54268e-15)
(1.63908 -0.00873216 -9.24075e-15)
(1.64373 -0.00859801 -7.08879e-15)
(1.64829 -0.00846616 -8.78115e-15)
(1.65279 -0.00833657 -6.4096e-15)
(1.65721 -0.00820917 -8.08865e-15)
(1.66156 -0.00808392 -5.92072e-15)
(1.66585 -0.00796077 -7.70057e-15)
(1.67006 -0.00783968 -6.40175e-15)
(1.67421 -0.00772061 -6.89333e-15)
(1.67829 -0.00760351 -7.17503e-15)
(1.68231 -0.00748834 -7.69582e-15)
(1.68627 -0.00737506 -8.00939e-15)
(1.69016 -0.00726365 -8.3586e-15)
(1.69399 -0.00715406 -8.64293e-15)
(1.69776 -0.00704626 -8.96004e-15)
(1.70147 -0.00694021 -9.23214e-15)
(1.70513 -0.0068359 -9.60097e-15)
(1.70873 -0.00673327 -9.84154e-15)
(1.71227 -0.00663231 -1.02272e-14)
(1.71576 -0.00653299 -9.54701e-15)
(1.71919 -0.00643527 -7.0585e-15)
(1.72257 -0.00633913 -8.51143e-15)
(1.7259 -0.00624454 -6.30794e-15)
(1.72918 -0.00615148 -7.78109e-15)
(1.7324 -0.00605991 -5.4529e-15)
(1.73558 -0.00596982 -7.19995e-15)
(1.73871 -0.00588117 -5.29152e-15)
(1.74179 -0.00579395 -4.26263e-15)
(1.74483 -0.00570812 -3.28702e-15)
(1.74782 -0.00562367 -2.55236e-15)
(1.75076 -0.00554058 -1.67809e-15)
(1.75366 -0.00545881 -1.19555e-15)
(1.75652 -0.00537835 -5.07648e-16)
(1.75933 -0.00529918 4.15284e-18)
(1.7621 -0.00522127 4.28567e-16)
(1.76483 -0.00514461 7.79579e-16)
(1.76751 -0.00506917 1.21541e-15)
(1.77016 -0.00499493 1.77691e-15)
(1.77277 -0.00492188 7.92075e-16)
(1.77534 -0.00485 1.49974e-15)
(1.77787 -0.00477926 2.0354e-15)
(1.78036 -0.00470965 2.37261e-15)
(1.78282 -0.00464116 2.71721e-15)
(1.78524 -0.00457377 2.97836e-15)
(1.78762 -0.00450745 3.40551e-15)
(1.78997 -0.00444221 3.80653e-15)
(1.79229 -0.00437802 3.93772e-15)
(1.79457 -0.00431486 4.15207e-15)
(1.79682 -0.00425274 4.32673e-15)
(1.79903 -0.00419163 4.59797e-15)
(1.80121 -0.00413153 4.69325e-15)
(1.80336 -0.00407243 4.77351e-15)
(1.80548 -0.00401433 4.94973e-15)
(1.80757 -0.00395721 5.24108e-15)
(1.80963 -0.00390108 5.32635e-15)
(1.81166 -0.00384594 5.58519e-15)
(1.81366 -0.00379178 5.54316e-15)
(1.81563 -0.00373863 5.81497e-15)
(1.81758 -0.00368648 5.84243e-15)
(1.8195 -0.00363535 5.92673e-15)
(1.60348 -0.0122251 -9.40573e-15)
(1.60845 -0.0120276 -9.31068e-15)
(1.61333 -0.011834 -8.6164e-15)
(1.61812 -0.0116442 -8.64288e-15)
(1.62283 -0.0114579 -8.16254e-15)
(1.62746 -0.0112753 -7.91216e-15)
(1.63201 -0.011096 -7.34355e-15)
(1.63649 -0.0109201 -7.24053e-15)
(1.64088 -0.0107474 -6.92147e-15)
(1.6452 -0.0105779 -6.79105e-15)
(1.64945 -0.0104114 -6.1869e-15)
(1.65363 -0.010248 -6.31752e-15)
(1.65773 -0.0100875 -6.00535e-15)
(1.66177 -0.00992981 -6.07809e-15)
(1.66574 -0.00977493 -4.57725e-15)
(1.66964 -0.00962278 -4.72257e-15)
(1.67348 -0.0094733 -4.81131e-15)
(1.67725 -0.00932643 -5.0031e-15)
(1.68097 -0.00918212 -5.22545e-15)
(1.68462 -0.0090403 -5.4202e-15)
(1.68821 -0.00890093 -5.69978e-15)
(1.69175 -0.00876396 -5.86627e-15)
(1.69522 -0.00862934 -6.07706e-15)
(1.69864 -0.00849702 -6.21219e-15)
(1.70201 -0.00836695 -6.44375e-15)
(1.70532 -0.0082391 -6.57379e-15)
(1.70858 -0.00811341 -6.74262e-15)
(1.71178 -0.00798986 -6.28353e-15)
(1.71494 -0.00786839 -6.30579e-15)
(1.71804 -0.00774896 -5.86726e-15)
(1.72109 -0.00763154 -5.80776e-15)
(1.7241 -0.0075161 -5.17069e-15)
(1.72706 -0.00740258 -5.31263e-15)
(1.72997 -0.00729097 -4.72265e-15)
(1.73284 -0.00718121 -4.37412e-15)
(1.73566 -0.00707329 -3.69698e-15)
(1.73844 -0.00696715 -3.37342e-15)
(1.74117 -0.00686278 -2.71104e-15)
(1.74387 -0.00676014 -2.24877e-15)
(1.74652 -0.00665919 -1.70728e-15)
(1.74913 -0.00655991 -1.33985e-15)
(1.7517 -0.00646227 -8.30157e-16)
(1.75423 -0.00636624 -5.69146e-16)
(1.75672 -0.00627179 -2.12764e-16)
(1.75917 -0.0061789 1.41679e-16)
(1.76158 -0.00608752 9.62119e-17)
(1.76396 -0.00599765 5.56586e-16)
(1.76631 -0.00590926 7.60891e-16)
(1.76861 -0.00582231 1.07651e-15)
(1.77088 -0.0057368 1.25514e-15)
(1.77312 -0.00565268 1.71836e-15)
(1.77533 -0.00556995 1.88183e-15)
(1.7775 -0.00548859 2.34366e-15)
(1.77964 -0.00540857 2.46354e-15)
(1.78174 -0.00532987 2.69627e-15)
(1.78382 -0.00525248 2.83387e-15)
(1.78586 -0.00517639 3.02512e-15)
(1.78788 -0.00510158 3.26836e-15)
(1.78986 -0.00502804 3.43578e-15)
(1.79182 -0.00495576 3.56807e-15)
(1.79375 -0.00488473 3.87239e-15)
(1.79564 -0.00481495 3.87645e-15)
(1.79752 -0.00474642 4.17615e-15)
(1.79936 -0.00467914 4.06906e-15)
(1.80118 -0.00461311 4.44112e-15)
(1.80297 -0.00454836 4.44238e-15)
(1.80473 -0.0044849 4.6358e-15)
(1.60133 -0.0144997 -6.92231e-15)
(1.60598 -0.0142562 -6.76533e-15)
(1.61054 -0.0140178 -6.97449e-15)
(1.61502 -0.0137843 -6.72957e-15)
(1.61941 -0.0135556 -6.9539e-15)
(1.62372 -0.0133316 -5.69965e-15)
(1.62796 -0.0131121 -5.95596e-15)
(1.63211 -0.0128969 -5.76741e-15)
(1.63619 -0.012686 -6.1543e-15)
)
;

boundaryField
{
    inlet
    {
        type            uniformFixedValue;
        uniformValue    constant (1 0 0);
        value           nonuniform 0();
    }
    outlet
    {
        type            pressureInletOutletVelocity;
        value           nonuniform 0();
    }
    wall
    {
        type            fixedValue;
        value           nonuniform 0();
    }
    wedge1
    {
        type            wedge;
    }
    wedge2
    {
        type            wedge;
    }
    axis
    {
        type            empty;
    }
    procBoundary1to0
    {
        type            processor;
        value           nonuniform List<vector> 5((1.59871 -0.00192391 -5.57349e-15) (1.59886 -0.00447425 -1.38273e-14) (1.59906 -0.00722084 -1.2256e-14) (1.59906 -0.00989652 -1.29552e-14) (1.59843 -0.0124266 -9.17872e-15));
    }
    procBoundary1to2
    {
        type            processor;
        value           nonuniform List<vector> 5((1.84215 -0.000715228 -5.06762e-16) (1.83905 -0.00165776 -2.21196e-15) (1.83215 -0.00265178 2.73337e-15) (1.82139 -0.00358527 6.06131e-15) (1.80648 -0.00442275 4.63579e-15));
    }
    procBoundary1to6
    {
        type            processor;
        value           uniform (1.59659 -0.0147485 -6.86458e-15);
    }
    procBoundary1to7
    {
        type            processor;
        value           nonuniform List<vector> 
68
(
(1.6402 -0.0124792 -4.85394e-15)
(1.64413 -0.0122764 -5.1413e-15)
(1.64799 -0.0120775 -4.91927e-15)
(1.65179 -0.0118824 -5.23241e-15)
(1.65551 -0.0116911 -4.23806e-15)
(1.65917 -0.0115033 -3.87995e-15)
(1.66277 -0.0113191 -3.89497e-15)
(1.6663 -0.0111383 -3.81229e-15)
(1.66978 -0.0109608 -3.78774e-15)
(1.67319 -0.0107867 -3.84482e-15)
(1.67654 -0.0106157 -4.00027e-15)
(1.67984 -0.0104479 -4.12648e-15)
(1.68308 -0.0102831 -4.18144e-15)
(1.68626 -0.0101213 -4.22848e-15)
(1.68939 -0.00996245 -4.3281e-15)
(1.69247 -0.00980644 -4.38911e-15)
(1.69549 -0.00965324 -4.58335e-15)
(1.69847 -0.00950277 -4.55916e-15)
(1.70139 -0.00935498 -4.80392e-15)
(1.70427 -0.00920982 -4.6767e-15)
(1.7071 -0.00906722 -4.80935e-15)
(1.70988 -0.00892713 -3.70776e-15)
(1.71262 -0.00878951 -3.91368e-15)
(1.71531 -0.00865429 -4.00184e-15)
(1.71796 -0.00852144 -2.90173e-15)
(1.72056 -0.0083909 -3.21861e-15)
(1.72312 -0.00826263 -2.3147e-15)
(1.72564 -0.00813658 -2.53439e-15)
(1.72812 -0.00801271 -1.64092e-15)
(1.73057 -0.00789098 -1.98901e-15)
(1.73297 -0.00777133 -1.02732e-15)
(1.73533 -0.00765374 -1.43109e-15)
(1.73766 -0.00753816 -4.72208e-16)
(1.73995 -0.00742455 -7.74765e-16)
(1.7422 -0.00731288 4.67125e-17)
(1.74442 -0.0072031 -8.67894e-17)
(1.7466 -0.00709519 -1.73673e-16)
(1.74875 -0.00698911 8.25501e-16)
(1.75086 -0.00688483 4.78832e-16)
(1.75295 -0.00678231 1.32927e-15)
(1.755 -0.00668152 1.01174e-15)
(1.75702 -0.00658244 1.86258e-15)
(1.759 -0.00648503 1.54021e-15)
(1.76096 -0.00638927 2.34506e-15)
(1.76289 -0.00629514 1.91863e-15)
(1.76479 -0.00620261 2.68647e-15)
(1.76665 -0.00611165 2.25074e-15)
(1.7685 -0.00602226 3.09591e-15)
(1.77031 -0.0059344 2.6399e-15)
(1.77209 -0.00584807 3.43379e-15)
(1.77385 -0.00576325 2.9598e-15)
(1.77559 -0.00567994 3.61888e-15)
(1.77729 -0.00559812 3.19881e-15)
(1.77897 -0.00551779 3.93183e-15)
(1.78063 -0.00543896 3.40161e-15)
(1.78226 -0.00536163 4.1698e-15)
(1.78387 -0.00528582 3.60941e-15)
(1.78546 -0.00521154 4.36946e-15)
(1.59714 -0.0165028 -5.1957e-15)
(1.6014 -0.0162134 -4.93023e-15)
(1.60557 -0.0159306 -5.98842e-15)
(1.60965 -0.0156541 -4.80036e-15)
(1.61365 -0.0153837 -5.91233e-15)
(1.61758 -0.0151192 -4.54895e-15)
(1.62142 -0.0148603 -5.5548e-15)
(1.62519 -0.0146071 -4.31606e-15)
(1.6402 -0.0124792 -4.85394e-15)
(1.62889 -0.0143591 -5.41549e-15)
)
;
    }
}


// ************************************************************************* //
