/*--------------------------------*- C++ -*----------------------------------*\
  =========                 |
  \\      /  F ield         | OpenFOAM: The Open Source CFD Toolbox
   \\    /   O peration     | Website:  https://openfoam.org
    \\  /    A nd           | Version:  7
     \\/     M anipulation  |
\*---------------------------------------------------------------------------*/
FoamFile
{
    version     2.0;
    format      ascii;
    class       volVectorField;
    location    "118";
    object      U;
}
// * * * * * * * * * * * * * * * * * * * * * * * * * * * * * * * * * * * * * //

dimensions      [0 1 -1 0 0 0 0];

internalField   nonuniform List<vector> 
12400
(
(-0.00106833 0.000234851 -7.9354e-21)
(-0.00602257 0.0102078 -2.96005e-20)
(-0.0158268 0.0273065 5.47201e-21)
(-0.0287273 0.0489407 2.1109e-20)
(-0.0438804 0.0727279 9.11776e-21)
(-0.0607499 0.0969312 -2.25537e-20)
(-0.0787951 0.120698 -7.1799e-21)
(-0.0974701 0.144079 -2.82678e-21)
(-0.116206 0.167799 -2.68421e-20)
(-0.134405 0.192848 -5.2428e-21)
(-0.151442 0.220066 -1.99686e-20)
(-0.16665 0.249836 3.26683e-21)
(-0.179281 0.281939 -1.05687e-20)
(-0.188435 0.315466 1.92537e-20)
(-0.193011 0.348717 -2.54475e-20)
(-0.191656 0.379036 -2.76338e-20)
(-0.182789 0.402635 -8.17868e-21)
(-0.164796 0.414629 4.6513e-20)
(-0.135912 0.409407 -4.1539e-20)
(-0.0934027 0.380397 6.08544e-21)
(-0.00107469 0.00270253 1.16317e-20)
(-0.0059542 0.0161675 1.90678e-20)
(-0.0152292 0.0357759 5.92627e-21)
(-0.0273024 0.0592175 1.80109e-20)
(-0.0413685 0.0842831 -4.5885e-21)
(-0.0569007 0.109327 2.79509e-20)
(-0.073374 0.133523 1.08048e-20)
(-0.090248 0.156911 2.46462e-20)
(-0.106935 0.180198 -1.38973e-20)
(-0.122782 0.204366 3.43248e-20)
(-0.137073 0.230254 1.13216e-19)
(-0.149025 0.258236 -1.90841e-20)
(-0.15775 0.288051 2.8553e-20)
(-0.162207 0.318708 -1.77853e-20)
(-0.161151 0.348407 4.67239e-20)
(-0.153116 0.374395 -5.59627e-21)
(-0.136428 0.392823 2.71624e-20)
(-0.109409 0.398822 -1.73537e-19)
(-0.0709297 0.387299 1.73143e-20)
(-0.0172978 0.351544 -2.79927e-20)
(-0.00121751 0.00475817 3.64249e-20)
(-0.00616514 0.0211363 3.84559e-20)
(-0.0149167 0.0428609 -8.98527e-21)
(-0.0260634 0.0678526 -1.95963e-20)
(-0.0388484 0.0940449 -8.36935e-21)
(-0.0527551 0.119854 2.75504e-20)
(-0.067275 0.144448 4.12599e-20)
(-0.0818759 0.167819 -9.16299e-20)
(-0.0959555 0.19062 2.72409e-20)
(-0.108813 0.213801 -3.51789e-20)
(-0.119646 0.238192 -5.95658e-20)
(-0.127554 0.264165 -1.10321e-20)
(-0.131518 0.291435 -1.76508e-20)
(-0.130365 0.318963 -4.12189e-20)
(-0.122739 0.344889 4.95565e-20)
(-0.107115 0.366419 -4.80353e-20)
(-0.0818501 0.379748 6.33942e-21)
(-0.0451712 0.380047 1.70703e-19)
(0.00281666 0.362958 -1.2757e-19)
(0.0678181 0.321075 1.16562e-19)
(-0.00145616 0.00636457 -2.73435e-20)
(-0.00658728 0.0250223 5.0013e-20)
(-0.0148523 0.0484225 -7.33668e-20)
(-0.0250364 0.0746622 3.44235e-20)
(-0.0364272 0.101788 -1.86991e-19)
(-0.0485112 0.128253 -1.15005e-19)
(-0.0607916 0.153191 7.22759e-20)
(-0.072745 0.176515 1.79081e-19)
(-0.0837615 0.198789 -7.28305e-20)
(-0.0931038 0.220904 -5.14905e-20)
(-0.0998983 0.243667 -7.37965e-20)
(-0.103142 0.267452 1.5053e-19)
(-0.1017 0.291975 1.88676e-19)
(-0.0942874 0.316183 -1.49121e-19)
(-0.0794705 0.33821 -1.25099e-19)
(-0.055711 0.355278 4.94272e-20)
(-0.0215417 0.36375 -1.09846e-19)
(0.0250839 0.358775 -4.27112e-21)
(0.0818941 0.337272 2.10851e-19)
(0.158747 0.290166 7.76526e-20)
(-0.00174973 0.0075159 1.05223e-19)
(-0.00715066 0.0277999 3.26481e-20)
(-0.0149959 0.0524017 1.14471e-19)
(-0.0242445 0.0795435 -3.44047e-20)
(-0.0342119 0.10736 1.79685e-19)
(-0.0443731 0.134323 1.09874e-19)
(-0.0542326 0.159515 -1.32223e-19)
(-0.0632728 0.182742 -1.70852e-19)
(-0.0708838 0.204451 1.57864e-19)
(-0.0763087 0.225445 -4.34969e-20)
(-0.0786238 0.246488 6.54093e-20)
(-0.0767492 0.267957 -2.63428e-19)
(-0.0694652 0.289588 9.21419e-20)
(-0.0554034 0.310363 3.81011e-20)
(-0.033092 0.328445 2.04305e-20)
(-0.000998529 0.341131 7.75698e-20)
(0.0419129 0.345098 2.15211e-19)
(0.098604 0.335272 6.86496e-21)
(0.162864 0.310667 -7.78654e-20)
(0.252043 0.259558 7.67062e-20)
(-0.0020618 0.00823631 7.15489e-20)
(-0.00779216 0.0295084 3.46489e-20)
(-0.0153113 0.0548212 -1.8585e-19)
(-0.0237106 0.0824793 -1.09058e-19)
(-0.0323071 0.110689 -4.42903e-20)
(-0.0405433 0.137935 1.45256e-19)
(-0.0479094 0.163237 1.72951e-19)
(-0.0538877 0.186282 -2.0893e-20)
(-0.057873 0.207377 -4.15113e-20)
(-0.0591077 0.227209 -3.45181e-20)
(-0.056647 0.246481 -1.17266e-19)
(-0.0493688 0.265561 2.68123e-19)
(-0.0359997 0.284223 -1.78944e-21)
(-0.0151421 0.301518 -1.05961e-19)
(0.0146543 0.315684 -1.18719e-20)
(0.0549752 0.324135 2.16034e-20)
(0.105964 0.324019 7.68999e-20)
(0.172668 0.309814 -2.98836e-19)
(0.242348 0.283167 1.39759e-19)
(0.343965 0.229212 -1.36895e-19)
(-0.00236479 0.00857637 -1.17968e-19)
(-0.00846358 0.0302468 6.79663e-20)
(-0.0157735 0.0557817 8.12376e-20)
(-0.0234604 0.0835387 7.19406e-20)
(-0.0308111 0.11179 1.52497e-19)
(-0.0372126 0.139037 2.14376e-20)
(-0.0421205 0.164241 -2.40548e-20)
(-0.0450076 0.186968 6.62393e-20)
(-0.0452754 0.207373 -9.81894e-20)
(-0.0421809 0.226005 -8.43052e-21)
(-0.0347913 0.243484 4.76263e-20)
(-0.0219841 0.260157 -2.21774e-19)
(-0.00247812 0.27584 -7.33442e-20)
(0.0251101 0.289668 7.14645e-20)
(0.0621191 0.300022 -1.7516e-19)
(0.110319 0.304457 1.98783e-19)
(0.168293 0.300668 2.32889e-20)
(0.244843 0.282654 -2.9645e-20)
(0.31748 0.254808 -3.96393e-19)
(0.431466 0.198562 2.52858e-19)
(-0.00264316 0.00860786 -4.52019e-20)
(-0.00913807 0.0301644 -5.08073e-20)
(-0.0163741 0.055454 -2.38411e-19)
(-0.023525 0.0828743 -1.05466e-19)
(-0.0298119 0.110768 -3.61648e-19)
(-0.0345464 0.137669 -3.0699e-20)
(-0.0371303 0.162494 -1.79558e-19)
(-0.0370111 0.184701 -1.28552e-19)
(-0.033596 0.204293 2.8474e-19)
(-0.0261701 0.221671 4.87032e-20)
(-0.0138405 0.237347 1.19067e-19)
(0.0044735 0.251636 1.54332e-19)
(0.0300083 0.264391 -4.98721e-20)
(0.0640931 0.274846 -1.77457e-19)
(0.10785 0.281554 1.61551e-19)
(0.163432 0.282288 1.59121e-19)
(0.227115 0.275135 -1.75344e-19)
(0.3134 0.254025 2.59137e-19)
(0.386551 0.225626 4.30991e-19)
(0.514019 0.167161 1.33525e-19)
(-0.00289517 0.00841715 1.22104e-19)
(-0.00981332 0.0294482 1.45415e-19)
(-0.017123 0.054065 7.25993e-20)
(-0.0239381 0.0807111 1.80306e-19)
(-0.0293828 0.107815 8.50188e-20)
(-0.0326737 0.133961 2.20021e-19)
(-0.0331431 0.158055 1.92024e-19)
(-0.0301997 0.179469 -7.54708e-20)
(-0.0232508 0.198067 -1.21408e-19)
(-0.0116168 0.214097 2.17485e-19)
(0.0055349 0.227957 -1.40017e-19)
(0.0292077 0.239911 1.00853e-19)
(0.0605469 0.24984 1.41083e-19)
(0.1008 0.257085 1.60585e-19)
(0.150784 0.260361 -4.76442e-19)
(0.213251 0.257828 -2.39615e-19)
(0.281659 0.247485 -7.08173e-20)
(0.377884 0.224196 3.03409e-19)
(0.450053 0.195409 -7.09519e-19)
(0.594974 0.134849 -2.94893e-19)
(-0.00313339 0.00809879 1.77175e-19)
(-0.0105125 0.0283064 -2.15656e-19)
(-0.0180486 0.0518793 -2.25355e-19)
(-0.0247325 0.0773298 -2.35271e-19)
(-0.0295682 0.103195 -1.45317e-19)
(-0.031665 0.12814 -3.47739e-20)
(-0.030273 0.151093 -2.37486e-19)
(-0.024752 0.171372 2.95225e-19)
(-0.0145013 0.188729 8.51628e-20)
(0.00112516 0.203271 8.01389e-20)
(0.0228899 0.215278 -3.38331e-19)
(0.051701 0.224952 5.07712e-20)
(0.0885882 0.232195 -4.38406e-20)
(0.134718 0.236455 -1.0563e-20)
(0.190594 0.236563 -1.71543e-19)
(0.259701 0.231303 2.3596e-19)
(0.33288 0.21786 -5.04588e-20)
(0.439796 0.193572 -6.62893e-19)
(0.511902 0.163773 1.04183e-19)
(0.680929 0.102061 5.45915e-19)
(-0.0033845 0.00774722 1.23201e-19)
(-0.0112811 0.0269518 -4.04967e-20)
(-0.0191908 0.0491793 2.36691e-19)
(-0.0259303 0.0730487 1.18341e-19)
(-0.0303697 0.0972358 1.68635e-19)
(-0.0315073 0.12052 1.62114e-20)
(-0.0285052 0.141887 3.21635e-19)
(-0.0206657 0.160642 -2.90007e-19)
(-0.00736889 0.176457 -1.30914e-19)
(0.0120087 0.189324 -5.4336e-20)
(0.0381697 0.199412 3.33637e-19)
(0.0719374 0.206863 -6.00127e-20)
(0.114244 0.211588 5.04751e-20)
(0.166226 0.21315 2.12939e-19)
(0.228212 0.210427 2.10897e-19)
(0.304396 0.203041 -3.77726e-19)
(0.384213 0.1867 -2.13087e-19)
(0.5032 0.16273 1.38673e-19)
(0.580121 0.130698 4.38413e-19)
(0.778409 0.0703503 -6.55961e-20)
(-0.00368463 0.0074485 -1.63574e-19)
(-0.0121788 0.0255852 -9.01443e-20)
(-0.0205898 0.0462434 -1.23911e-19)
(-0.0275277 0.0682013 -1.21817e-19)
(-0.031726 0.0903079 1.37986e-19)
(-0.0320764 0.111489 -2.71743e-19)
(-0.0276527 0.130828 2.67179e-19)
(-0.0176915 0.147656 1.67046e-20)
(-0.0015366 0.161605 -2.24378e-19)
(0.0214395 0.172586 -5.0277e-20)
(0.0519174 0.180679 -2.07553e-19)
(0.09069 0.185975 9.23877e-20)
(0.138675 0.188396 -6.31436e-20)
(0.197094 0.187625 -4.01872e-19)
(0.266394 0.182544 2.03836e-20)
(0.351273 0.173649 1.37332e-19)
(0.441693 0.155017 3.15021e-19)
(0.574355 0.132435 5.75859e-19)
(0.664556 0.0974919 1.08035e-19)
(0.889398 0.0421612 -7.22385e-19)
(-0.00407486 0.00727448 -2.22075e-19)
(-0.0132664 0.0243767 -3.00211e-20)
(-0.0222696 0.0433233 4.46338e-19)
(-0.0294752 0.0631116 -1.98982e-19)
(-0.0334888 0.0828 8.48505e-21)
(-0.0331058 0.101493 -1.93091e-19)
(-0.0273124 0.118405 -1.83355e-19)
(-0.0152676 0.132935 2.8652e-20)
(0.00374977 0.144719 9.8416e-20)
(0.0304213 0.153624 3.5764e-19)
(0.0654805 0.159678 -1.1274e-19)
(0.109798 0.162943 -4.82067e-19)
(0.164425 0.163362 3.46041e-19)
(0.230835 0.160738 3.04252e-19)
(0.309912 0.153983 2.02609e-19)
(0.406457 0.144219 5.24473e-19)
(0.512571 0.12452 -1.79125e-19)
(0.659787 0.10392 -8.99156e-19)
(0.770985 0.0670466 1.41258e-19)
(1.00781 0.0199725 2.03269e-19)
(-0.00459536 0.00727342 -1.13512e-19)
(-0.0145925 0.0234513 1.53903e-19)
(-0.0242183 0.0406246 -1.5437e-19)
(-0.0316565 0.0580708 2.44944e-19)
(-0.0354001 0.0750931 -2.79833e-19)
(-0.0341599 0.0910034 2.5999e-19)
(-0.0268311 0.10518 5.12051e-20)
(-0.0124727 0.117128 -2.77664e-19)
(0.00974889 0.12653 2.27505e-19)
(0.0406478 0.133255 -2.46084e-19)
(0.0811239 0.137319 3.02093e-19)
(0.132271 0.138788 1.65376e-19)
(0.195446 0.137652 1.31038e-19)
(0.272488 0.133827 -2.04539e-19)
(0.36482 0.12632 -3.79049e-20)
(0.476636 0.116414 -2.79952e-19)
(0.602288 0.0973929 2.14754e-19)
(0.76272 0.0789677 2.09994e-20)
(0.895682 0.0426651 -3.99005e-19)
(1.12291 0.00555684 1.95834e-19)
(-0.00527462 0.00746544 2.55956e-20)
(-0.0161755 0.0228777 9.81371e-20)
(-0.0263704 0.0382887 2.15133e-20)
(-0.0338714 0.053314 7.95858e-20)
(-0.0370779 0.067532 1.92242e-19)
(-0.0346231 0.0804882 1.7826e-19)
(-0.025298 0.0917523 1.2657e-19)
(-0.00802342 0.100969 1.59469e-19)
(0.0182155 0.107908 -3.18055e-19)
(0.0544666 0.112492 -4.5483e-20)
(0.101925 0.11477 -4.95836e-19)
(0.162039 0.11485 -1.55072e-19)
(0.236552 0.112787 -1.77831e-19)
(0.327553 0.108588 2.93278e-19)
(0.436598 0.101441 -4.73681e-19)
(0.566196 0.0922486 9.11245e-20)
(0.711212 0.075699 4.47001e-20)
(0.87984 0.05943 5.41896e-19)
(1.02517 0.0263335 -2.7443e-19)
(1.22189 -0.00207579 2.30379e-19)
(-0.00612384 0.00784035 3.32297e-19)
(-0.01799 0.02266 1.22104e-19)
(-0.0285937 0.0363815 2.21622e-19)
(-0.0358278 0.0490011 2.00733e-19)
(-0.0380169 0.0603961 3.41716e-20)
(-0.0337137 0.0703681 -4.32936e-19)
(-0.0215792 0.0786989 -3.18713e-19)
(-0.000342201 0.0852044 -2.8469e-19)
(0.0312738 0.0897828 2.67294e-19)
(0.0746492 0.0924504 1.60002e-19)
(0.131363 0.0933339 5.61787e-19)
(0.203236 0.0926148 -4.57187e-19)
(0.29224 0.0904257 1.71227e-19)
(0.40021 0.0867944 -3.30368e-19)
(0.527818 0.0811622 2.52356e-19)
(0.674551 0.0735503 -9.09997e-20)
(0.83331 0.0607177 1.32777e-19)
(1.00108 0.0463559 -4.9494e-19)
(1.14307 0.0179931 4.11845e-19)
(1.29746 -0.00441875 1.94513e-19)
(-0.00713011 0.00835714 -4.56852e-19)
(-0.0199576 0.022738 1.88434e-19)
(-0.0306847 0.0348867 -2.99845e-19)
(-0.0371467 0.0452005 -2.83101e-19)
(-0.0376107 0.0538752 1.03226e-19)
(-0.0305309 0.060977 5.15765e-19)
(-0.0144043 0.06652 -3.72124e-19)
(0.0122914 0.0705165 4.85864e-20)
(0.051162 0.0730253 -1.04001e-19)
(0.103969 0.0741942 -1.01473e-19)
(0.172648 0.0742582 2.62394e-19)
(0.25919 0.0734833 5.76575e-19)
(0.365286 0.0720612 -2.14749e-20)
(0.491599 0.0699395 4.95909e-20)
(0.636539 0.0667555 -2.04008e-20)
(0.795444 0.0613543 -3.49681e-19)
(0.957809 0.0525619 3.45862e-19)
(1.11353 0.0394277 5.77642e-19)
(1.23775 0.0160713 1.72193e-19)
(1.34839 -0.00351592 -3.40089e-19)
(-0.00825337 0.00894845 -1.16753e-19)
(-0.0219445 0.0229934 3.81768e-19)
(-0.0323757 0.0337089 -1.27443e-20)
(-0.0373836 0.041889 2.71697e-19)
(-0.0351908 0.0480499 1.2477e-19)
(-0.0241306 0.0525272 1.19739e-19)
(-0.00249503 0.0555826 -1.49258e-19)
(0.031529 0.057441 2.56822e-19)
(0.0798955 0.0583456 4.28273e-20)
(0.14469 0.0585984 -1.52761e-19)
(0.227987 0.0585524 -8.74062e-20)
(0.331468 0.0585384 -3.95157e-19)
(0.455701 0.0587443 -3.99213e-19)
(0.599038 0.0589022 9.45298e-20)
(0.756419 0.0586314 -3.26247e-20)
(0.91881 0.055616 -1.38772e-19)
(1.07298 0.050215 -4.76556e-19)
(1.20693 0.0373213 -5.95237e-19)
(1.30532 0.0186426 -7.09518e-19)
(1.37815 -0.00117568 8.60375e-20)
(-0.00942737 0.00952936 2.48465e-20)
(-0.0237673 0.023266 -3.44341e-19)
(-0.0333474 0.0326883 -3.26415e-19)
(-0.0360606 0.0389547 -2.17878e-19)
(-0.0300836 0.0428874 3.92225e-19)
(-0.013612 0.0450953 -8.48014e-19)
(0.0152931 0.0460899 1.72427e-19)
(0.0587355 0.0463188 -9.87191e-20)
(0.118948 0.04622 2.80679e-19)
(0.198133 0.0462534 3.40903e-20)
(0.298068 0.0468725 -4.28265e-19)
(0.419385 0.0484117 1.85704e-19)
(0.560522 0.0509354 5.85365e-20)
(0.716534 0.0538122 1.8851e-19)
(0.878472 0.0563271 -2.03669e-19)
(1.03413 0.0553558 3.6919e-19)
(1.17004 0.0519911 -1.61457e-19)
(1.27692 0.0386165 8.78837e-20)
(1.348 0.0241832 -5.52229e-20)
(1.39204 0.00122552 -2.22125e-19)
(-0.010565 0.0100088 3.78616e-19)
(-0.025205 0.0233739 -7.13253e-20)
(-0.033251 0.0316207 -4.51447e-20)
(-0.0326956 0.0362165 2.62847e-19)
(-0.0216612 0.0382613 -1.34241e-19)
(0.00180272 0.0386322 7.63296e-19)
(0.039857 0.0380867 3.5212e-20)
(0.0948303 0.0372945 2.32349e-19)
(0.169052 0.0368853 -3.90753e-19)
(0.264464 0.0374577 -2.96717e-19)
(0.381914 0.0395122 4.3502e-19)
(0.520107 0.0432804 -3.58163e-19)
(0.674439 0.0485283 2.89754e-19)
(0.836282 0.0541203 -5.32056e-20)
(0.99361 0.0587642 9.07009e-19)
(1.13347 0.0590817 -1.98822e-20)
(1.24515 0.0562069 3.21914e-19)
(1.32456 0.0423974 4.7662e-19)
(1.37103 0.0313317 2.89948e-19)
(1.39499 0.00253652 4.72392e-19)
(-0.0115671 0.0103021 1.82764e-19)
(-0.0260172 0.0231386 -4.12078e-19)
(-0.0317319 0.0302925 1.39567e-19)
(-0.0268279 0.0334591 2.28555e-19)
(-0.0093739 0.0339843 1.93245e-19)
(0.0227234 0.033002 -5.5563e-19)
(0.0717891 0.0315029 2.49906e-19)
(0.140227 0.0303684 1.13911e-19)
(0.230155 0.0303995 4.87221e-20)
(0.342725 0.0322865 2.01462e-19)
(0.477092 0.0364811 -1.16626e-19)
(0.629196 0.042955 3.63599e-19)
(0.790924 0.0509761 -3.06107e-19)
(0.950514 0.058814 -3.17897e-19)
(1.09482 0.0646111 -5.52063e-19)
(1.21292 0.0652574 -1.75724e-19)
(1.29889 0.0617001 -3.86651e-19)
(1.35388 0.0480918 -4.32027e-19)
(1.38065 0.0381525 -3.90998e-19)
(1.39076 0.00216423 -2.09137e-19)
(-0.0123312 0.0103422 2.78244e-19)
(-0.0259576 0.0224114 -7.17751e-20)
(-0.0284458 0.0285097 -1.9308e-19)
(-0.0180392 0.0304725 -6.27216e-19)
(0.00723749 0.0298622 -4.99942e-20)
(0.0495859 0.0280455 6.6626e-19)
(0.111383 0.0262287 -1.49716e-19)
(0.194867 0.0254833 1.29145e-19)
(0.301513 0.0267396 3.06414e-19)
(0.431032 0.0306951 9.1546e-20)
(0.580113 0.0376052 -5.9134e-19)
(0.741377 0.0469844 -1.4711e-19)
(0.903468 0.0574402 -1.03713e-19)
(1.05303 0.0666883 2.9397e-19)
(1.17827 0.0725898 8.5561e-19)
(1.27231 0.0726602 -2.72553e-19)
(1.33441 0.0679151 -1.8061e-19)
(1.36947 0.0547639 4.70695e-19)
(1.38211 0.0429373 2.58376e-19)
(1.3849 0.0165536 1.16369e-19)
(-0.0127585 0.0100857 -2.98363e-19)
(-0.0247894 0.02109 2.21098e-19)
(-0.0230645 0.0261289 -4.52471e-19)
(-0.00595385 0.0271017 5.13539e-20)
(0.0285467 0.0257506 3.18275e-19)
(0.0826728 0.0236497 -6.76843e-19)
(0.158676 0.0221973 -7.10153e-19)
(0.258292 0.0226162 1.29839e-20)
(0.381813 0.025893 -4.22346e-19)
(0.526806 0.032598 -2.981e-19)
(0.686874 0.0425901 4.74451e-19)
(0.851307 0.0547323 7.55832e-19)
(1.00663 0.0669339 -2.98095e-19)
(1.14004 0.0765821 -1.88316e-19)
(1.24315 0.0816634 -4.77351e-19)
(1.31389 0.0805378 3.39503e-20)
(1.35577 0.0745723 -1.70111e-20)
(1.37558 0.0612403 -1.76868e-20)
(1.37901 0.0502002 4.97423e-20)
(1.37608 0.0242864 6.4708e-19)
(-0.0127595 0.00951881 2.98954e-19)
(-0.0222886 0.0191308 3.31742e-19)
(-0.015283 0.0230851 4.39374e-19)
(0.00976775 0.0232814 1.75236e-19)
(0.0548592 0.021604 -2.40479e-19)
(0.122143 0.019809 -1.6914e-19)
(0.213494 0.019451 -2.44546e-20)
(0.329713 0.021841 2.4357e-19)
(0.469288 0.0279025 2.24713e-19)
(0.626997 0.0378865 1.43733e-19)
(0.793098 0.0510313 -1.68576e-20)
(0.95426 0.0654354 -3.63653e-19)
(1.09669 0.0784607 2.94354e-19)
(1.2102 0.0875305 -4.45433e-20)
(1.29087 0.0911193 1.38012e-19)
(1.341 0.088521 6.05965e-20)
(1.36682 0.0812914 -4.70786e-20)
(1.37574 0.0681978 1.20069e-19)
(1.37297 0.0565998 -9.32503e-20)
(1.36663 0.0336942 -6.37327e-19)
(-0.0122576 0.00865147 1.55955e-19)
(-0.0182493 0.0165509 -5.97375e-19)
(-0.00481641 0.0194053 2.94969e-19)
(0.0294341 0.0190593 1.24075e-19)
(0.0864225 0.0175088 -3.66116e-19)
(0.168042 0.0166609 3.59051e-19)
(0.275463 0.0181724 2.02801e-19)
(0.408026 0.0233402 -4.87921e-19)
(0.561785 0.0328484 5.99692e-20)
(0.728287 0.0463913 -9.40936e-20)
(0.894759 0.0624044 2.23204e-19)
(1.04665 0.0782722 -1.68627e-19)
(1.17183 0.0911355 -2.58378e-19)
(1.26409 0.0988335 3.83282e-19)
(1.32401 0.100553 -1.88342e-19)
(1.3571 0.0964114 7.582e-20)
(1.37082 0.0881432 -1.80727e-19)
(1.37218 0.0750847 1.33111e-21)
(1.36556 0.0636461 -1.62498e-19)
(1.35704 0.0422527 1.77696e-19)
(-0.0111831 0.00751444 -3.9054e-20)
(-0.012482 0.0134275 -1.77221e-19)
(0.00860028 0.0152078 -2.01122e-19)
(0.0533209 0.0146033 1.16252e-19)
(0.123419 0.0136919 -3.43197e-20)
(0.220292 0.0144893 2.18811e-19)
(0.343985 0.0186703 1.56729e-19)
(0.491806 0.027364 1.50479e-19)
(0.65683 0.0407828 4.96237e-20)
(0.827341 0.0578301 1.32149e-19)
(0.988492 0.0760828 2.24866e-19)
(1.1263 0.0924533 4.93698e-20)
(1.23191 0.104265 -1.12461e-19)
(1.30357 0.110057 8.58977e-20)
(1.34554 0.109779 2.8132e-19)
(1.36523 0.104202 -5.1012e-19)
(1.37021 0.0950508 1.64105e-19)
(1.36651 0.0821872 1.92221e-19)
(1.35748 0.070619 6.34088e-20)
(1.34754 0.0507766 1.24721e-19)
(-0.00947161 0.00615438 -6.21883e-20)
(-0.00481037 0.00988665 3.86777e-19)
(0.0252089 0.0106936 1.36189e-19)
(0.0816589 0.0101911 -4.1926e-19)
(0.16594 0.0105046 -1.13469e-19)
(0.27864 0.0136944 2.15808e-19)
(0.41819 0.0213271 1.05964e-19)
(0.579295 0.0341532 3.72128e-19)
(0.751759 0.0516542 -1.41485e-20)
(0.921105 0.0717871 1.83218e-20)
(1.07189 0.0913987 -1.90205e-19)
(1.19243 0.107305 -2.99434e-19)
(1.27802 0.117376 -3.23233e-20)
(1.33102 0.120982 -1.88556e-19)
(1.35826 0.118764 1.59108e-19)
(1.36784 0.111924 7.75428e-19)
(1.3667 0.102094 3.03411e-19)
(1.35968 0.0893803 -2.97158e-19)
(1.34917 0.0777897 -1.4718e-19)
(1.33831 0.0591927 5.93774e-20)
(-0.0070605 0.00462843 3.05824e-19)
(0.00492925 0.00609281 -4.70703e-19)
(0.0452188 0.0061308 -4.5145e-19)
(0.11461 0.00618783 6.18922e-19)
(0.213945 0.00838792 1.87209e-19)
(0.342612 0.0147399 -1.16762e-19)
(0.496899 0.0265246 -3.40709e-19)
(0.668458 0.0438586 -4.2609e-19)
(0.84392 0.0652628 2.86998e-19)
(1.0071 0.0877447 5.13301e-20)
(1.14363 0.107723 1.53547e-19)
(1.24538 0.122321 1.26871e-19)
(1.31195 0.130198 -7.73247e-21)
(1.34893 0.131551 -8.51562e-20)
(1.36455 0.127557 -1.71532e-19)
(1.36674 0.119651 -4.65272e-19)
(1.36142 0.109284 -1.83544e-19)
(1.35225 0.0967324 6.12648e-19)
(1.34083 0.0850454 1.01559e-19)
(1.32934 0.0675041 -1.49514e-19)
(-0.00388702 0.00300095 -3.19174e-19)
(0.0168842 0.00223898 3.3135e-19)
(0.0687927 0.00183579 7.78348e-21)
(0.152236 0.0030156 -1.40285e-19)
(0.267214 0.00782718 -4.57898e-20)
(0.411465 0.0180891 -4.06494e-20)
(0.578629 0.034569 -2.50844e-19)
(0.7571 0.056484 3.0522e-19)
(0.930915 0.0812662 -5.08888e-19)
(1.08361 0.105152 1.59762e-21)
(1.20339 0.124529 -9.15058e-20)
(1.28629 0.13717 -4.53264e-20)
(1.33574 0.14262 1.04714e-19)
(1.35952 0.1418 -2.33725e-19)
(1.36629 0.136241 -1.32588e-20)
(1.36323 0.127447 1.28946e-19)
(1.35508 0.116653 -3.172e-19)
(1.34452 0.104213 -2.54829e-21)
(1.33253 0.0924063 5.14017e-22)
(1.3206 0.075755 2.6452e-19)
(0.00011089 0.00134232 4.63472e-20)
(0.0311785 -0.00146071 9.13518e-20)
(0.0960275 -0.00184424 1.8023e-19)
(0.194471 0.00112281 -9.86319e-20)
(0.325318 0.00930547 -3.21197e-19)
(0.48418 0.0241457 8.41732e-20)
(0.661666 0.0456361 1.91818e-19)
(0.843056 0.0718736 1.06371e-19)
(1.01082 0.0992283 3.59073e-19)
(1.14974 0.123494 -9.85901e-20)
(1.25164 0.141432 -5.89325e-20)
(1.31672 0.151676 5.04207e-20)
(1.35141 0.154645 -1.44199e-19)
(1.36468 0.151814 -2.00196e-19)
(1.36488 0.144905 -1.30768e-19)
(1.35814 0.135362 1.07486e-19)
(1.34811 0.124204 2.69191e-19)
(1.33664 0.111822 -1.30649e-19)
(1.32429 0.0998438 -2.03735e-19)
(1.31205 0.0839226 3.08918e-20)
(0.00499144 -0.000270874 8.2828e-20)
(0.0479025 -0.00477621 1.91601e-20)
(0.126936 -0.0045468 -2.42795e-19)
(0.241093 0.000955679 3.23255e-19)
(0.3876 0.0132624 7.24655e-20)
(0.559496 0.0332082 -3.82418e-19)
(0.744184 0.0597471 1.46737e-19)
(0.924385 0.0897379 -1.93452e-19)
(1.08232 0.118684 9.5606e-21)
(1.20534 0.142343 3.18407e-20)
(1.28939 0.158179 9.19777e-20)
(1.33836 0.165783 1.07305e-20)
(1.36076 0.166336 4.05332e-19)
(1.36588 0.161694 1.60212e-19)
(1.36131 0.15362 -7.58352e-20)
(1.35203 0.143428 -8.8161e-20)
(1.34074 0.131933 5.06407e-20)
(1.32867 0.119536 5.2013e-20)
(1.31608 0.10734 -8.63533e-20)
(1.30364 0.0920159 -9.63693e-20)
(0.010804 -0.00175502 -9.713e-20)
(0.0671012 -0.00746519 6.44162e-21)
(0.161431 -0.00590696 4.96595e-20)
(0.291717 0.00293422 -1.36434e-19)
(0.453192 0.020062 2.65294e-19)
(0.635978 0.0454442 1.52495e-19)
(0.824393 0.0767762 -1.558e-19)
(0.999519 0.109704 -1.03324e-19)
(1.1447 0.139195 9.36058e-20)
(1.25081 0.161377 -1.45148e-19)
(1.3179 0.174639 1.08016e-19)
(1.35283 0.179512 -2.16776e-21)
(1.36527 0.177789 3.52579e-21)
(1.36422 0.171533 -7.99292e-20)
(1.35623 0.162442 2.26935e-19)
(1.34521 0.151656 -1.88526e-20)
(1.33308 0.139823 9.6089e-20)
(1.32061 0.127333 -1.38983e-19)
(1.30787 0.114873 1.06497e-19)
(1.2953 0.10002 -4.27981e-20)
(0.0175836 -0.00301921 1.6056e-19)
(0.0887627 -0.00927702 1.94892e-19)
(0.199312 -0.00556893 1.45312e-19)
(0.345786 0.00743258 -2.09211e-20)
(0.521046 0.0299715 3.08111e-20)
(0.712116 0.0608854 2.77568e-21)
(0.900685 0.0964805 3.37834e-19)
(1.06735 0.131369 -1.00308e-19)
(1.1978 0.160388 7.02454e-20)
(1.28695 0.180379 -3.55225e-19)
(1.33853 0.190766 5.19914e-20)
(1.36158 0.192932 1.54947e-19)
(1.36614 0.189102 -7.00361e-20)
(1.3605 0.181405 1.44179e-19)
(1.3501 0.1714 -1.87168e-19)
(1.33789 0.160045 2.54667e-19)
(1.32519 0.147852 8.31487e-21)
(1.31245 0.135187 -8.45728e-20)
(1.29962 0.122421 3.32613e-21)
(1.28699 0.107928 1.27715e-19)
(0.0253456 -0.00396577 -3.04208e-19)
(0.112809 -0.0099577 7.87291e-20)
(0.240262 -0.00319736 -3.00991e-20)
(0.402595 0.0147629 -2.25265e-19)
(0.589992 0.0431493 -8.32774e-20)
(0.786434 0.0794382 -1.61096e-19)
(0.971727 0.11854 -1.39458e-19)
(1.12722 0.154341 -1.50384e-19)
(1.24189 0.181965 1.53961e-19)
(1.31473 0.19922 7.57319e-20)
(1.35258 0.206576 -2.21706e-19)
(1.3658 0.206125 -5.46078e-20)
(1.36427 0.200362 -2.59145e-20)
(1.35526 0.191362 -1.0874e-19)
(1.34317 0.180506 -1.85685e-20)
(1.33015 0.168579 -4.48896e-20)
(1.31707 0.15599 -1.80598e-19)
(1.30415 0.143071 8.78579e-20)
(1.2913 0.129962 1.07765e-19)
(1.27864 0.115725 -2.65987e-20)
(0.0340812 -0.004492 1.13137e-20)
(0.139088 -0.00925668 -1.43101e-19)
(0.283847 0.00151083 6.6915e-20)
(0.461312 0.0251624 -4.67704e-20)
(0.658805 0.0596432 5.81363e-20)
(0.857576 0.100906 2.66045e-19)
(1.03652 0.142597 -1.16198e-19)
(1.17889 0.178269 2.87971e-19)
(1.27751 0.203706 1.39834e-20)
(1.3352 0.217836 1.42202e-19)
(1.36121 0.222114 1.25434e-20)
(1.36648 0.219177 9.76888e-20)
(1.36029 0.211636 2.01865e-20)
(1.34886 0.201432 9.74723e-21)
(1.33559 0.189754 -1.42892e-19)
(1.32202 0.177234 2.5271e-20)
(1.30869 0.164205 1.30366e-19)
(1.29568 0.150957 5.96228e-21)
(1.28286 0.137471 -6.40217e-20)
(1.27023 0.123395 2.6124e-20)
(0.0437542 -0.00449302 3.78905e-20)
(0.167376 -0.00693547 1.17083e-19)
(0.329529 0.00881432 1.27106e-19)
(0.521012 0.0387841 -3.44902e-20)
(0.726271 0.0793958 1.67511e-19)
(0.92438 0.125018 -3.36511e-20)
(1.09441 0.168288 2.74502e-19)
(1.22245 0.20285 -3.47888e-19)
(1.30539 0.225454 -6.16486e-20)
(1.3494 0.23621 -6.14403e-20)
(1.36539 0.23744 -7.38909e-20)
(1.36436 0.232158 -1.75392e-20)
(1.35468 0.222965 2.52569e-20)
(1.34152 0.211622 -9.228e-20)
(1.32745 0.199126 9.51548e-20)
(1.31352 0.18598 -4.14062e-20)
(1.30005 0.172462 -3.21914e-20)
(1.28701 0.158814 -2.93097e-20)
(1.27427 0.144924 -1.83727e-20)
(1.26171 0.130922 -5.90682e-20)
(0.0542993 -0.00386554 1.80229e-19)
(0.197373 -0.00277725 -1.81044e-19)
(0.376679 0.0189157 2.17093e-20)
(0.580722 0.0556909 -2.29158e-20)
(0.791249 0.102256 -6.11861e-20)
(0.985916 0.15145 -1.25947e-19)
(1.14503 0.19526 -1.90157e-20)
(1.2582 0.227834 8.48674e-20)
(1.32629 0.247105 3.88569e-20)
(1.35825 0.254349 -4.74053e-20)
(1.36595 0.252608 5.33482e-20)
(1.35999 0.245116 -1.14941e-20)
(1.34775 0.23437 -1.05986e-19)
(1.33338 0.221922 1.55033e-19)
(1.31878 0.208591 4.309e-20)
(1.30464 0.194779 -2.30143e-20)
(1.29111 0.180723 2.82281e-20)
(1.2781 0.166614 4.36649e-20)
(1.26549 0.152296 4.31419e-20)
(1.25305 0.138285 4.56227e-20)
(0.065622 -0.00251197 -1.88143e-19)
(0.228714 0.00340312 1.51874e-19)
(0.424601 0.0319517 6.69406e-20)
(0.639462 0.0758554 -1.37902e-19)
(0.852716 0.127993 -3.0095e-20)
(1.04149 0.179854 -1.15576e-19)
(1.18829 0.223189 4.62957e-20)
(1.28662 0.253017 -7.69122e-20)
(1.34101 0.268589 5.82153e-21)
(1.36255 0.27227 1.23444e-20)
(1.36351 0.267661 2.34579e-20)
(1.35378 0.258079 -8.88873e-20)
(1.33969 0.245848 9.11947e-20)
(1.3245 0.232304 -6.51171e-20)
(1.30958 0.218112 -1.79491e-20)
(1.29535 0.203591 8.5971e-21)
(1.28184 0.188948 -1.95513e-20)
(1.26894 0.174323 -4.52454e-20)
(1.2565 0.159559 -2.03962e-21)
(1.24421 0.145465 -3.09748e-20)
(0.0775995 -0.000344856 -2.3496e-20)
(0.260975 0.0117499 -7.17107e-20)
(0.472555 0.0479858 -2.4607e-20)
(0.696286 0.0991629 3.95022e-20)
(0.909802 0.156317 -2.50671e-20)
(1.09065 0.209871 2.57168e-20)
(1.22428 0.251779 6.03016e-20)
(1.30824 0.278232 5.35435e-20)
(1.35028 0.289855 4.24768e-20)
(1.36298 0.289986 -9.38679e-21)
(1.35856 0.282624 -2.48275e-20)
(1.34601 0.27105 2.948e-20)
(1.33063 0.257376 -1.45216e-20)
(1.31493 0.24273 1.83587e-20)
(1.29985 0.227643 -1.11734e-20)
(1.28562 0.212372 2.39762e-20)
(1.27221 0.197097 -6.58768e-21)
(1.25948 0.18191 2.82709e-20)
(1.24727 0.166684 -6.77043e-21)
(1.23518 0.152437 4.39473e-21)
(0.0900834 0.00270901 -5.76376e-22)
(0.293689 0.0223586 -3.27011e-22)
(0.519785 0.0670042 -8.67709e-21)
(0.750312 0.125419 4.36547e-20)
(0.961802 0.186889 2.82255e-20)
(1.13313 0.241142 -2.17805e-20)
(1.25325 0.280761 -1.64159e-20)
(1.32364 0.303339 -5.03273e-21)
(1.35476 0.310863 -2.38947e-20)
(1.3601 0.3075 -1.44485e-21)
(1.35148 0.297497 1.01377e-21)
(1.33687 0.284011 -1.03532e-20)
(1.32064 0.268917 -6.67037e-21)
(1.30466 0.253151 -1.51549e-20)
(1.28956 0.237134 -1.61615e-20)
(1.27544 0.221073 -1.37424e-21)
(1.2622 0.205125 5.96588e-21)
(1.24971 0.189339 6.42101e-21)
(1.23778 0.173639 7.45833e-21)
(1.22593 0.159176 1.05787e-20)
(0.102903 0.00670486 2.87502e-20)
(0.326357 0.0352702 -4.6662e-21)
(0.565545 0.088916 -8.19045e-21)
(0.800752 0.15436 2.09741e-20)
(1.00818 0.219339 4.19401e-20)
(1.16883 0.273317 -1.85821e-20)
(1.27552 0.309892 -1.50553e-20)
(1.33339 0.328215 -2.79262e-20)
(1.35502 0.33157 -2.48662e-20)
(1.35435 0.324801 4.74148e-21)
(1.34252 0.312263 -4.17718e-21)
(1.32648 0.296924 -1.71108e-21)
(1.30975 0.280419 -9.7113e-21)
(1.2937 0.26351 -1.54692e-20)
(1.2787 0.246529 -3.39245e-21)
(1.26477 0.229644 -1.23513e-21)
(1.25179 0.212988 -4.84254e-22)
(1.23961 0.196574 3.02795e-21)
(1.22802 0.180388 1.14146e-20)
(1.21647 0.165655 9.03894e-21)
(0.115872 0.0116769 -1.75964e-20)
(0.358468 0.0504677 -2.82205e-20)
(0.609122 0.113556 -3.76369e-20)
(0.84693 0.185661 5.03708e-20)
(1.04855 0.253279 4.76381e-20)
(1.19781 0.306059 3.19855e-22)
(1.29148 0.338951 1.75327e-20)
(1.33799 0.352747 4.85449e-20)
(1.35154 0.351928 5.22749e-20)
(1.34608 0.341857 3.29918e-20)
(1.33188 0.32688 -7.99271e-20)
(1.31492 0.309735 3.29448e-20)
(1.29798 0.291818 -1.42187e-20)
(1.28202 0.273744 3.34071e-20)
(1.26725 0.255769 -7.87622e-22)
(1.25361 0.238032 -5.38361e-21)
(1.24096 0.220641 3.02983e-21)
(1.22916 0.203575 2.65503e-20)
(1.21796 0.186891 -1.05885e-20)
(1.20677 0.171845 -1.05889e-21)
(0.128789 0.0176359 -5.8003e-20)
(0.38951 0.0678753 1.35694e-19)
(0.649858 0.140689 1.3187e-20)
(0.888288 0.218955 -1.72267e-19)
(1.08269 0.288308 -3.07709e-20)
(1.22021 0.339042 7.21751e-20)
(1.30154 0.367729 -1.64877e-19)
(1.33795 0.376823 -9.96412e-22)
(1.34473 0.371878 1.34811e-20)
(1.33554 0.358619 -3.69344e-21)
(1.31969 0.341291 4.20107e-20)
(1.30224 0.322375 -6.70532e-20)
(1.28533 0.303043 1.02502e-20)
(1.26962 0.283784 -2.25912e-20)
(1.25519 0.264793 -1.69753e-20)
(1.24193 0.246182 1.6397e-20)
(1.2297 0.228036 -1.5599e-21)
(1.21835 0.210305 -4.13905e-20)
(1.2076 0.193115 1.67556e-21)
(1.19679 0.177707 -1.75357e-20)
(0.141451 0.0245682 4.35676e-20)
(0.418988 0.0873594 -7.77157e-20)
(0.687164 0.170021 -6.23889e-21)
(0.924388 0.253835 -1.47293e-19)
(1.11048 0.324025 -8.74948e-20)
(1.23624 0.371954 7.12748e-20)
(1.30609 0.396028 -8.20741e-20)
(1.33368 0.400332 8.98449e-21)
(1.33494 0.391347 6.41273e-20)
(1.32295 0.375019 -1.75668e-20)
(1.30606 0.35542 6.89357e-21)
(1.28847 0.334763 2.07942e-20)
(1.2718 0.314016 -6.84237e-20)
(1.25649 0.293557 8.54064e-20)
(1.24251 0.273535 7.7452e-20)
(1.22973 0.254038 -1.83046e-20)
(1.218 0.235124 -2.56692e-20)
(1.20717 0.216723 2.83807e-20)
(1.19695 0.199044 1.54647e-20)
(1.1865 0.183223 3.34573e-20)
(0.15365 0.032435 -1.69461e-19)
(0.44644 0.108732 7.78308e-20)
(0.720534 0.201205 -5.60816e-20)
(0.954912 0.289872 1.53259e-19)
(1.13192 0.360027 1.62144e-20)
(1.24617 0.404497 1.47272e-19)
(1.30555 0.423656 8.98807e-20)