/*--------------------------------*- C++ -*----------------------------------*\
  =========                 |
  \\      /  F ield         | OpenFOAM: The Open Source CFD Toolbox
   \\    /   O peration     | Website:  https://openfoam.org
    \\  /    A nd           | Version:  7
     \\/     M anipulation  |
\*---------------------------------------------------------------------------*/
FoamFile
{
    version     2.0;
    format      ascii;
    class       volVectorField;
    location    "20";
    object      U;
}
// * * * * * * * * * * * * * * * * * * * * * * * * * * * * * * * * * * * * * //

dimensions      [0 1 -1 0 0 0 0];

internalField   nonuniform List<vector> 
433
(
(0.0332448 0.0120964 -2.65584e-21)
(0.0412562 0.0131835 6.97123e-21)
(0.0332448 -0.0120964 2.65584e-21)
(0.0412562 -0.0131835 -6.97123e-21)
(0.05023 -0.0142157 2.2551e-21)
(0.0601795 -0.0151882 8.33276e-21)
(0.0711119 -0.016096 -3.89637e-21)
(0.0830276 -0.0169345 -1.47609e-21)
(0.0959203 -0.0176994 5.71448e-21)
(0.109776 -0.018387 -1.368e-20)
(0.124574 -0.0189938 4.25848e-21)
(0.140284 -0.0195171 7.55925e-21)
(0.15687 -0.0199548 -4.92332e-21)
(0.174287 -0.0203054 -3.25119e-21)
(0.192483 -0.0205685 3.11639e-21)
(0.2114 -0.0207443 3.1697e-21)
(0.230971 -0.0208338 -5.59201e-21)
(0.251127 -0.0208393 3.98671e-21)
(0.271792 -0.0207635 1.23804e-21)
(0.292887 -0.0206104 4.83728e-21)
(0.314331 -0.0203846 6.29917e-21)
(0.33604 -0.0200914 2.32203e-21)
(0.357933 -0.0197368 -6.51158e-21)
(0.379928 -0.0193275 -2.71545e-21)
(0.401946 -0.0188704 9.83274e-21)
(0.423911 -0.0183725 -5.60911e-21)
(0.445755 -0.0178411 -7.27176e-21)
(0.46741 -0.0172833 1.3317e-20)
(0.488818 -0.0167061 -4.48586e-21)
(0.509926 -0.016116 -4.27407e-22)
(0.530689 -0.015519 -2.69159e-22)
(0.551067 -0.0149199 5.21855e-21)
(0.571026 -0.0143231 -1.04154e-20)
(0.0350581 -0.0361901 3.55445e-21)
(0.0432218 -0.0394437 -7.83657e-21)
(0.0523379 -0.0425339 1.96836e-20)
(0.0624191 -0.0454453 2.53926e-21)
(0.0734719 -0.0481636 -1.65736e-20)
(0.0854963 -0.0506748 -5.64898e-21)
(0.0984856 -0.0529662 -1.28105e-20)
(0.112426 -0.0550263 2.76759e-20)
(0.127295 -0.056845 -3.70335e-21)
(0.143064 -0.058414 -5.77183e-21)
(0.159695 -0.0597269 9.70167e-21)
(0.177146 -0.0607795 1.37804e-20)
(0.195362 -0.0615701 -6.50978e-21)
(0.214287 -0.0620993 1.23481e-20)
(0.233856 -0.0623706 -3.44461e-20)
(0.253997 -0.0623901 2.64737e-20)
(0.274637 -0.0621665 -1.97832e-20)
(0.295696 -0.0617111 -9.47704e-21)
(0.317096 -0.0610378 5.75345e-21)
(0.338753 -0.0601627 3.15372e-21)
(0.360586 -0.0591038 2.828e-21)
(0.382515 -0.0578805 8.38524e-21)
(0.404462 -0.0565137 -1.03575e-21)
(0.426353 -0.0550246 2.81296e-22)
(0.448117 -0.0534349 -1.37118e-20)
(0.469692 -0.0517659 3.07766e-20)
(0.491017 -0.0500382 -2.31743e-20)
(0.512041 -0.0482717 8.33228e-21)
(0.532721 -0.0464842 -2.44389e-21)
(0.553017 -0.04469 -4.50294e-21)
(0.572884 -0.0429028 2.71309e-20)
(0.0386648 -0.059987 3.34545e-20)
(0.0471317 -0.065385 -3.85881e-20)
(0.0565312 -0.070513 -1.75768e-21)
(0.0668746 -0.0753457 -5.52318e-21)
(0.0781674 -0.0798592 2.72535e-20)
(0.0904087 -0.0840303 -2.02388e-20)
(0.103591 -0.087838 -1.55223e-20)
(0.117699 -0.0912628 2.05812e-20)
(0.132711 -0.0942882 -1.67945e-20)
(0.148597 -0.0969 1.90073e-20)
(0.165321 -0.0990877 -7.05493e-21)
(0.182837 -0.100844 -1.63463e-20)
(0.201096 -0.102166 -2.78409e-20)
(0.220038 -0.103055 5.35879e-20)
(0.2396 -0.103516 -3.1478e-20)
(0.259713 -0.103559 1.62603e-20)
(0.280303 -0.103198 9.96439e-21)
(0.301293 -0.102452 -3.2566e-20)
(0.322606 -0.101344 3.44011e-20)
(0.344159 -0.0999009 -2.5192e-20)
(0.365875 -0.0981513 -1.26709e-20)
(0.387674 -0.0961281 -1.94545e-20)
(0.40948 -0.0938656 3.35075e-21)
(0.431221 -0.0913991 3.35417e-20)
(0.45283 -0.0887644 1.96179e-20)
(0.474243 -0.0859969 -1.83985e-20)
(0.495403 -0.0831309 -1.49711e-20)
(0.51626 -0.0801992 -5.7287e-20)
(0.536774 -0.0772315 4.46649e-20)
(0.556909 -0.0742513 -7.95549e-20)
(0.576592 -0.071284 7.14389e-20)
(0.0529437 -0.090798 1.69749e-20)
(0.0627652 -0.0979305 -8.69456e-20)
(0.0734994 -0.104655 7.46472e-20)
(0.08515 -0.110938 -1.00325e-20)
(0.0977148 -0.116748 -4.07694e-20)
(0.111185 -0.122055 1.15404e-20)
(0.125544 -0.126832 1.50113e-20)
(0.14077 -0.131055 5.34512e-20)
(0.156832 -0.134705 -5.85791e-20)
(0.173694 -0.137767 4.54661e-20)
(0.191311 -0.14023 1.24908e-20)
(0.209633 -0.14209 1.11676e-21)
(0.228603 -0.143349 -3.74707e-20)
(0.248157 -0.144012 2.92477e-20)
(0.268229 -0.144094 -3.78672e-20)
(0.288747 -0.143614 5.29238e-20)
(0.309636 -0.142597 -3.72186e-20)
(0.33082 -0.141076 5.0238e-20)
(0.352221 -0.139086 3.98351e-20)
(0.373763 -0.136669 -5.8754e-20)
(0.395369 -0.133869 1.05314e-19)
(0.416967 -0.130734 -8.73519e-20)
(0.438487 -0.127313 4.55844e-20)
(0.459864 -0.123655 -1.95829e-20)
(0.481038 -0.119811 -1.9241e-20)
(0.501953 -0.115827 7.43393e-21)
(0.522562 -0.111749 -7.44457e-20)
(0.54283 -0.107618 2.71118e-20)
(0.562724 -0.103467 9.72389e-20)
(0.582137 -0.099336 -8.89233e-20)
(0.0605948 -0.115479 7.12962e-20)
(0.0709733 -0.124569 -5.41196e-20)
(0.0822236 -0.133145 -4.21096e-20)
(0.0943473 -0.141163 4.97979e-20)
(0.10734 -0.148582 -4.75115e-20)
(0.121191 -0.155364 7.9759e-20)
(0.135884 -0.161474 -1.77772e-20)
(0.151394 -0.166883 -1.17739e-20)
(0.167691 -0.171564 9.82921e-21)
(0.184738 -0.175499 -3.766e-20)
(0.202491 -0.178674 4.97315e-20)
(0.2209 -0.181081 7.87708e-21)
(0.239908 -0.182722 3.56213e-20)
(0.259456 -0.183606 -8.90342e-20)
(0.279477 -0.183748 9.63536e-21)
(0.299903 -0.183173 3.58164e-20)
(0.320661 -0.181914 -1.08589e-19)
(0.341678 -0.180008 8.71972e-20)
(0.362881 -0.177503 -1.87414e-20)
(0.384196 -0.17445 -9.34835e-21)
(0.40555 -0.170906 2.03278e-20)
(0.426875 -0.166931 -5.0557e-21)
(0.448105 -0.162587 -1.73945e-20)
(0.469179 -0.157938 -2.61454e-21)
(0.490039 -0.153045 -6.53012e-20)
(0.510633 -0.147971 3.83729e-20)
(0.530916 -0.142774 5.01284e-20)
(0.550859 -0.137504 -2.56774e-20)
(0.570437 -0.132203 -2.14191e-20)
(0.589495 -0.126931 5.87397e-20)
(0.0810675 -0.15022 -3.31402e-20)
(0.0929551 -0.160594 -3.56942e-22)
(0.105664 -0.170301 2.57651e-20)
(0.119186 -0.179291 -6.2969e-20)
(0.13351 -0.187518 5.70251e-20)
(0.148617 -0.194939 -2.80613e-20)
(0.164481 -0.201517 -5.01442e-21)
(0.181072 -0.207221 -9.01712e-21)
(0.198351 -0.212027 -2.61484e-20)
(0.216276 -0.215917 1.10596e-19)
(0.234796 -0.218883 -6.6468e-20)
(0.253858 -0.220925 -7.66967e-20)
(0.273403 -0.222051 9.10834e-20)
(0.293366 -0.222281 -9.48656e-20)
(0.313683 -0.221643 1.16572e-19)
(0.334284 -0.220175 1.09788e-20)
(0.355101 -0.217923 -1.02257e-19)
(0.376063 -0.214942 6.72951e-20)
(0.397102 -0.211294 -1.52332e-20)
(0.41815 -0.207047 -8.55557e-20)
(0.439142 -0.202273 5.59377e-20)
(0.460018 -0.197047 -1.07101e-19)
(0.48072 -0.191445 3.28336e-20)
(0.501195 -0.185544 5.50459e-20)
(0.521395 -0.179416 1.3272e-20)
(0.541278 -0.173132 -2.06825e-20)
(0.560824 -0.166754 1.31536e-19)
(0.580014 -0.16033 2.33983e-20)
(0.598636 -0.153947 -2.43564e-20)
(0.10558 -0.186791 4.31395e-20)
(0.118981 -0.198133 -2.79133e-20)
(0.133132 -0.208648 7.43169e-22)
(0.148018 -0.218281 4.92012e-20)
(0.163617 -0.226984 -6.28658e-20)
(0.179905 -0.234713 -5.50168e-20)
(0.196847 -0.241429 1.03551e-19)
(0.214407 -0.247103 -2.65684e-20)
(0.232541 -0.251715 6.03932e-20)
(0.2512 -0.255252 -5.10433e-20)
(0.270332 -0.257714 -8.02014e-20)
(0.28988 -0.25911 1.67842e-19)
(0.309783 -0.25946 -6.49779e-20)
(0.329978 -0.258797 -4.50257e-20)
(0.350402 -0.257161 3.56246e-20)
(0.370988 -0.254608 -2.89842e-21)
(0.391673 -0.251199 -1.47612e-20)
(0.412392 -0.247006 2.6952e-20)
(0.433084 -0.242106 -7.90945e-21)
(0.453689 -0.236583 2.20945e-20)
(0.474151 -0.230525 -7.08284e-20)
(0.494419 -0.224019 6.48292e-20)
(0.514444 -0.217154 5.83149e-20)
(0.534183 -0.210016 -1.23402e-19)
(0.553596 -0.202687 1.17194e-19)
(0.572676 -0.195238 -1.03447e-19)
(0.591411 -0.187725 -2.93188e-20)
(0.609525 -0.180264 -6.30747e-20)
(0.119965 -0.211536 9.70982e-20)
(0.13416 -0.224448 1.57445e-20)
(0.149033 -0.236434 -1.54185e-19)
(0.164566 -0.247431 5.73125e-20)
(0.180736 -0.257382 -3.94394e-20)
(0.197514 -0.266237 5.88557e-20)
(0.214867 -0.273951 -5.53001e-20)
(0.232756 -0.280491 1.06025e-19)
(0.251138 -0.28583 -6.04297e-20)
(0.269966 -0.289954 -1.25427e-20)
(0.289188 -0.292859 2.3893e-20)
(0.308749 -0.294555 1.04443e-19)
(0.328592 -0.295063 -1.28061e-19)
(0.348659 -0.294417 1.77899e-20)
(0.368889 -0.292664 3.90222e-20)
(0.389221 -0.289861 -8.86755e-20)
(0.409598 -0.28608 7.25405e-20)
(0.42996 -0.281398 1.25615e-19)
(0.450251 -0.275904 -1.05033e-20)
(0.47042 -0.269692 -2.24962e-19)
(0.490415 -0.26286 1.1953e-19)
(0.510193 -0.255506 -8.40455e-20)
(0.529709 -0.247733 -3.96884e-20)
(0.548925 -0.239637 1.57204e-19)
(0.567807 -0.231312 -8.64671e-20)
(0.586357 -0.222836 -1.44959e-20)
(0.604576 -0.214271 1.34211e-19)
(0.622116 -0.205773 -8.20152e-20)
(0.151042 -0.249052 5.40213e-20)
(0.166726 -0.262447 -9.64926e-20)
(0.182988 -0.274757 1.39592e-19)
(0.199802 -0.285918 9.78914e-21)
(0.217137 -0.295872 -1.0733e-19)
(0.234958 -0.304568 1.02358e-20)
(0.253226 -0.311968 5.40094e-20)
(0.271898 -0.318039 1.58245e-20)
(0.290925 -0.322766 -4.36652e-20)
(0.31026 -0.32614 7.6122e-20)
(0.32985 -0.32817 -5.50539e-20)
(0.34964 -0.328878 -5.08516e-20)
(0.369575 -0.328298 7.2759e-20)
(0.389601 -0.326481 -1.17685e-19)
(0.409662 -0.32349 -8.50721e-21)
(0.429706 -0.319398 -2.23634e-20)
(0.449679 -0.314295 2.77176e-19)
(0.469535 -0.308274 -9.9196e-20)
(0.489225 -0.301439 -4.26223e-23)
(0.508708 -0.293899 -7.29845e-20)
(0.527945 -0.285764 -2.00324e-20)
(0.546901 -0.277144 -1.13115e-19)
(0.565539 -0.26815 -4.3208e-20)
(0.583834 -0.258885 8.52584e-20)
(0.601798 -0.249434 -1.65638e-20)
(0.619446 -0.239861 8.29266e-20)
(0.636355 -0.230371 -6.46583e-20)
(0.186027 -0.2865 6.27638e-20)
(0.203095 -0.300066 -6.26531e-20)
(0.220625 -0.312392 -5.02312e-20)
(0.238581 -0.323413 6.58453e-20)
(0.256927 -0.333073 -4.06568e-20)
(0.275624 -0.341326 3.62745e-20)
(0.294627 -0.348136 7.14725e-21)
(0.31389 -0.353481 -1.44383e-20)
(0.333365 -0.357351 7.56773e-21)
(0.353001 -0.359753 -1.496e-21)
(0.372749 -0.360706 6.76284e-20)
(0.392557 -0.360247 2.15155e-20)
(0.412376 -0.358426 -2.18924e-19)
(0.432155 -0.355311 2.38522e-19)
(0.451848 -0.350981 -1.32155e-19)
(0.47141 -0.345528 -3.45569e-20)
(0.4908 -0.339055 1.76459e-20)
(0.509978 -0.331674 4.67001e-20)
(0.528911 -0.323502 -4.23538e-20)
(0.547566 -0.314658 1.68545e-19)
(0.565916 -0.305264 4.26438e-20)
(0.583931 -0.295439 7.54531e-20)
(0.60159 -0.285298 -6.0412e-20)
(0.61892 -0.274929 1.22494e-19)
(0.635951 -0.2644 -1.12235e-20)
(0.242993 -0.336624 -3.72809e-20)
(0.261633 -0.348677 8.60196e-20)
(0.280561 -0.359278 -1.66171e-19)
(0.299736 -0.368375 1.56465e-20)
(0.319115 -0.375928 6.5243e-20)
(0.33865 -0.381908 1.14859e-19)
(0.358296 -0.386303 -9.70618e-20)
(0.378004 -0.389115 -1.94615e-22)
(0.397726 -0.390362 -1.04549e-19)
(0.417417 -0.390081 1.56733e-19)
(0.437031 -0.388323 1.16557e-20)
(0.456525 -0.385156 -1.78193e-20)
(0.475858 -0.380663 -1.86045e-20)
(0.494993 -0.374941 1.54075e-20)
(0.513896 -0.368099 -1.07414e-19)
(0.532537 -0.360256 -1.07146e-20)
(0.550889 -0.351535 -9.00618e-20)
(0.56893 -0.342065 8.27634e-20)
(0.586638 -0.331976 -1.2277e-19)
(0.286063 -0.371497 9.37671e-20)
(0.305628 -0.383013 -5.97743e-20)
(0.325333 -0.392943 -5.44974e-20)
(0.345132 -0.401241 1.54707e-19)
(0.36498 -0.407872 -1.20326e-19)
(0.384831 -0.41282 -1.05508e-20)
(0.404639 -0.416083 6.114e-21)
(0.424359 -0.417677 -4.92112e-20)
(0.443949 -0.417635 1.36726e-19)
(0.463369 -0.416009 -9.92018e-20)
(0.482581 -0.412867 4.19048e-20)
(0.501552 -0.408294 -3.62896e-20)
(0.520253 -0.402391 1.16143e-19)
(0.538657 -0.39527 -4.7915e-21)
(0.331883 -0.404129 3.71077e-20)
(0.352167 -0.414878 5.75578e-20)
(0.372434 -0.423921 -1.20661e-19)
(0.392637 -0.431219 5.31568e-20)
(0.412731 -0.436748 -5.21541e-20)
(0.432672 -0.440503 -1.20777e-20)
(0.452418 -0.442496 5.34624e-20)
(0.47193 -0.442757 7.47346e-21)
(0.491173 -0.441335 -9.15795e-21)
(0.510116 -0.438299 -8.04729e-20)
(0.379978 -0.434048 -1.11863e-19)
(0.40076 -0.443834 1.78796e-19)
(0.421364 -0.45181 -1.1127e-19)
(0.441743 -0.457948 7.66818e-20)
(0.461855 -0.462236 -3.2476e-20)
(0.99986 -0.003086 1.32435e-20)
(0.991033 -0.00963251 4.93196e-21)
(0.975114 -0.0175406 -1.88769e-22)
(0.999863 -0.00275964 -2.83391e-20)
(0.991014 -0.00862322 -4.82589e-21)
(0.974978 -0.0157066 1.00706e-20)
(0.952605 -0.025165 -2.76966e-20)
(0.923649 -0.0375339 -6.82851e-21)
(0.888665 -0.0551624 2.28825e-20)
(0.845821 -0.0785437 8.9984e-21)
(0.798344 -0.110597 -1.7638e-20)
(0.74129 -0.154771 1.62875e-20)
(0.682022 -0.203756 1.18332e-20)
(0.999865 -0.00243367 3.97132e-21)
(0.990998 -0.0076234 1.68944e-20)
(0.974861 -0.013868 -1.83611e-20)
(0.952344 -0.022232 1.46556e-20)
(0.923021 -0.0331618 1.1134e-20)
(0.8875 -0.0487545 -1.41527e-20)
(0.843604 -0.0695404 -1.83737e-20)
(0.79426 -0.0979443 -1.24005e-20)
(0.734658 -0.137581 2.43256e-20)
(0.670393 -0.181745 7.53031e-21)
(0.999867 -0.00210813 1.31535e-20)
(0.990987 -0.00661341 -7.96647e-21)
(0.974762 -0.0120255 1.27662e-20)
(0.952122 -0.0192883 -3.61764e-21)
(0.92248 -0.0287735 -8.72389e-22)
(0.886488 -0.0423137 2.73811e-21)
(0.841688 -0.0604509 8.36146e-21)
(0.790675 -0.0851563 2.53156e-20)
(0.728867 -0.120002 -1.41259e-20)
(0.660163 -0.159022 -1.32797e-20)
(0.999869 -0.00178298 -7.07406e-21)
(0.990978 -0.00559882 -3.1662e-21)
(0.974678 -0.01018 4.45262e-21)
(0.951936 -0.0163356 1.62519e-21)
(0.922022 -0.0243712 3.15731e-21)
(0.885625 -0.0358458 -1.26219e-21)
(0.840065 -0.0512848 -4.05611e-22)
(0.787594 -0.0722518 -3.01886e-21)
(0.723912 -0.102089 -1.25888e-20)
(0.651354 -0.135665 -1.52914e-20)
(0.999871 -0.00145821 3.15791e-22)
(0.990971 -0.00458276 -5.10096e-21)
(0.974609 -0.00833207 -6.6949e-21)
(0.951783 -0.0133753 3.87529e-21)
(0.921644 -0.0199568 -7.47944e-21)
(0.884908 -0.0293561 1.2988e-20)
(0.838726 -0.0420526 -6.95147e-21)
(0.785019 -0.0592492 1.06039e-21)
(0.719785 -0.0838985 1.26829e-20)
(0.643985 -0.111761 -2.68702e-20)
(0.999872 -0.00113377 -2.34788e-21)
(0.990966 -0.00356561 7.41606e-21)
(0.974555 -0.00648229 1.42538e-21)
(0.951663 -0.0104091 -5.74023e-21)
(0.921345 -0.0155325 4.53888e-22)
(0.884335 -0.0228493 -6.96431e-21)
(0.837664 -0.0327655 -1.60759e-21)
(0.782956 -0.0461663 9.41712e-21)
(0.716486 -0.0654835 -3.25712e-21)
(0.638072 -0.0874032 1.046e-20)
(0.999873 -0.000809624 4.65258e-21)
(0.990962 -0.00254752 -3.3251e-21)
(0.974515 -0.00463113 -1.62539e-21)
(0.951573 -0.00743829 5.36456e-21)
(0.921122 -0.0111003 -3.91353e-21)
(0.883906 -0.0163297 3.37195e-21)
(0.836872 -0.0234351 5.00969e-21)
(0.781405 -0.0330207 -1.43594e-21)
(0.714011 -0.0468959 8.38701e-22)
(0.633626 -0.0626884 -1.06982e-20)
(0.999874 -0.000485687 -2.80553e-21)
(0.99096 -0.00152876 2.58946e-21)
(0.974488 -0.00277904 -2.98661e-22)
(0.951514 -0.00446425 -1.36882e-21)
(0.920975 -0.00666245 4.22053e-22)
(0.88362 -0.00980131 1.583e-21)
(0.836347 -0.0140736 -6.35711e-21)
(0.78037 -0.0198304 -8.87748e-22)
(0.712362 -0.0281861 2.85255e-21)
(0.630657 -0.0377164 1.85143e-21)
(0.999874 -0.000161881 1.86548e-21)
(0.990959 -0.00050963 -1.12846e-21)
(0.974475 -0.000926408 2.45619e-23)
(0.951485 -0.0014883 -1.07377e-21)
(0.920901 -0.0022212 8.84341e-22)
(0.883477 -0.00326768 1.08478e-22)
(0.836085 -0.0046933 1.35218e-22)
(0.779853 -0.00661314 1.73427e-21)
(0.711537 -0.00940343 4.80434e-22)
(0.629171 -0.0125894 -2.05654e-21)
)
;

boundaryField
{
    inlet
    {
        type            uniformFixedValue;
        uniformValue    constant (1 0 0);
        value           uniform (1 0 0);
    }
    outlet
    {
        type            pressureInletOutletVelocity;
        value           nonuniform 0();
    }
    cylinder
    {
        type            fixedValue;
        value           nonuniform 0();
    }
    top
    {
        type            symmetryPlane;
    }
    bottom
    {
        type            symmetryPlane;
    }
    defaultFaces
    {
        type            empty;
    }
    procBoundary12to6
    {
        type            processor;
        value           nonuniform List<vector> 
35
(
(0.652179 -0.253968 8.09547e-20)
(0.603992 -0.321397 7.2175e-20)
(0.620976 -0.310452 3.2436e-21)
(0.637631 -0.299231 -1.36479e-19)
(0.652179 -0.253968 8.09547e-20)
(0.654006 -0.287802 1.11337e-19)
(0.556744 -0.387055 1.06434e-19)
(0.574494 -0.377878 -2.16324e-19)
(0.591896 -0.367873 2.32421e-20)
(0.603992 -0.321397 7.2175e-20)
(0.608935 -0.357178 -4.6341e-20)
(0.528732 -0.433734 3.44936e-20)
(0.547 -0.427742 -1.26364e-20)
(0.556744 -0.387055 1.06434e-19)
(0.564901 -0.420439 3.46807e-20)
(0.481661 -0.464681 -1.90898e-20)
(0.501124 -0.465309 -6.84198e-20)
(0.520216 -0.464168 -4.44223e-20)
(0.528732 -0.433734 3.44936e-20)
(0.538909 -0.461322 9.8264e-20)
(0.450891 -0.46953 3.31733e-20)
(0.4716 -0.476301 -4.6979e-20)
(0.481661 -0.464681 -1.90898e-20)
(0.491926 -0.48116 8.57591e-20)
(0.999857 -0.00341263 -8.35469e-21)
(0.991057 -0.0106504 1.45441e-20)
(0.97527 -0.0193692 3.89267e-21)
(0.952906 -0.0280855 -1.75858e-20)
(0.952906 -0.0280855 -1.75858e-20)
(0.924368 -0.0418876 -9.49345e-21)
(0.889987 -0.0615312 7.49079e-21)
(0.848352 -0.0874518 -9.00472e-21)
(0.802924 -0.123094 9.71458e-21)
(0.748776 -0.171512 9.34291e-21)
(0.695022 -0.224983 -2.5393e-20)
)
;
    }
    procBoundary12to13
    {
        type            processor;
        value           nonuniform List<vector> 
26
(
(0.0261773 -0.0109598 1.79904e-21)
(0.0278289 -0.0327883 5.72108e-21)
(0.0311138 -0.0543445 -4.05571e-22)
(0.0440254 -0.0832926 -3.03806e-20)
(0.0440254 -0.0832926 -3.03806e-20)
(0.051081 -0.105917 8.88348e-21)
(0.0700018 -0.139229 -2.43044e-20)
(0.0700018 -0.139229 -2.43044e-20)
(0.0929393 -0.174681 1.17419e-19)
(0.0929393 -0.174681 1.17419e-19)
(0.106461 -0.197763 2.65646e-20)
(0.135956 -0.234642 8.25845e-20)
(0.135956 -0.234642 8.25845e-20)
(0.169447 -0.271765 1.24339e-20)
(0.169447 -0.271765 1.24339e-20)
(0.206733 -0.308423 -3.13288e-20)
(0.224681 -0.323183 -3.31714e-20)
(0.224681 -0.323183 -3.31714e-20)
(0.26668 -0.358452 1.07929e-19)
(0.26668 -0.358452 1.07929e-19)
(0.311627 -0.391727 2.48688e-20)
(0.311627 -0.391727 2.48688e-20)
(0.359064 -0.422498 1.4306e-21)
(0.359064 -0.422498 1.4306e-21)
(0.408495 -0.450344 -1.59864e-19)
(0.42984 -0.460866 9.83935e-20)
)
;
    }
    procBoundary12to18
    {
        type            processor;
        value           nonuniform List<vector> 
42
(
(0.0350581 0.0361901 -3.26826e-21)
(0.0432218 0.0394437 9.57075e-21)
(0.05023 0.0142157 7.00947e-21)
(0.05023 0.0142157 7.00947e-21)
(0.0601795 0.0151882 -7.06969e-21)
(0.0711119 0.016096 3.60609e-21)
(0.0830276 0.0169345 9.89873e-22)
(0.0959203 0.0176994 -4.50536e-21)
(0.109776 0.018387 1.15105e-20)
(0.124574 0.0189938 -2.78946e-21)
(0.140284 0.0195171 -6.86314e-21)
(0.15687 0.0199548 6.30779e-21)
(0.174287 0.0203054 5.79631e-21)
(0.192483 0.0205685 -8.87068e-21)
(0.2114 0.0207443 -3.35963e-21)
(0.230971 0.0208338 9.82055e-21)
(0.251127 0.0208393 8.30417e-22)
(0.271792 0.0207635 2.63784e-21)
(0.292887 0.0206104 -2.27239e-21)
(0.314331 0.0203845 1.03498e-21)
(0.33604 0.0200914 7.01151e-21)
(0.357933 0.0197368 7.11435e-21)
(0.379928 0.0193275 -9.51341e-21)
(0.401946 0.0188704 -5.74302e-21)
(0.423911 0.0183725 7.08381e-21)
(0.445755 0.0178411 6.3084e-21)
(0.46741 0.0172833 -1.66222e-20)
(0.488818 0.0167061 -2.68997e-21)
(0.509926 0.016116 4.69916e-21)
(0.530689 0.015519 1.32458e-21)
(0.551067 0.0149199 2.4651e-21)
(0.571026 0.0143231 -5.83729e-21)
(0.999874 0.00016188 1.87114e-21)
(0.990959 0.000509628 -1.18024e-21)
(0.974475 0.000926404 6.4387e-23)
(0.951485 0.00148829 -8.89092e-22)
(0.920901 0.00222119 2.40467e-22)
(0.883477 0.00326767 4.07386e-22)
(0.836085 0.00469329 1.13473e-21)
(0.779853 0.00661313 9.99191e-22)
(0.711537 0.00940342 -6.23423e-22)
(0.629171 0.0125894 -5.38185e-22)
)
;
    }
    procBoundary12to19
    {
        type            processor;
        value           uniform (0.0261773 0.0109598 -2.79253e-21);
    }
}


// ************************************************************************* //
