/*--------------------------------*- C++ -*----------------------------------*\
  =========                 |
  \\      /  F ield         | OpenFOAM: The Open Source CFD Toolbox
   \\    /   O peration     | Website:  https://openfoam.org
    \\  /    A nd           | Version:  7
     \\/     M anipulation  |
\*---------------------------------------------------------------------------*/
FoamFile
{
    version     2.0;
    format      ascii;
    class       volVectorField;
    location    "10";
    object      U;
}
// * * * * * * * * * * * * * * * * * * * * * * * * * * * * * * * * * * * * * //

dimensions      [0 1 -1 0 0 0 0];

internalField   nonuniform List<vector> 
433
(
(-0.0352687 0.000928884 5.93263e-21)
(-0.0363308 0.000853343 -7.34149e-21)
(-0.0373239 0.000785111 2.46792e-21)
(-0.0382549 0.000726149 2.07158e-22)
(-0.0391313 0.000678158 1.35507e-22)
(-0.0399617 0.000643166 -3.08428e-21)
(-0.0407904 0.000623667 5.97596e-21)
(-0.0239451 0.00461231 -6.24075e-21)
(-0.0253931 0.00441881 3.48668e-21)
(-0.0268017 0.00420479 -6.63576e-21)
(-0.0281604 0.00397392 -6.43274e-21)
(-0.0294596 0.00373042 -1.78837e-21)
(-0.0306911 0.00347908 -6.02594e-21)
(-0.0318483 0.00322522 3.59751e-21)
(-0.0329265 0.00297464 -9.58594e-22)
(-0.0339237 0.00273354 7.54708e-21)
(-0.0348407 0.0025084 -1.71461e-20)
(-0.0356818 0.00230567 1.29705e-20)
(-0.0364545 0.00213136 -4.70122e-21)
(-0.0371661 0.00199076 1.48677e-21)
(-0.0378225 0.00189037 2.75105e-21)
(-0.0384776 0.00183748 -1.56147e-20)
(-0.0230288 0.00750494 1.38244e-21)
(-0.0243046 0.00718116 1.67016e-20)
(-0.0255268 0.00682366 -1.77401e-20)
(-0.0266846 0.0064386 1.30499e-20)
(-0.0277683 0.00603305 6.63627e-21)
(-0.0287694 0.00561505 1.03521e-20)
(-0.0296811 0.00519356 -1.72609e-21)
(-0.0304988 0.00477841 -1.83861e-20)
(-0.0312207 0.00438012 -1.1014e-20)
(-0.0318477 0.00400972 1.02354e-20)
(-0.032385 0.00367828 8.43183e-21)
(-0.0328415 0.00339617 3.31124e-20)
(-0.0332239 0.0031729 -2.58118e-20)
(-0.0335322 0.00302064 4.72506e-20)
(-0.0338401 0.00295115 -4.16038e-20)
(-0.0226368 0.0096731 -2.21746e-20)
(-0.0235794 0.00917101 -2.64074e-20)
(-0.0244362 0.00863136 -2.12599e-20)
(-0.0251969 0.00806417 3.16512e-20)
(-0.0258526 0.00748081 -5.71004e-20)
(-0.0263965 0.00689405 4.76875e-20)
(-0.026824 0.0063179 -2.51605e-20)
(-0.0271332 0.0057675 1.07525e-20)
(-0.0273257 0.0052588 1.10207e-20)
(-0.027408 0.00480792 -4.17359e-21)
(-0.0273911 0.00443009 4.34552e-20)
(-0.0272804 0.00413989 -1.56042e-20)
(-0.0270673 0.00395699 -5.82154e-20)
(-0.026853 0.00389776 5.26501e-20)
(-0.0203475 0.0117963 7.68356e-21)
(-0.0209174 0.0111482 -4.70286e-20)
(-0.021373 0.0104535 9.8096e-21)
(-0.0217034 0.00972527 4.9136e-21)
(-0.0218993 0.00897832 -1.14303e-20)
(-0.0219534 0.00822937 2.39975e-21)
(-0.0218612 0.00749697 9.68389e-21)
(-0.0216211 0.00680124 1.41213e-21)
(-0.0212354 0.00616353 3.82377e-20)
(-0.0207122 0.0056056 -2.18654e-20)
(-0.0200655 0.00514807 -2.9758e-20)
(-0.0193001 0.00481147 1.53599e-20)
(-0.018394 0.00462501 1.30281e-20)
(-0.0174785 0.00460884 -3.58441e-20)
(-0.0173797 0.0134623 -3.48878e-20)
(-0.0174837 0.0126667 5.66589e-20)
(-0.0174381 0.0118166 -3.74164e-20)
(-0.0172312 0.0109281 8.41794e-21)
(-0.016853 0.0100198 4.88537e-20)
(-0.016296 0.00911244 -3.18786e-20)
(-0.0155553 0.00822951 6.22756e-20)
(-0.0146297 0.00739667 -1.93957e-20)
(-0.0135227 0.00664145 -3.24949e-20)
(-0.0122443 0.0059921 -7.8128e-21)
(-0.0108131 0.00547563 1.29233e-20)
(-0.00923468 0.00512034 -8.09159e-20)
(-0.00747099 0.00496946 -1.50659e-20)
(-0.00568066 0.00504257 1.4188e-20)
(-0.0132063 0.0136511 -1.05453e-20)
(-0.0125595 0.0126456 8.96966e-21)
(-0.0117086 0.0115981 -1.53476e-20)
(-0.0106427 0.010531 4.58941e-21)
(-0.00935338 0.00946945 -1.31142e-20)
(-0.00783578 0.00844224 4.25955e-20)
(-0.00608888 0.00748123 -3.89208e-20)
(-0.00411699 0.0066211 -3.61708e-20)
(-0.00193298 0.00589785 7.55149e-20)
(0.000440157 0.00534642 -7.2783e-20)
(0.00299719 0.00500593 6.50737e-20)
(0.00579057 0.00493826 1.85697e-20)
(0.00859934 0.00515136 3.95315e-20)
(-0.00799743 0.0140424 5.97639e-20)
(-0.0066498 0.0128822 -4.30098e-20)
(-0.00504852 0.0116777 -7.57933e-20)
(-0.00318164 0.0104549 6.26483e-21)
(-0.00103996 0.00924374 1.38092e-19)
(0.00138207 0.00807854 -7.43997e-20)
(0.00408535 0.00699809 5.28516e-20)
(0.00706459 0.00604526 2.55299e-20)
(0.0103039 0.00526524 -9.99127e-20)
(0.0137748 0.00470285 5.59125e-20)
(0.0174724 0.00441113 1.01818e-20)
(0.021463 0.00447507 -8.75859e-20)
(0.0254468 0.00488948 5.29581e-20)
(0.000394563 0.0124888 6.97287e-20)
(0.00285204 0.0111306 -1.75616e-19)
(0.00563212 0.00975636 6.33991e-20)
(0.00874525 0.00840069 1.13043e-22)
(0.0121979 0.00710386 4.69984e-20)
(0.0159911 0.00591217 1.33283e-20)
(0.0201189 0.00487789 7.49288e-20)
(0.024562 0.00405723 2.88892e-20)
(0.0292855 0.00350752 -5.59109e-20)
(0.0342833 0.00330019 1.15428e-20)
(0.0396369 0.00355171 -5.68214e-20)
(0.0449603 0.00424624 4.35906e-20)
(0.0121124 0.00994553 4.28503e-20)
(0.0159168 0.00842618 -1.18675e-20)
(0.0201189 0.00693256 -3.1149e-20)
(0.0247263 0.00551088 2.92697e-20)
(0.0297412 0.00421546 -1.13856e-19)
(0.0351568 0.00310906 -2.92073e-20)
(0.040951 0.00226092 -5.26432e-20)
(0.0470814 0.00174398 4.2243e-20)
(0.0535402 0.00165394 -8.49992e-20)
(0.060425 0.00215042 7.59562e-21)
(0.0672533 0.00320828 2.88579e-20)
(0.0228684 0.00814012 -2.67331e-20)
(0.027807 0.00648583 7.55916e-20)
(0.0332134 0.00486368 8.23749e-21)
(0.0390974 0.00332545 6.50138e-20)
(0.0454624 0.00193345 -5.88582e-20)
(0.0523025 0.0007617 8.80502e-20)
(0.0595927 -0.000105707 -6.8566e-20)
(0.0672834 -0.000576891 1.93363e-20)
(0.0753648 -0.000524875 9.93906e-20)
(0.0839524 0.000267487 -1.25065e-19)
(0.0924542 0.00176848 1.40424e-20)
(0.0414539 0.00399127 -1.26132e-20)
(0.0481775 0.00225546 -8.98529e-20)
(0.055456 0.000612719 1.17368e-19)
(0.0632956 -0.00086747 -3.11706e-20)
(0.0716921 -0.00209992 9.54794e-21)
(0.0806193 -0.00298463 -2.28415e-20)
(0.0900214 -0.00340773 -1.39577e-19)
(0.099887 -0.00320312 9.82727e-20)
(0.110353 -0.00207892 9.18076e-21)
(0.120703 -6.8896e-05 -6.21547e-20)
(0.0651758 -0.000789625 3.41108e-20)
(0.0739624 -0.00251704 -1.00371e-19)
(0.0833949 -0.00407221 1.18611e-19)
(0.0934728 -0.00536043 2.04332e-22)
(0.104171 -0.00626634 -6.91049e-20)
(0.11543 -0.00665238 3.13294e-20)
(0.12724 -0.00630579 1.27601e-19)
(0.139762 -0.00484255 -1.18127e-19)
(0.152145 -0.00229937 -8.99495e-20)
(0.0947923 -0.00590442 -3.90168e-20)
(0.105928 -0.00750963 -8.62699e-21)
(0.117802 -0.00884191 -6.55601e-21)
(0.130394 -0.00977366 8.7784e-20)
(0.143644 -0.0101442 -4.2393e-20)
(0.157545 -0.00968756 -9.78677e-20)
(0.172282 -0.00790603 1.32361e-19)
(0.186849 -0.00481528 -1.22716e-19)
(0.131082 -0.0109503 -3.1369e-19)
(0.144857 -0.0122971 9.75726e-20)
(0.159452 -0.0132508 8.97028e-20)
(0.174817 -0.0136336 -1.32985e-19)
(0.190961 -0.0131225 6.98989e-20)
(0.20811 -0.0110743 -1.2603e-19)
(0.225103 -0.00744333 4.91762e-20)
(0.174827 -0.0154086 -1.1996e-19)
(0.191516 -0.0163536 -6.51909e-20)
(0.209092 -0.0167715 -3.12068e-20)
(0.227602 -0.0162952 -2.61946e-20)
(0.226799 -0.0186353 2.26203e-20)
(-0.0426076 0.000601499 1.09877e-21)
(-0.0444941 6.77696e-05 -7.27395e-22)
(-0.0436231 -0.000403989 6.47007e-22)
(-0.0407814 -0.000910527 -8.51217e-23)
(-0.0354586 -0.00137659 -1.62186e-21)
(-0.0278315 -0.00178671 1.33988e-21)
(-0.0180238 -0.0021308 3.67433e-23)
(-0.00623829 -0.0024076 -1.03093e-21)
(0.00730747 -0.00262148 4.32756e-22)
(0.0223988 -0.00277966 5.30275e-22)
(0.0388349 -0.00289012 -3.57023e-23)
(0.0564357 -0.00296078 -3.42414e-22)
(0.0750429 -0.00299885 3.71377e-22)
(0.09452 -0.00301066 -3.26268e-22)
(0.11475 -0.00300159 -1.53576e-23)
(0.135636 -0.0029762 2.61694e-22)
(0.157095 -0.00293833 -5.91872e-22)
(-0.0400602 0.00177826 4.60175e-21)
(-0.0418691 0.000170959 -3.54935e-21)
(-0.0407672 -0.00123683 -2.51432e-21)
(-0.0377613 -0.00275061 3.18219e-21)
(-0.0322934 -0.00414196 -4.66649e-21)
(-0.0245591 -0.00536571 -1.57937e-22)
(-0.014682 -0.006392 3.55037e-21)
(-0.0028631 -0.00721734 -5.34039e-22)
(0.010684 -0.00785508 -8.39769e-22)
(0.0257497 -0.00832672 4.18695e-22)
(0.0421385 -0.00865611 1.99784e-21)
(0.059675 -0.00886686 -2.61897e-21)
(0.0782052 -0.00898045 2.44242e-21)
(0.0975958 -0.00901567 -5.13196e-22)
(0.117733 -0.0089886 1.15779e-21)
(0.138521 -0.00891281 -2.6635e-22)
(0.159879 -0.00879974 1.26535e-21)
(-0.0349561 0.00287875 1.20304e-20)
(-0.0366127 0.000186082 -5.95003e-21)
(-0.0350521 -0.00214213 6.30515e-21)
(-0.0317217 -0.00464782 -1.07403e-20)
(-0.0259674 -0.00694399 5.12881e-21)
(-0.0180228 -0.00896149 -3.78533e-21)
(-0.00801086 -0.0106521 7.02311e-21)
(0.00387122 -0.0120109 -7.11449e-21)
(0.0174179 -0.0130609 7.80571e-22)
(0.03243 -0.0138373 -7.71254e-22)
(0.0487224 -0.0143797 2.96245e-21)
(0.0661292 -0.0147267 -6.59118e-21)
(0.0845045 -0.0149138 4.64281e-21)
(0.103722 -0.0149717 -1.31795e-21)
(0.123673 -0.0149269 -2.18135e-21)
(0.144265 -0.0148015 -2.04078e-22)
(0.165423 -0.0146146 3.31864e-22)
(-0.0272716 0.00385588 -8.94555e-21)
(-0.0287123 5.93108e-05 -1.01037e-20)
(-0.0264751 -0.00316513 1.08884e-21)
(-0.0226636 -0.00663891 7.3567e-21)
(-0.0164889 -0.00980521 3.7192e-21)
(-0.0082391 -0.0125831 -1.56969e-21)
(0.00196492 -0.0149085 -4.51121e-21)
(0.0139327 -0.0167762 7.79015e-21)
(0.0274713 -0.0182191 3.44079e-21)
(0.0423972 -0.0192862 -4.28033e-21)
(0.0585406 -0.020032 2.63839e-21)
(0.0757499 -0.0205094 -5.14191e-22)
(0.0938911 -0.0207668 -5.58229e-21)
(0.112847 -0.0208463 4.62869e-21)
(0.132519 -0.0207841 -4.47187e-21)
(0.152819 -0.0206107 1.41123e-21)
(0.173676 -0.020352 3.01631e-21)
(-0.0169719 0.00464353 1.06818e-20)
(-0.0181473 -0.000319037 -2.05648e-21)
(-0.0150283 -0.00436032 1.09305e-20)
(-0.0105873 -0.00875441 -4.92579e-22)
(-0.00386915 -0.012744 1.62305e-20)
(0.00476765 -0.0162359 -2.3201e-20)
(0.0152086 -0.0191556 9.4186e-21)
(0.0272739 -0.0214986 8.43963e-22)
(0.0407877 -0.0233084 -7.81786e-21)
(0.0555876 -0.0246473 4.13803e-21)
(0.0715245 -0.0255835 1.16058e-21)
(0.0884649 -0.0261834 -1.84454e-21)
(0.106291 -0.026507 4.81043e-21)
(0.124898 -0.026607 -5.46615e-21)
(0.144196 -0.0265282 7.70933e-22)
(0.164107 -0.026309 -2.4451e-21)
(0.184565 -0.0259818 6.04449e-22)
(-0.00404226 0.00513691 2.39429e-20)
(-0.00488346 -0.000905388 -2.32045e-20)
(-0.000673562 -0.00578521 1.31257e-20)
(0.0045141 -0.0110034 -2.10415e-20)
(0.0118774 -0.0157714 1.17939e-20)
(0.0209658 -0.0199213 -1.91179e-21)
(0.0316717 -0.0233843 1.52961e-21)
(0.0438316 -0.0261606 -9.3887e-21)
(0.0572922 -0.0283051 1.71473e-20)
(0.0719175 -0.0298925 -4.04271e-21)
(0.0875836 -0.0310038 1.96949e-21)
(0.10418 -0.0317169 -1.2426e-21)
(0.121606 -0.0321022 -2.04253e-21)
(0.139774 -0.0322214 -2.51054e-21)
(0.158605 -0.0321276 5.2637e-22)
(0.178032 -0.0318657 4.43597e-21)
(0.197995 -0.0314743 -1.4643e-21)
(0.0115753 0.00532725 -6.72223e-21)
(0.0111411 -0.00172575 -1.04208e-20)
(0.0165763 -0.00744759 -7.07401e-21)
(0.0226578 -0.0134209 1.51299e-20)
(0.0307283 -0.0188978 1.20858e-20)
(0.0403156 -0.0236353 -1.43733e-20)
(0.0512943 -0.0275803 4.61219e-21)
(0.0635279 -0.0307407 1.10779e-21)
(0.0768921 -0.0331825 -1.17696e-20)
(0.091283 -0.0349922 1.09028e-20)
(0.106606 -0.0362613 -8.89445e-21)
(0.122777 -0.0370775 1.22355e-21)
(0.139717 -0.0375199 3.00985e-21)
(0.157355 -0.0376578 5.3392e-21)
(0.175627 -0.0375511 -1.1326e-21)
(0.194474 -0.0372508 1.43243e-21)
(0.213846 -0.0368006 -4.65827e-22)
(0.029947 0.00526719 1.19803e-20)
(0.0299915 -0.00293273 -1.87474e-20)
(0.0367664 -0.00934824 9.68011e-21)
(0.0438448 -0.016038 -5.69194e-22)
(0.0526733 -0.0221234 6.07565e-21)
(0.0627725 -0.0273658 8.95825e-21)
(0.074005 -0.0317235 -1.33957e-20)
(0.0862695 -0.0352127 1.86208e-21)
(0.0994772 -0.037911 -3.11658e-22)
(0.113561 -0.0399144 -4.31161e-21)
(0.128461 -0.0413232 8.86321e-21)
(0.14412 -0.0422323 -9.51756e-21)
(0.160484 -0.0427277 8.17707e-21)
(0.1775 -0.0428847 -1.07532e-20)
(0.195119 -0.0427685 1.86539e-21)
(0.213294 -0.0424352 -2.40523e-21)
(0.231984 -0.0419331 4.65267e-21)
(0.0511598 0.0049388 -4.49802e-21)
(0.0517346 -0.00451586 3.47341e-23)
(0.059956 -0.0115232 -5.89533e-21)
(0.068092 -0.0188398 -7.55461e-21)
(0.0776955 -0.0254356 -7.42683e-21)
(0.0882836 -0.0310923 2.23826e-20)
(0.0997202 -0.0357865 -1.09059e-20)
(0.111948 -0.0395453 4.09551e-21)
(0.12492 -0.042457 4.0238e-22)
(0.138611 -0.044625 -4.00897e-21)
(0.152997 -0.0461555 4.79656e-21)
(0.168052 -0.0471483 -5.38855e-21)
(0.183747 -0.0476937 6.23614e-21)
(0.200049 -0.0478713 -5.89283e-21)
(0.216923 -0.0477504 6.54603e-21)
(0.234336 -0.047391 1.39822e-22)
(0.252254 -0.0468451 -6.74463e-22)
(0.0753179 0.00430658 -1.84516e-20)
(0.0764643 -0.00645499 4.03705e-20)
(0.0862082 -0.0139762 -9.61112e-21)
(0.0954244 -0.0218129 -3.6197e-20)
(0.105774 -0.0288117 3.16998e-20)
(0.116787 -0.0347842 5.909e-21)
(0.128343 -0.0397341 -1.58986e-20)
(0.140438 -0.0437015 1.5613e-20)
(0.153074 -0.0467834 2.0863e-21)
(0.166272 -0.0490878 -3.58739e-21)
(0.180045 -0.0507234 6.88561e-21)
(0.194399 -0.0517922 -9.20995e-21)
(0.20933 -0.0523863 2.07474e-21)
(0.224824 -0.0525879 -6.5993e-21)
(0.240863 -0.0524687 8.45493e-21)
(0.257426 -0.0520918 -4.09585e-21)
(0.274487 -0.0515119 3.64462e-22)
(0.102544 0.00334995 2.49074e-20)
(0.104303 -0.00873919 -3.09901e-20)
(0.115599 -0.0166937 4.85731e-20)
(0.125871 -0.0249328 -2.39507e-20)
(0.136885 -0.0322158 -1.15657e-20)
(0.14821 -0.0383997 -4.56936e-21)
(0.159762 -0.0435228 1.05157e-20)
(0.171599 -0.0476384 -2.73607e-20)
(0.183778 -0.0508494 1.45342e-20)
(0.196367 -0.0532645 -1.40194e-21)
(0.209419 -0.0549913 -3.12476e-22)
(0.222969 -0.0561308 9.01803e-21)
(0.237038 -0.0567749 -1.03721e-20)
(0.251633 -0.0570058 6.09098e-21)
(0.26675 -0.0568969 3.03108e-22)
(0.282377 -0.0565127 5.84816e-22)
(0.2985 -0.0559101 -1.93398e-22)
(0.315103 -0.0551394 1.09918e-21)
(0.132978 0.00203014 2.00635e-20)
(0.135404 -0.0113554 1.71411e-20)
(0.148218 -0.019649 -2.30301e-20)
(0.159463 -0.0281581 1.22064e-20)
(0.170995 -0.0355966 1.63617e-20)
(0.182465 -0.0418847 -1.26026e-20)
(0.193845 -0.0471003 -7.73993e-21)
(0.205268 -0.0513076 -7.44901e-21)
(0.216849 -0.0546109 -8.61212e-21)
(0.228702 -0.0571153 9.13017e-22)
(0.240916 -0.0589234 8.81774e-21)
(0.253556 -0.0601318 -4.36025e-21)
(0.266666 -0.0608297 4.27221e-21)
(0.280271 -0.0610982 -5.12028e-21)
(0.29438 -0.0610101 8.45633e-21)
(0.308993 -0.0606309 -8.2642e-21)
(0.324103 -0.0600188 1.75111e-21)
(0.339699 -0.0592258 7.37385e-21)
(0.166774 0.000207622 -2.45834e-22)
(0.169963 -0.0142881 -9.61188e-21)
(0.184173 -0.0227961 6.52235e-20)
(0.196227 -0.0314267 -2.39872e-20)
(0.208056 -0.0388858 1.20736e-20)
(0.219442 -0.0451729 -4.13868e-20)
(0.230441 -0.050406 1.07693e-20)
(0.241266 -0.0546557 1.36524e-20)
(0.252088 -0.0580216 -1.0433e-20)
(0.263064 -0.0605998 1.38361e-20)
(0.274318 -0.0624841 1.0188e-20)
(0.285941 -0.0637639 -2.65435e-21)
(0.297995 -0.0645233 8.10685e-22)
(0.310522 -0.0648401 1.65987e-21)
(0.323542 -0.0647859 -3.03953e-20)
(0.337066 -0.0644259 1.26228e-20)
(0.351093 -0.0638191 -3.44346e-21)
(0.365618 -0.0630187 3.30177e-21)
(0.20409 -0.00185408 -6.86165e-21)
(0.208256 -0.017421 4.37119e-20)
(0.223589 -0.0260576 1.49767e-21)
(0.236175 -0.0346524 5.72266e-21)
(0.247993 -0.0419964 -2.19055e-20)
(0.259004 -0.0481852 2.81908e-20)
(0.269371 -0.0533719 6.37451e-21)
(0.279386 -0.0576256 -1.2971e-20)
(0.289272 -0.0610335 -2.62646e-20)
(0.299225 -0.0636779 1.65104e-20)
(0.309395 -0.0656396 2.89851e-21)
(0.319892 -0.066998 1.57509e-20)
(0.330797 -0.0678301 -1.93844e-20)
(0.342162 -0.0682093 3.16691e-21)
(0.354019 -0.0682045 2.96663e-21)
(0.366386 -0.06788 -1.04579e-21)
(0.379267 -0.067295 7.13343e-21)
(0.392663 -0.0665034 -9.30261e-22)
(0.30098 -0.0508312 1.24594e-20)
(0.310426 -0.0559241 8.17955e-21)
(0.319398 -0.0601577 -1.31699e-20)
(0.328164 -0.0635989 1.1639e-22)
(0.336942 -0.0663108 -6.91507e-21)
(0.345902 -0.068358 1.08814e-21)
(0.355169 -0.0698077 2.97984e-20)
(0.364835 -0.0707279 -2.6865e-20)
(0.374961 -0.0711865 6.59336e-21)
(0.385587 -0.0712492 5.08071e-21)
(0.396735 -0.0709784 -1.92281e-21)
(0.408417 -0.0704332 5.35508e-21)
(0.420633 -0.0696681 -1.14958e-20)
)
;

boundaryField
{
    inlet
    {
        type            uniformFixedValue;
        uniformValue    constant (1 0 0);
        value           nonuniform 0();
    }
    outlet
    {
        type            pressureInletOutletVelocity;
        value           nonuniform 0();
    }
    cylinder
    {
        type            fixedValue;
        value           nonuniform 0();
    }
    top
    {
        type            symmetryPlane;
    }
    bottom
    {
        type            symmetryPlane;
    }
    defaultFaces
    {
        type            empty;
    }
    procBoundary22to16
    {
        type            processor;
        value           nonuniform List<vector> 
33
(
(-0.0243963 0.0015558 2.56752e-21)
(-0.0259305 0.00149143 -2.42088e-21)
(-0.0274322 0.00142017 -3.20841e-21)
(-0.0288913 0.00134324 -1.20464e-21)
(-0.0302984 0.00126205 3.3984e-21)
(-0.0316451 0.00117818 1.4729e-21)
(-0.0329251 0.00109339 -5.20784e-21)
(-0.0341337 0.00100961 3.00644e-21)
(-0.0341337 0.00100961 3.00644e-21)
(-0.0352687 -0.000928897 -3.47192e-21)
(-0.0363308 -0.000853362 9.16997e-21)
(-0.0373239 -0.000785137 1.55594e-21)
(-0.0382549 -0.000726183 -2.63616e-21)
(-0.0391313 -0.0006782 -7.44276e-22)
(-0.0399617 -0.000643219 -1.43313e-21)
(-0.0407904 -0.00062373 3.37486e-21)
(-0.0426076 -0.000601584 -1.13431e-21)
(-0.0444941 -6.78877e-05 5.22532e-22)
(-0.0436231 0.00040384 -7.3739e-22)
(-0.0407814 0.00091035 -2.62785e-22)
(-0.0354586 0.00137639 2.06589e-21)
(-0.0278315 0.0017865 -1.23543e-21)
(-0.0180238 0.00213058 -3.80948e-22)
(-0.00623828 0.00240738 8.61368e-22)
(0.00730748 0.00262127 -1.68462e-22)
(0.0223988 0.00277948 -3.36834e-22)
(0.0388349 0.00288997 1.04112e-22)
(0.0564357 0.00296067 9.01727e-22)
(0.075043 0.0029988 -5.5694e-22)
(0.09452 0.00301068 -1.02468e-22)
(0.11475 0.00300169 -4.05241e-24)
(0.135636 0.0029764 -2.50296e-22)
(0.157095 0.00293863 3.16821e-22)
)
;
    }
    procBoundary22to21
    {
        type            processor;
        value           nonuniform List<vector> 
16
(
(-0.0224686 0.00478215 -1.3139e-20)
(-0.0217109 0.0077898 -8.01667e-21)
(-0.0216196 0.010129 -2.48347e-20)
(-0.0216196 0.010129 -2.48347e-20)
(-0.0196751 0.0123867 -1.88488e-20)
(-0.0171388 0.01419 -6.31312e-20)
(-0.0136614 0.0145956 -2.22286e-20)
(-0.0136614 0.0145956 -2.22286e-20)
(-0.00910536 0.0151364 -2.35318e-20)
(-0.00175374 0.0138014 3.34981e-20)
(-0.00175374 0.0138014 3.34981e-20)
(0.00869339 0.0114515 3.967e-20)
(0.00869339 0.0114515 3.967e-20)
(0.0183832 0.00978364 1.27618e-20)
(0.0352727 0.00576391 -5.03694e-20)
(0.0352727 0.00576391 -5.03694e-20)
)
;
    }
    procBoundary22to23
    {
        type            processor;
        value           nonuniform List<vector> 
16
(
(0.179062 -0.00289122 -1.46833e-23)
(0.181744 -0.00865903 9.76885e-22)
(0.187083 -0.0143818 5.69365e-22)
(0.195031 -0.0200299 1.67221e-21)
(0.205517 -0.0255741 -1.65999e-21)
(0.218445 -0.030986 3.09935e-22)
(0.233701 -0.0362379 -2.54515e-21)
(0.251152 -0.0413034 -2.31675e-21)
(0.270648 -0.0461576 7.31904e-23)
(0.292024 -0.0507768 1.16253e-21)
(0.292024 -0.0507768 1.16253e-21)
(0.332169 -0.0542447 4.28574e-22)
(0.35577 -0.0582982 -1.36395e-21)
(0.380633 -0.0620728 5.48425e-21)
(0.406567 -0.0655549 -3.70368e-22)
(0.433381 -0.0687337 -1.5031e-20)
)
;
    }
    procBoundary22to27
    {
        type            processor;
        value           nonuniform List<vector> 
11
(
(0.0570252 0.00103548 -3.01205e-20)
(0.0570252 0.00103548 -3.01205e-20)
(0.0843895 -0.00412652 -1.78211e-20)
(0.0843895 -0.00412652 -1.78211e-20)
(0.11814 -0.00934225 -2.44072e-19)
(0.11814 -0.00934225 -2.44072e-19)
(0.159061 -0.0141126 -2.30022e-19)
(0.159061 -0.0141126 -2.30022e-19)
(0.207944 -0.0177977 -5.38595e-21)
(0.207944 -0.0177977 -5.38595e-21)
(0.265594 -0.0195966 -1.47288e-19)
)
;
    }
    procBoundary22to28
    {
        type            processor;
        value           nonuniform List<vector> 
26
(
(0.247345 -0.0141226 -2.18958e-20)
(0.26701 -0.0101202 -4.73545e-21)
(0.245182 -0.00415122 -5.50605e-21)
(0.246656 -0.0190578 1.14976e-19)
(0.247345 -0.0141226 -2.18958e-20)
(0.267618 -0.0186968 -1.34537e-19)
(0.246656 -0.0190578 1.14976e-19)
(0.245182 -0.00415122 -5.50605e-21)
(0.250444 -0.0207377 -1.68895e-20)
(0.266574 -0.0293361 1.13005e-20)
(0.279294 -0.0377222 -2.05233e-20)
(0.290696 -0.0448227 3.53179e-20)
(0.290696 -0.0448227 3.53179e-20)
(0.34515 -0.0530089 5.80656e-21)
(0.353361 -0.0579828 -1.62376e-20)
(0.361048 -0.06219 2.38725e-21)
(0.368503 -0.0656691 3.62238e-21)
(0.375956 -0.0684598 3.01164e-20)
(0.383585 -0.070608 -1.98304e-21)
(0.391524 -0.0721669 -2.34445e-20)
(0.399868 -0.073195 4.15291e-21)
(0.408686 -0.0737534 4.26078e-21)
(0.41802 -0.0739039 -9.24899e-21)
(0.427898 -0.0737071 4.63843e-21)
(0.438332 -0.0732213 -2.781e-21)
(0.449328 -0.0725014 7.25044e-21)
)
;
    }
}


// ************************************************************************* //
