/*--------------------------------*- C++ -*----------------------------------*\
  =========                 |
  \\      /  F ield         | OpenFOAM: The Open Source CFD Toolbox
   \\    /   O peration     | Website:  https://openfoam.org
    \\  /    A nd           | Version:  7
     \\/     M anipulation  |
\*---------------------------------------------------------------------------*/
FoamFile
{
    version     2.0;
    format      ascii;
    class       volVectorField;
    location    "17";
    object      U;
}
// * * * * * * * * * * * * * * * * * * * * * * * * * * * * * * * * * * * * * //

dimensions      [0 1 -1 0 0 0 0];

internalField   nonuniform List<vector> 
433
(
(-0.0359647 -0.0125982 1.65904e-20)
(-0.0393127 -0.0114269 -2.10339e-20)
(-0.042669 -0.0102764 7.42802e-21)
(-0.0460082 -0.00917206 3.76057e-22)
(-0.0493236 -0.00819314 3.31628e-22)
(-0.0525499 -0.00724224 -1.03992e-20)
(-0.0558081 -0.00586544 2.15536e-20)
(-0.0202615 -0.0123544 -1.3118e-20)
(-0.0190581 -0.0134362 8.26048e-21)
(-0.0192155 -0.0135283 -1.58939e-20)
(-0.0204009 -0.0129598 -1.62364e-20)
(-0.0223533 -0.0120038 -4.90985e-21)
(-0.0248371 -0.0108516 -1.59131e-20)
(-0.0276729 -0.00962408 9.77207e-21)
(-0.0307316 -0.00839693 -2.89657e-21)
(-0.0339218 -0.00721066 2.34243e-20)
(-0.0371775 -0.00608478 -5.37296e-20)
(-0.0404514 -0.00502859 4.14496e-20)
(-0.0437041 -0.00405481 -1.61998e-20)
(-0.0469138 -0.00323443 5.37367e-21)
(-0.0500128 -0.00244643 9.7947e-21)
(-0.0531722 -0.00124369 -5.94735e-20)
(-0.0128913 -0.0258631 7.36501e-22)
(-0.0134443 -0.0193869 3.98151e-20)
(-0.014753 -0.0146671 -4.43044e-20)
(-0.0166649 -0.0111386 3.41815e-20)
(-0.019071 -0.00842665 1.82928e-20)
(-0.021837 -0.00628275 3e-20)
(-0.0248343 -0.00454098 -4.80235e-21)
(-0.0279617 -0.00309007 -5.78267e-20)
(-0.0311438 -0.00185497 -3.64608e-20)
(-0.0343272 -0.000784944 3.42855e-20)
(-0.0374743 0.000153339 2.85185e-20)
(-0.0405548 0.00097264 1.18944e-19)
(-0.043544 0.00161675 -9.38045e-20)
(-0.0463829 0.00223427 1.8327e-19)
(-0.0492946 0.00326359 -1.72306e-19)
(0.00289883 -0.0131828 -5.65543e-20)
(-0.00345551 -0.00829377 -7.05467e-20)
(-0.00873402 -0.00475663 -6.01002e-20)
(-0.0132864 -0.00214075 9.32632e-20)
(-0.0173463 -0.000155822 -1.74074e-19)
(-0.0210611 0.00139121 1.50144e-19)
(-0.0245223 0.00262969 -8.24761e-20)
(-0.0277848 0.00364512 3.46642e-20)
(-0.0308787 0.00449417 4.10038e-20)
(-0.0338205 0.00521344 -1.35251e-20)
(-0.0366144 0.00581732 1.68337e-19)
(-0.039245 0.006251 -5.93951e-20)
(-0.0416683 0.00668422 -2.4141e-19)
(-0.0441584 0.00753487 2.34059e-19)
(0.00544277 0.00533103 1.39227e-20)
(-0.000728039 0.00548625 -1.37955e-19)
(-0.00602963 0.00592057 2.68234e-20)
(-0.0106183 0.00651508 1.31235e-20)
(-0.0146423 0.00717615 -3.8719e-20)
(-0.0182267 0.00783898 3.66426e-21)
(-0.0214645 0.00846406 3.2698e-20)
(-0.0244219 0.00903027 3.74944e-21)
(-0.0271412 0.00952882 1.53045e-19)
(-0.0296495 0.00995748 -8.13614e-20)
(-0.0319604 0.0103083 -1.24923e-19)
(-0.0340513 0.0105154 6.62522e-20)
(-0.0358881 0.010764 5.96312e-20)
(-0.0377848 0.0114417 -1.72948e-19)
(-0.00378169 0.0171276 -1.02345e-19)
(-0.00605815 0.0148997 1.72037e-19)
(-0.00861328 0.0137277 -1.17049e-19)
(-0.0112652 0.0132352 2.61478e-20)
(-0.0138987 0.0131449 1.74235e-19)
(-0.0164389 0.0132679 -1.14773e-19)
(-0.0188374 0.0134828 2.43218e-19)
(-0.021064 0.0137176 -8.12842e-20)
(-0.0230987 0.0139339 -1.35839e-19)
(-0.0249309 0.0141132 -3.33769e-20)
(-0.0265547 0.0142388 6.19256e-20)
(-0.0279202 0.0142433 -3.79392e-19)
(-0.0289932 0.0143326 -7.32095e-20)
(-0.0301072 0.0148648 6.9002e-20)
(-0.0108415 0.0142887 -3.29318e-20)
(-0.0110063 0.015167 3.72026e-20)
(-0.0118368 0.0158931 -5.33007e-20)
(-0.0130641 0.0164663 1.67844e-20)
(-0.0144771 0.0168937 -5.37976e-20)
(-0.0159186 0.0171897 1.84238e-19)
(-0.0172778 0.0173736 -1.70584e-19)
(-0.018481 0.0174674 -1.73181e-19)
(-0.0194843 0.0174919 3.54508e-19)
(-0.0202668 0.0174541 -3.53662e-19)
(-0.0207541 0.0173041 3.33618e-19)
(-0.0209155 0.0172726 9.68698e-20)
(-0.0210677 0.0176859 2.17047e-19)
(-0.00528554 0.0120056 2.17505e-19)
(-0.00692625 0.0152996 -1.58553e-19)
(-0.00841689 0.0174488 -3.10621e-19)
(-0.00975792 0.0187979 2.20446e-20)
(-0.0109188 0.0195912 6.18373e-19)
(-0.0118609 0.020003 -3.52189e-19)
(-0.0125492 0.0201594 2.60809e-19)
(-0.0129585 0.0201526 1.33045e-19)
(-0.0130787 0.0200495 -5.19717e-19)
(-0.0129178 0.0198867 3.05344e-19)
(-0.0124128 0.0196407 6.28283e-20)
(-0.0115818 0.0195891 -4.89952e-19)
(-0.0106482 0.0200797 3.24395e-19)
(-0.00108148 0.020574 2.99957e-19)
(-0.00370099 0.0216053 -7.96277e-19)
(-0.00546113 0.0221915 2.9907e-19)
(-0.00652986 0.0224428 8.92619e-22)
(-0.00701704 0.0224509 2.40761e-19)
(-0.00699495 0.0222942 7.50719e-20)
(-0.00651205 0.022041 4.24162e-19)
(-0.00560816 0.0217498 1.66898e-19)
(-0.00432868 0.0214583 -3.1741e-19)
(-0.00260882 0.021165 7.67431e-20)
(-0.000513066 0.0212033 -3.52869e-19)
(0.00166822 0.0219269 2.92935e-19)
(-0.00215324 0.0258731 2.1258e-19)
(-0.00276123 0.0252039 -6.15917e-20)
(-0.00273533 0.0246071 -1.6655e-19)
(-0.00211593 0.024029 1.75203e-19)
(-0.000938335 0.0234575 -6.60326e-19)
(0.000765426 0.0229079 -1.77684e-19)
(0.00296078 0.022412 -3.35827e-19)
(0.00559881 0.0219966 2.74247e-19)
(0.0087687 0.0216757 -5.48527e-19)
(0.0123915 0.0218138 5.13335e-20)
(0.0160703 0.0227149 2.14421e-19)
(-0.0022362 0.0266508 -1.57755e-19)
(-0.000823858 0.0257003 4.46228e-19)
(0.000946632 0.0248305 5.79475e-20)
(0.00315949 0.0240014 4.20797e-19)
(0.00586456 0.0232091 -3.77919e-19)
(0.00908709 0.0224779 5.84046e-19)
(0.0128278 0.0218496 -4.71673e-19)
(0.017053 0.0213613 1.22059e-19)
(0.0218818 0.0210558 7.07791e-19)
(0.0272161 0.0213326 -9.09658e-19)
(0.0325868 0.0224387 1.31189e-19)
(0.00245474 0.0233706 -8.2559e-20)
(0.00583662 0.0228685 -6.17519e-19)
(0.00965984 0.0221817 8.35091e-19)
(0.013991 0.0214107 -2.13225e-19)
(0.0188746 0.0206486 7.87641e-20)
(0.0243263 0.019985 -1.73464e-19)
(0.0303177 0.0194916 -1.07429e-18)
(0.0369998 0.0192659 7.59556e-19)
(0.0442501 0.0197596 5.25442e-20)
(0.0515219 0.0212004 -4.87737e-19)
(0.0129731 0.0197451 2.57819e-19)
(0.0181568 0.0191099 -7.69429e-19)
(0.0240316 0.0183499 9.35608e-19)
(0.0305975 0.0175801 9.71046e-21)
(0.0378477 0.0169132 -5.73964e-19)
(0.0457372 0.0164453 2.51204e-19)
(0.0544351 0.0163313 1.08238e-18)
(0.0638082 0.0170895 -1.02829e-18)
(0.073225 0.0189291 -7.8191e-19)
(0.0286283 0.0150624 -3.33612e-19)
(0.0361835 0.0142696 -6.59389e-20)
(0.0445413 0.0134889 -5.27321e-20)
(0.0537001 0.0128237 7.61185e-19)
(0.0636129 0.012379 -3.73648e-19)
(0.0744776 0.0123703 -8.59021e-19)
(0.0861416 0.0133889 1.20297e-18)
(0.0978728 0.0156143 -1.16022e-18)
(0.0508133 0.009401 -2.85226e-18)
(0.0610584 0.008674 8.95976e-19)
(0.0722186 0.00803093 8.50781e-19)
(0.0842651 0.00759418 -1.26565e-18)
(0.0974397 0.0076567 6.68087e-19)
(0.111572 0.00890213 -1.22165e-18)
(0.125815 0.011529 4.91387e-19)
(0.0805193 0.00362879 -1.19861e-18)
(0.0937344 0.00300493 -6.45609e-19)
(0.108015 0.0025299 -3.35522e-19)
(0.123657 0.00258513 -2.85579e-19)
(0.118531 -0.00170504 2.37798e-19)
(-0.0623616 -0.00393555 4.64156e-21)
(-0.0700532 -0.00322577 -3.11252e-21)
(-0.0748365 -0.00282186 2.93912e-21)
(-0.0771405 -0.00293651 -3.75204e-22)
(-0.0765914 -0.00349515 -7.4031e-21)
(-0.0734832 -0.00453549 6.1824e-21)
(-0.0679195 -0.00606702 1.39796e-22)
(-0.0602272 -0.00796727 -4.76859e-21)
(-0.0505949 -0.0103632 2.01358e-21)
(-0.0392386 -0.0130521 2.44511e-21)
(-0.026412 -0.0161615 -1.65327e-22)
(-0.0122703 -0.0194432 -1.52593e-21)
(0.00301993 -0.0229301 1.67772e-21)
(0.0193228 -0.0264865 -1.50459e-21)
(0.0364822 -0.0299231 -7.10367e-23)
(0.0543902 -0.0330872 1.17979e-21)
(0.07295 -0.0358131 -2.68089e-21)
(-0.059883 0.000268515 2.11716e-20)
(-0.0673064 -0.000388992 -1.63415e-20)
(-0.0717722 -0.00120549 -1.20843e-20)
(-0.0738338 -0.00261327 1.54949e-20)
(-0.0730524 -0.00429733 -2.29925e-20)
(-0.0697583 -0.00633309 -6.84386e-22)
(-0.064021 -0.00869693 1.75337e-20)
(-0.056194 -0.0112508 -2.56485e-21)
(-0.0464619 -0.0141908 -4.05378e-21)
(-0.0350394 -0.0172902 2.11384e-21)
(-0.0221864 -0.0207219 9.71486e-21)
(-0.00804745 -0.0242001 -1.2592e-20)
(0.00718104 -0.027882 1.17596e-20)
(0.0233922 -0.03152 -2.42651e-21)
(0.04042 -0.0349983 5.51129e-21)
(0.0581462 -0.0381669 -1.23894e-21)
(0.0764721 -0.0408658 5.971e-21)
(-0.0558934 0.00435052 5.85256e-20)
(-0.0628424 0.00230685 -2.94367e-20)
(-0.0667004 0.000311112 3.31659e-20)
(-0.0682985 -0.00237167 -5.64502e-20)
(-0.0670809 -0.00515313 2.69905e-20)
(-0.0634525 -0.00815883 -1.99997e-20)
(-0.0574249 -0.0113398 3.67897e-20)
(-0.0493929 -0.0144713 -3.72653e-20)
(-0.0395317 -0.0179955 3.92259e-21)
(-0.0280352 -0.0214833 -3.94994e-21)
(-0.0151622 -0.0252189 1.50356e-20)
(-0.00106634 -0.0288864 -3.3439e-20)
(0.0140498 -0.0327562 2.34761e-20)
(0.0301248 -0.0364662 -6.5878e-21)
(0.0469545 -0.0399781 -1.08191e-20)
(0.0644296 -0.0431447 -9.97955e-22)
(0.0824492 -0.045812 1.60033e-21)
(-0.0503724 0.00815607 -4.50169e-20)
(-0.0566524 0.00475724 -5.53287e-20)
(-0.0596089 0.00165549 5.3403e-21)
(-0.0605332 -0.00227302 4.13149e-20)
(-0.0586818 -0.006106 2.08255e-20)
(-0.0545804 -0.0100383 -8.89e-21)
(-0.0481374 -0.0139987 -2.49504e-20)
(-0.0398537 -0.0176924 4.28934e-20)
(-0.0298531 -0.0217896 1.85759e-20)
(-0.0182566 -0.0255998 -2.33482e-20)
(-0.00538445 -0.0295599 1.39088e-20)
(0.00862987 -0.0335764 -2.83404e-21)
(0.0235874 -0.0375226 -2.93744e-20)
(0.0394729 -0.0413009 2.40254e-20)
(0.0560411 -0.044839 -2.31791e-20)
(0.073197 -0.0479976 7.29324e-21)
(0.0908395 -0.0506289 1.53707e-20)
(-0.0432938 0.0115841 5.66441e-20)
(-0.0486721 0.00687802 -1.32148e-20)
(-0.0504697 0.00275893 6.45863e-20)
(-0.0505284 -0.00237435 -2.73465e-21)
(-0.0478541 -0.00719374 9.6538e-20)
(-0.0431525 -0.0119886 -1.37529e-19)
(-0.0362038 -0.0166456 5.55042e-20)
(-0.0276187 -0.0209326 4.76272e-21)
(-0.0174433 -0.025537 -4.47183e-20)
(-0.00572429 -0.029571 2.35402e-20)
(0.00706117 -0.0338848 6.32834e-21)
(0.0209583 -0.0381677 -1.01081e-20)
(0.035758 -0.0421623 2.64033e-20)
(0.0513762 -0.0460011 -2.99135e-20)
(0.0676187 -0.049558 4.23114e-21)
(0.084388 -0.0527031 -1.29671e-20)
(0.101584 -0.0552948 3.36834e-21)
(-0.034591 0.0145701 1.42905e-19)
(-0.0388538 0.00860238 -1.4318e-19)
(-0.0392436 0.00355665 8.27682e-20)
(-0.0382632 -0.00272829 -1.32945e-19)
(-0.0345894 -0.00845029 7.4963e-20)
(-0.0291659 -0.0140009 -1.16033e-20)
(-0.0216458 -0.0193615 9.68502e-21)
(-0.0127373 -0.0241323 -5.63314e-20)
(-0.00234522 -0.02907 1.03071e-19)
(0.00944644 -0.0336321 -2.41034e-20)
(0.0221116 -0.0381999 1.14614e-20)
(0.035896 -0.0425465 -7.09903e-21)
(0.0504647 -0.0466516 -1.16478e-20)
(0.0657568 -0.0505438 -1.40202e-20)
(0.0816099 -0.0541128 3.19303e-21)
(0.0979259 -0.0572396 2.44803e-20)
(0.114609 -0.0597891 -7.92269e-21)
(-0.0241725 0.0170207 -4.20266e-20)
(-0.0271046 0.00992972 -6.94436e-20)
(-0.0258776 0.00397764 -4.75189e-20)
(-0.0237043 -0.00338898 1.02035e-19)
(-0.0188629 -0.00992993 7.99978e-20)
(-0.0126558 -0.016045 -9.42355e-20)
(-0.00450295 -0.0220242 2.99753e-20)
(0.00481953 -0.0275263 7.36764e-21)
(0.015301 -0.0326113 -7.33288e-20)
(0.0271474 -0.0376793 6.81679e-20)
(0.0397656 -0.042305 -5.35772e-20)
(0.0533418 -0.0467662 8.13964e-21)
(0.0676147 -0.0509709 1.81096e-20)
(0.0825224 -0.0549066 3.11945e-20)
(0.0979218 -0.0584816 -6.60582e-21)
(0.113719 -0.0615862 8.14289e-21)
(0.129822 -0.064092 -2.57035e-21)
(-0.0119148 0.0193623 8.13601e-20)
(-0.0133298 0.0108964 -1.31509e-19)
(-0.0103297 0.00383905 6.92072e-20)
(-0.00681005 -0.00443656 -3.56244e-21)
(-0.000629236 -0.0117518 4.27183e-20)
(0.00644409 -0.0185118 6.10025e-20)
(0.0150865 -0.024819 -9.14554e-20)
(0.0248606 -0.0309551 1.22976e-20)
(0.0355579 -0.0362106 -2.43681e-21)
(0.0473769 -0.0414339 -2.78276e-20)
(0.0598807 -0.0462345 5.54506e-20)
(0.0731893 -0.0508149 -5.93383e-20)
(0.0871058 -0.0550979 4.96297e-20)
(0.101567 -0.0590678 -6.46738e-20)
(0.116447 -0.0626435 1.14106e-20)
(0.13166 -0.0657232 -1.37076e-20)
(0.147119 -0.0681849 2.71321e-20)
(0.00225397 0.0213218 -3.21843e-20)
(0.00233782 0.0110894 5.02362e-22)
(0.00743347 0.00287467 -4.3826e-20)
(0.012491 -0.00591599 -5.48394e-20)
(0.0200095 -0.0138789 -5.20306e-20)
(0.0280793 -0.0211948 1.60769e-19)
(0.0372977 -0.0277759 -7.71148e-20)
(0.0474317 -0.0341053 2.81e-20)
(0.058288 -0.0396484 2.69613e-21)
(0.0700241 -0.0450281 -2.60543e-20)
(0.0823455 -0.0499874 3.18074e-20)
(0.0953274 -0.0546649 -3.39074e-20)
(0.108821 -0.0590105 3.96193e-20)
(0.122769 -0.0630061 -3.60512e-20)
(0.137065 -0.0665781 4.02153e-20)
(0.151628 -0.0696316 8.05833e-22)
(0.166381 -0.0720503 -4.11402e-21)
(0.018465 0.0220221 -1.40768e-19)
(0.0200594 0.0104541 3.16243e-19)
(0.0276185 0.00144178 -7.63732e-20)
(0.0343972 -0.00771903 -2.76962e-19)
(0.0432142 -0.0160921 2.43486e-19)
(0.052255 -0.0237621 4.36431e-20)
(0.0620058 -0.030662 -1.14779e-19)
(0.0724437 -0.0371561 1.12018e-19)
(0.0833852 -0.0429487 1.43789e-20)
(0.094983 -0.0484569 -2.46135e-20)
(0.107046 -0.0535364 4.57091e-20)
(0.119632 -0.0582916 -6.09327e-20)
(0.132632 -0.0626861 1.35802e-20)
(0.145999 -0.0667002 -4.14692e-20)
(0.159643 -0.0702656 5.30633e-20)
(0.173493 -0.0732931 -2.53876e-20)
(0.187478 -0.0756717 2.40849e-21)
(0.037046 0.0216602 2.06953e-19)
(0.0403115 0.00919112 -2.56699e-19)
(0.050356 -0.000266305 3.97857e-19)
(0.0589367 -0.00984279 -1.96805e-19)
(0.0689961 -0.0183389 -9.18061e-20)
(0.078938 -0.0264228 -3.43823e-20)
(0.0891812 -0.0335041 7.91357e-20)
(0.0998218 -0.0401226 -1.98301e-19)
(0.110757 -0.0460817 1.06674e-19)
(0.122138 -0.0516853 -8.73038e-21)
(0.133857 -0.0568556 -1.18044e-21)
(0.145967 -0.0616704 6.10011e-20)
(0.158398 -0.0661023 -6.85879e-20)
(0.171112 -0.0701294 4.02175e-20)
(0.184037 -0.0736873 2.0143e-21)
(0.197109 -0.0766909 3.94286e-21)
(0.210268 -0.0790339 -1.14093e-21)
(0.223464 -0.0805962 6.80762e-21)
(0.0582953 0.0205225 1.77445e-19)
(0.0633437 0.00712837 1.48716e-19)
(0.0758577 -0.00251955 -2.01161e-19)
(0.0862615 -0.0123108 1.00266e-19)
(0.0974293 -0.0208189 1.2824e-19)
(0.10809 -0.0290906 -1.04728e-19)
(0.118755 -0.0362702 -6.27096e-20)
(0.12948 -0.0429561 -5.69847e-20)
(0.140295 -0.0490152 -6.31763e-20)
(0.15136 -0.0546833 7.71227e-21)
(0.162638 -0.0599174 6.24894e-20)
(0.174188 -0.0647763 -2.96118e-20)
(0.185968 -0.0692365 2.94417e-20)
(0.197956 -0.0732734 -3.3368e-20)
(0.210092 -0.0768249 5.589e-20)
(0.222326 -0.079809 -5.30215e-20)
(0.234602 -0.082123 1.14533e-20)
(0.246878 -0.0836506 4.63482e-20)
(0.0825461 0.0182363 1.42953e-20)
(0.0894666 0.00427813 -8.49835e-20)
(0.104357 -0.00532219 5.85461e-19)
(0.116452 -0.0150453 -2.12916e-19)
(0.128569 -0.0235886 9.89851e-20)
(0.139759 -0.0317433 -3.36114e-19)
(0.150659 -0.0389253 9.02183e-20)
(0.161321 -0.0456124 1.07508e-19)
(0.171878 -0.0517161 -7.77358e-20)
(0.182513 -0.0574176 1.02798e-19)
(0.193243 -0.0626929 7.20484e-20)
(0.204137 -0.0675835 -2.04735e-20)
(0.215183 -0.0720662 3.96305e-21)
(0.226367 -0.0761126 9.52623e-21)
(0.237648 -0.0796615 -2.0302e-19)
(0.248981 -0.0826326 8.35446e-20)
(0.260321 -0.0849263 -2.21156e-20)
(0.27163 -0.0864294 2.11674e-20)
(0.110122 0.014795 -3.68002e-20)
(0.119171 0.000779236 4.20258e-19)
(0.136144 -0.00858527 1.42547e-20)
(0.149649 -0.0178682 5.11119e-20)
(0.162435 -0.0264687 -1.87001e-19)
(0.173919 -0.0343375 2.37036e-19)
(0.184818 -0.04142 4.83758e-20)
(0.195232 -0.048044 -1.05203e-19)
(0.205374 -0.0541446 -2.0078e-19)
(0.215446 -0.0598534 1.26979e-19)
(0.22551 -0.0651528 2.17027e-20)
(0.235649 -0.0700671 1.12426e-19)
(0.245872 -0.0745702 -1.36958e-19)
(0.256177 -0.078629 2.27572e-20)
(0.266534 -0.0821817 2.07075e-20)
(0.276908 -0.0851489 -6.38287e-21)
(0.28726 -0.0874331 4.70209e-20)
(0.297559 -0.0889238 -6.11748e-21)
(0.210529 -0.036779 1.09984e-19)
(0.221137 -0.0436876 6.82937e-20)
(0.231086 -0.0501968 -1.057e-19)
(0.240634 -0.0562571 3.06541e-21)
(0.249995 -0.0619543 -5.04563e-20)
(0.259271 -0.0672667 1.09472e-20)
(0.26855 -0.0722018 2.18294e-19)
(0.27786 -0.0767275 -1.92832e-19)
(0.287208 -0.0808051 4.73801e-20)
(0.296576 -0.084371 3.51867e-20)
(0.305935 -0.0873459 -1.29435e-20)
(0.315253 -0.0896336 3.55018e-20)
(0.324503 -0.091126 -7.50179e-20)
)
;

boundaryField
{
    inlet
    {
        type            uniformFixedValue;
        uniformValue    constant (1 0 0);
        value           nonuniform 0();
    }
    outlet
    {
        type            pressureInletOutletVelocity;
        value           nonuniform 0();
    }
    cylinder
    {
        type            fixedValue;
        value           nonuniform 0();
    }
    top
    {
        type            symmetryPlane;
    }
    bottom
    {
        type            symmetryPlane;
    }
    defaultFaces
    {
        type            empty;
    }
    procBoundary22to16
    {
        type            processor;
        value           nonuniform List<vector> 
33
(
(-0.0120549 -0.0124368 7.97468e-21)
(-0.0143321 -0.015353 -6.37777e-21)
(-0.0170427 -0.0167225 -7.59563e-21)
(-0.0199737 -0.0170326 -3.03177e-21)
(-0.0230195 -0.0166627 8.13129e-21)
(-0.0261589 -0.0158862 3.88027e-21)
(-0.0293734 -0.0148835 -1.31048e-20)
(-0.0326455 -0.0137645 7.92506e-21)
(-0.0326455 -0.0137645 7.92506e-21)
(-0.0373955 -0.0180944 -9.15915e-21)
(-0.0407626 -0.0168207 2.45676e-20)
(-0.0441188 -0.015554 4.35136e-21)
(-0.0474477 -0.0143132 -7.40776e-21)
(-0.0507552 -0.0131758 -2.13971e-21)
(-0.0539797 -0.0120613 -4.37139e-21)
(-0.057194 -0.0105127 1.08951e-20)
(-0.0633339 -0.00819603 -4.43957e-21)
(-0.0710875 -0.0061046 2.05501e-21)
(-0.0758934 -0.00446266 -3.08683e-21)
(-0.0782128 -0.00327842 -1.12206e-21)
(-0.0776892 -0.002702 8.73578e-21)
(-0.0746124 -0.00273709 -5.28763e-21)
(-0.0691062 -0.00343617 -1.61408e-21)
(-0.061475 -0.00465959 3.72079e-21)
(-0.0519045 -0.00650691 -7.45486e-22)
(-0.0406048 -0.0087783 -1.46465e-21)
(-0.0278173 -0.011565 4.46415e-22)
(-0.0137054 -0.0146212 3.84312e-21)
(0.00160016 -0.0179307 -2.3796e-21)
(0.0179414 -0.0213907 -4.14035e-22)
(0.0351682 -0.0247766 -1.63049e-23)
(0.0531878 -0.0279297 -1.07583e-21)
(0.0719076 -0.0306773 1.37593e-21)
)
;
    }
    procBoundary22to21
    {
        type            processor;
        value           nonuniform List<vector> 
16
(
(-0.0232364 -0.00985317 -1.94854e-20)
(-0.012998 -0.0349467 1.70995e-20)
(0.0108246 -0.0200854 -5.95957e-20)
(0.0108246 -0.0200854 -5.95957e-20)
(0.012566 0.00556128 -5.64523e-20)
(-0.00207985 0.0208858 -1.91658e-19)
(-0.0116658 0.0132615 -6.25653e-20)
(-0.0116658 0.0132615 -6.25653e-20)
(-0.00343278 0.00707464 -7.25859e-20)
(0.00263633 0.018961 1.398e-19)
(0.00263633 0.018961 1.398e-19)
(-0.000880248 0.0267231 2.00907e-19)
(-0.000880248 0.0267231 2.00907e-19)
(-0.00342247 0.0277743 6.7464e-20)
(-0.000575919 0.0235671 -3.42494e-19)
(-0.000575919 0.0235671 -3.42494e-19)
)
;
    }
    procBoundary22to23
    {
        type            processor;
        value           nonuniform List<vector> 
16
(
(0.0920739 -0.0379253 -6.61598e-23)
(0.0953104 -0.0429253 4.59106e-21)
(0.100927 -0.0478157 2.83432e-21)
(0.108885 -0.0525745 8.52422e-21)
(0.119127 -0.0571809 -8.73084e-21)
(0.13158 -0.0616151 1.65969e-21)
(0.146158 -0.0658586 -1.43702e-20)
(0.162756 -0.0698939 -1.31439e-20)
(0.18126 -0.073705 4.70971e-22)
(0.201542 -0.077277 6.78733e-21)
(0.201542 -0.077277 6.78733e-21)
(0.236661 -0.0812485 2.6738e-21)
(0.259124 -0.0842668 -8.10775e-21)
(0.282884 -0.0870207 3.44029e-20)
(0.307785 -0.089503 -2.44041e-21)
(0.333669 -0.0917077 -9.72831e-20)
)
;
    }
    procBoundary22to27
    {
        type            processor;
        value           nonuniform List<vector> 
11
(
(0.00849759 0.020132 -2.38946e-19)
(0.00849759 0.020132 -2.38946e-19)
(0.0218699 0.0157888 -1.61423e-19)
(0.0218699 0.0157888 -1.61423e-19)
(0.0414462 0.0101018 -2.18895e-18)
(0.0414462 0.0101018 -2.18895e-18)
(0.068384 0.00425499 -2.24505e-18)
(0.068384 0.00425499 -2.24505e-18)
(0.103186 -0.00105547 -5.53281e-20)
(0.103186 -0.00105547 -5.53281e-20)
(0.146858 -0.00561798 -1.6489e-18)
)
;
    }
    procBoundary22to28
    {
        type            processor;
        value           nonuniform List<vector> 
26
(
(0.140488 0.00397338 -2.3089e-19)
(0.157537 0.00699434 -6.36566e-20)
(0.141428 0.0107364 -6.62117e-20)
(0.135173 -0.00228682 1.25806e-18)
(0.140488 0.00397338 -2.3089e-19)
(0.153479 -0.00236288 -1.47044e-18)
(0.135173 -0.00228682 1.25806e-18)
(0.141428 0.0107364 -6.62117e-20)
(0.152869 -0.00322044 -1.66827e-19)
(0.171526 -0.0121554 1.11681e-19)
(0.185966 -0.020949 -1.85606e-19)
(0.199005 -0.0293239 3.15291e-19)
(0.199005 -0.0293239 3.15291e-19)
(0.249482 -0.0389885 5.1451e-20)
(0.259489 -0.0456592 -1.3671e-19)
(0.268733 -0.0520153 2.37185e-20)
(0.277491 -0.0580099 3.18817e-20)
(0.285987 -0.0636843 2.33761e-19)
(0.294344 -0.0690054 -1.94023e-20)
(0.302657 -0.0739633 -1.7608e-19)
(0.310964 -0.078518 3.02128e-20)
(0.319281 -0.082624 2.96565e-20)
(0.327595 -0.0862154 -6.46731e-20)
(0.335886 -0.089212 3.22065e-20)
(0.344127 -0.0915181 -1.84073e-20)
(0.352293 -0.0930279 4.82347e-20)
)
;
    }
}


// ************************************************************************* //
