/*--------------------------------*- C++ -*----------------------------------*\
  =========                 |
  \\      /  F ield         | OpenFOAM: The Open Source CFD Toolbox
   \\    /   O peration     | Website:  https://openfoam.org
    \\  /    A nd           | Version:  7
     \\/     M anipulation  |
\*---------------------------------------------------------------------------*/
FoamFile
{
    version     2.0;
    format      ascii;
    class       volScalarField;
    location    "22";
    object      p;
}
// * * * * * * * * * * * * * * * * * * * * * * * * * * * * * * * * * * * * * //

dimensions      [0 2 -2 0 0 0 0];

internalField   nonuniform List<scalar> 
433
(
-0.161815
-0.148974
-0.136667
-0.124888
-0.113692
-0.103057
-0.092998
-0.0835213
-0.0745786
-0.066208
-0.0583302
-0.0510389
-0.0441085
-0.0378678
-0.0316661
-0.0265579
-0.0207271
-0.0172465
-0.0109719
-0.010367
-0.00160089
-0.00699655
0.00936558
-0.219311
-0.201232
-0.184181
-0.16809
-0.152982
-0.138781
-0.12546
-0.112993
-0.101287
-0.0903585
-0.0801029
-0.0705836
-0.0615537
-0.0533221
-0.0452252
-0.0382995
-0.0307229
-0.0255455
-0.0176461
-0.0154349
-0.005173
-0.0090121
0.00864034
-0.276808
-0.253488
-0.231697
-0.211288
-0.192276
-0.174506
-0.157921
-0.142462
-0.127992
-0.114509
-0.101873
-0.0901257
-0.0789959
-0.068774
-0.0587818
-0.05004
-0.0407196
-0.0338458
-0.0243272
-0.0205036
-0.0087559
-0.0110237
0.00789503
-0.334247
-0.305732
-0.279171
-0.254439
-0.231535
-0.2102
-0.190351
-0.171897
-0.154673
-0.138636
-0.123623
-0.109649
-0.0964216
-0.0842114
-0.0723271
-0.0617709
-0.0507109
-0.0421418
-0.0310102
-0.0255711
-0.0123485
-0.0130316
0.00713014
-0.391558
-0.357824
-0.326557
-0.297642
-0.270747
-0.245842
-0.222737
-0.201275
-0.1813
-0.162719
-0.145335
-0.129138
-0.113817
-0.0996227
-0.0858513
-0.0734843
-0.0606908
-0.0504291
-0.037692
-0.0306358
-0.0159501
-0.0150362
0.00634602
-0.448701
-0.409765
-0.373798
-0.340593
-0.309831
-0.28138
-0.255022
-0.230571
-0.207858
-0.18674
-0.16699
-0.148576
-0.131169
-0.114996
-0.0993449
-0.0851728
-0.0706533
-0.0587035
-0.0443699
-0.0356963
-0.0195597
-0.0170379
0.00554307
-0.505628
-0.461516
-0.420866
-0.383397
-0.348772
-0.316789
-0.287195
-0.25977
-0.234329
-0.21068
-0.188571
-0.167949
-0.148463
-0.130322
-0.112799
-0.0968288
-0.0805927
-0.0669609
-0.0510409
-0.040751
-0.0231766
-0.0190373
0.00472179
-0.562285
-0.513035
-0.467728
-0.426018
-0.387544
-0.352044
-0.319232
-0.288854
-0.260691
-0.234518
-0.210062
-0.187242
-0.165689
-0.145587
-0.126204
-0.108445
-0.0905036
-0.0751972
-0.0577023
-0.0457987
-0.0267997
-0.0210347
0.00388272
-0.618617
-0.564273
-0.514338
-0.468416
-0.426114
-0.387118
-0.351107
-0.317795
-0.286919
-0.258236
-0.231445
-0.20644
-0.182832
-0.160783
-0.139551
-0.120016
-0.10038
-0.0834085
-0.0643514
-0.0508378
-0.0304283
-0.0230306
0.0030265
-0.674572
-0.615179
-0.560653
-0.510552
-0.464449
-0.421981
-0.382791
-0.346563
-0.312993
-0.281815
-0.252705
-0.22553
-0.199882
-0.175899
-0.152834
-0.131533
-0.110218
-0.0915913
-0.0709855
-0.0558673
-0.0340614
-0.0250254
0.0021538
-0.665707
-0.606633
-0.552391
-0.502517
-0.456604
-0.41426
-0.375136
-0.338892
-0.305239
-0.273828
-0.244499
-0.216827
-0.190927
-0.166043
-0.142992
-0.120013
-0.099742
-0.0776022
-0.0608858
-0.037698
-0.0270194
0.00126538
-0.715819
-0.652242
-0.5939
-0.540288
-0.490961
-0.44549
-0.403493
-0.364599
-0.328492
-0.294798
-0.263334
-0.233657
-0.205856
-0.179171
-0.154385
-0.129758
-0.107857
-0.0841991
-0.0658921
-0.0413371
-0.0290131
0.000361996
-0.765475
-0.697446
-0.635047
-0.577737
-0.525028
-0.476459
-0.431616
-0.390096
-0.351558
-0.315604
-0.282025
-0.250362
-0.22068
-0.192213
-0.165709
-0.139451
-0.115935
-0.0907739
-0.0708852
-0.0449779
-0.0310067
-0.000555526
-0.81464
-0.742213
-0.675805
-0.614837
-0.558783
-0.507148
-0.459487
-0.415368
-0.374423
-0.336232
-0.300561
-0.266933
-0.23539
-0.205161
-0.176957
-0.149088
-0.12397
-0.0973245
-0.0758641
-0.0486193
-0.0330005
-0.00148637
-0.86328
-0.786514
-0.716147
-0.651564
-0.592203
-0.537536
-0.48709
-0.4404
-0.397075
-0.356672
-0.318932
-0.283362
-0.249979
-0.218009
-0.188125
-0.158664
-0.131962
-0.103849
-0.0808275
-0.0522603
-0.0349947
-0.0024297
-0.911362
-0.830318
-0.756046
-0.687895
-0.625269
-0.567607
-0.514407
-0.465177
-0.419501
-0.376912
-0.337128
-0.299642
-0.264442
-0.230754
-0.19921
-0.168177
-0.139907
-0.110345
-0.0857743
-0.0558999
-0.0369892
-0.00338468
-0.958864
-0.873605
-0.795483
-0.723811
-0.657962
-0.597344
-0.541425
-0.489687
-0.441689
-0.396942
-0.355141
-0.315763
-0.27877
-0.243387
-0.210205
-0.177622
-0.147804
-0.11681
-0.0907046
-0.0595369
-0.0389855
-0.00435028
-1.00584
-0.916424
-0.834503
-0.759355
-0.690321
-0.626781
-0.568173
-0.513955
-0.463662
-0.416783
-0.372989
-0.331743
-0.292982
-0.255926
-0.221128
-0.187014
-0.155667
-0.123257
-0.0956305
-0.0631773
-0.0409913
-0.00532674
-0.594935
-0.538223
-0.485623
-0.436605
-0.390812
-0.347697
-0.307167
-0.268442
-0.232032
-0.196394
-0.163523
-0.129705
-0.100563
-0.0668308
-0.043007
-0.00631665
-0.0266748
-0.0224229
-0.0181155
-0.0148226
-0.0107384
-0.00895219
-0.00430559
-0.00530097
0.00195996
-0.0049764
0.0100707
)
;

boundaryField
{
    inlet
    {
        type            zeroGradient;
    }
    outlet
    {
        type            fixedValue;
        value           uniform 0;
    }
    cylinder
    {
        type            zeroGradient;
    }
    top
    {
        type            symmetryPlane;
    }
    bottom
    {
        type            symmetryPlane;
    }
    defaultFaces
    {
        type            empty;
    }
    procBoundary23to17
    {
        type            processor;
        value           nonuniform List<scalar> 
24
(
-0.104372
-0.0967674
-0.0892
-0.0817275
-0.0744389
-0.0673674
-0.0605665
-0.0540766
-0.0478916
-0.0420743
-0.0365741
-0.0315074
-0.00926472
-0.0069976
-0.00458444
-0.00310341
-0.000766456
-0.000664825
0.00235124
-0.000239238
0.00550715
-0.00295224
0.0107547
-0.0315074
)
;
    }
    procBoundary23to22
    {
        type            processor;
        value           nonuniform List<scalar> 
16
(
-0.175139
-0.238402
-0.301779
-0.364962
-0.42802
-0.490894
-0.55352
-0.615838
-0.677784
-0.739302
-0.730103
-0.730103
-0.785162
-0.839708
-0.893701
-0.947102
)
;
    }
    procBoundary23to28
    {
        type            processor;
        value           nonuniform List<scalar> 3(-0.999875 -1.052 -1.10352);
    }
    procBoundary23to29
    {
        type            processor;
        value           nonuniform List<scalar> 
23
(
-1.05294
-0.959356
-0.873615
-0.79497
-0.722731
-0.656248
-0.656248
-0.621104
-0.561988
-0.507155
-0.456057
-0.408316
-0.363371
-0.321105
-0.28074
-0.242739
-0.205609
-0.171222
-0.136042
-0.105381
-0.070442
-0.0449547
-0.00731405
)
;
    }
}


// ************************************************************************* //
