/*--------------------------------*- C++ -*----------------------------------*\
  =========                 |
  \\      /  F ield         | OpenFOAM: The Open Source CFD Toolbox
   \\    /   O peration     | Website:  https://openfoam.org
    \\  /    A nd           | Version:  7
     \\/     M anipulation  |
\*---------------------------------------------------------------------------*/
FoamFile
{
    version     2.0;
    format      ascii;
    class       surfaceScalarField;
    location    "15";
    object      phi;
}
// * * * * * * * * * * * * * * * * * * * * * * * * * * * * * * * * * * * * * //

dimensions      [0 3 -1 0 0 0 0];

internalField   nonuniform List<scalar> 
818
(
-0.00339463
0.000862283
0.000760944
0.00680185
0.000217797
0.00689672
0.00034482
0.00698101
0.000464648
0.00705068
0.000586631
0.00710529
0.000706331
0.000823487
0.00679225
-0.000276151
0.00691301
-0.000147446
0.00702515
-1.68463e-05
0.00712872
0.000114218
0.00723029
0.000243255
0.00731576
0.000379179
0.00739125
0.000511144
0.00745531
0.000642269
0.000771886
0.00689544
-0.000644831
0.00701073
-0.000518106
0.00712286
-0.000388277
0.00723117
-0.000255764
0.00733536
-0.000121029
0.00743425
1.53204e-05
0.00752507
0.000152437
0.00761146
0.000292787
0.0076902
0.000432407
0.00776049
0.000571983
0.000710812
0.0072467
-0.000746586
0.0073466
-0.000618003
0.00744451
-0.000486189
0.00754013
-0.00035139
0.00763307
-0.000213965
0.00772266
-7.42676e-05
0.00780782
6.72809e-05
0.00789231
0.000208298
0.00796944
0.000355277
0.00804138
0.000500039
0.000645
0.00759067
-0.000833951
0.00767681
-0.000704144
0.00776177
-0.000571147
0.00784549
-0.000435117
0.00792784
-0.000296313
0.00800861
-0.000155035
0.00808756
-1.16692e-05
0.00816298
0.000132873
0.00823742
0.000280843
0.00830843
0.000429023
0.000577688
0.0079303
-0.000908339
0.00800409
-0.000777926
0.00807734
-0.000644396
0.0081501
-0.000507881
0.00822237
-0.000368579
0.00829406
-0.000226728
0.008365
-8.26148e-05
0.00843455
6.33309e-05
0.00850386
0.000211535
0.00857163
0.000361251
0.000511729
0.00826785
-0.000971052
0.00833053
-0.000840612
0.00839326
-0.000707118
0.00845608
-0.000570707
0.00851905
-0.000431548
0.00858216
-0.000289837
0.00864533
-0.000145787
0.00870862
3.87553e-08
0.00877289
0.000147266
0.00883614
0.000298004
0.000448757
0.00860519
-0.0010233
0.00865794
-0.00089336
0.00871125
-0.00076043
0.00876521
-0.000624662
0.00881988
-0.000486224
0.00887535
-0.000345303
0.00893167
-0.000202105
0.00898859
-5.68871e-05
0.00904591
8.99531e-05
0.00910468
0.000239226
0.000389444
0.00894399
-0.00106613
0.00898778
-0.000937152
0.0090326
-0.000805245
0.00907851
-0.000670576
0.0091256
-0.000533314
0.00917394
-0.000393636
0.00922356
-0.00025173
0.00927448
-0.000107802
0.00932668
3.77533e-05
0.00938046
0.000185443
0.00033433
0.0092857
-0.00110045
0.00932137
-0.000972825
0.00935847
-0.000842342
0.00939706
-0.000709171
0.00943723
-0.000573483
0.00947905
-0.000435452
0.00952257
-0.000295258
0.00956786
-0.000153092
0.00961495
-9.33301e-06
0.00966401
0.000136379
0.000283418
0.00963154
-0.00112701
0.00965981
-0.00100109
0.00968985
-0.000872389
0.00972176
-0.000741073
0.00975559
-0.000607314
0.00979142
-0.000471284
0.00982932
-0.000333157
0.00986934
-0.000193119
0.00991139
-5.13766e-05
0.00995618
9.15837e-05
0.000236674
0.0099825
-0.00114647
0.010004
-0.00102257
0.0100275
-0.000895961
0.0100533
-0.000766816
0.0100813
-0.000635303
0.0101116
-0.000501592
0.0101443
-0.000365855
0.0101794
-0.000228271
0.0102171
-8.9035e-05
0.0102571
5.15362e-05
0.000193795
0.0103393
-0.00115938
0.0103546
-0.00103778
0.0103721
-0.00091355
0.0103922
-0.000786859
0.0104148
-0.000657871
0.0104399
-0.000526755
0.0104677
-0.00039368
0.0104983
-0.000258818
0.0105316
-0.000122353
0.0105677
1.54212e-05
0.000154724
0.0107027
-0.00116623
0.0107121
-0.00104718
0.0107241
-0.000925587
0.0107389
-0.000801603
0.0107564
-0.000675393
0.0107768
-0.000547122
0.0108
-0.000416956
0.0108263
-0.000285066
0.0108556
-0.000151627
0.0108879
-1.68685e-05
0.000119219
0.0110731
-0.00116745
0.0110771
-0.00105119
0.0110839
-0.000932457
0.0110937
-0.00081141
0.0111065
-0.000688206
0.0111224
-0.000563007
0.0111415
-0.000435975
0.0111637
-0.000307276
0.0111891
-0.000177082
0.0112178
-4.55807e-05
8.71042e-05
0.0114509
-0.00116341
0.0114499
-0.00105016
0.0114519
-0.000934502
0.0114571
-0.000816601
0.0114655
-0.000696612
0.0114772
-0.000574691
0.0114922
-0.000450997
0.0115106
-0.000325692
0.0115325
-0.000198942
0.0115578
-7.09223e-05
5.81723e-05
0.0118367
-0.00115447
0.0118309
-0.00104441
0.0118285
-0.000932027
0.0118293
-0.000817466
0.0118336
-0.000700883
0.0118413
-0.00058243
0.0118526
-0.000462262
0.0118675
-0.000340538
0.0118859
-0.000217419
0.0119081
-9.30718e-05
3.22637e-05
0.012231
-0.00114093
0.0122208
-0.00103425
0.0122141
-0.00092531
0.0122109
-0.000814269
0.0122113
-0.00070127
0.0122153
-0.000586461
0.012223
-0.000469995
0.0122345
-0.000352025
0.0122498
-0.000232708
0.0122689
-0.000112205
9.25141e-06
0.0126342
-0.00112306
0.0126199
-0.00101992
0.0126092
-0.000914598
0.0126022
-0.000807241
0.0125989
-0.00069799
0.0125994
-0.000586991
0.0126038
-0.000474389
0.0126121
-0.000360336
0.0126244
-0.000244984
0.0126407
-0.00012849
-1.1037e-05
0.0130472
-0.00110111
0.0130289
-0.00100167
0.0130144
-0.000900114
0.0130038
-0.000796595
0.012997
-0.000691247
0.0129943
-0.000584209
0.0129955
-0.000475626
0.0130008
-0.000365642
0.0130102
-0.000254406
0.0130238
-0.000142069
-2.87916e-05
0.0134704
-0.0010753
0.0134484
-0.000979695
0.0134304
-0.000882057
0.0134163
-0.00078252
0.0134063
-0.000681219
0.0134004
-0.000578289
0.0133986
-0.000473869
0.0134011
-0.000368099
0.0134078
-0.000261122
0.0134188
-0.000153086
-4.41423e-05
0.0139047
-0.00104583
0.0138792
-0.000954195
0.0138578
-0.000860606
0.0138404
-0.000765188
0.0138273
-0.000668071
0.0138184
-0.000569386
0.0138138
-0.000469266
0.0138135
-0.000367848
0.0138177
-0.00026527
0.0138263
-0.000161674
-5.72037e-05
0.0143509
-0.00101286
0.0143221
-0.000925332
0.0142974
-0.00083592
0.0142769
-0.000744751
0.0142608
-0.000651949
0.0142491
-0.00055764
0.0142418
-0.000461953
0.0142389
-0.00036502
0.0142406
-0.000266974
0.0142469
-0.000167951
-6.80899e-05
0.0148099
-0.000976565
0.0147778
-0.000893254
0.01475
-0.000808141
0.0147266
-0.000721343
0.0147077
-0.00063298
0.0146932
-0.000543174
0.0146833
-0.000452048
0.014678
-0.000359727
0.0146774
-0.000266341
0.0146814
-0.00017202
-7.68967e-05
0.0152826
-0.000937065
0.0152475
-0.000858089
0.0152167
-0.000777392
0.0151905
-0.000695085
0.0151688
-0.000611283
0.0151517
-0.000526103
0.0151393
-0.000439661
0.0151317
-0.000352079
0.0151288
-0.000263479
0.0151308
-0.000173985
-8.37245e-05
0.0157701
-0.000894477
0.015732
-0.000819947
0.0156984
-0.000743779
0.0156694
-0.000666081
0.015645
-0.000586959
0.0156255
-0.000506526
0.0156107
-0.000424893
0.0156008
-0.000342176
0.0155958
-0.000258491
0.0155958
-0.000173958
-8.86975e-05
0.0162735
-0.000848896
0.0162325
-0.00077892
0.0161961
-0.000707393
0.0161644
-0.000634416
0.0161376
-0.000560092
0.0161156
-0.000484524
0.0160985
-0.000407821
0.0160864
-0.00033009
0.0160793
-0.000251442
0.0160774
-0.000171991
-9.18494e-05
0.016794
-0.000800397
0.0167501
-0.000735082
0.016711
-0.000668307
0.0166768
-0.000600165
0.0166475
-0.000530754
0.0166231
-0.000460171
0.0166038
-0.000388518
0.0165896
-0.000315897
0.0165806
-0.000242413
0.0165768
-0.00016817
-9.32772e-05
0.0173328
-0.000749042
0.0172862
-0.000688495
0.0172445
-0.000626581
0.0172077
-0.000563388
0.017176
-0.000499007
0.0171493
-0.00043353
0.0171278
-0.000367051
0.0171116
-0.000299665
0.0171007
-0.00023147
0.0170951
-0.000162566
-9.30515e-05
0.0178913
-0.000694874
0.017842
-0.000639203
0.0177977
-0.000582262
0.0177585
-0.000524135
0.0177244
-0.000464904
0.0176955
-0.000404654
0.0176719
-0.000343474
0.0176537
-0.000281451
0.0176409
-0.000218676
0.0176336
-0.000155241
-9.12398e-05
0.018471
-0.000637923
0.0184191
-0.000587237
0.0183722
-0.000535385
0.0183305
-0.000482441
0.0182941
-0.000428482
0.018263
-0.000373586
0.0182374
-0.000317833
0.0182172
-0.000261305
0.0182026
-0.000204084
0.0181937
-0.000146256
-8.79042e-05
0.0190735
-0.000578205
0.0190189
-0.000532619
0.0189695
-0.000485974
0.0189254
-0.000438336
0.0188867
-0.000389775
0.0188534
-0.000340362
0.0188258
-0.000290171
0.0188037
-0.000239274
0.0187874
-0.000187746
0.0187768
-0.000135665
-8.31073e-05
0.0197004
-0.000515726
0.0196431
-0.000475357
0.0195912
-0.000434041
0.0195447
-0.000391836
0.0195037
-0.000348806
0.0194683
-0.000305012
0.0194387
-0.000260521
0.0194148
-0.000215397
0.0193968
-0.000169708
0.0193846
-0.000123522
-7.69084e-05
0.0203534
-0.000450481
0.0202935
-0.000415453
0.0202391
-0.000379594
0.0201902
-0.000342956
0.020147
-0.000305593
0.0201095
-0.000267561
0.0200779
-0.000228916
0.0200522
-0.000189715
0.0200325
-0.000150018
0.0200189
-0.000109883
-6.93703e-05
0.0210346
-0.000382458
0.0209721
-0.0003529
0.0209151
-0.000322633
0.0208638
-0.000291702
0.0208184
-0.000260152
0.0207789
-0.00022803
0.0207453
-0.000195385
0.0207179
-0.000162265
0.0206966
-0.000128719
0.0206815
-9.47983e-05
-6.05543e-05
0.0217461
-0.000311638
0.0216809
-0.000287687
0.0216214
-0.000263155
0.0215678
-0.000238078
0.0215201
-0.000212494
0.0214785
-0.000186441
0.0214431
-0.000159957
0.0214139
-0.000133084
0.0213911
-0.000105861
0.0213746
-7.83285e-05
-5.05299e-05
0.0224902
-0.000238001
0.0224223
-0.000219801
0.0223603
-0.000201154
0.0223043
-0.000182088
0.0222544
-0.000162632
0.0222108
-0.000142814
0.0221735
-0.000122665
0.0221427
-0.000102215
0.0221183
-8.1495e-05
0.0221005
-6.05365e-05
-3.93711e-05
0.0232695
-0.000161527
0.0231989
-0.000149229
0.0231344
-0.000136627
0.0230761
-0.000123737
0.023024
-0.00011058
0.0229784
-9.71751e-05
0.0229392
-8.35432e-05
0.0229067
-6.97046e-05
0.0228809
-5.56802e-05
0.0228619
-4.14918e-05
-2.71607e-05
0.0240869
-8.21998e-05
0.0240137
-7.59675e-05
0.0239466
-6.95782e-05
0.0238859
-6.30411e-05
0.0238317
-5.63665e-05
0.0237841
-4.95641e-05
0.0237432
-4.26445e-05
0.0237091
-3.56179e-05
0.0236819
-2.84954e-05
0.0236617
-2.12876e-05
-1.40059e-05
0.0249459
0.0248699
0.0248003
0.0247373
0.0246809
0.0246314
0.0245887
0.0245531
0.0245246
0.0245033
)
;

boundaryField
{
    inlet
    {
        type            calculated;
        value           nonuniform 0();
    }
    outlet
    {
        type            calculated;
        value           nonuniform 0();
    }
    cylinder
    {
        type            calculated;
        value           nonuniform 0();
    }
    top
    {
        type            symmetryPlane;
        value           uniform 0;
    }
    bottom
    {
        type            symmetryPlane;
        value           nonuniform 0();
    }
    defaultFaces
    {
        type            empty;
        value           nonuniform 0();
    }
    procBoundary31to24
    {
        type            processor;
        value           nonuniform List<scalar> 8(-0.00677751 -0.00714494 -0.0075033 -0.00785592 -0.00820513 -0.00855294 -0.00890116 -0.00925138);
    }
    procBoundary31to25
    {
        type            processor;
        value           nonuniform List<scalar> 
14
(
-0.000846793
-0.000755676
-0.0033999
-0.000656299
-0.000548934
-0.000439689
-0.000326361
0.000149668
2.66856e-05
-0.00669329
-9.52852e-05
0.0005269
-0.00666577
0.000402816
)
;
    }
    procBoundary31to26
    {
        type            processor;
        value           nonuniform List<scalar> 8(0.00337914 0.00714408 0.00750691 0.00782156 0.00810719 0.00837575 0.00863759 0.00889911);
    }
    procBoundary31to30
    {
        type            processor;
        value           nonuniform List<scalar> 
30
(
-0.00960497
-0.00996304
-0.0103264
-0.0106958
-0.0110718
-0.0114549
-0.0118456
-0.0122445
-0.0126521
-0.0130691
-0.0134962
-0.0139342
-0.0143839
-0.0148462
-0.0153221
-0.0158127
-0.0163191
-0.0168425
-0.0173841
-0.0179455
-0.018528
-0.0191332
-0.0197628
-0.0204187
-0.0211026
-0.0218169
-0.0225638
-0.023346
-0.0241662
-0.0250281
)
;
    }
    procBoundary31to32
    {
        type            processor;
        value           nonuniform List<scalar> 
33
(
0.009164
0.00943557
0.00971493
0.0100029
0.0103
0.0106068
0.0109234
0.0112499
0.0115868
0.011934
0.0122919
0.012661
0.0130416
0.0134341
0.0138393
0.0142578
0.0146903
0.0151376
0.0156008
0.0160805
0.0165782
0.0170948
0.0176318
0.0181903
0.018772
0.0193784
0.0200114
0.0206727
0.0213646
0.0220893
0.0228497
0.0236486
0.0244893
)
;
    }
}


// ************************************************************************* //
