/*--------------------------------*- C++ -*----------------------------------*\
  =========                 |
  \\      /  F ield         | OpenFOAM: The Open Source CFD Toolbox
   \\    /   O peration     | Website:  https://openfoam.org
    \\  /    A nd           | Version:  7
     \\/     M anipulation  |
\*---------------------------------------------------------------------------*/
FoamFile
{
    version     2.0;
    format      ascii;
    class       volScalarField;
    location    "1.2";
    object      T;
}
// * * * * * * * * * * * * * * * * * * * * * * * * * * * * * * * * * * * * * //

dimensions      [0 0 0 1 0 0 0];

internalField   nonuniform List<scalar> 
100800
(
1
1
1
1
1
1
1
1
1
1
1
1
1
1
1
1
1
1
1
1
1
1
1
1
1
1
1
1
1
1
1
1
1
1
1
1
1
1
1
1
1
1
1
1
1
1
1
1
1
1
1
1
1
1
1
1
1
1
1
1
1
1
1
1
1
1
2.18607
2.70104
2.72604
2.73875
2.75075
2.76119
2.76885
2.77251
2.77376
2.77459
2.77431
2.77219
2.7683
2.76463
2.76323
2.76553
2.77349
2.7858
2.79898
2.80875
2.81401
2.81393
2.81242
2.81078
2.81053
2.81212
2.81651
2.82198
2.82605
2.8276
2.82763
2.82825
2.83041
2.83406
2.83846
2.84278
2.84667
2.85031
2.85401
2.85786
2.86201
2.86588
2.86907
2.87207
2.87492
2.8781
2.88266
2.89001
2.90438
2.93403
2.98223
3.03762
3.07789
3.0919
1
1
1
1
1
1
1
1
1
1
1
1
1
1
1
1
1
1
1
1
1
1
1
1
1
1
1
1
1
1
1
1
1
1
1
1
1
1
1
1
1
1
1
1
1
1
1
1
1
1
1
1
1
1
1
1
1
1
1
1
1
1
1
1
1
1
2.18336
2.70031
2.72592
2.73844
2.75066
2.76117
2.76887
2.77248
2.77368
2.77447
2.77415
2.77193
2.76801
2.76438
2.76307
2.7654
2.77341
2.78571
2.79891
2.80867
2.81387
2.81381
2.81234
2.81076
2.81055
2.81217
2.81656
2.822
2.82607
2.82765
2.8277
2.82831
2.83037
2.83385
2.83813
2.84251
2.84659
2.85041
2.85415
2.85793
2.86189
2.86556
2.86868
2.8717
2.87467
2.878
2.88268
2.89011
2.90447
2.93417
2.98237
3.03765
3.07777
3.0918
1
1
1
1
1
1
1
1
1
1
1
1
1
1
1
1
1
1
1
1
1
1
1
1
1
1
1
1
1
1
1
1
1
1
1
1
1
1
1
1
1
1
1
1
1
1
1
1
1
1
1
1
1
1
1
1
1
1
1
1
1
1
1
1
1
1
2.17589
2.69946
2.72534
2.73794
2.75047
2.76111
2.76888
2.77233
2.77339
2.7741
2.77369
2.77128
2.76733
2.76382
2.7627
2.76513
2.7733
2.78565
2.79888
2.80853
2.8136
2.81351
2.81206
2.81055
2.81043
2.81214
2.81658
2.82198
2.82608
2.82766
2.82773
2.82835
2.83026
2.83355
2.83775
2.84221
2.84648
2.85043
2.85422
2.85803
2.86184
2.86526
2.86834
2.87131
2.87433
2.87768
2.88251
2.89017
2.90484
2.93482
2.98306
3.03807
3.07777
3.09168
1
1
1
1
1
1
1
1
1
1
1
1
1
1
1
1
1
1
1
1
1
1
1
1
1
1
1
1
1
1
1
1
1
1
1
1
1
1
1
1
1
1
1
1
1
1
1
1
1
1
1
1
1
1
1
1
1
1
1
1
1
1
1
1
1
1
2.16228
2.69855
2.72504
2.73765
2.75034
2.76108
2.76883
2.77203
2.7729
2.77347
2.77287
2.77018
2.7662
2.76291
2.7621
2.76475
2.77325
2.78571
2.79895
2.8084
2.81315
2.81298
2.81157
2.81015
2.81014
2.81198
2.8165
2.82188
2.826
2.82756
2.82764
2.82827
2.83003
2.83315
2.83729
2.84186
2.8463
2.85035
2.85415
2.85798
2.86167
2.8649
2.86793
2.87091
2.87401
2.87738
2.88231
2.89016
2.90527
2.93566
2.98406
3.03883
3.07807
3.09182
1
1
1
1
1
1
1
1
1
1
1
1
1
1
1
1
1
1
1
1
1
1
1
1
1
1
1
1
1
1
1
1
1
1
1
1
1
1
1
1
1
1
1
1
1
1
1
1
1
1
1
1
1
1
1
1
1
1
1
1
1
1
1
1
1
1
2.1441
2.69825
2.72489
2.73745
2.75015
2.76091
2.76858
2.77154
2.77223
2.7726
2.77169
2.76863
2.76463
2.76166
2.7613
2.76437
2.77337
2.78603
2.79922
2.80837
2.81254
2.81226
2.81082
2.80949
2.80958
2.8116
2.81626
2.82164
2.82577
2.82727
2.82733
2.828
2.82966
2.83265
2.83679
2.84149
2.84605
2.8501
2.85387
2.85768
2.86132
2.86459
2.86769
2.87066
2.87372
2.8771
2.88203
2.89003
2.90561
2.9365
2.98522
3.03988
3.0787
3.09229
1
1
1
1
1
1
1
1
1
1
1
1
1
1
1
1
1
1
1
1
1
1
1
1
1
1
1
1
1
1
1
1
1
1
1
1
1
1
1
1
1
1
1
1
1
1
1
1
1
1
1
1
1
1
1
1
1
1
1
1
1
1
1
1
1
1
2.12155
2.69829
2.72498
2.73744
2.75002
2.76063
2.76811
2.77081
2.77127
2.77138
2.77005
2.7666
2.76269
2.76015
2.7603
2.76416
2.77378
2.78677
2.79976
2.80841
2.81183
2.8114
2.80985
2.80857
2.80875
2.81098
2.81583
2.82126
2.82536
2.82679
2.82681
2.82748
2.82908
2.83205
2.83623
2.84106
2.84567
2.84963
2.85329
2.85707
2.86081
2.86429
2.86755
2.87056
2.87352
2.87683
2.88166
2.88973
2.90574
2.93721
2.9864
3.04115
3.07969
3.09316
1
1
1
1
1
1
1
1
1
1
1
1
1
1
1
1
1
1
1
1
1
1
1
1
1
1
1
1
1
1
1
1
1
1
1
1
1
1
1
1
1
1
1
1
1
1
1
1
1
1
1
1
1
1
1
1
1
1
1
1
1
1
1
1
1
1
2.09384
2.69828
2.72497
2.73729
2.74972
2.76016
2.76739
2.76981
2.76999
2.76977
2.76786
2.76406
2.76043
2.75851
2.75924
2.7642
2.77453
2.78789
2.80046
2.80845
2.81103
2.81041
2.80873
2.80749
2.80774
2.81018
2.81525
2.82076
2.82482
2.82612
2.8261
2.82673
2.82832
2.83133
2.83561
2.84053
2.84513
2.84895
2.85245
2.85624
2.8602
2.86396
2.86745
2.87052
2.87339
2.87658
2.88125
2.88931
2.9057
2.93776
2.98753
3.04254
3.08097
3.09439
1
1
1
1
1
1
1
1
1
1
1
1
1
1
1
1
1
1
1
1
1
1
1
1
1
1
1
1
1
1
1
1
1
1
1
1
1
1
1
1
1
1
1
1
1
1
1
1
1
1
1
1
1
1
1
1
1
1
1
1
1
1
1
1
1
1
2.06061
2.6975
2.72459
2.73678
2.74912
2.75945
2.76645
2.76852
2.76841
2.76766
2.76506
2.76098
2.75786
2.75678
2.75828
2.7646
2.77571
2.78929
2.80119
2.80843
2.81011
2.8093
2.80745
2.80624
2.80658
2.80924
2.81459
2.82024
2.82422
2.82534
2.82523
2.82583
2.8274
2.8305
2.83491
2.83989
2.84443
2.84811
2.85146
2.85526
2.85946
2.86354
2.86723
2.87037
2.87317
2.87625
2.88075
2.88878
2.90551
2.93815
2.98856
3.04395
3.08244
3.09581
1
1
1
1
1
1
1
1
1
1
1
1
1
1
1
1
1
1
1
1
1
1
1
1
1
1
1
1
1
1
1
1
1
1
1
1
1
1
1
1
1
1
1
1
1
1
1
1
1
1
1
1
1
1
1
1
1
1
1
1
1
1
1
1
1
1
2.02139
2.69526
2.72372
2.73579
2.74813
2.75846
2.76526
2.76688
2.76646
2.76501
2.76164
2.75751
2.75513
2.75499
2.7576
2.7655
2.77732
2.79088
2.80183
2.80816
2.80899
2.80799
2.80596
2.80481
2.8053
2.80825
2.81397
2.81977
2.82361
2.82445
2.82425
2.82478
2.82633
2.82953
2.83407
2.83909
2.84358
2.84719
2.85047
2.85424
2.85857
2.8629
2.86675
2.86994
2.8727
2.87573
2.88013
2.88819
2.90522
2.9384
2.98945
3.04529
3.08396
3.09726
1
1
1
1
1
1
1
1
1
1
1
1
1
1
1
1
1
1
1
1
1
1
1
1
1
1
1
1
1
1
1
1
1
1
1
1
1
1
1
1
1
1
1
1
1
1
1
1
1
1
1
1
1
1
1
1
1
1
1
1
1
1
1
1
1
1
1.97559
2.69102
2.72253
2.73447
2.74681
2.75716
2.76368
2.76474
2.76398
2.76164
2.75759
2.75398
2.75256
2.75322
2.75736
2.76689
2.77927
2.79259
2.80236
2.80747
2.80759
2.80633
2.80415
2.80315
2.80385
2.80722
2.81338
2.81934
2.82299
2.82353
2.82321
2.82358
2.82512
2.82843
2.83309
2.83815
2.84263
2.84626
2.84957
2.85326
2.85756
2.86196
2.86585
2.86908
2.87189
2.87498
2.87943
2.88759
2.90486
2.93848
2.99011
3.04644
3.08537
3.09859
1
1
1
1
1
1
1
1
1
1
1
1
1
1
1
1
1
1
1
1
1
1
1
1
1
1
1
1
1
1
1
1
1
1
1
1
1
1
1
1
1
1
1
1
1
1
1
1
1
1
1
1
1
1
1
1
1
1
1
1
1
1
1
1
1
1
1.923
2.68426
2.7213
2.73294
2.74515
2.75546
2.76155
2.76196
2.76072
2.75743
2.75306
2.75049
2.75026
2.75185
2.75762
2.76853
2.78148
2.79422
2.80273
2.80632
2.80594
2.80421
2.80196
2.80122
2.80224
2.80614
2.8128
2.81891
2.82239
2.82262
2.82209
2.82222
2.82377
2.82719
2.83194
2.83704
2.84159
2.84537
2.84878
2.85239
2.85649
2.86069
2.86448
2.86775
2.87072
2.87403
2.87868
2.88698
2.90441
2.93834
2.99042
3.04727
3.08653
3.0997
1
1
1
1
1
1
1
1
1
1
1
1
1
1
1
1
1
1
1
1
1
1
1
1
1
1
1
1
1
1
1
1
1
1
1
1
1
1
1
1
1
1
1
1
1
1
1
1
1
1
1
1
1
1
1
1
1
1
1
1
1
1
1
1
1
1
1.86352
2.67399
2.72015
2.73132
2.74327
2.75329
2.75866
2.75851
2.75637
2.75244
2.7487
2.74754
2.74814
2.75114
2.75853
2.77048
2.78381
2.7956
2.80284
2.80483
2.80395
2.80167
2.79936
2.79896
2.80041
2.80497
2.81215
2.81843
2.82176
2.82174
2.82086
2.8207
2.82231
2.8258
2.83059
2.83578
2.84047
2.84449
2.8481
2.85164
2.85538
2.85915
2.86268
2.86599
2.86923
2.87295
2.87791
2.88634
2.90382
2.93792
2.99032
3.04763
3.08735
3.10059
1
1
1
1
1
1
1
1
1
1
1
1
1
1
1
1
1
1
1
1
1
1
1
1
1
1
1
1
1
1
1
1
1
1
1
1
1
1
1
1
1
1
1
1
1
1
1
1
1
1
1
1
1
1
1
1
1
1
1
1
1
1
1
1
1
1
1.79467
2.65908
2.71892
2.72944
2.74115
2.75049
2.75481
2.75414
2.75108
2.7473
2.74489
2.74508
2.74666
2.75109
2.75997
2.77267
2.78593
2.79649
2.80253
2.8031
2.8017
2.7988
2.79641
2.79635
2.79836
2.8037
2.81142
2.81786
2.82105
2.82082
2.8196
2.81913
2.82071
2.8242
2.82902
2.83431
2.83922
2.84353
2.84736
2.85088
2.85424
2.85742
2.86058
2.8639
2.86754
2.87175
2.87709
2.88561
2.903
2.9371
2.98977
3.04756
3.0878
3.10129
1
1
1
1
1
1
1
1
1
1
1
1
1
1
1
1
1
1
1
1
1
1
1
1
1
1
1
1
1
1
1
1
1
1
1
1
1
1
1
1
1
1
1
1
1
1
1
1
1
1
1
1
1
1
1
1
1
1
1
1
1
1
1
1
1
1
1.70934
2.63767
2.7172
2.72726
2.73864
2.74672
2.75002
2.74876
2.74597
2.74316
2.74215
2.74303
2.74588
2.75155
2.76158
2.7747
2.78747
2.79673
2.80163
2.80132
2.7992
2.7957
2.79324
2.79341
2.7961
2.80228
2.81054
2.81717
2.82019
2.81977
2.81828
2.81754
2.81898
2.8224
2.82722
2.83262
2.83776
2.84238
2.84646
2.85003
2.85303
2.85564
2.85841
2.86171
2.86577
2.87049
2.87619
2.88474
2.9019
2.9358
2.98865
3.04704
3.0879
3.10186
1
1
1
1
1
1
1
1
1
1
1
1
1
1
1
1
1
1
1
1
1
1
1
1
1
1
1
1
1
1
1
1
1
1
1
1
1
1
1
1
1
1
1
1
1
1
1
1
1
1
1
1
1
1
1
1
1
1
1
1
1
1
1
1
1
1
1.60885
2.60937
2.71519
2.72431
2.73475
2.7418
2.74483
2.74378
2.74193
2.74044
2.74047
2.74202
2.74571
2.75236
2.76302
2.77605
2.78807
2.79648
2.79998
2.79916
2.79639
2.79249
2.79006
2.7904
2.79372
2.80076
2.80958
2.81636
2.81919
2.81858
2.81693
2.81595
2.81717
2.82048
2.82525
2.83072
2.83602
2.84091
2.84529
2.84894
2.85166
2.85388
2.85632
2.85958
2.86397
2.86913
2.87511
2.88359
2.90041
2.93401
2.98701
3.04609
3.08777
3.10236
1
1
1
1
1
1
1
1
1
1
1
1
1
1
1
1
1
1
1
1
1
1
1
1
1
1
1
1
1
1
1
1
1
1
1
1
1
1
1
1
1
1
1
1
1
1
1
1
1
1
1
1
1
1
1
1
1
1
1
1
1
1
1
1
1
1
1.50337
2.57453
2.71253
2.71992
2.72947
2.73668
2.74037
2.74047
2.73983
2.73922
2.73982
2.74193
2.74599
2.7532
2.764
2.77655
2.78782
2.79541
2.79767
2.79651
2.79331
2.78919
2.78689
2.78744
2.79133
2.79918
2.80848
2.81536
2.81792
2.81716
2.81542
2.81427
2.81532
2.81845
2.82315
2.82867
2.83406
2.8391
2.84372
2.84749
2.85009
2.85212
2.85439
2.85765
2.86223
2.86764
2.87376
2.88207
2.89851
2.93179
2.98495
3.04477
3.08732
3.10257
1
1
1
1
1
1
1
1
1
1
1
1
1
1
1
1
1
1
1
1
1
1
1
1
1
1
1
1
1
1
1
1
1
1
1
1
1
1
1
1
1
1
1
1
1
1
1
1
1
1
1
1
1
1
1
1
1
1
1
1
1
1
1
1
1
1
1.38931
2.52828
2.70834
2.71466
2.72412
2.73214
2.73746
2.73924
2.73916
2.7391
2.73993
2.74226
2.74655
2.75391
2.7645
2.77629
2.78662
2.79322
2.79453
2.79327
2.78995
2.7859
2.78386
2.78472
2.78921
2.79782
2.80746
2.81429
2.81651
2.81554
2.81367
2.81244
2.81336
2.81631
2.82098
2.82654
2.83194
2.83696
2.84163
2.84552
2.84822
2.8503
2.8526
2.85592
2.86057
2.866
2.87204
2.88009
2.89619
2.92924
2.98259
3.04311
3.08645
3.1023
1
1
1
1
1
1
1
1
1
1
1
1
1
1
1
1
1
1
1
1
1
1
1
1
1
1
1
1
1
1
1
1
1
1
1
1
1
1
1
1
1
1
1
1
1
1
1
1
1
1
1
1
1
1
1
1
1
1
1
1
1
1
1
1
1
1
1.26703
2.46636
2.70365
2.71152
2.72144
2.72978
2.73626
2.73939
2.73947
2.73944
2.74028
2.74269
2.74705
2.75433
2.76459
2.77542
2.78454
2.79007
2.79065
2.78944
2.78626
2.78267
2.78101
2.78228
2.78745
2.79669
2.80647
2.81313
2.81491
2.81366
2.81161
2.81038
2.81126
2.81413
2.81887
2.82451
2.82988
2.8347
2.83912
2.84299
2.84595
2.84827
2.85086
2.85436
2.85896
2.86418
2.86993
2.87766
2.89353
2.92649
2.98006
3.04116
3.08508
3.10141
1
1
1
1
1
1
1
1
1
1
1
1
1
1
1
1
1
1
1
1
1
1
1
1
1
1
1
1
1
1
1
1
1
1
1
1
1
1
1
1
1
1
1
1
1
1
1
1
1
1
1
1
1
1
1
1
1
1
1
1
1
1
1
1
1
1
1.13998
2.39406
2.70079
2.71209
2.72273
2.73147
2.73802
2.74064
2.74014
2.73957
2.74008
2.74242
2.74699
2.75426
2.76403
2.77369
2.78155
2.78595
2.78605
2.7849
2.78207
2.77923
2.77826
2.78012
2.78614
2.79577
2.80562
2.81194
2.81315
2.8116
2.8093
2.808
2.80895
2.81187
2.81676
2.82252
2.82785
2.83234
2.83625
2.83992
2.84317
2.84593
2.84906
2.85286
2.85734
2.86217
2.86744
2.87479
2.89056
2.92355
2.97737
3.03892
3.08315
3.09967
1
1
1
1
1
1
1
1
1
1
1
1
1
1
1
1
1
1
1
1
1
1
1
1
1
1
1
1
1
1
1
1
1
1
1
1
1
1
1
1
1
1
1
1
1
1
1
1
1
1
1
1
1
1
1
1
1
1
1
1
1
1
1
1
1
1
1.00881
2.31429
2.70213
2.71626
2.7264
2.73454
2.73995
2.74132
2.74045
2.73944
2.73984
2.74214
2.74671
2.75351
2.76225
2.77069
2.77752
2.78117
2.7812
2.78004
2.7776
2.77564
2.77555
2.7782
2.7853
2.79509
2.80478
2.81066
2.81114
2.80926
2.80667
2.80527
2.80633
2.80947
2.81464
2.82061
2.82592
2.83004
2.83336
2.83654
2.83986
2.8433
2.84707
2.85126
2.8556
2.8599
2.86457
2.87159
2.88733
2.92043
2.9745
3.03635
3.08069
3.09712
1
1
1
1
1
1
1
1
1
1
1
1
1
1
1
1
1
1
1
1
1
1
1
1
1
1
1
1
1
1
1
1
1
1
1
1
1
1
1
1
1
1
1
1
1
1
1
1
1
1
1
1
1
1
1
1
1
1
1
1
1
1
1
1
1
1
1.00005
2.22245
2.70003
2.71946
2.72939
2.73702
2.74173
2.74219
2.74096
2.73939
2.73944
2.74136
2.74543
2.75132
2.75886
2.76655
2.77291
2.77622
2.77637
2.77528
2.77333
2.77204
2.7727
2.77653
2.78464
2.79454
2.80379
2.80914
2.80897
2.80673
2.80386
2.80233
2.80348
2.80691
2.81244
2.8187
2.82396
2.82771
2.83043
2.833
2.83622
2.84027
2.8448
2.84942
2.85358
2.85732
2.86134
2.86817
2.88389
2.9171
2.97133
3.03339
3.07772
3.09388
1
1
1
1
1
1
1
1
1
1
1
1
1
1
1
1
1
1
1
1
1
1
1
1
1
1
1
1
1
1
1
1
1
1
1
1
1
1
1
1
1
1
1
1
1
1
1
1
1
1
1
1
1
1
1
1
1
1
1
1
1
1
1
1
1
1
1
2.11306
2.69536
2.71866
2.72917
2.73736
2.74155
2.7418
2.74042
2.73877
2.73844
2.73966
2.74275
2.7475
2.75397
2.76129
2.76783
2.77149
2.77201
2.7711
2.76956
2.7688
2.77011
2.77508
2.78391
2.79393
2.80254
2.8072
2.80661
2.80402
2.80094
2.79923
2.8004
2.80411
2.81007
2.81662
2.82183
2.82523
2.82741
2.82948
2.83258
2.83707
2.84228
2.84722
2.85122
2.8544
2.8579
2.86456
2.88025
2.91347
2.96775
3.02991
3.07423
3.09005
1
1
1
1
1
1
1
1
1
1
1
1
1
1
1
1
1
1
1
1
1
1
1
1
1
1
1
1
1
1
1
1
1
1
1
1
1
1
1
1
1
1
1
1
1
1
1
1
1
1
1
1
1
1
1
1
1
1
1
1
1
1
1
1
1
1
1
1.98606
2.6836
2.7157
2.72601
2.73456
2.7389
2.73972
2.73853
2.73709
2.73645
2.73708
2.73913
2.74262
2.7481
2.75523
2.76233
2.76695
2.76824
2.7677
2.76662
2.76625
2.76808
2.77392
2.78306
2.79301
2.80096
2.80472
2.80386
2.80108
2.79784
2.796
2.79715
2.80112
2.8075
2.81426
2.81938
2.82246
2.82425
2.82602
2.82908
2.83389
2.83951
2.84457
2.84833
2.85111
2.85428
2.86078
2.87638
2.90944
2.96362
3.02585
3.07026
3.0858
1
1
1
1
1
1
1
1
1
1
1
1
1
1
1
1
1
1
1
1
1
1
1
1
1
1
1
1
1
1
1
1
1
1
1
1
1
1
1
1
1
1
1
1
1
1
1
1
1
1
1
1
1
1
1
1
1
1
1
1
1
1
1
1
1
1
1
1.84582
2.66195
2.71159
2.71935
2.72698
2.73187
2.73437
2.73431
2.73396
2.73346
2.73374
2.73504
2.73748
2.74201
2.74891
2.75676
2.76264
2.76491
2.76493
2.76441
2.7644
2.7667
2.77308
2.78224
2.79179
2.79896
2.80181
2.80071
2.79781
2.79447
2.79261
2.7938
2.79799
2.80472
2.81152
2.81647
2.81926
2.82083
2.82256
2.82577
2.83081
2.83656
2.8415
2.84496
2.8475
2.85048
2.85686
2.87225
2.90493
2.95881
3.0211
3.06575
3.08115
1
1
1
1
1
1
1
1
1
1
1
1
1
1
1
1
1
1
1
1
1
1
1
1
1
1
1
1
1
1
1
1
1
1
1
1
1
1
1
1
1
1
1
1
1
1
1
1
1
1
1
1
1
1
1
1
1
1
1
1
1
1
1
1
1
1
1
1.67724
2.62006
2.70645
2.70906
2.71505
2.72032
2.72481
2.72745
2.72894
2.72923
2.72992
2.73143
2.73373
2.73791
2.74436
2.75203
2.7584
2.76164
2.76256
2.76268
2.76318
2.76599
2.77253
2.78134
2.79007
2.79612
2.79824
2.79702
2.79417
2.79085
2.78906
2.79042
2.79486
2.80172
2.80837
2.81307
2.81558
2.81711
2.81903
2.82256
2.82778
2.83343
2.83805
2.84119
2.84357
2.84645
2.85272
2.86777
2.89985
2.95327
3.01562
3.06072
3.07618
1
1
1
1
1
1
1
1
1
1
1
1
1
1
1
1
1
1
1
1
1
1
1
1
1
1
1
1
1
1
1
1
1
1
1
1
1
1
1
1
1
1
1
1
1
1
1
1
1
1
1
1
1
1
1
1
1
1
1
1
1
1
1
1
1
1
1
1.47322
2.55181
2.70219
2.70043
2.70441
2.70915
2.71474
2.71975
2.7233
2.7252
2.72688
2.72922
2.73217
2.73653
2.74255
2.74965
2.75589
2.75943
2.76085
2.76145
2.76237
2.76547
2.77179
2.77995
2.78763
2.79259
2.79418
2.79297
2.79026
2.78708
2.78542
2.78703
2.79175
2.79851
2.80484
2.8092
2.81148
2.81309
2.81539
2.8193
2.82463
2.83002
2.83418
2.83709
2.83939
2.84225
2.84837
2.86292
2.89418
2.94697
3.00939
3.05508
3.07078
1
1
1
1
1
1
1
1
1
1
1
1
1
1
1
1
1
1
1
1
1
1
1
1
1
1
1
1
1
1
1
1
1
1
1
1
1
1
1
1
1
1
1
1
1
1
1
1
1
1
1
1
1
1
1
1
1
1
1
1
1
1
1
1
1
1
1
1.25635
2.45839
2.70169
2.69977
2.70207
2.70545
2.71027
2.71542
2.7191
2.72139
2.72387
2.72742
2.73187
2.7372
2.74332
2.74962
2.75459
2.75728
2.75866
2.75966
2.76112
2.76452
2.77052
2.77782
2.78441
2.78843
2.78962
2.7885
2.78606
2.78317
2.78174
2.78366
2.78864
2.7951
2.80092
2.8049
2.80701
2.80883
2.81157
2.8158
2.82114
2.82619
2.82987
2.83265
2.83496
2.83783
2.84374
2.85762
2.88787
2.93993
3.00243
3.04884
3.06495
1
1
1
1
1
1
1
1
1
1
1
1
1
1
1
1
1
1
1
1
1
1
1
1
1
1
1
1
1
1
1
1
1
1
1
1
1
1
1
1
1
1
1
1
1
1
1
1
1
1
1
1
1
1
1
1
1
1
1
1
1
1
1
1
1
1
1
1.07472
2.36981
2.70009
2.69941
2.70268
2.70677
2.71152
2.71561
2.71806
2.71976
2.72237
2.72648
2.73176
2.73775
2.74388
2.74942
2.75347
2.75545
2.75663
2.75777
2.75947
2.76284
2.76831
2.77463
2.78026
2.78362
2.78459
2.78364
2.78166
2.77927
2.7782
2.78038
2.78554
2.7915
2.79664
2.80023
2.8023
2.80444
2.80757
2.81198
2.81713
2.82174
2.82511
2.82785
2.83029
2.83322
2.83881
2.85187
2.88097
2.93217
2.9947
3.04185
3.05847
1
1
1
1
1
1
1
1
1
1
1
1
1
1
1
1
1
1
1
1
1
1
1
1
1
1
1
1
1
1
1
1
1
1
1
1
1
1
1
1
1
1
1
1
1
1
1
1
1
1
1
1
1
1
1
1
1
1
1
1
1
1
1
1
1
1
1
1.00176
2.2544
2.69884
2.70233
2.70661
2.71126
2.7149
2.717
2.71796
2.71889
2.72124
2.72552
2.73134
2.73784
2.7441
2.74915
2.75239
2.75369
2.75449
2.75549
2.75712
2.76014
2.76483
2.77024
2.77513
2.77818
2.77914
2.77848
2.77714
2.77547
2.77489
2.77728
2.78237
2.78768
2.79202
2.79531
2.79749
2.79998
2.80336
2.80775
2.81251
2.81658
2.81977
2.82258
2.82523
2.82822
2.83343
2.84556
2.87341
2.92365
2.98619
3.03411
3.05132
1
1
1
1
1
1
1
1
1
1
1
1
1
1
1
1
1
1
1
1
1
1
1
1
1
1
1
1
1
1
1
1
1
1
1
1
1
1
1
1
1
1
1
1
1
1
1
1
1
1
1
1
1
1
1
1
1
1
1
1
1
1
1
1
1
1
1
1
2.10545
2.68791
2.70412
2.71001
2.71539
2.71837
2.71903
2.71865
2.71866
2.72014
2.72402
2.72991
2.73664
2.74302
2.74779
2.75053
2.75141
2.7519
2.75267
2.75402
2.75641
2.76015
2.7647
2.76901
2.77208
2.77335
2.77316
2.77263
2.77184
2.77185
2.77446
2.77915
2.78353
2.78709
2.79022
2.79263
2.79543
2.79888
2.80308
2.8073
2.81079
2.81382
2.81678
2.8197
2.8228
2.82761
2.83875
2.86525
2.91438
2.97678
3.0254
3.04318
1
1
1
1
1
1
1
1
1
1
1
1
1
1
1
1
1
1
1
1
1
1
1
1
1
1
1
1
1
1
1
1
1
1
1
1
1
1
1
1
1
1
1
1
1
1
1
1
1
1
1
1
1
1
1
1
1
1
1
1
1
1
1
1
1
1
1
1
1.92789
2.6555
2.69967
2.70673
2.71293
2.71622
2.71694
2.71648
2.71612
2.7171
2.72051
2.72626
2.73305
2.73955
2.74441
2.74718
2.74822
2.74872
2.7494
2.75047
2.75217
2.75482
2.7584
2.76214
2.76529
2.76718
2.76789
2.76828
2.76839
2.76908
2.77194
2.77583
2.77905
2.78196
2.78507
2.78775
2.79073
2.79418
2.79802
2.8015
2.8045
2.80731
2.81035
2.81349
2.81663
2.82102
2.83118
2.85627
2.90422
2.96643
3.01573
3.03409
1
1
1
1
1
1
1
1
1
1
1
1
1
1
1
1
1
1
1
1
1
1
1
1
1
1
1
1
1
1
1
1
1
1
1
1
1
1
1
1
1
1
1
1
1
1
1
1
1
1
1
1
1
1
1
1
1
1
1
1
1
1
1
1
1
1
1
1
1.698
2.58495
2.68981
2.69772
2.7046
2.70893
2.71091
2.71117
2.7113
2.71249
2.71583
2.72118
2.72753
2.73379
2.73886
2.74211
2.74388
2.74482
2.74565
2.74659
2.74772
2.74938
2.75191
2.75499
2.75819
2.76081
2.76265
2.76414
2.76517
2.76655
2.76936
2.77219
2.77428
2.77672
2.77984
2.78273
2.78579
2.78913
2.79247
2.79528
2.79779
2.80032
2.80333
2.80657
2.80969
2.81368
2.8229
2.84655
2.89312
2.95493
3.00473
3.02354
1
1
1
1
1
1
1
1
1
1
1
1
1
1
1
1
1
1
1
1
1
1
1
1
1
1
1
1
1
1
1
1
1
1
1
1
1
1
1
1
1
1
1
1
1
1
1
1
1
1
1
1
1
1
1
1
1
1
1
1
1
1
1
1
1
1
1
1
1.40828
2.49207
2.68249
2.68065
2.68766
2.6943
2.69933
2.70246
2.70449
2.70671
2.71021
2.71505
2.72074
2.72652
2.73166
2.73539
2.73801
2.73978
2.74114
2.74232
2.74334
2.74446
2.74622
2.74861
2.75156
2.75463
2.75744
2.76002
2.76188
2.76383
2.76634
2.76818
2.76943
2.77149
2.77451
2.77744
2.78048
2.78364
2.78638
2.78873
2.79078
2.79298
2.79576
2.79885
2.80173
2.80521
2.81345
2.83561
2.88073
2.94211
2.99242
3.01171
1
1
1
1
1
1
1
1
1
1
1
1
1
1
1
1
1
1
1
1
1
1
1
1
1
1
1
1
1
1
1
1
1
1
1
1
1
1
1
1
1
1
1
1
1
1
1
1
1
1
1
1
1
1
1
1
1
1
1
1
1
1
1
1
1
1
1
1
1.12925
2.38782
2.68278
2.67799
2.68103
2.68621
2.69196
2.69685
2.70025
2.70299
2.706
2.70976
2.71429
2.71913
2.72397
2.7281
2.73158
2.73441
2.7366
2.73834
2.7396
2.74061
2.74186
2.74337
2.74584
2.74907
2.75243
2.75576
2.7583
2.76068
2.76272
2.76389
2.76461
2.76621
2.76891
2.77167
2.77463
2.77756
2.77977
2.78179
2.7835
2.78531
2.78766
2.79034
2.79281
2.79572
2.80301
2.8236
2.86701
2.92757
2.97808
2.99759
1
1
1
1
1
1
1
1
1
1
1
1
1
1
1
1
1
1
1
1
1
1
1
1
1
1
1
1
1
1
1
1
1
1
1
1
1
1
1
1
1
1
1
1
1
1
1
1
1
1
1
1
1
1
1
1
1
1
1
1
1
1
1
1
1
1
1
1
1.00409
2.28462
2.67934
2.67539
2.67643
2.68025
2.68637
2.69222
2.69646
2.69957
2.70253
2.70597
2.70974
2.71336
2.71702
2.72057
2.7244
2.72831
2.73156
2.73402
2.73572
2.7369
2.73798
2.73913
2.74125
2.74428
2.74771
2.75136
2.75441
2.75706
2.75857
2.75928
2.75966
2.76071
2.76292
2.76538
2.76815
2.77082
2.77267
2.77448
2.77591
2.77729
2.77904
2.78105
2.78284
2.78491
2.79091
2.80958
2.85099
2.91068
2.96154
2.98151
1
1
1
1
1
1
1
1
1
1
1
1
1
1
1
1
1
1
1
1
1
1
1
1
1
1
1
1
1
1
1
1
1
1
1
1
1
1
1
1
1
1
1
1
1
1
1
1
1
1
1
1
1
1
1
1
1
1
1
1
1
1
1
1
1
1
1
1
1.00001
2.12933
2.68071
2.67852
2.6803
2.68428
2.68914
2.69394
2.6972
2.6995
2.70175
2.70441
2.70733
2.7101
2.71294
2.71593
2.71956
2.72359
2.72714
2.72992
2.73198
2.73352
2.73479
2.73602
2.73783
2.74032
2.74336
2.74692
2.75023
2.75297
2.75407
2.75425
2.75429
2.75479
2.75639
2.75851
2.76105
2.76338
2.76511
2.76671
2.76786
2.76876
2.76979
2.77093
2.77182
2.77292
2.77749
2.79408
2.83302
2.89107
2.94149
2.96107
1
1
1
1
1
1
1
1
1
1
1
1
1
1
1
1
1
1
1
1
1
1
1
1
1
1
1
1
1
1
1
1
1
1
1
1
1
1
1
1
1
1
1
1
1
1
1
1
1
1
1
1
1
1
1
1
1
1
1
1
1
1
1
1
1
1
1
1
1
1.92347
2.64742
2.67929
2.68229
2.68723
2.69233
2.6962
2.69832
2.69967
2.70119
2.70322
2.70561
2.70796
2.71038
2.71306
2.71633
2.7199
2.72313
2.7258
2.72807
2.7301
2.73197
2.7335
2.73506
2.73692
2.7393
2.74242
2.74578
2.74843
2.7493
2.7489
2.74827
2.74821
2.74916
2.75104
2.7534
2.75546
2.75707
2.7584
2.75918
2.75953
2.75975
2.75989
2.75968
2.75961
2.76221
2.77555
2.81067
2.86643
2.91654
2.93675
1
1
1
1
1
1
1
1
1
1
1
1
1
1
1
1
1
1
1
1
1
1
1
1
1
1
1
1
1
1
1
1
1
1
1
1
1
1
1
1
1
1
1
1
1
1
1
1
1
1
1
1
1
1
1
1
1
1
1
1
1
1
1
1
1
1
1
1
1
1.64286
2.55479
2.67476
2.6773
2.68252
2.68837
2.69338
2.69655
2.69836
2.69964
2.70127
2.7034
2.70571
2.70816
2.71083
2.71375
2.71665
2.71922
2.72148
2.72374
2.72624
2.72886
2.73089
2.73235
2.73367
2.73539
2.73794
2.74111
2.74359
2.74428
2.74327
2.74162
2.74076
2.74128
2.74292
2.74527
2.74721
2.74861
2.74947
2.7497
2.74943
2.74882
2.74779
2.74612
2.74464
2.74531
2.75495
2.78549
2.83765
2.88488
2.90115
1
1
1
1
1
1
1
1
1
1
1
1
1
1
1
1
1
1
1
1
1
1
1
1
1
1
1
1
1
1
1
1
1
1
1
1
1
1
1
1
1
1
1
1
1
1
1
1
1
1
1
1
1
1
1
1
1
1
1
1
1
1
1
1
1
1
1
1
1
1.28511
2.43379
2.66725
2.66339
2.66928
2.67761
2.68527
2.69068
2.69387
2.69572
2.69756
2.69986
2.70246
2.70523
2.7081
2.71086
2.7132
2.71511
2.71687
2.71896
2.72172
2.7249
2.72745
2.72894
2.73003
2.73139
2.73343
2.73619
2.73846
2.73885
2.73728
2.73454
2.73267
2.73272
2.73412
2.73664
2.73865
2.73972
2.73992
2.73948
2.73844
2.73692
2.73459
2.73129
2.7277
2.72604
2.73099
2.75328
2.79664
2.83828
2.85151
1
1
1
1
1
1
1
1
1
1
1
1
1
1
1
1
1
1
1
1
1
1
1
1
1
1
1
1
1
1
1
1
1
1
1
1
1
1
1
1
1
1
1
1
1
1
1
1
1
1
1
1
1
1
1
1
1
1
1
1
1
1
1
1
1
1
1
1
1
1.01988
2.32594
2.65857
2.65543
2.66071
2.66825
2.67613
2.68242
2.68651
2.68931
2.69187
2.69475
2.69794
2.70111
2.70408
2.7066
2.70853
2.71006
2.71158
2.7136
2.71647
2.71988
2.72271
2.72435
2.72559
2.72697
2.72869
2.73096
2.73293
2.73289
2.73086
2.72718
2.72424
2.72358
2.72488
2.72754
2.72969
2.73046
2.72994
2.72856
2.72657
2.72402
2.72033
2.71515
2.70867
2.70359
2.70339
2.7162
2.74857
2.78289
2.79848
1
1
1
1
1
1
1
1
1
1
1
1
1
1
1
1
1
1
1
1
1
1
1
1
1
1
1
1
1
1
1
1
1
1
1
1
1
1
1
1
1
1
1
1
1
1
1
1
1
1
1
1
1
1
1
1
1
1
1
1
1
1
1
1
1
1
1
1
1
1.0001
2.16762
2.64981
2.65596
2.66007
2.66423
2.66935
2.67469
2.67911
2.68268
2.68583
2.68895
2.69242
2.6957
2.69855
2.70083
2.70254
2.70402
2.70566
2.70784
2.7107
2.71397
2.7167
2.71855
2.7202
2.72185
2.72338
2.72514
2.72671
2.72638
2.72387
2.71951
2.71569
2.71433
2.71546
2.71806
2.72032
2.72086
2.71969
2.7172
2.71401
2.7102
2.705
2.69775
2.68832
2.67809
2.67132
2.67164
2.67613
2.65488
2.53408
1
1
1
1
1
1
1
1
1
1
1
1
1
1
1
1
1
1
1
1
1
1
1
1
1
1
1
1
1
1
1
1
1
1
1
1
1
1
1
1
1
1
1
1
1
1
1
1
1
1
1
1
1
1
1
1
1
1
1
1
1
1
1
1
1
1
1
1
1
1
1.95357
2.63222
2.65804
2.6597
2.66369
2.66842
2.67266
2.67608
2.67876
2.68117
2.68377
2.68691
2.68989
2.69238
2.69431
2.69584
2.69741
2.69932
2.70171
2.70442
2.70727
2.70968
2.71171
2.7138
2.71574
2.71711
2.71835
2.71944
2.71897
2.71632
2.71173
2.70735
2.70534
2.70612
2.7084
2.71065
2.71094
2.70919
2.70556
2.70101
2.69571
2.68879
2.67929
2.66677
2.65153
2.63573
2.61919
2.59728
2.53761
2.35799
1
1
1
1
1
1
1
1
1
1
1
1
1
1
1
1
1
1
1
1
1
1
1
1
1
1
1
1
1
1
1
1
1
1
1
1
1
1
1
1
1
1
1
1
1
1
1
1
1
1
1
1
1
1
1
1
1
1
1
1
1
1
1
1
1
1
1
1
1
1
1.63401
2.54234
2.65589
2.65596
2.6599
2.66524
2.67043
2.67423
2.6765
2.67804
2.67975
2.68204
2.6844
2.68646
2.68811
2.68957
2.69121
2.69327
2.69562
2.69799
2.7002
2.70219
2.70426
2.70664
2.70883
2.71014
2.71098
2.71163
2.71107
2.70846
2.70396
2.69933
2.69677
2.69704
2.69875
2.70082
2.70074
2.69848
2.69379
2.68781
2.68081
2.67199
2.6601
2.64447
2.6242
2.60022
2.56884
2.53048
2.43265
2.25173
1
1
1
1
1
1
1
1
1
1
1
1
1
1
1
1
1
1
1
1
1
1
1
1
1
1
1
1
1
1
1
1
1
1
1
1
1
1
1
1
1
1
1
1
1
1
1
1
1
1
1
1
1
1
1
1
1
1
1
1
1
1
1
1
1
1
1
1
1
1
1.22629
2.40657
2.65313
2.64932
2.65194
2.6582
2.6658
2.67109
2.67382
2.67498
2.67613
2.67769
2.67947
2.68109
2.68263
2.68413
2.68585
2.68791
2.68999
2.69189
2.69352
2.6951
2.69707
2.69952
2.70181
2.70306
2.70348
2.70363
2.70281
2.70027
2.69615
2.69165
2.68864
2.68808
2.68926
2.69084
2.69041
2.68757
2.68193
2.67454
2.66578
2.65501
2.64072
2.62211
2.59769
2.56683
2.5272
2.46609
2.3603
2.19331
1
1
1
1
1
1
1
1
1
1
1
1
1
1
1
1
1
1
1
1
1
1
1
1
1
1
1
1
1
1
1
1
1
1
1
1
1
1
1
1
1
1
1
1
1
1
1
1
1
1
1
1
1
1
1
1
1
1
1
1
1
1
1
1
1
1
1
1
1
1
1.01173
2.28306
2.63874
2.63732
2.64228
2.64984
2.65883
2.66555
2.66957
2.67128
2.67219
2.67333
2.67473
2.67609
2.67763
2.67942
2.68136
2.68334
2.6851
2.68647
2.6875
2.68859
2.69026
2.69255
2.69484
2.69606
2.6962
2.69596
2.69474
2.69227
2.6886
2.68436
2.68092
2.67943
2.67986
2.68061
2.67989
2.6765
2.66999
2.66129
2.65084
2.63818
2.62176
2.60034
2.57255
2.53602
2.49018
2.41744
2.31825
2.1853
1
1
1
1
1
1
1
1
1
1
1
1
1
1
1
1
1
1
1
1
1
1
1
1
1
1
1
1
1
1
1
1
1
1
1
1
1
1
1
1
1
1
1
1
1
1
1
1
1
1
1
1
1
1
1
1
1
1
1
1
1
1
1
1
1
1
1
1
1
1
1.00003
2.08035
2.62367
2.63668
2.64125
2.64745
2.65406
2.65997
2.66442
2.66675
2.6677
2.66878
2.67014
2.67147
2.6731
2.67517
2.67716
2.67911
2.68065
2.68159
2.68219
2.68287
2.68416
2.6861
2.68823
2.68937
2.68929
2.68864
2.68705
2.6846
2.68135
2.67736
2.67358
2.67111
2.67035
2.67021
2.66899
2.66514
2.65797
2.64814
2.63618
2.6218
2.6036
2.57993
2.54944
2.50942
2.45907
2.38555
2.29588
2.18281
1
1
1
1
1
1
1
1
1
1
1
1
1
1
1
1
1
1
1
1
1
1
1
1
1
1
1
1
1
1
1
1
1
1
1
1
1
1
1
1
1
1
1
1
1
1
1
1
1
1
1
1
1
1
1
1
1
1
1
1
1
1
1
1
1
1
1
1
1
1
1
1.77565
2.56875
2.63572
2.63888
2.64288
2.64861
2.65493
2.65958
2.66212
2.66303
2.66376
2.66512
2.66661
2.66847
2.67076
2.67277
2.67473
2.67623
2.67704
2.67746
2.67788
2.67874
2.68019
2.68198
2.68292
2.68265
2.68166
2.67981
2.67739
2.67446
2.6707
2.6666
2.66314
2.66097
2.65965
2.6577
2.65346
2.64585
2.63514
2.62188
2.60602
2.58641
2.56122
2.52876
2.48715
2.43444
2.3653
2.28446
2.18441
1
1
1
1
1
1
1
1
1
1
1
1
1
1
1
1
1
1
1
1
1
1
1
1
1
1
1
1
1
1
1
1
1
1
1
1
1
1
1
1
1
1
1
1
1
1
1
1
1
1
1
1
1
1
1
1
1
1
1
1
1
1
1
1
1
1
1
1
1
1
1
1.36271
2.45251
2.63127
2.62835
2.63299
2.64125
2.64943
2.65482
2.65735
2.65809
2.6585
2.65975
2.66133
2.66338
2.66579
2.66781
2.66977
2.67128
2.67221
2.67274
2.67314
2.67376
2.6748
2.67617
2.67681
2.67631
2.67501
2.67293
2.6705
2.66774
2.66416
2.65982
2.65548
2.65189
2.64914
2.64618
2.64145
2.63354
2.62226
2.60801
2.59097
2.57028
2.54419
2.51081
2.46929
2.41586
2.35191
2.27856
2.18931
1
1
1
1
1
1
1
1
1
1
1
1
1
1
1
1
1
1
1
1
1
1
1
1
1
1
1
1
1
1
1
1
1
1
1
1
1
1
1
1
1
1
1
1
1
1
1
1
1
1
1
1
1
1
1
1
1
1
1
1
1
1
1
1
1
1
1
1
1
1
1
1.03116
2.31707
2.62896
2.62246
2.62642
2.63435
2.64379
2.64977
2.6525
2.65307
2.65323
2.65404
2.65551
2.65756
2.65994
2.66196
2.66393
2.66555
2.66674
2.66762
2.66827
2.66891
2.66973
2.67068
2.67086
2.6701
2.66848
2.66617
2.66364
2.66088
2.65745
2.65304
2.64809
2.64327
2.63897
2.63469
2.6292
2.62101
2.60942
2.59454
2.57664
2.55521
2.52869
2.49578
2.45408
2.40249
2.3441
2.27877
2.19741
1
1
1
1
1
1
1
1
1
1
1
1
1
1
1
1
1
1
1
1
1
1
1
1
1
1
1
1
1
1
1
1
1
1
1
1
1
1
1
1
1
1
1
1
1
1
1
1
1
1
1
1
1
1
1
1
1
1
1
1
1
1
1
1
1
1
1
1
1
1
1
1.0002
2.10604
2.60592
2.61523
2.62217
2.631
2.63926
2.64456
2.64741
2.64814
2.64817
2.64859
2.64977
2.65154
2.65363
2.65548
2.65734
2.65898
2.6604
2.66164
2.66269
2.6636
2.66443
2.66516
2.66502
2.664
2.66209
2.65945
2.65658
2.65356
2.65016
2.64587
2.6407
2.63508
2.62935
2.62351
2.61691
2.60828
2.59655
2.58141
2.56301
2.54113
2.51474
2.48252
2.4415
2.39369
2.34088
2.28029
2.20597
1
1
1
1
1
1
1
1
1
1
1
1
1
1
1
1
1
1
1
1
1
1
1
1
1
1
1
1
1
1
1
1
1
1
1
1
1
1
1
1
1
1
1
1
1
1
1
1
1
1
1
1
1
1
1
1
1
1
1
1
1
1
1
1
1
1
1
1
1
1
1
1
1.7714
2.54931
2.61593
2.62166
2.62743
2.63322
2.6385
2.64182
2.643
2.6429
2.64298
2.6438
2.64524
2.64701
2.64869
2.65045
2.65211
2.65363
2.65503
2.65633
2.65748
2.6584
2.65904
2.65881
2.65771
2.65566
2.65271
2.64929
2.64571
2.64209
2.63793
2.63289
2.62694
2.62016
2.61279
2.60485
2.59552
2.58365
2.56854
2.55
2.52796
2.50197
2.47046
2.43206
2.38804
2.33935
2.28105
2.21495
1
1
1
1
1
1
1
1
1
1
1
1
1
1
1
1
1
1
1
1
1
1
1
1
1
1
1
1
1
1
1
1
1
1
1
1
1
1
1
1
1
1
1
1
1
1
1
1
1
1
1
1
1
1
1
1
1
1
1
1
1
1
1
1
1
1
1
1
1
1
1
1
1.31485
2.4268
2.6178
2.61432
2.61799
2.62454
2.63093
2.63538
2.6375
2.63749
2.63734
2.63781
2.63889
2.6404
2.64194
2.64364
2.64529
2.64677
2.64808
2.6493
2.6505
2.65143
2.65205
2.65189
2.65097
2.64902
2.64587
2.64182
2.63747
2.63336
2.62918
2.62439
2.61846
2.61108
2.60247
2.59318
2.58294
2.57082
2.55589
2.53759
2.51583
2.48985
2.45996
2.42449
2.3832
2.33679
2.28223
2.22605
1
1
1
1
1
1
1
1
1
1
1
1
1
1
1
1
1
1
1
1
1
1
1
1
1
1
1
1
1
1
1
1
1
1
1
1
1
1
1
1
1
1
1
1
1
1
1
1
1
1
1
1
1
1
1
1
1
1
1
1
1
1
1
1
1
1
1
1
1
1
1
1
1.02262
2.28932
2.60664
2.60426
2.60767
2.61516
2.62286
2.62884
2.63215
2.63248
2.6319
2.63177
2.63229
2.63346
2.63498
2.63681
2.63865
2.64022
2.64142
2.64237
2.64326
2.64385
2.64426
2.64413
2.64348
2.64182
2.63869
2.63422
2.62916
2.62435
2.61982
2.61506
2.60926
2.60169
2.59235
2.58194
2.57072
2.5582
2.54346
2.5257
2.50444
2.47866
2.45088
2.41693
2.37818
2.33567
2.28694
2.23709
1
1
1
1
1
1
1
1
1
1
1
1
1
1
1
1
1
1
1
1
1
1
1
1
1
1
1
1
1
1
1
1
1
1
1
1
1
1
1
1
1
1
1
1
1
1
1
1
1
1
1
1
1
1
1
1
1
1
1
1
1
1
1
1
1
1
1
1
1
1
1
1
1.00009
2.04008
2.58364
2.59668
2.60318
2.61023
2.61727
2.62339
2.62741
2.62833
2.6274
2.62662
2.62639
2.62693
2.6281
2.6298
2.63176