/*--------------------------------*- C++ -*----------------------------------*\
  =========                 |
  \\      /  F ield         | OpenFOAM: The Open Source CFD Toolbox
   \\    /   O peration     | Website:  https://openfoam.org
    \\  /    A nd           | Version:  7
     \\/     M anipulation  |
\*---------------------------------------------------------------------------*/
FoamFile
{
    version     2.0;
    format      ascii;
    class       volVectorField;
    location    "1.2";
    object      U;
}
// * * * * * * * * * * * * * * * * * * * * * * * * * * * * * * * * * * * * * //

dimensions      [0 1 -1 0 0 0 0];

internalField   nonuniform List<vector> 
100800
(
(3 4.07207e-18 0)
(3 -2.08091e-16 0)
(3 -3.28702e-16 0)
(3 -1.0431e-15 0)
(3 -8.31991e-16 0)
(3 -7.61647e-16 0)
(3 -3.71792e-16 0)
(3 -2.3936e-16 0)
(3 -5.24601e-16 0)
(3 8.81336e-17 0)
(3 2.45728e-16 0)
(3 6.61474e-16 0)
(3 1.19184e-15 0)
(3 1.23023e-15 0)
(3 9.52487e-16 0)
(3 3.92447e-16 0)
(3 3.80124e-16 0)
(3 8.79118e-16 0)
(3 1.02522e-16 0)
(3 -1.76981e-16 0)
(3 -2.2631e-16 0)
(3 -7.82212e-16 0)
(3 -7.31282e-16 0)
(3 -2.35951e-17 0)
(3 -1.41348e-17 0)
(3 3.06941e-17 0)
(3 -2.63012e-17 0)
(3 -6.88106e-16 0)
(3 -5.58096e-16 0)
(3 -6.31711e-16 0)
(3 -1.96015e-16 0)
(3 -1.54023e-16 0)
(3 -2.97685e-16 0)
(3 -2.49287e-16 0)
(3 -4.07476e-16 0)
(3 -1.11375e-15 0)
(3 -4.90559e-16 0)
(3 -4.36582e-16 0)
(3 -4.4985e-16 0)
(3 -9.49099e-16 0)
(3 -3.2675e-16 0)
(3 -5.50011e-17 0)
(3 -3.70219e-16 0)
(3 1.92207e-16 0)
(3 4.93574e-16 0)
(3 1.49105e-16 0)
(3 -9.07086e-16 0)
(3 -3.20658e-17 0)
(3 1.77836e-16 0)
(3 -4.94866e-16 0)
(3 -9.09782e-16 0)
(3 -7.78618e-16 0)
(3 7.82587e-16 0)
(3 1.26374e-15 0)
(3 6.8225e-16 0)
(3 4.27641e-16 0)
(3 -3.64107e-16 0)
(3 -5.24647e-16 0)
(3 -1.35998e-17 0)
(3 3.64981e-16 0)
(3 4.27985e-17 0)
(3 -2.93994e-17 0)
(3 3.02131e-16 0)
(3 -8.24774e-16 0)
(3 6.43017e-16 0)
(3 -2.85065e-15 0)
(1.2601 0.00405301 0)
(0.738649 0.00547674 0)
(0.709384 0.0063495 0)
(0.696947 0.00409552 0)
(0.687602 0.00320367 0)
(0.681188 0.00329574 0)
(0.675172 0.0041216 0)
(0.668496 0.0050306 0)
(0.658415 0.00613126 0)
(0.644141 0.00693665 0)
(0.626702 0.00747062 0)
(0.607888 0.00739992 0)
(0.589743 0.00704126 0)
(0.572502 0.00704023 0)
(0.556878 0.00703416 0)
(0.542586 0.00655989 0)
(0.528947 0.00558155 0)
(0.518611 0.00428128 0)
(0.509653 0.00381351 0)
(0.501069 0.00418077 0)
(0.48983 0.00492574 0)
(0.475832 0.00614364 0)
(0.459356 0.0072681 0)
(0.441222 0.00763289 0)
(0.424589 0.00691896 0)
(0.410886 0.00588253 0)
(0.399529 0.00554985 0)
(0.389902 0.00586973 0)
(0.380598 0.00638934 0)
(0.370249 0.0066702 0)
(0.359075 0.00674756 0)
(0.346436 0.0067806 0)
(0.331631 0.00679148 0)
(0.315961 0.0068089 0)
(0.300628 0.00680921 0)
(0.285669 0.00681732 0)
(0.270547 0.00680684 0)
(0.255016 0.00682369 0)
(0.239348 0.00688101 0)
(0.22432 0.00697932 0)
(0.210378 0.0070842 0)
(0.196605 0.00718606 0)
(0.182619 0.00722262 0)
(0.167365 0.00716769 0)
(0.15134 0.00711319 0)
(0.13527 0.00715686 0)
(0.120131 0.00736384 0)
(0.105707 0.00768696 0)
(0.0929909 0.00811514 0)
(0.079849 0.00848191 0)
(0.0654207 0.00873748 0)
(0.0489319 0.00888153 0)
(0.0306382 0.00885915 0)
(0.0101542 0.00882712 0)
(3 1.08661e-16 0)
(3 -2.2271e-17 0)
(3 -2.36527e-16 0)
(3 -6.64447e-16 0)
(3 -9.15527e-16 0)
(3 -4.69323e-16 0)
(3 -9.48232e-17 0)
(3 4.19585e-16 0)
(3 2.04088e-16 0)
(3 3.95645e-16 0)
(3 5.50435e-16 0)
(3 5.3562e-16 0)
(3 1.17475e-15 0)
(3 1.21407e-15 0)
(3 1.58088e-15 0)
(3 7.33053e-16 0)
(3 6.40182e-16 0)
(3 5.48099e-16 0)
(3 -5.51845e-16 0)
(3 -8.97008e-16 0)
(3 -7.83042e-16 0)
(3 -9.50159e-16 0)
(3 -1.09605e-15 0)
(3 -3.13579e-16 0)
(3 -6.11848e-16 0)
(3 -5.76444e-16 0)
(3 -5.82638e-16 0)
(3 -1.02597e-15 0)
(3 3.93784e-16 0)
(3 1.83689e-16 0)
(3 -2.23119e-16 0)
(3 -3.47312e-16 0)
(3 -1.23204e-16 0)
(3 2.95808e-16 0)
(3 1.63003e-16 0)
(3 -1.06687e-15 0)
(3 -1.41304e-15 0)
(3 -2.42249e-15 0)
(3 -2.82865e-15 0)
(3 -2.79706e-15 0)
(3 -1.26368e-15 0)
(3 4.39835e-16 0)
(3 4.84367e-16 0)
(3 3.38616e-16 0)
(3 2.88797e-16 0)
(3 -5.11985e-16 0)
(3 -1.89711e-15 0)
(3 4.82365e-17 0)
(3 1.60981e-15 0)
(3 9.50507e-16 0)
(3 -3.08158e-16 0)
(3 -9.42073e-17 0)
(3 1.17722e-15 0)
(3 6.95095e-16 0)
(3 -1.28941e-16 0)
(3 -9.29044e-17 0)
(3 8.22255e-17 0)
(3 3.09476e-16 0)
(3 5.65796e-16 0)
(3 5.29783e-16 0)
(3 7.71059e-16 0)
(3 9.19119e-16 0)
(3 1.31465e-15 0)
(3 1.34235e-15 0)
(3 1.48087e-15 0)
(3 -2.14488e-16 0)
(1.26365 0.0166644 0)
(0.736708 0.018815 0)
(0.708428 0.0182824 0)
(0.696685 0.0136079 0)
(0.686053 0.0108871 0)
(0.678254 0.0097856 0)
(0.671605 0.0114259 0)
(0.66488 0.0140987 0)
(0.655174 0.0174929 0)
(0.641269 0.0202683 0)
(0.623984 0.0221518 0)
(0.60504 0.022312 0)
(0.58652 0.0211789 0)
(0.569117 0.0206586 0)
(0.554011 0.0201398 0)
(0.540654 0.0187885 0)
(0.527835 0.0163489 0)
(0.517799 0.0132259 0)
(0.508262 0.0119775 0)
(0.499018 0.0128557 0)
(0.487093 0.0149104 0)
(0.472653 0.0182373 0)
(0.456119 0.0212331 0)
(0.438328 0.0220129 0)
(0.42233 0.0200274 0)
(0.409014 0.0173758 0)
(0.397511 0.0165146 0)
(0.387708 0.0174833 0)
(0.378226 0.018951 0)
(0.367796 0.0196549 0)
(0.356698 0.0197807 0)
(0.344186 0.0199003 0)
(0.329615 0.0201044 0)
(0.314124 0.0204418 0)
(0.298785 0.0206628 0)
(0.283725 0.0206699 0)
(0.268599 0.0204193 0)
(0.253207 0.0202552 0)
(0.237845 0.0203474 0)
(0.223112 0.0207338 0)
(0.20924 0.0213652 0)
(0.195131 0.0219621 0)
(0.18087 0.02215 0)
(0.165439 0.0218847 0)
(0.149719 0.0215184 0)
(0.133955 0.0214088 0)
(0.119349 0.0219772 0)
(0.105181 0.0229608 0)
(0.0925757 0.0243463 0)
(0.0791785 0.0255398 0)
(0.0644804 0.0263565 0)
(0.0478879 0.0267989 0)
(0.0297367 0.0267039 0)
(0.00991428 0.0265233 0)
(3 2.52479e-17 0)
(3 2.87082e-16 0)
(3 4.99004e-16 0)
(3 4.32991e-16 0)
(3 2.28893e-16 0)
(3 6.22785e-16 0)
(3 3.50853e-16 0)
(3 2.01419e-16 0)
(3 2.37985e-16 0)
(3 3.31818e-17 0)
(3 8.44493e-17 0)
(3 1.50177e-16 0)
(3 7.92954e-16 0)
(3 1.03524e-15 0)
(3 7.53749e-16 0)
(3 7.40402e-16 0)
(3 8.28304e-16 0)
(3 4.03223e-16 0)
(3 -5.93396e-16 0)
(3 -1.11427e-15 0)
(3 -1.43761e-15 0)
(3 -1.58991e-15 0)
(3 -2.05174e-15 0)
(3 -1.76485e-15 0)
(3 -1.40305e-15 0)
(3 -9.23988e-16 0)
(3 -9.51278e-16 0)
(3 -8.31491e-17 0)
(3 1.25158e-15 0)
(3 1.11464e-15 0)
(3 5.54904e-16 0)
(3 2.22168e-16 0)
(3 2.36963e-16 0)
(3 1.0469e-15 0)
(3 1.2999e-15 0)
(3 7.40086e-16 0)
(3 -5.97633e-17 0)
(3 -1.15788e-15 0)
(3 -1.97738e-15 0)
(3 -1.4724e-15 0)
(3 -6.65734e-16 0)
(3 -4.16992e-17 0)
(3 6.22409e-16 0)
(3 7.33894e-16 0)
(3 6.84475e-16 0)
(3 -2.76182e-16 0)
(3 -8.54609e-16 0)
(3 -6.23312e-16 0)
(3 -7.319e-16 0)
(3 1.64681e-16 0)
(3 1.45745e-17 0)
(3 3.06027e-16 0)
(3 9.8585e-16 0)
(3 1.73317e-15 0)
(3 1.6148e-15 0)
(3 1.42092e-15 0)
(3 2.19113e-15 0)
(3 2.60751e-15 0)
(3 2.47505e-15 0)
(3 1.0782e-15 0)
(3 1.01181e-15 0)
(3 2.45119e-15 0)
(3 3.45083e-15 0)
(3 3.70936e-15 0)
(3 3.08536e-15 0)
(3 5.01397e-16 0)
(1.27712 0.0300304 0)
(0.738434 0.0309576 0)
(0.711835 0.0287478 0)
(0.700494 0.0231077 0)
(0.688313 0.0201116 0)
(0.678354 0.0184334 0)
(0.669885 0.0202351 0)
(0.662161 0.0237454 0)
(0.65252 0.0287996 0)
(0.638936 0.03339 0)
(0.621979 0.0367335 0)
(0.603193 0.037412 0)
(0.584625 0.0356912 0)
(0.56723 0.0343522 0)
(0.552704 0.0327583 0)
(0.540273 0.0303255 0)
(0.528281 0.026708 0)
(0.518612 0.0224132 0)
(0.508475 0.0208889 0)
(0.498484 0.0224851 0)
(0.485603 0.0258918 0)
(0.4705 0.0311114 0)
(0.453651 0.0355373 0)
(0.435957 0.0362859 0)
(0.420506 0.0329941 0)
(0.40759 0.0289549 0)
(0.395933 0.0277509 0)
(0.385944 0.0293384 0)
(0.376181 0.0316329 0)
(0.365514 0.0326532 0)
(0.354382 0.0328074 0)
(0.341911 0.0329601 0)
(0.327579 0.0332567 0)
(0.312223 0.0337854 0)
(0.29671 0.0341437 0)
(0.281324 0.034213 0)
(0.266046 0.0339337 0)
(0.25087 0.0338084 0)
(0.23599 0.0339496 0)
(0.221686 0.0343947 0)
(0.207721 0.0351979 0)
(0.19349 0.0361185 0)
(0.178636 0.0365169 0)
(0.162918 0.0363715 0)
(0.147313 0.0360696 0)
(0.132054 0.0360079 0)
(0.118157 0.03687 0)
(0.104438 0.0383128 0)
(0.0918531 0.0401346 0)
(0.0781208 0.0419146 0)
(0.0630109 0.0432382 0)
(0.0462955 0.0441598 0)
(0.0283696 0.0443867 0)
(0.00947083 0.0444264 0)
(3 -4.70855e-17 0)
(3 3.88978e-16 0)
(3 3.05046e-16 0)
(3 -1.49064e-16 0)
(3 -1.80824e-16 0)
(3 -4.40755e-16 0)
(3 -5.53466e-16 0)
(3 -5.00523e-16 0)
(3 -3.58518e-16 0)
(3 -2.40495e-16 0)
(3 8.46116e-17 0)
(3 7.245e-16 0)
(3 9.15828e-16 0)
(3 9.84305e-16 0)
(3 5.67696e-16 0)
(3 3.88732e-16 0)
(3 3.2298e-16 0)
(3 3.54657e-16 0)
(3 -7.87973e-16 0)
(3 -7.82967e-16 0)
(3 -3.8424e-16 0)
(3 -7.1957e-16 0)
(3 -1.01868e-15 0)
(3 -1.32067e-15 0)
(3 -1.47631e-15 0)
(3 -1.04837e-15 0)
(3 -6.94503e-16 0)
(3 -2.95434e-16 0)
(3 2.66121e-16 0)
(3 5.36993e-16 0)
(3 2.34625e-16 0)
(3 -1.80211e-17 0)
(3 1.1559e-16 0)
(3 6.7807e-16 0)
(3 6.1784e-16 0)
(3 5.68942e-16 0)
(3 1.59671e-17 0)
(3 1.8171e-16 0)
(3 6.67733e-16 0)
(3 5.41997e-16 0)
(3 2.74493e-16 0)
(3 -3.97761e-16 0)
(3 -4.42926e-16 0)
(3 5.73269e-16 0)
(3 1.23153e-15 0)
(3 6.122e-16 0)
(3 7.53984e-16 0)
(3 2.37428e-16 0)
(3 -3.99179e-16 0)
(3 -3.9363e-16 0)
(3 3.38879e-16 0)
(3 1.16256e-15 0)
(3 2.51781e-15 0)
(3 3.8235e-15 0)
(3 4.01938e-15 0)
(3 3.31537e-15 0)
(3 3.51903e-15 0)
(3 3.02242e-15 0)
(3 1.85885e-15 0)
(3 1.00207e-15 0)
(3 2.21509e-16 0)
(3 9.24761e-16 0)
(3 2.1077e-15 0)
(3 2.40891e-15 0)
(3 2.9908e-15 0)
(3 -2.17448e-16 0)
(1.30063 0.0421995 0)
(0.741859 0.0409959 0)
(0.71547 0.0382189 0)
(0.703628 0.0334327 0)
(0.690477 0.0308347 0)
(0.679377 0.0286087 0)
(0.669848 0.0301723 0)
(0.66118 0.0339229 0)
(0.651386 0.0400113 0)
(0.637942 0.0462119 0)
(0.621153 0.0509449 0)
(0.602536 0.0522112 0)
(0.584248 0.0499598 0)
(0.567329 0.0475294 0)
(0.553766 0.0444585 0)
(0.542245 0.0409281 0)
(0.530803 0.0365015 0)
(0.521139 0.031718 0)
(0.510269 0.0304114 0)
(0.499462 0.0329016 0)
(0.485711 0.0377625 0)
(0.470103 0.044673 0)
(0.453051 0.0500493 0)
(0.435572 0.0503329 0)
(0.420678 0.0457899 0)
(0.40802 0.0406899 0)
(0.396065 0.0392779 0)
(0.385809 0.0414709 0)
(0.375658 0.0445488 0)
(0.364605 0.0458768 0)
(0.353315 0.045924 0)
(0.340747 0.0460737 0)
(0.32656 0.0464524 0)
(0.311223 0.0470921 0)
(0.295389 0.047551 0)
(0.279476 0.0477252 0)
(0.263827 0.0475323 0)
(0.248721 0.0474404 0)
(0.234299 0.0475757 0)
(0.220443 0.048034 0)
(0.206362 0.0488954 0)
(0.191909 0.0499619 0)
(0.176479 0.0506111 0)
(0.160512 0.0507543 0)
(0.144897 0.050772 0)
(0.130247 0.0508919 0)
(0.117098 0.0519263 0)
(0.10393 0.0536715 0)
(0.0911862 0.0557567 0)
(0.0769961 0.0579315 0)
(0.0613415 0.0596763 0)
(0.0444527 0.0611321 0)
(0.0267798 0.0617907 0)
(0.00896448 0.0622748 0)
(3 -4.4552e-17 0)
(3 3.11379e-17 0)
(3 -4.3015e-17 0)
(3 -4.88543e-16 0)
(3 -1.20553e-15 0)
(3 -1.19852e-15 0)
(3 -8.23377e-16 0)
(3 -5.66189e-16 0)
(3 -2.90979e-16 0)
(3 -8.78256e-17 0)
(3 1.0774e-16 0)
(3 -2.19573e-16 0)
(3 -2.15257e-16 0)
(3 1.62873e-16 0)
(3 1.48772e-15 0)
(3 1.53484e-15 0)
(3 1.43811e-15 0)
(3 1.06294e-15 0)
(3 2.43166e-16 0)
(3 -8.38405e-16 0)
(3 -1.32433e-15 0)
(3 -1.08061e-15 0)
(3 -2.09286e-16 0)
(3 -3.79844e-16 0)
(3 -3.54035e-16 0)
(3 -3.63376e-16 0)
(3 -7.32196e-16 0)
(3 -9.56428e-16 0)
(3 -5.43332e-16 0)
(3 -5.98787e-16 0)
(3 -4.80527e-16 0)
(3 -9.45831e-17 0)
(3 1.16765e-16 0)
(3 -6.9549e-18 0)
(3 -5.69379e-16 0)
(3 9.06261e-17 0)
(3 4.18906e-16 0)
(3 -6.14114e-18 0)
(3 6.7921e-17 0)
(3 -1.40447e-16 0)
(3 -2.67874e-16 0)
(3 -1.93483e-16 0)
(3 -4.25032e-16 0)
(3 -5.09118e-16 0)
(3 -1.34848e-15 0)
(3 -1.76232e-16 0)
(3 6.28581e-16 0)
(3 1.4072e-15 0)
(3 2.57962e-15 0)
(3 2.53808e-15 0)
(3 3.21873e-15 0)
(3 3.54137e-15 0)
(3 3.36532e-15 0)
(3 3.31551e-15 0)
(3 3.04035e-15 0)
(3 2.82733e-15 0)
(3 2.26923e-15 0)
(3 1.3748e-15 0)
(3 9.70657e-16 0)
(3 7.66216e-17 0)
(3 1.19011e-16 0)
(3 4.91519e-16 0)
(3 2.05839e-16 0)
(3 3.10197e-16 0)
(3 6.06797e-16 0)
(3 4.3147e-17 0)
(1.33203 0.0530186 0)
(0.74462 0.0505283 0)
(0.716375 0.048028 0)
(0.704269 0.0441499 0)
(0.691107 0.0420915 0)
(0.679995 0.0395664 0)
(0.670289 0.0407879 0)
(0.661012 0.0445768 0)
(0.650713 0.0514333 0)
(0.636876 0.0591275 0)
(0.619752 0.0650497 0)
(0.601068 0.0665346 0)
(0.583291 0.0634839 0)
(0.567387 0.0596915 0)
(0.555247 0.0551358 0)
(0.544554 0.0509032 0)
(0.533524 0.0461328 0)
(0.523627 0.0414207 0)
(0.512086 0.0406188 0)
(0.50041 0.0440454 0)
(0.48603 0.0502768 0)
(0.470288 0.0585956 0)
(0.453297 0.064456 0)
(0.436249 0.0639994 0)
(0.421951 0.0583934 0)
(0.409484 0.0525429 0)
(0.397228 0.0510349 0)
(0.386735 0.0538088 0)
(0.376224 0.0576255 0)
(0.364756 0.0592624 0)
(0.353307 0.0592571 0)
(0.340623 0.0593917 0)
(0.326575 0.0597811 0)
(0.311266 0.0604579 0)
(0.295131 0.060969 0)
(0.278647 0.0612703 0)
(0.262506 0.0612592 0)
(0.247267 0.0613322 0)
(0.233082 0.0614103 0)
(0.219515 0.0617902 0)
(0.205466 0.0625583 0)
(0.190704 0.0636062 0)
(0.174763 0.0645043 0)
(0.158463 0.0650725 0)
(0.142787 0.0655517 0)
(0.128562 0.0660316 0)
(0.11596 0.0671737 0)
(0.103265 0.0690367 0)
(0.090328 0.0711198 0)
(0.0757257 0.0734807 0)
(0.0596074 0.0755964 0)
(0.0426197 0.0777105 0)
(0.0252505 0.0789757 0)
(0.00849616 0.0801784 0)
(3 1.3919e-16 0)
(3 1.99699e-17 0)
(3 3.85107e-16 0)
(3 4.31872e-16 0)
(3 3.24395e-16 0)
(3 3.92127e-16 0)
(3 4.62981e-16 0)
(3 -3.87817e-16 0)
(3 -5.72116e-16 0)
(3 -2.95788e-16 0)
(3 -1.14807e-16 0)
(3 -6.20405e-16 0)
(3 -8.54658e-16 0)
(3 -2.09289e-16 0)
(3 1.03388e-15 0)
(3 9.35864e-16 0)
(3 6.78931e-16 0)
(3 2.85064e-16 0)
(3 -1.79133e-16 0)
(3 -6.55654e-16 0)
(3 -2.12403e-15 0)
(3 -1.98762e-15 0)
(3 -1.24906e-15 0)
(3 -6.36386e-16 0)
(3 2.48976e-16 0)
(3 1.19958e-15 0)
(3 9.80824e-16 0)
(3 -4.08222e-16 0)
(3 -1.74578e-15 0)
(3 -1.46031e-15 0)
(3 -7.83463e-16 0)
(3 1.62813e-16 0)
(3 5.63594e-16 0)
(3 8.82506e-18 0)
(3 1.63724e-16 0)
(3 4.93036e-16 0)
(3 2.96865e-16 0)
(3 -2.19596e-16 0)
(3 -4.65333e-16 0)
(3 -7.53488e-16 0)
(3 -5.67949e-16 0)
(3 -3.87562e-16 0)
(3 -7.0266e-16 0)
(3 -2.15226e-15 0)
(3 -2.37264e-15 0)
(3 -1.5924e-15 0)
(3 -1.87363e-16 0)
(3 1.33724e-15 0)
(3 3.90751e-15 0)
(3 4.86947e-15 0)
(3 5.3675e-15 0)
(3 4.24517e-15 0)
(3 2.83003e-15 0)
(3 1.64831e-15 0)
(3 1.93714e-15 0)
(3 1.88568e-15 0)
(3 1.15093e-15 0)
(3 1.10129e-15 0)
(3 6.44927e-16 0)
(3 6.13965e-16 0)
(3 1.35266e-15 0)
(3 1.40365e-15 0)
(3 7.90256e-16 0)
(3 2.11984e-16 0)
(3 8.05844e-16 0)
(3 1.27063e-15 0)
(1.37181 0.0641504 0)
(0.747332 0.0605671 0)
(0.716776 0.0577947 0)
(0.704453 0.0547137 0)
(0.691466 0.053103 0)
(0.680636 0.0505665 0)
(0.670998 0.0516992 0)
(0.661224 0.0557904 0)
(0.65018 0.06356 0)
(0.635636 0.0726414 0)
(0.618075 0.0792407 0)
(0.599601 0.0802896 0)
(0.582866 0.0759792 0)
(0.568514 0.0705661 0)
(0.557612 0.0647892 0)
(0.547134 0.060498 0)
(0.536372 0.0557152 0)
(0.525995 0.0515005 0)
(0.513905 0.0513922 0)
(0.501495 0.0557358 0)
(0.486691 0.0631788 0)
(0.471072 0.0725621 0)
(0.454226 0.078483 0)
(0.437573 0.0772622 0)
(0.423645 0.0708948 0)
(0.411179 0.0645815 0)
(0.398581 0.0630893 0)
(0.387885 0.0664019 0)
(0.377126 0.0708756 0)
(0.365351 0.0728059 0)
(0.353779 0.0727541 0)
(0.341068 0.0728874 0)
(0.327211 0.0732852 0)
(0.312063 0.0739258 0)
(0.295832 0.0744265 0)
(0.278965 0.074844 0)
(0.262392 0.0750845 0)
(0.246921 0.0754341 0)
(0.23276 0.0756137 0)
(0.219308 0.0758434 0)
(0.205353 0.0763994 0)
(0.190346 0.0773961 0)
(0.174049 0.0784775 0)
(0.157464 0.0795067 0)
(0.141675 0.0804366 0)
(0.127574 0.0813611 0)
(0.115091 0.0826187 0)
(0.102572 0.0843521 0)
(0.0894126 0.0862705 0)
(0.0745006 0.0887147 0)
(0.0580854 0.0911701 0)
(0.0410835 0.0939872 0)
(0.0239968 0.0959155 0)
(0.0081315 0.0980057 0)
(3 6.98832e-17 0)
(3 2.56084e-16 0)
(3 1.56055e-16 0)
(3 8.87644e-16 0)
(3 1.6845e-15 0)
(3 1.60321e-15 0)
(3 1.18631e-15 0)
(3 5.86989e-16 0)
(3 2.88344e-16 0)
(3 3.81712e-16 0)
(3 1.55404e-17 0)
(3 -1.64131e-16 0)
(3 -3.33473e-16 0)
(3 -3.22026e-16 0)
(3 -7.16679e-17 0)
(3 -1.10813e-16 0)
(3 1.64816e-16 0)
(3 4.25734e-16 0)
(3 3.34652e-16 0)
(3 3.54337e-16 0)
(3 4.81194e-16 0)
(3 -2.5339e-18 0)
(3 -3.10811e-16 0)
(3 -7.98967e-17 0)
(3 5.48057e-16 0)
(3 3.65488e-16 0)
(3 -4.09143e-17 0)
(3 -3.88559e-16 0)
(3 -6.03545e-16 0)
(3 -1.0627e-16 0)
(3 5.50646e-17 0)
(3 1.5495e-16 0)
(3 8.74187e-17 0)
(3 -1.36929e-16 0)
(3 -4.66537e-16 0)
(3 -1.2465e-15 0)
(3 -1.32973e-15 0)
(3 -2.59911e-16 0)
(3 5.57991e-16 0)
(3 7.58242e-16 0)
(3 5.25527e-18 0)
(3 -8.20876e-16 0)
(3 -1.33622e-15 0)
(3 -1.72711e-15 0)
(3 -1.95526e-15 0)
(3 -1.01243e-15 0)
(3 -6.88502e-16 0)
(3 -3.86928e-16 0)
(3 1.32411e-15 0)
(3 2.29574e-15 0)
(3 2.67652e-15 0)
(3 2.47725e-15 0)
(3 1.71174e-15 0)
(3 1.56018e-15 0)
(3 1.97964e-15 0)
(3 1.9136e-15 0)
(3 1.99272e-15 0)
(3 1.87804e-15 0)
(3 1.97646e-15 0)
(3 2.12122e-15 0)
(3 1.50538e-15 0)
(3 1.21685e-15 0)
(3 1.37481e-15 0)
(3 1.35998e-15 0)
(3 1.02208e-15 0)
(3 2.07268e-15 0)
(1.42203 0.0754061 0)
(0.751156 0.0710754 0)
(0.717218 0.0677577 0)
(0.704642 0.0652117 0)
(0.691875 0.0638 0)
(0.681354 0.061409 0)
(0.671773 0.0627954 0)
(0.66142 0.0676272 0)
(0.649476 0.0766176 0)
(0.634141 0.0868844 0)
(0.616371 0.0933024 0)
(0.598666 0.0929363 0)
(0.583461 0.0870235 0)
(0.570707 0.0802386 0)
(0.560341 0.0739299 0)
(0.549486 0.0700964 0)
(0.538909 0.0655079 0)
(0.528037 0.0619779 0)
(0.515697 0.0626644 0)
(0.502784 0.0678219 0)
(0.487765 0.076299 0)
(0.472336 0.086403 0)
(0.455566 0.0920963 0)
(0.439155 0.0901962 0)
(0.425303 0.0833558 0)
(0.412699 0.0768146 0)
(0.399812 0.0754075 0)
(0.389075 0.0791763 0)
(0.378317 0.0841884 0)
(0.36646 0.086365 0)
(0.354866 0.0862989 0)
(0.342188 0.0864475 0)
(0.328492 0.0869169 0)
(0.313518 0.0874831 0)
(0.297323 0.0879251 0)
(0.280271 0.0884197 0)
(0.263367 0.0889414 0)
(0.247583 0.0896477 0)
(0.233214 0.0900744 0)
(0.219678 0.0902835 0)
(0.205772 0.0906335 0)
(0.190673 0.0915494 0)
(0.174232 0.0927218 0)
(0.157498 0.094091 0)
(0.141566 0.095376 0)
(0.127381 0.0967253 0)
(0.114646 0.0980926 0)
(0.102058 0.0996384 0)
(0.0886081 0.101359 0)
(0.0735048 0.103829 0)
(0.0569849 0.10658 0)
(0.0400616 0.110081 0)
(0.0231883 0.11266 0)
(0.00790445 0.115661 0)
(3 -1.36402e-16 0)
(3 -3.05208e-16 0)
(3 -6.56403e-16 0)
(3 -2.37065e-16 0)
(3 1.76559e-16 0)
(3 7.05528e-16 0)
(3 6.96218e-16 0)
(3 8.29107e-16 0)
(3 8.04883e-16 0)
(3 -2.4187e-16 0)
(3 -6.93494e-16 0)
(3 -4.38496e-16 0)
(3 8.82681e-17 0)
(3 -3.42195e-16 0)
(3 -1.05704e-15 0)
(3 -1.22945e-15 0)
(3 -1.02413e-15 0)
(3 -2.56359e-16 0)
(3 1.04426e-15 0)
(3 2.29505e-15 0)
(3 1.90357e-15 0)
(3 1.43042e-15 0)
(3 3.10304e-16 0)
(3 -1.28389e-16 0)
(3 8.71498e-17 0)
(3 -4.55348e-16 0)
(3 -3.62936e-16 0)
(3 -8.06756e-17 0)
(3 8.31284e-16 0)
(3 1.22519e-15 0)
(3 4.08732e-16 0)
(3 -5.40378e-16 0)
(3 -1.06357e-15 0)
(3 -5.24077e-16 0)
(3 -7.53609e-16 0)
(3 -1.29663e-15 0)
(3 -1.58815e-15 0)
(3 -9.91324e-16 0)
(3 5.58611e-16 0)
(3 2.01332e-15 0)
(3 1.06842e-15 0)
(3 -1.17238e-15 0)
(3 -1.9584e-15 0)
(3 -2.13584e-15 0)
(3 -2.24939e-15 0)
(3 -1.44413e-15 0)
(3 -9.6411e-16 0)
(3 -6.7854e-16 0)
(3 -1.34578e-15 0)
(3 -3.64222e-16 0)
(3 1.5197e-15 0)
(3 2.06396e-15 0)
(3 4.3379e-16 0)
(3 5.94096e-16 0)
(3 6.00987e-16 0)
(3 6.66876e-16 0)
(3 1.42822e-15 0)
(3 1.9509e-15 0)
(3 2.46277e-15 0)
(3 2.45001e-15 0)
(3 1.75247e-15 0)
(3 1.34891e-15 0)
(3 1.34745e-15 0)
(3 8.53969e-16 0)
(3 -2.76702e-16 0)
(3 1.35074e-16 0)
(1.4836 0.0866783 0)
(0.756054 0.0823554 0)
(0.717978 0.0779748 0)
(0.705355 0.0755795 0)
(0.692814 0.0741503 0)
(0.682321 0.0721163 0)
(0.672472 0.0742233 0)
(0.661109 0.0802875 0)
(0.648038 0.0907722 0)
(0.631985 0.101647 0)
(0.614476 0.106694 0)
(0.598172 0.10423 0)
(0.584777 0.0967408 0)
(0.573395 0.0892063 0)
(0.563248 0.0829038 0)
(0.552005 0.0796752 0)
(0.5417 0.0753855 0)
(0.530455 0.0726835 0)
(0.518103 0.0743191 0)
(0.504745 0.0802616 0)
(0.489473 0.0896488 0)
(0.47405 0.100192 0)
(0.457189 0.105469 0)
(0.44087 0.102933 0)
(0.426951 0.09576 0)
(0.414204 0.0891187 0)
(0.401122 0.0878332 0)
(0.390459 0.0919738 0)
(0.379856 0.097446 0)
(0.368004 0.099837 0)
(0.35641 0.099799 0)
(0.34368 0.100028 0)
(0.32999 0.100664 0)
(0.315065 0.10118 0)
(0.298948 0.101549 0)
(0.281912 0.10208 0)
(0.264858 0.102874 0)
(0.248764 0.103976 0)
(0.234011 0.104766 0)
(0.220171 0.105152 0)
(0.206195 0.105387 0)
(0.191162 0.106162 0)
(0.174774 0.107304 0)
(0.158105 0.108838 0)
(0.142084 0.110365 0)
(0.127686 0.112035 0)
(0.114489 0.113536 0)
(0.101614 0.114937 0)
(0.0878707 0.116506 0)
(0.0727185 0.118994 0)
(0.0563074 0.121985 0)
(0.0395794 0.126084 0)
(0.0228849 0.129252 0)
(0.00780806 0.133049 0)
(3 3.86743e-17 0)
(3 -1.70139e-16 0)
(3 2.84354e-16 0)
(3 2.96306e-16 0)
(3 -2.69292e-16 0)
(3 -2.27888e-16 0)
(3 2.93436e-16 0)
(3 6.51209e-17 0)
(3 -6.41981e-16 0)
(3 -1.27042e-15 0)
(3 -1.38669e-15 0)
(3 -6.4093e-16 0)
(3 4.70571e-16 0)
(3 3.61596e-16 0)
(3 -3.46477e-16 0)
(3 -1.28373e-15 0)
(3 -1.46283e-15 0)
(3 -6.35979e-16 0)
(3 3.87414e-16 0)
(3 1.67986e-15 0)
(3 1.585e-15 0)
(3 1.14711e-15 0)
(3 -2.2907e-16 0)
(3 -9.51818e-16 0)
(3 -9.53513e-16 0)
(3 -1.90529e-16 0)
(3 5.09633e-17 0)
(3 3.07785e-16 0)
(3 2.66399e-16 0)
(3 3.8449e-16 0)
(3 8.77061e-17 0)
(3 1.64259e-17 0)
(3 3.58259e-16 0)
(3 4.51126e-16 0)
(3 -4.9211e-16 0)
(3 -4.20894e-16 0)
(3 -2.84362e-16 0)
(3 -3.21821e-16 0)
(3 -4.88271e-16 0)
(3 6.81602e-16 0)
(3 1.92398e-15 0)
(3 -2.84312e-16 0)
(3 -1.02593e-15 0)
(3 -1.46184e-15 0)
(3 -1.13181e-15 0)
(3 -8.75138e-16 0)
(3 -9.62023e-16 0)
(3 -1.03894e-15 0)
(3 -1.78359e-15 0)
(3 -1.06017e-15 0)
(3 3.34128e-16 0)
(3 6.03445e-16 0)
(3 5.60053e-16 0)
(3 2.40911e-16 0)
(3 4.627e-16 0)
(3 7.46593e-16 0)
(3 6.59048e-16 0)
(3 8.69514e-16 0)
(3 1.04721e-15 0)
(3 1.76428e-15 0)
(3 1.85006e-15 0)
(3 1.93405e-15 0)
(3 1.5333e-15 0)
(3 -1.39106e-16 0)
(3 5.34918e-16 0)
(3 -1.72803e-16 0)
(1.55762 0.0978606 0)
(0.762319 0.0943184 0)
(0.719128 0.0882465 0)
(0.706662 0.0857274 0)
(0.694261 0.084247 0)
(0.683388 0.0829788 0)
(0.672887 0.0863932 0)
(0.660046 0.0941877 0)
(0.645702 0.106104 0)
(0.62929 0.116319 0)
(0.612751 0.118808 0)
(0.598315 0.114099 0)
(0.587021 0.105273 0)
(0.576778 0.0975011 0)
(0.56676 0.091607 0)
(0.555293 0.0890478 0)
(0.545146 0.085258 0)
(0.53336 0.0836407 0)
(0.521019 0.0864077 0)
(0.507089 0.093247 0)
(0.491456 0.103437 0)
(0.475851 0.114143 0)
(0.458815 0.118786 0)
(0.442573 0.115542 0)
(0.428536 0.108077 0)
(0.415631 0.101426 0)
(0.402346 0.100306 0)
(0.391763 0.104757 0)
(0.381402 0.110664 0)
(0.369642 0.11325 0)
(0.358055 0.113248 0)
(0.345296 0.11361 0)
(0.331484 0.114474 0)
(0.316476 0.115008 0)
(0.300457 0.115328 0)
(0.283627 0.115885 0)
(0.266634 0.11693 0)
(0.250311 0.118413 0)
(0.235095 0.119626 0)
(0.220783 0.120376 0)
(0.206595 0.120637 0)
(0.191644 0.121231 0)
(0.175523 0.122254 0)
(0.159103 0.123773 0)
(0.143141 0.125396 0)
(0.128478 0.127261 0)
(0.114748 0.128919 0)
(0.101377 0.1303 0)
(0.0873358 0.131815 0)
(0.0722186 0.134363 0)
(0.0560646 0.137518 0)
(0.0396159 0.142065 0)
(0.0230739 0.145692 0)
(0.00781948 0.150068 0)
(3 6.46784e-17 0)
(3 4.74587e-16 0)
(3 8.06134e-16 0)
(3 2.96597e-16 0)
(3 -4.73069e-16 0)
(3 -4.80946e-16 0)
(3 -3.0001e-16 0)
(3 -3.21523e-16 0)
(3 -4.08267e-16 0)
(3 -3.5391e-16 0)
(3 -4.22845e-16 0)
(3 -9.36917e-16 0)
(3 -1.20575e-15 0)
(3 -1.09866e-15 0)
(3 -1.1665e-15 0)
(3 -7.47897e-16 0)
(3 -7.059e-16 0)
(3 1.22614e-16 0)
(3 -3.72058e-16 0)
(3 -1.10211e-15 0)
(3 -2.28936e-16 0)
(3 -2.54013e-16 0)
(3 -2.08317e-16 0)
(3 2.72052e-16 0)
(3 9.31825e-16 0)
(3 9.56825e-16 0)
(3 9.94328e-16 0)
(3 8.32826e-16 0)
(3 8.30595e-16 0)
(3 1.25119e-16 0)
(3 2.64704e-18 0)
(3 2.58621e-16 0)
(3 9.16092e-16 0)
(3 7.95363e-16 0)
(3 1.17517e-15 0)
(3 6.52881e-16 0)
(3 5.59237e-16 0)
(3 4.14994e-16 0)
(3 -1.77658e-16 0)
(3 -5.35032e-16 0)
(3 3.33334e-16 0)
(3 1.62317e-16 0)
(3 -6.67721e-16 0)
(3 -1.79584e-16 0)
(3 2.67327e-16 0)
(3 3.34152e-16 0)
(3 -2.33063e-16 0)
(3 -1.14666e-15 0)
(3 -1.37772e-15 0)
(3 -8.90748e-16 0)
(3 -2.09951e-16 0)
(3 2.74257e-16 0)
(3 1.32721e-15 0)
(3 1.47117e-15 0)
(3 9.36746e-16 0)
(3 8.02725e-16 0)
(3 6.29873e-16 0)
(3 3.8076e-16 0)
(3 2.62199e-16 0)
(3 7.67039e-16 0)
(3 8.17995e-16 0)
(3 1.13725e-15 0)
(3 1.60907e-15 0)
(3 1.39419e-15 0)
(3 3.88636e-16 0)
(3 2.752e-16 0)
(1.64521 0.108485 0)
(0.770273 0.106904 0)
(0.720599 0.0984758 0)
(0.708335 0.0957373 0)
(0.695793 0.0943362 0)
(0.684127 0.0944255 0)
(0.672486 0.099757 0)
(0.657961 0.10973 0)
(0.64263 0.122284 0)
(0.626687 0.12999 0)
(0.612085 0.129226 0)
(0.599849 0.12252 0)
(0.590675 0.11268 0)
(0.580877 0.105251 0)
(0.570905 0.100148 0)
(0.559158 0.0983903 0)
(0.548915 0.0952979 0)
(0.53644 0.0950489 0)
(0.523898 0.0991 0)
(0.509134 0.106926 0)
(0.493119 0.117842 0)
(0.477185 0.128422 0)
(0.460004 0.132176 0)
(0.444008 0.12809 0)
(0.429999 0.120294 0)
(0.417052 0.113673 0)
(0.403636 0.11275 0)
(0.393176 0.117452 0)
(0.383183 0.123793 0)
(0.371595 0.126578 0)
(0.360043 0.126593 0)
(0.347287 0.127122 0)
(0.33319 0.128243 0)
(0.317931 0.128909 0)
(0.301959 0.129254 0)
(0.285442 0.129861 0)
(0.268715 0.13112 0)
(0.252337 0.13293 0)
(0.236712 0.134563 0)
(0.221841 0.135772 0)
(0.207259 0.136205 0)
(0.192286 0.136669 0)
(0.176483 0.137515 0)
(0.160449 0.138885 0)
(0.144661 0.140476 0)
(0.129764 0.142453 0)
(0.115481 0.144309 0)
(0.101472 0.14581 0)
(0.087071 0.147396 0)
(0.0719881 0.150047 0)
(0.0561555 0.15329 0)
(0.0400216 0.158101 0)
(0.0236142 0.16197 0)
(0.00790666 0.166674 0)
(3 2.27496e-18 0)
(3 3.12017e-16 0)
(3 3.19847e-16 0)
(3 -2.67635e-16 0)
(3 -6.7835e-16 0)
(3 -6.21215e-16 0)
(3 -6.1518e-16 0)
(3 -5.11853e-16 0)
(3 -3.88135e-16 0)
(3 -3.92153e-16 0)
(3 -3.38048e-16 0)
(3 -8.62008e-16 0)
(3 -1.3865e-15 0)
(3 -1.23096e-15 0)
(3 -7.99433e-16 0)
(3 -1.26285e-16 0)
(3 1.1421e-16 0)
(3 -1.07975e-15 0)
(3 -1.89192e-15 0)
(3 -2.39155e-15 0)
(3 -1.61232e-15 0)
(3 -8.50075e-16 0)
(3 4.09269e-16 0)
(3 6.72334e-16 0)
(3 1.18884e-15 0)
(3 1.79147e-15 0)
(3 2.24801e-15 0)
(3 1.66853e-15 0)
(3 1.17563e-15 0)
(3 5.27573e-16 0)
(3 -2.82264e-16 0)
(3 -4.45939e-16 0)
(3 -4.63607e-16 0)
(3 -1.74033e-16 0)
(3 -5.51525e-17 0)
(3 -7.69502e-17 0)
(3 5.44232e-16 0)
(3 4.49411e-16 0)
(3 -3.80461e-16 0)
(3 -1.05617e-15 0)
(3 -4.73862e-16 0)
(3 -7.51055e-16 0)
(3 -1.14798e-15 0)
(3 -6.11018e-16 0)
(3 -6.61085e-16 0)
(3 -8.95903e-16 0)
(3 -9.99131e-16 0)
(3 -1.37604e-15 0)
(3 -1.05085e-15 0)
(3 -1.33102e-15 0)
(3 -8.38499e-16 0)
(3 1.47532e-16 0)
(3 6.51977e-16 0)
(3 3.61788e-16 0)
(3 -3.51267e-16 0)
(3 -7.52146e-16 0)
(3 -6.18015e-16 0)
(3 -7.73034e-16 0)
(3 -1.08684e-15 0)
(3 -1.0245e-15 0)
(3 -6.00795e-16 0)
(3 3.09719e-16 0)
(3 2.92827e-16 0)
(3 -4.62681e-17 0)
(3 -5.04206e-16 0)
(3 -1.97839e-15 0)
(1.74647 0.117957 0)
(0.77965 0.120275 0)
(0.721793 0.108596 0)
(0.709912 0.105795 0)
(0.697028 0.104704 0)
(0.684398 0.106889 0)
(0.671126 0.114822 0)
(0.654995 0.126779 0)
(0.639485 0.138337 0)
(0.625214 0.14175 0)
(0.613369 0.137758 0)
(0.603893 0.129081 0)
(0.595431 0.119089 0)
(0.585521 0.11276 0)
(0.575119 0.108834 0)
(0.563432 0.107857 0)
(0.552649 0.10577 0)
(0.539806 0.106951 0)
(0.526552 0.112325 0)
(0.510958 0.121188 0)
(0.494621 0.132793 0)
(0.478214 0.143002 0)
(0.461015 0.145622 0)
(0.44557 0.14053 0)
(0.431808 0.132316 0)
(0.418935 0.125727 0)
(0.405449 0.125041 0)
(0.395068 0.130013 0)
(0.385365 0.136793 0)
(0.37396 0.139859 0)
(0.362479 0.139917 0)
(0.349659 0.140593 0)
(0.335145 0.141958 0)
(0.319522 0.142867 0)
(0.303515 0.143345 0)
(0.287338 0.144029 0)
(0.271037 0.145447 0)
(0.254788 0.147494 0)
(0.238856 0.149477 0)
(0.223364 0.151105 0)
(0.208191 0.151841 0)
(0.192954 0.152363 0)
(0.17741 0.153067 0)
(0.16182 0.154237 0)
(0.146343 0.155709 0)
(0.13133 0.157762 0)
(0.116542 0.159829 0)
(0.101882 0.161542 0)
(0.0870538 0.163306 0)
(0.0719305 0.166042 0)
(0.0563917 0.169365 0)
(0.0405669 0.174249 0)
(0.0242821 0.178087 0)
(0.00803581 0.182896 0)
(3 -3.73148e-17 0)
(3 -1.92884e-16 0)
(3 -3.13262e-16 0)
(3 -3.43651e-16 0)
(3 -5.74836e-16 0)
(3 -8.33772e-16 0)
(3 -7.73872e-16 0)
(3 -8.5425e-16 0)
(3 -9.55909e-16 0)
(3 -7.23944e-16 0)
(3 -8.45763e-16 0)
(3 -9.22762e-16 0)
(3 -3.37625e-17 0)
(3 7.56758e-16 0)
(3 5.94801e-16 0)
(3 1.88038e-16 0)
(3 9.79456e-16 0)
(3 9.6391e-16 0)
(3 -7.91529e-16 0)
(3 -2.34266e-15 0)
(3 -2.52935e-15 0)
(3 -8.85936e-16 0)
(3 8.38727e-16 0)
(3 9.75268e-16 0)
(3 1.06766e-15 0)
(3 1.01679e-15 0)
(3 1.05644e-15 0)
(3 1.02168e-15 0)
(3 -1.26959e-16 0)
(3 -1.06827e-15 0)
(3 -1.51815e-15 0)
(3 -1.14538e-15 0)
(3 -1.05981e-15 0)
(3 -1.18814e-15 0)
(3 -1.64188e-15 0)
(3 -9.57193e-16 0)
(3 -7.30365e-16 0)
(3 -1.38329e-15 0)
(3 -1.94768e-15 0)
(3 -1.75634e-15 0)
(3 -1.71713e-15 0)
(3 -1.16069e-15 0)
(3 -2.29191e-16 0)
(3 -4.36548e-16 0)
(3 -1.38099e-15 0)
(3 -2.24152e-15 0)
(3 -1.8059e-15 0)
(3 -1.41084e-15 0)
(3 -1.4391e-15 0)
(3 -1.61871e-15 0)
(3 -2.13548e-15 0)
(3 -1.87142e-15 0)
(3 -1.39041e-15 0)
(3 -1.44674e-15 0)
(3 -1.82783e-15 0)
(3 -1.48901e-15 0)
(3 -1.14943e-15 0)
(3 -9.29996e-16 0)
(3 -7.45826e-16 0)
(3 -3.33807e-16 0)
(3 -2.98638e-16 0)
(3 -1.1066e-16 0)
(3 -5.15012e-16 0)
(3 -7.70371e-16 0)
(3 -8.02791e-16 0)
(3 -2.04412e-15 0)
(1.86123 0.127267 0)
(0.790581 0.134636 0)
(0.723792 0.118152 0)
(0.712548 0.115927 0)
(0.69874 0.115707 0)
(0.684663 0.120929 0)
(0.668849 0.131768 0)
(0.651935 0.144761 0)
(0.637447 0.152535 0)
(0.626336 0.151173 0)
(0.617141 0.144524 0)
(0.609906 0.134196 0)
(0.600688 0.12534 0)
(0.590334 0.120483 0)
(0.579173 0.118048 0)
(0.567477 0.117824 0)
(0.555937 0.1169 0)
(0.542855 0.119385 0)
(0.528834 0.125969 0)
(0.512322 0.135866 0)
(0.495603 0.148099 0)
(0.478785 0.157716 0)
(0.461767 0.158993 0)
(0.447286 0.152781 0)
(0.434029 0.144095 0)
(0.421295 0.137534 0)
(0.407902 0.13713 0)
(0.397518 0.14246 0)
(0.387982 0.149711 0)
(0.37675 0.153172 0)
(0.365318 0.153313 0)
(0.35236 0.154055 0)
(0.337455 0.155645 0)
(0.321394 0.15689 0)
(0.305216 0.15763 0)
(0.289295 0.15842 0)
(0.273488 0.15994 0)
(0.257526 0.1621 0)
(0.241411 0.164289 0)
(0.225334 0.166257 0)
(0.20948 0.167344 0)
(0.193708 0.168129 0)
(0.178337 0.168858 0)
(0.163132 0.169886 0)
(0.148208 0.171235 0)
(0.133165 0.173328 0)
(0.118049 0.175555 0)
(0.102737 0.177521 0)
(0.0874436 0.179537 0)
(0.0721462 0.182438 0)
(0.0567407 0.18564 0)
(0.0411373 0.190559 0)
(0.0249242 0.1941 0)
(0.00820213 0.19885 0)
(3 -4.30154e-18 0)
(3 -1.23094e-16 0)
(3 -4.22499e-17 0)
(3 4.3604e-16 0)
(3 3.12016e-16 0)