/*--------------------------------*- C++ -*----------------------------------*\
  =========                 |
  \\      /  F ield         | OpenFOAM: The Open Source CFD Toolbox
   \\    /   O peration     | Website:  https://openfoam.org
    \\  /    A nd           | Version:  7
     \\/     M anipulation  |
\*---------------------------------------------------------------------------*/
FoamFile
{
    version     2.0;
    format      ascii;
    class       surfaceScalarField;
    location    "36";
    object      phi;
}
// * * * * * * * * * * * * * * * * * * * * * * * * * * * * * * * * * * * * * //

dimensions      [0 3 -1 0 0 0 0];

internalField   nonuniform List<scalar> 
24510
(
-4.0667e-06
4.07333e-06
-6.63159e-09
-1.52614e-05
1.1212e-05
-1.72528e-08
-3.32035e-05
1.79681e-05
-2.60286e-08
-5.75015e-05
2.43308e-05
-3.28581e-08
-8.77564e-05
3.02927e-05
-3.77573e-08
-0.000123587
3.58714e-05
-4.08563e-08
-0.000164652
4.11075e-05
-4.23534e-08
-0.000210671
4.60608e-05
-4.24416e-08
-0.000261432
5.08024e-05
-4.12168e-08
-0.000316796
5.54025e-05
-3.85866e-08
-0.000376675
5.99134e-05
-3.41946e-08
-0.000441
6.43527e-05
-2.73717e-08
-0.00050967
6.8687e-05
-1.71099e-08
-0.000582491
7.28227e-05
-2.04302e-09
-0.000659123
7.66125e-05
1.95591e-08
-0.000739063
7.98903e-05
4.98161e-08
-0.000821735
8.25813e-05
9.12154e-08
-0.000906868
8.4986e-05
1.46532e-07
-0.000994818
8.77319e-05
2.18661e-07
9.25089e-05
3.11317e-07
-0.00108764
-3.98747e-06
8.06079e-06
-1.4977e-05
2.22015e-05
-3.26002e-05
3.55913e-05
-5.64713e-05
4.82019e-05
-8.61903e-05
6.00118e-05
-0.000121368
7.1049e-05
-0.000161648
8.13874e-05
-0.000206726
9.11386e-05
-0.00025636
0.000100437
-0.000310373
0.000109415
-0.000368629
0.000118169
-0.000431003
0.000126727
-0.000497331
0.000135015
-0.000567342
0.000142834
-0.000640599
0.000149869
-0.00071646
0.000155752
-0.000794116
0.000160236
-0.000872946
0.000163817
-0.000952975
0.000167761
0.00017417
-0.00103464
-3.83286e-06
1.18937e-05
-1.44208e-05
3.27895e-05
-3.14187e-05
5.25892e-05
-5.44505e-05
7.12336e-05
-8.31133e-05
8.86746e-05
-0.000117001
0.000104937
-0.000155727
0.000120113
-0.000198941
0.000134352
-0.000246339
0.000147835
-0.000297665
0.000160741
-0.000352688
0.000173193
-0.000411174
0.000185213
-0.000472824
0.000196665
-0.000537214
0.000207224
-0.000603714
0.00021637
-0.000671417
0.000223454
-0.000739068
0.000227887
-0.000805351
0.0002301
-0.000869822
0.000232231
0.000233648
-0.0009293
-3.61027e-06
1.55039e-05
-1.36176e-05
4.27968e-05
-2.97075e-05
6.86791e-05
-5.15155e-05
9.30417e-05
-7.86324e-05
0.000115791
-0.000110626
0.000136931
-0.000147062
0.000156549
-0.00018752
0.000174811
-0.000231605
0.00019192
-0.000278941
0.000208076
-0.000329153
0.000223405
-0.000381833
0.000237892
-0.000436482
0.000251314
-0.000492438
0.000263181
-0.00054878
0.000272711
-0.000604223
0.000278897
-0.000656909
0.000280573
-0.000704433
0.000277624
-0.000746178
0.000273977
0.000260224
-0.000772754
-3.3303e-06
1.88342e-05
-1.26025e-05
5.2069e-05
-2.75361e-05
8.36126e-05
-4.77765e-05
0.000113282
-7.29019e-05
0.000140917
-0.000102442
0.000166471
-0.000135899
0.000190006
-0.00017276
0.000211671
-0.000212503
0.000231663
-0.000254592
0.000250165
-0.000298456
0.000267269
-0.000343448
0.000282884
-0.000388789
0.000296656
-0.000433488
0.000307879
-0.000476223
0.000315446
-0.000515224
0.000317898
-0.00054794
0.000313289
-0.000570342
0.000300027
-0.000582589
0.000286223
0.000243623
-0.000565987
-3.00614e-06
2.18404e-05
-1.14197e-05
6.04826e-05
-2.49916e-05
9.71845e-05
-4.33715e-05
0.000131662
-6.61155e-05
0.000163661
-9.27029e-05
0.000193058
-0.000122552
0.000219856
-0.000155033
0.000244152
-0.000189465
0.000266095
-0.000225109
0.00028581
-0.000261141
0.0003033
-0.000296604
0.000318347
-0.000330349
0.000330401
-0.000360944
0.000338474
-0.000386541
0.000341042
-0.000404748
0.000336106
-0.000412344
0.000320885
-0.000402797
0.000290479
-0.000378468
0.000261895
0.000174537
-0.000309383
-2.65287e-06
2.44932e-05
-1.01195e-05
6.79492e-05
-2.21737e-05
0.000109239
-3.8459e-05
0.000147947
-5.84964e-05
0.000183698
-8.16983e-05
0.00021626
-0.000107381
0.000245539
-0.000134769
0.00027154
-0.00016299
0.000294316
-0.000191056
0.000313876
-0.00021783
0.000330073
-0.000241964
0.000342482
-0.000261836
0.000350272
-0.000275441
0.00035208
-0.000280243
0.000345844
-0.000273011
0.000328874
-0.000250096
0.00029797
-0.000201615
0.000241998
-0.000129439
0.000189718
5.59017e-05
-1.08033e-05
-2.28651e-06
2.67797e-05
-8.75549e-06
7.44182e-05
-1.91892e-05
0.000119672
-3.32089e-05
0.000161967
-5.02837e-05
0.000200773
-6.97407e-05
0.000235717
-9.07705e-05
0.000266568
-0.000112426
0.000293195
-0.000133605
0.000315495
-0.000153023
0.000333295
-0.000169161
0.000346211
-0.000180195
0.000353516
-0.000183904
0.000353981
-0.000177556
0.000345732
-0.000157735
0.000326023
-0.000120006
0.000291145
-5.97044e-05
0.000237669
3.13023e-05
0.000150991
0.000161161
5.98594e-05
-0.000141818
0.000358881
-1.92312e-06
2.87029e-05
-7.38152e-06
7.98766e-05
-1.61448e-05
0.000128436
-2.77911e-05
0.000173613
-4.17168e-05
0.000214699
-5.71409e-05
0.000251141
-7.31033e-05
0.000282531
-8.84527e-05
0.000308544
-0.000101818
0.000328861
-0.000111562
0.000343039
-0.000115711
0.00035036
-0.000111861
0.000349666
-9.70551e-05
0.000339175
-6.76433e-05
0.00031632
-1.90959e-05
0.000277475
5.4342e-05
0.000217708
0.000158787
0.000133223
0.000308916
8.62083e-07
0.000496538
-0.000127763
-0.000428783
0.000783503
-1.57768e-06
3.02805e-05
-6.04756e-06
8.43465e-05
-1.31396e-05
0.000135528
-2.23631e-05
0.000182837
-3.30162e-05
0.000225352
-4.41832e-05
0.000262308
-5.47232e-05
0.000293071
-6.32444e-05
0.000317065
-6.80581e-05
0.000333675
-6.71106e-05
0.000342091
-5.78867e-05
0.000341137
-3.72842e-05
0.000329064
-1.45325e-06
0.000303344
5.43985e-05
0.000260468
0.000136178
0.000195696
0.000251615
0.000102271
0.000407732
-2.28933e-05
0.000624188
-0.000215594
0.000887107
-0.000390682
-0.000816375
0.0012747
-1.26302e-06
3.15436e-05
-4.79612e-06
8.78796e-05
-1.02572e-05
0.000140989
-1.70563e-05
0.000189636
-2.43633e-05
0.000232659
-3.10957e-05
0.000269041
-3.58955e-05
0.000297871
-3.70852e-05
0.000318255
-3.25999e-05
0.000329189
-1.98908e-05
0.000329382
4.20466e-06
0.000317041
4.363e-05
0.000289639
0.000103316
0.000243658
0.000189417
0.000174367
0.000309486
7.56271e-05
0.000473342
-6.15858e-05
0.000690203
-0.000239754
0.000982316
-0.000507707
0.00133453
-0.000742894
-0.00131652
0.00183467
-9.88809e-07
3.25324e-05
-3.65839e-06
9.05491e-05
-7.55758e-06
0.000144888
-1.19625e-05
0.000194041
-1.58789e-05
0.000236575
-1.80194e-05
0.000271181
-1.67637e-05
0.000296615
-1.00916e-05
0.000311583
4.51299e-06
0.000314585
3.01935e-05
0.000303701
7.0892e-05
0.000276343
0.000131561
0.00022897
0.000218416
0.000156803
0.000339224
5.35586e-05
0.000503424
-8.85723e-05
0.000722755
-0.000280917
0.00100982
-0.000526817
0.00138568
-0.000883568
0.00183889
-0.00119611
-0.00193443
0.0024568
-7.60501e-07
3.32929e-05
-2.65069e-06
9.24393e-05
-5.0695e-06
0.000147307
-7.11962e-06
0.000196091
-7.6021e-06
0.000237058
-4.97702e-06
0.000268556
2.69431e-06
0.000288944
1.78481e-05
0.000296429
4.35477e-05
0.000288885
8.36572e-05
0.000263592
0.000143059
0.000216941
0.000227909
0.00014412
0.00034592
3.87916e-05
0.000506659
-0.00010718
0.000721624
-0.000303537
0.0010038
-0.000563098
0.00136972
-0.000892736
0.00183472
-0.00134857
0.00239523
-0.00175662
-0.00266069
0.00312149
-5.7853e-07
3.38714e-05
-1.77146e-06
9.36323e-05
-2.78391e-06
0.000148319
-2.50083e-06
0.000195808
5.30454e-07
0.000234026
8.15334e-06
0.000260933
2.27031e-05
0.000274394
4.71233e-05
0.000272009
8.51448e-05
0.000250863
0.000141506
0.000207231
0.000222214
0.000136234
0.00033483
3.15042e-05
0.000488732
-0.000115111
0.000695307
-0.000313755
0.000967989
-0.000576219
0.00132004
-0.000915153
0.00177018
-0.00134287
0.00232458
-0.00190296
0.00298927
-0.00242131
-0.00346621
0.00379479
-4.37741e-07
3.43091e-05
-9.99248e-07
9.41938e-05
-6.48197e-07
0.000147968
1.99223e-06
0.000193168
8.68506e-06
0.000227333
2.16568e-05
0.000247962
4.37167e-05
0.000252334
7.84327e-05
0.000237293
0.000130349
0.000198947
0.000205253
0.000132327
0.000310461
3.10252e-05
0.000455095
-0.000113129
0.00065023
-0.000310246
0.000908783
-0.000572308
0.00124528
-0.000912719
0.00167223
-0.0013421
0.00220571
-0.00187636
0.00284125
-0.0025385
0.00359295
-0.00317301
-0.004305
0.00443174
-3.27197e-07
3.46363e-05
-2.91208e-07
9.41578e-05
1.42916e-06
0.000146248
6.53411e-06
0.000188063
1.71595e-05
0.000216708
3.59902e-05
0.000229131
6.64228e-05
0.000221901
0.000112783
0.000190933
0.000180588
0.000131141
0.000276845
3.607e-05
0.000410324
-0.000102453
0.000591721
-0.000294527
0.000833555
-0.00055208
0.0011495
-0.000888254
0.00155331
-0.00131652
0.0020552
-0.001844
0.00266237
-0.00248353
0.00335983
-0.00323595
0.00416409
-0.00397727
-0.00512491
0.004984
-2.30744e-07
3.48671e-05
4.11474e-07
9.35156e-05
3.58715e-06
0.000143072
1.13732e-05
0.000180277
2.6353e-05
0.000201728
5.17671e-05
0.000203717
9.17197e-05
0.000181949
0.000151439
0.000131213
0.000237575
4.50054e-05
0.000358481
-8.48359e-05
0.000524395
-0.000268367
0.000747348
-0.00051748
0.00104057
-0.000845301
0.00141705
-0.00126474
0.00188701
-0.00178648
0.00245573
-0.00241271
0.00311668
-0.00314447
0.00384633
-0.0039656
0.00465452
-0.00478547
-0.00588068
0.00541029
-1.27417e-07
3.49945e-05
1.18857e-06
9.21996e-05
5.9979e-06
0.000138263
1.68164e-05
0.000169458
3.67583e-05
0.000181786
6.97259e-05
0.000170749
0.000120659
0.000131016
0.00019583
5.60425e-05
0.000303135
-6.22993e-05
0.000452295
-0.000233996
0.000654807
-0.000470879
0.00092339
-0.000786064
0.00127063
-0.00119254
0.00170663
-0.00170074
0.00223508
-0.00231493
0.00285261
-0.00303024
0.00353821
-0.00383008
0.00426365
-0.00469104
0.00502471
-0.00554653
-0.0065444
0.00568843
1.08787e-08
3.49836e-05
2.13182e-06
9.00786e-05
8.85814e-06
0.000131536
2.32122e-05
0.000155104
4.89269e-05
0.000156072
9.06753e-05
0.000129001
0.000154355
6.73356e-05
0.000247388
-3.69898e-05
0.000378942
-0.000193854
0.00055994
-0.000414994
0.000802585
-0.000713524
0.00111912
-0.0011026
0.00151949
-0.00159291
0.00200816
-0.00218941
0.00257981
-0.00288659
0.00321973
-0.00367016
0.0038963
-0.00450665
0.004581
-0.00537574
0.00525575
-0.00622128
-0.00710845
0.00581981
2.03663e-07
3.478e-05
3.33505e-06
8.69473e-05
1.23754e-05
0.000122496
3.09249e-05
0.000136555
6.34245e-05
0.000123572
0.000115421
7.70042e-05
0.000193864
-1.11073e-05
0.000307356
-0.000150482
0.000466215
-0.000352713
0.000682114
-0.000630893
0.000966985
-0.000998395
0.00133087
-0.00146648
0.0017787
-0.00204074
0.00230667
-0.00271739
0.00289939
-0.0034793
0.00353136
-0.00430213
0.00416781
-0.00514309
0.00478293
-0.00599086
0.00535057
-0.00678892
-0.00758955
0.00583167
4.82694e-07
3.42973e-05
4.89332e-06
8.25366e-05
1.67526e-05
0.000110637
4.03047e-05
0.000113002
8.07809e-05
8.30959e-05
0.000144682
1.3103e-05
0.000240047
-0.000106472
0.000376574
-0.000287009
0.000565386
-0.000541524
0.000818113
-0.00088362
0.00114497
-0.00132526
0.00155173
-0.00187324
0.00203596
-0.00252497
0.00258424
-0.00326567
0.00317217
-0.00406723
0.00376814
-0.00489809
0.00434196
-0.00571692
0.00487334
-0.00652224
0.0053428
-0.00725838
-0.00802001
0.00577326
8.69643e-07
3.34276e-05
6.89217e-06
7.65141e-05
2.21721e-05
9.53569e-05
5.16588e-05
8.35157e-05
0.000101439
3.33159e-05
0.000179006
-6.4464e-05
0.000293436
-0.000220902
0.000455272
-0.000448845
0.00067582
-0.000762072
0.000965499
-0.0011733
0.00133103
-0.00169079
0.00177179
-0.002314
0.00227662
-0.00302981
0.00282316
-0.00381221
0.00338163
-0.00462569
0.00392117
-0.00543764
0.00442089
-0.00621663
0.00486742
-0.00696877
0.00526983
-0.00766079
-0.00839229
0.0056421
1.38453e-06
3.20431e-05
9.40307e-06
6.84956e-05
2.87823e-05
7.59776e-05
6.5225e-05
4.7073e-05
0.000125708
-2.71668e-05
0.000218691
-0.000157447
0.000354113
-0.000356325
0.0005429
-0.000637632
0.00079562
-0.00101479
0.00112
-0.00149767
0.00151739
-0.00208818
0.00197933
-0.00277594
0.00248613
-0.0035366
0.00300951
-0.00433559
0.00351961
-0.00513579
0.00399233
-0.00591036
0.00441716
-0.00664146
0.00479319
-0.0073448
0.00513566
-0.00800326
-0.00871076
0.00545413
2.04272e-06
3.00004e-05
1.24796e-05
5.80587e-05
3.66884e-05
5.17688e-05
8.11521e-05
2.60936e-06
0.000153728
-9.97423e-05
0.000263728
-0.000267447
0.000421625
-0.000514221
0.000638027
-0.000854035
0.000921573
-0.00129834
0.00127567
-0.00185177
0.00169484
-0.00250735
0.00216253
-0.00324363
0.00265269
-0.00402677
0.00313571
-0.00481861
0.00358674
-0.00558682
0.00399141
-0.00631503
0.00434956
-0.00699961
0.00466804
-0.00766328
0.00496467
-0.0082999
-0.00899575
0.00524967
2.85471e-06
2.71457e-05
1.61556e-05
4.47578e-05
4.5946e-05
2.19783e-05
9.94868e-05
-5.09314e-05
0.000185444
-0.0001857
0.000313759
-0.000395762
0.000494929
-0.000695391
0.00073832
-0.00109743
0.00104928
-0.0016093
0.00142546
-0.00222796
0.00185393
-0.00293581
0.00231142
-0.00370112
0.00276924
-0.00448459
0.0032011
-0.00525047
0.00359034
-0.00597606
0.00393252
-0.00665721
0.00423499
-0.00730208
0.00450875
-0.00793703
0.0047714
-0.00856256
-0.00925371
0.00502936
3.82645e-06
2.33192e-05
2.04447e-05
2.81396e-05
5.65595e-05
-1.41365e-05
0.000120166
-0.000114538
0.000220594
-0.000286127
0.000368058
-0.000543226
0.000572391
-0.000899724
0.000840621
-0.00136566
0.00117348
-0.00194216
0.00156197
-0.00261645
0.00198634
-0.00336019
0.00241946
-0.00413424
0.00283409
-0.00489922
0.00321058
-0.00562696
0.00354134
-0.00630682
0.0038299
-0.00694577
0.00408787
-0.00756005
0.0043273
-0.00817647
0.00456339
-0.00879865
-0.00948976
0.00479944
4.95984e-06
1.83594e-05
2.53414e-05
7.75803e-06
6.84805e-05
-5.72756e-05
0.000143014
-0.000189071
0.000258697
-0.000401811
0.000425528
-0.000710057
0.000651829
-0.00112603
0.000941136
-0.00165496
0.00128854
-0.00228956
0.00167842
-0.00300633
0.00208614
-0.00376791
0.00248416
-0.00453226
0.00285011
-0.00526517
0.00317244
-0.00594929
0.00345146
-0.00658584
0.00369593
-0.00719024
0.00391891
-0.00778303
0.00413151
-0.00838906
0.00434596
-0.0090131
-0.00970686
0.00456307
6.25312e-06
1.21062e-05
3.08211e-05
-1.681e-05
8.16082e-05
-0.000108063
0.000167739
-0.000275201
0.00029906
-0.000533132
0.000484729
-0.000895726
0.000730617
-0.00137191
0.00103574
-0.00196008
0.0013891
-0.00264292
0.00176955
-0.00338679
0.00215031
-0.00414866
0.00250673
-0.00488867
0.00282324
-0.00558168
0.00309606
-0.00622211
0.0033313
-0.00682108
0.0035403
-0.00739925
0.00373559
-0.00797832
0.00392642
-0.00857988
0.00412209
-0.00920877
-0.00990635
0.00432158
7.70089e-06
4.40536e-06
3.68399e-05
-4.59489e-05
9.57872e-05
-0.00016701
0.000193933
-0.000373348
0.000340781
-0.000679979
0.000543923
-0.00109887
0.000805847
-0.00163384
0.00112034
-0.00227458
0.0014707
-0.00299328
0.00183217
-0.00374826
0.00217879
-0.00449528
0.00249112
-0.005201
0.00276084
-0.0058514
0.00299045
-0.00645173
0.00318958
-0.00702021
0.0033701
-0.00757976
0.00354289
-0.00815111
0.0037151
-0.00875209
0.00389354
-0.00938721
-0.010089
0.00407614
9.29359e-06
-4.88823e-06
4.3333e-05
-7.99883e-05
0.000110806
-0.000234483
0.000221077
-0.000483618
0.000382777
-0.000841679
0.000601165
-0.00131726
0.000874557
-0.00190723
0.00119134
-0.00259136
0.00153022
-0.00333216
0.00186529
-0.00408333
0.00217387
-0.00480386
0.00244282
-0.00546996
0.00267034
-0.00607891
0.00286334
-0.00664474
0.00303296
-0.00718982
0.00319022
-0.00773703
0.00334397
-0.00830486
0.00349943
-0.00890755
0.00366143
-0.00954921
-0.0102549
0.00382739
1.10169e-05
-1.59051e-05
5.02131e-05
-0.000119185
0.000126397
-0.000310667
0.000248542
-0.000605763
0.00042382
-0.00101696
0.000654418
-0.00154785
0.000933983
-0.00218679
0.00124593
-0.0029033
0.00156613
-0.00365236
0.00186986
-0.00438706
0.00213936
-0.00507336
0.00236779
-0.00569839
0.00255848
-0.0062696
0.00272093
-0.00680718
0.00286626
-0.00733515
0.00300398
-0.00787475
0.00314087
-0.00844175
0.00328058
-0.00904726
0.00342649
-0.00969512
-0.0104043
0.00357589
1.28507e-05
-2.87558e-05
5.73691e-05
-0.000163703
0.000142237
-0.000395535
0.000275613
-0.00073914
0.0004626
-0.00120394
0.000701702
-0.00178696
0.00098181
-0.0024669
0.00128237
-0.00320386
0.0015784
-0.00394839
0.00184829
-0.00465695
0.00207983
-0.0053049
0.00227176
-0.00589032
0.00243095
-0.00642879
0.00256792
-0.00694415
0.00269287
-0.0074601
0.00281352
-0.0079954
0.00293486
-0.00856309
0.00305935
-0.00917175
0.00318928
-0.00982506
-0.0105371
0.0033221
1.47688e-05
-4.35247e-05
6.46662e-05
-0.0002136
0.000157953
-0.000488822
0.000301514
-0.000882701
0.000497799
-0.00140023
0.000741249
-0.00203041
0.00101635
-0.00274201
0.00130001
-0.00348752
0.00156828
-0.00421665
0.00180383
-0.0048925
0.00199996
-0.00550104
0.00215977
-0.00605013
0.00229223
-0.00656125
0.00240775
-0.00705968
0.00251511
-0.00756745
0.00262029
-0.00810058
0.00272681
-0.00866961
0.00283629
-0.00928123
0.00295028
-0.00993904
-0.0106533
0.00306642
1.67384e-05
-6.0263e-05
7.19479e-05
-0.00026881
0.000173138
-0.000590012
0.000325445
-0.00103501
0.000528186
-0.00160297
0.000771639
-0.00227386
0.00103667
-0.00300704
0.00129921
-0.00375006
0.00153786
-0.0044553
0.00174011
-0.00509475
0.00190411
-0.00566503
0.00203606
-0.00618207
0.00214579
-0.00667099
0.0022429
-0.00715678
0.00233455
-0.00765911
0.00242522
-0.00819125
0.00251732
-0.00876171
0.00261187
-0.00937578
0.00270988
-0.0100371
-0.0107527
0.00280928
1.87206e-05
-7.89837e-05
7.90408e-05
-0.00032913
0.000187365
-0.000698336
0.000346631
-0.00119427
0.000552695
-0.00180903
0.000791895
-0.00251306
0.00104255
-0.0032577
0.00128113
-0.00398864
0.00148977
-0.00466394
0.00166074
-0.00526573
0.00179611
-0.0058004
0.00190399
-0.00628996
0.00199421
-0.0067612
0.00207508
-0.00723766
0.00215228
-0.0077363
0.00222901
-0.00826798
0.00230687
-0.00883956
0.00238649
-0.00945541
0.00246849
-0.010119
-0.0108353
0.00255106
2.06721e-05
-9.96557e-05
8.57614e-05
-0.000394219
0.000200209
-0.000812783
0.000364369
-0.00135843
0.0005705
-0.00201517
0.000801525
-0.00274408
0.00103443
-0.0034906
0.00124745
-0.00420167
0.0014268
-0.00484328
0.00156904
-0.00540798
0.00167916
-0.00591051
0.00176621
-0.00637701
0.00183934
-0.00683434
0.00190553
-0.00730384
0.00196905
-0.00779983
0.00203215
-0.00833109
0.00209585
-0.00890326
0.00216053
-0.00952008
0.00222648
-0.010185
-0.0109009
0.00229217
2.25457e-05
-0.000122201
9.19235e-05
-0.000463597
0.000211271
-0.000932131
0.000378067
-0.00152523
0.000581059
-0.00221816
0.000800502
-0.00296353
0.00101324
-0.00370333
0.0012002
-0.00438863
0.0013517
-0.00499478
0.00146795
-0.00552423
0.00155587
-0.00599843
0.00162469
-0.00644583
0.00168256
-0.00689221
0.00173509
-0.00735637
0.00178542
-0.00785016
0.00183506
-0.00838073
0.00188463
-0.00895283
0.00193432
-0.00956977
0.00198422
-0.0102349
-0.0109497
0.00203299
2.42932e-05
-0.000146495
9.73481e-05
-0.000536652
0.000220197
-0.00105498
0.000387281
-0.00169231
0.000584127
-0.002415
0.000789208
-0.00316861
0.000980277
-0.0038944
0.00114149
-0.00454985
0.00126702
-0.0051203
0.00135994
-0.00561715
0.0014283
-0.0060668
0.00148095
-0.00649847
0.00152485
-0.00693612
0.0015644
-0.00739591
0.00160182
-0.00788758
0.00163809
-0.008417
0.00167353
-0.00898827
0.00170823
-0.00960447
0.00174208
-0.0102688
-0.0109815
0.00177391
2.58671e-05
-0.000172362
0.000101871
-0.000612656
0.0002267
-0.00117981
0.000391731
-0.00185735
0.000579744
-0.00260302
0.000768347
-0.00335721
0.000937035
-0.00406309
0.0010734
-0.00468621
0.00117501
-0.00522192
0.00124706
-0.00568919
0.00129805
-0.00611778
0.00133608
-0.0065365
0.00136694
-0.00696698
0.00139394
-0.0074229
0.00141862
-0.00791226
0.00144155
-0.00843993
0.00146288
-0.0090096
0.00148258
-0.00962417
0.00150041
-0.0102866
-0.0109965
0.00151533
2.72225e-05
-0.000199584
0.000105352
-0.000690786
0.000230569
-0.00130502
0.000391309
-0.00201809
0.000568197
-0.0027799
0.000738846
-0.00352786
0.000885071
-0.00420932
0.00099785
-0.00479899
0.00107762
-0.00530169
0.00113097
-0.00574254
0.00116634
-0.00615316
0.00119091
-0.00656107
0.00120936
-0.00698543
0.00122409
-0.00743764
0.00123612
-0.00792429
0.00124575
-0.00844956
0.00125298
-0.00901683
0.0012577
-0.00962889
0.00125957
-0.0102885
-0.0109945
0.00125764
2.83193e-05
-0.000227903
0.000107679
-0.000770146
0.00023168
-0.00142902
0.000386065
-0.00217247
0.00054997
-0.00294381
0.000701763
-0.00367965
0.000825925
-0.00433348
0.000916588
-0.00488965
0.000976466
-0.00536156
0.00101296
-0.00577904
0.00103412
-0.00617431
0.00104608
-0.00657304
0.00105253
-0.00699187
0.00105518
-0.00744028
0.00105463
-0.00792375
0.00105098
-0.00844592
0.00104414
-0.00900998
0.00103392
-0.00961867
0.00101991
-0.0102744
-0.0109759
0.00100122
2.91237e-05
-0.000257027
0.000108774
-0.000849797
0.000229992
-0.00155024
0.000376189
-0.00231867
0.000525688
-0.00309331
0.000658211
-0.00381217
0.000761043
-0.00443631
0.000831128
-0.00495974
0.000872895
-0.00540333
0.000894087
-0.00580023
0.000902087
-0.00618231
0.000902058
-0.00657301
0.000896804
-0.00698662
0.00088748
-0.00743096
0.000874407
-0.00791068
0.000857513
-0.00842902
0.000836626
-0.00898909
0.000811533
-0.00959358
0.000781773
-0.0102447
-0.0109405
0.000746434
2.96096e-05
-0.000286637
0.000108593
-0.00092878
0.000225545
-0.00166719
0.000361986
-0.00245511
0.000496064
-0.00322739
0.000609295
-0.00392541
0.000691744
-0.00451876
0.000742764
-0.00501076
0.000767991
-0.00542856
0.000775135
-0.00580738
0.000770802
-0.00617798
0.000759217
-0.00656143
0.000742462
-0.00696986
0.000721256
-0.00740975
0.000695704
-0.00788513
0.000665619
-0.00839894
0.000630747
-0.00895422
0.00059083
-0.00955366
0.000545405
-0.0101993
-0.0108888
0.000493674
2.97586e-05
-0.000316395
0.000107125
-0.00100615
0.000218449
-0.00177852
0.000343843
-0.0025805
0.000461849
-0.00334539
0.000556067
-0.00401962
0.000619198
-0.00458189
0.000652581
-0.00504414
0.000662623
-0.0054386
0.000656735
-0.00580149
0.000640688
-0.00616193
0.000617864
-0.0065386
0.000589753
-0.00694175
0.000556745
-0.00737674
0.000518769
-0.00784715
0.000475567
-0.00835573
0.000426803
-0.00890546
0.000372162
-0.00949902
0.000310972
-0.0101381
-0.010821
0.000243172
2.95611e-05
-0.000345956
0.000104395
-0.00108098
0.000208873
-0.001883
0.000322203
-0.00269383
0.0004238
-0.00344699
0.000499501
-0.00409532
0.000544421
-0.00462681
0.000561477
-0.0050612
0.000557485
-0.00543461
0.000539373
-0.00578338
0.000512081
-0.00613464
0.000478253
-0.00650478
0.000438897
-0.0069024
0.000394172
-0.00733202
0.000343855
-0.00779683
0.000287599
-0.00829948
0.000225072
-0.00884293
0.000155868
-0.00942982
7.93762e-05
-0.0100616
-0.0107337
-7.86017e-06
2.90156e-05
-0.000374972
0.000100452
-0.00115242
0.000197027
-0.00197957
0.000297535
-0.00279434
0.000382646
-0.0035321
0.000440473
-0.00415315
0.000468279
-0.00465462
0.000470186
-0.0050631
0.000453126
-0.00541755
0.000423432
-0.00575368
0.000385252
-0.00609646
0.000340606
-0.00646013
0.000290111
-0.0068519
0.000233724
-0.00727563
0.000171236
-0.00773434
0.000101902
-0.00823015
2.55252e-05
-0.00876655
-5.80027e-05
-0.00934629
-0.00014969
-0.00996989
-0.0106331
-0.000250358
2.81281e-05
-0.0004031
9.53706e-05
-0.00121966
0.000183156
-0.00206736
0.000270318
-0.0028815
0.000339068
-0.00360085
0.000379756
-0.00419384
0.000391504
-0.00466636
0.000379303
-0.0050509
0.000349981
-0.00538823
0.000309216
-0.00571292
0.000260427
-0.00604767
0.0002051
-0.0064048
0.000143641
-0.00679044
7.55257e-05
-0.00720752
3.92221e-07
-0.00765921
-8.12121e-05
-0.00814854
-0.000170766
-0.008677
-0.000268667
-0.00924839
-0.000375683
-0.00986287
-0.010517
-0.000491757
2.69114e-05
-0.000430012
8.92439e-05
-0.00128199
0.000167517
-0.00214563
0.000241017
-0.002955
0.000293693
-0.00365353
0.000318023
-0.00421817
0.000314703
-0.00466304
0.000289307
-0.00502551
0.000248395
-0.00534731
0.000196974
-0.00566149
0.000137816
-0.00598851
7.18565e-05
-0.00633884
-9.61116e-07
-0.00671763
-8.00168e-05
-0.00712846
-0.000166515
-0.00757271
-0.000261294
-0.00805376
-0.000364306
-0.00857398
-0.000476356
-0.00913634
-0.000598113
-0.00974111
-0.0103853
-0.000729831
2.53843e-05
-0.000455396
8.21777e-05
-0.00133879
0.000150378
-0.00221383
0.000210077
-0.0030147
0.00024708
-0.00369053
0.00025585
-0.00422694
0.000238379
-0.00464557
0.000200583
-0.00498771
0.000148641
-0.00529537
8.68925e-05
-0.00559975
1.7455e-05
-0.00591908
-5.87669e-05
-0.00626262
-0.000141882
-0.00663451
-0.000232676
-0.00703767
-0.000331225
-0.00747416
-0.000438405
-0.00794658
-0.000554663
-0.00845773
-0.000680641
-0.00901036
-0.000816944
-0.00960481
-0.0102383
-0.000963964
2.35698e-05
-0.000478966
7.42862e-05
-0.0013895
0.000132001
-0.00227155
0.00017791
-0.00306061
0.000199727
-0.00371235
0.000193725
-0.00422094
0.000162941
-0.00461479
0.000113439
-0.00493821
5.09192e-05
-0.00523285
-2.08986e-05
-0.00552793
-0.000100165
-0.00583981
-0.000186691
-0.0061761
-0.000280603
-0.0065406
-0.000382496
-0.00693577
-0.000492838
-0.00736382
-0.000612303
-0.00782712
-0.000741557
-0.00832847
-0.000881256
-0.00887066
-0.00103194
-0.00945412
-0.0100763
-0.00119395
2.14951e-05
-0.000500461
6.56883e-05
-0.00143369
0.000112642
-0.0023185
0.000144894
-0.00309286
0.000152067
-0.00371952
0.000132057
-0.00420093
8.87228e-05
-0.00457145
2.81071e-05
-0.00487759
-4.45413e-05
-0.0051602
-0.000126044
-0.00544643
-0.000215219
-0.00575063
-0.000311882
-0.00607943
-0.00041638
-0.0064361
-0.000529266
-0.00682289
-0.00065116
-0.00724193
-0.000782747
-0.00769553
-0.000924772
-0.00818645
-0.00107797
-0.00871747
-0.00124282
-0.00928927
-0.0098996
-0.00141948
1.91906e-05
-0.000519651
5.65044e-05
-0.00147101
9.25435e-05
-0.00235454
0.000111372
-0.00311169
0.000104472
-0.00371262
7.11851e-05
-0.00416764
1.6006e-05
-0.00451627
-5.51663e-05
-0.00480642
-0.000137592
-0.00507778
-0.000228673
-0.00535534
-0.000327519
-0.00565179
-0.000434168
-0.00597278
-0.000549062
-0.00632121
-0.000672793
-0.00669916
-0.000806038
-0.00710868
-0.000949531
-0.00755204
-0.00110409
-0.00803189
-0.00127054
-0.00855102
-0.00144932
-0.00911049
-0.00970861
-0.00164031
1.66903e-05
-0.000536342
4.68541e-05
-0.00150117
7.19356e-05
-0.00237962
7.76491e-05
-0.00311741
5.726e-05
-0.00369223
1.14708e-05
-0.00412185
-5.49857e-05
-0.00444982
-0.000136264
-0.00472514
-0.000228175
-0.00498587
-0.000328596
-0.00525492
-0.00043694
-0.00554344
-0.000553409
-0.00585631
-0.000678522
-0.00619609
-0.000812913
-0.00656477
-0.000957299
-0.0069643
-0.00111246
-0.00739687
-0.00127929
-0.00786507
-0.00145873
-0.00837158
-0.0016512
-0.00891802
-0.00950362
-0.00185619
1.40334e-05
-0.000550375
3.68557e-05
-0.00152399
5.10321e-05
-0.0023938
4.39986e-05
-0.00311037
1.09168e-05
-0.00365915
-4.70197e-05
-0.00406391
-0.000124122
-0.00437272
-0.00021507
-0.0046342
-0.000316166
-0.00488477
-0.00042571
-0.00514538
-0.000543373
-0.00542578
-0.000669484
-0.0057302
-0.000804625
-0.00606095
-0.000949475
-0.00641992
-0.00110478
-0.00680899
-0.00127137
-0.00723029
-0.00145019
-0.00768624
-0.00164234
-0.00817943
-0.00184822
-0.00871214
-0.00928498
-0.00206685
1.12683e-05
-0.000561643
2.66274e-05
-0.00153935
3.00274e-05
-0.0023972
1.08823e-05
-0.00309123
-3.49122e-05
-0.00361335
-0.000104031
-0.0039948
-0.000191246
-0.0042855
-0.000291472
-0.00453397
-0.000401475
-0.00477477
-0.000519928
-0.00502693
-0.000646716
-0.00529899
-0.000782277
-0.00559464
-0.000927243
-0.00591599
-0.00108233
-0.00626483
-0.00124833
-0.006643
-0.00142607
-0.00705254
-0.00161661
-0.0074957
-0.00182119
-0.00797485
-0.00204021
-0.00849313
-0.00905319
-0.002272
8.40255e-06
-0.000570046
1.62692e-05
-0.00154722
9.21776e-06
-0.00239014
-2.22446e-05
-0.00305976
-7.9606e-05
-0.00355599
-0.000159405
-0.003915
-0.000256242
-0.00418866
-0.00036538
-0.00442483
-0.000484022
-0.00465613
-0.000611165
-0.00489978
-0.000746876
-0.00516328
-0.000891677
-0.00544984
-0.00104625
-0.00576141
-0.00121135
-0.00609973
-0.00138778
-0.00646657
-0.00157642
-0.0068639
-0.00177837
-0.00729375
-0.00199505
-0.00775817
-0.0022269
-0.00826128
-0.00880873
-0.00247135
5.45276e-06
-0.000575499
5.81454e-06
-0.00154758
-1.17365e-05
-0.00237259
-5.46843e-05
-0.00301682
-0.000123089
-0.00348759
-0.000213011
-0.00382508
-0.000319016
-0.00408266
-0.000436722
-0.00430713
-0.000563738
-0.00452911
-0.000699345
-0.00476418
-0.00084376
-0.00501887
-0.000997578
-0.00529602
-0.00116153
-0.00559747
-0.00133639
-0.00592486
-0.001523
-0.00627996
-0.00172225
-0.00666465
-0.0019353
-0.0070807
-0.00216368
-0.00752978
-0.002408
-0.00801697
-0.00855157
-0.00266516
2.33299e-06
-0.000577832
-4.66191e-06
-0.00154059
-3.25438e-05
-0.00234471
-8.62945e-05
-0.00296307
-0.000165224
-0.00340866
-0.000264747
-0.00372555
-0.000379489
-0.00396792
-0.000505433
-0.00418118
-0.000640559
-0.00439398
-0.000784395
-0.00462034
-0.000937282
-0.00486598
-0.00109988
-0.00513343
-0.00127295
-0.00542439
-0.00145733
-0.00574049
-0.00165385
-0.00608343
-0.00186346
-0.00645504
-0.00208733
-0.00685684
-0.00232699
-0.00729012
-0.00258335
-0.0077606
-0.00828134
-0.00285358
-1.00159e-06
-0.00057683
-1.52584e-05
-0.00152633
-5.27801e-05
-0.00230719
-0.000116983
-0.00289886
-0.000205905
-0.00331974
-0.000314528
-0.00361693
-0.0004376
-0.00384484
-0.000571461
-0.00404732
-0.00071443
-0.00425101
-0.000866246
-0.00446852
-0.00102736
-0.00470487
-0.00119848
-0.00496231
-0.00138041
-0.00524246
-0.00157402
-0.00554688
-0.00178019
-0.00587726
-0.00199994
-0.0062353
-0.00223448
-0.00662229
-0.00248523
-0.00703938
-0.0027524
-0.00749343
-0.00799991
-0.00303384
-3.86222e-06
-0.000572968
-2.55333e-05
-0.00150466
-7.24848e-05
-0.00226024
-0.000146655
-0.00282469
-0.000245043
-0.00322135
-0.000362288
-0.00349969
-0.000493296
-0.00371384
-0.000634757
-0.00390586
-0.000785295
-0.00410048
-0.000944832
-0.00430899
-0.0011139
-0.0045358
-0.00129327
-0.00478294
-0.00148378
-0.00505195
-0.00168633
-0.00534434
-0.00190186
-0.00566173
-0.00213149
-0.00600567
-0.00237651
-0.00637726
-0.00263825
-0.00677764
-0.00291876
-0.00721292
-0.00771789
-0.00320077
-6.89068e-06
-0.000566077
-3.55811e-05
-0.00147597
-9.15921e-05
-0.00220423
-0.000175235
-0.00274105
-0.000282571
-0.00311401
-0.000407973
-0.00337428
-0.000546535
-0.00357527
-0.00069528
-0.00375711
-0.000853105
-0.00394265
-0.00102009
-0.004142
-0.00119685
-0.00435904
-0.00138418
-0.00459561
-0.00158296
-0.00485316
-0.00179413
-0.00513317
-0.00201869
-0.00543716
-0.00225786