0.093183 	0.49733 	-1.04189e-18 	0.224958 	3.36582e-05 	-2.7446e-18
