0.114218 	0.492331 	-9.30309e-19 	0.595393 	-0.00967901 	-2.01164e-17
0.114899 	0.495267 	-7.14783e-20 	0.202492 	-0.00041252 	-9.98703e-18
0.115479 	0.497766 	-8.91156e-20 	0.197925 	-0.000490635 	4.77384e-17
