0.0500078 	0.499751 	3.89538e-18 	0.355213 	-0.0132431 	-2.29068e-18
