/*--------------------------------*- C++ -*----------------------------------*\
  =========                 |
  \\      /  F ield         | OpenFOAM: The Open Source CFD Toolbox
   \\    /   O peration     | Website:  https://openfoam.org
    \\  /    A nd           | Version:  7
     \\/     M anipulation  |
\*---------------------------------------------------------------------------*/
FoamFile
{
    version     2.0;
    format      ascii;
    class       volVectorField;
    location    "17";
    object      U;
}
// * * * * * * * * * * * * * * * * * * * * * * * * * * * * * * * * * * * * * //

dimensions      [0 1 -1 0 0 0 0];

internalField   nonuniform List<vector> 
433
(
(1.08053 -0.00240526 0)
(1.08219 -0.00234055 0)
(1.08387 -0.00227087 0)
(1.08556 -0.00219616 0)
(1.08724 -0.00211597 0)
(1.08893 -0.00203009 0)
(1.09059 -0.00193847 0)
(1.09224 -0.00184108 0)
(1.09385 -0.00173794 0)
(1.09543 -0.00162912 0)
(1.09695 -0.00151476 0)
(1.09841 -0.00139506 0)
(1.09979 -0.00127033 0)
(1.10109 -0.00114093 0)
(1.10229 -0.00100731 0)
(1.10337 -0.000870027 0)
(1.10433 -0.000729691 0)
(1.10514 -0.000587022 0)
(1.08153 -0.0071475 0)
(1.08321 -0.00695684 0)
(1.0849 -0.00675082 0)
(1.08661 -0.00652925 0)
(1.08831 -0.00629084 0)
(1.09001 -0.0060351 0)
(1.09169 -0.00576198 0)
(1.09335 -0.00547148 0)
(1.09497 -0.00516374 0)
(1.09655 -0.004839 0)
(1.09808 -0.00449773 0)
(1.09955 -0.0041406 0)
(1.10093 -0.00376853 0)
(1.10223 -0.00338264 0)
(1.10343 -0.00298431 0)
(1.10451 -0.00257518 0)
(1.10546 -0.0021571 0)
(1.10626 -0.00173223 0)
(1.08345 -0.0118048 0)
(1.08517 -0.0114864 0)
(1.08689 -0.0111426 0)
(1.08862 -0.0107731 0)
(1.09035 -0.0103757 0)
(1.09208 -0.00994973 0)
(1.09378 -0.00949501 0)
(1.09546 -0.00901168 0)
(1.09711 -0.00849995 0)
(1.09871 -0.00796031 0)
(1.10025 -0.00739358 0)
(1.10172 -0.00680091 0)
(1.10311 -0.00618384 0)
(1.10441 -0.00554431 0)
(1.1056 -0.00488461 0)
(1.10667 -0.00420748 0)
(1.10761 -0.00351605 0)
(1.1084 -0.00281385 0)
(1.08622 -0.0164093 0)
(1.08798 -0.0159605 0)
(1.08974 -0.0154763 0)
(1.09152 -0.0149562 0)
(1.09329 -0.0143971 0)
(1.09506 -0.0137981 0)
(1.0968 -0.0131591 0)
(1.09851 -0.0124803 0)
(1.10018 -0.0117623 0)
(1.1018 -0.0110057 0)
(1.10336 -0.0102117 0)
(1.10485 -0.00938214 0)
(1.10624 -0.00851922 0)
(1.10754 -0.00762571 0)
(1.10872 -0.00670491 0)
(1.10978 -0.00576069 0)
(1.1107 -0.00479745 0)
(1.11145 -0.00382017 0)
(1.08977 -0.0210014 0)
(1.09159 -0.0204166 0)
(1.09341 -0.0197862 0)
(1.09524 -0.0191094 0)
(1.09707 -0.0183825 0)
(1.09888 -0.0176044 0)
(1.10067 -0.0167751 0)
(1.10242 -0.0158951 0)
(1.10412 -0.014965 0)
(1.10577 -0.0139861 0)
(1.10735 -0.01296 0)
(1.10885 -0.0118891 0)
(1.11025 -0.0107765 0)
(1.11155 -0.00962584 0)
(1.11272 -0.00844153 0)
(1.11375 -0.0072286 0)
(1.11464 -0.0059928 0)
(1.11536 -0.00474053 0)
(1.09406 -0.0256087 0)
(1.09596 -0.0248802 0)
(1.09783 -0.0240956 0)
(1.09973 -0.023254 0)
(1.10163 -0.0223509 0)
(1.1035 -0.0213851 0)
(1.10534 -0.020357 0)
(1.10714 -0.0192673 0)
(1.10888 -0.0181171 0)
(1.11056 -0.0169079 0)
(1.11216 -0.0156423 0)
(1.11367 -0.0143233 0)
(1.11507 -0.0129549 0)
(1.11636 -0.0115418 0)
(1.11752 -0.0100895 0)
(1.11853 -0.00860442 0)
(1.11937 -0.00709357 0)
(1.12005 -0.00556485 0)
(1.09905 -0.0302561 0)
(1.10103 -0.0293739 0)
(1.10298 -0.0284247 0)
(1.10495 -0.0274078 0)
(1.10692 -0.0263176 0)
(1.10887 -0.0251532 0)
(1.11077 -0.0239153 0)
(1.11261 -0.022605 0)
(1.1144 -0.0212241 0)
(1.11611 -0.0197746 0)
(1.11773 -0.0182599 0)
(1.11925 -0.0166839 0)
(1.12066 -0.0150516 0)
(1.12193 -0.013369 0)
(1.12306 -0.0116428 0)
(1.12403 -0.00988064 0)
(1.12483 -0.00809102 0)
(1.12545 -0.00628331 0)
(1.10471 -0.0349633 0)
(1.10679 -0.0339153 0)
(1.10882 -0.032789 0)
(1.11087 -0.0315837 0)
(1.11293 -0.0302933 0)
(1.11494 -0.028917 0)
(1.1169 -0.027456 0)
(1.1188 -0.0259123 0)
(1.12063 -0.0242879 0)
(1.12237 -0.022586 0)
(1.12402 -0.0208107 0)
(1.12554 -0.0189672 0)
(1.12694 -0.0170617 0)
(1.1282 -0.0151012 0)
(1.1293 -0.0130939 0)
(1.13022 -0.0110489 0)
(1.13096 -0.00897601 0)
(1.1315 -0.00688619 0)
(1.11101 -0.0397462 0)
(1.11319 -0.0385179 0)
(1.1153 -0.0371996 0)
(1.11745 -0.0357908 0)
(1.11959 -0.0342848 0)
(1.12169 -0.032681 0)
(1.12372 -0.0309817 0)
(1.12567 -0.0291893 0)
(1.12754 -0.027307 0)
(1.12932 -0.0253388 0)
(1.13097 -0.0232901 0)
(1.1325 -0.0211673 0)
(1.13389 -0.0189778 0)
(1.13511 -0.0167302 0)
(1.13617 -0.014434 0)
(1.13704 -0.0120999 0)
(1.1377 -0.00973901 0)
(1.13816 -0.0073638 0)
(1.11792 -0.0446168 0)
(1.12021 -0.0431914 0)
(1.12242 -0.041664 0)
(1.12466 -0.0400342 0)
(1.1269 -0.0382949 0)
(1.12908 -0.036446 0)
(1.13117 -0.0344907 0)
(1.13318 -0.0324328 0)
(1.13509 -0.0302763 0)
(1.13689 -0.0280266 0)
(1.13855 -0.0256903 0)
(1.14007 -0.0232753 0)
(1.14143 -0.0207906 0)
(1.14262 -0.0182462 0)
(1.14362 -0.0156532 0)
(1.14442 -0.0130236 0)
(1.145 -0.0103702 0)
(1.14535 -0.00770654 0)
(1.12541 -0.0495837 0)
(1.12783 -0.0479421 0)
(1.13013 -0.0461859 0)
(1.13248 -0.0443152 0)
(1.13481 -0.0423225 0)
(1.13707 -0.0402087 0)
(1.13923 -0.0379782 0)
(1.14129 -0.035636 0)
(1.14324 -0.0331876 0)
(1.14505 -0.0306399 0)
(1.14671 -0.028001 0)
(1.14821 -0.0252805 0)
(1.14954 -0.0224889 0)
(1.15067 -0.019638 0)
(1.1516 -0.0167403 0)
(1.1523 -0.0138094 0)
(1.15278 -0.0108593 0)
(1.15301 -0.00790496 0)
(1.13346 -0.0546523 0)
(1.13601 -0.0527726 0)
(1.13841 -0.0507654 0)
(1.14086 -0.0486313 0)
(1.14329 -0.0463629 0)
(1.14563 -0.0439621 0)
(1.14786 -0.0414352 0)
(1.14996 -0.0387885 0)
(1.15193 -0.0360293 0)
(1.15375 -0.0331662 0)
(1.1554 -0.0302091 0)
(1.15687 -0.0271694 0)
(1.15814 -0.0240594 0)
(1.1592 -0.0208926 0)
(1.16004 -0.0176831 0)
(1.16064 -0.0144458 0)
(1.161 -0.011196 0)
(1.16109 -0.00794966 0)
(1.14205 -0.0598244 0)
(1.14473 -0.0576816 0)
(1.14723 -0.0553984 0)
(1.14979 -0.0529761 0)
(1.15232 -0.0504073 0)
(1.15474 -0.0476956 0)
(1.15702 -0.0448492 0)
(1.15916 -0.0418764 0)
(1.16114 -0.0387865 0)
(1.16295 -0.03559 0)
(1.16457 -0.0322989 0)
(1.16599 -0.0289265 0)
(1.16719 -0.0254872 0)
(1.16816 -0.0219959 0)
(1.16889 -0.0184684 0)
(1.16936 -0.0149207 0)
(1.16958 -0.0113694 0)
(1.16952 -0.00783117 0)
(1.15115 -0.0650981 0)
(1.15398 -0.0626645 0)
(1.15657 -0.0600773 0)
(1.15924 -0.0573392 0)
(1.16186 -0.0544429 0)
(1.16434 -0.0513942 0)
(1.16667 -0.0482038 0)
(1.16882 -0.0448822 0)
(1.1708 -0.041441 0)
(1.17259 -0.0378928 0)
(1.17416 -0.034252 0)
(1.1755 -0.0305341 0)
(1.17661 -0.0267551 0)
(1.17747 -0.0229319 0)
(1.17807 -0.0190816 0)
(1.1784 -0.0152212 0)
(1.17844 -0.0113682 0)
(1.1782 -0.0075395 0)
(1.16075 -0.0704683 0)
(1.16371 -0.0677124 0)
(1.1664 -0.0647902 0)
(1.16916 -0.0617057 0)
(1.17187 -0.0584525 0)
(1.17441 -0.055039 0)
(1.17676 -0.0514785 0)
(1.17892 -0.0477845 0)
(1.18088 -0.0439708 0)
(1.18261 -0.0400528 0)
(1.18411 -0.0360472 0)
(1.18536 -0.0319715 0)
(1.18635 -0.027844 0)
(1.18707 -0.0236828 0)
(1.18751 -0.0195063 0)
(1.18766 -0.0153326 0)
(1.18751 -0.0111791 0)
(1.18706 -0.00706318 0)
(1.17082 -0.0759254 0)
(1.17392 -0.072812 0)
(1.1767 -0.0695204 0)
(1.17954 -0.0660562 0)
(1.18232 -0.0624143 0)
(1.1849 -0.0586061 0)
(1.18726 -0.0546484 0)
(1.1894 -0.0505574 0)
(1.1913 -0.0463501 0)
(1.19296 -0.0420443 0)
(1.19436 -0.0376594 0)
(1.19548 -0.033215 0)
(1.19631 -0.0287311 0)
(1.19685 -0.0242275 0)
(1.1971 -0.0197232 0)
(1.19704 -0.0152369 0)
(1.19667 -0.0107862 0)
(1.19598 -0.00638765 0)
(1.18134 -0.0814552 0)
(1.18457 -0.0779448 0)
(1.18742 -0.0742456 0)
(1.19034 -0.0703652 0)
(1.19316 -0.0663003 0)
(1.19576 -0.0620659 0)
(1.1981 -0.0576824 0)
(1.20019 -0.0531697 0)
(1.20201 -0.0485474 0)
(1.20355 -0.0438364 0)
(1.2048 -0.0390584 0)
(1.20575 -0.0342353 0)
(1.20639 -0.0293888 0)
(1.20672 -0.0245395 0)
(1.20672 -0.0197075 0)
(1.20641 -0.0149112 0)
(1.20576 -0.0101678 0)
(1.20479 -0.00549295 0)
(1.19228 -0.0870373 0)
(1.19563 -0.0830855 0)
(1.19853 -0.0789364 0)
(1.2015 -0.0746001 0)
(1.20435 -0.0700752 0)
(1.20693 -0.0653811 0)
(1.20921 -0.0605423 0)
(1.21121 -0.0555823 0)
(1.2129 -0.0505237 0)
(1.21428 -0.0453902 0)
(1.21533 -0.0402062 0)
(1.21606 -0.0349954 0)
(1.21645 -0.029781 0)
(1.2165 -0.0245845 0)
(1.21621 -0.0194261 0)
(1.21558 -0.014324 0)
(1.2146 -0.00929435 0)
(1.21329 -0.00435132 0)
(1.20363 -0.0926425 0)
(1.20708 -0.0881994 0)
(1.21 -0.0835535 0)
(1.21298 -0.0787176 0)
(1.21581 -0.0736928 0)
(1.21833 -0.0685034 0)
(1.2205 -0.0631784 0)
(1.22234 -0.0577447 0)
(1.22384 -0.0522281 0)
(1.22499 -0.0466552 0)
(1.22578 -0.0410526 0)
(1.22621 -0.035446 0)
(1.22627 -0.0298596 0)
(1.22597 -0.0243157 0)
(1.2253 -0.0188341 0)
(1.22428 -0.0134324 0)
(1.2229 -0.00812511 0)
(1.22116 -0.00292445 0)
(1.21534 -0.0982282 0)
(1.21885 -0.0932375 0)
(1.22174 -0.0880425 0)
(1.22468 -0.0826589 0)
(1.22743 -0.077091 0)
(1.22982 -0.0713682 0)
(1.2318 -0.0655244 0)
(1.23341 -0.0595896 0)
(1.23463 -0.0535929 0)
(1.23546 -0.0475635 0)
(1.23589 -0.0415304 0)
(1.23592 -0.0355208 0)
(1.23555 -0.0295599 0)
(1.23479 -0.0236702 0)
(1.23365 -0.0178713 0)
(1.23213 -0.0121792 0)
(1.23024 -0.00660659 0)
(1.22799 -0.00116215 0)
(1.22735 -0.103731 0)
(1.23086 -0.0981294 0)
(1.23365 -0.0923268 0)
(1.23647 -0.0863421 0)
(1.23905 -0.0801839 0)
(1.2412 -0.0738872 0)
(1.24289 -0.06749 0)
(1.24415 -0.0610257 0)
(1.24497 -0.0545264 0)
(1.24535 -0.048024 0)
(1.24529 -0.0415495 0)
(1.24479 -0.0351318 0)
(1.24386 -0.0287967 0)
(1.24251 -0.0225669 0)
(1.24076 -0.0164609 0)
(1.23861 -0.0104931 0)
(1.23609 -0.00467337 0)
(1.2332 0.000992926 0)
(1.22995 0.00650173 0)
(1.23952 -0.109055 0)
(1.24293 -0.102772 0)
(1.24551 -0.0962968 0)
(1.24809 -0.0896521 0)
(1.25037 -0.0828525 0)
(1.25215 -0.0759389 0)
(1.2534 -0.0689527 0)
(1.25415 -0.0619305 0)
(1.25441 -0.0549071 0)
(1.25417 -0.0479172 0)
(1.25345 -0.0409938 0)
(1.25225 -0.0341673 0)
(1.25059 -0.0274641 0)
(1.24848 -0.0209065 0)
(1.24596 -0.0145119 0)
(1.24303 -0.00829203 0)
(1.23974 -0.00225269 0)
(1.23608 0.003603 0)
(1.23209 0.00927841 0)
(1.25163 -0.114055 0)
(1.25479 -0.107016 0)
(1.257 -0.0997965 0)
(1.25917 -0.0924281 0)
(1.26096 -0.0849339 0)
(1.26216 -0.07736 0)
(1.26276 -0.0697506 0)
(1.2628 -0.0621445 0)
(1.26228 -0.0545798 0)
(1.26122 -0.0470938 0)
(1.25962 -0.0397218 0)
(1.25751 -0.032495 0)
(1.25491 -0.0254403 0)
(1.25186 -0.0185792 0)
(1.24839 -0.0119271 0)
(1.24453 -0.00549242 0)
(1.24032 0.000723796 0)
(1.23578 0.00672375 0)
(1.23094 0.0125175 0)
(1.26327 -0.118521 0)
(1.26597 -0.110648 0)
(1.26758 -0.102611 0)
(1.26909 -0.0944537 0)
(1.27014 -0.0862135 0)
(1.27051 -0.0779406 0)
(1.27019 -0.06968 0)
(1.26925 -0.0614727 0)
(1.26769 -0.0533599 0)
(1.26554 -0.0453818 0)
(1.26283 -0.0375752 0)
(1.25958 -0.0299723 0)
(1.25583 -0.0225998 0)
(1.25164 -0.0154774 0)
(1.24705 -0.00861737 0)
(1.24211 -0.00202245 0)
)
;

boundaryField
{
    inlet
    {
        type            uniformFixedValue;
        uniformValue    constant (1 0 0);
        value           nonuniform 0();
    }
    outlet
    {
        type            pressureInletOutletVelocity;
        value           nonuniform 0();
    }
    cylinder
    {
        type            fixedValue;
        value           nonuniform 0();
    }
    top
    {
        type            symmetryPlane;
    }
    bottom
    {
        type            symmetryPlane;
    }
    defaultFaces
    {
        type            empty;
    }
    procBoundary4to3
    {
        type            processor;
        value           nonuniform List<vector> 
24
(
(1.07932 -0.00244759 -5.93365e-21)
(1.0803 -0.00727169 -1.08251e-20)
(1.08218 -0.0120116 7.75371e-21)
(1.08488 -0.0167002 1.50063e-20)
(1.08834 -0.0213798 -3.00079e-20)
(1.09252 -0.0260796 2.44166e-20)
(1.09738 -0.0308258 -6.17219e-21)
(1.10288 -0.0356398 3.53084e-20)
(1.10901 -0.0405389 -1.13785e-20)
(1.11572 -0.0455366 -2.80105e-20)
(1.123 -0.0506435 1.47132e-20)
(1.13082 -0.0558667 -4.82839e-20)
(1.13916 -0.0612099 6.31592e-20)
(1.148 -0.0666738 -5.33085e-20)
(1.1573 -0.0722554 4.81102e-20)
(1.16707 -0.0779483 2.37611e-20)
(1.17727 -0.0837413 -1.16043e-20)
(1.18788 -0.0896179 -6.49108e-20)
(1.19889 -0.0955534 -1.21361e-19)
(1.21026 -0.101511 2.06947e-19)
(1.22194 -0.107434 4.85576e-20)
(1.23383 -0.113233 4.92391e-20)
(1.24576 -0.118772 -3.5812e-19)
(1.25739 -0.123842 4.30765e-19)
)
;
    }
    procBoundary4to5
    {
        type            processor;
        value           nonuniform List<vector> 
21
(
(1.1058 -0.000442815 0)
(1.10691 -0.00130294 0)
(1.10902 -0.00210484 0)
(1.11204 -0.00283435 0)
(1.1159 -0.00347885 0)
(1.12053 -0.00402687 0)
(1.12586 -0.00446768 0)
(1.13183 -0.00479108 0)
(1.13838 -0.0049873 0)
(1.14546 -0.00504713 0)
(1.15299 -0.00496189 0)
(1.16092 -0.00472322 0)
(1.16917 -0.0043229 0)
(1.17767 -0.00375233 0)
(1.1863 -0.00300156 0)
(1.19497 -0.00205749 0)
(1.20348 -0.000901197 0)
(1.21163 0.000492784 0)
(1.21907 0.00215986 0)
(1.22537 0.00414602 0)
(1.22537 0.00414602 0)
)
;
    }
    procBoundary4to10
    {
        type            processor;
        value           nonuniform List<vector> 
20
(
(1.23686 0.00430863 0)
(1.23134 0.0103892 0)
(1.22559 0.0162362 0)
(1.27378 -0.122155 0)
(1.27571 -0.113382 0)
(1.27643 -0.104457 0)
(1.27696 -0.0954521 0)
(1.27694 -0.0864252 0)
(1.27615 -0.0774281 0)
(1.2746 -0.0685037 0)
(1.27237 -0.0596952 0)
(1.26949 -0.051047 0)
(1.26598 -0.0426018 0)
(1.26189 -0.0343974 0)
(1.25727 -0.0264662 0)
(1.25217 -0.0188335 0)
(1.24667 -0.0115159 0)
(1.24082 -0.00452027 0)
(1.23686 0.00430863 0)
(1.23468 0.0021547 0)
)
;
    }
    procBoundary4to11
    {
        type            processor;
        value           nonuniform List<vector> 3((1.22635 0.0118528 0) (1.22777 0.0147781 0) (1.22582 0.0181165 0));
    }
}


// ************************************************************************* //
