/*--------------------------------*- C++ -*----------------------------------*\
  =========                 |
  \\      /  F ield         | OpenFOAM: The Open Source CFD Toolbox
   \\    /   O peration     | Website:  https://openfoam.org
    \\  /    A nd           | Version:  7
     \\/     M anipulation  |
\*---------------------------------------------------------------------------*/
FoamFile
{
    version     2.0;
    format      ascii;
    class       surfaceScalarField;
    location    "95.000318";
    object      phi;
}
// * * * * * * * * * * * * * * * * * * * * * * * * * * * * * * * * * * * * * //

dimensions      [0 3 -1 0 0 0 0];

internalField   nonuniform List<scalar> 
46020
(
-3.84233e-06
-5.46592e-06
9.30825e-06
-1.44431e-05
-1.5678e-05
2.62788e-05
-3.14679e-05
-2.57435e-05
4.27683e-05
-5.45618e-05
-3.5418e-05
5.85119e-05
-8.33556e-05
-4.45393e-05
7.33331e-05
-0.000117488
-5.30854e-05
8.72182e-05
-0.000156629
-6.12e-05
0.00010034
-0.000200493
-6.91865e-05
0.00011305
-0.000248857
-7.74618e-05
0.000125826
-0.000301561
-8.64705e-05
0.000139175
-0.000358491
-9.65787e-05
0.000153509
-0.000419551
-0.000107969
0.000169028
-0.000484613
-0.000120546
0.000185609
-0.000553464
-0.000133857
0.000202708
-0.00062575
-0.00014698
0.000219266
-0.000700954
-0.000158377
0.000233581
-0.000778438
-0.000165643
0.000243128
-0.000857841
-0.000164988
0.00024439
-0.00093953
-0.000150951
0.00023264
-0.000116728
0.000200741
-0.00102354
-3.9051e-06
-1.56082e-06
-1.46608e-05
-4.92233e-06
-3.19056e-05
-8.49868e-06
-5.52563e-05
-1.20672e-05
-8.43162e-05
-1.54794e-05
-0.000118699
-1.87025e-05
-0.000158052
-2.18475e-05
-0.000202071
-2.51673e-05
-0.000250516
-2.90172e-05
-0.000303203
-3.37827e-05
-0.000359992
-3.97896e-05
-0.000420744
-4.72168e-05
-0.00048527
-5.60207e-05
-0.000553262
-6.58642e-05
-0.000624234
-7.60084e-05
-0.000697476
-8.51349e-05
-0.00077205
-9.10693e-05
-0.00084714
-8.98974e-05
-0.000922921
-7.51704e-05
-4.24832e-05
-0.000997166
-3.89548e-06
2.33467e-06
-1.46179e-05
5.80009e-06
-3.17896e-05
8.67299e-06
-5.50043e-05
1.11475e-05
-8.38375e-05
1.33538e-05
-0.000117871
1.53314e-05
-0.000156717
1.69986e-05
-0.000200034
1.81492e-05
-0.000247535
1.84834e-05
-0.000298983
1.76655e-05
-0.000354168
1.53957e-05
-0.000412864
1.14789e-05
-0.000474766
5.88161e-06
-0.000539415
-1.21557e-06
-0.000606115
-9.30851e-06
-0.000673866
-1.73834e-05
-0.000741261
-2.36745e-05
-0.000806644
-2.45147e-05
-0.000870181
-1.16327e-05
1.26235e-05
-0.000925288
-3.81605e-06
6.15072e-06
-1.4323e-05
1.6307e-05
-3.11371e-05
2.54871e-05
-5.38338e-05
3.38443e-05
-8.19598e-05
4.14797e-05
-0.000115059
4.84304e-05
-0.000152694
5.46338e-05
-0.000194465
5.992e-05
-0.000240013
6.40318e-05
-0.000289014
6.66666e-05
-0.000341149
6.75302e-05
-0.000396055
6.63847e-05
-0.00045326
6.30869e-05
-0.000512097
5.76213e-05
-0.000571588
5.01826e-05
-0.000630373
4.14018e-05
-0.000686475
3.2428e-05
-0.00073695
2.59594e-05
-0.000782411
3.38284e-05
4.00033e-05
-0.00080979
-3.67232e-06
9.82304e-06
-1.37944e-05
2.64291e-05
-2.99844e-05
4.1677e-05
-5.18024e-05
5.56623e-05
-7.87641e-05
6.84415e-05
-0.000110367
8.00333e-05
-0.000146112
9.03788e-05
-0.000185519
9.93268e-05
-0.00022813
0.000106643
-0.000273496
0.000112033
-0.000321147
0.000115181
-0.000370534
0.000115772
-0.000420962
0.000113514
-0.000471487
0.000108146
-0.000520785
9.9481e-05
-0.000567063
8.76798e-05
-0.000607813
7.31777e-05
-0.000638086
5.62328e-05
-0.000660163
5.59052e-05
3.17775e-05
-0.000651937
-3.4724e-06
1.32954e-05
-1.3059e-05
3.60157e-05
-2.83842e-05
5.70022e-05
-4.89931e-05
7.62712e-05
-7.43663e-05
9.38148e-05
-0.000103945
0.000109612
-0.000137154
0.000123587
-0.000173409
0.000135582
-0.000212123
0.000145357
-0.000252688
0.000152597
-0.00029443
0.000156923
-0.00033656
0.000157902
-0.000378086
0.000155041
-0.000417716
0.000147777
-0.000453692
0.000135457
-0.000483687
0.000117674
-0.000504842
9.43331e-05
-0.000509494
6.0885e-05
-0.000502295
4.87057e-05
-1.89016e-05
-0.000451616
-3.22643e-06
1.65219e-05
-1.21502e-05
4.49395e-05
-2.64022e-05
7.12541e-05
-4.5509e-05
9.5378e-05
-6.89092e-05
0.000117215
-9.59767e-05
0.00013668
-0.000126039
0.00015365
-0.000158389
0.000167932
-0.000192276
0.000179244
-0.000226885
0.000187206
-0.00026129
0.000191329
-0.000294388
0.000190999
-0.000324806
0.000185459
-0.000350801
0.000173771
-0.000370062
0.000154717
-0.000379527
0.00012714
-0.000376241
9.10466e-05
-0.000349573
3.42175e-05
-0.000305218
4.3506e-06
-0.000117012
-0.000207108
-2.94599e-06
1.94678e-05
-1.11063e-05
5.30998e-05
-2.41129e-05
8.42608e-05
-4.14668e-05
0.000112732
-6.25535e-05
0.000138302
-8.66647e-05
0.000160791
-0.000113013
0.000179998
-0.000140736
0.000195654
-0.000168884
0.000207392
-0.000196388
0.000214711
-0.000222002
0.000216943
-0.000244225
0.000213222
-0.000261194
0.000202428
-0.000270574
0.000183152
-0.000269362
0.000153505
-0.000253391
0.000111169
-0.000219503
5.71584e-05
-0.00015595
-2.9335e-05
-6.01633e-05
-9.14363e-05
-0.000264959
8.77842e-05
-2.64335e-06
2.21112e-05
-9.96749e-06
6.0424e-05
-2.15949e-05
9.58882e-05
-3.69884e-05
0.000128125
-5.54662e-05
0.00015678
-7.6219e-05
0.000181544
-9.83196e-05
0.000202098
-0.000120719
0.000218054
-0.000142226
0.000228899
-0.000161458
0.000233942
-0.000176771
0.000232256
-0.000186162
0.000222613
-0.000187141
0.000203408
-0.000176599
0.00017261
-0.000150712
0.000127618
-0.000104011
6.44681e-05
-2.98438e-05
-1.7009e-05
7.56859e-05
-0.000134865
0.000225672
-0.000241422
-0.000491148
0.000451861
-2.33074e-06
2.44419e-05
-8.77369e-06
6.68669e-05
-1.89254e-05
0.00010604
-3.21929e-05
0.000141393
-4.7808e-05
0.000172395
-6.48373e-05
0.000198573
-8.21849e-05
0.000219446
-9.85773e-05
0.000234446
-0.000112527
0.000242849
-0.000122271
0.000243685
-0.000125671
0.000235657
-0.000120099
0.000217041
-0.000102273
0.000185581
-6.80697e-05
0.000138407
-1.22929e-05
7.18409e-05
7.08493e-05
-1.86742e-05
0.000190196
-0.000136356
0.000357339
-0.000302007
0.000569088
-0.000453171
-0.000806735
0.000884675
-2.01952e-06
2.64615e-05
-7.56159e-06
7.2409e-05
-1.61744e-05
0.000114653
-2.71869e-05
0.000152405
-3.97194e-05
0.000184927
-5.26866e-05
0.00021154
-6.47876e-05
0.000231547
-7.44775e-05
0.000244136
-7.99112e-05
0.000248283
-7.88571e-05
0.000242631
-6.8574e-05
0.000225374
-4.56568e-05
0.000194123
-5.842e-06
0.000145766
5.62098e-05
7.63551e-05
0.000147024
-1.89728e-05
0.000275096
-0.000146747
0.000449176
-0.000310436
0.000685696
-0.000538528
0.000977361
-0.000744835
-0.0012239
0.00139452
-1.71937e-06
2.81808e-05
-6.36176e-06
7.70514e-05
-1.33991e-05
0.00012169
-2.20543e-05
0.000161061
-3.13062e-05
0.000194179
-3.98818e-05
0.000220116
-4.62319e-05
0.000237897
-4.84822e-05
0.000246387
-4.43531e-05
0.000244154
-3.10434e-05
0.000229322
-5.07375e-06
0.000199404
3.79147e-05
0.000151135
0.000103377
8.0304e-05
0.000198117
-1.83853e-05
0.000330372
-0.000151228
0.000510383
-0.000326757
0.000749948
-0.000550002
0.00106463
-0.000853206
0.00145046
-0.00113067
-0.0017511
0.00197766
-1.43749e-06
2.96183e-05
-5.196e-06
8.08099e-05
-1.06381e-05
0.000127132
-1.68471e-05
0.00016727
-2.2624e-05
0.000199956
-2.64653e-05
0.000223957
-2.6519e-05
0.000237951
-2.05109e-05
0.000240379
-5.63358e-06
0.000229276
2.16071e-05
0.000202081
6.55856e-05
0.000155426
0.000131788
8.49323e-05
0.00022707
-1.4978e-05
0.000359894
-0.000151209
0.000540383
-0.000331717
0.000779968
-0.000566342
0.00109425
-0.000864278
0.0014939
-0.00125286
0.0019824
-0.00161917
-0.00238681
0.00261811
-1.17794e-06
3.07963e-05
-4.07478e-06
8.37067e-05
-7.90589e-06
0.000130963
-1.15763e-05
0.00017094
-1.36654e-05
0.000202045
-1.23872e-05
0.000222679
-5.52092e-06
0.000231085
9.69364e-06
0.000225164
3.67036e-05
0.000202266
7.98342e-05
0.00015895
0.000144521
9.07387e-05
0.000237565
-8.11134e-06
0.000367364
-0.000144777
0.000544092
-0.000327938
0.000779677
-0.000567302
0.00108592
-0.000872582
0.00148091
-0.00125928
0.00196818
-0.00174013
0.00255864
-0.00220963
-0.00311236
0.0032842
-9.40969e-07
3.17372e-05
-2.99517e-06
8.57609e-05
-5.18876e-06
0.000133157
-6.20426e-06
0.000171955
-4.34763e-06
0.000200188
2.51059e-06
0.000215821
1.70397e-05
0.000216556
4.25884e-05
0.000199615
8.33701e-05
0.000161485
0.000144693
9.76277e-05
0.000233214
2.21778e-06
0.000357177
-0.000132075
0.000526561
-0.00031416
0.000753013
-0.00055439
0.00104967
-0.000863955
0.00142781
-0.00125073
0.00190387
-0.00173533
0.00247425
-0.00231051
0.00315385
-0.00288923
-0.00389097
0.00393246
-7.22633e-07
3.24599e-05
-1.93937e-06
8.69777e-05
-2.44163e-06
0.000133659
-6.36548e-07
0.00017015
5.49229e-06
0.000194059
1.8501e-05
0.000202812
4.15991e-05
0.000193457
7.88369e-05
0.000162377
0.000135331
0.000104991
0.000217516
1.54422e-05
0.000333389
-0.000113655
0.000492657
-0.000291343
0.000706673
-0.000528175
0.00098793
-0.000835647
0.00134931
-0.00122534
0.00180056
-0.00170198
0.00235043
-0.0022852
0.00298941
-0.0029495
0.00373123
-0.00363104
-0.00467452
0.00451478
-5.14734e-07
3.29746e-05
-8.73805e-07
8.73367e-05
4.16658e-07
0.000132369
5.26268e-06
0.000165304
1.60996e-05
0.000183223
3.59765e-05
0.000182935
6.87479e-05
0.000160686
0.000119291
0.000111835
0.000193755
3.05265e-05
0.000299809
-9.06126e-05
0.000446806
-0.000260651
0.000645726
-0.000490264
0.000908723
-0.000791172
0.00124798
-0.0011749
0.00167382
-0.00165118
0.00219253
-0.00222069
0.00280038
-0.00289305
0.00348288
-0.003632
0.00424675
-0.00439491
-0.00541545
0.00498768
-3.05325e-07
3.32799e-05
2.50033e-07
8.67814e-05
3.47734e-06
0.000129141
1.16965e-05
0.000157085
2.77992e-05
0.00016712
5.5432e-05
0.000155303
9.92045e-05
0.000116914
0.000164937
4.61018e-05
0.000259914
-6.44497e-05
0.000393058
-0.000223757
0.000574915
-0.000442509
0.000817233
-0.000732581
0.00113188
-0.00110582
0.00152894
-0.00157196
0.00201355
-0.00213579
0.00258539
-0.00279252
0.00322709
-0.00353475
0.00392043
-0.00432534
0.00465962
-0.0051341
-0.00607798
0.00532215
-8.06152e-08
3.33605e-05
1.47774e-06
8.5223e-05
6.88804e-06
0.000123731
1.8904e-05
0.000145069
4.09752e-05
0.000145049
7.74396e-05
0.000118838
0.000133767
6.05865e-05
0.000216813
-3.69449e-05
0.000335024
-0.000182661
0.000498454
-0.000387186
0.000718412
-0.000662467
0.00100647
-0.00102064
0.00137259
-0.00147194
0.00182243
-0.0020218
0.00235357
-0.00266693
0.00295606
-0.00339502
0.00360198
-0.00418067
0.0042713
-0.00499465
0.00494372
-0.00580653
-0.00664506
0.0055108
1.84167e-07
3.31764e-05
2.8984e-06
8.25088e-05
1.07977e-05
0.000115832
2.71539e-05
0.000128713
5.60499e-05
0.000116153
0.000102606
7.22817e-05
0.000173238
-1.00448e-05
0.000275875
-0.000139582
0.000420035
-0.000326821
0.000616554
-0.000583706
0.00087672
-0.000922633
0.00121053
-0.00135445
0.00162396
-0.00188538
0.00211584
-0.00251368
0.00267481
-0.0032259
0.00328062
-0.00400082
0.003901
-0.00480106
0.00451561
-0.00560925
0.00509272
-0.00638364
-0.00712952
0.00557718
5.03844e-07
3.26725e-05
4.57859e-06
7.8434e-05
1.53677e-05
0.000105043
3.67268e-05
0.000107354
7.34507e-05
7.94288e-05
0.000131519
1.42139e-05
0.000218333
-9.68595e-05
0.000342842
-0.000264091
0.000515371
-0.00049935
0.000746903
-0.000815238
0.00104752
-0.00122325
0.00142383
-0.00173076
0.00187572
-0.00233727
0.00239352
-0.00303148
0.0029572
-0.00378958
0.00353917
-0.00458279
0.0041098
-0.00537169
0.00465023
-0.00614969
0.00513134
-0.00686475
-0.00758383
0.00558565
9.01973e-07
3.17706e-05
6.59407e-06
7.27419e-05
2.0758e-05
9.08787e-05
4.78938e-05
8.0218e-05
9.35724e-05
3.37502e-05
0.000164676
-5.68902e-05
0.000269569
-0.000201752
0.000418024
-0.000412547
0.000620682
-0.000702007
0.000887705
-0.00108226
0.00122643
-0.00156197
0.00163818
-0.0021425
0.00211513
-0.00281423
0.00263909
-0.00355544
0.00318379
-0.00433428
0.00372008
-0.00511908
0.00422558
-0.0058772
0.00468487
-0.00660897
0.00510064
-0.00728052
-0.00797618
0.00549299
1.39837e-06
3.03722e-05
9.01618e-06
6.51241e-05
2.71161e-05
7.27788e-05
6.08933e-05
4.64408e-05
0.000116736
-2.20926e-05
0.000202423
-0.000142577
0.000327149
-0.000326477
0.000501148
-0.000586546
0.000734612
-0.000935471
0.00103561
-0.00138326
0.00140706
-0.00193342
0.0018434
-0.00257885
0.00232879
-0.00329962
0.00283849
-0.00406513
0.00334432
-0.00484011
0.00382149
-0.00559625
0.00425649
-0.0063122
0.00464528
-0.00699776
0.00499993
-0.00763517
-0.00830737
0.00533112
2.01111e-06
2.83611e-05
1.19069e-05
5.52284e-05
3.4565e-05
5.01207e-05
7.59085e-05
5.09731e-06
0.000143148
-8.93319e-05
0.000244877
-0.000244306
0.000390861
-0.000472461
0.000591219
-0.000786904
0.000854675
-0.00119893
0.00118576
-0.00171435
0.00158144
-0.0023291
0.00202867
-0.00302608
0.00250492
-0.00377587
0.0029826
-0.00454281
0.00343649
-0.005294
0.00384983
-0.00600959
0.00421903
-0.0066814
0.00454851
-0.00732724
0.00485412
-0.00794078
-0.00860082
0.00514757
2.7553e-06
2.56058e-05
1.53153e-05
4.26684e-05
4.31929e-05
2.22431e-05
9.30469e-05
-4.47567e-05
0.000172862
-0.000169147
0.000291871
-0.000363315
0.000459992
-0.000640583
0.000686438
-0.00101335
0.000977257
-0.00148975
0.00133203
-0.00206912
0.00174094
-0.002738
0.00218416
-0.0034693
0.00263538
-0.00422709
0.0030685
-0.00497593
0.00346491
-0.00569041
0.00381711
-0.00636179
0.00412958
-0.00699386
0.00441185
-0.00760952
0.00468091
-0.00820984
-0.00886487
0.00494496
3.64238e-06
2.19634e-05
1.92739e-05
2.70369e-05
5.30452e-05
-1.15282e-05
0.000112322
-0.000104033
0.000205749
-0.000262574
0.000342908
-0.000500474
0.000533281
-0.000830956
0.00078421
-0.00126428
0.00109782
-0.00180336
0.00146774
-0.00243904
0.0018775
-0.00314776
0.00230265
-0.00389446
0.0027168
-0.00464123
0.00309894
-0.00535807
0.0034387
-0.00603018
0.00373681
-0.0066599
0.00400294
-0.00725999
0.00424873
-0.00785531
0.00448948
-0.00845059
-0.00910565
0.00473027
4.67959e-06
1.72838e-05
2.37966e-05
7.91979e-06
6.41171e-05
-5.18486e-05
0.000133641
-0.000173557
0.000241477
-0.00037041
0.000397136
-0.000656133
0.000608926
-0.00104275
0.000881256
-0.00153661
0.00121127
-0.00213337
0.00158636
-0.00281413
0.00198477
-0.00354617
0.00238042
-0.00429011
0.00275031
-0.00501112
0.00308057
-0.00568833
0.00336872
-0.00631833
0.00362142
-0.00691259
0.00385077
-0.00748934
0.00406817
-0.00807271
0.00428635
-0.00866878
-0.00932707
0.00450777
5.8697e-06
1.14141e-05
2.88764e-05
-1.50869e-05
7.63491e-05
-9.93213e-05
0.000156793
-0.000254
0.000279495
-0.000493112
0.000453352
-0.00082999
0.000684645
-0.00127404
0.000973853
-0.00182582
0.00131254
-0.00247206
0.00168248
-0.00318407
0.00205892
-0.00392261
0.00241735
-0.00464855
0.00274048
-0.00533425
0.00302192
-0.00596976
0.00326547
-0.00656188
0.0034812
-0.00712832
0.00368147
-0.00768961
0.00387619
-0.00826743
0.00407532
-0.00886791
-0.00953094
0.00427918
7.2107e-06
4.2034e-06
3.4484e-05
-4.23602e-05
8.96231e-05
-0.00015446
0.000181447
-0.000345824
0.000319039
-0.000630705
0.000510036
-0.00102099
0.000757816
-0.00152182
0.00105816
-0.00212616
0.00139712
-0.00281101
0.00175237
-0.00353933
0.00209888
-0.00426912
0.00241621
-0.00496588
0.00269377
-0.00561181
0.00293169
-0.00620768
0.00313796
-0.00676815
0.00332392
-0.00731429
0.0035008
-0.00786649
0.00367655
-0.00844318
0.0038586
-0.00904995
-0.00971829
0.00404596
8.69543e-06
-4.49203e-06
4.05669e-05
-7.42317e-05
0.000103761
-0.000217655
0.000207152
-0.000449215
0.000359152
-0.000782704
0.000565425
-0.00122726
0.000825668
-0.00178206
0.00113063
-0.00243112
0.00146161
-0.003142
0.00179434
-0.00387206
0.00210598
-0.00458075
0.00238165
-0.00524155
0.00261722
-0.00584738
0.00281771
-0.00640818
0.00299332
-0.00694376
0.00315512
-0.00747608
0.00331253
-0.00802391
0.00347157
-0.00860221
0.00363759
-0.00921598
-0.00988956
0.00380886
1.03113e-05
-1.48033e-05
4.70483e-05
-0.000110969
0.000118525
-0.000289131
0.000233344
-0.000564035
0.000398712
-0.000948072
0.00061762
-0.00144617
0.000885522
-0.00204997
0.00118832
-0.00273392
0.00150401
-0.00345769
0.0018086
-0.00417664
0.00208327
-0.00485543
0.00231915
-0.00547743
0.00251749
-0.00604571
0.00268647
-0.00657716
0.00283687
-0.00709416
0.00297859
-0.0076178
0.00311908
-0.00816439
0.00326267
-0.00874581
0.00341317
-0.00936648
-0.0100449
0.0035685
1.20401e-05
-2.68434e-05
5.38272e-05
-0.000152756
0.000133619
-0.000368923
0.000259367
-0.000689783
0.000436499
-0.0011252
0.000664722
-0.00167439
0.00093503
-0.00232027
0.00122922
-0.0030281
0.00152377
-0.00375225
0.00179689
-0.00444976
0.00203483
-0.00509337
0.00223424
-0.00567684
0.00240038
-0.00621185
0.00254302
-0.00671979
0.00267242
-0.00722356
0.00279686
-0.00774223
0.00292198
-0.00828951
0.0030508
-0.00887464
0.00318597
-0.00950164
-0.0101843
0.00332537
1.38573e-05
-4.07008e-05
6.07787e-05
-0.000199677
0.0001487
-0.000456844
0.000284494
-0.000825576
0.000471257
-0.00131197
0.00070498
-0.00190811
0.000972378
-0.00258767
0.00125233
-0.00330806
0.0015216
-0.00402152
0.00176201
-0.00469018
0.00196505
-0.0052964
0.00213199
-0.00584378
0.00227064
-0.00635051
0.00239114
-0.0068403
0.0025026
-0.00733502
0.0026116
-0.00785123
0.00272224
-0.00840016
0.0028366
-0.008989
0.00295647
-0.00962151
-0.0103077
0.00307987
1.57324e-05
-5.64332e-05
6.77573e-05
-0.000251702
0.000163385
-0.000552471
0.000307966
-0.000970158
0.000501784
-0.00150578
0.000736926
-0.00214326
0.000996412
-0.00284716
0.00125763
-0.00356927
0.00149918
-0.00426306
0.00170726
-0.00489826
0.00187819
-0.00546734
0.00201671
-0.0059823
0.00213197
-0.00646577
0.00223359
-0.00694191
0.00232922
-0.00743065
0.00242392
-0.00794593
0.00252057
-0.00849682
0.00262057
-0.00908899
0.00272511
-0.00972604
-0.010415
0.00283242
1.76292e-05
-7.40624e-05
7.46001e-05
-0.000308673
0.000177269
-0.000655141
0.000329036
-0.00112192
0.00052701
-0.00170376
0.000759479
-0.00237573
0.00100667
-0.00309435
0.00124592
-0.00380852
0.0014588
-0.00447595
0.00163606
-0.00507552
0.0017781
-0.00560938
0.00189197
-0.00609617
0.00198717
-0.00656097
0.0020723
-0.00702704
0.00215353
-0.00751188
0.0022346
-0.00802699
0.00231748
-0.00857971
0.00240312
-0.00917462
0.00249226
-0.00981519
-0.0105061
0.00258337
1.9507e-05
-9.35694e-05
8.11336e-05
-0.000370299
0.000189946
-0.000763954
0.000347009
-0.00127899
0.000546069
-0.00190282
0.000772004
-0.00260166
0.00100333
-0.00332568
0.00121861
-0.0040238
0.00140306
-0.00466039
0.00155168
-0.00522414
0.00166807
-0.00572577
0.00176057
-0.00618868
0.00183831
-0.00663871
0.00190865
-0.00709738
0.00197638
-0.00757961
0.00204418
-0.0080948
0.00211339
-0.00864891
0.00218461
-0.00924584
0.0022583
-0.00988888
-0.0105809
0.00233312
2.13216e-05
-0.000114891
8.71801e-05
-0.000436158
0.000201026
-0.000877799
0.000361284
-0.00143925
0.00055835
-0.00209988
0.000774312
-0.00281762
0.000987115
-0.00353848
0.00117751
-0.00421419
0.00133458
-0.00481746
0.00145706
-0.00534663
0.00155081
-0.00581952
0.00162466
-0.00626252
0.00168691
-0.00670097
0.00174362
-0.00715409
0.0017984
-0.00763439
0.00185312
-0.00814952
0.00190866
-0.00870445
0.0019654
-0.00930259
0.00202358
-0.00994706
-0.0106394
0.00208204
2.30269e-05
-0.000137918
9.25663e-05
-0.000505697
0.000210157
-0.00099539
0.000371392
-0.00160048
0.000563519
-0.00229201
0.000766622
-0.00302073
0.000959109
-0.00373097
0.00112457
-0.00437965
0.00125586
-0.00494875
0.00135475
-0.00544552
0.00142852
-0.00589329
0.00148587
-0.00631986
0.00153405
-0.00674915
0.0015779
-0.00719793
0.00162005
-0.00767654
0.00166177
-0.00819124
0.00170362
-0.0087463
0.00174583
-0.0093448
0.00178845
-0.00998967
-0.0106814
0.00183049
2.45774e-05
-0.000162495
9.71311e-05
-0.000578251
0.000217044
-0.0011153
0.000377012
-0.00176045
0.000561515
-0.00247651
0.000749485
-0.0032087
0.000920657
-0.00390214
0.00106179
-0.00452078
0.00116916
-0.00505612
0.00124687
-0.00552323
0.00130291
-0.00594932
0.00134542
-0.00636237
0.00138055
-0.00678428
0.00141202
-0.00722941
0.00144172
-0.00770624
0.00147047
-0.00821999
0.00149859
-0.00877442
0.00152622
-0.00937243
0.00155325
-0.0100167
-0.0107071
0.00157887
2.59292e-05
-0.000188425
0.000100733
-0.000653055
0.000221463
-0.00123603
0.000377983
-0.00191697
0.000552525
-0.00265106
0.0007237
-0.00337987
0.000873217
-0.00405166
0.000991063
-0.00463863
0.00107647
-0.00514153
0.00113516
-0.00558192
0.00117529
-0.00598946
0.00120423
-0.0063913
0.001227
-0.00680705
0.00124641
-0.00724881
0.00126374
-0.00772357
0.00127951
-0.00823576
0.00129388
-0.00878879
0.0013069
-0.00938545
0.00131834
-0.0100281
-0.0107163
0.00132756
2.70428e-05
-0.000215467
0.000103258
-0.00072927
0.000223267
-0.00135604
0.0003743
-0.002068
0.000536939
-0.0028137
0.000690227
-0.00353316
0.00081826
-0.00417969
0.000914119
-0.00473449
0.000979441
-0.00520685
0.00102099
-0.00562347
0.0010467
-0.00601517
0.00106297
-0.00640758
0.00107385
-0.00681794
0.00108138
-0.00725634
0.00108639
-0.00772858
0.00108917
-0.00823854
0.00108977
-0.00878939
0.00108817
-0.00938384
0.00108407
-0.010024
-0.0107092
0.00107698
2.78839e-05
-0.000243351
0.000104619
-0.000806005
0.00022239
-0.00147381
0.000366095
-0.00221171
0.000515301
-0.0029629
0.000650103
-0.00366796
0.000757201
-0.00428679
0.000832492
-0.00480978
0.000879487
-0.00525384
0.000905485
-0.00564947
0.000917897
-0.00602758
0.000922184
-0.00641187
0.000921488
-0.00681724
0.000917245
-0.0072521
0.00090996
-0.0077213
0.000899744
-0.00822832
0.000886553
-0.0087762
0.000870308
-0.0093676
0.000850753
-0.0100045
-0.0106858
0.000827354
2.84252e-05
-0.000271776
0.000104763
-0.000882343
0.000218844
-0.00158789
0.000353618
-0.00234648
0.000488256
-0.00309754
0.000604382
-0.00378409
0.000691347
-0.00437375
0.000747506
-0.00486594
0.000777746
-0.00528408
0.0007895
-0.00566122
0.000789495
-0.00602757
0.000782269
-0.00640464
0.000770203
-0.00680517
0.000754261
-0.00723616
0.000734699
-0.00770174
0.000711495
-0.00820512
0.000684518
-0.00874922
0.000653615
-0.0093367
0.000618584
-0.00996946
-0.0106461
0.000578927
2.86467e-05
-0.000300423
0.000103672
-0.000957368
0.000212709
-0.00169693
0.000337209
-0.00247098
0.000456507
-0.00321684
0.00055409
-0.00388167
0.000621873
-0.00444154
0.000660285
-0.00490435
0.000675142
-0.00529894
0.000673713
-0.00565979
0.000661954
-0.00601582
0.000643554
-0.00638624
0.000620262
-0.00678188
0.000592675
-0.00720857
0.00056086
-0.00766992
0.00052469
-0.00816895
0.000483968
-0.0087085
0.000438475
-0.0092912
0.000387791
-0.00991878
-0.0105901
0.00033175
2.85365e-05
-0.00032896
0.000101355
-0.00103019
0.000204126
-0.0017997
0.00031727
-0.00258412
0.000420773
-0.00332034
0.000500185
-0.00396108
0.000549811
-0.00449116
0.000571765
-0.00492631
0.000572416
-0.00529959
0.000558656
-0.00564603
0.000535643
-0.0059928
0.000506313
-0.00635691
0.000471899
-0.00674747
0.000432718
-0.00716939
0.00038869
-0.00762589
0.000339587
-0.00811985
0.000285157
-0.00865407
0.000225296
-0.00923134
0.000159131
-0.00985261
-0.0105162
8.52445e-05
2.80907e-05
-0.00035705
9.78527e-05
-0.00109995
0.000193282
-0.00189513
0.000294238
-0.00268508
0.000381759
-0.00340786
0.000443542
-0.00402286
0.000476053
-0.00452367
0.000482721
-0.00493297
0.000470159
-0.00528703
0.000444743
-0.00562062
0.000410857
-0.00595892
0.00037078
-0.00631683
0.000325332
-0.00670202
0.000274608
-0.00711866
0.000218418
-0.0075697
0.000156442
-0.00805787
8.82668e-05
-0.0085859
1.34967e-05
-0.00915657
-6.65836e-05
-0.00977253
-0.0104259
-0.000156893
2.73128e-05
-0.000384363
9.32273e-05
-0.00116586
0.000180397
-0.0019823
0.000268568
-0.00277325
0.000340135
-0.00347943
0.000384942
-0.00406767
0.000401355
-0.00454009
0.000393782
-0.0049254
0.00036884
-0.00526209
0.000332306
-0.00558408
0.000287842
-0.00591445
0.000237159
-0.00626615
0.000180756
-0.00664562
0.00011853
-0.00705644
5.01643e-05
-0.00750134
-2.46173e-05
-0.00798309
-0.000106089
-0.00850442
-0.000194443
-0.00906822
-0.000291136
-0.00967584
-0.0103212
-0.000395832
2.62127e-05
-0.000410576
8.75616e-05
-0.00122721
0.000165714
-0.00206045
0.000240709
-0.00284825
0.000296521
-0.00353524
0.000325071
-0.00409622
0.000326352
-0.00454137
0.00030546
-0.00490451
0.000268834
-0.00522546
0.000221617
-0.00553687
0.000166801
-0.00585964
0.000105617
-0.00620496
3.82402e-05
-0.00657824
-3.53608e-05
-0.00698284
-0.00011551
-0.00742119
-0.000202831
-0.00789577
-0.000297726
-0.00840953
-0.00040043
-0.00896551
-0.000512081
-0.00956419
-0.0102011
-0.000632175
2.48065e-05
-0.000435382
8.09524e-05
-0.00128336
0.000149485
-0.00212899
0.000211096
-0.00290986
0.000251482
-0.00357563
0.000264524
-0.00410926
0.000251573
-0.00452842
0.000218167
-0.0048711
0.000170432
-0.00517772
0.000112907
-0.00547934
4.78294e-05
-0.00579456
-2.37666e-05
-0.00613337
-0.000101675
-0.00650033
-0.000186476
-0.00689804
-0.000278603
-0.00732906
-0.000378494
-0.00779588
-0.000486634
-0.00830139
-0.000603509
-0.00884864
-0.000729799
-0.0094379
-0.0100655
-0.000865362
2.3115e-05
-0.000458497
7.35064e-05
-0.00133375
0.000131964
-0.00218744
0.000180135
-0.00295803
0.000205521
-0.00360101
0.000203807
-0.00410755
0.000177458
-0.00450207
0.000132241
-0.00482589
7.38531e-05
-0.00511934
6.04418e-06
-0.00541153
-6.87123e-05
-0.0057198
-0.000150362
-0.00605172
-0.000239052
-0.00641164
-0.000335067
-0.00680202
-0.000438948
-0.00722518
-0.000551236
-0.00768359
-0.000672483
-0.00818014
-0.000803277
-0.00871785
-0.000944094
-0.00929708
-0.0099147
-0.00109493
2.11627e-05
-0.00047966
6.53359e-05
-0.00137792
0.000113399
-0.00223551
0.000148205
-0.00299283
0.000159084
-0.00361189
0.000143351
-0.00409181
0.000104364
-0.00446308
4.79375e-05
-0.00476946
-2.06899e-05
-0.00505071
-9.79215e-05
-0.0053343
-0.000182694
-0.00563503
-0.000274527
-0.00595989
-0.00037376
-0.00631241
-0.000480833
-0.00669495
-0.000596311
-0.0071097
-0.000720817
-0.00755908
-0.000854992
-0.00804597
-0.000999492
-0.00857335
-0.00115471
-0.00914186
-0.00974884
-0.00132058
1.89776e-05
-0.000498638
5.65561e-05
-0.0014155
9.40303e-05
-0.00227298
0.000115653
-0.00301446
0.000112555
-0.00360879
8.35176e-05
-0.00406278
3.25905e-05
-0.00441215
-3.44867e-05
-0.00470238
-0.000112814
-0.00497238
-0.000199715
-0.0052474
-0.000294136
-0.00554061
-0.000395975
-0.00585805
-0.000505611
-0.00620277
-0.000623577
-0.00657698
-0.000750485
-0.00698279
-0.000887018
-0.00742255
-0.00103391
-0.00789908
-0.00119189
-0.00841536
-0.00136135
-0.00897241
-0.00956821
-0.00154197
1.65911e-05
-0.000515229
4.72816e-05
-0.00144619
7.40855e-05
-0.00229979
8.27917e-05
-0.00302316
6.62725e-05
-0.00359227
2.46599e-05
-0.00402117
-3.76133e-05
-0.00434988
-0.000114829
-0.00462517
-0.000202705
-0.00488451
-0.000298964
-0.00515114
-0.000402879
-0.00543669
-0.000514554
-0.00574637
-0.000634441
-0.00608288
-0.000763129
-0.0064483
-0.000901279
-0.00684464
-0.00104963
-0.0072742
-0.00120899
-0.00773972
-0.00138023
-0.00824411
-0.00156372
-0.00878892
-0.00937311
-0.00175883
1.40393e-05
-0.000529268
3.76243e-05
-0.00146978
5.37799e-05
-0.00231594
4.99022e-05
-0.00301929
2.06541e-05
-0.00356303
-3.30873e-05
-0.00396742
-0.000106094
-0.00427687
-0.000193047
-0.00453822
-0.000290147
-0.00478741
-0.000395544
-0.00504574
-0.000508789
-0.00532345
-0.000630132
-0.00562503
-0.000760099
-0.00595292
-0.000899323
-0.00630907
-0.00104851
-0.00669546
-0.00120844
-0.00711427
-0.00138002
-0.00756814
-0.00156426
-0.00805987
-0.00176157
-0.00859161
-0.00916382
-0.00197086
1.13748e-05
-0.000540643
2.77121e-05
-0.00148611
3.33111e-05
-0.00232154
1.73645e-05
-0.00300334
-2.44032e-05
-0.00352126
-8.94984e-05
-0.00390233
-0.000172699
-0.00419367
-0.00026899
-0.00444192
-0.000375031
-0.00468136
-0.000489358
-0.00493142
-0.000611752
-0.00520106
-0.000742584
-0.0054942
-0.00088244
-0.00581306
-0.001032
-0.00615951
-0.001192
-0.00653546
-0.00136327
-0.00694301
-0.00154678
-0.00738463
-0.00174375
-0.0078629
-0.00195463
-0.00838073
-0.00894075
-0.0021777
8.64236e-06
-0.000549285
1.76481e-05
-0.00149512
1.29288e-05
-0.00231682
-1.49897e-05
-0.00297542
-6.86065e-05
-0.00346764
-0.000144403
-0.00382653
-0.000237295
-0.00410078
-0.000342553
-0.00433667
-0.000457267
-0.00456665
-0.000580311
-0.00480837
-0.000711662
-0.0050697
-0.000851786
-0.00535407
-0.00100133
-0.00566352
-0.001161
-0.00599984
-0.00133158
-0.00636487
-0.00151392
-0.00676067
-0.00170908
-0.00718947
-0.00191845
-0.00765353
-0.0021426
-0.00815658
-0.00870429
-0.00237906
5.79378e-06
-0.000555079
7.47372e-06
-0.0014968
-7.38348e-06
-0.00230196
-4.70945e-05
-0.00293571
-0.00011167
-0.00340307
-0.000197646
-0.00374056
-0.000299772
-0.00399865
-0.000413649
-0.00422279
-0.000536774
-0.00444353
-0.000668316
-0.00467683
-0.000808415
-0.00492961
-0.00095762
-0.00520487
-0.00111662
-0.00550452
-0.00128618
-0.00583029
-0.00146709
-0.00618396
-0.00166023
-0.00656753
-0.00186672
-0.00698298
-0.00208811
-0.00743214
-0.00232521
-0.00791949
-0.00845441
-0.00257509
2.7989e-06
-0.000557878
-2.63953e-06
-0.00149136
-2.79991e-05
-0.0022766
-7.83542e-05
-0.00288535
-0.000153474
-0.00332795
-0.000249111
-0.00364492
-0.000360039
-0.00388772
-0.000482205
-0.00410062
-0.000613479
-0.00431225
-0.000753291
-0.00453702
-0.000901915
-0.00478098
-0.00105997
-0.00504681
-0.0012282
-0.00533629
-0.00140739
-0.0056511
-0.00159837
-0.00599297
-0.00180206
-0.00636384
-0.00201959
-0.00676544
-0.00225259
-0.00719914
-0.00250224
-0.00766984
-0.00819103
-0.00276562
-5.25294e-07
-0.000557353
-1.31116e-05
-0.00147877
-4.79803e-05
-0.00224174
-0.000108755
-0.00282458
-0.000193898
-0.0032428
-0.0002987
-0.00354012
-0.000418022
-0.0037684
-0.000548155
-0.00397049
-0.000687316
-0.00417309
-0.000835156
-0.00438918
-0.000992067
-0.00462407
-0.00115873
-0.00488015
-0.00133592
-0.0051591
-0.00152448
-0.00546254
-0.00172527
-0.00579218
-0.00193926
-0.00614985
-0.00216767
-0.00653703
-0.00241197
-0.00695484
-0.00267275
-0.00740906
-0.00791549
-0.00294829
-3.31954e-06
-0.000554033
-2.32521e-05
-0.00145884
-6.74562e-05
-0.00219753
-0.000138191
-0.00275385
-0.000232846
-0.00314815
-0.000346337
-0.00342663
-0.000473658
-0.00364108
-0.000611444
-0.0038327
-0.000758221
-0.00402631
-0.000913836
-0.00423357
-0.00107878
-0.00445913
-0.00125378
-0.00470515
-0.00143967
-0.00497322
-0.0016373
-0.0052649
-0.00184761
-0.00558187
-0.00207167
-0.0059258
-0.00231074
-0.00629795
-0.00256617
-0.00669942
-0.00283979
-0.00713544
-0.0076357
-0.00311957
-6.28608e-06
-0.000547747
-3.31668e-05
-0.00143196
-8.63725e-05
-0.00214433
-0.000166586
-0.00267363
-0.000270241
-0.00304449
-0.000391958
-0.00330491
-0.000526896
-0.00350614
-0.00067202
-0.00368758
-0.000826137
-0.0038722
-0.00098926
-0.00407044
-0.00116196
-0.00428642
-0.00134503