0.104021 	0.49633 	2.0618e-19 	0.0994091 	-0.00141062 	4.56149e-17
