/*--------------------------------*- C++ -*----------------------------------*\
  =========                 |
  \\      /  F ield         | OpenFOAM: The Open Source CFD Toolbox
   \\    /   O peration     | Website:  https://openfoam.org
    \\  /    A nd           | Version:  7
     \\/     M anipulation  |
\*---------------------------------------------------------------------------*/
FoamFile
{
    version     2.0;
    format      ascii;
    class       volVectorField;
    location    "3.6";
    object      U;
}
// * * * * * * * * * * * * * * * * * * * * * * * * * * * * * * * * * * * * * //

dimensions      [0 1 -1 0 0 0 0];

internalField   nonuniform List<vector> 
344
(
(1.78702 -0.00513771 3.97524e-15)
(1.78856 -0.00506649 4.63022e-15)
(1.79008 -0.0049969 4.28111e-15)
(1.79158 -0.00492903 4.09555e-15)
(1.79305 -0.00486293 4.79499e-15)
(1.79451 -0.00479872 5.16222e-15)
(1.79595 -0.00473649 5.66575e-15)
(1.79737 -0.0046764 4.9605e-15)
(1.79877 -0.00461861 5.59917e-15)
(1.80015 -0.00456333 5.03538e-15)
(1.80152 -0.00451079 5.67181e-15)
(1.80287 -0.00446129 5.23142e-15)
(1.8042 -0.00441516 5.72142e-15)
(1.80553 -0.00437282 6.01642e-15)
(1.80684 -0.00433476 6.44466e-15)
(1.80814 -0.00430154 5.80547e-15)
(1.80943 -0.00427385 6.32944e-15)
(1.81072 -0.00425248 5.81047e-15)
(1.81199 -0.00423838 6.39985e-15)
(1.81327 -0.00423268 5.88213e-15)
(1.81455 -0.00423669 6.3798e-15)
(1.81583 -0.00425196 6.55493e-15)
(1.81712 -0.00428034 6.92919e-15)
(1.81842 -0.00432399 6.23477e-15)
(1.81974 -0.00438544 6.82113e-15)
(1.82108 -0.00446771 6.24495e-15)
(1.82245 -0.00457431 6.7938e-15)
(1.82386 -0.00470939 6.48694e-15)
(1.82532 -0.00487784 6.06778e-15)
(1.82683 -0.00508538 6.6406e-15)
(1.82842 -0.00533875 6.93928e-15)
(1.83011 -0.00564585 7.35699e-15)
(1.83189 -0.00601594 6.71166e-15)
(1.83381 -0.00645987 7.21512e-15)
(1.83589 -0.00699035 6.64009e-15)
(1.83814 -0.00762222 7.1543e-15)
(1.84062 -0.0083728 6.61286e-15)
(1.84336 -0.00926227 7.09669e-15)
(1.84641 -0.0103141 7.21803e-15)
(1.84983 -0.0115555 7.65151e-15)
(1.85368 -0.0130179 7.00682e-15)
(1.85804 -0.0147375 7.44394e-15)
(1.863 -0.016756 6.82049e-15)
(1.86867 -0.0191207 7.29825e-15)
(1.87517 -0.0218853 6.88123e-15)
(1.88265 -0.0251103 7.17908e-15)
(1.89127 -0.0288628 7.42948e-15)
(1.90123 -0.0332167 7.75958e-15)
(1.91275 -0.0382516 7.14882e-15)
(1.92608 -0.0440517 7.5167e-15)
(1.94152 -0.0507029 6.92669e-15)
(1.9594 -0.0582891 7.21624e-15)
(1.98008 -0.0668862 6.9316e-15)
(2.00398 -0.0765537 6.61961e-15)
(2.03154 -0.0873232 6.9759e-15)
(2.06323 -0.0991843 7.23487e-15)
(2.09953 -0.112064 7.56701e-15)
(2.14091 -0.125811 6.95154e-15)
(2.1878 -0.140159 7.2484e-15)
(2.24051 -0.15473 6.79638e-15)
(2.29922 -0.168969 7.00766e-15)
(2.36387 -0.18223 6.62285e-15)
(2.43406 -0.193646 6.65209e-15)
(2.50899 -0.202393 6.63907e-15)
(2.58747 -0.207541 6.69894e-15)
(2.66776 -0.208367 6.42149e-15)
(1.76255 -0.0057126 2.82406e-15)
(1.76389 -0.00563281 3.03411e-15)
(1.76522 -0.0055549 2.93682e-15)
(1.76652 -0.00547893 3.63897e-15)
(1.76781 -0.00540499 3.53381e-15)
(1.76907 -0.00533318 3.6434e-15)
(1.77032 -0.00526363 3.76119e-15)
(1.77156 -0.0051965 3.75351e-15)
(1.77278 -0.00513197 3.86889e-15)
(1.77398 -0.00507029 3.84316e-15)
(1.77517 -0.00501171 3.93823e-15)
(1.77634 -0.00495657 3.97859e-15)
(1.77751 -0.00490526 4.07533e-15)
(1.77866 -0.00485822 4.20961e-15)
(1.7798 -0.00481602 4.36528e-15)
(1.78093 -0.00477929 4.40502e-15)
(1.78205 -0.00474881 4.51881e-15)
(1.78317 -0.00472548 4.46362e-15)
(1.78429 -0.00471037 4.54138e-15)
(1.7854 -0.00470474 4.44804e-15)
(1.78651 -0.00471009 4.52327e-15)
(1.78763 -0.00472817 4.62781e-15)
(1.78875 -0.00476106 4.84112e-15)
(1.78988 -0.0048112 4.70224e-15)
(1.79104 -0.00488148 4.84605e-15)
(1.79221 -0.00497529 4.80803e-15)
(1.79341 -0.00509661 4.93489e-15)
(1.79465 -0.00525014 4.78857e-15)
(1.79593 -0.00544142 5.33769e-15)
(1.79726 -0.00567693 5.22079e-15)
(1.79867 -0.00596431 5.21763e-15)
(1.80015 -0.00631252 5.37988e-15)
(1.80173 -0.00673209 5.30547e-15)
(1.80343 -0.00723533 5.40073e-15)
(1.80528 -0.00783671 5.35284e-15)
(1.80729 -0.00855314 5.40059e-15)
(1.8095 -0.00940436 5.3102e-15)
(1.81195 -0.0104135 5.3424e-15)
(1.81469 -0.0116073 5.40186e-15)
(1.81776 -0.0130171 5.48095e-15)
(1.82123 -0.0146791 5.36299e-15)
(1.82517 -0.0166351 5.46839e-15)
(1.82966 -0.0189334 5.37344e-15)
(1.8348 -0.0216292 5.47481e-15)
(1.84072 -0.0247855 5.42176e-15)
(1.84753 -0.0284737 5.43909e-15)
(1.85542 -0.032774 5.43973e-15)
(1.86456 -0.0377752 5.54988e-15)
(1.87516 -0.0435748 5.44011e-15)
(1.88748 -0.0502775 5.48635e-15)
(1.90181 -0.0579929 5.39639e-15)
(1.91849 -0.0668317 5.39284e-15)
(1.93788 -0.0768994 5.26009e-15)
(1.96044 -0.0882873 5.6978e-15)
(1.98662 -0.10106 5.54096e-15)
(2.01697 -0.115236 5.48619e-15)
(2.05204 -0.130766 5.56214e-15)
(2.09241 -0.147508 5.32332e-15)
(2.13863 -0.165177 5.32329e-15)
(2.19119 -0.183353 5.2042e-15)
(2.25042 -0.20135 5.17411e-15)
(2.31645 -0.218402 5.03216e-15)
(2.389 -0.2333 4.89537e-15)
(2.46732 -0.24503 4.84877e-15)
(2.55017 -0.252143 4.79387e-15)
(2.6355 -0.253644 4.65474e-15)
(1.73255 -0.00613254 2.02275e-15)
(1.73368 -0.00604622 2.14401e-15)
(1.73479 -0.00596196 2.15465e-15)
(1.73588 -0.00587984 2.41434e-15)
(1.73696 -0.00579995 2.55886e-15)
(1.73802 -0.00572241 2.72948e-15)
(1.73907 -0.00564734 2.83173e-15)
(1.74011 -0.00557493 2.85256e-15)
(1.74113 -0.00550539 2.9209e-15)
(1.74214 -0.00543895 2.95802e-15)
(1.74313 -0.00537592 2.96435e-15)
(1.74412 -0.00531665 3.02206e-15)
(1.74509 -0.00526157 3.01974e-15)
(1.74606 -0.00521117 3.09467e-15)
(1.74702 -0.00516606 3.1927e-15)
(1.74796 -0.00512695 3.12438e-15)
(1.74891 -0.00509467 3.28439e-15)
(1.74985 -0.00507021 3.32774e-15)
(1.75078 -0.00505475 3.36714e-15)
(1.75171 -0.00504966 3.30853e-15)
(1.75265 -0.00505658 3.38811e-15)
(1.75359 -0.00507743 3.41421e-15)
(1.75453 -0.0051145 3.506e-15)
(1.75549 -0.00517044 3.48039e-15)
(1.75646 -0.00524843 3.48254e-15)
(1.75745 -0.00535217 3.51799e-15)
(1.75847 -0.00548604 3.62174e-15)
(1.75952 -0.00565519 3.56801e-15)
(1.76061 -0.00586569 3.80438e-15)
(1.76175 -0.00612466 3.9113e-15)
(1.76294 -0.00644049 3.98619e-15)
(1.76422 -0.00682303 4.03328e-15)
(1.76557 -0.00728385 3.98662e-15)
(1.76704 -0.00783654 4.10084e-15)
(1.76863 -0.00849701 4.05306e-15)
(1.77037 -0.00928395 4.09759e-15)
(1.77229 -0.0102192 4.05321e-15)
(1.77443 -0.0113283 4.06055e-15)
(1.77681 -0.0126411 4.11148e-15)
(1.7795 -0.0141923 4.12271e-15)
(1.78255 -0.0160225 4.10487e-15)
(1.78601 -0.0181785 4.08243e-15)
(1.78998 -0.0207146 4.08234e-15)
(1.79453 -0.0236933 4.08838e-15)
(1.79978 -0.0271866 4.11427e-15)
(1.80586 -0.0312762 4.04826e-15)
(1.8129 -0.0360552 3.97096e-15)
(1.8211 -0.0416278 4.04766e-15)
(1.83064 -0.0481101 3.96511e-15)
(1.84179 -0.0556288 3.99282e-15)
(1.85482 -0.0643204 3.98276e-15)
(1.87006 -0.0743269 3.97459e-15)
(1.88791 -0.0857907 3.9109e-15)
(1.90881 -0.0988452 4.04277e-15)
(1.93328 -0.113601 3.961e-15)
(1.96191 -0.130126 3.97514e-15)
(1.99534 -0.148418 3.91027e-15)
(2.03428 -0.168371 3.95195e-15)
(2.07944 -0.189711 3.91295e-15)
(2.13153 -0.212004 3.82827e-15)
(2.1911 -0.234435 3.72053e-15)
(2.25856 -0.256152 3.57215e-15)
(2.33384 -0.27544 3.45069e-15)
(2.41634 -0.291207 3.3513e-15)
(2.50482 -0.301007 3.22424e-15)
(2.59676 -0.303687 3.1241e-15)
(1.69646 -0.00638948 1.60691e-15)
(1.69737 -0.00629883 1.71075e-15)
(1.69826 -0.0062104 1.54992e-15)
(1.69913 -0.00612424 2.16578e-15)
(1.69999 -0.00604047 2.22588e-15)
(1.70085 -0.0059592 2.27557e-15)
(1.70168 -0.00588059 2.28275e-15)
(1.70251 -0.0058048 2.28791e-15)
(1.70333 -0.00573207 2.32061e-15)
(1.70414 -0.00566265 2.27758e-15)
(1.70493 -0.00559686 2.28017e-15)
(1.70572 -0.00553508 2.35869e-15)
(1.7065 -0.00547776 2.3715e-15)
(1.70727 -0.00542543 2.43073e-15)
(1.70804 -0.00537874 2.36768e-15)
(1.7088 -0.00533842 2.38877e-15)
(1.70955 -0.00530538 2.42739e-15)
(1.7103 -0.00528066 2.50655e-15)
(1.71105 -0.00526553 2.53498e-15)
(1.7118 -0.00526144 2.52329e-15)
(1.71255 -0.00527015 2.54057e-15)
(1.7133 -0.00529369 2.56521e-15)
(1.71407 -0.00533451 2.57992e-15)
(1.71484 -0.00539544 2.61052e-15)
(1.71562 -0.00547985 2.64368e-15)
(1.71642 -0.00559172 2.59493e-15)
(1.71725 -0.0057357 2.62676e-15)
(1.7181 -0.0059173 2.57302e-15)
(1.71899 -0.006143 3.11584e-15)
(1.71992 -0.00642042 3.03292e-15)
(1.7209 -0.00675852 3.0585e-15)
(1.72195 -0.00716785 3.04113e-15)
(1.72307 -0.00766081 3.00411e-15)
(1.72428 -0.00825196 3.03497e-15)
(1.72561 -0.00895841 3.03162e-15)
(1.72706 -0.00980022 3.04427e-15)
(1.72867 -0.0108009 3.04535e-15)
(1.73047 -0.0119882 3.05726e-15)
(1.73248 -0.0133941 3.05375e-15)
(1.73476 -0.0150565 3.02655e-15)
(1.73735 -0.0170195 3.00818e-15)
(1.74031 -0.0193342 3.03335e-15)
(1.7437 -0.0220602 3.0549e-15)
(1.74761 -0.0252667 2.94004e-15)
(1.75213 -0.0290334 2.94207e-15)
(1.75738 -0.0334521 2.93607e-15)
(1.7635 -0.038628 2.94659e-15)
(1.77064 -0.0446804 2.92259e-15)
(1.77901 -0.0517443 2.85768e-15)
(1.78882 -0.0599698 2.84151e-15)
(1.80035 -0.0695222 2.86428e-15)
(1.81394 -0.0805794 2.86805e-15)
(1.82996 -0.0933275 2.71662e-15)
(1.84889 -0.107953 3.13276e-15)
(1.87126 -0.124628 2.94077e-15)
(1.89772 -0.143494 2.87649e-15)
(1.929 -0.164622 2.81886e-15)
(1.96596 -0.187985 2.74725e-15)
(2.00949 -0.213364 2.65197e-15)
(2.06058 -0.240362 2.63458e-15)
(2.12011 -0.268059 2.47797e-15)
(2.1889 -0.295592 2.33122e-15)
(2.26717 -0.320503 2.18309e-15)
(2.35471 -0.341948 1.99898e-15)
(2.4504 -0.355404 1.83877e-15)
(2.55096 -0.360247 1.69197e-15)
(1.65375 -0.00648152 1.40637e-15)
(1.65443 -0.00638886 1.41177e-15)
(1.65509 -0.0062985 1.36783e-15)
(1.65575 -0.00621052 1.64312e-15)
(1.65639 -0.00612503 1.78817e-15)
(1.65703 -0.00604214 1.85064e-15)
(1.65766 -0.00596201 1.8819e-15)
(1.65828 -0.00588483 1.87736e-15)
(1.65889 -0.00581081 1.90702e-15)
(1.65949 -0.00574025 1.87493e-15)
(1.66009 -0.00567346 1.82317e-15)
(1.66068 -0.00561083 1.83938e-15)
(1.66126 -0.00555283 1.86214e-15)
(1.66184 -0.00550003 1.87455e-15)
(1.66241 -0.00545307 1.83389e-15)
(1.66298 -0.00541275 1.87568e-15)
(1.66354 -0.00537999 1.85484e-15)
(1.6641 -0.00535589 1.92956e-15)
(1.66467 -0.00534174 1.95346e-15)
(1.66523 -0.00533909 1.89695e-15)
(1.66579 -0.00534973 1.85296e-15)
(1.66636 -0.00537582 1.84099e-15)
(1.66694 -0.00541986 1.82923e-15)
(1.66752 -0.00548483 1.84141e-15)
(1.66812 -0.00557425 1.83849e-15)
(1.66873 -0.00569223 1.81633e-15)
(1.66936 -0.00584366 1.86264e-15)
(1.67001 -0.00603426 1.7797e-15)
(1.67069 -0.0062708 2.01944e-15)
(1.67141 -0.00656124 2.13003e-15)
(1.67218 -0.00691494 2.20947e-15)
(1.67299 -0.00734292 2.17878e-15)
(1.67388 -0.00785817 2.24224e-15)
(1.67483 -0.00847595 2.1851e-15)
(1.67588 -0.00921419 2.19834e-15)
(1.67704 -0.010094 2.23647e-15)
(1.67833 -0.0111401 2.20288e-15)
(1.67977 -0.0123816 2.15209e-15)
(1.6814 -0.0138527 2.16086e-15)
(1.68325 -0.0155932 2.1629e-15)
(1.68536 -0.0176501 2.13539e-15)
(1.68777 -0.0200781 2.11723e-15)
(1.69056 -0.022941 2.08799e-15)
(1.69379 -0.0263135 2.03709e-15)
(1.69753 -0.0302822 2.03898e-15)
(1.7019 -0.0349476 2.01814e-15)
(1.70702 -0.040426 2.01399e-15)
(1.71302 -0.046851 1.94977e-15)
(1.72008 -0.0543757 1.93409e-15)
(1.72841 -0.0631738 1.94659e-15)
(1.73827 -0.0734407 1.93767e-15)
(1.74998 -0.0853932 1.85341e-15)
(1.7639 -0.099267 1.75564e-15)
(1.7805 -0.115311 1.8296e-15)
(1.80035 -0.133778 1.80098e-15)
(1.82412 -0.154903 1.8383e-15)
(1.85264 -0.178874 1.75401e-15)
(1.8869 -0.205788 1.72855e-15)
(1.92803 -0.235552 1.56391e-15)
(1.97732 -0.267881 1.5024e-15)
(2.77066 -0.163546 7.3719e-15)
(2.84561 -0.15684 7.2078e-15)
(2.91634 -0.146956 7.00682e-15)
(2.98128 -0.134671 6.92821e-15)
(2.74842 -0.204461 6.24307e-15)
(2.82712 -0.195644 6.00103e-15)
(2.9009 -0.182559 5.91535e-15)
(2.9679 -0.166408 5.7282e-15)
(2.72151 -0.248867 4.54144e-15)
(2.80528 -0.237397 4.32085e-15)
(2.88306 -0.220256 4.1398e-15)
(2.95255 -0.199353 4.04897e-15)
(2.69001 -0.297998 2.82937e-15)
(2.78068 -0.283006 2.80507e-15)
(2.86358 -0.260509 2.63216e-15)
(2.93589 -0.23361 2.4957e-15)
(2.65428 -0.353596 1.498e-15)
(2.75445 -0.333552 1.28482e-15)
(2.8437 -0.303681 1.09369e-15)
(2.91863 -0.269046 9.69935e-16)
)
;

boundaryField
{
    inlet
    {
        type            uniformFixedValue;
        uniformValue    constant (1 0 0);
        value           nonuniform 0();
    }
    outlet
    {
        type            pressureInletOutletVelocity;
        value           nonuniform 0();
    }
    wall
    {
        type            fixedValue;
        value           nonuniform 0();
    }
    wedge1
    {
        type            wedge;
    }
    wedge2
    {
        type            wedge;
    }
    axis
    {
        type            empty;
    }
    procBoundary8to2
    {
        type            processor;
        value           nonuniform List<vector> 
71
(
(1.80647 -0.00442184 4.67458e-15)
(1.80819 -0.00436095 4.74834e-15)
(1.80988 -0.00430144 5.08628e-15)
(1.81155 -0.00424337 4.93975e-15)
(1.8132 -0.00418681 4.82155e-15)
(1.81482 -0.00413183 4.96786e-15)
(1.81642 -0.00407853 5.31539e-15)
(1.81801 -0.00402704 5.30743e-15)
(1.81957 -0.0039775 5.64445e-15)
(1.82111 -0.00393007 5.70708e-15)
(1.82263 -0.00388498 5.85605e-15)
(1.82414 -0.00384246 5.93535e-15)
(1.82563 -0.0038028 6.13923e-15)
(1.82711 -0.00376636 6.15099e-15)
(1.82857 -0.00373354 6.35299e-15)
(1.83002 -0.00370484 6.36396e-15)
(1.83146 -0.00368083 6.40466e-15)
(1.8329 -0.00366218 6.42982e-15)
(1.83432 -0.00364971 6.58332e-15)
(1.83575 -0.00364437 6.62343e-15)
(1.83717 -0.00364728 6.65494e-15)
(1.8386 -0.00365975 6.77891e-15)
(1.84003 -0.00368335 7.00557e-15)
(1.84148 -0.00371992 6.90008e-15)
(1.84294 -0.0037716 7.02063e-15)
(1.84443 -0.00384095 6.93017e-15)
(1.84595 -0.00393096 7.01863e-15)
(1.84752 -0.00404514 7.17921e-15)
(1.84913 -0.00418763 6.81133e-15)
(1.85081 -0.00436329 6.81989e-15)
(1.85257 -0.00457781 6.95679e-15)
(1.85442 -0.00483789 7.22519e-15)
(1.85639 -0.00515136 7.16639e-15)
(1.8585 -0.00552739 7.36904e-15)
(1.86078 -0.00597671 7.28963e-15)
(1.86325 -0.00651182 7.3016e-15)
(1.86596 -0.00714733 7.27993e-15)
(1.86895 -0.00790021 7.43796e-15)
(1.87228 -0.00879015 7.4572e-15)
(1.87599 -0.00983995 7.66229e-15)
(1.88017 -0.0110759 7.51273e-15)
(1.8849 -0.0125281 7.61162e-15)
(1.89027 -0.0142312 7.46819e-15)
(1.89639 -0.0162242 7.5187e-15)
(1.90339 -0.0185513 7.6223e-15)
(1.91143 -0.0212619 7.60645e-15)
(1.92068 -0.0244103 7.58887e-15)
(1.93133 -0.0280558 7.79722e-15)
(1.94361 -0.0322615 7.60806e-15)
(1.95779 -0.0370928 7.86756e-15)
(1.97415 -0.0426151 7.77072e-15)
(1.99301 -0.0488901 7.74199e-15)
(2.01473 -0.0559706 7.80483e-15)
(2.03971 -0.0638931 7.43654e-15)
(2.06834 -0.0726686 7.48976e-15)
(2.10105 -0.0822714 7.47639e-15)
(2.13825 -0.0926233 7.6605e-15)
(2.18033 -0.103581 7.4765e-15)
(2.22762 -0.114916 7.67449e-15)
(2.28031 -0.126308 7.52642e-15)
(2.33846 -0.137321 7.54126e-15)
(2.40188 -0.147443 7.49079e-15)
(2.47011 -0.156047 7.45825e-15)
(2.54237 -0.162508 7.40673e-15)
(2.61749 -0.166204 7.444e-15)
(2.69398 -0.16664 7.22151e-15)
(2.69398 -0.16664 7.22151e-15)
(2.78828 -0.125218 7.84368e-15)
(2.86049 -0.120273 7.5855e-15)
(2.92894 -0.113026 7.27147e-15)
(2.99227 -0.103983 7.17849e-15)
)
;
    }
    procBoundary8to3
    {
        type            processor;
        value           uniform (3.03944 -0.120906 6.71355e-15);
    }
    procBoundary8to7
    {
        type            processor;
        value           nonuniform List<vector> 5((1.78546 -0.00521053 4.38075e-15) (1.76119 -0.0057942 2.75365e-15) (1.7314 -0.00622086 1.93432e-15) (1.69555 -0.00648228 1.58431e-15) (1.65307 -0.00657642 1.42354e-15));
    }
    procBoundary8to9
    {
        type            processor;
        value           nonuniform List<vector> 4((3.02711 -0.148529 5.5514e-15) (3.01284 -0.1766 3.92433e-15) (2.997 -0.204977 2.36201e-15) (2.97957 -0.233179 8.57725e-16));
    }
    procBoundary8to14
    {
        type            processor;
        value           nonuniform List<vector> 
71
(
(2.0361 -0.301831 1.33657e-15)
(2.10578 -0.336644 1.17719e-15)
(2.18706 -0.368857 1.00474e-15)
(2.28063 -0.398584 8.04881e-16)
(2.38539 -0.41695 5.84934e-16)
(2.49733 -0.426239 4.04359e-16)
(1.60389 -0.00641291 1.28549e-15)
(1.60434 -0.00632057 1.333e-15)
(1.60479 -0.00623057 1.19559e-15)
(1.60523 -0.006143 1.75525e-15)
(1.60566 -0.00605794 1.68338e-15)
(1.60609 -0.00597554 1.64624e-15)
(1.60651 -0.00589593 1.60946e-15)
(1.60693 -0.00581932 1.5607e-15)
(1.60734 -0.00574592 1.59982e-15)
(1.60774 -0.00567603 1.48669e-15)
(1.60814 -0.00560997 1.47021e-15)
(1.60854 -0.00554814 1.44343e-15)
(1.60893 -0.00549101 1.46975e-15)
(1.60931 -0.00543916 1.42853e-15)
(1.6097 -0.00539325 1.43286e-15)
(1.61008 -0.00535408 1.36618e-15)
(1.61046 -0.00532259 1.35843e-15)
(1.61084 -0.00529991 1.35139e-15)
(1.61122 -0.00528735 1.32573e-15)
(1.6116 -0.00528648 1.3151e-15)
(1.61199 -0.00529915 1.25411e-15)
(1.61237 -0.00532752 1.27011e-15)
(1.61277 -0.00537416 1.25293e-15)
(1.61317 -0.00544212 1.22286e-15)
(1.61358 -0.00553496 1.23245e-15)
(1.614 -0.0056569 1.24492e-15)
(1.61444 -0.00581291 1.20368e-15)
(1.6149 -0.00600884 1.1512e-15)
(1.61538 -0.00625159 1.6191e-15)
(1.61589 -0.00654931 1.58345e-15)
(1.61644 -0.00691155 1.58157e-15)
(1.61703 -0.00734962 1.5081e-15)
(1.61767 -0.0078768 1.50662e-15)
(1.61837 -0.00850873 1.44147e-15)
(1.61914 -0.00926384 1.45416e-15)
(1.62 -0.0101638 1.46893e-15)
(1.62097 -0.0112341 1.47173e-15)
(1.62205 -0.0125048 1.3938e-15)
(1.62329 -0.0140112 1.39293e-15)
(1.6247 -0.0157947 1.38741e-15)
(1.62631 -0.017904 1.3458e-15)
(1.62818 -0.0203964 1.3425e-15)
(1.63034 -0.023339 1.32234e-15)
(1.63285 -0.0268104 1.2473e-15)
(1.63579 -0.0309026 1.19886e-15)
(1.63924 -0.0357234 1.19168e-15)
(1.64329 -0.0413982 1.137e-15)
(1.64807 -0.0480734 1.08701e-15)
(1.65373 -0.0559183 1.05545e-15)
(1.66047 -0.0651291 1.01937e-15)
(1.6685 -0.0759308 9.79303e-16)
(1.67811 -0.0885797 9.55921e-16)
(1.68966 -0.103365 8.0335e-16)
(1.70359 -0.120606 1.17998e-15)
(1.72046 -0.140648 1.04472e-15)
(1.74097 -0.163849 9.58722e-16)
(1.76601 -0.190551 8.97378e-16)
(1.79668 -0.221039 7.70275e-16)
(1.83435 -0.255442 6.32451e-16)
(2.0361 -0.301831 1.33657e-15)
(1.88067 -0.293696 5.15905e-16)
(2.61538 -0.418331 8.69849e-17)
(2.72867 -0.390205 -6.62691e-17)
(2.82473 -0.349619 -2.55675e-16)
(2.90034 -0.304678 -3.93971e-16)
)
;
    }
}


// ************************************************************************* //
