/*--------------------------------*- C++ -*----------------------------------*\
  =========                 |
  \\      /  F ield         | OpenFOAM: The Open Source CFD Toolbox
   \\    /   O peration     | Website:  https://openfoam.org
    \\  /    A nd           | Version:  7
     \\/     M anipulation  |
\*---------------------------------------------------------------------------*/
FoamFile
{
    version     2.0;
    format      ascii;
    class       volVectorField;
    location    "20";
    object      U;
}
// * * * * * * * * * * * * * * * * * * * * * * * * * * * * * * * * * * * * * //

dimensions      [0 1 -1 0 0 0 0];

internalField   nonuniform List<vector> 
12400
(
(-0.000699858 0.000886371 -6.01619e-21)
(-0.00397343 0.00222425 -2.23708e-20)
(-0.0106513 0.00321963 4.14684e-21)
(-0.0195731 0.00393109 1.5965e-20)
(-0.0301136 0.0044034 6.90955e-21)
(-0.0418244 0.00467805 -1.70975e-20)
(-0.0542792 0.004795 -5.50827e-21)
(-0.0671177 0.00479072 -2.19243e-21)
(-0.0800527 0.00469686 -2.04112e-20)
(-0.0928605 0.00453914 -3.97525e-21)
(-0.10537 0.00433661 -1.53517e-20)
(-0.117446 0.00410144 2.53515e-21)
(-0.128976 0.00383945 -8.07574e-21)
(-0.139854 0.00355151 1.46648e-20)
(-0.149966 0.00323609 -1.90552e-20)
(-0.159186 0.00289339 -2.05075e-20)
(-0.167398 0.00253263 -5.97006e-21)
(-0.174557 0.00218543 3.27889e-20)
(-0.180634 0.00189704 -2.81171e-20)
(-0.185739 0.00176001 4.07135e-21)
(-0.000824862 0.00263853 8.83985e-21)
(-0.00425017 0.00662523 1.44023e-20)
(-0.0109726 0.00959523 4.69545e-21)
(-0.0198609 0.0117206 1.39148e-20)
(-0.0303047 0.0131333 -3.32083e-21)
(-0.0418645 0.0139561 2.13585e-20)
(-0.0541207 0.0143077 8.07073e-21)
(-0.0667169 0.0142966 1.90176e-20)
(-0.0793678 0.0140171 -1.1028e-20)
(-0.0918491 0.0135463 2.69343e-20)
(-0.103987 0.0129411 8.7564e-20)
(-0.115644 0.0122383 -1.48249e-20)
(-0.126701 0.0114555 2.205e-20)
(-0.137047 0.0105952 -1.34896e-20)
(-0.14656 0.00965227 3.53724e-20)
(-0.155105 0.00862567 -4.26424e-21)
(-0.162542 0.00753895 1.9873e-20)
(-0.168806 0.00648358 -1.22234e-19)
(-0.173823 0.00560178 1.22142e-20)
(-0.177409 0.00512321 -1.72996e-20)
(-0.00106981 0.00432834 2.84495e-20)
(-0.00479359 0.0108816 2.99082e-20)
(-0.0116048 0.015776 -6.80417e-21)
(-0.0204283 0.0192865 -1.51598e-20)
(-0.030682 0.0216254 -6.01159e-21)
(-0.0419433 0.0229919 2.1644e-20)
(-0.0538055 0.0235794 3.2321e-20)
(-0.0659204 0.023566 -7.23623e-20)
(-0.0780054 0.023107 2.09931e-20)
(-0.0898353 0.0223297 -2.67596e-20)
(-0.101232 0.021329 -4.63784e-20)
(-0.112049 0.0201666 -9.09592e-21)
(-0.122159 0.0188723 -1.42109e-20)
(-0.131438 0.0174505 -3.26561e-20)
(-0.13975 0.0158912 3.86228e-20)
(-0.14694 0.0141878 -3.69501e-20)
(-0.152826 0.0123665 4.77177e-21)
(-0.1573 0.0105667 1.19995e-19)
(-0.160256 0.00905314 -8.49883e-20)
(-0.160782 0.00802498 7.295e-20)
(-0.00142496 0.00591775 -2.1078e-20)
(-0.00558426 0.014904 3.97156e-20)
(-0.0125277 0.0216403 -5.75703e-20)
(-0.021259 0.0264874 2.69116e-20)
(-0.0312352 0.0297277 -1.47714e-19)
(-0.0420574 0.0316287 -9.14404e-20)
(-0.053337 0.0324529 5.81141e-20)
(-0.0647369 0.0324432 1.42651e-19)
(-0.0759789 0.0318134 -5.92233e-20)
(-0.0868357 0.0307395 -4.10615e-20)
(-0.0971213 0.0293542 -5.91902e-20)
(-0.106678 0.0277444 1.21673e-19)
(-0.115364 0.0259535 1.51666e-19)
(-0.123034 0.0239883 -1.20415e-19)
(-0.129532 0.0218324 -9.85817e-20)
(-0.134676 0.0194687 3.7014e-20)
(-0.138228 0.0169095 -8.2505e-20)
(-0.139997 0.0143144 -3.96723e-21)
(-0.140001 0.0121371 1.39919e-19)
(-0.135851 0.0101876 4.70864e-20)
(-0.00187661 0.00737371 8.33035e-20)
(-0.00659467 0.0186136 2.64713e-20)
(-0.0137127 0.0270781 9.16331e-20)
(-0.0223296 0.0331934 -2.79366e-20)
(-0.0319492 0.0372978 1.43997e-19)
(-0.0422009 0.0397174 8.79963e-20)
(-0.0527183 0.0407758 -1.06692e-19)
(-0.0631775 0.0407754 -1.38444e-19)
(-0.0733052 0.0399845 1.2817e-19)
(-0.082871 0.0386259 -3.64409e-20)
(-0.0916782 0.036869 5.45804e-20)
(-0.0995527 0.0348271 -2.17511e-19)
(-0.106329 0.0325584 7.67711e-20)
(-0.111838 0.0300738 2.86946e-20)
(-0.115889 0.0273504 1.63334e-20)
(-0.118271 0.0243571 6.12192e-20)
(-0.118682 0.0210752 1.61258e-19)
(-0.116757 0.0176282 4.25597e-21)
(-0.113077 0.0148061 -4.93668e-20)
(-0.102443 0.0114071 4.90453e-20)
(-0.00240817 0.00866977 5.75567e-20)
(-0.00779109 0.0219446 2.85509e-20)
(-0.0151239 0.0319954 -1.49183e-19)
(-0.0236099 0.0392894 -8.94173e-20)
(-0.0328035 0.044206 -3.55058e-20)
(-0.0423643 0.0471187 1.19303e-19)
(-0.0519501 0.0484032 1.42745e-19)
(-0.0612517 0.0484146 -1.76567e-20)
(-0.0700005 0.047471 -3.42732e-20)
(-0.077961 0.045839 -3.00339e-20)
(-0.0849221 0.0437242 -9.78095e-20)
(-0.0906867 0.0412663 2.24129e-19)
(-0.095059 0.0385407 -1.27114e-21)
(-0.0978323 0.0355651 -8.86818e-20)
(-0.0987734 0.0323121 -7.70893e-21)
(-0.0976315 0.0287365 1.82063e-20)
(-0.094062 0.0247809 5.76298e-20)
(-0.0872779 0.0204268 -2.14352e-19)
(-0.0793415 0.0170347 9.84735e-20)
(-0.0601037 0.0117833 -8.41469e-20)
(-0.00300135 0.00978712 -9.59634e-20)
(-0.00913579 0.0248474 5.58214e-20)
(-0.0167206 0.0363165 6.69629e-20)
(-0.0250647 0.0446787 5.80021e-20)
(-0.0337721 0.0503392 1.25971e-19)
(-0.0425325 0.0537069 1.8397e-20)
(-0.0510277 0.0552002 -1.82353e-20)
(-0.0589632 0.0552198 5.54219e-20)
(-0.0660738 0.0541279 -8.36374e-20)
(-0.0721161 0.0522317 -8.40958e-21)
(-0.0768599 0.0497711 4.13463e-20)
(-0.0800773 0.0469127 -1.90204e-19)
(-0.081532 0.043751 -6.36416e-20)
(-0.0809673 0.0403144 5.98557e-20)
(-0.0780867 0.0365757 -1.45073e-19)
(-0.0725824 0.0324799 1.62537e-19)
(-0.0641523 0.027944 2.01915e-20)
(-0.0510959 0.0227077 -2.45599e-20)
(-0.0382699 0.0186727 -2.69e-19)
(-0.00833222 0.0121868 1.58353e-19)
(-0.00363754 0.0107152 -3.78479e-20)
(-0.0105894 0.0272897 -4.14754e-20)
(-0.0184588 0.0399869 -1.97245e-19)
(-0.0266535 0.0492856 -8.81594e-20)
(-0.0348224 0.0556028 -3.02612e-19)
(-0.0426819 0.0593719 -2.57817e-20)
(-0.0499358 0.0610447 -1.52721e-19)
(-0.0563024 0.0610597 -1.10108e-19)
(-0.0615174 0.0598178 2.44884e-19)
(-0.0653255 0.0576623 4.19862e-20)
(-0.0674707 0.0548653 1.06107e-19)
(-0.067685 0.0516199 1.34851e-19)
(-0.0656779 0.0480415 -4.61456e-20)
(-0.0611265 0.0441737 -1.55141e-19)
(-0.0536479 0.0399963 1.41296e-19)
(-0.0428249 0.0354504 1.34782e-19)
(-0.028565 0.0304431 -1.36644e-19)
(-0.00769263 0.02465 1.93334e-19)
(0.0112762 0.0196816 3.03462e-19)
(0.053556 0.0123247 8.56512e-20)
(-0.0042991 0.0114518 1.00766e-19)
(-0.0121131 0.0292567 1.22429e-19)
(-0.020293 0.0429732 6.03639e-20)
(-0.0283316 0.0530565 1.51508e-19)
(-0.0359139 0.0599232 7.04666e-20)
(-0.0427769 0.0640223 1.88241e-19)
(-0.0486424 0.0658306 1.64649e-19)
(-0.0532376 0.0658169 -6.58077e-20)
(-0.0562948 0.0644148 -1.06987e-19)
(-0.0575405 0.0619996 1.93107e-19)
(-0.0566844 0.0588723 -1.23094e-19)
(-0.0534058 0.0552519 9.12484e-20)
(-0.0473431 0.051276 1.25216e-19)
(-0.0380866 0.0470074 1.40018e-19)
(-0.0251448 0.0424414 -4.1444e-19)
(-0.00790817 0.0375327 -1.98667e-19)
(0.013387 0.0321733 -5.44456e-20)
(0.0438611 0.0261033 2.32485e-19)
(0.0696632 0.0205039 -5.09393e-19)
(0.128994 0.012153 -1.95263e-19)
(-0.00497054 0.0120025 1.49339e-19)
(-0.0136707 0.0307507 -1.81971e-19)
(-0.0221776 0.0452638 -1.92281e-19)
(-0.0300494 0.0559604 -2.01038e-19)
(-0.0369953 0.0632493 -1.25624e-19)
(-0.0427646 0.0675879 -3.02162e-20)
(-0.0470906 0.069471 -2.08237e-19)
(-0.0497034 0.0693917 2.61695e-19)
(-0.0503245 0.0678105 7.65123e-20)
(-0.0486539 0.0651297 7.55555e-20)
(-0.0443541 0.0616767 -3.09142e-19)
(-0.0370363 0.057695 4.80449e-20)
(-0.0262457 0.0533456 -3.88717e-20)
(-0.0114593 0.0487142 -1.33155e-20)
(0.00794426 0.0438206 -1.56101e-19)
(0.0328701 0.0386559 2.05319e-19)
(0.0624274 0.0330506 -4.52452e-20)
(0.105139 0.0269583 -5.20995e-19)
(0.1377 0.0212994 7.36722e-20)
(0.219817 0.0127211 3.65814e-19)
(-0.00563936 0.0123795 1.06216e-19)
(-0.0152299 0.0317887 -3.47773e-20)
(-0.0240674 0.0468664 2.01827e-19)
(-0.0317515 0.0579887 1.01797e-19)
(-0.0380012 0.0655531 1.47004e-19)
(-0.0425683 0.0700217 1.37739e-20)
(-0.0451886 0.0719026 2.82884e-19)
(-0.0455857 0.071708 -2.56934e-19)
(-0.0434607 0.0699204 -1.1819e-19)
(-0.038473 0.0669654 -4.85081e-20)
(-0.0302222 0.0631938 3.07645e-19)
(-0.0182293 0.058873 -5.46345e-20)
(-0.0019208 0.0541891 4.72441e-20)
(0.0193715 0.049255 1.96488e-19)
(0.0464077 0.0441206 1.90198e-19)
(0.0805498 0.0388619 -3.34989e-19)
(0.119662 0.0330605 -1.87767e-19)
(0.177634 0.0276663 1.02264e-19)
(0.216691 0.0216248 3.27462e-19)
(0.327298 0.0148432 -4.37182e-20)
(-0.00629656 0.0126002 -1.40668e-19)
(-0.0167626 0.0323999 -7.8691e-20)
(-0.0259165 0.0478057 -1.09789e-19)
(-0.0333738 0.0591529 -1.07252e-19)
(-0.0388474 0.0668296 1.23127e-19)
(-0.0420798 0.0713017 -2.40639e-19)
(-0.0427975 0.0730888 2.38749e-19)
(-0.0407058 0.072719 1.64255e-20)
(-0.0354698 0.0706931 -2.069e-19)
(-0.0266909 0.0674573 -4.76625e-20)
(-0.0138821 0.0633843 -1.9545e-19)
(0.00355191 0.0587664 8.92291e-20)
(0.0263338 0.0538185 -6.21774e-20)
(0.0553106 0.0486877 -3.78955e-19)
(0.0913663 0.0434534 1.78646e-20)
(0.136485 0.0383916 1.20546e-19)
(0.186635 0.0323529 2.67369e-19)
(0.262662 0.028857 4.72644e-19)
(0.308228 0.0215967 8.17288e-20)
(0.451189 0.0189678 -5.15273e-19)
(-0.00693659 0.0126852 -1.94181e-19)
(-0.0182446 0.0326219 -2.78996e-20)
(-0.0276773 0.0481195 3.92414e-19)
(-0.0348404 0.0594826 -1.7736e-19)
(-0.0394247 0.0670958 9.01325e-21)
(-0.0411498 0.0714325 -1.73576e-19)
(-0.0397189 0.0730243 -1.67889e-19)
(-0.0348017 0.0724139 2.72064e-20)
(-0.0260078 0.0701195 9.04561e-20)
(-0.0128552 0.0666068 3.38526e-19)
(0.00525785 0.0622719 -1.08126e-19)
(0.0290748 0.0574355 -4.67602e-19)
(0.0594963 0.0523479 3.35122e-19)
(0.0975741 0.0472022 2.93011e-19)
(0.144272 0.0420939 1.92504e-19)
(0.202236 0.0376932 4.87898e-19)
(0.265196 0.0314381 -1.59745e-19)
(0.360773 0.0311395 -7.42518e-19)
(0.413963 0.022187 1.19857e-19)
(0.588447 0.0254106 1.41951e-19)
(-0.00755674 0.0126565 -1.008e-19)
(-0.0196537 0.0324961 1.34842e-19)
(-0.0292969 0.0478546 -1.3653e-19)
(-0.0360587 0.0590215 2.18e-19)
(-0.0395921 0.0663894 -2.52383e-19)
(-0.0395788 0.070446 2.35487e-19)
(-0.0356807 0.071738 4.73091e-20)
(-0.0275111 0.0708249 -2.56454e-19)
(-0.0145971 0.0682435 2.16272e-19)
(0.00365684 0.0644813 -2.35923e-19)
(0.028001 0.0599625 2.95202e-19)
(0.0593576 0.0550438 1.60285e-19)
(0.0988216 0.0500218 1.30036e-19)
(0.147643 0.0451517 -1.99611e-19)
(0.206784 0.0405178 -3.31504e-20)
(0.279277 0.0373694 -2.5793e-19)
(0.357038 0.0313234 1.81335e-19)
(0.471098 0.0349141 8.33451e-21)
(0.534517 0.0249916 -3.20988e-19)
(0.732509 0.0345031 1.40224e-19)
(-0.00815602 0.0125345 2.27531e-20)
(-0.020967 0.032064 8.6412e-20)
(-0.0307132 0.0470614 1.89657e-20)
(-0.0369143 0.0578242 7.23649e-20)
(-0.0391696 0.0647669 1.74137e-19)
(-0.0371073 0.0684014 1.64413e-19)
(-0.0303264 0.0692965 1.17473e-19)
(-0.0183566 0.0680334 1.48478e-19)
(-0.000611665 0.0651721 -3.02444e-19)
(0.0236527 0.0612283 -4.44514e-20)
(0.0553669 0.0566628 -4.86465e-19)
(0.0956504 0.0518802 -1.53572e-19)
(0.145776 0.0472364 -1.76348e-19)
(0.207109 0.0430665 2.90224e-19)
(0.280479 0.0394225 -4.57863e-19)
(0.368572 0.0380912 8.89899e-20)
(0.462737 0.0333688 3.5456e-20)
(0.59106 0.0404312 4.60134e-19)
(0.667617 0.0314545 -2.27048e-19)
(0.873881 0.0462955 1.74349e-19)
(-0.00873346 0.0123367 3.00853e-19)
(-0.022157 0.0313622 1.09557e-19)
(-0.0318497 0.0457907 2.00714e-19)
(-0.037264 0.0559519 1.83336e-19)
(-0.0379318 0.0623002 3.13783e-20)
(-0.0334084 0.0653847 -3.98682e-19)
(-0.0232057 0.0658063 -2.95524e-19)
(-0.00673891 0.0641756 -2.69473e-19)
(0.0167266 0.0610844 2.55748e-19)
(0.048116 0.0570872 1.55246e-19)
(0.0885587 0.0526944 5.54718e-19)
(0.139356 0.0483723 -4.56608e-19)
(0.201875 0.0445476 1.70981e-19)
(0.277392 0.0416381 -3.27607e-19)
(0.366354 0.0396868 2.45417e-19)
(0.470054 0.0405752 -8.80845e-20)
(0.580547 0.0387465 1.18848e-19)
(0.716465 0.0480004 -4.22964e-19)
(0.806613 0.0420966 3.50716e-19)
(1.00218 0.0600467 1.54891e-19)
(-0.00928617 0.0120754 -4.15539e-19)
(-0.0231873 0.0304199 1.71345e-19)
(-0.0326102 0.0440884 -2.72715e-19)
(-0.0369314 0.0534683 -2.58578e-19)
(-0.0356018 0.0590745 9.45447e-20)
(-0.0280835 0.0615085 4.76731e-19)
(-0.0137737 0.0614148 -3.49755e-19)
(0.00805965 0.0594457 4.46124e-20)
(0.0383315 0.0562372 -1.01046e-19)
(0.078167 0.0523969 -9.99705e-20)
(0.12888 0.0484996 2.60309e-19)
(0.191874 0.0450849 5.771e-19)
(0.26842 0.0426516 -2.14643e-20)
(0.359337 0.0416658 4.94986e-20)
(0.464233 0.0422157 -1.95987e-20)
(0.582053 0.0455875 -3.31211e-19)
(0.705762 0.0478878 3.23377e-19)
(0.841649 0.0578805 5.13994e-19)
(0.941047 0.0562649 1.48908e-19)
(1.10886 0.0742009 -2.85661e-19)
(-0.00980686 0.0117571 -1.07306e-19)
(-0.0240081 0.0292561 3.49527e-19)
(-0.0328739 0.0419923 -1.14456e-20)
(-0.0357021 0.0504372 2.49016e-19)
(-0.0318493 0.0551864 1.16336e-19)
(-0.0206633 0.0569096 1.12805e-19)
(-0.00139795 0.0563103 -1.41447e-19)
(0.0268555 0.0540968 2.44398e-19)
(0.0652113 0.0509658 4.29315e-20)
(0.114983 0.0475939 -1.49092e-19)
(0.177595 0.0446322 -8.71534e-20)
(0.254367 0.0426947 -3.94693e-19)
(0.346141 0.0423293 -3.99048e-19)
(0.452741 0.0439629 9.39616e-20)
(0.572256 0.0477144 -3.37375e-20)
(0.700816 0.0537636 -1.34614e-19)
(0.831262 0.0603615 -4.41086e-19)
(0.959798 0.0698829 -5.33448e-19)
(1.05973 0.0724449 -6.21116e-19)
(1.18932 0.0870301 6.5667e-20)
(-0.0102814 0.011381 2.2286e-20)
(-0.0245522 0.0278778 -3.15711e-19)
(-0.0324911 0.0395321 -2.99231e-19)
(-0.0333211 0.0469216 -2.01e-19)
(-0.0262918 0.0507415 3.6327e-19)
(-0.010615 0.0517479 -7.88728e-19)
(0.0146232 0.0507196 1.62181e-19)
(0.0505262 0.0484385 -9.34957e-20)
(0.0983992 0.045679 2.70719e-19)
(0.159678 0.0432 3.3649e-20)
(0.235729 0.0417309 -4.21804e-19)
(0.327471 0.0419361 1.85857e-19)
(0.434807 0.0443474 5.87723e-20)
(0.555928 0.0492129 1.85992e-19)
(0.686694 0.0565058 -1.98577e-19)
(0.820527 0.0652365 3.52308e-19)
(0.949112 0.0750981 -1.51177e-19)
(1.06404 0.0832371 7.75094e-20)
(1.15455 0.0889046 -5.51017e-20)
(1.24349 0.0971181 -2.1048e-19)
(-0.0106871 0.0109409 3.4851e-19)
(-0.0247303 0.026282 -6.57923e-20)
(-0.0312813 0.0367291 -4.18734e-20)
(-0.0294937 0.0429827 2.41931e-19)
(-0.0184998 0.0458545 -1.24297e-19)
(0.00264238 0.046205 7.11126e-19)
(0.0350299 0.0449063 3.364e-20)
(0.0799547 0.0428316 2.22017e-19)
(0.138857 0.0408472 -3.75317e-19)
(0.213146 0.0397982 -2.88423e-19)
(0.303841 0.0404718 4.28125e-19)
(0.410986 0.043518 -3.53209e-19)
(0.532919 0.0493271 2.86823e-19)
(0.665573 0.0577872 -5.18958e-20)
(0.802221 0.0684394 8.83531e-19)
(0.934231 0.0794021 -1.808e-20)
(1.05245 0.0907014 3.05352e-19)
(1.14928 0.0969483 4.42441e-19)
(1.22258 0.104068 2.64722e-19)
(1.27498 0.103383 4.22854e-19)
(-0.0109924 0.010425 1.68385e-19)
(-0.0244311 0.0244571 -3.79343e-19)
(-0.0290321 0.0335994 1.28257e-19)
(-0.0238887 0.0386825 2.10478e-19)
(-0.008008 0.0406502 1.78584e-19)
(0.0197162 0.0404843 -5.16757e-19)
(0.0605594 0.0391677 2.3441e-19)
(0.115956 0.0376794 1.07852e-19)
(0.187356 0.0369838 4.67167e-20)
(0.275887 0.0379957 1.95078e-19)
(0.381789 0.0415023 -1.15197e-19)
(0.503638 0.0480186 3.57253e-19)
(0.637577 0.0576054 -3.01317e-19)
(0.776926 0.0695949 -3.10833e-19)
(0.912709 0.0828773 -5.37049e-19)
(1.03547 0.0950522 -1.69443e-19)
(1.13697 0.105853 -3.68404e-19)
(1.21353 0.110182 -4.07825e-19)
(1.2659 0.116251 -3.69561e-19)
(1.29067 0.105269 -2.06789e-19)
(-0.0111548 0.00981837 2.56172e-19)
(-0.0235197 0.022388 -6.6081e-20)
(-0.0255017 0.030158 -1.77581e-19)
(-0.016145 0.0340889 -5.78186e-19)
(0.00567032 0.0352673 -4.65642e-20)
(0.0412108 0.0348125 6.18586e-19)
(0.0918942 0.0338318 -1.40556e-19)
(0.159195 0.0334176 1.21361e-19)
(0.244353 0.0346203 2.91157e-19)
(0.347835 0.0383753 8.78222e-20)
(0.468549 0.0453601 -5.71809e-19)
(0.602984 0.0557745 -1.42435e-19)
(0.744667 0.0691281 -1.00273e-19)
(0.884519 0.0840528 2.86953e-19)
(1.01243 0.0987923 8.31453e-19)
(1.11984 0.110797 -2.63759e-19)
(1.20142 0.119699 -1.74418e-19)
(1.25776 0.122082 4.49539e-19)
(1.28993 0.124038 2.45619e-19)
(1.30696 0.114472 1.03356e-19)
(-0.0111218 0.00910573 -2.74637e-19)
(-0.0218395 0.0200614 2.03223e-19)
(-0.020423 0.0264263 -4.15771e-19)
(-0.00588182 0.0292814 4.72846e-20)
(0.023024 0.0298638 2.93796e-19)
(0.0676935 0.0294421 -6.26724e-19)
(0.129605 0.0292551 -6.61466e-19)
(0.210094 0.0305004 1.20827e-20)
(0.309864 0.0342748 -3.98831e-19)
(0.42822 0.0414381 -2.83804e-19)
(0.562139 0.0523891 4.56109e-19)
(0.705541 0.0667915 7.30648e-19)
(0.849399 0.0834188 -2.87931e-19)
(0.983162 0.100209 -1.83212e-19)
(1.09727 0.11501 -4.63568e-19)
(1.18575 0.125539 3.20395e-20)
(1.24721 0.131869 -1.74215e-20)
(1.28512 0.131662 -1.64263e-20)
(1.30377 0.131194 5.08846e-20)
(1.31224 0.12045 6.39236e-19)
(-0.0108319 0.00827408 2.74421e-19)
(-0.0192149 0.0174717 3.04134e-19)
(-0.0135103 0.0224391 4.03433e-19)
(0.00728964 0.0243602 1.6132e-19)
(0.0445217 0.0246244 -2.21402e-19)
(0.0996563 0.0246555 -1.55573e-19)
(0.174091 0.0258181 -2.17114e-20)
(0.268749 0.0293834 2.26835e-19)
(0.383364 0.0364136 2.11139e-19)
(0.515508 0.0475405 1.37205e-19)
(0.659699 0.0626665 -1.65526e-20)
(0.807188 0.0807123 -3.50274e-19)
(0.947098 0.099661 2.84534e-19)
(1.06893 0.116973 -4.29086e-20)
(1.16538 0.130517 1.34087e-19)
(1.23408 0.138694 5.85564e-20)
(1.27726 0.142127 -4.70707e-20)
(1.30069 0.139678 1.16657e-19)
(1.30932 0.136953 -9.06968e-20)
(1.31174 0.125778 -6.40862e-19)
(-0.0102156 0.00731544 1.42435e-19)
(-0.0154558 0.0146274 -5.47228e-19)
(-0.00446732 0.0182536 2.69848e-19)
(0.0237507 0.0194545 1.13795e-19)
(0.0705864 0.0197676 -3.36385e-19)
(0.137475 0.0207669 3.31492e-19)
(0.225515 0.023918 1.88455e-19)
(0.334854 0.0304995 -4.52985e-19)
(0.463729 0.041406 5.56461e-20)
(0.607434 0.0568355 -8.82434e-20)
(0.757768 0.0759672 2.10367e-19)
(0.903765 0.0968682 -1.6089e-19)
(1.03401 0.116879 -2.48489e-19)
(1.13974 0.133373 3.6996e-19)
(1.21707 0.144675 -1.83286e-19)
(1.26731 0.150073 7.37289e-20)
(1.29538 0.150758 -1.79121e-19)
(1.30793 0.146387 9.50942e-22)
(1.30993 0.142036 -1.62131e-19)
(1.30896 0.13052 1.76867e-19)
(-0.00919782 0.00622927 -3.60652e-20)
(-0.010363 0.0115574 -1.61565e-19)
(0.00700244 0.013957 -1.84139e-19)
(0.0438579 0.0147308 1.06221e-19)
(0.101567 0.0155508 -3.15011e-20)
(0.181364 0.0181214 2.01147e-19)
(0.283754 0.0239557 1.4456e-19)
(0.407647 0.0342277 1.3978e-19)
(0.549245 0.0494776 4.62043e-20)
(0.701176 0.0692342 1.24102e-19)
(0.852712 0.0917861 2.11717e-19)
(0.991713 0.114411 4.80229e-20)
(1.10783 0.134149 -1.07681e-19)
(1.19537 0.14873 8.18333e-20)
(1.25417 0.157229 2.7307e-19)
(1.28856 0.159828 -4.99263e-19)
(1.30492 0.158104 1.61098e-19)
(1.30985 0.152258 1.92689e-19)
(1.30768 0.146654 6.40918e-20)
(1.3043 0.134972 1.28776e-19)
(-0.00769949 0.00502449 -5.68229e-20)
(-0.00373485 0.00831565 3.52715e-19)
(0.0211837 0.00967279 1.24112e-19)
(0.0679236 0.010398 -3.82494e-19)
(0.137706 0.0122722 -1.03892e-19)
(0.231337 0.0170878 1.97815e-19)
(0.348346 0.0263137 9.69899e-20)
(0.485899 0.0408562 3.42347e-19)
(0.637697 0.0606707 -1.28846e-20)
(0.793649 0.0844038 1.67208e-20)
(0.941229 0.109425 -1.78749e-19)
(1.06857 0.132485 -2.84335e-19)
(1.16783 0.150766 -3.14428e-20)
(1.237 0.162704 -1.81751e-19)
(1.27927 0.168231 1.54564e-19)
(1.30088 0.168261 7.60557e-19)
(1.30865 0.164555 3.00049e-19)
(1.30845 0.157605 -2.97976e-19)
(1.30368 0.151042 -1.50666e-19)
(1.29891 0.139287 6.26868e-20)
(-0.00563986 0.00372088 2.77942e-19)
(0.00462567 0.00498451 -4.28096e-19)
(0.0383356 0.00556455 -4.10746e-19)
(0.0961926 0.00670956 5.63701e-19)
(0.179111 0.0102666 1.70429e-19)
(0.287168 0.0180431 -1.06289e-19)
(0.418472 0.0313272 -3.12023e-19)
(0.567954 0.0505444 -3.91287e-19)
(0.72656 0.0748257 2.63937e-19)
(0.881874 0.101816 4.69853e-20)
(1.02077 0.128121 1.43075e-19)
(1.13313 0.150371 1.19189e-19)
(1.21457 0.1663 -7.51975e-21)
(1.26664 0.175239 -8.20402e-20)
(1.29503 0.177906 -1.66953e-19)
(1.30686 0.175721 -4.58024e-19)
(1.30857 0.170436 -1.83898e-19)
(1.30502 0.162672 6.17441e-19)
(1.29872 0.155331 1.03804e-19)
(1.29299 0.143566 -1.57454e-19)
(-0.00293893 0.00235006 -2.89496e-19)
(0.0149025 0.0016767 3.00743e-19)
(0.0586761 0.0018368 7.51065e-21)
(0.128819 0.00396014 -1.2765e-19)
(0.22572 0.00989391 -4.20861e-20)
(0.348361 0.0213502 -3.68567e-20)
(0.49296 0.0392503 -2.28551e-19)
(0.65183 0.0632953 2.79113e-19)
(0.813246 0.0915971 -4.68217e-19)
(0.963332 0.120832 1.12351e-21)
(1.08977 0.147173 -8.53138e-20)
(1.18537 0.167568 -4.20504e-20)
(1.24946 0.180587 1.00726e-19)
(1.28657 0.18647 -2.25431e-19)
(1.30385 0.186555 -1.32969e-20)
(1.30848 0.182526 1.27437e-19)
(1.30607 0.175998 -3.17057e-19)
(1.30039 0.167615 -1.16895e-21)
(1.29316 0.159609 1.77859e-21)
(1.28679 0.147847 2.78954e-19)
(0.000479893 0.000955856 4.18932e-20)
(0.0272572 -0.0014647 8.26737e-20)
(0.0823657 -0.0012676 1.63331e-19)
(0.165842 0.00247716 -8.91849e-20)
(0.277275 0.0115217 -2.91247e-19)
(0.414143 0.027329 7.61063e-20)
(0.570335 0.0502256 1.74596e-19)
(0.735382 0.0789483 9.64306e-20)
(0.895382 0.110503 3.29186e-19)
(1.0362 0.140807 -9.11182e-20)
(1.14765 0.166028 -5.49741e-20)
(1.22612 0.183801 4.7531e-20)
(1.27432 0.193657 -1.36546e-19)
(1.29895 0.196631 -1.92312e-19)
(1.3077 0.194474 -1.28126e-19)
(1.30719 0.188937 1.05702e-19)
(1.30203 0.181419 2.69364e-19)
(1.295 0.172533 -1.31998e-19)
(1.28721 0.163918 -2.10784e-19)
(1.28036 0.152157 3.40803e-20)
(0.00468665 -0.000405644 7.46308e-20)
(0.0418193 -0.00426793 1.73875e-20)
(0.109491 -0.00347346 -2.19422e-19)
(0.207166 0.00260778 2.92289e-19)
(0.333312 0.0155028 6.56952e-20)
(0.48348 0.0362278 -3.46061e-19)
(0.648911 0.0642638 1.33153e-19)
(0.816498 0.0971984 -1.7628e-19)
(0.97104 0.130997 9.05066e-21)
(1.09946 0.161174 2.92554e-20)
(1.19466 0.184315 8.51947e-20)
(1.25669 0.198985 1.00061e-20)
(1.29107 0.205659 3.86414e-19)
(1.30566 0.205986 1.55382e-19)
(1.30805 0.201923 -7.35268e-20)
(1.30397 0.195146 -8.70533e-20)
(1.297 0.186811 5.09824e-20)
(1.28911 0.177476 5.34249e-20)
(1.28096 0.168278 -9.07711e-20)
(1.27374 0.156499 -1.02472e-19)
(0.00974123 -0.00166652 -8.75316e-20)
(0.0586755 -0.00653605 5.83832e-21)
(0.140047 -0.00448225 4.48918e-20)
(0.252542 0.00470197 -1.232e-19)
(0.393152 0.0221504 2.39252e-19)
(0.555121 0.0481985 1.37814e-19)
(0.726915 0.0812409 -1.40804e-19)
(0.893284 0.117638 -9.38752e-20)
(1.03886 0.152541 8.5551e-20)
(1.1528 0.18149 -1.33798e-19)
(1.23161 0.201836 1.00335e-19)
(1.27866 0.213172 -2.03696e-21)
(1.30141 0.216801 3.4819e-21)
(1.3082 0.214781 -7.71383e-20)
(1.30597 0.209107 2.20711e-19)
(1.29944 0.201286 -1.87963e-20)
(1.29128 0.192242 9.70314e-20)
(1.28284 0.182471 -1.41867e-19)
(1.27445 0.172696 1.10732e-19)
(1.26694 0.160872 -4.64426e-20)
(0.0156895 -0.0027481 1.44451e-19)
(0.0778603 -0.00805214 1.75342e-19)
(0.173927 -0.00398376 1.30624e-19)
(0.301564 0.0090933 -1.88404e-20)
(0.455928 0.0317144 2.75683e-20)
(0.627673 0.0632815 2.54468e-21)
(0.802628 0.100915 3.05492e-19)
(0.964211 0.139813 -9.11125e-20)
(1.09809 0.174663 6.44189e-20)
(1.19651 0.201451 -3.27247e-19)
(1.25963 0.218527 4.80066e-20)
(1.29353 0.226493 1.46186e-19)
(1.30685 0.2273 -6.6305e-20)
(1.30771 0.223226 1.3827e-19)
(1.30219 0.216174 -1.83269e-19)
(1.29399 0.20744 2.51552e-19)
(1.28506 0.197745 8.3593e-21)
(1.27624 0.187522 -8.70469e-20)
(1.2677 0.177169 3.30161e-21)
(1.25995 0.165268 1.37036e-19)
(0.0225595 -0.00356248 -2.73438e-19)
(0.0993466 -0.00858612 7.06366e-20)
(0.210914 -0.00166956 -2.71755e-20)
(0.353668 0.0160792 -2.0237e-19)
(0.520613 0.0443622 -7.4971e-20)
(0.699687 0.0814038 -1.44901e-19)
(0.87451 0.122958 -1.2578e-19)
(1.02819 0.163268 -1.36416e-19)
(1.1485 0.196983 1.40577e-19)
(1.23127 0.220883 7.00868e-20)
(1.27998 0.234425 -2.06307e-19)
(1.30272 0.239113 -5.20871e-20)
(1.30855 0.237356 -2.4795e-20)
(1.30501 0.231481 -1.04261e-19)
(1.29717 0.223223 -1.82198e-20)
(1.28786 0.213653 -4.47084e-20)
(1.27842 0.203329 -1.81944e-19)
(1.26935 0.192625 9.03039e-20)
(1.26069 0.181686 1.13962e-19)
(1.25276 0.169675 -2.7962e-20)
(0.0303574 -0.00401483 1.01207e-20)
(0.123039 -0.00790296 -1.28422e-19)
(0.250674 0.00275227 6.00483e-20)
(0.408151 0.0259029 -4.20292e-20)
(0.586075 0.0601668 5.21847e-20)
(0.769756 0.10239 2.39362e-19)
(0.941289 0.146991 -1.04571e-19)
(1.08456 0.18759 2.61272e-19)
(1.19029 0.219221 1.2993e-20)
(1.25797 0.239709 1.31159e-19)
(1.29388 0.249621 1.16253e-20)
(1.30738 0.251202 9.18358e-20)
(1.30741 0.247132 1.95038e-20)
(1.30066 0.239663 9.53906e-21)
(1.29122 0.230312 -1.38986e-19)
(1.28116 0.219945 2.50084e-20)
(1.27138 0.20899 1.31127e-19)
(1.26215 0.197764 5.37466e-21)
(1.25343 0.186235 -6.79986e-20)
(1.24535 0.174078 2.81125e-20)
(0.0390647 -0.0040063 3.39633e-20)
(0.14877 -0.00577219 1.04912e-19)
(0.292764 0.00954239 1.1388e-19)
(0.464195 0.0387378 -3.10267e-20)
(0.651139 0.0791032 1.50178e-19)
(0.836596 0.125981 -3.02094e-20)
(1.00201 0.172621 2.47594e-19)
(1.13307 0.212426 -3.154e-19)
(1.22396 0.241188 -5.64532e-20)
(1.27759 0.257925 -5.64782e-20)
(1.30245 0.264232 -6.85283e-20)
(1.30847 0.262914 -1.66188e-20)
(1.30411 0.256754 2.36996e-20)
(1.29505 0.247843 -8.8757e-20)
(1.28451 0.237469 9.25857e-20)
(1.27396 0.226312 -4.08236e-20)
(1.26396 0.214711 -3.24523e-20)
(1.25463 0.202922 -3.00442e-20)
(1.24589 0.190799 -1.91715e-20)
(1.23771 0.178458 -6.40857e-20)
(0.0486358 -0.00343753 1.61444e-19)
(0.176299 -0.00197798 -1.62103e-19)
(0.336643 0.0189162 1.9437e-20)
(0.520899 0.0546772 -2.05747e-20)
(0.714649 0.101053 -5.47343e-20)
(0.89911 0.151861 -1.131e-19)
(1.05606 0.199468 -1.72547e-20)
(1.17379 0.237489 7.69964e-20)
(1.25016 0.26277 3.55838e-20)
(1.29111 0.27557 -4.37355e-20)
(1.30663 0.278376 4.94119e-20)
(1.30674 0.274371 -1.07691e-20)
(1.29909 0.266308 -1.00449e-19)
(1.28841 0.25606 1.48706e-19)
(1.27714 0.244694 4.17419e-20)
(1.26627 0.23274 -2.31866e-20)
(1.25615 0.220468 2.83544e-20)
(1.24678 0.208077 4.52233e-20)
(1.23806 0.195357 4.58706e-20)
(1.22982 0.182793 4.98702e-20)
(0.0589965 -0.00221263 -1.68482e-19)
(0.205316 0.00367053 1.3591e-19)
(0.381684 0.0310317 5.98452e-20)
(0.577323 0.0737287 -1.23291e-19)
(0.775521 0.125814 -2.68866e-20)
(0.956424 0.179679 -1.03835e-19)
(1.10307 0.227179 4.17144e-20)
(1.207 0.262552 -6.96128e-20)
(1.26963 0.283905 5.32197e-21)
(1.2994 0.292701 1.13753e-20)
(1.30722 0.292157 2.17257e-20)
(1.30273 0.285663 -8.32956e-20)
(1.29268 0.27584 8.6406e-20)
(1.28089 0.264323 -6.21408e-20)
(1.26914 0.251974 -1.72938e-20)
(1.2581 0.239204 8.65728e-21)
(1.24794 0.226231 -1.96922e-20)
(1.23858 0.213201 -4.66156e-20)
(1.22993 0.199887 -2.09657e-21)
(1.22168 0.187061 -3.38387e-20)
(0.070045 -0.000243325 -2.10473e-20)
(0.235448 0.0113295 -6.41514e-20)
(0.427201 0.04598 -2.19989e-20)
(0.632527 0.0958142 3.53196e-20)
(0.832794 0.153118 -2.24787e-20)
(1.00789 0.20907 2.30076e-20)
(1.14298 0.255439 5.43468e-20)
(1.23314 0.287443 4.85735e-20)
(1.28311 0.304565 3.87702e-20)
(1.30325 0.309378 -8.71154e-21)
(1.30482 0.305656 -2.31223e-20)
(1.29685 0.296847 2.75753e-20)
(1.28509 0.28537 -1.37218e-20)
(1.27257 0.272619 1.75037e-20)
(1.26055 0.259281 -1.09494e-20)
(1.24944 0.245669 2.3655e-20)
(1.2393 0.231968 -6.53468e-21)
(1.23003 0.218268 2.9031e-20)
(1.22149 0.204362 -7.28814e-21)
(1.21326 0.191236 4.82679e-21)
(0.0816524 0.00254681 -5.08336e-22)
(0.266269 0.0211115 -2.81192e-22)
(0.472472 0.0637794 -7.75084e-21)
(0.685608 0.120774 3.90139e-20)
(0.885651 0.182645 2.52593e-20)
(1.05309 0.23967 -1.9572e-20)
(1.17586 0.28397 -1.48284e-20)
(1.25273 0.312027 -4.56058e-21)
(1.29131 0.324738 -2.17655e-20)
(1.30331 0.325653 -1.2959e-21)
(1.29993 0.318926 9.6712e-22)
(1.28936 0.307945 -9.64336e-21)
(1.27645 0.29489 -6.28076e-21)
(1.26348 0.28092 -1.44436e-20)
(1.25135 0.266575 -1.56567e-20)
(1.24028 0.252097 -1.40519e-21)
(1.23024 0.23764 5.97735e-21)
(1.2211 0.223247 6.64776e-21)
(1.21272 0.208753 7.91037e-21)
(1.20457 0.195291 1.15586e-20)
(0.0936663 0.00621853 2.57348e-20)
(0.297315 0.0330794 -4.18438e-21)
(0.516766 0.0843731 -7.31925e-21)
(0.735732 0.148376 1.87489e-20)
(0.933438 0.214038 3.75614e-20)
(1.09178 0.271125 -1.66785e-20)
(1.20197 0.312526 -1.35604e-20)
(1.26631 0.336197 -2.53202e-20)
(1.29485 0.344417 -2.26956e-20)
(1.30012 0.341557 4.32112e-21)
(1.2929 0.331991 -3.88537e-21)
(1.28048 0.318955 -1.61037e-21)
(1.26682 0.304369 -9.1419e-21)
(1.25365 0.289183 -1.47402e-20)
(1.24154 0.273812 -3.26238e-21)
(1.23059 0.258444 -1.16368e-21)
(1.22072 0.243209 -4.69152e-22)
(1.2118 0.228104 3.08009e-21)
(1.20363 0.213028 1.21075e-20)
(1.19562 0.199197 1.00308e-20)
(0.105914 0.0108135 -1.57413e-20)
(0.328097 0.0472405 -2.5218e-20)
(0.559367 0.10763 -3.36333e-20)
(0.782161 0.178325 4.50425e-20)
(0.975662 0.246917 4.27287e-20)
(1.12389 0.303095 3.65974e-22)
(1.22161 0.340888 1.58445e-20)
(1.27442 0.35986 4.39762e-20)
(1.2943 0.36359 4.76113e-20)
(1.2941 0.3571 3.02777e-20)
(1.28399 0.344847 -7.36581e-20)
(1.27032 0.329848 3.05137e-20)
(1.25626 0.313764 -1.33941e-20)
(1.24308 0.297354 3.16823e-20)
(1.23111 0.280939 -6.46031e-22)
(1.22037 0.264662 -5.2855e-21)
(1.21075 0.248631 2.94938e-21)
(1.2021 0.232801 2.72386e-20)
(1.19422 0.217149 -1.12725e-20)
(1.18641 0.202926 -1.16291e-21)
(0.118209 0.0163516 -5.19698e-20)
(0.358116 0.0635453 1.21353e-19)
(0.599599 0.133348 1.17728e-20)
(0.824267 0.210274 -1.54079e-19)
(1.01198 0.28089 -2.76247e-20)
(1.14948 0.335257 6.49321e-20)
(1.23516 0.368861 -1.48692e-19)
(1.27758 0.382932 -9.96829e-22)
(1.29011 0.382232 1.22275e-20)
(1.28559 0.37227 -3.41513e-21)
(1.2734 0.357465 3.87056e-20)
(1.25896 0.340577 -6.20245e-20)
(1.24479 0.323014 9.47064e-21)
(1.23175 0.305375 -2.14953e-20)
(1.22005 0.2879 -1.63451e-20)
(1.20961 0.270702 1.58568e-20)
(1.20032 0.253863 -1.54773e-21)
(1.19202 0.237301 -4.25111e-20)
(1.18447 0.221073 1.72889e-21)
(1.17691 0.206447 -1.95427e-20)
(0.130354 0.0228292 3.90568e-20)
(0.38688 0.0818866 -6.94906e-20)
(0.636843 0.161262 -5.58026e-21)
(0.861539 0.243839 -1.31824e-19)
(1.0422 0.31556 -7.85285e-20)
(1.16871 0.367304 6.40585e-20)
(1.24303 0.39626 -7.38911e-20)
(1.27625 0.405325 8.08331e-21)
(1.28268 0.400302 5.80976e-20)
(1.27485 0.38703 -1.61224e-20)
(1.26126 0.369796 6.26027e-21)
(1.24646 0.351077 1.9355e-20)
(1.23241 0.332051 -6.36629e-20)
(1.21968 0.313178 8.0345e-20)
(1.20834 0.294636 7.4097e-20)
(1.1983 0.27651 -1.75206e-20)