/*--------------------------------*- C++ -*----------------------------------*\
  =========                 |
  \\      /  F ield         | OpenFOAM: The Open Source CFD Toolbox
   \\    /   O peration     | Website:  https://openfoam.org
    \\  /    A nd           | Version:  7
     \\/     M anipulation  |
\*---------------------------------------------------------------------------*/
FoamFile
{
    version     2.0;
    format      ascii;
    class       volScalarField;
    location    "3";
    object      p;
}
// * * * * * * * * * * * * * * * * * * * * * * * * * * * * * * * * * * * * * //

dimensions      [0 2 -2 0 0 0 0];

internalField   nonuniform List<scalar> 
344
(
4.42216
4.41129
4.40055
4.38992
4.3794
4.36898
4.35867
4.34845
4.33832
4.32828
4.31832
4.30845
4.29864
4.28891
4.27926
4.26967
4.26014
4.25069
4.24129
4.23195
4.22267
4.21344
4.20427
4.19515
4.18608
4.17707
4.1681
4.15917
4.15029
4.14146
4.13267
5.0523
5.04976
5.03306
5.00928
4.98132
4.95137
4.92109
4.89147
4.86307
4.83615
4.81076
4.78689
4.76444
4.74328
4.72329
4.70433
4.68631
4.6691
4.65262
4.63678
4.62151
4.60675
4.59245
4.57855
4.56502
4.55182
4.53891
4.52628
4.5139
4.50175
4.4898
4.47805
4.46648
4.45507
4.44382
4.43272
4.42175
4.41091
4.40019
4.38959
4.37909
4.3687
4.35841
4.3482
4.33809
4.32807
4.31812
4.30826
4.29847
4.28875
4.2791
4.26952
4.26
4.25055
4.24116
4.23183
4.22255
4.21333
4.20417
4.19505
4.18599
4.17698
4.16801
4.15909
4.15022
4.14139
4.1326
5.06581
5.06279
5.04396
5.01758
4.98712
4.955
4.92297
4.89203
4.86267
4.83509
4.80927
4.78514
4.76256
4.74135
4.72137
4.70247
4.68452
4.66741
4.65103
4.63529
4.62013
4.60547
4.59126
4.57745
4.56401
4.55088
4.53805
4.52549
4.51317
4.50107
4.48918
4.47748
4.46595
4.45459
4.44337
4.4323
4.42137
4.41055
4.39986
4.38928
4.37881
4.36843
4.35816
4.34797
4.33787
4.32786
4.31793
4.30808
4.2983
4.28859
4.27895
4.26938
4.25987
4.25043
4.24104
4.23172
4.22245
4.21323
4.20407
4.19496
4.1859
4.17689
4.16793
4.15901
4.15014
4.14132
4.13253
5.08068
5.07693
5.05557
5.02616
4.9929
4.95843
4.92458
4.8923
4.862
4.8338
4.8076
4.78326
4.76058
4.73936
4.71943
4.7006
4.68275
4.66574
4.64947
4.63385
4.61879
4.60423
4.59012
4.5764
4.56304
4.54999
4.53724
4.52474
4.51248
4.50044
4.48859
4.47694
4.46545
4.45412
4.44295
4.43191
4.421
4.41021
4.39955
4.38899
4.37853
4.36818
4.35792
4.34775
4.33767
4.32767
4.31775
4.3079
4.29814
4.28844
4.27881
4.26924
4.25974
4.25031
4.24093
4.23161
4.22234
4.21313
4.20398
4.19487
4.18582
4.17681
4.16785
4.15894
4.15007
4.14125
4.13247
5.09719
5.09233
5.06794
5.035
4.99861
4.96162
4.92586
4.89224
4.86105
4.83228
4.80576
4.78126
4.75853
4.73734
4.71747
4.69875
4.681
4.66411
4.64796
4.63245
4.6175
4.60305
4.58903
4.5754
4.56212
4.54915
4.53646
4.52402
4.51182
4.49983
4.48804
4.47643
4.46498
4.45369
4.44254
4.43153
4.42065
4.40989
4.39925
4.38871
4.37827
4.36794
4.35769
4.34754
4.33747
4.32748
4.31757
4.30774
4.29798
4.28829
4.27867
4.26911
4.25962
4.25019
4.24082
4.2315
4.22224
4.21304
4.20389
4.19479
4.18573
4.17673
4.16778
4.15887
4.15
4.14118
4.1324
5.11572
5.10914
5.08111
5.04404
5.00418
4.96448
4.92678
4.89184
4.85981
4.83055
4.80377
4.77916
4.75643
4.7353
4.71553
4.69691
4.6793
4.66253
4.6465
4.6311
4.61626
4.60191
4.58799
4.57445
4.56124
4.54835
4.53572
4.52335
4.5112
4.49926
4.48751
4.47594
4.46453
4.45328
4.44216
4.43118
4.42033
4.40959
4.39896
4.38845
4.37803
4.36771
4.35748
4.34734
4.33728
)
;

boundaryField
{
    inlet
    {
        type            zeroGradient;
    }
    outlet
    {
        type            fixedValue;
        value           nonuniform 0();
    }
    wall
    {
        type            zeroGradient;
    }
    wedge1
    {
        type            wedge;
    }
    wedge2
    {
        type            wedge;
    }
    axis
    {
        type            empty;
    }
    procBoundary24to18
    {
        type            processor;
        value           nonuniform List<scalar> 
68
(
4.42259
4.41169
4.40092
4.39026
4.37972
4.36928
4.35895
4.34871
4.33857
4.32851
4.31854
4.30864
4.29883
4.28909
4.27942
4.26982
4.26029
4.25082
4.24142
4.23207
4.22278
4.21355
4.20438
4.19525
4.18618
4.17716
4.16818
4.15926
4.15037
4.14154
4.13274
5.03994
5.03772
5.02282
5.0013
4.97556
4.94761
4.91898
4.89065
4.86322
4.83698
4.81207
4.7885
4.76622
4.74514
4.72516
4.70618
4.68809
4.6708
4.65423
4.6383
4.62293
4.60807
4.59368
4.57969
4.56607
4.55279
4.53981
4.52711
4.51467
4.50246
4.49046
4.47865
4.46704
4.45559
4.4443
4.43316
4.43316
)
;
    }
    procBoundary24to19
    {
        type            processor;
        value           uniform 4.12392;
    }
    procBoundary24to25
    {
        type            processor;
        value           nonuniform List<scalar> 4(4.12385 4.12379 4.12373 4.12366);
    }
    procBoundary24to30
    {
        type            processor;
        value           nonuniform List<scalar> 
68
(
4.32731
4.31741
4.30758
4.29783
4.28815
4.27854
4.26899
4.2595
4.25008
4.24071
4.2314
4.22215
4.21295
4.2038
4.1947
4.18565
4.17666
4.1677
4.1588
4.14993
4.14112
4.13234
5.13679
5.12753
5.09511
5.05323
5.0095
4.96695
4.92728
4.89108
4.85829
4.82861
4.80164
4.77699
4.7543
4.73325
4.7136
4.69512
4.67763
4.661
4.64509
4.62982
4.61509
4.60083
4.587
4.57354
4.56042
4.54759
4.53503
4.52271
4.51062
4.49873
4.48702
4.47549
4.46411
4.45289
4.4418
4.43085
4.42002
4.4093
4.3987
4.3882
4.3778
4.36749
4.35728
4.34715
4.32731
4.3371
)
;
    }
}


// ************************************************************************* //
