/*--------------------------------*- C++ -*----------------------------------*\
  =========                 |
  \\      /  F ield         | OpenFOAM: The Open Source CFD Toolbox
   \\    /   O peration     | Website:  https://openfoam.org
    \\  /    A nd           | Version:  7
     \\/     M anipulation  |
\*---------------------------------------------------------------------------*/
FoamFile
{
    version     2.0;
    format      ascii;
    class       volScalarField;
    location    "1";
    object      p;
}
// * * * * * * * * * * * * * * * * * * * * * * * * * * * * * * * * * * * * * //

dimensions      [0 2 -2 0 0 0 0];

internalField   nonuniform List<scalar> 
433
(
0.566854
0.460316
0.843949
0.708016
0.58011
0.459146
1.19822
1.02784
0.864672
0.709478
0.564879
0.43391
1.63197
1.41873
1.21647
1.02438
0.842328
0.670432
0.512175
0.379422
1.86293
1.6208
1.39142
1.17301
0.96493
0.767053
0.578867
0.40664
0.275608
2.27666
2.01846
1.76927
1.52767
1.29345
1.06681
0.848111
0.63704
0.430641
0.235323
0.0469771
2.4624
2.27841
2.06669
1.83892
1.60362
1.3667
1.13209
0.902283
0.678786
0.461844
0.248333
0.0440116
-0.153538
2.15509
2.24074
2.18109
2.03436
1.83808
1.61583
1.382
1.14519
0.910337
0.680231
0.456375
0.239055
0.0252717
-0.178926
-0.375581
2.55975
2.47435
2.30336
2.08575
1.84549
1.59662
1.347
1.10085
0.860294
0.626376
0.399581
0.180147
-0.0321515
-0.240403
-0.438648
-0.629988
6.19759
4.76557
3.72627
2.96393
2.39132
1.94531
1.58198
1.27187
0.995956
0.742412
0.5042
0.277305
0.0595755
-0.15003
-0.352173
-0.550009
-0.737882
-0.920319
8.89218
6.32747
4.54972
3.3248
2.47486
1.87097
1.42368
1.07348
0.782289
0.526697
0.292928
0.0732472
-0.136438
-0.338102
-0.532532
-0.720048
-0.903528
-1.07759
-1.24808
0.855642
0.680906
0.503667
0.322135
0.13685
-0.0506536
-0.238586
-0.425259
-0.60922
-0.789261
-0.964376
-1.13382
-1.29988
-1.45738
-1.61322
-0.468287
-0.554061
-0.677023
-0.820513
-0.974081
-1.13125
-1.28799
-1.44177
-1.59095
-1.73734
-1.87607
-2.01482
-1.55667
-1.6929
-1.82828
-1.96065
-2.08852
-2.21369
-2.33187
-2.45133
-2.51773
-2.62367
-2.72647
-2.82264
-2.92083
-3.42116
0.116143
0.218474
0.247385
0.272512
0.28572
-0.0461691
0.0506506
0.0804682
0.103077
0.121064
-0.151736
-0.0688426
-0.0326771
-0.00407184
0.0210207
-0.227844
-0.154177
-0.111664
-0.0743353
-0.0397028
-0.279353
-0.211927
-0.165028
-0.120566
-0.0774682
-0.310749
-0.247518
-0.197777
-0.148486
-0.0993246
-0.326711
-0.26643
-0.214957
-0.162789
-0.109932
-0.331311
-0.273313
-0.22099
-0.167442
-0.112804
-0.327914
-0.271929
-0.219522
-0.165738
-0.110765
-0.319254
-0.265248
-0.213424
-0.16028
-0.10603
-0.307484
-0.25554
-0.204863
-0.153022
-3.01616
-3.04879
-3.08625
-3.09985
-3.05009
-2.89579
-2.5858
-2.09264
-1.38172
-0.522182
-2.96739
-2.99227
-3.01543
-3.00839
-2.93304
-2.75135
-2.42042
-1.9251
-1.2521
-0.492083
-2.91648
-2.9335
-2.94239
-2.91531
-2.81616
-2.61108
-2.26614
-1.77875
-1.15409
-0.497257
-2.86323
-2.87237
-2.86717
-2.82083
-2.69988
-2.47523
-2.12205
-1.64884
-1.07509
-0.507998
-2.80785
-2.80915
-2.7902
-2.72564
-2.58514
-2.34472
-1.98843
-1.53366
-1.00961
-0.516121
-2.75038
-2.74395
-2.71172
-2.63011
-2.47236
-2.21979
-1.86461
-1.43074
-0.952738
-0.517723
-2.69087
-2.67688
-2.63192
-2.53459
-2.36194
-2.10058
-1.74992
-1.33808
-0.901455
-0.512458
-2.62938
-2.60806
-2.55104
-2.4394
-2.25421
-1.98714
-1.64365
-1.254
-0.853903
-0.501327
-2.566
-2.53764
-2.46933
-2.34486
-2.14944
-1.8794
-1.54508
-1.17712
-0.80897
-0.485702
-2.50083
-2.46577
-2.38701
-2.25127
-2.04784
-1.77725
-1.4535
-1.10637
-0.766087
-0.467006
-2.434
-2.39265
-2.30436
-2.15892
-1.94958
-1.68053
-1.36829
-1.04091
-0.725061
-0.44655
-2.36563
-3.84226
-3.9959
-4.09623
-4.11796
-3.98215
-3.67103
-3.28156
-3.35664
-3.47636
-3.62317
-3.7672
-3.88677
-3.93681
-3.88855
-3.66039
-3.24128
-3.25652
-3.3272
-3.43833
-3.5706
-3.69266
-3.77892
-3.78031
-3.66523
-3.35122
-2.83521
-3.2313
-3.29766
-3.40026
-3.51828
-3.61888
-3.67277
-3.62752
-3.44919
-3.05622
-2.45476
-3.20593
-3.26707
-3.36218
-3.46636
-3.54603
-3.5687
-3.47915
-3.24157
-2.77674
-2.10147
-3.18046
-3.23748
-3.32418
-3.41494
-3.4743
-3.46708
-3.33587
-3.04344
-2.51404
-1.77647
-3.1549
-3.20793
-3.28639
-3.36407
-3.40388
-3.36824
-3.1983
-2.85581
-2.26925
-1.48042
-3.12931
-3.1784
-3.24887
-3.31382
-3.33485
-3.27242
-3.0669
-2.67957
-2.04343
-1.21333
-3.1036
-3.14886
-3.21154
-3.26407
-3.26711
-3.17955
-2.94178
-2.51527
-1.83743
-0.973641
-3.07778
-3.11923
-3.17418
-3.21438
-3.19984
-3.08833
-2.8212
-2.36112
-1.65048
-0.757343
-3.0521
-3.08989
-3.13725
-3.16553
-3.13448
-3.00163
-2.71067
-2.22729
-1.50161
-0.596122
)
;

boundaryField
{
    inlet
    {
        type            zeroGradient;
    }
    outlet
    {
        type            fixedValue;
        value           nonuniform 0();
    }
    cylinder
    {
        type            zeroGradient;
    }
    top
    {
        type            symmetryPlane;
    }
    bottom
    {
        type            symmetryPlane;
    }
    defaultFaces
    {
        type            empty;
    }
    procBoundary24to18
    {
        type            processor;
        value           nonuniform List<scalar> 
35
(
1.7843
1.46722
1.22985
1.0341
1.0341
-0.768215
-0.526106
-0.445739
-0.445739
-1.10425
-1.18608
-1.29661
-1.42286
-1.42286
-2.17005
-2.29045
-2.40646
-2.40646
-3.11104
-3.19412
-3.27339
-3.34616
-3.34616
-3.95006
-3.91759
-4.10586
-4.25777
-4.35215
-4.31471
-4.12219
-3.30639
-3.38597
-3.51438
-3.67572
-3.67572
)
;
    }
    procBoundary24to19
    {
        type            processor;
        value           nonuniform List<scalar> 8(1.83656 1.83656 2.20106 2.4989 2.4989 8.16927 8.16927 12.5367);
    }
    procBoundary24to25
    {
        type            processor;
        value           nonuniform List<scalar> 
24
(
0.530826
0.441404
0.790583
0.675589
0.675589
1.13054
0.985331
0.985331
1.55838
1.37529
1.37529
1.8579
1.8579
2.40123
2.12114
2.12114
2.84175
2.54798
2.54798
2.68238
2.60338
2.60338
0.285329
0.133731
)
;
    }
    procBoundary24to30
    {
        type            processor;
        value           nonuniform List<scalar> 
17
(
-0.100249
-0.294249
-0.244493
-0.195416
-0.100249
-0.145367
-2.31844
-2.22161
-2.06806
-1.85479
-1.58903
-1.2889
-0.980146
-0.685913
-0.425453
-2.31844
-2.29591
)
;
    }
    procBoundary24to31
    {
        type            processor;
        value           nonuniform List<scalar> 8(0.0435562 -0.00682942 -0.035399 -0.0503836 -0.0566152 -0.057261 -0.0546597 -0.0505798);
    }
}


// ************************************************************************* //
