/*--------------------------------*- C++ -*----------------------------------*\
  =========                 |
  \\      /  F ield         | OpenFOAM: The Open Source CFD Toolbox
   \\    /   O peration     | Website:  https://openfoam.org
    \\  /    A nd           | Version:  7
     \\/     M anipulation  |
\*---------------------------------------------------------------------------*/
FoamFile
{
    version     2.0;
    format      ascii;
    class       surfaceScalarField;
    location    "1";
    object      phi;
}
// * * * * * * * * * * * * * * * * * * * * * * * * * * * * * * * * * * * * * //

dimensions      [0 3 -1 0 0 0 0];

internalField   nonuniform List<scalar> 
809
(
-0.000497792
-0.00268232
-0.00279787
-0.000615928
-0.00037822
-0.00236474
-0.000496352
-0.00245789
-0.000617216
-0.00256146
-0.00267554
-0.000739555
-0.000260744
-0.0020963
-0.000374475
-0.00216781
-0.000491461
-0.00224775
-0.00061213
-0.00233722
-0.000736651
-0.00243694
-0.00254915
-0.000863039
-0.000151815
-0.00186537
-0.00026127
-0.0019225
-0.000372586
-0.00198498
-0.000486402
-0.00205399
-0.000603659
-0.00213049
-0.000725578
-0.0022153
-0.000853415
-0.0023091
-0.00241628
-0.000986282
-0.000158246
-0.00170501
-0.000266468
-0.00175714
-0.000375678
-0.00181329
-0.000486203
-0.00187446
-0.000598701
-0.00194149
-0.000714256
-0.00201494
-0.000835068
-0.00209449
-0.000964579
-0.00217959
-0.00226811
-0.00111275
-6.06787e-05
-0.00150209
-0.000168153
-0.00154839
-0.000276107
-0.00159706
-0.000384424
-0.00164883
-0.00049323
-0.00170448
-0.000602894
-0.00176479
-0.000713974
-0.00183041
-0.000827144
-0.00190177
-0.000942803
-0.00197883
-0.00106351
-0.00205888
-0.0021435
-0.00118811
4.13299e-05
-0.00130102
-7.00416e-05
-0.00134618
-0.000180081
-0.00139205
-0.0002891
-0.00143937
-0.000397391
-0.00148877
-0.000505336
-0.00154088
-0.000613446
-0.00159637
-0.000722364
-0.00165588
-0.00083281
-0.00171997
-0.000945512
-0.00178907
-0.00106104
-0.00186331
-0.00117998
-0.00193994
-0.00201961
-0.00130387
0.000137427
-0.00108912
2.1637e-05
-0.00113971
-9.13199e-05
-0.00118806
-0.000201777
-0.00123572
-0.000310172
-0.00128365
-0.000417013
-0.00133253
-0.000522882
-0.0013829
-0.000628431
-0.00143534
-0.00073437
-0.00149043
-0.000841444
-0.0015488
-0.000950379
-0.00161103
-0.00106183
-0.00167761
-0.00117637
-0.00174877
-0.00129469
-0.00182162
-0.00189762
-0.00141668
5.28672e-05
-0.000936856
-4.73394e-05
-0.000988911
-0.000148596
-0.00103845
-0.00024977
-0.00108689
-0.000350424
-0.00113506
-0.000450565
-0.00118351
-0.000550475
-0.00123262
-0.000650603
-0.00128277
-0.000751493
-0.00133445
-0.000853734
-0.00138819
-0.000957917
-0.00144462
-0.00106459
-0.00150436
-0.00117423
-0.00156798
-0.0012872
-0.0016358
-0.00140415
-0.00170468
-0.00177694
-0.00152482
-1.84358e-06
-0.00074798
-7.71497e-05
-0.000804813
-0.00015724
-0.000856766
-0.000240331
-0.00090582
-0.000325423
-0.000953359
-0.000412064
-0.00100024
-0.000500143
-0.00104699
-0.000589745
-0.00109391
-0.000681068
-0.00114129
-0.000774378
-0.00118946
-0.00086998
-0.00123884
-0.000968199
-0.00128997
-0.00106936
-0.00134346
-0.00117375
-0.00139996
-0.00128164
-0.00146009
-0.0013932
-0.00152424
-0.00150899
-0.00158889
-0.00165719
-0.00162874
-6.13311e-05
-0.000148162
-0.000230707
-0.000310566
-0.000389171
-0.000827215
-0.000467726
-0.000874804
-0.000547193
-0.000920777
-0.000628319
-0.000965861
-0.000711664
-0.00101056
-0.000797648
-0.00105531
-0.000886591
-0.00110052
-0.000978741
-0.00114669
-0.00107431
-0.00119441
-0.00117347
-0.0012443
-0.00127637
-0.00129706
-0.00138315
-0.00135331
-0.00149388
-0.00141351
-0.00160907
-0.0014737
-0.00153776
-0.00172849
-0.000493812
-0.000572242
-0.00065097
-0.00073094
-0.00088589
-0.000812925
-0.00092858
-0.000897527
-0.000970708
-0.000985196
-0.00101285
-0.00107626
-0.00105563
-0.00117096
-0.00109971
-0.00126946
-0.0011458
-0.00137189
-0.00119462
-0.00147836
-0.00124684
-0.00158894
-0.00130293
-0.00170412
-0.00135852
-0.00141811
-0.00182378
-0.000822011
-0.00090265
-0.000986493
-0.00107378
-0.0011647
-0.000964708
-0.00125941
-0.001005
-0.00135803
-0.00104718
-0.00146068
-0.00109198
-0.00156743
-0.00114009
-0.00167837
-0.00119199
-0.00179402
-0.00124287
-0.0012978
-0.00191432
-0.00124588
-0.00134093
-0.00144006
-0.00154328
-0.000988752
-0.00165068
-0.0010327
-0.00176231
-0.00108036
-0.00187871
-0.00112647
-0.00117661
-0.0019999
-0.00162001
-0.00172833
-0.00184088
-0.0019582
-0.00105442
-0.00208039
-0.00215573
0.00534134
-0.00126569
-0.0051884
0.00548136
-0.0011263
0.00563977
-0.00102145
0.00580625
-0.000906039
-0.000787752
0.00576299
-0.00138989
-0.00563879
0.00590043
-0.00126373
0.0060385
-0.00115953
0.00618187
-0.0010494
-0.000936145
0.00618865
-0.00150041
-0.00607813
0.00630992
-0.001385
0.00643233
-0.00128193
0.00655736
-0.00117444
-0.00106386
0.00660788
-0.00159853
-0.00650976
0.00671391
-0.00149103
0.00682112
-0.00138915
0.00692958
-0.00128289
-0.00117335
0.00701904
-0.00168425
-0.00693332
0.00710999
-0.00158198
0.0072018
-0.00148096
0.00729421
-0.0013753
-0.00126611
0.00742151
-0.0017572
-0.00734856
0.00749788
-0.00165835
0.0075747
-0.00155777
0.00765181
-0.00145241
-0.00134337
0.00781527
-0.00181735
-0.00775512
0.0078777
-0.00172078
0.00794036
-0.00162044
0.00800323
-0.00151528
-0.00140644
0.00820105
-0.00186507
-0.00815333
0.00825038
-0.00177011
0.00829993
-0.00166999
0.00834976
-0.00156511
-0.00145663
0.00858034
-0.00190104
-0.00854438
0.00861752
-0.00180729
0.00865504
-0.00170751
0.00869301
-0.00160308
-0.00149518
0.00895493
-0.00192601
-0.00892996
0.00898094
-0.00183329
0.00900747
-0.00173404
0.00903469
-0.0016303
0.00932669
-0.00931191
0.00934246
0.00935899
0.00605277
0.00018381
-0.000146255
0.00596206
0.000748218
-0.000657502
0.00584565
0.00122338
-0.00110698
0.005715
0.00162422
-0.00149357
0.00557536
0.00206291
-0.00192327
0.00543545
0.0025857
-0.00244578
0.00530468
0.00317544
-0.00304468
0.00520476
0.00383114
-0.00373123
0.00515116
0.00446874
-0.00441514
0.00512365
-0.00516089
0.00627293
0.000221592
0.00618221
0.000838934
0.00606734
0.00133825
0.00594095
0.00175061
0.00580994
0.00219392
0.00568582
0.00270982
0.00557995
0.00328131
0.00552069
0.0038904
0.00552507
0.00446437
0.00500993
0.00650129
0.000259363
0.00641137
0.000928857
0.00629911
0.00145051
0.00617853
0.00187119
0.00605804
0.00231441
0.00595195
0.00281591
0.00587263
0.00336063
0.00585294
0.00391009
0.00590696
0.00441034
0.00483875
0.00673822
0.00029682
0.00664986
0.00101722
0.00654132
0.00155905
0.00642794
0.00198457
0.00631971
0.00242264
0.006233
0.00290262
0.00618135
0.00341228
0.00619774
0.0038937
0.00629839
0.00430969
0.00462738
0.00698402
0.000333664
0.00689797
0.00110327
0.00679425
0.00166277
0.00668938
0.00208944
0.00659496
0.00251707
0.00652857
0.00296901
0.00650509
0.00343576
0.00655413
0.00384467
0.00669426
0.00416957
0.00438832
0.00723898
0.000369602
0.007156
0.00118624
0.00705816
0.0017606
0.006963
0.00218461
0.00688367
0.0025964
0.00683802
0.00301466
0.0068423
0.00343148
0.00692018
0.00376679
0.00709105
0.0039987
0.00413081
0.00750341
0.000404346
0.00742426
0.00126539
0.00733331
0.00185155
0.00724889
0.00226903
0.0071856
0.00265969
0.00716067
0.00303958
0.00719131
0.00340084
0.00729414
0.00366396
0.00748702
0.00380581
0.00386271
0.00777767
0.000437609
0.00770307
0.00133999
0.00761994
0.00193468
0.00754717
0.00234181
0.00750049
0.00270637
0.00749586
0.00304421
0.00755065
0.00334604
0.00767456
0.00354005
0.0078816
0.00359877
0.00359098
0.00806207
0.000469108
0.00799274
0.00140932
0.00791829
0.00200913
0.0078579
0.00240221
0.00782804
0.00273623
0.00784292
0.00302933
0.00791913
0.00326984
0.00806026
0.00339892
0.00827488
0.00338415
0.00332149
0.00835698
0.000498562
0.00829359
0.00147271
0.00822859
0.00207413
0.00818113
0.00244967
0.00816795
0.00274941
0.00820125
0.00299603
0.0082958
0.00317529
0.00845034
0.00324438
0.00866734
0.00316714
0.00305887
0.00866277
0.0005257
0.00860596
0.00855105
0.0085169
0.00851993
0.00857026
0.00867998
0.00884423
0.00905963
0.0032273
0.000354465
0.00308555
0.00062452
0.00291217
0.000895702
0.00269817
0.00122456
0.00244781
0.00150234
0.00182328
0.00352468
-0.000610475
0.00347466
-0.000361815
0.00339953
-5.48204e-05
0.00330358
0.000213272
0.00318452
0.000473522
0.0030365
0.000772549
0.00285645
0.00107575
0.00263584
0.00144517
0.00237854
0.00175963
0.00212143
0.0035126
-0.000587545
0.00345209
-0.000301304
0.00336799
2.92864e-05
0.00326418
0.000317073
0.00313793
0.000599776
0.00298319
0.000927285
0.00279606
0.00126289
0.00256875
0.00167248
0.00230427
0.00202411
0.0024258
0.00349952
-0.000551528
0.00342765
-0.000229437
0.00333381
0.000123124
0.00322163
0.000429254
0.00308762
0.000733784
0.0029258
0.00108911
0.00273119
0.0014575
0.00249709
0.00190658
0.00222523
0.00229597
0.00273671
0.00348542
-0.00050141
0.00340142
-0.000145436
0.00329712
0.000227418
0.00317599
0.000550382
0.00303375
0.000876028
0.00286447
0.00125839
0.00266207
0.0016599
0.00242109
0.00214756
0.00214169
0.00257537
0.00305462
0.00347038
-0.00043626
0.00337339
-4.84436e-05
0.00325798
0.000342829
0.00312737
0.000680995
0.00297647
0.00102693
0.00279941
0.00143545
0.00258895
0.00187036
0.00234102
0.00239549
0.00205402
0.00286237
0.00338015
0.00345442
-0.000355141
0.00334364
6.23342e-05
0.00321652
0.000469951
0.00307587
0.000821635
0.00291594
0.00118687
0.00273081
0.00162058
0.00251213
0.00208904
0.00225723
0.00265038
0.00196262
0.00315698
0.00371403
0.00343755
-0.000257157
0.00331225
0.000187635
0.00317281
0.000609393
0.00302164
0.000972804
0.0028523
0.00135621
0.00265883
0.00181404
0.00243184
0.00231603
0.00217007
0.00291215
0.00186773
0.00345931
0.00405694
0.00341982
-0.000141439
0.00327926
0.000328191
0.00312691
0.000761747
0.00296473
0.00113498
0.00278563
0.00153531
0.00258359
0.00201609
0.00234833
0.00255128
0.0020801
0.00318038
0.0017694
0.00377002
0.00440966
0.00340127
-7.17714e-06
0.0032448
0.000484666
0.00307899
0.000927553
0.00290536
0.00130861
0.00271612
0.00172454
0.00250517
0.00222704
0.00226157
0.00279488
0.00198745
0.0034545
0.00166653
0.00409093
0.00477232
0.0033821
0.00320927
0.00302984
0.00284488
0.00264615
0.00242741
0.00217762
0.00190089
0.00157668
)
;

boundaryField
{
    inlet
    {
        type            calculated;
        value           nonuniform List<scalar> 
22
(
-0.00609033
-0.00631071
-0.00653906
-0.00677568
-0.00702086
-0.00727491
-0.00753816
-0.00781093
-0.00809357
-0.00838644
-0.0086899
-0.00900435
-0.00353553
-0.00353553
-0.00353553
-0.00353553
-0.00353553
-0.00353553
-0.00353553
-0.00353553
-0.00353553
-0.00353553
)
;
    }
    outlet
    {
        type            calculated;
        value           nonuniform 0();
    }
    cylinder
    {
        type            calculated;
        value           nonuniform 0();
    }
    top
    {
        type            symmetryPlane;
        value           nonuniform 0();
    }
    bottom
    {
        type            symmetryPlane;
        value           nonuniform 0();
    }
    defaultFaces
    {
        type            empty;
        value           nonuniform 0();
    }
    procBoundary24to18
    {
        type            processor;
        value           nonuniform List<scalar> 
35
(
-0.000591235
-0.000661149
-0.000722268
-0.000776908
0.000414553
-0.000747956
-0.000796374
-0.00084205
0.000744338
-0.000808216
-0.000847941
-0.000886866
-0.00092557
0.00115489
-0.000873719
-0.000909944
-0.000948053
0.00151585
-0.000884588
-0.000924377
-0.000967816
-0.00100916
0.00203256
-0.000931239
-0.000242089
-0.000482776
-0.000722316
-0.00101056
-0.00125198
-0.0015312
0.00062133
0.000411829
0.000129957
-0.00333968
-0.000117327
)
;
    }
    procBoundary24to19
    {
        type            processor;
        value           nonuniform List<scalar> 8(-0.00025619 0.00103385 0.000815811 -0.000149865 0.000880119 -6.59868e-05 0.000683897 -3.13302e-05);
    }
    procBoundary24to25
    {
        type            processor;
        value           nonuniform List<scalar> 
24
(
0.00279916
0.00291601
0.00247997
0.000380958
0.00257602
0.00220725
0.000262987
0.00228154
0.00197334
0.000149792
0.00203195
4.38442e-05
0.00181229
0.00160876
5.09733e-05
0.00165586
0.00141421
-4.59962e-05
0.00145755
0.00120788
-0.000154527
0.0012555
0.00597808
0.00633026
)
;
    }
    procBoundary24to30
    {
        type            processor;
        value           nonuniform List<scalar> 
17
(
-0.00152322
-0.00194079
-0.00184906
-0.00175058
0.00937646
-0.00164776
0.00152952
0.00212904
0.00248382
0.00274638
0.00294571
0.00306557
0.00308013
0.00295174
0.0028066
0.00897979
0.000550258
)
;
    }
    procBoundary24to31
    {
        type            processor;
        value           nonuniform List<scalar> 8(0.00668507 0.00703908 0.00738697 0.00772907 0.00806629 0.00839994 0.00873156 0.00906273);
    }
}


// ************************************************************************* //
