/*--------------------------------*- C++ -*----------------------------------*\
  =========                 |
  \\      /  F ield         | OpenFOAM: The Open Source CFD Toolbox
   \\    /   O peration     | Website:  https://openfoam.org
    \\  /    A nd           | Version:  7
     \\/     M anipulation  |
\*---------------------------------------------------------------------------*/
FoamFile
{
    version     2.0;
    format      ascii;
    class       volScalarField;
    location    "8";
    object      p;
}
// * * * * * * * * * * * * * * * * * * * * * * * * * * * * * * * * * * * * * //

dimensions      [0 2 -2 0 0 0 0];

internalField   nonuniform List<scalar> 
433
(
-568.002
-536.957
-508.004
-476.044
-437.06
-207.313
-196.97
-184.752
-167.527
-144.448
-119.354
-96.9107
-80.2885
-69.0206
448.874
430.546
416.678
399.173
374.337
343.732
307.359
266.849
225.79
187.152
152.38
121.297
93.5599
399.402
384.988
370.138
345.515
310.578
270.336
228.657
188.816
153.607
124.853
102.282
83.9547
67.8248
52.8874
39.2326
27.4342
17.8142
-320.207
-299.143
-281.664
-267.166
-251.925
-235.85
-218.177
-198.663
-176.772
-152.415
-126.624
-101.169
-77.9664
-58.3758
-42.8796
-31.2193
-22.7548
-16.7576
-12.6061
-9.8107
-523.894
-496.885
-470.531
-438.952
-398.972
-355.252
-312.232
-272.57
-236.118
-201.718
-168.95
-138.254
-110.359
-85.8688
-65.1571
-48.4273
-35.3989
-25.6001
-18.4856
-13.5031
-10.1424
-7.96353
-6.60803
-5.79857
80.1381
77.0805
77.3761
80.195
84.3526
87.7057
86.5214
79.0074
66.9158
53.5564
41.1668
30.2303
20.773
13.0016
7.09299
2.94438
0.148495
-1.67329
-2.83922
-3.56948
-4.01404
-4.27518
-4.42056
-4.49592
-4.53028
-4.54038
-4.53597
545.584
523.73
505.457
479.796
442.892
398.715
349.893
300.068
252.893
210.543
173.367
140.313
110.485
83.8524
61.0223
42.4389
28.0286
17.3292
9.67693
4.40905
0.919292
-1.29994
-2.65163
-3.43602
-3.86516
-4.08152
-4.17619
-4.20564
-4.20158
-4.18113
142.78
141.58
137.728
125.103
105.313
82.0472
59.0412
39.1111
24.4354
16.0559
12.9159
12.5727
12.6132
11.672
9.61173
6.98139
4.30357
1.92417
0.0201953
-1.39868
-2.39367
-3.05192
-3.45921
-3.69658
-3.82532
-3.88603
-3.90649
-3.90451
-3.89042
-512.877
-483.216
-456.25
-428.121
-394.796
-358.681
-321.876
-285.536
-249.534
-213.546
-177.926
-143.716
-112.443
-85.3658
-63.134
-45.7272
-32.5734
-22.941
-16.1028
-11.4085
-8.29936
-6.31831
-5.1085
-4.39788
-3.99631
-3.77926
-3.66654
-3.60883
-346.891
-329.537
-311.217
-287.248
-256.008
-221.864
-189.536
-162.098
-139.276
-118.876
-99.7771
-82.0689
-66.1535
-52.2141
-40.2848
-30.425
-22.5645
-16.5206
-12.0497
-8.87046
-6.69949
-5.27996
-4.39503
-3.87043
-3.57633
-3.41988
-3.34064
-3.30184
336.714
322.606
312.719
301.675
286.457
267.154
242.153
211.983
179.802
148.834
120.727
95.6458
73.385
54.162
38.3452
26.0419
16.867
10.2124
5.52807
2.32839
0.210175
-1.14493
-1.98024
-2.47519
-2.75553
-2.90553
-2.97851
501.195
481.79
463.756
436.306
397.313
351.883
303.745
256.513
213.528
176.676
145.847
119.385
95.6678
74.146
55.1669
39.2534
26.635
17.0925
10.1622
5.32942
2.09304
0.0153842
-1.25821
-2.00117
-2.41227
-2.62337
-2.72176
-152.018
-138.49
-128.629
-124.407
-122.701
-121.867
-119.538
-114.302
-105.154
-91.9119
-75.8638
-59.146
-43.8738
-31.3954
-22.0307
-15.3905
-10.8956
-7.89527
-5.91208
-4.62197
-3.79749
-3.2805
-2.96419
-2.77614
-2.66316
-2.59361
-568.169
-537.502
-508.399
-475.341
-434.548
-390.007
-345.468
-303.172
-263.04
-224.45
-187.317
-152.286
-120.332
-92.3471
-68.8843
-50.0825
-35.5851
-24.7795
-16.9908
-11.5695
-7.93171
-5.58327
-4.12731
-3.26007
-2.76213
-2.48718
-91.2569
-86.356
-79.0439
-67.7508
-52.4943
-36.3789
-23.6332
-16.5526
-14.2871
-13.8851
-13.5448
-12.9921
-12.3259
-11.4496
-10.2441
-8.79922
-7.29195
-5.90179
-4.73736
-3.83592
-3.17736
-2.71985
-2.41749
-2.22647
-2.11313
505.799
485.231
468.964
447.454
416.606
379.024
336.097
290.51
246.058
205.238
168.896
136.309
106.95
81.0142
59.0705
41.4814
28.0187
18.1162
11.079
6.24692
3.04781
1.00971
-0.235751
-0.961099
-1.35968
316.408
306.494
295.211
274.338
244.121
209.149
173.401
140.148
111.994
90.4939
74.9596
63.1202
52.7248
42.6461
32.9407
24.2426
16.9564
11.2093
6.91305
3.85281
1.76757
0.412164
-0.431439
-0.932521
-1.21193
-333.85
-310.862
-286.278
-260.392
-233.469
-205.221
-175.5
-145.161
-115.742
-88.9799
-66.1704
-47.8326
-33.8044
-23.4016
-15.8948
-10.6314
-7.05621
-4.70874
-3.22655
-2.32175
-1.78846
-1.48611
)
;

boundaryField
{
    inlet
    {
        type            zeroGradient;
    }
    outlet
    {
        type            fixedValue;
        value           nonuniform 0();
    }
    cylinder
    {
        type            zeroGradient;
    }
    top
    {
        type            symmetryPlane;
    }
    bottom
    {
        type            symmetryPlane;
    }
    defaultFaces
    {
        type            empty;
    }
    procBoundary15to9
    {
        type            processor;
        value           nonuniform List<scalar> 
37
(
-30.1997
-22.9893
-19.2023
-22.6648
-30.7966
-394.474
-394.474
-351.608
-310.397
-270.745
-60.3191
-60.3191
-52.3806
-44.9044
-38.0726
69.3328
69.3328
49.0561
32.9711
20.7706
10.3796
10.3796
4.89875
1.02848
-7.9838
-7.9838
-6.82881
-6.12618
-5.7118
-5.33477
-5.33477
-5.07928
-4.94095
-4.52249
-4.52249
-4.50264
-4.47818
)
;
    }
    procBoundary15to16
    {
        type            processor;
        value           nonuniform List<scalar> 
17
(
-4.15297
-3.86982
-3.86982
-3.57737
-3.57737
-3.28086
-3.00696
-3.00696
-2.75597
-2.54895
-2.54895
-2.34095
-2.04565
-2.04565
-1.56767
-1.35365
-1.32078
)
;
    }
    procBoundary15to21
    {
        type            processor;
        value           nonuniform List<scalar> 
26
(
-391.245
-353.619
-312.61
-272.627
-236.434
-203.829
-173.378
-144.538
-117.697
-93.4485
-72.2172
-54.2256
-39.6017
-28.1512
-19.4909
-13.1631
-8.70303
-5.67699
-3.70525
-2.47467
-1.7422
-1.32513
-401.462
-376.251
-354.35
-354.35
)
;
    }
}


// ************************************************************************* //
