/*--------------------------------*- C++ -*----------------------------------*\
  =========                 |
  \\      /  F ield         | OpenFOAM: The Open Source CFD Toolbox
   \\    /   O peration     | Website:  https://openfoam.org
    \\  /    A nd           | Version:  7
     \\/     M anipulation  |
\*---------------------------------------------------------------------------*/
FoamFile
{
    version     2.0;
    format      ascii;
    class       volVectorField;
    location    "5";
    object      U;
}
// * * * * * * * * * * * * * * * * * * * * * * * * * * * * * * * * * * * * * //

dimensions      [0 1 -1 0 0 0 0];

internalField   nonuniform List<vector> 
433
(
(0.272421 0.0854295 -5.78256e-23)
(0.321371 0.0904031 3.52493e-23)
(0.370981 0.0911243 -1.31677e-22)
(0.420876 0.087683 -9.16399e-23)
(0.470744 0.0804677 4.80611e-23)
(0.520285 0.0701397 4.2656e-24)
(0.569181 0.057583 -9.68812e-24)
(0.617039 0.043842 -1.79618e-23)
(0.66339 0.0300149 6.90491e-23)
(0.707655 0.017133 1.11168e-23)
(0.749255 0.00603103 7.06732e-24)
(0.787566 -0.00275363 -1.77027e-23)
(0.822183 -0.00902603 -9.16846e-25)
(0.852675 -0.0129207 6.84052e-23)
(0.879148 -0.014803 -1.31293e-22)
(0.901373 -0.0151862 3.74423e-23)
(0.920208 -0.0145568 -2.6581e-23)
(0.93516 -0.0134049 -2.82086e-23)
(0.948194 -0.0119628 2.99894e-23)
(0.957443 -0.010621 -3.4282e-24)
(0.967113 -0.00914347 1.18005e-23)
(0.971715 -0.00824662 -1.38558e-24)
(0.980727 -0.00666023 1.055e-23)
(0.267613 0.0727495 1.26533e-21)
(0.316882 0.0779842 -2.39744e-22)
(0.36699 0.0790676 -4.89722e-22)
(0.41752 0.0760616 1.79497e-22)
(0.468109 0.069336 4.11829e-23)
(0.518402 0.059545 2.98278e-23)
(0.568022 0.0475735 4.47324e-23)
(0.616529 0.0344739 -4.21709e-23)
(0.663413 0.021352 -1.12819e-22)
(0.708078 0.0092409 1.7657e-22)
(0.749938 -0.00103243 3.78931e-23)
(0.788382 -0.00895212 9.49391e-23)
(0.823028 -0.0143501 -2.31751e-23)
(0.853475 -0.0173983 -3.84279e-22)
(0.879858 -0.0184882 3.916e-22)
(0.901975 -0.0181685 -1.03247e-22)
(0.9207 -0.0169248 1.16628e-22)
(0.935556 -0.015278 -1.14237e-22)
(0.948505 -0.0134139 -8.67878e-23)
(0.957691 -0.0117784 1.86338e-23)
(0.967303 -0.0100189 4.85672e-24)
(0.971875 -0.00899105 7.42537e-24)
(0.980841 -0.00718718 -3.96578e-23)
(0.265805 0.060013 7.04118e-22)
(0.315155 0.0654924 2.96959e-22)
(0.365522 0.0669294 1.25475e-22)
(0.416446 0.0643583 6.78794e-23)
(0.467517 0.0581292 -4.72344e-23)
(0.518322 0.0488882 -1.13791e-22)
(0.568432 0.0375185 1.50764e-22)
(0.617359 0.0250785 -6.98201e-23)
(0.664562 0.0126797 -1.55206e-22)
(0.709426 0.00135369 2.72698e-22)
(0.751364 -0.00808034 -4.64266e-23)
(0.789781 -0.0151283 -4.29977e-22)
(0.824321 -0.019649 5.60324e-23)
(0.854611 -0.021851 -4.41594e-23)
(0.880816 -0.0221508 -5.55441e-22)
(0.902757 -0.0211317 7.39544e-23)
(0.921322 -0.0192772 -1.32894e-23)
(0.936043 -0.017139 1.34603e-22)
(0.948881 -0.0148559 1.5373e-22)
(0.957987 -0.0129287 1.19234e-22)
(0.967527 -0.0108891 2.99346e-23)
(0.972063 -0.00973122 -5.82649e-24)
(0.980973 -0.00771127 5.05003e-23)
(0.267042 0.047291 1.48236e-21)
(0.316238 0.0529968 -1.53622e-21)
(0.366618 0.0547761 1.25881e-21)
(0.417689 0.0526365 -1.91047e-26)
(0.468991 0.0469074 -5.01707e-23)
(0.520062 0.0382255 1.08705e-22)
(0.570419 0.0274702 -2.81753e-22)
(0.619534 0.0157037 2.7181e-22)
(0.666833 0.00404075 -2.80345e-22)
(0.71169 -0.00649233 -4.13015e-22)
(0.753523 -0.0150821 4.82583e-22)
(0.791754 -0.0212575 9.00296e-22)
(0.826051 -0.0249034 2.24357e-22)
(0.856076 -0.0262641 2.3503e-22)
(0.882015 -0.0257799 1.36207e-22)
(0.903714 -0.0240677 3.26699e-22)
(0.922068 -0.0216084 1.85874e-23)
(0.93662 -0.0189839 -4.56233e-24)
(0.949321 -0.0162858 -6.1915e-23)
(0.95833 -0.01407 -9.01427e-23)
(0.967784 -0.0117527 -2.06297e-23)
(0.972276 -0.0104661 -3.95531e-23)
(0.981121 -0.0082319 -7.16758e-23)
(0.271325 0.034657 -1.37079e-21)
(0.32013 0.0405663 6.91624e-22)
(0.37028 0.0426749 -2.60736e-22)
(0.421246 0.0409607 -1.68126e-22)
(0.472528 0.0357315 -2.06783e-24)
(0.523612 0.0276149 1.83316e-22)
(0.57397 0.0174829 -2.46972e-22)
(0.623034 0.00639806 6.3074e-22)
(0.670206 -0.00452486 -4.5608e-22)
(0.714852 -0.0142609 5.33085e-23)
(0.756396 -0.0220075 -9.80979e-22)
(0.794282 -0.0273152 4.42255e-22)
(0.828206 -0.0300942 -4.3913e-22)
(0.857857 -0.030623 4.05622e-22)
(0.883447 -0.0293648 -2.71175e-22)
(0.904839 -0.0269689 -4.17082e-22)
(0.922935 -0.0239129 -7.3875e-23)
(0.937284 -0.0208088 -3.15926e-22)
(0.949822 -0.0177011 -2.13267e-22)
(0.958717 -0.0152005 -4.46169e-23)
(0.968073 -0.0126084 -1.07288e-22)
(0.972514 -0.0111948 -5.17934e-23)
(0.981286 -0.00874842 1.59371e-23)
(0.278602 0.0221901 -1.66798e-23)
(0.32679 0.0282707 -9.39788e-22)
(0.376469 0.0306933 -2.79457e-22)
(0.427082 0.0293959 8.97069e-23)
(0.478091 0.0246626 -3.34797e-22)
(0.528937 0.0171157 -8.00241e-22)
(0.579048 0.00761281 1.40671e-21)
(0.627824 -0.00279197 -9.57546e-22)
(0.674646 -0.0129753 -3.20565e-22)
(0.718878 -0.021916 1.36334e-22)
(0.759955 -0.0288268 1.45254e-21)
(0.797343 -0.0332777 -1.52134e-21)
(0.830765 -0.0352029 1.13739e-21)
(0.85994 -0.0349139 -8.36219e-22)
(0.885099 -0.0328951 3.48621e-22)
(0.906124 -0.0298278 9.96966e-23)
(0.923916 -0.0261855 4.19694e-22)
(0.93803 -0.0226101 2.89946e-22)
(0.950382 -0.0190991 4.09653e-23)
(0.959148 -0.0163182 1.92879e-22)
(0.968392 -0.013455 -9.62389e-23)
(0.972776 -0.0119163 1.41009e-22)
(0.981466 -0.00926023 1.71817e-22)
(0.288763 0.00996138 -1.77205e-21)
(0.336132 0.0161918 -1.10796e-21)
(0.385109 0.0189026 3.50093e-22)
(0.435124 0.0180094 1.49548e-22)
(0.485612 0.0137705 3.5472e-22)
(0.535972 0.00678698 2.19388e-22)
(0.585592 -0.00209555 1.74286e-22)
(0.633847 -0.0118206 -1.30273e-21)
(0.680105 -0.0212673 1.3117e-21)
(0.723727 -0.0294231 -9.62636e-22)
(0.764163 -0.0355117 7.53008e-22)
(0.800906 -0.0391224 1.00535e-21)
(0.833705 -0.0402119 -1.73985e-21)
(0.862306 -0.0391234 1.53916e-22)
(0.886959 -0.0363613 -3.76528e-23)
(0.907559 -0.0326375 -4.43096e-22)
(0.925005 -0.0284214 -5.46444e-23)
(0.938854 -0.0243844 -2.90527e-22)
(0.950997 -0.0204774 5.41481e-22)
(0.95962 -0.0174215 -3.41472e-22)
(0.96874 -0.0142911 2.77157e-22)
(0.973061 -0.0126298 -1.54363e-22)
(0.981662 -0.00976674 -1.84365e-22)
(0.301709 -0.00199507 -3.50649e-22)
(0.348032 0.00441274 5.81175e-22)
(0.396083 0.0073725 8.54634e-23)
(0.445269 0.00686735 -5.21676e-22)
(0.494996 0.00313339 1.69007e-21)
(0.544629 -0.00332441 -2.67802e-22)
(0.593524 -0.0115943 -7.19286e-22)
(0.641035 -0.0206414 2.55944e-22)
(0.68652 -0.0293625 2.92186e-22)
(0.729344 -0.0367496 -3.23413e-22)
(0.768977 -0.0420354 6.49048e-22)
(0.804936 -0.0448281 3.70617e-22)
(0.836998 -0.0451052 -1.22494e-22)
(0.864934 -0.0432397 2.09487e-22)
(0.889011 -0.0397544 1.78051e-22)
(0.909134 -0.0353916 3.65672e-22)
(0.926195 -0.0306159 -6.70688e-22)
(0.93975 -0.0261283 6.37489e-22)
(0.951664 -0.0218338 -4.29006e-22)
(0.960131 -0.0185088 3.524e-22)
(0.969116 -0.0151157 -3.88486e-22)
(0.973369 -0.0133345 4.98478e-23)
(0.981871 -0.0102674 1.53295e-22)
(0.317268 -0.0136418 -2.0402e-23)
(0.362337 -0.0070939 1.89107e-22)
(0.409242 -0.00386705 2.32913e-22)
(0.457387 -0.00399326 -1.49236e-21)
(0.506121 -0.00725855 2.27583e-21)
(0.554794 -0.0131728 -3.15404e-23)
(0.602747 -0.0208288 -1.19347e-21)
(0.649302 -0.0292126 -1.19367e-21)
(0.693817 -0.0372253 -9.08662e-22)
(0.735668 -0.0438649 -3.48835e-22)
(0.774345 -0.0483733 1.07053e-21)
(0.809392 -0.0503755 -3.58203e-22)
(0.840613 -0.0498678 -7.17465e-22)
(0.867803 -0.0472515 -5.87123e-22)
(0.891239 -0.0430665 9.15971e-22)
(0.910837 -0.0380845 -2.45761e-22)
(0.927476 -0.0327649 1.15265e-21)
(0.940713 -0.0278392 -8.38518e-22)
(0.95238 -0.0231662 -8.25082e-22)
(0.960677 -0.0195787 2.38986e-22)
(0.969517 -0.0159277 2.85108e-22)
(0.973697 -0.0140295 3.61872e-23)
(0.982095 -0.0107617 3.71843e-24)
(0.335206 -0.0248938 -3.70375e-22)
(0.378854 -0.0182726 9.04229e-22)
(0.424425 -0.0147688 -3.67212e-22)
(0.471312 -0.0145275 -4.96942e-22)
(0.518845 -0.0173534 -6.59669e-22)
(0.566351 -0.0227006 -1.90393e-21)
(0.613149 -0.0297569 -6.44474e-22)
(0.658551 -0.037496 3.10025e-21)
(0.701915 -0.0448225 -2.28289e-21)
(0.742632 -0.0507416 -8.18487e-22)
(0.780213 -0.054503 -3.86262e-22)
(0.814232 -0.055747 1.48342e-21)
(0.844517 -0.0544866 1.23064e-21)
(0.870885 -0.051149 -1.24177e-21)
(0.893624 -0.0462905 -8.88851e-23)
(0.912654 -0.040711 6.69449e-22)
(0.928841 -0.034865 -1.35819e-21)
(0.941738 -0.0295144 1.39221e-21)
(0.953139 -0.0244729 2.31013e-22)
(0.961257 -0.0206299 -7.83924e-23)
(0.969941 -0.0167262 3.77824e-23)
(0.974044 -0.0147142 8.99863e-23)
(0.98233 -0.011249 -1.81526e-22)
(0.397363 -0.028991 3.86986e-23)
(0.441427 -0.0252583 4.26847e-22)
(0.48687 -0.0246661 -1.48591e-21)
(0.53301 -0.0270433 2.36087e-22)
(0.579155 -0.0318641 2.2566e-21)
(0.624607 -0.0383412 -2.06121e-21)
(0.668675 -0.0454574 3.4722e-21)
(0.710723 -0.0521247 -2.63395e-22)
(0.75016 -0.057355 3.2121e-21)
(0.786521 -0.0604048 -1.69332e-21)
(0.819408 -0.0609273 -1.56212e-21)
(0.848674 -0.0589498 1.29534e-21)
(0.874157 -0.0549239 9.98993e-23)
(0.896148 -0.0494201 -7.95589e-23)
(0.914574 -0.0432666 -8.54919e-22)
(0.93028 -0.0369129 -2.1732e-22)
(0.942817 -0.0311516 -1.09134e-21)
(0.953939 -0.0257521 4.07945e-22)
(0.961867 -0.021661 -3.77428e-22)
(0.970388 -0.0175102 -2.41761e-22)
(0.97441 -0.0153879 -8.94908e-23)
(0.982578 -0.0117291 5.6819e-23)
(0.417627 -0.0392301 8.15788e-22)
(0.460033 -0.0352919 -2.39983e-21)
(0.503867 -0.0343669 2.12276e-21)
(0.548442 -0.0363102 -3.92433e-21)
(0.59305 -0.040629 2.10951e-21)
(0.636986 -0.0465481 -1.29243e-21)
(0.679561 -0.0530668 -1.66873e-21)
(0.720147 -0.0591061 2.51024e-22)
(0.758176 -0.063684 2.01966e-21)
(0.793208 -0.0660619 3.39227e-22)
(0.824874 -0.0659035 -1.59031e-22)
(0.853049 -0.0632479 1.05018e-21)
(0.87759 -0.0585689 2.3858e-22)
(0.898792 -0.0524502 -2.88158e-22)
(0.916581 -0.0457478 -1.54608e-22)
(0.931784 -0.0389059 -4.84363e-22)
(0.943944 -0.0327489 1.2669e-21)
(0.954773 -0.0270024 -9.59596e-22)
(0.962505 -0.0226711 3.37987e-22)
(0.970854 -0.0182789 4.26602e-22)
(0.974791 -0.01605 1.21097e-22)
(0.982836 -0.0122013 5.71856e-23)
(0.439399 -0.0489694 -2.32452e-21)
(0.480015 -0.0448411 1.90981e-21)
(0.522098 -0.0436005 -2.55285e-21)
(0.564957 -0.0451295 2.00211e-21)
(0.607877 -0.0489647 1.54959e-21)
(0.650149 -0.054349 -1.0393e-21)
(0.691091 -0.0602992 -1.46849e-21)
(0.73009 -0.0657455 5.06682e-21)
(0.7666 -0.0697111 -7.39283e-22)
(0.800211 -0.0714604 8.84273e-23)
(0.83058 -0.0706649 9.1116e-22)
(0.857605 -0.0673729 -1.72428e-21)
(0.881159 -0.0620783 -2.05695e-21)
(0.901536 -0.0553766 1.78154e-21)
(0.918664 -0.0481515 -4.01255e-22)
(0.933344 -0.040842 7.11037e-22)
(0.945113 -0.0343047 7.31792e-22)
(0.955639 -0.0282227 1.89161e-22)
(0.963166 -0.0236593 -3.50257e-22)
(0.971337 -0.0190317 -2.17778e-22)
(0.975188 -0.0167 4.76075e-23)
(0.983104 -0.0126653 -1.05e-22)
(0.462421 -0.0581828 4.9211e-23)
(0.501139 -0.0538801 -7.13248e-22)
(0.541353 -0.0523409 9.8997e-22)
(0.582369 -0.0534743 3.41469e-21)
(0.623473 -0.0568461 5.61951e-22)
(0.663957 -0.0617211 5.13959e-22)
(0.703148 -0.0671346 -2.6329e-21)
(0.740454 -0.0720258 -9.65087e-22)
(0.775354 -0.0754224 -2.49333e-21)
(0.807467 -0.0765894 2.63229e-22)
(0.836479 -0.0752033 1.54136e-21)
(0.862306 -0.0713187 -2.78473e-21)
(0.884836 -0.0654477 1.73534e-21)
(0.904362 -0.0581964 -2.16723e-21)
(0.920807 -0.0504755 4.38678e-22)
(0.934949 -0.0427194 -8.98435e-22)
(0.946317 -0.0358178 -5.02731e-22)
(0.956531 -0.029412 1.04286e-21)
(0.963849 -0.0246247 2.29737e-22)
(0.971836 -0.0197679 -1.0723e-22)
(0.975597 -0.0173373 -3.44965e-23)
(0.98338 -0.0131208 4.11048e-24)
(0.486438 -0.066851 8.00112e-21)
(0.523173 -0.0623897 -3.11055e-21)
(0.561422 -0.0605685 -2.10378e-21)
(0.600494 -0.061325 2.507e-21)
(0.639676 -0.0642551 -1.14802e-21)
(0.678269 -0.0686482 -1.8068e-21)
(0.715615 -0.0735585 -1.73338e-21)
(0.751142 -0.0779349 1.55516e-21)
(0.78436 -0.0808081 2.00009e-21)
(0.814916 -0.0814412 1.76758e-21)
(0.842523 -0.0795129 3.42436e-22)
(0.867116 -0.0750812 5.19469e-22)
(0.888595 -0.0686742 -3.15145e-22)
(0.907249 -0.0609073 -5.33687e-22)
(0.922999 -0.0527182 5.03921e-22)
(0.936591 -0.0445369 -2.83994e-22)
(0.94755 -0.0372872 -2.22553e-22)
(0.957445 -0.0305696 -7.54204e-22)
(0.96455 -0.0255668 -3.95213e-22)
(0.972347 -0.020487 -5.05493e-23)
(0.976018 -0.0179616 -9.99814e-23)
(0.983663 -0.0135673 6.52894e-23)
(0.511198 -0.0749581 -4.42768e-21)
(0.545888 -0.0703547 3.13907e-21)
(0.582099 -0.0682688 1.47515e-21)
(0.619148 -0.0686677 -3.40869e-21)
(0.656328 -0.0711791 1.17353e-21)
(0.69295 -0.0751188 2.19207e-21)
(0.728377 -0.0795611 5.76322e-22)
(0.762061 -0.0834644 5.76279e-22)
(0.793543 -0.0858611 -3.01822e-21)
(0.822497 -0.0860102 2.43159e-21)
(0.848667 -0.0835894 -1.75882e-21)
(0.872001 -0.078657 1.97032e-21)
(0.892412 -0.0717552 -1.95075e-24)
(0.910182 -0.0635074 -4.34263e-22)
(0.925226 -0.054878 9.04554e-22)
(0.938261 -0.0462934 8.71665e-23)
(0.948806 -0.0387119 6.47242e-22)
(0.958377 -0.0316945 4.69436e-22)
(0.965266 -0.0264848 -2.38437e-22)
(0.97287 -0.0211887 1.57702e-22)
(0.976449 -0.0185724 1.45728e-22)
(0.983953 -0.0140047 1.04949e-23)
(0.536458 -0.0824828 -1.42362e-21)
(0.569064 -0.0777551 1.72602e-21)
(0.603187 -0.0754235 -3.19687e-21)
(0.638157 -0.0754857 1.87285e-21)
(0.673276 -0.0776033 6.57406e-22)
(0.707871 -0.0811199 -1.0195e-21)
(0.741326 -0.0851312 -2.70237e-21)
(0.773122 -0.0886051 -4.52522e-24)
(0.802831 -0.0905745 1.73096e-22)
(0.830157 -0.0902914 2.47061e-21)
(0.854868 -0.0874293 -5.27723e-21)
(0.87693 -0.0820441 1.80259e-21)
(0.896263 -0.0746895 -1.69516e-21)
(0.913142 -0.0659959 3.99255e-23)
(0.927476 -0.0569546 3.29925e-22)
(0.939951 -0.0479885 1.0939e-21)
(0.950079 -0.0400917 -2.08481e-22)
(0.959322 -0.0327867 -3.17303e-23)
(0.965994 -0.0273786 6.57474e-22)
(0.9734 -0.0218725 -2.26991e-22)
(0.976889 -0.0191697 3.07792e-23)
(0.984247 -0.0144325 -1.35566e-22)
(0.561989 -0.0894487 -5.50604e-21)
(0.592489 -0.0846054 5.51548e-22)
(0.624497 -0.0820387 1.35933e-21)
(0.657354 -0.0817792 -3.45006e-21)
(0.690376 -0.0835235 -1.74205e-22)
(0.722907 -0.0866454 2.29023e-21)
(0.754359 -0.0902627 4.86542e-22)
(0.784241 -0.0933526 -2.10573e-21)
(0.812156 -0.0949462 2.57835e-21)
(0.83784 -0.0942854 -1.91886e-21)
(0.861085 -0.0910359 3.23156e-21)
(0.881871 -0.0852472 1.84304e-21)
(0.900126 -0.0774827 -8.57863e-22)
(0.916113 -0.0683785 -5.72341e-22)
(0.929737 -0.0589529 -1.21809e-21)
(0.941652 -0.0496259 -1.98794e-22)
(0.951362 -0.0414292 -4.87871e-22)
(0.960277 -0.0338476 -3.69507e-22)
(0.96673 -0.0282493 -3.35139e-23)
(0.973937 -0.0225386 8.58373e-23)
(0.977334 -0.0197537 -3.70978e-23)
(0.984546 -0.0148505 7.45615e-23)
(0.767382 -0.0949782 2.25031e-21)
(0.79534 -0.0977253 1.27561e-21)
(0.821458 -0.0989928 -8.61031e-22)
(0.8455 -0.0980077 -2.08389e-21)
(0.867283 -0.0944234 5.737e-22)
(0.886798 -0.0882794 -8.05731e-22)
(0.90398 -0.0801461 2.74035e-21)
(0.919082 -0.0706642 -7.69039e-22)
(0.932001 -0.0608794 1.1782e-21)
(0.943357 -0.05121 -5.43559e-22)
(0.952652 -0.0427274 -2.71923e-22)
(0.961238 -0.0348785 -1.71764e-22)
(0.967474 -0.0290974 2.49383e-22)
(0.974479 -0.0231868 -5.02888e-23)
(0.977786 -0.0203245 -3.04838e-23)
(0.984847 -0.0152585 7.76347e-24)
(0.82179 -0.00369658 3.88166e-23)
(0.852216 -0.00843339 -6.13843e-23)
(0.87869 -0.0111067 1.18948e-22)
(0.900954 -0.0121931 -3.384e-23)
(0.919847 -0.0121795 2.30843e-23)
(0.934859 -0.0115236 2.56282e-23)
(0.94795 -0.0105051 -2.73789e-23)
(0.957244 -0.00945851 3.05892e-24)
(0.966957 -0.00826432 -1.10189e-23)
(0.971581 -0.00749892 1.12341e-24)
(0.980629 -0.00613112 -1.03739e-23)
)
;

boundaryField
{
    inlet
    {
        type            uniformFixedValue;
        uniformValue    constant (1 0 0);
        value           nonuniform 0();
    }
    outlet
    {
        type            pressureInletOutletVelocity;
        value           nonuniform List<vector> 
20
(
(0.980727 -0.00666023 1.055e-23)
(0.980841 -0.00718718 -3.96578e-23)
(0.980973 -0.00771127 5.05003e-23)
(0.981121 -0.0082319 -7.16758e-23)
(0.981286 -0.00874842 1.59371e-23)
(0.981466 -0.00926023 1.71817e-22)
(0.981662 -0.00976674 -1.84365e-22)
(0.981871 -0.0102674 1.53295e-22)
(0.982095 -0.0107617 3.71843e-24)
(0.98233 -0.011249 -1.81526e-22)
(0.982578 -0.0117291 5.6819e-23)
(0.982836 -0.0122013 5.71856e-23)
(0.983104 -0.0126653 -1.05e-22)
(0.98338 -0.0131208 4.11048e-24)
(0.983663 -0.0135673 6.52894e-23)
(0.983953 -0.0140047 1.04949e-23)
(0.984247 -0.0144325 -1.35566e-22)
(0.984546 -0.0148505 7.45615e-23)
(0.984847 -0.0152585 7.76347e-24)
(0.980629 -0.00613112 -1.03739e-23)
)
;
    }
    cylinder
    {
        type            fixedValue;
        value           nonuniform 0();
    }
    top
    {
        type            symmetryPlane;
    }
    bottom
    {
        type            symmetryPlane;
    }
    defaultFaces
    {
        type            empty;
    }
    procBoundary23to17
    {
        type            processor;
        value           nonuniform List<vector> 
24
(
(0.280139 0.0979818 7.04754e-23)
(0.32854 0.10268 1.07588e-22)
(0.377419 0.103034 1.85249e-22)
(0.426447 0.0991608 -1.66987e-23)
(0.475363 0.0914664 -4.23424e-23)
(0.523927 0.0806178 -9.29674e-24)
(0.571876 0.0674966 -1.36087e-23)
(0.618871 0.0531368 8.08647e-23)
(0.66448 0.0386267 -4.546e-23)
(0.708152 0.024994 4.49549e-23)
(0.749314 0.0130799 -2.0929e-23)
(0.787336 0.00344235 3.13285e-23)
(0.821847 0.00161896 -1.98802e-23)
(0.852097 -0.00395138 1.4154e-23)
(0.878484 -0.00741045 1.2908e-22)
(0.90072 -0.00919728 -1.15462e-22)
(0.919618 -0.00979843 1.04745e-22)
(0.934653 -0.00963845 -4.92397e-23)
(0.947774 -0.00904404 -7.45186e-23)
(0.957094 -0.00829299 2.33718e-25)
(0.966835 -0.00738277 9.18627e-24)
(0.971474 -0.00674893 4.63477e-24)
(0.98055 -0.00560051 -3.70688e-23)
(0.787336 0.00344235 3.13285e-23)
)
;
    }
    procBoundary23to22
    {
        type            processor;
        value           nonuniform List<vector> 
16
(
(0.224572 0.0763973 -9.90836e-22)
(0.219653 0.063587 1.79415e-21)
(0.21796 0.0507413 4.47171e-22)
(0.219539 0.0379321 3.31736e-21)
(0.22438 0.0252549 8.13866e-22)
(0.232422 0.0128452 -1.13281e-21)
(0.243575 0.000617871 -4.72585e-22)
(0.257701 -0.0114136 2.35284e-21)
(0.274597 -0.0230348 -2.03469e-22)
(0.294032 -0.0342026 2.4833e-22)
(0.35529 -0.0356852 -1.68965e-22)
(0.35529 -0.0356852 -1.68965e-22)
(0.377267 -0.0459868 -1.30649e-21)
(0.400867 -0.0557706 -7.51912e-22)
(0.425812 -0.0650115 3.29053e-22)
(0.451823 -0.0736914 5.30216e-21)
)
;
    }
    procBoundary23to28
    {
        type            processor;
        value           nonuniform List<vector> 3((0.478628 -0.0817945 -3.5306e-21) (0.505964 -0.0892974 8.75035e-22) (0.533581 -0.0962337 -6.93886e-22));
    }
    procBoundary23to29
    {
        type            processor;
        value           nonuniform List<vector> 
23
(
(0.587582 -0.0959628 -1.78073e-21)
(0.615975 -0.090992 6.20089e-21)
(0.64586 -0.0881821 -2.72522e-21)
(0.67659 -0.0875994 7.47683e-21)
(0.707497 -0.0889781 -1.16795e-20)
(0.737949 -0.0917241 8.45198e-21)
(0.737949 -0.0917241 8.45198e-21)
(0.780331 -0.0994712 1.6792e-22)
(0.806368 -0.101883 1.07766e-21)
(0.830695 -0.102837 5.41631e-22)
(0.853105 -0.101544 -1.67886e-21)
(0.873438 -0.097645 -8.74169e-22)
(0.891695 -0.091168 1.22419e-21)
(0.907816 -0.0826884 -2.06797e-21)
(0.922042 -0.0728511 1.50051e-21)
(0.934263 -0.0627269 -1.47773e-21)
(0.945065 -0.0527336 1.76475e-21)
(0.953949 -0.0439782 -5.91979e-22)
(0.962205 -0.0358756 -1.81799e-22)
(0.968225 -0.0299179 3.16735e-22)
(0.975027 -0.0238178 -2.15509e-22)
(0.978244 -0.020878 2.52442e-23)
(0.985152 -0.0156577 -8.07425e-24)
)
;
    }
}


// ************************************************************************* //
