/*--------------------------------*- C++ -*----------------------------------*\
  =========                 |
  \\      /  F ield         | OpenFOAM: The Open Source CFD Toolbox
   \\    /   O peration     | Website:  https://openfoam.org
    \\  /    A nd           | Version:  7
     \\/     M anipulation  |
\*---------------------------------------------------------------------------*/
FoamFile
{
    version     2.0;
    format      ascii;
    class       volVectorField;
    location    "1.4";
    object      U;
}
// * * * * * * * * * * * * * * * * * * * * * * * * * * * * * * * * * * * * * //

dimensions      [0 1 -1 0 0 0 0];

internalField   nonuniform List<vector> 
344
(
(1.56354 0.000532039 3.52615e-15)
(1.56349 0.000419249 3.44117e-15)
(1.56344 0.000330815 3.44596e-15)
(1.56341 0.000261454 3.38767e-15)
(1.56338 0.000207019 3.39203e-15)
(1.56335 0.000164263 3.39463e-15)
(1.56333 0.000130641 3.36051e-15)
(1.56332 0.000104166 3.35906e-15)
(1.5633 8.3285e-05 3.27754e-15)
(1.56329 6.67844e-05 3.28086e-15)
(1.56328 5.37174e-05 3.20616e-15)
(1.56328 4.33451e-05 3.2e-15)
(1.56327 3.50902e-05 3.14352e-15)
(1.56327 2.85021e-05 3.14587e-15)
(1.56326 2.32283e-05 3.1222e-15)
(1.56326 1.89932e-05 3.11194e-15)
(1.56326 1.5581e-05 3.01143e-15)
(1.56325 1.28223e-05 3.02576e-15)
(1.56325 1.05843e-05 2.96144e-15)
(1.56325 8.76216e-06 2.96656e-15)
(1.56325 7.27342e-06 2.88083e-15)
(1.56325 6.05291e-06 2.88417e-15)
(1.56325 5.04894e-06 2.85969e-15)
(1.56325 4.22044e-06 2.84754e-15)
(1.56325 3.53464e-06 2.77977e-15)
(1.56325 2.96533e-06 2.76903e-15)
(1.56325 2.49146e-06 2.70437e-15)
(1.56325 2.09607e-06 2.68969e-15)
(1.56325 1.76538e-06 2.63736e-15)
(1.56325 1.48826e-06 2.62315e-15)
(1.56325 1.25563e-06 2.60862e-15)
(1.56325 1.06008e-06 2.57057e-15)
(1.56325 8.9552e-07 2.5507e-15)
(1.56325 7.56916e-07 2.49156e-15)
(1.56325 6.40069e-07 2.46974e-15)
(1.56325 5.41481e-07 2.41547e-15)
(1.56325 4.58262e-07 2.39587e-15)
(1.56325 3.88004e-07 2.34923e-15)
(1.56325 3.287e-07 2.32776e-15)
(1.56325 2.78636e-07 2.29778e-15)
(1.56325 2.36337e-07 2.27571e-15)
(1.56325 2.0058e-07 2.21358e-15)
(1.56325 1.70356e-07 2.19895e-15)
(1.56325 1.44798e-07 2.1536e-15)
(1.56325 1.23162e-07 2.13337e-15)
(1.56325 1.04819e-07 2.08068e-15)
(1.56325 8.92283e-08 2.06181e-15)
(1.56325 7.59334e-08 2.03265e-15)
(1.56325 6.45822e-08 2.0063e-15)
(1.56325 5.48958e-08 1.96354e-15)
(1.56325 4.66257e-08 1.93406e-15)
(1.56325 3.95571e-08 1.90646e-15)
(1.56325 3.35176e-08 1.86788e-15)
(1.56325 2.83584e-08 1.83838e-15)
(1.56325 2.39539e-08 1.80611e-15)
(1.56325 2.02089e-08 1.77421e-15)
(1.56325 1.70559e-08 1.74326e-15)
(1.56325 1.437e-08 1.70433e-15)
(1.56325 1.21885e-08 1.67302e-15)
(1.56325 9.90951e-09 1.6322e-15)
(1.52092 0.00279077 3.40434e-15)
(1.52078 0.00220809 3.44011e-15)
(1.52066 0.00174586 3.38212e-15)
(1.52055 0.00137984 3.40832e-15)
(1.52046 0.00109041 3.29796e-15)
(1.52039 0.000861809 3.34658e-15)
(1.52032 0.000681395 3.24599e-15)
(1.52027 0.00053909 3.28294e-15)
(1.52023 0.000426877 3.17746e-15)
(1.52019 0.000338395 3.19964e-15)
(1.52016 0.000268612 3.15694e-15)
(1.52013 0.000213551 3.16361e-15)
(1.52011 0.000170077 3.18388e-15)
(1.5201 0.00013572 3.08058e-15)
(1.52008 0.000108538 3.11455e-15)
(1.52007 8.70031e-05 3.01882e-15)
(1.52006 6.99149e-05 3.04746e-15)
(1.52005 5.63309e-05 2.95379e-15)
(1.52005 4.55107e-05 2.96694e-15)
(1.52004 3.6873e-05 2.92477e-15)
(1.52004 2.99609e-05 2.94201e-15)
(1.52003 2.44156e-05 2.8593e-15)
(1.52003 1.99547e-05 2.88128e-15)
(1.52003 1.63559e-05 2.82699e-15)
(1.52003 1.3444e-05 2.84366e-15)
(1.52003 1.10808e-05 2.75443e-15)
(1.52002 9.15697e-06 2.76258e-15)
(1.52002 7.58587e-06 2.71464e-15)
(1.52002 6.29899e-06 2.71468e-15)
(1.52002 5.2418e-06 2.63836e-15)
(1.52002 4.3708e-06 2.65016e-15)
(1.52002 3.65122e-06 2.57432e-15)
(1.52002 3.05518e-06 2.58017e-15)
(1.52002 2.56029e-06 2.5069e-15)
(1.52002 2.14842e-06 2.50318e-15)
(1.52002 1.80489e-06 2.46472e-15)
(1.52002 1.51779e-06 2.45515e-15)
(1.52002 1.27746e-06 2.44409e-15)
(1.52002 1.07602e-06 2.37271e-15)
(1.52002 9.06989e-07 2.37416e-15)
(1.52002 7.65021e-07 2.30794e-15)
(1.52002 6.45676e-07 2.30359e-15)
(1.52002 5.45283e-07 2.24269e-15)
(1.52002 4.60796e-07 2.23375e-15)
(1.52002 3.8966e-07 2.1937e-15)
(1.52002 3.29727e-07 2.18256e-15)
(1.52002 2.79206e-07 2.12903e-15)
(1.52002 2.36632e-07 2.11925e-15)
(1.52002 2.00767e-07 2.0796e-15)
(1.52002 1.70537e-07 2.06523e-15)
(1.52002 1.4501e-07 2.0117e-15)
(1.52002 1.23402e-07 1.9954e-15)
(1.52002 1.05069e-07 1.95845e-15)
(1.52002 8.94845e-08 1.93973e-15)
(1.52002 7.62037e-08 1.89458e-15)
(1.52002 6.48588e-08 1.87694e-15)
(1.52002 5.51501e-08 1.83294e-15)
(1.52002 4.6835e-08 1.81133e-15)
(1.52002 3.97139e-08 1.7881e-15)
(1.52002 3.36191e-08 1.75217e-15)
(1.52002 2.84071e-08 1.72399e-15)
(1.52002 2.39615e-08 1.69488e-15)
(1.52002 2.01872e-08 1.66553e-15)
(1.52002 1.70088e-08 1.63672e-15)
(1.52002 1.4304e-08 1.6007e-15)
(1.52002 1.21121e-08 1.57131e-15)
(1.52002 9.84384e-09 1.53396e-15)
(1.46916 0.00268401 3.1524e-15)
(1.46907 0.00213566 3.12439e-15)
(1.469 0.00169803 3.13804e-15)
(1.46892 0.00134938 3.10827e-15)
(1.46886 0.00107203 3.06148e-15)
(1.46881 0.000851662 3.04514e-15)
(1.46876 0.000676723 2.99944e-15)
(1.46872 0.000537941 2.97928e-15)
(1.46869 0.00042789 2.93585e-15)
(1.46866 0.000340638 2.90408e-15)
(1.46863 0.000271461 2.92102e-15)
(1.46861 0.0002166 2.88727e-15)
(1.4686 0.000173074 2.87367e-15)
(1.46858 0.000138518 2.8362e-15)
(1.46857 0.00011106 2.82233e-15)
(1.46856 8.92183e-05 2.77557e-15)
(1.46856 7.18221e-05 2.76553e-15)
(1.46855 5.79465e-05 2.72065e-15)
(1.46855 4.68608e-05 2.68836e-15)
(1.46854 3.79877e-05 2.69955e-15)
(1.46854 3.08714e-05 2.67333e-15)
(1.46854 2.51518e-05 2.64039e-15)
(1.46853 2.05442e-05 2.61736e-15)
(1.46853 1.68234e-05 2.61292e-15)
(1.46853 1.38111e-05 2.58719e-15)
(1.46853 1.13662e-05 2.54591e-15)
(1.46853 9.37619e-06 2.51461e-15)
(1.46853 7.75198e-06 2.50745e-15)
(1.46853 6.42289e-06 2.47376e-15)
(1.46853 5.33246e-06 2.43311e-15)
(1.46853 4.43554e-06 2.41455e-15)
(1.46853 3.69599e-06 2.3708e-15)
(1.46853 3.08474e-06 2.34771e-15)
(1.46852 2.57846e-06 2.30699e-15)
(1.46852 2.15821e-06 2.27619e-15)
(1.46852 1.80859e-06 2.26945e-15)
(1.46852 1.51718e-06 2.23999e-15)
(1.46852 1.27392e-06 2.21394e-15)
(1.46852 1.07061e-06 2.18071e-15)
(1.46852 9.00487e-07 2.15951e-15)
(1.46852 7.57998e-07 2.11887e-15)
(1.46852 6.38554e-07 2.09813e-15)
(1.46852 5.38364e-07 2.05905e-15)
(1.46852 4.54281e-07 2.03168e-15)
(1.46852 3.8367e-07 2.01784e-15)
(1.46852 3.24336e-07 1.99019e-15)
(1.46852 2.74462e-07 1.95813e-15)
(1.46852 2.32536e-07 1.93193e-15)
(1.46852 1.97281e-07 1.91353e-15)
(1.46852 1.67614e-07 1.88735e-15)
(1.46852 1.42607e-07 1.85012e-15)
(1.46852 1.21474e-07 1.82206e-15)
(1.46852 1.03563e-07 1.80194e-15)
(1.46852 8.83281e-08 1.77409e-15)
(1.46852 7.53138e-08 1.74223e-15)
(1.46852 6.41617e-08 1.71599e-15)
(1.46852 5.45862e-08 1.68502e-15)
(1.46852 4.63546e-08 1.65735e-15)
(1.46852 3.92861e-08 1.63236e-15)
(1.46852 3.32288e-08 1.60214e-15)
(1.46852 2.80459e-08 1.57362e-15)
(1.46852 2.36286e-08 1.54642e-15)
(1.46852 1.98826e-08 1.51992e-15)
(1.46852 1.67199e-08 1.4938e-15)
(1.46852 1.40135e-08 1.46509e-15)
(1.46852 1.18224e-08 1.43813e-15)
(1.46852 9.58379e-09 1.40526e-15)
(1.40826 0.00254524 2.83601e-15)
(1.40823 0.0020363 2.83249e-15)
(1.40819 0.00162766 2.79363e-15)
(1.40815 0.00130015 2.79678e-15)
(1.40811 0.00103807 2.77873e-15)
(1.40808 0.000828626 2.77027e-15)
(1.40805 0.000661422 2.70493e-15)
(1.40803 0.000528049 2.69534e-15)
(1.408 0.000421725 2.63991e-15)
(1.40799 0.000336999 2.62523e-15)
(1.40797 0.000269496 2.62768e-15)
(1.40795 0.000215715 2.61179e-15)
(1.40794 0.000172857 2.59976e-15)
(1.40793 0.000138691 2.57705e-15)
(1.40793 0.000111439 2.56403e-15)
(1.40792 8.96832e-05 2.50067e-15)
(1.40791 7.22998e-05 2.49307e-15)
(1.40791 5.8394e-05 2.43412e-15)
(1.40791 4.72556e-05 2.41919e-15)
(1.4079 3.83207e-05 2.42203e-15)
(1.4079 3.11417e-05 2.40887e-15)
(1.4079 2.53631e-05 2.3898e-15)
(1.4079 2.07029e-05 2.37084e-15)
(1.4079 1.69367e-05 2.32876e-15)
(1.40789 1.3887e-05 2.32962e-15)
(1.40789 1.14118e-05 2.28231e-15)
(1.40789 9.39736e-06 2.26603e-15)
(1.40789 7.75426e-06 2.23042e-15)
(1.40789 6.41109e-06 2.22301e-15)
(1.40789 5.31058e-06 2.20085e-15)
(1.40789 4.40683e-06 2.18333e-15)
(1.40789 3.6631e-06 2.13214e-15)
(1.40789 3.04974e-06 2.11778e-15)
(1.40789 2.54297e-06 2.06937e-15)
(1.40789 2.12342e-06 2.05045e-15)
(1.40789 1.77516e-06 2.03844e-15)
(1.40789 1.48559e-06 2.01908e-15)
(1.40789 1.2445e-06 1.99832e-15)
(1.40789 1.04354e-06 1.97111e-15)
(1.40789 8.75835e-07 1.94933e-15)
(1.40789 7.35773e-07 1.90245e-15)
(1.40789 6.18703e-07 1.88613e-15)
(1.40789 5.20799e-07 1.84499e-15)
(1.40789 4.38881e-07 1.82522e-15)
(1.40789 3.70276e-07 1.80777e-15)
(1.40789 3.12791e-07 1.7907e-15)
(1.40789 2.64592e-07 1.76586e-15)
(1.40789 2.2416e-07 1.74153e-15)
(1.40789 1.90239e-07 1.7101e-15)
(1.40789 1.6176e-07 1.69281e-15)
(1.40789 1.37801e-07 1.65804e-15)
(1.40789 1.17579e-07 1.63707e-15)
(1.40789 1.00445e-07 1.60864e-15)
(1.40789 8.58531e-08 1.58995e-15)
(1.40789 7.33502e-08 1.56702e-15)
(1.40789 6.25868e-08 1.54412e-15)
(1.40789 5.32997e-08 1.51097e-15)
(1.40789 4.52702e-08 1.48794e-15)
(1.40789 3.83421e-08 1.46593e-15)
(1.40789 3.24006e-08 1.43049e-15)
(1.40789 2.73174e-08 1.4076e-15)
(1.40789 2.29799e-08 1.38449e-15)
(1.40789 1.92954e-08 1.36056e-15)
(1.40789 1.61767e-08 1.33674e-15)
(1.40789 1.34968e-08 1.30999e-15)
(1.40789 1.13341e-08 1.28623e-15)
(1.40789 9.13725e-09 1.25731e-15)
(1.33743 0.00237695 2.44895e-15)
(1.33744 0.00191134 2.41381e-15)
(1.33744 0.00153529 2.43934e-15)
(1.33743 0.00123216 2.4045e-15)
(1.33742 0.000988236 2.37124e-15)
(1.33741 0.00079224 2.34895e-15)
(1.3374 0.000634949 2.3194e-15)
(1.33739 0.000508849 2.30153e-15)
(1.33738 0.000407837 2.26759e-15)
(1.33737 0.000326971 2.23981e-15)
(1.33736 0.000262261 2.26408e-15)
(1.33735 0.000210492 2.23439e-15)
(1.33735 0.000169078 2.21457e-15)
(1.33734 0.000135943 2.19403e-15)
(1.33734 0.000109424 2.17581e-15)
(1.33733 8.81905e-05 2.14259e-15)
(1.33733 7.11769e-05 2.11957e-15)
(1.33733 5.75336e-05 2.09232e-15)
(1.33733 4.65821e-05 2.06621e-15)
(1.33732 3.77812e-05 2.08693e-15)
(1.33732 3.06991e-05 2.06328e-15)
(1.33732 2.49919e-05 2.04177e-15)
(1.33732 2.03854e-05 2.01737e-15)
(1.33732 1.66604e-05 2.02305e-15)
(1.33732 1.36443e-05 2.00234e-15)
(1.33732 1.11966e-05 1.96973e-15)
(1.33732 9.20411e-06 1.94055e-15)
(1.33732 7.58011e-06 1.94467e-15)
(1.33732 6.25407e-06 1.91354e-15)
(1.33732 5.16914e-06 1.89023e-15)
(1.33732 4.27969e-06 1.86536e-15)
(1.33732 3.54919e-06 1.8351e-15)
(1.33732 2.94796e-06 1.81204e-15)
(1.33732 2.45259e-06 1.78346e-15)
(1.33732 2.04352e-06 1.75641e-15)
(1.33732 1.70441e-06 1.75948e-15)
(1.33732 1.42305e-06 1.73539e-15)
(1.33732 1.18934e-06 1.71169e-15)
(1.33732 9.94962e-07 1.68811e-15)
(1.33732 8.3319e-07 1.66663e-15)
(1.33732 6.98506e-07 1.63822e-15)
(1.33732 5.86302e-07 1.61782e-15)
(1.33732 4.92849e-07 1.59112e-15)
(1.33732 4.14927e-07 1.56679e-15)
(1.33732 3.49789e-07 1.56454e-15)
(1.33732 2.95359e-07 1.54143e-15)
(1.33732 2.49841e-07 1.51962e-15)
(1.33732 2.11741e-07 1.49633e-15)
(1.33732 1.79854e-07 1.48756e-15)
(1.33732 1.53137e-07 1.46338e-15)
(1.33732 1.30689e-07 1.43779e-15)
(1.33732 1.1179e-07 1.41412e-15)
(1.33732 9.58012e-08 1.40266e-15)
(1.33732 8.21554e-08 1.37896e-15)
(1.33732 7.04201e-08 1.35642e-15)
(1.33732 6.02482e-08 1.33509e-15)
(1.33732 5.13895e-08 1.31177e-15)
(1.33732 4.36728e-08 1.28989e-15)
(1.33732 3.69781e-08 1.26855e-15)
(1.33732 3.12102e-08 1.24544e-15)
(1.33732 2.62697e-08 1.22358e-15)
(1.33732 2.2054e-08 1.20251e-15)
(1.33732 1.84574e-08 1.18184e-15)
(1.33732 1.53968e-08 1.1611e-15)
(1.33732 1.27565e-08 1.14006e-15)
(1.33732 1.06636e-08 1.11972e-15)
(1.33732 8.48876e-09 1.09615e-15)
(1.25596 0.00218096 2.04171e-15)
(1.25601 0.0017618 2.0101e-15)
(1.25605 0.00142141 2.03636e-15)
(1.25608 0.00114556 2.00276e-15)
(1.2561 0.000922452 1.97974e-15)
(1.25611 0.000742292 1.95421e-15)
(1.25611 0.000597024 1.93616e-15)
(1.25612 0.000480035 1.91603e-15)
(1.25612 0.000385917 1.90017e-15)
(1.25612 0.000310264 1.87222e-15)
(1.25612 0.000249492 1.89514e-15)
(1.25612 0.000200699 1.86785e-15)
(1.25612 0.000161534 1.84322e-15)
(1.25612 0.000130101 1.82505e-15)
(1.25612 0.000104873 1.80719e-15)
(1.25612 8.46208e-05 1.7886e-15)
)
;

boundaryField
{
    inlet
    {
        type            uniformFixedValue;
        uniformValue    constant (1 0 0);
        value           nonuniform 0();
    }
    outlet
    {
        type            pressureInletOutletVelocity;
        value           nonuniform List<vector> 5((1.56325 9.90951e-09 1.6322e-15) (1.52002 9.84384e-09 1.53396e-15) (1.46852 9.58379e-09 1.40526e-15) (1.40789 9.13725e-09 1.25731e-15) (1.33732 8.48876e-09 1.09615e-15));
    }
    wall
    {
        type            fixedValue;
        value           nonuniform 0();
    }
    wedge1
    {
        type            wedge;
    }
    wedge2
    {
        type            wedge;
    }
    axis
    {
        type            empty;
    }
    procBoundary17to11
    {
        type            processor;
        value           nonuniform List<vector> 
68
(
(1.59944 0.000517165 3.62727e-15)
(1.59938 0.000405461 3.5779e-15)
(1.59933 0.000318374 3.54514e-15)
(1.59928 0.000250452 3.56527e-15)
(1.59925 0.00019744 3.51863e-15)
(1.59922 0.000156025 3.49073e-15)
(1.5992 0.000123627 3.4557e-15)
(1.59918 9.82442e-05 3.44952e-15)
(1.59917 7.83199e-05 3.40265e-15)
(1.59915 6.26465e-05 3.38196e-15)
(1.59914 5.02868e-05 3.33828e-15)
(1.59914 4.05137e-05 3.29776e-15)
(1.59913 3.27628e-05 3.30247e-15)
(1.59912 2.65956e-05 3.26141e-15)
(1.59912 2.16716e-05 3.22033e-15)
(1.59912 1.77257e-05 3.20714e-15)
(1.59911 1.45516e-05 3.18518e-15)
(1.59911 1.19884e-05 3.1471e-15)
(1.59911 9.9101e-06 3.09594e-15)
(1.59911 8.21829e-06 3.06587e-15)
(1.59911 6.83555e-06 3.04495e-15)
(1.59911 5.70101e-06 2.99783e-15)
(1.5991 4.76664e-06 2.96125e-15)
(1.5991 3.99434e-06 2.93676e-15)
(1.5991 3.35385e-06 2.88995e-15)
(1.5991 2.82098e-06 2.85877e-15)
(1.5991 2.37635e-06 2.81396e-15)
(1.5991 2.00438e-06 2.77883e-15)
(1.5991 1.69245e-06 2.76506e-15)
(1.5991 1.43032e-06 2.72306e-15)
(1.5991 1.20967e-06 2.69032e-15)
(1.5991 1.02366e-06 2.6551e-15)
(1.5991 8.66649e-07 2.6257e-15)
(1.5991 7.34009e-07 2.58574e-15)
(1.5991 6.21874e-07 2.55343e-15)
(1.5991 5.27012e-07 2.513e-15)
(1.5991 4.46726e-07 2.47813e-15)
(1.5991 3.78769e-07 2.45937e-15)
(1.5991 3.2127e-07 2.41601e-15)
(1.5991 2.72625e-07 2.38109e-15)
(1.5991 2.31431e-07 2.34909e-15)
(1.5991 1.96526e-07 2.32369e-15)
(1.5991 1.66959e-07 2.28406e-15)
(1.5991 1.41921e-07 2.24361e-15)
(1.5991 1.20708e-07 2.20996e-15)
(1.5991 1.0271e-07 2.18068e-15)
(1.5991 8.74082e-08 2.14166e-15)
(1.5991 7.43736e-08 2.10651e-15)
(1.5991 6.32613e-08 2.0758e-15)
(1.5991 5.3779e-08 2.03977e-15)
(1.5991 4.56828e-08 2.00502e-15)
(1.5991 3.87718e-08 1.97279e-15)
(1.5991 3.2876e-08 1.93688e-15)
(1.5991 2.78502e-08 1.90331e-15)
(1.5991 2.35668e-08 1.87018e-15)
(1.5991 1.99133e-08 1.83653e-15)
(1.5991 1.68121e-08 1.80381e-15)
(1.5991 1.41556e-08 1.76768e-15)
(1.5991 1.20126e-08 1.73442e-15)
(1.5991 9.77155e-09 1.69171e-15)
(1.56442 0.00286122 3.67168e-15)
(1.56422 0.00225107 3.6971e-15)
(1.56405 0.00176984 3.57571e-15)
(1.56391 0.001391 3.60918e-15)
(1.56379 0.00109319 3.59053e-15)
(1.56369 0.00085936 3.60132e-15)
(1.56361 0.000675902 3.52074e-15)
(1.56361 0.000675902 3.52074e-15)
)
;
    }
    procBoundary17to16
    {
        type            processor;
        value           nonuniform List<vector> 4((1.52108 0.0035237 3.52406e-15) (1.46925 0.00336963 3.21047e-15) (1.4083 0.00317771 2.89507e-15) (1.3374 0.00295213 2.48556e-15));
    }
    procBoundary17to22
    {
        type            processor;
        value           uniform (1.25588 0.00269583 2.06582e-15);
    }
    procBoundary17to23
    {
        type            processor;
        value           nonuniform List<vector> 
68
(
(1.25611 6.83561e-05 1.76876e-15)
(1.25611 5.52869e-05 1.74948e-15)
(1.25611 4.47778e-05 1.72638e-15)
(1.25611 3.63197e-05 1.7479e-15)
(1.25611 2.95053e-05 1.72214e-15)
(1.25611 2.40086e-05 1.70804e-15)
(1.25611 1.95692e-05 1.68151e-15)
(1.25611 1.59774e-05 1.69571e-15)
(1.25611 1.30706e-05 1.66981e-15)
(1.25611 1.07113e-05 1.6486e-15)
(1.25611 8.78892e-06 1.62205e-15)
(1.25611 7.22439e-06 1.63108e-15)
(1.25611 5.94872e-06 1.60394e-15)
(1.25611 4.9067e-06 1.5806e-15)
(1.25611 4.05389e-06 1.56005e-15)
(1.25611 3.35484e-06 1.5387e-15)
(1.25611 2.78037e-06 1.51494e-15)
(1.25611 2.30871e-06 1.49561e-15)
(1.25611 1.92009e-06 1.47223e-15)
(1.25611 1.59762e-06 1.47831e-15)
(1.25611 1.33062e-06 1.45488e-15)
(1.25611 1.10925e-06 1.43296e-15)
(1.25611 9.25596e-07 1.41535e-15)
(1.25611 7.73197e-07 1.39607e-15)
(1.25611 6.46789e-07 1.37601e-15)
(1.25611 5.41871e-07 1.35703e-15)
(1.25611 4.55029e-07 1.33951e-15)
(1.25611 3.82973e-07 1.31946e-15)
(1.25611 3.22773e-07 1.31789e-15)
(1.25611 2.72571e-07 1.29732e-15)
(1.25611 2.30597e-07 1.27781e-15)
(1.25611 1.9551e-07 1.25789e-15)
(1.25611 1.66249e-07 1.25326e-15)
(1.25611 1.41813e-07 1.23217e-15)
(1.25611 1.21338e-07 1.21264e-15)
(1.25611 1.04202e-07 1.19229e-15)
(1.25611 8.97319e-08 1.18514e-15)
(1.25611 7.73379e-08 1.16434e-15)
(1.25611 6.66322e-08 1.14555e-15)
(1.25611 5.72492e-08 1.1276e-15)
(1.25611 4.89652e-08 1.1089e-15)
(1.25611 4.16595e-08 1.09115e-15)
(1.25611 3.52639e-08 1.07299e-15)
(1.25611 2.97264e-08 1.05542e-15)
(1.25611 2.49581e-08 1.03798e-15)
(1.25611 2.08723e-08 1.0202e-15)
(1.25611 1.7381e-08 1.00291e-15)
(1.25611 1.43981e-08 9.85833e-16)
(1.25611 1.17711e-08 9.68434e-16)
(1.25611 9.7945e-09 9.51722e-16)
(1.25611 7.57528e-09 9.32961e-16)
(1.19409 0.00203283 1.78018e-15)
(1.19418 0.00164642 1.75264e-15)
(1.19424 0.00133162 1.75075e-15)
(1.19429 0.00107574 1.73217e-15)
(1.19432 0.000868161 1.72765e-15)
(1.19435 0.00070007 1.70355e-15)
(1.19437 0.000564169 1.69571e-15)
(1.19438 0.000454443 1.66931e-15)
(1.19439 0.000365955 1.66521e-15)
(1.1944 0.000294665 1.63675e-15)
(1.1944 0.000237275 1.63631e-15)
(1.19441 0.000191105 1.62346e-15)
(1.19441 0.000153977 1.60471e-15)
(1.19441 0.000124128 1.59921e-15)
(1.19441 0.000100135 1.57621e-15)
(1.25611 6.83561e-05 1.76876e-15)
(1.19441 8.08463e-05 1.57064e-15)
)
;
    }
}


// ************************************************************************* //
