/*--------------------------------*- C++ -*----------------------------------*\
  =========                 |
  \\      /  F ield         | OpenFOAM: The Open Source CFD Toolbox
   \\    /   O peration     | Website:  https://openfoam.org
    \\  /    A nd           | Version:  7
     \\/     M anipulation  |
\*---------------------------------------------------------------------------*/
FoamFile
{
    version     2.0;
    format      ascii;
    class       volScalarField;
    location    "19.41";
    object      p;
}
// * * * * * * * * * * * * * * * * * * * * * * * * * * * * * * * * * * * * * //

dimensions      [0 2 -2 0 0 0 0];

internalField   nonuniform List<scalar> 
12400
(
-0.28041
-0.282243
-0.283427
-0.284322
-0.285102
-0.2858
-0.286456
-0.287098
-0.287737
-0.288371
-0.288985
-0.289554
-0.290049
-0.29043
-0.290656
-0.290678
-0.290453
-0.289953
-0.289128
-0.288001
-0.280709
-0.28251
-0.283673
-0.284554
-0.285321
-0.286009
-0.286656
-0.28729
-0.287923
-0.288552
-0.289162
-0.289728
-0.290221
-0.290602
-0.290827
-0.290847
-0.290614
-0.290101
-0.289243
-0.287998
-0.2813
-0.283036
-0.28416
-0.28501
-0.285753
-0.28642
-0.287048
-0.287667
-0.288287
-0.288905
-0.289506
-0.290066
-0.290555
-0.290934
-0.291157
-0.291174
-0.290926
-0.290386
-0.289477
-0.287971
-0.282166
-0.283808
-0.284873
-0.28568
-0.286386
-0.28702
-0.28762
-0.288214
-0.288812
-0.289412
-0.289999
-0.290548
-0.291029
-0.291403
-0.291623
-0.291634
-0.291364
-0.290781
-0.289836
-0.287883
-0.283283
-0.284806
-0.285796
-0.286546
-0.287201
-0.28779
-0.288351
-0.288909
-0.289476
-0.290049
-0.290614
-0.291145
-0.291613
-0.291977
-0.29219
-0.292192
-0.291898
-0.291242
-0.290339
-0.28766
-0.284623
-0.286006
-0.286906
-0.287587
-0.288178
-0.288709
-0.289217
-0.289728
-0.290252
-0.290786
-0.291318
-0.291822
-0.292268
-0.292615
-0.292814
-0.292806
-0.292488
-0.291704
-0.29103
-0.287152
-0.286154
-0.287383
-0.288181
-0.288779
-0.289293
-0.289752
-0.290193
-0.29064
-0.291106
-0.291589
-0.292073
-0.292538
-0.29295
-0.293271
-0.293446
-0.293419
-0.293097
-0.292058
-0.291936
-0.286199
-0.287843
-0.288909
-0.289595
-0.290098
-0.290521
-0.290893
-0.291249
-0.291616
-0.292007
-0.29242
-0.292842
-0.29325
-0.293615
-0.293895
-0.294033
-0.293971
-0.293691
-0.292213
-0.2928
-0.285679
-0.28966
-0.290559
-0.291125
-0.291523
-0.29184
-0.292107
-0.29236
-0.292627
-0.292922
-0.293245
-0.293584
-0.293919
-0.294217
-0.29444
-0.294525
-0.294395
-0.294167
-0.292359
-0.293395
-0.284889
-0.291576
-0.29231
-0.292752
-0.293033
-0.293229
-0.293372
-0.2935
-0.293645
-0.293821
-0.294032
-0.294267
-0.294506
-0.294717
-0.294863
-0.294878
-0.294653
-0.294495
-0.29217
-0.294035
-0.283753
-0.293571
-0.294148
-0.29446
-0.294613
-0.294671
-0.294671
-0.294652
-0.294649
-0.294682
-0.294756
-0.294863
-0.294983
-0.295085
-0.295131
-0.295059
-0.294688
-0.294665
-0.291578
-0.294576
-0.282378
-0.295631
-0.29606
-0.29624
-0.296253
-0.296157
-0.295991
-0.2958
-0.295624
-0.295487
-0.295399
-0.295353
-0.295332
-0.295302
-0.295225
-0.295049
-0.294477
-0.294625
-0.290634
-0.294768
-0.280974
-0.297754
-0.298045
-0.29809
-0.297951
-0.297682
-0.297328
-0.29694
-0.296565
-0.296232
-0.295955
-0.295732
-0.295546
-0.295364
-0.295138
-0.294841
-0.294022
-0.294299
-0.289458
-0.294288
-0.279754
-0.299947
-0.300111
-0.300016
-0.299711
-0.29925
-0.298684
-0.298075
-0.297474
-0.296918
-0.296429
-0.296006
-0.295635
-0.295278
-0.29488
-0.294435
-0.29335
-0.293586
-0.288193
-0.292833
-0.278721
-0.302229
-0.302273
-0.302033
-0.301546
-0.300873
-0.300073
-0.299216
-0.298364
-0.297562
-0.296837
-0.296195
-0.295617
-0.295067
-0.294472
-0.293832
-0.29249
-0.292397
-0.286896
-0.2903
-0.277545
-0.304632
-0.304558
-0.304161
-0.303477
-0.30257
-0.301512
-0.300384
-0.299258
-0.298189
-0.29721
-0.296328
-0.295526
-0.294759
-0.293937
-0.293036
-0.291436
-0.2907
-0.285442
-0.286855
-0.275734
-0.307197
-0.306999
-0.306432
-0.305532
-0.304369
-0.303031
-0.30161
-0.30019
-0.298835
-0.297584
-0.296447
-0.2954
-0.294385
-0.293294
-0.292044
-0.290134
-0.288511
-0.283563
-0.282772
-0.272961
-0.309975
-0.309639
-0.308885
-0.307746
-0.306305
-0.304664
-0.302931
-0.301199
-0.299544
-0.298007
-0.296595
-0.295276
-0.29397
-0.292544
-0.290842
-0.288497
-0.28585
-0.281005
-0.278162
-0.269216
-0.313025
-0.312527
-0.311561
-0.310159
-0.308416
-0.306453
-0.30439
-0.302333
-0.300363
-0.298524
-0.296816
-0.295187
-0.293528
-0.29167
-0.289395
-0.286441
-0.282715
-0.277636
-0.272893
-0.264661
-0.316409
-0.315716
-0.314508
-0.312816
-0.310749
-0.308444
-0.306035
-0.30364
-0.301343
-0.299183
-0.297146
-0.295152
-0.293051
-0.29064
-0.287654
-0.28391
-0.279115
-0.273476
-0.266893
-0.259469
-0.320194
-0.31926
-0.317776
-0.315766
-0.313349
-0.310684
-0.307917
-0.305171
-0.30253
-0.300023
-0.297608
-0.295168
-0.292512
-0.289404
-0.285569
-0.280889
-0.275075
-0.268646
-0.260719
-0.253591
-0.324443
-0.323216
-0.321416
-0.319056
-0.316267
-0.313222
-0.310082
-0.306972
-0.303966
-0.30107
-0.298207
-0.295217
-0.291867
-0.287912
-0.283102
-0.277399
-0.27061
-0.263278
-0.25481
-0.247008
-0.329219
-0.327635
-0.325478
-0.322736
-0.319549
-0.316108
-0.31258
-0.309085
-0.30568
-0.302335
-0.298929
-0.295256
-0.291062
-0.286118
-0.28024
-0.273482
-0.265759
-0.257659
-0.248658
-0.240342
-0.334577
-0.33257
-0.330009
-0.326854
-0.323244
-0.319388
-0.315454
-0.311546
-0.30769
-0.303811
-0.299739
-0.295232
-0.290041
-0.283988
-0.276989
-0.269189
-0.260615
-0.251825
-0.242398
-0.233776
-0.340566
-0.338066
-0.335055
-0.331454
-0.327397
-0.323106
-0.318739
-0.314376
-0.309996
-0.305471
-0.300583
-0.29508
-0.28875
-0.281502
-0.273371
-0.264579
-0.255234
-0.245853
-0.236063
-0.227172
-0.347229
-0.344162
-0.340657
-0.336579
-0.332051
-0.327301
-0.322467
-0.317585
-0.312579
-0.307263
-0.301391
-0.294729
-0.287144
-0.278656
-0.269415
-0.2597
-0.249666
-0.239765
-0.229649
-0.220545
-0.354595
-0.350891
-0.34685
-0.342268
-0.337245
-0.332004
-0.326651
-0.321162
-0.315396
-0.309119
-0.302083
-0.294114
-0.285189
-0.275454
-0.265152
-0.254587
-0.243933
-0.233564
-0.223161
-0.213843
-0.362685
-0.358277
-0.353662
-0.348551
-0.343007
-0.337234
-0.331288
-0.325072
-0.318379
-0.310949
-0.30257
-0.29317
-0.282862
-0.271903
-0.260601
-0.249257
-0.23804
-0.227243
-0.216573
-0.207049
-0.371503
-0.366331
-0.361111
-0.35545
-0.349353
-0.342991
-0.336349
-0.329251
-0.321435
-0.312649
-0.302763
-0.291845
-0.280145
-0.268009
-0.255774
-0.243714
-0.231979
-0.220782
-0.209867
-0.200135
-0.381036
-0.375049
-0.3692
-0.362968
-0.35628
-0.34925
-0.341777
-0.333606
-0.324449
-0.314105
-0.302578
-0.290094
-0.277025
-0.263772
-0.250668
-0.237947
-0.225731
-0.214158
-0.203016
-0.19308
-0.391252
-0.384409
-0.377914
-0.371091
-0.363759
-0.355954
-0.347478
-0.338014
-0.327285
-0.315202
-0.301938
-0.287878
-0.273486
-0.259182
-0.245269
-0.231934
-0.219268
-0.207344
-0.195994
-0.185861
-0.402088
-0.394363
-0.387214
-0.379775
-0.371727
-0.363007
-0.353323
-0.342322
-0.329798
-0.315828
-0.300774
-0.28516
-0.269507
-0.254218
-0.239554
-0.225649
-0.212563
-0.200313
-0.188776
-0.178455
-0.413457
-0.404839
-0.397032
-0.388943
-0.380084
-0.370276
-0.359147
-0.346358
-0.331839
-0.315876
-0.299021
-0.281905
-0.26506
-0.248854
-0.233492
-0.219059
-0.205583
-0.193036
-0.181337
-0.170844
-0.425235
-0.415729
-0.407264
-0.398481
-0.388688
-0.377586
-0.364757
-0.349938
-0.333261
-0.315248
-0.29662
-0.27807
-0.260112
-0.243055
-0.227047
-0.21213
-0.198297
-0.185488
-0.173653
-0.163006
-0.437261
-0.426893
-0.417771
-0.408233
-0.397354
-0.384727
-0.369935
-0.352872
-0.333924
-0.313852
-0.293512
-0.273612
-0.25462
-0.23678
-0.220181
-0.204826
-0.190675
-0.177641
-0.165702
-0.154924
-0.449341
-0.438151
-0.428373
-0.417999
-0.405857
-0.391456
-0.374453
-0.354973
-0.333696
-0.311603
-0.289635
-0.26848
-0.24854
-0.229987
-0.212856
-0.197112
-0.182686
-0.169471
-0.157461
-0.146583
-0.461241
-0.449287
-0.438849
-0.42754
-0.413935
-0.397509
-0.378076
-0.356062
-0.332455
-0.308418
-0.284928
-0.262624
-0.241824
-0.222632
-0.205032
-0.188955
-0.174303
-0.160957
-0.148911
-0.137966
-0.472693
-0.460048
-0.448941
-0.436577
-0.421299
-0.402612
-0.380575
-0.355972
-0.330087
-0.304217
-0.279331
-0.255988
-0.234423
-0.214672
-0.196672
-0.180323
-0.1655
-0.152076
-0.140035
-0.129062
-0.483398
-0.470148
-0.458355
-0.444804
-0.427642
-0.406486
-0.381731
-0.354549
-0.326487
-0.298924
-0.272779
-0.248518
-0.226288
-0.206064
-0.187741
-0.171187
-0.156255
-0.142812
-0.130817
-0.119863
-0.493035
-0.479275
-0.466771
-0.451893
-0.432648
-0.408863
-0.381342
-0.351653
-0.32156
-0.292467
-0.265213
-0.240161
-0.217375
-0.196771
-0.178206
-0.161523
-0.146549
-0.133148
-0.121249
-0.110365
-0.501262
-0.487094
-0.473849
-0.457503
-0.436006
-0.40949
-0.379226
-0.34716
-0.315217
-0.284777
-0.256575
-0.230868
-0.207641
-0.186758
-0.168041
-0.151308
-0.136365
-0.123073
-0.111323
-0.100576
-0.507731
-0.493261
-0.479243
-0.461298
-0.437418
-0.408136
-0.375222
-0.340962
-0.307381
-0.275792
-0.246812
-0.220593
-0.197048
-0.175994
-0.157223
-0.140525
-0.12569
-0.112575
-0.101035
-0.0904951
-0.512093
-0.497429
-0.482604
-0.462951
-0.43661
-0.4046
-0.369193
-0.332966
-0.297982
-0.265456
-0.235877
-0.209299
-0.185567
-0.164458
-0.145733
-0.129161
-0.114514
-0.101648
-0.0903749
-0.0800906
-0.51401
-0.499259
-0.483599
-0.462158
-0.43334
-0.398708
-0.361026
-0.323096
-0.286965
-0.253724
-0.223734
-0.196955
-0.173175
-0.152131
-0.13356
-0.117206
-0.102833
-0.0902954
-0.0793379
-0.069294
-0.513165
-0.49843
-0.481919
-0.458649
-0.427399
-0.390322
-0.350633
-0.311292
-0.274285
-0.24056
-0.210353
-0.18354
-0.159854
-0.139
-0.120695
-0.104657
-0.0906458
-0.0785262
-0.0679367
-0.0580911
-0.509268
-0.49465
-0.477285
-0.452191
-0.418622
-0.379338
-0.337952
-0.297516
-0.259912
-0.22594
-0.195716
-0.169037
-0.145594
-0.12506
-0.107133
-0.0915245
-0.0779607
-0.0663468
-0.056158
-0.0467349
-0.502069
-0.487664
-0.469463
-0.442597
-0.406885
-0.365687
-0.322946
-0.281745
-0.243832
-0.209854
-0.179814
-0.153442
-0.130392
-0.110324
-0.0928837
-0.0778323
-0.0648191
-0.0537479
-0.0440158
-0.0351551
-0.49136
-0.477262
-0.458265
-0.42973
-0.392109
-0.349332
-0.305604
-0.263977
-0.226045
-0.192302
-0.162648
-0.136766
-0.114256
-0.0948223
-0.078002
-0.0635624
-0.0512074
-0.0407539
-0.0315517
-0.0233211
-0.476984
-0.463281
-0.443555
-0.413503
-0.374256
-0.330272
-0.28594
-0.24423
-0.206566
-0.173298
-0.14424
-0.119048
-0.0972574
-0.078535
-0.0624696
-0.0487584
-0.037145
-0.0273887
-0.0187891
-0.011244
-0.458838
-0.445616
-0.425254
-0.39388
-0.353336
-0.308542
-0.263994
-0.222542
-0.185432
-0.152886
-0.124653
-0.100297
-0.0793816
-0.0615181
-0.0463175
-0.0334474
-0.0226615
-0.0136787
-0.00574953
0.00105038
-0.436877
-0.424217
-0.403337
-0.370876
-0.329396
-0.284206
-0.239833
-0.198972
-0.162705
-0.131126
-0.103898
-0.0805636
-0.060672
-0.0438087
-0.0295859
-0.0176622
-0.0077906
0.00034618
0.00753901
0.0135303
-0.411111
-0.399092
-0.377836
-0.34456
-0.302534
-0.257365
-0.213542
-0.173604
-0.138454
-0.108064
-0.0820413
-0.0599023
-0.0411819
-0.0254522
-0.01232
-0.00144265
0.00743003
0.0146506
0.0210405
0.0261584
-0.38161
-0.370305
-0.34884
-0.315055
-0.272889
-0.228129
-0.185222
-0.146532
-0.112761
-0.0837832
-0.0591565
-0.0383788
-0.0209729
-0.00650256
0.00542994
0.0151657
0.0229586
0.0291947
0.0347126
0.0388917
-0.3485
-0.337977
-0.316499
-0.282542
-0.240604
-0.196598
-0.155026
-0.117879
-0.0857337
-0.0583774
-0.0353287
-0.0160695
-0.000114372
0.0129781
0.0236076
0.0321115
0.0387494
0.0439374
0.0485134
0.0516862
-0.311951
-0.302285
-0.28102
-0.247194
-0.205737
-0.163051
-0.123108
-0.0877809
-0.0574938
-0.0319557
-0.0106547
0.00693905
0.021316
0.0329204
0.04215
0.0493377
0.0547527
0.0588387
0.062408
0.0645077
-0.272164
-0.263471
-0.242619
-0.209053
-0.16872
-0.127651
-0.0896459
-0.0563946
-0.0281782
-0.00463942
0.0147578
0.0305508
0.043233
0.0532481
0.060988
0.0667814
0.0709157
0.0738578
0.0763571
0.0773165
-0.229376
-0.221809
-0.20142
-0.168607
-0.129757
-0.0906175
-0.0548338
-0.0238901
0.00206298
0.0234386
0.0407907
0.0546614
0.065544
0.0738787
0.0800479
0.0843786
0.0871883
0.0889479
0.0902707
0.0899612
-0.183852
-0.177623
-0.157793
-0.126188
-0.0890939
-0.0521886
-0.0188815
0.00954856
0.0330675
0.0521346
0.067317
0.0791583
0.0881498
0.0947245
0.0992531
0.10207
0.10353
0.104051
0.10396
0.102044
-0.136016
-0.131182
-0.112221
-0.0820478
-0.047014
-0.012619
0.0179882
0.0437255
0.0646623
0.0812956
0.0942013
0.103922
0.110945
0.115692
0.118526
0.119799
0.119904
0.119087
0.117204
0.113252
-0.0864584
-0.0827589
-0.0649922
-0.0365141
-0.00381961
0.0278241
0.0555406
0.0784342
0.0966651
0.110761
0.121301
0.128827
0.133818
0.136685
0.137785
0.137503
0.136233
0.133932
0.129993
0.124511
-0.0353716
-0.0328689
-0.0164725
0.0100626
0.0401729
0.0688623
0.0935314
0.113459
0.128886
0.140362
0.148469
0.153743
0.156654
0.157602
0.156947
0.155096
0.152388
0.148443
0.142515
0.138337
0.0168314
0.0180576
0.0329425
0.0573182
0.0846375
0.110209
0.131709
0.14858
0.161129
0.169926
0.175552
0.178535
0.179334
0.178342
0.175921
0.172479
0.168251
0.162679
0.155496
0.151864
0.0697006
0.0695986
0.0828447
0.10488
0.129242
0.151572
0.169816
0.183568
0.193195
0.199277
0.202394
0.203065
0.201739
0.1988
0.194612
0.189562
0.183793
0.17674
0.168611
0.164625
0.122785
0.121323
0.132821
0.15237
0.173652
0.192656
0.207594
0.218196
0.22488
0.228236
0.228837
0.227194
0.223746
0.218869
0.21292
0.206259
0.198968
0.190562
0.181556
0.176787
0.175632
0.172794
0.182457
0.199412
0.217532
0.233167
0.244782
0.252234
0.255982
0.256624
0.254724
0.250785
0.245234
0.238438
0.230748
0.222492
0.21372
0.204042
0.194128
0.18837
0.227792
0.223574
0.231342
0.245632
0.260551
0.272812
0.281123
0.285454
0.286301
0.284262
0.279898
0.273698
0.26608
0.257402
0.248002
0.238182
0.22798
0.217086
0.206239
0.199395
0.278817
0.273234
0.27907
0.290665
0.302384
0.311305
0.316363
0.317631
0.315636
0.310976
0.304203
0.295796
0.286164
0.275653
0.264588
0.25325
0.241671
0.229607
0.217819
0.209844
0.328273
0.321349
0.325249
0.334154
0.342715
0.348365
0.350255
0.348548
0.343795
0.336594
0.327489
0.316948
0.305369
0.293089
0.280418
0.267617
0.25472
0.241536
0.228815
0.219692
0.375738
0.367513
0.369496
0.375756
0.38124
0.383724
0.38256
0.377991
0.37059
0.360952
0.34961
0.337025
0.323582
0.309609
0.295403
0.281206
0.267056
0.252806
0.239177
0.22891
0.420807
0.411333
0.411449
0.415142
0.417666
0.417123
0.413049
0.40576
0.395842
0.383889
0.370426
0.355903
0.340694
0.325119
0.30946
0.293945
0.278613
0.26336
0.248859
0.23747
0.463096
0.45244
0.450762
0.452004
0.451719
0.44832
0.441508
0.431661
0.419381
0.405257
0.389805
0.373465
0.356604
0.339529
0.32251
0.305762
0.289328
0.273143
0.257815
0.245342
0.502246
0.490486
0.487115
0.486051
0.483142
0.477085
0.467732
0.455516
0.441049
0.424915
0.407623
0.389603
0.371214
0.352753
0.33448
0.316593
0.299146
0.282104
0.266004
0.252501
0.537926
0.525152
0.520211
0.517019
0.511698
0.50321
0.491537
0.47716
0.460698
0.442732
0.423764
0.404215
0.384436
0.364715
0.3453
0.326379
0.308013
0.290195
0.273388
0.258922
0.569833
0.556146
0.549781
0.544664
0.537173
0.526503
0.512752
0.49644
0.478195
0.458592
0.438125
0.41721
0.396189
0.375343
0.354908
0.335064
0.315881
0.297375
0.27993
0.264584
0.597698
0.583209
0.575586
0.568771
0.559375
0.546794
0.531226
0.513224
0.493421
0.472388
0.450613
0.428506
0.406401
0.384574
0.363251
0.342602
0.322708
0.303604
0.285599
0.269468
0.621287
0.606115
0.597415
0.589153
0.578137
0.563934
0.546827
0.527394
0.506271
0.484028
0.461147
0.438031
0.41501
0.392353
0.370278
0.348949
0.328455
0.308848
0.290366
0.27356
0.6404
0.624673
0.615094
0.605652
0.593318
0.577799
0.559443
0.538851
0.516659
0.493435
0.469657
0.445725
0.421962
0.398633
0.375949
0.35407
0.333092
0.313079
0.294209
0.276848
0.654877
0.638728
0.628479
0.618139
0.604805
0.588288
0.568985
0.547514
0.524513
0.500546
0.47609
0.451538
0.427214
0.403376
0.380232
0.357937
0.336592
0.316273
0.297108
0.279321
0.664596
0.648164
0.637463
0.626518
0.612511
0.595323
0.575385
0.553324
0.529779
0.505313
0.480401
0.455435
0.430733
0.406555
0.383101
0.360527
0.338937
0.318412
0.299049
0.280974
0.669476
0.652901
0.641972
0.630724
0.616378
0.598854
0.578596
0.556238
0.532421
0.507705
0.482564
0.457389
0.432499
0.408148
0.38454
0.361825
0.340112
0.319485
0.300021
0.281801
0.669476
0.652901
0.641972
0.630724
0.616378
0.598854
0.578596
0.556238
0.532421
0.507705
0.482564
0.457389
0.432498
0.408148
0.38454
0.361825
0.340112
0.319485
0.300021
0.281801
0.664596
0.648163
0.637462
0.626518
0.612511
0.595323
0.575385
0.553323
0.529779
0.505313
0.480401
0.455434
0.430733
0.406555
0.383101
0.360527
0.338937
0.318412
0.299049
0.280974
0.654876
0.638728
0.628479
0.618139
0.604805
0.588288
0.568985
0.547514
0.524513
0.500546
0.47609
0.451538
0.427214
0.403376
0.380232
0.357937
0.336592
0.316273
0.297108
0.279321
0.640399
0.624673
0.615094
0.605652
0.593318
0.577799
0.559443
0.538851
0.516659
0.493435
0.469657
0.445724
0.421962
0.398633
0.375949
0.35407
0.333092
0.313079
0.294209
0.276848
0.621286
0.606115
0.597415
0.589153
0.578137
0.563934
0.546826
0.527394
0.506271
0.484028
0.461147
0.438031
0.41501
0.392353
0.370278
0.348949
0.328455
0.308848
0.290366
0.27356
0.597698
0.583209
0.575586
0.568771
0.559375
0.546793
0.531225
0.513224
0.493421
0.472387
0.450613
0.428506
0.406401
0.384574
0.363251
0.342602
0.322708
0.303604
0.285598
0.269468
0.569833
0.556146
0.549781
0.544664
0.537173
0.526503
0.512752
0.49644
0.478195
0.458592
0.438125
0.41721
0.396189
0.375343
0.354908
0.335064
0.315881
0.297375
0.27993
0.264583
0.537926
0.525152
0.520211
0.517018
0.511698
0.50321
0.491537
0.477159
0.460698
0.442732
0.423764
0.404215
0.384436
0.364715
0.3453
0.326378
0.308013
0.290195
0.273388
0.258922
0.502246
0.490486
0.487115
0.486051
0.483142
0.477085
0.467732
0.455516
0.441049
0.424915
0.407622
0.389603
0.371214
0.352753
0.334479
0.316593
0.299146
0.282104
0.266004
0.252501
0.463095
0.452439
0.450762
0.452003
0.451718
0.44832
0.441507
0.431661
0.419381
0.405257
0.389805
0.373465
0.356603
0.339528
0.32251
0.305761
0.289328
0.273143
0.257815
0.245342
0.420806
0.411333
0.411448
0.415142
0.417665
0.417123
0.413049
0.405759
0.395842
0.383889
0.370426
0.355903
0.340694
0.325119
0.30946
0.293944
0.278612
0.26336
0.248858
0.23747
0.375738
0.367512
0.369496
0.375755
0.381239
0.383724
0.382559
0.377991
0.37059
0.360951
0.34961
0.337025
0.323582
0.309609
0.295403
0.281206
0.267056
0.252806
0.239177
0.22891
0.328273
0.321349
0.325249
0.334154
0.342715
0.348365
0.350254
0.348547
0.343794
0.336594
0.327489
0.316948
0.305369
0.293088
0.280418
0.267617
0.25472
0.241536
0.228815
0.219692
0.278817
0.273233
0.27907
0.290665
0.302384
0.311304
0.316363
0.317631
0.315636
0.310976
0.304203
0.295796
0.286163
0.275653
0.264588
0.25325
0.241671
0.229607
0.217819
0.209843
0.227791
0.223574
0.231341
0.245632
0.260551
0.272812
0.281123
0.285454
0.2863
0.284262
0.279897
0.273697
0.266079
0.257402
0.248002
0.238182
0.22798
0.217086
0.206239
0.199395
0.175632
0.172793
0.182456
0.199411
0.217531
0.233166
0.244782
0.252234
0.255982
0.256623
0.254724
0.250785
0.245234
0.238438
0.230748
0.222492
0.21372
0.204041
0.194128
0.18837
0.122785
0.121322
0.13282
0.152369
0.173651
0.192655
0.207594
0.218196
0.224879
0.228235
0.228837
0.227194
0.223746
0.218868
0.212919
0.206259
0.198967
0.190561
0.181556
0.176786
0.0697
0.069598
0.0828441
0.104879
0.129242
0.151571
0.169816
0.183568
0.193194
0.199277
0.202394
0.203064
0.201739
0.1988
0.194611
0.189562
0.183792
0.176739
0.16861
0.164625
0.0168308
0.018057
0.0329419
0.0573176
0.0846369
0.110208
0.131708
0.148579
0.161129
0.169926
0.175552
0.178534
0.179334
0.178342
0.17592
0.172478
0.16825
0.162679
0.155495
0.151864
-0.0353722
-0.0328695
-0.0164731
0.010062
0.0401723
0.0688618
0.0935309
0.113459
0.128886
0.140361
0.148469
0.153743
0.156654
0.157602
0.156946
0.155096
0.152388
0.148443
0.142514
0.138337
-0.0864591
-0.0827596
-0.0649929
-0.0365147
-0.00382021
0.0278235
0.05554
0.0784337
0.0966647
0.11076
0.121301
0.128827
0.133818
0.136685
0.137785
0.137503
0.136233
0.133931
0.129992
0.124511
-0.136017
-0.131182
-0.112221
-0.0820485
-0.0470147
-0.0126196
0.0179876
0.043725
0.0646618
0.0812952
0.0942008
0.103922
0.110944
0.115692
0.118525
0.119799
0.119903
0.119087
0.117204
0.113252
-0.183852
-0.177624
-0.157794
-0.126189
-0.0890946
-0.0521892
-0.0188821
0.00954801
0.033067
0.0521341
0.0673165
0.0791578
0.0881494
0.0947241
0.0992527
0.102069
0.10353
0.104051
0.10396
0.102044
-0.229376
-0.22181
-0.201421
-0.168608
-0.129758
-0.0906181
-0.0548344
-0.0238907
0.00206243
0.023438
0.0407902
0.0546609
0.0655436
0.0738783
0.0800475
0.0843782
0.0871879
0.0889475
0.0902703
0.0899609
-0.272165
-0.263472
-0.24262
-0.209054
-0.168721
-0.127652
-0.0896465
-0.0563952
-0.0281788
-0.00463996
0.0147573
0.0305504
0.0432325
0.0532476
0.0609876
0.066781
0.0709153
0.0738574
0.0763567
0.0773162
-0.311952
-0.302286
-0.281021
-0.247195
-0.205737
-0.163052
-0.123109
-0.0877816
-0.0574944
-0.0319563
-0.0106552
0.00693854
0.0213156
0.03292
0.0421495
0.0493373
0.0547523
0.0588383
0.0624076
0.0645074
-0.348501
-0.337978
-0.3165
-0.282543
-0.240605
-0.196599
-0.155027
-0.117879
-0.0857343
-0.058378
-0.0353293
-0.01607
-0.00011488
0.0129777
0.0236071
0.0321111
0.0387489
0.043937
0.048513
0.0516858
-0.381611
-0.370306
-0.348841
-0.315056
-0.272889
-0.22813
-0.185223
-0.146533
-0.112762
-0.0837838
-0.0591571
-0.0383793
-0.0209734
-0.00650307
0.00542947
0.0151652
0.0229581
0.0291943
0.0347122
0.0388913
-0.411112
-0.399093
-0.377837
-0.344561
-0.302535
-0.257365
-0.213543
-0.173604
-0.138454
-0.108065
-0.0820419
-0.0599029
-0.0411824
-0.0254528
-0.0123205
-0.00144312
0.00742958
0.0146501
0.0210401
0.026158
-0.436878
-0.424218
-0.403338
-0.370877
-0.329397
-0.284207
-0.239834
-0.198972
-0.162706
-0.131127
-0.103898
-0.0805642
-0.0606726
-0.0438092
-0.0295864
-0.0176627
-0.00779106
0.00034574
0.0075386
0.0135299
-0.458839
-0.445617
-0.425255
-0.393881
-0.353337
-0.308543
-0.263995
-0.222543
-0.185433
-0.152887
-0.124654
-0.100298
-0.0793822
-0.0615186
-0.0463181
-0.0334479
-0.022662
-0.0136791
-0.00574996
0.00104998
-0.476985
-0.463282
-0.443557
-0.413504
-0.374257
-0.330273
-0.28594
-0.244231
-0.206567
-0.173299
-0.14424
-0.119049
-0.097258
-0.0785356
-0.0624701
-0.0487589
-0.0371455
-0.0273892
-0.0187896
-0.0112444
-0.491361
-0.477263
-0.458266
-0.429731
-0.39211
-0.349333
-0.305605
-0.263978
-0.226045
-0.192302
-0.162649
-0.136766
-0.114257
-0.0948228
-0.0780025
-0.0635629
-0.0512079
-0.0407543
-0.0315522
-0.0233216
-0.50207
-0.487666
-0.469464
-0.442599
-0.406886
-0.365687
-0.322947
-0.281745
-0.243833
-0.209855
-0.179814
-0.153443
-0.130392
-0.110324
-0.0928843
-0.0778329
-0.0648197
-0.0537484
-0.0440163
-0.0351555
-0.509269
-0.494651
-0.477286
-0.452192
-0.418623
-0.379339
-0.337953
-0.297517
-0.259913
-0.225941
-0.195716
-0.169038
-0.145595
-0.125061
-0.107133
-0.091525
-0.0779613
-0.0663473
-0.0561585
-0.0467354
-0.513166
-0.498431
-0.48192
-0.45865
-0.4274
-0.390323
-0.350634
-0.311293
-0.274286
-0.24056
-0.210354
-0.18354
-0.159854
-0.139001
-0.120695
-0.104658
-0.0906464
-0.0785267
-0.0679372
-0.0580916
-0.514011
-0.49926
-0.4836
-0.462159
-0.433341
-0.398709
-0.361027
-0.323096
-0.286966
-0.253724
-0.223735
-0.196956
-0.173175
-0.152131
-0.133561
-0.117207
-0.102834
-0.0902959
-0.0793384
-0.0692945
-0.512094
-0.49743
-0.482605
-0.462952
-0.436612
-0.404601
-0.369194
-0.332967
-0.297983
-0.265457
-0.235878
-0.2093
-0.185568
-0.164458
-0.145734
-0.129161
-0.114515
-0.101649
-0.0903754
-0.0800911
-0.507732
-0.493262
-0.479244
-0.461299
-0.437419
-0.408138
-0.375223
-0.340963
-0.307382
-0.275793
-0.246813
-0.220594
-0.197049
-0.175995
-0.157223
-0.140525
-0.12569
-0.112576
-0.101036
-0.0904956
-0.501263
-0.487095
-0.473851
-0.457504
-0.436007
-0.409491
-0.379227
-0.347161
-0.315218
-0.284778
-0.256576
-0.230869
-0.207642
-0.186758
-0.168042
-0.151308
-0.136366
-0.123074
-0.111324
-0.100577
-0.493036
-0.479276
-0.466772
-0.451894
-0.432649
-0.408864
-0.381343
-0.351654
-0.321561
-0.292468
-0.265214
-0.240162
-0.217376
-0.196772
-0.178207
-0.161524
-0.14655
-0.133149
-0.121249
-0.110366
-0.483399
-0.470149
-0.458356
-0.444805
-0.427643
-0.406487
-0.381732
-0.35455
-0.326488
-0.298925
-0.27278
-0.248519
-0.226289
-0.206065
-0.187742
-0.171188
-0.156256
-0.142812
-0.130818
-0.119863
-0.472694
-0.460049
-0.448942
-0.436578
-0.4213
-0.402613
-0.380576
-0.355973
-0.330088
-0.304218
-0.279332
-0.255989
-0.234423
-0.214672
-0.196673
-0.180324
-0.165501
-0.152077
-0.140035
-0.129063
-0.461242
-0.449288
-0.43885
-0.427541
-0.413936
-0.39751
-0.378077
-0.356063
-0.332456
-0.308419
-0.284929
-0.262625
-0.241824
-0.222633
-0.205033
-0.188956
-0.174303
-0.160957
-0.148912
-0.137967
-0.449342
-0.438152
-0.428374
-0.418001
-0.405858
-0.391457
-0.374454
-0.354974
-0.333697
-0.311604
-0.289636
-0.268481
-0.248541
-0.229988
-0.212857
-0.197113
-0.182686
-0.169472
-0.157461
-0.146583
-0.437263
-0.426894
-0.417772
-0.408234
-0.397355
-0.384728
-0.369937
-0.352873
-0.333925
-0.313853
-0.293513
-0.273613
-0.254621
-0.236781
-0.220182
-0.204826
-0.190675
-0.177642
-0.165702
-0.154925
-0.425236
-0.415731
-0.407265
-0.398482
-0.388689
-0.377587
-0.364758
-0.349939
-0.333262
-0.315249
-0.296621
-0.278071
-0.260112
-0.243056
-0.227048
-0.21213
-0.198298
-0.185488
-0.173654
-0.163006
-0.413458
-0.40484
-0.397033
-0.388944
-0.380085
-0.370277
-0.359148
-0.346359
-0.33184
-0.315877
-0.299022
-0.281906
-0.265061
-0.248855
-0.233493
-0.21906
-0.205584
-0.193037
-0.181338
-0.170844
-0.40209
-0.394364
-0.387216
-0.379776
-0.371728
-0.363008
-0.353324
-0.342323
-0.329799
-0.315829
-0.300775
-0.285161
-0.269508
-0.254219
-0.239555
-0.22565
-0.212564
-0.200314
-0.188777
-0.178456
-0.391253
-0.38441
-0.377916
-0.371092
-0.36376
-0.355955
-0.347479
-0.338015
-0.327286
-0.315204
-0.301939
-0.287879
-0.273487
-0.259182
-0.24527
-0.231935
-0.219269
-0.207345
-0.195995
-0.185861
-0.381037
-0.37505
-0.369201
-0.362969
-0.356281
-0.349251
-0.341778
-0.333607
-0.32445
-0.314106
-0.302579
-0.290095
-0.277026
-0.263773
-0.250669
-0.237948
-0.225732
-0.214159
-0.203017
-0.193081
-0.371504
-0.366332
-0.361112
-0.355451
-0.349354
-0.342993
-0.33635
-0.329252
-0.321436
-0.31265
-0.302764
-0.291846
-0.280146
-0.26801
-0.255775
-0.243715
-0.23198
-0.220783
-0.209868
-0.200136
-0.362686
-0.358278
-0.353663
-0.348552
-0.343008
-0.337235
-0.331289
-0.325073
-0.31838
-0.31095
-0.302571
-0.293171
-0.282863
-0.271904
-0.260602
-0.249258
-0.238041
-0.227244
-0.216574
-0.20705
-0.354596
-0.350892
-0.346851
-0.342269
-0.337246
-0.332005
-0.326652
-0.321163
-0.315397
-0.30912
-0.302084
-0.294115
-0.28519
-0.275455
-0.265153
-0.254588
-0.243934
-0.233565
-0.223162
-0.213844
-0.34723
-0.344163
-0.340658
-0.33658
-0.332052
-0.327302
-0.322468
-0.317586
-0.31258
-0.307264
-0.301392
-0.294731
-0.287145
-0.278657
-0.269417
-0.259701
-0.249667
-0.239766
-0.22965
-0.220546
-0.340567
-0.338067
-0.335056
-0.331455
-0.327398
-0.323107
-0.31874
-0.314377
-0.309997
-0.305472
-0.300584
-0.295081
-0.288751
-0.281504
-0.273372
-0.26458
-0.255235
-0.245854
-0.236064
-0.227173
-0.334578
-0.332571
-0.33001
-0.326855
-0.323245
-0.319389
-0.315454
-0.311547
-0.307691
-0.303812
-0.29974
-0.295234
-0.290042
-0.283989
-0.27699
-0.26919
-0.260616
-0.251826
-0.242399
-0.233777
-0.32922
-0.327636
-0.325479
-0.322737
-0.31955
-0.316109
-0.312581
-0.309086
-0.305681
-0.302336
-0.29893
-0.295258
-0.291064
-0.28612
-0.280241
-0.273483
-0.26576
-0.25766
-0.248659
-0.240343
-0.324444
-0.323217
-0.321417
-0.319057
-0.316268
-0.313223
-0.310083
-0.306973
-0.303967
-0.301071
-0.298208
-0.295218
-0.291868
-0.287914
-0.283103
-0.2774
-0.270612
-0.26328
-0.254812
-0.24701
-0.320195
-0.319261
-0.317777
-0.315767
-0.31335
-0.310685
-0.307917
-0.305172
-0.302531
-0.300024
-0.297609
-0.29517
-0.292513
-0.289406
-0.28557
-0.280891
-0.275077
-0.268648
-0.26072
-0.253593
-0.31641
-0.315717
-0.314509
-0.312817
-0.31075
-0.308445
-0.306036
-0.303641
-0.301344
-0.299184
-0.297147
-0.295153
-0.293052
-0.290641
-0.287656
-0.283912
-0.279117
-0.273478
-0.266895
-0.259471
-0.313026
-0.312528
-0.311562
-0.31016
-0.308417
-0.306454
-0.304391
-0.302334
-0.300364
-0.298525
-0.296817
-0.295189
-0.293529
-0.291672
-0.289397
-0.286443
-0.282717
-0.277638
-0.272895
-0.264663
-0.309976
-0.30964
-0.308886
-0.307747
-0.306306
-0.304665
-0.302932
-0.3012
-0.299545
-0.298008
-0.296596
-0.295278
-0.293972
-0.292545
-0.290843
-0.288499
-0.285852
-0.281007
-0.278165
-0.269218
-0.307198
-0.307
-0.306433
-0.305533
-0.30437
-0.303032
-0.301611
-0.300191
-0.298836
-0.297586
-0.296448
-0.295401
-0.294386
-0.293295
-0.292046
-0.290136
-0.288514
-0.283566
-0.282774
-0.272963
-0.304633
-0.304559
-0.304162
-0.303478
-0.302571
-0.301513
-0.300385
-0.299259
-0.29819
-0.297211
-0.296329
-0.295528
-0.29476
-0.293939
-0.293038
-0.291438
-0.290702
-0.285444
-0.286857
-0.275736
-0.30223
-0.302274
-0.302034
-0.301547
-0.300874
-0.300074
-0.299217
-0.298365
-0.297563
-0.296839
-0.296196
-0.295619
-0.295068
-0.294474
-0.293834
-0.292492
-0.2924
-0.286899
-0.290302
-0.277548
-0.299948
-0.300112
-0.300017
-0.299712
-0.299251
-0.298685
-0.298076
-0.297475
-0.296919
-0.29643
-0.296007
-0.295636
-0.295279
-0.294882
-0.294437
-0.293353
-0.293588
-0.288196
-0.292836
-0.278724
-0.297755
-0.298046
-0.298091
-0.297952
-0.297683
-0.297329
-0.296941
-0.296566
-0.296233
-0.295956
-0.295733
-0.295548
-0.295365
-0.29514
-0.294843
-0.294024
-0.294302
-0.289461
-0.294291
-0.279757
-0.295632
-0.296061
-0.296241
-0.296254
-0.296158
-0.295992
-0.295801
-0.295625
-0.295488
-0.2954
-0.295354
-0.295333
-0.295304
-0.295226
-0.295051
-0.294479
-0.294628
-0.290637
-0.294771
-0.280977
-0.293572
-0.294148
-0.294461
-0.294613
-0.294672
-0.294671
-0.294653
-0.29465
-0.294683
-0.294757
-0.294864
-0.294985
-0.295087
-0.295133
-0.295061
-0.294691
-0.294667
-0.29158
-0.294579
-0.282381
-0.291577
-0.292311
-0.292753
-0.293033
-0.293229
-0.293373
-0.293501
-0.293646
-0.293822
-0.294033
-0.294268
-0.294507
-0.294719
-0.294865
-0.29488
-0.294655
-0.294497
-0.292172
-0.294037
-0.283756
-0.289661
-0.290559
-0.291126
-0.291524
-0.291841
-0.292108
-0.29236