/*--------------------------------*- C++ -*----------------------------------*\
  =========                 |
  \\      /  F ield         | OpenFOAM: The Open Source CFD Toolbox
   \\    /   O peration     | Website:  https://openfoam.org
    \\  /    A nd           | Version:  7
     \\/     M anipulation  |
\*---------------------------------------------------------------------------*/
FoamFile
{
    version     2.0;
    format      ascii;
    class       volVectorField;
    location    "1.4";
    object      U;
}
// * * * * * * * * * * * * * * * * * * * * * * * * * * * * * * * * * * * * * //

dimensions      [0 1 -1 0 0 0 0];

internalField   nonuniform List<vector> 
344
(
(0.0287679 0.0203866 -4.52238e-16)
(0.0373039 0.0203147 -4.36875e-16)
(0.0457979 0.0202518 -4.24274e-16)
(0.0542535 0.0201991 -4.11018e-16)
(0.0626747 0.0201567 -3.93545e-16)
(0.0710646 0.0201231 -3.77129e-16)
(0.0794254 0.0200953 -3.61757e-16)
(0.0877577 0.0200691 -3.46001e-16)
(0.0960601 0.020039 -3.29164e-16)
(0.104329 0.0199985 -3.12443e-16)
(0.112557 0.0199402 -2.9547e-16)
(0.120735 0.019856 -2.77988e-16)
(0.128851 0.0197377 -2.5989e-16)
(0.136888 0.0195767 -2.43689e-16)
(0.144827 0.0193647 -2.27244e-16)
(0.152646 0.019094 -2.08897e-16)
(0.16032 0.0187575 -1.89218e-16)
(0.167822 0.0183492 -1.74073e-16)
(0.175123 0.0178646 -1.58006e-16)
(0.182191 0.0173005 -1.39614e-16)
(0.188998 0.0166552 -1.1913e-16)
(0.19551 0.0159292 -1.04584e-16)
(0.2017 0.0151246 -8.85564e-17)
(0.207538 0.0142455 -7.00249e-17)
(0.213 0.0132979 -4.86415e-17)
(0.218063 0.0122895 -3.4175e-17)
(0.222709 0.0112301 -1.9467e-17)
(0.226925 0.0101307 -2.27546e-18)
(0.230704 0.00900418 1.51032e-17)
(0.234044 0.00786449 3.44669e-17)
(-0.00521438 -0.0259022 -1.46979e-17)
(-0.0255952 -0.0554654 -7.36445e-17)
(-0.0548086 -0.0660349 -1.41932e-16)
(-0.0816377 -0.0646403 -1.59256e-16)
(-0.105084 -0.0575007 -1.88329e-16)
(-0.124203 -0.048287 -2.48563e-16)
(-0.139204 -0.0390013 -3.0501e-16)
(-0.150509 -0.0304951 -3.15137e-16)
(-0.158618 -0.0230415 -3.34116e-16)
(-0.164004 -0.01664 -3.76387e-16)
(-0.167088 -0.0111863 -4.20003e-16)
(-0.168229 -0.00654973 -4.22062e-16)
(-0.167728 -0.00260603 -4.3009e-16)
(-0.16584 0.000752616 -4.56413e-16)
(-0.162777 0.00361606 -4.8622e-16)
(-0.15872 0.00605807 -4.79483e-16)
(-0.153821 0.00813912 -4.79355e-16)
(-0.148212 0.00990904 -5.01155e-16)
(-0.142005 0.0114092 -5.19947e-16)
(-0.135298 0.0126744 -5.08673e-16)
(-0.128175 0.013734 -5.05384e-16)
(-0.12071 0.0146135 -4.98997e-16)
(-0.112968 0.0153349 -5.09013e-16)
(-0.105005 0.0159179 -5.141e-16)
(-0.0968702 0.0163798 -5.00671e-16)
(-0.0886069 0.0167365 -4.8993e-16)
(-0.0802514 0.0170023 -4.91694e-16)
(-0.0718352 0.0171905 -4.94659e-16)
(-0.0633845 0.0173135 -4.79743e-16)
(-0.0549212 0.0173825 -4.65435e-16)
(-0.0464627 0.0174082 -4.61161e-16)
(-0.0380225 0.0174003 -4.59136e-16)
(-0.0296105 0.0173675 -4.42534e-16)
(-0.0212336 0.017318 -4.2819e-16)
(-0.0128955 0.0172587 -4.2012e-16)
(-0.00459769 0.0171956 -4.12823e-16)
(0.00366031 0.0171337 -3.97045e-16)
(0.0118806 0.0170768 -3.81428e-16)
(0.0200661 0.0170274 -3.70618e-16)
(0.0282206 0.016987 -3.59493e-16)
(0.0363475 0.0169554 -3.43326e-16)
(0.0444498 0.0169316 -3.27744e-16)
(0.0525293 0.0169131 -3.14005e-16)
(0.0605866 0.0168964 -3.0005e-16)
(0.0686199 0.0168768 -2.84761e-16)
(0.0766252 0.0168489 -2.6961e-16)
(0.0845956 0.0168063 -2.54388e-16)
(0.0925215 0.0167423 -2.38332e-16)
(0.10039 0.0166496 -2.21609e-16)
(0.108185 0.0165212 -2.07545e-16)
(0.115887 0.0163497 -1.92935e-16)
(0.123475 0.0161287 -1.7614e-16)
(0.130922 0.0158521 -1.57535e-16)
(0.138203 0.0155147 -1.44437e-16)
(0.145289 0.0151125 -1.31048e-16)
(0.152149 0.0146426 -1.13207e-16)
(0.158752 0.0141036 -9.31457e-17)
(0.165069 0.0134957 -8.15435e-17)
(0.17107 0.0128204 -6.79713e-17)
(0.176728 0.0120811 -5.0017e-17)
(0.182015 0.0112826 -2.90241e-17)
(0.186912 0.0104313 -1.77216e-17)
(0.1914 0.0095352 -6.02891e-18)
(0.195465 0.00860346 1.02543e-17)
(0.199099 0.00764669 2.52685e-17)
(0.2023 0.00667657 4.34947e-17)
(-0.00457061 -0.0205337 -4.56294e-18)
(-0.0237573 -0.0458124 -6.7254e-17)
(-0.0523282 -0.055347 -1.44486e-16)
(-0.0793797 -0.0547104 -1.43062e-16)
(-0.103612 -0.0489839 -1.57536e-16)
(-0.12377 -0.0413515 -2.16893e-16)
(-0.139898 -0.0335718 -2.82361e-16)
(-0.152323 -0.0264094 -2.76381e-16)
(-0.161507 -0.0201177 -2.84932e-16)
(-0.167913 -0.0147062 -3.33098e-16)
(-0.17196 -0.010091 -3.83605e-16)
(-0.174012 -0.00616366 -3.71916e-16)
(-0.174375 -0.00282009 -3.69278e-16)
(-0.173308 3.01311e-05 -4.04709e-16)
(-0.171027 0.00246248 -4.40451e-16)
(-0.167718 0.00453892 -4.21726e-16)
(-0.163535 0.0063103 -4.13681e-16)
(-0.158614 0.00781852 -4.42105e-16)
(-0.153068 0.00909843 -4.6604e-16)
(-0.146999 0.0101793 -4.46821e-16)
(-0.140492 0.011086 -4.43162e-16)
(-0.133625 0.0118399 -4.31565e-16)
(-0.126461 0.0124597 -4.4404e-16)
(-0.119061 0.012962 -4.59305e-16)
(-0.111474 0.0133613 -4.38971e-16)
(-0.103745 0.0136712 -4.24504e-16)
(-0.0959097 0.0139037 -4.30027e-16)
(-0.0880021 0.0140701 -4.38502e-16)
(-0.0800489 0.0141808 -4.19325e-16)
(-0.0720727 0.0142454 -4.02662e-16)
(-0.0640915 0.0142728 -4.03328e-16)
(-0.0561194 0.0142714 -4.0556e-16)
(-0.0481671 0.0142485 -3.85049e-16)
(-0.0402416 0.0142111 -3.70002e-16)
(-0.0323473 0.0141651 -3.65235e-16)
(-0.024486 0.0141155 -3.61734e-16)
(-0.0166575 0.0140668 -3.43941e-16)
(-0.00886011 0.0140222 -3.28563e-16)
(-0.00109102 0.0139838 -3.2027e-16)
(0.00665311 0.013953 -3.12303e-16)
(0.0143757 0.0139299 -2.96159e-16)
(0.0220795 0.0139136 -2.81448e-16)
(0.0297663 0.0139022 -2.69838e-16)
(0.0374366 0.0138927 -2.57942e-16)
(0.0450887 0.0138815 -2.43869e-16)
(0.0527187 0.0138639 -2.30336e-16)
(0.0603199 0.0138347 -2.16922e-16)
(0.0678828 0.0137884 -2.02354e-16)
(0.075395 0.0137189 -1.86612e-16)
(0.0828408 0.0136202 -1.74936e-16)
(0.0902015 0.0134863 -1.6273e-16)
(0.0974556 0.0133118 -1.46942e-16)
(0.104579 0.0130914 -1.28516e-16)
(0.111545 0.0128209 -1.18562e-16)
(0.118327 0.0124966 -1.07811e-16)
(0.124894 0.0121163 -9.12013e-17)
(0.131217 0.0116784 -7.03743e-17)
(0.137266 0.0111829 -6.19965e-17)
(0.143013 0.0106311 -5.27365e-17)
(0.14843 0.0100253 -3.38703e-17)
(0.153493 0.00936949 -1.20973e-17)
(0.158179 0.0086687 -5.05625e-18)
(0.162471 0.00792923 3.18457e-18)
(0.166355 0.00715856 1.88704e-17)
(0.169822 0.00636521 3.06064e-17)
(0.172868 0.00555866 4.84101e-17)
(-0.00392769 -0.0157003 1.13382e-17)
(-0.0216309 -0.0367418 -5.91937e-17)
(-0.0489243 -0.0450341 -1.14474e-16)
(-0.0754501 -0.0449109 -1.25578e-16)
(-0.0996862 -0.0404296 -1.20888e-16)
(-0.120161 -0.0342781 -1.88866e-16)
(-0.136779 -0.0279482 -2.36819e-16)
(-0.149784 -0.0220985 -2.4019e-16)
(-0.159597 -0.0169507 -2.32911e-16)
(-0.16666 -0.0125181 -2.90242e-16)
(-0.17138 -0.00873441 -3.243e-16)
(-0.174113 -0.00551173 -3.22177e-16)
(-0.175162 -0.00276549 -3.06858e-16)
(-0.17478 -0.000422155 -3.50022e-16)
(-0.173185 0.00157964 -3.75527e-16)
(-0.170557 0.00329028 -3.64912e-16)
(-0.167051 0.00475116 -3.46408e-16)
(-0.162801 0.00599638 -3.81625e-16)
(-0.157921 0.00705434 -3.99618e-16)
(-0.152509 0.00794891 -3.85715e-16)
(-0.146654 0.0087004 -3.80963e-16)
(-0.140429 0.0093263 -3.63883e-16)
(-0.133902 0.00984187 -3.84089e-16)
(-0.12713 0.0102606 -3.91514e-16)
(-0.120163 0.0105946 -3.78659e-16)
(-0.113045 0.0108547 -3.59514e-16)
(-0.105814 0.011051 -3.71204e-16)
(-0.0985029 0.0111925 -3.74248e-16)
(-0.0911384 0.011288 -3.61519e-16)
(-0.0837433 0.0113452 -3.41558e-16)
(-0.076336 0.0113715 -3.46976e-16)
(-0.0689309 0.0113737 -3.45441e-16)
(-0.0615385 0.011358 -3.317e-16)
(-0.0541665 0.01133 -3.14535e-16)
(-0.0468194 0.0112946 -3.13183e-16)
(-0.0394993 0.0112562 -3.08249e-16)
(-0.0322064 0.0112183 -2.94484e-16)
(-0.024939 0.0111836 -2.78573e-16)
(-0.0176947 0.0111541 -2.73564e-16)
(-0.0104702 0.0111309 -2.65605e-16)
(-0.00326237 0.0111142 -2.52072e-16)
(0.0039317 0.0111034 -2.38157e-16)
(0.0111139 0.011097 -2.28909e-16)
(0.0182846 0.0110928 -2.18348e-16)
(0.0254426 0.0110877 -2.06229e-16)
(0.0325842 0.0110782 -1.94388e-16)
(0.0397034 0.01106 -1.8292e-16)
(0.0467914 0.0110286 -1.6966e-16)
(0.0538364 0.0109792 -1.56457e-16)
(0.0608237 0.0109068 -1.45709e-16)
(0.0677357 0.0108067 -1.36476e-16)
(0.0745521 0.0106743 -1.20941e-16)
(0.0812501 0.0105054 -1.0583e-16)
(0.0878046 0.0102963 -9.63684e-17)
(0.094189 0.0100441 -8.89302e-17)
(0.100375 0.0097467 -7.19343e-17)
(0.106336 0.00940282 -5.49628e-17)
(0.112041 0.00901223 -4.63344e-17)
(0.117464 0.0085757 -4.07887e-17)
(0.122578 0.00809505 -2.17784e-17)
(0.12736 0.00757314 -3.95483e-18)
(0.131787 0.00701386 4.2291e-18)
(0.135842 0.00642209 7.60609e-18)
(0.13951 0.00580361 2.44958e-17)
(0.142783 0.00516509 3.16722e-17)
(0.145655 0.00451396 5.05069e-17)
(-0.00326198 -0.0114417 4.05934e-18)
(-0.0192064 -0.0283971 -4.70559e-17)
(-0.0446502 -0.0353122 -9.32329e-17)
(-0.0699465 -0.0354937 -1.07067e-16)
(-0.0934323 -0.0320912 -1.13824e-16)
(-0.113509 -0.0273005 -1.61054e-16)
(-0.12998 -0.0223357 -1.95941e-16)
(-0.143021 -0.0177365 -2.0494e-16)
(-0.153008 -0.0136851 -2.07022e-16)
(-0.160355 -0.0101944 -2.45205e-16)
(-0.165446 -0.00721249 -2.72434e-16)
(-0.16862 -0.00467061 -2.73669e-16)
(-0.170166 -0.00250247 -2.6725e-16)
(-0.170328 -0.000650527 -3.00995e-16)
(-0.169312 0.000933139 -3.16347e-16)
(-0.167293 0.00228791 -3.11711e-16)
(-0.16442 0.00344611 -3.02835e-16)
(-0.160821 0.00443443 -3.24447e-16)
(-0.156605 0.00527507 -3.37957e-16)
(-0.151869 0.00598676 -3.28566e-16)
(-0.146696 0.00658541 -3.23047e-16)
(-0.141159 0.00708476 -3.10695e-16)
(-0.135322 0.0074968 -3.26371e-16)
(-0.129242 0.00783213 -3.3175e-16)
(-0.122966 0.00810023 -3.21202e-16)
(-0.116538 0.00830971 -3.08984e-16)
(-0.109995 0.00846843 -3.15239e-16)
(-0.103367 0.00858364 -3.15885e-16)
(-0.0966826 0.00866204 -3.06076e-16)
(-0.0899627 0.0087099 -2.92408e-16)
(-0.0832258 0.00873302 -2.93895e-16)
(-0.0764859 0.00873675 -2.90496e-16)
(-0.0697539 0.00872603 -2.80333e-16)
(-0.0630371 0.00870531 -2.67713e-16)
(-0.0563404 0.00867857 -2.64133e-16)
(-0.0496659 0.00864923 -2.59367e-16)
(-0.0430139 0.00862016 -2.4784e-16)
(-0.0363833 0.00859361 -2.35797e-16)
(-0.0297715 0.00857121 -2.30044e-16)
(-0.0231755 0.00855391 -2.22546e-16)
(-0.0165922 0.00854199 -2.11384e-16)
(-0.0100187 0.00853503 -2.00153e-16)
(-0.00345303 0.00853199 -1.91353e-16)
(0.00310567 0.00853116 -1.8198e-16)
(0.00965647 0.00853027 -1.71714e-16)
(0.0161965 0.00852653 -1.61496e-16)
(0.0227204 0.00851674 -1.51429e-16)
(0.0292203 0.00849736 -1.40148e-16)
(0.0356859 0.00846464 -1.28978e-16)
(0.0421037 0.00841474 -1.19349e-16)
(0.0484577 0.00834386 -1.10876e-16)
(0.0547293 0.00824839 -9.84418e-17)
(0.0608975 0.00812497 -8.58455e-17)
(0.0669392 0.00797069 -7.67756e-17)
(0.0728297 0.00778315 -6.92874e-17)
(0.0785432 0.00756054 -5.56824e-17)
(0.0840531 0.00730178 -4.21585e-17)
(0.0893328 0.0070065 -3.36705e-17)
(0.0943563 0.00667514 -2.69509e-17)
(0.0990987 0.00630893 -1.23758e-17)
(0.103537 0.0059099 2.07695e-18)
(0.10765 0.00548087 1.03967e-17)
(0.11142 0.00502544 1.49461e-17)
(0.114833 0.0045479 2.78843e-17)
(0.117879 0.00405325 3.55821e-17)
(0.120552 0.00354709 5.04666e-17)
(-0.00255872 -0.00780308 -1.39475e-18)
(-0.0164849 -0.0209075 -3.89131e-17)
(-0.0395538 -0.0263798 -7.21893e-17)
(-0.062947 -0.0266975 -9.4745e-17)
(-0.0849465 -0.0242137 -9.73796e-17)
(-0.103919 -0.0206482 -1.35583e-16)
(-0.119607 -0.0169371 -1.62779e-16)
(-0.132134 -0.013497 -1.72048e-16)
(-0.141836 -0.0104664 -1.7572e-16)
(-0.149087 -0.00785468 -2.05569e-16)
(-0.15424 -0.00562264 -2.24579e-16)
(-0.157608 -0.00371851 -2.31652e-16)
(-0.159458 -0.00209281 -2.25015e-16)
(-0.160014 -0.000702742 -2.49517e-16)
(-0.159468 0.000487244 -2.6133e-16)
(-0.157982 0.00150635 -2.59969e-16)
(-0.155692 0.00237854 -2.53897e-16)
(-0.152719 0.00312362 -2.71864e-16)
(-0.149165 0.00375808 -2.80416e-16)
(-0.145118 0.00429585 -2.73683e-16)
(-0.140658 0.00474878 -2.6818e-16)
(-0.135852 0.00512709 -2.6139e-16)
(-0.13076 0.00543973 -2.70354e-16)
(-0.125434 0.00569462 -2.76064e-16)
(-0.119921 0.00589883 -2.67404e-16)
(-0.114261 0.00605879 -2.5816e-16)
(-0.108488 0.00618038 -2.62687e-16)
(-0.102632 0.00626903 -2.61186e-16)
(-0.0967178 0.00632976 -2.54686e-16)
(-0.0907672 0.00636727 -2.43942e-16)
(-0.084797 0.00638591 -2.43478e-16)
(-0.0788209 0.00638973 -2.40102e-16)
(-0.0728492 0.00638244 -2.32563e-16)
(-0.066889 0.00636742 -2.21496e-16)
(-0.0609451 0.00634769 -2.18072e-16)
(-0.0550198 0.00632587 -2.1346e-16)
(-0.0491135 0.00630418 -2.0451e-16)
(-0.0432252 0.00628437 -1.94904e-16)
(-0.0373525 0.00626772 -1.89301e-16)
(-0.0314927 0.00625503 -1.8229e-16)
(-0.0256426 0.00624659 -1.73493e-16)
(-0.0197993 0.00624218 -1.64351e-16)
(-0.0139606 0.00624108 -1.56548e-16)
(-0.00812541 0.00624211 -1.48522e-16)
(-0.00229399 0.00624363 -1.39975e-16)
(0.00353151 0.00624362 -1.31369e-16)
(0.00934689 0.00623974 -1.22851e-16)
(0.0151456 0.00622937 -1.13339e-16)
(0.0209187 0.00620974 -1.04192e-16)
(0.0266546 0.00617798 -9.58746e-17)
)
;

boundaryField
{
    inlet
    {
        type            uniformFixedValue;
        uniformValue    constant (1 0 0);
        value           nonuniform 0();
    }
    outlet
    {
        type            pressureInletOutletVelocity;
        value           nonuniform 0();
    }
    wall
    {
        type            fixedValue;
        value           uniform (0 0 0);
    }
    wedge1
    {
        type            wedge;
    }
    wedge2
    {
        type            wedge;
    }
    axis
    {
        type            empty;
    }
    procBoundary39to33
    {
        type            processor;
        value           nonuniform List<vector> 
67
(
(0.0586779 0.0237929 -5.11046e-16)
(0.0674233 0.023703 -4.95707e-16)
(0.0761182 0.0236234 -4.80995e-16)
(0.0847668 0.0235557 -4.66425e-16)
(0.0933731 0.0234997 -4.4755e-16)
(0.101941 0.0234537 -4.30114e-16)
(0.110473 0.0234141 -4.13041e-16)
(0.11897 0.0233761 -3.95903e-16)
(0.127431 0.0233332 -3.77309e-16)
(0.135853 0.023278 -3.58939e-16)
(0.144229 0.0232019 -3.40277e-16)
(0.152552 0.0230957 -3.21325e-16)
(0.160808 0.0229497 -3.0176e-16)
(0.168982 0.0227541 -2.83522e-16)
(0.177055 0.0224995 -2.65163e-16)
(0.185007 0.0221769 -2.45454e-16)
(0.192812 0.0217782 -2.24743e-16)
(0.200443 0.0212967 -2.0732e-16)
(0.207873 0.020727 -1.89418e-16)
(0.215069 0.0200656 -1.69032e-16)
(0.222003 0.0193109 -1.47924e-16)
(0.228643 0.0184634 -1.31368e-16)
(0.234959 0.0175257 -1.13032e-16)
(0.240923 0.0165029 -9.3472e-17)
(0.246509 0.0154019 -7.11018e-17)
(0.251697 0.0142322 -5.48554e-17)
(0.256467 0.0130051 -3.71568e-17)
(0.260807 0.0117338 -1.83297e-17)
(0.264709 0.0104332 8.5301e-19)
(0.268171 0.00911991 2.20266e-17)
(-0.00588846 -0.0317739 -2.03688e-17)
(-0.0271557 -0.065539 -8.16908e-17)
(-0.0562961 -0.0768584 -1.50748e-16)
(-0.0820965 -0.07443 -1.80878e-16)
(-0.103941 -0.0657156 -2.21033e-16)
(-0.121286 -0.0548455 -2.77149e-16)
(-0.134528 -0.0440307 -3.34363e-16)
(-0.144186 -0.0341826 -3.54244e-16)
(-0.150787 -0.0255795 -3.80266e-16)
(-0.154806 -0.0182035 -4.20822e-16)
(-0.156649 -0.0119269 -4.63345e-16)
(-0.156661 -0.00659582 -4.72394e-16)
(-0.155131 -0.00206547 -4.86281e-16)
(-0.152298 0.00178936 -5.12029e-16)
(-0.148365 0.00507277 -5.39342e-16)
(-0.143503 0.0078702 -5.38071e-16)
(-0.137857 0.0102517 -5.427e-16)
(-0.13155 0.0122748 -5.61806e-16)
(-0.12469 0.0139873 -5.77069e-16)
(-0.117369 0.0154295 -5.72938e-16)
(-0.109667 0.0166354 -5.71344e-16)
(-0.101654 0.0176342 -5.68253e-16)
(-0.093392 0.0184515 -5.73265e-16)
(-0.0849335 0.0191097 -5.74578e-16)
(-0.0763254 0.019629 -5.65053e-16)
(-0.0676081 0.0200277 -5.56407e-16)
(-0.0588165 0.0203222 -5.55682e-16)
(-0.04998 0.020528 -5.56304e-16)
(-0.0411236 0.0206591 -5.41736e-16)
(-0.0322677 0.0207286 -5.28861e-16)
(-0.0234286 0.0207488 -5.23034e-16)
(-0.0146191 0.0207307 -5.1743e-16)
(-0.00584807 0.0206847 -5.02392e-16)
(0.00287829 0.0206198 -4.88109e-16)
(0.0115567 0.0205441 -4.77625e-16)
(0.0201863 0.0204645 -4.68347e-16)
(0.0201863 0.0204645 -4.68347e-16)
)
;
    }
    procBoundary39to34
    {
        type            processor;
        value           uniform (0.236948 0.00672685 5.33585e-17);
    }
    procBoundary39to40
    {
        type            processor;
        value           nonuniform List<vector> 4((0.205072 0.00570579 6.0162e-17) (0.175497 0.00474923 6.21154e-17) (0.148127 0.00385837 5.94939e-17) (0.122851 0.00303557 6.04586e-17));
    }
    procBoundary39to45
    {
        type            processor;
        value           nonuniform List<vector> 
67
(
(0.0323393 0.00613126 -8.85965e-17)
(0.0379564 0.00606684 -7.80124e-17)
(0.0434873 0.00598217 -6.78705e-17)
(0.0489113 0.00587501 -5.96036e-17)
(0.0542064 0.00574346 -5.28929e-17)
(0.0593492 0.00558611 -4.222e-17)
(0.0643156 0.005402 -3.12999e-17)
(0.0690814 0.00519073 -2.34128e-17)
(0.0736226 0.00495247 -1.77601e-17)
(0.0779163 0.00468797 -5.44533e-18)
(0.0819408 0.00439859 6.0724e-18)
(0.0856766 0.00408624 1.36991e-17)
(0.0891063 0.00375342 1.85447e-17)
(0.092216 0.00340314 2.95871e-17)
(0.094995 0.00303893 3.6313e-17)
(0.0974363 0.00266478 4.82534e-17)
(-0.00181705 -0.00483059 2.88081e-18)
(-0.0134879 -0.0143887 -3.42638e-17)
(-0.0336872 -0.0184213 -6.14167e-17)
(-0.0545163 -0.0187497 -7.92857e-17)
(-0.0742999 -0.0170342 -7.89773e-17)
(-0.0914633 -0.0145449 -1.11615e-16)
(-0.105733 -0.0119518 -1.31292e-16)
(-0.117199 -0.00955099 -1.38934e-16)
(-0.126153 -0.00743811 -1.42878e-16)
(-0.132926 -0.005618 -1.69142e-16)
(-0.13783 -0.00406211 -1.83033e-16)
(-0.141143 -0.00273389 -1.87658e-16)
(-0.143098 -0.00159881 -1.83997e-16)
(-0.143897 -0.00062721 -2.03971e-16)
(-0.143707 0.000205482 -2.11025e-16)
(-0.142672 0.000919408 -2.12758e-16)
(-0.140915 0.0015311 -2.0582e-16)
(-0.138541 0.00205422 -2.20082e-16)
(-0.135643 0.00250019 -2.24835e-16)
(-0.1323 0.00287862 -2.21011e-16)
(-0.128581 0.00319773 -2.163e-16)
(-0.124548 0.00346462 -2.09276e-16)
(-0.120255 0.00368548 -2.18672e-16)
(-0.115748 0.00386582 -2.20403e-16)
(-0.111069 0.00401056 -2.16215e-16)
(-0.106254 0.00412416 -2.07557e-16)
(-0.101335 0.00421072 -2.1122e-16)
(-0.096338 0.00427402 -2.1016e-16)
(-0.0912865 0.00431757 -2.0557e-16)
(-0.0861994 0.00434464 -1.94653e-16)
(-0.0810927 0.00435829 -1.95502e-16)
(-0.0759786 0.00436135 -1.9261e-16)
(-0.0708668 0.00435644 -1.8759e-16)
(-0.0657641 0.00434595 -1.77561e-16)
(-0.0606747 0.00433202 -1.75085e-16)
(-0.0556012 0.00431653 -1.70634e-16)
(-0.0505438 0.00430105 -1.63974e-16)
(-0.0455018 0.00428689 -1.55523e-16)
(-0.0404731 0.00427499 -1.512e-16)
(-0.035455 0.00426597 -1.45416e-16)
(-0.0304446 0.00426011 -1.38273e-16)
(-0.025439 0.0042573 -1.30279e-16)
(-0.0204358 0.00425713 -1.24452e-16)
(-0.0154336 0.00425882 -1.17698e-16)
(-0.010432 0.00426129 -1.1075e-16)
(-0.00543227 0.00426318 -1.03716e-16)
(-0.000437497 0.00426289 -9.67542e-17)
(0.0045473 0.00425864 -8.91172e-17)
(0.00951492 0.0042485 -8.16719e-17)
(0.0323393 0.00613126 -8.85965e-17)
(0.0144559 0.0042305 -7.4722e-17)
)
;
    }
}


// ************************************************************************* //
