/*--------------------------------*- C++ -*----------------------------------*\
  =========                 |
  \\      /  F ield         | OpenFOAM: The Open Source CFD Toolbox
   \\    /   O peration     | Website:  https://openfoam.org
    \\  /    A nd           | Version:  7
     \\/     M anipulation  |
\*---------------------------------------------------------------------------*/
FoamFile
{
    version     2.0;
    format      ascii;
    class       surfaceScalarField;
    location    "7.000532";
    object      phi;
}
// * * * * * * * * * * * * * * * * * * * * * * * * * * * * * * * * * * * * * //

dimensions      [0 3 -1 0 0 0 0];

internalField   nonuniform List<scalar> 
11438
(
-7.534e-05
0.000145252
-0.000156939
0.000183273
-0.00025089
0.000258625
-0.00036297
0.000369956
0.000515288
0.00017761
-3.23579e-05
0.000208935
-3.13243e-05
0.000239957
-3.10221e-05
0.000271113
-3.11553e-05
0.000302726
-3.16123e-05
0.00033508
-3.23534e-05
0.00036842
-3.33397e-05
0.000402959
-3.45386e-05
0.000438887
-3.59268e-05
0.000476375
-3.74876e-05
0.000515585
-3.92083e-05
0.000556664
-4.1079e-05
0.000599757
-4.30916e-05
0.000644998
-4.52396e-05
0.000692516
-4.7517e-05
0.000742435
-4.99185e-05
0.000794875
-5.24389e-05
0.000849949
-5.5073e-05
0.000907766
-5.78152e-05
0.000968426
-6.06594e-05
0.00103203
-6.35984e-05
0.00109865
-6.66241e-05
0.00116838
-6.97269e-05
0.00124128
-7.28957e-05
0.00131739
-7.61173e-05
0.00139677
-7.93766e-05
0.00147943
-8.26562e-05
0.00156537
-8.59366e-05
0.00165456
-8.91963e-05
0.00174697
-9.24114e-05
0.00184253
-9.55566e-05
0.00194114
-9.86049e-05
0.00204266
-0.000101528
0.00214696
-0.000104299
0.00225385
-0.000106887
0.00236311
-0.000109265
0.00247452
-0.000111407
0.0025878
-0.000113285
0.00270268
-0.000114878
0.00281884
-0.000116162
0.00293596
-0.000117121
0.00305369
-0.000117737
0.00317169
-0.000117996
0.00328957
-0.000117887
0.00340697
-0.000117401
0.0035235
-0.00011653
0.00363877
-0.000115268
0.00375237
-0.00011361
0.00386392
-0.00011155
0.003973
-0.000109084
1.9081e-09
0.00407921
-0.000106209
1.75906e-09
0.00418213
-0.00010292
1.58566e-09
0.00428135
-9.92183e-05
1.39349e-09
0.00437645
-9.51055e-05
1.18761e-09
0.00446704
-9.05898e-05
9.73071e-10
0.00455273
-8.56867e-05
7.55542e-10
0.00463315
-8.04222e-05
5.41125e-10
0.00470798
-7.48348e-05
3.36135e-10
0.00477696
-6.89768e-05
1.45324e-10
0.00483987
-6.29153e-05
-2.68374e-11
0.0048966
-5.6731e-05
-1.76737e-10
0.00494712
-5.05144e-05
-3.01868e-10
0.00499149
-4.43656e-05
-4.01238e-10
0.00502986
-3.83735e-05
-4.75174e-10
0.00506251
-3.26534e-05
-5.25621e-10
0.00508974
-2.7222e-05
-5.53786e-10
0.00511204
-2.22988e-05
-5.66612e-10
0.00512956
-1.75289e-05
-5.60168e-10
0.00514349
-1.39245e-05
-5.52771e-10
-8.95547e-06
-5.11747e-10
0.000215229
-6.43134e-05
0.00024621
-6.23055e-05
0.00027695
-6.17623e-05
0.000307857
-6.20619e-05
0.000339236
-6.29916e-05
0.000371364
-6.44811e-05
0.00040448
-6.64562e-05
0.000438795
-6.88527e-05
0.000474493
-7.16251e-05
0.000511746
-7.47404e-05
0.000550711
-7.81733e-05
0.000591535
-8.19039e-05
0.00063436
-8.5916e-05
0.000679316
-9.01961e-05
0.000726532
-9.47325e-05
0.000776128
-9.95144e-05
0.00082822
-0.000104531
0.00088292
-0.000109773
0.000940334
-0.000115228
0.00100056
-0.000120885
0.00106369
-0.000126729
0.00112981
-0.000132745
0.001199
-0.000138914
0.00127132
-0.000145213
0.00134681
-0.000151616
0.00142553
-0.000158095
0.00150749
-0.000164613
0.00159269
-0.000171134
0.0016811
-0.000177613
0.0017727
-0.000184004
0.0018674
-0.000190257
0.00196511
-0.000196317
0.00206571
-0.000202131
0.00216905
-0.00020764
0.00227495
-0.000212788
0.00238321
-0.00021752
0.00249358
-0.000221782
0.00260582
-0.000225522
0.00271964
-0.000228694
0.00283473
-0.000231256
0.00295078
-0.00023317
0.00306745
-0.000234404
0.00318438
-0.00023493
0.00330122
-0.000234725
0.00341759
-0.000233771
0.00353311
-0.000232052
0.0036474
-0.000229557
0.00376006
-0.000226273
0.00387071
-0.000222191
0.00397892
-0.000217302
0.00408431
-0.000211598
0.00418647
-0.000205073
0.00428497
-0.000197724
0.00437942
-0.000189556
0.00446942
-0.000180585
0.00455457
-0.000170842
0.00463453
-0.000160377
0.00470896
-0.000149267
0.0047776
-0.000137615
0.00484024
-0.000125555
0.00489675
-0.000113248
0.00494711
-0.000100873
0.00499138
-8.86297e-05
0.0050297
-7.66965e-05
0.00506235
-6.53025e-05
0.00508961
-5.44819e-05
0.00511198
-4.46721e-05
0.00512962
-3.51668e-05
0.00514368
-2.79833e-05
-1.80792e-05
0.000289762
-9.545e-05
0.000320034
-9.25779e-05
0.000350186
-9.19146e-05
0.000380573
-9.24488e-05
0.000411466
-9.38846e-05
0.000443125
-9.61397e-05
0.000475779
-9.91105e-05
0.00050963
-0.000102704
0.000544859
-0.000106854
0.000581632
-0.000111513
0.0006201
-0.000116642
0.000660408
-0.000122212
0.000702689
-0.000128198
0.000747073
-0.000134579
0.000793679
-0.000141339
0.000842624
-0.000148459
0.000894018
-0.000155926
0.000947968
-0.000163723
0.00100457
-0.000171834
0.00106393
-0.000180242
0.00112613
-0.000188925
0.00119124
-0.000197862
0.00125935
-0.000207023
0.00133052
-0.000216376
0.00140478
-0.000225885
0.00148219
-0.000235503
0.00156276
-0.000245182
0.00164649
-0.000254863
0.00173336
-0.000264484
0.00182333
-0.000273976
0.00191634
-0.000283262
0.00201229
-0.000292265
0.00211106
-0.000300903
0.00221251
-0.00030909
0.00231647
-0.000316744
0.00242273
-0.000323782
0.00253107
-0.000330124
0.00264124
-0.000335694
0.00275297
-0.000340423
0.00286596
-0.000344248
0.0029799
-0.000347113
0.00309447
-0.000348969
0.00320932
-0.000349777
0.00332409
-0.000349501
0.00343844
-0.000348115
0.00355198
-0.000345595
0.00366434
-0.000341921
0.00377515
-0.000337078
0.00388401
-0.000331049
0.00399053
-0.000323821
0.00409431
-0.000315381
0.00419495
-0.000305719
0.00429206
-0.00029483
0.00438523
-0.000282722
0.00447406
-0.000269415
0.00455817
-0.000254954
0.00463721
-0.000239415
0.00471085
-0.000222908
0.00477882
-0.000205589
0.00484092
-0.000187655
0.00489702
-0.000169344
0.00494707
-0.000150925
0.00499114
-0.000132697
0.00502936
-0.000114923
0.00506201
-9.79464e-05
0.00508934
-8.18199e-05
0.00511187
-6.7196e-05
0.00512973
-5.30236e-05
0.00514405
-4.2311e-05
-2.75392e-05
0.000399822
-0.000125317
0.000428978
-0.000121734
0.000458194
-0.00012113
0.00048775
-0.000122005
0.000517868
-0.000124002
0.000548783
-0.000127054
0.000580709
-0.000131037
0.000613836
-0.000135831
0.000648335
-0.000141353
0.000684364
-0.000147541
0.000722068
-0.000154346
0.000761583
-0.000161727
0.000803036
-0.000169651
0.000846547
-0.00017809
0.000892228
-0.00018702
0.000940187
-0.000196419
0.000990528
-0.000206267
0.00104335
-0.000216543
0.00109874
-0.000227227
0.00115679
-0.000238295
0.00121759
-0.000249722
0.00128121
-0.000261477
0.00134771
-0.000273525
0.00141716
-0.000285825
0.0014896
-0.000298325
0.00156507
-0.000310971
0.00164358
-0.000323695
0.00172514
-0.000336424
0.00180973
-0.000349074
0.00189731
-0.000361556
0.00198782
-0.000373771
0.00208117
-0.000385616
0.00217725
-0.000396983
0.00227592
-0.000407763
0.00237702
-0.000417845
0.00248036
-0.000427121
0.00258572
-0.000435485
0.00269287
-0.00044284
0.00280154
-0.000449093
0.00291145
-0.000454161
0.00302231
-0.000457972
0.0031338
-0.000460461
0.0032456
-0.000461574
0.00335737
-0.000461266
0.00346875
-0.000459501
0.0035794
-0.000456247
0.00368896
-0.000451477
0.00379705
-0.00044517
0.00390331
-0.000437305
0.00400735
-0.00042786
0.00410878
-0.000416819
0.00420723
-0.000404167
0.0043023
-0.000389896
0.00439359
-0.000374013
0.00448072
-0.000356545
0.00456331
-0.000337547
0.00464101
-0.000317117
0.0047135
-0.0002954
0.00478051
-0.000272598
0.00484183
-0.000248971
0.00489732
-0.000224833
0.00494693
-0.00020054
0.00499072
-0.000176484
0.00502881
-0.000153016
0.00506146
-0.000130592
0.00508892
-0.000109283
0.00511168
-8.99516e-05
0.00512987
-7.1213e-05
0.0051446
-5.70451e-05
-3.75054e-05
0.000543386
-0.000153415
0.00057096
-0.000149308
0.000598833
-0.000149003
0.000627192
-0.000150365
0.000656197
-0.000153007
0.00068605
-0.000156907
0.000716944
-0.000161931
0.000749053
-0.00016794
0.000782534
-0.000174834
0.000817533
-0.00018254
0.000854184
-0.000190998
0.000892613
-0.000200156
0.000932936
-0.000209973
0.00097526
-0.000220414
0.00101969
-0.000231449
0.00106632
-0.000243049
0.00111524
-0.000255191
0.00116655
-0.000267849
0.00122032
-0.000280999
0.00127664
-0.000294613
0.00133558
-0.000308661
0.00139721
-0.000323106
0.00146159
-0.000337907
0.00152878
-0.000353013
0.00159882
-0.000368364
0.00167174
-0.000383892
0.00174756
-0.000399517
0.00182629
-0.000415149
0.0019079
-0.000430688
0.00199237
-0.000446022
0.00207963
-0.000461032
0.0021696
-0.000475593
0.00226219
-0.000489573
0.00235727
-0.000502837
0.00245467
-0.00051525
0.00255423
-0.000526679
0.00265574
-0.000536997
0.00275898
-0.000546081
0.00286371
-0.00055382
0.00296966
-0.00056011
0.00307655
-0.000564862
0.00318409
-0.000567997
0.00329196
-0.000569449
0.00339985
-0.00056916
0.00350744
-0.000567086
0.00361438
-0.000563186
0.00372033
-0.000557428
0.00382494
-0.000549782
0.00392786
-0.000540221
0.00402872
-0.000528719
0.00412715
-0.000515251
0.00422278
-0.000499797
0.00431523
-0.000482347
0.00440412
-0.000462904
0.00448907
-0.000441497
0.00456972
-0.000418194
0.00464571
-0.00039311
0.00471673
-0.000366422
0.00478251
-0.000338376
0.00484283
-0.000309291
0.00489755
-0.000279554
0.00494662
-0.000249604
0.00499006
-0.000219926
0.005028
-0.000190957
0.00506067
-0.00016326
0.00508831
-0.000136927
0.00511139
-0.000113027
0.00513003
-8.9854e-05
0.00514531
-7.23272e-05
-4.81496e-05
0.000717841
-0.000179193
0.000743306
-0.000174773
0.000769362
-0.000175059
0.000796098
-0.000177101
0.000823594
-0.000180503
0.000852017
-0.00018533
0.000881533
-0.000191448
0.000912293
-0.0001987
0.000944436
-0.000206977
0.000978091
-0.000216195
0.00101338
-0.000226284
0.00105041
-0.000237184
0.00108928
-0.000248845
0.00113009
-0.000261224
0.00117292
-0.000274284
0.00121787
-0.000287995
0.001265
-0.000302327
0.00131441
-0.000317252
0.00136615
-0.000332742
0.0014203
-0.000348766
0.00147693
-0.000365291
0.0015361
-0.000382274
0.00159786
-0.000399669
0.00166227
-0.000417419
0.00172936
-0.000435455
0.00179916
-0.000453697
0.0018717
-0.000472055
0.00194698
-0.000490423
0.00202497
-0.000508684
0.00210566
-0.000526711
0.00218899
-0.000544363
0.00227489
-0.000561494
0.00236327
-0.00057795
0.00245401
-0.000593574
0.00254697
-0.000608208
0.00264198
-0.000621697
0.00273888
-0.000633889
0.00283744
-0.000644642
0.00293744
-0.000653824
0.00303865
-0.000661315
0.00314079
-0.000667008
0.0032436
-0.000670811
0.0033468
-0.000672643
0.00345008
-0.000672438
0.00355313
-0.000670141
0.00365565
-0.000665704
0.00375731
-0.000659086
0.00385778
-0.000650252
0.00395672
-0.000639166
0.0040538
-0.000625795
0.00414866
-0.000610109
0.00424094
-0.00059208
0.00433028
-0.000571691
0.00441632
-0.000548943
0.00449869
-0.000523866
0.00457703
-0.000496534
0.004651
-0.00046708
0.00472028
-0.000435707
0.00478461
-0.000402703
0.00484376
-0.000368442
0.00489759
-0.00033338
0.00494602
-0.000298034
0.00498907
-0.000262982
0.00502686
-0.000228743
0.00505958
-0.000195983
0.00508748
-0.000164821
0.00511097
-0.00013652
0.00513019
-0.000109072
0.00514616
-8.8303e-05
-5.96464e-05
0.000920043
-0.00020204
0.000942813
-0.000197543
0.000966519
-0.000198764
0.000991141
-0.000201723
0.00101668
-0.000206041
0.00104326
-0.000211906
0.00107101
-0.000219197
0.00110005
-0.000227744
0.0011305
-0.00023743
0.00116247
-0.000248165
0.00119606
-0.00025987
0.00123135
-0.000272476
0.00126843
-0.000285926
0.00130738
-0.000300172
0.00134827
-0.000315172
0.00139116
-0.00033089
0.00143613
-0.000347295
0.00148324
-0.000364357
0.00153254
-0.000382046
0.0015841
-0.000400328
0.00163798
-0.000419168
0.00169423
-0.000438522
0.00175289
-0.000458337
0.00181403
-0.00047855
0.00187766
-0.000499087
0.00194382
-0.000519858
0.00201253
-0.000540763
0.00208379
-0.000561683
0.00215759
-0.000582487
0.00223391
-0.000603031
0.0023127
-0.000623157
0.00239391
-0.000642701
0.00247745
-0.000661487
0.00256321
-0.000679338
0.00265108
-0.000696075
0.0027409
-0.000711521
0.00283252
-0.000725505
0.00292574
-0.000737865
0.00302037
-0.00074845
0.00311618
-0.000757124
0.00321293
-0.000763764
0.00331038
-0.000768263
0.00340827
-0.000770529
0.00350632
-0.000770486
0.00360425
-0.000768068
0.00370176
-0.000763219
0.00379857
-0.000755891
0.00389435
-0.00074604
0.00398881
-0.000733624
0.00408162
-0.000718602
0.00417244
-0.000700934
0.00426095
-0.000680585
0.00434679
-0.000657532
0.00442962
-0.000631769
0.00450908
-0.000603326
0.00458482
-0.000572281
0.00465652
-0.000538778
0.00472386
-0.000503046
0.00478657
-0.00046541
0.00484442
-0.000426294
0.00489726
-0.00038622
0.00494501
-0.00034578
0.00498766
-0.000305637
0.00502531
-0.000266393
0.00505814
-0.000228815
0.00508637
-0.000193045
0.00511039
-0.000160538
0.00513031
-0.000129
0.00514714
-0.000105124
-7.21733e-05
0.00114637
-0.000221284
0.00116582
-0.000216994
0.00118659
-0.000219536
0.00120856
-0.000223693
0.00123165
-0.000229126
0.00125592
-0.00023618
0.00128148
-0.000244758
0.00130841
-0.000254676
0.0013368
-0.000265817
0.00136672
-0.000278086
0.00139825
-0.000291397
0.00143145
-0.000305677
0.00146639
-0.000320861
0.00150311
-0.000336898
0.00154168
-0.000353742
0.00158215
-0.000371357
0.00162456
-0.000389709
0.00166897
-0.000408768
0.00171543
-0.000428503
0.00176398
-0.000448882
0.00181468
-0.000469866
0.00186757
-0.00049141
0.00192269
-0.000513459
0.00198009
-0.000535946
0.00203979
-0.000558791
0.00210183
-0.000581897
0.00216622
-0.000605154
0.00223297
-0.000628434
0.00230208
-0.000651592
0.00237352
-0.000674471
0.00244726
-0.000696898
0.00252325
-0.00071869
0.00260142
-0.000739655
0.00268168
-0.000759597
0.00276392
-0.000778317
0.00284802
-0.00079562
0.00293383
-0.000811316
0.00302119
-0.000825225
0.00310992
-0.000837178
0.00319982
-0.000847023
0.00329068
-0.000854623
0.00338227
-0.000859858
0.00347437
-0.000862624
0.00356671
-0.000862833
0.00365906
-0.00086041
0.00375113
-0.000855291
0.00384266
-0.00084742
0.00393336
-0.000836743
0.00402295
-0.000823211
0.00411112
-0.000806775
0.00419757
-0.000787385
0.00428198
-0.000764997
0.00436403
-0.000739579
0.00444338
-0.000711119
0.00451969
-0.000679641
0.00459264
-0.000645227
0.00466189
-0.000608029
0.00472714
-0.000568297
0.00478812
-0.000526386
0.00484459
-0.00048277
0.0048964
-0.000438028
0.00494345
-0.000392826
0.00498572
-0.000347907
0.00502328
-0.000303952
0.00505629
-0.000261824
0.00508494
-0.000221696
0.0051096
-0.000185199
0.00513038
-0.00014978
0.0051482
-0.000122948
-8.5911e-05
0.0013928
0.00140828
-0.000232477
0.00142551
-0.00023676
0.00144426
-0.000242443
0.00146436
-0.000249233
0.00148586
-0.000257672
0.00150878
-0.000267686
0.00153319
-0.000279083
0.00155912
-0.000291745
0.00158661
-0.000305578
0.00161571
-0.000320495
0.00164645
-0.000336418
0.00167887
-0.00035328
0.001713
-0.000371028
0.00174887
-0.000389617
0.00178653
-0.000409011
0.00182599
-0.000429177
0.00186731
-0.000450088
0.00191052
-0.000471713
0.00195566
-0.00049402
0.00200277
-0.000516973
0.00205188
-0.000540525
0.00210304
-0.00056462
0.00215629
-0.000589188
0.00221164
-0.000614146
0.00226914
-0.000639391
0.00232879
-0.000664805
0.0023906
-0.000690251
0.00245459
-0.000715576
0.00252073
-0.000740609
0.00258899
-0.000765164
0.00265935
-0.000789043
0.00273173
-0.00081204
0.00280607
-0.00083394
0.00288228
-0.000854528
0.00296026
-0.000873593
0.00303987
-0.000890927
0.00312097
-0.000906333
0.00320342
-0.000919628
0.00328704
-0.000930643
0.00337165
-0.000939227
0.00345704
-0.000945247
0.003543
-0.000948589
0.00362932
-0.000949154
0.00371577
-0.000946856
0.0038021
-0.000941623
0.00388807
-0.000933388
0.00397342
-0.000922092
0.00405788
-0.000907675
0.00414118
-0.000890077
0.00422304
-0.000869242
0.00430316
-0.000845113
0.00438123
-0.000817648
0.00445694
-0.000786827
0.00452996
-0.000752669
0.00459999
-0.000715251
0.00466669
-0.000674734
0.00472978
-0.000631382
0.00478897
-0.00058558
0.00484404
-0.000537842
0.00489482
-0.000488802
0.00494119
-0.000439194
0.00498312
-0.000389838
0.00502066
-0.000341489
0.00505394
-0.000295105
0.00508313
-0.000250887
0.00510856
-0.000210636
0.00513035
-0.000171562
0.00514934
-0.000141938
-0.000101044
0.00166581
-0.00024335
0.00167888
-0.000249829
0.00169384
-0.000257404
0.00171045
-0.000265844
0.00172868
-0.000275905
0.00174854
-0.000287541
0.00177
-0.00030055
0.00179308
-0.000314819
0.00181776
-0.00033026
0.00184405
-0.000346786
0.00187195
-0.000364321
0.00190148
-0.000382802
0.00193263
-0.000402179
0.00196542
-0.00042241
0.00199987
-0.000443463
0.00203601
-0.00046531
0.00207384
-0.000487925
0.00211341
-0.000511283
0.00215475
-0.000535354
0.00219788
-0.000560103
0.00224284
-0.000585484
0.00228966
-0.000611442
0.00233838
-0.000637905
0.00238902
-0.000664786
0.00244161
-0.00069198
0.00249617
-0.000719363
0.00255271
-0.000746791
0.00261123
-0.000774102
0.00267174
-0.000801116
0.00273421
-0.000827635
0.00279861
-0.000853449
0.00286491
-0.000878337
0.00293305
-0.000902073
0.00300294
-0.000924426
0.00307452
-0.000945168
0.00314767
-0.000964077
0.00322228
-0.000980941
0.00329821
-0.000995562
0.00337533
-0.00100776
0.00345346
-0.00101736
0.00353244
-0.00102423
0.00361209
-0.00102824
0.00369221
-0.00102927
0.00377259
-0.00102724
0.00385303
-0.00102206
0.0039333
-0.00101365
0.00401316
-0.00100196
0.00409238
-0.000986894
0.0041707
-0.0009684
0.00424787
-0.000946406
0.0043236
-0.000920846
0.00439762
-0.000891664
0.00446962
-0.000858831
0.00453931
-0.000822357
0.00460637
-0.000782316
0.00467051
-0.00073887
0.00473142
-0.000692296
0.00478884
-0.000643002
0.00484254
-0.000591536
0.00489232
-0.000538586
0.00493808
-0.000484946
0.00497975
-0.000431509
0.00501736
-0.000379101
0.00505102
-0.000328769
0.00508088
-0.000280748
0.00510724
-0.000236992
0.00513018
-0.000194506
0.00515051
-0.000162265
-0.000117759
0.00193374
-0.000249022
0.00194209
-0.000258178
0.00195274
-0.00026805
0.00196537
-0.000278474
0.0019799
-0.000290437
0.00199627
-0.000303912
0.00201441
-0.000318687
0.00203425
-0.000334659
0.00205574
-0.000351753
0.00207884
-0.000369891
0.00210353
-0.000389006
0.00212977
-0.000409045
0.00215756
-0.000429966
0.00218689
-0.000451735
0.00221775
-0.000474328
0.00225016
-0.000497723
0.00228414
-0.000521902
0.0023197
-0.000546843
0.00235687
-0.000572521
0.00239567
-0.000598904
0.00243613
-0.000625947
0.00247829
-0.000653597
0.00252216
-0.000681781
0.00256778
-0.00071041
0.00261518
-0.000739378
0.00266437
-0.000768555
0.00271538
-0.000797794
0.0027682
-0.000826926
0.00282285
-0.000855761
0.00287931
-0.000884095
0.00293756
-0.000911707
0.00299759
-0.000938365
0.00305935
-0.000963828
0.00312278
-0.000987856
0.00318781
-0.00101021
0.00325438
-0.00103064
0.00332238
-0.00104894
0.0033917
-0.00106488
0.00346222
-0.00107828
0.00353382
-0.00108896
0.00360634
-0.00109675
0.00367962
-0.00110152
0.0037535
-0.00110315
0.0038278
-0.00110154
0.00390233
-0.00109659
0.00397688
-0.00108821
0.00405126
-0.00107633
0.00412524
-0.00106087
0.00419859
-0.00104175
0.00427108
-0.00101889
0.00434245
-0.000992217
0.00441244
-0.000961654
0.00448078
-0.000927163
0.00454716
-0.000888745
0.00461131
-0.000846466
0.00467293
-0.000800489
0.00473173
-0.000751098
0.00478745
-0.000698717
0.00483984
-0.000643931
0.00488873
-0.000587468
0.00493396
-0.000530181
0.00497548
-0.00047303
0.00501329
-0.00041691
0.00504747
-0.000362949
0.00507815
-0.000311423
0.00510558
-0.000264423
0.00512985
-0.000218779
0.00515169
-0.000184105
-0.000136248
0.00220719
0.00221036
-0.000261342
0.00221626
-0.000273947
0.00222451
-0.000286728
0.00223497
-0.000300898
0.0022475
-0.000316444
0.00226196
-0.000333142
0.00227821
-0.00035091
0.00229615
-0.000369696
0.0023157
-0.000389441
0.00233679
-0.000410097
0.00235937
-0.000431626
0.00238341
-0.000454003
0.00240888
-0.000477208
0.00243578
-0.000501228
0.00246411
-0.000526049
0.00249387
-0.000551662
0.00252508
-0.00057805
0.00255775
-0.000605195
0.00259191
-0.000633066
0.00262759
-0.000661623
0.0026648
-0.000690812
0.00270358
-0.000720563
0.00274396
-0.000750786
0.00278596
-0.000781373
0.00282959
-0.000812193
0.00287489
-0.000843093
0.00292186
-0.0008739
0.00297052
-0.00090442
0.00302087
-0.00093444
0.00307289
-0.000963732
0.00312658
-0.000992054
0.00318191
-0.00101916
0.00323884
-0.00104479
0.00329733
-0.00106869
0.00335732
-0.00109063
0.00341872
-0.00111035
0.00348147
-0.00112763
0.00354546
-0.00114227
0.00361058
-0.00115408
0.00367671
-0.00116288
0.00374372
-0.00116853
0.00381146
-0.00117089
0.00387977
-0.00116985
0.0039485
-0.00116531
0.00401746
-0.00115717
0.00408647
-0.00114534
0.00415534
-0.00112974
0.00422385
-0.00111026
0.00429178
-0.00108683
0.00435892
-0.00105935
0.004425
-0.00102774
0.00448978
-0.000991944
0.00455299
-0.000951952
0.00461435
-0.000907822
0.00467357
-0.000859711
0.00473038
-0.000807908
0.00478451
-0.000752851
0.00483573
-0.000695152
0.00488384
-0.000635577
0.00492869
-0.000575033
0.00497021
-0.00051454
0.00500836
-0.000455062
0.00504321
-0.0003978
0.00507486
-0.000343073
0.00510353
-0.000293097
0.00512931
-0.000244559
0.00515285
-0.00020764
-0.000156704
0.00247883
0.00247969
-0.00027481
0.0024833
-0.000290339
0.00248943
-0.000307026
0.00249785
-0.000324859
0.00250832
-0.000343615
0.00252066
-0.000363248
0.0025347
-0.000383743
0.00255033
-0.000405073
0.00256745
-0.000427217
0.002586
-0.000450167
0.00260591
-0.000473915
0.00262716
-0.000498461
0.00264974
-0.000523805
0.00267363
-0.000549946
0.00269885
-0.000576882
0.00272541
-0.000604604
0.00275331
-0.000633097
0.00278258
-0.000662335
0.00281324
-0.000692283
0.00284531
-0.000722887
0.00287883
-0.000754077
0.00291381
-0.000785766
0.00295028
-0.000817843
0.00298826
-0.000850177
0.00302778
-0.000882614
0.00306886
-0.000914977
0.00311151
-0.000947069
0.00315574
-0.000978671
0.00320156
-0.00100955
0.00324896
-0.00103945
0.00329793
-0.00106813
0.00334846
-0.00109531
0.00340051
-0.00112074
0.00345404
-0.00114416
0.00350901
-0.00116531
0.00356534
-0.00118396
0.00362297
-0.0011999
0.0036818
-0.00121291
0.00374175
-0.00122282
0.00380269
-0.00122947
0.0038645
-0.00123271
0.00392706
-0.00123241
0.00399021
-0.00122847
0.0040538
-0.00122077
0.00411768
-0.00120922
0.00418165
-0.00119371
0.00424554
-0.00117415
0.00430915
-0.00115044
0.00437226
-0.00112246
0.00443465
-0.00109013
0.00449608
-0.00105338
0.0045563
-0.00101218
0.00461505
-0.000966573
0.00467206
-0.000916719
0.00472706
-0.000862905
0.00477978
-0.000805577
0.00483
-0.000745369
0.00487751
-0.000683082
0.00492214
-0.00061967
0.00496381
-0.000556208
0.00500247
-0.000493726
0.00503817
-0.000433492
0.00507097
-0.000375874
0.00510106
-0.000323193
0.00512853
-0.00027203
0.00515395
-0.000233057
-0.000179324
0.00273846
-0.000270563
0.00273733
-0.00028921
0.00273899
-0.00030868
0.00274309
-0.000328959
0.00274932
-0.000349851
0.00275744
-0.000371371
0.00276726
-0.000393556
0.00277861
-0.000416425
0.00279139
-0.000439997
0.00280552
-0.000464296
0.00282094
-0.00048934
0.00283763
-0.000515149
0.00285556
-0.000541737
0.00287473
-0.000569115
0.00289514
-0.00059729
0.0029168
-0.00062626
0.00293971
-0.000656014
0.00296391
-0.000686531
0.0029894
-0.000717776
0.00301621
-0.000749699
0.00304437
-0.000782233
0.00307389
-0.000815289
0.00310481
-0.000848758
0.00313714
-0.00088251
0.00317091
-0.000916388
0.00320615
-0.000950216
0.00324288
-0.000983794
0.00328111
-0.0010169
0.00332085
-0.00104929
0.00336213
-0.00108073
0.00340493
-0.00111093
0.00344925
-0.00113964
0.00349509
-0.00116658
0.00354242
-0.00119149
0.0035912
-0.00121409
0.00364139
-0.00123416
0.00369295
-0.00125145
0.0037458
-0.00126576
0.00379986
-0.00127689
0.00385505
-0.00128466
0.00391126
-0.00128892
0.00396838
-0.00128953
0.00402629
-0.00128637
0.00408484
-0.00127932
0.0041439
-0.00126827
0.0042033
-0.00125311
0.00426288
-0.00123373
0.00432245
-0.00121001
0.00438183
-0.00118184
0.00444081
-0.00114911
0.00449916
-0.00111173
0.00455666
-0.00106967
0.00461306
-0.00102297
0.00466809
-0.000971752
0.0047215
-0.000916315
0.00477304
-0.000857112
0.00482246
-0.000794792
0.00486956
-0.000730184
0.00491418
-0.000664287
0.0049562
-0.000598226
0.00499556
-0.000533091
0.00503228
-0.000470212
0.00506642
-0.000410012
0.00509813
-0.000354898
0.00512748
-0.000301382
0.00515497
-0.000260547
-0.000204305
0.00298826
0.00298248
-0.00028343
0.00297963
-0.00030583
0.00297927
-0.000328598
0.00298103
-0.00035161
0.00298463
-0.000374971
0.00298986
-0.000398786
0.00299657
-0.000423131
0.00300464
-0.00044807
0.003014
-0.000473659
0.00302461
-0.000499945
0.00303642
-0.000526965
0.00304944
-0.000554749
0.00306364
-0.000583318
0.00307903
-0.000612684
0.00309562
-0.000642852
0.00311342
-0.000673815
0.00313245
-0.000705555
0.00315271
-0.00073804
0.00317424
-0.000771223
0.00319704
-0.000805036
0.00322114
-0.000839394
0.00324658
-0.000874189
0.00327336
-0.000909292
0.00330152
-0.000944548
0.00333108
-0.000979778
0.00336207
-0.00101478
0.00339451
-0.00104934
0.00342843
-0.00108321
0.00346384
-0.00111614
0.00350076
-0.00114785
0.00353919
-0.00117808
0.00357915
-0.00120653
0.00362061
-0.00123295
0.00366358
-0.00125706
0.00370801
-0.0012786
0.00375388
-0.00129733
0.00380114
-0.00131302
0.00384973
-0.00132547
0.00389957
-0.0013345
0.00395059
-0.00133993
0.00400269
-0.00134162
0.00405575
-0.00133943
0.00410967
-0.00133324
0.0041643
-0.00132291
0.00421952
-0.00130833
0.00427517
-0.00128938
0.00433109
-0.00126593
0.0043871
-0.00123785
0.00444301
-0.00120502
0.00449861
-0.00116734
0.0045537
-0.00112476
0.00460804
-0.0010773
0.00466138
-0.00102509
0.00471347
-0.000968409
0.00476407
-0.000907712
0.00481295
-0.000843664
0.00485988
-0.000777116
0.0049047
-0.000709108
0.00494728
-0.000640807
0.00498755
-0.000573364
0.0050255
-0.000508163
0.00506118
-0.000445685
0.00509469
-0.000388409
0.00512612
-0.000332813
0.00515587
-0.000290304
-0.000231848
0.00321511
-0.000273221
0.00320776
-0.000298482
0.00320277
-0.000323604
0.00319976
-0.000348604
0.00319848
-0.000373694
0.00319875
-0.000399054
0.00320043
-0.000424813
0.00320344
-0.000451077
0.00320771
-0.000477932
0.00321321
-0.000505446
0.00321992
-0.000533669
0.00322781
-0.000562643
0.00323689
-0.000592397
0.00324715
-0.000622948
0.00325861
-0.000654305
0.00327126
-0.000686465
0.00328511
-0.000719412
0.00330019
-0.000753116
0.0033165
-0.000787532
0.00333406
-0.000822596
0.00335289
-0.000858224
0.00337301
-0.000894311
0.00339445
-0.00093073
0.00341723
-0.000967327
0.00344138
-0.00100393
0.00346692
-0.00104033
0.0034939
-0.00107632
0.00352233
-0.00111164
0.00355224
-0.00114605
0.00358367
-0.00117927
0.00361662
-0.00121103
0.00365111
-0.00124103
0.00368715
-0.001269
0.00372475
-0.00129465
0.00376388
-0.00131773
0.00380454
-0.00133798
0.00384669
-0.00135517
0.00389028
-0.00136907
0.00393526
-0.00137948
0.00398157
-0.00138624
0.00402912
-0.00138917
0.00407782
-0.00138814
0.00412756
-0.00138299
0.00417825
-0.00137359
0.00422973
-0.00135982
0.00428189
-0.00134154
0.00433457
-0.00131861
0.00438762
-0.00129089
0.00444085
-0.00125825
0.00449409
-0.00122058
0.00454712
-0.0011778
0.00459974
-0.00112992
0.00465171
-0.00107706
0.00470279
-0.00101949
0.00475274
-0.000957663
0.00480133
-0.000892254
0.00484834
-0.000824133
0.00489361
-0.000754373
0.00493698
-0.00068418
0.00497838
-0.000614765
0.00501778
-0.000547556
0.00505519
-0.000483102
0.00509071
-0.000423927
0.00512442
-0.000366523
0.00515664
-0.000322524
-0.000262152
0.00343218
0.00342017
-0.000286475
0.0034102
-0.000313633
0.003402
-0.000340402
0.0033954
-0.000367093
0.00339028
-0.000393934
0.00338656
-0.000421091
0.00338418
-0.000448695
0.00338309
-0.00047685
0.00338328
-0.000505635
0.00338472
-0.00053511
0.0033874
-0.000565323
0.00339131
-0.000596305
0.00339644
-0.000628081
0.0034028
-0.000660661
0.00341038
-0.000694045
0.00341919
-0.000728219
0.00342923
-0.000763156
0.00344051
-0.000798814
0.00345305
-0.000835132
0.00346685
-0.00087203
0.00348195
-0.000909405
0.00349835
-0.000947132
0.00351609
-0.000985064
0.00353518
-0.00102303
0.00355568
-0.00106082
0.0035776
-0.00109824
0.00360098
-0.00113502
0.00362585
-0.00117092
0.00365225
-0.00120567
0.0036802
-0.00123898
0.00370974
-0.00127056
0.00374087
-0.00130013
0.00377363
-0.0013274
0.00380799
-0.0013521
0.00384397
-0.00137396
0.00388155
-0.00139274
0.00392069
-0.0014082
0.00396135
-0.00142015
0.00400349
-0.00142837
0.00404702
-0.00143271
0.00409189
-0.001433
0.00413799
-0.00142908
0.00418522
-0.00142082
0.00423347
-0.00140807
0.00428261
-0.00139069
0.00433253
-0.00136852
0.00438305
-0.00134142
0.00443404
-0.00130924
0.00448531
-0.00127185
0.00453668
-0.00122917
0.00458795
-0.00118119
0.00463889
-0.001128
0.00468929
-0.00106988
0.0047389
-0.00100727
0.0047875
-0.000940853
0.00483487
-0.000871507
0.00488084
-0.00080034
0.00492525
-0.000728591
0.00496801
-0.000657526
0.00500907
-0.000588614
0.00504844
-0.000522473
0.00508617
-0.00046166
0.00512236
-0.000402715
0.00515724
-0.000357405
-0.000295416
0.00361378
0.00359818
-0.000298033
0.00358418
-0.000326399
0.00357174
-0.000354649
0.00356081
-0.000383008
0.00355137
-0.000411646
0.00354337
-0.000440698
0.00353679
-0.000470269
0.00353159
-0.000500441
0.00352776
-0.000531278
0.00352527
-0.000562831
0.0035241
-0.000595137
0.00352424
-0.00062822
0.00352567
-0.000662095
0.00352839
-0.000696765
0.0035324
-0.00073222
0.00353768
-0.000768437
0.00354424
-0.000805375
0.00355208
-0.000842978
0.00356122
-0.00088117
0.00357167
-0.000919854
0.00358345
-0.000958909
0.00359658
-0.000998191
0.00361108
-0.00103753
0.00362699
-0.00107674
0.00364435
-0.00111559
0.00366319
-0.00115386
0.00368355
-0.00119128
0.00370547
-0.00122759
0.00372899
-0.0012625
0.00375413
-0.00129571
0.00378094
-0.00132694
0.00380943
-0.00135589
0.00383962
-0.00138229
0.00387151
-0.00140586
0.00390511
-0.00142633
0.00394038
-0.00144348
0.00397731
-0.00145708
0.00401585
-0.00146692
0.00405595
-0.00147281
0.00409754
-0.00147459
0.00414054
-0.00147208
0.00418486
-0.00146514
0.00423039
-0.00145361
0.00427704
-0.00143733
0.00432467
-0.00141615
0.00437316
-0.0013899
0.00442235
-0.00135843
0.00447209
-0.00132159
0.00452221
-0.00127929
0.00457252
-0.00123149
0.00462281
-0.00117829
0.00467287
-0.00111994
0.00472246
-0.00105687
0.00477138
-0.000989768
0.0048194
-0.000919527
0.00486634
-0.000847279
0.00491204
-0.000774292
0.0049564
-0.000701886
0.00499935
-0.000631562
0.00504089
-0.000564017