0.216393 	0.457656 	-2.43593e-18 	0.55328
0.219304 	0.463813 	-5.55708e-19 	0.551542
0.22152 	0.468499 	1.67853e-19 	0.550101
0.225255 	0.476399 	5.77665e-19 	0.548512
0.228735 	0.48376 	2.58789e-19 	0.547213
0.230951 	0.488446 	7.03344e-19 	0.546365
0.234118 	0.495143 	1.89731e-18 	0.545423
