/*--------------------------------*- C++ -*----------------------------------*\
  =========                 |
  \\      /  F ield         | OpenFOAM: The Open Source CFD Toolbox
   \\    /   O peration     | Website:  https://openfoam.org
    \\  /    A nd           | Version:  7
     \\/     M anipulation  |
\*---------------------------------------------------------------------------*/
FoamFile
{
    version     2.0;
    format      ascii;
    class       surfaceScalarField;
    location    "7.4";
    object      phi;
}
// * * * * * * * * * * * * * * * * * * * * * * * * * * * * * * * * * * * * * //

dimensions      [0 3 -1 0 0 0 0];

internalField   nonuniform List<scalar> 
615
(
0.000107475
-0.000119662
0.000100561
-0.000149107
8.98974e-05
-0.00018635
7.13332e-05
-0.000228724
3.96128e-05
-0.000253151
-0.000177243
0.000132834
-1.02959e-06
0.000132772
-1.01446e-06
0.000132711
-9.99776e-07
0.00013265
-9.85556e-07
0.00013259
-9.71823e-07
0.000132532
-9.58604e-07
0.000132473
-9.45934e-07
0.000132416
-9.33855e-07
0.00013236
-9.22416e-07
0.000132304
-9.1168e-07
0.000132249
-9.0172e-07
0.000132194
-8.92622e-07
0.00013214
-8.84491e-07
0.000132087
-8.77452e-07
0.000132034
-8.71651e-07
0.000131982
-8.67262e-07
0.00013193
-8.64493e-07
0.000131878
-8.63589e-07
0.000131826
-8.64837e-07
0.000131775
-8.68582e-07
0.000131723
-8.75225e-07
0.000131671
-8.85246e-07
0.000131619
-8.99207e-07
0.000131566
-9.17775e-07
0.000131512
-9.41734e-07
0.000131457
-9.72013e-07
0.000131401
-1.00971e-06
0.000131343
-1.05611e-06
0.000131283
-1.11276e-06
0.00013122
-1.18145e-06
0.000131154
-1.26431e-06
0.000131084
-1.36389e-06
0.000131009
-1.48315e-06
0.000130928
-1.62563e-06
0.00013084
-1.79552e-06
0.000130744
-1.99778e-06
0.000130638
-2.23828e-06
0.00013052
-2.52401e-06
0.000130388
-2.86326e-06
0.000130239
-3.26592e-06
0.00013007
-3.74373e-06
0.000129878
-4.31074e-06
0.000129658
-4.98376e-06
0.000129405
-5.7829e-06
0.000129113
-6.73236e-06
0.000128774
-7.86128e-06
0.00012838
-9.20492e-06
0.000127919
-1.08061e-05
0.00012738
-1.27169e-05
0.000126747
-1.50014e-05
0.000126002
-1.77384e-05
0.000125121
-2.10258e-05
0.000124075
-2.49864e-05
0.00012283
-2.97751e-05
0.000121338
-3.55897e-05
0.00011954
-4.26863e-05
0.000117353
-5.14001e-05
0.000114664
-6.2177e-05
0.000111303
-7.56157e-05
0.000107001
-9.25266e-05
0.000101303
-0.000113964
9.33237e-05
-0.000141127
8.13541e-05
-0.00017438
6.19176e-05
-0.000209287
3.19932e-05
-0.000223226
-0.00014525
0.00013014
-9.64083e-07
0.000130076
-9.49923e-07
0.000130012
-9.36185e-07
0.00012995
-9.22886e-07
0.000129888
-9.10045e-07
0.000129827
-8.97691e-07
0.000129767
-8.85856e-07
0.000129708
-8.7458e-07
0.000129649
-8.63911e-07
0.000129591
-8.53908e-07
0.000129534
-8.4464e-07
0.000129478
-8.36192e-07
0.000129422
-8.28662e-07
0.000129367
-8.22169e-07
0.000129312
-8.16853e-07
0.000129257
-8.12881e-07
0.000129203
-8.1045e-07
0.00012915
-8.09794e-07
0.000129096
-8.11188e-07
0.000129042
-8.14959e-07
0.000128989
-8.21493e-07
0.000128935
-8.31244e-07
0.00012888
-8.44751e-07
0.000128825
-8.62647e-07
0.000128769
-8.85684e-07
0.000128712
-9.14747e-07
0.000128653
-9.50879e-07
0.000128592
-9.95318e-07
0.000128529
-1.04952e-06
0.000128463
-1.11521e-06
0.000128393
-1.19442e-06
0.000128318
-1.28957e-06
0.000128239
-1.4035e-06
0.000128153
-1.53958e-06
0.000128059
-1.7018e-06
0.000127956
-1.89491e-06
0.000127842
-2.12451e-06
0.000127716
-2.39726e-06
0.000127573
-2.72109e-06
0.000127413
-3.10542e-06
0.000127231
-3.56148e-06
0.000127023
-4.10269e-06
0.000126784
-4.74507e-06
0.000126509
-5.50784e-06
0.000126191
-6.41409e-06
0.000125821
-7.49166e-06
0.00012539
-8.77417e-06
0.000124887
-1.03024e-05
0.000124296
-1.21262e-05
0.000123601
-1.43064e-05
0.000122781
-1.69181e-05
0.000121809
-2.00543e-05
0.000120654
-2.38311e-05
0.000119274
-2.83951e-05
0.000117617
-3.39324e-05
0.000115613
-4.06824e-05
0.000113169
-4.89563e-05
0.000110155
-5.91627e-05
0.00010638
-7.18408e-05
0.000101548
-8.76948e-05
9.51728e-05
-0.000107588
8.63641e-05
-0.000132319
7.35296e-05
-0.000161546
5.39115e-05
-0.000189669
2.61581e-05
-0.000195473
-0.000119092
0.000127101
-8.96815e-07
0.000127035
-8.83653e-07
0.00012697
-8.70887e-07
0.000126905
-8.58531e-07
0.000126842
-8.46606e-07
0.000126779
-8.35138e-07
0.000126717
-8.24158e-07
0.000126657
-8.13703e-07
0.000126597
-8.0382e-07
0.000126537
-7.94563e-07
0.000126479
-7.86e-07
0.000126421
-7.78209e-07
0.000126363
-7.71286e-07
0.000126306
-7.65341e-07
0.00012625
-7.60509e-07
0.000126194
-7.56946e-07
0.000126138
-7.54841e-07
0.000126083
-7.54415e-07
0.000126028
-7.55929e-07
0.000125973
-7.59692e-07
0.000125917
-7.6607e-07
0.000125861
-7.75495e-07
0.000125805
-7.88476e-07
0.000125748
-8.05616e-07
0.00012569
-8.27624e-07
0.000125631
-8.5534e-07
0.000125569
-8.89756e-07
0.000125506
-9.3204e-07
0.00012544
-9.83577e-07
0.000125371
-1.046e-06
0.000125298
-1.12124e-06
0.00012522
-1.21158e-06
0.000125136
-1.31972e-06
0.000125045
-1.44886e-06
0.000124946
-1.60278e-06
0.000124837
-1.78598e-06
0.000124717
-2.00377e-06
0.000124582
-2.26247e-06
0.00012443
-2.5696e-06
0.000124259
-2.93409e-06
0.000124064
-3.36659e-06
0.000123841
-3.87983e-06
0.000123585
-4.48899e-06
0.00012329
-5.2123e-06
0.000122947
-6.07166e-06
0.000122549
-7.09341e-06
0.000122084
-8.30944e-06
0.00012154
-9.75835e-06
0.000120901
-1.14872e-05
0.000120148
-1.35535e-05
0.000119258
-1.60281e-05
0.000118203
-1.89985e-05
0.000116945
-2.25737e-05
0.000115441
-2.68906e-05
0.00011363
-3.21223e-05
0.000111438
-3.84901e-05
0.000108761
-4.62789e-05
0.000105455
-5.58574e-05
0.000101318
-6.7703e-05
9.60359e-05
-8.24131e-05
8.91153e-05
-0.000100668
7.96995e-05
-0.000122903
6.63693e-05
-0.000148216
4.70456e-05
-0.000170346
2.15846e-05
-0.000170012
-9.7507e-05
0.000123709
-8.28274e-07
0.000123641
-8.16129e-07
0.000123575
-8.04352e-07
0.000123509
-7.92957e-07
0.000123445
-7.81964e-07
0.000123381
-7.71396e-07
0.000123318
-7.61283e-07
0.000123256
-7.51661e-07
0.000123195
-7.42573e-07
0.000123134
-7.34072e-07
0.000123075
-7.26219e-07
0.000123015
-7.1909e-07
0.000122957
-7.12773e-07
0.000122899
-7.07374e-07
0.000122841
-7.03019e-07
0.000122784
-6.99856e-07
0.000122728
-6.98061e-07
0.000122671
-6.97843e-07
0.000122615
-6.99448e-07
0.000122558
-7.03167e-07
0.000122501
-7.09345e-07
0.000122444
-7.18387e-07
0.000122386
-7.30774e-07
0.000122328
-7.47071e-07
0.000122268
-7.67949e-07
0.000122207
-7.94197e-07
0.000122144
-8.26747e-07
0.000122079
-8.66702e-07
0.000122011
-9.15364e-07
0.000121939
-9.74269e-07
0.000121863
-1.04524e-06
0.000121782
-1.13042e-06
0.000121694
-1.23235e-06
0.000121599
-1.35405e-06
0.000121496
-1.49908e-06
0.000121381
-1.67166e-06
0.000121254
-1.8768e-06
0.000121112
-2.12046e-06
0.000120953
-2.4097e-06
0.000120771
-2.75295e-06
0.000120565
-3.16022e-06
0.000120329
-3.64348e-06
0.000120057
-4.21704e-06
0.000119743
-4.89805e-06
0.000119378
-5.70709e-06
0.000118953
-6.66894e-06
0.000118458
-7.81354e-06
0.000117876
-9.17715e-06
0.000117193
-1.08039e-05
0.000116387
-1.27476e-05
0.000115433
-1.50744e-05
0.000114301
-1.78659e-05
0.00011295
-2.12232e-05
0.000111333
-2.52731e-05
0.000109385
-3.01745e-05
0.000107024
-3.61294e-05
0.00010414
-4.33951e-05
0.000100583
-5.22995e-05
9.61375e-05
-6.32579e-05
9.04897e-05
-7.67653e-05
8.31535e-05
-9.33316e-05
7.3334e-05
-0.000113083
5.98129e-05
-0.000134694
4.11118e-05
-0.000151644
1.79351e-05
-0.000146835
-7.95719e-05
0.000119957
-7.58964e-07
0.000119889
-7.47847e-07
0.000119821
-7.3707e-07
0.000119755
-7.26645e-07
0.00011969
-7.16591e-07
0.000119625
-7.06931e-07
0.000119562
-6.97692e-07
0.000119499
-6.88908e-07
0.000119437
0.000119376
0.000119315
0.000119255
0.000119196
0.000119137
0.000119079
0.000119021
0.000118964
0.000118907
0.000118849
0.000118792
0.000118734
0.000118676
0.000118617
0.000118558
0.000118497
0.000118434
0.00011837
0.000118303
0.000118233
0.000118159
0.000118081
0.000117997
0.000117907
0.000117809
0.000117701
0.000117582
0.000117449
0.000117301
0.000117134
0.000116944
0.000116728
0.000116479
0.000116193
0.000115862
0.000115478
0.00011503
0.000114506
0.000113892
0.000113169
0.000112316
0.000111305
0.000110104
0.000108671
0.000106954
0.000104886
0.00010238
9.93202e-05
9.55515e-05
9.08583e-05
8.49298e-05
7.73032e-05
6.7263e-05
5.37999e-05
3.59463e-05
1.49789e-05
0.000115838
0.000115769
0.000115702
0.000115635
0.000115569
0.000115505
0.000115441
)
;

boundaryField
{
    inlet
    {
        type            calculated;
        value           nonuniform 0();
    }
    outlet
    {
        type            calculated;
        value           nonuniform 0();
    }
    wall
    {
        type            calculated;
        value           uniform 0;
    }
    wedge1
    {
        type            wedge;
        value           nonuniform List<scalar> 
344
(
-3.99767e-17
-3.67895e-17
9.20679e-17
-3.05821e-17
-1.45972e-16
4.6036e-17
-3.93884e-17
-3.62465e-17
9.07127e-17
-3.01357e-17
-1.43831e-16
4.53613e-17
-3.87728e-17
-3.56777e-17
8.94407e-17
-2.96563e-17
-1.41718e-16
4.47383e-17
-3.82228e-17
-3.51778e-17
8.81552e-17
-2.92485e-17
-1.39725e-16
4.4093e-17
-3.76905e-17
-3.46794e-17
8.69371e-17
-2.88386e-17
-1.37783e-16
4.3477e-17
-3.71808e-17
-3.42189e-17
8.57435e-17
-2.84609e-17
-1.3593e-16
4.2883e-17
-3.66935e-17
-3.37713e-17
8.46038e-17
-2.80905e-17
-1.34147e-16
4.2321e-17
-3.61858e-17
-3.331e-17
8.35583e-17
-2.77012e-17
-1.32413e-16
4.18213e-17
-3.5735e-17
-3.28835e-17
8.25462e-17
-2.73504e-17
-1.30802e-16
-3.52806e-17
-3.24753e-17
8.16188e-17
-2.70064e-17
-1.29272e-16
-3.49001e-17
-3.21215e-17
8.07251e-17
-2.67188e-17
-1.27884e-16
-3.44986e-17
-3.17511e-17
7.99608e-17
-2.6403e-17
-1.26583e-16
-3.41792e-17
-3.14537e-17
7.92401e-17
-2.61646e-17
-1.25465e-16
-3.39117e-17
-3.12192e-17
7.85994e-17
-2.59795e-17
-1.24521e-16
-3.36851e-17
-3.10182e-17
7.80746e-17
-2.58271e-17
-1.23759e-16
-3.3475e-17
-3.08332e-17
7.77165e-17
-2.56742e-17
-1.23165e-16
-3.33565e-17
-3.07191e-17
7.74846e-17
-2.55913e-17
-1.22834e-16
-3.32789e-17
-3.06622e-17
7.74409e-17
-2.55496e-17
-1.22757e-16
-3.3324e-17
-3.07082e-17
7.75542e-17
-2.5607e-17
-1.23034e-16
-3.34152e-17
-3.08005e-17
7.794e-17
-2.56926e-17
-1.23642e-16
-3.36559e-17
-3.10286e-17
7.85503e-17
-2.59107e-17
-1.2472e-16
-3.40368e-17
-3.13997e-17
7.94462e-17
-2.62497e-17
-1.26313e-16
-3.45665e-17
-3.19073e-17
8.07011e-17
-2.67024e-17
-1.28485e-16
-3.52313e-17
-3.25434e-17
8.24085e-17
-2.72577e-17
-1.31306e-16
-3.61306e-17
-3.3383e-17
8.45828e-17
-2.80004e-17
-1.34958e-16
-3.72377e-17
-3.44379e-17
8.73468e-17
-2.89214e-17
-1.39528e-16
-3.86672e-17
-3.57825e-17
9.07438e-17
-3.01026e-17
-1.45236e-16
-4.03781e-17
-3.73956e-17
9.49732e-17
-3.15047e-17
-1.52204e-16
-4.25241e-17
-3.94211e-17
1.00071e-16
-3.32783e-17
-1.60754e-16
-4.5128e-17
-4.18663e-17
1.06271e-16
-3.54128e-17
-1.71086e-16
-4.82705e-17
-4.48294e-17
1.13737e-16
-3.79938e-17
-1.83543e-16
-5.20469e-17
-4.83836e-17
1.2271e-16
-4.10855e-17
-1.98489e-16
-5.65291e-17
-5.26043e-17
1.33497e-16
-4.47471e-17
-2.16339e-16
-6.19211e-17
-5.76627e-17
1.46361e-16
-4.91436e-17
-2.37683e-16
-6.83231e-17
-6.36878e-17
1.61718e-16
-5.43674e-17
-2.63095e-16
-7.59914e-17
-7.08914e-17
1.7996e-16
-6.06222e-17
-2.93376e-16
-8.50647e-17
-7.94171e-17
2.01698e-16
-6.80124e-17
-3.29335e-16
-9.58893e-17
-8.95824e-17
2.27483e-16
-7.6837e-17
-3.72089e-16
-1.0875e-16
-1.01674e-16
2.58084e-16
-8.73269e-17
-4.22849e-16
-1.24014e-16
-1.16019e-16
2.94408e-16
-9.97693e-17
-4.83081e-16
-1.42087e-16
-1.33005e-16
3.37553e-16
-1.14493e-16
-5.5451e-16
-1.63571e-16
-1.5318e-16
3.88731e-16
-1.31991e-16
-6.39298e-16
-1.89041e-16
-1.77121e-16
4.49492e-16
-1.52745e-16
-7.39902e-16
-2.19326e-16
-2.05574e-16
5.21605e-16
-1.77419e-16
-8.59378e-16
-2.55256e-16
-2.39336e-16
6.07328e-16
-2.06684e-16
-1.00126e-15
-2.98021e-16
-2.79518e-16
7.09202e-16
-2.41528e-16
-1.16998e-15
-3.48925e-16
-3.27361e-16
8.30422e-16
-2.83007e-16
-1.37072e-15
-4.09568e-16
-3.84355e-16
9.7486e-16
-3.32409e-16
-1.60982e-15
-4.81889e-16
-4.52325e-16
1.14723e-15
-3.91303e-16
-1.89495e-15
-5.68371e-16
-5.33586e-16
1.35322e-15
-4.61699e-16
-2.23556e-15
-6.71933e-16
-6.3091e-16
1.5999e-15
-5.45959e-16
-2.64311e-15
-7.96339e-16
-7.47794e-16
1.89596e-15
-6.47089e-16
-3.13183e-15
-9.46134e-16
-8.88498e-16
2.25236e-15
-7.68694e-16
-3.71922e-15
-1.12726e-15
-1.05857e-15
2.68266e-15
-9.15475e-16
-4.42722e-15
-1.34713e-15
-1.26489e-15
3.20426e-15
-1.09317e-15
-5.2832e-15
-1.61545e-15
-1.51643e-15
3.83932e-15
-1.30919e-15
-6.32177e-15
-1.94488e-15
-1.82483e-15
4.61653e-15
-1.57296e-15
-7.58676e-15
-2.35234e-15
-2.20545e-15
5.57327e-15
-1.89659e-15
-9.13358e-15
-2.86076e-15
-2.67876e-15
6.75822e-15
-2.29566e-15
-1.10315e-14
-3.50141e-15
-3.27188e-15
8.23364e-15
-2.78907e-15
-1.33608e-14
-4.59664e-15
-4.31592e-15
-4.01894e-15
1.00726e-14
-3.39723e-15
-1.61979e-14
-5.73429e-15
-5.35448e-15
-4.95453e-15
1.23315e-14
-4.12894e-15
-1.95386e-14
-7.18852e-15
-6.64126e-15
-6.0749e-15
1.49393e-14
-4.94159e-15
-2.30987e-14
-8.88327e-15
-8.02831e-15
-7.18542e-15
1.72976e-14
-5.60496e-15
-2.56805e-14
-9.92348e-15
-8.63372e-15
-7.46088e-15
1.73831e-14
-5.46227e-15
-2.43096e-14
-6.98614e-15
-5.64672e-15
-4.572e-15
1.00413e-14
-2.98553e-15
-1.26148e-14
)
;
    }
    wedge2
    {
        type            wedge;
        value           nonuniform List<scalar> 
344
(
-4.0276e-17
-3.71424e-17
9.16576e-17
-3.1021e-17
-1.46446e-16
4.55565e-17
-3.96829e-17
-3.65977e-17
9.03117e-17
-3.05624e-17
-1.44296e-16
4.48888e-17
-3.91516e-17
-3.61108e-17
8.89629e-17
-3.0164e-17
-1.42248e-16
4.42101e-17
-3.85905e-17
-3.55882e-17
8.77108e-17
-2.97222e-17
-1.40214e-16
4.35963e-17
-3.80492e-17
-3.5099e-17
8.64786e-17
-2.9312e-17
-1.38271e-16
4.29979e-17
-3.7525e-17
-3.46088e-17
8.53144e-17
-2.89009e-17
-1.36389e-16
4.24249e-17
-3.70205e-17
-3.4145e-17
8.41949e-17
-2.85159e-17
-1.34597e-16
4.18706e-17
-3.65817e-17
-3.3737e-17
8.30873e-17
-2.81857e-17
-1.32928e-16
4.13087e-17
-3.61353e-17
-3.33401e-17
8.20615e-17
-2.78562e-17
-1.31325e-16
-3.57462e-17
-3.2975e-17
8.10773e-17
-2.75627e-17
-1.29846e-16
-3.53426e-17
-3.26109e-17
8.01988e-17
-2.72603e-17
-1.28454e-16
-3.50258e-17
-3.2325e-17
7.93462e-17
-2.70388e-17
-1.27229e-16
-3.47007e-17
-3.20351e-17
7.8624e-17
-2.67993e-17
-1.26107e-16
-3.4407e-17
-3.17601e-17
7.80181e-17
-2.65731e-17
-1.25133e-16
-3.41667e-17
-3.15398e-17
7.75192e-17
-2.63904e-17
-1.24343e-16
-3.40174e-17
-3.14043e-17
7.71081e-17
-2.62948e-17
-1.23805e-16
-3.38998e-17
-3.13133e-17
7.68623e-17
-2.62287e-17
-1.23483e-16
-3.38829e-17
-3.12979e-17
7.67642e-17
-2.6236e-17
-1.23462e-16
-3.39071e-17
-3.1333e-17
7.68969e-17
-2.62765e-17
-1.23725e-16
-3.40748e-17
-3.14995e-17
7.72068e-17
-2.64424e-17
-1.244e-16
-3.43131e-17
-3.17368e-17
7.78147e-17
-2.66542e-17
-1.25468e-16
-3.46676e-17
-3.20714e-17
7.87456e-17
-2.69529e-17
-1.27026e-16
-3.51724e-17
-3.25501e-17
8.00277e-17
-2.73806e-17
-1.29178e-16
-3.58916e-17
-3.32284e-17
8.16876e-17
-2.79892e-17
-1.32054e-16
-3.67854e-17
-3.40868e-17
8.38526e-17
-2.87426e-17
-1.35707e-16
-3.79508e-17
-3.518e-17
8.65674e-17
-2.9707e-17
-1.40326e-16
-3.93562e-17
-3.65114e-17
8.99864e-17
-3.08682e-17
-1.46018e-16
-4.11408e-17
-3.81942e-17
9.41436e-17
-3.23452e-17
-1.53049e-16
-4.32668e-17
-4.01936e-17
9.92787e-17
-3.40816e-17
-1.61554e-16
-4.58482e-17
-4.26307e-17
1.05484e-16
-3.61998e-17
-1.71871e-16
-4.89662e-17
-4.55592e-17
1.12982e-16
-3.87457e-17
-1.84298e-16
-5.27167e-17
-4.90859e-17
1.21985e-16
-4.18107e-17
-1.99222e-16
-5.72543e-17
-5.33478e-17
1.32727e-16
-4.55201e-17
-2.17123e-16
-6.26426e-17
-5.84252e-17
1.45583e-16
-4.99267e-17
-2.38467e-16
-6.90987e-17
-6.44872e-17
1.60891e-16
-5.51967e-17
-2.63932e-16
-7.67423e-17
-7.16752e-17
1.79154e-16
-6.14322e-17
-2.94197e-16
-8.58801e-17
-8.02641e-17
2.00825e-16
-6.88921e-17
-3.30214e-16
-9.66951e-17
-9.04338e-17
2.26613e-16
-7.77084e-17
-3.72954e-16
-1.09531e-16
-1.02488e-16
2.57246e-16
-8.81624e-17
-4.23686e-16
-1.24769e-16
-1.16803e-16
2.936e-16
-1.00577e-16
-4.83896e-16
-1.42894e-16
-1.3383e-16
3.36702e-16
-1.15349e-16
-5.55375e-16
-1.64369e-16
-1.54019e-16
3.87874e-16
-1.32852e-16
-6.40159e-16
-1.89888e-16
-1.77989e-16
4.48596e-16
-1.53643e-16
-7.40806e-16
-2.20148e-16
-2.06427e-16
5.20731e-16
-1.78297e-16
-8.60266e-16
-2.56147e-16
-2.40257e-16
6.06383e-16
-2.07635e-16
-1.00221e-15
-2.98901e-16
-2.80439e-16
7.08264e-16
-2.42465e-16
-1.17091e-15
-3.49773e-16
-3.28239e-16
8.29526e-16
-2.83899e-16
-1.37161e-15
-4.10395e-16
-3.85206e-16
9.73993e-16
-3.33274e-16
-1.61069e-15
-4.8277e-16
-4.53219e-16
1.14632e-15
-3.92217e-16
-1.89587e-15
-5.69249e-16
-5.34499e-16
1.35229e-15
-4.62623e-16
-2.23647e-15
-6.72864e-16
-6.31858e-16
1.59893e-15
-5.46926e-16
-2.64407e-15
-7.97249e-16
-7.48727e-16
1.89502e-15
-6.48036e-16
-3.13278e-15
-9.47114e-16
-8.89498e-16
2.25134e-15
-7.69708e-16
-3.72022e-15
-1.12822e-15
-1.05954e-15
2.68168e-15
-9.16448e-16
-4.42818e-15
-1.34808e-15
-1.26586e-15
3.20329e-15
-1.09413e-15
-5.28414e-15
-1.61637e-15
-1.51736e-15
3.83839e-15
-1.31011e-15
-6.32267e-15
-1.94578e-15
-1.82574e-15
4.61562e-15
-1.57386e-15
-7.58764e-15
-2.3533e-15
-2.20641e-15
5.57231e-15
-1.89755e-15
-9.13452e-15
-2.86173e-15
-2.67975e-15
6.75724e-15
-2.29663e-15
-1.10325e-14
-3.50244e-15
-3.27291e-15
8.23261e-15
-2.79008e-15
-1.33618e-14
-4.59767e-15
-4.31695e-15
-4.01996e-15
1.00716e-14
-3.39822e-15
-1.61989e-14
-5.73539e-15
-5.35558e-15
-4.95561e-15
1.23304e-14
-4.12998e-15
-1.95396e-14
-7.18959e-15
-6.64231e-15
-6.07593e-15
1.49383e-14
-4.94254e-15
-2.30996e-14
-8.88422e-15
-8.02922e-15
-7.18628e-15
1.72968e-14
-5.60573e-15
-2.56812e-14
-9.92417e-15
-8.63438e-15
-7.46149e-15
1.73825e-14
-5.46281e-15
-2.43101e-14
-6.98645e-15
-5.64701e-15
-4.57226e-15
1.0041e-14
-2.98577e-15
-1.26151e-14
)
;
    }
    axis
    {
        type            empty;
        value           nonuniform 0();
    }
    procBoundary26to20
    {
        type            processor;
        value           nonuniform List<scalar> 
67
(
0.000124554
0.00015602
0.000197014
0.000247288
0.000284871
0.000216856
1.09287e-06
1.0768e-06
1.06121e-06
1.0461e-06
1.0315e-06
1.01745e-06
1.00397e-06
9.91108e-07
9.78922e-07
9.67473e-07
9.56836e-07
9.47103e-07
9.38383e-07
9.30803e-07
9.24519e-07
9.19711e-07
9.16595e-07
9.15427e-07
9.16506e-07
9.20191e-07
9.26901e-07
9.37135e-07
9.5148e-07
9.70629e-07
9.95401e-07
1.02676e-06
1.06586e-06
1.11404e-06
1.17289e-06
1.24429e-06
1.33048e-06
1.43408e-06
1.55819e-06
1.70651e-06
1.88339e-06
2.09399e-06
2.34444e-06
2.64201e-06
2.99533e-06
3.41469e-06
3.91233e-06
4.50286e-06
5.20377e-06
6.036e-06
7.02471e-06
8.20025e-06
9.59929e-06
1.12664e-05
1.32558e-05
1.56343e-05
1.84839e-05
2.1907e-05
2.60318e-05
3.10206e-05
3.70815e-05
4.44847e-05
5.35866e-05
6.48663e-05
7.89765e-05
-0.000112367
9.68283e-05
)
;
    }
    procBoundary26to25
    {
        type            processor;
        value           nonuniform List<scalar> 5(-0.000132898 -0.000130206 -0.000127168 -0.000123778 -0.000120026);
    }
    procBoundary26to31
    {
        type            processor;
        value           uniform -0.000115907;
    }
    procBoundary26to32
    {
        type            processor;
        value           nonuniform List<scalar> 
67
(
-6.8062e-07
-6.72875e-07
-6.65733e-07
-6.59263e-07
-6.53548e-07
-6.48688e-07
-6.448e-07
-6.42022e-07
-6.40518e-07
-6.40485e-07
-6.42151e-07
-6.4579e-07
-6.51721e-07
-6.60326e-07
-6.72051e-07
-6.87427e-07
-7.07078e-07
-7.31742e-07
-7.62291e-07
-7.99754e-07
-8.45346e-07
-9.00505e-07
-9.66927e-07
-1.04662e-06
-1.14197e-06
-1.25577e-06
-1.39136e-06
-1.55268e-06
-1.74442e-06
-1.97214e-06
-2.24243e-06
-2.56315e-06
-2.94368e-06
-3.39517e-06
-3.93098e-06
-4.56712e-06
-5.32277e-06
-6.22104e-06
-7.28979e-06
-8.56277e-06
-1.00809e-05
-1.18942e-05
-1.40638e-05
-1.66649e-05
-1.97904e-05
-2.35561e-05
-2.81064e-05
-3.36231e-05
-4.03354e-05
-4.85309e-05
-5.85647e-05
-7.08368e-05
-8.5705e-05
-0.000103043
-0.000121231
-0.000133791
-0.000125868
-6.4593e-05
-6.89408e-07
-6.79321e-07
-6.69543e-07
-6.6009e-07
-6.50977e-07
-6.42225e-07
-6.3386e-07
0.000115378
-6.25912e-07
)
;
    }
}


// ************************************************************************* //
