0.165102 	0.474544 	-2.27096e-18 	1.10589 	-0.036134 	1.97805e-17
0.166074 	0.477336 	-1.31868e-18 	1.06215 	-0.0326459 	1.16278e-17
0.167813 	0.482335 	-9.72025e-20 	0.954702 	-0.0254935 	1.27879e-17
0.169341 	0.486727 	-1.80583e-19 	0.758822 	-0.0150469 	1.10306e-17
0.170211 	0.489227 	-2.95087e-19 	0.749011 	-0.01435 	3.25043e-17
0.171291 	0.492331 	1.106e-19 	0.474223 	-0.00476469 	-1.10343e-17
0.17303 	0.49733 	-5.27309e-19 	0.161182 	-0.000463715 	3.5006e-17
