0.174904 	0.470097 	-9.12254e-19 	1.10391 	-0.0353634 	-5.29761e-19
0.175834 	0.472596 	-2.24338e-18 	1.10179 	-0.0346135 	4.28764e-18
0.177597 	0.477336 	-1.81517e-18 	1.05197 	-0.0308383 	2.53415e-17
0.179264 	0.481815 	3.37494e-19 	0.937948 	-0.023636 	1.85829e-17
0.180193 	0.484314 	1.13201e-18 	0.929735 	-0.0227789 	1.69054e-17
0.181317 	0.487333 	1.2406e-18 	0.730387 	-0.0131037 	2.54665e-17
0.183176 	0.492331 	1.15784e-18 	0.460591 	-0.0043432 	7.20556e-20
0.184553 	0.496031 	5.04547e-19 	0.156471 	-0.000425085 	6.59874e-18
0.185483 	0.498531 	2.29334e-19 	0.154272 	-0.000407397 	4.14525e-18
