/*--------------------------------*- C++ -*----------------------------------*\
  =========                 |
  \\      /  F ield         | OpenFOAM: The Open Source CFD Toolbox
   \\    /   O peration     | Website:  https://openfoam.org
    \\  /    A nd           | Version:  7
     \\/     M anipulation  |
\*---------------------------------------------------------------------------*/
FoamFile
{
    version     2.0;
    format      ascii;
    class       volVectorField;
    location    "3.6";
    object      U;
}
// * * * * * * * * * * * * * * * * * * * * * * * * * * * * * * * * * * * * * //

dimensions      [0 1 -1 0 0 0 0];

internalField   nonuniform List<vector> 
344
(
(2.54946 0.00174294 -2.16973e-16)
(2.54433 0.00173413 -1.70348e-16)
(2.53923 0.00172522 -6.40726e-18)
(2.53415 0.00171623 -3.61232e-16)
(2.5291 0.00170714 -2.04257e-16)
(2.52408 0.00169797 -1.41087e-16)
(2.51908 0.00168871 -7.77881e-17)
(2.51412 0.00167937 -1.25462e-16)
(2.50918 0.00166994 -1.02655e-16)
(2.50426 0.00166044 -8.55697e-17)
(2.49938 0.00165087 -5.83528e-17)
(2.49453 0.00164123 -3.50254e-16)
(2.4897 0.00163151 -2.14656e-16)
(2.48491 0.00162173 -4.92521e-17)
(2.48014 0.00161189 -9.67452e-17)
(2.4754 0.00160199 -3.00275e-17)
(2.47069 0.00159203 -7.20961e-17)
(2.46601 0.00158201 -5.84251e-17)
(2.46136 0.00157194 -1.03312e-16)
(2.45675 0.00156182 -7.54549e-18)
(2.45216 0.00155166 -2.82893e-16)
(2.4476 0.00154145 -1.32878e-16)
(2.44307 0.00153119 -1.23397e-16)
(2.43857 0.0015209 -5.02234e-17)
(2.4341 0.00151057 -2.80847e-16)
(2.42967 0.00150021 -1.48185e-16)
(2.42526 0.00148982 -1.16902e-16)
(2.42089 0.00147939 -6.06306e-17)
(2.41654 0.00146895 -2.77347e-16)
(2.41223 0.00145847 -1.52073e-16)
(2.40795 0.00144798 -5.91875e-17)
(2.4037 0.00143746 -7.26553e-17)
(2.39948 0.00142693 -6.78862e-17)
(2.39529 0.00141638 -5.64389e-17)
(2.39113 0.00140582 -8.34391e-17)
(2.38701 0.00139525 -3.38894e-17)
(2.38291 0.00138468 -2.14712e-16)
(2.37885 0.00137409 -1.22466e-16)
(2.37482 0.00136351 -6.97097e-17)
(2.37082 0.00135292 -8.68194e-17)
(2.36685 0.00134233 -5.5891e-17)
(2.36291 0.00133175 -8.63902e-17)
(2.359 0.00132116 -3.62095e-17)
(2.35513 0.00131059 -5.54393e-17)
(2.35128 0.00130001 -3.40469e-17)
(2.34747 0.00128945 -1.82772e-16)
(2.34369 0.00127889 -9.58572e-17)
(2.33994 0.00126833 -7.19734e-17)
(2.33622 0.00125778 -3.89816e-17)
(2.33253 0.00124723 -1.59453e-16)
(2.32887 0.00123668 -8.26356e-17)
(2.32524 0.00122611 -7.79875e-17)
(2.32165 0.00121553 -4.80348e-17)
(2.31809 0.00120492 -1.47437e-16)
(2.31455 0.00119427 -9.65092e-17)
(2.31105 0.00118355 -8.43854e-17)
(2.30759 0.00117278 -5.33472e-17)
(2.30415 0.00116184 -6.66044e-17)
(2.30074 0.00115089 -5.57279e-17)
(2.29737 0.0011395 -4.45918e-17)
(2.29404 0.00112848 -5.66107e-17)
(2.29072 0.00111591 -5.0665e-17)
(2.28748 0.00110579 -5.2657e-17)
(2.28417 0.00108954 -5.20432e-17)
(2.28115 0.00108529 -5.20082e-17)
(2.27759 0.00105678 -5.23056e-17)
(2.27532 0.00107609 -5.00333e-17)
(2.27022 0.00101788 -5.02348e-17)
(2.53566 0.00405827 5.17006e-17)
(2.53056 0.00403732 -8.77512e-17)
(2.52548 0.00401616 -7.35737e-18)
(2.52044 0.0039948 -1.31728e-17)
(2.51542 0.00397324 5.65157e-17)
(2.51043 0.00395149 -6.03672e-17)
(2.50547 0.00392955 2.17334e-17)
(2.50054 0.00390744 -9.73736e-17)
(2.49564 0.00388515 2.78494e-18)
(2.49076 0.00386269 -9.31753e-17)
(2.48592 0.00384007 -2.91854e-17)
(2.4811 0.00381729 -2.39425e-18)
(2.47632 0.00379437 1.21864e-17)
(2.47156 0.0037713 7.43878e-17)
(2.46684 0.00374809 -4.56104e-17)
(2.46214 0.00372476 3.72521e-17)
(2.45748 0.00370129 -5.57279e-17)
(2.45284 0.00367772 8.42524e-18)
(2.44824 0.00365402 -7.34589e-17)
(2.44367 0.00363023 -4.42865e-18)
(2.43912 0.00360633 3.12523e-18)
(2.43461 0.00358233 5.84377e-17)
(2.43013 0.00355825 -5.01504e-17)
(2.42568 0.00353409 2.28954e-18)
(2.42126 0.00350985 9.81983e-18)
(2.41687 0.00348554 4.52721e-17)
(2.41252 0.00346116 -5.72701e-17)
(2.40819 0.00343672 6.90312e-18)
(2.4039 0.00341223 1.51022e-17)
(2.39963 0.00338769 6.93623e-17)
(2.3954 0.00336311 -4.10414e-17)
(2.3912 0.00333849 2.80408e-17)
(2.38703 0.00331383 -3.75201e-17)
(2.38289 0.00328915 3.00414e-17)
(2.37879 0.00326445 -4.09634e-17)
(2.37471 0.00323973 3.23125e-18)
(2.37067 0.003215 2.18118e-17)
(2.36666 0.00319026 3.28141e-17)
(2.36268 0.00316552 5.90434e-17)
(2.35873 0.00314078 -1.13778e-17)
(2.35481 0.00311605 3.99829e-17)
(2.35092 0.00309132 -1.65263e-17)
(2.34707 0.00306662 3.38496e-17)
(2.34324 0.00304192 -2.58236e-17)
(2.33945 0.00301725 1.43463e-17)
(2.33569 0.0029926 1.00607e-17)
(2.33196 0.00296796 4.36479e-17)
(2.32826 0.00294334 -4.66294e-19)
(2.32459 0.00291874 2.4173e-17)
(2.32096 0.00289414 2.97976e-17)
(2.31735 0.00286954 4.86866e-17)
(2.31378 0.00284492 2.13331e-18)
(2.31023 0.00282026 1.91474e-17)
(2.30672 0.00279555 1.6377e-17)
(2.30324 0.00277074 3.24742e-17)
(2.29979 0.0027458 8.46325e-19)
(2.29637 0.0027207 2.16302e-17)
(2.29299 0.00269529 6.67273e-19)
(2.28963 0.00266974 1.3117e-17)
(2.28631 0.00264339 3.11636e-17)
(2.28303 0.00261739 1.07181e-17)
(2.27976 0.00258894 1.93318e-17)
(2.27657 0.00256365 2.27901e-17)
(2.27331 0.00252952 2.12737e-17)
(2.27033 0.00251095 2.17218e-17)
(2.26685 0.00246015 2.76245e-17)
(2.26459 0.00246735 2.66383e-17)
(2.25957 0.00238001 2.31845e-17)
(2.50537 0.00657003 2.76963e-16)
(2.50034 0.00653426 3.24996e-16)
(2.49534 0.00649821 2.37009e-16)
(2.49037 0.00646188 3.19569e-16)
(2.48543 0.00642528 2.54093e-16)
(2.48052 0.00638842 3.26783e-16)
(2.47564 0.00635132 2.53393e-16)
(2.47079 0.00631397 3.12624e-16)
(2.46597 0.00627639 2.49423e-16)
(2.46118 0.00623858 3.04782e-16)
(2.45643 0.00620057 2.31462e-16)
(2.4517 0.00616235 2.92742e-16)
(2.44701 0.00612393 2.72946e-16)
(2.44235 0.00608533 2.23006e-16)
(2.43772 0.00604654 2.9004e-16)
(2.43312 0.0060076 2.46029e-16)
(2.42855 0.00596849 2.89614e-16)
(2.42402 0.00592923 2.39745e-16)
(2.41952 0.00588984 2.89986e-16)
(2.41504 0.00585031 2.24824e-16)
(2.4106 0.00581066 2.92088e-16)
(2.4062 0.00577089 2.47401e-16)
(2.40182 0.00573102 3.01141e-16)
(2.39747 0.00569105 2.28547e-16)
(2.39316 0.005651 2.91989e-16)
(2.38888 0.00561086 2.33406e-16)
(2.38463 0.00557065 2.7221e-16)
(2.38042 0.00553038 2.22413e-16)
(2.37623 0.00549006 2.70861e-16)
(2.37208 0.00544969 2.32568e-16)
(2.36796 0.00540928 2.72014e-16)
(2.36387 0.00536884 2.19995e-16)
(2.35981 0.00532837 2.57068e-16)
(2.35579 0.00528789 2.17513e-16)
(2.35179 0.00524741 2.47118e-16)
(2.34783 0.00520692 1.98452e-16)
(2.3439 0.00516644 2.39257e-16)
(2.34 0.00512598 2.14586e-16)
(2.33614 0.00508554 1.90862e-16)
(2.3323 0.00504513 2.20417e-16)
(2.3285 0.00500475 1.95226e-16)
(2.32472 0.00496442 2.23814e-16)
(2.32098 0.00492413 1.9163e-16)
(2.31727 0.00488389 2.16263e-16)
(2.3136 0.0048437 1.82389e-16)
(2.30995 0.00480357 2.07159e-16)
(2.30633 0.00476349 1.83819e-16)
(2.30275 0.00472346 2.09339e-16)
(2.29919 0.00468347 1.78031e-16)
(2.29567 0.00464351 2.03237e-16)
(2.29218 0.00460356 1.80155e-16)
(2.28872 0.00456361 1.87799e-16)
(2.28529 0.00452363 1.58016e-16)
(2.28189 0.00448357 1.74003e-16)
(2.27852 0.00444338 1.53798e-16)
(2.27518 0.004403 1.63576e-16)
(2.27187 0.00436238 1.4476e-16)
(2.2686 0.00432131 1.53663e-16)
(2.26535 0.00427992 1.38486e-16)
(2.26214 0.00423754 1.34509e-16)
(2.25897 0.00419511 1.27442e-16)
(2.25581 0.00415012 1.19617e-16)
(2.25272 0.00410714 1.15599e-16)
(2.24958 0.00405629 1.10672e-16)
(2.24669 0.00401641 1.08953e-16)
(2.24334 0.00395102 1.0182e-16)
(2.24113 0.00392539 1.00783e-16)
(2.2363 0.00382988 9.7985e-17)
(2.45965 0.00904583 3.4501e-16)
(2.45473 0.00899274 3.53703e-16)
(2.44985 0.00893938 3.33975e-16)
(2.445 0.00888575 3.52678e-16)
(2.44019 0.00883186 3.3283e-16)
(2.43541 0.00877772 3.55e-16)
(2.43066 0.00872334 3.36127e-16)
(2.42595 0.00866874 3.48611e-16)
(2.42127 0.00861392 3.37687e-16)
(2.41662 0.0085589 3.58515e-16)
(2.41201 0.00850368 3.50656e-16)
(2.40743 0.00844827 3.52268e-16)
(2.40289 0.0083927 3.48661e-16)
(2.39837 0.00833696 3.17627e-16)
(2.39389 0.00828107 3.48825e-16)
(2.38945 0.00822504 3.34263e-16)
(2.38504 0.00816889 3.46442e-16)
(2.38066 0.00811261 3.28424e-16)
(2.37631 0.00805623 3.52223e-16)
(2.372 0.00799974 3.38482e-16)
(2.36772 0.00794318 3.44477e-16)
(2.36347 0.00788653 3.25431e-16)
(2.35926 0.00782982 3.45464e-16)
(2.35508 0.00777305 3.24111e-16)
(2.35093 0.00771623 3.36739e-16)
(2.34682 0.00765938 3.19792e-16)
(2.34274 0.0076025 3.25848e-16)
(2.33869 0.00754561 3.22125e-16)
(2.33467 0.00748871 3.23434e-16)
(2.33069 0.0074318 3.10718e-16)
(2.32674 0.00737491 3.20397e-16)
(2.32282 0.00731805 3.01215e-16)
(2.31894 0.00726121 3.1182e-16)
(2.31508 0.00720441 2.99999e-16)
(2.31126 0.00714766 3.03982e-16)
(2.30747 0.00709096 2.98834e-16)
(2.30371 0.00703434 2.98108e-16)
(2.29999 0.00697779 2.96605e-16)
(2.2963 0.00692132 2.79059e-16)
(2.29263 0.00686494 2.87911e-16)
(2.289 0.00680867 2.75263e-16)
(2.2854 0.0067525 2.82971e-16)
(2.28184 0.00669644 2.75426e-16)
(2.2783 0.00664049 2.8017e-16)
(2.27479 0.00658467 2.74754e-16)
(2.27132 0.00652896 2.76084e-16)
(2.26787 0.00647337 2.64591e-16)
(2.26446 0.0064179 2.64109e-16)
(2.26108 0.00636252 2.59246e-16)
(2.25773 0.00630723 2.60089e-16)
(2.25441 0.00625201 2.47612e-16)
(2.25111 0.00619682 2.48416e-16)
(2.24785 0.00614163 2.38301e-16)
(2.24462 0.00608637 2.37578e-16)
(2.24142 0.00603099 2.28291e-16)
(2.23825 0.00597539 2.30934e-16)
(2.23511 0.00591948 2.22685e-16)
(2.232 0.00586305 2.21705e-16)
(2.22892 0.00580614 2.18361e-16)
(2.22587 0.00574807 2.14538e-16)
(2.22286 0.00568963 2.06747e-16)
(2.21987 0.0056284 1.99216e-16)
(2.21694 0.00556844 1.93272e-16)
(2.21397 0.00550056 1.87867e-16)
(2.21122 0.00544171 1.83052e-16)
(2.20806 0.00535836 1.78577e-16)
(2.20595 0.0053111 1.74971e-16)
(2.20139 0.005196 1.69614e-16)
(2.39905 0.0114216 3.96381e-16)
(2.39432 0.0113485 4.45507e-16)
(2.38962 0.0112751 4.23839e-16)
(2.38495 0.0112017 4.19875e-16)
(2.38032 0.011128 3.88531e-16)
(2.37573 0.0110543 4.39342e-16)
(2.37118 0.0109804 4.11899e-16)
(2.36666 0.0109064 4.59803e-16)
(2.36218 0.0108322 4.23922e-16)
(2.35774 0.010758 4.70024e-16)
(2.35333 0.0106837 4.49258e-16)
(2.34896 0.0106094 4.31301e-16)
(2.34462 0.0105349 4.23173e-16)
(2.34032 0.0104604 3.94269e-16)
(2.33605 0.0103859 4.47517e-16)
(2.33182 0.0103114 4.12582e-16)
(2.32762 0.0102368 4.56148e-16)
(2.32346 0.0101622 4.227e-16)
(2.31934 0.0100876 4.61932e-16)
(2.31524 0.0100131 4.38986e-16)
(2.31119 0.0099385 4.24232e-16)
(2.30717 0.00986398 3.93187e-16)
(2.30318 0.0097895 4.34936e-16)
(2.29922 0.00971508 4.14692e-16)
(2.2953 0.00964071 4.05742e-16)
(2.29141 0.00956642 3.86495e-16)
(2.28756 0.0094922 4.22714e-16)
(2.28374 0.00941807 4.03489e-16)
(2.27996 0.00934405 3.97127e-16)
(2.2762 0.00927013 3.70387e-16)
(2.27248 0.00919632 4.10557e-16)
(2.26879 0.00912265 3.81015e-16)
(2.26514 0.00904911 4.10779e-16)
(2.26152 0.00897571 3.83989e-16)
(2.25793 0.00890247 4.02841e-16)
(2.25437 0.0088294 3.83004e-16)
(2.25084 0.00875649 3.71415e-16)
(2.24735 0.00868377 3.62182e-16)
(2.24388 0.00861124 3.44529e-16)
(2.24045 0.0085389 3.69837e-16)
(2.23705 0.00846677 3.49841e-16)
(2.23368 0.00839485 3.7544e-16)
(2.23034 0.00832315 3.53377e-16)
(2.22704 0.00825167 3.73028e-16)
(2.22376 0.00818042 3.55577e-16)
(2.22051 0.00810939 3.43353e-16)
(2.2173 0.00803857 3.30675e-16)
(2.21411 0.00796797 3.46903e-16)
(2.21096 0.00789757 3.32706e-16)
(2.20783 0.00782734 3.23177e-16)
(2.20473 0.00775727 3.09872e-16)
(2.20167 0.00768731 3.21921e-16)
(2.19863 0.00761741 3.10484e-16)
(2.19562 0.00754751 3.04075e-16)
(2.19264 0.00747752 2.90948e-16)
(2.18969 0.00740731 3.00722e-16)
(2.18677 0.0073368 2.88095e-16)
(2.18388 0.00726571 2.94646e-16)
(2.18101 0.00719405 2.85264e-16)
(2.17818 0.0071211 2.80123e-16)
(2.17538 0.00704753 2.63767e-16)
(2.1726 0.0069709 2.59547e-16)
(2.16988 0.0068951 2.54512e-16)
(2.16712 0.00681083 2.50034e-16)
(2.16457 0.00673516 2.45428e-16)
(2.16165 0.00663321 2.40685e-16)
(2.15967 0.00656989 2.3673e-16)
(2.15546 0.00643018 2.31232e-16)
(2.3243 0.0136387 4.49487e-16)
(2.31981 0.0135429 4.43906e-16)
(2.31536 0.0134471 4.50558e-16)
(2.31095 0.0133514 4.45866e-16)
)
;

boundaryField
{
    inlet
    {
        type            uniformFixedValue;
        uniformValue    constant (1 0 0);
        value           nonuniform 0();
    }
    outlet
    {
        type            pressureInletOutletVelocity;
        value           nonuniform List<vector> 5((2.27022 0.00101788 -5.02348e-17) (2.25957 0.00238001 2.31845e-17) (2.2363 0.00382988 9.7985e-17) (2.20139 0.005196 1.69614e-16) (2.15546 0.00643018 2.31232e-16));
    }
    wall
    {
        type            fixedValue;
        value           nonuniform 0();
    }
    wedge1
    {
        type            wedge;
    }
    wedge2
    {
        type            wedge;
    }
    axis
    {
        type            empty;
    }
    procBoundary5to4
    {
        type            processor;
        value           nonuniform List<vector> 5((2.55462 0.00175165 -3.50488e-16) (2.54078 0.00407901 -1.53406e-17) (2.51043 0.00660551 3.32314e-16) (2.46459 0.00909863 3.59707e-16) (2.40383 0.0114946 4.26321e-16));
    }
    procBoundary5to10
    {
        type            processor;
        value           uniform (2.32883 0.0137346 4.60986e-16);
    }
    procBoundary5to11
    {
        type            processor;
        value           nonuniform List<vector> 
69
(
(2.30658 0.0132558 4.44008e-16)
(2.30225 0.0131602 4.42422e-16)
(2.29796 0.0130648 4.49182e-16)
(2.29371 0.0129694 4.55251e-16)
(2.2895 0.0128742 4.57067e-16)
(2.28532 0.0127791 4.598e-16)
(2.28119 0.0126841 4.65666e-16)
(2.27709 0.0125892 4.62799e-16)
(2.27303 0.0124945 4.63176e-16)
(2.269 0.0123999 4.57412e-16)
(2.26502 0.0123055 4.61873e-16)
(2.26106 0.0122112 4.60678e-16)
(2.25715 0.0121172 4.65456e-16)
(2.25327 0.0120233 4.65555e-16)
(2.24943 0.0119296 4.70816e-16)
(2.24562 0.0118361 4.70775e-16)
(2.24185 0.0117428 4.55367e-16)
(2.23812 0.0116497 4.51159e-16)
(2.23442 0.0115569 4.47461e-16)
(2.23075 0.0114643 4.56684e-16)
(2.22712 0.0113719 4.5193e-16)
(2.22352 0.0112797 4.41793e-16)
(2.21996 0.0111878 4.42494e-16)
(2.21643 0.0110962 4.43169e-16)
(2.21293 0.0110049 4.31762e-16)
(2.20947 0.0109138 4.22508e-16)
(2.20603 0.010823 4.24999e-16)
(2.20264 0.0107324 4.2859e-16)
(2.19927 0.0106422 4.2704e-16)
(2.19594 0.0105523 4.22227e-16)
(2.19264 0.0104627 4.18e-16)
(2.18937 0.0103734 4.15667e-16)
(2.18613 0.0102845 4.06956e-16)
(2.18292 0.0101958 4.07447e-16)
(2.17974 0.0101076 3.98994e-16)
(2.1766 0.0100196 4.01359e-16)
(2.17348 0.00993206 4.02339e-16)
(2.1704 0.00984485 4.02165e-16)
(2.16734 0.009758 3.99352e-16)
(2.16432 0.00967151 3.98069e-16)
(2.16132 0.0095854 3.98354e-16)
(2.15836 0.00949965 3.87115e-16)
(2.15542 0.00941426 3.8234e-16)
(2.15251 0.00932922 3.78909e-16)
(2.14964 0.00924451 3.77984e-16)
(2.14678 0.00916012 3.6908e-16)
(2.14396 0.00907599 3.63553e-16)
(2.14117 0.0089921 3.57287e-16)
(2.1384 0.00890838 3.5498e-16)
(2.13567 0.00882475 3.48314e-16)
(2.13296 0.00874111 3.41522e-16)
(2.13027 0.00865732 3.3938e-16)
(2.12762 0.00857325 3.36299e-16)
(2.12499 0.00848862 3.3238e-16)
(2.12239 0.00840337 3.29418e-16)
(2.11982 0.00831676 3.28693e-16)
(2.11728 0.00822933 3.14124e-16)
(2.11476 0.00813869 3.10096e-16)
(2.11229 0.00804845 3.05308e-16)
(2.10979 0.00794929 3.00748e-16)
(2.10747 0.00785849 2.97947e-16)
(2.10484 0.00773932 2.91111e-16)
(2.10303 0.007662 2.87286e-16)
(2.09922 0.00749808 2.81707e-16)
(2.23634 0.0156328 5.08542e-16)
(2.23218 0.0155124 4.74487e-16)
(2.22806 0.0153923 5.20104e-16)
(2.30658 0.0132558 4.44008e-16)
(2.22398 0.0152727 4.59599e-16)
)
;
    }
}


// ************************************************************************* //
