/*--------------------------------*- C++ -*----------------------------------*\
  =========                 |
  \\      /  F ield         | OpenFOAM: The Open Source CFD Toolbox
   \\    /   O peration     | Website:  https://openfoam.org
    \\  /    A nd           | Version:  7
     \\/     M anipulation  |
\*---------------------------------------------------------------------------*/
FoamFile
{
    version     2.0;
    format      ascii;
    class       volScalarField;
    location    "1.1";
    object      p;
}
// * * * * * * * * * * * * * * * * * * * * * * * * * * * * * * * * * * * * * //

dimensions      [1 -1 -2 0 0 0 0];

internalField   nonuniform List<scalar> 
12096
(
0.990725
0.997531
1.00632
1.0104
1.01055
1.00989
1.00911
1.00821
1.00706
1.00528
1.00179
0.994396
0.982326
0.970583
0.964539
0.961435
0.959152
0.956133
0.950726
0.941156
0.931065
0.927135
0.925813
0.923963
0.920679
0.915322
0.909364
0.905459
0.903077
0.901061
0.899244
0.898431
0.898831
0.902723
0.913159
0.930714
0.950724
0.959634
0.959884
0.958432
0.956545
0.954457
0.951317
0.945784
0.936755
0.924338
0.911447
0.903496
0.900794
0.899502
0.898212
0.896982
0.89588
0.894542
0.892809
0.890573
0.887431
0.882354
0.871182
0.851208
0.835681
0.831601
0.830537
0.829871
0.829505
0.8297
0.831678
0.836796
0.849344
0.877569
0.913133
0.924397
0.923773
0.922615
0.921075
0.917865
0.90841
0.884725
0.857206
0.847457
0.846781
0.846826
0.848216
0.848864
0.848256
0.846843
0.844518
0.838274
0.822504
0.794046
0.772725
0.768426
0.767728
0.767381
0.767367
0.768987
0.774956
0.79316
0.833533
0.876227
0.886939
0.88696
0.885947
0.883576
0.877934
0.862003
0.829655
0.805947
0.80163
0.801223
0.801248
0.803342
0.807036
0.808027
0.807969
0.805673
0.795438
0.770796
0.739008
0.725249
0.72275
0.721984
0.721743
0.721978
0.724643
0.735132
0.762715
0.808695
0.840233
0.845578
0.845635
0.844865
0.843164
0.840323
0.834392
0.82064
0.799974
0.788366
0.786352
0.78596
0.784906
0.781731
0.77156
0.747153
0.717906
0.706915
0.704853
0.703164
0.700727
0.698965
0.698314
0.698165
0.699502
0.705234
0.720192
0.751934
0.79215
0.809896
0.811477
0.811375
0.810925
0.809789
0.807083
0.799795
0.780559
0.747641
0.726645
0.721877
0.719936
0.718139
0.716213
0.713424
0.707813
0.697677
0.688789
0.686622
0.686764
0.687025
0.687417
0.688386
0.691235
0.700412
0.724078
0.756442
0.768979
0.770811
0.771926
0.772632
0.771898
0.768703
0.760049
0.744497
0.732294
0.728085
0.725792
0.722358
0.7167
0.707163
0.690777
0.669047
0.657314
0.655288
0.65514
0.655559
0.656885
0.659342
0.664202
0.676067
0.701589
0.72636
0.730486
0.729875
0.727246
0.72547
0.723867
0.720883
0.715686
0.708159
0.700441
0.695549
0.692623
0.688391
0.678113
0.65824
0.640406
0.63452
0.633086
0.632363
0.631821
0.631434
0.631692
0.63423
0.641506
0.656433
0.678458
0.697436
0.704437
0.706229
0.708925
0.714437
0.715993
0.713794
0.709399
0.703885
0.696467
0.686381
0.673106
0.656575
0.637338
0.623929
0.620385
0.621589
0.996718
1.00645
1.01086
1.01184
1.01218
1.01179
1.01084
1.01001
1.00885
1.00667
1.00198
0.992506
0.978113
0.967938
0.963789
0.962268
0.960923
0.95906
0.955659
0.94869
0.937478
0.927769
0.923543
0.921297
0.918297
0.913883
0.908368
0.905192
0.904403
0.903921
0.903303
0.902946
0.903773
0.907675
0.916499
0.930409
0.943547
0.952705
0.956155
0.955626
0.953326
0.949902
0.945174
0.939095
0.932529
0.926595
0.920416
0.911739
0.903242
0.898774
0.896979
0.896106
0.895195
0.893892
0.892013
0.889879
0.887783
0.884305
0.876359
0.861127
0.842784
0.834514
0.83287
0.832212
0.831804
0.831871
0.833188
0.837173
0.844624
0.85983
0.889065
0.919238
0.925238
0.924074
0.92238
0.920077
0.914516
0.898217
0.867858
0.848331
0.844672
0.844493
0.845178
0.845788
0.845196
0.843571
0.841199
0.837128
0.828225
0.810468
0.786086
0.772578
0.770033
0.769448
0.769316
0.770425
0.77491
0.784851
0.809052
0.852027
0.884187
0.88772
0.886998
0.885298
0.881858
0.87278
0.848904
0.815052
0.801257
0.799862
0.799703
0.800935
0.80438
0.805775
0.805865
0.804854
0.799468
0.784615
0.754893
0.728623
0.722788
0.72202
0.721716
0.721733
0.723042
0.728641
0.745435
0.783044
0.830014
0.847373
0.848038
0.847485
0.846046
0.843827
0.839969
0.831486
0.81395
0.792946
0.782952
0.781118
0.780212
0.778173
0.772155
0.756268
0.728736
0.709103
0.704389
0.703029
0.701882
0.700697
0.700011
0.699883
0.700968
0.705769
0.716212
0.736905
0.771805
0.801944
0.809474
0.809696
0.809271
0.808114
0.805856
0.801354
0.789301
0.761525
0.732421
0.723047
0.720807
0.719203
0.717456
0.714962
0.710475
0.701981
0.690714
0.685276
0.684922
0.684949
0.684437
0.68361
0.683901
0.68881
0.70813
0.745254
0.770653
0.776695
0.778685
0.779645
0.779424
0.777507
0.771217
0.755287
0.734189
0.722913
0.719026
0.715841
0.71149
0.705194
0.69556
0.68053
0.663068
0.655761
0.655155
0.655201
0.655893
0.65781
0.660921
0.667253
0.683452
0.712229
0.731057
0.73416
0.734881
0.734913
0.733471
0.730656
0.726144
0.71892
0.709655
0.700988
0.693126
0.682804
0.665947
0.646569
0.636624
0.633867
0.632642
0.631706
0.631102
0.630872
0.631378
0.633653
0.639143
0.64865
0.663559
0.684189
0.704085
0.716732
0.724383
0.726908
0.725869
0.72281
0.718923
0.713541
0.705057
0.691372
0.671494
0.646292
0.625406
0.618286
0.617322
0.618414
1.00095
1.00542
1.00653
1.00637
1.00632
1.00742
1.00811
1.00768
1.00678
1.00514
1.00136
0.991147
0.975959
0.966837
0.965143
0.96435
0.96337
0.961873
0.959418
0.954373
0.943732
0.929489
0.92092
0.918111
0.9163
0.913686
0.911057
0.908782
0.906644
0.905365
0.904735
0.90495
0.907738
0.914353
0.923875
0.933419
0.938911
0.942593
0.947317
0.949734
0.948561
0.945111
0.940466
0.935534
0.931835
0.929121
0.92529
0.9189
0.908871
0.90021
0.896949
0.895676
0.894791
0.893564
0.891852
0.889682
0.88686
0.883151
0.877898
0.868528
0.85273
0.838631
0.834638
0.833972
0.833645
0.833743
0.835186
0.838581
0.843654
0.85159
0.867588
0.896717
0.922415
0.925966
0.924348
0.921815
0.917682
0.90821
0.886035
0.856615
0.843708
0.842001
0.842041
0.842664
0.842263
0.840399
0.837474
0.833708
0.828341
0.818631
0.801977
0.783133
0.775092
0.773895
0.773648
0.774164
0.776956
0.783442
0.79602
0.822737
0.86331
0.886719
0.887598
0.886083
0.883644
0.878548
0.863729
0.831472
0.804458
0.799155
0.798858
0.79944
0.801887
0.802941
0.80317
0.802762
0.800348
0.791836
0.771182
0.739822
0.724446
0.722687
0.72232
0.722229
0.723206
0.727662
0.737952
0.761641
0.804478
0.842229
0.849314
0.849013
0.847822
0.845894
0.843149
0.838016
0.826381
0.804942
0.784748
0.776672
0.774805
0.773243
0.770037
0.761498
0.742926
0.718385
0.706191
0.703896
0.702924
0.702069
0.701521
0.701571
0.703367
0.707745
0.714611
0.727265
0.752473
0.788212
0.807394
0.809335
0.809214
0.808375
0.806543
0.803105
0.794578
0.774166
0.743001
0.725646
0.721998
0.720344
0.718547
0.716111
0.712274
0.705394
0.694375
0.685781
0.683453
0.682608
0.681492
0.680458
0.68012
0.682782
0.696668
0.73086
0.767966
0.780625
0.783378
0.784263
0.784356
0.783624
0.77994
0.766687
0.740473
0.719838
0.712982
0.70966
0.705907
0.701186
0.695516
0.687705
0.674268
0.65916
0.653392
0.653107
0.65394
0.655941
0.658352
0.661752
0.670112
0.690988
0.722824
0.741759
0.7445
0.743756
0.742424
0.740263
0.73607
0.728893
0.718917
0.706788
0.691824
0.672254
0.651125
0.639139
0.635243
0.633561
0.632419
0.631337
0.630535
0.630423
0.631268
0.633574
0.636966
0.642447
0.653095
0.674147
0.704877
0.728699
0.735925
0.73624
0.735141
0.733045
0.72965
0.723689
0.71252
0.691943
0.661016
0.631638
0.619163
0.616409
0.615332
0.616026
1.00362
1.005
1.00528
1.00484
1.00437
1.00459
1.0061
1.00616
1.00499
1.00285
0.99865
0.989141
0.975031
0.969222
0.968331
0.967563
0.966471
0.96462
0.96196
0.95742
0.947216
0.931003
0.920187
0.916621
0.915031
0.914289
0.913699
0.912452
0.910832
0.909266
0.908209
0.908382
0.912395
0.922418
0.932599
0.935065
0.935062
0.935065
0.93641
0.940322
0.942395
0.94111
0.937896
0.933994
0.929821
0.926564
0.92438
0.921514
0.915772
0.906115
0.898418
0.896524
0.89598
0.894953
0.893172
0.890351
0.886555
0.882866
0.87916
0.873765
0.864365
0.849611
0.838399
0.835935
0.835622
0.835724
0.836907
0.839597
0.843676
0.849005
0.857064
0.873958
0.902463
0.920383
0.921209
0.919497
0.916924
0.912345
0.90068
0.874495
0.848223
0.840396
0.839676
0.839229
0.838075
0.835896
0.832965
0.82954
0.82585
0.821162
0.812814
0.797861
0.782951
0.778533
0.778195
0.77853
0.780373
0.784691
0.792075
0.8057
0.832205
0.869194
0.887848
0.888011
0.885603
0.881364
0.872587
0.850435
0.815594
0.799872
0.798673
0.79899
0.800172
0.800544
0.800606
0.800287
0.798473
0.793192
0.780548
0.756557
0.732676
0.725683
0.724945
0.724818
0.725419
0.728847
0.737064
0.751225
0.777608
0.81823
0.847042
0.849931
0.849027
0.847322
0.845122
0.841842
0.834719
0.818379
0.793412
0.776036
0.770114
0.767899
0.765516
0.761079
0.750952
0.732441
0.713254
0.706289
0.705015
0.704367
0.704002
0.704378
0.706246
0.709259
0.714024
0.722354
0.739069
0.769107
0.798119
0.80526
0.804919
0.804027
0.802502
0.79997
0.795053
0.782225
0.756677
0.732338
0.724434
0.722289
0.720522
0.718227
0.714652
0.708233
0.69726
0.68628
0.682462
0.681536
0.680699
0.679943
0.679616
0.681334
0.689846
0.714926
0.754698
0.780154
0.7864
0.787953
0.788361
0.788234
0.786293
0.775791
0.747467
0.717883
0.707736
0.704907
0.702138
0.698772
0.695702
0.691345
0.6824
0.666046
0.654243
0.652774
0.653339
0.654439
0.655413
0.656905
0.661526
0.675993
0.708974
0.743671
0.751643
0.751352
0.751186
0.750469
0.747291
0.740224
0.72834
0.709742
0.683963
0.657669
0.642976
0.637637
0.635604
0.634353
0.633355
0.632427
0.631887
0.631891
0.632176
0.632519
0.633794
0.637091
0.646241
0.668305
0.70509
0.736208
0.744383
0.744745
0.744382
0.743173
0.740111
0.732837
0.716666
0.685688
0.645581
0.623053
0.61777
0.615925
0.614515
0.614748
1.00627
1.00577
1.00475
1.00424
1.00385
1.00349
1.00338
1.00295
1.0016
0.999443
0.995742
0.98862
0.979033
0.972191
0.968828
0.966536
0.964982
0.964651
0.963485
0.959342
0.949598
0.933409
0.920996
0.917315
0.916029
0.914828
0.913501
0.912539
0.912153
0.912579
0.913441
0.915946
0.922551
0.930039
0.931468
0.931248
0.930503
0.929796
0.929421
0.93025
0.933802
0.936223
0.93502
0.93197
0.928845
0.926012
0.923912
0.922245
0.919784
0.914014
0.903868
0.895685
0.892646
0.891587
0.890232
0.888321
0.885689
0.882382
0.879122
0.876022
0.871504
0.86256
0.848479
0.839644
0.83837
0.838588
0.840249
0.843117
0.845643
0.847524
0.850755
0.859073
0.879304
0.907877
0.919054
0.91846
0.916775
0.914457
0.908648
0.893386
0.864702
0.841603
0.834733
0.833284
0.83215
0.830909
0.829182
0.826748
0.824219
0.822117
0.818915
0.811706
0.79765
0.785312
0.78271
0.782673
0.783705
0.786655
0.791726
0.799378
0.813242
0.839585
0.872401
0.884617
0.883897
0.881171
0.876679
0.864926
0.836485
0.806454
0.798653
0.798335
0.798492
0.798478
0.798326
0.797788
0.795932
0.791836
0.783787
0.768729
0.746089
0.731215
0.728739
0.728608
0.729154
0.731983
0.738438
0.748557
0.763568
0.788841
0.824925
0.848337
0.85034
0.848867
0.846888
0.844258
0.83972
0.828975
0.806118
0.780014
0.767275
0.763171
0.760946
0.758361
0.753735
0.743556
0.725503
0.710422
0.706834
0.706233
0.705924
0.706224
0.708042
0.711036
0.715064
0.72091
0.731096
0.75132
0.782493
0.80172
0.803371
0.802335
0.800387
0.797696
0.793637
0.785556
0.767332
0.741117
0.726925
0.723883
0.722455
0.720565
0.717052
0.710121
0.698204
0.686256
0.682356
0.681703
0.681161
0.68047
0.680197
0.681868
0.688134
0.704284
0.738382
0.776386
0.790612
0.791997
0.791805
0.791187
0.78923
0.781049
0.755198
0.720647
0.706502
0.703102
0.700726
0.697618
0.694322
0.69136
0.686559
0.675016
0.659688
0.653909
0.653158
0.65292
0.653033
0.654037
0.657328
0.668086
0.696513
0.737626
0.755854
0.758333
0.759525
0.76024
0.759129
0.752659
0.736676
0.706495
0.668008
0.645945
0.640912
0.639289
0.637473
0.634534
0.632612
0.63123
0.629983
0.629574
0.629865
0.630687
0.632093
0.635066
0.643581
0.66587
0.706344
0.742012
0.75205
0.752644
0.753068
0.752703
0.749671
0.740154
0.715889
0.672013
0.632978
0.621054
0.618327
0.616683
0.615
0.614825
1.00102
1.0008
1.00101
1.00196
1.0021
1.00159
1.00086
0.999713
0.99817
0.995978
0.992467
0.987453
0.981739
0.976448
0.972229
0.968677
0.965523
0.962321
0.959498
0.955346
0.947647
0.93638
0.926532
0.921555
0.919444
0.918119
0.916941
0.91588
0.915184
0.915272
0.918146
0.92546
0.931426
0.931492
0.929937
0.928051
0.926741
0.925554
0.924317
0.923523
0.923856
0.927478
0.930922
0.929968
0.92765
0.926242
0.925215
0.924328
0.922927
0.919367
0.9105
0.898276
0.891701
0.889842
0.88864
0.88696
0.884854
0.882466
0.880184
0.878173
0.875673
0.871045
0.861119
0.847376
0.841103
0.840572
0.840854
0.841702
0.842959
0.844331
0.846114
0.850356
0.861995
0.887296
0.912592
0.917069
0.915582
0.913577
0.910799
0.903253
0.882598
0.85079
0.833333
0.829316
0.827749
0.826477
0.825592
0.824867
0.823869
0.823098
0.822258
0.81988
0.812621
0.798425
0.788312
0.786857
0.787065
0.788689
0.792095
0.796805
0.804095
0.818117
0.844867
0.875055
0.883995
0.88294
0.87939
0.871519
0.854265
0.822836
0.801019
0.797641
0.797338
0.796745
0.795846
0.794687
0.792736
0.789496
0.784628
0.776355
0.761604
0.742617
0.733725
0.732808
0.733031
0.735032
0.740163
0.748075
0.758251
0.773013
0.796418
0.827585
0.846435
0.847838
0.846222
0.844288
0.841461
0.834997
0.817809
0.78862
0.767983
0.76135
0.758864
0.756979
0.754595
0.74967
0.738333
0.720673
0.710662
0.709207
0.708861
0.708796
0.709737
0.712161
0.715434
0.719558
0.725902
0.738433
0.763084
0.792069
0.801593
0.801146
0.799336
0.796773
0.793519
0.788208
0.775546
0.750982
0.7301
0.724803
0.723629
0.722168
0.718988
0.711594
0.698289
0.686417
0.683868
0.683891
0.683555
0.682838
0.682599
0.683951
0.688946
0.701355
0.725582
0.759667
0.7813
0.786943
0.788548
0.789108
0.788214
0.781504
0.763441
0.731907
0.708929
0.703204
0.700624
0.697954
0.695762
0.693932
0.690643
0.682417
0.667121
0.654147
0.650177
0.649843
0.650367
0.651912
0.655212
0.663946
0.685863
0.725012
0.757501
0.766388
0.768839
0.770037
0.769816
0.763656
0.74065
0.695091
0.653816
0.642822
0.641594
0.6411
0.638952
0.635133
0.6331
0.631334
0.629669
0.628971
0.629325
0.630269
0.631821
0.635032
0.643531
0.664236
0.702984
0.743448
0.757296
0.759213
0.760495
0.760574
0.757365
0.744845
0.710811
0.656997
0.625629
0.621116
0.620061
0.618666
0.616614
0.614765
0.999762
0.99953
0.999744
1.00053
1.00046
0.999918
0.998858
0.997088
0.994608
0.991568
0.988131
0.984173
0.980541
0.978784
0.977131
0.974048
0.968622
0.962087
0.955647
0.949455
0.943013
0.936917
0.931338
0.926517
0.9234
0.921965
0.92112
0.920364
0.91991
0.921043
0.927256
0.934077
0.934241
0.932308
0.929682
0.926366
0.923212
0.920773
0.918786
0.917369
0.916709
0.917393
0.922588
0.927632
0.926989
0.925511
0.924603
0.924103
0.923403
0.921842
0.916477
0.904263
0.892651
0.888299
0.887062
0.885916
0.884094
0.882547
0.881773
0.881012
0.879853
0.877598
0.872332
0.860803
0.84732
0.842492
0.841787
0.841715
0.842126
0.843341
0.844395
0.84595
0.85108
0.866214
0.894864
0.914308
0.915265
0.913587
0.911369
0.907439
0.895494
0.866669
0.836226
0.825638
0.823824
0.822637
0.821898
0.821948
0.823981
0.825692
0.825669
0.824847
0.821977
0.813492
0.799122
0.791228
0.79046
0.790898
0.792639
0.79559
0.800195
0.808005
0.823091
0.849791
0.873399
0.877461
0.875927
0.872284
0.863603
0.844117
0.814019
0.79765
0.794837
0.794301
0.793501
0.792357
0.790564
0.787841
0.784371
0.779855
0.77255
0.759278
0.7439
0.738193
0.737886
0.73871
0.741894
0.748174
0.757479
0.767929
0.780758
0.800929
0.82838
0.844313
0.845219
0.844055
0.842043
0.836979
0.82482
0.800846
0.773744
0.761845
0.758635
0.756772
0.754989
0.752264
0.745999
0.732196
0.716576
0.711895
0.711518
0.711436
0.712244
0.714478
0.717055
0.719777
0.723489
0.73036
0.745896
0.774411
0.797046
0.800199
0.799069
0.796698
0.793975
0.790265
0.781544
0.761028
0.73547
0.725736
0.724152
0.722492
0.71928
0.712617
0.699834
0.687823
0.684844
0.684979
0.685413
0.685705
0.686289
0.68808
0.692474
0.703215
0.721977
0.746898
0.769942
0.779449
0.780666
0.780884
0.780259
0.776199
0.765573
0.747892
0.725311
0.708371
0.700729
0.696533
0.694654
0.693292
0.690939
0.684969
0.6711
0.654498
0.648546
0.648522
0.649468
0.651508
0.65495
0.661696
0.67776
0.712095
0.753195
0.773953
0.778492
0.779177
0.778571
0.770273
0.739239
0.682603
0.648331
0.643371
0.643427
0.643032
0.63987
0.634992
0.63307
0.631616
0.629988
0.629082
0.629319
0.63032
0.632091
0.635591
0.644129
0.664439
0.703115
0.744691
0.761265
0.764508
0.765843
0.765725
0.762004
0.746202
0.703059
0.646339
0.623619
0.621053
0.620341
0.619615
0.617988
0.615751
1.00034
1.00025
1.00013
0.999459
0.997806
0.997038
0.996231
0.994284
0.990673
0.986569
0.984242
0.983268
0.98295
0.982283
0.980816
0.977654
0.971826
0.962075
0.951137
0.943953
0.940283
0.93764
0.935282
0.932024
0.928144
0.925507
0.924306
0.923635
0.923781
0.92758
0.935345
0.937439
0.935983
0.933558
0.930226
0.925268
0.919569
0.91551
0.913103
0.911552
0.910625
0.910337
0.912465
0.920426
0.926305
0.926122
0.925059
0.924335
0.923613
0.922589
0.919679
0.910942
0.896938
0.888056
0.885344
0.884472
0.884078
0.883866
0.883329
0.882912
0.882427
0.881385
0.879121
0.872875
0.859604
0.847314
0.844098
0.843515
0.84298
0.842212
0.841706
0.841741
0.843796
0.851753
0.872288
0.90254
0.91547
0.915006
0.913121
0.909991
0.902414
0.881374
0.845658
0.825302
0.821654
0.820935
0.820393
0.820328
0.822599
0.827564
0.829778
0.829918
0.828941
0.82505
0.814769
0.800265
0.794101
0.793491
0.793771
0.795747
0.799412
0.803801
0.810877
0.826143
0.852608
0.87097
0.872023
0.869632
0.865063
0.855108
0.833346
0.805314
0.794074
0.792365
0.791725
0.790762
0.789286
0.787196
0.784827
0.782477
0.779176
0.772607
0.75992
0.746742
0.743073
0.743286
0.745296
0.750093
0.756324
0.763502
0.772207
0.784752
0.804912
0.828249
0.837618
0.83745
0.836078
0.83306
0.825681
0.811198
0.790196
0.77055
0.760774
0.757655
0.75609
0.754357
0.750902
0.742331
0.726259
0.714806
0.713211
0.713106
0.713212
0.714222
0.716272
0.718516
0.720733
0.724536
0.733944
0.755871
0.786218
0.799187
0.799326
0.797572
0.79496
0.791671
0.785592
0.770745
0.744218
0.724897
0.720616
0.719309
0.717193
0.712536
0.704792
0.695344
0.688268
0.686336
0.686478
0.687244
0.688908
0.692194
0.698483
0.709122
0.723291
0.737323
0.751709
0.766149
0.773123
0.773409
0.772107
0.768765
0.762735
0.753878
0.741504
0.724176
0.706346
0.697891
0.695401
0.694016
0.691653
0.686028
0.673292
0.655723
0.648857
0.648869
0.649957
0.652031
0.654902
0.660375
0.675094
0.708058
0.755104
0.780774
0.783981
0.783488
0.780852
0.77046
0.73458
0.675662
0.647598
0.645583
0.64552
0.644938
0.641528
0.636052
0.63368
0.632199
0.63057
0.62958
0.62978
0.630903
0.633095
0.637264
0.646431
0.666342
0.70228
0.743394
0.763816
0.767596
0.768301
0.767676
0.763113
0.74538
0.696924
0.640518
0.623395
0.621986
0.621471
0.620763
0.618938
0.615787
0.997061
0.996898
0.997259
0.997348
0.995976
0.994345
0.993527
0.992268
0.989146
0.98547
0.983984
0.98317
0.982203
0.980903
0.979707
0.97788
0.972239
0.96094
0.948606
0.94146
0.939299
0.938934
0.938281
0.936674
0.934042
0.931463
0.930054
0.929499
0.930798
0.936772
0.940502
0.939366
0.93721
0.934935
0.931589
0.925085
0.916293
0.910726
0.908325
0.90685
0.905781
0.905226
0.905716
0.910772
0.922527
0.928362
0.927549
0.926333
0.925489
0.924521
0.922269
0.915954
0.902334
0.889235
0.88541
0.88464
0.884211
0.884039
0.885067
0.886065
0.88586
0.885099
0.883802
0.880826
0.872443
0.856614
0.844949
0.841691
0.840722
0.840136
0.839873
0.840034
0.840945
0.844261
0.855218
0.88033
0.905869
0.911333
0.910537
0.908749
0.904508
0.892555
0.863319
0.83126
0.820963
0.819419
0.818745
0.818373
0.819249
0.824447
0.831623
0.833902
0.833778
0.832377
0.827419
0.815431
0.801227
0.796514
0.796146
0.796623
0.79751
0.799228
0.802648
0.810076
0.826757
0.852707
0.866105
0.865777
0.86313
0.858286
0.847525
0.823655
0.798439
0.790522
0.789342
0.788776
0.788124
0.787084
0.786212
0.785366
0.783881
0.780883
0.77427
0.761712
0.75023
0.748104
0.748804
0.751088
0.754832
0.760397
0.767922
0.77677
0.78865
0.807133
0.826012
0.830661
0.829526
0.826646
0.821408
0.812727
0.80149
0.788985
0.77549
0.764131
0.758298
0.755575
0.753014
0.747937
0.736227
0.720809
0.714984
0.714596
0.714567
0.715018
0.716186
0.717438
0.718652
0.720758
0.726219
0.740495
0.768876
0.794662
0.799399
0.798348
0.795632
0.792352
0.78781
0.777468
0.755196
0.729725
0.718142
0.714725
0.712338
0.709757
0.707002
0.703542
0.698478
0.693164
0.691328
0.6914
0.692771
0.696334
0.703892
0.715736
0.726253
0.731388
0.735815
0.744457
0.758408
0.76559
0.765373
0.762766
0.75823
0.753133
0.74747
0.739318
0.725592
0.708746
0.697604
0.692017
0.688275
0.683491
0.674416
0.660881
0.65191
0.650759
0.651416
0.652874
0.655209
0.660691
0.675968
0.709583
0.749326
0.770821
0.77683
0.778035
0.777276
0.768377
0.73576
0.679342
0.649064
0.644965
0.644126
0.6436
0.642615
0.638586
0.635196
0.63343
0.631637
0.630334
0.630443
0.63192
0.635118
0.64042
0.650065
0.668815
0.703222
0.745864
0.766628
0.769095
0.769034
0.767692
0.762833
0.743975
0.695214
0.639523
0.621908
0.620294
0.619637
0.619068
0.61745
0.615117
0.995689
0.99536
0.99547
0.995815
0.99506
0.992322
0.990455
0.98994
0.989203
0.987148
0.985609
0.984508
0.98333
0.981829
0.979377
0.975705
0.969355
0.959075
0.948377
0.942237
0.939691
0.938373
0.937775
0.937706
0.937236
0.936256
0.935496
0.935798
0.939458
0.944148
0.943839
0.941957
0.940078
0.937701
0.932749
0.92264
0.911084
0.905707
0.903979
0.90286
0.902006
0.901447
0.90126
0.90291
0.910392
0.921918
0.925442
0.924778
0.923787
0.922878
0.921699
0.918468
0.909687
0.895675
0.887449
0.885836
0.885345
0.885048
0.885333
0.887487
0.889387
0.889516
0.888678
0.886814
0.88161
0.867571
0.848775
0.841788
0.840706
0.839698
0.838674
0.837885
0.837545
0.83827
0.843939
0.861086
0.889975
0.906835
0.907858
0.906824
0.904689
0.897859
0.878973
0.844682
0.822531
0.818489
0.817761
0.817347
0.817815
0.823589
0.833529
0.837924
0.838502
0.838243
0.836323
0.830149
0.816125
0.801004
0.796436
0.795957
0.795988
0.796622
0.797934
0.800955
0.808672
0.826653
0.851636
0.861294
0.860702
0.858759
0.853068
0.838086
0.809967
0.791194
0.787892
0.787262
0.786643
0.786359
0.787726
0.788893
0.788303
0.786843
0.78388
0.77697
0.764032
0.75406
0.752653
0.753199
0.755527
0.759941
0.766019
0.771811
0.777403
0.786435
0.803403
0.819904
0.82231
0.820157
0.815422
0.809492
0.804033
0.799139
0.792634
0.781989
0.768658
0.759272
0.754471
0.750163
0.742439
0.728688
0.71859
0.717105
0.716912
0.716789
0.716834
0.717113
0.717568
0.718279
0.72088
0.72949
0.750769
0.782934
0.799542
0.799945
0.797688
0.794501
0.790092
0.781643
0.762924
0.734808
0.715805
0.710599
0.709373
0.70834
0.707597
0.706907
0.70504
0.70144
0.698525
0.698074
0.699356
0.703564
0.712201
0.721409
0.724387
0.724808
0.725254
0.727815
0.736679
0.75155
0.758353
0.757817
0.755281
0.75244
0.750343
0.746992
0.73917
0.72394
0.705287
0.692359
0.684958
0.678989
0.671858
0.663582
0.657474
0.655316
0.65533
0.656272
0.658571
0.664441
0.681291
0.716166
0.75064
0.762191
0.764835
0.765751
0.765083
0.758008
0.733709
0.690371
0.656277
0.646722
0.64485
0.643586
0.641834
0.638965
0.636938
0.635529
0.634113
0.632315
0.631898
0.632915
0.635935
0.641974
0.65348
0.674808
0.709644
0.74471
0.759434
0.762286
0.762995
0.762369
0.7582
0.742056
0.697795
0.641361
0.621807
0.619767
0.618817
0.617973
0.616577
0.614822
0.995506
0.994549
0.993552
0.993036
0.99229
0.990631
0.989111
0.987515
0.985813
0.984089
0.982567
0.981098
0.979579
0.978013
0.976008
0.972466
0.966067
0.957031
0.949087
0.944636
0.942184
0.940604
0.939707
0.939238
0.939046
0.939646
0.941666
0.945905
0.949843
0.949373
0.946963
0.944257
0.941486
0.937901
0.931986
0.921003
0.907453
0.902147
0.901004
0.900236
0.899479
0.898809
0.898285
0.898285
0.901096
0.911313
0.922687
0.92428
0.923424
0.922471
0.921564
0.919856
0.915421
0.905445
0.892722
0.887411
0.886591
0.886213
0.886451
0.889013
0.891298
0.891407
0.890615
0.889377
0.886503
0.87776
0.859381
0.843051
0.837883
0.836599
0.835626
0.835087
0.834859
0.835265
0.838569
0.848963
0.871832
0.897254
0.903975
0.903267
0.901282
0.897369
0.887241
0.863855
0.832161
0.81927
0.817814
0.817409
0.817356
0.820063
0.829591
0.839705
0.843243
0.843703
0.84329
0.840721
0.832658
0.815405
0.799277
0.794497
0.794078
0.793562
0.793455
0.794344
0.797616
0.80695
0.827723
0.851116
0.857099
0.85624
0.853687
0.84517
0.823846
0.797087
0.787443
0.786079
0.785437
0.784864
0.785971
0.790928
0.7938
0.793439
0.791759
0.788059
0.779493
0.765791
0.758029
0.757333
0.758167
0.761297
0.765062
0.767226
0.768817
0.771521
0.779176
0.796305
0.811733
0.813257
0.811362
0.808491
0.806552
0.805108
0.802479
0.796531
0.785246
0.771232
0.761037
0.754808
0.748042
0.736184
0.72122
0.714998
0.714591
0.714538
0.714703
0.715057
0.715367
0.715801
0.717373
0.722881
0.737221
0.764938
0.791012
0.796899
0.795934
0.793546
0.79047
0.783969
0.767556
0.738036
0.715637
0.709793
0.708691
0.708584
0.709128
0.709568
0.709489
0.708838
0.707486
0.706796
0.708115
0.71269
0.718231
0.719557
0.719141
0.717965
0.716748
0.716488
0.719079
0.729485
0.746718
0.7545
0.754285
0.753453
0.752724
0.751026
0.745933
0.734707
0.716549
0.69704
0.682801
0.673731
0.66761
0.663499
0.661564
0.66043
0.659572
0.659851
0.662101
0.669166
0.688871
0.726007
0.750564
0.753568
0.754031
0.753705
0.750732
0.742437
0.724258
0.695451
0.670308
0.655843
0.648375
0.644644
0.641518
0.63921
0.638111
0.637222
0.636231
0.635112
0.634909
0.63593
0.638556
0.64377
0.655532
0.680965
0.72018
0.748405
0.754457
0.755757
0.756398
0.755301
0.750978
0.7379
0.70338
0.649758
0.622805
0.619575
0.618412
0.617009
0.615626
0.614761
0.995435
0.992857
0.991804
0.991073
0.990728
0.990028
0.988336
0.986282
0.984558
0.983215
0.982029
0.980712
0.979119
0.977102
0.974413
0.969709
0.961752
0.952906
0.948358
0.946735
0.945703
0.944773
0.943973
0.943364
0.943363
0.945364
0.950825
0.955847
0.955754
0.953529
0.95038
0.9468
0.942937
0.938514
0.932114
0.921111
0.907206
0.900197
0.898941
0.898109
0.897099
0.89608
0.895253
0.894637
0.894922
0.899797
0.913279
0.923025
0.923264
0.922559
0.92188
0.921238
0.919545
0.914781
0.904509
0.892855
0.888838
0.888389
0.888534
0.89004
0.892178
0.89251
0.891691
0.890634
0.889146
0.884582
0.870125
0.847783
0.836179
0.834255
0.833836
0.833514
0.833321
0.833563
0.835474
0.841001
0.854556
0.879123
0.896926
0.898313
0.896712
0.893952
0.888998
0.877499
0.853771
0.827295
0.818843
0.817956
0.817665
0.819302
0.828098
0.840921
0.847096
0.848232
0.848174
0.84711
0.843217
0.831584
0.809636
0.79445
0.791116
0.790433
0.789689
0.789447
0.790573
0.795203
0.807363
0.830395
0.849049
0.851419
0.850209
0.846005
0.833783
0.809576
0.789839
0.786015
0.785311
0.784829
0.78584
0.792186
0.798281
0.798736
0.797845
0.795824
0.791167
0.781191
0.768728
0.763488
0.763163
0.763442
0.763012
0.761979
0.760821
0.760205
0.761483
0.769556
0.78837
0.806232
0.809527
0.809245
0.809102
0.808531
0.806925
0.803408
0.796923
0.786839
0.774931
0.764573
0.755071
0.741947
0.724259
0.714871
0.713938
0.713833
0.713782
0.713859
0.714112
0.714532
0.715711
0.719166
0.728173
0.748714
0.778402
0.793571
0.794358
0.792769
0.79017
0.785319
0.771743
0.742204
0.715851
0.709781
0.709514
0.709762
0.71127
0.713206
0.714088
0.714524
0.715145
0.717039
0.720757
0.722196
0.721251
0.718524
0.714802
0.710544
0.707474
0.706394
0.706737
0.711627
0.726789
0.747816
0.755296
0.755634
0.755251
0.754127
0.750801
0.742512
0.725977
0.701814
0.680447
0.669903
0.666496
0.665859
0.666097
0.666975
0.667673
0.668538
0.670968
0.678382
0.696384
0.724693
0.743168
0.744417
0.743307
0.741515
0.736875
0.726976
0.710659
0.691958
0.67879
0.669665
0.659678
0.64926
0.642422
0.640297
0.639334
0.638259
0.636869
0.636542
0.637348
0.639134
0.641983
0.647332
0.66042
0.689517
0.728539
0.746223
0.747801
0.747884
0.747434
0.745327
0.740682
0.730321
0.706721
0.664707
0.62892
0.619799
0.617832
0.616211
0.614473
0.614545
0.994883
0.992897
0.991504
0.989562
0.987701
0.986887
0.986661
0.98684
0.985739
0.98445
0.983455
0.982238
0.98051
0.977833
0.97317
0.965773
0.95707
0.951125
0.948542
0.947623
0.947076
0.946772
0.946599
0.946785
0.948661
0.953773
0.9593
0.959816
0.958087
0.955527
0.952169
0.948058
0.943949
0.939753
0.934003
0.924155
0.909552
0.898324
0.895783
0.894928
0.893974
0.892914
0.891949
0.89113
0.890667
0.892066
0.89976
0.914758
0.923729
0.923836
0.923027
0.922145
0.921275
0.919636
0.914819
0.904163
0.894218
0.891612
0.891306
0.892044
0.894685
0.895773
0.895229
0.894036
0.892412
0.888843
0.878688
0.856607
0.837317
0.833049
0.832641
0.832221
0.832075
0.832621
0.834121
0.836671
0.842634
0.857606
0.881476
0.892854
0.892482
0.890253
0.887167
0.881562
0.869855
0.847799
0.826547
0.821016
0.820563
0.821333
0.8267
0.839356
0.849668
0.851773
0.851944
0.851655
0.849957
0.844037
0.827383
0.80229
0.7892
0.786986
0.786211
0.785756
0.786038
0.788368
0.794841
0.809287
0.831166
0.843539
0.844152
0.842437
0.836869
0.823129
0.801352
0.788016
0.786035
0.785679
0.786639
0.793062
0.801734
0.804412
0.804389
0.803563
0.801218
0.795918
0.786088
0.774059
0.766092
0.762201
0.759625
0.756145
0.751871
0.749045
0.748267
0.750343
0.762413
0.788361
0.808884
0.812227
0.812117
0.811748
0.81057
0.808384
0.805068
0.799422
0.789892
0.777357
0.764037
0.748832
0.730231
0.716713
0.713825
0.713615
0.713445
0.713364
0.713457
0.713617
0.713957
0.715655
0.721197
0.735584
0.762784
0.786239
0.790786
0.790101
0.788162
0.784181
0.773317
0.74844
0.720094
0.711714
0.711236
0.711191
0.711729
0.714276
0.717739
0.720543
0.724304
0.729899
0.732148
0.730759
0.72606
0.719008
0.710267
0.702682
0.698854
0.697517
0.69725
0.699137
0.70837
0.73018
0.753015
0.758981
0.759567
0.758901
0.755999
0.747908
0.730242
0.703339
0.679908
0.671313
0.669538
0.668921
0.668861
0.669897
0.672324
0.67589
0.682075
0.69438
0.712529
0.726334
0.731766
0.732277
0.73071
0.728099
0.723197
0.713331
0.699008
0.687475
0.682477
0.67872
0.671172
0.65708
0.646116
0.64337
0.642274
0.641125
0.639943
0.639383
0.639887
0.641729
0.645221
0.652145
0.668346
0.699632
0.730266
0.740681
0.741263
0.74057
0.738405
0.734597
0.729001
0.720461
0.705135
0.677819
0.64176
0.621782
0.617848
0.616216
0.614733
0.615046
0.995868
0.993319
0.9903
0.988107
0.986209
0.984658
0.98364
0.982663
0.981371
0.979977
0.9787
0.977474
0.976042
0.973832
0.969018
0.96003
0.953167
0.951126
0.950413
0.94963
0.949203
0.949063
0.949398
0.951449
0.956391
0.961998
0.962966