/*--------------------------------*- C++ -*----------------------------------*\
  =========                 |
  \\      /  F ield         | OpenFOAM: The Open Source CFD Toolbox
   \\    /   O peration     | Website:  https://openfoam.org
    \\  /    A nd           | Version:  7
     \\/     M anipulation  |
\*---------------------------------------------------------------------------*/
FoamFile
{
    version     2.0;
    format      ascii;
    class       volScalarField;
    location    "54.000058";
    object      p;
}
// * * * * * * * * * * * * * * * * * * * * * * * * * * * * * * * * * * * * * //

dimensions      [0 2 -2 0 0 0 0];

internalField   nonuniform List<scalar> 
5800
(
-0.217533
-0.218271
-0.218824
-0.219193
-0.219377
-0.000665231
-0.00129059
-0.00191568
-0.00253972
-0.00316189
-0.00378132
-0.00439712
-0.00500832
-0.00561394
-0.00621294
-0.00680424
-0.00738672
-0.00795923
-0.00852059
-0.00906957
-0.00960491
-0.0101253
-0.0106296
-0.0111163
-0.0115841
-0.0120317
-0.0124578
-0.012861
-0.01324
-0.0135934
-0.0139199
-0.0142184
-0.0144875
-0.0147261
-0.014933
-0.0151071
-0.0152474
-0.015353
-0.0154231
-0.0154567
-0.0154533
-0.0154122
-0.0153329
-0.0152151
-0.0150585
-0.0148629
-0.0146282
-0.0143545
-0.0140419
-0.0136908
-0.0133015
-0.0128745
-0.0124104
-0.0119098
-0.0113735
-0.0108023
-0.0101972
-0.00955896
-0.00888873
-0.00818743
-0.00745632
-0.00669602
-0.00590885
-0.00509292
-0.00425683
-0.00338382
-0.00251731
-0.00155717
-0.000713334
-0.000754755
-0.00138144
-0.0020078
-0.00263303
-0.00325631
-0.00387677
-0.00449349
-0.00510552
-0.00571184
-0.00631143
-0.00690318
-0.00748599
-0.0080587
-0.0086201
-0.00916898
-0.00970408
-0.0102241
-0.0107278
-0.0112138
-0.0116807
-0.0121273
-0.0125522
-0.0129541
-0.0133315
-0.0136833
-0.0140081
-0.0143046
-0.0145716
-0.014808
-0.0150125
-0.0151842
-0.015322
-0.015425
-0.0154922
-0.0155231
-0.0155168
-0.0154727
-0.0153905
-0.0152697
-0.0151101
-0.0149114
-0.0146738
-0.0143971
-0.0140816
-0.0137276
-0.0133355
-0.0129058
-0.012439
-0.0119358
-0.0113971
-0.0108236
-0.0102162
-0.00957584
-0.00890362
-0.00820045
-0.00746761
-0.00670564
-0.00591703
-0.0050995
-0.00426247
-0.00338719
-0.00252135
-0.00155489
-0.000720466
-0.000928572
-0.00155803
-0.00218699
-0.00281465
-0.00344018
-0.00406268
-0.00468124
-0.00529487
-0.00590258
-0.0065033
-0.00709595
-0.00767938
-0.00825244
-0.00881393
-0.0093626
-0.0098972
-0.0104164
-0.010919
-0.0114036
-0.0118688
-0.0123134
-0.012736
-0.0131352
-0.0135097
-0.0138582
-0.0141795
-0.0144722
-0.0147352
-0.0149672
-0.0151672
-0.0153341
-0.0154669
-0.0155647
-0.0156266
-0.015652
-0.01564
-0.0155903
-0.0155023
-0.0153757
-0.0152102
-0.0150057
-0.0147621
-0.0144797
-0.0141585
-0.0137989
-0.0134014
-0.0129663
-0.0124944
-0.0119862
-0.0114427
-0.0108646
-0.0102529
-0.0096085
-0.00893242
-0.00822563
-0.00748941
-0.00672428
-0.00593276
-0.00511239
-0.004273
-0.00339479
-0.00252766
-0.00155706
-0.000726037
-0.00118373
-0.00181717
-0.00244987
-0.00308102
-0.00370977
-0.00433521
-0.0049564
-0.00557234
-0.00618202
-0.00678436
-0.00737826
-0.00796256
-0.0085361
-0.00909764
-0.00964596
-0.0101798
-0.0106978
-0.0111987
-0.0116812
-0.0121438
-0.0125854
-0.0130045
-0.0133998
-0.01377
-0.0141137
-0.0144298
-0.0147169
-0.0149739
-0.0151996
-0.0153928
-0.0155527
-0.0156782
-0.0157683
-0.0158224
-0.0158397
-0.0158196
-0.0157615
-0.015665
-0.0155298
-0.0153557
-0.0151426
-0.0148906
-0.0145997
-0.0142702
-0.0139025
-0.0134969
-0.0130541
-0.0125747
-0.0120593
-0.0115088
-0.0109241
-0.0103061
-0.00965575
-0.00897407
-0.00826202
-0.00752091
-0.00675118
-0.00595546
-0.00513103
-0.00428815
-0.00340603
-0.00253661
-0.00156115
-0.000731411
-0.0015171
-0.00215572
-0.00279328
-0.00342896
-0.00406188
-0.00469111
-0.00531567
-0.00593457
-0.00654676
-0.00715114
-0.00774659
-0.00833194
-0.00890601
-0.00946755
-0.0100153
-0.010548
-0.0110643
-0.011563
-0.0120426
-0.0125018
-0.0129394
-0.0133539
-0.013744
-0.0141084
-0.0144458
-0.014755
-0.0150348
-0.0152839
-0.0155012
-0.0156856
-0.0158363
-0.0159521
-0.0160323
-0.0160762
-0.0160829
-0.016052
-0.015983
-0.0158754
-0.0157291
-0.0155439
-0.0153196
-0.0150565
-0.0147547
-0.0144144
-0.014036
-0.0136201
-0.0131672
-0.012678
-0.0121533
-0.0115939
-0.0110006
-0.0103744
-0.00971637
-0.00902747
-0.00830865
-0.00756124
-0.00678562
-0.00598449
-0.00515489
-0.00430751
-0.00342048
-0.00254794
-0.00156651
-0.000737319
-0.00192673
-0.00257163
-0.00321506
-0.00385621
-0.00449414
-0.0051279
-0.0057565
-0.00637891
-0.00699405
-0.00760081
-0.00819804
-0.00878456
-0.00935914
-0.00992054
-0.0104675
-0.0109987
-0.0115128
-0.0120085
-0.0124845
-0.0129394
-0.0133719
-0.0137806
-0.0141642
-0.0145214
-0.014851
-0.0151517
-0.0154222
-0.0156616
-0.0158685
-0.0160421
-0.0161813
-0.0162853
-0.0163533
-0.0163845
-0.0163783
-0.0163342
-0.0162518
-0.0161307
-0.0159707
-0.0157718
-0.015534
-0.0152573
-0.014942
-0.0145886
-0.0141973
-0.0137688
-0.0133036
-0.0128026
-0.0122665
-0.0116962
-0.0110925
-0.0104565
-0.00978915
-0.00909152
-0.00836453
-0.00760952
-0.00682681
-0.00601918
-0.00518339
-0.00433061
-0.00343777
-0.00256135
-0.00157304
-0.00074386
-0.00241106
-0.00306325
-0.0037135
-0.00436096
-0.00500468
-0.00564365
-0.00627686
-0.00690325
-0.00752172
-0.00813112
-0.00873027
-0.00931797
-0.00989298
-0.010454
-0.0109998
-0.011529
-0.0120403
-0.0125324
-0.0130039
-0.0134535
-0.0138798
-0.0142815
-0.0146572
-0.0150058
-0.015326
-0.0156164
-0.015876
-0.0161037
-0.0162983
-0.016459
-0.0165847
-0.0166746
-0.0167281
-0.0167443
-0.0167228
-0.0166631
-0.0165649
-0.0164278
-0.0162518
-0.0160368
-0.0157829
-0.0154904
-0.0151595
-0.0147905
-0.0143841
-0.0139409
-0.0134614
-0.0129466
-0.0123972
-0.0118142
-0.0111984
-0.010551
-0.00987284
-0.00916509
-0.00842865
-0.00766485
-0.00687397
-0.00605885
-0.00521596
-0.00435697
-0.00345754
-0.00257659
-0.0015806
-0.000750992
-0.0029691
-0.00362952
-0.00428743
-0.00494198
-0.00559216
-0.00623693
-0.00687525
-0.007506
-0.00812807
-0.00874027
-0.0093414
-0.00993022
-0.0105055
-0.0110658
-0.01161
-0.0121367
-0.0126446
-0.0131322
-0.0135983
-0.0140415
-0.0144604
-0.0148538
-0.0152204
-0.0155588
-0.0158678
-0.0161464
-0.0163932
-0.0166073
-0.0167876
-0.0169332
-0.0170433
-0.0171169
-0.0171536
-0.0171526
-0.0171135
-0.0170359
-0.0169194
-0.0167641
-0.0165697
-0.0163363
-0.0160641
-0.0157534
-0.0154045
-0.015018
-0.0145944
-0.0141344
-0.0136387
-0.0131082
-0.0125437
-0.0119463
-0.0113169
-0.0106565
-0.00996619
-0.00924705
-0.00849998
-0.00772634
-0.00692631
-0.00610282
-0.00525202
-0.00438612
-0.00347939
-0.0025934
-0.00158901
-0.000758665
-0.00360027
-0.00426977
-0.00493613
-0.00559846
-0.00625569
-0.00690676
-0.00755056
-0.00818597
-0.00881182
-0.00942689
-0.01003
-0.0106197
-0.0111949
-0.0117543
-0.0122963
-0.0128199
-0.0133234
-0.0138057
-0.0142654
-0.0147011
-0.0151114
-0.0154951
-0.015851
-0.0161776
-0.0164739
-0.0167387
-0.0169709
-0.0171695
-0.0173335
-0.017462
-0.0175542
-0.0176094
-0.0176271
-0.0176066
-0.0175475
-0.0174497
-0.0173128
-0.0171368
-0.0169217
-0.0166676
-0.0163749
-0.0160439
-0.015675
-0.0152688
-0.0148259
-0.0143472
-0.0138334
-0.0132855
-0.0127043
-0.0120909
-0.0114464
-0.0107717
-0.010068
-0.00933628
-0.00857752
-0.00779307
-0.00698302
-0.0061504
-0.00529099
-0.00441758
-0.00350296
-0.0026115
-0.00159809
-0.000766826
-0.00430441
-0.00498376
-0.00565925
-0.00632995
-0.00699474
-0.0076525
-0.0083021
-0.00894236
-0.00957206
-0.01019
-0.0107948
-0.0113853
-0.01196
-0.0125178
-0.0130571
-0.0135767
-0.0140752
-0.0145511
-0.0150032
-0.0154302
-0.0158306
-0.0162032
-0.0165467
-0.01686
-0.0171418
-0.017391
-0.0176067
-0.0177877
-0.0179333
-0.0180426
-0.0181148
-0.0181494
-0.0181457
-0.0181035
-0.0180223
-0.0179019
-0.0177422
-0.0175433
-0.0173053
-0.0170285
-0.016713
-0.0163595
-0.0159685
-0.0155407
-0.0150767
-0.0145775
-0.0140439
-0.0134768
-0.0128774
-0.0122466
-0.0115855
-0.0108953
-0.010177
-0.00943167
-0.00866027
-0.00786416
-0.00704333
-0.00620091
-0.00533228
-0.00445089
-0.00352787
-0.00263063
-0.00160767
-0.00077542
-0.00508166
-0.00577157
-0.00645679
-0.00713636
-0.00780912
-0.00847388
-0.00912947
-0.00977465
-0.0104082
-0.0110288
-0.0116351
-0.0122259
-0.0127997
-0.0133553
-0.0138911
-0.0144059
-0.0148982
-0.0153668
-0.0158101
-0.016227
-0.016616
-0.0169759
-0.0173055
-0.0176036
-0.0178691
-0.0181009
-0.018298
-0.0184595
-0.0185845
-0.0186724
-0.0187225
-0.0187341
-0.018707
-0.0186407
-0.018535
-0.0183899
-0.0182053
-0.0179813
-0.0177182
-0.0174163
-0.0170761
-0.0166981
-0.016283
-0.0158316
-0.0153447
-0.0148232
-0.0142681
-0.0136804
-0.0130613
-0.0124117
-0.0117329
-0.011026
-0.010292
-0.00953213
-0.00874725
-0.00793872
-0.00710645
-0.00625368
-0.00537535
-0.00448557
-0.00355377
-0.00265054
-0.00161759
-0.000784392
-0.0059325
-0.00663357
-0.00732903
-0.0080179
-0.00869893
-0.00937089
-0.0100325
-0.0106826
-0.0113199
-0.0119429
-0.0125504
-0.0131409
-0.0137132
-0.0142658
-0.0147973
-0.0153062
-0.0157914
-0.0162512
-0.0166845
-0.0170898
-0.0174659
-0.0178115
-0.0181254
-0.0184065
-0.0186538
-0.0188661
-0.0190426
-0.0191824
-0.0192848
-0.0193491
-0.0193747
-0.0193613
-0.0193083
-0.0192158
-0.0190834
-0.0189112
-0.0186994
-0.0184481
-0.0181578
-0.0178288
-0.0174618
-0.0170574
-0.0166164
-0.0161396
-0.015628
-0.0150826
-0.0145044
-0.0138947
-0.0132544
-0.0125848
-0.0118871
-0.0111624
-0.0104119
-0.0096366
-0.00883748
-0.0080159
-0.00717164
-0.00630805
-0.00541961
-0.00452118
-0.00358028
-0.00267097
-0.0016277
-0.000793693
-0.00685766
-0.00757041
-0.00827653
-0.00897501
-0.00966452
-0.0103438
-0.0110115
-0.0116663
-0.012307
-0.012932
-0.0135401
-0.0141299
-0.0146998
-0.0152485
-0.0157747
-0.0162767
-0.0167534
-0.0172032
-0.0176249
-0.0180171
-0.0183786
-0.0187081
-0.0190045
-0.0192667
-0.0194937
-0.0196845
-0.0198383
-0.0199542
-0.0200317
-0.0200702
-0.0200691
-0.0200283
-0.0199473
-0.0198262
-0.0196648
-0.0194634
-0.0192222
-0.0189415
-0.0186218
-0.0182637
-0.0178679
-0.0174352
-0.0169664
-0.0164625
-0.0159246
-0.0153537
-0.0147511
-0.0141179
-0.0134553
-0.0127645
-0.0120468
-0.0113034
-0.0105354
-0.00974402
-0.00893003
-0.00809485
-0.00723814
-0.00636338
-0.00546453
-0.00455727
-0.00360706
-0.00269167
-0.00163782
-0.000803275
-0.00785812
-0.00858297
-0.00930008
-0.0100084
-0.0107065
-0.011393
-0.0120666
-0.0127259
-0.0133696
-0.0139962
-0.0146043
-0.0151924
-0.0157591
-0.016303
-0.0168226
-0.0173165
-0.0177833
-0.0182216
-0.0186301
-0.0190075
-0.0193526
-0.0196641
-0.019941
-0.0201823
-0.0203869
-0.020554
-0.0206829
-0.0207728
-0.0208231
-0.0208334
-0.0208034
-0.0207328
-0.0206215
-0.0204695
-0.020277
-0.0200441
-0.0197713
-0.0194591
-0.019108
-0.0187188
-0.0182923
-0.0178294
-0.0173311
-0.0167985
-0.0162327
-0.0156349
-0.0150064
-0.0143484
-0.0136623
-0.0129493
-0.0122107
-0.0114478
-0.0106616
-0.0098534
-0.00902398
-0.00817476
-0.00730523
-0.00641905
-0.00550959
-0.00459341
-0.00363378
-0.00271243
-0.00164782
-0.000813103
-0.00893507
-0.00967235
-0.0104007
-0.0111189
-0.0118255
-0.0125192
-0.0131984
-0.0138618
-0.014508
-0.0151355
-0.0157427
-0.0163283
-0.0168908
-0.0174286
-0.0179404
-0.0184247
-0.0188801
-0.0193053
-0.0196989
-0.0200597
-0.0203864
-0.020678
-0.0209334
-0.0211515
-0.0213316
-0.0214728
-0.0215744
-0.0216359
-0.0216567
-0.0216366
-0.0215752
-0.0214726
-0.0213286
-0.0211435
-0.0209175
-0.020651
-0.0203445
-0.0199987
-0.0196142
-0.019192
-0.0187329
-0.018238
-0.0177085
-0.0171455
-0.0165504
-0.0159243
-0.0152686
-0.0145848
-0.0138741
-0.0131379
-0.0123775
-0.0115943
-0.0107893
-0.00996374
-0.00911844
-0.00825483
-0.00737222
-0.00647445
-0.00555426
-0.00462919
-0.00366011
-0.002733
-0.00165755
-0.000823148
-0.0100899
-0.0108398
-0.0115794
-0.0123076
-0.0130226
-0.0137231
-0.0144076
-0.0150746
-0.0157226
-0.0163501
-0.0169556
-0.0175376
-0.0180946
-0.0186251
-0.0191276
-0.0196008
-0.0200432
-0.0204534
-0.0208302
-0.0211724
-0.0214788
-0.0217483
-0.0219799
-0.0221727
-0.0223259
-0.0224388
-0.0225108
-0.0225415
-0.0225304
-0.0224774
-0.0223824
-0.0222453
-0.0220664
-0.0218459
-0.0215842
-0.0212818
-0.0209395
-0.020558
-0.0201382
-0.019681
-0.0191875
-0.0186591
-0.0180967
-0.0175019
-0.016876
-0.0162203
-0.0155363
-0.0148255
-0.0140892
-0.0133289
-0.012546
-0.0117418
-0.0109174
-0.0100741
-0.00921257
-0.00833431
-0.00743844
-0.00652901
-0.00559806
-0.00466421
-0.00368572
-0.0027532
-0.00166687
-0.000833395
-0.0113241
-0.0120868
-0.0128378
-0.0135756
-0.0142988
-0.0150058
-0.0156949
-0.0163648
-0.0170138
-0.0176404
-0.0182431
-0.0188203
-0.0193704
-0.0198921
-0.0203838
-0.0208441
-0.0212716
-0.021665
-0.022023
-0.0223445
-0.0226283
-0.0228734
-0.0230789
-0.023244
-0.0233679
-0.0234501
-0.0234901
-0.0234875
-0.0234421
-0.0233538
-0.0232227
-0.0230488
-0.0228325
-0.0225743
-0.0222747
-0.0219343
-0.0215541
-0.0211349
-0.0206778
-0.0201838
-0.0196543
-0.0190905
-0.0184939
-0.0178658
-0.0172077
-0.0165212
-0.0158078
-0.015069
-0.0143063
-0.0135212
-0.0127151
-0.0118893
-0.0110451
-0.0101836
-0.00930555
-0.00841246
-0.00750325
-0.00658216
-0.00564052
-0.00469808
-0.00371033
-0.00277281
-0.00167564
-0.000843842
-0.0126395
-0.013415
-0.0141771
-0.0149244
-0.0156554
-0.0163682
-0.0170613
-0.0177332
-0.0183822
-0.0190068
-0.0196054
-0.0201764
-0.0207182
-0.0212294
-0.0217085
-0.022154
-0.0225646
-0.0229391
-0.0232761
-0.0235746
-0.0238335
-0.0240519
-0.0242289
-0.0243638
-0.024456
-0.0245049
-0.0245103
-0.024472
-0.0243897
-0.0242636
-0.0240938
-0.0238808
-0.0236248
-0.0233266
-0.0229868
-0.0226063
-0.0221861
-0.0217273
-0.0212309
-0.0206984
-0.0201312
-0.0195305
-0.0188981
-0.0182354
-0.017544
-0.0168255
-0.0160817
-0.015314
-0.0145241
-0.0137134
-0.0128835
-0.0120357
-0.0111712
-0.0102913
-0.00939659
-0.00848858
-0.00756602
-0.00663339
-0.00568118
-0.00473046
-0.00373365
-0.00279166
-0.00168375
-0.000854506
-0.0140378
-0.014826
-0.0155989
-0.0163554
-0.0170935
-0.0178115
-0.0185077
-0.0191806
-0.0198285
-0.0204498
-0.0210428
-0.021606
-0.0221378
-0.0226367
-0.0231012
-0.02353
-0.0239216
-0.0242748
-0.0245886
-0.0248617
-0.0250932
-0.0252823
-0.0254283
-0.0255304
-0.0255881
-0.0256013
-0.0255695
-0.0254927
-0.025371
-0.0252046
-0.0249938
-0.0247391
-0.0244411
-0.0241006
-0.0237184
-0.0232957
-0.0228334
-0.022333
-0.0217957
-0.0212229
-0.0206163
-0.0199773
-0.0193077
-0.018609
-0.0178832
-0.0171317
-0.0163565
-0.0155591
-0.0147412
-0.0139044
-0.0130502
-0.01218
-0.011295
-0.0103965
-0.00948495
-0.00856202
-0.00762617
-0.00668217
-0.00571962
-0.004761
-0.0037554
-0.00280959
-0.00169108
-0.00086542
-0.0155211
-0.0163216
-0.0171051
-0.01787
-0.0186146
-0.0193369
-0.0200352
-0.020708
-0.0213534
-0.0219699
-0.0225558
-0.0231094
-0.0236293
-0.0241139
-0.0245617
-0.0249714
-0.0253417
-0.0256713
-0.0259593
-0.0262045
-0.026406
-0.0265632
-0.0266754
-0.026742
-0.0267627
-0.0267372
-0.0266656
-0.0265478
-0.026384
-0.0261747
-0.0259203
-0.0256215
-0.0252791
-0.024894
-0.0244673
-0.0240002
-0.0234939
-0.02295
-0.0223699
-0.0217553
-0.0211077
-0.0204289
-0.0197208
-0.0189851
-0.0182237
-0.0174383
-0.0166309
-0.015803
-0.0149566
-0.0140931
-0.0132142
-0.0123213
-0.0114156
-0.0104983
-0.00956992
-0.00863214
-0.00768314
-0.00672804
-0.00575542
-0.00478938
-0.00377531
-0.00282644
-0.0016975
-0.000876641
-0.0170913
-0.0179038
-0.0186972
-0.01947
-0.0202201
-0.0209456
-0.0216448
-0.0223161
-0.0229576
-0.0235676
-0.0241445
-0.0246867
-0.0251925
-0.0256606
-0.0260894
-0.0264777
-0.0268241
-0.0271276
-0.0273871
-0.0276016
-0.0277705
-0.027893
-0.0279686
-0.0279969
-0.0279777
-0.0279109
-0.0277966
-0.0276351
-0.0274266
-0.0271718
-0.0268713
-0.0265259
-0.0261367
-0.0257048
-0.0252314
-0.0247178
-0.0241656
-0.0235764
-0.0229518
-0.0222936
-0.0216037
-0.0208838
-0.020136
-0.0193621
-0.0185641
-0.0177439
-0.0169035
-0.0160446
-0.015169
-0.0142785
-0.0133745
-0.0124587
-0.011532
-0.010596
-0.00965083
-0.00869835
-0.00773641
-0.00677054
-0.00578819
-0.00481528
-0.00379315
-0.00284209
-0.0017029
-0.000888248
-0.0187507
-0.0195746
-0.0203772
-0.0211569
-0.0219114
-0.022639
-0.0233377
-0.0240059
-0.0246417
-0.0252434
-0.0258093
-0.0263378
-0.0268274
-0.0272766
-0.0276839
-0.0280481
-0.0283681
-0.0286426
-0.0288709
-0.0290519
-0.0291852
-0.0292701
-0.0293062
-0.0292933
-0.0292313
-0.0291203
-0.0289606
-0.0287525
-0.0284966
-0.0281937
-0.0278445
-0.0274501
-0.0270118
-0.0265308
-0.0260085
-0.0254465
-0.0248464
-0.0242101
-0.0235394
-0.0228362
-0.0221024
-0.0213402
-0.0205515
-0.0197384
-0.0189029
-0.0180471
-0.017173
-0.0162825
-0.0153774
-0.0144594
-0.0135302
-0.0125912
-0.0116437
-0.0106888
-0.00972705
-0.00876008
-0.00778549
-0.00680924
-0.00581758
-0.00483843
-0.00380867
-0.00285641
-0.00170716
-0.000900344
-0.0205015
-0.021336
-0.0221469
-0.0229324
-0.0236902
-0.0244183
-0.0251149
-0.0257782
-0.0264064
-0.0269977
-0.0275504
-0.028063
-0.0285338
-0.0289615
-0.0293447
-0.0296821
-0.0299727
-0.0302154
-0.0304094
-0.030554
-0.0306486
-0.0306928
-0.0306864
-0.0306293
-0.0305216
-0.0303635
-0.0301554
-0.029898
-0.0295919
-0.0292382
-0.0288378
-0.028392
-0.0279022
-0.0273698
-0.0267966
-0.0261841
-0.0255344
-0.0248493
-0.0241308
-0.0233811
-0.0226022
-0.0217964
-0.0209658
-0.0201125
-0.0192388
-0.0183467
-0.0174384
-0.0165158
-0.0155807
-0.0146351
-0.0136804
-0.0127182
-0.0117498
-0.0107763
-0.009798
-0.00881681
-0.00782991
-0.00684376
-0.00584323
-0.00485856
-0.00382164
-0.0028693
-0.00171019
-0.000913056
-0.0223458
-0.0231902
-0.0240083
-0.0247983
-0.0255578
-0.0262849
-0.0269776
-0.027634
-0.0282524
-0.028831
-0.0293682
-0.0298622
-0.0303116
-0.030715
-0.0310711
-0.0313787
-0.0316369
-0.0318447
-0.0320013
-0.0321063
-0.0321591
-0.0321596
-0.0321075
-0.0320031
-0.0318466
-0.0316383
-0.031379
-0.0310694
-0.0307104
-0.0303032
-0.0298491
-0.0293494
-0.0288058
-0.0282199
-0.0275936
-0.0269288
-0.0262276
-0.025492
-0.0247243
-0.0239267
-0.0231015
-0.0222509
-0.0213774
-0.0204831
-0.0195704
-0.0186415
-0.0176984
-0.0167433
-0.015778
-0.0148045
-0.0138243
-0.0128389
-0.0118496
-0.0108576
-0.00986313
-0.00886807
-0.00786923
-0.00687371
-0.00586483
-0.00487541
-0.00383186
-0.00288065
-0.00171186
-0.00092653
-0.0242862
-0.0251392
-0.0259631
-0.0267562
-0.0275158
-0.0282399
-0.0289267
-0.0295741
-0.0301804
-0.0307437
-0.0312626
-0.0317352
-0.0321603
-0.0325364
-0.0328624
-0.0331371
-0.0333597
-0.0335293
-0.0336453
-0.0337074
-0.0337151
-0.0336685
-0.0335676
-0.0334127
-0.0332042
-0.0329427
-0.0326292
-0.0322645
-0.0318498
-0.0313865
-0.0308761
-0.0303201
-0.0297204
-0.0290788
-0.0283975
-0.0276785
-0.026924
-0.0261364
-0.025318
-0.0244713
-0.0235985
-0.0227023
-0.0217849
-0.0208489
-0.0198966
-0.0189302
-0.0179519
-0.016964
-0.0159684
-0.0149668
-0.013961
-0.0129526
-0.0119426
-0.0109324
-0.00992193
-0.00891339
-0.00790307
-0.00689875
-0.00588206
-0.00488877
-0.0038391
-0.0028904
-0.00171206
-0.000940932
-0.0263248
-0.0271852
-0.0280135
-0.0288078
-0.0295656
-0.0302847
-0.0309632
-0.0315991
-0.0321906
-0.032736
-0.0332337
-0.033682
-0.0340797
-0.0344253
-0.0347178
-0.0349563
-0.0351399
-0.0352679
-0.0353399
-0.0353556
-0.0353148
-0.0352178
-0.0350647
-0.034856
-0.0345923
-0.0342746
-0.0339038
-0.0334812
-0.033008
-0.0324859
-0.0319166
-0.031302
-0.0306439
-0.0299446
-0.0292063
-0.0284312
-0.0276219
-0.0267808
-0.0259103
-0.0250132
-0.0240919
-0.0231489
-0.022187
-0.0212085
-0.020216
-0.0192117
-0.018198
-0.0171771
-0.0161509
-0.0151213
-0.01409
-0.0130586
-0.0120281
-0.0109999
-0.00997394
-0.00895237
-0.00793105
-0.00691858
-0.00589467
-0.0048984
-0.00384319
-0.00289846
-0.00171067
-0.000956439
-0.0284642
-0.0293302
-0.0301612
-0.0309549
-0.0317087
-0.0324204
-0.033088
-0.0337097
-0.0342837
-0.0348081
-0.0352815
-0.0357022
-0.0360691
-0.0363808
-0.0366365
-0.0368351
-0.0369761
-0.037059
-0.0370833
-0.0370491
-0.0369564
-0.0368054
-0.0365967
-0.0363309
-0.0360089
-0.0356318
-0.0352007
-0.0347171
-0.0341827
-0.0335993
-0.0329686
-0.0322929
-0.0315743
-0.0308152
-0.030018
-0.0291852
-0.0283194
-0.0274233
-0.0264995
-0.0255509
-0.02458
-0.0235896
-0.0225823
-0.0215608
-0.0205276
-0.0194851
-0.0184357
-0.0173816
-0.0163248
-0.0152673
-0.0142106
-0.0131564
-0.0121057
-0.0110599
-0.0100187
-0.00898464
-0.00795285
-0.0069329
-0.00590238
-0.00490413
-0.00384392
-0.00290476
-0.00170758
-0.000973232
-0.0307065
-0.0315766
-0.0324081
-0.0331989
-0.0339462
-0.0346479
-0.035302
-0.0359066
-0.0364598
-0.03696
-0.0374057
-0.0377954
-0.0381279
-0.0384021
-0.0386172
-0.0387723
-0.038867
-0.038901
-0.038874
-0.0387862
-0.0386379
-0.0384295
-0.0381617
-0.0378354
-0.0374517
-0.0370119
-0.0365175
-0.0359702
-0.0353718
-0.0347243
-0.0340298
-0.0332908
-0.0325095
-0.0316886
-0.0308306
-0.0299384
-0.0290147
-0.0280623
-0.027084
-0.0260828
-0.0250614
-0.0240228
-0.0229696
-0.0219046
-0.0208303
-0.0197494
-0.0186641
-0.0175768
-0.0164894
-0.015404
-0.0143221
-0.0132454
-0.0121748
-0.0111118
-0.010056
-0.00900986
-0.00796817
-0.00694146
-0.00590496
-0.00490575
-0.00384113
-0.00290922
-0.00170266
-0.00099149
-0.0330543
-0.0339262
-0.034756
-0.0355414
-0.0362796
-0.0369684
-0.0376058
-0.03819
-0.0387191
-0.0391916
-0.039606
-0.0399609
-0.0402553
-0.0404881
-0.0406587
-0.0407665
-0.040811
-0.0407922
-0.04071
-0.0405649
-0.0403572
-0.0400877
-0.0397573
-0.039367
-0.0389184
-0.0384128
-0.0378521
-0.0372381
-0.0365729
-0.0358587
-0.0350981
-0.0342934
-0.0334474
-0.0325628
-0.0316424
-0.0306892
-0.0297061
-0.0286961
-0.0276622
-0.0266075
-0.0255349
-0.0244474
-0.0233477
-0.0222387
-0.0211232
-0.0200036
-0.0188824
-0.0177618
-0.016644
-0.0155309
-0.0144241
-0.0133252
-0.0122351
-0.0111554
-0.0100853
-0.00902775
-0.00797674
-0.00694402
-0.00590221
-0.00490311
-0.00383464
-0.00291179
-0.00169578
-0.00101137
-0.0355096
-0.0363811
-0.0372066
-0.0379838
-0.0387099
-0.0393826
-0.04
-0.0405603
-0.0410616
-0.0415026
-0.0418818
-0.0421981
-0.0424503
-0.0426377
-0.0427598
-0.0428161
-0.0428064
-0.0427307
-0.0425895
-0.0423831
-0.0421122
-0.0417779
-0.0413812
-0.0409236
-0.0404067
-0.0398321
-0.039202
-0.0385184
-0.0377837
-0.0370005
-0.0361712
-0.0352988
-0.034386
-0.0334358
-0.0324513
-0.0314356
-0.0303918
-0.0293232
-0.0282327
-0.0271237
-0.0259991
-0.0248621
-0.0237155
-0.0225623
-0.0214053
-0.0202469
-0.0190897
-0.0179361
-0.016788
-0.0156474
-0.014516
-0.0133953
-0.0122862
-0.0111901
-0.0101064
-0.00903805
-0.00797834
-0.00694039
-0.00589394
-0.00489604
-0.00382431
-0.00291238
-0.00168683
-0.00103301
-0.0380748
-0.0389432
-0.0397615
-0.0405275
-0.0412382
-0.0418913
-0.042485
-0.0430175
-0.0434872
-0.0438926
-0.0442326
-0.0445059
-0.0447118
-0.0448495
-0.0449188
-0.0449194
-0.0448512
-0.0447147
-0.0445102
-0.0442386
-0.0439007
-0.0434978
-0.0430313
-0.0425028
-0.0419141
-0.0412674
-0.0405649
-0.0398089
-0.0390021
-0.0381472
-0.0372471
-0.0363047
-0.0353232
-0.0343058
-0.0332556
-0.032176
-0.0310704
-0.0299419
-0.028794
-0.0276299
-0.0264527
-0.0252658
-0.024072
-0.0228744
-0.0216757
-0.0204786
-0.0192856
-0.0180989
-0.0169208
-0.0157531
-0.0145975
-0.0134554
-0.0123277
-0.0112159
-0.010119
-0.00904054
-0.00797279
-0.00693041
-0.00587999
-0.00488442
-0.00380999
-0.00291089
-0.00167568
-0.00105649
-0.0407521
-0.0416143
-0.0424223
-0.0431736
-0.0438651
-0.0444949
-0.0450609
-0.0455616
-0.0459954
-0.046361
-0.0466573
-0.0468833
-0.0470383
-0.047122
-0.047134
-0.0470745
-0.0469436
-0.0467418
-0.04647
-0.046129
-0.0457202
-0.0452449
-0.0447049
-0.044102
-0.0434384
-0.0427163
-0.0419384
-0.0411072
-0.0402257
-0.0392967
-0.0383235
-0.0373092
-0.0362572
-0.0351708
-0.0340535
-0.0329088
-0.0317401
-0.0305509
-0.0293447
-0.0281249
-0.0268947
-0.0256574
-0.0244162
-0.023174
-0.0219337
-0.0206979
-0.0194692
-0.0182499
-0.017042
-0.0158476
-0.0146681
-0.0135051
-0.0123594
-0.0112325
-0.010123
-0.00903506
-0.00795992
-0.00691392
-0.00586023
-0.00486811
-0.00379156
-0.00290724
-0.00166222
-0.00108186
-0.0435434
-0.0443962
-0.0451902
-0.045923
-0.0465915
-0.0471937
-0.0477278
-0.0481923
-0.0485857
-0.0489068
-0.0491548
-0.0493288
-0.0494284
-0.0494534
-0.0494036
-0.0492794
-0.0490813
-0.0488099
-0.0484665
-0.0480521
-0.0475683
-0.0470168
-0.0463995
-0.0457188
-0.0449768
-0.0441764
-0.0433201
-0.042411
-0.0414522
-0.0404469
-0.0393984
-0.0383102
-0.0371859
-0.036029
-0.0348432
-0.0336322
-0.0323994
-0.0311487
-0.0298835
-0.0286074
-0.0273238
-0.026036
-0.0247472
-0.0234604
-0.0221785
-0.0209042
-0.0196401
-0.0183884
-0.0171512
-0.0159304
-0.0147276
-0.0135443
-0.012381
-0.0112396
-0.0101183
-0.00902148
-0.00793963
-0.00689082
-0.00583455
-0.004847
-0.00376892
-0.00290129
-0.00164635
-0.00110906
-0.0464507
-0.0472903
-0.0480665
-0.0487766
-0.0494178
-0.0499879
-0.0504855
-0.050909
-0.0512572
-0.0515291
-0.0517239
-0.0518411
-0.0518804
-0.0518417
-0.0517254
-0.0515318
-0.0512619
-0.0509166
-0.0504971
-0.0500051
-0.0494423
-0.0488108
-0.0481127
-0.0473505
-0.046527
-0.045645
-0.0447076
-0.0437179
-0.0426793
-0.0415954
-0.0404696
-0.0393058
-0.0381075
-0.0368787
-0.0356231
-0.0343446
-0.033047
-0.031734
-0.0304093
-0.0290765
-0.0277391
-0.0264006
-0.0250641
-0.0237328
-0.0224095
-0.021097
-0.0197977
-0.018514
-0.017248
-0.0160014
-0.0147758
-0.0135727
-0.0123925
-0.0112372
-0.0101046
-0.00899972
-0.00791184
-0.00686103
-0.0058029
-0.004821
-0.00374197
-0.00289291
-0.00162798
-0.00113797
-0.0494757
-0.050298
-0.051052
-0.051735
-0.0523441
-0.0528774
-0.0533334
-0.053711
-0.0540089
-0.0542264
-0.054363
-0.0544182
-0.0543921
-0.0542849
-0.0540971
-0.0538294
-0.053483
-0.0530591
-0.0525594
-0.0519855
-0.0513397
-0.0506242
-0.0498416
-0.0489947
-0.0480864
-0.0471198
-0.0460984
-0.0450255
-0.0439048
-0.0427401
-0.0415351
-0.0402938
-0.0390201
-0.037718
-0.0363916
-0.0350447
-0.0336813
-0.0323054
-0.0309207
-0.0295309
-0.0281397
-0.0267504
-0.0253663
-0.0239906
-0.0226261
-0.0212757
-0.0199417
-0.0186265
-0.017332
-0.0160602
-0.0148124
-0.0135901
-0.0123938
-0.0112251
-0.010082
-0.00896973
-0.00787651
-0.00682452
-0.00576521
-0.00479001
-0.00371066
-0.00288195
-0.00160704
-0.00116838
-0.05262
-0.0534205
-0.0541476
-0.0547985
-0.0553704
-0.0558617
-0.056271
-0.0565972
-0.0568395
-0.0569973
-0.0570702
-0.0570582
-0.0569615
-0.0567805
-0.0565162
-0.0561696
-0.0557419
-0.0552349
-0.0546504
-0.0539905
-0.0532576
-0.0524544
-0.0515837
-0.0506486
-0.0496522
-0.0485982
-0.04749
-0.0463315
-0.0451264
-0.0438788
-0.0425928
-0.0412724
-0.0399219
-0.0385453
-0.0371469
-0.0357308
-0.0343011
-0.0328618
-0.0314167
-0.0299698
-0.0285245
-0.0270845
-0.025653
-0.0242331
-0.0228279
-0.0214399
-0.0200717
-0.0187255
-0.0174032
-0.0161068
-0.0148374
-0.0135966
-0.0123847
-0.0112035
-0.0100505
-0.00893151
-0.00783367
-0.00678126
-0.0057215
-0.00475398
-0.00367494
-0.00286822
-0.0015835
-0.00119996
-0.055885
-0.0566587
-0.0573537
-0.0579672
-0.0584965
-0.0589401
-0.059297
-0.0595663
-0.0597474
-0.0598398
-0.0598435
-0.0597587
-0.059586
-0.0593261
-0.0589802
-0.0585495
-0.0580358
-0.057441
-0.0567673
-0.0560171
-0.0551932
-0.0542984
-0.053336
-0.0523093
-0.0512219
-0.0500775
-0.04888
-0.0476334
-0.0463418
-0.0450095
-0.0436407
-0.0422398
-0.0408111
-0.0393589
-0.0378877
-0.0364017
-0.0349051
-0.033402
-0.0318963
-0.0303921
-0.0288929
-0.0274023
-0.0259236
-0.02446
-0.0230143
-0.0215893
-0.0201874
-0.0188108
-0.0174614
-0.0161409
-0.0148507
-0.0135921
-0.0123653
-0.0111722
-0.0100101
-0.00888511
-0.00778335
-0.00673129
-0.00567177
-0.00471286
-0.00363481
-0.00285151
-0.00155734
-0.00123228
-0.0592718
-0.0600132
-0.0606704
-0.0612407
-0.0617216
-0.0621117
-0.0624103
-0.0626167
-0.0627305
-0.0627517
-0.0626805
-0.0625173
-0.0622631
-0.0619188
-0.061486
-0.0609662
-0.0603616
-0.0596744
-0.058907
-0.0580623
-0.0571434
-0.0561533
-0.0550958
-0.0539743
-0.0527928
-0.0515553
-0.0502659
-0.0489289
-0.0475488
-0.0461299
-0.0446767
-0.0431939
-0.0416859
-0.0401573
-0.0386125
-0.037056
-0.035492
-0.0339249
-0.0323586
-0.030797
-0.029244
-0.0277031
-0.0261776
-0.0246706
-0.0231851
-0.0217236
-0.0202886
-0.0188823
-0.0175064
-0.0161626
-0.0148522
-0.0135766
-0.0123356
-0.0111314
-0.00996082
-0.00883063
-0.00772565
-0.00667466
-0.00561611
-0.0046666
-0.00359029
-0.00283162
-0.0015286
-0.00126478
-0.0627812
-0.0634843
-0.0640977
-0.0646186
-0.0650447
-0.0653751
-0.0656091
-0.0657463
-0.0657868
-0.0657307
-0.0655786
-0.0653312
-0.0649897
-0.0645556
-0.0640305
-0.0634166
-0.0627162
-0.0619319
-0.0610664
-0.0601231
-0.0591051
-0.0580162
-0.05686
-0.0556406
-0.0543621
-0.0530288
-0.0516452
-0.0502157
-0.0487451
-0.0472379
-0.045699
-0.044133
-0.0425447
-0.0409388
-0.0393198
-0.0376923
-0.0360608
-0.0344295
-0.0328025
-0.0311839
-0.0295773
-0.0279864
-0.0264145
-0.0248647
-0.0233399
-0.0218426
-0.0203752
-0.0189399
-0.0175382
-0.016172
-0.0148422
-0.0135502
-0.0122958
-0.0110813
-0.00990293
-0.0087682
-0.00766071
-0.00661147
-0.00555459
-0.0046152
-0.00354144
-0.0028083
-0.00149734
-0.00129682
-0.0664136
-0.0670719
-0.0676348
-0.0680997
-0.0684645
-0.0687284
-0.0688912
-0.0689529
-0.0689137
-0.068774
-0.0685348
-0.0681972
-0.0677627
-0.0672331
-0.0666105
-0.0658973
-0.0650962
-0.0642101
-0.0632422
-0.0621961
-0.0610753
-0.0598838
-0.0586257
-0.0573053
-0.055927
-0.0544954
-0.0530153
-0.0514914
-0.0499285
-0.0483316
-0.0467056
-0.0450554
-0.0433859
-0.041702
-0.0400083
-0.0383096
-0.0366103
-0.0349148
-0.0332273
-0.0315518
-0.0298921
-0.0282517
-0.026634
-0.025042
-0.0234785
-0.0219462
-0.0204472
-0.0189836
-0.017557
-0.016169
-0.0148206
-0.0135131
-0.0122461
-0.0110219
-0.00983657
-0.008698
-0.0075887
-0.00654185
-0.00548737
-0.00455867
-0.00348834
-0.00278131
-0.00146367
-0.00132762
-0.0701689
-0.0707754
-0.0712809
-0.0716827
-0.0719791
-0.0721696
-0.0722544
-0.0722337
-0.072108
-0.0718783
-0.0715458
-0.0711119
-0.0705786
-0.0699479
-0.0692224
-0.0684047
-0.067498
-0.0665056
-0.0654309
-0.0642779
-0.0630505
-0.061753
-0.0603898
-0.0589655
-0.0574848
-0.0559526
-0.0543738
-0.0527535
-0.0510968
-0.0494088
-0.0476946
-0.0459592
-0.0442079
-0.0424454
-0.0406768
-0.0389066
-0.0371396
-0.0353801
-0.0336324
-0.0319004
-0.030188
-0.0284987
-0.0268357
-0.0252023
-0.0236009
-0.0220343
-0.0205045
-0.0190134
-0.0175628
-0.0161539
-0.0147877
-0.0134655
-0.0121867
-0.0109536
-0.009762
-0.00862026
-0.00750984
-0.00646596
-0.00541461
-0.00449703
-0.00343111
-0.00275039
-0.00142774
-0.00135634
-0.0745938
-0.0750342
-0.0753655
-0.0755861
-0.0756959
-0.0756955
-0.0755855
-0.0753666
-0.0750403