/*--------------------------------*- C++ -*----------------------------------*\
  =========                 |
  \\      /  F ield         | OpenFOAM: The Open Source CFD Toolbox
   \\    /   O peration     | Website:  https://openfoam.org
    \\  /    A nd           | Version:  7
     \\/     M anipulation  |
\*---------------------------------------------------------------------------*/
FoamFile
{
    version     2.0;
    format      ascii;
    class       volVectorField;
    location    "12";
    object      U;
}
// * * * * * * * * * * * * * * * * * * * * * * * * * * * * * * * * * * * * * //

dimensions      [0 1 -1 0 0 0 0];

internalField   nonuniform List<vector> 
433
(
(0.60513 0.0659682 2.14189e-22)
(0.614434 0.0642154 5.50835e-22)
(0.62418 0.0625211 1.75857e-22)
(0.634419 0.0608456 -8.64669e-22)
(0.645039 0.0593338 -3.95371e-22)
(0.656239 0.0577854 4.7557e-22)
(0.667671 0.0566065 -7.7393e-22)
(0.679968 0.0551143 5.30611e-22)
(0.692054 0.0545168 -4.67576e-22)
(0.705836 0.0527368 5.36805e-22)
(0.718082 0.0532698 -1.0562e-22)
(0.734317 0.0503124 -4.73801e-23)
(0.745346 0.0531198 5.79852e-23)
(0.766295 0.047557 -1.80872e-23)
(0.772982 0.0536231 -1.2026e-23)
(0.802954 0.0471776 -1.16978e-24)
(0.531736 0.0737813 8.39798e-21)
(0.539091 0.0724841 -2.00488e-21)
(0.546982 0.0710148 -2.77659e-21)
(0.555389 0.0694146 6.66487e-21)
(0.564289 0.0677258 -9.52179e-21)
(0.573666 0.0659803 6.31094e-21)
(0.583493 0.0642214 -1.69478e-21)
(0.593772 0.0624623 7.90007e-22)
(0.604461 0.0607653 -7.79913e-22)
(0.615614 0.0590928 -4.8516e-22)
(0.627116 0.0575815 8.59739e-22)
(0.639177 0.0560414 -2.66819e-22)
(0.651437 0.0548576 8.33302e-22)
(0.664559 0.0533799 -9.02369e-22)
(0.677422 0.05276 5.28412e-22)
(0.692018 0.0510121 -4.56778e-22)
(0.704979 0.0514846 -1.18851e-22)
(0.722077 0.0486044 2.88653e-23)
(0.733701 0.0512802 2.33493e-23)
(0.755702 0.0458756 -5.67991e-24)
(0.762707 0.051719 3.20874e-23)
(0.794153 0.0454439 1.34501e-23)
(0.50352 0.0719963 -5.4485e-21)
(0.512076 0.0706426 -2.50536e-22)
(0.52113 0.0691315 1.5887e-21)
(0.530661 0.0675028 -2.67129e-21)
(0.540648 0.0657963 1.63816e-21)
(0.551075 0.0640426 1.85247e-21)
(0.561917 0.0622823 -7.82853e-22)
(0.573178 0.0605282 -1.5418e-21)
(0.584815 0.0588383 1.93316e-21)
(0.596889 0.057178 -1.71761e-21)
(0.609279 0.055675 3.44189e-22)
(0.622209 0.0541511 1.19433e-22)
(0.635304 0.0529678 -1.40863e-22)
(0.649258 0.0515127 3.39882e-22)
(0.662906 0.0508726 -1.37604e-22)
(0.678324 0.0491671 1.78508e-22)
(0.692009 0.0495752 2.00179e-22)
(0.709976 0.0467897 -8.41879e-23)
(0.722206 0.0493177 1.18393e-22)
(0.745258 0.0441042 1.15038e-23)
(0.752597 0.0496894 2.47891e-23)
(0.785505 0.0436213 1.17673e-22)
(0.475505 0.0699549 -3.48176e-21)
(0.485256 0.0685585 2.11989e-21)
(0.495467 0.0670185 -2.14917e-21)
(0.50612 0.0653729 4.88824e-22)
(0.51719 0.0636596 6.91154e-22)
(0.528666 0.0619077 6.45011e-22)
(0.540522 0.0601553 -1.48627e-21)
(0.552765 0.0584149 1.27022e-21)
(0.565351 0.0567405 5.93421e-22)
(0.578345 0.0551001 8.4817e-22)
(0.591625 0.0536128 -1.80013e-21)
(0.605424 0.0521118 2.05285e-21)
(0.619357 0.050936 -3.86363e-22)
(0.634145 0.0495091 -8.42509e-23)
(0.648581 0.0488554 -2.45748e-22)
(0.664823 0.0471971 2.12493e-22)
(0.679237 0.0475463 -1.6821e-22)
(0.698072 0.0448612 -9.01782e-23)
(0.710917 0.0472428 -9.6538e-23)
(0.735012 0.0422309 -3.09273e-23)
(0.7427 0.0475527 -4.81455e-23)
(0.777049 0.0417034 -1.87817e-22)
(0.447863 0.0676091 -6.30631e-21)
(0.458794 0.0661883 6.34336e-21)
(0.47015 0.0646364 1.35934e-21)
(0.481912 0.0629899 -2.83089e-21)
(0.494057 0.0612847 -2.8349e-22)
(0.506573 0.0595485 2.48436e-22)
(0.519434 0.0578171 6.88597e-23)
(0.532651 0.0561025 -3.64458e-22)
(0.54618 0.054455 -9.08981e-22)
(0.560089 0.052845 2.37113e-21)
(0.574255 0.0513834 -5.8964e-22)
(0.588919 0.0499143 -4.29649e-23)
(0.603686 0.0487547 -7.392e-22)
(0.619303 0.0473636 -7.3987e-22)
(0.634526 0.0467039 4.97363e-22)
(0.651588 0.0450996 -2.94813e-22)
(0.66673 0.0453956 5.21736e-23)
(0.686427 0.0428187 -1.48616e-22)
(0.699889 0.0450547 7.55899e-23)
(0.725015 0.0402572 3.84631e-23)
(0.733061 0.0453093 -6.20991e-23)
(0.768826 0.0396925 5.8262e-24)
(0.420773 0.0649508 1.41133e-20)
(0.432861 0.0635246 -6.18519e-21)
(0.44534 0.0619788 -3.79328e-21)
(0.458191 0.0603483 3.44036e-21)
(0.471392 0.0586671 6.44587e-22)
(0.484931 0.0569615 -1.6972e-22)
(0.498784 0.0552651 -6.52439e-22)
(0.512962 0.0535892 2.90384e-22)
(0.52742 0.0519807 3.77606e-22)
(0.542232 0.0504122 -1.514e-22)
(0.557272 0.0489867 -4.00442e-22)
(0.57279 0.0475591 5.38956e-25)
(0.588381 0.0464246 4.48269e-22)
(0.60482 0.0450774 -3.42877e-22)
(0.620821 0.044419 -2.88101e-22)
(0.638692 0.0428763 3.80839e-23)
(0.654556 0.043124 -3.58386e-23)
(0.675105 0.0406644 2.69057e-22)
(0.689182 0.0427542 6.54866e-23)
(0.715317 0.0381861 -5.343e-25)
(0.723728 0.0429593 6.01272e-23)
(0.760875 0.0375925 1.12172e-22)
(0.394417 0.0619893 -2.30964e-21)
(0.407628 0.0605759 -1.17174e-21)
(0.4212 0.0590534 5.37744e-22)
(0.435114 0.0574552 2.616e-21)
(0.449345 0.0558134 -1.21139e-21)
(0.463885 0.0541528 -1.53883e-21)
(0.478706 0.0525048 2.23148e-22)
(0.493823 0.0508802 1.12728e-21)
(0.509191 0.0493224 -6.38411e-22)
(0.524887 0.0478063 1.87948e-21)
(0.540783 0.046427 4.16975e-22)
(0.557139 0.0450501 -9.1812e-22)
(0.573539 0.0439493 -1.23612e-23)
(0.590781 0.0426541 5.18752e-22)
(0.607546 0.042004 1.19826e-22)
(0.626213 0.0405305 1.41583e-22)
(0.642787 0.0407345 5.29071e-23)
(0.664168 0.0384013 -2.98596e-23)
(0.678853 0.0403442 -7.32276e-23)
(0.70597 0.0360204 -1.54356e-23)
(0.71475 0.0405056 6.28252e-23)
(0.753235 0.0354069 2.04284e-23)
(0.368978 0.0587341 -4.17916e-21)
(0.383271 0.0573508 4.01646e-21)
(0.397898 0.0558682 -2.55775e-21)
(0.412838 0.054318 2.62677e-21)
(0.428067 0.0527303 6.01209e-22)
(0.443575 0.0511287 -4.17121e-22)
(0.459335 0.0495422 -2.94343e-21)
(0.475363 0.0479811 1.41276e-21)
(0.491614 0.0464855 -1.17792e-21)
(0.508168 0.0450323 -9.28486e-22)
(0.524896 0.0437091 1.48474e-21)
(0.542066 0.0423919 -2.48023e-23)
(0.559252 0.0413333 2.16226e-23)
(0.577277 0.0400979 -1.78978e-22)
(0.594786 0.0394631 2.15416e-22)
(0.614225 0.0380658 -5.10625e-22)
(0.631492 0.0382311 1.09201e-22)
(0.653681 0.0360327 -1.21504e-22)
(0.668961 0.0378286 1.21069e-22)
(0.697027 0.033763 -5.18696e-23)
(0.706174 0.0379517 -1.04233e-23)
(0.745946 0.0331394 -1.54567e-22)
(0.344637 0.0551953 4.44464e-22)
(0.359964 0.0538587 -3.23551e-21)
(0.375601 0.0524319 2.36688e-21)
(0.391523 0.0509448 -3.77048e-21)
(0.407709 0.0494257 4.79132e-21)
(0.424145 0.0478965 -1.25682e-21)
(0.440807 0.0463842 -1.17641e-21)
(0.45771 0.0448986 1.32773e-21)
(0.47481 0.0434762 9.89249e-22)
(0.49219 0.0420962 -3.7443e-22)
(0.509718 0.0408387 -1.04488e-21)
(0.527672 0.03959 -7.91238e-23)
(0.545616 0.0385818 -1.97865e-22)
(0.564395 0.0374136 -2.1635e-22)
(0.582621 0.036801 1.82164e-22)
(0.602804 0.0354868 -5.03005e-23)
(0.62074 0.0356181 -1.01192e-23)
(0.643706 0.0335627 1.49661e-23)
(0.659564 0.0352116 -9.1438e-23)
(0.688537 0.0314178 9.1102e-23)
(0.698046 0.0353022 -1.0932e-22)
(0.739046 0.030794 1.02888e-22)
(0.321576 0.0513857 1.77319e-21)
(0.33788 0.0501113 -2.20045e-21)
(0.354471 0.0487553 -3.71231e-23)
(0.371326 0.0473457 -3.99875e-22)
(0.388418 0.0459089 -1.38845e-21)
(0.405736 0.0444651 -2.10392e-21)
(0.423256 0.0430393 1.85575e-21)
(0.440991 0.0416405 -1.26547e-21)
(0.458899 0.040302 6.53971e-22)
(0.477066 0.0390052 -6.8581e-22)
(0.495357 0.0378226 5.33497e-22)
(0.514058 0.0366509 1.31142e-22)
(0.532724 0.0357008 -3.29952e-22)
(0.552221 0.0346073 -1.61019e-22)
(0.571132 0.0340233 3.75431e-22)
(0.592026 0.0327989 -1.46641e-22)
(0.6106 0.0329008 4.53559e-22)
(0.634307 0.0309962 -3.0823e-23)
(0.650718 0.0324986 6.74229e-23)
(0.680551 0.0289891 -4.81272e-23)
(0.690411 0.0325617 1.13478e-22)
(0.732572 0.0283755 1.11127e-22)
(0.283054 0.0484149 2.68379e-21)
(0.299969 0.0473206 1.8716e-21)
(0.317185 0.0461228 -2.34744e-21)
(0.33467 0.0448517 -2.62554e-21)
(0.352398 0.0435332 -1.25842e-21)
(0.370342 0.0421915 2.49233e-21)
(0.388488 0.0408455 6.60419e-22)
(0.406813 0.0395176 2.0765e-21)
(0.425331 0.0382165 -1.27734e-21)
(0.443999 0.0369721 -6.02427e-22)
(0.462906 0.0357677 1.02841e-21)
(0.481915 0.0346688 -1.66427e-22)
(0.50132 0.0335822 -9.59069e-23)
(0.520667 0.0326979 -2.0573e-22)
(0.540842 0.0316857 5.90701e-22)
(0.560399 0.0311367 -2.1009e-22)
(0.581961 0.0300084 1.57729e-23)
(0.60114 0.0300854 -3.13328e-22)
(0.625542 0.0283388 4.56622e-24)
(0.642477 0.0296951 -9.45906e-24)
(0.673117 0.0264818 4.26432e-25)
(0.683314 0.0297358 -1.01965e-22)
(0.72656 0.0258888 -3.22811e-22)
(0.262214 0.044032 5.95951e-22)
(0.279984 0.0430174 3.53412e-21)
(0.298041 0.0419095 1.39433e-21)
(0.316352 0.0407363 -1.06151e-21)
(0.334887 0.0395213 1.77112e-21)
(0.353619 0.0382868 -2.06013e-21)
(0.372533 0.0370499 -1.57932e-21)
(0.391604 0.0358309 1.94617e-21)
(0.410849 0.0346376 -4.5204e-22)
(0.430223 0.0334968 1.1936e-21)
(0.449817 0.0323938 -2.46045e-22)
(0.469494 0.0313868 -1.83346e-22)
(0.489553 0.0303927 -9.25837e-23)
(0.509533 0.0295812 2.46146e-22)
(0.530338 0.0286569 -8.20396e-23)
(0.550496 0.0281487 5.42547e-23)
(0.57268 0.0271222 -3.05245e-22)
(0.592421 0.0271787 3.56604e-22)
(0.61747 0.0255968 3.55217e-23)
(0.634895 0.0268076 -3.50019e-23)
(0.66628 0.0239015 8.67826e-23)
(0.676795 0.0268306 -1.72107e-23)
(0.721044 0.0233392 1.20154e-23)
(0.243234 0.0394187 2.12569e-21)
(0.261779 0.0384956 -3.13251e-21)
(0.280601 0.0374897 -1.79915e-21)
(0.299663 0.036426 -1.78699e-21)
(0.318933 0.0353261 4.06839e-21)
(0.338383 0.0342098 -7.87348e-22)
(0.357998 0.0330925 -1.18226e-21)
(0.377751 0.0319923 -1.23798e-21)
(0.397659 0.0309161 7.34745e-22)
(0.417678 0.0298877 -1.09342e-21)
(0.437901 0.0288942 7.47715e-22)
(0.458188 0.0279867 2.03206e-22)
(0.478845 0.0270922 1.40438e-23)
(0.499405 0.0263599 -3.7109e-22)
(0.520786 0.0255295 -6.14727e-24)
(0.541495 0.0250675 -2.42675e-22)
(0.564249 0.0241484 1.78513e-22)
(0.584505 0.0241881 -2.52476e-22)
(0.610145 0.0227772 7.24333e-23)
(0.62802 0.0238431 -1.23549e-22)
(0.660085 0.0212544 -1.10339e-22)
(0.670895 0.0238528 -5.85205e-23)
(0.716055 0.0207324 2.80361e-22)
(0.226267 0.0345977 -2.58936e-21)
(0.245501 0.0337767 2.49499e-21)
(0.265005 0.0328832 -2.53309e-21)
(0.284737 0.0319397 3.71048e-21)
(0.304665 0.0309652 -1.4012e-21)
(0.324758 0.029977 -9.53672e-22)
(0.344999 0.0289888 1.05472e-21)
(0.365363 0.0280163 -1.09776e-21)
(0.385866 0.0270658 5.52227e-22)
(0.406463 0.0261577 -2.36021e-22)
(0.42725 0.025281 -2.10559e-22)
(0.448086 0.0244799 5.20378e-22)
(0.469279 0.0236913 3.54757e-22)
(0.49036 0.0230442 -1.0354e-22)
(0.512259 0.022313 -2.91421e-22)
(0.533462 0.0219022 2.83248e-22)
(0.556727 0.0210953 2.52868e-23)
(0.577447 0.0211219 1.88488e-22)
(0.603618 0.0198875 -1.11938e-22)
(0.621898 0.0208094 1.09034e-22)
(0.654571 0.0185469 8.18681e-23)
(0.665648 0.0208096 1.82185e-22)
(0.711623 0.0180744 -3.53567e-22)
(0.211451 0.0295934 -2.41518e-24)
(0.231285 0.0288835 -9.8475e-22)
(0.251383 0.0281118 9.2831e-22)
(0.2717 0.0272977 -4.31924e-22)
(0.292202 0.0264575 8.71445e-24)
(0.312855 0.0256062 -6.0727e-22)
(0.333645 0.0247555 1.58745e-21)
(0.354543 0.0239187 -1.11413e-21)
(0.375567 0.0231014 2.29429e-22)
(0.39667 0.0223206 2.38999e-22)
(0.417951 0.0215674 4.01382e-22)
(0.439266 0.0208788 -2.02469e-22)
(0.460931 0.0202016 -4.20356e-22)
(0.482468 0.0196449 2.79772e-22)
(0.504821 0.0190178 5.00831e-23)
(0.526458 0.0186624 -9.84691e-24)
(0.550171 0.0179721 -2.02131e-22)
(0.571298 0.0179889 -1.69111e-22)
(0.597933 0.0169358 -1.12856e-23)
(0.616569 0.0177144 -6.20764e-23)
(0.649774 0.0157862 -4.10894e-23)
(0.661087 0.0177086 -1.75144e-22)
(0.707773 0.0153713 3.22281e-22)
(0.198909 0.0244317 1.66308e-21)
(0.219249 0.0238405 -9.06033e-22)
(0.239848 0.0231985 7.66278e-22)
(0.260659 0.0225215 2.56186e-22)
(0.281647 0.0218234 4.69724e-22)
(0.302776 0.0211165 4.40128e-22)
(0.32403 0.0204105 2.10124e-22)
(0.345381 0.0197163 3.60206e-22)
(0.366846 0.0190385 -8.76923e-22)
(0.38838 0.0183913 8.22106e-23)
(0.410079 0.0177671 2.6644e-22)
(0.431803 0.0171963 4.4313e-23)
(0.453867 0.0166355 1.74261e-22)
(0.475791 0.0161736 -1.1562e-22)
(0.49853 0.0156547 2.02318e-22)
(0.520535 0.0153587 2.32206e-23)
(0.544629 0.0147886 9.73826e-23)
(0.566102 0.0147984 8.93184e-23)
(0.593132 0.0139309 2.35361e-23)
(0.612071 0.0145669 2.64941e-23)
(0.645726 0.0129797 -3.19493e-23)
(0.657242 0.0145579 5.99494e-23)
(0.704528 0.0126298 3.16157e-23)
(0.188745 0.0191395 -2.4172e-21)
(0.209494 0.0186733 2.68751e-21)
(0.230498 0.0181673 -9.28415e-22)
(0.25171 0.0176341 8.38548e-23)
(0.273091 0.0170844 -1.51995e-22)
(0.294606 0.0165281 2.78155e-22)
(0.316237 0.0159727 -6.75717e-22)
(0.337955 0.0154268 9.09871e-22)
(0.359779 0.014894 9.03513e-23)
(0.381661 0.0143853 -7.19383e-23)
(0.403701 0.0138948 -3.60148e-22)
(0.425755 0.0134462 -9.81167e-23)
(0.448144 0.0130058 2.09895e-23)
(0.470383 0.0126426 -3.59955e-22)
(0.493435 0.0122354 -1.07381e-22)
(0.515741 0.0120018 -1.20013e-22)
(0.540144 0.0115551 -1.25285e-23)
(0.561898 0.0115602 5.76071e-25)
(0.589248 0.0108818 -6.84454e-25)
(0.608435 0.0113757 3.2215e-23)
(0.642454 0.0101353 -1.85414e-24)
(0.654135 0.0113661 5.78685e-23)
(0.701909 0.00985648 -1.38032e-22)
(0.181046 0.0137448 2.8545e-22)
(0.202103 0.0134085 5.53757e-23)
(0.223414 0.0130434 -6.03459e-22)
(0.244929 0.012659 -5.48596e-22)
(0.266608 0.0122628 9.40003e-22)
(0.288415 0.0118619 -2.25495e-22)
(0.310331 0.0114619 -1.0621e-23)
(0.332329 0.0110688 1.41037e-23)
(0.354424 0.0106852 -1.58876e-22)
(0.376571 0.0103189 8.29893e-23)
(0.398869 0.00996593 4.23385e-22)
(0.421175 0.009643 -2.42443e-23)
(0.44381 0.00932608 -6.30358e-23)
(0.466288 0.00906451 1.14655e-22)
(0.489578 0.00877169 1.25367e-22)
(0.512111 0.00860302 2.93389e-23)
(0.536749 0.00828218 1.3469e-23)
(0.558717 0.00828444 -8.53591e-23)
(0.58631 0.00779787 -1.59149e-23)
(0.605684 0.00815029 -4.48391e-23)
(0.63998 0.00726105 9.79438e-24)
(0.651788 0.00814199 6.03021e-24)
(0.69993 0.00705824 1.00776e-22)
(0.175876 0.00827651 -9.34447e-22)
(0.19714 0.00807333 -2.68186e-23)
(0.218657 0.0078529 3.58462e-22)
(0.240376 0.00762079 -6.75876e-23)
(0.262255 0.00738166 4.8453e-23)
(0.284258 0.00713977 -5.242e-22)
(0.306366 0.00689841 -2.16078e-22)
(0.32855 0.00666129 1.72487e-22)
(0.350828 0.00642994 -7.42419e-23)
(0.373153 0.00620906 1.96339e-22)
(0.395624 0.00599622 -1.85866e-22)
(0.418099 0.00580145 1.16177e-22)
(0.4409 0.00561036 8.35079e-24)
(0.46354 0.00545257 -6.41446e-24)
(0.486989 0.00527608 -6.75651e-23)
(0.509676 0.00517414 6.005e-23)
(0.534472 0.0049809 -4.38727e-23)
(0.556583 0.00498169 2.49762e-23)
(0.584339 0.00468893 1.21508e-23)
(0.60384 0.00490019 -2.42026e-24)
(0.638321 0.00436532 2.97833e-24)
(0.650214 0.00489457 -1.10976e-23)
(0.698604 0.00424211 -7.6502e-23)
(0.173279 0.00276373 1.8878e-23)
(0.194648 0.0026958 4.6063e-23)
(0.216269 0.00262211 1.48981e-22)
(0.238089 0.00254452 -2.18749e-23)
(0.260068 0.00246461 -6.58362e-23)
(0.28217 0.0023838 -4.44646e-23)
(0.304374 0.00230318 1.40798e-22)
(0.326653 0.00222399 -1.98243e-22)
(0.349022 0.00214673 8.0977e-23)
(0.371437 0.00207297 -5.08496e-23)
(0.393995 0.00200188 1.90571e-23)
(0.416555 0.00193677 -2.26481e-23)
)
;

boundaryField
{
    inlet
    {
        type            uniformFixedValue;
        uniformValue    constant (1 0 0);
        value           nonuniform 0();
    }
    outlet
    {
        type            pressureInletOutletVelocity;
        value           nonuniform List<vector> 
19
(
(0.802954 0.0471776 -1.16978e-24)
(0.794153 0.0454439 1.34501e-23)
(0.785505 0.0436213 1.17673e-22)
(0.777049 0.0417034 -1.87817e-22)
(0.768826 0.0396925 5.8262e-24)
(0.760875 0.0375925 1.12172e-22)
(0.753235 0.0354069 2.04284e-23)
(0.745946 0.0331394 -1.54567e-22)
(0.739046 0.030794 1.02888e-22)
(0.732572 0.0283755 1.11127e-22)
(0.72656 0.0258888 -3.22811e-22)
(0.721044 0.0233392 1.20154e-23)
(0.716055 0.0207324 2.80361e-22)
(0.711623 0.0180744 -3.53567e-22)
(0.707773 0.0153713 3.22281e-22)
(0.704528 0.0126298 3.16157e-23)
(0.701909 0.00985648 -1.38032e-22)
(0.69993 0.00705824 1.00776e-22)
(0.698604 0.00424211 -7.6502e-23)
)
;
    }
    cylinder
    {
        type            fixedValue;
        value           nonuniform 0();
    }
    top
    {
        type            symmetryPlane;
    }
    bottom
    {
        type            symmetryPlane;
    }
    defaultFaces
    {
        type            empty;
    }
    procBoundary17to10
    {
        type            processor;
        value           nonuniform List<vector> 5((0.524938 0.0748603 4.38253e-21) (0.49548 0.0731486 -1.14289e-20) (0.466233 0.0711651 -9.64599e-21) (0.437376 0.0688579 -7.33088e-21) (0.409099 0.0662182 1.25111e-20));
    }
    procBoundary17to11
    {
        type            processor;
        value           nonuniform List<vector> 
23
(
(0.634248 0.0678578 0)
(0.642383 0.0661696 0)
(0.650986 0.0645286 0)
(0.660104 0.0628972 0)
(0.669627 0.061423 0)
(0.679739 0.059905 0)
(0.690111 0.0587569 0)
(0.701335 0.0572843 0)
(0.712394 0.0567216 0)
(0.72508 0.0549439 0)
(0.736352 0.0555329 0)
(0.751389 0.0525395 0)
(0.761583 0.0554496 0)
(0.78104 0.0497863 0)
(0.787254 0.0560069 0)
(0.815128 0.0494467 0)
(0.55999 0.0752767 1.55138e-20)
(0.566144 0.0740569 -1.04012e-20)
(0.572876 0.072648 3.57187e-21)
(0.580163 0.0710932 2.88806e-21)
(0.587981 0.0694372 -1.79632e-21)
(0.596313 0.0677135 -1.25972e-22)
(0.596313 0.0677135 -1.25972e-22)
)
;
    }
    procBoundary17to16
    {
        type            processor;
        value           nonuniform List<vector> 
15
(
(0.38159 0.0632561 2.7498e-21)
(0.355042 0.0599821 -6.53373e-21)
(0.329646 0.0564077 -7.0182e-21)
(0.305589 0.0525464 3.92723e-22)
(0.305589 0.0525464 3.92723e-22)
(0.266473 0.0493718 1.52559e-21)
(0.24477 0.044922 1.49588e-21)
(0.22501 0.0402302 -7.28017e-21)
(0.207349 0.0353207 6.56337e-21)
(0.191931 0.0302193 1.09851e-21)
(0.178882 0.0249532 -8.03427e-22)
(0.168309 0.019551 -6.36012e-22)
(0.1603 0.0140419 -2.09537e-21)
(0.154924 0.00845598 -3.5476e-22)
(0.152224 0.00282374 3.0464e-22)
)
;
    }
    procBoundary17to23
    {
        type            processor;
        value           nonuniform List<vector> 
24
(
(0.173279 -0.00276389 -1.4038e-23)
(0.194648 -0.0026959 6.31109e-23)
(0.216269 -0.00262214 -1.18788e-22)
(0.238089 -0.00254447 -1.83155e-22)
(0.260068 -0.00246444 2.79743e-23)
(0.28217 -0.00238348 6.15047e-23)
(0.304374 -0.00230267 2.59076e-23)
(0.326653 -0.00222328 3.40972e-23)
(0.349022 -0.00214583 -9.96732e-23)
(0.371437 -0.00207191 -8.79978e-24)
(0.393995 -0.00200071 -6.4798e-24)
(0.416555 -0.00193563 1.1727e-23)
(0.439439 0.00187291 -2.55543e-23)
(0.462159 0.00182018 3.74578e-23)
(0.485689 0.0017612 -6.23504e-23)
(0.508453 0.00172708 1.85338e-23)
(0.533328 0.00166251 -8.14133e-24)
(0.555512 0.00166264 -1.11044e-23)
(0.58335 0.00156487 4.15857e-24)
(0.602915 0.0016352 -1.27975e-24)
(0.637489 0.00145664 -4.62024e-24)
(0.649425 0.00163312 -3.53464e-24)
(0.697939 0.0014152 -2.11839e-23)
(0.439439 0.00187291 -2.55543e-23)
)
;
    }
}


// ************************************************************************* //
