/*--------------------------------*- C++ -*----------------------------------*\
  =========                 |
  \\      /  F ield         | OpenFOAM: The Open Source CFD Toolbox
   \\    /   O peration     | Website:  https://openfoam.org
    \\  /    A nd           | Version:  7
     \\/     M anipulation  |
\*---------------------------------------------------------------------------*/
FoamFile
{
    version     2.0;
    format      ascii;
    class       volScalarField;
    location    "3.8";
    object      p;
}
// * * * * * * * * * * * * * * * * * * * * * * * * * * * * * * * * * * * * * //

dimensions      [0 2 -2 0 0 0 0];

internalField   nonuniform List<scalar> 
346
(
0.262588
0.261099
0.259538
0.257905
0.256202
0.25443
0.25259
0.250684
0.248713
0.246678
0.24458
0.163849
0.170421
0.176733
0.182792
0.188604
0.194176
0.199513
0.204621
0.209507
0.214175
0.218631
0.222881
0.22693
0.230782
0.234443
0.237916
0.241208
0.244322
0.247262
0.250032
0.252638
0.255082
0.257368
0.259501
0.261484
0.26332
0.265012
0.266565
0.267981
0.269263
0.270415
0.271439
0.272339
0.273116
0.273774
0.274315
0.274743
0.275058
0.275264
0.275364
0.275359
0.275251
0.275043
0.274737
0.274335
0.273838
0.27325
0.272571
0.271803
0.270949
0.27001
0.268987
0.267882
0.266698
0.265435
0.264094
0.262679
0.261189
0.259626
0.257991
0.256287
0.254514
0.252673
0.250766
0.248794
0.246758
0.244659
0.16412
0.170687
0.176994
0.183048
0.188855
0.194421
0.199753
0.204857
0.209737
0.214401
0.218853
0.223099
0.227143
0.230991
0.234647
0.238117
0.241405
0.244514
0.247451
0.250218
0.25282
0.25526
0.257544
0.259673
0.261653
0.263485
0.265175
0.266725
0.268138
0.269417
0.270566
0.271588
0.272484
0.273259
0.273914
0.274453
0.274878
0.275191
0.275395
0.275492
0.275485
0.275375
0.275165
0.274857
0.274453
0.273954
0.273364
0.272683
0.271914
0.271057
0.270116
0.269092
0.267986
0.2668
0.265535
0.264193
0.262776
0.261284
0.25972
0.258084
0.256378
0.254604
0.252762
0.250853
0.24888
0.246842
0.244742
0.164419
0.170979
0.17728
0.183328
0.189129
0.19469
0.200016
0.205114
0.20999
0.214649
0.219095
0.223336
0.227376
0.231219
0.234871
0.238336
0.241619
0.244725
0.247657
0.25042
0.253018
0.255455
0.257734
0.25986
0.261836
0.263665
0.265351
0.266898
0.268308
0.269584
0.27073
0.271748
0.272642
0.273414
0.274066
0.274603
0.275025
0.275335
0.275537
0.275631
0.275621
0.275509
0.275297
0.274987
0.27458
0.27408
0.273487
0.272804
0.272033
0.271175
0.270232
0.269205
0.268097
0.266909
0.265643
0.264299
0.26288
0.261387
0.259821
0.258184
0.256476
0.2547
0.252857
0.250947
0.248972
0.246933
0.244831
0.164772
0.171325
0.177618
0.183659
0.189453
0.195007
0.200327
0.205419
0.210288
0.21494
0.219381
0.223616
0.227649
0.231487
0.235133
0.238593
0.241871
0.244972
0.247899
0.250657
0.25325
0.255683
0.257957
0.260079
0.26205
0.263876
0.265558
0.2671
0.268506
0.269779
0.270921
0.271936
0.272826
0.273594
0.274244
0.274777
0.275195
0.275503
0.275701
0.275793
0.27578
0.275665
0.27545
0.275137
0.274728
0.274225
0.27363
0.272945
0.272171
0.27131
0.270365
0.269337
0.268226
0.267036
0.265768
0.264422
0.263001
0.261506
0.259938
0.258299
0.25659
0.254812
0.252967
0.251055
0.249078
0.247038
0.244935
0.165191
0.171735
0.178019
0.184051
0.189837
0.195383
0.200695
0.205778
0.21064
0.215285
0.219718
0.223946
0.227973
0.231803
0.235443
0.238897
0.242168
0.245263
0.248184
0.250936
0.253524
0.255951
0.25822
0.260336
0.262303
0.264123
0.2658
0.267338
0.268739
0.270007
0.271145
0.272156
0.273042
0.273806
0.274451
0.27498
0.275396
0.275699
0.275894
0.275982
0.275966
0.275848
0.27563
0.275313
0.274901
0.274395
0.273797
0.273109
0.272332
0.271469
0.270521
0.26949
0.268377
0.267185
0.265913
0.264566
0.263142
0.261645
0.260075
0.258433
0.256722
0.254942
0.253095
0.251181
0.249202
0.24716
0.245055
)
;

boundaryField
{
    inlet
    {
        type            zeroGradient;
    }
    outlet
    {
        type            fixedValue;
        value           nonuniform 0();
    }
    wall
    {
        type            zeroGradient;
    }
    wedge1
    {
        type            wedge;
    }
    wedge2
    {
        type            wedge;
    }
    axis
    {
        type            empty;
    }
    procBoundary46to40
    {
        type            processor;
        value           nonuniform List<scalar> 
68
(
0.262503
0.261016
0.259456
0.257824
0.256122
0.254351
0.252513
0.250608
0.248639
0.246605
0.244508
0.163601
0.170178
0.176495
0.182558
0.188375
0.193951
0.199293
0.204405
0.209295
0.213967
0.218428
0.222682
0.226734
0.23059
0.234254
0.237732
0.241026
0.244144
0.247087
0.249861
0.25247
0.254917
0.257206
0.259342
0.261328
0.263166
0.264862
0.266417
0.267836
0.269121
0.270275
0.271302
0.272203
0.272983
0.273643
0.274187
0.274616
0.274934
0.275143
0.275244
0.275241
0.275135
0.274929
0.274625
0.274224
0.27373
0.273143
0.272466
0.2717
0.270847
0.26991
0.268888
0.267786
0.266603
0.265341
0.264002
0.264002
)
;
    }
    procBoundary46to41
    {
        type            processor;
        value           uniform 0.242421;
    }
    procBoundary46to45
    {
        type            processor;
        value           nonuniform List<scalar> 5(0.15701 0.157287 0.157592 0.157952 0.158381);
    }
    procBoundary46to47
    {
        type            processor;
        value           nonuniform List<scalar> 5(0.242498 0.24258 0.242668 0.24277 0.242888);
    }
}


// ************************************************************************* //
