/*--------------------------------*- C++ -*----------------------------------*\
  =========                 |
  \\      /  F ield         | OpenFOAM: The Open Source CFD Toolbox
   \\    /   O peration     | Website:  https://openfoam.org
    \\  /    A nd           | Version:  7
     \\/     M anipulation  |
\*---------------------------------------------------------------------------*/
FoamFile
{
    version     2.0;
    format      ascii;
    class       volVectorField;
    location    "2.4";
    object      U;
}
// * * * * * * * * * * * * * * * * * * * * * * * * * * * * * * * * * * * * * //

dimensions      [0 1 -1 0 0 0 0];

internalField   nonuniform List<vector> 
344
(
(1.94329 0.0350702 -8.06766e-16)
(1.93814 0.0346401 -7.64638e-16)
(1.93309 0.0342158 -7.87315e-16)
(1.92814 0.0337973 -7.4864e-16)
(1.92329 0.0333847 -7.3085e-16)
(1.91854 0.032978 -6.98429e-16)
(1.91387 0.0325771 -7.05846e-16)
(1.9093 0.0321823 -6.68479e-16)
(1.90483 0.0317935 -6.75135e-16)
(1.90043 0.0314109 -6.42413e-16)
(1.89613 0.0310347 -6.40071e-16)
(1.89191 0.030665 -6.06157e-16)
(1.88777 0.030302 -5.68623e-16)
(1.88371 0.029946 -5.52438e-16)
(1.87972 0.0295971 -5.1652e-16)
(1.87582 0.0292555 -5.23403e-16)
(1.87198 0.0289215 -4.85399e-16)
(1.86822 0.0285951 -4.94355e-16)
(1.86453 0.0282766 -4.58519e-16)
(1.8609 0.0279661 -4.57439e-16)
(1.85733 0.0276637 -4.1431e-16)
(1.85383 0.0273693 -3.90256e-16)
(1.85039 0.027083 -3.51281e-16)
(1.847 0.0268047 -3.79469e-16)
(1.84367 0.0265342 -3.2666e-16)
(1.8404 0.0262713 -3.27049e-16)
(1.83717 0.0260156 -2.82625e-16)
(1.834 0.0257666 -2.97929e-16)
(1.83087 0.025524 -2.50139e-16)
(1.82779 0.025287 -2.25336e-16)
(1.82476 0.0250549 -1.87077e-16)
(1.82177 0.0248269 -1.94383e-16)
(1.81883 0.0246021 -1.4993e-16)
(1.81592 0.0243794 -1.52988e-16)
(1.81306 0.0241578 -1.17335e-16)
(1.81025 0.0239361 -1.07846e-16)
(1.80748 0.023713 -7.51964e-17)
(1.80475 0.0234872 -3.53674e-17)
(1.80206 0.0232574 -1.41385e-17)
(1.79942 0.0230221 2.62315e-17)
(1.79683 0.0227801 2.04305e-17)
(1.79428 0.0225299 6.33461e-17)
(1.79179 0.0222702 5.76519e-17)
(1.78934 0.0219997 9.66147e-17)
(1.78695 0.0217172 1.02817e-16)
(1.78462 0.0214216 1.40885e-16)
(1.78234 0.0211121 1.64119e-16)
(1.78013 0.0207877 2.01928e-16)
(1.77797 0.0204479 1.79429e-16)
(1.86381 0.0468486 -1.21388e-15)
(1.85769 0.0461957 -1.21516e-15)
(1.85172 0.0455538 -1.18476e-15)
(1.84587 0.0449227 -1.1725e-15)
(1.84016 0.0443022 -1.14604e-15)
(1.83457 0.0436921 -1.11241e-15)
(1.8291 0.0430921 -1.11981e-15)
(1.82375 0.042502 -1.08e-15)
(1.81853 0.0419216 -1.08708e-15)
(1.81342 0.0413505 -1.04733e-15)
(1.80842 0.0407886 -1.05506e-15)
(1.80353 0.0402356 -1.01824e-15)
(1.79876 0.0396913 -1.00925e-15)
(1.79408 0.0391553 -9.70082e-16)
(1.78952 0.0386276 -9.77132e-16)
(1.78505 0.0381079 -9.35164e-16)
(1.78069 0.037596 -9.27007e-16)
(1.77642 0.0370917 -8.81731e-16)
(1.77225 0.036595 -8.99311e-16)
(1.76817 0.0361056 -8.57599e-16)
(1.76419 0.0356236 -8.52053e-16)
(1.7603 0.0351489 -8.08939e-16)
(1.75649 0.0346814 -8.23462e-16)
(1.75277 0.0342212 -7.69687e-16)
(1.74913 0.0337683 -7.86068e-16)
(1.74558 0.0333228 -7.34905e-16)
(1.7421 0.0328848 -7.52316e-16)
(1.73871 0.0324545 -7.04679e-16)
(1.73539 0.032032 -6.91516e-16)
(1.73214 0.0316175 -6.54781e-16)
(1.72897 0.0312113 -6.06639e-16)
(1.72587 0.0308135 -6.24173e-16)
(1.72283 0.0304243 -5.67109e-16)
(1.71986 0.030044 -5.8399e-16)
(1.71696 0.0296728 -5.29326e-16)
(1.71411 0.0293108 -5.44118e-16)
(1.71132 0.0289581 -4.99736e-16)
(1.70859 0.028615 -4.87713e-16)
(1.70592 0.0282813 -4.34323e-16)
(1.7033 0.0279572 -4.46472e-16)
(1.70072 0.0276425 -3.91628e-16)
(1.6982 0.0273372 -3.84814e-16)
(1.69572 0.0270408 -3.34123e-16)
(1.69329 0.0267532 -3.51084e-16)
(1.6909 0.0264739 -3.00188e-16)
(1.68856 0.0262023 -2.9247e-16)
(1.68625 0.0259379 -2.42417e-16)
(1.68398 0.0256797 -2.57249e-16)
(1.68175 0.0254271 -2.01679e-16)
(1.67956 0.025179 -2.14047e-16)
(1.6774 0.0249344 -1.5768e-16)
(1.67528 0.024692 -1.73926e-16)
(1.6732 0.0244507 -1.25298e-16)
(1.67115 0.0242091 -1.09719e-16)
(1.66914 0.0239657 -6.9037e-17)
(1.66717 0.0237193 -2.6148e-17)
(1.66524 0.0234682 -3.41717e-17)
(1.66335 0.0232109 2.0696e-17)
(1.66149 0.0229461 7.45687e-18)
(1.65968 0.0226723 6.18974e-17)
(1.65792 0.022388 4.8725e-17)
(1.6562 0.022092 9.60992e-17)
(1.65453 0.021783 1.08039e-16)
(1.65291 0.02146 1.55374e-16)
(1.65134 0.0211221 1.45664e-16)
(1.64982 0.0207686 1.97251e-16)
(1.64836 0.020399 2.03235e-16)
(1.64695 0.0200131 2.49033e-16)
(1.66089 0.0484163 -1.3266e-15)
(1.65635 0.0476907 -1.31012e-15)
(1.65192 0.046978 -1.29118e-15)
(1.64761 0.0462779 -1.25778e-15)
(1.6434 0.0455902 -1.23926e-15)
(1.6393 0.0449146 -1.21303e-15)
(1.6353 0.0442509 -1.19626e-15)
(1.63141 0.0435987 -1.17111e-15)
(1.62762 0.0429577 -1.15615e-15)
(1.62392 0.0423278 -1.13131e-15)
(1.62032 0.0417085 -1.1174e-15)
(1.61681 0.0410997 -1.09669e-15)
(1.61339 0.0405009 -1.05872e-15)
(1.61006 0.039912 -1.03929e-15)
(1.60682 0.0393327 -1.02266e-15)
(1.60367 0.0387628 -1.00025e-15)
(1.60059 0.0382021 -9.62581e-16)
(1.5976 0.0376503 -9.38366e-16)
(1.59469 0.0371074 -9.28534e-16)
(1.59185 0.0365731 -9.09407e-16)
(1.58909 0.0360475 -8.74614e-16)
(1.58641 0.0355304 -8.55097e-16)
(1.58379 0.0350219 -8.38849e-16)
(1.58125 0.0345219 -8.10967e-16)
(1.57878 0.0340306 -7.95961e-16)
(1.57637 0.0335479 -7.70656e-16)
(1.57403 0.0330741 -7.57978e-16)
(1.57175 0.0326092 -7.37403e-16)
(1.56953 0.0321536 -6.92716e-16)
(1.56737 0.0317073 -6.71917e-16)
(1.56527 0.0312705 -6.41903e-16)
(1.56322 0.0308436 -6.24016e-16)
(1.56123 0.0304267 -5.92032e-16)
(1.55929 0.03002 -5.80185e-16)
(1.5574 0.0296237 -5.51516e-16)
(1.55555 0.0292379 -5.35557e-16)
(1.55376 0.0288629 -5.16504e-16)
(1.552 0.0284985 -4.71164e-16)
(1.55029 0.028145 -4.46209e-16)
(1.54861 0.0278021 -4.26817e-16)
(1.54698 0.0274698 -3.9983e-16)
(1.54538 0.0271478 -3.59932e-16)
(1.54381 0.0268358 -3.38253e-16)
(1.54228 0.0265334 -3.25893e-16)
(1.54079 0.02624 -3.0475e-16)
(1.53932 0.0259549 -2.64998e-16)
(1.53788 0.0256775 -2.42511e-16)
(1.53647 0.0254068 -2.26142e-16)
(1.53509 0.0251418 -1.96073e-16)
(1.53374 0.0248815 -1.82733e-16)
(1.53242 0.0246246 -1.5353e-16)
(1.53112 0.0243699 -1.39666e-16)
(1.52985 0.0241159 -1.20006e-16)
(1.52861 0.0238612 -7.49221e-17)
(1.5274 0.0236044 -5.46975e-17)
(1.52622 0.0233438 -2.44124e-17)
(1.52507 0.0230779 -5.13449e-18)
(1.52396 0.0228052 2.46351e-17)
(1.52287 0.0225242 3.93373e-17)
(1.52182 0.0222333 6.49122e-17)
(1.52081 0.0219313 7.77793e-17)
(1.51984 0.0216167 9.98165e-17)
(1.5189 0.0212886 1.43018e-16)
(1.518 0.0209458 1.67791e-16)
(1.51715 0.0205877 1.80103e-16)
(1.51634 0.0202136 2.03944e-16)
(1.51557 0.0198232 2.35134e-16)
(1.51485 0.0194165 2.57622e-16)
(1.45294 0.0484809 -1.3621e-15)
(1.45018 0.047709 -1.34596e-15)
(1.44751 0.0469514 -1.32034e-15)
(1.44492 0.0462076 -1.28802e-15)
(1.44241 0.0454775 -1.26047e-15)
(1.43998 0.0447607 -1.23354e-15)
(1.43763 0.0440571 -1.20981e-15)
(1.43535 0.0433662 -1.1809e-15)
(1.43315 0.0426877 -1.17359e-15)
(1.43102 0.0420214 -1.14373e-15)
(1.42896 0.0413669 -1.13306e-15)
(1.42696 0.0407239 -1.10305e-15)
(1.42504 0.0400921 -1.06787e-15)
(1.42317 0.0394713 -1.03904e-15)
(1.42138 0.0388611 -1.01211e-15)
(1.41964 0.0382613 -9.87654e-16)
(1.41797 0.0376717 -9.70088e-16)
(1.41635 0.037092 -9.33934e-16)
(1.41479 0.0365222 -9.25458e-16)
(1.41329 0.0359621 -8.95571e-16)
(1.41184 0.0354116 -8.78926e-16)
(1.41044 0.0348707 -8.41275e-16)
(1.4091 0.0343393 -8.13438e-16)
(1.4078 0.0338175 -7.82486e-16)
(1.40656 0.0333053 -7.78383e-16)
(1.40536 0.0328028 -7.44896e-16)
(1.40421 0.0323103 -7.38185e-16)
(1.4031 0.0318278 -7.06507e-16)
(1.40203 0.0313555 -6.67683e-16)
(1.401 0.0308936 -6.37706e-16)
(1.40002 0.0304424 -6.07404e-16)
(1.39907 0.030002 -5.82295e-16)
(1.39815 0.0295728 -5.51058e-16)
(1.39727 0.0291547 -5.48428e-16)
(1.39642 0.0287481 -5.13808e-16)
(1.39561 0.028353 -5.07386e-16)
(1.39482 0.0279696 -4.75464e-16)
(1.39406 0.0275978 -4.3949e-16)
(1.39333 0.0272376 -4.05876e-16)
(1.39262 0.0268888 -3.78303e-16)
(1.39194 0.0265513 -3.5017e-16)
(1.39128 0.0262247 -3.39412e-16)
(1.39064 0.0259087 -3.01729e-16)
(1.39002 0.0256026 -2.96403e-16)
(1.38942 0.0253059 -2.64391e-16)
(1.38884 0.0250177 -2.47691e-16)
(1.38828 0.0247373 -2.06519e-16)
(1.38773 0.0244636 -1.78051e-16)
(1.38721 0.0241955 -1.47117e-16)
(1.3867 0.0239319 -1.43707e-16)
(1.38621 0.0236714 -1.10782e-16)
(1.38574 0.0234126 -1.06415e-16)
(1.38528 0.0231542 -7.60459e-17)
(1.38485 0.0228946 -3.85046e-17)
(1.38443 0.0226321 -8.86406e-18)
(1.38404 0.0223654 1.66793e-17)
(1.38367 0.0220928 4.19089e-17)
(1.38331 0.0218127 7.17437e-17)
(1.38299 0.0215237 7.05742e-17)
(1.38269 0.0212243 1.01272e-16)
(1.38241 0.0209133 1.0735e-16)
(1.38216 0.0205894 1.37135e-16)
(1.38194 0.0202516 1.72425e-16)
(1.38174 0.0198992 2.01537e-16)
(1.38158 0.0195314 2.23288e-16)
(1.38144 0.0191479 2.46645e-16)
(1.38134 0.0187485 2.56001e-16)
(1.38127 0.0183334 2.8954e-16)
(1.24603 0.0469566 -1.35525e-15)
(1.24514 0.0461702 -1.33473e-15)
(1.24429 0.0453986 -1.31197e-15)
(1.2435 0.0446416 -1.2737e-15)
(1.24275 0.0438989 -1.25136e-15)
(1.24206 0.0431702 -1.2277e-15)
(1.2414 0.0424552 -1.20474e-15)
(1.24079 0.0417535 -1.18052e-15)
(1.24022 0.0410649 -1.1597e-15)
(1.2397 0.0403891 -1.13621e-15)
(1.23921 0.0397257 -1.11607e-15)
(1.23877 0.0390743 -1.09439e-15)
(1.23836 0.0384348 -1.04928e-15)
(1.23799 0.0378067 -1.02846e-15)
(1.23766 0.0371899 -1.0035e-15)
(1.23736 0.0365841 -9.80929e-16)
(1.23709 0.035989 -9.38391e-16)
(1.23686 0.0354044 -9.19859e-16)
(1.23666 0.0348303 -9.02356e-16)
(1.23649 0.0342664 -8.80935e-16)
(1.23635 0.0337128 -8.38458e-16)
(1.23624 0.0331693 -8.20469e-16)
(1.23616 0.032636 -7.9755e-16)
(1.2361 0.0321129 -7.74012e-16)
(1.23607 0.0316001 -7.54242e-16)
(1.23607 0.0310976 -7.29598e-16)
(1.23609 0.0306057 -7.1016e-16)
(1.23613 0.0301246 -6.89679e-16)
(1.23619 0.0296542 -6.41001e-16)
(1.23627 0.029195 -6.19245e-16)
(1.23637 0.0287471 -5.95558e-16)
(1.23649 0.0283107 -5.73945e-16)
(1.23662 0.0278859 -5.48514e-16)
(1.23677 0.027473 -5.26157e-16)
(1.23693 0.0270721 -5.03138e-16)
(1.23711 0.0266832 -4.82217e-16)
(1.2373 0.0263063 -4.64014e-16)
(1.2375 0.0259415 -4.1318e-16)
(1.23771 0.0255886 -3.90952e-16)
(1.23794 0.0252475 -3.6835e-16)
(1.23817 0.0249178 -3.48223e-16)
(1.23841 0.0245991 -3.03403e-16)
(1.23865 0.0242909 -2.85927e-16)
(1.23891 0.0239927 -2.70218e-16)
(1.23917 0.0237037 -2.53055e-16)
(1.23943 0.0234231 -2.09259e-16)
(1.23971 0.0231499 -1.91011e-16)
(1.23999 0.0228831 -1.68328e-16)
(1.24027 0.0226215 -1.44794e-16)
(1.24057 0.0223639 -1.26238e-16)
(1.24087 0.0221089 -1.06318e-16)
(1.24118 0.0218551 -8.55466e-17)
(1.24149 0.0216011 -6.8196e-17)
(1.24182 0.0213452 -2.14471e-17)
(1.24215 0.0210861 -2.89921e-18)
(1.2425 0.0208222 1.6807e-17)
(1.24285 0.0205519 3.81358e-17)
(1.24322 0.0202739 6.11327e-17)
(1.2436 0.0199866 7.84409e-17)
(1.24399 0.0196888 9.89628e-17)
(1.2444 0.0193793 1.14664e-16)
(1.24482 0.0190571 1.34856e-16)
(1.24525 0.0187213 1.79962e-16)
(1.2457 0.0183712 1.94974e-16)
(1.24616 0.0180064 2.15318e-16)
(1.24664 0.0176267 2.33319e-16)
(1.24713 0.0172321 2.73049e-16)
(1.24764 0.016823 2.85221e-16)
(1.04588 0.0438849 -1.29346e-15)
(1.0468 0.043118 -1.27112e-15)
(1.04773 0.0423658 -1.2485e-15)
(1.04867 0.041628 -1.21295e-15)
(1.04962 0.0409045 -1.19236e-15)
(1.05059 0.0401949 -1.17113e-15)
(1.05156 0.0394989 -1.14685e-15)
(1.05255 0.0388163 -1.12486e-15)
(1.05355 0.0381467 -1.10109e-15)
(1.05456 0.0374899 -1.07956e-15)
(1.05557 0.0368454 -1.05605e-15)
(1.0566 0.0362131 -1.03434e-15)
(1.05763 0.0355925 -9.91408e-16)
(1.05867 0.0349834 -9.74166e-16)
(1.05972 0.0343857 -9.50831e-16)
(1.06078 0.0337989 -9.30228e-16)
(1.06184 0.0332229 -8.8771e-16)
(1.06291 0.0326576 -8.69017e-16)
(1.06398 0.0321028 -8.47312e-16)
(1.06506 0.0315584 -8.27922e-16)
(1.06614 0.0310243 -7.87247e-16)
(1.06723 0.0305005 -7.71202e-16)
(1.06832 0.0299871 -7.50563e-16)
)
;

boundaryField
{
    inlet
    {
        type            uniformFixedValue;
        uniformValue    constant (1 0 0);
        value           nonuniform 0();
    }
    outlet
    {
        type            pressureInletOutletVelocity;
        value           nonuniform 0();
    }
    wall
    {
        type            fixedValue;
        value           nonuniform 0();
    }
    wedge1
    {
        type            wedge;
    }
    wedge2
    {
        type            wedge;
    }
    axis
    {
        type            empty;
    }
    procBoundary16to10
    {
        type            processor;
        value           nonuniform List<vector> 
68
(
(2.10388 0.0326853 -6.86279e-16)
(2.09788 0.0323228 -6.75645e-16)
(2.09198 0.0319647 -6.53631e-16)
(2.08619 0.031611 -6.50277e-16)
(2.0805 0.0312618 -6.44236e-16)
(2.0749 0.030917 -6.22871e-16)
(2.06941 0.0305767 -6.1682e-16)
(2.06401 0.0302409 -5.98821e-16)
(2.0587 0.0299098 -5.93301e-16)
(2.05349 0.0295834 -5.88629e-16)
(2.04836 0.029262 -5.52502e-16)
(2.04333 0.0289456 -5.44348e-16)
(2.03838 0.0286344 -5.26736e-16)
(2.03351 0.0283287 -5.09701e-16)
(2.02873 0.0280285 -4.83605e-16)
(2.02402 0.0277342 -4.74054e-16)
(2.0194 0.0274458 -4.53028e-16)
(2.01485 0.0271635 -4.44955e-16)
(2.01037 0.0268876 -4.36374e-16)
(2.00596 0.026618 -3.95114e-16)
(2.00163 0.026355 -3.80714e-16)
(1.99736 0.0260985 -3.66358e-16)
(1.99316 0.0258486 -3.45824e-16)
(1.98902 0.0256052 -3.18428e-16)
(1.98494 0.0253683 -3.04491e-16)
(1.98091 0.0251375 -2.96643e-16)
(1.97695 0.0249127 -2.77306e-16)
(1.97304 0.0246936 -2.47931e-16)
(1.96918 0.0244797 -2.3361e-16)
(1.96538 0.0242705 -2.21212e-16)
(1.96163 0.0240654 -1.92755e-16)
(1.95792 0.0238637 -1.84537e-16)
(1.95427 0.0236648 -1.59225e-16)
(1.95066 0.0234676 -1.48145e-16)
(1.9471 0.0232712 -1.3218e-16)
(1.94358 0.0230747 -9.04631e-17)
(1.94011 0.0228769 -7.77709e-17)
(1.93669 0.0226768 -5.83364e-17)
(1.93332 0.022473 -3.46974e-17)
(1.92999 0.0222644 -4.59377e-18)
(1.92672 0.0220498 1.04241e-17)
(1.9235 0.0218279 3.81044e-17)
(1.92033 0.0215974 5.09539e-17)
(1.91721 0.0213572 6.54195e-17)
(1.91415 0.0211061 1.05337e-16)
(1.91115 0.0208431 1.20261e-16)
(1.90822 0.0205673 1.36497e-16)
(1.90534 0.0202778 1.6211e-16)
(1.90254 0.0199739 1.88962e-16)
(2.05585 0.0439778 -1.04895e-15)
(2.04848 0.0434158 -1.05069e-15)
(2.04126 0.0428626 -1.02872e-15)
(2.03419 0.0423181 -1.02194e-15)
(2.02725 0.0417822 -1.00151e-15)
(2.02045 0.0412547 -9.77106e-16)
(2.01378 0.0407353 -9.65211e-16)
(2.00725 0.040224 -9.39631e-16)
(2.00084 0.0397204 -9.45515e-16)
(1.99456 0.0392244 -9.17758e-16)
(1.9884 0.0387359 -9.22195e-16)
(1.98236 0.0382544 -8.94218e-16)
(1.97644 0.03778 -8.93753e-16)
(1.97064 0.0373124 -8.63793e-16)
(1.96495 0.0368514 -8.50567e-16)
(1.95937 0.0363968 -8.2077e-16)
(1.9539 0.0359485 -8.43164e-16)
(1.94854 0.0355063 -8.01569e-16)
(1.94854 0.0355063 -8.01569e-16)
)
;
    }
    procBoundary16to11
    {
        type            processor;
        value           uniform (1.77589 0.0200923 2.28622e-16);
    }
    procBoundary16to15
    {
        type            processor;
        value           nonuniform List<vector> 3((1.87006 0.0475127 -1.24594e-15) (1.66555 0.0491549 -1.3489e-15) (1.45578 0.0492672 -1.39066e-15));
    }
    procBoundary16to17
    {
        type            processor;
        value           nonuniform List<vector> 4((1.64561 0.0196108 2.34467e-16) (1.51418 0.0189937 2.69219e-16) (1.38123 0.017903 2.92991e-16) (1.24816 0.0163999 2.99923e-16));
    }
    procBoundary16to21
    {
        type            processor;
        value           nonuniform List<vector> 2((1.24697 0.047758 -1.37862e-15) (1.04498 0.0446668 -1.31665e-15));
    }
    procBoundary16to22
    {
        type            processor;
        value           nonuniform List<vector> 
69
(
(1.06941 0.029484 -7.27567e-16)
(1.0705 0.0289914 -7.03895e-16)
(1.0716 0.0285093 -6.83063e-16)
(1.07269 0.0280379 -6.59129e-16)
(1.07379 0.0275774 -6.39829e-16)
(1.07489 0.027128 -5.94416e-16)
(1.07598 0.0266898 -5.77381e-16)
(1.07708 0.026263 -5.56078e-16)
(1.07817 0.0258478 -5.32575e-16)
(1.07926 0.0254444 -5.11218e-16)
(1.08035 0.0250528 -4.85477e-16)
(1.08143 0.0246731 -4.66753e-16)
(1.08251 0.0243055 -4.42095e-16)
(1.08359 0.0239498 -4.22819e-16)
(1.08466 0.023606 -3.7705e-16)
(1.08573 0.0232739 -3.58955e-16)
(1.08679 0.0229532 -3.39501e-16)
(1.08784 0.0226436 -3.19634e-16)
(1.0889 0.0223446 -2.75972e-16)
(1.08994 0.0220558 -2.5915e-16)
(1.09098 0.0217763 -2.4023e-16)
(1.09201 0.0215055 -2.23539e-16)
(1.09304 0.0212425 -1.80315e-16)
(1.09407 0.0209864 -1.65157e-16)
(1.09509 0.0207359 -1.43945e-16)
(1.0961 0.0204901 -1.257e-16)
(1.09712 0.0202475 -1.03802e-16)
(1.09812 0.020007 -8.70452e-17)
(1.09913 0.0197672 -6.40915e-17)
(1.10013 0.0195265 -4.79279e-17)
(1.10113 0.0192837 -6.50668e-18)
(1.10213 0.0190372 9.48132e-18)
(1.10313 0.0187856 2.67585e-17)
(1.10413 0.0185276 4.5985e-17)
(1.10513 0.0182617 6.68491e-17)
(1.10613 0.0179868 8.61822e-17)
(1.10713 0.0177017 1.03857e-16)
(1.10812 0.0174053 1.22846e-16)
(1.10912 0.0170969 1.40709e-16)
(1.11012 0.0167757 1.82492e-16)
(1.11112 0.0164412 1.96561e-16)
(1.11212 0.0160931 2.14514e-16)
(1.11311 0.0157315 2.30626e-16)
(1.11411 0.0153564 2.67987e-16)
(1.1151 0.0149684 2.80542e-16)
(0.920038 0.0409593 -1.22379e-15)
(0.922034 0.0402265 -1.19977e-15)
(0.924019 0.0395079 -1.17986e-15)
(0.925994 0.0388032 -1.15349e-15)
(0.927958 0.0381123 -1.13015e-15)
(0.929911 0.0374349 -1.10771e-15)
(0.931854 0.0367706 -1.08143e-15)
(0.933786 0.0361193 -1.06222e-15)
(0.935708 0.0354805 -1.03593e-15)
(0.937618 0.0348541 -1.01793e-15)
(0.939518 0.0342397 -9.92123e-16)
(0.941407 0.033637 -9.72725e-16)
(0.943285 0.0330457 -9.43889e-16)
(0.945152 0.0324656 -9.20297e-16)
(0.947008 0.0318965 -8.92726e-16)
(0.948853 0.031338 -8.75168e-16)
(0.950687 0.0307901 -8.45638e-16)
(0.952509 0.0302525 -8.2203e-16)
(0.954319 0.0297251 -7.94704e-16)
(0.956118 0.0292079 -7.77731e-16)
(0.957905 0.0287008 -7.49008e-16)
(0.959679 0.0282037 -7.2709e-16)
(1.06941 0.029484 -7.27567e-16)
(0.961442 0.0277167 -7.00806e-16)
)
;
    }
}


// ************************************************************************* //
