/*--------------------------------*- C++ -*----------------------------------*\
  =========                 |
  \\      /  F ield         | OpenFOAM: The Open Source CFD Toolbox
   \\    /   O peration     | Website:  https://openfoam.org
    \\  /    A nd           | Version:  7
     \\/     M anipulation  |
\*---------------------------------------------------------------------------*/
FoamFile
{
    version     2.0;
    format      ascii;
    class       volScalarField;
    location    "2";
    object      p;
}
// * * * * * * * * * * * * * * * * * * * * * * * * * * * * * * * * * * * * * //

dimensions      [0 2 -2 0 0 0 0];

internalField   nonuniform List<scalar> 
433
(
-413.71
-386.413
-357.175
-326.508
-294.819
-262.517
-461.376
-432.408
-407.052
-383.586
-358.619
-332.773
-305.2
-275.334
-243.315
133.126
133.007
131.618
122.758
105.638
84.3966
64.353
49.6245
41.4632
468.934
445.534
424.589
397.412
359.49
317.076
276.113
241.001
211.776
185.279
237.623
224.149
212.435
196.881
173.689
146.33
118.941
95.1635
75.8252
59.3119
-333.3
-318.235
-304.548
-290.691
-276.119
-261.34
-245.336
-227.464
-207.84
-186.994
-165.483
-547.27
-516.182
-488.603
-461.212
-430.764
-398.133
-362.807
-324.728
-284.509
-243.541
-203.889
-167.717
-8.10503
-0.920345
3.66636
1.96797
-5.09289
-13.2288
-17.7915
-16.1726
-8.90769
0.493499
7.96085
11.1204
464.488
444.589
426.53
400.954
364.407
324.418
287.156
255.345
227.291
199.752
170.869
140.894
111.499
326.333
308.124
290.823
267.824
235.884
200.88
167.987
139.869
115.601
93.28
72.5897
54.1928
38.4092
25.4685
-223.4
-214.366
-206.872
-200.955
-196.538
-192.275
-186.103
-177.215
-165.963
-152.904
-138.597
-123.26
-107.01
-90.6045
-74.9745
-61.0232
-559.987
-529.245
-501.799
-473.938
-442.232
-407.347
-368.994
-327.698
-284.884
-242.435
-202.604
-166.993
-136.374
-110.557
-88.9285
-70.9879
-56.4437
-103.509
-92.8164
-84.9629
-81.1156
-78.8827
-74.6264
-65.4076
-50.4372
-31.8649
-13.9309
-0.726355
5.75136
6.32261
3.28775
-1.00877
-5.16035
-8.56069
-11.0559
452.574
435.008
419.252
396.187
362.992
327.116
293.26
262.63
233.651
204.244
173.791
143.084
113.537
86.5277
63.027
43.475
27.7785
15.5488
6.32901
375.361
355.134
335.423
309.151
273.42
234.71
198.06
165.48
136.332
109.795
86.1572
65.5828
48.3963
34.5911
23.6182
14.8434
7.76878
2.09128
-2.36281
-5.78349
-8.33242
-167.834
-161.517
-157.113
-155.682
-156.541
-157.297
-155.483
-150.345
-142.428
-132.492
-121.239
-108.466
-94.292
-79.4
-64.8889
-51.8487
-40.9756
-32.4694
-26.1577
-21.6705
-18.5755
-16.4945
-558.017
-527.377
-499.978
-471.729
-438.985
-402.39
-361.84
-318.412
-274.337
-232.093
-193.536
-159.756
-130.739
-105.848
-84.5229
-66.5442
-51.8664
-40.4287
-31.8879
-25.6394
-21.1774
-18.076
-15.9757
-14.5885
-149.124
-137.052
-127.47
-120.162
-112.299
-100.671
-83.3864
-61.125
-37.0566
-15.8931
-1.52771
4.99859
5.37895
2.4315
-1.44509
-4.94354
-7.66802
-9.52734
-10.7336
-11.4736
-11.8785
-12.0583
-12.0994
-12.0641
-11.9932
446.967
430.136
415.171
393.197
361.832
328.078
295.49
264.722
234.516
203.664
172.14
140.962
111.378
84.6986
61.7851
42.9145
27.9323
16.3793
7.77661
1.48648
-2.98311
-6.04728
-8.07083
-9.35768
-10.1383
392.675
372.247
352.122
324.712
287.185
246.133
206.625
170.878
138.881
110.575
86.095
65.3977
48.6302
35.3869
24.9428
16.6096
9.89127
4.49966
0.264074
-2.95794
-5.37236
-7.12648
-8.35352
-171.336
-164.743
-160.454
-159.474
-160.524
-160.996
-158.388
-152.099
-142.88
-131.787
-119.469
-105.659
-90.5412
-74.9093
-59.9665
-46.7831
-35.997
-27.7193
-21.6719
-17.463
-14.6053
-558.557
-527.615
-499.746
-470.572
-436.229
-397.383
-354.212
-308.446
-262.805
-220.139
-182.015
-149.127
-121.072
-97.0412
-76.4908
-59.2622
-45.3378
-34.6122
-26.7133
-117.763
-107.365
-98.8653
-92.0285
-84.105
-71.9803
-54.348
-32.5992
-10.5515
7.10886
17.1159
19.3553
16.2134
10.6664
4.9862
0.266397
-3.27233
473.748
455.687
439.712
416.475
383.411
347.191
311.079
275.976
241.419
206.921
172.924
140.303
110.057
83.2963
359.666
341.115
322.028
294.782
257.034
215.793
176.467
141.449
111.011
85.2494
63.9232
46.9536
-254.729
-243.74
-235.419
-229.453
-223.818
-216.579
-205.827
-191.459
-174.599
-156.643
-544.29
-513.626
-485.625
-455.562
-419.375
-377.806
-331.541
-283.124
21.99
25.9972
29.211
30.1835
30.748
34.5357
42.7094
528.854
507.827
489.073
461.996
423.114
234.302
221.663
207.253
-423.21
)
;

boundaryField
{
    inlet
    {
        type            zeroGradient;
    }
    outlet
    {
        type            fixedValue;
        value           nonuniform 0();
    }
    cylinder
    {
        type            zeroGradient;
    }
    top
    {
        type            symmetryPlane;
    }
    bottom
    {
        type            symmetryPlane;
    }
    defaultFaces
    {
        type            empty;
    }
    procBoundary13to6
    {
        type            processor;
        value           nonuniform List<scalar> 8(-10.1867 -10.1867 -15.1389 -15.1389 -14.2817 -13.6932 -13.6932 -11.9103);
    }
    procBoundary13to7
    {
        type            processor;
        value           nonuniform List<scalar> 
38
(
-9.17847
-10.5824
-9.70838
-12.7254
-9.17847
-11.5327
-20.9879
-12.7254
-16.9426
-5.68362
-20.9879
-7.24346
60.6549
42.2331
-5.68362
27.7716
34.0747
60.6549
24.471
-137.967
34.0747
-118.56
-235.806
-137.967
-192.686
-235.806
53.5414
379.02
53.5414
333.748
184.591
379.02
152.785
-402.651
184.591
-384.572
-402.651
-439.71
)
;
    }
    procBoundary13to12
    {
        type            processor;
        value           nonuniform List<scalar> 
26
(
-230.197
-210.132
37.676
37.676
158.504
44.0954
44.0954
-144.029
-144.029
-136.484
9.92733
9.92733
84.4262
84.4262
15.1753
15.1753
7.02707
-49.314
-49.314
-45.0746
-45.0746
-12.8014
-12.8014
-0.442239
-0.442239
-5.30826
)
;
    }
    procBoundary13to19
    {
        type            processor;
        value           nonuniform List<scalar> 10(53.0984 45.4514 34.7626 22.3263 10.1999 0.407485 -484.235 -459.732 -437.358 -437.358);
    }
}


// ************************************************************************* //
