/*--------------------------------*- C++ -*----------------------------------*\
  =========                 |
  \\      /  F ield         | OpenFOAM: The Open Source CFD Toolbox
   \\    /   O peration     | Website:  https://openfoam.org
    \\  /    A nd           | Version:  7
     \\/     M anipulation  |
\*---------------------------------------------------------------------------*/
FoamFile
{
    version     2.0;
    format      ascii;
    class       surfaceScalarField;
    location    "2";
    object      phi;
}
// * * * * * * * * * * * * * * * * * * * * * * * * * * * * * * * * * * * * * //

dimensions      [0 3 -1 0 0 0 0];

internalField   nonuniform List<scalar> 
810
(
0.00101218
-8.2717e-06
-0.00134758
-0.000261701
-0.00362042
-0.000411741
-0.00527322
-0.000322997
-0.00604835
2.64477e-05
0.00052286
0.00177757
-0.00178306
0.00456268
-0.00274383
0.00659142
-0.00191573
0.00763062
-0.00104747
0.00790389
-0.000534974
0.00746621
2.59351e-05
0.0063756
0.000767621
0.00481942
0.00158263
0.00229988
-0.000270172
-0.00151289
4.76155e-05
-0.00306162
0.00161244
-0.00348056
0.00412678
-0.00356182
0.00676469
-0.00317287
0.00867037
-0.00187975
0.00931555
0.000122445
0.00862131
0.00227686
0.00393167
-0.00152087
7.98204e-06
-0.00351996
-0.00106254
-0.00400196
-0.00299856
-0.00304022
-0.00452355
-0.00156537
-0.00464773
-0.000242311
-0.00320281
0.000556098
-0.000675964
0.000848475
0.00198448
0.000859296
0.00392085
0.00474918
-0.00112617
0.00113415
-0.00301752
0.000828816
-0.00472304
-0.00129304
-0.00612037
-0.00312622
-0.00717564
-0.00359246
-0.00761703
-0.00276142
-0.00726023
-0.00103276
-0.00614606
0.000870308
-0.00453663
0.00231142
0.00304078
0.000617099
0.00051705
0.000939045
0.00050687
-0.000161769
-0.000192224
-0.00230638
-0.000981611
-0.00445897
-0.00143987
-0.00584084
-0.00137955
-0.00607069
-0.000802906
-0.00527777
7.73838e-05
-0.0039517
0.000985353
-0.00263373
0.00172281
0.00218117
0.00203451
-0.00151746
0.0048246
-0.00228322
0.00623745
-0.00160507
0.00619251
-0.000936679
0.00534946
-0.000596813
0.00416023
-0.000190325
0.00292408
0.00043325
0.00177331
0.00122815
0.000720682
0.00203799
-0.000226478
0.00266997
-0.000988041
0.00294273
0.00276743
0.000330801
-0.00184826
0.00148248
-0.0034349
0.00332475
-0.00344734
0.00537715
-0.00298908
0.00699001
-0.00220966
0.00760257
-0.000802895
0.00701861
0.00101721
0.00544493
0.00280183
0.00344324
0.00403967
0.00161486
0.00449836
0.000335411
0.00422218
0.00343145
-0.00142447
-0.00042379
-0.00307748
-0.00178189
-0.00312062
-0.0034042
-0.0018686
-0.00424111
-0.000480887
-0.00359738
0.000297652
-0.00158143
0.000321186
0.00099368
-5.93884e-05
0.0031824
-0.000375833
0.00435612
-0.00036476
0.00448729
-7.30054e-05
0.00393042
0.000271951
0.00308649
0.00217872
-0.00130134
0.000877547
-0.00330189
0.00021866
-0.00465608
-0.00205
-0.0052328
-0.0036644
-0.0052616
-0.00356857
-0.00476557
-0.00207747
-0.00376257
-9.31551e-06
-0.00233255
0.00175238
-0.000750876
0.00277444
0.000581392
0.00315502
0.00141889
0.00309292
0.00176416
0.00274123
0.00169842
0.00224447
0.00165378
0.000173544
0.000704003
-9.16706e-05
0.000483875
-0.00135856
-0.000783111
-0.00305536
-0.0019676
-0.00421978
-0.00240415
-0.00425524
-0.00204201
-0.00316146
-0.00110309
-0.0014538
4.47154e-05
0.000182094
0.00113855
0.00127812
0.00205899
0.00167701
0.00269403
0.00151145
0.00290679
0.00110356
0.00265236
0.000692193
0.00206515
0.000393637
0.00138052
0.000795914
0.00198206
-0.00127805
0.00446162
-0.00199569
0.00528391
-0.00160541
0.00455623
-0.00123991
0.00324571
-0.00109362
0.00200047
-0.000796773
0.00109162
-0.000194244
0.000462752
0.000673583
-8.36074e-05
0.00168491
-0.00061056
0.00258595
-0.00105375
0.00313722
-0.00125588
0.00310891
-0.00118048
0.00257697
-0.0009139
0.00179856
-0.000583629
0.00105025
-0.000284149
0.000496434
0.000173254
0.000696086
-0.00197414
0.00216062
-0.00346023
0.00374551
-0.00319029
0.00494783
-0.00244224
0.00544667
-0.00159246
0.00503586
-0.000385969
0.00376101
0.00108061
0.00196699
0.0024676
0.000186464
0.00346543
-0.00108134
0.00385375
-0.0015912
0.00364708
-0.00145945
0.00297717
-0.000973829
0.00209134
-0.000434221
0.00125895
-4.99845e-06
0.000621025
0.000254564
0.000236871
0.000356527
7.12907e-05
5.15908e-05
-0.00136761
-0.000606528
-0.00287083
-0.001957
-0.0028613
-0.00319983
-0.00178185
-0.00352168
-0.00083942
-0.00253489
-0.000641917
-0.000583472
-0.00110852
0.00154722
-0.00173847
0.00309755
-0.0020144
0.00374137
-0.00177539
0.00361474
-0.0011857
0.00305739
-0.000520646
0.00231212
9.69082e-06
0.001561
0.000323878
0.000944767
0.000443142
0.000501761
0.000439943
0.000240069
0.000378227
0.000133006
0.000291732
0.000138086
0.000198158
-0.00138799
0.000781467
-0.00337137
2.63758e-05
-0.00439646
-0.00217474
-0.00436939
-0.00354875
-0.00374933
-0.00315494
-0.00278043
-0.00155237
-0.00154524
0.000312021
-0.000145384
0.00169769
0.00115841
0.00243758
0.00204227
0.00273088
0.00241411
0.00268555
0.00228601
0.00244021
0.00184281
0.00200421
0.00132434
0.00146324
0.00088028
0.000945817
0.000565224
0.000555126
0.000368084
0.000330147
0.000247738
0.000258431
0.000180775
0.00026512
0.00013801
0.00031828
0.000398485
3.18119e-05
0.000749655
-0.000317984
0.000376172
-0.00128953
-0.0012032
-0.00231821
-0.00252007
-0.00259236
-0.00288079
-0.00178577
-0.00235896
-0.000177179
-0.00129657
0.00158688
-6.63666e-05
0.00287985
0.00114461
0.00341767
0.00219306
0.00318508
0.00291814
0.00249637
0.00312892
0.00169268
0.00280791
0.00100991
0.002146
0.000542842
0.00141289
0.000285321
0.000812647
0.000181423
0.000434045
0.000164798
0.000275056
0.000180253
0.000249665
0.000189583
0.00030895
0.000180335
0.000407733
0.000516781
0.00193115
-0.0011815
0.00426416
-0.00195683
0.00485803
-0.00179707
0.00396624
-0.00162828
0.00266299
-0.00157755
0.00157956
-0.00127553
0.000875086
-0.000592097
0.000399884
0.000408836
-4.78289e-05
0.00159232
-0.00052802
0.00267325
-0.000887671
0.00327779
-0.000999207
0.00324046
-0.000860579
0.00266928
-0.00057517
0.00186059
-0.000266766
0.00110448
-1.55566e-05
0.000561437
0.000166774
0.000251714
0.000276627
0.000165203
0.00030892
0.000217371
0.000298264
0.000319606
0.000264887
0.00044111
0.000218086
0.000563582
0.00016269
0.000680306
0.00079101
0.000843032
-0.00202453
0.00233875
-0.00345255
0.0036236
-0.00308192
0.00426402
-0.0022687
0.00412002
-0.00143354
0.00318176
-0.000337281
0.00164089
0.000948774
-0.000128278
0.002178
-0.00161477
0.00307881
-0.0024076
0.00346608
-0.00242457
0.00329476
-0.00188301
0.0026989
-0.00111933
0.00190561
-0.000415123
0.00115638
8.705e-05
0.000602309
0.00037158
0.000276907
0.000462097
0.000161197
0.000451461
0.000175839
0.000394111
0.00027472
0.000321602
0.000392115
0.000250427
0.000512285
0.000185017
0.000628992
0.000124491
0.000740832
6.62855e-05
0.000849215
0.000955742
-0.00137706
-0.000647472
-0.0028911
-0.00193851
-0.00299347
-0.00297954
-0.00217747
-0.0030847
-0.00158114
-0.00202987
-0.00167386
-0.000244561
-0.00228941
0.00156432
-0.00289429
0.00278288
-0.00303766
0.00322219
-0.00262352
0.00305194
-0.00186725
0.00253849
-0.00104574
0.00187738
-0.000395478
0.00125535
8.29184e-06
0.000752614
0.000200137
0.000410464
0.000246552
0.000230492
0.000222819
0.000184931
0.000163611
0.000235047
0.000119725
0.000318606
8.48339e-05
0.000427006
5.55105e-05
0.000541609
2.93088e-05
0.000655193
3.39129e-06
0.000766749
-2.4588e-05
-0.00144147
0.000794002
-0.00340512
2.51395e-05
-0.00425937
-0.0021253
-0.00394669
-0.00339738
-0.00303525
-0.00294132
-0.00185711
-0.00142269
-0.000539341
0.000246551
0.000781862
0.00146168
0.00183215
0.0021719
0.00240224
0.00248186
0.002457
0.00248372
0.00206643
0.00226795
0.00147884
0.00184294
0.000910736
0.00132071
0.000481288
0.000839912
0.000213356
0.000498424
7.29165e-05
0.00032537
1.10077e-05
0.000296956
-1.19914e-05
0.000341606
-8.3469e-06
0.000423362
-2.94205e-06
0.000536204
-4.13671e-06
0.00010888
0.000685122
-6.72102e-05
0.00020123
-0.000753532
-0.00143897
-0.00141379
-0.00273712
-0.00131765
-0.00303746
-0.0002831
-0.00245724
0.00131625
-0.0013528
0.00284217
-6.42382e-05
0.00377594
0.00123812
0.00392748
0.00233032
0.00337702
0.00303418
0.00248324
0.00316174
0.00157344
0.00275274
0.000851849
0.00204231
0.000383321
0.00130844
0.000140732
0.000741013
5.60438e-05
0.000410059
5.25241e-05
0.000300476
8.34559e-05
0.000310674
0.000101953
0.00197905
-0.00129393
0.00435598
-0.0021757
0.00498428
-0.00206728
0.00415125
-0.00190408
0.00292499
-0.0018112
0.0018938
-0.00142606
0.00118043
-0.000639431
0.000635076
0.00048112
0.000131343
0.00174186
-0.000368175
0.00282983
-0.000691354
0.00335736
-0.000753248
0.00322363
-0.000591212
0.0025907
-0.000322846
0.00177394
-6.27699e-05
0.00104836
0.000128214
0.000550029
0.000251469
0.000286804
0.000315166
0.000716883
-0.00201081
0.00198001
-0.00343883
0.00302333
-0.0031106
0.00343723
-0.00231798
0.0030974
-0.00147137
0.0020361
-0.000364767
0.000484665
0.000912009
-0.00114314
0.00210892
-0.00236368
0.00296241
-0.00283726
0.00330341
-0.00258437
0.00310447
-0.00188393
0.00252319
-0.00106294
0.00176971
-0.000371445
0.00108245
8.75764e-05
0.000325748
-0.00152284
-0.000487975
-0.00326031
-0.00170136
-0.00357722
-0.00279368
-0.00296627
-0.00292893
-0.00251657
-0.00192108
-0.00263511
-0.000246227
-0.00312145
0.00139835
-0.0034832
0.00247067
-0.00337328
0.00285249
-0.00279486
0.00272499
-0.00197418
0.00228379
-0.00116774
0.00171675
-0.000571013
-0.00137226
0.000884281
-0.00317792
0.000104308
-0.00388902
-0.00208259
-0.00344018
-0.00337777
-0.0023829
-0.00297835
-0.00105974
-0.00156939
0.000333014
5.58957e-06
0.00157498
0.00122871
0.00238387
0.0020436
0.00265902
0.00244984
0.00240624
0.000464815
0.000419466
0.000759834
-0.000190711
0.000333568
-0.00165633
-0.000261913
-0.00278228
-0.000227739
-0.00301252
0.000609942
-0.00240707
0.00188444
-0.00126891
0.00302
9.31489e-05
0.00360959
0.00205625
-0.00163678
0.00453718
-0.00267164
0.00530399
-0.00242313
0.00459466
-0.00207296
0.00339878
-0.00181665
0.00227595
-0.00128424
0.00136948
-0.000362447
0.000198202
-0.00183498
0.000780433
-0.00325387
0.00148154
-0.00312424
0.00185962
-0.00245103
0.00159649
-0.00155353
0.000641646
-0.00180721
-2.77764e-05
-0.00397217
-0.00108891
-0.00460653
-0.00248988
-0.00412296
-0.00104479
0.00101701
-0.00242794
)
;

boundaryField
{
    inlet
    {
        type            calculated;
        value           nonuniform 0();
    }
    outlet
    {
        type            calculated;
        value           nonuniform 0();
    }
    cylinder
    {
        type            calculated;
        value           uniform 0;
    }
    top
    {
        type            symmetryPlane;
        value           nonuniform 0();
    }
    bottom
    {
        type            symmetryPlane;
        value           nonuniform 0();
    }
    defaultFaces
    {
        type            empty;
        value           nonuniform 0();
    }
    procBoundary13to6
    {
        type            processor;
        value           nonuniform List<scalar> 8(0.000107102 -0.000491221 0.000154775 -0.000624909 -0.000729712 0.000101391 -0.000897599 8.14268e-06);
    }
    procBoundary13to7
    {
        type            processor;
        value           nonuniform List<scalar> 
38
(
0.000877195
-5.66315e-05
0.000987786
0.000656387
-1.38155e-05
0.000776428
0.000404864
0.000105571
0.000532586
0.000236778
0.000308844
0.000316996
0.000589342
0.000311858
0.000383237
0.000229314
0.00117298
-0.000213138
0.000724575
0.00253657
0.00180302
0.00231997
0.001454
0.00348556
0.00257388
0.000604433
0.000858201
-0.00032939
-0.000757401
0.0010366
-0.00293461
-0.00359282
-0.00208366
0.000294241
-0.00301857
-0.00189925
0.00121848
-0.000201474
)
;
    }
    procBoundary13to12
    {
        type            processor;
        value           nonuniform List<scalar> 
26
(
-0.00600111
0.0030424
0.00698952
-0.00472294
0.000833053
-0.00282823
-0.00317755
-0.00163735
-0.00229635
-0.00145912
-0.000328609
-0.00241077
0.000503997
-0.00136491
0.00140954
-0.00108196
-0.000629424
0.000227147
-0.000405383
-5.20193e-05
-6.23197e-05
0.000367257
-0.000121107
0.000214681
-0.000275515
-0.000367578
)
;
    }
    procBoundary13to19
    {
        type            processor;
        value           nonuniform List<scalar> 10(0.00172252 0.00262146 0.00268458 0.00197579 0.000748684 -0.000570099 5.49653e-06 -4.12827e-05 -0.00272643 -0.000113);
    }
}


// ************************************************************************* //
