/*--------------------------------*- C++ -*----------------------------------*\
  =========                 |
  \\      /  F ield         | OpenFOAM: The Open Source CFD Toolbox
   \\    /   O peration     | Website:  https://openfoam.org
    \\  /    A nd           | Version:  7
     \\/     M anipulation  |
\*---------------------------------------------------------------------------*/
FoamFile
{
    version     2.0;
    format      ascii;
    class       volVectorField;
    location    "22";
    object      U;
}
// * * * * * * * * * * * * * * * * * * * * * * * * * * * * * * * * * * * * * //

dimensions      [0 1 -1 0 0 0 0];

internalField   nonuniform List<vector> 
433
(
(0.11806 -0.0240486 2.73622e-18)
(0.154613 -0.0290629 3.19837e-18)
(0.189483 -0.0325184 -1.8994e-18)
(0.223906 -0.0345071 2.37815e-18)
(0.258621 -0.0351417 -1.79198e-18)
(0.109088 -0.0724677 -1.98464e-18)
(0.146216 -0.0670277 -7.5356e-19)
(0.182028 -0.0612989 -3.9027e-18)
(0.217736 -0.0559274 3.01305e-18)
(0.253839 -0.0509873 -5.04519e-18)
(0.290622 -0.0463381 5.61345e-18)
(0.328312 -0.0417886 -2.35017e-18)
(0.367112 -0.0371621 -2.52415e-18)
(0.407178 -0.0323185 3.43342e-18)
(0.448606 -0.0271594 -2.06035e-18)
(0.193349 -0.081043 3.39927e-19)
(0.20407 -0.0780345 7.91504e-20)
(0.21981 -0.0723582 -4.4735e-19)
(0.241336 -0.0659368 3.56952e-18)
(0.267938 -0.0595745 -4.17212e-18)
(0.298621 -0.0534961 7.75344e-18)
(0.332534 -0.0476546 -9.56588e-18)
(0.369067 -0.0419048 1.42457e-18)
(0.407807 -0.0360837 -3.42052e-18)
(0.448472 -0.0300479 5.39378e-18)
(0.490846 -0.02369 -6.61929e-18)
(0.534736 -0.0169435 7.80122e-18)
(0.579942 -0.0097817 -1.95753e-18)
(0.626238 -0.00221397 -2.18607e-18)
(0.673364 0.00572653 3.26612e-19)
(0.19631 -0.014742 1.82813e-19)
(0.214177 -0.0282784 -4.19473e-18)
(0.231231 -0.036112 4.21101e-19)
(0.251095 -0.0404711 1.52893e-18)
(0.275063 -0.0423916 6.96847e-19)
(0.303183 -0.0424202 -4.36593e-18)
(0.334993 -0.0409229 3.29044e-18)
(0.369957 -0.0381137 2.21717e-18)
(0.407594 -0.0341463 4.79289e-18)
(0.447517 -0.0291469 -8.86267e-18)
(0.489405 -0.0232268 3.48428e-18)
(0.532979 -0.0164859 7.64809e-19)
(0.577975 -0.0090166 -1.0339e-18)
(0.624126 -0.000908972 1.34813e-19)
(0.671143 0.00774493 -3.35263e-18)
(0.718709 0.0168539 2.93447e-18)
(0.766476 0.0263011 -7.32554e-19)
(0.814098 0.0359711 2.64903e-18)
(0.860697 0.0460364 -3.76979e-18)
(0.90456 0.0550085 5.99922e-19)
(-0.00777936 -0.0181698 1.28795e-18)
(0.0792725 -0.0179883 -1.0427e-18)
(0.143047 -0.0203401 -2.95345e-18)
(0.193445 -0.0239702 2.97645e-18)
(0.237083 -0.0277243 -8.63689e-19)
(0.277832 -0.0306409 8.72849e-19)
(0.317772 -0.0321294 7.03031e-21)
(0.357957 -0.0318994 2.11615e-18)
(0.39892 -0.0299048 -1.41231e-18)
(0.440927 -0.0262508 -1.1781e-18)
(0.484095 -0.0211206 1.71295e-18)
(0.528438 -0.0147156 1.12693e-19)
(0.573887 -0.0072268 2.40545e-18)
(0.620301 0.0011744 -3.73262e-18)
(0.667473 0.0103346 5.44167e-18)
(0.71514 0.0201121 -4.38525e-18)
(0.762984 0.0303765 1.31883e-18)
(0.810642 0.0409745 1.17449e-18)
(0.857758 0.051781 3.12666e-18)
(0.903426 0.0629089 -6.22106e-18)
(0.94601 0.0730251 -2.70736e-19)
(-0.259636 -0.00960956 2.38935e-18)
(-0.0812644 -0.0358959 -2.09084e-18)
(0.0374315 -0.0453433 9.78703e-19)
(0.121064 -0.0473944 1.28114e-18)
(0.185645 -0.0465362 -1.91227e-19)
(0.24036 -0.044457 1.74651e-18)
(0.290071 -0.041605 -3.85676e-19)
(0.337264 -0.0379765 -2.46191e-18)
(0.383258 -0.0334725 2.26546e-18)
(0.428824 -0.0280181 -1.89817e-18)
(0.474455 -0.0215918 3.31732e-19)
(0.520465 -0.0142155 4.42187e-20)
(0.567022 -0.00593953 4.27089e-19)
(0.614168 0.00316705 -2.75984e-18)
(0.66183 0.01302 -9.12071e-20)
(0.709841 0.0235211 -1.37868e-18)
(0.757949 0.0345585 -1.54104e-18)
(0.80584 0.0460126 6.63828e-19)
(0.853143 0.0577229 2.88412e-18)
(0.899495 0.0695741 -4.14055e-18)
(0.943978 0.0816299 3.21947e-18)
(0.985039 0.0927033 3.18603e-18)
(-0.0113201 -0.0384838 -5.90153e-20)
(0.111754 -0.0740544 6.0083e-19)
(0.180921 -0.0844709 -3.92603e-19)
(0.226195 -0.0826507 -1.17373e-18)
(0.263688 -0.0752447 1.84335e-18)
(0.30058 -0.0656881 -2.36337e-18)
(0.339295 -0.0555943 1.53039e-18)
(0.380204 -0.045587 3.95189e-18)
(0.423007 -0.0357772 -9.3358e-19)
(0.467317 -0.0260552 -5.42083e-20)
(0.512833 -0.0162409 1.42247e-18)
(0.559331 -0.00616088 1.55345e-18)
(0.606628 0.00431711 4.15639e-19)
(0.654529 0.0152707 -1.93919e-18)
(0.702811 0.0267218 -7.64945e-19)
(0.751205 0.0386413 -1.61229e-19)
(0.799392 0.050957 2.59694e-18)
(0.847012 0.0635673 7.20126e-19)
(0.893668 0.0763101 -9.35444e-19)
(0.938983 0.0890856 4.77981e-19)
(0.982034 0.101913 9.71562e-19)
(1.02135 0.113739 1.13888e-19)
(0.0848699 0.075436 -1.27649e-19)
(0.20987 0.0311514 2.04478e-20)
(0.267885 -0.00203047 -1.0138e-18)
(0.295356 -0.0234327 1.35905e-18)
(0.313484 -0.0350732 6.43431e-19)
(0.332941 -0.0396544 5.20305e-19)
(0.357774 -0.0393339 -5.00919e-18)
(0.388534 -0.0356703 5.94993e-18)
(0.424396 -0.0297373 -1.95367e-18)
(0.464225 -0.022198 7.58326e-19)
(0.507007 -0.013444 -3.9933e-18)
(0.551947 -0.00370431 -6.07725e-19)
(0.598441 0.00688322 -7.20509e-20)
(0.646011 0.0182233 -9.97418e-19)
(0.694247 0.0302325 -1.30512e-18)
(0.74277 0.0428203 2.82249e-18)
(0.791198 0.0558804 -2.18702e-18)
(0.83914 0.0692872 3.69248e-18)
(0.886187 0.0829006 -3.62662e-18)
(0.931911 0.0965252 5.71393e-19)
(0.97593 0.110062 -1.09123e-18)
(1.01732 0.123479 2.24659e-18)
(1.05469 0.135834 -5.76286e-18)
(-0.0527634 -0.103715 -6.91869e-19)
(0.0681912 -0.0737541 9.37307e-19)
(0.155539 -0.057954 -1.44415e-18)
(0.219753 -0.0480014 4.40455e-18)
(0.270795 -0.0405138 -3.12929e-18)
(0.315759 -0.0346009 3.34816e-18)
(0.358883 -0.0291263 -9.75737e-19)
(0.402228 -0.0232585 4.25046e-19)
(0.446566 -0.0165515 -2.20473e-18)
(0.492069 -0.00873753 1.11085e-19)
(0.538667 0.000283407 1.19064e-18)
(0.586195 0.0104909 -8.89256e-19)
(0.634447 0.0217865 2.02424e-18)
(0.683179 0.0340314 -5.00318e-18)
(0.732113 0.0470685 4.72662e-18)
(0.780931 0.0607316 -2.22588e-18)
(0.829282 0.074849 2.95198e-18)
(0.87678 0.0892432 -1.52907e-18)
(0.923019 0.103734 9.3743e-19)
(0.967574 0.118093 -1.8634e-18)
(1.01007 0.132222 1.32395e-18)
(1.0496 0.146038 1.39627e-18)
(1.08489 0.158697 1.23883e-18)
(-0.317354 -0.190838 -7.36171e-19)
(-0.103686 -0.154468 1.37346e-18)
(0.0486921 -0.119894 -1.21921e-18)
(0.156833 -0.0912571 8.16141e-19)
(0.237836 -0.0686403 1.07733e-18)
(0.30369 -0.0510554 -1.55083e-18)
(0.361623 -0.0368789 -7.35171e-19)
(0.415569 -0.0245898 2.39446e-19)
(0.467505 -0.0130471 -3.70503e-19)
(0.51842 -0.00149879 5.40783e-19)
(0.568821 0.0104872 -4.81011e-19)
(0.618972 0.023113 9.57366e-19)
(0.668971 0.0364312 -1.60245e-18)
(0.718783 0.0504043 -4.3808e-19)
(0.768267 0.0649392 1.54551e-18)
(0.817187 0.0799066 -1.77349e-19)
(0.865236 0.0951523 1.46505e-18)
(0.912054 0.110503 -1.83167e-18)
(0.95725 0.125777 1.06904e-18)
(1.00041 0.140729 1.90075e-18)
(1.04119 0.155282 -2.21384e-18)
(1.07871 0.16931 -7.40642e-19)
(1.1118 0.182051 -9.23947e-19)
(-0.390918 -0.0262623 -1.29173e-19)
(-0.0804397 -0.0752675 4.098e-19)
(0.105162 -0.0888089 -2.08896e-19)
(0.218281 -0.0845045 2.64068e-19)
(0.294179 -0.0725293 -6.11794e-19)
(0.353111 -0.0575697 1.56265e-19)
(0.405283 -0.0417239 8.03429e-20)
(0.455236 -0.0258354 -6.82148e-19)
(0.504725 -0.0101484 4.09762e-19)
(0.55431 0.0053579 9.31669e-19)
(0.604099 0.0208034 -1.28213e-19)
(0.654035 0.0363206 -5.28577e-19)
(0.70398 0.0520108 -2.96447e-19)
(0.753732 0.067924 7.52167e-19)
(0.803025 0.0840524 6.92289e-19)
(0.851542 0.100332 -8.00981e-19)
(0.89892 0.116652 -7.23848e-19)
(0.944767 0.13286 -8.18875e-19)
(0.98868 0.148783 7.29463e-19)
(1.03025 0.164173 -6.93772e-19)
(1.06915 0.178977 4.02102e-19)
(1.10454 0.193034 6.25453e-19)
(1.13536 0.205645 2.01016e-19)
(-0.52264 0.1295 9.76106e-20)
(-0.0773693 0.0699805 8.84684e-20)
(0.171423 0.024535 -6.9096e-20)
(0.299792 -0.00410648 -1.24731e-19)
(0.365841 -0.0190819 3.3529e-19)
(0.405562 -0.02394 -1.5109e-19)
(0.438025 -0.0214873 1.15611e-19)
(0.471607 -0.0140041 1.15751e-19)
(0.508969 -0.00322691 -8.39228e-20)
(0.550229 0.00965905 9.87862e-20)
(0.594632 0.02391 -5.44169e-19)
(0.641281 0.0390886 2.70304e-19)
(0.689368 0.0549435 -1.62028e-19)
(0.738208 0.0713168 7.99261e-20)
(0.787212 0.088083 4.43794e-19)
(0.835848 0.105114 -6.37672e-19)
(0.88362 0.122259 1.03779e-19)
(0.930057 0.139347 6.31004e-19)
(0.974709 0.156182 -7.09512e-19)
(1.01715 0.172558 2.21124e-19)
(1.05697 0.188202 -1.13336e-19)
(1.09385 0.203077 -2.4469e-19)
(1.12703 0.216984 -1.76239e-19)
(1.15557 0.229265 3.48531e-20)
(-0.155551 0.040328 -4.26809e-21)
(0.0850762 0.0775771 2.07553e-19)
(0.231634 0.0768004 3.17751e-19)
(0.318484 0.0609767 -8.32528e-20)
(0.373118 0.0440855 -4.01883e-19)
(0.413825 0.0321596 2.61146e-19)
(0.450956 0.0263166 -1.36884e-19)
(0.489358 0.0260597 4.59312e-20)
(0.530627 0.0304319 3.1165e-20)
(0.574798 0.0384676 5.09041e-20)
(0.621305 0.0493533 6.62832e-19)
(0.66944 0.0624457 -4.49197e-19)
(0.718523 0.077227 5.42227e-19)
(0.767937 0.0932652 -4.94298e-19)
(0.817122 0.110185 -5.3902e-19)
(0.865561 0.127647 4.10654e-19)
(0.912764 0.145337 -4.36687e-19)
(0.958274 0.162956 6.96394e-20)
(1.00166 0.180225 5.80017e-19)
(1.04251 0.196879 1.47885e-19)
(1.08048 0.212606 -3.51205e-19)
(1.11527 0.227383 -3.27949e-19)
(1.1462 0.240973 2.3985e-19)
(1.17246 0.25274 -4.78156e-19)
(-0.0833083 -0.212033 3.07873e-19)
(0.0674985 -0.130506 -3.84975e-19)
(0.185462 -0.0750608 7.71035e-19)
(0.27658 -0.0372913 -6.71695e-19)
(0.350081 -0.0113555 5.23097e-19)
(0.413622 0.00738275 -6.18022e-19)
(0.47209 0.0223585 -3.16298e-19)
(0.528088 0.0359316 1.20969e-18)
(0.582808 0.0495176 -3.06379e-19)
(0.636693 0.0638873 -3.79448e-19)
(0.68984 0.0793523 4.76291e-19)
(0.742173 0.0959214 -3.27871e-19)
(0.79352 0.113421 1.22763e-18)
(0.84364 0.131585 -8.42271e-20)
(0.892239 0.150105 -4.66999e-19)
(0.938991 0.168661 -1.92013e-19)
(0.983553 0.186939 -9.91227e-19)
(1.02559 0.204643 1.37102e-18)
(1.06476 0.221501 -2.10533e-18)
(1.10078 0.237192 2.04567e-18)
(1.13342 0.251728 1.72496e-19)
(1.16207 0.264855 -1.42598e-18)
(1.18609 0.275941 6.58928e-19)
(-0.314869 -0.216411 1.05898e-18)
(-0.0485753 -0.165242 -1.49684e-18)
(0.128853 -0.116531 9.57725e-19)
(0.250423 -0.0756205 -6.78081e-19)
(0.340577 -0.0422139 -1.35796e-18)
(0.414441 -0.0146398 1.66628e-18)
(0.480146 0.0091102 3.03137e-19)
(0.541602 0.0306718 -1.41942e-18)
(0.600495 0.0511673 -9.62204e-20)
(0.657492 0.0712865 -8.53899e-19)
(0.712828 0.0913979 -4.68945e-19)
(0.766549 0.111639 -1.03022e-19)
(0.818589 0.131991 2.20179e-18)
(0.8688 0.152331 4.61688e-19)
(0.91697 0.172472 -1.14586e-18)
(0.962846 0.192187 -5.36234e-19)
(1.00615 0.21123 9.18562e-19)
(1.0466 0.229356 6.68979e-19)
(1.08392 0.246329 2.04216e-20)
(1.1179 0.261855 -2.66662e-18)
(1.14832 0.276004 3.40852e-18)
(1.17471 0.288525 -1.40514e-18)
(1.19656 0.298775 3.10143e-19)
(-0.267313 -0.028734 3.35747e-19)
(0.0569764 -0.0421224 -9.2354e-20)
(0.242033 -0.0420548 9.63225e-19)
(0.350635 -0.0341942 -2.37683e-18)
(0.422703 -0.0209707 2.29396e-18)
(0.479974 -0.00370436 -2.83588e-18)
(0.532653 0.0163379 1.63952e-18)
(0.584693 0.0380783 4.9529e-19)
(0.637119 0.0607188 2.20529e-18)
(0.689801 0.0837321 -1.09259e-18)
(0.742262 0.106793 -7.71395e-19)
(0.793982 0.129695 3.20378e-19)
(0.84448 0.15228 -3.51918e-18)
(0.89332 0.174395 4.71059e-18)
(0.940105 0.195869 -5.43036e-19)
(0.984474 0.216511 -4.44322e-19)
(1.0261 0.236113 -4.03266e-18)
(1.06469 0.254466 2.16228e-18)
(1.1 0.271367 -1.06962e-18)
(1.13183 0.286548 1.94593e-18)
(1.16001 0.300141 -2.62495e-18)
(1.18416 0.31191 2.33227e-18)
(1.20394 0.321172 -5.80564e-19)
(1.39591e-05 0.0520899 3.53424e-19)
(0.233536 0.0647598 1.84992e-19)
(0.362235 0.059175 8.34343e-19)
(0.436348 0.0508706 -2.40501e-18)
(0.487032 0.0467357 2.48784e-19)
(0.530687 0.04916 -6.41769e-19)
(0.574436 0.0580176 4.60819e-18)
(0.620473 0.072043 -7.91613e-18)
(0.66878 0.0897853 1.57128e-18)
(0.718566 0.109998 3.2213e-19)
(0.768899 0.131709 3.89765e-18)
(0.81893 0.154187 -8.57259e-19)
(0.867939 0.176875 -1.37766e-18)
(0.915319 0.199329 1.37967e-20)
(0.960567 0.221177 -1.97871e-18)
(1.00326 0.242095 -8.20129e-19)
(1.04306 0.261799 3.06539e-18)
(0.218599 -0.0268633 -5.85422e-19)
(0.317681 0.00613144 -1.52337e-18)
(0.393546 0.0256539 3.82643e-19)
(0.456965 0.0410409 1.77503e-18)
(0.514756 0.0563065 -3.60734e-18)
(0.570439 0.0729683 4.17255e-18)
(0.625392 0.0914505 -9.79451e-21)
(1.19369 0.2465 1.38118e-19)
(1.17719 0.223852 -1.40886e-19)
(1.15738 0.200817 1.35192e-18)
(1.13419 0.177591 -1.47366e-18)
(1.10762 0.154413 -7.9988e-20)
(1.07771 0.131554 -2.36092e-18)
(1.04458 0.109314 -6.10203e-19)
(1.00841 0.0880114 -1.09171e-18)
(0.969438 0.0679767 -8.75915e-19)
(1.23193 0.262132 -6.10424e-20)
(1.22071 0.242934 2.14691e-19)
(1.20653 0.223178 -6.37416e-19)
(1.18928 0.202992 -7.47248e-19)
(1.16888 0.182533 1.18471e-18)
(1.14529 0.161996 3.43859e-20)
(1.11853 0.1416 1.07183e-18)
(1.08866 0.121592 1.48287e-18)
(1.05582 0.102243 -1.28071e-18)
(1.25712 0.271332 8.98609e-20)
(1.25074 0.255322 -2.51249e-19)
(1.24183 0.238669 -3.95896e-19)
(1.23023 0.221433 6.75954e-19)
(1.2158 0.203701 1.08903e-18)
(1.19845 0.185591 -1.34727e-19)
(1.17809 0.167246 -8.41435e-20)
(1.15469 0.148842 -1.15473e-19)
(1.12828 0.130581 3.00787e-18)
(1.27095 0.274413 -1.38778e-19)
(1.26857 0.26137 3.20083e-19)
(1.26413 0.247683 1.03222e-19)
(1.25747 0.233363 7.97586e-19)
(1.24842 0.218439 -5.76354e-20)
(1.23682 0.202964 1.30665e-18)
(1.22254 0.187015 -1.70085e-18)
(1.20547 0.170698 1.56156e-18)
(1.18553 0.154145 -2.81532e-18)
(1.27627 0.27264 1.28383e-19)
(1.27692 0.262219 -2.25326e-19)
(1.27601 0.251229 -6.06058e-19)
(1.27337 0.239645 -9.66558e-19)
(1.26882 0.227453 3.59335e-19)
(1.26219 0.214654 2.66968e-19)
(1.25331 0.201268 -2.26487e-19)
(1.24202 0.187338 -3.03009e-18)
(1.22818 0.172927 1.69012e-18)
(1.27562 0.267099 -1.75452e-19)
(1.27838 0.258841 -1.33942e-19)
(1.28003 0.250129 9.86657e-19)
(1.2804 0.240916 6.00743e-19)
(1.27934 0.231163 2.58058e-20)
(1.27669 0.220837 -9.78795e-19)
(1.27225 0.209915 6.07496e-19)
(1.26586 0.198391 9.25529e-19)
(1.25733 0.186276 9.32023e-19)
(1.28099 0.238186 -2.63514e-19)
(1.28243 0.230475 1.52431e-19)
(1.28272 0.22228 -5.06546e-19)
(1.28169 0.213556 1.44968e-19)
(1.27916 0.204264 3.04852e-19)
(1.27496 0.194377 -1.31895e-18)
(1.22882 0.330688 1.67883e-18)
(1.2244 0.310773 -1.47652e-18)
(1.21717 0.29006 1.23438e-19)
(1.20697 0.268608 -1.24356e-19)
(1.25017 0.331885 -5.38577e-19)
(1.2493 0.315588 8.12051e-19)
(1.24607 0.298512 -2.73636e-19)
(1.24034 0.28068 9.00896e-20)
(1.26059 0.328486 6.13929e-19)
(1.26271 0.315232 2.628e-19)
(1.26294 0.301295 2.9597e-19)
(1.26113 0.286661 -1.03712e-19)
(1.26331 0.320443 -7.7028e-19)
(1.26749 0.309803 -2.10522e-19)
(1.27026 0.298606 -3.17025e-19)
(1.27146 0.286819 1.35442e-19)
(1.26101 0.309388 1.03064e-18)
(1.26647 0.300858 6.30341e-19)
(1.2709 0.291918 2.40299e-19)
(1.27421 0.282526 -1.26469e-19)
(1.25577 0.296499 -6.82779e-19)
(1.26186 0.289606 -1.01446e-18)
(1.26725 0.282436 1.72516e-19)
(1.27187 0.274948 1.63538e-19)
(1.24895 0.28272 2.77627e-19)
)
;

boundaryField
{
    inlet
    {
        type            uniformFixedValue;
        uniformValue    constant (1 0 0);
        value           nonuniform 0();
    }
    outlet
    {
        type            pressureInletOutletVelocity;
        value           nonuniform 0();
    }
    cylinder
    {
        type            fixedValue;
        value           nonuniform 0();
    }
    top
    {
        type            symmetryPlane;
    }
    bottom
    {
        type            symmetryPlane;
    }
    defaultFaces
    {
        type            empty;
    }
    procBoundary26to20
    {
        type            processor;
        value           nonuniform List<vector> 
28
(
(0.140814 -0.0104913 -1.7955e-19)
(0.0776175 -0.0173415 -3.22027e-19)
(0.0776175 -0.0173415 -3.22027e-19)
(0.0676279 -0.075684 -1.21705e-18)
(0.0676279 -0.075684 -1.21705e-18)
(0.183358 -0.077201 -6.28018e-19)
(0.183358 -0.077201 -6.28018e-19)
(0.169538 0.00636269 -1.69306e-18)
(0.169538 0.00636269 -1.69306e-18)
(-0.12903 -0.0229175 -2.30596e-18)
(-0.12903 -0.0229175 -2.30596e-18)
(-0.528694 0.0500904 3.6497e-18)
(-0.236269 0.0427269 1.15145e-19)
(-0.236269 0.0427269 1.15145e-19)
(-0.157805 0.122346 -4.06697e-19)
(-0.210882 -0.160136 3.45784e-18)
(-0.597638 -0.213445 9.77378e-19)
(-0.89021 0.0833473 1.18894e-20)
(-0.89021 0.0833473 1.18894e-20)
(-1.23476 0.192514 5.25976e-19)
(-0.518535 -0.0746227 6.41524e-19)
(-0.260549 -0.328466 -7.0893e-20)
(-0.260549 -0.328466 -7.0893e-20)
(-0.703109 -0.250237 -5.30758e-19)
(-0.813033 0.00571901 6.6926e-19)
(-0.404069 -0.0103821 -1.17572e-19)
(0.082052 -0.0912657 7.63685e-19)
(0.082052 -0.0912657 7.63685e-19)
)
;
    }
    procBoundary26to25
    {
        type            processor;
        value           nonuniform List<vector> 
23
(
(1.07967 0.28004 -2.0044e-18)
(1.11288 0.296603 4.98741e-18)
(1.14254 0.311219 -2.59189e-19)
(1.1685 0.324071 1.20127e-18)
(1.19048 0.334942 -6.33111e-18)
(0.679864 0.111652 -2.13598e-18)
(0.733619 0.13325 3.71364e-19)
(0.786256 0.155836 -1.00449e-18)
(0.837348 0.178967 -6.62339e-19)
(0.886489 0.202196 -1.39882e-18)
(0.933307 0.225088 -1.22758e-18)
(0.977467 0.247239 3.98474e-18)
(1.01868 0.268284 1.39195e-18)
(1.07967 0.28004 -2.0044e-18)
(1.05671 0.287905 2.94082e-18)
(0.142276 -0.245561 7.75588e-18)
(0.259437 -0.146479 2.96383e-18)
(0.352686 -0.0731344 -3.663e-18)
(0.431195 -0.0181217 -2.9105e-18)
(0.501413 0.0247625 1.50156e-18)
(0.566898 0.0602239 -1.97891e-18)
(0.679864 0.111652 -2.13598e-18)
(0.629268 0.0914004 -1.16582e-18)
)
;
    }
    procBoundary26to27
    {
        type            processor;
        value           nonuniform List<vector> 
17
(
(0.161102 -0.0170111 2.70238e-18)
(0.183617 -0.0222286 -1.37594e-20)
(0.208693 -0.0259509 -5.99818e-18)
(0.236306 -0.0282181 5.38907e-18)
(0.294119 -0.0345681 4.53666e-18)
(0.294119 -0.0345681 4.53666e-18)
(0.330746 -0.0329458 -3.43908e-18)
(0.368737 -0.0304278 3.11642e-18)
(0.408237 -0.0271468 -6.80347e-18)
(0.491424 -0.0216265 -4.36042e-18)
(0.491424 -0.0216265 -4.36042e-18)
(0.53559 -0.015699 1.41297e-18)
(0.58099 -0.00938892 -3.55317e-18)
(0.62745 -0.0027286 1.77955e-18)
(0.72102 0.013969 2.06323e-18)
(0.72102 0.013969 2.06323e-18)
(0.768898 0.0224133 -3.38384e-18)
)
;
    }
    procBoundary26to31
    {
        type            processor;
        value           nonuniform List<vector> 8((1.20832 0.343076 5.75636e-19) (1.23057 0.349761 8.29164e-20) (1.24884 0.347393 -1.26863e-18) (1.25672 0.341077 -1.33346e-18) (1.25783 0.330561 4.55745e-20) (1.25464 0.31755 -5.07491e-19) (1.24906 0.303149 -1.67274e-20) (1.24226 0.288238 -8.20956e-20));
    }
    procBoundary26to32
    {
        type            processor;
        value           nonuniform List<vector> 
15
(
(1.27111 0.258917 -1.26443e-19)
(1.2752 0.252356 -3.73985e-19)
(1.27853 0.245462 8.2031e-19)
(1.27853 0.245462 8.2031e-19)
(1.27719 0.232511 7.77487e-20)
(1.28029 0.226424 6.09115e-19)
(1.28259 0.219965 -7.57918e-19)
(1.28398 0.213081 -1.38679e-18)
(1.28429 0.205718 -1.28173e-18)
(1.28337 0.197829 -1.68754e-18)
(1.25523 0.277059 -8.50687e-19)
(1.26105 0.271227 3.34246e-19)
(1.26637 0.265193 1.72843e-19)
(1.25523 0.277059 -8.50687e-19)
(1.24135 0.26864 -1.18228e-19)
)
;
    }
    procBoundary26to33
    {
        type            processor;
        value           nonuniform List<vector> 9((0.81617 0.0312947 -5.02657e-18) (0.861048 0.0389554 -4.20987e-19) (0.927968 0.049548 -2.11423e-18) (1.0202 0.0838409 6.65831e-19) (1.09893 0.112691 2.32696e-18) (1.16271 0.137519 -3.15769e-18) (1.21168 0.15813 2.04577e-18) (1.24651 0.1736 2.2799e-18) (1.2689 0.183882 -9.38189e-19));
    }
}


// ************************************************************************* //
