/*--------------------------------*- C++ -*----------------------------------*\
  =========                 |
  \\      /  F ield         | OpenFOAM: The Open Source CFD Toolbox
   \\    /   O peration     | Website:  https://openfoam.org
    \\  /    A nd           | Version:  7
     \\/     M anipulation  |
\*---------------------------------------------------------------------------*/
FoamFile
{
    version     2.0;
    format      ascii;
    class       surfaceScalarField;
    location    "5.6";
    object      phi;
}
// * * * * * * * * * * * * * * * * * * * * * * * * * * * * * * * * * * * * * //

dimensions      [0 3 -1 0 0 0 0];

internalField   nonuniform List<scalar> 
613
(
0.00066539
-6.70429e-05
0.000670543
-5.29881e-05
0.000672848
-4.05379e-05
-2.96499e-05
0.000672877
0.000703879
-6.99035e-05
0.000702904
-5.20139e-05
0.000699329
-3.69625e-05
-2.41177e-05
0.000693797
0.000702878
-6.04398e-05
0.00069147
-4.06066e-05
0.00067953
-2.50227e-05
-1.16219e-05
0.000667035
0.000623266
-3.51069e-05
0.00060183
-1.91706e-05
0.00058422
-7.41228e-06
4.42666e-06
0.000568171
0.000430413
0.00041185
0.00040033
0.000391061
0.000464173
9.28408e-06
0.000462396
9.16848e-06
0.000460651
9.05463e-06
8.94252e-06
0.000671054
-1.99097e-05
0.00066795
-1.23221e-05
0.000664113
-6.40887e-06
0.000659877
-1.8081e-06
0.000655397
1.87804e-06
0.000650764
4.8503e-06
0.000646096
7.26035e-06
0.000641416
9.2278e-06
0.000636751
1.08478e-05
0.000632115
1.21889e-05
0.000627521
1.33009e-05
0.000622975
1.42218e-05
0.000618482
1.49819e-05
0.000614048
1.56055e-05
0.000609674
1.61123e-05
0.000605363
1.65189e-05
0.000601117
1.6839e-05
0.000596937
1.70846e-05
0.000592824
1.72655e-05
0.000588778
1.73907e-05
0.000584799
1.74674e-05
0.000580887
1.75023e-05
0.000577043
1.7501e-05
0.000573266
1.74685e-05
0.000569555
1.7409e-05
0.00056591
1.73263e-05
0.000562331
1.72236e-05
0.000558816
1.71039e-05
0.000555366
1.69696e-05
0.000551979
1.68231e-05
0.000548654
1.66661e-05
0.000545392
1.65004e-05
0.00054219
1.63276e-05
0.000539049
1.61488e-05
0.000535967
1.59653e-05
0.000532943
1.5778e-05
0.000529977
1.55879e-05
0.000527067
1.53957e-05
0.000524214
1.52021e-05
0.000521415
1.50077e-05
0.000518671
1.48129e-05
0.00051598
1.46183e-05
0.000513341
1.44242e-05
0.000510753
1.4231e-05
0.000508216
1.40389e-05
0.000505728
1.38482e-05
0.00050329
1.36591e-05
0.000500899
1.34718e-05
0.000498555
1.32865e-05
0.000496257
1.31033e-05
0.000494005
1.29222e-05
0.000491798
1.27434e-05
0.000489634
1.2567e-05
0.000487513
1.23929e-05
0.000485434
1.22213e-05
0.000483396
1.20522e-05
0.000481399
1.18856e-05
0.000479441
1.17215e-05
0.000477523
1.15599e-05
0.000475643
1.14008e-05
0.0004738
1.12442e-05
0.000471994
1.10901e-05
0.000470224
1.09385e-05
0.000468489
1.07894e-05
1.06427e-05
0.000686678
-1.2791e-05
0.000678839
-4.48306e-06
0.000671027
1.40336e-06
0.000663447
5.77207e-06
0.000656239
9.08592e-06
0.000649428
1.16615e-05
0.000643005
1.36831e-05
0.000636932
1.53007e-05
0.000631165
1.66142e-05
0.000625666
1.76883e-05
0.000620399
1.85679e-05
0.000615335
1.92862e-05
0.000610448
1.98684e-05
0.000605719
2.03346e-05
0.000601131
2.07007e-05
0.000596669
2.09802e-05
0.000592324
2.11844e-05
0.000588085
2.1323e-05
0.000583946
2.14046e-05
0.000579901
2.14363e-05
0.000575943
2.14248e-05
0.00057207
2.13755e-05
0.000568278
2.12936e-05
0.000564563
2.11833e-05
0.000560923
2.10486e-05
0.000557357
2.08928e-05
0.000553861
2.0719e-05
0.000550435
2.05298e-05
0.000547077
2.03275e-05
0.000543786
2.01142e-05
0.00054056
1.98918e-05
0.000537399
1.96618e-05
0.000534301
1.94257e-05
0.000531265
1.91848e-05
0.00052829
1.89401e-05
0.000525376
1.86926e-05
0.00052252
1.84431e-05
0.000519724
1.81926e-05
0.000516984
1.79415e-05
0.000514301
1.76905e-05
0.000511674
1.74401e-05
0.000509102
1.71907e-05
0.000506583
1.69427e-05
0.000504118
1.66965e-05
0.000501704
1.64523e-05
0.000499342
1.62104e-05
0.00049703
1.5971e-05
0.000494768
1.57342e-05
0.000492554
1.55003e-05
0.000490388
1.52693e-05
0.000488269
1.50414e-05
0.000486196
1.48166e-05
0.000484168
1.4595e-05
0.000482184
1.43767e-05
0.000480244
1.41616e-05
0.000478346
1.39499e-05
0.00047649
1.37415e-05
0.000474675
1.35365e-05
0.0004729
1.33347e-05
0.000471165
1.31363e-05
0.000469468
1.29412e-05
0.000467809
1.27494e-05
0.000466186
1.25609e-05
0.0004646
1.23755e-05
1.21934e-05
0.000653739
5.0489e-07
0.000641184
8.07185e-06
0.000630173
1.24141e-05
0.000620635
1.53106e-05
0.000612369
1.73512e-05
0.000605197
1.88343e-05
0.000598898
1.99818e-05
0.000593276
2.09226e-05
0.000588174
2.1716e-05
0.000583472
2.23902e-05
0.000579079
2.29616e-05
0.000574924
2.34408e-05
0.000570957
2.38353e-05
0.00056714
2.41517e-05
0.000563445
2.4396e-05
0.000559851
2.45741e-05
0.000556343
2.4692e-05
0.000552911
2.47553e-05
0.000549546
2.47693e-05
0.000546243
2.47394e-05
0.000542998
2.46701e-05
0.000539807
2.45661e-05
0.000536669
2.44313e-05
0.000533583
2.42694e-05
0.000530548
2.4084e-05
0.000527563
2.38779e-05
0.000524628
2.36541e-05
0.000521743
2.3415e-05
0.000518907
2.31629e-05
0.000516122
2.28997e-05
0.000513386
2.26273e-05
0.000510701
2.23474e-05
0.000508065
2.20613e-05
0.000505479
2.17704e-05
0.000502944
2.14757e-05
0.000500458
2.11784e-05
0.000498022
2.08794e-05
0.000495635
2.05793e-05
0.000493297
2.0279e-05
0.000491009
1.99792e-05
0.000488769
1.96802e-05
0.000486577
1.93827e-05
0.000484432
1.9087e-05
0.000482335
1.87936e-05
0.000480285
1.85027e-05
0.00047828
1.82147e-05
0.000476322
1.79297e-05
0.000474408
1.7648e-05
0.000472538
1.73698e-05
0.000470712
1.70952e-05
0.000468929
1.68243e-05
0.000467189
1.65573e-05
0.00046549
1.62941e-05
0.000463831
1.60349e-05
0.000462213
1.57798e-05
0.000460634
1.55287e-05
0.000459094
1.52816e-05
0.000457592
1.50386e-05
0.000456127
1.47998e-05
0.000454698
1.45649e-05
0.000453305
1.43342e-05
0.000451947
1.41074e-05
0.000450624
1.38847e-05
0.000449333
1.36659e-05
1.3451e-05
0.000551547
1.71288e-05
0.000538777
2.08418e-05
0.000529565
2.16265e-05
0.000522973
2.19027e-05
0.000518306
2.20181e-05
0.000514945
2.21946e-05
0.000512405
2.25221e-05
0.000510355
2.29729e-05
0.000508582
2.34889e-05
0.00050695
2.40218e-05
0.000505375
2.4537e-05
0.000503804
2.50113e-05
0.000502209
2.54305e-05
0.000500574
2.5787e-05
0.000498892
2.60781e-05
0.000497162
2.63042e-05
0.000495386
2.6468e-05
0.000493568
2.6573e-05
0.000491714
2.66236e-05
0.000489829
2.66244e-05
0.000487919
2.658e-05
0.00048599
2.64949e-05
0.000484048
2.63734e-05
0.000482098
2.62195e-05
0.000480145
2.60371e-05
0.000478193
2.58294e-05
0.000476248
2.55997e-05
0.000474312
2.53508e-05
0.000472389
2.50854e-05
0.000470483
2.48058e-05
0.000468597
2.45142e-05
0.000466731
2.42125e-05
0.00046489
2.39023e-05
0.000463075
2.35854e-05
0.000461288
2.32631e-05
0.00045953
2.29366e-05
0.000457802
2.26071e-05
0.000456106
2.22755e-05
0.000454442
2.19428e-05
0.000452811
2.16098e-05
0.000451214
2.12772e-05
0.000449652
2.09455e-05
0.000448123
2.06153e-05
0.00044663
2.02872e-05
0.000445171
1.99616e-05
0.000443747
1.96387e-05
0.000442358
1.9319e-05
0.000441003
1.90028e-05
0.000439683
1.86902e-05
0.000438396
1.83814e-05
0.000437144
1.80768e-05
0.000435925
1.77763e-05
0.000434739
1.74801e-05
0.000433586
1.71884e-05
0.000432464
1.69011e-05
0.000431374
1.66184e-05
0.000430316
1.63403e-05
0.000429288
1.60668e-05
0.000428289
1.5798e-05
0.000427321
1.55337e-05
0.000426381
0.000425469
0.000424585
0.000423728
0.000380479
0.00037821
0.000380043
0.000383899
0.000388558
0.000393234
0.000397549
0.000401358
0.000404629
0.00040738
0.000409653
0.000411498
0.000412962
0.000414095
0.000414936
0.000415525
0.000415894
0.000416072
0.000416086
0.000415956
0.000415704
0.000415346
0.000414899
0.000414375
0.000413786
0.000413143
0.000412456
0.000411733
0.000410981
0.000410206
0.000409416
0.000408614
0.000407805
0.000406994
0.000406184
0.000405377
0.000404577
0.000403786
0.000403006
0.000402239
0.000401487
0.00040075
0.00040003
0.000399327
0.000398644
0.000397979
0.000397333
0.000396708
0.000396103
0.000395518
0.000394954
0.00039441
0.000393886
0.000393383
0.0003929
0.000392437
0.000391993
0.000391569
0.000391164
)
;

boundaryField
{
    inlet
    {
        type            calculated;
        value           nonuniform 0();
    }
    outlet
    {
        type            calculated;
        value           nonuniform 0();
    }
    wall
    {
        type            calculated;
        value           nonuniform 0();
    }
    wedge1
    {
        type            wedge;
        value           nonuniform List<scalar> 
344
(
7.31915e-15
-1.57384e-14
6.86004e-15
6.96049e-16
1.46283e-15
5.97234e-15
-1.22616e-14
4.94735e-15
4.38231e-16
5.30986e-16
4.73986e-15
-9.21854e-15
3.38109e-15
2.46823e-16
-1.00856e-16
3.63539e-15
-6.57159e-15
2.05507e-15
7.99851e-17
-8.15568e-16
2.62356e-15
-4.20417e-15
8.6954e-16
-7.02943e-17
-1.75672e-15
1.81571e-15
-2.36721e-15
-2.42184e-19
-1.52376e-16
-1.85883e-15
1.15741e-15
-9.52358e-16
-4.65082e-16
-1.95593e-16
-1.77755e-15
6.26891e-16
1.26431e-16
-8.12529e-16
-2.19542e-16
-1.68612e-15
1.93457e-16
8.11972e-16
-1.07423e-15
-2.34123e-16
-1.6237e-15
-1.3588e-16
1.38722e-15
-1.27391e-15
-2.44019e-16
-1.5981e-15
-3.84518e-16
1.86021e-15
-1.42883e-15
-2.51848e-16
-1.60553e-15
-5.96303e-16
2.24924e-15
-1.55181e-15
-2.58864e-16
-1.63613e-15
-7.75984e-16
2.57039e-15
-1.65155e-15
-2.65516e-16
-1.67993e-15
-9.28184e-16
2.83651e-15
-1.7335e-15
-2.71795e-16
-1.72948e-15
-1.05707e-15
3.05722e-15
-1.80122e-15
-2.77602e-16
-1.77978e-15
-1.16594e-15
3.24012e-15
-1.85713e-15
-2.82843e-16
-1.82776e-15
-1.25771e-15
3.3911e-15
-1.90303e-15
-2.87439e-16
-1.87153e-15
-1.33474e-15
3.51502e-15
-1.9402e-15
-2.91347e-16
-1.91007e-15
-1.39912e-15
3.61568e-15
-1.96969e-15
-2.94551e-16
-1.94292e-15
-1.45247e-15
3.69635e-15
-1.99236e-15
-2.97058e-16
-1.97003e-15
-1.49627e-15
3.75964e-15
-2.00902e-15
-2.98893e-16
-1.99155e-15
-1.53172e-15
3.80789e-15
-2.02028e-15
-3.00096e-16
-2.00775e-15
-1.55993e-15
3.84304e-15
-2.02676e-15
-3.00688e-16
-2.01899e-15
-1.58184e-15
3.86678e-15
-2.02899e-15
-3.0075e-16
-2.02566e-15
-1.59818e-15
3.88061e-15
-2.02746e-15
-3.003e-16
-2.02819e-15
-1.60972e-15
3.88576e-15
-2.02262e-15
-2.99404e-16
-2.02694e-15
-1.61704e-15
3.88337e-15
-2.01484e-15
-2.98107e-16
-2.0223e-15
-1.62071e-15
3.87442e-15
-2.00449e-15
-2.96444e-16
-2.01462e-15
-1.62119e-15
3.85979e-15
-1.99186e-15
-2.94472e-16
-2.00424e-15
-1.61889e-15
3.84021e-15
-1.9773e-15
-2.92208e-16
-1.99148e-15
-1.61416e-15
3.81634e-15
-1.96103e-15
-2.89706e-16
-1.97661e-15
-1.60734e-15
3.78882e-15
-1.94327e-15
-2.86971e-16
-1.95988e-15
-1.59871e-15
3.75812e-15
-1.92423e-15
-2.84061e-16
-1.94152e-15
-1.5884e-15
3.72473e-15
-1.90413e-15
-2.80983e-16
-1.92177e-15
-1.57665e-15
3.68895e-15
-1.8831e-15
-2.77767e-16
-1.90082e-15
-1.56372e-15
3.65112e-15
-1.86132e-15
-2.74433e-16
-1.87882e-15
-1.5498e-15
3.61159e-15
-1.83887e-15
-2.71011e-16
-1.85595e-15
-1.53504e-15
3.57067e-15
-1.81589e-15
-2.67504e-16
-1.83235e-15
-1.5196e-15
3.52864e-15
-1.79249e-15
-2.63942e-16
-1.80815e-15
-1.50359e-15
3.48575e-15
-1.76876e-15
-2.60321e-16
-1.78346e-15
-1.48714e-15
3.4422e-15
-1.74479e-15
-2.56671e-16
-1.75839e-15
-1.47034e-15
3.39817e-15
-1.72067e-15
-2.52989e-16
-1.73303e-15
-1.45326e-15
3.35382e-15
-1.69647e-15
-2.49293e-16
-1.70746e-15
-1.43598e-15
3.30928e-15
-1.67224e-15
-2.45587e-16
-1.68176e-15
-1.41857e-15
3.26467e-15
-1.64803e-15
-2.41893e-16
-1.65599e-15
-1.40108e-15
3.22011e-15
-1.62391e-15
-2.38203e-16
-1.63022e-15
-1.38356e-15
3.17566e-15
-1.5999e-15
-2.34533e-16
-1.60449e-15
-1.36604e-15
3.13142e-15
-1.57605e-15
-2.30881e-16
-1.57885e-15
-1.34857e-15
3.08745e-15
-1.55237e-15
-2.27257e-16
-1.55335e-15
-1.33118e-15
3.04381e-15
-1.52891e-15
-2.23662e-16
-1.52802e-15
-1.31388e-15
3.00054e-15
-1.50567e-15
-2.20102e-16
-1.5029e-15
-1.29671e-15
2.95769e-15
-1.48269e-15
-2.1658e-16
-1.478e-15
-1.27968e-15
2.9153e-15
-1.45997e-15
-2.13098e-16
-1.45337e-15
-1.26281e-15
2.87339e-15
-1.43753e-15
-2.09658e-16
-1.42901e-15
-1.24612e-15
2.83199e-15
-1.41538e-15
-2.06264e-16
-1.40495e-15
-1.22961e-15
2.79113e-15
-1.39354e-15
-2.02914e-16
-1.3812e-15
-1.21329e-15
2.7508e-15
-1.37201e-15
-1.99613e-16
-1.35777e-15
-1.19718e-15
2.71104e-15
-1.35079e-15
-1.96359e-16
-1.33468e-15
-1.18128e-15
2.67184e-15
-1.32989e-15
-1.93157e-16
-1.31192e-15
-1.16559e-15
2.63322e-15
-1.30931e-15
-1.90004e-16
-1.28953e-15
-1.15012e-15
2.59519e-15
-1.28906e-15
-1.86903e-16
-1.26748e-15
-1.13486e-15
2.55773e-15
-1.26913e-15
-1.8385e-16
-1.2458e-15
-1.11983e-15
2.52087e-15
-1.24953e-15
-1.80849e-16
-1.22448e-15
-1.10502e-15
2.4846e-15
-1.23026e-15
-1.77896e-16
-1.20352e-15
-1.09044e-15
2.4489e-15
-1.21131e-15
-1.75e-16
-1.40676e-16
-1.07607e-15
2.41379e-15
-1.19268e-15
-1.7215e-16
-1.39001e-16
-1.06193e-15
2.37926e-15
-1.17438e-15
-1.69353e-16
-1.37355e-16
-1.04802e-15
2.34531e-15
-1.15639e-15
-1.66607e-16
-1.35728e-16
-1.03432e-15
2.31192e-15
-1.13872e-15
-1.63907e-16
)
;
    }
    wedge2
    {
        type            wedge;
        value           nonuniform List<scalar> 
344
(
7.31761e-15
-1.57407e-14
6.85742e-15
6.93745e-16
1.46117e-15
5.97075e-15
-1.22639e-14
4.94488e-15
4.36086e-16
5.29536e-16
4.73828e-15
-9.2208e-15
3.37865e-15
2.44741e-16
-1.02025e-16
3.63381e-15
-6.57384e-15
2.0527e-15
7.8037e-17
-8.16713e-16
2.62207e-15
-4.20624e-15
8.6725e-16
-7.19336e-17
-1.75786e-15
1.81414e-15
-2.36933e-15
-1.94573e-18
-1.54053e-16
-1.86002e-15
1.15593e-15
-9.54435e-16
-4.66934e-16
-1.97268e-16
-1.77883e-15
6.25366e-16
1.24803e-16
-8.14387e-16
-2.21229e-16
-1.68743e-15
1.91924e-16
8.10343e-16
-1.07604e-15
-2.35817e-16
-1.62502e-15
-1.37198e-16
1.38552e-15
-1.27569e-15
-2.45719e-16
-1.59944e-15
-3.85754e-16
1.85858e-15
-1.4306e-15
-2.53525e-16
-1.60693e-15
-5.97593e-16
2.24755e-15
-1.55359e-15
-2.60546e-16
-1.63755e-15
-7.77209e-16
2.56881e-15
-1.65327e-15
-2.67161e-16
-1.68134e-15
-9.29448e-16
2.83492e-15
-1.73518e-15
-2.73415e-16
-1.73087e-15
-1.05824e-15
3.05569e-15
-1.80288e-15
-2.79215e-16
-1.78121e-15
-1.16709e-15
3.23858e-15
-1.85879e-15
-2.8445e-16
-1.8292e-15
-1.25883e-15
3.38964e-15
-1.90464e-15
-2.89045e-16
-1.87296e-15
-1.33589e-15
3.51357e-15
-1.94178e-15
-2.92944e-16
-1.91149e-15
-1.4002e-15
3.61429e-15
-1.97125e-15
-2.96135e-16
-1.94437e-15
-1.45352e-15
3.69495e-15
-1.99392e-15
-2.98622e-16
-1.97148e-15
-1.49728e-15
3.7583e-15
-2.01052e-15
-3.00432e-16
-1.99297e-15
-1.53273e-15
3.80658e-15
-2.02176e-15
-3.01601e-16
-2.00915e-15
-1.56091e-15
3.84176e-15
-2.02821e-15
-3.02193e-16
-2.0204e-15
-1.58274e-15
3.86554e-15
-2.03043e-15
-3.02223e-16
-2.02707e-15
-1.5991e-15
3.87935e-15
-2.02889e-15
-3.01769e-16
-2.02957e-15
-1.61061e-15
3.88453e-15
-2.02401e-15
-3.0086e-16
-2.02831e-15
-1.61795e-15
3.88217e-15
-2.01621e-15
-2.99544e-16
-2.02366e-15
-1.62159e-15
3.87325e-15
-2.00583e-15
-2.97869e-16
-2.01597e-15
-1.62203e-15
3.85863e-15
-1.99322e-15
-2.95863e-16
-2.00559e-15
-1.61971e-15
3.83907e-15
-1.97861e-15
-2.9358e-16
-1.99281e-15
-1.61497e-15
3.81526e-15
-1.9623e-15
-2.9104e-16
-1.97791e-15
-1.60814e-15
3.78774e-15
-1.94451e-15
-2.88297e-16
-1.96116e-15
-1.59945e-15
3.75707e-15
-1.92547e-15
-2.85354e-16
-1.9428e-15
-1.58913e-15
3.72368e-15
-1.90533e-15
-2.82258e-16
-1.92303e-15
-1.57739e-15
3.68795e-15
-1.88428e-15
-2.79022e-16
-1.90205e-15
-1.56445e-15
3.65014e-15
-1.86246e-15
-2.75674e-16
-1.88003e-15
-1.55049e-15
3.61062e-15
-1.84001e-15
-2.72221e-16
-1.85715e-15
-1.53572e-15
3.56973e-15
-1.817e-15
-2.68694e-16
-1.83353e-15
-1.52026e-15
3.52773e-15
-1.79357e-15
-2.65097e-16
-1.8093e-15
-1.50424e-15
3.48486e-15
-1.76981e-15
-2.61461e-16
-1.78459e-15
-1.48776e-15
3.44133e-15
-1.74583e-15
-2.57779e-16
-1.7595e-15
-1.47094e-15
3.39732e-15
-1.72168e-15
-2.54077e-16
-1.73412e-15
-1.45385e-15
3.35299e-15
-1.69745e-15
-2.50361e-16
-1.70854e-15
-1.43656e-15
3.30847e-15
-1.6732e-15
-2.46643e-16
-1.68281e-15
-1.41914e-15
3.26388e-15
-1.64898e-15
-2.42917e-16
-1.65703e-15
-1.40163e-15
3.21933e-15
-1.62484e-15
-2.39207e-16
-1.63123e-15
-1.38409e-15
3.17491e-15
-1.60081e-15
-2.35509e-16
-1.60547e-15
-1.36657e-15
3.13068e-15
-1.57693e-15
-2.31838e-16
-1.57982e-15
-1.34908e-15
3.08673e-15
-1.55323e-15
-2.28189e-16
-1.55429e-15
-1.33167e-15
3.04311e-15
-1.52975e-15
-2.24574e-16
-1.52894e-15
-1.31436e-15
2.99986e-15
-1.50649e-15
-2.20993e-16
-1.5038e-15
-1.29718e-15
2.95703e-15
-1.48348e-15
-2.17449e-16
-1.47889e-15
-1.28014e-15
2.91466e-15
-1.46075e-15
-2.13945e-16
-1.45423e-15
-1.26326e-15
2.87276e-15
-1.43829e-15
-2.10484e-16
-1.42985e-15
-1.24655e-15
2.83138e-15
-1.41612e-15
-2.07069e-16
-1.40577e-15
-1.23003e-15
2.79053e-15
-1.39426e-15
-2.03699e-16
-1.382e-15
-1.2137e-15
2.75022e-15
-1.3727e-15
-2.00376e-16
-1.35855e-15
-1.19758e-15
2.71048e-15
-1.35146e-15
-1.97105e-16
-1.33544e-15
-1.18166e-15
2.6713e-15
-1.33055e-15
-1.9388e-16
-1.31267e-15
-1.16596e-15
2.6327e-15
-1.30995e-15
-1.90706e-16
-1.29025e-15
-1.15047e-15
2.59468e-15
-1.28968e-15
-1.87582e-16
-1.26818e-15
-1.13521e-15
2.55724e-15
-1.26973e-15
-1.84512e-16
-1.24648e-15
-1.12017e-15
2.52039e-15
-1.25011e-15
-1.81491e-16
-1.22514e-15
-1.10534e-15
2.48413e-15
-1.23082e-15
-1.78525e-16
-1.20417e-15
-1.09075e-15
2.44845e-15
-1.21186e-15
-1.75605e-16
-1.40806e-16
-1.07638e-15
2.41336e-15
-1.19321e-15
-1.7274e-16
-1.39128e-16
-1.06222e-15
2.37885e-15
-1.17489e-15
-1.69922e-16
-1.3747e-16
-1.04829e-15
2.3449e-15
-1.15689e-15
-1.67157e-16
-1.35842e-16
-1.03458e-15
2.31153e-15
-1.1392e-15
-1.64443e-16
)
;
    }
    axis
    {
        type            empty;
        value           nonuniform 0();
    }
    procBoundary15to9
    {
        type            processor;
        value           nonuniform List<scalar> 
70
(
5.82975e-05
4.78343e-05
3.82334e-05
2.96209e-05
-7.47532e-06
-7.39182e-06
-7.30949e-06
-7.22832e-06
2.17321e-05
1.54262e-05
1.02465e-05
6.04388e-06
2.60232e-06
-2.17785e-07
-2.59228e-06
-4.548e-06
-6.18239e-06
-7.55365e-06
-8.70635e-06
-9.67559e-06
-1.04895e-05
-1.11708e-05
-1.17385e-05
-1.22082e-05
-1.25931e-05
-1.29045e-05
-1.31522e-05
-1.33444e-05
-1.34886e-05
-1.35909e-05
-1.36568e-05
-1.36912e-05
-1.36982e-05
-1.36815e-05
-1.36442e-05
-1.35893e-05
-1.35192e-05
-1.3436e-05
-1.33416e-05
-1.32378e-05
-1.31259e-05
-1.30074e-05
-1.28832e-05
-1.27544e-05
-1.26219e-05
-1.24864e-05
-1.23486e-05
-1.22091e-05
-1.20684e-05
-1.1927e-05
-1.17852e-05
-1.16433e-05
-1.15017e-05
-1.13607e-05
-1.12204e-05
-1.1081e-05
-1.09428e-05
-1.08057e-05
-1.067e-05
-1.05358e-05
-1.0403e-05
-1.02719e-05
-1.01424e-05
-1.00145e-05
-9.88843e-06
-9.76404e-06
-9.64141e-06
-9.52054e-06
-0.000465982
-9.40143e-06
)
;
    }
    procBoundary15to10
    {
        type            processor;
        value           nonuniform List<scalar> 2(0.000458937 0.000466789);
    }
    procBoundary15to14
    {
        type            processor;
        value           nonuniform List<scalar> 4(-0.000656644 -0.000701018 -0.000712341 -0.000648599);
    }
    procBoundary15to16
    {
        type            processor;
        value           nonuniform List<scalar> 3(0.000463049 0.000448076 0.000422897);
    }
    procBoundary15to20
    {
        type            processor;
        value           uniform -0.000459502;
    }
    procBoundary15to21
    {
        type            processor;
        value           nonuniform List<scalar> 
70
(
-6.01823e-06
-6.08041e-07
4.10844e-06
1.36957e-05
1.52742e-05
1.50192e-05
1.47688e-05
1.4523e-05
1.42817e-05
2.77102e-05
2.31109e-05
1.97938e-05
1.80466e-05
1.7359e-05
1.75185e-05
1.82076e-05
1.91638e-05
2.02179e-05
2.12704e-05
2.22639e-05
2.31672e-05
2.39656e-05
2.46548e-05
2.52364e-05
2.57155e-05
2.6099e-05
2.63947e-05
2.66103e-05
2.67537e-05
2.68321e-05
2.68525e-05
2.68211e-05
2.67438e-05
2.66258e-05
2.6472e-05
2.62868e-05
2.60741e-05
2.58375e-05
2.55801e-05
2.53048e-05
2.50143e-05
2.47109e-05
2.43967e-05
2.40736e-05
2.37432e-05
2.3407e-05
2.30664e-05
2.27227e-05
2.23768e-05
2.20297e-05
2.16824e-05
2.13354e-05
2.09896e-05
2.06455e-05
2.03036e-05
1.99643e-05
1.96281e-05
1.92953e-05
1.89662e-05
1.86411e-05
1.83202e-05
1.80036e-05
1.76916e-05
1.73842e-05
1.70816e-05
1.67838e-05
1.64909e-05
1.6203e-05
0.000390778
1.592e-05
)
;
    }
}


// ************************************************************************* //
