/*--------------------------------*- C++ -*----------------------------------*\
  =========                 |
  \\      /  F ield         | OpenFOAM: The Open Source CFD Toolbox
   \\    /   O peration     | Website:  https://openfoam.org
    \\  /    A nd           | Version:  7
     \\/     M anipulation  |
\*---------------------------------------------------------------------------*/
FoamFile
{
    version     2.0;
    format      ascii;
    class       volScalarField;
    location    "72";
    object      p;
}
// * * * * * * * * * * * * * * * * * * * * * * * * * * * * * * * * * * * * * //

dimensions      [0 2 -2 0 0 0 0];

internalField   nonuniform List<scalar> 
12400
(
-0.215891
-0.217697
-0.218864
-0.219745
-0.220512
-0.221195
-0.221833
-0.222455
-0.22307
-0.223676
-0.224258
-0.224794
-0.225252
-0.225596
-0.225786
-0.225777
-0.225528
-0.225017
-0.224202
-0.223108
-0.2161
-0.217864
-0.219005
-0.219866
-0.220613
-0.221279
-0.221901
-0.222506
-0.223107
-0.223699
-0.224271
-0.224799
-0.225257
-0.225611
-0.225824
-0.225857
-0.225673
-0.225261
-0.224579
-0.223607
-0.216594
-0.218285
-0.21938
-0.220206
-0.220923
-0.221561
-0.222157
-0.222738
-0.223316
-0.22389
-0.224445
-0.224963
-0.225417
-0.225778
-0.226012
-0.226082
-0.225953
-0.225621
-0.225048
-0.224055
-0.217353
-0.218944
-0.219976
-0.220755
-0.221428
-0.222027
-0.222587
-0.223135
-0.223683
-0.224229
-0.224762
-0.225264
-0.22571
-0.226073
-0.226322
-0.226424
-0.226339
-0.226063
-0.225601
-0.224392
-0.218354
-0.219823
-0.220776
-0.221493
-0.222111
-0.222659
-0.223171
-0.223675
-0.224183
-0.224693
-0.225195
-0.225672
-0.226103
-0.226461
-0.226719
-0.226846
-0.226792
-0.226534
-0.226241
-0.224527
-0.219568
-0.220896
-0.221757
-0.222401
-0.222952
-0.223435
-0.223888
-0.224335
-0.224789
-0.225251
-0.225711
-0.226154
-0.226559
-0.226903
-0.227159
-0.227301
-0.227274
-0.226967
-0.227008
-0.224326
-0.220965
-0.222139
-0.222898
-0.223457
-0.223926
-0.224332
-0.22471
-0.225086
-0.225472
-0.225872
-0.226276
-0.22667
-0.227036
-0.227353
-0.227593
-0.227737
-0.227749
-0.22726
-0.227928
-0.223725
-0.222512
-0.223527
-0.224174
-0.224637
-0.225012
-0.225326
-0.225612
-0.225899
-0.226201
-0.22652
-0.226851
-0.227181
-0.227492
-0.227766
-0.227974
-0.228099
-0.228196
-0.227347
-0.22865
-0.223247
-0.224182
-0.225035
-0.225565
-0.225922
-0.226188
-0.226393
-0.22657
-0.226748
-0.226945
-0.227165
-0.227403
-0.227649
-0.227886
-0.2281
-0.228258
-0.228328
-0.228472
-0.227363
-0.229212
-0.222463
-0.225948
-0.226644
-0.227052
-0.227292
-0.227436
-0.227513
-0.227561
-0.227609
-0.227679
-0.227777
-0.227901
-0.228041
-0.228185
-0.228316
-0.228406
-0.22839
-0.228622
-0.227025
-0.229777
-0.221294
-0.227792
-0.228339
-0.228622
-0.228736
-0.228742
-0.228672
-0.228568
-0.228463
-0.228381
-0.228334
-0.228321
-0.228335
-0.228363
-0.228391
-0.228395
-0.228243
-0.22863
-0.226297
-0.230236
-0.219851
-0.229704
-0.230112
-0.230268
-0.230244
-0.230096
-0.229861
-0.229581
-0.229298
-0.229041
-0.228823
-0.22865
-0.228516
-0.228407
-0.22831
-0.228214
-0.227872
-0.228456
-0.225237
-0.230382
-0.218354
-0.231683
-0.231964
-0.23199
-0.231818
-0.231499
-0.231075
-0.230597
-0.230111
-0.229652
-0.229242
-0.228886
-0.228583
-0.228319
-0.228076
-0.227867
-0.227292
-0.228039
-0.223973
-0.229917
-0.217041
-0.233739
-0.233903
-0.233796
-0.233462
-0.232954
-0.23232
-0.23162
-0.230907
-0.230224
-0.229597
-0.229039
-0.228549
-0.228112
-0.227705
-0.22736
-0.226538
-0.227289
-0.222664
-0.228533
-0.215951
-0.235895
-0.235948
-0.235701
-0.235191
-0.234475
-0.233609
-0.232663
-0.2317
-0.230771
-0.229909
-0.229131
-0.228438
-0.227813
-0.22722
-0.226702
-0.225645
-0.226119
-0.221384
-0.2261
-0.21478
-0.238181
-0.238126
-0.237729
-0.237027
-0.236082
-0.234963
-0.23375
-0.232516
-0.231322
-0.230208
-0.229195
-0.228284
-0.227453
-0.22665
-0.225897
-0.224615
-0.22449
-0.220019
-0.222763
-0.213039
-0.240642
-0.240472
-0.23991
-0.238998
-0.237804
-0.23641
-0.234909
-0.233387
-0.231912
-0.230532
-0.229271
-0.228124
-0.227062
-0.226013
-0.224944
-0.223394
-0.222415
-0.218296
-0.218791
-0.210372
-0.243329
-0.243027
-0.242284
-0.241139
-0.239673
-0.237985
-0.236179
-0.234352
-0.232584
-0.230926
-0.229401
-0.227997
-0.226665
-0.22531
-0.223826
-0.221887
-0.219906
-0.215934
-0.214298
-0.206711
-0.246299
-0.245841
-0.244892
-0.24349
-0.24173
-0.239727
-0.2376
-0.235457
-0.233384
-0.231435
-0.229627
-0.227932
-0.226273
-0.224522
-0.222505
-0.219999
-0.216955
-0.21277
-0.209148
-0.202219
-0.249616
-0.248965
-0.247779
-0.246094
-0.244017
-0.241681
-0.239218
-0.236747
-0.234358
-0.232102
-0.229982
-0.227945
-0.225875
-0.223609
-0.220923
-0.217663
-0.213556
-0.208797
-0.203258
-0.197064
-0.253342
-0.252453
-0.250995
-0.248998
-0.24658
-0.243892
-0.24108
-0.238269
-0.235549
-0.232961
-0.230485
-0.22803
-0.225441
-0.222519
-0.219021
-0.21485
-0.209718
-0.204127
-0.197163
-0.191147
-0.25754
-0.256358
-0.254589
-0.252248
-0.249463
-0.246405
-0.243231
-0.240067
-0.236996
-0.234038
-0.231139
-0.228166
-0.224921
-0.221193
-0.216752
-0.211569
-0.205444
-0.198891
-0.1913
-0.184426
-0.262269
-0.260732
-0.258608
-0.25589
-0.252714
-0.249268
-0.245716
-0.24218
-0.238726
-0.235341
-0.231926
-0.228307
-0.224259
-0.219577
-0.214091
-0.207854
-0.200763
-0.193381
-0.185162
-0.177648
-0.267583
-0.265623
-0.263098
-0.259971
-0.256378
-0.252524
-0.248575
-0.24464
-0.240754
-0.23686
-0.232812
-0.228397
-0.22339
-0.217631
-0.211039
-0.203748
-0.19577
-0.187636
-0.178909
-0.170992
-0.273529
-0.271076
-0.268103
-0.264533
-0.260498
-0.256216
-0.251846
-0.24747
-0.24308
-0.238568
-0.23374
-0.228368
-0.222258
-0.215329
-0.207608
-0.199309
-0.19052
-0.181738
-0.172578
-0.164315
-0.280147
-0.277128
-0.273663
-0.269619
-0.265117
-0.260382
-0.255555
-0.250678
-0.245686
-0.240415
-0.23464
-0.228147
-0.220813
-0.212659
-0.203826
-0.194581
-0.185064
-0.175712
-0.166167
-0.15763
-0.287467
-0.283812
-0.279811
-0.275265
-0.270272
-0.265054
-0.259719
-0.254254
-0.248529
-0.242332
-0.235431
-0.227665
-0.219016
-0.209622
-0.19972
-0.189601
-0.179428
-0.169564
-0.159681
-0.150879
-0.295507
-0.29115
-0.286577
-0.281504
-0.275993
-0.270251
-0.264337
-0.258166
-0.251544
-0.24423
-0.236021
-0.226855
-0.216839
-0.206225
-0.195311
-0.18439
-0.173621
-0.163289
-0.153096
-0.144043
-0.304275
-0.299155
-0.293978
-0.288355
-0.282297
-0.275975
-0.269381
-0.262352
-0.25464
-0.246004
-0.236323
-0.225661
-0.214265
-0.202472
-0.190611
-0.17895
-0.167634
-0.156869
-0.146393
-0.137095
-0.313757
-0.307823
-0.302018
-0.295826
-0.289181
-0.282202
-0.274797
-0.266722
-0.257701
-0.247543
-0.236248
-0.224038
-0.211279
-0.198363
-0.185619
-0.173275
-0.161451
-0.15028
-0.139544
-0.13001
-0.323921
-0.317133
-0.310683
-0.303902
-0.29662
-0.288879
-0.280492
-0.271153
-0.260594
-0.248727
-0.235719
-0.221945
-0.207864
-0.193889
-0.180322
-0.167345
-0.155047
-0.143499
-0.132526
-0.122766
-0.334709
-0.32704
-0.319936
-0.312542
-0.304552
-0.295912
-0.286341
-0.275496
-0.263174
-0.249446
-0.234664
-0.219345
-0.204
-0.189032
-0.174699
-0.161134
-0.148395
-0.136497
-0.125312
-0.115339
-0.346034
-0.337472
-0.32971
-0.321671
-0.31288
-0.30317
-0.292181
-0.279579
-0.26529
-0.24959
-0.23302
-0.216201
-0.199661
-0.183767
-0.168721
-0.154612
-0.141464
-0.129247
-0.117877
-0.107708
-0.357773
-0.348324
-0.339905
-0.331177
-0.321464
-0.310482
-0.29782
-0.283217
-0.266795
-0.249062
-0.230726
-0.212473
-0.194813
-0.178058
-0.162355
-0.147745
-0.134223
-0.121724
-0.110198
-0.0998551
-0.36977
-0.359456
-0.350382
-0.340906
-0.330122
-0.317638
-0.303042
-0.286221
-0.267548
-0.247767
-0.227722
-0.208116
-0.189417
-0.171869
-0.155563
-0.1405
-0.126643
-0.113902
-0.102252
-0.0917607
-0.38183
-0.370693
-0.360964
-0.350661
-0.338631
-0.324398
-0.307618
-0.288403
-0.267416
-0.245621
-0.223948
-0.203084
-0.183428
-0.165157
-0.148307
-0.132842
-0.118694
-0.105756
-0.0940181
-0.0834086
-0.393722
-0.381819
-0.371433
-0.360204
-0.346731
-0.330498
-0.311312
-0.289583
-0.266276
-0.242539
-0.219343
-0.197323
-0.1768
-0.15788
-0.140549
-0.124738
-0.11035
-0.0972647
-0.085476
-0.074784
-0.40518
-0.392583
-0.381531
-0.36926
-0.354134
-0.335664
-0.313896
-0.289591
-0.264013
-0.238443
-0.213846
-0.19078
-0.169483
-0.149994
-0.132252
-0.116157
-0.101584
-0.0884071
-0.0766081
-0.065874
-0.415908
-0.402703
-0.390968
-0.377523
-0.360534
-0.339617
-0.315149
-0.288275
-0.260522
-0.233256
-0.207394
-0.183402
-0.161432
-0.14146
-0.123383
-0.107071
-0.0923763
-0.0791656
-0.0673999
-0.0566697
-0.425584
-0.411865
-0.399424
-0.384666
-0.365614
-0.342088
-0.314868
-0.285492
-0.255707
-0.226906
-0.199927
-0.175136
-0.1526
-0.132238
-0.113908
-0.0974548
-0.0827065
-0.0695257
-0.057842
-0.0471703
-0.433868
-0.419738
-0.406562
-0.39035
-0.369064
-0.342824
-0.312869
-0.281119
-0.249479
-0.219323
-0.191388
-0.165933
-0.142947
-0.122294
-0.103802
-0.0872874
-0.0725583
-0.0594746
-0.0479297
-0.0373822
-0.440413
-0.425977
-0.412033
-0.394237
-0.370585
-0.341591
-0.308992
-0.275045
-0.24176
-0.210447
-0.181724
-0.155749
-0.132434
-0.1116
-0.093042
-0.0765514
-0.0619184
-0.0490017
-0.0376575
-0.0273054
-0.444869
-0.430235
-0.415491
-0.396
-0.369902
-0.338187
-0.303096
-0.267177
-0.232481
-0.200221
-0.170889
-0.144544
-0.121032
-0.100133
-0.0816103
-0.0652336
-0.0507775
-0.0381002
-0.0270141
-0.0169065
-0.446898
-0.432174
-0.416602
-0.395334
-0.366769
-0.332438
-0.295068
-0.257438
-0.221585
-0.188599
-0.158846
-0.132291
-0.108719
-0.0878738
-0.0694946
-0.0533243
-0.0391312
-0.0267721
-0.0159901
-0.00610798
-0.446183
-0.431472
-0.415054
-0.391968
-0.360979
-0.324203
-0.28482
-0.245768
-0.209027
-0.175546
-0.145565
-0.118967
-0.0954801
-0.0748104
-0.0566848
-0.0408212
-0.02698
-0.0150262
-0.00459717
0.0051099
-0.442432
-0.427836
-0.410569
-0.385667
-0.352363
-0.313377
-0.272287
-0.232128
-0.194778
-0.161038
-0.131029
-0.104556
-0.0813019
-0.0609363
-0.0431746
-0.0277382
-0.0143349
-0.00286896
0.0071659
0.0164541
-0.435393
-0.421009
-0.40291
-0.376242
-0.340795
-0.299887
-0.257433
-0.216495
-0.178822
-0.145063
-0.115226
-0.0890475
-0.0661687
-0.0462716
-0.028975
-0.0141006
-0.0012314
0.0097007
0.0192907
0.0280182
-0.424858
-0.410778
-0.391888
-0.363553
-0.326194
-0.283699
-0.240243
-0.198866
-0.16116
-0.127622
-0.0981596
-0.0724502
-0.050081
-0.0308594
-0.0141624
0.000125988
0.0123431
0.022665
0.0317348
0.0398372
-0.410667
-0.396981
-0.377363
-0.347511
-0.308522
-0.264809
-0.220734
-0.179259
-0.141807
-0.108731
-0.0798524
-0.0548151
-0.033173
-0.0146252
0.00130755
0.0148846
0.0263685
0.0360004
0.0444759
0.0519001
-0.392715
-0.379508
-0.359256
-0.328081
-0.287785
-0.243249
-0.198943
-0.15771
-0.120797
-0.0884287
-0.0603637
-0.0361542
-0.0153826
0.00233298
0.0174028
0.030149
0.0408145
0.0496805
0.0574931
0.0641798
-0.370955
-0.35831
-0.337539
-0.305273
-0.264032
-0.219084
-0.174936
-0.134278
-0.0981935
-0.0667802
-0.0397054
-0.0165104
0.00324689
0.0199794
0.0340795
0.0458874
0.0556473
0.0636751
0.0707586
0.0766442
-0.345395
-0.33339
-0.312242
-0.279155
-0.237355
-0.192411
-0.148798
-0.109047
-0.0740652
-0.0438285
-0.0179458
0.00406334
0.0226601
0.0382713
0.0512905
0.0620603
0.0708295
0.0779487
0.0842365
0.089256
-0.316104
-0.304812
-0.283452
-0.249848
-0.207892
-0.163343
-0.120632
-0.082112
-0.048494
-0.0196555
0.00484291
0.0255012
0.042794
0.0571565
0.0689856
0.0786221
0.0863194
0.0924616
0.0978843
0.101972
-0.283204
-0.272693
-0.251316
-0.217529
-0.175787
-0.131984
-0.0905847
-0.053592
-0.021586
0.00564385
0.028576
0.0477266
0.0635789
0.0765734
0.0871085
0.0955216
0.102071
0.107173
0.11166
0.114748
-0.246865
-0.23721
-0.216038
-0.182372
-0.141109
-0.0985982
-0.0588125
-0.0236249
0.006537
0.0319612
0.0531573
0.0706529
0.0849371
0.0964527
0.105597
0.112702
0.118036
0.122042
0.125529
0.127551
-0.207288
-0.198601
-0.177837
-0.144433
-0.104265
-0.0633557
-0.0254921
0.0076341
0.0357386
0.0591757
0.078479
0.0941843
0.106783
0.116719
0.124381
0.130099
0.13416
0.137029
0.139453
0.140339
-0.164707
-0.157141
-0.136844
-0.104168
-0.065471
-0.026475
0.00918219
0.0400149
0.0658689
0.0871545
0.104424
0.118216
0.129025
0.137288
0.143388
0.147651
0.150394
0.152087
0.15334
0.152963
-0.119386
-0.113153
-0.0934059
-0.0619288
-0.0249722
0.0118056
0.0450012
0.0733338
0.096766
0.115754
0.130864
0.142637
0.151563
0.158075
0.162542
0.165297
0.166698
0.167157
0.167002
0.165025
-0.0717369
-0.0669093
-0.0480197
-0.017962
0.0169493
0.0512323
0.0817422
0.107395
0.128257
0.144822
0.157665
0.167327
0.174293
0.178985
0.181763
0.182983
0.183033
0.182161
0.180219
0.176214
-0.0223683
-0.0186719
-0.000970207
0.0274051
0.0599918
0.0915383
0.119171
0.141993
0.16016
0.174197
0.184685
0.19216
0.197102
0.199921
0.200973
0.200643
0.199324
0.196973
0.192982
0.187453
0.0285377
0.0310407
0.0473784
0.0738226
0.103839
0.132445
0.157044
0.176911
0.192285
0.203712
0.211775
0.217006
0.219876
0.220783
0.220086
0.218193
0.215442
0.211453
0.20548
0.201254
0.0805689
0.0817976
0.0966306
0.120927
0.148166
0.173667
0.195109
0.21193
0.224436
0.233194
0.238783
0.241731
0.242497
0.24147
0.239013
0.235534
0.231267
0.225658
0.218435
0.214757
0.133275
0.133178
0.146379
0.168345
0.19264
0.214912
0.233109
0.246821
0.256414
0.262465
0.265554
0.266197
0.264844
0.261876
0.257658
0.252577
0.246774
0.239687
0.231523
0.227493
0.186206
0.18475
0.19621
0.2157
0.236927
0.255884
0.270785
0.281357
0.288016
0.291349
0.291929
0.290265
0.286795
0.281895
0.275921
0.269234
0.261914
0.253478
0.244441
0.239631
0.238909
0.236078
0.245709
0.262616
0.280691
0.29629
0.307878
0.315308
0.319039
0.319665
0.317751
0.313796
0.30823
0.301417
0.293707
0.285428
0.276632
0.266928
0.256987
0.25119
0.290934
0.286725
0.294467
0.308719
0.323603
0.335837
0.344129
0.348446
0.349283
0.347235
0.342862
0.336653
0.329024
0.320334
0.310919
0.301081
0.290859
0.279943
0.269071
0.262192
0.341834
0.336261
0.342078
0.353642
0.365335
0.374238
0.379285
0.380547
0.378548
0.373885
0.367109
0.358698
0.34906
0.338541
0.327465
0.316113
0.304518
0.292435
0.280625
0.272618
0.391175
0.384262
0.388147
0.39703
0.405573
0.411213
0.413099
0.411392
0.406641
0.399443
0.39034
0.3798
0.368219
0.355934
0.343256
0.330445
0.317535
0.304335
0.291595
0.282443
0.438533
0.430321
0.432294
0.438538
0.444012
0.446493
0.445331
0.440768
0.433374
0.423743
0.412409
0.399828
0.386387
0.372414
0.358204
0.344001
0.32984
0.315577
0.301932
0.291639
0.483505
0.474045
0.474155
0.477839
0.480359
0.47982
0.475754
0.468475
0.458569
0.446628
0.433176
0.418661
0.403458
0.387886
0.372226
0.356706
0.341367
0.326104
0.311588
0.300177
0.525706
0.515065
0.513385
0.514623
0.51434
0.510949
0.50415
0.494319
0.482055
0.467946
0.452509
0.436181
0.419328
0.402259
0.385242
0.368492
0.352054
0.33586
0.32052
0.308027
0.564778
0.553033
0.549664
0.548601
0.545698
0.539654
0.530318
0.518121
0.503674
0.487558
0.470283
0.452278
0.433901
0.415449
0.39718
0.379294
0.361844
0.344795
0.328686
0.315165
0.600387
0.587629
0.582693
0.579505
0.574196
0.565724
0.554072
0.539717
0.523277
0.505333
0.486385
0.466853
0.447088
0.427378
0.407969
0.389051
0.370684
0.352862
0.336046
0.321565
0.632232
0.618562
0.612204
0.607095
0.599619
0.588968
0.57524
0.558954
0.540733
0.521154
0.500709
0.479814
0.458808
0.437975
0.417549
0.397709
0.378527
0.360017
0.342566
0.327206
0.660044
0.645572
0.637957
0.631153
0.621774
0.609215
0.593673
0.575698
0.555921
0.534914
0.513163
0.491077
0.46899
0.447177
0.425863
0.405221
0.385328
0.366223
0.348212
0.33207
0.683586
0.668432
0.659742
0.651493
0.640496
0.626317
0.609237
0.589833
0.568738
0.546522
0.523666
0.500572
0.47757
0.454928
0.432864
0.411543
0.391052
0.371445
0.352959
0.336143
0.702661
0.686951
0.677383
0.667956
0.655643
0.640149
0.621821
0.601258
0.579096
0.555899
0.532148
0.508238
0.484495
0.461182
0.438511
0.41664
0.395666
0.375654
0.356781
0.339411
0.717107
0.700975
0.690738
0.680413
0.6671
0.650609
0.631335
0.609894
0.586922
0.562984
0.538554
0.514026
0.489723
0.465902
0.442771
0.420485
0.399145
0.378827
0.35966
0.341866
0.726802
0.710386
0.699697
0.688768
0.674782
0.657621
0.637711
0.61568
0.592165
0.567728
0.542842
0.5179
0.493219
0.469058
0.445618
0.423053
0.401469
0.380946
0.361581
0.3435
0.731665
0.715106
0.704189
0.692956
0.678631
0.661132
0.640903
0.618574
0.594786
0.570099
0.544984
0.519833
0.494964
0.470631
0.447037
0.424332
0.402625
0.382
0.362535
0.34431
0.731654
0.715094
0.704177
0.692943
0.678617
0.661117
0.640887
0.618558
0.594769
0.570081
0.544966
0.519815
0.494945
0.470612
0.447018
0.424313
0.402606
0.381981
0.362517
0.344292
0.726769
0.710352
0.699661
0.68873
0.674741
0.657576
0.637664
0.61563
0.592113
0.567674
0.542787
0.517844
0.493163
0.469001
0.445561
0.422996
0.401413
0.380891
0.361526
0.343448
0.717051
0.700917
0.690677
0.680348
0.66703
0.650535
0.631256
0.60981
0.586835
0.562894
0.538462
0.513932
0.489628
0.465807
0.442676
0.42039
0.399051
0.378735
0.359569
0.341779
0.702581
0.686868
0.677296
0.667864
0.655544
0.640044
0.621709
0.60114
0.578973
0.555773
0.532018
0.508106
0.484362
0.461049
0.438378
0.416508
0.395535
0.375524
0.356653
0.339289
0.683481
0.668322
0.659628
0.651372
0.640367
0.62618
0.609091
0.58968
0.56858
0.546358
0.523498
0.500402
0.477398
0.454756
0.432692
0.411372
0.390883
0.371278
0.352795
0.335986
0.659911
0.645433
0.637813
0.631002
0.621614
0.609044
0.593492
0.57551
0.555726
0.534712
0.512957
0.490868
0.468779
0.446965
0.425652
0.405011
0.385122
0.366019
0.348012
0.331878
0.632069
0.618393
0.612029
0.606911
0.599424
0.588762
0.575024
0.558728
0.540499
0.520913
0.500464
0.479565
0.458558
0.437724
0.417298
0.397461
0.378282
0.359776
0.342328
0.326978
0.60019
0.587426
0.582483
0.579287
0.573966
0.565482
0.553818
0.539452
0.523004
0.505053
0.486099
0.466564
0.446797
0.427087
0.407679
0.388764
0.370401
0.352583
0.335772
0.321302
0.564544
0.552792
0.549417
0.548344
0.54543
0.539373
0.530025
0.517817
0.50336
0.487237
0.469957
0.451948
0.433569
0.415117
0.39685
0.378967
0.361522
0.344479
0.328375
0.314867
0.525432
0.514783
0.513097
0.514326
0.514031
0.510627
0.503814
0.493972
0.481699
0.467583
0.45214
0.435808
0.418955
0.401886
0.384872
0.368126
0.351694
0.335506
0.320173
0.307694
0.483186
0.473718
0.473822
0.477497
0.480005
0.479453
0.475374
0.468084
0.458168
0.44622
0.432763
0.418245
0.403042
0.387471
0.371815
0.3563
0.340968
0.325712
0.311204
0.299808
0.438164
0.429943
0.431912
0.438148
0.44361
0.446079
0.444904
0.440331
0.432928
0.42329
0.411951
0.399368
0.385928
0.371957
0.357752
0.343555
0.329402
0.315148
0.301511
0.291236
0.390751
0.38383
0.387711
0.396587
0.405121
0.410749
0.412623
0.410905
0.406146
0.398942
0.389836
0.379294
0.367715
0.355434
0.342762
0.329958
0.317057
0.303867
0.291137
0.282004
0.341351
0.335769
0.341583
0.353143
0.364828
0.37372
0.378757
0.380009
0.378003
0.373335
0.366557
0.358146
0.34851
0.337997
0.326928
0.315585
0.304001
0.291929
0.280131
0.272144
0.290384
0.286167
0.293908
0.308158
0.323036
0.335261
0.343545
0.347855
0.348685
0.346634
0.342261
0.336053
0.328429
0.319745
0.310338
0.300512
0.290302
0.279399
0.268541
0.261684
0.238288
0.235448
0.245081
0.261988
0.28006
0.295653
0.307235
0.31466
0.318387
0.319011
0.317098
0.313147
0.307586
0.300782
0.293083
0.284817
0.276036
0.266347
0.25642
0.250647
0.185507
0.184042
0.195505
0.215001
0.236227
0.255182
0.27008
0.280649
0.287306
0.29064
0.291223
0.289565
0.286104
0.281214
0.275253
0.268581
0.261277
0.252859
0.243839
0.239054
0.132491
0.132385
0.145592
0.167568
0.191867
0.21414
0.232337
0.24605
0.255644
0.261699
0.264793
0.265445
0.264102
0.261148
0.256945
0.251881
0.246097
0.23903
0.230885
0.226882
0.0796933
0.0809143
0.0957564
0.120066
0.147315
0.172822
0.194267
0.211092
0.223603
0.232368
0.237967
0.240926
0.241705
0.240694
0.238255
0.234796
0.230551
0.224963
0.217761
0.21411
0.0275637
0.0300599
0.0464098
0.0728725
0.102905
0.131522
0.156129
0.176004
0.191387
0.202825
0.2109
0.216146
0.219032
0.219958
0.219282
0.217412
0.214685
0.210721
0.204771
0.200571
-0.023448
-0.0197566
-0.00203985
0.0263596
0.0589682
0.0905318
0.118179
0.141013
0.159194
0.173246
0.18375
0.191244
0.196206
0.199047
0.200123
0.199819
0.198527
0.196204
0.192241
0.186732
-0.0729293
-0.0681047
-0.049197
-0.0191087
0.0158315
0.0501384
0.0806684
0.10634
0.12722
0.143805
0.156669
0.166353
0.173343
0.178061
0.180867
0.182116
0.182196
0.181355
0.179446
0.175467
-0.120691
-0.114469
-0.094697
-0.0631829
-0.0261896
0.0106197
0.0438421
0.0721994
0.0956558
0.114669
0.129804
0.141604
0.150559
0.157101
0.161599
0.164388
0.165822
0.166316
0.166197
0.164253
-0.166138
-0.158581
-0.138253
-0.105535
-0.0667931
-0.0277575
0.00793409
0.0387982
0.0646826
0.0859985
0.103299
0.117124
0.127965
0.136264
0.142399
0.146699
0.149479
0.15121
0.152503
0.152164
-0.208851
-0.20017
-0.179378
-0.145916
-0.105697
-0.0647392
-0.0268331
0.00633184
0.0344734
0.0579472
0.0772874
0.0930302
0.105668
0.115643
0.123346
0.129105
0.133208
0.136119
0.138585
0.139513
-0.248565
-0.238914
-0.217709
-0.183986
-0.142654
-0.100087
-0.0602503
-0.0250159
0.00519045
0.0306581
0.0518973
0.0694364
0.0837648
0.0953254
0.104515
0.111666
0.117046
0.121098
0.124633
0.126698
-0.285044
-0.274537
-0.253122
-0.219271
-0.177459
-0.133582
-0.092123
-0.0550749
-0.0230165
0.00426416
0.0272463
0.0464467
0.0623493
0.0753944
0.0859806
0.0944447
0.101045
0.106197
0.110736
0.113872
-0.318089
-0.3068
-0.285399
-0.251722
-0.209687
-0.165059
-0.122274
-0.0836899
-0.0500108
-0.0211137
0.00344196
0.0241568
0.0415064
0.0559259
0.067812
0.0775049
0.0852579
0.0914555
0.0969334
0.101073
-0.347529
-0.335527
-0.314334
-0.281168
-0.239277
-0.194245
-0.150549
-0.110723
-0.0756706
-0.0453668
-0.0194192
0.0026533
0.0213139
0.0369893
0.050072
0.0609037
0.0697339
0.0769135
0.0832611
0.0883374
-0.373239
-0.360597
-0.33978
-0.307429
-0.266087
-0.221038
-0.176797
-0.136054
-0.0998897
-0.0684005
-0.0412521
-0.0179874
0.00184115
0.0186467
0.032817
0.0446924
0.054519
0.0626126
0.0697608
0.0757078
-0.395151
-0.381947
-0.361647
-0.330381
-0.289977
-0.245328
-0.200918
-0.159588
-0.122585
-0.0901326
-0.0619842
-0.0376994
-0.01685
0.000951563
0.0160974
0.0289166
0.039655
0.0485927
0.0564752
0.0632281
-0.413255
-0.399571
-0.379905
-0.349959
-0.310852
-0.267016
-0.222824
-0.181241
-0.143689
-0.110519
-0.0815478
-0.056429
-0.0347061
-0.0160513
-4.06875e-05
0.0136156
0.0251796
0.0348894
0.0434404
0.050936
-0.427597
-0.413519
-0.39458
-0.366148
-0.328663
-0.286036
-0.242452
-0.200956
-0.163138
-0.129496
-0.099932
-0.0741281
-0.0516839
-0.0323252
-0.0155557
-0.00117829
0.011127
0.0215332
0.0306847
0.0388637
-0.438281
-0.423898
-0.405751
-0.378983
-0.343406
-0.302356
-0.259761
-0.218693
-0.180898
-0.147023
-0.117075
-0.0907862
-0.0678077
-0.0478056
-0.0304165
-0.0154381
-0.00247255
0.00855052
0.0182293
0.0270382
-0.445464
-0.430869
-0.413555
-0.388554
-0.355114
-0.315977
-0.274738
-0.234436
-0.196952
-0.163086
-0.132955
-0.106362
-0.0829936
-0.0625253
-0.0446566
-0.0291085
-0.0155989
-0.00403473
0.00609762
0.0154706
-0.449354
-0.434643
-0.41818
-0.394996
-0.36387
-0.326936
-0.287393
-0.248188
-0.211302
-0.177683
-0.147571
-0.120843
-0.0972332
-0.0764474
-0.0582038
-0.0422214
-0.0282656
-0.0162018
-0.00566807
0.00412808
-0.450203
-0.435477
-0.419862
-0.3985
-0.369797
-0.335303
-0.297765
-0.259969
-0.223961
-0.190827
-0.160933
-0.134239
-0.110534
-0.0895584
-0.0710501
-0.0547519
-0.0404347
-0.0279547
-0.0170567
-0.00707126
-0.448298
-0.433662
-0.418877
-0.399296
-0.373062
-0.341182
-0.305915
-0.269822
-0.234959
-0.202541
-0.173057
-0.146564
-0.122907
-0.101865
-0.0832024
-0.0666867
-0.0520956
-0.0392868
-0.028074
-0.0178514
-0.443958
-0.429518
-0.415537
-0.397656
-0.373873
-0.344713
-0.311933
-0.277804
-0.244342
-0.21286
-0.183975
-0.15784
-0.134369
-0.113381
-0.0946702
-0.0780285
-0.0632482
-0.0501887
-0.0387074
-0.0282296
-0.43752
-0.423383
-0.410174
-0.393884
-0.372472
-0.346069
-0.315931
-0.283992
-0.252167
-0.221832
-0.193722
-0.168097
-0.144942
-0.124124
-0.105466
-0.0887869
-0.073897
-0.0606577
-0.0489638
-0.0382791
-0.429332
-0.415604
-0.403133
-0.388304
-0.369135
-0.345452
-0.318048
-0.288479
-0.258501
-0.229511
-0.202347
-0.177375
-0.154659
-0.134116
-0.115607
-0.0989749
-0.084051
-0.0707
-0.0588537
-0.0480316
-0.419742
-0.406525
-0.394762
-0.381255
-0.364158
-0.343092
-0.318443
-0.291374
-0.263423
-0.235959
-0.209902
-0.185717
-0.163554
-0.143388
-0.125116
-0.10861
-0.0937237
-0.0803263
-0.0683821
-0.0574864
-0.409088
-0.396477
-0.3854
-0.373075
-0.357852
-0.339242
-0.317301
-0.292803
-0.267021
-0.241247
-0.216446
-0.193175
-0.171672
-0.151975
-0.134022
-0.117714
-0.102931
-0.089549
-0.0775535
-0.0666367
-0.397694
-0.385774
-0.375365
-0.364089
-0.350531
-0.334172
-0.314822
-0.292903
-0.269393
-0.245447
-0.222038
-0.199802
-0.179059
-0.159915
-0.142355
-0.126313
-0.111694
-0.0983828
-0.086377
-0.0754826
-0.385855
-0.374699
-0.364949
-0.354605
-0.342502
-0.328157
-0.311226
-0.29183
-0.270643
-0.248635
-0.226742
-0.205651
-0.185762
-0.16725
-0.150152
-0.134434
-0.120033
-0.106845
-0.0948666
-0.0840317
-0.373838
-0.363503
-0.354409
-0.344898
-0.334053
-0.321472
-0.306741
-0.289752
-0.270885
-0.250892
-0.230621
-0.210779
-0.191832
-0.174025
-0.157449
-0.142111
-0.127974
-0.114956
-0.103039
-0.0922959
-0.361875
-0.352403
-0.343964
-0.335207
-0.325443
-0.31438
-0.301602
-0.286847
-0.270242
-0.2523
-0.233737
-0.215238
-0.197316
-0.180283
-0.164288
-0.149376
-0.135545
-0.122739
-0.110915
-0.100289
-0.350162
-0.341575
-0.333794
-0.32573
-0.316897
-0.307122
-0.296036
-0.283301
-0.268845
-0.252946
-0.23615
-0.219078
-0.202262
-0.18607
-0.170707
-0.156265
-0.142775
-0.130216
-0.118513
-0.108026
-0.338857
-0.331161
-0.324037
-0.316621
-0.308598
-0.299907
-0.29026
-0.279305
-0.266837
-0.252924
-0.237921
-0.222344
-0.206711
-0.191424
-0.176746
-0.162815
-0.149697
-0.137416
-0.125856
-0.115523
-0.328082
-0.321266
-0.314795
-0.307994
-0.300686
-0.292908
-0.284466
-0.275043
-0.264362
-0.252331
-0.239111
-0.225079
-0.210698
-0.196382
-0.18244
-0.16906
-0.156341
-0.144363
-0.132968
-0.122799
-0.317928
-0.311963
-0.306136
-0.299926
-0.293262
-0.286259
-0.278818
-0.270686
-0.261572
-0.251274
-0.239785
-0.227322
-0.214253
-0.200974
-0.187823
-0.175034
-0.16274
-0.151086
-0.139872
-0.129872
-0.308452
-0.303299
-0.298099
-0.292458
-0.286386
-0.280052
-0.273443
-0.266384
-0.25861
-0.249866
-0.240013
-0.229109
-0.217398
-0.205221
-0.192918
-0.180765
-0.168923
-0.157612
-0.146593
-0.136763
-0.29969
-0.295296
-0.290698
-0.285608
-0.280088
-0.274345
-0.268434
-0.26226
-0.255611
-0.248223
-0.239872
-0.23048
-0.22015
-0.209134
-0.197741
-0.186276
-0.174918
-0.163969
-0.153157
-0.143492
-0.291653
-0.287958
-0.28393
-0.279368
-0.274371
-0.269162
-0.263849
-0.258407
-0.252689
-0.246456
-0.239448
-0.231482
-0.222525
-0.212716
-0.202298
-0.191579
-0.180745
-0.17018
-0.159587
-0.150081
-0.284335
-0.281272
-0.277778
-0.273719
-0.269218
-0.264504
-0.259716
-0.254888
-0.249937
-0.244669
-0.238828
-0.232167
-0.224541
-0.215962
-0.206579
-0.196675
-0.186415
-0.176265
-0.165905
-0.156553
-0.277717
-0.275214
-0.272211
-0.268629
-0.264601
-0.260351
-0.256038
-0.251736
-0.247419
-0.24295
-0.238098
-0.232597
-0.22622
-0.218867
-0.210567
-0.201547
-0.191926
-0.182235
-0.172131
-0.162922
-0.271765
-0.26975
-0.267195
-0.264059
-0.260481
-0.256672
-0.252798
-0.248961
-0.245178
-0.241366
-0.237338
-0.232837
-0.227596
-0.221425
-0.214232
-0.206163
-0.197258
-0.188086
-0.178263
-0.169237
-0.266437
-0.264839
-0.262686
-0.259965
-0.256813
-0.253426
-0.249966
-0.246552
-0.243231
-0.239964
-0.236612
-0.232953
-0.228711
-0.223641
-0.217547
-0.210479
-0.202364
-0.193801
-0.184304
-0.175478
-0.26168
-0.260434
-0.258638
-0.2563
-0.253551
-0.250566
-0.247503
-0.244483
-0.241573
-0.238767
-0.235971
-0.233005
-0.229614
-0.22553
-0.220487
-0.214436
-0.207195
-0.199309
-0.190227
-0.181775
-0.257436
-0.256482
-0.255001
-0.253015
-0.250644
-0.248045
-0.245363
-0.242718
-0.240185
-0.23778
-0.235445
-0.233042
-0.230354
-0.227121
-0.223043
-0.217986
-0.211661
-0.204583
-0.195908
-0.187942
-0.253641
-0.252927
-0.251724
-0.25006
-0.248042
-0.24581
-0.243495
-0.24121
-0.239031
-0.236985
-0.235041
-0.233098
-0.230979
-0.228452
-0.225222
-0.22108
-0.215725
-0.209344
-0.2019
-0.193382
-0.25023
-0.249713
-0.248754
-0.247383
-0.245695
-0.24381
-0.241847
-0.239908
-0.238066
-0.236351
-0.234749
-0.233186
-0.231524
-0.229565
-0.227052
-0.223692
-0.219371
-0.213466
-0.20777
-0.19825
-0.247136
-0.246785
-0.246042
-0.244937
-0.243554
-0.241996
-0.240368
-0.238761
-0.237239
-0.235835
-0.23454
-0.2333
-0.232008
-0.230498
-0.228572
-0.225828
-0.222565
-0.216831
-0.212971
-0.202557
-0.244297
-0.24409
-0.243538
-0.242675
-0.241574
-0.240321
-0.239009
-0.237716
-0.236499
-0.235387
-0.234374
-0.233417
-0.232431
-0.231275
-0.22982
-0.227528
-0.225283
-0.219416
-0.217554
-0.206091
-0.241655
-0.24158
-0.241201
-0.240559
-0.239714
-0.238743
-0.237725
-0.236727
-0.235797
-0.234958
-0.234205
-0.2335
-0.232774
-0.231905
-0.230819
-0.228864
-0.227506
-0.221337
-0.221626
-0.208703
-0.239162
-0.239213
-0.238996
-0.238552
-0.237943
-0.237229
-0.23648
-0.235753
-0.235088
-0.234502
-0.233988
-0.233512
-0.233011
-0.232383
-0.231578
-0.229909
-0.229201
-0.222829
-0.225048
-0.210419
-0.236778
-0.236958
-0.236892
-0.236631
-0.236234
-0.23575
-0.235245
-0.234764
-0.23434
-0.233984
-0.233686
-0.233414
-0.233111
-0.232689
-0.232094
-0.230709
-0.230343
-0.224133
-0.227532
-0.21153
-0.234475
-0.234792
-0.234869
-0.234774
-0.234567
-0.234292
-0.234003
-0.23374
-0.23353
-0.233378
-0.233272
-0.23318
-0.233049
-0.232803
-0.232367
-0.231266
-0.230964
-0.225351
-0.228911
-0.212515
-0.232238
-0.2327
-0.232915
-0.232972
-0.232935
-0.232844
-0.232744
-0.232671
-0.232646
-0.232671
-0.232731
-0.232795
-0.23281
-0.232709
-0.232402
-0.231557
-0.231156
-0.226419
-0.229296
-0.213689
-0.230062
-0.230678
-0.231027
-0.231223
-0.231337
-0.231404
-0.231467
-0.231557
-0.231689
-0.231863
-0.232063
-0.232256
-0.232393
-0.232409
-0.232207
-0.231566
-0.231023
-0.2272
-0.228996
-0.215033
-0.227953
-0.228731
-0.229209
-0.229531
-0.229777
-0.229982
-0.230183
-0.230408
-0.23067
-0.230967
-0.23128
-0.231577
-0.23181
-0.231917
-0.231799
-0.231303
-0.23066
-0.227591
-0.228336
-0.216335
-0.225927
-0.22687
-0.227473
-0.227908
-0.22827
-0.228591
-0.228906
-0.229242
-0.229609
-0.230003