/*--------------------------------*- C++ -*----------------------------------*\
  =========                 |
  \\      /  F ield         | OpenFOAM: The Open Source CFD Toolbox
   \\    /   O peration     | Website:  https://openfoam.org
    \\  /    A nd           | Version:  7
     \\/     M anipulation  |
\*---------------------------------------------------------------------------*/
FoamFile
{
    version     2.0;
    format      ascii;
    class       surfaceScalarField;
    location    "7";
    object      phi;
}
// * * * * * * * * * * * * * * * * * * * * * * * * * * * * * * * * * * * * * //

dimensions      [0 3 -1 0 0 0 0];

internalField   nonuniform List<scalar> 
613
(
3.27888e-05
-6.30291e-07
3.33603e-05
-5.71494e-07
3.38689e-05
-5.0862e-07
3.43135e-05
-4.44592e-07
-3.81732e-07
3.46953e-05
9.82898e-05
0.000100008
-2.28997e-06
0.000101535
-2.0349e-06
0.000102866
-1.77594e-06
-1.52234e-06
0.000104006
0.00016641
-5.17103e-06
0.000168958
-4.58228e-06
0.000171169
-3.98754e-06
-3.40769e-06
0.000173055
0.000232404
-9.23912e-06
0.000235976
-8.15403e-06
0.000239054
-7.06567e-06
-6.01111e-06
0.000241658
0.000297834
0.000302429
0.000306348
0.000309625
3.50126e-05
-3.17306e-07
3.52758e-05
-2.63176e-07
3.54895e-05
-2.13753e-07
3.56589e-05
-1.69395e-07
3.57891e-05
-1.30153e-07
3.58849e-05
-9.58366e-08
3.5951e-05
-6.60953e-08
3.59915e-05
-4.04921e-08
3.60101e-05
-1.85746e-08
3.601e-05
8.53804e-11
3.5994e-05
1.60095e-08
3.59645e-05
2.94631e-08
3.59237e-05
4.08192e-08
3.58733e-05
5.03797e-08
3.58149e-05
5.84053e-08
3.57498e-05
6.51174e-08
3.56791e-05
7.07047e-08
3.56037e-05
7.53284e-08
3.55246e-05
7.91262e-08
3.54424e-05
8.22156e-08
3.53577e-05
8.46973e-08
3.5271e-05
8.66574e-08
3.51829e-05
8.81701e-08
3.50936e-05
8.92993e-08
3.50035e-05
9.01001e-08
3.49129e-05
9.06204e-08
3.4822e-05
9.09017e-08
3.4731e-05
9.09801e-08
3.46401e-05
9.0887e-08
3.45494e-05
9.06496e-08
3.44591e-05
9.02919e-08
3.43693e-05
8.98347e-08
3.428e-05
8.92959e-08
3.41913e-05
8.86915e-08
3.41033e-05
8.80349e-08
3.40159e-05
8.73382e-08
3.39293e-05
8.66117e-08
3.38435e-05
8.58642e-08
3.37584e-05
8.51033e-08
3.3674e-05
8.43357e-08
3.35905e-05
8.3567e-08
3.35077e-05
8.28019e-08
3.34256e-05
8.20443e-08
3.33443e-05
8.12977e-08
3.32638e-05
8.05648e-08
3.31839e-05
7.98479e-08
3.31048e-05
7.91487e-08
3.30263e-05
7.84688e-08
3.29485e-05
7.7809e-08
3.28713e-05
7.71703e-08
3.27948e-05
7.65532e-08
3.27188e-05
7.59578e-08
3.26434e-05
7.53844e-08
3.25686e-05
7.48329e-08
3.24943e-05
7.43029e-08
3.24205e-05
7.37943e-08
3.23472e-05
7.33065e-08
3.22743e-05
7.28391e-08
3.22019e-05
7.23915e-08
3.213e-05
7.1963e-08
3.20584e-05
7.15529e-08
3.19873e-05
7.11605e-08
3.19165e-05
7.0785e-08
3.18461e-05
7.04258e-08
7.0082e-08
0.000104952
-1.26325e-06
0.000105735
-1.04584e-06
0.000106369
-8.47735e-07
0.00010687
-6.70303e-07
0.000107253
-5.13636e-07
0.000107534
-3.76849e-07
0.000107727
-2.58448e-07
0.000107843
-1.56617e-07
0.000107894
-6.95174e-08
0.000107889
4.5922e-09
0.000107838
6.78687e-08
0.000107746
1.21279e-07
0.00010762
1.66367e-07
0.000107466
2.04345e-07
0.000107288
2.36243e-07
0.000107091
2.62936e-07
0.000106876
2.85176e-07
0.000106648
3.03601e-07
0.000106408
3.18758e-07
0.000106159
3.31112e-07
0.000105903
3.4106e-07
0.000105641
3.48945e-07
0.000105374
3.55058e-07
0.000105103
3.59653e-07
0.000104831
3.62948e-07
0.000104556
3.65132e-07
0.000104281
3.66368e-07
0.000104005
3.66799e-07
0.000103729
3.66549e-07
0.000103454
3.65726e-07
0.00010318
3.64423e-07
0.000102907
3.62722e-07
0.000102636
3.60694e-07
0.000102366
3.58401e-07
0.000102098
3.55897e-07
0.000101832
3.53229e-07
0.000101568
3.50436e-07
0.000101307
3.47555e-07
0.000101047
3.44614e-07
0.00010079
3.4164e-07
0.000100535
3.38655e-07
0.000100282
3.35677e-07
0.000100031
3.32722e-07
9.97826e-05
3.29803e-07
9.95363e-05
3.26932e-07
9.9292e-05
3.24116e-07
9.90498e-05
3.21364e-07
9.88096e-05
3.18681e-07
9.85713e-05
3.16071e-07
9.8335e-05
3.13538e-07
9.81004e-05
3.11084e-07
9.78677e-05
3.08709e-07
9.76366e-05
3.06415e-07
9.74073e-05
3.04202e-07
9.71795e-05
3.02069e-07
9.69533e-05
3.00014e-07
9.67286e-05
2.98037e-07
9.65053e-05
2.96135e-07
9.62833e-05
2.94307e-07
9.60628e-05
2.9255e-07
9.58434e-05
2.90862e-07
9.56254e-05
2.89239e-07
9.54085e-05
2.8768e-07
9.51927e-05
2.86182e-07
2.84741e-07
0.00017461
-2.81857e-06
0.00017589
-2.32537e-06
0.00017692
-1.87768e-06
0.000177728
-1.47821e-06
0.000178341
-1.12673e-06
0.000178785
-8.20775e-07
0.000179083
-5.56586e-07
0.000179256
-3.29796e-07
0.000179322
-1.36121e-07
0.000179298
2.86519e-08
0.000179197
1.69146e-07
0.000179031
2.87736e-07
0.000178809
3.8787e-07
0.000178541
4.72277e-07
0.000178234
5.43242e-07
0.000177894
6.0271e-07
0.000177527
6.52344e-07
0.000177137
6.9356e-07
0.000176729
7.27562e-07
0.000176304
7.55378e-07
0.000175867
7.77884e-07
0.000175421
7.95831e-07
0.000174966
8.09864e-07
0.000174505
8.2054e-07
0.000174039
8.28338e-07
0.000173571
8.33672e-07
0.0001731
8.36903e-07
0.000172629
8.38343e-07
0.000172157
8.38263e-07
0.000171686
8.369e-07
0.000171216
8.34458e-07
0.000170748
8.31116e-07
0.000170281
8.27031e-07
0.000169817
8.22337e-07
0.000169356
8.17151e-07
0.000168898
8.11576e-07
0.000168442
8.057e-07
0.00016799
7.99599e-07
0.000167542
7.93339e-07
0.000167096
7.86976e-07
0.000166654
7.80558e-07
0.000166216
7.74128e-07
0.000165781
7.67718e-07
0.000165349
7.6136e-07
0.000164921
7.55076e-07
0.000164496
7.48888e-07
0.000164075
7.42812e-07
0.000163657
7.36861e-07
0.000163242
7.31045e-07
0.00016283
7.25372e-07
0.000162421
7.19847e-07
0.000162015
7.14475e-07
0.000161613
7.09258e-07
0.000161213
7.04197e-07
0.000160815
6.99291e-07
0.000160421
6.94538e-07
0.000160029
6.89937e-07
0.00015964
6.85484e-07
0.000159253
6.81176e-07
0.000158868
6.7701e-07
0.000158486
6.72979e-07
0.000158106
6.6908e-07
0.000157729
6.65308e-07
0.000157353
6.61657e-07
6.58122e-07
0.000243787
-4.94816e-06
0.000245523
-4.06123e-06
0.000246906
-3.26058e-06
0.000247978
-2.55003e-06
0.000248779
-1.92796e-06
0.000249347
-1.38876e-06
0.000249715
-9.24721e-07
0.000249913
-5.27412e-07
0.000249965
-1.88749e-07
0.000249894
9.95303e-08
0.000249719
3.44674e-07
0.000249455
5.51769e-07
0.000249116
7.26781e-07
0.000248714
8.74503e-07
0.000248258
9.98925e-07
0.000247757
1.10343e-06
0.000247219
1.19092e-06
0.000246649
1.26382e-06
0.000246052
1.32423e-06
0.000245433
1.37392e-06
0.000244797
1.41439e-06
0.000244146
1.44693e-06
0.000243483
1.47267e-06
0.000242811
1.49255e-06
0.000242132
1.5074e-06
0.000241448
1.51793e-06
0.00024076
1.52476e-06
0.00024007
1.52843e-06
0.000239378
1.5294e-06
0.000238687
1.52808e-06
0.000237997
1.52482e-06
0.000237308
1.51993e-06
0.000236621
1.51367e-06
0.000235938
1.50628e-06
0.000235257
1.49796e-06
0.000234579
1.48889e-06
0.000233906
1.47922e-06
0.000233236
1.46908e-06
0.000232571
1.45858e-06
0.00023191
1.44782e-06
0.000231254
1.4369e-06
0.000230602
1.42587e-06
0.000229955
1.41481e-06
0.000229313
1.40376e-06
0.000228675
1.39277e-06
0.000228042
1.38188e-06
0.000227414
1.37111e-06
0.00022679
1.3605e-06
0.000226171
1.35006e-06
0.000225557
1.33981e-06
0.000224947
1.32976e-06
0.000224341
1.31992e-06
0.00022374
1.3103e-06
0.000223144
1.3009e-06
0.000222551
1.29172e-06
0.000221963
1.28276e-06
0.000221379
1.27403e-06
0.000220799
1.26552e-06
0.000220223
1.25722e-06
0.000219651
1.24914e-06
0.000219082
1.24126e-06
0.000218518
1.23358e-06
0.000217957
0.0002174
0.000312273
0.000314402
0.000316072
0.000317341
0.000318268
0.000318901
0.000319284
0.000319455
0.000319446
0.000319284
0.000318993
0.000318592
0.000318098
0.000317524
0.000316884
0.000316186
0.00031544
0.000314653
0.000313832
0.000312982
0.000312109
0.000311216
0.000310306
0.000309384
0.000308452
0.000307512
0.000306566
0.000305616
0.000304664
0.000303712
0.000302759
0.000301808
0.000300859
0.000299913
0.00029897
0.000298032
0.000297098
0.00029617
0.000295246
0.000294329
0.000293417
0.000292512
0.000291613
0.00029072
0.000289834
0.000288954
0.000288081
0.000287214
0.000286355
0.000285502
0.000284655
0.000283816
0.000282982
0.000282156
0.000281336
0.000280522
0.000279715
0.000278914
0.00027812
0.000277331
0.000276549
)
;

boundaryField
{
    inlet
    {
        type            calculated;
        value           nonuniform 0();
    }
    outlet
    {
        type            calculated;
        value           nonuniform 0();
    }
    wall
    {
        type            calculated;
        value           nonuniform 0();
    }
    wedge1
    {
        type            wedge;
        value           nonuniform List<scalar> 
344
(
1.70714e-16
1.4319e-16
1.56535e-16
1.31393e-16
1.32995e-15
-1.98976e-16
-3.81213e-16
1.40872e-16
1.18291e-16
1.19029e-15
-1.78413e-16
-3.39448e-16
1.245e-16
1.04569e-16
1.04601e-15
-1.57208e-16
-2.96866e-16
1.08172e-16
9.08833e-17
9.0296e-16
-1.36253e-16
-2.55178e-16
9.10054e-17
7.64853e-17
7.54659e-16
-1.14466e-16
-2.12459e-16
7.65926e-17
6.43202e-17
6.2963e-16
-9.61758e-17
-1.76724e-16
6.31001e-17
5.308e-17
5.15192e-16
-7.94369e-17
-1.44307e-16
5.0964e-17
4.30053e-17
4.12116e-16
-6.43877e-17
-1.15423e-16
4.01448e-17
3.38883e-17
3.2079e-16
-5.10038e-17
-8.99565e-17
3.07098e-17
2.58547e-17
2.40717e-16
-3.93015e-17
-6.78285e-17
2.22884e-17
1.88332e-17
1.71325e-16
-2.90959e-17
-4.8709e-17
1.49985e-17
1.28368e-17
1.1146e-16
-2.02957e-17
-3.22933e-17
8.79132e-18
7.59866e-18
6.02655e-17
-1.2687e-17
-1.81838e-17
3.5779e-18
2.99872e-18
1.64115e-17
-6.18107e-18
-6.12865e-18
-1.05582e-18
-8.54885e-19
-1.93938e-17
-5.80597e-19
4.05189e-18
-5.06219e-18
-4.02944e-18
-4.92944e-17
4.12722e-18
1.26178e-17
-8.32859e-18
-6.81553e-18
-7.48518e-17
8.1773e-18
2.00146e-17
-1.09676e-17
-9.25093e-18
-9.67754e-17
1.16276e-17
2.63463e-17
-1.32901e-17
-1.1269e-17
-1.15387e-16
1.45882e-17
3.17279e-17
-1.5475e-17
-1.28845e-17
-1.31245e-16
1.70778e-17
3.63005e-17
-1.71006e-17
-1.42434e-17
-1.44646e-16
1.92383e-17
4.02229e-17
-1.83427e-17
-1.5533e-17
-1.55984e-16
2.10364e-17
4.35822e-17
-1.94694e-17
-1.65021e-17
-1.65491e-16
2.25598e-17
4.63862e-17
-2.06166e-17
-1.73196e-17
-1.73367e-16
2.38447e-17
4.87626e-17
-2.12829e-17
-1.7933e-17
-1.79957e-16
2.48886e-17
5.07236e-17
-2.19276e-17
-1.84418e-17
-1.85344e-16
2.57795e-17
5.23698e-17
-2.23344e-17
-1.89705e-17
-1.8969e-16
2.64957e-17
5.37636e-17
-2.26335e-17
-1.92836e-17
-1.93154e-16
2.70897e-17
5.48676e-17
-2.30841e-17
-1.94777e-17
-1.95815e-16
2.7547e-17
5.57334e-17
-2.32579e-17
-1.96185e-17
-1.97872e-16
2.7915e-17
5.64214e-17
-2.32967e-17
-1.98051e-17
-1.99308e-16
2.81703e-17
5.69759e-17
-2.33046e-17
-1.98746e-17
-2.00237e-16
2.83715e-17
5.73442e-17
-2.34701e-17
-1.98542e-17
-2.00633e-16
2.84896e-17
5.7578e-17
-2.34079e-17
-1.97871e-17
-2.00666e-16
2.8565e-17
5.77062e-17
-2.32811e-17
-1.97991e-17
-2.00321e-16
2.85783e-17
5.77634e-17
-2.31222e-17
-1.97159e-17
-1.99732e-16
2.85512e-17
5.77172e-17
-2.31061e-17
-1.9583e-17
-1.98883e-16
2.84831e-17
5.7586e-17
-2.29482e-17
-1.94359e-17
-1.97874e-16
2.83987e-17
5.7408e-17
-2.27458e-17
-1.935e-17
-1.96702e-16
2.82724e-17
5.72043e-17
-2.25287e-17
-1.91943e-17
-1.9541e-16
2.81376e-17
5.69396e-17
-2.24308e-17
-1.90161e-17
-1.94007e-16
2.79781e-17
5.66337e-17
-2.2228e-17
-1.88421e-17
-1.92559e-16
2.78127e-17
5.63056e-17
-2.19871e-17
-1.87121e-17
-1.91039e-16
2.76312e-17
5.59734e-17
-2.17707e-17
-1.85388e-17
-1.89493e-16
2.74481e-17
5.5611e-17
-2.16288e-17
-1.83528e-17
-1.8791e-16
2.72526e-17
5.52301e-17
-2.14108e-17
-1.81679e-17
-1.86328e-16
2.70576e-17
5.48409e-17
-2.11926e-17
-1.80142e-17
-1.84733e-16
2.68584e-17
5.44576e-17
-2.09791e-17
-1.78364e-17
-1.83156e-16
2.66582e-17
5.40589e-17
-2.08151e-17
-1.76717e-17
-1.81582e-16
2.64598e-17
5.3659e-17
-2.06115e-17
-1.75003e-17
-1.80045e-16
2.62599e-17
5.32565e-17
-2.04156e-17
-1.7333e-17
-1.78529e-16
2.60619e-17
5.28557e-17
-2.02309e-17
-1.71858e-17
-1.77039e-16
2.58665e-17
5.24622e-17
-2.00479e-17
-1.70282e-17
-1.75584e-16
2.56744e-17
5.20679e-17
-1.98845e-17
-1.68781e-17
-1.74161e-16
2.54858e-17
5.16782e-17
-1.97109e-17
-1.6731e-17
-1.72779e-16
2.52996e-17
5.12929e-17
-1.95552e-17
-1.65899e-17
-1.71435e-16
2.5118e-17
5.0913e-17
-1.93971e-17
-1.64516e-17
-1.70132e-16
2.49372e-17
5.05381e-17
-1.9243e-17
-1.63267e-17
-1.68869e-16
2.47653e-17
5.01729e-17
-1.90959e-17
-1.62019e-17
-1.67644e-16
2.45922e-17
4.98121e-17
-1.89701e-17
-1.60718e-17
-1.66462e-16
2.4427e-17
4.94527e-17
-1.88423e-17
-1.59519e-17
-1.65318e-16
2.42639e-17
4.91049e-17
-1.86838e-17
-1.58512e-17
-1.64215e-16
2.41082e-17
4.87685e-17
-1.85665e-17
-1.5747e-17
-1.63143e-16
2.39521e-17
4.84372e-17
-1.84769e-17
-1.56269e-17
-1.62115e-16
2.38054e-17
4.81041e-17
-1.83665e-17
-1.55238e-17
-1.61117e-16
2.3659e-17
4.7783e-17
-1.82245e-17
-1.54439e-17
-1.60162e-16
2.35216e-17
4.74768e-17
-1.81239e-17
-1.53602e-17
-1.59231e-16
2.33797e-17
-1.80355e-17
-1.52562e-17
-1.58342e-16
2.32501e-17
-1.79377e-17
-1.5182e-17
-1.57473e-16
2.31128e-17
)
;
    }
    wedge2
    {
        type            wedge;
        value           nonuniform List<scalar> 
344
(
1.71584e-16
1.45618e-16
1.57438e-16
1.33787e-16
1.33472e-15
-1.93207e-16
-3.7559e-16
1.41785e-16
1.207e-16
1.19498e-15
-1.72804e-16
-3.33971e-16
1.25483e-16
1.0707e-16
1.05055e-15
-1.51772e-16
-2.91554e-16
1.09165e-16
9.34186e-17
9.07418e-16
-1.30976e-16
-2.50002e-16
9.20545e-17
7.90528e-17
7.58867e-16
-1.09474e-16
-2.07563e-16
7.74691e-17
6.68817e-17
6.33769e-16
-9.13335e-17
-1.71982e-16
6.42291e-17
5.56926e-17
5.19121e-16
-7.47829e-17
-1.39743e-16
5.21211e-17
4.54088e-17
4.1595e-16
-5.98835e-17
-1.10953e-16
4.12813e-17
3.63233e-17
3.24407e-16
-4.67158e-17
-8.57082e-17
3.16075e-17
2.82833e-17
2.44292e-16
-3.51445e-17
-6.37162e-17
2.3332e-17
2.12439e-17
1.74673e-16
-2.51197e-17
-4.47315e-17
1.61491e-17
1.50291e-17
1.14742e-16
-1.64402e-17
-2.84041e-17
9.87939e-18
9.72176e-18
6.32859e-17
-9.01854e-18
-1.44865e-17
4.38429e-18
5.25552e-18
1.94941e-17
-2.63345e-18
-2.60145e-18
-1.40095e-19
1.34456e-18
-1.67437e-17
2.76204e-18
7.3811e-18
-3.89739e-18
-2.08966e-18
-4.66375e-17
7.38524e-18
1.5912e-17
-7.2456e-18
-4.93939e-18
-7.23582e-17
1.13035e-17
2.31489e-17
-1.02176e-17
-7.29773e-18
-9.42818e-17
1.46516e-17
2.93294e-17
-1.26526e-17
-9.35046e-18
-1.13057e-16
1.748e-17
3.46313e-17
-1.4452e-17
-1.11794e-17
-1.28978e-16
1.99078e-17
3.91631e-17
-1.61808e-17
-1.27263e-17
-1.42494e-16
2.19115e-17
4.29812e-17
-1.77398e-17
-1.38696e-17
-1.53865e-16
2.36268e-17
4.61827e-17
-1.89484e-17
-1.49328e-17
-1.63421e-16
2.50542e-17
4.89188e-17
-1.97042e-17
-1.57992e-17
-1.71454e-16
2.62334e-17
5.11976e-17
-2.05986e-17
-1.65686e-17
-1.7804e-16
2.72321e-17
5.31236e-17
-2.12101e-17
-1.71862e-17
-1.83461e-16
2.80191e-17
5.46974e-17
-2.17977e-17
-1.75529e-17
-1.87872e-16
2.86641e-17
5.59422e-17
-2.22758e-17
-1.79446e-17
-1.9139e-16
2.91577e-17
5.69732e-17
-2.23922e-17
-1.82887e-17
-1.94171e-16
2.95509e-17
5.78028e-17
-2.26276e-17
-1.85443e-17
-1.96226e-16
2.98286e-17
5.84282e-17
-2.28557e-17
-1.86268e-17
-1.97752e-16
3.00416e-17
5.88554e-17
-2.29909e-17
-1.87218e-17
-1.98713e-16
3.01533e-17
5.91696e-17
-2.28683e-17
-1.88147e-17
-1.9922e-16
3.02128e-17
5.93547e-17
-2.28837e-17
-1.88747e-17
-1.99272e-16
3.02001e-17
5.94222e-17
-2.28898e-17
-1.87938e-17
-1.99026e-16
3.01526e-17
5.9372e-17
-2.28633e-17
-1.87517e-17
-1.98462e-16
3.0064e-17
5.92648e-17
-2.26497e-17
-1.87142e-17
-1.97696e-16
2.99481e-17
5.91079e-17
-2.25331e-17
-1.86528e-17
-1.96711e-16
2.97917e-17
5.88838e-17
-2.24275e-17
-1.85015e-17
-1.95583e-16
2.96303e-17
5.85914e-17
-2.23083e-17
-1.83952e-17
-1.94329e-16
2.94388e-17
5.82812e-17
-2.20534e-17
-1.82924e-17
-1.92993e-16
2.92414e-17
5.79477e-17
-2.18862e-17
-1.81707e-17
-1.91554e-16
2.90255e-17
5.75837e-17
-2.17466e-17
-1.79954e-17
-1.90078e-16
2.88063e-17
5.7182e-17
-2.15747e-17
-1.78561e-17
-1.88552e-16
2.85745e-17
5.67774e-17
-2.1327e-17
-1.77251e-17
-1.87016e-16
2.83455e-17
5.63657e-17
-2.11539e-17
-1.75914e-17
-1.85456e-16
2.8109e-17
5.59441e-17
-2.09827e-17
-1.74271e-17
-1.83905e-16
2.78735e-17
5.55037e-17
-2.08106e-17
-1.72889e-17
-1.82352e-16
2.76373e-17
5.50712e-17
-2.0595e-17
-1.71412e-17
-1.80824e-16
2.74009e-17
5.4636e-17
-2.04259e-17
-1.70052e-17
-1.79301e-16
2.71689e-17
5.42038e-17
-2.02571e-17
-1.68708e-17
-1.77807e-16
2.69394e-17
5.37728e-17
-2.00862e-17
-1.67233e-17
-1.76347e-16
2.67132e-17
5.33398e-17
-1.99232e-17
-1.65934e-17
-1.74916e-16
2.64898e-17
5.29158e-17
-1.97511e-17
-1.64638e-17
-1.73523e-16
2.62711e-17
5.24966e-17
-1.95998e-17
-1.63394e-17
-1.72164e-16
2.60577e-17
5.20837e-17
-1.94415e-17
-1.62176e-17
-1.70844e-16
2.58487e-17
5.16775e-17
-1.92967e-17
-1.61015e-17
-1.6956e-16
2.56477e-17
5.12794e-17
-1.9159e-17
-1.59808e-17
-1.68315e-16
2.54473e-17
5.08854e-17
-1.90255e-17
-1.58686e-17
-1.67112e-16
2.52573e-17
5.05006e-17
-1.88815e-17
-1.57704e-17
-1.65944e-16
2.5069e-17
5.01293e-17
-1.87501e-17
-1.56706e-17
-1.64817e-16
2.48878e-17
4.97609e-17
-1.86604e-17
-1.556e-17
-1.63726e-16
2.47087e-17
4.93959e-17
-1.85396e-17
-1.54609e-17
-1.62679e-16
2.45394e-17
4.90403e-17
-1.84011e-17
-1.53859e-17
-1.61661e-16
2.43698e-17
4.87015e-17
-1.82926e-17
-1.53016e-17
-1.60685e-16
2.42085e-17
4.83647e-17
-1.82261e-17
-1.52016e-17
-1.59734e-16
2.40473e-17
4.80274e-17
-1.81266e-17
-1.51121e-17
-1.58826e-16
2.38984e-17
-1.80235e-17
-1.50505e-17
-1.57939e-16
2.37457e-17
-1.79379e-17
-1.49652e-17
-1.57093e-16
2.36081e-17
)
;
    }
    axis
    {
        type            empty;
        value           nonuniform 0();
    }
    procBoundary3to2
    {
        type            processor;
        value           nonuniform List<scalar> 5(-3.21585e-05 -9.63908e-05 -2.52929e-06 -0.000163529 -0.000228336);
    }
    procBoundary3to4
    {
        type            processor;
        value           nonuniform List<scalar> 4(3.1776e-05 9.49781e-05 0.00015698 0.000216846);
    }
    procBoundary3to8
    {
        type            processor;
        value           uniform -0.000292549;
    }
    procBoundary3to9
    {
        type            processor;
        value           nonuniform List<scalar> 
70
(
-1.45242e-05
-1.27488e-05
-1.09844e-05
-9.28833e-06
1.22609e-06
1.21879e-06
1.21167e-06
-7.5961e-06
-6.1902e-06
-4.93017e-06
-3.81992e-06
-2.85421e-06
-2.02156e-06
-1.30775e-06
-6.98542e-07
-1.80417e-07
2.61458e-07
6.35957e-07
9.52808e-07
1.22106e-06
1.44798e-06
1.63963e-06
1.80115e-06
1.9369e-06
2.05057e-06
2.14527e-06
2.22365e-06
2.28799e-06
2.34021e-06
2.38199e-06
2.41475e-06
2.43973e-06
2.458e-06
2.4705e-06
2.47802e-06
2.48127e-06
2.48087e-06
2.47734e-06
2.47116e-06
2.46272e-06
2.45239e-06
2.44047e-06
2.42723e-06
2.4129e-06
2.3977e-06
2.3818e-06
2.36535e-06
2.34849e-06
2.33134e-06
2.31399e-06
2.29653e-06
2.27903e-06
2.26155e-06
2.24416e-06
2.22688e-06
2.20977e-06
2.19285e-06
2.17614e-06
2.15966e-06
2.14344e-06
2.12747e-06
2.11178e-06
2.09637e-06
2.08123e-06
2.06637e-06
2.05179e-06
2.03749e-06
2.02346e-06
0.000275773
2.00969e-06
)
;
    }
}


// ************************************************************************* //
