/*--------------------------------*- C++ -*----------------------------------*\
  =========                 |
  \\      /  F ield         | OpenFOAM: The Open Source CFD Toolbox
   \\    /   O peration     | Website:  https://openfoam.org
    \\  /    A nd           | Version:  7
     \\/     M anipulation  |
\*---------------------------------------------------------------------------*/
FoamFile
{
    version     2.0;
    format      ascii;
    class       volScalarField;
    location    "3";
    object      p;
}
// * * * * * * * * * * * * * * * * * * * * * * * * * * * * * * * * * * * * * //

dimensions      [0 2 -2 0 0 0 0];

internalField   nonuniform List<scalar> 
344
(
-0.19377
-0.175555
-0.157844
-0.140632
-0.123913
-0.10768
-0.0919241
-0.0766386
-0.0618147
-0.0474437
-0.0335168
-0.0200248
-0.00695858
0.00569106
0.0179334
0.0297776
0.041233
0.0523085
0.0630133
0.0733563
0.0833461
0.0929915
0.102301
0.111283
0.119945
0.128296
0.136343
0.144095
0.151557
0.158739
-0.916107
-0.926341
-0.923282
-0.917785
-0.908489
-0.896367
-0.881674
-0.864727
-0.84583
-0.825274
-0.803335
-0.780266
-0.756293
-0.731616
-0.706414
-0.680841
-0.655034
-0.629111
-0.603174
-0.577314
-0.551606
-0.526118
-0.500906
-0.476019
-0.451497
-0.427374
-0.403679
-0.380436
-0.357663
-0.335376
-0.313585
-0.292298
-0.271522
-0.25126
-0.231513
-0.21228
-0.193559
-0.175347
-0.157639
-0.14043
-0.123714
-0.107483
-0.0917305
-0.0764476
-0.0616263
-0.0472579
-0.0333334
-0.0198439
-0.00678016
0.00586706
0.018107
0.0299488
0.0414018
0.052475
0.0631775
0.0735181
0.0835057
0.0931488
0.102456
0.111436
0.120096
0.128445
0.13649
0.144239
0.151699
0.158879
-0.913355
-0.923438
-0.920859
-0.915875
-0.906959
-0.89513
-0.880641
-0.863845
-0.845058
-0.824587
-0.802715
-0.779699
-0.75577
-0.73113
-0.705958
-0.680411
-0.654626
-0.628722
-0.602802
-0.576956
-0.551261
-0.525784
-0.500582
-0.475703
-0.451189
-0.427073
-0.403385
-0.380148
-0.35738
-0.335098
-0.313311
-0.29203
-0.271258
-0.251
-0.231256
-0.212027
-0.19331
-0.175102
-0.157398
-0.140192
-0.123479
-0.107252
-0.0915024
-0.0762228
-0.0614047
-0.0470395
-0.0331182
-0.0196319
-0.00657123
0.00607288
0.0183097
0.0301485
0.0415985
0.0526687
0.0633682
0.0737058
0.0836905
0.0933307
0.102635
0.111612
0.120269
0.128615
0.136658
0.144404
0.151862
0.159039
-0.911729
-0.921404
-0.919211
-0.914602
-0.905965
-0.894332
-0.879968
-0.863252
-0.844519
-0.824085
-0.802241
-0.779247
-0.755335
-0.730709
-0.70555
-0.680014
-0.654239
-0.628343
-0.60243
-0.576591
-0.550902
-0.525431
-0.500234
-0.47536
-0.45085
-0.426739
-0.403056
-0.379823
-0.35706
-0.334781
-0.312999
-0.291721
-0.270953
-0.250699
-0.23096
-0.211734
-0.193021
-0.174817
-0.157117
-0.139915
-0.123206
-0.106983
-0.0912373
-0.0759616
-0.0611474
-0.0467861
-0.0328687
-0.0193863
-0.00632948
0.0063108
0.0185438
0.0303789
0.0418251
0.0528916
0.0635874
0.0739215
0.0839025
0.0935392
0.10284
0.111813
0.120467
0.12881
0.136849
0.144592
0.152047
0.15922
-0.91106
-0.920162
-0.918297
-0.91396
-0.905515
-0.89399
-0.879671
-0.862967
-0.844229
-0.823784
-0.801927
-0.77892
-0.754998
-0.730364
-0.705197
-0.679656
-0.653876
-0.627976
-0.602061
-0.57622
-0.550531
-0.525059
-0.499863
-0.47499
-0.450481
-0.426372
-0.40269
-0.379459
-0.356699
-0.334423
-0.312644
-0.29137
-0.270606
-0.250355
-0.23062
-0.211399
-0.19269
-0.17449
-0.156794
-0.139597
-0.122892
-0.106674
-0.0909326
-0.0756615
-0.060852
-0.0464953
-0.0325826
-0.0191048
-0.0060526
0.00658309
0.0188116
0.0306421
0.0420838
0.0531458
0.0638372
0.0741669
0.0841436
0.0937761
0.103073
0.112042
0.120692
0.12903
0.137065
0.144805
0.152256
0.159425
-0.911176
-0.91963
-0.91807
-0.913932
-0.905604
-0.894105
-0.879756
-0.862996
-0.844195
-0.82369
-0.801779
-0.778726
-0.754764
-0.730097
-0.704904
-0.679339
-0.65354
-0.627625
-0.601697
-0.575846
-0.550147
-0.524669
-0.499467
-0.474591
-0.45008
-0.425969
-0.402286
-0.379056
-0.356297
-0.334023
-0.312246
-0.290974
-0.270213
-0.249966
-0.230235
-0.211018
-0.192313
-0.174118
-0.156427
-0.139235
-0.122535
-0.106322
-0.0905859
-0.0753202
-0.0605161
-0.0461648
-0.0322575
-0.0187851
-0.00573839
0.00689188
)
;

boundaryField
{
    inlet
    {
        type            zeroGradient;
    }
    outlet
    {
        type            fixedValue;
        value           nonuniform 0();
    }
    wall
    {
        type            zeroGradient;
    }
    wedge1
    {
        type            wedge;
    }
    wedge2
    {
        type            wedge;
    }
    axis
    {
        type            empty;
    }
    procBoundary39to33
    {
        type            processor;
        value           nonuniform List<scalar> 
67
(
-0.193946
-0.175728
-0.158015
-0.140801
-0.124079
-0.107843
-0.0920858
-0.0767983
-0.0619724
-0.0475996
-0.0336707
-0.0201769
-0.00710888
0.00554256
0.0177867
0.0296327
0.0410898
0.0521671
0.0628736
0.0732182
0.0832098
0.092857
0.102168
0.111152
0.119816
0.128168
0.136217
0.14397
0.151435
0.158618
-0.920162
-0.930188
-0.926517
-0.920328
-0.910533
-0.898015
-0.883033
-0.86587
-0.846807
-0.826122
-0.804081
-0.780929
-0.756888
-0.732155
-0.706906
-0.681294
-0.655454
-0.629502
-0.603541
-0.57766
-0.551935
-0.526431
-0.501206
-0.476306
-0.451774
-0.427642
-0.403939
-0.380689
-0.35791
-0.335616
-0.31382
-0.292529
-0.271748
-0.251482
-0.231731
-0.212494
-0.212494
)
;
    }
    procBoundary39to34
    {
        type            processor;
        value           uniform 0.165646;
    }
    procBoundary39to40
    {
        type            processor;
        value           nonuniform List<scalar> 4(0.165784 0.165941 0.16612 0.166321);
    }
    procBoundary39to45
    {
        type            processor;
        value           nonuniform List<scalar> 
67
(
0.019115
0.0309401
0.0423765
0.0534333
0.0641195
0.074444
0.0844157
0.0940431
0.103335
0.112299
0.120944
0.129278
0.137308
0.145043
0.15249
0.159655
-0.911892
-0.919722
-0.918476
-0.914488
-0.906212
-0.894664
-0.880212
-0.863332
-0.844413
-0.8238
-0.801796
-0.778664
-0.754635
-0.729912
-0.70467
-0.679066
-0.653233
-0.62729
-0.601338
-0.575467
-0.549752
-0.524261
-0.499048
-0.474163
-0.449645
-0.42553
-0.401844
-0.378612
-0.355852
-0.333578
-0.311802
-0.290532
-0.269774
-0.249531
-0.229803
-0.21059
-0.19189
-0.1737
-0.156014
-0.138827
-0.122134
-0.105926
-0.0901962
-0.0749366
-0.0601386
-0.0457936
-0.0318926
-0.0184264
-0.005386
0.019115
0.00723801
)
;
    }
}


// ************************************************************************* //
