/*--------------------------------*- C++ -*----------------------------------*\
  =========                 |
  \\      /  F ield         | OpenFOAM: The Open Source CFD Toolbox
   \\    /   O peration     | Website:  https://openfoam.org
    \\  /    A nd           | Version:  7
     \\/     M anipulation  |
\*---------------------------------------------------------------------------*/
FoamFile
{
    version     2.0;
    format      ascii;
    class       volScalarField;
    location    "4";
    object      p;
}
// * * * * * * * * * * * * * * * * * * * * * * * * * * * * * * * * * * * * * //

dimensions      [0 2 -2 0 0 0 0];

internalField   nonuniform List<scalar> 
433
(
3.07379
3.05641
2.84641
2.84534
2.84204
2.83672
2.82953
2.82043
2.80901
2.56264
2.57297
2.58025
2.58589
2.59038
2.59377
2.59599
2.59698
2.59664
2.59468
2.59035
2.59221
1.83448
2.07865
2.20483
2.26785
2.2994
2.31659
2.32795
2.33722
2.34578
2.3539
2.36144
2.36825
2.37413
2.37865
2.38071
2.38873
1.8822
1.93748
1.96204
1.97345
1.98247
1.99324
2.0067
2.02243
2.03954
2.05715
2.07461
2.09148
2.10747
2.12246
2.13636
2.14924
2.16112
2.17164
2.17952
2.19286
33.5084
23.0009
15.4579
10.2548
6.81193
4.6251
3.29443
2.52423
2.10646
1.89955
1.81182
1.78727
1.79348
1.8128
1.83638
1.8602
1.88272
1.90354
1.92275
1.94067
1.95755
1.97318
1.98605
2.00377
52.0272
40.7214
30.2495
21.6272
15.0653
10.3364
7.05298
4.8483
3.42551
2.55559
2.05185
1.77437
1.63449
1.57505
1.5599
1.56751
1.58586
1.60859
1.63256
1.65634
1.67935
1.70143
1.72263
1.74314
1.76319
1.78249
1.79917
1.82009
-250.924
-205.104
-162.76
-126.189
-96.0093
-71.6692
-52.2367
-36.9311
-25.1898
-16.4923
-10.2663
-5.96232
-3.09381
-1.25869
-0.123421
0.558019
0.95227
1.17241
1.29274
1.35925
1.39879
1.42611
1.44867
1.46984
1.49088
1.51207
1.53338
1.55483
1.57649
1.59797
1.61702
1.63961
-226.041
-218.019
-208.546
-196.194
-180.833
-163.03
-143.4
-122.725
-101.798
-81.4112
-62.6241
-46.2847
-32.8526
-22.3746
-14.5732
-9.00763
-5.19391
-2.66892
-1.05826
-0.0732178
0.502727
0.832384
1.01665
1.11838
1.17634
1.2128
1.23968
1.2629
1.28504
1.30707
1.32916
1.35127
1.37342
1.39576
1.41793
1.43734
1.45932
417.882
398.086
379.285
352.634
314.661
272.172
230.862
193.885
161.038
131.334
104.85
82.0524
62.9162
47.3903
35.068
25.4273
18.0114
12.4492
8.42259
5.62377
3.75028
2.54789
1.81389
1.39464
1.16843
1.05913
1.01815
1.01427
1.02889
1.05169
1.07733
1.10334
1.12872
1.15313
1.17654
1.19911
1.22105
1.24203
1.25924
1.27657
444.532
430.43
416.862
393.48
358.361
319.818
284.148
253.481
225.902
198.326
169.311
139.375
110.516
84.508
62.4792
44.7812
31.1619
21.0734
13.8692
8.9003
5.61996
3.53885
2.27729
1.5527
1.16284
0.968957
0.886435
0.863622
0.870368
0.89026
0.915003
0.940772
0.965993
0.990123
1.01302
1.03469
1.05505
1.07401
1.08916
1.09588
-248.395
-230.368
-215.599
-203.148
-190.138
-174.405
-153.349
-126.366
-95.6618
-65.7957
-41.2866
-24.4762
-14.6069
-9.35017
-6.48642
-4.67007
-3.31831
-2.23693
-1.36028
-0.690432
-0.204182
0.13505
0.360943
0.5045
0.593161
0.651621
0.689823
0.71691
0.738982
0.75931
0.779437
0.79988
0.820613
0.841366
0.861789
0.881415
0.899601
0.918665
0.93762
-389.314
-352.042
-312.465
-271.356
-229.834
-189.671
-152.216
-118.824
-90.1679
-66.3627
-47.245
-32.4516
-21.4563
-13.6366
-8.28034
-4.73917
-2.49386
-1.12205
-0.314862
0.139243
0.381943
0.507479
0.57147
0.60589
0.627949
0.646016
0.663577
0.681652
0.700147
0.71853
0.736049
0.751777
0.767528
-26.8477
-27.2419
-25.458
-22.0043
-17.6008
-13.1175
-9.18317
-6.07371
-3.79831
-2.21947
-1.17009
-0.500544
-0.0894112
0.147427
0.275823
0.347473
0.389504
0.417426
0.439682
0.460294
0.480885
0.501826
0.522943
0.543861
0.564159
0.583409
0.601141
82.7045
61.0951
43.808
30.4461
20.4682
13.3025
8.35856
5.07523
2.98543
1.71862
0.990191
0.595097
0.400603
0.320591
0.301541
0.312184
0.335405
0.362526
0.389558
0.414909
0.438103
0.459067
12.1351
7.69437
4.68485
2.73829
1.53678
0.833212
0.450579
0.260501
0.180995
0.161845
0.172855
0.197024
0.225482
0.254011
0.280876
0.305548
0.327975
-4.07827
-2.44037
-1.40086
-0.761094
-0.372576
-0.146819
-0.015554
0.0620558
0.110487
0.143905
0.169894
0.19221
0.212531
-0.452973
-0.211505
-0.0781259
-0.00403406
0.0393438
0.0677871
0.0894142
0.108075
-0.0310172
-0.0230916
-0.00873624
0.00791938
1.37035
1.79067
1.6158
1.4325
1.25851
2.25731
2.07589
1.89778
1.72083
1.54111
1.34705
1.15011
)
;

boundaryField
{
    inlet
    {
        type            zeroGradient;
    }
    outlet
    {
        type            fixedValue;
        value           nonuniform 0();
    }
    cylinder
    {
        type            zeroGradient;
    }
    top
    {
        type            symmetryPlane;
    }
    bottom
    {
        type            symmetryPlane;
    }
    defaultFaces
    {
        type            empty;
    }
    procBoundary9to3
    {
        type            processor;
        value           nonuniform List<scalar> 
16
(
3.03699
3.03699
2.80381
2.80381
2.63534
2.44349
1.47689
1.85886
1.69435
1.52662
1.52662
2.30657
2.13398
1.96256
1.96256
2.44349
)
;
    }
    procBoundary9to8
    {
        type            processor;
        value           nonuniform List<scalar> 
17
(
3.32893
3.30227
3.12431
3.11476
3.10303
3.08933
3.08933
2.83705
2.8382
2.84203
2.84519
2.84519
2.37009
2.4644
2.51702
2.54607
2.54607
)
;
    }
    procBoundary9to10
    {
        type            processor;
        value           nonuniform List<scalar> 
12
(
0.932434
0.932434
0.783642
0.616845
0.783642
0.632394
0.616845
0.477796
0.477796
1.26862
1.1474
1.02224
)
;
    }
    procBoundary9to14
    {
        type            processor;
        value           nonuniform List<scalar> 
30
(
-2.97467
-0.769988
0.583044
1.3825
1.3825
0.601217
1.21319
1.57552
1.77602
1.77602
115.967
88.6039
65.8243
47.592
47.592
64.1817
68.6256
68.1331
62.0415
62.0415
-454.139
-420.274
-382.918
-341.724
-297.263
-297.263
-249.671
-240.94
-233.55
-233.55
)
;
    }
    procBoundary9to15
    {
        type            processor;
        value           nonuniform List<scalar> 
37
(
-533.883
-506.702
-481.85
-454.958
-423.72
-423.72
3.83231
-9.44261
-18.4331
-23.9811
-23.9811
207.782
172.281
138.872
108.731
108.731
52.3197
38.4593
27.131
18.4629
18.4629
-15.5051
-10.2548
-6.57431
-6.57431
-4.853
-2.85926
-1.6255
-0.882741
-0.882741
0.0929404
0.00922353
-0.0247498
-0.0247498
-0.0641146
-0.0759243
-0.0714443
)
;
    }
    procBoundary9to16
    {
        type            processor;
        value           nonuniform List<scalar> 9(0.34827 0.34827 0.231484 0.231484 0.125379 0.125379 0.0248843 0.0248843 -0.0602974);
    }
}


// ************************************************************************* //
