/*--------------------------------*- C++ -*----------------------------------*\
  =========                 |
  \\      /  F ield         | OpenFOAM: The Open Source CFD Toolbox
   \\    /   O peration     | Website:  https://openfoam.org
    \\  /    A nd           | Version:  7
     \\/     M anipulation  |
\*---------------------------------------------------------------------------*/
FoamFile
{
    version     2.0;
    format      ascii;
    class       volScalarField;
    location    "5.2";
    object      p;
}
// * * * * * * * * * * * * * * * * * * * * * * * * * * * * * * * * * * * * * //

dimensions      [0 2 -2 0 0 0 0];

internalField   nonuniform List<scalar> 
344
(
4.67904
4.66319
4.64759
4.63224
4.61716
4.60235
4.58782
4.57355
4.55956
4.54583
4.53235
4.51913
4.50614
4.49338
4.48085
4.46852
4.4564
4.44447
4.43273
4.42115
4.40975
4.3985
4.38741
4.37646
4.36564
4.35495
4.34439
4.33394
4.3236
4.31337
4.30324
4.29321
4.28326
4.27341
4.26364
4.25395
4.24434
4.2348
4.22533
4.21593
4.2066
4.19733
4.18812
4.17897
4.16987
4.16083
4.15184
4.14291
4.13402
4.91738
4.91628
4.91238
4.90569
4.89663
4.88558
4.87285
4.85877
4.84364
4.82772
4.81126
4.79444
4.77742
4.76034
4.74329
4.72636
4.7096
4.69306
4.67677
4.66076
4.64504
4.62962
4.61451
4.59969
4.58518
4.57096
4.55702
4.54336
4.52997
4.51682
4.50393
4.49126
4.47882
4.46659
4.45456
4.44272
4.43107
4.41958
4.40826
4.39709
4.38607
4.37519
4.36444
4.35382
4.34331
4.33292
4.32264
4.31246
4.30237
4.29238
4.28248
4.27267
4.26294
4.25328
4.2437
4.23419
4.22476
4.21538
4.20608
4.19683
4.18764
4.17851
4.16944
4.16041
4.15144
4.14252
4.13365
4.92994
4.92868
4.9242
4.91654
4.90626
4.89384
4.87969
4.8642
4.84772
4.83057
4.813
4.7952
4.77735
4.75955
4.74192
4.72451
4.70737
4.69054
4.67405
4.65789
4.64208
4.62662
4.6115
4.59671
4.58225
4.5681
4.55424
4.54068
4.52738
4.51435
4.50156
4.48901
4.47668
4.46456
4.45264
4.4409
4.42934
4.41795
4.40672
4.39564
4.3847
4.37389
4.36322
4.35266
4.34222
4.33189
4.32166
4.31154
4.3015
4.29156
4.28171
4.27193
4.26224
4.25262
4.24307
4.2336
4.22419
4.21484
4.20556
4.19634
4.18717
4.17807
4.16901
4.16001
4.15106
4.14215
4.1333
4.94463
4.94316
4.93791
4.92897
4.91712
4.90297
4.88706
4.86986
4.8518
4.83322
4.81438
4.79551
4.77674
4.7582
4.73997
4.72208
4.70459
4.6875
4.67083
4.65456
4.6387
4.62324
4.60815
4.59343
4.57905
4.565
4.55126
4.53782
4.52466
4.51175
4.4991
4.48668
4.47447
4.46247
4.45067
4.43905
4.4276
4.41631
4.40517
4.39418
4.38333
4.37261
4.36201
4.35152
4.34115
4.33088
4.32071
4.31064
4.30066
4.29076
4.28095
4.27122
4.26156
4.25198
4.24247
4.23302
4.22364
4.21433
4.20507
4.19587
4.18673
4.17764
4.16861
4.15962
4.15069
4.1418
4.13296
4.96191
4.96018
4.95385
4.94321
4.9293
4.91295
4.89485
4.87557
4.85563
4.8354
4.81516
4.79511
4.77539
4.75609
4.73727
4.71896
4.70115
4.68386
4.66707
4.65076
4.63491
4.6195
4.6045
4.58989
4.57564
4.56174
4.54815
4.53487
4.52186
4.50911
4.4966
4.48433
4.47226
4.4604
4.44872
4.43722
4.42588
4.4147
4.40367
4.39278
4.38201
4.37137
4.36085
4.35043
4.34013
4.32992
4.31981
4.30979
4.29986
4.29001
4.28024
4.27055
4.26093
4.25138
4.2419
4.23249
4.22314
4.21385
4.20462
4.19544
4.18632
4.17725
4.16823
4.15927
4.15035
4.14148
4.13265
4.98241
4.98042
4.97248
4.9595
4.94289
4.9237
4.90285
4.88108
4.85894
4.83684
4.81507
4.79379
4.77311
4.75309
4.73375
4.71508
4.69705
4.67965
4.66283
4.64655
4.63079
4.6155
4.60065
4.58621
4.57214
4.55842
4.54501
)
;

boundaryField
{
    inlet
    {
        type            zeroGradient;
    }
    outlet
    {
        type            fixedValue;
        value           nonuniform 0();
    }
    wall
    {
        type            zeroGradient;
    }
    wedge1
    {
        type            wedge;
    }
    wedge2
    {
        type            wedge;
    }
    axis
    {
        type            empty;
    }
    procBoundary12to6
    {
        type            processor;
        value           nonuniform List<scalar> 
68
(
4.68091
4.66524
4.64976
4.6345
4.61947
4.60469
4.59015
4.57587
4.56183
4.54805
4.53452
4.52122
4.50816
4.49533
4.48272
4.47031
4.45811
4.4461
4.43428
4.42264
4.41116
4.39984
4.38868
4.37766
4.36679
4.35604
4.34542
4.33492
4.32453
4.31425
4.30408
4.29401
4.28402
4.27413
4.26433
4.25461
4.24496
4.2354
4.2259
4.21648
4.20712
4.19782
4.18859
4.17942
4.17031
4.16125
4.15224
4.14329
4.13439
4.9066
4.90562
4.90217
4.89622
4.88812
4.87816
4.86659
4.85368
4.83968
4.82483
4.80934
4.79339
4.77713
4.7607
4.74421
4.72773
4.71134
4.6951
4.6951
)
;
    }
    procBoundary12to7
    {
        type            processor;
        value           uniform 4.12518;
    }
    procBoundary12to13
    {
        type            processor;
        value           nonuniform List<scalar> 4(4.12483 4.12449 4.12416 4.12387);
    }
    procBoundary12to18
    {
        type            processor;
        value           nonuniform List<scalar> 
68
(
4.53191
4.51908
4.5065
4.49416
4.48204
4.47013
4.4584
4.44686
4.43548
4.42426
4.41319
4.40226
4.39146
4.38078
4.37022
4.35977
4.34943
4.33919
4.32904
4.31898
4.30902
4.29913
4.28933
4.2796
4.26994
4.26036
4.25084
4.24139
4.23201
4.22268
4.21341
4.2042
4.19505
4.18595
4.1769
4.1679
4.15895
4.15005
4.14119
4.13238
4.99847
4.99666
4.98684
4.97169
4.95273
4.93121
4.90821
4.88456
4.86084
4.83745
4.81464
4.79256
4.77128
4.75081
4.73116
4.71229
4.69415
4.67671
4.6599
4.64368
4.628
4.61281
4.59808
4.58376
4.56982
4.55623
4.53191
4.54295
)
;
    }
}


// ************************************************************************* //
