/*--------------------------------*- C++ -*----------------------------------*\
  =========                 |
  \\      /  F ield         | OpenFOAM: The Open Source CFD Toolbox
   \\    /   O peration     | Website:  https://openfoam.org
    \\  /    A nd           | Version:  7
     \\/     M anipulation  |
\*---------------------------------------------------------------------------*/
FoamFile
{
    version     2.0;
    format      ascii;
    class       volScalarField;
    location    "0.5";
    object      rho;
}
// * * * * * * * * * * * * * * * * * * * * * * * * * * * * * * * * * * * * * //

dimensions      [1 -3 0 0 0 0 0];

internalField   nonuniform List<scalar> 
100800
(
1.40001
1.40001
1.40001
1.40001
1.40001
1.40001
1.40001
1.40001
1.40001
1.40001
1.40001
1.40001
1.40001
1.40001
1.40001
1.40001
1.40001
1.40001
1.40001
1.40001
1.40001
1.40001
1.40001
1.40001
1.40001
1.40001
1.40001
1.40001
1.40001
1.40001
1.40001
1.40001
1.40001
1.40001
1.40001
1.40001
1.40001
1.40001
1.40001
1.40001
1.40001
1.40001
1.40001
1.40001
1.40001
1.40001
1.40001
1.40001
1.40001
1.40001
1.40001
1.40001
1.40001
1.40001
1.40001
1.40001
1.40001
1.40001
1.40001
1.40001
1.40001
1.40001
1.40001
1.40001
1.40001
1.40001
1.40001
1.40001
1.40001
1.40001
1.40001
1.40001
1.40001
1.40001
1.40001
1.40001
2.34719
5.17262
5.62048
5.57564
5.54012
5.52729
5.54874
5.59718
5.64699
5.68039
5.69961
5.71488
5.73666
5.7696
5.79161
5.79032
5.76695
5.73585
5.72319
5.73561
5.76383
5.77897
5.75912
5.71217
5.66212
5.63333
5.6277
5.65435
5.69391
5.71783
5.70409
5.64267
5.53983
5.41
5.27189
5.14684
5.05075
4.98924
4.95937
4.95454
4.96298
4.97971
4.9957
5.01474
1.40001
1.40001
1.40001
1.40001
1.40001
1.40001
1.40001
1.40001
1.40001
1.40001
1.40001
1.40001
1.40001
1.40001
1.40001
1.40001
1.40001
1.40001
1.40001
1.40001
1.40001
1.40001
1.40001
1.40001
1.40001
1.40001
1.40001
1.40001
1.40001
1.40001
1.40001
1.40001
1.40001
1.40001
1.40001
1.40001
1.40001
1.40001
1.40001
1.40001
1.40001
1.40001
1.40001
1.40001
1.40001
1.40001
1.40001
1.40001
1.40001
1.40001
1.40001
1.40001
1.40001
1.40001
1.40001
1.40001
1.40001
1.40001
1.40001
1.40001
1.40001
1.40001
1.40001
1.40001
1.40001
1.40001
1.40001
1.40001
1.40001
1.40001
1.40001
1.40001
1.40001
1.40001
1.40001
1.40001
2.33471
5.15958
5.61169
5.56996
5.53693
5.52583
5.55014
5.60112
5.65056
5.68272
5.70006
5.71339
5.73474
5.76838
5.79132
5.79058
5.76725
5.73591
5.72285
5.7348
5.76251
5.77744
5.75786
5.7115
5.66227
5.63397
5.62844
5.65485
5.69384
5.71703
5.70245
5.64054
5.53757
5.40786
5.26998
5.14512
5.04913
4.98757
4.95807
4.95376
4.9626
4.97961
4.99568
5.01472
1.40001
1.40001
1.40001
1.40001
1.40001
1.40001
1.40001
1.40001
1.40001
1.40001
1.40001
1.40001
1.40001
1.40001
1.40001
1.40001
1.40001
1.40001
1.40001
1.40001
1.40001
1.40001
1.40001
1.40001
1.40001
1.40001
1.40001
1.40001
1.40001
1.40001
1.40001
1.40001
1.40001
1.40001
1.40001
1.40001
1.40001
1.40001
1.40001
1.40001
1.40001
1.40001
1.40001
1.40001
1.40001
1.40001
1.40001
1.40001
1.40001
1.40001
1.40001
1.40001
1.40001
1.40001
1.40001
1.40001
1.40001
1.40001
1.40001
1.40001
1.40001
1.40001
1.40001
1.40001
1.40001
1.40001
1.40001
1.40001
1.40001
1.40001
1.40001
1.40001
1.40001
1.40001
1.40001
1.40001
2.30789
5.14122
5.60227
5.5615
5.53125
5.52395
5.55283
5.60672
5.65529
5.68543
5.70049
5.7113
5.73188
5.76632
5.79068
5.7908
5.76752
5.73565
5.72181
5.73296
5.76006
5.77504
5.75596
5.71045
5.66222
5.63445
5.62896
5.65481
5.69289
5.71518
5.6996
5.63664
5.53296
5.40295
5.26519
5.14076
5.0453
4.98416
4.95545
4.95205
4.96163
4.97925
4.99551
5.0146
1.40001
1.40001
1.40001
1.40001
1.40001
1.40001
1.40001
1.40001
1.40001
1.40001
1.40001
1.40001
1.40001
1.40001
1.40001
1.40001
1.40001
1.40001
1.40001
1.40001
1.40001
1.40001
1.40001
1.40001
1.40001
1.40001
1.40001
1.40001
1.40001
1.40001
1.40001
1.40001
1.40001
1.40001
1.40001
1.40001
1.40001
1.40001
1.40001
1.40001
1.40001
1.40001
1.40001
1.40001
1.40001
1.40001
1.40001
1.40001
1.40001
1.40001
1.40001
1.40001
1.40001
1.40001
1.40001
1.40001
1.40001
1.40001
1.40001
1.40001
1.40001
1.40001
1.40001
1.40001
1.40001
1.40001
1.40001
1.40001
1.40001
1.40001
1.40001
1.40001
1.40001
1.40001
1.40001
1.40001
2.2688
5.11505
5.59134
5.55047
5.52247
5.52264
5.55786
5.61375
5.66063
5.68809
5.70043
5.7087
5.7285
5.7638
5.78967
5.79074
5.76754
5.73498
5.72009
5.73016
5.75649
5.77167
5.7534
5.70933
5.66275
5.63559
5.63009
5.65499
5.6916
5.71269
5.69597
5.63222
5.52795
5.3977
5.2598
5.13551
5.04046
4.9798
4.95202
4.9498
4.96034
4.97867
4.99522
5.01432
1.40001
1.40001
1.40001
1.40001
1.40001
1.40001
1.40001
1.40001
1.40001
1.40001
1.40001
1.40001
1.40001
1.40001
1.40001
1.40001
1.40001
1.40001
1.40001
1.40001
1.40001
1.40001
1.40001
1.40001
1.40001
1.40001
1.40001
1.40001
1.40001
1.40001
1.40001
1.40001
1.40001
1.40001
1.40001
1.40001
1.40001
1.40001
1.40001
1.40001
1.40001
1.40001
1.40001
1.40001
1.40001
1.40001
1.40001
1.40001
1.40001
1.40001
1.40001
1.40001
1.40001
1.40001
1.40001
1.40001
1.40001
1.40001
1.40001
1.40001
1.40001
1.40001
1.40001
1.40001
1.40001
1.40001
1.40001
1.40001
1.40001
1.40001
1.40001
1.40001
1.40001
1.40001
1.40001
1.40001
2.21517
5.07844
5.58155
5.53851
5.51373
5.52334
5.56467
5.621
5.66617
5.69083
5.70014
5.70582
5.72479
5.76093
5.78834
5.79037
5.76732
5.73402
5.7179
5.72668
5.7521
5.76759
5.7503
5.70825
5.66419
5.63759
5.63173
5.6551
5.68983
5.70968
5.69213
5.62828
5.5244
5.39416
5.25584
5.13115
5.03582
4.97514
4.94819
4.94729
4.95899
4.978
4.99488
5.0139
1.40001
1.40001
1.40001
1.40001
1.40001
1.40001
1.40001
1.40001
1.40001
1.40001
1.40001
1.40001
1.40001
1.40001
1.40001
1.40001
1.40001
1.40001
1.40001
1.40001
1.40001
1.40001
1.40001
1.40001
1.40001
1.40001
1.40001
1.40001
1.40001
1.40001
1.40001
1.40001
1.40001
1.40001
1.40001
1.40001
1.40001
1.40001
1.40001
1.40001
1.40001
1.40001
1.40001
1.40001
1.40001
1.40001
1.40001
1.40001
1.40001
1.40001
1.40001
1.40001
1.40001
1.40001
1.40001
1.40001
1.40001
1.40001
1.40001
1.40001
1.40001
1.40001
1.40001
1.40001
1.40001
1.40001
1.40001
1.40001
1.40001
1.40001
1.40001
1.40001
1.40001
1.40001
1.40001
1.40001
2.14591
5.02988
5.57343
5.52578
5.50816
5.52674
5.57228
5.62815
5.67158
5.69334
5.69946
5.70287
5.72119
5.75805
5.78668
5.78932
5.76634
5.7324
5.71501
5.72245
5.74683
5.76267
5.74654
5.70706
5.66665
5.64049
5.63379
5.65505
5.68776
5.70639
5.68849
5.62495
5.52204
5.39232
5.25349
5.1277
5.0314
4.97039
4.94423
4.94472
4.95768
4.97723
4.99438
5.01321
1.40001
1.40001
1.40001
1.40001
1.40001
1.40001
1.40001
1.40001
1.40001
1.40001
1.40001
1.40001
1.40001
1.40001
1.40001
1.40001
1.40001
1.40001
1.40001
1.40001
1.40001
1.40001
1.40001
1.40001
1.40001
1.40001
1.40001
1.40001
1.40001
1.40001
1.40001
1.40001
1.40001
1.40001
1.40001
1.40001
1.40001
1.40001
1.40001
1.40001
1.40001
1.40001
1.40001
1.40001
1.40001
1.40001
1.40001
1.40001
1.40001
1.40001
1.40001
1.40001
1.40001
1.40001
1.40001
1.40001
1.40001
1.40001
1.40001
1.40001
1.40001
1.40001
1.40001
1.40001
1.40001
1.40001
1.40001
1.40001
1.40001
1.40001
1.40001
1.40001
1.40001
1.40001
1.40001
1.40001
2.06096
4.96568
5.56527
5.51157
5.50667
5.53316
5.58095
5.63583
5.67724
5.69553
5.69805
5.69962
5.71757
5.75505
5.78458
5.78753
5.76462
5.73023
5.71157
5.71755
5.7407
5.75691
5.74222
5.70595
5.67026
5.64428
5.63619
5.65502
5.68526
5.70261
5.68501
5.6226
5.52071
5.39153
5.25206
5.12471
5.0272
4.96573
4.94025
4.94208
4.95628
4.97629
4.9936
5.01212
1.40001
1.40001
1.40001
1.40001
1.40001
1.40001
1.40001
1.40001
1.40001
1.40001
1.40001
1.40001
1.40001
1.40001
1.40001
1.40001
1.40001
1.40001
1.40001
1.40001
1.40001
1.40001
1.40001
1.40001
1.40001
1.40001
1.40001
1.40001
1.40001
1.40001
1.40001
1.40001
1.40001
1.40001
1.40001
1.40001
1.40001
1.40001
1.40001
1.40001
1.40001
1.40001
1.40001
1.40001
1.40001
1.40001
1.40001
1.40001
1.40001
1.40001
1.40001
1.40001
1.40001
1.40001
1.40001
1.40001
1.40001
1.40001
1.40001
1.40001
1.40001
1.40001
1.40001
1.40001
1.40001
1.40001
1.40001
1.40001
1.40001
1.40001
1.40001
1.40001
1.40001
1.40001
1.40001
1.40001
1.96122
4.88138
5.55747
5.49828
5.50965
5.54301
5.59043
5.64382
5.68236
5.69655
5.69564
5.69641
5.71423
5.752
5.78189
5.78482
5.76206
5.7275
5.70749
5.71183
5.73357
5.75032
5.73749
5.70548
5.67492
5.6488
5.63892
5.65478
5.68202
5.69819
5.68158
5.62127
5.52118
5.39246
5.25195
5.12265
5.02357
4.96129
4.9363
4.93937
4.95481
4.9752
4.9926
5.01068
1.40001
1.40001
1.40001
1.40001
1.40001
1.40001
1.40001
1.40001
1.40001
1.40001
1.40001
1.40001
1.40001
1.40001
1.40001
1.40001
1.40001
1.40001
1.40001
1.40001
1.40001
1.40001
1.40001
1.40001
1.40001
1.40001
1.40001
1.40001
1.40001
1.40001
1.40001
1.40001
1.40001
1.40001
1.40001
1.40001
1.40001
1.40001
1.40001
1.40001
1.40001
1.40001
1.40001
1.40001
1.40001
1.40001
1.40001
1.40001
1.40001
1.40001
1.40001
1.40001
1.40001
1.40001
1.40001
1.40001
1.40001
1.40001
1.40001
1.40001
1.40001
1.40001
1.40001
1.40001
1.40001
1.40001
1.40001
1.40001
1.40001
1.40001
1.40001
1.40001
1.40001
1.40001
1.40001
1.40001
1.84787
4.77052
5.54745
5.49269
5.51394
5.55489
5.60167
5.65203
5.68592
5.69544
5.69235
5.69363
5.71134
5.74866
5.77826
5.78104
5.75874
5.72438
5.70281
5.70517
5.72532
5.74293
5.73262
5.7063
5.68049
5.65375
5.64165
5.65408
5.67786
5.69301
5.67797
5.62055
5.52304
5.39529
5.25366
5.12189
5.02053
4.95708
4.93235
4.93656
4.95321
4.97394
4.9913
5.00884
1.40001
1.40001
1.40001
1.40001
1.40001
1.40001
1.40001
1.40001
1.40001
1.40001
1.40001
1.40001
1.40001
1.40001
1.40001
1.40001
1.40001
1.40001
1.40001
1.40001
1.40001
1.40001
1.40001
1.40001
1.40001
1.40001
1.40001
1.40001
1.40001
1.40001
1.40001
1.40001
1.40001
1.40001
1.40001
1.40001
1.40001
1.40001
1.40001
1.40001
1.40001
1.40001
1.40001
1.40001
1.40001
1.40001
1.40001
1.40001
1.40001
1.40001
1.40001
1.40001
1.40001
1.40001
1.40001
1.40001
1.40001
1.40001
1.40001
1.40001
1.40001
1.40001
1.40001
1.40001
1.40001
1.40001
1.40001
1.40001
1.40001
1.40001
1.40001
1.40001
1.40001
1.40001
1.40001
1.40001
1.72516
4.62398
5.5349
5.49359
5.52244
5.57085
5.61437
5.65819
5.68647
5.69186
5.68885
5.69158
5.70871
5.74462
5.77343
5.77611
5.75475
5.72103
5.69756
5.69743
5.71588
5.73491
5.72805
5.70892
5.68671
5.65885
5.64407
5.65267
5.67276
5.68708
5.67404
5.62007
5.52566
5.39932
5.2567
5.12218
5.01797
4.95298
4.92829
4.93357
4.95141
4.97241
4.98964
5.00656
1.40001
1.40001
1.40001
1.40001
1.40001
1.40001
1.40001
1.40001
1.40001
1.40001
1.40001
1.40001
1.40001
1.40001
1.40001
1.40001
1.40001
1.40001
1.40001
1.40001
1.40001
1.40001
1.40001
1.40001
1.40001
1.40001
1.40001
1.40001
1.40001
1.40001
1.40001
1.40001
1.40001
1.40001
1.40001
1.40001
1.40001
1.40001
1.40001
1.40001
1.40001
1.40001
1.40001
1.40001
1.40001
1.40001
1.40001
1.40001
1.40001
1.40001
1.40001
1.40001
1.40001
1.40001
1.40001
1.40001
1.40001
1.40001
1.40001
1.40001
1.40001
1.40001
1.40001
1.40001
1.40001
1.40001
1.40001
1.40001
1.40001
1.40001
1.40001
1.40001
1.40001
1.40001
1.40001
1.40001
1.60011
4.44088
5.52159
5.50821
5.54265
5.5873
5.62486
5.66032
5.6831
5.68686
5.68596
5.69032
5.70588
5.73944
5.76714
5.76993
5.75016
5.71752
5.69188
5.68862
5.7051
5.72653
5.72437
5.71322
5.69332
5.66396
5.64594
5.65036
5.66675
5.6804
5.66969
5.6195
5.52847
5.40389
5.26054
5.1231
5.01566
4.94896
4.92418
4.93041
4.94937
4.97054
4.9875
5.00372
1.40001
1.40001
1.40001
1.40001
1.40001
1.40001
1.40001
1.40001
1.40001
1.40001
1.40001
1.40001
1.40001
1.40001
1.40001
1.40001
1.40001
1.40001
1.40001
1.40001
1.40001
1.40001
1.40001
1.40001
1.40001
1.40001
1.40001
1.40001
1.40001
1.40001
1.40001
1.40001
1.40001
1.40001
1.40001
1.40001
1.40001
1.40001
1.40001
1.40001
1.40001
1.40001
1.40001
1.40001
1.40001
1.40001
1.40001
1.40001
1.40001
1.40001
1.40001
1.40001
1.40001
1.40001
1.40001
1.40001
1.40001
1.40001
1.40001
1.40001
1.40001
1.40001
1.40001
1.40001
1.40001
1.40001
1.40001
1.40001
1.40001
1.40001
1.40001
1.40001
1.40001
1.40001
1.40001
1.40001
1.47952
4.22128
5.52296
5.53403
5.56866
5.59816
5.62883
5.65853
5.67676
5.68174
5.68392
5.68947
5.70221
5.73261
5.75919
5.76262
5.74518
5.71394
5.68583
5.67871
5.69302
5.71806
5.72217
5.71885
5.70008
5.66897
5.64714
5.64694
5.65994
5.67293
5.66483
5.6186
5.53103
5.40842
5.26466
5.1244
5.01343
4.945
4.92008
4.92705
4.94697
4.9682
4.98472
5.00017
1.40001
1.40001
1.40001
1.40001
1.40001
1.40001
1.40001
1.40001
1.40001
1.40001
1.40001
1.40001
1.40001
1.40001
1.40001
1.40001
1.40001
1.40001
1.40001
1.40001
1.40001
1.40001
1.40001
1.40001
1.40001
1.40001
1.40001
1.40001
1.40001
1.40001
1.40001
1.40001
1.40001
1.40001
1.40001
1.40001
1.40001
1.40001
1.40001
1.40001
1.40001
1.40001
1.40001
1.40001
1.40001
1.40001
1.40001
1.40001
1.40001
1.40001
1.40001
1.40001
1.40001
1.40001
1.40001
1.40001
1.40001
1.40001
1.40001
1.40001
1.40001
1.40001
1.40001
1.40001
1.40001
1.40001
1.40001
1.40001
1.40001
1.40001
1.40001
1.40001
1.40001
1.40001
1.40001
1.40001
1.40279
4.01358
5.51874
5.54935
5.58017
5.60142
5.62749
5.65398
5.66976
5.67717
5.68231
5.68824
5.69703
5.72364
5.74957
5.7547
5.74024
5.71033
5.67936
5.66763
5.68014
5.70967
5.72163
5.7252
5.70663
5.67389
5.64768
5.6425
5.65231
5.66461
5.65931
5.61722
5.53302
5.41248
5.26861
5.1258
5.01124
4.94113
4.91605
4.92352
4.9442
4.96529
4.98117
4.99576
1.40001
1.40001
1.40001
1.40001
1.40001
1.40001
1.40001
1.40001
1.40001
1.40001
1.40001
1.40001
1.40001
1.40001
1.40001
1.40001
1.40001
1.40001
1.40001
1.40001
1.40001
1.40001
1.40001
1.40001
1.40001
1.40001
1.40001
1.40001
1.40001
1.40001
1.40001
1.40001
1.40001
1.40001
1.40001
1.40001
1.40001
1.40001
1.40001
1.40001
1.40001
1.40001
1.40001
1.40001
1.40001
1.40001
1.40001
1.40001
1.40001
1.40001
1.40001
1.40001
1.40001
1.40001
1.40001
1.40001
1.40001
1.40001
1.40001
1.40001
1.40001
1.40001
1.40001
1.40001
1.40001
1.40001
1.40001
1.40001
1.40001
1.40001
1.40001
1.40001
1.40001
1.40001
1.40001
1.40001
1.40001
3.77743
5.488
5.55142
5.57876
5.60131
5.62454
5.64761
5.66281
5.6728
5.68049
5.68582
5.68995
5.71253
5.73863
5.74688
5.73569
5.70649
5.67219
5.65551
5.66701
5.70204
5.72257
5.73139
5.71317
5.67882
5.64759
5.6371
5.64382
5.65551
5.65311
5.61511
5.53412
5.41579
5.27209
5.12705
5.00914
4.93746
4.91224
4.91989
4.94101
4.96172
4.9767
4.99031
1.40001
1.40001
1.40001
1.40001
1.40001
1.40001
1.40001
1.40001
1.40001
1.40001
1.40001
1.40001
1.40001
1.40001
1.40001
1.40001
1.40001
1.40001
1.40001
1.40001
1.40001
1.40001
1.40001
1.40001
1.40001
1.40001
1.40001
1.40001
1.40001
1.40001
1.40001
1.40001
1.40001
1.40001
1.40001
1.40001
1.40001
1.40001
1.40001
1.40001
1.40001
1.40001
1.40001
1.40001
1.40001
1.40001
1.40001
1.40001
1.40001
1.40001
1.40001
1.40001
1.40001
1.40001
1.40001
1.40001
1.40001
1.40001
1.40001
1.40001
1.40001
1.40001
1.40001
1.40001
1.40001
1.40001
1.40001
1.40001
1.40001
1.40001
1.40001
1.40001
1.40001
1.40001
1.40001
1.40001
1.40001
3.53082
5.43684
5.54702
5.57314
5.60078
5.62242
5.63936
5.65516
5.66814
5.67777
5.68136
5.68144
5.70008
5.72709
5.73967
5.73146
5.70202
5.66408
5.64285
5.65462
5.69562
5.72471
5.73729
5.71946
5.68337
5.64661
5.63096
5.6345
5.64578
5.64613
5.61188
5.53434
5.41824
5.27492
5.12808
5.00723
4.93413
4.90878
4.91624
4.93736
4.95737
4.97123
4.98375
1.40001
1.40001
1.40001
1.40001
1.40001
1.40001
1.40001
1.40001
1.40001
1.40001
1.40001
1.40001
1.40001
1.40001
1.40001
1.40001
1.40001
1.40001
1.40001
1.40001
1.40001
1.40001
1.40001
1.40001
1.40001
1.40001
1.40001
1.40001
1.40001
1.40001
1.40001
1.40001
1.40001
1.40001
1.40001
1.40001
1.40001
1.40001
1.40001
1.40001
1.40001
1.40001
1.40001
1.40001
1.40001
1.40001
1.40001
1.40001
1.40001
1.40001
1.40001
1.40001
1.40001
1.40001
1.40001
1.40001
1.40001
1.40001
1.40001
1.40001
1.40001
1.40001
1.40001
1.40001
1.40001
1.40001
1.40001
1.40001
1.40001
1.40001
1.40001
1.40001
1.40001
1.40001
1.40001
1.40001
1.40001
3.27954
5.37101
5.53929
5.56797
5.59977
5.61925
5.62907
5.64644
5.66314
5.67411
5.6748
5.6724
5.68738
5.71573
5.73299
5.72696
5.69643
5.65506
5.63072
5.64394
5.69071
5.7273
5.74261
5.72498
5.68685
5.64522
5.62435
5.62456
5.63542
5.63804
5.60743
5.53359
5.4197
5.27708
5.12904
5.00581
4.93136
4.90581
4.9126
4.93311
4.9521
4.96464
4.97598
1.40001
1.40001
1.40001
1.40001
1.40001
1.40001
1.40001
1.40001
1.40001
1.40001
1.40001
1.40001
1.40001
1.40001
1.40001
1.40001
1.40001
1.40001
1.40001
1.40001
1.40001
1.40001
1.40001
1.40001
1.40001
1.40001
1.40001
1.40001
1.40001
1.40001
1.40001
1.40001
1.40001
1.40001
1.40001
1.40001
1.40001
1.40001
1.40001
1.40001
1.40001
1.40001
1.40001
1.40001
1.40001
1.40001
1.40001
1.40001
1.40001
1.40001
1.40001
1.40001
1.40001
1.40001
1.40001
1.40001
1.40001
1.40001
1.40001
1.40001
1.40001
1.40001
1.40001
1.40001
1.40001
1.40001
1.40001
1.40001
1.40001
1.40001
1.40001
1.40001
1.40001
1.40001
1.40001
1.40001
1.40001
3.03534
5.29428
5.52662
5.56571
5.59842
5.60994
5.6176
5.63772
5.65757
5.66952
5.66729
5.66356
5.67571
5.70505
5.72607
5.72129
5.68947
5.64565
5.62056
5.63586
5.68729
5.72965
5.74688
5.72927
5.68925
5.64354
5.61744
5.61422
5.62434
5.62864
5.60169
5.53164
5.42023
5.27872
5.13019
5.00522
4.92941
4.90336
4.90889
4.92807
4.94576
4.95685
4.96698
1.40001
1.40001
1.40001
1.40001
1.40001
1.40001
1.40001
1.40001
1.40001
1.40001
1.40001
1.40001
1.40001
1.40001
1.40001
1.40001
1.40001
1.40001
1.40001
1.40001
1.40001
1.40001
1.40001
1.40001
1.40001
1.40001
1.40001
1.40001
1.40001
1.40001
1.40001
1.40001
1.40001
1.40001
1.40001
1.40001
1.40001
1.40001
1.40001
1.40001
1.40001
1.40001
1.40001
1.40001
1.40001
1.40001
1.40001
1.40001
1.40001
1.40001
1.40001
1.40001
1.40001
1.40001
1.40001
1.40001
1.40001
1.40001
1.40001
1.40001
1.40001
1.40001
1.40001
1.40001
1.40001
1.40001
1.40001
1.40001
1.40001
1.40001
1.40001
1.40001
1.40001
1.40001
1.40001
1.40001
1.40001
2.79923
5.20666
5.51999
5.56318
5.59301
5.5961
5.60537
5.62917
5.65138
5.66403
5.66039
5.65601
5.66577
5.69462
5.71773
5.71375
5.68138
5.63673
5.61361
5.63086
5.68486
5.73114
5.74967
5.73211
5.69063
5.64159
5.61044
5.60362
5.61247
5.6178
5.59448
5.52841
5.4199
5.28
5.13186
5.00594
4.92847
4.9013
4.90498
4.92199
4.93819
4.94774
4.95671
1.40001
1.40001
1.40001
1.40001
1.40001
1.40001
1.40001
1.40001
1.40001
1.40001
1.40001
1.40001
1.40001
1.40001
1.40001
1.40001
1.40001
1.40001
1.40001
1.40001
1.40001
1.40001
1.40001
1.40001
1.40001
1.40001
1.40001
1.40001
1.40001
1.40001
1.40001
1.40001
1.40001
1.40001
1.40001
1.40001
1.40001
1.40001
1.40001
1.40001
1.40001
1.40001
1.40001
1.40001
1.40001
1.40001
1.40001
1.40001
1.40001
1.40001
1.40001
1.40001
1.40001
1.40001
1.40001
1.40001
1.40001
1.40001
1.40001
1.40001
1.40001
1.40001
1.40001
1.40001
1.40001
1.40001
1.40001
1.40001
1.40001
1.40001
1.40001
1.40001
1.40001
1.40001
1.40001
1.40001
1.40001
2.54323
5.10947
5.52664
5.56361
5.58314
5.58494
5.59437
5.62033
5.64587
5.65931
5.65544
5.64947
5.65661
5.68316
5.707
5.7042
5.67308
5.62998
5.61042
5.62878
5.68272
5.73117
5.75064
5.73337
5.69106
5.63952
5.60357
5.59281
5.59972
5.60536
5.58562
5.52381
5.41864
5.28107
5.13431
5.0084
4.92879
4.89943
4.90061
4.91469
4.92925
4.93721
4.94515
1.40001
1.40001
1.40001
1.40001
1.40001
1.40001
1.40001
1.40001
1.40001
1.40001
1.40001
1.40001
1.40001
1.40001
1.40001
1.40001
1.40001
1.40001
1.40001
1.40001
1.40001
1.40001
1.40001
1.40001
1.40001
1.40001
1.40001
1.40001
1.40001
1.40001
1.40001
1.40001
1.40001
1.40001
1.40001
1.40001
1.40001
1.40001
1.40001
1.40001
1.40001
1.40001
1.40001
1.40001
1.40001
1.40001
1.40001
1.40001
1.40001
1.40001
1.40001
1.40001
1.40001
1.40001
1.40001
1.40001
1.40001
1.40001
1.40001
1.40001
1.40001
1.40001
1.40001
1.40001
1.40001
1.40001
1.40001
1.40001
1.40001
1.40001
1.40001
1.40001
1.40001
1.40001
1.40001
1.40001
1.40001
2.25133
4.99397
5.55701
5.56962
5.57485
5.57509
5.58694
5.61365
5.64245
5.65636
5.65208
5.64274
5.64635
5.66922
5.69386
5.6933
5.66581
5.62691
5.61082
5.62874
5.67986
5.72893
5.74915
5.73273
5.69058
5.63752
5.59711
5.58181
5.58598
5.59122
5.57506
5.51786
5.41656
5.28206
5.13764
5.01263
4.93082
4.89738
4.89541
4.90632
4.91872
4.92505
4.93222
1.40001
1.40001
1.40001
1.40001
1.40001
1.40001
1.40001
1.40001
1.40001
1.40001
1.40001
1.40001
1.40001
1.40001
1.40001
1.40001
1.40001
1.40001
1.40001
1.40001
1.40001
1.40001
1.40001
1.40001
1.40001
1.40001
1.40001
1.40001
1.40001
1.40001
1.40001
1.40001
1.40001
1.40001
1.40001
1.40001
1.40001
1.40001
1.40001
1.40001
1.40001
1.40001
1.40001
1.40001
1.40001
1.40001
1.40001
1.40001
1.40001
1.40001
1.40001
1.40001
1.40001
1.40001
1.40001
1.40001
1.40001
1.40001
1.40001
1.40001
1.40001
1.40001
1.40001
1.40001
1.40001
1.40001
1.40001
1.40001
1.40001
1.40001
1.40001
1.40001
1.40001
1.40001
1.40001
1.40001
1.40001
1.9459
4.83777
5.60735
5.5789
5.57167
5.57046
5.58477
5.61146
5.64062
5.65452
5.6482
5.63436
5.63323
5.65193
5.67887
5.68245
5.66127
5.62876
5.61435
5.62948
5.67529
5.72366
5.74452
5.72996
5.68933
5.63567
5.59121
5.57052
5.57109
5.57544
5.5627
5.51046
5.41366
5.28301
5.14184
5.0184
4.93431
4.89542
4.88949
4.8967
4.90636
4.91123
4.91791
1.40001
1.40001
1.40001
1.40001
1.40001
1.40001
1.40001
1.40001
1.40001
1.40001
1.40001
1.40001
1.40001
1.40001
1.40001
1.40001
1.40001
1.40001
1.40001
1.40001
1.40001
1.40001
1.40001
1.40001
1.40001
1.40001
1.40001
1.40001
1.40001
1.40001
1.40001
1.40001
1.40001
1.40001
1.40001
1.40001
1.40001
1.40001
1.40001
1.40001
1.40001
1.40001
1.40001
1.40001
1.40001
1.40001
1.40001
1.40001
1.40001
1.40001
1.40001
1.40001
1.40001
1.40001
1.40001
1.40001
1.40001
1.40001
1.40001
1.40001
1.40001
1.40001
1.40001
1.40001
1.40001
1.40001
1.40001
1.40001
1.40001
1.40001
1.40001
1.40001
1.40001
1.40001
1.40001
1.40001
1.40001
1.6521
4.55148
5.62188
5.56939
5.56663
5.56885
5.58229
5.61
5.63932
5.65086
5.64066
5.6231
5.61748
5.63238
5.66365
5.67369
5.66081
5.63538
5.61981
5.62974
5.66817
5.71475
5.73653
5.72532
5.68757
5.63385
5.5857
5.55891
5.55516
5.55829
5.54861
5.5016
5.40991
5.28396
5.14696
5.02553
4.93905
4.89377
4.88274
4.88563
4.89202
4.89568
4.90209
1.40001
1.40001
1.40001
1.40001
1.40001
1.40001
1.40001
1.40001
1.40001
1.40001
1.40001
1.40001
1.40001
1.40001
1.40001
1.40001
1.40001
1.40001
1.40001
1.40001
1.40001
1.40001
1.40001
1.40001
1.40001
1.40001
1.40001
1.40001
1.40001
1.40001
1.40001
1.40001
1.40001
1.40001
1.40001
1.40001
1.40001
1.40001
1.40001
1.40001
1.40001
1.40001
1.40001
1.40001
1.40001
1.40001
1.40001
1.40001
1.40001
1.40001
1.40001
1.40001
1.40001
1.40001
1.40001
1.40001
1.40001
1.40001
1.40001
1.40001
1.40001
1.40001
1.40001
1.40001
1.40001
1.40001
1.40001
1.40001
1.40001
1.40001
1.40001
1.40001
1.40001
1.40001
1.40001
1.40001
1.40001
1.41968
4.11315
5.59533
5.54611
5.54726
5.56295
5.58129
5.60836
5.63404
5.64101
5.628
5.60943
5.60159
5.61377
5.65026
5.66886
5.6649
5.64431
5.62546
5.62844
5.65799
5.70213
5.72564
5.71932
5.68528
5.63171
5.58019
5.54717
5.53865
5.53996
5.53276
5.49094
5.40496
5.28483
5.15296
5.03372
4.94475
4.89278
4.8748
4.87274
4.87613
4.87854
4.88486
1.40001
1.40001
1.40001
1.40001
1.40001
1.40001
1.40001
1.40001
1.40001
1.40001
1.40001
1.40001
1.40001
1.40001
1.40001
1.40001
1.40001
1.40001
1.40001
1.40001
1.40001
1.40001
1.40001
1.40001
1.40001
1.40001
1.40001
1.40001
1.40001
1.40001
1.40001
1.40001
1.40001
1.40001
1.40001
1.40001
1.40001
1.40001
1.40001
1.40001
1.40001
1.40001
1.40001
1.40001
1.40001
1.40001
1.40001
1.40001
1.40001
1.40001
1.40001
1.40001
1.40001
1.40001
1.40001
1.40001
1.40001
1.40001
1.40001
1.40001
1.40001
1.40001
1.40001
1.40001
1.40001
1.40001
1.40001
1.40001
1.40001
1.40001
1.40001
1.40001
1.40001
1.40001
1.40001
1.40001
1.40001
1.40018
3.55746
5.49616
5.52999
5.54389
5.56085
5.58038
5.60093
5.62037
5.62425
5.61229
5.59633
5.58902
5.6005
5.64048
5.668
5.67185
5.65308
5.62931
5.62449
5.64529
5.68595
5.71255
5.71223
5.68185
5.62866
5.57423
5.53538
5.52188
5.52071
5.51511
5.47821
5.39866
5.28575
5.16
5.04292
4.95097
4.89203
4.86586
4.85818
4.85858
4.85961
4.8662
1.40001
1.40001
1.40001
1.40001
1.40001
1.40001
1.40001
1.40001
1.40001
1.40001
1.40001
1.40001
1.40001
1.40001
1.40001
1.40001
1.40001
1.40001
1.40001
1.40001
1.40001
1.40001
1.40001
1.40001
1.40001
1.40001
1.40001
1.40001
1.40001
1.40001
1.40001
1.40001
1.40001
1.40001
1.40001
1.40001
1.40001
1.40001
1.40001
1.40001
1.40001
1.40001
1.40001
1.40001
1.40001
1.40001
1.40001
1.40001
1.40001
1.40001
1.40001
1.40001
1.40001
1.40001
1.40001
1.40001
1.40001
1.40001
1.40001
1.40001
1.40001
1.40001
1.40001
1.40001
1.40001
1.40001
1.40001
1.40001
1.40001
1.40001
1.40001
1.40001
1.40001
1.40001
1.40001
1.40001
1.40001
1.40001
3.05711
5.36225
5.53127
5.54788
5.56331
5.57416
5.58478
5.59983
5.60465
5.59743
5.58823
5.58199
5.59436
5.63511
5.66885
5.67751
5.65971
5.63094
5.61811
5.6308
5.66741
5.69799
5.70372
5.67668
5.62428
5.56758
5.52368
5.50516
5.50099
5.49577
5.4631
5.39083
5.2867
5.16791
5.05279
4.95726
4.89094
4.85609
4.84194
4.8391
4.83935
4.84632
1.40001
1.40001
1.40001
1.40001
1.40001
1.40001
1.40001
1.40001
1.40001
1.40001
1.40001
1.40001
1.40001
1.40001
1.40001
1.40001
1.40001
1.40001
1.40001
1.40001
1.40001
1.40001
1.40001
1.40001
1.40001
1.40001
1.40001
1.40001
1.40001
1.40001
1.40001
1.40001
1.40001
1.40001
1.40001
1.40001
1.40001
1.40001
1.40001
1.40001
1.40001
1.40001
1.40001
1.40001
1.40001
1.40001
1.40001
1.40001
1.40001
1.40001
1.40001
1.40001
1.40001
1.40001
1.40001
1.40001
1.40001
1.40001
1.40001
1.40001
1.40001
1.40001
1.40001
1.40001
1.40001
1.40001
1.40001
1.40001
1.40001
1.40001
1.40001
1.40001
1.40001
1.40001
1.40001
1.40001
1.40001
1.40001
2.61248
5.21674
5.54279
5.55158
5.5574
5.5599
5.56395
5.57899
5.58919
5.58878
5.58631
5.58151
5.5934
5.63136
5.66812
5.67995
5.66309
5.63053
5.60991
5.61566
5.64796
5.68208
5.69303
5.66941
5.61841
5.56046
5.51246
5.48869
5.48066
5.47433
5.44548
5.38175
5.28803
5.17677
5.06323
4.96345
4.88924
4.84513
4.82405
4.81785
4.81749
4.82475
1.40001
1.40001
1.40001
1.40001
1.40001
1.40001
1.40001
1.40001
1.40001
1.40001
1.40001
1.40001
1.40001
1.40001
1.40001
1.40001
1.40001
1.40001
1.40001
1.40001
1.40001
1.40001
1.40001
1.40001
1.40001
1.40001
1.40001
1.40001
1.40001
1.40001
1.40001
1.40001
1.40001
1.40001
1.40001
1.40001
1.40001
1.40001
1.40001
1.40001
1.40001
1.40001
1.40001
1.40001
1.40001
1.40001
1.40001
1.40001
1.40001
1.40001
1.40001
1.40001
1.40001
1.40001
1.40001
1.40001
1.40001
1.40001
1.40001
1.40001
1.40001
1.40001
1.40001
1.40001
1.40001
1.40001
1.40001
1.40001
1.40001
1.40001
1.40001
1.40001
1.40001
1.40001
1.40001
1.40001
1.40001
1.40001
2.21327
5.04782
5.5522
5.54718
5.5443
5.54275
5.54583
5.56381
5.582
5.58968
5.58958
5.5856
5.59365
5.62576
5.66306
5.67799
5.66283
5.62861
5.60085
5.60062
5.62866
5.66484
5.67966
5.65983
5.61145
5.55327
5.50158
5.47197
5.45911
5.45061
5.4258
5.37202
5.28973
5.18595
5.07342
4.96881
4.88633
4.83278
4.80442
4.79482
4.79398
4.80156
1.40001
1.40001
1.40001
1.40001
1.40001
1.40001
1.40001
1.40001
1.40001
1.40001
1.40001
1.40001
1.40001
1.40001
1.40001
1.40001
1.40001
1.40001
1.40001
1.40001
1.40001
1.40001
1.40001
1.40001
1.40001
1.40001
1.40001
1.40001
1.40001
1.40001
1.40001
1.40001
1.40001
1.40001
1.40001
1.40001
1.40001
1.40001
1.40001
1.40001
1.40001
1.40001
1.40001
1.40001
1.40001
1.40001
1.40001
1.40001
1.40001
1.40001
1.40001
1.40001
1.40001
1.40001
1.40001
1.40001
1.40001
1.40001
1.40001
1.40001
1.40001
1.40001
1.40001
1.40001
1.40001
1.40001
1.40001
1.40001
1.40001
1.40001
1.40001
1.40001
1.40001
1.40001
1.40001
1.40001
1.40001
1.40001
1.88831
4.81918
5.54438
5.52747
5.52759
5.52624
5.5341
5.55659
5.58199
5.59596
5.59585
5.59003
5.59234
5.61582
5.6525
5.67111
5.65975
5.62599
5.59243
5.58656
5.60977
5.64594
5.66353
5.64814
5.60377
5.54599
5.49059
5.45448
5.43604
5.42494
5.40498
5.3623
5.29155
5.19474
5.08267
4.97287
4.88206
4.81911
4.78311
4.76972
4.76827
4.77601
1.40001
1.40001
1.40001
1.40001
1.40001
1.40001
1.40001
1.40001
1.40001
1.40001
1.40001
1.40001
1.40001
1.40001
1.40001
1.40001
1.40001
1.40001
1.40001
1.40001
1.40001
1.40001
1.40001
1.40001
1.40001
1.40001
1.40001
1.40001
1.40001
1.40001
1.40001
1.40001
1.40001
1.40001
1.40001
1.40001
1.40001
1.40001
1.40001
1.40001
1.40001
1.40001
1.40001
1.40001
1.40001
1.40001
1.40001
1.40001
1.40001
1.40001
1.40001
1.40001
1.40001
1.40001
1.40001
1.40001
1.40001
1.40001
1.40001
1.40001
1.40001
1.40001
1.40001
1.40001
1.40001
1.40001
1.40001
1.40001
1.40001
1.40001
1.40001
1.40001
1.40001
1.40001
1.40001
1.40001
1.40001
1.40001
1.61877
4.49083
5.498
5.49895
5.51085
5.51939
5.53245
5.55635
5.58531
5.60226
5.60133
5.59056
5.58622
5.60096
5.63681
5.66012
5.65431
5.62304
5.58565
5.57364
5.59077
5.62484
5.64481
5.63523
5.596
5.53871
5.47948
5.43599
5.41136
5.39802
5.38408
5.35288
5.2926
5.2018
5.08985
4.97484
4.87598
4.80396
4.76021
4.74254
4.74027
4.748
1.40001
1.40001
1.40001
1.40001
1.40001
1.40001
1.40001
1.40001
1.40001
1.40001
1.40001
1.40001
1.40001
1.40001
1.40001
1.40001
1.40001
1.40001
1.40001
1.40001
1.40001
1.40001
1.40001
1.40001
1.40001
1.40001
1.40001
1.40001
1.40001
1.40001
1.40001
1.40001
1.40001
1.40001
1.40001
1.40001
1.40001
1.40001
1.40001
1.40001
1.40001
1.40001
1.40001
1.40001
1.40001
1.40001
1.40001
1.40001
1.40001
1.40001
1.40001
1.40001
1.40001
1.40001
1.40001
1.40001
1.40001
1.40001
1.40001
1.40001
1.40001
1.40001
1.40001
1.40001
1.40001
1.40001
1.40001
1.40001
1.40001
1.40001
1.40001
1.40001
1.40001
1.40001
1.40001
1.40001
1.40001
1.40001
1.41636
4.01676
5.40755
5.47972
5.50377
5.51695
5.53649
5.56307
5.58916
5.60269
5.59998
5.58642
5.577
5.58479
5.61855
5.64684
5.64745
5.61937
5.57971
5.56048
5.57055
5.60099
5.62421
5.62165
5.58798
5.53111
5.4679
5.41619
5.38539
5.37126
5.36417
5.34355
5.29219
5.20603
5.09415
4.97483
4.86826
4.78739
4.73569
4.71295
4.70923
4.71641
1.40001
1.40001
1.40001
1.40001
1.40001
1.40001
1.40001
1.40001
1.40001
1.40001
1.40001
1.40001
1.40001
1.40001
1.40001
1.40001
1.40001
1.40001
1.40001
1.40001
1.40001
1.40001
1.40001
1.40001
1.40001
1.40001
1.40001
1.40001
1.40001
1.40001
1.40001
1.40001
1.40001
1.40001
1.40001
1.40001
1.40001
1.40001
1.40001
1.40001
1.40001
1.40001
1.40001
1.40001
1.40001
1.40001
1.40001
1.40001
1.40001
1.40001
1.40001
1.40001
1.40001
1.40001
1.40001
1.40001
1.40001
1.40001
1.40001
1.40001
1.40001
1.40001
1.40001
1.40001
1.40001
1.40001
1.40001
1.40001
1.40001
1.40001
1.40001
1.40001
1.40001
1.40001
1.40001
1.40001
1.40001
1.40001
1.40017
3.39767
5.29652
5.48106