0.0826367 	0.499829 	-1.44825e-18 	0.746445
