0.245684 	0.443598 	8.12425e-19 	0.688087
0.247842 	0.447494 	-2.09886e-18 	0.686995
0.250437 	0.45218 	-1.72557e-18 	0.685725
0.25347 	0.457656 	-1.90861e-18 	0.68464
0.258032 	0.465894 	-1.6515e-18 	0.683494
0.260628 	0.47058 	-9.85672e-19 	0.682545
0.263851 	0.476399 	-8.79282e-19 	0.681615
0.268223 	0.484294 	-9.62669e-21 	0.681043
0.270818 	0.48898 	-9.22483e-20 	0.680364
0.274232 	0.495143 	-6.36709e-19 	0.679819
