/*--------------------------------*- C++ -*----------------------------------*\
  =========                 |
  \\      /  F ield         | OpenFOAM: The Open Source CFD Toolbox
   \\    /   O peration     | Website:  https://openfoam.org
    \\  /    A nd           | Version:  7
     \\/     M anipulation  |
\*---------------------------------------------------------------------------*/
FoamFile
{
    version     2.0;
    format      ascii;
    class       volVectorField;
    location    "183";
    object      U;
}
// * * * * * * * * * * * * * * * * * * * * * * * * * * * * * * * * * * * * * //

dimensions      [0 1 -1 0 0 0 0];

internalField   nonuniform List<vector> 
12400
(
(-0.000976252 -0.0104643 -7.96646e-21)
(-0.00611573 -0.0164478 -2.97822e-20)
(-0.0166281 -0.0111604 5.49993e-21)
(-0.0305056 0.00235418 2.12583e-20)
(-0.0467638 0.0211508 9.18546e-21)
(-0.0648031 0.0428336 -2.27286e-20)
(-0.0840731 0.0658795 -7.21467e-21)
(-0.104067 0.0897621 -2.8311e-21)
(-0.124281 0.114814 -2.70445e-20)
(-0.144185 0.141871 -5.27963e-21)
(-0.163207 0.17184 -2.00003e-20)
(-0.180709 0.205352 3.23607e-21)
(-0.195944 0.242547 -1.05348e-20)
(-0.207987 0.282942 1.90396e-20)
(-0.215677 0.325287 -2.49878e-20)
(-0.217559 0.367338 -2.6805e-20)
(-0.211905 0.405594 -7.89204e-21)
(-0.196909 0.435174 4.40304e-20)
(-0.170449 0.449918 -3.88124e-20)
(-0.129484 0.442524 5.65611e-21)
(-0.000642681 -0.00762722 1.16627e-20)
(-0.0053468 -0.00965139 1.91841e-20)
(-0.0153151 -0.00160126 5.86304e-21)
(-0.0285712 0.0138183 1.80095e-20)
(-0.0440974 0.0338956 -4.69435e-21)
(-0.0612534 0.0563869 2.80872e-20)
(-0.0794658 0.0798463 1.09373e-20)
(-0.0982088 0.103766 2.4726e-20)
(-0.116949 0.128467 -1.38128e-20)
(-0.135102 0.154765 3.42287e-20)
(-0.152006 0.18355 1.13158e-19)
(-0.166907 0.215417 -1.89812e-20)
(-0.178918 0.250441 2.82666e-20)
(-0.186958 0.288037 -1.77248e-20)
(-0.189693 0.326826 4.54848e-20)
(-0.185504 0.364432 -4.88019e-21)
(-0.172488 0.39725 2.6059e-20)
(-0.14871 0.420394 -1.62562e-19)
(-0.112379 0.428147 1.63285e-20)
(-0.0595324 0.413164 -2.54067e-20)
(-0.000475868 -0.0050644 3.61274e-20)
(-0.0049014 -0.00353888 3.82897e-20)
(-0.0142989 0.00697052 -9.0356e-21)
(-0.0267819 0.0240721 -1.95761e-20)
(-0.0413213 0.0452757 -8.55076e-21)
(-0.0572426 0.0684752 2.74658e-20)
(-0.0739508 0.0922803 4.12008e-20)
(-0.0909004 0.116174 -9.12919e-20)
(-0.107528 0.140435 2.73e-20)
(-0.123193 0.165838 -3.54403e-20)
(-0.137147 0.193237 -5.93596e-20)
(-0.148518 0.223196 -1.06327e-20)
(-0.156281 0.255739 -1.73677e-20)
(-0.15921 0.290205 -4.02269e-20)
(-0.155838 0.325111 4.68509e-20)
(-0.144443 0.358001 -4.54856e-20)
(-0.123074 0.385255 5.84309e-21)
(-0.0896834 0.402008 1.58692e-19)
(-0.043398 0.40318 -1.16347e-19)
(0.0213674 0.380994 1.06016e-19)
(-0.000446192 -0.00284007 -2.72356e-20)
(-0.00473467 0.00174577 4.95063e-20)
(-0.0135695 0.014359 -7.28876e-20)
(-0.0251883 0.0328807 3.43185e-20)
(-0.0385619 0.0550235 -1.85964e-19)
(-0.0529821 0.0788034 -1.14296e-19)
(-0.0678294 0.102868 7.16188e-20)
(-0.0825374 0.126665 1.77964e-19)
(-0.0965145 0.150407 -7.19012e-20)
(-0.109072 0.174796 -5.10924e-20)
(-0.119383 0.200639 -7.26937e-20)
(-0.126472 0.228469 1.47371e-19)
(-0.129187 0.258278 1.83125e-19)
(-0.126183 0.289354 -1.43039e-19)
(-0.115896 0.320166 -1.19394e-19)
(-0.0965617 0.348218 4.63638e-20)
(-0.0663285 0.370001 -1.01692e-19)
(-0.0229637 0.380642 -4.46016e-21)
(0.0327061 0.376061 1.90883e-19)
(0.109695 0.347231 6.9772e-20)
(-0.000520497 -0.0009887 1.03803e-19)
(-0.0047951 0.00612047 3.20275e-20)
(-0.013111 0.020442 1.13091e-19)
(-0.0238394 0.040083 -3.39111e-20)
(-0.0359508 0.0629376 1.77973e-19)
(-0.0486974 0.0871317 1.08962e-19)
(-0.0614293 0.111337 -1.30931e-19)
(-0.0735556 0.134952 -1.68956e-19)
(-0.0844604 0.158092 1.55937e-19)
(-0.093419 0.18137 -4.25271e-20)
(-0.0995456 0.205522 6.36346e-20)
(-0.10178 0.231054 -2.55872e-19)
(-0.0988747 0.257935 8.7569e-20)
(-0.0893927 0.285439 3.65693e-20)
(-0.0717279 0.312035 1.9591e-20)
(-0.0441023 0.335268 7.21952e-20)
(-0.00497008 0.35182 1.97213e-19)
(0.0485109 0.35668 5.96907e-21)
(0.112289 0.347585 -7.09688e-20)
(0.20183 0.31309 6.86274e-20)
(-0.000666587 0.000484913 7.0241e-20)
(-0.00503268 0.00956709 3.39382e-20)
(-0.0129084 0.025176 -1.83427e-19)
(-0.0227841 0.0455991 -1.07249e-19)
(-0.0336199 0.0688933 -4.38894e-20)
(-0.0446184 0.0932866 1.43131e-19)
(-0.0550893 0.117471 1.70319e-19)
(-0.0644121 0.140783 -2.04793e-20)
(-0.0719497 0.163232 -4.0867e-20)
(-0.0769566 0.185312 -3.33581e-20)
(-0.0785102 0.207676 -1.14032e-19)
(-0.0754998 0.230789 2.59577e-19)
(-0.0666247 0.254615 -2.38897e-21)
(-0.050394 0.278454 -1.00124e-19)
(-0.0251956 0.300805 -1.05923e-20)
(0.0107365 0.319305 2.02546e-20)
(0.0582633 0.33099 6.87083e-20)
(0.121837 0.330449 -2.68518e-19)
(0.191821 0.318001 1.24271e-19)
(0.293813 0.279011 -1.22402e-19)
(-0.000857656 0.00160486 -1.15532e-19)
(-0.00540628 0.0121291 6.64355e-20)
(-0.0129524 0.0285954 7.96015e-20)
(-0.0220719 0.0494333 7.09286e-20)
(-0.0316967 0.072849 1.49793e-19)
(-0.0409669 0.0971713 2.08833e-20)
(-0.0491407 0.121116 -2.41037e-20)
(-0.0555607 0.143962 6.49671e-20)
(-0.0595693 0.165601 -9.59275e-20)
(-0.060416 0.186398 -8.07179e-21)
(-0.0571695 0.206906 4.57716e-20)
(-0.0487034 0.227533 -2.12731e-19)
(-0.0337034 0.248249 -6.87506e-20)
(-0.0106892 0.268399 6.74717e-20)
(0.0218766 0.286563 -1.62326e-19)
(0.0658638 0.300478 1.81838e-19)
(0.12082 0.307716 2.05835e-20)
(0.194296 0.302256 -2.59632e-20)
(0.268112 0.287442 -3.5326e-19)
(0.381932 0.244742 2.25621e-19)
(-0.00107676 0.00241983 -4.38691e-20)
(-0.00589115 0.0139041 -4.97159e-20)
(-0.0132452 0.0308063 -2.33441e-19)
(-0.0217528 0.0516718 -1.03155e-19)
(-0.030297 0.0748493 -3.54417e-19)
(-0.0379422 0.0987746 -3.0136e-20)
(-0.0438835 0.1222 -1.75716e-19)
(-0.0474202 0.144358 -1.25522e-19)
(-0.0478729 0.16503 2.77353e-19)
(-0.0444932 0.184444 4.70858e-20)
(-0.0363734 0.203041 1.14123e-19)
(-0.0224107 0.221158 1.47004e-19)
(-0.00132318 0.238769 -4.75306e-20)
(0.0283136 0.255271 -1.65478e-19)
(0.0678554 0.269374 1.49702e-19)
(0.11945 0.27897 1.44591e-19)
(0.180572 0.282129 -1.57828e-19)
(0.263756 0.272364 2.31183e-19)
(0.338846 0.256101 3.82303e-19)
(0.464569 0.209873 1.18911e-19)
(-0.00131862 0.00299661 1.19101e-19)
(-0.00648229 0.0150331 1.41718e-19)
(-0.0138017 0.0319754 7.10229e-20)
(-0.0218749 0.0524744 1.76206e-19)
(-0.0295155 0.0750234 8.33498e-20)
(-0.0357028 0.098178 2.14893e-19)
(-0.0395584 0.120744 1.87616e-19)
(-0.0403314 0.141932 -7.3475e-20)
(-0.0373215 0.161428 -1.17609e-19)
(-0.0297883 0.179327 2.10398e-19)
(-0.016864 0.195948 -1.34686e-19)
(0.00249225 0.211556 9.58376e-20)
(0.0294858 0.226116 1.32992e-19)
(0.0654516 0.23909 1.48995e-19)
(0.111465 0.24932 -4.37967e-19)
(0.170165 0.254983 -2.16341e-19)
(0.236288 0.25433 -6.26218e-20)
(0.329285 0.241087 2.69264e-19)
(0.403438 0.22398 -6.2896e-19)
(0.54394 0.174451 -2.61687e-19)
(-0.00159088 0.00341373 1.72083e-19)
(-0.00719566 0.0156854 -2.09938e-19)
(-0.0146484 0.0323139 -2.19373e-19)
(-0.0224787 0.0520628 -2.29305e-19)
(-0.0294127 0.0735794 -1.41577e-19)
(-0.0343415 0.0955564 -3.39247e-20)
(-0.0363099 0.116877 -2.31201e-19)
(-0.0345103 0.136757 2.86864e-19)
(-0.0282182 0.15481 8.23297e-20)
(-0.0167048 0.171019 7.66444e-20)
(0.00084944 0.185584 -3.24063e-19)
(0.0254042 0.198692 4.80297e-20)
(0.0580596 0.210296 -4.10107e-20)
(0.100055 0.219927 -9.85351e-21)
(0.152142 0.226531 -1.57212e-19)
(0.217631 0.228781 2.13025e-19)
(0.288372 0.22448 -4.51863e-20)
(0.39193 0.208937 -5.87526e-19)
(0.464663 0.190819 9.22225e-20)
(0.626487 0.138972 4.85467e-19)
(-0.00191321 0.00375337 1.19292e-19)
(-0.00806504 0.0160422 -3.93319e-20)
(-0.0158165 0.0320583 2.30394e-19)
(-0.0235846 0.0507011 1.15313e-19)
(-0.0299985 0.0707904 1.64088e-19)
(-0.0338621 0.0911723 1.5803e-20)
(-0.0341455 0.110837 3.12916e-19)
(-0.0299822 0.129034 -2.81897e-19)
(-0.020618 0.14534 -1.26494e-19)
(-0.00532928 0.159649 -5.21873e-20)
(0.0166611 0.172058 3.19192e-19)
(0.0462389 0.182682 -5.71022e-20)
(0.0844086 0.191461 4.64176e-20)
(0.132353 0.198006 1.96812e-19)
(0.190589 0.201313 1.92785e-19)
(0.263141 0.200781 -3.40776e-19)
(0.339768 0.193027 -1.90304e-19)
(0.455324 0.176752 1.22661e-19)
(0.529784 0.156561 3.88885e-19)
(0.720221 0.104712 -5.74888e-20)
(-0.0023143 0.00409294 -1.58476e-19)
(-0.00913472 0.0162787 -8.7431e-20)
(-0.0173314 0.0314482 -1.19993e-19)
(-0.0251786 0.0486756 -1.18261e-19)
(-0.0312092 0.0669754 1.33822e-19)
(-0.0341469 0.0853666 -2.64069e-19)
(-0.0328913 0.102974 2.59469e-19)
(-0.0265159 0.119113 1.60739e-20)
(-0.0142261 0.13336 -2.16573e-19)
(0.0047166 0.14555 -4.82501e-20)
(0.0310782 0.155705 -1.98124e-19)
(0.065717 0.163887 8.79459e-20)
(0.10961 0.17003 -5.89399e-20)
(0.163989 0.17384 -3.71077e-19)
(0.229372 0.174326 1.91703e-20)
(0.310355 0.171718 1.23351e-19)
(0.396343 0.161079 2.80944e-19)
(0.525592 0.145583 5.10152e-19)
(0.609288 0.122307 9.65243e-20)
(0.829412 0.0740938 -6.43991e-19)
(-0.00282689 0.00449688 -2.14683e-19)
(-0.010448 0.016546 -2.89277e-20)
(-0.0191972 0.0307048 4.32637e-19)
(-0.0271951 0.0462708 -1.92742e-19)
(-0.0328866 0.0624774 8.09433e-21)
(-0.0349269 0.0785392 -1.87267e-19)
(-0.032149 0.0937384 -1.77625e-19)
(-0.0235602 0.10749 2.77589e-20)
(-0.00830323 0.119402 9.52387e-20)
(0.0144169 0.129294 3.43359e-19)
(0.0454205 0.137149 -1.07546e-19)
(0.0856342 0.143002 -4.55384e-19)
(0.13614 0.146805 3.24199e-19)
(0.198373 0.148372 2.80966e-19)
(0.273156 0.146734 1.84904e-19)
(0.365294 0.142815 4.73325e-19)
(0.465682 0.130473 -1.59977e-19)
(0.609556 0.116692 -7.97991e-19)
(0.711476 0.0907534 1.25729e-19)
(0.950242 0.0497261 1.80855e-19)
(-0.00348108 0.00500913 -1.09657e-19)
(-0.0120331 0.0169554 1.48948e-19)
(-0.0213792 0.0300097 -1.49449e-19)
(-0.0294972 0.0437445 2.37381e-19)
(-0.0347583 0.057638 -2.71162e-19)
(-0.03576 0.0711205 2.52015e-19)
(-0.0312671 0.0836543 4.95788e-20)
(-0.0202031 0.0947801 -2.68752e-19)
(-0.00160764 0.104179 2.19276e-19)
(0.02544 0.111695 -2.36281e-19)
(0.0619159 0.117315 2.87703e-19)
(0.108949 0.121086 1.57056e-19)
(0.167884 0.123007 1.23178e-19)
(0.240477 0.12301 -1.89208e-19)
(0.328002 0.120202 -3.40792e-20)
(0.434795 0.11579 -2.51967e-19)
(0.554002 0.103499 1.90669e-19)
(0.711329 0.0917246 1.75369e-20)
(0.835469 0.0652183 -3.56458e-19)
(1.07129 0.0330693 1.75325e-19)
(-0.00429677 0.00564734 2.4609e-20)
(-0.0138886 0.0175656 9.47925e-20)
(-0.0237891 0.0294867 2.07756e-20)
(-0.0318638 0.0413051 7.69802e-20)
(-0.0364281 0.0527675 1.86265e-19)
(-0.0360256 0.0635371 1.72596e-19)
(-0.0293413 0.0732763 1.22536e-19)
(-0.0151806 0.0816781 1.543e-19)
(0.00758179 0.0885307 -3.06741e-19)
(0.0400834 0.093749 -4.38362e-20)
(0.0835732 0.097368 -4.72672e-19)
(0.139504 0.0994895 -1.4614e-19)
(0.209571 0.100185 -1.6534e-19)
(0.295766 0.099487 2.71702e-19)
(0.39952 0.096665 -4.32164e-19)
(0.523673 0.0926425 8.31946e-20)
(0.662542 0.082266 3.89623e-20)
(0.828872 0.0723477 4.84755e-19)
(0.969162 0.047842 -2.47128e-19)
(1.17906 0.0237303 2.07029e-19)
(-0.00527639 0.0063998 3.20506e-19)
(-0.0159709 0.0183758 1.17982e-19)
(-0.0262745 0.0291897 2.1423e-19)
(-0.0339861 0.0390919 1.94115e-19)
(-0.0373813 0.0481147 3.31026e-20)
(-0.0349463 0.0561716 -4.19006e-19)
(-0.0252577 0.0631374 -3.08443e-19)
(-0.00695506 0.0688831 -2.75016e-19)
(0.0213263 0.0733377 2.57643e-19)
(0.0610304 0.0765257 1.53821e-19)
(0.113762 0.0785741 5.35645e-19)
(0.181319 0.0796706 -4.31957e-19)
(0.265612 0.0799726 1.60856e-19)
(0.368439 0.0795533 -3.05503e-19)
(0.490511 0.0779005 2.30705e-19)
(0.631934 0.0751207 -8.26707e-20)
(0.785922 0.0679543 1.18335e-19)
(0.95311 0.0594965 -4.44213e-19)
(1.0951 0.0385954 3.70871e-19)
(1.26393 0.019871 1.75547e-19)
(-0.00639946 0.00722621 -4.40664e-19)
(-0.0181869 0.0193253 1.81844e-19)
(-0.0286171 0.029097 -2.89801e-19)
(-0.0354773 0.0371604 -2.73812e-19)
(-0.0370122 0.043844 9.98093e-20)
(-0.0316375 0.0493203 4.99023e-19)
(-0.0177848 0.0536884 -3.59787e-19)
(0.00612935 0.0570189 4.71003e-20)
(0.0417697 0.0594078 -1.0006e-19)
(0.090932 0.0610224 -9.69629e-20)
(0.155552 0.0621101 2.50203e-19)
(0.237593 0.0629558 5.44526e-19)
(0.338733 0.0637838 -2.05066e-20)
(0.459743 0.0646064 4.589e-20)
(0.599357 0.0650771 -1.86325e-20)
(0.753859 0.0641553 -3.18266e-19)
(0.91361 0.060521 3.13768e-19)
(1.07105 0.0528061 5.23453e-19)
(1.19922 0.0357955 1.58033e-19)
(1.32306 0.0192986 -3.10507e-19)
(-0.00762035 0.00806257 -1.12649e-19)
(-0.0203929 0.0203014 3.68481e-19)
(-0.0305407 0.0291147 -1.23263e-20)
(-0.0358933 0.0354787 2.62628e-19)
(-0.034668 0.0400168 1.20661e-19)
(-0.0251857 0.0431623 1.15727e-19)
(-0.00569855 0.0452495 -1.44155e-19)
(0.0256416 0.0465603 2.47956e-19)
(0.0708169 0.0473776 4.09213e-20)
(0.131922 0.0480297 -1.46739e-19)
(0.211027 0.0488924 -8.31652e-20)
(0.309824 0.0503268 -3.74527e-19)
(0.428988 0.0525618 -3.74846e-19)
(0.567208 0.0554086 8.75782e-20)
(0.720054 0.0584897 -3.09625e-20)
(0.879641 0.0595996 -1.28327e-19)
(1.03361 0.0588424 -4.33265e-19)
(1.17133 0.0508871 -5.41397e-19)
(1.27559 0.0373945 -6.48317e-19)
(1.35919 0.0202073 7.69619e-20)
(-0.00887008 0.00882995 2.39842e-20)
(-0.0224017 0.021154 -3.32303e-19)
(-0.0317269 0.02909 -3.15208e-19)
(-0.0347625 0.0339335 -2.10527e-19)
(-0.0296973 0.0365903 3.79099e-19)
(-0.0147314 0.0377496 -8.19924e-19)
(0.0120842 0.037984 1.66697e-19)
(0.0528634 0.0377929 -9.53074e-20)
(0.109843 0.0376534 2.70305e-19)
(0.185227 0.038056 3.2485e-20)
(0.280819 0.0394849 -4.09406e-19)
(0.397361 0.042317 1.75307e-19)
(0.533581 0.0466697 5.42577e-20)
(0.685115 0.0519984 1.75155e-19)
(0.843856 0.0575955 -1.89043e-19)
(0.998634 0.0604013 3.38334e-19)
(1.13641 0.061177 -1.48477e-19)
(1.24822 0.0522198 7.89819e-20)
(1.32542 0.0417952 -5.23523e-20)
(1.37768 0.0212947 -2.08004e-19)
(-0.0100619 0.00944584 3.65252e-19)
(-0.0239949 0.0217171 -6.88172e-20)
(-0.0318353 0.028834 -4.36419e-20)
(-0.0316176 0.032353 2.53893e-19)
(-0.021496 0.0334362 -1.29777e-19)
(0.0004635 0.0330196 7.37797e-19)
(0.036407 0.0319099 3.40101e-20)
(0.0886527 0.030821 2.24195e-19)
(0.159526 0.0304192 -3.76511e-19)
(0.250992 0.0313367 -2.84693e-19)
(0.364003 0.0341135 4.15382e-19)
(0.497524 0.0390372 -3.39565e-19)
(0.647454 0.0459439 2.73731e-19)
(0.805912 0.0537863 -4.85029e-20)
(0.961685 0.0612808 8.41212e-19)
(1.10244 0.0650294 -1.77199e-20)
(1.2173 0.0658029 2.96261e-19)
(1.30184 0.0558097 4.3813e-19)
(1.35379 0.0476696 2.66734e-19)
(1.38396 0.0215538 4.37415e-19)
(-0.0110995 0.00983587 1.76368e-19)
(-0.0249385 0.0218323 -3.97722e-19)
(-0.0305229 0.0281525 1.34714e-19)
(-0.0260185 0.0305392 2.20713e-19)
(-0.00953831 0.0303777 1.86692e-19)
(0.0209797 0.0288381 -5.36968e-19)
(0.067831 0.0269485 2.4134e-19)
(0.133402 0.0256264 1.0996e-19)
(0.219821 0.0257064 4.69641e-20)
(0.328326 0.0279163 1.93431e-19)
(0.4583 0.0327584 -1.10691e-19)
(0.606121 0.0402781 3.45941e-19)
(0.764336 0.0498306 -2.88267e-19)
(0.921929 0.0597643 -2.97512e-19)
(1.06629 0.0682048 -5.13482e-19)
(1.18655 0.071928 -1.62433e-19)
(1.2762 0.0715283 -3.57413e-19)
(1.33588 0.061074 -3.99461e-19)
(1.36715 0.0532309 -3.62797e-19)
(1.38215 0.0206083 -1.95789e-19)
(-0.0118856 0.00994349 2.68516e-19)
(-0.0249968 0.0213711 -6.92484e-20)
(-0.0274577 0.0268768 -1.86397e-19)
(-0.0175621 0.0283084 -6.05775e-19)
(0.00661705 0.0272414 -4.83371e-20)
(0.0472394 0.0250613 6.43618e-19)
(0.106648 0.0229997 -1.44663e-19)
(0.187077 0.0221561 1.245e-19)
(0.290058 0.0234932 2.94901e-19)
(0.41549 0.0277527 8.76508e-20)
(0.560442 0.0352563 -5.64965e-19)
(0.718125 0.0456112 -1.39783e-19)
(0.877873 0.0575205 -9.80785e-20)
(1.02687 0.0687479 2.76517e-19)
(1.15342 0.0770847 7.99354e-19)
(1.25027 0.0798642 -2.53923e-19)
(1.31598 0.0777905 -1.68122e-19)
(1.35496 0.0671522 4.36464e-19)
(1.37116 0.0570892 2.39767e-19)
(1.37764 0.032545 1.07585e-19)
(-0.0123284 0.0097357 -2.87908e-19)
(-0.0239453 0.0202541 2.13419e-19)
(-0.0223259 0.0248926 -4.36796e-19)
(-0.0058835 0.0255337 4.95957e-20)
(0.027338 0.0239113 3.07359e-19)
(0.0795315 0.0216031 -6.53668e-19)
(0.152926 0.0200211 -6.85363e-19)
(0.249288 0.0204106 1.24559e-20)
(0.36905 0.023792 -4.06756e-19)
(0.510097 0.0307915 -2.86172e-19)
(0.666554 0.0413538 4.53543e-19)
(0.828367 0.0544483 7.1866e-19)
(0.982612 0.068066 -2.82499e-19)
(1.11667 0.0795888 -1.77088e-19)
(1.22187 0.0868777 -4.46726e-19)
(1.29556 0.0880855 3.09333e-20)
(1.34062 0.0843253 -1.62377e-20)
(1.36358 0.0730113 -1.63118e-20)
(1.36974 0.0632433 4.67067e-20)
(1.36982 0.0390434 6.04769e-19)
(-0.0123451 0.00920795 2.88504e-19)
(-0.0215728 0.0184578 3.20183e-19)
(-0.0148338 0.0221611 4.24141e-19)
(0.0093508 0.0221803 1.69197e-19)
(0.0529351 0.020375 -2.32176e-19)
(0.118038 0.0184915 -1.63127e-19)
(0.206543 0.0180895 -2.33754e-20)
(0.319346 0.0205 2.34846e-19)
(0.455185 0.0266869 2.16296e-19)
(0.60929 0.0369737 1.37731e-19)
(0.772534 0.0507027 -1.65234e-20)
(0.932169 0.0660761 -3.46081e-19)
(1.07468 0.0804975 2.78896e-19)
(1.18969 0.0913234 -4.21886e-20)
(1.27278 0.0968693 1.29469e-19)
(1.32565 0.0962363 5.63448e-20)
(1.35411 0.090806 -4.41517e-20)
(1.3655 0.0792921 1.12046e-19)
(1.36489 0.0687394 -8.68368e-20)
(1.36092 0.0471055 -5.963e-19)
(-0.0118655 0.0083766 1.50505e-19)
(-0.0176838 0.0160151 -5.76531e-19)
(-0.00470469 0.0187326 2.84656e-19)
(0.0284488 0.0183251 1.19746e-19)
(0.0836697 0.0167513 -3.53315e-19)
(0.162844 0.0158992 3.4658e-19)
(0.2672 0.0174255 1.95641e-19)
(0.396263 0.0226494 -4.69962e-19)
(0.546463 0.0323079 5.7681e-20)
(0.709908 0.0461869 -9.00877e-20)
(0.874433 0.0628335 2.13508e-19)
(1.02586 0.0797092 -1.60829e-19)
(1.15202 0.0939393 -2.44986e-19)
(1.24626 0.103248 3.62558e-19)
(1.30858 0.106663 -1.77315e-19)
(1.34404 0.104147 7.15585e-20)
(1.35989 0.097327 -1.69576e-19)
(1.36318 0.0855233 1.2364e-21)
(1.35828 0.074897 -1.51987e-19)
(1.35175 0.0545452 1.66097e-19)
(-0.0108245 0.00727644 -3.76914e-20)
(-0.0120971 0.0130149 -1.71008e-19)
(0.00832147 0.0147443 -1.94099e-19)
(0.0516909 0.0141599 1.12154e-19)
(0.119746 0.0132958 -3.31023e-20)
(0.213916 0.0141427 2.11157e-19)
(0.334376 0.0183751 1.51111e-19)
(0.478729 0.0271525 1.44981e-19)
(0.640543 0.0407581 4.76273e-20)
(0.808706 0.0582019 1.26638e-19)
(0.968858 0.0771605 2.14836e-19)
(1.10711 0.0945746 4.65787e-20)
(1.21429 0.107697 -1.06845e-19)
(1.28808 0.11493 8.19827e-20)
(1.33224 0.116088 2.65361e-19)
(1.35389 0.111838 -4.80119e-19)
(1.36056 0.10385 1.53439e-19)
(1.35839 0.0919778 1.80149e-19)
(1.35079 0.0810741 5.92868e-20)
(1.34253 0.0620614 1.16869e-19)
(-0.00916124 0.00595607 -6.00168e-20)
(-0.00464143 0.0095899 3.73219e-19)
(0.0244853 0.0104097 1.31389e-19)
(0.0793164 0.0099807 -4.04456e-19)
(0.16128 0.0103826 -1.09433e-19)
(0.271051 0.0136499 2.08056e-19)
(0.407283 0.0213543 1.02052e-19)
(0.565088 0.0342914 3.58132e-19)
(0.734846 0.0520326 -1.3626e-20)
(0.902641 0.0726439 1.755e-20)
(1.0533 0.0930374 -1.82064e-19)
(1.17495 0.110001 -2.85435e-19)
(1.26241 0.121295 -3.05669e-20)
(1.31747 0.126162 -1.7858e-19)
(1.34659 0.125139 1.50463e-19)
(1.35776 0.119372 7.30716e-19)
(1.35797 0.110476 2.85167e-19)
(1.3522 0.0985541 -2.78887e-19)
(1.34291 0.0875043 -1.38086e-19)
(1.33351 0.0695735 5.57149e-20)
(-0.00681476 0.00447273 2.95118e-19)
(0.00484424 0.00590717 -4.54189e-19)
(0.0439983 0.00600347 -4.35523e-19)
(0.111499 0.00616381 5.9697e-19)
(0.20826 0.00846895 1.80428e-19)
(0.333827 0.0149063 -1.1253e-19)
(0.484812 0.0267738 -3.28116e-19)
(0.653378 0.0442529 -4.09858e-19)
(0.826752 0.0659685 2.75838e-19)
(0.989172 0.0890202 4.93126e-20)
(1.12628 0.109841 1.47094e-19)
(1.22957 0.125478 1.21295e-19)
(1.29807 0.134467 -7.38427e-21)
(1.33691 0.136899 -8.07892e-20)
(1.35412 0.133887 -1.62125e-19)
(1.35759 0.126847 -4.38572e-19)
(1.35336 0.117232 -1.72528e-19)
(1.34525 0.105318 5.7563e-19)
(1.3349 0.0940798 9.52446e-20)
(1.3247 0.0770752 -1.40171e-19)
(-0.00372291 0.00288961 -3.08005e-19)
(0.0165074 0.00215895 3.19721e-19)
(0.067028 0.00184414 7.53369e-21)
(0.148317 0.00313718 -1.35283e-19)
(0.260497 0.00805058 -4.41518e-20)
(0.401549 0.0183919 -3.91194e-20)
(0.565542 0.0349643 -2.41422e-19)
(0.741447 0.0570706 2.93683e-19)
(0.913843 0.0822482 -4.88815e-19)
(1.06649 0.106789 1.56715e-21)
(1.18736 0.127044 -8.76588e-20)
(1.272 0.140674 -4.34579e-20)
(1.3233 0.147112 9.94569e-20)
(1.3487 0.147198 -2.21969e-19)
(1.35677 0.142442 -1.24034e-20)
(1.35475 0.134347 1.21699e-19)
(1.34752 0.124164 -2.98931e-19)
(1.33788 0.112243 -2.33871e-21)
(1.32686 0.100811 4.33271e-22)
(1.31608 0.0845905 2.48022e-19)
(0.00017677 0.00127517 4.47459e-20)
(0.0304742 -0.00144364 8.81492e-20)
(0.0936789 -0.00172269 1.73856e-19)
(0.18972 0.00135072 -9.51049e-20)
(0.317592 0.00961697 -3.09595e-19)
(0.473243 0.0245236 8.11539e-20)
(0.647798 0.0461217 1.84748e-19)
(0.827134 0.07261 1.02366e-19)
(0.994136 0.100448 3.45015e-19)
(1.13358 0.125437 -9.45691e-20)
(1.2369 0.144255 -5.64257e-20)
(1.30375 0.155417 4.81681e-20)
(1.34012 0.159244 -1.37626e-19)
(1.35477 0.157168 -1.90441e-19)
(1.35604 0.150911 -1.238e-19)
(1.35017 0.141938 1.01716e-19)
(1.34093 0.131281 2.53586e-19)
(1.33029 0.119326 -1.22922e-19)
(1.31882 0.107664 -1.91253e-19)
(1.30763 0.0920891 2.8889e-20)
(0.00494361 -0.000296187 7.99517e-20)
(0.0468394 -0.00467467 1.84835e-20)
(0.123974 -0.00433811 -2.34204e-19)
(0.235506 0.00124977 3.11684e-19)
(0.378919 0.0136119 6.98244e-20)
(0.547681 0.0336107 -3.6836e-19)
(0.729774 0.0602833 1.41256e-19)
(0.908471 0.0905946 -1.86044e-19)
(1.06623 0.120105 9.12629e-21)
(1.1902 0.144531 3.05729e-20)
(1.27583 0.161223 8.81765e-20)
(1.3265 0.169657 1.02785e-20)
(1.35037 0.170945 3.86203e-19)
(1.35665 0.166927 1.52017e-19)
(1.35297 0.159387 -7.20208e-20)
(1.34443 0.149662 -8.33193e-20)
(1.33386 0.138583 4.76863e-20)
(1.32255 0.126541 4.88863e-20)
(1.31078 0.114616 -8.09644e-20)
(1.29928 0.0995682 -9.02787e-20)
(0.0106286 -0.00174307 -9.37715e-20)
(0.0656535 -0.00729627 6.19918e-21)
(0.157837 -0.0056414 4.79091e-20)
(0.285308 0.00325278 -1.31511e-19)
(0.443637 0.0204029 2.55691e-19)
(0.623453 0.0458306 1.46886e-19)
(0.809679 0.0773345 -1.49973e-19)
(0.983842 0.110657 -9.93716e-20)
(1.12933 0.140779 8.99386e-20)
(1.23668 0.163745 -1.39266e-19)
(1.30538 0.177816 1.03496e-19)
(1.34187 0.183428 -2.07352e-21)
(1.35559 0.182327 3.33269e-21)
(1.35551 0.176587 -7.59601e-20)
(1.34828 0.167935 2.15278e-19)
(1.33792 0.15754 -1.77927e-20)
(1.32645 0.146057 9.0518e-20)
(1.31468 0.133866 -1.30734e-19)
(1.30271 0.121639 9.99625e-20)
(1.291 0.107006 -3.99415e-20)
(0.0172688 -0.00297657 1.55033e-19)
(0.0869112 -0.00906191 1.88098e-19)
(0.195081 -0.00528063 1.40171e-19)
(0.338592 0.00773288 -2.02062e-20)
(0.510721 0.0302611 2.96639e-20)
(0.699063 0.061223 2.63883e-21)
(0.885881 0.0970393 3.25152e-19)
(1.05208 0.132394 -9.64683e-20)
(1.18322 0.162091 6.74513e-20)
(1.27374 0.18286 -3.40852e-19)
(1.3269 0.193997 4.98608e-20)
(1.35133 0.196809 1.47977e-19)
(1.357 0.193505 -6.68486e-20)
(1.35218 0.186236 1.37189e-19)
(1.34244 0.176598 -1.77307e-19)
(1.33084 0.165574 2.40825e-19)
(1.31876 0.15368 7.81764e-21)
(1.30668 0.14127 -7.94138e-20)
(1.29458 0.128706 3.15144e-21)
(1.28273 0.114388 1.19456e-19)
(0.0248818 -0.00390075 -2.93735e-19)
(0.110542 -0.00972101 7.6028e-20)
(0.235402 -0.00292319 -2.90605e-20)
(0.394671 0.0150025 -2.1724e-19)
(0.579018 0.0433496 -8.02161e-20)
(0.773029 0.0797012 -1.55187e-19)
(0.957017 0.119081 -1.34273e-19)
(1.11247 0.155412 -1.44662e-19)
(1.22809 0.183741 1.47949e-19)
(1.30236 0.201748 7.26101e-20)
(1.34168 0.209787 -2.12328e-19)
(1.35613 0.209898 -5.20399e-20)
(1.35553 0.204578 -2.46721e-20)
(1.34724 0.195938 -1.03462e-19)
(1.33574 0.185395 -1.75888e-20)
(1.32329 0.173753 -4.2375e-20)
(1.3108 0.161423 -1.70089e-19)
(1.29851 0.148725 8.25371e-20)
(1.28635 0.135793 1.00744e-19)
(1.27443 0.121695 -2.48801e-20)
(0.0334615 -0.00441432 1.09334e-20)
(0.136403 -0.00902545 -1.38153e-19)
(0.278381 0.0017327 6.4558e-20)
(0.452728 0.0253008 -4.51033e-20)
(0.647314 0.0597216 5.60515e-20)
(0.843988 0.101074 2.56276e-19)
(1.02205 0.143102 -1.11931e-19)
(1.16473 0.179354 2.77031e-19)
(1.26446 0.205506 1.34e-20)
(1.32357 0.22035 1.36411e-19)
(1.35091 0.225242 1.20153e-20)
(1.35725 0.222791 9.33087e-20)
(1.35188 0.215627 1.91461e-20)
(1.34108 0.205731 9.24369e-21)
(1.32836 0.194324 -1.35419e-19)
(1.31534 0.182055 2.38578e-20)
(1.30257 0.169254 1.22738e-19)
(1.29016 0.1562 5.71528e-21)
(1.27799 0.142871 -5.97908e-20)
(1.26605 0.128906 2.43465e-20)
(0.0429743 -0.00441345 3.66192e-20)
(0.164277 -0.0067381 1.1308e-19)
(0.323492 0.00894597 1.2266e-19)
(0.511853 0.0387839 -3.32654e-20)
(0.714395 0.0793248 1.61504e-19)
(0.910756 0.125072 -3.2433e-20)
(1.08027 0.168737 2.64339e-19)
(1.20889 0.203918 -3.34729e-19)
(1.29302 0.22723 -5.92181e-20)
(1.33839 0.238653 -5.89735e-20)
(1.35558 0.240431 -7.07977e-20)
(1.35549 0.23557 -1.67436e-20)
(1.34652 0.226703 2.40834e-20)
(1.33394 0.215628 -8.75681e-20)
(1.32039 0.203373 9.01707e-20)
(1.30699 0.190451 -3.91085e-20)
(1.29406 0.177137 -3.03013e-20)
(1.28159 0.163664 -2.743e-20)
(1.26946 0.149913 -1.71134e-20)
(1.25756 0.136002 -5.48307e-20)
(0.053358 -0.00379548 1.74192e-19)
(0.193873 -0.00264248 -1.74881e-19)
(0.370118 0.018921 2.09662e-20)
(0.571081 0.0555194 -2.20952e-20)
(0.779117 0.102013 -5.90319e-20)
(0.972378 0.151376 -1.2139e-19)
(1.1313 0.195634 -1.8285e-20)
(1.24523 0.228849 8.16554e-20)
(1.31454 0.248811 3.7324e-20)
(1.34776 0.256671 -4.5447e-20)
(1.35654 0.255418 5.1096e-20)
(1.3514 0.248294 -1.1026e-20)
(1.3398 0.237833 -1.00927e-19)
(1.32596 0.225624 1.47185e-19)
(1.31187 0.212512 4.07946e-20)
(1.29823 0.198905 -2.1576e-20)
(1.28523 0.185033 2.64908e-20)
(1.27278 0.171083 4.07863e-20)
(1.26075 0.156891 4.01192e-20)
(1.24892 0.142957 4.22414e-20)
(0.0645209 -0.00246316 -1.81863e-19)
(0.224834 0.00344727 1.46759e-19)
(0.417571 0.0317973 6.46469e-20)
(0.629436 0.0754847 -1.33116e-19)
(0.840446 0.127561 -2.90548e-20)
(1.02814 0.179637 -1.11409e-19)
(1.17501 0.223464 4.46053e-20)
(1.27422 0.253945 -7.40423e-20)
(1.32981 0.27018 5.59697e-21)
(1.35251 0.274427 1.18414e-20)
(1.35442 0.270254 2.24381e-20)
(1.34543 0.260997 -8.4838e-20)
(1.33192 0.249021 8.67547e-20)
(1.31724 0.235697 -6.18407e-20)
(1.3028 0.221707 -1.70384e-20)
(1.28906 0.207376 8.0791e-21)
(1.27606 0.192903 -1.83215e-20)
(1.2637 0.178425 -4.21214e-20)
(1.25182 0.163776 -1.91464e-21)
(1.2401 0.149748 -2.85604e-20)
(0.0763431 -0.000328921 -2.27295e-20)
(0.256743 0.011677 -6.9306e-20)
(0.46512 0.0476422 -2.37645e-20)
(0.685971 0.0985704 3.81229e-20)
(0.897499 0.155681 -2.41877e-20)
(1.07755 0.209497 2.48191e-20)
(1.21147 0.251932 5.81051e-20)
(1.29637 0.279039 5.15219e-20)
(1.33957 0.291293 4.08097e-20)
(1.35332 0.291943 -8.96965e-21)
(1.34975 0.284972 -2.3729e-20)
(1.33786 0.273691 2.81174e-20)
(1.32302 0.260251 -1.38229e-20)
(1.3078 0.245809 1.73921e-20)
(1.2932 0.230914 -1.05381e-20)
(1.27945 0.215821 2.25217e-20)
(1.26653 0.200706 -6.1707e-21)
(1.25432 0.185657 2.63607e-20)
(1.24264 0.170537 -6.21576e-21)
(1.23109 0.156347 4.0858e-21)
(0.088679 0.00268085 -5.55575e-22)
(0.289138 0.0221446 -3.09055e-22)
(0.512011 0.0664466 -8.37775e-21)
(0.739801 0.124587 4.21554e-20)
(0.949556 0.186037 2.72389e-20)
(1.12034 0.240596 -2.10013e-20)
(1.2409 0.28077 -1.58112e-20)
(1.31226 0.303994 -4.84513e-21)
(1.34447 0.312114 -2.29677e-20)
(1.35077 0.309228 -1.39513e-21)
(1.3429 0.299579 9.57427e-22)
(1.3289 0.286361 -9.87747e-21)
(1.31317 0.271486 -6.34431e-21)
(1.29767 0.255916 -1.43556e-20)
(1.28303 0.240082 -1.52255e-20)
(1.26937 0.224192 -1.27505e-21)
(1.25662 0.208397 5.56647e-21)
(1.24462 0.19274 5.94473e-21)
(1.2332 0.177141 6.87666e-21)
(1.22187 0.162728 9.68489e-21)
(0.101361 0.00662211 2.78154e-20)
(0.321526 0.0348941 -4.51919e-21)
(0.557501 0.0881242 -7.92145e-21)
(0.790133 0.153275 2.02603e-20)
(0.996064 0.218263 4.04876e-20)
(1.15639 0.272587 -1.79284e-20)
(1.26362 0.309735 -1.45116e-20)
(1.32245 0.32869 -2.68623e-20)
(1.34509 0.332607 -2.38557e-20)
(1.3453 0.326277 4.55234e-21)
(1.33415 0.314063 -3.97681e-21)
(1.31867 0.298976 -1.61527e-21)
(1.30242 0.28268 -9.19469e-21)
(1.28683 0.265961 -1.4574e-20)
(1.27228 0.249159 -3.17349e-21)
(1.25881 0.232439 -1.16602e-21)
(1.2463 0.215931 -4.60407e-22)
(1.23459 0.199639 2.78519e-21)
(1.22349 0.183551 1.03977e-20)
(1.21242 0.168864 8.12481e-21)
(0.114203 0.01153 -1.70212e-20)
(0.353396 0.0499118 -2.72893e-20)
(0.600877 0.112514 -3.63828e-20)
(0.83628 0.184315 4.86719e-20)
(1.03663 0.251972 4.59821e-20)
(1.18573 0.305131 2.83077e-22)
(1.28001 0.338607 1.68801e-20)
(1.32746 0.353017 4.66891e-20)
(1.34195 0.352728 5.01645e-20)
(1.33727 0.343063 3.15323e-20)
(1.32371 0.328388 -7.622e-20)
(1.30727 0.311483 3.13487e-20)
(1.29079 0.29377 -1.33974e-20)
(1.27527 0.275883 3.14892e-20)
(1.26094 0.258085 -7.29162e-22)
(1.24775 0.240508 -5.01936e-21)
(1.23556 0.223263 2.81422e-21)
(1.22421 0.206315 2.41864e-20)
(1.21348 0.189728 -9.60667e-21)
(1.20274 0.174723 -1.03454e-21)
(0.127007 0.0174167 -5.61451e-20)
(0.384241 0.0671254 1.31254e-19)
(0.641477 0.139387 1.27488e-20)
(0.877676 0.217342 -1.66426e-19)
(1.07101 0.286764 -2.9685e-20)
(1.2085 0.337906 6.95879e-20)
(1.29048 0.367179 -1.58801e-19)
(1.32779 0.376868 -9.20811e-22)
(1.33544 0.372421 1.29057e-20)
(1.32697 0.359542 -3.54308e-21)
(1.3117 0.342499 4.00532e-20)
(1.29474 0.323817 -6.35879e-20)
(1.27827 0.304688 9.69712e-21)
(1.263 0.285614 -2.10723e-20)
(1.249 0.266798 -1.569e-20)
(1.23618 0.248347 1.51666e-20)
(1.22438 0.230346 -1.41198e-21)
(1.21347 0.212728 -3.76733e-20)
(1.20318 0.195635 1.54629e-21)
(1.1928 0.18027 -1.54591e-20)
(0.13957 0.0242697 4.21806e-20)
(0.413566 0.086405 -7.51722e-20)
(0.67871 0.168452 -6.0419e-21)
(0.913873 0.251953 -1.42301e-19)
(1.09907 0.322239 -8.44175e-20)
(1.22491 0.370599 6.87413e-20)
(1.29543 0.395258 -7.90277e-20)
(1.32387 0.400135 8.63456e-21)
(1.32592 0.39162 6.14094e-20)
(1.31459 0.375651 -1.67497e-20)
(1.29824 0.356326 6.63561e-21)
(1.28111 0.3359 1.98319e-20)
(1.26488 0.315354 -6.43852e-20)
(1.24999 0.295082 7.97993e-20)
(1.23643 0.275235 7.18293e-20)
(1.22407 0.255899 -1.70318e-20)
(1.21276 0.237131 -2.33156e-20)
(1.20236 0.218837 2.54709e-20)
(1.19257 0.20125 1.36379e-20)
(1.18256 0.185485 2.88706e-20)
(0.151686 0.0320516 -1.64049e-19)
(0.440905 0.107566 7.52793e-20)
(0.712064 0.199367 -5.41949e-20)
(0.944545 0.287721 1.48119e-19)