/*--------------------------------*- C++ -*----------------------------------*\
  =========                 |
  \\      /  F ield         | OpenFOAM: The Open Source CFD Toolbox
   \\    /   O peration     | Website:  https://openfoam.org
    \\  /    A nd           | Version:  7
     \\/     M anipulation  |
\*---------------------------------------------------------------------------*/
FoamFile
{
    version     2.0;
    format      ascii;
    class       surfaceScalarField;
    location    "2.2";
    object      phi;
}
// * * * * * * * * * * * * * * * * * * * * * * * * * * * * * * * * * * * * * //

dimensions      [0 3 -1 0 0 0 0];

internalField   nonuniform List<scalar> 
613
(
3.24697e-05
-6.39704e-07
3.30499e-05
-5.80208e-07
3.35665e-05
-5.16568e-07
3.40182e-05
-4.51749e-07
-3.88105e-07
3.44063e-05
9.7361e-05
9.91059e-05
-2.32508e-06
0.000100656
-2.06687e-06
0.000102009
-1.80469e-06
-1.54791e-06
0.000103169
0.00016501
-5.251e-06
0.000167598
-4.65493e-06
0.000169846
-4.05272e-06
-3.46553e-06
0.000171763
0.000230656
-9.38345e-06
0.000234286
-8.28466e-06
0.000237416
-7.18246e-06
-6.11445e-06
0.000240065
0.000295937
0.000300607
0.000304593
0.000307928
3.47292e-05
-3.22845e-07
3.49972e-05
-2.68032e-07
3.52152e-05
-2.17979e-07
3.53883e-05
-1.73051e-07
3.55216e-05
-1.33297e-07
3.56201e-05
-9.85242e-08
3.56885e-05
-6.83783e-08
3.57309e-05
-4.24196e-08
3.57511e-05
-2.01926e-08
3.57523e-05
-1.2509e-09
3.57374e-05
1.49051e-08
3.57088e-05
2.85743e-08
3.56687e-05
4.0114e-08
3.56189e-05
4.98353e-08
3.55609e-05
5.80019e-08
3.5496e-05
6.48377e-08
3.54255e-05
7.05335e-08
3.53503e-05
7.52526e-08
3.52711e-05
7.91342e-08
3.51888e-05
8.22976e-08
3.5104e-05
8.48444e-08
3.50171e-05
8.68621e-08
3.49287e-05
8.84255e-08
3.48391e-05
8.95996e-08
3.47487e-05
9.044e-08
3.46577e-05
9.09954e-08
3.45664e-05
9.13077e-08
3.44749e-05
9.14135e-08
3.43836e-05
9.13445e-08
3.42925e-05
9.11284e-08
3.42017e-05
9.07894e-08
3.41113e-05
9.03485e-08
3.40215e-05
8.98241e-08
3.39323e-05
8.92322e-08
3.38437e-05
8.85865e-08
3.37558e-05
8.78992e-08
3.36686e-05
8.71808e-08
3.35822e-05
8.64403e-08
3.34965e-05
8.56855e-08
3.34116e-05
8.49231e-08
3.33274e-05
8.41589e-08
3.3244e-05
8.33976e-08
3.31614e-05
8.26434e-08
3.30795e-05
8.18998e-08
3.29983e-05
8.11695e-08
3.29178e-05
8.0455e-08
3.28381e-05
7.9758e-08
3.2759e-05
7.908e-08
3.26806e-05
7.84222e-08
3.26028e-05
7.77852e-08
3.25256e-05
7.71697e-08
3.2449e-05
7.65758e-08
3.2373e-05
7.60036e-08
3.22976e-05
7.5453e-08
3.22227e-05
7.49237e-08
3.21482e-05
7.44153e-08
3.20743e-05
7.39271e-08
3.20009e-05
7.34586e-08
3.19279e-05
7.30091e-08
3.18553e-05
7.25777e-08
3.17831e-05
7.21637e-08
3.17113e-05
7.1766e-08
3.164e-05
7.1384e-08
3.15689e-05
7.10166e-08
7.0663e-08
0.000104132
-1.28545e-06
0.000104929
-1.06528e-06
0.000105575
-8.64653e-07
0.000106087
-6.84931e-07
0.00010648
-5.26211e-07
0.000106769
-3.87599e-07
0.000106969
-2.6758e-07
0.00010709
-1.64318e-07
0.000107146
-7.59463e-08
0.000107146
-8.37158e-10
0.000107097
6.3487e-08
0.000107008
1.17725e-07
0.000106885
1.63549e-07
0.000106732
2.02174e-07
0.000106556
2.34638e-07
0.000106359
2.61829e-07
0.000106145
2.84506e-07
0.000105917
3.03316e-07
0.000105677
3.18813e-07
0.000105428
3.31467e-07
0.000105171
3.41681e-07
0.000104908
3.498e-07
0.00010464
3.56122e-07
0.000104369
3.60902e-07
0.000104095
3.6436e-07
0.000103819
3.6669e-07
0.000103543
3.68055e-07
0.000103265
3.68601e-07
0.000102988
3.68452e-07
0.000102712
3.67718e-07
0.000102436
3.66494e-07
0.000102161
3.64863e-07
0.000101888
3.62897e-07
0.000101617
3.60658e-07
0.000101347
3.58201e-07
0.00010108
3.55574e-07
0.000100814
3.52818e-07
0.000100551
3.49968e-07
0.000100289
3.47054e-07
0.00010003
3.44103e-07
9.9773e-05
3.41138e-07
9.95182e-05
3.38178e-07
9.92656e-05
3.35239e-07
9.90152e-05
3.32333e-07
9.87669e-05
3.29474e-07
9.85207e-05
3.26669e-07
9.82765e-05
3.23927e-07
9.80343e-05
3.21253e-07
9.77941e-05
3.18652e-07
9.75558e-05
3.16126e-07
9.73193e-05
3.13679e-07
9.70845e-05
3.1131e-07
9.68515e-05
3.09022e-07
9.66202e-05
3.06813e-07
9.63904e-05
3.04682e-07
9.61622e-05
3.02628e-07
9.59355e-05
3.00649e-07
9.57102e-05
2.98743e-07
9.54863e-05
2.96907e-07
9.52637e-05
2.95139e-07
9.50424e-05
2.93434e-07
9.48224e-05
2.9179e-07
9.46036e-05
2.90204e-07
9.43859e-05
2.88673e-07
2.87192e-07
0.000173347
-2.8687e-06
0.000174651
-2.36922e-06
0.000175702
-1.91579e-06
0.000176528
-1.51114e-06
0.000177157
-1.15502e-06
0.000177614
-8.44954e-07
0.000177924
-5.77123e-07
0.000178107
-3.47121e-07
0.000178181
-1.50595e-07
0.000178164
1.65137e-08
0.000178068
1.59282e-07
0.000177906
2.7976e-07
0.000177688
3.81558e-07
0.000177423
4.67429e-07
0.000177118
5.39681e-07
0.000176779
6.00283e-07
0.000176413
6.50916e-07
0.000176023
6.93015e-07
0.000175614
7.278e-07
0.000175189
7.5631e-07
0.000174752
7.79432e-07
0.000174303
7.97927e-07
0.000173847
8.12449e-07
0.000173384
8.2356e-07
0.000172917
8.31746e-07
0.000172446
8.37428e-07
0.000171973
8.40968e-07
0.000171499
8.42684e-07
0.000171025
8.42851e-07
0.000170551
8.41707e-07
0.000170078
8.3946e-07
0.000169607
8.36292e-07
0.000169137
8.3236e-07
0.00016867
8.27802e-07
0.000168205
8.22736e-07
0.000167744
8.17266e-07
0.000167285
8.11482e-07
0.00016683
8.05462e-07
0.000166377
7.99273e-07
0.000165928
7.92972e-07
0.000165483
7.86608e-07
0.000165041
7.80225e-07
0.000164602
7.73857e-07
0.000164167
7.67535e-07
0.000163735
7.61284e-07
0.000163307
7.55125e-07
0.000162882
7.49075e-07
0.00016246
7.43148e-07
0.000162041
7.37353e-07
0.000161626
7.317e-07
0.000161213
7.26193e-07
0.000160803
7.20837e-07
0.000160397
7.15633e-07
0.000159993
7.10582e-07
0.000159592
7.05682e-07
0.000159194
7.00931e-07
0.000158798
6.96325e-07
0.000158405
6.91862e-07
0.000158014
6.87536e-07
0.000157626
6.83341e-07
0.00015724
6.79273e-07
0.000156857
6.75324e-07
0.000156476
6.71489e-07
0.000156096
6.6776e-07
6.64133e-07
0.000242233
-5.03751e-06
0.000244003
-4.13922e-06
0.000245416
-3.32825e-06
0.000246513
-2.60844e-06
0.000247336
-1.9781e-06
0.000247923
-1.43158e-06
0.000248307
-9.61063e-07
0.000248518
-5.58056e-07
0.000248581
-2.14327e-07
0.00024852
7.81921e-08
0.000248352
3.27273e-07
0.000248094
5.37766e-07
0.00024776
7.15757e-07
0.000247361
8.66103e-07
0.000246908
9.9284e-07
0.000246409
1.09939e-06
0.000245871
1.18869e-06
0.000245301
1.2632e-06
0.000244703
1.32504e-06
0.000244084
1.376e-06
0.000243446
1.41761e-06
0.000242792
1.45118e-06
0.000242127
1.47782e-06
0.000241452
1.49852e-06
0.00024077
1.5141e-06
0.000240082
1.52529e-06
0.00023939
1.53272e-06
0.000238696
1.53692e-06
0.000238
1.53836e-06
0.000237304
1.53747e-06
0.000236609
1.53459e-06
0.000235916
1.53004e-06
0.000235224
1.52409e-06
0.000234535
1.51697e-06
0.000233849
1.50889e-06
0.000233166
1.50003e-06
0.000232487
1.49054e-06
0.000231812
1.48057e-06
0.000231141
1.47021e-06
0.000230474
1.45959e-06
0.000229812
1.44877e-06
0.000229154
1.43785e-06
0.000228501
1.42687e-06
0.000227853
1.4159e-06
0.000227209
1.40498e-06
0.00022657
1.39414e-06
0.000225936
1.38343e-06
0.000225306
1.37287e-06
0.000224681
1.36247e-06
0.00022406
1.35226e-06
0.000223444
1.34224e-06
0.000222833
1.33243e-06
0.000222226
1.32283e-06
0.000221623
1.31345e-06
0.000221024
1.30428e-06
0.00022043
1.29533e-06
0.000219839
1.28659e-06
0.000219253
1.27806e-06
0.000218671
1.26973e-06
0.000218093
1.26159e-06
0.000217518
1.25364e-06
0.000216948
1.24586e-06
0.000216381
0.000215818
0.000310626
0.000312799
0.000314505
0.000315807
0.000316761
0.000317417
0.00031782
0.000318007
0.000318013
0.000317862
0.00031758
0.000317186
0.000316697
0.000316127
0.000315489
0.000314793
0.000314047
0.00031326
0.000312437
0.000311585
0.000310709
0.000309812
0.000308898
0.000307972
0.000307034
0.000306088
0.000305137
0.000304181
0.000303222
0.000302262
0.000301302
0.000300344
0.000299387
0.000298433
0.000297482
0.000296536
0.000295594
0.000294657
0.000293725
0.000292798
0.000291878
0.000290964
0.000290056
0.000289154
0.000288259
0.00028737
0.000286488
0.000285612
0.000284743
0.000283881
0.000283025
0.000282176
0.000281334
0.000280498
0.000279669
0.000278846
0.000278029
0.000277219
0.000276416
0.000275618
0.000274827
)
;

boundaryField
{
    inlet
    {
        type            calculated;
        value           nonuniform 0();
    }
    outlet
    {
        type            calculated;
        value           nonuniform 0();
    }
    wall
    {
        type            calculated;
        value           nonuniform 0();
    }
    wedge1
    {
        type            wedge;
        value           nonuniform List<scalar> 
344
(
1.73161e-16
1.45228e-16
1.58801e-16
1.33272e-16
1.34987e-15
-2.01895e-16
-3.86951e-16
1.42955e-16
1.20007e-16
1.20848e-15
-1.81062e-16
-3.44641e-16
1.26366e-16
1.06105e-16
1.06242e-15
-1.59579e-16
-3.01508e-16
1.09841e-16
9.22602e-17
9.17584e-16
-1.38358e-16
-2.59286e-16
9.24475e-17
7.76849e-17
7.67387e-16
-1.16293e-16
-2.16007e-16
7.78621e-17
6.53713e-17
6.40791e-16
-9.77711e-17
-1.79814e-16
6.42091e-17
5.40099e-17
5.24933e-16
-8.08238e-17
-1.46996e-16
5.19293e-17
4.38115e-17
4.20548e-16
-6.559e-17
-1.17744e-16
4.09413e-17
3.45773e-17
3.2807e-16
-5.20376e-17
-9.19447e-17
3.1428e-17
2.64448e-17
2.46951e-16
-4.01867e-17
-6.95189e-17
2.28846e-17
1.93573e-17
1.76672e-16
-2.98428e-17
-5.01366e-17
1.54959e-17
1.32921e-17
1.15964e-16
-2.0936e-17
-3.35019e-17
9.22945e-18
7.96398e-18
6.40227e-17
-1.32233e-17
-1.91882e-17
3.94021e-18
3.3351e-18
1.95691e-17
-6.61697e-18
-6.9611e-18
-7.23156e-19
-5.71849e-19
-1.69458e-17
-9.39961e-19
3.38961e-18
-4.76665e-18
-3.79152e-18
-4.72723e-17
3.83882e-18
1.20829e-17
-8.09771e-18
-6.62155e-18
-7.32122e-17
7.95336e-18
1.95845e-17
-1.08004e-17
-9.11266e-18
-9.54634e-17
1.14551e-17
2.60205e-17
-1.31688e-17
-1.11527e-17
-1.14365e-16
1.44766e-17
3.15067e-17
-1.54018e-17
-1.27793e-17
-1.30492e-16
1.70159e-17
3.61605e-17
-1.70883e-17
-1.41977e-17
-1.44124e-16
1.9201e-17
4.0158e-17
-1.83027e-17
-1.55084e-17
-1.55664e-16
2.10384e-17
4.35906e-17
-1.94174e-17
-1.64702e-17
-1.65355e-16
2.25958e-17
4.64501e-17
-2.06477e-17
-1.73282e-17
-1.73395e-16
2.39094e-17
4.88796e-17
-2.13335e-17
-1.79406e-17
-1.80147e-16
2.49787e-17
5.08879e-17
-2.19519e-17
-1.84312e-17
-1.8565e-16
2.5893e-17
5.2572e-17
-2.23286e-17
-1.89792e-17
-1.90098e-16
2.66301e-17
5.40177e-17
-2.26681e-17
-1.93166e-17
-1.93675e-16
2.72487e-17
5.51662e-17
-2.31676e-17
-1.9517e-17
-1.96423e-16
2.77186e-17
5.60552e-17
-2.33534e-17
-1.96461e-17
-1.98555e-16
2.81058e-17
5.67671e-17
-2.3388e-17
-1.98678e-17
-2.00058e-16
2.83803e-17
5.73601e-17
-2.33852e-17
-1.99513e-17
-2.01078e-16
2.85976e-17
5.77673e-17
-2.35893e-17
-1.99207e-17
-2.01533e-16
2.87305e-17
5.80209e-17
-2.35304e-17
-1.98418e-17
-2.01625e-16
2.88161e-17
5.81669e-17
-2.33841e-17
-1.98694e-17
-2.01335e-16
2.8832e-17
5.82524e-17
-2.32263e-17
-1.97909e-17
-2.00796e-16
2.88238e-17
5.82259e-17
-2.32384e-17
-1.96428e-17
-1.99978e-16
2.87614e-17
5.81094e-17
-2.30729e-17
-1.94974e-17
-1.9901e-16
2.86932e-17
5.79476e-17
-2.2845e-17
-1.94328e-17
-1.97857e-16
2.85767e-17
5.77688e-17
-2.26377e-17
-1.9268e-17
-1.96597e-16
2.84508e-17
5.75156e-17
-2.25711e-17
-1.90826e-17
-1.95211e-16
2.82985e-17
5.72187e-17
-2.23623e-17
-1.89002e-17
-1.93784e-16
2.81427e-17
5.69022e-17
-2.21062e-17
-1.87883e-17
-1.92279e-16
2.79646e-17
5.65865e-17
-2.18837e-17
-1.86155e-17
-1.90744e-16
2.77908e-17
5.6234e-17
-2.17711e-17
-1.84262e-17
-1.89175e-16
2.75982e-17
5.5856e-17
-2.15555e-17
-1.82327e-17
-1.87608e-16
2.74088e-17
5.54734e-17
-2.13211e-17
-1.81008e-17
-1.86021e-16
2.72124e-17
5.51039e-17
-2.10931e-17
-1.79212e-17
-1.84456e-16
2.70164e-17
5.47087e-17
-2.09611e-17
-1.7746e-17
-1.8288e-16
2.68222e-17
5.43122e-17
-2.07447e-17
-1.75661e-17
-1.81355e-16
2.66232e-17
5.39107e-17
-2.05547e-17
-1.73943e-17
-1.79849e-16
2.64297e-17
5.35133e-17
-2.03617e-17
-1.72638e-17
-1.78362e-16
2.62332e-17
5.31281e-17
-2.01686e-17
-1.71077e-17
-1.76916e-16
2.60434e-17
5.2735e-17
-2.00289e-17
-1.69494e-17
-1.75497e-16
2.58538e-17
5.23439e-17
-1.98562e-17
-1.67967e-17
-1.74122e-16
2.56714e-17
5.19609e-17
-1.9688e-17
-1.66724e-17
-1.72781e-16
2.549e-17
5.15879e-17
-1.95224e-17
-1.65349e-17
-1.71484e-16
2.53135e-17
5.12153e-17
-1.93931e-17
-1.64007e-17
-1.70221e-16
2.514e-17
5.08494e-17
-1.9244e-17
-1.62714e-17
-1.69001e-16
2.49719e-17
5.04899e-17
-1.91035e-17
-1.61547e-17
-1.67817e-16
2.48066e-17
5.01388e-17
-1.8964e-17
-1.60343e-17
-1.66674e-16
2.46462e-17
4.97922e-17
-1.88395e-17
-1.59231e-17
-1.65567e-16
2.44901e-17
4.9453e-17
-1.87113e-17
-1.58138e-17
-1.64496e-16
2.43362e-17
4.91198e-17
-1.86014e-17
-1.57068e-17
-1.63461e-16
2.4188e-17
4.8791e-17
-1.8487e-17
-1.56036e-17
-1.62458e-16
2.40419e-17
4.84695e-17
-1.83674e-17
-1.55116e-17
-1.6149e-16
2.39018e-17
4.81568e-17
-1.82624e-17
-1.54206e-17
-1.60549e-16
2.3761e-17
-1.81685e-17
-1.53247e-17
-1.5964e-16
2.36277e-17
-1.80639e-17
-1.52415e-17
-1.58753e-16
2.34936e-17
)
;
    }
    wedge2
    {
        type            wedge;
        value           nonuniform List<scalar> 
344
(
1.74077e-16
1.47728e-16
1.59759e-16
1.35759e-16
1.35468e-15
-1.96128e-16
-3.81361e-16
1.439e-16
1.22506e-16
1.2132e-15
-1.75471e-16
-3.39211e-16
1.27409e-16
1.08713e-16
1.06697e-15
-1.54178e-16
-2.96252e-16
1.10881e-16
9.48798e-17
9.22045e-16
-1.33119e-16
-2.54168e-16
9.35637e-17
8.03271e-17
7.71582e-16
-1.11338e-16
-2.11177e-16
7.87944e-17
6.8006e-17
6.44934e-16
-9.29727e-17
-1.75152e-16
6.53859e-17
5.66632e-17
5.28839e-16
-7.62156e-17
-1.42495e-16
5.31228e-17
4.62535e-17
4.24377e-16
-6.11259e-17
-1.13339e-16
4.2183e-17
3.70611e-17
3.31652e-16
-4.77922e-17
-8.77717e-17
3.23482e-17
2.89203e-17
2.50503e-16
-3.6073e-17
-6.54994e-17
2.39789e-17
2.177e-17
1.79926e-16
-2.59244e-17
-4.62675e-17
1.671e-17
1.54677e-17
1.19206e-16
-1.712e-17
-2.97114e-17
1.03313e-17
1.01126e-17
6.70596e-17
-9.59705e-18
-1.55995e-17
4.77083e-18
5.55387e-18
2.25914e-17
-3.13205e-18
-3.53499e-18
1.5382e-19
1.58879e-18
-1.43541e-17
2.34781e-18
6.61155e-18
-3.68044e-18
-1.89281e-18
-4.46585e-17
7.03719e-18
1.52688e-17
-7.06293e-18
-4.77919e-18
-7.07465e-17
1.10088e-17
2.26262e-17
-1.00571e-17
-7.15227e-18
-9.30131e-17
1.44102e-17
2.89025e-17
-1.25235e-17
-9.24567e-18
-1.12095e-16
1.72708e-17
3.4278e-17
-1.4339e-17
-1.11187e-17
-1.28276e-16
1.97318e-17
3.88876e-17
-1.60652e-17
-1.2656e-17
-1.42031e-16
2.17844e-17
4.2773e-17
-1.77029e-17
-1.38205e-17
-1.53616e-16
2.35262e-17
4.60281e-17
-1.8974e-17
-1.49292e-17
-1.6336e-16
2.49779e-17
4.88229e-17
-1.96815e-17
-1.57889e-17
-1.71558e-16
2.61807e-17
5.11511e-17
-2.05919e-17
-1.65898e-17
-1.78275e-16
2.72011e-17
5.31222e-17
-2.1261e-17
-1.72528e-17
-1.83842e-16
2.80065e-17
5.47416e-17
-2.19063e-17
-1.76233e-17
-1.88384e-16
2.86687e-17
5.601e-17
-2.23725e-17
-1.80121e-17
-1.91996e-16
2.91718e-17
5.70642e-17
-2.24579e-17
-1.83688e-17
-1.94877e-16
2.95831e-17
5.7932e-17
-2.27006e-17
-1.86542e-17
-1.97024e-16
2.98691e-17
5.85901e-17
-2.29502e-17
-1.87154e-17
-1.98632e-16
3.00882e-17
5.9029e-17
-2.31115e-17
-1.88102e-17
-1.99659e-16
3.0207e-17
5.93538e-17
-2.29641e-17
-1.89254e-17
-2.00248e-16
3.02727e-17
5.95635e-17
-2.29881e-17
-1.90079e-17
-2.00363e-16
3.02684e-17
5.96524e-17
-2.30244e-17
-1.89213e-17
-2.0017e-16
3.02352e-17
5.96092e-17
-2.30044e-17
-1.88829e-17
-1.99651e-16
3.01424e-17
5.95137e-17
-2.27726e-17
-1.88681e-17
-1.98938e-16
3.00342e-17
5.93702e-17
-2.26709e-17
-1.8811e-17
-1.97986e-16
2.98735e-17
5.91551e-17
-2.25971e-17
-1.86449e-17
-1.96903e-16
2.9713e-17
5.88604e-17
-2.24716e-17
-1.85528e-17
-1.95674e-16
2.95219e-17
5.85587e-17
-2.21921e-17
-1.84617e-17
-1.94371e-16
2.93255e-17
5.82337e-17
-2.20352e-17
-1.83519e-17
-1.92954e-16
2.91071e-17
5.78737e-17
-2.19145e-17
-1.81624e-17
-1.91502e-16
2.88913e-17
5.74691e-17
-2.17504e-17
-1.80254e-17
-1.89999e-16
2.86559e-17
5.70672e-17
-2.14776e-17
-1.79005e-17
-1.88478e-16
2.84288e-17
5.66633e-17
-2.13045e-17
-1.77772e-17
-1.86928e-16
2.81914e-17
5.62448e-17
-2.11517e-17
-1.75935e-17
-1.85392e-16
2.79567e-17
5.5799e-17
-2.0995e-17
-1.74591e-17
-1.83847e-16
2.77202e-17
5.53702e-17
-2.075e-17
-1.73234e-17
-1.8234e-16
2.74826e-17
5.49383e-17
-2.05951e-17
-1.71974e-17
-1.80821e-16
2.72525e-17
5.45111e-17
-2.04218e-17
-1.70687e-17
-1.79332e-16
2.7021e-17
5.40815e-17
-2.02605e-17
-1.69059e-17
-1.77881e-16
2.67979e-17
5.36456e-17
-2.01087e-17
-1.67755e-17
-1.76455e-16
2.65746e-17
5.32244e-17
-1.99142e-17
-1.66553e-17
-1.7507e-16
2.63587e-17
5.28106e-17
-1.97631e-17
-1.65375e-17
-1.73714e-16
2.61435e-17
5.23989e-17
-1.96183e-17
-1.63999e-17
-1.724e-16
2.59358e-17
5.19889e-17
-1.94818e-17
-1.62838e-17
-1.71119e-16
2.57317e-17
5.15912e-17
-1.93202e-17
-1.61732e-17
-1.69882e-16
2.55342e-17
5.12003e-17
-1.91892e-17
-1.60662e-17
-1.68679e-16
2.53401e-17
5.08159e-17
-1.90603e-17
-1.5955e-17
-1.67518e-16
2.51525e-17
5.04372e-17
-1.8941e-17
-1.58559e-17
-1.66392e-16
2.49689e-17
5.00677e-17
-1.8817e-17
-1.57558e-17
-1.65304e-16
2.47903e-17
4.97049e-17
-1.87065e-17
-1.56615e-17
-1.6425e-16
2.4618e-17
4.93497e-17
-1.85873e-17
-1.55726e-17
-1.63231e-16
2.44485e-17
4.90037e-17
-1.84816e-17
-1.5487e-17
-1.62246e-16
2.4285e-17
4.86632e-17
-1.83899e-17
-1.53974e-17
-1.61289e-16
2.41237e-17
4.83264e-17
-1.82919e-17
-1.53133e-17
-1.60365e-16
2.39702e-17
-1.81907e-17
-1.52404e-17
-1.59467e-16
2.38166e-17
-1.81074e-17
-1.51606e-17
-1.586e-16
2.36703e-17
)
;
    }
    axis
    {
        type            empty;
        value           nonuniform 0();
    }
    procBoundary3to2
    {
        type            processor;
        value           nonuniform List<scalar> 5(-3.183e-05 -9.54334e-05 -2.56728e-06 -0.000162084 -0.000226524);
    }
    procBoundary3to4
    {
        type            processor;
        value           nonuniform List<scalar> 4(3.14983e-05 9.41694e-05 0.000155719 0.000215259);
    }
    procBoundary3to8
    {
        type            processor;
        value           uniform -0.000290567;
    }
    procBoundary3to9
    {
        type            processor;
        value           nonuniform List<scalar> 
70
(
-1.47532e-05
-1.2955e-05
-1.11679e-05
-9.45002e-06
1.23826e-06
1.23082e-06
1.22353e-06
-7.73541e-06
-6.31146e-06
-5.03513e-06
-3.91033e-06
-2.9317e-06
-2.08767e-06
-1.36378e-06
-7.45659e-07
-2.1955e-07
2.28853e-07
6.09472e-07
9.31655e-07
1.20459e-06
1.43563e-06
1.63094e-06
1.7957e-06
1.93434e-06
2.05057e-06
2.14757e-06
2.22801e-06
2.29419e-06
2.34807e-06
2.39134e-06
2.42544e-06
2.45163e-06
2.471e-06
2.48447e-06
2.49289e-06
2.49694e-06
2.49726e-06
2.49438e-06
2.48877e-06
2.48086e-06
2.47099e-06
2.45948e-06
2.44661e-06
2.43261e-06
2.4177e-06
2.40205e-06
2.38583e-06
2.36916e-06
2.35218e-06
2.33498e-06
2.31765e-06
2.30027e-06
2.2829e-06
2.2656e-06
2.2484e-06
2.23136e-06
2.2145e-06
2.19785e-06
2.18142e-06
2.16523e-06
2.1493e-06
2.13362e-06
2.1182e-06
2.10305e-06
2.08815e-06
2.07351e-06
2.05912e-06
2.04497e-06
0.000274042
2.03106e-06
)
;
    }
}


// ************************************************************************* //
