/*--------------------------------*- C++ -*----------------------------------*\
  =========                 |
  \\      /  F ield         | OpenFOAM: The Open Source CFD Toolbox
   \\    /   O peration     | Website:  https://openfoam.org
    \\  /    A nd           | Version:  7
     \\/     M anipulation  |
\*---------------------------------------------------------------------------*/
FoamFile
{
    version     2.0;
    format      ascii;
    class       volVectorField;
    location    "3";
    object      U;
}
// * * * * * * * * * * * * * * * * * * * * * * * * * * * * * * * * * * * * * //

dimensions      [0 1 -1 0 0 0 0];

internalField   nonuniform List<vector> 
344
(
(1.05465 -0.00357323 1.38998e-14)
(1.05252 -0.01121 1.94601e-14)
(1.0562 -0.00197789 1.41346e-14)
(1.05419 -0.0123154 2.13228e-14)
(1.0574 -0.000435968 1.45815e-14)
(1.05614 -0.0132543 2.03188e-14)
(1.0582 0.00073898 1.48981e-14)
(1.05837 -0.0136704 2.16747e-14)
(1.0587 0.00124325 1.518e-14)
(1.0607 -0.0133051 2.32364e-14)
(1.05913 0.000923374 1.61509e-14)
(1.06283 -0.0121604 2.28208e-14)
(1.05983 -3.17019e-05 1.74537e-14)
(1.06449 -0.0105726 2.30719e-14)
(1.06099 -0.00115663 1.85605e-14)
(1.06562 -0.00910886 2.34828e-14)
(1.0625 -0.00194619 2.01105e-14)
(1.06647 -0.00815367 2.38268e-14)
(1.06399 -0.00218473 2.22348e-14)
(1.06744 -0.00764813 2.38383e-14)
(1.06514 -0.00217801 2.41176e-14)
(1.06866 -0.00715514 2.02493e-14)
(1.06601 -0.00240986 2.6809e-14)
(1.06987 -0.00624711 1.95274e-14)
(1.06707 -0.00303689 2.97947e-14)
(1.07053 -0.00505546 1.78973e-14)
(1.0687 -0.00370154 3.33019e-14)
(1.0705 -0.00417694 1.63988e-14)
(1.07075 -0.00376181 3.61697e-14)
(1.07027 -0.0040669 1.5888e-14)
(1.07251 -0.00298283 3.85131e-14)
(1 -0.00154588 -7.66164e-16)
(1.00067 -0.00455535 7.89153e-16)
(1.00195 -0.00734856 -8.54031e-16)
(1.0038 -0.0098047 1.22661e-15)
(1.00611 -0.0118324 6.79824e-16)
(1.00875 -0.0133975 3.06384e-15)
(1.01156 -0.0145241 1.27666e-15)
(1.01442 -0.015273 4.79631e-15)
(1.01725 -0.0157086 1.70401e-15)
(1.01997 -0.0158838 5.54985e-15)
(1.02259 -0.0158322 3.97991e-15)
(1.02506 -0.0155862 5.89094e-15)
(1.02738 -0.0151732 3.86865e-15)
(1.0295 -0.0146435 7.61463e-15)
(1.03146 -0.0140331 4.76846e-15)
(1.03319 -0.0134087 6.62027e-15)
(1.03478 -0.0127792 6.0089e-15)
(1.03616 -0.012216 8.42053e-15)
(1.0375 -0.0116629 5.47781e-15)
(1.03863 -0.0112258 9.93051e-15)
(1.03984 -0.0107486 6.33444e-15)
(1.0408 -0.0104507 9.97037e-15)
(1.04199 -0.00999701 7.30546e-15)
(1.04279 -0.0098556 1.13184e-14)
(1.04405 -0.00934274 8.54689e-15)
(1.04465 -0.00941609 1.27872e-14)
(1.04605 -0.00872365 1.02543e-14)
(1.04639 -0.00913301 1.44468e-14)
(1.04802 -0.00807416 1.15687e-14)
(1.04802 -0.00902746 1.4574e-14)
(1.04997 -0.00732581 1.30112e-14)
(1.04956 -0.00914216 1.58799e-14)
(1.05189 -0.00641173 1.46036e-14)
(1.05104 -0.00951746 1.70027e-14)
(1.05373 -0.00527924 1.54632e-14)
(1.05252 -0.0101732 1.66392e-14)
(1.0554 -0.00393272 1.67609e-14)
(1.05411 -0.0110634 1.80266e-14)
(1.05682 -0.00245441 1.72724e-14)
(1.05591 -0.0120334 1.95983e-14)
(1.05789 -0.00104636 1.83208e-14)
(1.05797 -0.0128292 1.90706e-14)
(1.0586 3.30684e-06 1.85094e-14)
(1.06024 -0.0131297 2.02357e-14)
(1.05909 0.000426874 1.88869e-14)
(1.06253 -0.0127099 2.12186e-14)
(1.0596 0.000100081 1.92354e-14)
(1.06454 -0.0115898 2.07135e-14)
(1.06043 -0.000793541 2.00598e-14)
(1.06604 -0.0100813 2.16912e-14)
(1.06174 -0.00182843 2.07227e-14)
(1.06704 -0.00869063 2.22835e-14)
(1.06336 -0.00256157 2.20148e-14)
(1.06779 -0.00775377 2.27753e-14)
(1.06493 -0.00280549 2.35508e-14)
(1.06868 -0.00721417 2.29071e-14)
(1.06616 -0.00282201 2.52726e-14)
(1.06981 -0.00670825 2.09756e-14)
(1.06714 -0.00301492 2.7596e-14)
(1.07091 -0.0058868 2.05545e-14)
(1.06828 -0.00349253 3.02945e-14)
(1.07154 -0.00487378 1.93565e-14)
(1.06989 -0.00395219 3.31691e-14)
(1.07159 -0.00417103 1.82249e-14)
(1.0718 -0.00387661 3.59433e-14)
(1.07154 -0.00412037 1.74424e-14)
(1.07338 -0.00310161 3.83777e-14)
(1 -0.0016503 -1.78181e-15)
(1.00073 -0.00485624 1.63682e-15)
(1.00211 -0.00781665 -1.21747e-16)
(1.0041 -0.0103967 1.83258e-15)
(1.00658 -0.0124984 -5.89803e-17)
(1.00938 -0.0140933 2.18817e-15)
(1.01235 -0.0152211 5.54831e-16)
(1.01533 -0.0159566 2.13016e-15)
(1.01826 -0.0163712 1.26677e-15)
(1.02108 -0.0165176 2.35333e-15)
(1.02377 -0.0164266 2.28044e-15)
(1.02631 -0.0161294 2.92746e-15)
(1.02868 -0.0156565 2.6923e-15)
(1.03084 -0.0150643 3.50273e-15)
(1.03281 -0.0143949 3.25084e-15)
(1.03455 -0.0137193 3.80573e-15)
(1.03613 -0.0130483 3.31599e-15)
(1.0375 -0.0124525 4.28313e-15)
(1.03882 -0.0118757 3.39076e-15)
(1.03994 -0.0114199 4.71741e-15)
(1.04113 -0.0109308 3.78623e-15)
(1.04208 -0.0106211 4.69183e-15)
(1.04325 -0.0101642 4.31625e-15)
(1.04406 -0.010013 4.9148e-15)
(1.04528 -0.00950511 5.42326e-15)
(1.04591 -0.0095635 4.89912e-15)
(1.04726 -0.00888724 6.33585e-15)
(1.04766 -0.00926799 5.41635e-15)
(1.0492 -0.0082468 7.88267e-15)
(1.04932 -0.00914287 7.26809e-15)
(1.05111 -0.00751734 9.1793e-15)
(1.0509 -0.00922356 7.61465e-15)
(1.05296 -0.0066387 1.08952e-14)
(1.05245 -0.00954605 7.73503e-15)
(1.05472 -0.00556556 1.193e-14)
(1.05402 -0.0101218 9.50345e-15)
(1.0563 -0.00430525 1.30538e-14)
(1.05571 -0.0109038 1.00571e-14)
(1.05761 -0.00294072 1.38318e-14)
(1.0576 -0.0117444 1.08367e-14)
(1.0586 -0.00165783 1.45133e-14)
(1.05971 -0.0124081 1.24565e-14)
(1.05928 -0.000719042 1.44515e-14)
(1.06198 -0.0126091 1.30782e-14)
(1.05979 -0.000359606 1.42506e-14)
(1.0642 -0.0121516 1.35209e-14)
(1.06039 -0.000678584 1.43829e-14)
(1.0661 -0.0110672 1.40812e-14)
(1.06134 -0.00150407 1.46953e-14)
(1.06748 -0.00964084 1.44587e-14)
(1.06275 -0.00245012 1.51328e-14)
(1.06839 -0.00832023 1.48905e-14)
(1.06443 -0.00312974 1.58337e-14)
(1.0691 -0.00740021 1.50894e-14)
(1.06605 -0.0033781 1.66317e-14)
(1.06995 -0.00683123 1.52513e-14)
(1.06734 -0.00341228 1.76531e-14)
(1.07101 -0.00631704 1.49136e-14)
(1.0684 -0.00356525 1.91317e-14)
(1.07203 -0.00557629 1.49769e-14)
(1.0696 -0.00390793 2.02169e-14)
(1.07263 -0.00472018 1.49877e-14)
(1.07119 -0.00418861 2.15727e-14)
(1.07277 -0.00416667 1.49889e-14)
(1.07296 -0.00399776 2.25316e-14)
(1.07287 -0.00416486 1.58767e-14)
(1.0744 -0.00322498 2.31874e-14)
(1 -0.00176621 -1.13923e-15)
(1.00079 -0.00518852 1.0616e-15)
(1.00229 -0.00833025 -1.21193e-15)
(1.00444 -0.0110392 1.55805e-15)
(1.00711 -0.0132113 2.74816e-16)
(1.01009 -0.0148291 3.58208e-15)
(1.01321 -0.0159522 3.68057e-16)
(1.01633 -0.0166713 5.59957e-15)
(1.01936 -0.0170634 1.18261e-15)
(1.02227 -0.0171788 5.9205e-15)
(1.02504 -0.0170442 3.40168e-15)
(1.02765 -0.0166895 6.78999e-15)
(1.03008 -0.0161499 3.33983e-15)
(1.03228 -0.0154891 8.94563e-15)
(1.03427 -0.0147566 5.03425e-15)
(1.03601 -0.014027 7.98202e-15)
(1.03758 -0.0133133 5.86338e-15)
(1.03893 -0.012684 1.02589e-14)
(1.04022 -0.0120837 5.23141e-15)
(1.04133 -0.011609 1.19424e-14)
(1.0425 -0.0111093 5.49346e-15)
(1.04345 -0.0107874 1.19325e-14)
(1.04459 -0.0103291 6.79242e-15)
(1.04541 -0.0101669 1.39098e-14)
(1.0466 -0.00966708 7.86846e-15)
(1.04726 -0.00970758 1.55669e-14)
(1.04855 -0.00905222 9.41117e-15)
(1.04902 -0.00939882 1.75554e-14)
(1.05046 -0.00842288 1.07019e-14)
(1.0507 -0.00925288 1.62021e-14)
(1.05234 -0.00771464 1.2189e-14)
(1.05232 -0.00929758 1.76093e-14)
(1.05414 -0.00687347 1.36806e-14)
(1.05392 -0.00956567 1.87558e-14)
(1.05583 -0.0058611 1.50131e-14)
(1.05556 -0.0100612 1.65391e-14)
(1.05734 -0.00468568 1.63602e-14)
(1.05732 -0.0107375 1.77748e-14)
(1.05858 -0.00342988 1.74144e-14)
(1.05926 -0.0114565 1.91909e-14)
(1.05953 -0.00226201 1.82946e-14)
(1.0614 -0.0120004 1.74579e-14)
(1.0602 -0.00141959 1.89115e-14)
(1.06364 -0.0121176 1.86957e-14)
(1.06077 -0.00110947 1.91366e-14)
(1.06577 -0.0116362 2.01626e-14)
(1.06148 -0.0014096 1.98921e-14)
(1.06756 -0.0105946 2.00578e-14)
(1.06254 -0.00216369 2.04473e-14)
(1.06885 -0.00925009 2.15404e-14)
(1.06402 -0.00302475 2.13109e-14)
(1.06971 -0.00799473 2.27538e-14)
(1.06573 -0.00365423 2.25802e-14)
(1.07041 -0.00709024 2.34454e-14)
(1.06735 -0.00390524 2.41841e-14)
(1.07125 -0.00649768 2.36511e-14)
(1.06867 -0.00395072 2.62225e-14)
(1.07227 -0.00597997 2.03508e-14)
(1.06979 -0.00406288 2.85952e-14)
(1.07324 -0.00531352 1.97011e-14)
(1.07104 -0.00428553 3.13764e-14)
(1.07384 -0.00459296 1.90287e-14)
(1.07259 -0.00441245 3.39241e-14)
(1.07406 -0.00416344 1.76333e-14)
(1.07425 -0.004125 3.66115e-14)
(1.07429 -0.00420121 1.73805e-14)
(1.07556 -0.00335265 3.8825e-14)
(1 -0.00189562 -7.97095e-16)
(1.00086 -0.00555726 9.26455e-16)
(1.0025 -0.00889584 -9.93851e-16)
(1.00483 -0.0117379 1.4487e-15)
(1.0077 -0.0139746 3.20299e-16)
(1.01088 -0.0156062 3.27551e-15)
(1.01416 -0.0167186 5.38557e-16)
(1.01741 -0.0174191 5.48772e-15)
(1.02055 -0.0177878 1.30416e-15)
(1.02356 -0.0178698 5.82656e-15)
(1.02643 -0.0176862 3.31003e-15)
(1.02911 -0.0172667 5.9984e-15)
(1.0316 -0.0166527 3.36283e-15)
(1.03384 -0.0159172 8.23703e-15)
(1.03584 -0.0151175 4.91726e-15)
(1.03757 -0.0143312 7.53695e-15)
(1.03913 -0.0135736 5.76791e-15)
(1.04046 -0.0129099 9.50667e-15)
(1.04173 -0.0122865 5.20573e-15)
(1.04282 -0.0117928 1.10563e-14)
(1.04396 -0.0112838 6.02338e-15)
(1.0449 -0.0109494 1.12486e-14)
(1.04603 -0.0104917 7.17951e-15)
(1.04685 -0.0103174 1.29238e-14)
(1.04801 -0.00982857 8.58054e-15)
(1.0487 -0.00984863 1.44021e-14)
(1.04994 -0.00921842 1.04431e-14)
(1.05046 -0.00952606 1.62763e-14)
(1.05183 -0.00860195 1.25225e-14)
(1.05216 -0.00935839 1.61223e-14)
(1.05367 -0.00791682 1.40435e-14)
(1.05382 -0.00936572 1.71204e-14)
(1.05544 -0.00711437 1.55787e-14)
(1.05546 -0.00957862 1.77688e-14)
(1.05707 -0.00616316 1.74705e-14)
(1.05716 -0.00999491 1.68912e-14)
(1.05852 -0.00507006 1.89444e-14)
(1.05896 -0.0105695 1.73429e-14)
(1.05972 -0.00391668 2.02376e-14)
(1.06094 -0.0111757 1.79378e-14)
(1.06065 -0.00285303 2.11653e-14)
(1.06308 -0.0116125 1.75589e-14)
(1.06136 -0.00209245 2.19936e-14)
(1.06526 -0.011661 1.82348e-14)
(1.06201 -0.0018179 2.23324e-14)
(1.0673 -0.0111685 1.93219e-14)
(1.06282 -0.00209006 2.25429e-14)
(1.06898 -0.0101744 1.91306e-14)
(1.06398 -0.00277152 2.23928e-14)
(1.0702 -0.0089097 2.0635e-14)
(1.06552 -0.00355264 2.30399e-14)
(1.07104 -0.00771409 2.17086e-14)
(1.06723 -0.00413597 2.40162e-14)
(1.07176 -0.00682314 2.23883e-14)
(1.06883 -0.00438857 2.56721e-14)
(1.07262 -0.00621171 2.23304e-14)
(1.07015 -0.00444043 2.77104e-14)
(1.07363 -0.00569369 2.06021e-14)
(1.07131 -0.00451223 3.03749e-14)
(1.07456 -0.00509432 1.96226e-14)
(1.07258 -0.00462937 3.32561e-14)
(1.07517 -0.00448945 1.86701e-14)
(1.0741 -0.00462522 3.62807e-14)
(1.07547 -0.00416148 1.67122e-14)
(1.07565 -0.00425709 3.91332e-14)
(1.07582 -0.00423131 1.59901e-14)
(1.07686 -0.00348347 4.15989e-14)
(1 -0.00204105 -2.58838e-16)
(1.00095 -0.00596861 3.73231e-16)
(1.00274 -0.00952111 -4.6555e-16)
(1.00528 -0.0124988 7.44229e-16)
(1.00838 -0.0147909 8.38827e-16)
(1.01176 -0.0164257 2.22114e-15)
(1.01521 -0.0175217 9.32717e-16)
(1.0186 -0.0182026 3.98611e-15)
(1.02185 -0.0185477 1.00016e-15)
(1.02497 -0.0185934 3.94834e-15)
(1.02793 -0.0183542 2.74079e-15)
(1.03069 -0.0178609 3.81217e-15)
(1.03324 -0.0171645 2.42222e-15)
(1.03551 -0.0163478 5.76988e-15)
(1.03753 -0.0154767 3.44899e-15)
(1.03926 -0.0146312 4.74514e-15)
(1.04079 -0.0138284 4.07612e-15)
(1.0421 -0.0131298 6.40068e-15)
(1.04335 -0.0124834 3.42164e-15)
(1.04441 -0.0119709 7.76816e-15)
(1.04554 -0.0114539 4.68384e-15)
(1.04647 -0.0111072 7.90753e-15)
(1.04757 -0.0106519 5.42498e-15)
(1.04839 -0.0104646 9.35476e-15)
(1.04953 -0.00998946 6.63281e-15)
(1.05024 -0.00998697 1.04788e-14)
(1.05144 -0.00938575 8.17297e-15)
(1.05201 -0.00965025 1.18848e-14)
(1.05331 -0.00878362 9.56707e-15)
(1.05373 -0.00946015 1.1522e-14)
(1.05513 -0.00812315 1.10601e-14)
(1.05541 -0.00942925 1.22599e-14)
(1.05686 -0.00736014 1.24643e-14)
(1.05709 -0.00958673 1.30651e-14)
(1.05846 -0.00646972 1.40044e-14)
(1.05883 -0.00992566 1.18957e-14)
(1.05987 -0.00545566 1.53635e-14)
(1.06067 -0.0104032 1.22805e-14)
(1.06104 -0.00439762 1.63308e-14)
(1.06267 -0.0109061 1.25679e-14)
(1.06197 -0.00342713 1.76195e-14)
(1.06478 -0.0112489 1.17149e-14)
(1.06272 -0.0027342 1.83267e-14)
(1.06689 -0.0112427 1.25722e-14)
(1.06346 -0.0024826 1.84567e-14)
)
;

boundaryField
{
    inlet
    {
        type            uniformFixedValue;
        uniformValue    constant (1 0 0);
        value           uniform (1 0 0);
    }
    outlet
    {
        type            pressureInletOutletVelocity;
        value           nonuniform 0();
    }
    wall
    {
        type            fixedValue;
        value           nonuniform 0();
    }
    wedge1
    {
        type            wedge;
    }
    wedge2
    {
        type            wedge;
    }
    axis
    {
        type            empty;
    }
    procBoundary24to18
    {
        type            processor;
        value           nonuniform List<vector> 
68
(
(1.05403 -0.00323281 7.86974e-15)
(1.05091 -0.0113361 8.60125e-15)
(1.05577 -0.00151961 7.54879e-15)
(1.0524 -0.0125802 9.8653e-15)
(1.05715 0.000163039 7.45096e-15)
(1.0542 -0.0136731 1.28806e-14)
(1.05808 0.00147891 7.17977e-15)
(1.05635 -0.0142226 1.33194e-14)
(1.05863 0.00208296 7.23093e-15)
(1.0587 -0.0139319 1.38934e-14)
(1.059 0.00178821 7.68209e-15)
(1.06096 -0.0127776 1.36525e-14)
(1.05954 0.000782181 8.48571e-15)
(1.06281 -0.0111169 1.26725e-14)
(1.0605 -0.000431733 9.65883e-15)
(1.06414 -0.0095772 1.21715e-14)
(1.06183 -0.00128193 1.07122e-14)
(1.06515 -0.0086003 1.15764e-14)
(1.0632 -0.00151618 1.16862e-14)
(1.06622 -0.00813191 1.1431e-14)
(1.06425 -0.00148027 1.26115e-14)
(1.06755 -0.00765837 1.2463e-14)
(1.06501 -0.00174677 1.43358e-14)
(1.06886 -0.00666218 1.16672e-14)
(1.06598 -0.00253386 1.62483e-14)
(1.06958 -0.00527195 1.08474e-14)
(1.06762 -0.00342993 1.82075e-14)
(1.06947 -0.00418785 9.58666e-15)
(1.06982 -0.00365189 1.9259e-14)
(1.06904 -0.00400256 9.74351e-15)
(1.07179 -0.00287206 1.9693e-14)
(1 -0.00145134 -7.1151e-16)
(1.00062 -0.0042818 9.47653e-16)
(1.00181 -0.00692054 -9.59937e-16)
(1.00353 -0.00925822 1.08499e-15)
(1.00569 -0.0112104 5.27568e-16)
(1.00818 -0.0127399 3.55415e-15)
(1.01085 -0.0138598 1.13519e-15)
(1.01359 -0.0146186 5.33933e-15)
(1.01631 -0.0150734 1.48564e-15)
(1.01895 -0.0152753 6.26697e-15)
(1.02149 -0.0152596 3.86308e-15)
(1.0239 -0.0150593 6.81532e-15)
(1.02617 -0.0147003 3.93127e-15)
(1.02826 -0.0142277 8.8803e-15)
(1.03019 -0.0136721 4.93999e-15)
(1.03192 -0.0130962 8.08384e-15)
(1.03352 -0.0125067 5.8348e-15)
(1.03491 -0.0119751 1.01673e-14)
(1.03626 -0.011446 5.30461e-15)
(1.0374 -0.0110273 1.20348e-14)
(1.03864 -0.0105631 5.97636e-15)
(1.0396 -0.0102763 1.22641e-14)
(1.04082 -0.00982787 6.708e-15)
(1.0416 -0.00969469 1.38682e-14)
(1.04289 -0.00918013 7.64981e-15)
(1.04346 -0.009265 1.51621e-14)
(1.04492 -0.00856163 8.95664e-15)
(1.04519 -0.00899325 1.71601e-14)
(1.04693 -0.00790542 1.01427e-14)
(1.0468 -0.00890556 1.61418e-14)
(1.04893 -0.00714108 1.11887e-14)
(1.04828 -0.00905155 1.77246e-14)
(1.05091 -0.00619456 1.22361e-14)
(1.04968 -0.00947697 1.93756e-14)
(1.05285 -0.00500555 1.29299e-14)
(1.05106 -0.0102109 1.77483e-14)
(1.05106 -0.0102109 1.77483e-14)
)
;
    }
    procBoundary24to19
    {
        type            processor;
        value           uniform (1.07056 -0.0046728 1.69724e-14);
    }
    procBoundary24to25
    {
        type            processor;
        value           nonuniform List<vector> 4((1.07198 -0.00464053 1.78626e-14) (1.07343 -0.00461313 1.73726e-14) (1.07495 -0.00459102 1.78219e-14) (1.07654 -0.00457463 1.60659e-14));
    }
    procBoundary24to30
    {
        type            processor;
        value           nonuniform List<vector> 
68
(
(1.06884 -0.0107507 1.36169e-14)
(1.06439 -0.00271867 1.86085e-14)
(1.07043 -0.00980811 1.37478e-14)
(1.06563 -0.00332687 1.82738e-14)
(1.07158 -0.00862067 1.52809e-14)
(1.06721 -0.00403319 1.84406e-14)
(1.07243 -0.00747963 1.65792e-14)
(1.06891 -0.00457396 1.91191e-14)
(1.07319 -0.00660033 1.71694e-14)
(1.07047 -0.00482729 2.01256e-14)
(1.07408 -0.0059737 1.7599e-14)
(1.07179 -0.0048824 2.17665e-14)
(1.07509 -0.00545674 1.61139e-14)
(1.07296 -0.00491607 2.36759e-14)
(1.07601 -0.00491565 1.56291e-14)
(1.07424 -0.00494282 2.63753e-14)
(1.07664 -0.0044072 1.48358e-14)
(1.07572 -0.00482911 2.8751e-14)
(1.07702 -0.00416003 1.33624e-14)
(1.07718 -0.00439459 3.12767e-14)
(1.07746 -0.00425498 1.2702e-14)
(1.07831 -0.00361814 3.36992e-14)
(1 -0.0022058 6.95718e-16)
(1.00105 -0.00643035 -6.97097e-16)
(1.00303 -0.010215 5.24031e-16)
(1.00581 -0.0133274 -6.10943e-16)
(1.00915 -0.0156619 5.16554e-16)
(1.01275 -0.0172879 -7.11829e-16)
(1.01638 -0.0183631 -8.06811e-16)
(1.0199 -0.0190249 -5.77929e-16)
(1.02327 -0.0193467 -6.00301e-16)
(1.0265 -0.0193523 -9.45088e-16)
(1.02956 -0.0190492 -2.3928e-16)
(1.03242 -0.018472 -1.02705e-15)
(1.03503 -0.0176844 6.15011e-17)
(1.03733 -0.0167802 -5.60736e-16)
(1.03936 -0.0158335 1.278e-16)
(1.04107 -0.0149262 -1.83211e-16)
(1.04259 -0.014077 2.32691e-17)
(1.04387 -0.0133427 1.9286e-16)
(1.04509 -0.012674 5.3114e-17)
(1.04613 -0.012143 3.65187e-16)
(1.04723 -0.0116194 1.19555e-16)
(1.04815 -0.0112606 6.52347e-16)
(1.04923 -0.0108096 1.69946e-16)
(1.05006 -0.0106087 7.03963e-16)
(1.05117 -0.0101497 5.8031e-16)
(1.0519 -0.0101229 6.93131e-16)
(1.05307 -0.00955413 9.0031e-16)
(1.05368 -0.00977198 7.86141e-16)
(1.05492 -0.0089676 1.50539e-15)
(1.05541 -0.0095589 8.72983e-16)
(1.05672 -0.00833303 2.40171e-15)
(1.05711 -0.00948932 7.01176e-16)
(1.05842 -0.00760983 3.49723e-15)
(1.05882 -0.00959153 9.58338e-16)
(1.05999 -0.00677928 4.70011e-15)
(1.06059 -0.0098554 8.7526e-16)
(1.06138 -0.00584071 5.68542e-15)
(1.06246 -0.0102411 9.48775e-16)
(1.06254 -0.0048707 6.51642e-15)
(1.06446 -0.01065 1.18839e-15)
(1.06349 -0.00398257 7.33214e-15)
(1.06654 -0.0109114 1.2592e-15)
(1.0643 -0.00334376 7.88315e-15)
(1.06859 -0.0108642 1.80955e-15)
(1.06884 -0.0107507 1.36169e-14)
(1.06513 -0.00310307 7.93783e-15)
)
;
    }
}


// ************************************************************************* //
