/*--------------------------------*- C++ -*----------------------------------*\
  =========                 |
  \\      /  F ield         | OpenFOAM: The Open Source CFD Toolbox
   \\    /   O peration     | Website:  https://openfoam.org
    \\  /    A nd           | Version:  7
     \\/     M anipulation  |
\*---------------------------------------------------------------------------*/
FoamFile
{
    version     2.0;
    format      ascii;
    class       volScalarField;
    location    "2.7";
    object      p;
}
// * * * * * * * * * * * * * * * * * * * * * * * * * * * * * * * * * * * * * //

dimensions      [1 -1 -2 0 0 0 0];

internalField   nonuniform List<scalar> 
100800
(
1
1
1
1
1
1
1
1
1
1
1
1
1
1
1
1
1
1
1
1
1
1
1
1
1
1
1
1
1
1
1
1
1
1
1
1
1
1
1
1
1
1
1
1
1
1
1
1
1
1
1
1
1
1
1
1
1
1
1
1
1
1.85961
8.51705
10.4369
10.459
10.5175
10.5622
10.606
10.6467
10.6907
10.7396
10.7907
10.8405
10.8856
10.9254
10.9625
11.0011
11.0456
11.0951
11.1429
11.183
11.2139
11.2396
11.2662
11.2982
11.3369
11.3803
11.4249
11.4669
11.5029
11.5326
11.5587
11.584
11.61
11.6379
11.668
11.6985
11.7262
11.7493
11.768
11.7838
11.7995
11.8185
11.8431
11.8734
11.9063
11.9375
11.9639
11.9836
11.9963
12.0021
12.0026
12.0011
12.0005
12.0055
12.0177
12.0338
12.0483
12.0587
12.0672
1
1
1
1
1
1
1
1
1
1
1
1
1
1
1
1
1
1
1
1
1
1
1
1
1
1
1
1
1
1
1
1
1
1
1
1
1
1
1
1
1
1
1
1
1
1
1
1
1
1
1
1
1
1
1
1
1
1
1
1
1
1.84376
8.48986
10.4325
10.4624
10.5174
10.5628
10.6068
10.6476
10.6909
10.739
10.7899
10.8398
10.8851
10.9253
10.9627
11.0016
11.0459
11.0949
11.1422
11.1817
11.2126
11.2387
11.2656
11.2976
11.3361
11.3794
11.424
11.4661
11.5022
11.5318
11.5574
11.5822
11.6078
11.6358
11.6663
11.6973
11.7253
11.7486
11.7673
11.7831
11.7989
11.8178
11.8423
11.8723
11.9046
11.9354
11.9614
11.9811
11.9938
11.9997
12.0004
11.9991
11.9988
12.004
12.0161
12.0319
12.0462
12.0564
12.0649
1
1
1
1
1
1
1
1
1
1
1
1
1
1
1
1
1
1
1
1
1
1
1
1
1
1
1
1
1
1
1
1
1
1
1
1
1
1
1
1
1
1
1
1
1
1
1
1
1
1
1
1
1
1
1
1
1
1
1
1
1
1.80784
8.43656
10.4322
10.4571
10.5138
10.5605
10.6053
10.6465
10.6896
10.7372
10.7879
10.838
10.8837
10.9244
10.9621
11.0012
11.0455
11.0941
11.1407
11.1796
11.2105
11.2369
11.264
11.296
11.3342
11.3775
11.422
11.4642
11.5002
11.5299
11.5549
11.5791
11.6041
11.6321
11.663
11.6946
11.7233
11.7469
11.7658
11.7818
11.7977
11.8168
11.8411
11.8705
11.9021
11.9322
11.9578
11.9772
11.9898
11.9958
11.9968
11.9961
11.9963
12.0018
12.0136
12.0288
12.0427
12.0529
12.0613
1
1
1
1
1
1
1
1
1
1
1
1
1
1
1
1
1
1
1
1
1
1
1
1
1
1
1
1
1
1
1
1
1
1
1
1
1
1
1
1
1
1
1
1
1
1
1
1
1
1
1
1
1
1
1
1
1
1
1
1
1
1.75594
8.35809
10.4304
10.4525
10.5092
10.5565
10.6023
10.6441
10.6874
10.7346
10.785
10.8351
10.8812
10.9223
10.9603
10.9998
11.0438
11.0918
11.1379
11.1763
11.2073
11.234
11.2613
11.2933
11.3313
11.3746
11.4188
11.4611
11.4971
11.5268
11.5514
11.5749
11.5993
11.6273
11.6588
11.6911
11.7204
11.7445
11.7636
11.7796
11.7957
11.8148
11.8389
11.8677
11.8984
11.9275
11.9524
11.9714
11.9837
11.9899
11.9915
11.9914
11.9923
11.9982
12.0097
12.0241
12.0376
12.0477
12.056
1
1
1
1
1
1
1
1
1
1
1
1
1
1
1
1
1
1
1
1
1
1
1
1
1
1
1
1
1
1
1
1
1
1
1
1
1
1
1
1
1
1
1
1
1
1
1
1
1
1
1
1
1
1
1
1
1
1
1
1
1
1.68969
8.24804
10.4265
10.4486
10.505
10.5529
10.5989
10.6408
10.684
10.7312
10.7817
10.832
10.8784
10.9198
10.9581
10.9978
11.0418
11.0893
11.1347
11.1726
11.2035
11.2303
11.2575
11.2892
11.3268
11.3702
11.4142
11.4564
11.4925
11.5223
11.5467
11.5698
11.5938
11.6218
11.6536
11.6864
11.7163
11.7408
11.7601
11.7762
11.7923
11.8115
11.8356
11.8639
11.8937
11.9218
11.9457
11.9641
11.9762
11.9827
11.9849
11.9854
11.987
11.9934
12.0044
12.0179
12.031
12.041
12.0491
1
1
1
1
1
1
1
1
1
1
1
1
1
1
1
1
1
1
1
1
1
1
1
1
1
1
1
1
1
1
1
1
1
1
1
1
1
1
1
1
1
1
1
1
1
1
1
1
1
1
1
1
1
1
1
1
1
1
1
1
1
1.60857
8.1043
10.423
10.4468
10.5024
10.5504
10.5956
10.637
10.6796
10.7265
10.7771
10.8277
10.8745
10.9161
10.9543
10.9942
11.0378
11.0849
11.1301
11.1676
11.1986
11.2252
11.2522
11.2835
11.3208
11.3641
11.4078
11.4501
11.4861
11.5163
11.5408
11.564
11.588
11.6161
11.6481
11.6813
11.7114
11.7361
11.7554
11.7714
11.7873
11.8065
11.8305
11.8585
11.8876
11.9146
11.9375
11.9552
11.9672
11.974
11.9768
11.9781
11.9803
11.9869
11.9975
12.0103
12.023
12.0328
12.0406
1
1
1
1
1
1
1
1
1
1
1
1
1
1
1
1
1
1
1
1
1
1
1
1
1
1
1
1
1
1
1
1
1
1
1
1
1
1
1
1
1
1
1
1
1
1
1
1
1
1
1
1
1
1
1
1
1
1
1
1
1
1.51676
7.92565
10.4206
10.4458
10.4991
10.5469
10.5919
10.633
10.6752
10.7218
10.7724
10.8232
10.8701
10.9115
10.9494
10.9891
11.0325
11.0791
11.1242
11.1619
11.1931
11.22
11.2468
11.2777
11.3142
11.357
11.4003
11.4424
11.4783
11.5088
11.5337
11.5572
11.5814
11.6097
11.6417
11.6748
11.7049
11.7295
11.7487
11.7645
11.7803
11.7995
11.8234
11.8513
11.8799
11.9061
11.928
11.945
11.9569
11.964
11.9674
11.9692
11.9721
11.9789
11.9892
12.0015
12.0138
12.0232
12.0307
1
1
1
1
1
1
1
1
1
1
1
1
1
1
1
1
1
1
1
1
1
1
1
1
1
1
1
1
1
1
1
1
1
1
1
1
1
1
1
1
1
1
1
1
1
1
1
1
1
1
1
1
1
1
1
1
1
1
1
1
1
1.41847
7.71289
10.4179
10.4451
10.4949
10.5427
10.5872
10.6285
10.6709
10.7172
10.7676
10.8182
10.8648
10.9056
10.9433
10.9831
11.0263
11.0731
11.1184
11.1564
11.1879
11.2146
11.2405
11.2705
11.306
11.3483
11.3914
11.4339
11.4703
11.5012
11.5267
11.5504
11.5746
11.6027
11.6344
11.6672
11.6969
11.7213
11.7404
11.7561
11.7717
11.7907
11.8145
11.8422
11.8705
11.896
11.9172
11.9335
11.9452
11.9525
11.9564
11.9588
11.9622
11.9691
11.9794
11.9914
12.0034
12.0125
12.0195
1
1
1
1
1
1
1
1
1
1
1
1
1
1
1
1
1
1
1
1
1
1
1
1
1
1
1
1
1
1
1
1
1
1
1
1
1
1
1
1
1
1
1
1
1
1
1
1
1
1
1
1
1
1
1
1
1
1
1
1
1
1.31095
7.45716
10.4158
10.4443
10.4908
10.5386
10.5827
10.6242
10.6667
10.7128
10.7628
10.8128
10.859
10.8994
10.9371
10.9767
11.0197
11.0663
11.1116
11.1499
11.1816
11.2079
11.2327
11.2615
11.2958
11.3378
11.3813
11.4244
11.4614
11.4927
11.5186
11.5427
11.5671
11.595
11.6265
11.659
11.6882
11.7122
11.731
11.7464
11.7616
11.78
11.8033
11.8307
11.8589
11.8842
11.9049
11.9208
11.9323
11.9397
11.9439
11.9468
11.9507
11.9577
11.9681
11.98
11.9917
12.0002
12.0069
1
1
1
1
1
1
1
1
1
1
1
1
1
1
1
1
1
1
1
1
1
1
1
1
1
1
1
1
1
1
1
1
1
1
1
1
1
1
1
1
1
1
1
1
1
1
1
1
1
1
1
1
1
1
1
1
1
1
1
1
1
1.19962
7.17513
10.4078
10.4394
10.4839
10.5322
10.5761
10.618
10.6606
10.7068
10.7568
10.807
10.8531
10.8932
10.9307
10.9702
11.0127
11.0591
11.1044
11.1431
11.1753
11.2017
11.226
11.2538
11.287
11.3281
11.3711
11.4138
11.4507
11.4816
11.5074
11.5316
11.556
11.584
11.6154
11.6477
11.6766
11.7005
11.7194
11.7348
11.7498
11.7677
11.7904
11.8175
11.8456
11.8709
11.8916
11.9071
11.9183
11.9254
11.9296
11.9329
11.9372
11.9446
11.9551
11.967
11.9784
11.9865
11.9929
1
1
1
1
1
1
1
1
1
1
1
1
1
1
1
1
1
1
1
1
1
1
1
1
1
1
1
1
1
1
1
1
1
1
1
1
1
1
1
1
1
1
1
1
1
1
1
1
1
1
1
1
1
1
1
1
1
1
1
1
1
1.07237
6.88014
10.399
10.4329
10.476
10.5273
10.5725
10.6155
10.6584
10.7041
10.7526
10.8008
10.8452
10.8841
10.9211
10.9604
11.0024
11.0483
11.0935
11.1326
11.1654
11.1921
11.2157
11.2425
11.2741
11.3143
11.3574
11.4005
11.4382
11.4695
11.4959
11.5202
11.5446
11.5724
11.6037
11.6358
11.6645
11.6883
11.7072
11.7226
11.7371
11.7541
11.7757
11.8021
11.83
11.8556
11.8765
11.8919
11.9027
11.9095
11.9136
11.9171
11.9219
11.9297
11.9404
11.9525
11.9638
11.9715
11.9777
1
1
1
1
1
1
1
1
1
1
1
1
1
1
1
1
1
1
1
1
1
1
1
1
1
1
1
1
1
1
1
1
1
1
1
1
1
1
1
1
1
1
1
1
1
1
1
1
1
1
1
1
1
1
1
1
1
1
1
1
1
1.00288
6.5235
10.3524
10.4187
10.4621
10.5157
10.5606
10.6037
10.6469
10.6931
10.7422
10.7909
10.8357
10.8749
10.9124
10.9516
10.9931
11.0384
11.0833
11.1225
11.1558
11.1831
11.2065
11.2326
11.263
11.3021
11.3446
11.3874
11.4254
11.4567
11.4832
11.5074
11.5314
11.5587
11.5896
11.6214
11.65
11.6739
11.6929
11.7085
11.7228
11.7389
11.7595
11.785
11.8127
11.8386
11.8597
11.8752
11.8857
11.8921
11.8961
11.8998
11.9051
11.9132
11.9241
11.9362
11.9474
11.9549
11.9611
1
1
1
1
1
1
1
1
1
1
1
1
1
1
1
1
1
1
1
1
1
1
1
1
1
1
1
1
1
1
1
1
1
1
1
1
1
1
1
1
1
1
1
1
1
1
1
1
1
1
1
1
1
1
1
1
1
1
1
1
1
1.00002
6.08008
10.2967
10.4035
10.4483
10.5055
10.551
10.5948
10.6381
10.6841
10.7325
10.7806
10.8252
10.8647
10.903
10.9423
10.9832
11.0275
11.0715
11.1105
11.1444
11.1725
11.1961
11.2219
11.2511
11.2886
11.33
11.372
11.4102
11.4419
11.4688
11.4931
11.5168
11.5434
11.5737
11.6052
11.6337
11.6576
11.6768
11.6925
11.7066
11.7221
11.7417
11.7663
11.7937
11.82
11.8417
11.8574
11.8678
11.8738
11.8773
11.8808
11.8862
11.8945
11.9054
11.9176
11.9289
11.9365
11.9427
1
1
1
1
1
1
1
1
1
1
1
1
1
1
1
1
1
1
1
1
1
1
1
1
1
1
1
1
1
1
1
1
1
1
1
1
1
1
1
1
1
1
1
1
1
1
1
1
1
1
1
1
1
1
1
1
1
1
1
1
1
1
5.59793
10.2362
10.3868
10.4361
10.4944
10.5405
10.5848
10.628
10.6735
10.7212
10.7686
10.8129
10.8527
10.8921
10.9316
10.9719
11.0152
11.0584
11.0972
11.1316
11.1607
11.1849
11.2108
11.239
11.2748
11.3148
11.3555
11.3937
11.4255
11.4528
11.4771
11.5004
11.5262
11.5559
11.5871
11.6156
11.6397
11.6592
11.6751
11.6893
11.7045
11.7234
11.7471
11.7737
11.7997
11.8215
11.8374
11.8476
11.8532
11.8564
11.8596
11.865
11.8734
11.8844
11.8969
11.9085
11.9164
11.9229
1
1
1
1
1
1
1
1
1
1
1
1
1
1
1
1
1
1
1
1
1
1
1
1
1
1
1
1
1
1
1
1
1
1
1
1
1
1
1
1
1
1
1
1
1
1
1
1
1
1
1
1
1
1
1
1
1
1
1
1
1
1
5.09232
10.1452
10.3739
10.4271
10.4852
10.5315
10.5752
10.6177
10.6624
10.7095
10.7565
10.8006
10.8407
10.8807
10.9202
10.9598
11.0021
11.0443
11.0828
11.1176
11.1477
11.1727
11.1988
11.2262
11.26
11.2982
11.3374
11.3752
11.4069
11.4345
11.4588
11.4819
11.5071
11.5361
11.5669
11.5953
11.6193
11.6389
11.6551
11.6696
11.6849
11.7035
11.7263
11.752
11.7773
11.7991
11.8152
11.8256
11.831
11.8338
11.8366
11.8418
11.8501
11.8613
11.874
11.8862
11.8946
11.9014
1
1
1
1
1
1
1
1
1
1
1
1
1
1
1
1
1
1
1
1
1
1
1
1
1
1
1
1
1
1
1
1
1
1
1
1
1
1
1
1
1
1
1
1
1
1
1
1
1
1
1
1
1
1
1
1
1
1
1
1
1
1
4.5753
10.0146
10.3663
10.4191
10.4768
10.5232
10.5662
10.6073
10.6507
10.6969
10.7433
10.7877
10.8287
10.8694
10.9088
10.9476
10.9888
11.0299
11.0678
11.1028
11.1337
11.1595
11.1859
11.2128
11.2448
11.2814
11.319
11.3562
11.3875
11.415
11.4393
11.4622
11.4868
11.5153
11.5455
11.5736
11.5974
11.617
11.6334
11.6484
11.6641
11.6826
11.7046
11.729
11.7534
11.7748
11.791
11.8016
11.8071
11.8095
11.812
11.8167
11.8248
11.836
11.849
11.8617
11.8707
11.8779
1
1
1
1
1
1
1
1
1
1
1
1
1
1
1
1
1
1
1
1
1
1
1
1
1
1
1
1
1
1
1
1
1
1
1
1
1
1
1
1
1
1
1
1
1
1
1
1
1
1
1
1
1
1
1
1
1
1
1
1
1
1
4.04809
9.84196
10.3628
10.4115
10.468
10.5141
10.5558
10.5951
10.6371
10.6824
10.7286
10.7731
10.8145
10.8559
10.8953
10.9334
10.9735
11.0138
11.0513
11.0866
11.1184
11.1449
11.1714
11.198
11.2281
11.2633
11.2996
11.3362
11.367
11.3944
11.4185
11.4413
11.4655
11.4932
11.5229
11.5505
11.574
11.5934
11.6099
11.6254
11.6417
11.6602
11.6815
11.7047
11.7278
11.7485
11.7647
11.7755
11.7811
11.7834
11.7854
11.7897
11.7975
11.8085
11.8217
11.8349
11.8446
11.8522
1
1
1
1
1
1
1
1
1
1
1
1
1
1
1
1
1
1
1
1
1
1
1
1
1
1
1
1
1
1
1
1
1
1
1
1
1
1
1
1
1
1
1
1
1
1
1
1
1
1
1
1
1
1
1
1
1
1
1
1
1
1
3.51272
9.62909
10.3597
10.4045
10.4596
10.5045
10.5447
10.5821
10.6223
10.6667
10.7131
10.7582
10.801
10.8429
10.8823
10.9192
10.9574
10.9962
11.0329
11.0682
11.1009
11.1287
11.1554
11.182
11.2106
11.2444
11.2796
11.3155
11.3457
11.3727
11.3964
11.4189
11.4425
11.4697
11.4988
11.5259
11.549
11.5682
11.5849
11.6008
11.6176
11.6362
11.6568
11.6788
11.7005
11.7203
11.7362
11.7472
11.753
11.7554
11.7573
11.7612
11.7685
11.779
11.792
11.8055
11.8157
11.8237
1
1
1
1
1
1
1
1
1
1
1
1
1
1
1
1
1
1
1
1
1
1
1
1
1
1
1
1
1
1
1
1
1
1
1
1
1
1
1
1
1
1
1
1
1
1
1
1
1
1
1
1
1
1
1
1
1
1
1
1
1
1
2.973
9.36434
10.3612
10.3991
10.4502
10.4939
10.5332
10.569
10.6088
10.6537
10.6997
10.7451
10.7886
10.8304
10.8687
10.9044
10.9405
10.9778
11.0141
11.0495
11.0833
11.1121
11.1385
11.1646
11.1913
11.2236
11.2577
11.293
11.323
11.3497
11.3729
11.395
11.418
11.4445
11.4729
11.4997
11.5226
11.5416
11.5583
11.5743
11.5914
11.61
11.6302
11.651
11.6715
11.6902
11.7056
11.7164
11.7225
11.7253
11.7271
11.7307
11.7374
11.7473
11.7599
11.7734
11.784
11.7923
1
1
1
1
1
1
1
1
1
1
1
1
1
1
1
1
1
1
1
1
1
1
1
1
1
1
1
1
1
1
1
1
1
1
1
1
1
1
1
1
1
1
1
1
1
1
1
1
1
1
1
1
1
1
1
1
1
1
1
1
1
1
2.4599
9.01586
10.3728
10.3912
10.4383
10.4793
10.5185
10.5557
10.5958
10.6403
10.6865
10.7322
10.7753
10.8174
10.8553
10.8899
10.9246
10.9605
10.9958
11.0306
11.0644
11.0939
11.1199
11.1458
11.1712
11.2022
11.2354
11.2701
11.2999
11.326
11.3481
11.3693
11.3913
11.4171
11.4452
11.4719
11.4948
11.5137
11.5301
11.5459
11.5628
11.5813
11.6011
11.6212
11.6406
11.6582
11.6727
11.6832
11.6895
11.6927
11.6948
11.6982
11.7043
11.7133
11.7251
11.7383
11.7491
11.7574
1
1
1
1
1
1
1
1
1
1
1
1
1
1
1
1
1
1
1
1
1
1
1
1
1
1
1
1
1
1
1
1
1
1
1
1
1
1
1
1
1
1
1
1
1
1
1
1
1
1
1
1
1
1
1
1
1
1
1
1
1
1
1.98076
8.57275
10.3913
10.3958
10.437
10.4734
10.5083
10.5435
10.5828
10.6262
10.6718
10.7174
10.7615
10.8036
10.8419
10.8761
10.9092
10.9433
10.9774
11.0111
11.0446
11.0747
11.1005
11.1263
11.151
11.1806
11.2126
11.2463
11.2758
11.301
11.3221
11.3421
11.3631
11.3881
11.416
11.4428
11.4658
11.4843
11.5001
11.5152
11.5317
11.55
11.5696
11.5892
11.6076
11.6241
11.6375
11.6474
11.6537
11.6573
11.6597
11.6631
11.6687
11.6768
11.6877
11.7002
11.711
11.719
1
1
1
1
1
1
1
1
1
1
1
1
1
1
1
1
1
1
1
1
1
1
1
1
1
1
1
1
1
1
1
1
1
1
1
1
1
1
1
1
1
1
1
1
1
1
1
1
1
1
1
1
1
1
1
1
1
1
1
1
1
1
1.56948
8.04433
10.4221
10.3847
10.4186
10.4518
10.4871
10.5249
10.5662
10.611
10.6572
10.7023
10.746
10.7878
10.8258
10.8603
10.8928
10.9253
10.9582
10.9907
11.0237
11.0541
11.0799
11.1055
11.13
11.1582
11.1892
11.2219
11.2512
11.2755
11.2955
11.3141
11.3336
11.3576
11.3852
11.4122
11.4352
11.4533
11.4682
11.4823
11.4981
11.5161
11.5355
11.5548
11.5724
11.5876
11.5999
11.609
11.6151
11.619
11.6216
11.625
11.6302
11.6375
11.6474
11.6589
11.6691
11.6765
1
1
1
1
1
1
1
1
1
1
1
1
1
1
1
1
1
1
1
1
1
1
1
1
1
1
1
1
1
1
1
1
1
1
1
1
1
1
1
1
1
1
1
1
1
1
1
1
1
1
1
1
1
1
1
1
1
1
1
1
1
1
1.24368
7.42739
10.3871
10.3773
10.4035
10.4385
10.4739
10.5098
10.5487
10.5916
10.6368
10.6822
10.7267
10.769
10.8076
10.8427
10.875
10.9059
10.9374
10.9689
11.0013
11.0317
11.0577
11.0827
11.1074
11.1344
11.1648
11.1965
11.2258
11.2494
11.2682
11.2853
11.3034
11.3262
11.3533
11.3803
11.4032
11.4207
11.4343
11.4471
11.462
11.4797
11.499
11.518
11.5348
11.5488
11.5597
11.5678
11.5734
11.5773
11.58
11.5833
11.5882
11.5949
11.6039
11.6144
11.6237
11.6303
1
1
1
1
1
1
1
1
1
1
1
1
1
1
1
1
1
1
1
1
1
1
1
1
1
1
1
1
1
1
1
1
1
1
1
1
1
1
1
1
1
1
1
1
1
1
1
1
1
1
1
1
1
1
1
1
1
1
1
1
1
1
1.01328
6.74809
10.315
10.3318
10.3629
10.4033
10.4445
10.4864
10.5291
10.5742
10.6209
10.6664
10.7096
10.7502
10.7871
10.8216
10.8536
10.8838
10.914
10.9447
10.9764
11.0071
11.0336
11.0579
11.0827
11.1088
11.1388
11.1695
11.199
11.2222
11.2403
11.2559
11.2726
11.294
11.3203
11.347
11.3695
11.3861
11.3983
11.4096
11.4235
11.4408
11.4602
11.4789
11.4948
11.5074
11.5169
11.5238
11.5286
11.5321
11.5346
11.5376
11.5422
11.5486
11.5569
11.5662
11.5743
11.5797
1
1
1
1
1
1
1
1
1
1
1
1
1
1
1
1
1
1
1
1
1
1
1
1
1
1
1
1
1
1
1
1
1
1
1
1
1
1
1
1
1
1
1
1
1
1
1
1
1
1
1
1
1
1
1
1
1
1
1
1
1
1
1.00009
5.95955
10.1838
10.2814
10.3381
10.3875
10.4279
10.4671
10.5061
10.5478
10.5919
10.6374
10.6821
10.7236
10.7615
10.7963
10.828
10.8576
10.8869
10.9171
10.9484
10.9795
11.0071
11.0311
11.0558
11.0809
11.1106
11.1406
11.1701
11.1933
11.2112
11.2257
11.2411
11.261
11.2862
11.3122
11.3341
11.3496
11.3603
11.37
11.3828
11.3996
11.4189
11.4373
11.4522
11.4633
11.4712
11.4767
11.4803
11.4829
11.4847
11.4872
11.4917
11.4979
11.5057
11.5141
11.5208
11.5253
1
1
1
1
1
1
1
1
1
1
1
1
1
1
1
1
1
1
1
1
1
1
1
1
1
1
1
1
1
1
1
1
1
1
1
1
1
1
1
1
1
1
1
1
1
1
1
1
1
1
1
1
1
1
1
1
1
1
1
1
1
1
1
5.10647
10.0219
10.2344
10.3006
10.3584
10.4053
10.4485
10.4899
10.5324
10.5762
10.6199
10.6621
10.7016
10.7384
10.773
10.8047
10.8332
10.8604
10.8888
10.9189
10.95
10.9785
11.0025
11.0267
11.0509
11.0799
11.1093
11.1387
11.1623
11.1803
11.1942
11.2085
11.2269
11.2507
11.2757
11.2965
11.3109
11.3201
11.3282
11.3398
11.356
11.3751
11.3931
11.407
11.4165
11.4227
11.4264
11.4286
11.4297
11.4307
11.4324
11.4364
11.4424
11.4497
11.4571
11.4625
11.466
1
1
1
1
1
1
1
1
1
1
1
1
1
1
1
1
1
1
1
1
1
1
1
1
1
1
1
1
1
1
1
1
1
1
1
1
1
1
1
1
1
1
1
1
1
1
1
1
1
1
1
1
1
1
1
1
1
1
1
1
1
1
1
4.23193
9.80684
10.2012
10.2829
10.3397
10.3848
10.4278
10.4694
10.5112
10.5544
10.5978
10.6401
10.6797
10.7163
10.75
10.7804
10.8073
10.8322
10.8581
10.8866
10.9171
10.9471
10.972
10.9956
11.019
11.0466
11.0755
11.1045
11.1286
11.147
11.1607
11.1741
11.1913
11.2135
11.2372
11.2568
11.2699
11.2777
11.2844
11.2946
11.3099
11.3286
11.3459
11.3586
11.3666
11.3708
11.3724
11.3725
11.3718
11.3713
11.3721
11.3756
11.3812
11.3882
11.3951
11.3994
11.4025
1
1
1
1
1
1
1
1
1
1
1
1
1
1
1
1
1
1
1
1
1
1
1
1
1
1
1
1
1
1
1
1
1
1
1
1
1
1
1
1
1
1
1
1
1
1
1
1
1
1
1
1
1
1
1
1
1
1
1
1
1
1
1
3.4058
9.46014
10.2011
10.2578
10.3191
10.373
10.4191
10.4578
10.496
10.5358
10.5756
10.6147
10.6534
10.6904
10.7248
10.7555
10.7822
10.806
10.8298
10.8554
10.8849
10.9149
10.9404
10.9636
10.986
11.0114
11.0395
11.0677
11.0922
11.111
11.1247
11.1374
11.1534
11.1742
11.1965
11.2148
11.2267
11.2333
11.2385
11.2471
11.2612
11.2789
11.2952
11.3069
11.3136
11.3155
11.3149
11.3124
11.3095
11.3072
11.3068
11.3093
11.3141
11.3203
11.3263
11.3297
11.3325
1
1
1
1
1
1
1
1
1
1
1
1
1
1
1
1
1
1
1
1
1
1
1
1
1
1
1
1
1
1
1
1
1
1
1
1
1
1
1
1
1
1
1
1
1
1
1
1
1
1
1
1
1
1
1
1
1
1
1
1
1
1
1
2.62116
8.94841
10.2255
10.2635
10.3244
10.3617
10.3974
10.4354
10.4759
10.5171
10.5571
10.5963
10.6331
10.6674
10.6991
10.7281
10.7542
10.7777
10.8004
10.8251
10.8527
10.883
10.9093
10.9305
10.9519
10.9749
11.0017
11.0287
11.0531
11.0718
11.0856
11.0979
11.1129
11.1322
11.1531
11.1703
11.1811
11.1866
11.1904
11.1974
11.2097
11.2257
11.2407
11.2514
11.2565
11.256
11.2528
11.2473
11.2415
11.2369
11.2348
11.2358
11.2397
11.2451
11.2508
11.2538
11.2569
1
1
1
1
1
1
1
1
1
1
1
1
1
1
1
1
1
1
1
1
1
1
1
1
1
1
1
1
1
1
1
1
1
1
1
1
1
1
1
1
1
1
1
1
1
1
1
1
1
1
1
1
1
1
1
1
1
1
1
1
1
1
1
1.86048
8.34747
10.3156
10.2514
10.3013
10.3393
10.3822
10.4225
10.4596
10.4956
10.5331
10.5715
10.6085
10.6436
10.6756
10.7036
10.7278
10.7493
10.7701
10.7933
10.82
10.8484
10.8764
10.8981
10.9174
10.9376
10.962
10.9879
11.0114
11.0297
11.0434
11.0553
11.0694
11.0873
11.1067
11.1229
11.1328
11.1375
11.1402
11.1454
11.1553
11.1688
11.1819
11.1914
11.1947
11.1922
11.1861
11.1774
11.1684
11.1612
11.1569
11.1559
11.1579
11.1617
11.1663
11.1686
11.1717
1
1
1
1
1
1
1
1
1
1
1
1
1
1
1
1
1
1
1
1
1
1
1
1
1
1
1
1
1
1
1
1
1
1
1
1
1
1
1
1
1
1
1
1
1
1
1
1
1
1
1
1
1
1
1
1
1
1
1
1
1
1
1
1.23109
7.53818
10.3894
10.2923
10.3011
10.3199
10.3554
10.3946
10.4345
10.4728
10.5108
10.5485
10.5843
10.6183
10.6497
10.678
10.7022
10.7229
10.7423
10.7632
10.7875
10.814
10.8402
10.8637
10.8832
10.9007
10.9227
10.9456
10.9674
10.985
10.9985
11.01
11.023
11.0392
11.0569
11.072
11.0813
11.0856
11.0876
11.091
11.098
11.1081
11.1187
11.1262
11.1275
11.1232
11.1142
11.1017
11.0887
11.0779
11.0702
11.0663
11.0663
11.0686
11.0725
11.0748
11.0784
1
1
1
1
1
1
1
1
1
1
1
1
1
1
1
1
1
1
1
1
1
1
1
1
1
1
1
1
1
1
1
1
1
1
1
1
1
1
1
1
1
1
1
1
1
1
1
1
1
1
1
1
1
1
1
1
1
1
1
1
1
1
1
1.00778
6.65395
10.2263
10.1725
10.2379
10.2875
10.3346
10.3744
10.4103
10.4464
10.4846
10.5221
10.5579
10.5917
10.6233
10.6515
10.6752
10.695
10.7135
10.7333
10.7558
10.7804
10.8054
10.8288
10.8483
10.8648
10.882
10.903
10.9219
10.9378
10.9509
10.9622
10.974
10.9881
11.0036
11.0173
11.0262
11.0304
11.032
11.0337
11.0376
11.0438
11.0508
11.0552
11.0545
11.0481
11.0362
11.02
11.0028
10.988
10.9763
10.9688
10.9653
10.9647
10.9663
10.9674
10.9702
1
1
1
1
1
1
1
1
1
1
1
1
1
1
1
1
1
1
1
1
1
1
1
1
1
1
1
1
1
1
1
1
1
1
1
1
1
1
1
1
1
1
1
1
1
1
1
1
1
1
1
1
1
1
1
1
1
1
1
1
1
1
1
1.00001
5.53274
9.98801
10.1423
10.2189
10.2648
10.3059
10.3468
10.3853
10.4196
10.453
10.4879
10.5249
10.5615
10.5948
10.6235
10.6472
10.6665
10.684
10.7024
10.7232
10.7463
10.7706
10.7941
10.8138
10.8291
10.8427
10.8576
10.8745
10.8893
10.9015
10.9121
10.9224
10.934
10.9469
10.9588
10.9671
10.9716
10.9731
10.9731
10.9737
10.9755
10.9778
10.9786
10.9753
10.9665
10.9517
10.9314
10.9091
10.8886
10.8708
10.858
10.8501
10.8466
10.8464
10.8468
10.8496
1
1
1
1
1
1
1
1
1
1
1
1
1
1
1
1
1
1
1
1
1
1
1
1
1
1
1
1
1
1
1
1
1
1
1
1
1
1
1
1
1
1
1
1
1
1
1
1
1
1
1
1
1
1
1
1
1
1
1
1
1
1
1
1
4.47481
9.74336
10.0835
10.1691
10.2421
10.2896
10.3262
10.3596
10.3931
10.4286
10.4635
10.498
10.5308
10.5638
10.5932
10.617
10.6362
10.6531
10.6704
10.69
10.7118
10.7353
10.7585
10.7779
10.7921
10.8031
10.8142
10.8273
10.84
10.8512
10.8605
10.8688
10.8775
10.8874
10.897
10.9044
10.909
10.9102
10.9085
10.9059
10.903
10.9001
10.8963
10.8895
10.8779
10.86
10.8353
10.8074
10.7802
10.7559
10.7368
10.723
10.7139
10.7082
10.7043
10.7038
1
1
1
1
1
1
1
1
1
1
1
1
1
1
1
1
1
1
1
1
1
1
1
1
1
1
1
1
1
1
1
1
1
1
1
1
1
1
1
1
1
1
1
1
1
1
1
1
1
1
1
1
1
1
1
1
1
1
1
1
1
1
1
1
3.43867
9.29408
10.0881
10.1809
10.2358
10.2727
10.3092
10.3391
10.3704
10.4014
10.4323
10.4648
10.4994
10.5307
10.5586
10.5827
10.6027
10.6199
10.6367
10.6553
10.6764
10.6993
10.7218
10.7403
10.7533
10.7624
10.7707
10.7812
10.7922
10.8011
10.808
10.8135
10.819
10.8256
10.8327
10.8386
10.8426
10.8429
10.8397
10.8338
10.826
10.8175
10.8084
10.7971
10.7819
10.7605
10.7311
10.6965
10.6607
10.6267
10.5969
10.5734
10.5564
10.5455
10.5387
10.5379
1
1
1
1
1
1
1
1
1
1
1
1
1
1
1
1
1
1
1
1
1
1
1
1
1
1
1
1
1
1
1
1
1
1
1
1
1
1
1
1
1
1
1
1
1
1
1
1
1
1
1
1
1
1
1
1
1
1
1
1
1
1
1
1
2.39951
8.63108
10.1795
10.1922
10.2159
10.2429
10.2787
10.3143
10.3483
10.378
10.407
10.436
10.4659
10.4958
10.5234
10.5472
10.5667
10.5842
10.6009
10.6188
10.6393
10.6617
10.6834
10.7007
10.7127
10.7207
10.7271
10.7351
10.744
10.7509
10.7547
10.7569
10.7591
10.7625
10.7666
10.7705
10.773
10.7715
10.7663
10.757
10.7444
10.7301
10.7149
10.6982
10.6784
10.6524
10.6176
10.5752
10.529
10.4838
10.4424
10.4077
10.3791
10.3549
10.3351
10.3236
1
1
1
1
1
1
1
1
1
1
1
1
1
1
1
1
1
1
1
1
1
1
1
1
1
1
1
1
1
1
1
1
1
1
1
1
1
1
1
1
1
1
1
1
1
1
1
1
1
1
1
1
1
1
1
1
1
1
1
1
1
1
1
1
1.48545
7.92399
10.3219
10.1719
10.1773
10.2075
10.2482
10.2859
10.3192
10.3504
10.3802
10.4081
10.4365
10.465
10.49
10.511
10.5299
10.5467
10.5626
10.5798
10.5996
10.6214
10.6423
10.6587
10.67
10.6778
10.6832
10.6888
10.6949
10.6991
10.6999
10.6993
10.6983
10.6985
10.6996
10.7007
10.7005
10.6967
10.6886
10.6756
10.6582
10.638
10.6161
10.5931
10.5672
10.5354
10.494
10.4426
10.3843
10.324
10.2644
10.2079
10.1563
10.1128
10.0806
10.0696
1
1
1
1
1
1
1
1
1
1
1
1
1
1
1
1
1
1
1
1
1
1
1
1
1
1
1
1
1
1
1
1
1
1
1
1
1
1
1
1
1
1
1
1
1
1
1
1
1
1
1
1
1
1
1
1
1
1
1
1
1
1
1
1
1.02976
6.92601
10.2015
10.1169
10.1534
10.1861
10.22
10.257
10.2911
10.3219
10.3507
10.3779
10.4056
10.4335
10.4589
10.4791
10.4952
10.5096
10.5244
10.5399
10.5579
10.5783
10.5981
10.6141
10.6258
10.6338
10.6383
10.6419
10.6448
10.6457
10.6436
10.6405
10.6372
10.6343
10.632
10.6297
10.6261
10.619
10.6073
10.5902
10.5678
10.5414
10.5124
10.4819
10.4487
10.4095
10.3599
10.2978
10.2246
10.1453
10.0638
9.98344
9.90606
9.8323
9.75727
9.69753
1
1
1
1
1
1
1
1
1
1
1
1
1
1
1
1
1
1
1
1
1
1
1
1
1
1
1
1
1
1
1
1
1
1
1
1
1
1
1
1
1
1
1
1
1
1
1
1
1
1
1
1
1
1
1
1
1
1
1
1
1
1
1
1
1.00007
5.62488
9.89921
10.0284
10.0864
10.1395
10.1875
10.2272
10.2596
10.29
10.3187
10.3458
10.3733
10.4004
10.4251
10.4459
10.4621
10.475
10.487
10.5004
10.5159
10.5336
10.5516
10.5672
10.5795
10.5878
10.5917
10.5933
10.593
10.5905
10.5857
10.5804
10.575
10.5694
10.5636
10.5573
10.5495
10.5384
10.5225
10.501
10.4735
10.4406
10.404
10.3651
10.323
10.2747
10.2151
10.1403
10.0503
9.94867
9.83798
9.71743
9.5817
9.4296
9.28259
9.17944
1
1
1
1
1
1
1
1
1
1
1
1
1
1
1
1
1
1
1
1
1
1
1
1
1
1
1
1
1
1
1
1
1
1
1
1
1
1
1
1
1
1
1
1
1
1
1
1
1
1
1
1
1
1
1
1
1
1
1
1
1
1
1
1
0.999999
4.36181
9.60327
9.99142
10.0731
10.1326
10.1659
10.1954
10.2242
10.2541
10.2835
10.3115
10.3394
10.3659
10.3899
10.4111
10.4276
10.4401
10.4511
10.4625
10.4748
10.4889
10.5041
10.5186
10.5308
10.5395
10.5427
10.5425
10.5394
10.5341
10.527
10.5197
10.5124
10.5039
10.4943
10.4836
10.4712
10.4557
10.4353
10.4089
10.376
10.3365
10.2918
10.2436
10.1912
10.1319
10.0602
9.97082
9.86154
9.73318
9.58465
9.41161
9.21004
8.97402
8.71719
8.54383
1
1
1
1
1
1
1
1
1
1
1
1
1
1
1
1
1
1
1
1
1
1
1
1
1
1
1
1
1
1
1
1
1
1
1
1
1
1
1
1
1
1
1
1
1
1
1
1
1
1
1
1
1
1
1
1
1
1
1
1
1
1
1
1
1
3.14668
9.02431
9.99481
10.0601
10.1135
10.1513
10.1777
10.199
10.2228
10.2491
10.2765
10.3044
10.3305
10.3539
10.3749
10.3917
10.4041
10.4145
10.4246
10.4345
10.4445
10.4563
10.4689
10.4803
10.4888
10.4913
10.4896
10.4841
10.4763
10.4674
10.4584
10.4487
10.4374
10.4237
10.4081
10.3906
10.3702
10.3451
10.3138
10.2754
10.2293
10.1764
10.1181
10.0542
9.98209
9.89634
9.79058
9.6595
9.50067
9.30988
9.07858
8.78092
8.34353
7.51609
5.5658
1
1
1
1
1
1
1
1
1
1
1
1
1
1
1
1
1
1
1
1
1
1
1
1
1
1
1
1
1
1
1
1
1
1
1
1
1
1
1
1
1
1
1
1
1
1
1
1
1
1
1
1
1
1
1
1
1
1
1
1
1
1
1
1
1
1.99008
8.27769
10.132
10.0774
10.0958
10.1204
10.1464
10.1721
10.1963
10.2192
10.243
10.2686
10.2936
10.3165
10.3373
10.3542
10.3668
10.3766
10.3855
10.3935
10.4002
10.4084
10.4185
10.4287
10.4362
10.4383
10.4346
10.4273
10.4174
10.4068
10.3961
10.3844
10.37
10.3522
10.3316
10.3087
10.2831
10.2531
10.2167
10.1727
10.1201
10.0587
9.98995
9.91357
9.82741
9.72612
9.60255
9.44849
9.25752
9.01931
8.71288
8.28874
7.64492
6.66548
4.52094
1
1
1
1
1
1
1
1
1
1
1
1
1
1
1
1
1
1
1
1
1
1
1
1
1
1
1
1
1
1
1
1
1
1
1
1
1
1
1
1
1
1
1
1
1
1
1
1
1
1
1
1
1
1
1
1
1
1
1
1
1
1
1
1
1
1.12022
7.24002
10.2243
10.0977
10.0642
10.076
10.1112
10.14
10.1658
10.1892
10.2122
10.2359
10.2593
10.2812
10.3008
10.3169
10.3294
10.3385
10.3457
10.3517
10.3558
10.3608
10.368
10.3762
10.3824
10.3842
10.3788
10.3698
10.3578
10.3452
10.3325
10.3185
10.3012
10.2797
10.2541
10.2255
10.1942
10.1588
10.1173
10.0676
10.0085
9.93898
9.85974
9.77052
9.66951
9.55166
9.40958
9.23234
9.01081
8.72591
8.36076
7.84349
7.15995
5.90385
4.09861
1
1
1
1
1
1
1
1
1
1
1
1
1
1
1
1
1
1
1
1
1
1
1
1
1
1
1
1
1
1
1
1
1
1
1
1
1
1
1
1
1
1
1
1
1
1
1
1
1
1
1
1
1
1
1
1
1
1
1
1
1
1
1
1
1
1.00134
5.93639
9.88649
9.93429
9.99955
10.0351
10.0732
10.1042
10.132
10.1563
10.1792
10.2018
10.2237
10.2444
10.2628
10.2781
10.2905
10.2986
10.3044
10.3082
10.3101
10.3127
10.3174
10.3231
10.3279
10.3292
10.323
10.3123
10.2981
10.2827
10.2673
10.2507
10.2308
10.2061
10.176
10.1419
10.1046
10.0635
10.0168
9.96158
9.89611
9.81857
9.72911
9.62723
9.51141
9.37667
9.21605
9.01669
8.76872
8.44862
8.03767
7.48278
6.67893
5.47588
4.05316
1
1
1
1
1
1
1
1
1
1
1
1
1
1
1
1
1
1
1
1
1
1
1
1
1
1
1
1
1
1
1
1
1
1
1
1
1
1
1
1
1
1
1
1
1
1
1
1
1
1
1
1
1
1
1
1
1
1
1
1
1
1
1
1
1
0.999984
4.45599
9.49563
9.90623
9.98426
10.0195
10.0412
10.0696
10.0977
10.1223
10.1449
10.1665
10.1875
10.2073
10.2249
10.2396
10.2512
10.2584
10.2624
10.264
10.2642
10.2648
10.2668
10.2699
10.273
10.2736
10.2674
10.255
10.2385
10.2198
10.2008
10.1811
10.1587
10.1312
10.0974
10.0582
10.0146
9.96742
9.91513
9.85428
9.7823
9.69703
9.59811
9.48448
9.35501
9.20425
9.02594
8.80685
8.5355
8.19178
7.74551
7.16421
6.33394
5.2814
4.12824
1
1
1
1
1
1
1
1
1
1
1
1
1
1
1
1
1
1
1
1
1
1
1
1
1
1
1
1
1
1
1
1
1
1
1
1
1
1
1
1
1
1
1
1
1
1
1
1
1
1
1
1
1
1
1
1
1
1
1
1
1
1
1
1
1
0.999996
3.05128
8.94066
9.95206
9.9755
9.9926
10.0173
10.0428
10.0667
10.0891
10.1101
10.13
10.1495
10.1683
10.1853
10.1994
10.21
10.2165
10.219
10.2189
10.2176
10.2163
10.216
10.2166
10.2176
10.2174
10.2114
10.198
10.179
10.1568
10.1339
10.1106
10.0853
10.0551
10.018
9.9741
9.92468
9.87118
9.81318
9.74688
9.66873
9.57601
9.46848
9.34426
9.20278
9.03787
8.84367
8.60819
8.31828
7.95704
7.49755
6.91049
6.12686
5.20336
4.25887
1
1
1
1
1
1
1
1
1
1
1
1
1
1
1
1
1
1
1
1
1
1
1
1
1
1
1
1
1
1
1
1
1
1
1
1
1
1
1
1
1
1
1
1
1
1
1
1
1
1
1
1
1
1
1
1
1
1
1
1
1
1
1
1
1
0.999999
1.80438
8.19895
10.0121
9.93514
9.95188
9.98598
10.0156
10.0394
10.06
10.0784
10.0955
10.1125
10.1296
10.1456
10.1587
10.1681
10.1741
10.1755
10.174
10.171
10.168
10.1655
10.1637
10.1625
10.1609
10.1548
10.1407
10.1194
10.0938
10.0668
10.0395
10.011
9.9781
9.93802
9.89006
9.83541
9.77582
9.71169
9.63958
9.55538
9.45561
9.34015
9.20693
9.05531
8.87872
8.6715
8.42334
8.1216
7.75225
7.28786
6.7218
6.00038
5.21226
4.40331
1
1
1
1
1
1
1
1
1
1
1
1
1
1
1
1
1
1
1
1
1
1
1
1
1
1
1
1
1
1
1
1
1
1
1
1
1
1
1
1
1
1
1
1
1
1
1
1
1
1
1
1
1
1
1
1
1
1
1
1
1
1
1
1
1
1
1.07383
6.90663
10.0241
9.94163
9.93459
9.95399
9.98448
10.008
10.0283
10.0457
10.061
10.0757
10.0905
10.1048
10.1168
10.1253
10.1306
10.1315
10.1286
10.1242
10.1195
10.115
10.111
10.1076
10.1043
10.0971
10.0825
10.0597
10.0309
9.99999
9.96882
9.93683
9.90093
9.85779
9.80601
9.74656
9.68123
9.61081
9.53264
9.44286
9.33739
9.21534
9.07484
8.91466
8.72866
8.51116
8.25388
7.94634
7.57862
7.11698
6.58015
5.93151
5.25739
4.53932
1
1
1
1
1
1
1
1
1
1
1
1
1
1
1
1
1
1
1
1
1
1
1
1
1
1
1
1
1
1
1
1
1
1
1
1
1
1
1
1
1
1
1
1
1
1
1
1
1
1
1
1
1
1
1
1
1
1
1
1
1
1
1
1
1
1
1.00041
5.29503
9.60229
9.80674
9.87446
9.91791
9.94737
9.97103
9.99252
10.0105
10.0257
10.0392
10.0522
10.0646
10.0752
10.0828
10.0874
10.0881
10.0841
10.0782
10.0716
10.065
10.0587
10.053
10.0474
10.0386
10.0231
9.99914
9.96802
9.93332
9.89809
9.86221
9.82302
9.77713
9.72229
9.65894
9.58858
9.51204
9.42752
9.3322
9.22202
9.09478
8.94861
8.78137
8.58829
8.36321
8.09953
7.79243
7.42591
6.98826
6.4804
5.89877
5.30626
4.66122
1
1
1
1
1
1
1
1
1
1
1
1
1
1
1
1
1
1
1
1
1
1
1
1
1
1
1
1
1
1
1
1
1
1
1
1
1
1
1
1
1
1
1
1
1
1
1
1
1
1
1
1
1
1
1
1
1
1
1
1
1
1
1
1
1
1
0.999996
3.69423
9.15961
9.81063
9.86512
9.90318
9.91996
9.93742
9.9569
9.97443
9.98917
10.0017
10.0132
10.0239
10.0333
10.0401
10.0444
10.0446
10.0396
10.0322
10.0236
10.0149
10.0064
9.99839
9.99017
9.97931
9.96256
9.93777
9.90517
9.86741
9.82796
9.78789
9.74516
9.6967
9.63941
9.57264
9.49743
9.41485
9.32398
9.22332
9.10939
8.9787
8.82872
8.65653
8.45832
8.22842
7.96185
7.65471
7.29713
6.89096
6.41421
5.88337
5.34999
4.77105
1
1
1
1
1
1
1
1
1
1
1
1
1
1
1
1
1
1
1
1
1
1
1
1
1
1
1
1
1
1
1
1
1
1
1
1
1
1
1
1
1
1
1
1
1
1
1
1
1
1
1
1
1
1
1
1
1
1
1
1
1
1
1
1
1
1
0.999999
2.19787
8.39815
9.9038
9.8653
9.87282
9.88707
9.90692
9.92543
9.94191
9.95554
9.96653
9.97601
9.98468
9.99233
9.99831
10.0021
10.0014
9.99574
9.987
9.97661
9.9657
9.95484
9.94422
9.933
9.91943
9.90089
9.87545
9.84207
9.80208
9.75847
9.71359
9.66679
9.61564
9.55657
9.4876
9.40843
9.32054
9.22395
9.11825