/*--------------------------------*- C++ -*----------------------------------*\
  =========                 |
  \\      /  F ield         | OpenFOAM: The Open Source CFD Toolbox
   \\    /   O peration     | Website:  https://openfoam.org
    \\  /    A nd           | Version:  7
     \\/     M anipulation  |
\*---------------------------------------------------------------------------*/
FoamFile
{
    version     2.0;
    format      ascii;
    class       surfaceScalarField;
    location    "8";
    object      phi;
}
// * * * * * * * * * * * * * * * * * * * * * * * * * * * * * * * * * * * * * //

dimensions      [0 3 -1 0 0 0 0];

internalField   nonuniform List<scalar> 
816
(
-6.9783e-08
6.97822e-08
7.71288e-13
-2.83675e-07
2.1389e-07
2.39997e-12
-6.52729e-07
3.6905e-07
4.20397e-12
-1.18812e-06
5.35388e-07
-1.90107e-06
7.12934e-07
-2.8027e-06
9.01621e-07
-3.90398e-06
1.10128e-06
-5.21561e-06
1.31161e-06
-6.74783e-06
1.53221e-06
-8.51036e-06
1.76251e-06
-1.05122e-05
2.0018e-06
-1.27614e-05
2.24921e-06
-1.52651e-05
2.50369e-06
-1.80292e-05
2.76402e-06
-2.1058e-05
3.0288e-06
-2.43545e-05
3.29644e-06
-2.79197e-05
3.56516e-06
-3.17528e-05
3.83305e-06
-3.58508e-05
4.09798e-06
-4.02086e-05
4.35773e-06
-4.48186e-05
4.60997e-06
-4.9671e-05
4.85231e-06
-5.47534e-05
5.08235e-06
-6.00512e-05
5.29777e-06
5.49642e-06
-6.85631e-08
1.38345e-07
-2.78643e-07
4.2397e-07
-6.41006e-07
7.31413e-07
-1.16652e-06
1.0609e-06
-1.86605e-06
1.41247e-06
-2.75038e-06
1.78595e-06
-3.83007e-06
2.18097e-06
-5.11538e-06
2.59692e-06
-6.61608e-06
3.03292e-06
-8.34139e-06
3.48781e-06
-1.02997e-05
3.96013e-06
-1.24986e-05
4.44808e-06
-1.49444e-05
4.94951e-06
-1.76423e-05
5.46192e-06
-2.0596e-05
5.98244e-06
-2.38073e-05
6.50782e-06
-2.72766e-05
7.03443e-06
-3.10019e-05
7.55831e-06
-3.49791e-05
8.07516e-06
-3.92017e-05
8.58039e-06
-4.36609e-05
9.0692e-06
-4.83453e-05
9.53668e-06
-5.32408e-05
9.97786e-06
-5.8331e-05
1.03879e-05
1.07624e-05
-6.61442e-08
2.04489e-07
-2.68661e-07
6.26487e-07
-6.17747e-07
1.0805e-06
-1.12365e-06
1.5668e-06
-1.79656e-06
2.08538e-06
-2.64653e-06
2.63592e-06
-3.68333e-06
3.21777e-06
-4.91635e-06
3.82993e-06
-6.35443e-06
4.471e-06
-8.00576e-06
5.13914e-06
-9.87766e-06
5.83203e-06
-1.19764e-05
6.54685e-06
-1.43072e-05
7.28025e-06
-1.68736e-05
8.02833e-06
-1.96777e-05
8.78661e-06
-2.27199e-05
9.55002e-06
-2.59984e-05
1.03129e-05
-2.95093e-05
1.10692e-05
-3.32462e-05
1.1812e-05
-3.72001e-05
1.25343e-05
-4.13595e-05
1.32286e-05
-4.57098e-05
1.3887e-05
-5.02337e-05
1.45017e-05
-5.49109e-05
1.50652e-05
1.55701e-05
-6.25648e-08
2.67054e-07
-2.53885e-07
8.17807e-07
-5.83305e-07
1.40992e-06
-1.06015e-06
2.04364e-06
-1.6936e-06
2.71884e-06
-2.49262e-06
3.43494e-06
-3.4658e-06
4.19095e-06
-4.62123e-06
4.98537e-06
-5.96638e-06
5.81615e-06
-7.5079e-06
6.68065e-06
-9.25145e-06
7.57558e-06
-1.12016e-05
8.49695e-06
-1.33614e-05
9.44004e-06
-1.57324e-05
1.03994e-05
-1.83145e-05
1.13687e-05
-2.11053e-05
1.23408e-05
-2.41003e-05
1.3308e-05
-2.72925e-05
1.42614e-05
-3.06723e-05
1.51918e-05
-3.42269e-05
1.6089e-05
-3.79407e-05
1.69423e-05
-4.17946e-05
1.77409e-05
-4.57663e-05
1.84735e-05
-4.98301e-05
1.9129e-05
-5.39568e-05
1.96968e-05
2.01673e-05
-5.78783e-08
3.24933e-07
-2.34527e-07
9.94456e-07
-5.38164e-07
1.71355e-06
-9.76885e-07
2.48237e-06
-1.55855e-06
3.3005e-06
-2.29068e-06
4.16706e-06
-3.18028e-06
5.08055e-06
-4.23377e-06
6.03885e-06
-5.45674e-06
7.03912e-06
-6.85385e-06
8.07776e-06
-8.42858e-06
9.15032e-06
-1.01831e-05
1.02515e-05
-1.21179e-05
1.13749e-05
-1.42318e-05
1.25133e-05
-1.65215e-05
1.36583e-05
-1.89813e-05
1.48007e-05
-2.16032e-05
1.59298e-05
-2.43759e-05
1.70342e-05
-2.72855e-05
1.81014e-05
-3.03144e-05
1.91179e-05
-3.34416e-05
2.00695e-05
-3.66421e-05
2.09414e-05
-3.98871e-05
2.17184e-05
-4.31435e-05
2.23854e-05
-4.63742e-05
2.29275e-05
2.3331e-05
-5.21469e-08
3.77079e-07
-2.10836e-07
1.15315e-06
-4.8289e-07
1.98561e-06
-8.74887e-07
2.87436e-06
-1.39304e-06
3.81866e-06
-2.04307e-06
4.81709e-06
-2.83007e-06
5.86755e-06
-3.75832e-06
6.9671e-06
-4.83115e-06
8.11195e-06
-6.05072e-06
9.29734e-06
-7.41785e-06
1.05174e-05
-8.93174e-06
1.17653e-05
-1.05898e-05
1.30329e-05
-1.23872e-05
1.43107e-05
-1.4317e-05
1.55882e-05
-1.63695e-05
1.68531e-05
-1.85319e-05
1.80922e-05
-2.07883e-05
1.92906e-05
-2.31192e-05
2.04323e-05
-2.55011e-05
2.14998e-05
-2.79065e-05
2.24749e-05
-3.03031e-05
2.33381e-05
-3.26542e-05
2.40694e-05
-3.49176e-05
2.46488e-05
-3.70466e-05
2.50564e-05
2.52731e-05
-4.54352e-08
4.22515e-07
-1.83072e-07
1.29078e-06
-4.18071e-07
2.22061e-06
-7.55211e-07
3.2115e-06
-1.19875e-06
4.26219e-06
-1.75228e-06
5.37062e-06
-2.41858e-06
6.53385e-06
-3.19945e-06
7.74797e-06
-4.0955e-06
9.008e-06
-5.10597e-06
1.03078e-05
-6.22847e-06
1.16399e-05
-7.45876e-06
1.29956e-05
-8.79046e-06
1.43646e-05
-1.02148e-05
1.57351e-05
-1.17202e-05
1.70936e-05
-1.32923e-05
1.84251e-05
-1.49129e-05
1.97128e-05
-1.65604e-05
2.09381e-05
-1.8209e-05
2.20808e-05
-1.98283e-05
2.31191e-05
-2.1383e-05
2.40296e-05
-2.28326e-05
2.47876e-05
-2.41307e-05
2.53676e-05
-2.52251e-05
2.57433e-05
-2.60573e-05
2.58885e-05
-2.6562e-05
2.57779e-05
2.53876e-05
-3.78029e-08
4.60317e-07
-1.51471e-07
1.40445e-06
-3.44252e-07
2.41339e-06
-6.1884e-07
3.48609e-06
-9.77232e-07
4.62059e-06
-1.42057e-06
5.81397e-06
-1.94899e-06
7.06227e-06
-2.5614e-06
8.36038e-06
-3.2553e-06
9.7019e-06
-4.02655e-06
1.1079e-05
-4.86909e-06
1.24825e-05
-5.77474e-06
1.39013e-05
-6.73282e-06
1.53227e-05
-7.72988e-06
1.67321e-05
-8.74936e-06
1.81131e-05
-9.77119e-06
1.9447e-05
-1.07714e-05
2.07131e-05
-1.17219e-05
2.18886e-05
-1.25895e-05
2.29485e-05
-1.33361e-05
2.38657e-05
-1.39177e-05
2.46113e-05
-1.42844e-05
2.51543e-05
-1.43793e-05
2.54625e-05
-1.41385e-05
2.55024e-05
-1.34903e-05
2.52403e-05
-1.2355e-05
2.46426e-05
2.36773e-05
-2.92976e-08
4.89615e-07
-1.16228e-07
1.49138e-06
-2.6187e-07
2.55903e-06
-4.66568e-07
3.69079e-06
-7.29765e-07
4.88378e-06
-1.04984e-06
6.13404e-06
-1.42392e-06
7.43635e-06
-1.84767e-06
8.78413e-06
-2.31509e-06
1.01693e-05
-2.81822e-06
1.15822e-05
-3.34691e-06
1.30112e-05
-3.88852e-06
1.44429e-05
-4.42757e-06
1.58617e-05
-4.94539e-06
1.725e-05
-5.41979e-06
1.85875e-05
-5.82458e-06
1.98518e-05
-6.12917e-06
2.10177e-05
-6.29808e-06
2.20575e-05
-6.29044e-06
2.29408e-05
-6.0594e-06
2.36347e-05
-5.55162e-06
2.41035e-05
-4.70661e-06
2.43093e-05
-3.45606e-06
2.42119e-05
-1.72325e-06
2.37696e-05
5.77665e-07
2.29394e-05
3.54228e-06
2.1678e-05
7.27653e-06
1.9943e-05
1.76945e-05
-1.99495e-08
5.09565e-07
-7.74628e-08
1.54889e-06
-1.71209e-07
2.65278e-06
-2.98913e-07
3.81849e-06
-4.57178e-07
5.04205e-06
-6.41307e-07
6.31817e-06
-8.45096e-07
7.64014e-06
-1.06061e-06
8.99965e-06
-1.27795e-06
1.03867e-05
-1.48495e-06
1.17892e-05
-1.66692e-06
1.31932e-05
-1.80629e-06
1.45823e-05
-1.8823e-06
1.59377e-05
-1.87056e-06
1.72382e-05
-1.74266e-06
1.84596e-05
-1.46573e-06
1.95748e-05
-1.00193e-06
2.05539e-05
-3.07908e-07
2.13634e-05
6.65763e-07
2.19671e-05
1.97522e-06
2.23252e-05
3.684e-06
2.23947e-05
5.86376e-06
2.21295e-05
8.59507e-06
2.14806e-05
1.19683e-05
2.03965e-05
1.60843e-05
1.88234e-05
2.10557e-05
1.67066e-05
2.70074e-05
1.39913e-05
3.40776e-05
1.06242e-05
6.55581e-06
-9.76816e-09
5.19333e-07
-3.52184e-08
1.57434e-06
-7.2369e-08
2.68993e-06
-1.16066e-07
3.86219e-06
-1.59796e-07
5.08578e-06
-1.9548e-07
6.35385e-06
-2.1326e-07
7.65792e-06
-2.01252e-07
8.98764e-06
-1.45281e-07
1.03307e-05
-2.85866e-08
1.16725e-05
1.68495e-07
1.29961e-05
4.68881e-07
1.42819e-05
8.99129e-07
1.55075e-05
1.48985e-06
1.66475e-05
2.27615e-06
1.76733e-05
3.29815e-06
1.85528e-05
4.60152e-06
1.92505e-05
6.23805e-06
1.97269e-05
8.26631e-06
1.99389e-05
1.07524e-05
1.98392e-05
1.37705e-05
1.93766e-05
1.74041e-05
1.84959e-05
2.17466e-05
1.71381e-05
2.69025e-05
1.52405e-05
3.29885e-05
1.27375e-05
4.01344e-05
9.5607e-06
4.8485e-05
5.64079e-06
5.82006e-05
9.08554e-07
-4.7026e-06
1.25796e-09
5.18075e-07
1.05449e-08
1.56506e-06
3.47289e-08
2.66574e-06
8.20951e-08
3.81482e-06
1.62552e-07
5.00532e-06
2.87851e-07
6.22855e-06
4.71825e-07
7.47394e-06
7.3065e-07
8.72882e-06
1.08314e-06
9.9782e-06
1.55104e-06
1.12046e-05
2.1594e-06
1.23877e-05
2.93695e-06
1.35043e-05
3.91648e-06
1.4528e-05
5.13532e-06
1.54287e-05
6.63582e-06
1.61728e-05
8.46587e-06
1.67228e-05
1.06795e-05
1.70369e-05
1.33375e-05
1.70689e-05
1.65082e-05
1.67682e-05
2.0268e-05
1.60794e-05
2.47026e-05
1.4942e-05
2.99075e-05
1.3291e-05
3.59895e-05
1.10561e-05
4.30676e-05
8.16248e-06
5.12742e-05
4.53087e-06
6.07568e-05
7.80343e-08
7.16798e-05
-5.28214e-06
8.42256e-05
9.85973e-05
1.31552e-08
5.0492e-07
5.99265e-08
1.51829e-06
1.50297e-07
2.57537e-06
2.9593e-07
3.66919e-06
5.10397e-07
4.79085e-06
8.09412e-07
5.92954e-06
1.2111e-06
7.07226e-06
1.73625e-06
8.20366e-06
2.40868e-06
9.30577e-06
3.25553e-06
1.03577e-05
4.30765e-06
1.13356e-05
5.6e-06
1.2212e-05
7.17209e-06
1.29559e-05
9.06848e-06
1.35323e-05
1.13393e-05
1.3902e-05
1.40407e-05
1.40214e-05
1.72356e-05
1.38419e-05
2.09946e-05
1.331e-05
2.5396e-05
1.23668e-05
3.05275e-05
1.09479e-05
3.64864e-05
8.98311e-06
4.3381e-05
6.39634e-06
5.13317e-05
3.10544e-06
6.04719e-05
7.09502e-05
8.29312e-05
2.59573e-08
4.78962e-07
1.13049e-07
1.43119e-06
2.74593e-07
2.41383e-06
5.25873e-07
3.41791e-06
8.84382e-07
4.43235e-06
1.37008e-06
5.44384e-06
2.00568e-06
6.43666e-06
2.81694e-06
7.3924e-06
3.83302e-06
8.28968e-06
5.08684e-06
9.10391e-06
6.61547e-06
9.80696e-06
8.46057e-06
1.03669e-05
1.06689e-05
1.07476e-05
1.32926e-05
1.09085e-05
1.63903e-05
1.08044e-05
2.0027e-05
1.03847e-05
2.42752e-05
9.59366e-06
2.92155e-05
8.3696e-06
3.49375e-05
6.64481e-06
4.15402e-05
4.91335e-05
5.78389e-05
3.96903e-08
4.39272e-07
1.70003e-07
1.30088e-06
4.07802e-07
2.17603e-06
7.72217e-07
3.05349e-06
1.28491e-06
3.91965e-06
1.97036e-06
4.75839e-06
2.85617e-06
5.55086e-06
3.97338e-06
6.27519e-06
5.35685e-06
6.90621e-06
7.04567e-06
7.41509e-06
9.08355e-06
7.76908e-06
1.15193e-05
7.93113e-06
1.44074e-05
7.85952e-06
1.78083e-05
7.50758e-06
2.17894e-05
6.82323e-06
2.64254e-05
3.17991e-05
3.80019e-05
5.43573e-08
3.84915e-07
2.30785e-07
1.12445e-06
5.49886e-07
1.85693e-06
1.03485e-06
2.56853e-06
1.71174e-06
3.24276e-06
2.6098e-06
3.86032e-06
3.76181e-06
4.39885e-06
5.20439e-06
4.8326e-06
6.97847e-06
5.13213e-06
9.12965e-06
5.26392e-06
1.17087e-05
5.19004e-06
1.4772e-05
4.86778e-06
1.83823e-05
2.2609e-05
6.99224e-08
3.14992e-07
2.95236e-07
8.99141e-07
7.00452e-07
1.45171e-06
1.31301e-06
1.95597e-06
2.16358e-06
2.39219e-06
3.28641e-06
2.73749e-06
4.71969e-06
2.96557e-06
6.50592e-06
3.04638e-06
8.69236e-06
1.13315e-05
1.44815e-05
8.6302e-08
2.2869e-07
3.62999e-07
6.22444e-07
8.58658e-07
9.56054e-07
1.60512e-06
2.63783e-06
3.99624e-06
5.72415e-06
1.03354e-07
4.33496e-07
-6.97831e-08
-2.83676e-07
)
;

boundaryField
{
    inlet
    {
        type            calculated;
        value           nonuniform 0();
    }
    outlet
    {
        type            calculated;
        value           nonuniform 0();
    }
    cylinder
    {
        type            calculated;
        value           uniform 0;
    }
    top
    {
        type            symmetryPlane;
        value           nonuniform 0();
    }
    bottom
    {
        type            symmetryPlane;
        value           nonuniform 0();
    }
    defaultFaces
    {
        type            empty;
        value           nonuniform 0();
    }
    procBoundary21to15
    {
        type            processor;
        value           nonuniform List<scalar> 
26
(
6.03715e-12
7.93581e-12
9.89303e-12
1.19339e-11
1.41057e-11
1.6404e-11
1.8824e-11
2.1362e-11
2.40161e-11
2.67862e-11
2.96734e-11
3.26794e-11
3.58057e-11
3.9053e-11
4.24227e-11
4.59174e-11
4.95354e-11
5.32658e-11
5.70923e-11
6.09449e-11
6.47407e-11
6.83699e-11
6.97839e-08
2.13895e-07
3.69058e-07
-6.52729e-07
)
;
    }
    procBoundary21to16
    {
        type            processor;
        value           uniform -6.55477e-05;
    }
    procBoundary21to22
    {
        type            processor;
        value           nonuniform List<scalar> 
16
(
-6.3597e-05
-5.97186e-05
-1.60099e-05
-5.81142e-05
-4.95379e-05
-3.89887e-05
-2.52819e-05
-2.66677e-05
-1.06448e-05
-2.23151e-05
1.18971e-05
-1.48969e-05
4.24187e-05
6.9459e-05
1.12534e-05
0.00011502
)
;
    }
    procBoundary21to27
    {
        type            processor;
        value           nonuniform List<scalar> 
37
(
-1.16373e-05
-1.90743e-05
-2.76763e-05
-9.77777e-07
-5.94738e-06
-1.1903e-05
9.65982e-05
-1.89491e-05
4.34515e-06
1.3898e-06
-2.30904e-06
6.77907e-05
-6.84635e-06
5.74869e-06
4.22002e-06
2.16677e-06
4.51351e-05
-4.88379e-07
4.24924e-06
3.28094e-06
2.75288e-05
1.90339e-06
2.94569e-06
2.62478e-06
2.03999e-06
1.8207e-05
1.14235e-06
1.20952e-06
1.35948e-06
1.37908e-06
1.23767e-06
7.87016e-06
9.00358e-07
1.25336e-07
2.92302e-07
1.02316e-06
3.66394e-07
)
;
    }
}


// ************************************************************************* //
