/*--------------------------------*- C++ -*----------------------------------*\
  =========                 |
  \\      /  F ield         | OpenFOAM: The Open Source CFD Toolbox
   \\    /   O peration     | Website:  https://openfoam.org
    \\  /    A nd           | Version:  7
     \\/     M anipulation  |
\*---------------------------------------------------------------------------*/
FoamFile
{
    version     2.0;
    format      ascii;
    class       volScalarField;
    location    "0.5";
    object      p;
}
// * * * * * * * * * * * * * * * * * * * * * * * * * * * * * * * * * * * * * //

dimensions      [0 2 -2 0 0 0 0];

internalField   nonuniform List<scalar> 
344
(
3.84243
3.80695
3.77004
3.70191
3.63866
3.45383
3.92469
3.92397
3.92325
3.92253
3.92181
3.92109
3.92037
3.91965
3.91892
3.9182
3.91748
3.91676
3.91604
3.91532
3.91459
3.91386
3.91313
3.9124
3.91166
3.91092
3.91017
3.9094
3.90862
3.90779
3.90698
3.90604
3.90519
3.904
3.90317
3.90142
3.90087
3.89801
3.89865
3.8941
3.89808
3.89224
3.90247
3.89729
3.91274
3.90854
3.92222
3.91697
3.9248
3.91975
3.92489
3.92215
3.92812
3.927
3.93181
3.93208
3.93485
3.93463
3.93514
3.93524
3.93299
3.93075
3.92457
3.91957
3.90868
3.89799
3.88196
3.86535
3.83942
3.8058
3.75456
3.64804
3.92469
3.92397
3.92325
3.92253
3.92181
3.92109
3.92037
3.91965
3.91893
3.91821
3.91749
3.91677
3.91605
3.91533
3.91461
3.91388
3.91316
3.91243
3.9117
3.91096
3.91022
3.90946
3.90869
3.90789
3.9071
3.90621
3.90539
3.90429
3.90349
3.90195
3.90144
3.89908
3.89962
3.89616
3.89965
3.89557
3.90423
3.90099
3.91363
3.91128
3.92226
3.91927
3.92548
3.92275
3.92694
3.92608
3.93084
3.93158
3.93559
3.93748
3.94025
3.94192
3.94305
3.94512
3.94443
3.94471
3.9419
3.93989
3.93577
3.92948
3.92593
3.91323
3.90326
3.88076
3.85597
3.81008
3.92469
3.92397
3.92325
3.92253
3.92181
3.92109
3.92037
3.91965
3.91893
3.91822
3.9175
3.91678
3.91606
3.91534
3.91462
3.9139
3.91318
3.91245
3.91173
3.911
3.91026
3.90952
3.90877
3.90799
3.90722
3.90637
3.90559
3.90457
3.90382
3.90248
3.902
3.9001
3.90058
3.89803
3.90106
3.8984
3.90571
3.904
3.91436
3.91351
3.92248
3.92117
3.92631
3.92543
3.92883
3.9296
3.93361
3.93567
3.93954
3.94253
3.94579
3.9487
3.9512
3.95427
3.95591
3.958
3.9584
3.9594
3.95967
3.95925
3.95925
3.95976
3.95584
3.95834
3.94457
3.92755
3.92469
3.92397
3.92325
3.92253
3.92182
3.9211
3.92038
3.91966
3.91894
3.91822
3.9175
3.91679
3.91607
3.91535
3.91463
3.91392
3.9132
3.91248
3.91176
3.91104
3.91031
3.90958
3.90885
3.90809
3.90735
3.90654
3.90579
3.90486
3.90416
3.90301
3.90257
3.90106
3.9015
3.89972
3.90232
3.90081
3.90677
3.90649
3.91483
3.91539
3.92254
3.92288
3.92707
3.92777
3.9307
3.93276
3.93632
3.93954
3.94338
3.94737
3.95122
3.95531
3.95881
3.96348
3.96655
3.97091
3.97388
3.97791
3.98232
3.98615
3.99388
4.00079
4.00964
4.01182
4.01337
4.0177
3.9247
3.92398
3.92326
3.92254
3.92182
3.9211
3.92038
3.91966
3.91894
3.91823
3.91751
3.91679
3.91608
3.91536
3.91465
3.91393
3.91322
3.91251
3.91179
3.91108
3.91036
3.90964
3.90893
3.90819
3.90747
3.9067
3.90599
3.90514
3.90449
3.90351
3.90312
3.90197
3.90238
3.90122
3.90348
3.90288
3.90787
3.90854
3.91536
3.91693
3.92278
3.92436
3.92788
3.92988
3.93252
3.93561
3.93907
3.94306
3.9473
3.95191
3.95662
3.96151
3.96647
3.9719
3.97731
3.98282
3.98894
3.99495
4.00342
4.01128
4.02283
4.03481
4.04934
4.06837
4.08658
4.09042
3.9247
3.92398
3.92326
3.92254
3.92182
3.9211
3.92038
3.91967
)
;

boundaryField
{
    inlet
    {
        type            zeroGradient;
    }
    outlet
    {
        type            fixedValue;
        value           nonuniform 0();
    }
    wall
    {
        type            zeroGradient;
    }
    wedge1
    {
        type            wedge;
    }
    wedge2
    {
        type            wedge;
    }
    axis
    {
        type            empty;
    }
    procBoundary26to20
    {
        type            processor;
        value           nonuniform List<scalar> 
67
(
3.79708
3.74561
3.6991
3.58984
3.51085
3.17142
3.92469
3.92397
3.92325
3.92253
3.9218
3.92108
3.92036
3.91964
3.91892
3.9182
3.91748
3.91675
3.91603
3.9153
3.91458
3.91385
3.91311
3.91238
3.91163
3.91088
3.91012
3.90933
3.90854
3.9077
3.90686
3.90588
3.90501
3.90372
3.90286
3.90088
3.90032
3.89692
3.89761
3.89187
3.89629
3.8884
3.90021
3.89275
3.91133
3.9051
3.92182
3.91425
3.92372
3.91631
3.92265
3.9177
3.92519
3.92217
3.9277
3.92647
3.92926
3.92714
3.92677
3.92528
3.92146
3.91604
3.90745
3.89737
3.8831
3.8635
3.8635
)
;
    }
    procBoundary26to25
    {
        type            processor;
        value           nonuniform List<scalar> 5(3.92541 3.92541 3.92541 3.92541 3.92542);
    }
    procBoundary26to31
    {
        type            processor;
        value           uniform 3.92542;
    }
    procBoundary26to32
    {
        type            processor;
        value           nonuniform List<scalar> 
67
(
3.91895
3.91823
3.91752
3.9168
3.91609
3.91537
3.91466
3.91395
3.91324
3.91253
3.91182
3.91112
3.91041
3.9097
3.909
3.90829
3.90759
3.90686
3.90619
3.90542
3.90482
3.904
3.90367
3.90281
3.90322
3.90257
3.90455
3.90466
3.90886
3.91028
3.9159
3.91826
3.92312
3.92566
3.92879
3.93171
3.93438
3.93815
3.94185
3.94632
3.95116
3.95621
3.96189
3.9675
3.97364
3.98037
3.98699
3.99467
4.00247
4.01156
4.0221
4.03443
4.0489
4.06849
4.08881
4.11356
4.12317
4.15198
3.9247
3.92398
3.92326
3.92254
3.92182
3.9211
3.92039
3.91895
3.91967
)
;
    }
}


// ************************************************************************* //
