/*--------------------------------*- C++ -*----------------------------------*\
  =========                 |
  \\      /  F ield         | OpenFOAM: The Open Source CFD Toolbox
   \\    /   O peration     | Website:  https://openfoam.org
    \\  /    A nd           | Version:  7
     \\/     M anipulation  |
\*---------------------------------------------------------------------------*/
FoamFile
{
    version     2.0;
    format      ascii;
    class       volVectorField;
    location    "13";
    object      U;
}
// * * * * * * * * * * * * * * * * * * * * * * * * * * * * * * * * * * * * * //

dimensions      [0 1 -1 0 0 0 0];

internalField   nonuniform List<vector> 
433
(
(1.00014 -0.000371582 0)
(1.00338 -0.00103218 0)
(1.0085 -0.00155242 0)
(1.01448 -0.00194895 0)
(1.02059 -0.00223906 0)
(1.02644 -0.00244447 0)
(1.0318 -0.00257993 0)
(1.0366 -0.00266863 0)
(1.04081 -0.00271228 0)
(1.04453 -0.00275248 0)
(1.00014 -0.00110792 0)
(1.00342 -0.00306926 0)
(1.00859 -0.00461822 0)
(1.01464 -0.00580164 0)
(1.02083 -0.00666811 0)
(1.02675 -0.00728181 0)
(1.03218 -0.00768675 0)
(1.03705 -0.00795187 0)
(1.04132 -0.0080827 0)
(1.0451 -0.00819967 0)
(1.00015 -0.00183244 0)
(1.00349 -0.00506204 0)
(1.00877 -0.00762147 0)
(1.01494 -0.00958346 0)
(1.02127 -0.0110223 0)
(1.02734 -0.0120428 0)
(1.03291 -0.0127168 0)
(1.03791 -0.0131587 0)
(1.04228 -0.0133763 0)
(1.0462 -0.0135713 0)
(1.00016 -0.00255013 0)
(1.00359 -0.00702853 0)
(1.00901 -0.0105897 0)
(1.01536 -0.0133303 0)
(1.02189 -0.0153456 0)
(1.02817 -0.0167786 0)
(1.03393 -0.0177264 0)
(1.03913 -0.0183495 0)
(1.04366 -0.0186556 0)
(1.04776 -0.018933 0)
(1.00018 -0.00326623 0)
(1.00371 -0.00898142 0)
(1.00931 -0.013543 0)
(1.01589 -0.0170703 0)
(1.02266 -0.0196735 0)
(1.02921 -0.0215314 0)
(1.03523 -0.0227629 0)
(1.04068 -0.0235756 0)
(1.04541 -0.0239738 0)
(1.04976 -0.02434 0)
(1.0002 -0.00398452 0)
(1.00386 -0.010929 0)
(1.00965 -0.0164957 0)
(1.01649 -0.0208249 0)
(1.02356 -0.0240346 0)
(1.03043 -0.0263362 0)
(1.03676 -0.027866 0)
(1.04252 -0.0288807 0)
(1.0475 -0.0293766 0)
(1.05214 -0.0298405 0)
(1.00022 -0.00470731 0)
(1.00402 -0.0128762 0)
(1.01003 -0.0194574 0)
(1.01716 -0.0246096 0)
(1.02457 -0.0284506 0)
(1.03181 -0.0312211 0)
(1.03849 -0.033069 0)
(1.04461 -0.0343019 0)
(1.04988 -0.0349034 0)
(1.05487 -0.0354766 0)
(1.00024 -0.00543566 0)
(1.00419 -0.0148246 0)
(1.01043 -0.0224328 0)
(1.01787 -0.0284345 0)
(1.02565 -0.0329379 0)
(1.0333 -0.0362084 0)
(1.04039 -0.0383993 0)
(1.04692 -0.0398714 0)
(1.05252 -0.0405889 0)
(1.05792 -0.0412857 0)
(1.00027 -0.0061695 0)
(1.00436 -0.0167731 0)
(1.01082 -0.0254227 0)
(1.0186 -0.0323045 0)
(1.02677 -0.037507 0)
(1.03488 -0.0413153 0)
(1.04242 -0.0438798 0)
(1.04941 -0.0456167 0)
(1.05539 -0.0464635 0)
(1.06125 -0.0473019 0)
(1.0003 -0.00690776 0)
(1.00452 -0.0187179 0)
(1.01121 -0.028424 0)
(1.01932 -0.0362202 0)
(1.0279 -0.042164 0)
(1.0365 -0.0465544 0)
(1.04453 -0.049529 0)
(1.05204 -0.0515617 0)
(1.05844 -0.0525547 0)
(1.06481 -0.0535562 0)
(1.00033 -0.00764847 0)
(1.00468 -0.0206531 0)
(1.01157 -0.0314303 0)
(1.02 -0.0401774 0)
(1.02901 -0.04691 0)
(1.03813 -0.0519337 0)
(1.04669 -0.0553614 0)
(1.05477 -0.0577272 0)
(1.06163 -0.0588868 0)
(1.06857 -0.0600774 0)
(1.00036 -0.00838884 0)
(1.00482 -0.0225703 0)
(1.01189 -0.0344319 0)
(1.02064 -0.0441681 0)
(1.03007 -0.051742 0)
(1.03973 -0.0574572 0)
(1.04885 -0.061388 0)
(1.05754 -0.0641308 0)
(1.06492 -0.0654823 0)
(1.07248 -0.0668927 0)
(1.00039 -0.00912538 0)
(1.00494 -0.0244598 0)
(1.01215 -0.0374164 0)
(1.02118 -0.0481804 0)
(1.03103 -0.0566526 0)
(1.04125 -0.0631247 0)
(1.05097 -0.0676163 0)
(1.06032 -0.0707877 0)
(1.06826 -0.0723615 0)
(1.07649 -0.074028 0)
(1.00043 -0.00985403 0)
(1.00503 -0.0263103 0)
(1.01233 -0.0403688 0)
(1.02162 -0.0521984 0)
(1.03187 -0.0616306 0)
(1.04265 -0.0689321 0)
(1.05299 -0.0740506 0)
(1.06305 -0.0777105 0)
(1.0716 -0.0795429 0)
(1.08056 -0.0815085 0)
(1.00046 -0.0105703 0)
(1.00508 -0.0281092 0)
(1.01243 -0.0432721 0)
(1.02192 -0.0562033 0)
(1.03253 -0.0666606 0)
(1.04387 -0.0748712 0)
(1.05486 -0.0806914 0)
(1.06567 -0.0849095 0)
(1.07489 -0.0870436 0)
(1.08463 -0.0893586 0)
(1.0005 -0.0112692 0)
(1.0051 -0.0298435 0)
(1.01242 -0.0461074 0)
(1.02205 -0.0601729 0)
(1.03298 -0.0717238 0)
(1.04487 -0.0809296 0)
(1.05652 -0.0875362 0)
(1.06813 -0.0923924 0)
(1.07806 -0.0948795 0)
(1.08864 -0.0976027 0)
(1.00053 -0.0119456 0)
(1.00506 -0.0314996 0)
(1.01229 -0.0488547 0)
(1.02199 -0.0640823 0)
(1.03318 -0.0767974 0)
(1.0456 -0.0870909 0)
(1.05791 -0.0945788 0)
(1.07035 -0.100165 0)
(1.08106 -0.103065 0)
(1.09253 -0.106265 0)
(1.00057 -0.0125944 0)
(1.00498 -0.0330637 0)
(1.01203 -0.0514927 0)
(1.02171 -0.0679044 0)
(1.03309 -0.0818556 0)
(1.046 -0.0933341 0)
(1.05898 -0.101809 0)
(1.07228 -0.108229 0)
(1.08382 -0.111614 0)
(1.09624 -0.11537 0)
(1.0006 -0.0132103 0)
(1.00483 -0.0345227 0)
(1.01163 -0.0539998 0)
(1.0212 -0.07161 0)
(1.03268 -0.0868691 0)
(1.04602 -0.0996338 0)
(1.05965 -0.109214 0)
(1.07384 -0.116586 0)
(1.08628 -0.120537 0)
(1.0997 -0.124944 0)
(1.00064 -0.0137882 0)
(1.00463 -0.035864 0)
(1.01109 -0.0563543 0)
(1.02042 -0.0751686 0)
(1.03191 -0.0918056 0)
(1.04561 -0.10596 0)
(1.05986 -0.116776 0)
(1.07497 -0.125232 0)
(1.08836 -0.129847 0)
(1.10284 -0.135013 0)
(1.00067 -0.0143233 0)
(1.00436 -0.037076 0)
(1.0104 -0.0585345 0)
(1.01937 -0.0785488 0)
(1.03075 -0.0966303 0)
(1.04472 -0.112278 0)
(1.05956 -0.124473 0)
(1.07558 -0.13416 0)
(1.08999 -0.139551 0)
(1.10558 -0.145604 0)
(1.00071 -0.0148111 0)
(1.00403 -0.0381483 0)
(1.00955 -0.0605198 0)
(1.01803 -0.0817193 0)
(1.02918 -0.101306 0)
(1.0433 -0.118549 0)
(1.05867 -0.132279 0)
(1.0756 -0.143359 0)
(1.0911 -0.149659 0)
(1.10784 -0.156747 0)
(1.00074 -0.0152476 0)
(1.00364 -0.0390721 0)
(1.00855 -0.0622905 0)
(1.01639 -0.0846489 0)
(1.02718 -0.105792 0)
(1.04131 -0.124728 0)
(1.05714 -0.140164 0)
(1.07496 -0.152813 0)
(1.0916 -0.160176 0)
(1.10956 -0.168474 0)
(1.00077 -0.0156296 0)
(1.00318 -0.0398405 0)
(1.00739 -0.0638284 0)
(1.01445 -0.0873081 0)
(1.02472 -0.110047 0)
(1.0387 -0.130767 0)
(1.0549 -0.148092 0)
(1.07357 -0.1625 0)
(1.09141 -0.171108 0)
(1.11063 -0.180819 0)
(1.0008 -0.0159542 0)
(1.00266 -0.040448 0)
(1.0061 -0.0651174 0)
(1.0122 -0.0896688 0)
(1.02182 -0.114028 0)
(1.03545 -0.136616 0)
(1.05192 -0.156023 0)
(1.07137 -0.17239 0)
(1.09046 -0.182458 0)
(1.11099 -0.193816 0)
(1.00082 -0.0162196 0)
(1.00209 -0.0408911 0)
(1.00466 -0.0661439 0)
(1.00966 -0.0917057 0)
(1.01846 -0.117691 0)
(1.03152 -0.142219 0)
(1.04813 -0.163911 0)
(1.06826 -0.182444 0)
(1.08864 -0.194229 0)
(1.11053 -0.207504 0)
(1.00084 -0.0164246 0)
(1.00147 -0.0411683 0)
(1.0031 -0.0668967 0)
(1.00683 -0.0933964 0)
(1.01465 -0.120989 0)
(1.02688 -0.147522 0)
(1.04352 -0.171703 0)
(1.06417 -0.192617 0)
(1.0859 -0.206425 0)
(1.10917 -0.221918 0)
(1.00085 -0.0165689 0)
(1.0008 -0.0412795 0)
(1.00142 -0.0673682 0)
(1.00374 -0.0947216 0)
(1.01041 -0.123879 0)
(1.02154 -0.152469 0)
(1.03805 -0.179337 0)
(1.05901 -0.202853 0)
(1.08214 -0.219047 0)
(1.10682 -0.237091 0)
(1.00086 -0.0166529 0)
(1.0001 -0.0412267 0)
(0.999636 -0.067554 0)
(1.00041 -0.0956657 0)
(1.00575 -0.126318 0)
(1.0155 -0.157005 0)
(1.03171 -0.186743 0)
(1.05271 -0.213091 0)
(1.0773 -0.232099 0)
(1.10335 -0.253042 0)
(1.04658 -0.00271381 5.04994e-20)
(1.04734 -0.00270013 1.22646e-20)
(1.04816 -0.00268817 -6.70717e-20)
(1.04894 -0.00267384 7.58478e-20)
(1.04717 -0.00809052 -5.35299e-20)
(1.04793 -0.00805174 -4.08997e-20)
(1.04875 -0.00801818 2.20817e-21)
(1.04953 -0.00797741 6.74634e-20)
(1.04832 -0.0133881 6.2342e-20)
(1.04908 -0.0133233 -3.14469e-20)
(1.0499 -0.0132672 3.2194e-20)
(1.05068 -0.0131987 -8.86351e-20)
(1.04995 -0.0186721 -1.94827e-20)
(1.05073 -0.0185803 -3.29624e-20)
(1.05155 -0.0185009 1.7263e-19)
(1.05234 -0.0184039 1.268e-21)
(1.05204 -0.0239947 -1.44133e-19)
(1.05283 -0.0238738 1.18345e-19)
(1.05366 -0.0237692 -9.85011e-20)
(1.05447 -0.0236413 -2.39291e-19)
(1.05455 -0.029403 -1.53329e-21)
(1.05535 -0.0292504 -1.01719e-19)
(1.0562 -0.0291183 3.38947e-20)
(1.05702 -0.0289571 -5.96821e-20)
(1.05787 -0.0287953 4.38429e-20)
(1.05743 -0.0349375 3.98216e-19)
(1.05825 -0.0347501 -2.33814e-19)
(1.05911 -0.0345876 -1.57087e-19)
(1.05996 -0.0343899 1.14177e-20)
(1.06083 -0.0341916 3.90829e-20)
(1.06065 -0.0406347 -1.35878e-19)
(1.06151 -0.0404089 5.44527e-19)
(1.06238 -0.0402127 3.75337e-19)
(1.06326 -0.0399749 -7.67894e-20)
(1.06416 -0.0397367 -1.78256e-19)
(1.06418 -0.0465273 -3.612e-19)
(1.06507 -0.0462592 -5.164e-19)
(1.06597 -0.0460259 -1.95981e-19)
(1.06688 -0.0457438 -2.50215e-19)
(1.06781 -0.0454617 -5.32547e-20)
(1.06799 -0.0526457 7.37547e-20)
(1.06892 -0.052331 1.54248e-19)
(1.06984 -0.0520565 2.17745e-19)
(1.07079 -0.0517258 3.85826e-19)
(1.07176 -0.0513954 -9.41255e-20)
(1.07203 -0.0590179 7.06291e-20)
(1.07301 -0.0586519 3.11314e-19)
(1.07396 -0.0583321 -5.85099e-20)
(1.07495 -0.0579478 9.0004e-20)
(1.07597 -0.0575645 2.69225e-19)
(1.07627 -0.0656704 -3.47601e-19)
(1.07731 -0.0652482 -2.17404e-19)
(1.07829 -0.0648787 -4.40453e-19)
(1.07933 -0.0644357 1.71974e-20)
(1.0804 -0.0639943 3.60996e-19)
(1.08066 -0.0726286 4.77497e-19)
(1.08177 -0.0721451 -1.79939e-19)
(1.0828 -0.0717212 3.369e-19)
(1.0839 -0.0712139 -4.40055e-19)
(1.08503 -0.070709 3.49115e-20)
(1.08517 -0.0799171 -3.17139e-19)
(1.08637 -0.0793671 1.23057e-19)
(1.08743 -0.0788838 1.84438e-19)
(1.0886 -0.0783064 1.07913e-19)
(1.08981 -0.0777322 5.19252e-20)
(1.08975 -0.0875601 3.2301e-19)
(1.09104 -0.0869381 1.81935e-19)
(1.09216 -0.0863904 -3.45056e-19)
(1.09342 -0.0857366 -1.9578e-19)
(1.0947 -0.0850872 -1.14896e-19)
(1.09434 -0.0955817 1.21667e-19)
(1.09575 -0.094882 4.29548e-20)
(1.09694 -0.0942646 1.77979e-19)
(1.09829 -0.093528 2.92211e-19)
(1.09967 -0.0927968 -2.28928e-19)
(1.09891 -0.104006 -1.3022e-19)
(1.10045 -0.103223 8.13211e-19)
(1.10172 -0.10253 -4.51406e-20)
(1.10317 -0.101704 8.86369e-20)
(1.10466 -0.100884 -7.67968e-20)
(1.10339 -0.112858 -4.38112e-19)
(1.10509 -0.111985 -5.45877e-19)
(1.10645 -0.111212 2.05089e-19)
(1.10803 -0.110288 -8.27879e-20)
(1.10964 -0.109372 7.23389e-20)
(1.10773 -0.122163 -8.28374e-19)
(1.10962 -0.121195 -2.42935e-19)
(1.11108 -0.120335 -6.46847e-19)
(1.11281 -0.119306 -9.01764e-19)
(1.11457 -0.118287 -7.14017e-20)
(1.11188 -0.131947 3.94866e-20)
(1.11399 -0.130879 -9.67894e-19)
(1.11557 -0.129926 3.31297e-19)
(1.11747 -0.128784 1.4581e-18)
(1.1194 -0.127653 6.72873e-19)
(1.11577 -0.14224 3.36606e-19)
(1.11814 -0.141065 1.72571e-18)
(1.11987 -0.140013 5.76866e-21)
(1.12197 -0.13875 -1.1028e-18)
(1.12408 -0.137499 4.57463e-19)
(1.11936 -0.153071 1.79261e-18)
(1.12202 -0.151784 -4.52472e-19)
(1.12392 -0.150627 5.02951e-19)
(1.12624 -0.149232 7.63202e-19)
(1.12857 -0.147852 -1.14339e-18)
(1.12257 -0.164473 -2.41093e-18)
(1.12558 -0.163069 -1.09757e-18)
(1.12768 -0.161799 -5.62793e-19)
(1.13026 -0.160264 5.93336e-19)
(1.13284 -0.158745 9.93556e-19)
(1.12535 -0.176482 2.89874e-18)
(1.12877 -0.174955 2.42182e-19)
(1.1311 -0.173567 6.25687e-19)
(1.13397 -0.17188 -1.47414e-18)
(1.13683 -0.170212 5.57083e-19)
(1.12764 -0.189137 -2.29952e-18)
(1.13152 -0.187483 1.97986e-19)
(1.13413 -0.185969 -1.79856e-18)
(1.13733 -0.184121 5.87556e-19)
(1.14051 -0.182292 -2.60796e-18)
(1.12937 -0.202479 2.6863e-19)
(1.1338 -0.200694 8.98715e-20)
(1.13672 -0.199049 1.01502e-18)
(1.14031 -0.197028 6.75043e-19)
(1.14384 -0.195027 2.40946e-18)
(1.13048 -0.216552 2.44701e-19)
(1.13554 -0.214636 1.99548e-18)
(1.13882 -0.212854 -8.65837e-19)
(1.14284 -0.21065 -1.51985e-19)
(1.14679 -0.208466 -3.07366e-18)
(1.13091 -0.231399 8.04942e-19)
(1.1367 -0.229354 -3.17343e-18)
(1.14039 -0.227432 1.06487e-18)
(1.14491 -0.225035 1.3093e-18)
(1.14931 -0.222657 1.50452e-18)
(1.13056 -0.247058 -6.43951e-19)
(1.13719 -0.24489 2.09172e-18)
(1.14136 -0.242831 -1.07743e-18)
(1.14644 -0.240233 -3.87751e-19)
(1.15137 -0.237653 6.77922e-19)
(1.14166 -0.25909 -1.13003e-18)
(1.14737 -0.25629 -3.4615e-18)
(1.15289 -0.253503 9.42779e-19)
)
;

boundaryField
{
    inlet
    {
        type            uniformFixedValue;
        uniformValue    constant (1 0 0);
        value           uniform (1 0 0);
    }
    outlet
    {
        type            pressureInletOutletVelocity;
        value           nonuniform 0();
    }
    cylinder
    {
        type            fixedValue;
        value           nonuniform 0();
    }
    top
    {
        type            symmetryPlane;
    }
    bottom
    {
        type            symmetryPlane;
    }
    defaultFaces
    {
        type            empty;
    }
    procBoundary0to1
    {
        type            processor;
        value           nonuniform List<vector> 
31
(
(1.04973 -0.00265939 1.50968e-19)
(1.05032 -0.00793634 9.9151e-20)
(1.05148 -0.0131297 7.34193e-20)
(1.05316 -0.0183062 -6.7573e-20)
(1.0553 -0.0235128 -8.03257e-20)
(1.0553 -0.0235128 -8.03257e-20)
(1.05872 -0.028634 -2.58277e-20)
(1.06171 -0.0339943 3.52422e-20)
(1.06507 -0.0394999 -5.52479e-20)
(1.06876 -0.0451816 9.368e-20)
(1.07274 -0.0510677 1.59654e-19)
(1.077 -0.0571846 2.64207e-20)
(1.08149 -0.0635573 -1.14674e-19)
(1.08618 -0.0702097 9.59477e-21)
(1.09103 -0.0771648 8.97458e-20)
(1.09601 -0.0844457 -2.15138e-19)
(1.10107 -0.0920749 2.03686e-19)
(1.10618 -0.100075 -3.3839e-19)
(1.11129 -0.108469 2.81782e-19)
(1.11637 -0.117282 -7.96425e-20)
(1.12136 -0.126538 4.20431e-19)
(1.12623 -0.136265 -5.10262e-19)
(1.13094 -0.146491 1.01813e-18)
(1.13545 -0.157246 -5.75176e-19)
(1.13972 -0.168564 3.51989e-19)
(1.14372 -0.180484 -9.40482e-19)
(1.14741 -0.193048 2.36053e-19)
(1.15077 -0.206302 1.20011e-18)
(1.15375 -0.220297 -1.99751e-18)
(1.15632 -0.235085 -8.81108e-19)
(1.15842 -0.25072 1.47276e-18)
)
;
    }
    procBoundary0to6
    {
        type            processor;
        value           nonuniform List<vector> 
16
(
(1.00086 -0.0166778 0)
(0.999377 -0.0410131 0)
(0.99776 -0.0674535 0)
(0.996875 -0.0962169 0)
(1.0007 -0.128266 0)
(1.00877 -0.161077 0)
(1.02449 -0.193838 0)
(1.0452 -0.223265 0)
(1.07135 -0.245577 0)
(1.09864 -0.269773 0)
(1.12932 -0.263554 -1.84049e-19)
(1.13693 -0.261277 2.41376e-18)
(1.13693 -0.261277 2.41376e-18)
(1.14117 -0.276234 -1.99208e-19)
(1.14759 -0.27324 -2.95595e-18)
(1.15378 -0.270251 -4.33533e-19)
)
;
    }
}


// ************************************************************************* //
