/*--------------------------------*- C++ -*----------------------------------*\
  =========                 |
  \\      /  F ield         | OpenFOAM: The Open Source CFD Toolbox
   \\    /   O peration     | Website:  https://openfoam.org
    \\  /    A nd           | Version:  7
     \\/     M anipulation  |
\*---------------------------------------------------------------------------*/
FoamFile
{
    version     2.0;
    format      ascii;
    class       volScalarField;
    location    "92.999452";
    object      p;
}
// * * * * * * * * * * * * * * * * * * * * * * * * * * * * * * * * * * * * * //

dimensions      [0 2 -2 0 0 0 0];

internalField   nonuniform List<scalar> 
23200
(
-0.225945
-0.227713
-0.228781
-0.229613
-0.230335
-0.23097
-0.231554
-0.232113
-0.232658
-0.233187
-0.233686
-0.234136
-0.234511
-0.234779
-0.234907
-0.234862
-0.234612
-0.234159
-0.233497
-0.232558
-0.225786
-0.227512
-0.228553
-0.229361
-0.230058
-0.230663
-0.231214
-0.231734
-0.232236
-0.232715
-0.233161
-0.233555
-0.233873
-0.23409
-0.234181
-0.234121
-0.233892
-0.233519
-0.233029
-0.232277
-0.22589
-0.227547
-0.228546
-0.229317
-0.229976
-0.230543
-0.231051
-0.231526
-0.231977
-0.232402
-0.23279
-0.233124
-0.233384
-0.233548
-0.233598
-0.23352
-0.233302
-0.232984
-0.232666
-0.231918
-0.226244
-0.227807
-0.228748
-0.22947
-0.230081
-0.230599
-0.231057
-0.231478
-0.231871
-0.232235
-0.232559
-0.232829
-0.233027
-0.233135
-0.23314
-0.233038
-0.232821
-0.232519
-0.232414
-0.231411
-0.226827
-0.228276
-0.229146
-0.229808
-0.230361
-0.23082
-0.231216
-0.231574
-0.231901
-0.232196
-0.23245
-0.23265
-0.23278
-0.232827
-0.232781
-0.232648
-0.232426
-0.232073
-0.2323
-0.230666
-0.227617
-0.228936
-0.229724
-0.230315
-0.230798
-0.231187
-0.231512
-0.231795
-0.232046
-0.232263
-0.232438
-0.23256
-0.232615
-0.232593
-0.232488
-0.232316
-0.2321
-0.231572
-0.232372
-0.229579
-0.228587
-0.229766
-0.230463
-0.230973
-0.231375
-0.231683
-0.231925
-0.232122
-0.232284
-0.232411
-0.232497
-0.232531
-0.232502
-0.232403
-0.232229
-0.232002
-0.231836
-0.230943
-0.232632
-0.228171
-0.229712
-0.230745
-0.231344
-0.231765
-0.232076
-0.232289
-0.232434
-0.23253
-0.232591
-0.232615
-0.232599
-0.232533
-0.232409
-0.232224
-0.231972
-0.23166
-0.231621
-0.230201
-0.23271
-0.22691
-0.230967
-0.231856
-0.232352
-0.232675
-0.232882
-0.232988
-0.23302
-0.233002
-0.232944
-0.232851
-0.232719
-0.23254
-0.232309
-0.232026
-0.231694
-0.231263
-0.231278
-0.22955
-0.232672
-0.225442
-0.232334
-0.233082
-0.233472
-0.233688
-0.233781
-0.233764
-0.233668
-0.233517
-0.233324
-0.233097
-0.232833
-0.232528
-0.232176
-0.231784
-0.23135
-0.230822
-0.230879
-0.228697
-0.232736
-0.223681
-0.233798
-0.234412
-0.234693
-0.234796
-0.23476
-0.234606
-0.234364
-0.234061
-0.233716
-0.233337
-0.232925
-0.232479
-0.231995
-0.231481
-0.230943
-0.230276
-0.230456
-0.227582
-0.232867
-0.221716
-0.235351
-0.235842
-0.236013
-0.235991
-0.235815
-0.235507
-0.2351
-0.234627
-0.23411
-0.233561
-0.232986
-0.232385
-0.231757
-0.231111
-0.230466
-0.22962
-0.229988
-0.226286
-0.232914
-0.219735
-0.236995
-0.237372
-0.23743
-0.237275
-0.236944
-0.236464
-0.235874
-0.235211
-0.234503
-0.233768
-0.233015
-0.232247
-0.231464
-0.230676
-0.229924
-0.228875
-0.229424
-0.224905
-0.232636
-0.218019
-0.23874
-0.239012
-0.238952
-0.238653
-0.238152
-0.237483
-0.23669
-0.235818
-0.234902
-0.233964
-0.23302
-0.232074
-0.231129
-0.23019
-0.229324
-0.228074
-0.228693
-0.223595
-0.231697
-0.216787
-0.240606
-0.240778
-0.240594
-0.240138
-0.23945
-0.238572
-0.237558
-0.23646
-0.235319
-0.234165
-0.233018
-0.231886
-0.230771
-0.229673
-0.228673
-0.227247
-0.227706
-0.222475
-0.229816
-0.215967
-0.242622
-0.242693
-0.242376
-0.241747
-0.240855
-0.239751
-0.238497
-0.237155
-0.235775
-0.234393
-0.233033
-0.231707
-0.230415
-0.229146
-0.227973
-0.226399
-0.226401
-0.221515
-0.226964
-0.215123
-0.244825
-0.244789
-0.244323
-0.243505
-0.24239
-0.241039
-0.239529
-0.237928
-0.236297
-0.234677
-0.233097
-0.231567
-0.230084
-0.228624
-0.22722
-0.225484
-0.224767
-0.220486
-0.223384
-0.213719
-0.247262
-0.247104
-0.246465
-0.245441
-0.244082
-0.242467
-0.240683
-0.23881
-0.236917
-0.235051
-0.233241
-0.231494
-0.229795
-0.228105
-0.226397
-0.224415
-0.222818
-0.219049
-0.219331
-0.211464
-0.24998
-0.249668
-0.248847
-0.247588
-0.245962
-0.244064
-0.241991
-0.239836
-0.237671
-0.235549
-0.233496
-0.23151
-0.229555
-0.22757
-0.225465
-0.223088
-0.220552
-0.216931
-0.214812
-0.208406
-0.253035
-0.252535
-0.251501
-0.249981
-0.248066
-0.245866
-0.243491
-0.24104
-0.238594
-0.236204
-0.233888
-0.231625
-0.229353
-0.22698
-0.224368
-0.221417
-0.217948
-0.214014
-0.209749
-0.204704
-0.256485
-0.255749
-0.254467
-0.252659
-0.250431
-0.24791
-0.245217
-0.242461
-0.239722
-0.237045
-0.234432
-0.231837
-0.229163
-0.226285
-0.223035
-0.219347
-0.214975
-0.210345
-0.204552
-0.200136
-0.260378
-0.259357
-0.257789
-0.255662
-0.253096
-0.250234
-0.247209
-0.244134
-0.241084
-0.238091
-0.235132
-0.232126
-0.228939
-0.225424
-0.221406
-0.216862
-0.211592
-0.20605
-0.199606
-0.194102
-0.264768
-0.263403
-0.261508
-0.25903
-0.256099
-0.252876
-0.249505
-0.246093
-0.242707
-0.239355
-0.235977
-0.232456
-0.228627
-0.224337
-0.219438
-0.213966
-0.207792
-0.201428
-0.194292
-0.187953
-0.269703
-0.26793
-0.265664
-0.262803
-0.25948
-0.255877
-0.25214
-0.248369
-0.244609
-0.240832
-0.23694
-0.232777
-0.228166
-0.222973
-0.21711
-0.210681
-0.203653
-0.196517
-0.188813
-0.181917
-0.275226
-0.272976
-0.270297
-0.267019
-0.263279
-0.259275
-0.255149
-0.250985
-0.246794
-0.242506
-0.237977
-0.233028
-0.227494
-0.221292
-0.21442
-0.207048
-0.199224
-0.191413
-0.183219
-0.17587
-0.281375
-0.278577
-0.275443
-0.271717
-0.267535
-0.263107
-0.258563
-0.253958
-0.249256
-0.244339
-0.239028
-0.233141
-0.226558
-0.219273
-0.211381
-0.203108
-0.19456
-0.186154
-0.17753
-0.169834
-0.288178
-0.284765
-0.281135
-0.276933
-0.272284
-0.267405
-0.262403
-0.257286
-0.251966
-0.246276
-0.24002
-0.233046
-0.22531
-0.216904
-0.208014
-0.198898
-0.189696
-0.18076
-0.171763
-0.163754
-0.295657
-0.291561
-0.287401
-0.282697
-0.277559
-0.272195
-0.266675
-0.260951
-0.254874
-0.248243
-0.240872
-0.232676
-0.223716
-0.214184
-0.204338
-0.194443
-0.184649
-0.175236
-0.165906
-0.157615
-0.303819
-0.298982
-0.29426
-0.289034
-0.283378
-0.277484
-0.271366
-0.264907
-0.257905
-0.250146
-0.241496
-0.23197
-0.22175
-0.211116
-0.200367
-0.189755
-0.179422
-0.169573
-0.159946
-0.15139
-0.31266
-0.307027
-0.301721
-0.295954
-0.289749
-0.283262
-0.276436
-0.269081
-0.26096
-0.251882
-0.241805
-0.230877
-0.219394
-0.2077
-0.196105
-0.184833
-0.174004
-0.163754
-0.153862
-0.14506
-0.322155
-0.315682
-0.309776
-0.303449
-0.296654
-0.289488
-0.281812
-0.273371
-0.263919
-0.253338
-0.241719
-0.229352
-0.216629
-0.20393
-0.191547
-0.179666
-0.168379
-0.157761
-0.147632
-0.138601
-0.332254
-0.324911
-0.318395
-0.31149
-0.304048
-0.296089
-0.287387
-0.277643
-0.266646
-0.254401
-0.241162
-0.227355
-0.213438
-0.199792
-0.186677
-0.174232
-0.162523
-0.151568
-0.141233
-0.131994
-0.342883
-0.334654
-0.327524
-0.320015
-0.31185
-0.302954
-0.293021
-0.281741
-0.268998
-0.254964
-0.240068
-0.224848
-0.209794
-0.195263
-0.181469
-0.168507
-0.15641
-0.145152
-0.134642
-0.125217
-0.353936
-0.344821
-0.337078
-0.328931
-0.319942
-0.309934
-0.298541
-0.285494
-0.270829
-0.254925
-0.238374
-0.221792
-0.205669
-0.190316
-0.175896
-0.16246
-0.150011
-0.138488
-0.127834
-0.118249
-0.365274
-0.35529
-0.346938
-0.338104
-0.328165
-0.316842
-0.303747
-0.288718
-0.271999
-0.254188
-0.236018
-0.218145
-0.201025
-0.184915
-0.169922
-0.156059
-0.143297
-0.13155
-0.120787
-0.111071
-0.376722
-0.365905
-0.356945
-0.347361
-0.33632
-0.32346
-0.308425
-0.291229
-0.272372
-0.252664
-0.232942
-0.21386
-0.195822
-0.179022
-0.163513
-0.149271
-0.136241
-0.124314
-0.113478
-0.103665
-0.388071
-0.376472
-0.366905
-0.356489
-0.344173
-0.329543
-0.312349
-0.292851
-0.271825
-0.250271
-0.229086
-0.208888
-0.190016
-0.172595
-0.156631
-0.142065
-0.128814
-0.116757
-0.105887
-0.0960125
-0.399075
-0.386765
-0.376585
-0.365237
-0.351458
-0.334832
-0.315296
-0.293412
-0.27024
-0.246929
-0.224388
-0.203179
-0.18356
-0.165594
-0.14924
-0.134408
-0.120991
-0.108857
-0.0979929
-0.0880991
-0.409462
-0.396523
-0.38572
-0.373325
-0.357888
-0.339061
-0.317048
-0.292758
-0.267511
-0.24256
-0.218788
-0.196678
-0.176408
-0.157978
-0.141305
-0.126273
-0.11275
-0.100595
-0.0897795
-0.0799151
-0.418931
-0.405459
-0.394013
-0.380446
-0.363164
-0.341967
-0.317402
-0.290744
-0.263539
-0.237092
-0.212228
-0.189336
-0.168514
-0.149708
-0.132795
-0.117632
-0.104068
-0.0919532
-0.0812359
-0.0714604
-0.427165
-0.413263
-0.401148
-0.386283
-0.366987
-0.3433
-0.316173
-0.287242
-0.258235
-0.230457
-0.204649
-0.181102
-0.159838
-0.140749
-0.12368
-0.108463
-0.0949264
-0.0829156
-0.0723539
-0.0627403
-0.433831
-0.419609
-0.406797
-0.39051
-0.369065
-0.342826
-0.313194
-0.282141
-0.251518
-0.222591
-0.195998
-0.171931
-0.15034
-0.13107
-0.113935
-0.0987456
-0.0853093
-0.0734668
-0.0631221
-0.0537483
-0.438598
-0.424168
-0.410627
-0.392812
-0.369126
-0.340339
-0.308322
-0.275342
-0.243318
-0.213439
-0.186229
-0.161785
-0.13999
-0.120646
-0.103542
-0.0884647
-0.0752037
-0.0635949
-0.0535248
-0.0444476
-0.441139
-0.426614
-0.412317
-0.392891
-0.366922
-0.33566
-0.301437
-0.266764
-0.233574
-0.202951
-0.175302
-0.15063
-0.12876
-0.109457
-0.0924851
-0.0776088
-0.0646002
-0.0532968
-0.0435595
-0.0347601
-0.441144
-0.426634
-0.411559
-0.390473
-0.362241
-0.32864
-0.292444
-0.256344
-0.222239
-0.191091
-0.163185
-0.138441
-0.116631
-0.0974888
-0.0807527
-0.0661694
-0.0534946
-0.0425762
-0.0332547
-0.0246326
-0.438326
-0.423939
-0.408079
-0.385321
-0.354906
-0.319166
-0.281272
-0.244036
-0.20928
-0.17783
-0.149857
-0.125202
-0.103591
-0.0847313
-0.06834
-0.054144
-0.041896
-0.0314412
-0.0226135
-0.0141915
-0.432432
-0.418272
-0.401635
-0.377238
-0.34478
-0.307154
-0.267874
-0.229811
-0.194676
-0.163154
-0.135304
-0.110902
-0.089634
-0.0711851
-0.0552571
-0.0415438
-0.0298311
-0.0199338
-0.0115202
-0.00358634
-0.423249
-0.409414
-0.392031
-0.366074
-0.331769
-0.292558
-0.252231
-0.213661
-0.178423
-0.147055
-0.119521
-0.0955409
-0.0747749
-0.056868
-0.0415322
-0.0284065
-0.0172922
-0.00801758
-6.82191e-05
0.00724139
-0.410611
-0.397194
-0.379119
-0.351725
-0.315823
-0.275363
-0.234345
-0.195594
-0.160525
-0.129541
-0.102528
-0.0791395
-0.0590548
-0.0418166
-0.0271552
-0.0147255
-0.00430379
0.00429479
0.0116949
0.0183148
-0.3944
-0.38149
-0.362802
-0.334138
-0.29693
-0.255587
-0.214247
-0.175636
-0.141005
-0.110643
-0.0843787
-0.0617654
-0.0424553
-0.02603
-0.0121626
-0.000525707
0.00911413
0.0169747
0.0237449
0.0296257
-0.374555
-0.362235
-0.343038
-0.31331
-0.275124
-0.233283
-0.191989
-0.153834
-0.119915
-0.0904525
-0.0650816
-0.043411
-0.0250328
-0.0095436
0.00341294
0.0141604
0.0229342
0.0299903
0.0360606
0.0411495
-0.351068
-0.339416
-0.31984
-0.289286
-0.25048
-0.208534
-0.167647
-0.130269
-0.097362
-0.0689608
-0.0446944
-0.024129
-0.0068331
0.0075975
0.0195322
0.0292951
0.0371224
0.0433077
0.0486132
0.0528532
-0.323988
-0.313076
-0.293275
-0.262167
-0.223117
-0.181441
-0.141319
-0.105039
-0.0733783
-0.0462616
-0.023284
-0.00398236
0.0120894
0.0253414
0.036149
0.0448358
0.0516394
0.0568897
0.0613666
0.0646967
-0.293421
-0.283311
-0.263467
-0.23211
-0.193171
-0.15211
-0.113132
-0.0782422
-0.0480669
-0.022443
-0.000929778
0.0169562
0.0316708
0.0436297
0.0532106
0.060734
0.0664414
0.070697
0.0742832
0.0766387
-0.259521
-0.250273
-0.230597
-0.199287
-0.160729
-0.120737
-0.0832342
-0.050006
-0.0215433
0.00239388
0.0222777
0.0386051
0.0518384
0.0623968
0.0706574
0.0769354
0.0814802
0.0846907
0.0873294
0.0886448
-0.222476
-0.214173
-0.194879
-0.163782
-0.126037
-0.0875382
-0.0517935
-0.0204774
0.00606306
0.0281354
0.0462369
0.0608735
0.0725111
0.0815703
0.0884235
0.0933799
0.0967047
0.098832
0.100469
0.100672
-0.182475
-0.175301
-0.156459
-0.125801
-0.0894599
-0.0527038
-0.018994
0.0101815
0.0346098
0.0546556
0.0708357
0.0836616
0.0936007
0.101071
0.106438
0.110005
0.112065
0.113079
0.113628
0.112578
-0.13975
-0.133977
-0.115437
-0.0859326
-0.0511792
-0.0164585
0.0149643
0.0417955
0.0639423
0.0818176
0.0959528
0.106862
0.115012
0.120815
0.124626
0.126749
0.12752
0.127378
0.126642
0.124023
-0.0946438
-0.0903786
-0.0725209
-0.0443346
-0.0114583
0.0209552
0.0498687
0.0741772
0.093895
0.109475
0.121458
0.13036
0.136643
0.140712
0.14291
0.143557
0.143029
0.141655
0.139303
0.134734
-0.0478589
-0.044732
-0.0279483
-0.00130897
0.0294164
0.0592819
0.0854943
0.107128
0.124293
0.137472
0.147215
0.154034
0.158387
0.160668
0.161212
0.160365
0.158524
0.155794
0.151567
0.14535
0.000485146
0.00242816
0.0179531
0.0428083
0.0711415
0.0982542
0.121606
0.140442
0.154952
0.165648
0.173081
0.177758
0.180131
0.180583
0.179448
0.177093
0.173889
0.16966
0.163551
0.15788
0.0499996
0.0506805
0.0648096
0.087667
0.113402
0.137595
0.15796
0.173902
0.185683
0.193834
0.198906
0.201401
0.201761
0.20036
0.197532
0.19365
0.18901
0.183255
0.175801
0.170361
0.10025
0.0996189
0.112228
0.132907
0.155877
0.177021
0.194308
0.207291
0.216293
0.221859
0.224539
0.224829
0.223159
0.219895
0.215371
0.20995
0.203849
0.196657
0.188144
0.182331
0.1508
0.148827
0.159808
0.178162
0.19824
0.216245
0.230397
0.240384
0.246582
0.249548
0.249827
0.247906
0.244206
0.239084
0.23287
0.225907
0.218352
0.209821
0.200361
0.193869
0.20121
0.19788
0.207146
0.223065
0.240163
0.254979
0.265972
0.272957
0.276354
0.276726
0.274615
0.270496
0.264781
0.257819
0.249934
0.241442
0.232464
0.222667
0.212278
0.204939
0.251041
0.246355
0.253841
0.267251
0.281324
0.292937
0.300782
0.304787
0.30541
0.303219
0.298747
0.292462
0.284765
0.275996
0.266468
0.256477
0.246118
0.235112
0.223804
0.215534
0.299859
0.293828
0.299497
0.310361
0.321403
0.329837
0.334577
0.335653
0.333556
0.328854
0.322073
0.313671
0.30404
0.293509
0.282381
0.270931
0.25924
0.247078
0.234861
0.22562
0.347237
0.339888
0.343727
0.352046
0.360088
0.365404
0.367114
0.365341
0.3606
0.353461
0.344442
0.333991
0.322489
0.310256
0.297584
0.284728
0.271759
0.258494
0.24539
0.235158
0.392759
0.384132
0.386156
0.391965
0.397079
0.399373
0.398157
0.39364
0.386358
0.376878
0.36571
0.353294
0.34
0.326139
0.311989
0.29779
0.283607
0.269297
0.255335
0.244112
0.436029
0.426175
0.426427
0.429797
0.432089
0.431487
0.427482
0.420352
0.410652
0.398947
0.385739
0.371459
0.356465
0.341061
0.325513
0.310043
0.294716
0.279425
0.264644
0.252443
0.476668
0.465653
0.464198
0.465236
0.464845
0.461507
0.454872
0.445285
0.433314
0.41952
0.404398
0.388368
0.371782
0.354933
0.338076
0.321419
0.305024
0.288824
0.273268
0.260118
0.514321
0.502221
0.499154
0.497993
0.495093
0.489206
0.48013
0.468263
0.454185
0.438456
0.421561
0.403914
0.385855
0.367671
0.349604
0.33185
0.314475
0.29744
0.281162
0.267105
0.54866
0.535564
0.530999
0.527806
0.522599
0.514376
0.503068
0.48912
0.473121
0.455627
0.437117
0.417995
0.398595
0.379195
0.360028
0.341278
0.323013
0.305225
0.288286
0.273375
0.579386
0.565393
0.559466
0.554435
0.547147
0.536827
0.523518
0.507706
0.489988
0.470914
0.450959
0.430519
0.409922
0.389436
0.369287
0.349646
0.33059
0.312134
0.2946
0.278904
0.606231
0.591449
0.584318
0.577664
0.568548
0.556389
0.541329
0.523887
0.504666
0.484213
0.462995
0.441405
0.419762
0.398329
0.377323
0.356907
0.337163
0.318129
0.300072
0.283671
0.628961
0.613509
0.605347
0.597307
0.586635
0.572915
0.55637
0.537547
0.517053
0.495431
0.473145
0.45058
0.428052
0.405819
0.384087
0.363016
0.342693
0.323174
0.304672
0.287658
0.64738
0.631381
0.622376
0.613205
0.601268
0.586279
0.56853
0.548587
0.52706
0.50449
0.481338
0.457984
0.43474
0.411858
0.38954
0.367938
0.347148
0.327239
0.308374
0.290853
0.661326
0.644911
0.635263
0.625232
0.612332
0.596381
0.577718
0.556925
0.534616
0.511328
0.48752
0.463568
0.439782
0.416409
0.393647
0.371644
0.350501
0.330299
0.311159
0.293246
0.670677
0.653982
0.643901
0.633289
0.619741
0.603143
0.583865
0.562502
0.539666
0.515897
0.491648
0.467295
0.443144
0.419442
0.396382
0.374111
0.352732
0.332334
0.31301
0.294832
0.675353
0.658516
0.648215
0.637312
0.623438
0.606513
0.586926
0.565276
0.542176
0.518164
0.493693
0.469139
0.444805
0.420938
0.397729
0.375324
0.353828
0.333333
0.313917
0.295606
0.675311
0.658472
0.648171
0.637266
0.623391
0.606466
0.586878
0.565226
0.542125
0.518112
0.493641
0.469087
0.444754
0.420887
0.39768
0.375276
0.353782
0.333288
0.313875
0.295568
0.67055
0.653849
0.643766
0.633152
0.619602
0.603
0.583718
0.562352
0.539514
0.515742
0.491492
0.467139
0.44299
0.41929
0.396233
0.373966
0.352593
0.3322
0.312883
0.294716
0.66111
0.644686
0.635035
0.625001
0.612097
0.59614
0.577471
0.556674
0.53436
0.51107
0.48726
0.463308
0.439523
0.416154
0.393398
0.371402
0.350268
0.330075
0.310947
0.293051
0.64707
0.631059
0.62205
0.612876
0.600933
0.585937
0.56818
0.548231
0.526698
0.504125
0.480971
0.457618
0.434377
0.4115
0.38919
0.367599
0.346821
0.326926
0.308077
0.290579
0.628551
0.613083
0.604917
0.596873
0.586195
0.572467
0.555914
0.537083
0.516582
0.494956
0.472669
0.450105
0.427582
0.405356
0.383635
0.362578
0.342272
0.322771
0.304288
0.287305
0.60571
0.59091
0.583776
0.577118
0.567997
0.555829
0.54076
0.52331
0.504083
0.483626
0.462408
0.440819
0.419183
0.39776
0.376767
0.356368
0.336646
0.317635
0.299602
0.283238
0.578744
0.56473
0.558801
0.553768
0.546476
0.536147
0.52283
0.50701
0.489286
0.47021
0.450255
0.42982
0.409231
0.388758
0.368626
0.349007
0.329976
0.311548
0.294043
0.278391
0.547883
0.534764
0.530198
0.527008
0.521797
0.513569
0.502253
0.488299
0.472296
0.454801
0.436293
0.417178
0.39779
0.378406
0.35926
0.340535
0.3223
0.304545
0.287641
0.272782
0.513394
0.501269
0.498204
0.49705
0.494151
0.488261
0.47918
0.46731
0.45323
0.437502
0.420613
0.402975
0.384932
0.366767
0.348726
0.331003
0.313662
0.296665
0.28043
0.26643
0.475575
0.464533
0.463085
0.464134
0.46375
0.460414
0.453779
0.444191
0.432221
0.418432
0.403319
0.387303
0.370737
0.353912
0.337085
0.320464
0.304111
0.287954
0.272446
0.259361
0.434751
0.424869
0.425132
0.428522
0.430827
0.430233
0.426233
0.419107
0.409414
0.397718
0.384525
0.370263
0.355293
0.339919
0.324407
0.308979
0.293699
0.278459
0.263732
0.251604
0.391276
0.38262
0.384662
0.390499
0.395636
0.397945
0.396742
0.392236
0.384966
0.375501
0.364353
0.351961
0.338697
0.324872
0.310764
0.296614
0.282485
0.268233
0.254332
0.243189
0.345528
0.33815
0.342013
0.350371
0.358447
0.36379
0.36552
0.363765
0.359044
0.351928
0.342935
0.332515
0.32105
0.308861
0.296238
0.283438
0.270531
0.257331
0.244295
0.234152
0.297902
0.291842
0.297544
0.30846
0.319548
0.32802
0.332791
0.333896
0.331827
0.327155
0.320409
0.312047
0.30246
0.29198
0.28091
0.269524
0.257903
0.245814
0.233673
0.224529
0.248812
0.244097
0.251627
0.265103
0.279238
0.290902
0.29879
0.302835
0.303498
0.301347
0.296919
0.290683
0.28304
0.27433
0.264868
0.254949
0.24467
0.233746
0.222522
0.214359
0.198685
0.195328
0.204648
0.220649
0.237827
0.25271
0.263761
0.270799
0.274247
0.274672
0.272615
0.268555
0.262904
0.256011
0.248201
0.239792
0.230903
0.221197
0.210902
0.203678
0.147954
0.145955
0.157002
0.175457
0.195634
0.213725
0.227952
0.238007
0.24427
0.247301
0.247647
0.245797
0.242171
0.237129
0.231002
0.224132
0.216676
0.208247
0.19889
0.192522
0.0970584
0.0964033
0.109092
0.129891
0.152982
0.174233
0.191614
0.204682
0.213764
0.21941
0.222171
0.222544
0.220962
0.21779
0.213364
0.208046
0.202056
0.194977
0.186577
0.180897
0.0464372
0.0470968
0.0613183
0.0843179
0.110198
0.134522
0.155002
0.171048
0.182927
0.191174
0.196341
0.198934
0.199395
0.198099
0.195381
0.191615
0.187098
0.181468
0.174138
0.168838
-0.00347341
-0.00154728
0.0140828
0.0391036
0.0676085
0.0948777
0.118368
0.137329
0.151957
0.162766
0.170311
0.175103
0.177591
0.178162
0.177151
0.174925
0.171855
0.167766
0.161795
0.156265
-0.0522406
-0.0491206
-0.0322217
-0.00539151
0.0255345
0.0555847
0.0819615
0.103744
0.121047
0.13436
0.144233
0.151183
0.155667
0.158082
0.158765
0.15806
0.156367
0.15379
0.149718
0.143638
-0.0994756
-0.0952011
-0.0772207
-0.0488168
-0.0157088
0.0169201
0.046026
0.0705084
0.0903879
0.106122
0.118256
0.127306
0.133738
0.137958
0.140309
0.141113
0.140747
0.139538
0.137359
0.132949
-0.145025
-0.13927
-0.120583
-0.0908355
-0.0558173
-0.0208483
0.0107971
0.0378295
0.0601627
0.0782149
0.0925213
0.103599
0.111916
0.117888
0.121868
0.124165
0.125111
0.12515
0.124602
0.122164
-0.188236
-0.181083
-0.162053
-0.131143
-0.0945036
-0.0574645
-0.0234998
0.00590598
0.0305472
0.0507941
0.0671678
0.0801828
0.0903088
0.0979663
0.103521
0.107277
0.10953
0.110739
0.111491
0.11064
-0.228746
-0.22045
-0.200982
-0.169559
-0.131502
-0.0926851
-0.0566515
-0.0250743
0.00170715
0.0240065
0.0423253
0.0571731
0.0690186
0.0782843
0.0853443
0.0905084
0.094042
0.096381
0.0982377
0.0986546
-0.266308
-0.257059
-0.237202
-0.205563
-0.166619
-0.126284
-0.0884574
-0.0549356
-0.0262021
-0.00201075
0.0181155
0.0346774
0.0481405
0.0589263
0.0674134
0.0739181
0.0786899
0.0821296
0.0850045
0.0865503
-0.300732
-0.29062
-0.270579
-0.238877
-0.199532
-0.158066
-0.118733
-0.0835153
-0.0530377
-0.0271309
-0.00534939
0.0127955
0.0277632
0.0399715
0.0497997
0.0575697
0.0635232
0.0680266
0.0718664
0.0744697
-0.331832
-0.320917
-0.300906
-0.26943
-0.229946
-0.187834
-0.147308
-0.110666
-0.0786698
-0.0512393
-0.0279675
-0.00838154
0.00796796
0.0214924
0.0325691
0.0415234
0.0485935
0.0541109
0.0588599
0.0624559
-0.359448
-0.347792
-0.327998
-0.297055
-0.257782
-0.215365
-0.174037
-0.136259
-0.102983
-0.074233
-0.0496487
-0.0287719
-0.0111719
0.00355482
0.0157812
0.0258338
0.0339489
0.0404218
0.0460188
0.0505436
-0.38347
-0.371145
-0.351725
-0.321593
-0.28291
-0.24056
-0.198786
-0.160192
-0.125875
-0.0960216
-0.070315
-0.0483024
-0.0295919
-0.0137827
-0.000510752
0.0105495
0.0196336
0.026999
0.0333813
0.0387747
-0.403845
-0.390928
-0.372015
-0.342936
-0.305205
-0.263317
-0.221457
-0.182368
-0.1473
-0.116518
-0.0899
-0.0669091
-0.0472366
-0.0304688
-0.0162605
-0.00428681
0.00568718
0.0138799
0.0209837
0.0271893
-0.420576
-0.407149
-0.388849
-0.361034
-0.324587
-0.283549
-0.241975
-0.202708
-0.167168
-0.135743
-0.108319
-0.0845398
-0.0640599
-0.0464594
-0.0314281
-0.0186381
-0.0078559
0.00109895
0.00885518
0.0158211
-0.433718
-0.41987
-0.402266
-0.375886
-0.341022
-0.301203
-0.260282
-0.221161
-0.185417
-0.153579
-0.125594
-0.10119
-0.080014
-0.0617191
-0.0459801
-0.0324732
-0.0209678
-0.0113118
-0.00298335
0.0046953
-0.443385
-0.429207
-0.412356
-0.38754
-0.354513
-0.316255
-0.276349
-0.2377
-0.202024
-0.169997
-0.141668
-0.116813
-0.0951093
-0.0762355
-0.0598849
-0.045767
-0.0336286
-0.0233235
-0.0145088
-0.00617786
-0.449737
-0.435327
-0.419262
-0.396094
-0.365108
-0.328718
-0.290169
-0.252313
-0.216982
-0.184997
-0.156517
-0.13138
-0.109304
-0.0899883
-0.0731489
-0.0585125
-0.0458219
-0.0349245
-0.0256759
-0.0168169
-0.452984
-0.438445
-0.423175
-0.401695
-0.372897
-0.338636
-0.301761
-0.265011
-0.230299
-0.198584
-0.170143
-0.144888
-0.122584
-0.102958
-0.0857445
-0.0706893
-0.0575488
-0.0461644
-0.0363804
-0.0272759
-0.453374
-0.438812
-0.424332
-0.404533
-0.378012
-0.346087
-0.311168
-0.275818
-0.241992
-0.210773
-0.18256
-0.157349
-0.134956
-0.115142
-0.097663
-0.0822846
-0.0687795
-0.0569801
-0.0467429
-0.0374426
-0.451189
-0.436715
-0.423006
-0.404841
-0.380624
-0.351181
-0.318458
-0.28478
-0.252093
-0.221591
-0.193791
-0.16878
-0.146434
-0.12655
-0.108909
-0.0932983
-0.0795062
-0.067367
-0.0567645
-0.0471613
-0.446739
-0.432463
-0.419497
-0.402889
-0.380941
-0.354063
-0.323724
-0.291959
-0.260651
-0.231076
-0.203867
-0.179207
-0.157037
-0.137197
-0.119495
-0.103739
-0.0897359
-0.0773263
-0.0664142
-0.0564783
-0.440348
-0.426383
-0.414127
-0.39897
-0.379208
-0.354907
-0.327082
-0.297433
-0.267724
-0.239276
-0.212827
-0.188662
-0.166793
-0.147105
-0.129437
-0.11362
-0.0994792
-0.0868627
-0.075694
-0.0654769
-0.432347
-0.418802
-0.407226
-0.3934
-0.375691
-0.353916
-0.328673
-0.301297
-0.273381
-0.246247
-0.220721
-0.197188
-0.175735
-0.156301
-0.138757
-0.122958
-0.10875
-0.0959884
-0.0846209
-0.0741969
-0.423068
-0.410046
-0.399125
-0.3865
-0.370681
-0.351319
-0.328659
-0.303663
-0.277703
-0.252052
-0.227603
-0.20483
-0.183903
-0.164816
-0.14748
-0.131774
-0.117566
-0.104719
-0.0932068
-0.0826448
-0.41283
-0.400427
-0.390139
-0.37859
-0.364474
-0.347364
-0.327221
-0.304656
-0.280777
-0.256761
-0.233529
-0.211639
-0.191341
-0.17269
-0.155638
-0.140094
-0.125948
-0.113073
-0.10146
-0.0908149
-0.401935
-0.390236
-0.380567
-0.369977
-0.357369
-0.342309
-0.324559
-0.304415
-0.2827
-0.260446
-0.238562
-0.217669
-0.198096
-0.179963
-0.163266
-0.147946
-0.13392
-0.121069
-0.109393
-0.0987073
-0.39066
-0.379734
-0.370678
-0.360944
-0.349654
-0.33642
-0.320888
-0.303095
-0.283579
-0.263183
-0.242763
-0.222975
-0.204218
-0.186678
-0.170402
-0.155364
-0.141506
-0.128727
-0.117023
-0.106332
-0.379252
-0.369154
-0.360708
-0.351744
-0.341595
-0.329956
-0.316429
-0.30086
-0.283525
-0.265052
-0.246194
-0.227611
-0.209757
-0.192882
-0.177086
-0.16238
-0.148737
-0.136073
-0.124371
-0.113703
-0.367925
-0.358691
-0.350858
-0.342596
-0.333432
-0.323162
-0.311404
-0.297886
-0.282663
-0.266135
-0.248916
-0.231629
-0.214761
-0.19862
-0.18336
-0.169033
-0.155642
-0.143133
-0.131462
-0.120841
-0.356858
-0.348508
-0.341288
-0.333677
-0.325366
-0.316259
-0.306029
-0.294355
-0.281123
-0.26652
-0.25099
-0.235078
-0.219276
-0.203936
-0.189266
-0.175361
-0.162257
-0.149935
-0.138319
-0.127763
-0.346196
-0.33873
-0.332124
-0.325125
-0.317562
-0.309437
-0.300505
-0.290446
-0.279042
-0.266299
-0.252476
-0.238004
-0.223343
-0.20887
-0.194843
-0.181402
-0.168614
-0.156508
-0.144969
-0.134491
-0.336049
-0.329452
-0.323455
-0.31704
-0.310143
-0.30285
-0.295006
-0.286333
-0.276565
-0.265572
-0.253437
-0.240448
-0.226997
-0.21346
-0.20013
-0.187193
-0.174749
-0.162883
-0.151438
-0.141046
-0.326498
-0.320739
-0.315341
-0.309487
-0.303196
-0.296615
-0.289678
-0.282173
-0.273834
-0.264443
-0.253937
-0.242448
-0.230266
-0.217733
-0.205159
-0.19277
-0.180698
-0.169092
-0.157754
-0.147452
-0.317596
-0.312632
-0.307815
-0.302503
-0.296771
-0.290812
-0.284635
-0.278103
-0.270984
-0.263023
-0.254048
-0.244044
-0.233174
-0.221711
-0.209954
-0.198162
-0.186491
-0.175166
-0.163947
-0.153732
-0.309372
-0.305147
-0.300888
-0.296098
-0.290891
-0.285487
-0.279955
-0.274231
-0.268137
-0.261422
-0.253847
-0.245277
-0.235738
-0.225405
-0.214532
-0.203394
-0.19216
-0.181134
-0.170043
-0.15991
-0.301838
-0.298289
-0.294555
-0.290266
-0.285557
-0.280659
-0.275686
-0.270638
-0.265397
-0.259745
-0.253417
-0.246194
-0.237974
-0.228816
-0.218896
-0.208478
-0.197725
-0.187024
-0.176072
-0.166011
-0.294984
-0.292042
-0.288799
-0.284986
-0.280751
-0.276324
-0.271849
-0.267375
-0.262844
-0.258084
-0.25284
-0.246847
-0.239902
-0.231942
-0.223037
-0.213412
-0.203199
-0.192857
-0.182054
-0.172061
-0.288791
-0.286383
-0.283592
-0.280228
-0.276444
-0.272462
-0.268442
-0.264469
-0.260533
-0.256516
-0.252196
-0.247294
-0.241544
-0.234775
-0.226936
-0.21818
-0.208578
-0.198646
-0.188014
-0.178079
-0.283224
-0.281278
-0.278896
-0.275954
-0.272599
-0.269042
-0.265448
-0.261923
-0.258497
-0.255099
-0.251552
-0.247596
-0.242932
-0.237311
-0.230562
-0.222748
-0.21384
-0.204387
-0.193946
-0.184119
-0.278239
-0.276686
-0.274672
-0.272121
-0.269174
-0.266024
-0.262834
-0.259722
-0.256744
-0.253868
-0.250965
-0.247808
-0.244102
-0.23955
-0.233885
-0.227068
-0.218938
-0.210062
-0.199852
-0.190151
-0.273784
-0.272559
-0.270872
-0.268683
-0.266121
-0.263362
-0.260561
-0.257838
-0.255265
-0.252839
-0.250472
-0.24798
-0.245093
-0.241504
-0.236879
-0.231078
-0.223821
-0.215594
-0.205713
-0.196302
-0.269799
-0.268843
-0.267447
-0.26559
-0.263392
-0.261007
-0.25858
-0.25623
-0.254033
-0.252005
-0.250091
-0.248148
-0.245946
-0.243191
-0.239525
-0.234722
-0.228394
-0.220955
-0.211426
-0.202316
-0.266218
-0.265485
-0.264345
-0.262792
-0.260934
-0.258907
-0.256842
-0.25485
-0.253007
-0.251341
-0.249818
-0.248332
-0.246693
-0.244638
-0.24182
-0.237946
-0.232622
-0.225835
-0.217691
-0.207394
-0.262977
-0.262427
-0.261512
-0.260239
-0.258698
-0.257009
-0.255291
-0.253643
-0.252138
-0.250807
-0.249631
-0.24853
-0.247351
-0.24587
-0.243779
-0.240708
-0.236478
-0.23009
-0.224015
-0.212054
-0.260008
-0.259614
-0.258901
-0.257881
-0.256634
-0.255264
-0.253874
-0.252555
-0.251371
-0.250354
-0.249491
-0.248722
-0.247924
-0.246907
-0.245422
-0.243
-0.239902
-0.233591
-0.229806
-0.216303
-0.25725
-0.256995
-0.256462
-0.255674
-0.254698
-0.253623
-0.252541
-0.251532
-0.250651
-0.249927
-0.249351
-0.248873
-0.248396
-0.247753
-0.246765
-0.244843
-0.242831
-0.236326
-0.235049
-0.219784
-0.254649
-0.254523
-0.254156
-0.253579
-0.25285
-0.252047
-0.251249
-0.250527
-0.249927
-0.249474
-0.249159
-0.248941
-0.248735
-0.248401
-0.247811
-0.246279
-0.24521
-0.238423
-0.239711
-0.222337
-0.252158
-0.252161
-0.251947
-0.251561
-0.251057
-0.250501
-0.249962
-0.2495
-0.249156
-0.248949
-0.248869
-0.24888
-0.248907
-0.248831
-0.24855
-0.247353
-0.246983
-0.240094
-0.243515
-0.224101
-0.24974
-0.249877
-0.249808
-0.249597
-0.249296
-0.24896
-0.248651
-0.248422
-0.248305
-0.248315
-0.248443
-0.248652
-0.248877
-0.249017
-0.248969
-0.248085
-0.248124
-0.24151
-0.246145
-0.225485
-0.247373
-0.247652
-0.247721
-0.24767
-0.247549
-0.247408
-0.247301
-0.247273
-0.247354
-0.247551
-0.247854
-0.248231
-0.24862
-0.248933
-0.249059
-0.248467
-0.248658
-0.242699
-0.247509
-0.226877
-0.245044
-0.245474
-0.245676
-0.245769
-0.245809
-0.245837
-0.245904
-0.246048
-0.246293
-0.246646
-0.247094
-0.247605
-0.248123
-0.24857
-0.248822
-0.248479
-0.248662
-0.243565
-0.247776
-0.22838
-0.242751
-0.243341
-0.243671
-0.243896
-0.244076
-0.24425
-0.244462
-0.244748
-0.245127
-0.245604
-0.246164
-0.246777
-0.24739
-0.24793
-0.248272
-0.248111
-0.24823
-0.243983
-0.247257
-0.22987
-0.240503
-0.241259
-0.241712
-0.242055
-0.242358
-0.242654
-0.242986
-0.243385
-0.24387
-0.24444
-0.245082
-0.245765
-0.24644
-0.247036
-0.247435
-0.247377
-0.247461
-0.243871
-0.246254
-0.231089
-0.238317
-0.239242
-0.239811
-0.240261
-0.240669
-0.241067