/*--------------------------------*- C++ -*----------------------------------*\
  =========                 |
  \\      /  F ield         | OpenFOAM: The Open Source CFD Toolbox
   \\    /   O peration     | Website:  https://openfoam.org
    \\  /    A nd           | Version:  7
     \\/     M anipulation  |
\*---------------------------------------------------------------------------*/
FoamFile
{
    version     2.0;
    format      ascii;
    class       volScalarField;
    location    "8";
    object      p;
}
// * * * * * * * * * * * * * * * * * * * * * * * * * * * * * * * * * * * * * //

dimensions      [0 2 -2 0 0 0 0];

internalField   nonuniform List<scalar> 
435
(
4.13939
3.98663
3.82949
3.6696
3.50805
3.34581
3.18386
3.02317
2.86461
2.70901
2.55704
2.4093
2.26625
2.12827
1.99558
1.86835
1.74661
4.34869
4.22165
4.08781
3.9473
3.80212
3.65366
3.5029
3.35067
3.19785
3.04533
2.89395
2.7445
2.59767
2.45408
2.31423
2.17855
2.04736
1.92087
1.79921
4.27253
4.15637
4.03369
3.90447
3.77041
3.63271
3.4922
3.34961
3.20571
3.0613
2.91716
2.77405
2.63263
2.49353
2.35729
2.22436
2.09511
1.96983
1.8487
4.1966
4.09031
3.9778
3.85895
3.73519
3.60755
3.47673
3.34334
3.20806
3.0716
2.93468
2.79798
2.66215
2.52781
2.3955
2.26569
2.1388
2.01514
1.89497
4.12148
4.02411
3.92085
3.81148
3.69722
3.57893
3.4572
3.33254
3.20552
3.07678
2.94696
2.81667
2.68653
2.55713
2.42899
2.30261
2.17841
2.05675
1.93792
4.0477
3.95837
3.86348
3.76275
3.65721
3.54757
3.43432
3.31787
3.19873
3.07741
2.95449
2.83054
2.70611
2.58174
2.45796
2.33524
2.21401
2.09466
1.9775
3.97572
3.89361
3.80628
3.71339
3.61581
3.51414
3.40875
3.29999
3.18827
3.07405
2.95779
2.84002
2.72124
2.60193
2.48261
2.36371
2.24568
2.12889
2.01369
3.90591
3.83028
3.74975
3.66395
3.57363
3.47925
3.38112
3.27951
3.17476
3.06724
2.95736
2.84557
2.73231
2.61804
2.5032
2.38824
2.27355
2.15954
2.04653
3.83865
3.7688
3.69437
3.61496
3.5312
3.44347
3.35201
3.25701
3.15875
3.05754
2.95371
2.84765
2.73975
2.63041
2.52003
2.40903
2.2978
2.1867
2.07608
3.77421
3.70952
3.64053
3.56687
3.48904
3.40735
3.32196
3.23305
3.1408
3.04547
2.94734
2.84672
2.74396
2.6394
2.53341
2.42636
2.31861
2.21052
2.10241
3.71286
3.65275
3.58862
3.52009
3.44759
3.37135
3.2915
3.20814
3.12142
3.03154
2.93873
2.84324
2.74537
2.6454
2.54367
2.4405
2.33622
2.23117
2.12567
3.65485
3.59879
3.53897
3.47501
3.40728
3.33594
3.26108
3.18277
3.10111
3.01625
2.92837
2.83767
2.74439
2.64879
2.55114
2.45174
2.35088
2.24886
2.14599
3.60037
3.54788
3.49187
3.43196
3.36848
3.30152
3.23115
3.1574
3.08033
3.00006
2.91671
2.83044
2.74146
2.64996
2.55619
2.4604
2.36284
2.2638
2.16355
3.54963
3.50027
3.4476
3.39127
3.33154
3.26849
3.20212
3.13246
3.05953
2.98341
2.90419
2.822
2.73698
2.6493
2.55917
2.46679
2.3724
2.27623
2.17855
3.5028
3.45618
3.40643
3.35323
3.29681
3.23719
3.17437
3.10835
3.03912
2.96673
2.89124
2.81274
2.73135
2.64719
2.56043
2.47124
2.37983
2.2864
2.19118
3.46008
3.41582
3.36861
3.31813
3.26458
3.20797
3.14827
3.08545
3.01949
2.95042
2.87827
2.80309
2.72496
2.644
2.56032
2.47407
2.38542
2.29456
2.20167
3.42165
3.37942
3.33438
3.28624
3.23517
3.18116
3.12416
3.06413
3.00104
2.93488
2.86566
2.79342
2.7182
2.64009
2.55919
2.4756
2.38947
2.30096
2.21023
3.38773
3.3472
3.304
3.25784
3.20888
3.15709
3.1024
3.04476
2.98412
2.92047
2.8538
2.78411
2.71143
2.63583
2.55737
2.47614
2.39226
2.30586
2.21708
3.35854
3.31943
3.27774
3.23323
3.18603
3.13608
3.08332
3.02768
2.96911
2.90757
2.84304
2.77552
2.70501
2.63155
2.55518
2.47599
2.39406
2.30949
2.22243
3.33437
3.29639
3.25592
3.21273
3.16693
3.11847
3.06726
3.01324
2.95635
2.89653
2.83375
2.768
2.69926
2.62756
2.55293
2.47543
2.39512
2.31209
2.22647
3.31554
3.27841
3.23887
3.19668
3.15195
3.10462
3.0546
3.00182
2.9462
2.8877
2.82627
2.76188
2.69452
2.62419
2.55091
2.47471
2.39567
2.31385
2.22937
3.30244
3.2659
3.22698
3.18548
3.14149
3.09493
3.04572
2.99379
2.93905
2.88146
2.82095
2.7575
2.69109
2.6217
2.54935
2.47407
2.39591
2.31494
2.23125
3.29558
3.25934
3.22075
3.17961
3.136
3.08984
3.04105
2.98956
2.93528
2.87815
2.81813
2.75517
2.68925
2.62035
2.54849
2.47369
2.39599
2.31546
2.23219
)
;

boundaryField
{
    inlet
    {
        type            zeroGradient;
    }
    outlet
    {
        type            fixedValue;
        value           nonuniform 0();
    }
    cylinder
    {
        type            zeroGradient;
    }
    top
    {
        type            symmetryPlane;
    }
    bottom
    {
        type            symmetryPlane;
    }
    defaultFaces
    {
        type            empty;
    }
    procBoundary34to28
    {
        type            processor;
        value           nonuniform List<scalar> 
20
(
4.18756
4.02158
3.85167
3.67969
3.50689
3.33436
3.16316
2.99432
2.82876
2.66729
2.51055
2.3591
2.21334
2.07355
1.93988
1.81241
1.69107
4.42442
4.28543
4.28543
)
;
    }
    procBoundary34to29
    {
        type            processor;
        value           nonuniform List<scalar> 3(1.63032 1.68242 1.73185);
    }
    procBoundary34to33
    {
        type            processor;
        value           nonuniform List<scalar> 
22
(
4.42373
4.34133
4.25974
4.17951
4.10112
4.02498
3.95146
3.88085
3.81344
3.74944
3.68907
3.63252
3.57995
3.53153
3.48743
3.44782
3.41291
3.38292
3.35812
3.33883
3.32545
3.31848
)
;
    }
    procBoundary34to35
    {
        type            processor;
        value           nonuniform List<scalar> 
20
(
1.77846
1.82214
1.86279
1.90037
1.93485
1.96625
1.99461
2.02001
2.04255
2.06237
2.0796
2.09441
2.10697
2.11748
2.1261
2.13301
2.13838
2.14232
2.14494
2.14627
)
;
    }
}


// ************************************************************************* //
