/*--------------------------------*- C++ -*----------------------------------*\
  =========                 |
  \\      /  F ield         | OpenFOAM: The Open Source CFD Toolbox
   \\    /   O peration     | Website:  https://openfoam.org
    \\  /    A nd           | Version:  7
     \\/     M anipulation  |
\*---------------------------------------------------------------------------*/
FoamFile
{
    version     2.0;
    format      ascii;
    class       volScalarField;
    location    "83.99972";
    object      p;
}
// * * * * * * * * * * * * * * * * * * * * * * * * * * * * * * * * * * * * * //

dimensions      [0 2 -2 0 0 0 0];

internalField   nonuniform List<scalar> 
5800
(
-0.28296
-0.278101
-0.27254
-0.266312
-0.25947
-0.252086
-0.244261
-0.236158
-0.227916
-0.288585
-0.292682
-0.295063
-0.296356
-0.296862
-0.29655
-0.295432
-0.293532
-0.290864
-0.287442
-0.283281
-0.278395
-0.272807
-0.266553
-0.259681
-0.252263
-0.244396
-0.236251
-0.227952
-0.290224
-0.294137
-0.296381
-0.297557
-0.297954
-0.297545
-0.296339
-0.294359
-0.29162
-0.288135
-0.283916
-0.278976
-0.273337
-0.267029
-0.260099
-0.252613
-0.244661
-0.236435
-0.228025
-0.292661
-0.296303
-0.298343
-0.299344
-0.29958
-0.299024
-0.297686
-0.295587
-0.292742
-0.289162
-0.284856
-0.279835
-0.274119
-0.267732
-0.260715
-0.253127
-0.245051
-0.236703
-0.228135
-0.295874
-0.299159
-0.30093
-0.301701
-0.301722
-0.300971
-0.299458
-0.297202
-0.294215
-0.290507
-0.286085
-0.280958
-0.275138
-0.268646
-0.261516
-0.253796
-0.245557
-0.237049
-0.228282
-0.299831
-0.302679
-0.304119
-0.304605
-0.304361
-0.303369
-0.301637
-0.299183
-0.296019
-0.292152
-0.287585
-0.282324
-0.276376
-0.269755
-0.262486
-0.254605
-0.246169
-0.237464
-0.228466
-0.21661
-0.304497
-0.306834
-0.307883
-0.308033
-0.307474
-0.306193
-0.3042
-0.30151
-0.298134
-0.294075
-0.289335
-0.283914
-0.277814
-0.271039
-0.263607
-0.25554
-0.246875
-0.237938
-0.228688
-0.215513
-0.309832
-0.311588
-0.312193
-0.311955
-0.311034
-0.30942
-0.307123
-0.30416
-0.300536
-0.296253
-0.291311
-0.285704
-0.279427
-0.272478
-0.26486
-0.256583
-0.247661
-0.238459
-0.228948
-0.214245
-0.315793
-0.316905
-0.317014
-0.316343
-0.315013
-0.313022
-0.310382
-0.307106
-0.3032
-0.298663
-0.293489
-0.287671
-0.281194
-0.274048
-0.266225
-0.257718
-0.248515
-0.239019
-0.229247
-0.212822
-0.322337
-0.322749
-0.322314
-0.321166
-0.319383
-0.316973
-0.31395
-0.310325
-0.306102
-0.301279
-0.295847
-0.289792
-0.283093
-0.275729
-0.267682
-0.258928
-0.249426
-0.239606
-0.229581
-0.21126
-0.329418
-0.32908
-0.328059
-0.326391
-0.324115
-0.321246
-0.317802
-0.313792
-0.30922
-0.304081
-0.298363
-0.292046
-0.285103
-0.277503
-0.269214
-0.260199
-0.250382
-0.240213
-0.229949
-0.209587
-0.336993
-0.335861
-0.334215
-0.33199
-0.329181
-0.325816
-0.321915
-0.317486
-0.312533
-0.307049
-0.301018
-0.294416
-0.287207
-0.279352
-0.270806
-0.261516
-0.251374
-0.240832
-0.230343
-0.207836
-0.345023
-0.343057
-0.34075
-0.337933
-0.334556
-0.33066
-0.326267
-0.321388
-0.316024
-0.310167
-0.303797
-0.296886
-0.289392
-0.281264
-0.272446
-0.262869
-0.252393
-0.241458
-0.230749
-0.206048
-0.353466
-0.350632
-0.347633
-0.344192
-0.340215
-0.335755
-0.33084
-0.32548
-0.319677
-0.313421
-0.306689
-0.299447
-0.291647
-0.283228
-0.274123
-0.264249
-0.253433
-0.242088
-0.231145
-0.20427
-0.362288
-0.358555
-0.354835
-0.350741
-0.346135
-0.341083
-0.335618
-0.32975
-0.323482
-0.316802
-0.309685
-0.302091
-0.293965
-0.285238
-0.275832
-0.26565
-0.25449
-0.242726
-0.231508
-0.202569
-0.371454
-0.366794
-0.362328
-0.357558
-0.352296
-0.346627
-0.340587
-0.334187
-0.327431
-0.320305
-0.312781
-0.304814
-0.296343
-0.287291
-0.277569
-0.267067
-0.25556
-0.24338
-0.231812
-0.20104
-0.380934
-0.375322
-0.370088
-0.364618
-0.35868
-0.352371
-0.345734
-0.338783
-0.331518
-0.323926
-0.315974
-0.307614
-0.298778
-0.289381
-0.279328
-0.268497
-0.256642
-0.24406
-0.231969
-0.199715
-0.390696
-0.384109
-0.378088
-0.371901
-0.365268
-0.358302
-0.351051
-0.34353
-0.335739
-0.327661
-0.319263
-0.310489
-0.301266
-0.291507
-0.281108
-0.269939
-0.257752
-0.24479
-0.231764
-0.198385
-0.40071
-0.393127
-0.386302
-0.379384
-0.372042
-0.364405
-0.356528
-0.348422
-0.340089
-0.331509
-0.322644
-0.313435
-0.303803
-0.293659
-0.282899
-0.271396
-0.258942
-0.2457
-0.231274
-0.197718
-0.410944
-0.402346
-0.394704
-0.387044
-0.378983
-0.370666
-0.362152
-0.353451
-0.344562
-0.335464
-0.326113
-0.316443
-0.306376
-0.295819
-0.284678
-0.272851
-0.260228
-0.246957
-0.231864
-0.204755
-0.421365
-0.411733
-0.403264
-0.394856
-0.386071
-0.377069
-0.367911
-0.358606
-0.34915
-0.339517
-0.329656
-0.319499
-0.308962
-0.297957
-0.2864
-0.274228
-0.261448
-0.248296
-0.234768
-0.226667
-0.431933
-0.421252
-0.41195
-0.40279
-0.39328
-0.383592
-0.373788
-0.363873
-0.353838
-0.343651
-0.333256
-0.322578
-0.31153
-0.300027
-0.287997
-0.27541
-0.26235
-0.249077
-0.235589
-0.231112
-0.442602
-0.430861
-0.420722
-0.410814
-0.400582
-0.390209
-0.379759
-0.369229
-0.358604
-0.347844
-0.336885
-0.325646
-0.314037
-0.301975
-0.2894
-0.276303
-0.262803
-0.249127
-0.235018
-0.230143
-0.453319
-0.44051
-0.429536
-0.418885
-0.40794
-0.396889
-0.385795
-0.374645
-0.363417
-0.35206
-0.340502
-0.328656
-0.316429
-0.30374
-0.290539
-0.276831
-0.262748
-0.248477
-0.233667
-0.227211
-0.464022
-0.450141
-0.438339
-0.426958
-0.41531
-0.403592
-0.391856
-0.380083
-0.368235
-0.356255
-0.344059
-0.331553
-0.318643
-0.305252
-0.29134
-0.276925
-0.26214
-0.247137
-0.231574
-0.223107
-0.474636
-0.459688
-0.447071
-0.434975
-0.422641
-0.410266
-0.397895
-0.385492
-0.373008
-0.360371
-0.347491
-0.334266
-0.320603
-0.306433
-0.291727
-0.276519
-0.260943
-0.245125
-0.228786
-0.218297
-0.485078
-0.469073
-0.455659
-0.442871
-0.429871
-0.416854
-0.403851
-0.390811
-0.377668
-0.364339
-0.350723
-0.336716
-0.322228
-0.307201
-0.291626
-0.275554
-0.259127
-0.24246
-0.225366
-0.213056
-0.49525
-0.478208
-0.464023
-0.45057
-0.436927
-0.423283
-0.409654
-0.395966
-0.382139
-0.368076
-0.353667
-0.338811
-0.323427
-0.307472
-0.290962
-0.273975
-0.256665
-0.239156
-0.221361
-0.207502
-0.505042
-0.486994
-0.472071
-0.457983
-0.443725
-0.429472
-0.415218
-0.400871
-0.38633
-0.371486
-0.356227
-0.340455
-0.324104
-0.307158
-0.289663
-0.271728
-0.253533
-0.235217
-0.216792
-0.201665
-0.514332
-0.495318
-0.479697
-0.465014
-0.45017
-0.435324
-0.420449
-0.405426
-0.390137
-0.374463
-0.358293
-0.34154
-0.324161
-0.306173
-0.287659
-0.268768
-0.249708
-0.230641
-0.211669
-0.195531
-0.522987
-0.503059
-0.486789
-0.471552
-0.456154
-0.440735
-0.425239
-0.40952
-0.393447
-0.376894
-0.359753
-0.341959
-0.323499
-0.304432
-0.284885
-0.26505
-0.245166
-0.225422
-0.205989
-0.189068
-0.53086
-0.510085
-0.49322
-0.477476
-0.461561
-0.445586
-0.429467
-0.413032
-0.396137
-0.378653
-0.360487
-0.3416
-0.322021
-0.301855
-0.281282
-0.260536
-0.239888
-0.21955
-0.199748
-0.182236
-0.537797
-0.516251
-0.498857
-0.482658
-0.466262
-0.449749
-0.433004
-0.415831
-0.398075
-0.379613
-0.360373
-0.340354
-0.319632
-0.298369
-0.276796
-0.255191
-0.233854
-0.213016
-0.192936
-0.174996
-0.543634
-0.521408
-0.503556
-0.486957
-0.470119
-0.453087
-0.435712
-0.417779
-0.399125
-0.379643
-0.359291
-0.338114
-0.316245
-0.293906
-0.27138
-0.248988
-0.22705
-0.20581
-0.185543
-0.167317
-0.548201
-0.525397
-0.507166
-0.490227
-0.472988
-0.455454
-0.437445
-0.418731
-0.399148
-0.378612
-0.357123
-0.334779
-0.311779
-0.288406
-0.264995
-0.241902
-0.219462
-0.197924
-0.177561
-0.159171
-0.551321
-0.528056
-0.50953
-0.492314
-0.474715
-0.456699
-0.438056
-0.418541
-0.398005
-0.376392
-0.353755
-0.330257
-0.306163
-0.281818
-0.257608
-0.233915
-0.211082
-0.189352
-0.168984
-0.150538
-0.552819
-0.529218
-0.510489
-0.493061
-0.475147
-0.456668
-0.43739
-0.417064
-0.395557
-0.37286
-0.349084
-0.324462
-0.299333
-0.274102
-0.249195
-0.225016
-0.201903
-0.180089
-0.159806
-0.141403
-0.552518
-0.528716
-0.509881
-0.492309
-0.474125
-0.455207
-0.435299
-0.414156
-0.391676
-0.367901
-0.343013
-0.317323
-0.29124
-0.265224
-0.239738
-0.215195
-0.191922
-0.170135
-0.150027
-0.131759
-0.550242
-0.526386
-0.507545
-0.4899
-0.471494
-0.452162
-0.431635
-0.409679
-0.386236
-0.36141
-0.335461
-0.308779
-0.281842
-0.255162
-0.229227
-0.204451
-0.181141
-0.15949
-0.139646
-0.121601
-0.545825
-0.522067
-0.503324
-0.485679
-0.4671
-0.447385
-0.426257
-0.403506
-0.379126
-0.353295
-0.326356
-0.298779
-0.27111
-0.243901
-0.217658
-0.192785
-0.169564
-0.14816
-0.128667
-0.11093
-0.539107
-0.515605
-0.497068
-0.479497
-0.460798
-0.440736
-0.419034
-0.395519
-0.370247
-0.343478
-0.315642
-0.28729
-0.259026
-0.231438
-0.205035
-0.180206
-0.157199
-0.13615
-0.117096
-0.0997488
-0.52994
-0.506858
-0.488636
-0.471214
-0.452452
-0.432085
-0.409847
-0.385614
-0.359514
-0.331896
-0.303279
-0.274289
-0.245584
-0.217775
-0.191367
-0.166724
-0.144058
-0.123473
-0.104943
-0.0880665
-0.518193
-0.495696
-0.477898
-0.460703
-0.441938
-0.421316
-0.398594
-0.373705
-0.34686
-0.318503
-0.28924
-0.259768
-0.230788
-0.202925
-0.17667
-0.152357
-0.130157
-0.110141
-0.0922215
-0.0758996
-0.503749
-0.482005
-0.464741
-0.44785
-0.429147
-0.408329
-0.385186
-0.359721
-0.332237
-0.30327
-0.273515
-0.243731
-0.214654
-0.186909
-0.160968
-0.137126
-0.115514
-0.09617
-0.0789483
-0.0632655
-0.486513
-0.465688
-0.449067
-0.432561
-0.413989
-0.393043
-0.369558
-0.343616
-0.315614
-0.286187
-0.25611
-0.226198
-0.197206
-0.169755
-0.144288
-0.121058
-0.100154
-0.0815826
-0.0651397
-0.0501385
-0.466414
-0.44667
-0.430799
-0.41476
-0.396394
-0.375399
-0.351664
-0.325359
-0.296981
-0.26726
-0.237046
-0.207197
-0.178481
-0.151502
-0.126667
-0.104185
-0.084105
-0.0664042
-0.0508218
-0.0364625
-0.443403
-0.4249
-0.409886
-0.394394
-0.376315
-0.355359
-0.331481
-0.304944
-0.27635
-0.246517
-0.216361
-0.186774
-0.158525
-0.132193
-0.108145
-0.0865448
-0.0674002
-0.0506591
-0.0360214
-0.0225072
-0.417459
-0.400352
-0.386295
-0.371435
-0.353729
-0.332911
-0.309009
-0.282389
-0.253751
-0.223999
-0.194105
-0.164983
-0.137393
-0.111881
-0.08877
-0.0681788
-0.050081
-0.0344022
-0.0207253
-0.00818887
-0.38859
-0.373025
-0.360025
-0.345879
-0.328638
-0.308067
-0.284275
-0.257732
-0.229235
-0.199767
-0.170345
-0.141892
-0.115149
-0.0906254
-0.0685973
-0.0491388
-0.0321864
-0.0176484
-0.00501679
0.00649346
-0.356833
-0.342947
-0.331099
-0.317753
-0.301073
-0.280865
-0.257327
-0.231034
-0.202875
-0.1739
-0.14516
-0.117578
-0.0918679
-0.0684948
-0.0476872
-0.0294753
-0.0137651
-0.000443803
0.0110701
0.021503
-0.322254
-0.310176
-0.29957
-0.287108
-0.271089
-0.25137
-0.228241
-0.202378
-0.174759
-0.14649
-0.118643
-0.0921308
-0.0676312
-0.0455626
-0.0261056
-0.00924839
0.00513044
0.0171632
0.0274971
0.0367986
-0.28495
-0.274798
-0.265519
-0.254024
-0.238771
-0.219673
-0.197114
-0.17187
-0.144996
-0.117645
-0.0908978
-0.0656476
-0.0425288
-0.0219104
-0.00392564
0.011477
0.0244426
0.0351213
0.0442193
0.0523356
-0.245051
-0.23693
-0.229056
-0.218611
-0.204232
-0.185891
-0.164068
-0.139635
-0.11371
-0.0874882
-0.0620426
-0.0382366
-0.0166586
0.00237378
0.0187743
0.0326306
0.0441087
0.0533749
0.0611866
0.0680648
-0.202713
-0.196716
-0.19032
-0.181007
-0.167609
-0.150164
-0.129245
-0.105812
-0.0810469
-0.0561553
-0.0322027
-0.0100135
0.00987459
0.0271962
0.0419101
0.0541372
0.0640611
0.0718639
0.0783439
0.0839303
-0.158126
-0.154328
-0.149478
-0.141375
-0.129067
-0.112653
-0.0928103
-0.0705699
-0.0471594
-0.023793
-0.00151416
0.0188981
0.0369597
0.0524574
0.0653927
0.0759166
0.0842275
0.0905235
0.0956302
0.0998691
-0.111495
-0.10997
-0.106722
-0.099904
-0.0887879
-0.0735523
-0.0549486
-0.0340835
-0.0122168
0.00944092
0.0298786
0.0483677
0.06448
0.0780531
0.0891289
0.0978844
0.104531
0.109286
0.112982
0.115811
-0.0630105
-0.0639079
-0.0622732
-0.0568078
-0.0469894
-0.0330637
-0.0158596
0.00345489
0.0235998
0.0433795
0.0618238
0.0782592
0.092314
0.103875
0.113022
0.119953
0.124892
0.128086
0.130341
0.131657
-0.0130723
-0.0163023
-0.0163678
-0.0123248
-0.00390061
0.00858775
0.0242401
0.0418401
0.0600994
0.0778479
0.0941636
0.108431
0.120336
0.129811
0.136971
0.14203
0.145231
0.146867
0.147643
0.147208
0.038125
0.0325191
0.030724
0.0332891
0.0402294
0.0511608
0.0651207
0.0808561
0.0970824
0.112665
0.126735
0.138739
0.148417
0.155748
0.160874
0.164024
0.165467
0.165556
0.164722
0.162224
0.0902724
0.082267
0.0787225
0.0797608
0.0851355
0.0944009
0.106541
0.120278
0.134343
0.147643
0.159371
0.169034
0.176426
0.181569
0.184627
0.185843
0.185518
0.184017
0.181208
0.176657
0.143041
0.132637
0.127331
0.126801
0.130539
0.138042
0.148251
0.159874
0.171668
0.182592
0.191902
0.199165
0.204231
0.207156
0.208131
0.207404
0.205314
0.202136
0.196882
0.190751
0.196094
0.183309
0.176239
0.174109
0.17615
0.181809
0.189993
0.199408
0.208844
0.21732
0.224155
0.228981
0.231696
0.232394
0.231282
0.228625
0.22478
0.219986
0.213212
0.206638
0.249086
0.233951
0.225124
0.221374
0.221672
0.225422
0.231506
0.238639
0.245654
0.251631
0.255959
0.258329
0.258688
0.257161
0.253974
0.249403
0.243809
0.237398
0.229294
0.222019
0.301664
0.284224
0.273659
0.268278
0.266802
0.268595
0.272526
0.277326
0.281879
0.285332
0.287141
0.287057
0.285071
0.281338
0.2761
0.26964
0.262316
0.254304
0.244883
0.236672
0.353471
0.333784
0.32151
0.314503
0.311236
0.311044
0.312789
0.315229
0.317305
0.318231
0.317531
0.315014
0.310713
0.304807
0.297554
0.289242
0.280218
0.270642
0.259921
0.250615
0.404149
0.382289
0.368345
0.359726
0.354669
0.352483
0.352033
0.352112
0.351718
0.350137
0.346961
0.342052
0.335482
0.327454
0.318235
0.308116
0.297435
0.286339
0.274345
0.26387
0.453347
0.429396
0.413833
0.403632
0.396801
0.392633
0.390002
0.38774
0.384909
0.380867
0.375268
0.368028
0.359252
0.349166
0.338043
0.326176
0.31389
0.301325
0.288095
0.27643
0.500714
0.474769
0.457648
0.445907
0.437337
0.43122
0.426445
0.421889
0.416678
0.41024
0.402293
0.3928
0.3819
0.369833
0.356882
0.343338
0.32951
0.315537
0.301115
0.288269
0.545913
0.518082
0.499476
0.486249
0.475992
0.467978
0.46112
0.454339
0.446829
0.438085
0.427885
0.416236
0.403307
0.389353
0.374661
0.35952
0.344226
0.328915
0.313358
0.299356
0.588619
0.559018
0.53901
0.524367
0.512491
0.502654
0.493794
0.484882
0.475176
0.464236
0.451897
0.438207
0.42336
0.407625
0.391292
0.374646
0.357972
0.341402
0.324774
0.309663
0.628521
0.597279
0.57596
0.559982
0.546573
0.535007
0.52425
0.513322
0.501544
0.48854
0.474193
0.458593
0.441954
0.424556
0.406693
0.388646
0.370685
0.352944
0.335319
0.319158
0.665328
0.632581
0.610053
0.592834
0.577994
0.564811
0.552282
0.539475
0.525771
0.51085
0.494646
0.47728
0.458988
0.440059
0.420788
0.401451
0.382306
0.36349
0.344949
0.327809
0.698768
0.664662
0.641035
0.622681
0.606526
0.591858
0.577701
0.56317
0.547703
0.531034
0.513138
0.494166
0.474372
0.454054
0.433505
0.412998
0.392781
0.372993
0.353622
0.335585
0.728595
0.693283
0.668676
0.649302
0.631964
0.615957
0.600335
0.584255
0.567206
0.54897
0.529561
0.509156
0.488023
0.466466
0.44478
0.423232
0.402061
0.381408
0.361301
0.342459
0.754587
0.718229
0.692768
0.672501
0.654123
0.636939
0.620029
0.60259
0.584157
0.564551
0.543821
0.522165
0.499866
0.47723
0.454555
0.432102
0.410101
0.388698
0.367952
0.348404
0.776551
0.739312
0.713129
0.692104
0.672842
0.654656
0.636651
0.618057
0.598448
0.577682
0.555833
0.533121
0.509836
0.48629
0.462779
0.439563
0.416863
0.394828
0.373542
0.353395
0.794323
0.756373
0.729606
0.707965
0.687984
0.668983
0.650087
0.630554
0.609991
0.588284
0.565529
0.541961
0.517879
0.493597
0.469411
0.445578
0.422312
0.399767
0.378047
0.357414
0.80777
0.769284
0.742075
0.719966
0.699438
0.679817
0.660244
0.64
0.618713
0.596292
0.572851
0.548635
0.52395
0.499112
0.474416
0.450116
0.426423
0.403493
0.381444
0.360442
0.816791
0.777946
0.75044
0.728017
0.707121
0.687084
0.667055
0.646331
0.624558
0.601658
0.577757
0.553106
0.528016
0.502805
0.477767
0.453154
0.429175
0.405987
0.383719
0.362469
0.555348
0.530055
0.504657
0.479447
0.454678
0.430555
0.407238
0.384859
0.363484
-0.227328
-0.229673
-0.231964
-0.234103
-0.231296
-0.235977
-0.23348
-0.224379
-0.237465
-0.235265
-0.225836
-0.238442
-0.23647
-0.226861
-0.22038
-0.238792
-0.2369
-0.227299
-0.22094
-0.238497
-0.236331
-0.227051
-0.220989
-0.215688
-0.235504
-0.233847
-0.225911
-0.220408
-0.215334
-0.210039
-0.23499
-0.229769
-0.22178
-0.216644
-0.211878
-0.207125
-0.206692
-0.216968
-0.219637
-0.216183
-0.211355
-0.206805
-0.202167
-0.201725
-0.209071
-0.212596
-0.209607
-0.206329
-0.202614
-0.198504
-0.19941
-0.203639
-0.206556
-0.204281
-0.201293
-0.197987
-0.194285
-0.196716
-0.198953
-0.201189
-0.199258
-0.19652
-0.193533
-0.190166
-0.193716
-0.194515
-0.196024
-0.19425
-0.191753
-0.189037
-0.185965
-0.190236
-0.19011
-0.190936
-0.189242
-0.186938
-0.184445
-0.181631
-0.186252
-0.185603
-0.185848
-0.184208
-0.182072
-0.179768
-0.177183
-0.181819
-0.180916
-0.180702
-0.179117
-0.17714
-0.17501
-0.172634
-0.176985
-0.176018
-0.175462
-0.173948
-0.172132
-0.170171
-0.167991
-0.1718
-0.170909
-0.170116
-0.168693
-0.167045
-0.165254
-0.163263
-0.166325
-0.165604
-0.164665
-0.163353
-0.161882
-0.160263
-0.158458
-0.160622
-0.16013
-0.15912
-0.157937
-0.15665
-0.155209
-0.153588
-0.154747
-0.154519
-0.153501
-0.152461
-0.151363
-0.150102
-0.148666
-0.148757
-0.148806
-0.147829
-0.146943
-0.146035
-0.144958
-0.143704
-0.142703
-0.143029
-0.142131
-0.141404
-0.140685
-0.139791
-0.138718
-0.136632
-0.137222
-0.136433
-0.135866
-0.135333
-0.134618
-0.133723
-0.130584
-0.131421
-0.130759
-0.130352
-0.129996
-0.129457
-0.128735
-0.124598
-0.125657
-0.125134
-0.124881
-0.124694
-0.124324
-0.123769
-0.118704
-0.119957
-0.11958
-0.119475
-0.119446
-0.119236
-0.11884
-0.112927
-0.114348
-0.114116
-0.114149
-0.114267
-0.114207
-0.113963
-0.107288
-0.108848
-0.108758
-0.108921
-0.109173
-0.109252
-0.109149
-0.101802
-0.103476
-0.103521
-0.103802
-0.104175
-0.104383
-0.104411
-0.0964817
-0.0982444
-0.0984158
-0.0988043
-0.099286
-0.0996096
-0.0997585
-0.091334
-0.0931636
-0.0934506
-0.0939354
-0.0945132
-0.0949415
-0.0952007
-0.0863635
-0.0882405
-0.088632
-0.0892021
-0.0898642
-0.0903859
-0.0907449
-0.0815721
-0.0834797
-0.0839642
-0.084609
-0.0853444
-0.0859486
-0.0863971
-0.0769597
-0.0788834
-0.0794499
-0.0801593
-0.0809576
-0.0816339
-0.0821621
-0.0725246
-0.0744524
-0.07509
-0.0758549
-0.0767064
-0.0774452
-0.0780438
-0.068264
-0.0701858
-0.0708845
-0.0716962
-0.0725923
-0.0733847
-0.0740447
-0.0641744
-0.0660818
-0.0668325
-0.0676832
-0.0686159
-0.0694537
-0.070167
-0.0602518
-0.0621379
-0.0629322
-0.0638148
-0.064777
-0.0656526
-0.0664117
-0.0564919
-0.058351
-0.0591813
-0.0600897
-0.061075
-0.0619816
-0.0627793
-0.0528903
-0.0547179
-0.0555775
-0.0565058
-0.0575085
-0.0584399
-0.05927
-0.0494427
-0.0512348
-0.0521177
-0.053061
-0.054076
-0.0550267
-0.0558832
-0.0461445
-0.0478981
-0.048799
-0.0497528
-0.0507756
-0.0517405
-0.0526182
-0.0429915
-0.044704
-0.0456181
-0.0465786
-0.0476052
-0.0485798
-0.0494739
-0.0399793
-0.0416488
-0.042572
-0.0435355
-0.0445624
-0.0455427
-0.0464489
-0.0371037
-0.0387286
-0.0396572
-0.0406207
-0.0416447
-0.0426273
-0.0435416
-0.0343606
-0.0359398
-0.0368703
-0.0378313
-0.0388497
-0.0398313
-0.0407503
-0.0317459
-0.0332784
-0.0342082
-0.0351641
-0.0361745
-0.0371525
-0.0380731
-0.0292555
-0.0307409
-0.0316673
-0.0326162
-0.0336166
-0.0345884
-0.0355079
-0.0268854
-0.0283235
-0.0292444
-0.0301844
-0.0311731
-0.0321366
-0.0330525
-0.0246318
-0.0260226
-0.0269361
-0.0278658
-0.0288411
-0.0297946
-0.0307048
-0.0224909
-0.0238346
-0.024739
-0.0256571
-0.0266179
-0.0275598
-0.0284625
-0.0204588
-0.021756
-0.0226499
-0.0235553
-0.0245006
-0.0254295
-0.0263231
-0.0185321
-0.0197834
-0.0206656
-0.0215574
-0.0224864
-0.0234013
-0.0242845
-0.016707
-0.0179133
-0.018783
-0.0196605
-0.0205725
-0.0214726
-0.0223442
-0.0149803
-0.0161426
-0.0169988
-0.0178615
-0.0187561
-0.0196407
-0.0204998
-0.0133486
-0.014468
-0.0153102
-0.0161577
-0.0170347
-0.0179032
-0.018749
-0.0118088
-0.0128865
-0.0137143
-0.0145464
-0.0154054
-0.0162576
-0.0170897
-0.0103577
-0.0113951
-0.0122082
-0.0130247
-0.0138659
-0.0147015
-0.0155194
-0.0089925
-0.00999102
-0.0107892
-0.0115902
-0.0124137
-0.0132326
-0.0140362
-0.00771045
-0.00867161
-0.0094549
-0.0102404
-0.0110464
-0.0118488
-0.0126379
-0.00650894
-0.00743433
-0.00820279
-0.00897312
-0.00976184
-0.0105479
-0.0113225
-0.00538555
-0.00627683
-0.00703065
-0.00778605
-0.00855798
-0.00932806
-0.0100883
-0.00433803
-0.0051969
-0.00593638
-0.00667726
-0.0074329
-0.00818735
-0.00893345
-0.00336433
-0.00419256
-0.00491807
-0.00564489
-0.00638484
-0.00712415
-0.00785651
-0.00246258
-0.00326197
-0.00397401
-0.00468732
-0.00541223
-0.006137
-0.00685605
-0.00163116
-0.00240357
-0.00310268
-0.0038031
-0.00451372
-0.0052246
-0.00593089
-0.000868644
-0.00161597
-0.0023028
-0.00299103
-0.00368816
-0.00438589
-0.00508006
-0.00017389
-0.00089807
-0.00157334
-0.00225013
-0.00293466
-0.00362007
-0.00430281
0.000453983
-0.000249042
-0.000913554
-0.00157973
-0.00225259
-0.00292658
-0.00359868
0.00101555
0.000331639
-0.000322984
-0.000979446
-0.00164165
-0.00230518
-0.00296751
0.00151104
0.000844155
0.000198472
-0.000449235
-0.00110186
-0.00175596
-0.00240948
0.00194032
0.0012883
0.000650532
1.055e-05
-0.000633647
-0.00127944
-0.00192515
0.00230284
0.00166347
0.0010325
0.000399143
-0.000237837
-0.000876506
-0.00151552
0.00259748
0.00196844
0.0013431
0.00071519
8.41433e-05
-0.000548662
-0.00118215
0.00282303
0.00220189
0.00158084
0.000957091
0.000330574
-0.000297747
-0.000926999
0.00297603
0.00236042
0.00174244
0.00112164
0.000498299
-0.000126886
-0.000753183
0.00305679
0.0024434
0.00182656
0.00120696
0.000585008
-3.87471e-05
-0.00066366
-0.0999841
-0.109896
-0.119328
-0.128269
-0.136711
-0.144646
-0.152066
-0.158968
-0.165351
-0.171223
-0.176598
-0.181506
-0.185995
-0.190136
-0.194031
-0.197828
-0.201738
-0.206011
-0.211252
-0.227228
-0.0941672
-0.103672
-0.112736
-0.121351
-0.129509
-0.137205
-0.144437
-0.151204
-0.157514
-0.16338
-0.168833
-0.173919
-0.178712
-0.183322
-0.18791
-0.19271
-0.198088
-0.204507
-0.211936
-0.233985
-0.0886622
-0.0977909
-0.106531
-0.114878
-0.122829
-0.130383
-0.137543
-0.144316
-0.150714
-0.15676
-0.162486
-0.167945
-0.173209
-0.17838
-0.183601
-0.189064
-0.195057
-0.201922
-0.208623
-0.230299
-0.0834323
-0.0922082
-0.100642
-0.108733
-0.11648
-0.123885
-0.130952
-0.137692
-0.144117
-0.150249
-0.156121
-0.161777
-0.167278
-0.172707
-0.178175
-0.183821
-0.189858
-0.1966
-0.202571
-0.223116
-0.0784628
-0.0868971
-0.0950297
-0.10286
-0.11039
-0.117622
-0.124562
-0.131219
-0.137606
-0.143745
-0.149664
-0.155401
-0.161012
-0.166567
-0.172162
-0.177918
-0.18402
-0.190826
-0.196699
-0.215842
-0.0737409
-0.0818437
-0.0896802
-0.097251
-0.104558
-0.111606
-0.1184
-0.124951
-0.131272
-0.137382
-0.143308
-0.149087
-0.154767
-0.160414
-0.166115
-0.17198
-0.178166
-0.185032
-0.190904
-0.208298
-0.0692519
-0.0770348
-0.0845824
-0.0918966
-0.0989803
-0.105838
-0.112477
-0.118907
-0.125141
-0.131197
-0.137101
-0.142887
-0.148598
-0.154293
-0.160048
-0.165958
-0.172147
-0.178944
-0.184796
-0.200438
-0.0649816
-0.0724559
-0.0797225
-0.086784
-0.0936439
-0.100307
-0.106781
-0.113076
-0.119203
-0.125181
-0.131032
-0.136787
-0.142484
-0.148175
-0.153924
-0.159812
-0.165939
-0.172597
-0.178455
-0.192474
-0.0609164
-0.0680932
-0.0750866
-0.0818995
-0.088536
-0.0950013
-0.101303
-0.107449
-0.113453
-0.11933
-0.125101
-0.130792
-0.136438
-0.142082
-0.147782
-0.153605
-0.159636
-0.166126
-0.171985
-0.184508
-0.0570437
-0.0639337
-0.0706616
-0.0772306
-0.0836449
-0.0899099
-0.0960324
-0.102021
-0.107888
-0.113646
-0.119314
-0.124917
-0.130483
-0.13605
-0.141668
-0.147396
-0.153304
-0.1596
-0.165424
-0.176585
-0.0533518
-0.0599653
-0.0664354
-0.0727654
-0.0789596
-0.0850233
-0.0909629
-0.0967866
-0.102505
-0.10813
-0.113679
-0.119173
-0.124636
-0.130102
-0.135613
-0.141218
-0.146979
-0.15306
-0.158811
-0.16875
-0.0498303
-0.0561771
-0.062397
-0.0684932
-0.0744699
-0.0803323
-0.0860864
-0.0917397
-0.0973015
-0.102783
-0.108199
-0.113567
-0.11891
-0.124255
-0.129637
-0.1351
-0.140695
-0.14655
-0.152195
-0.161045
-0.0464692
-0.0525589
-0.0585359
-0.0644037
-0.0701663
-0.0758283
-0.0813955
-0.0868746
-0.092274
-0.0976037
-0.102876
-0.108107
-0.113314
-0.118523
-0.123762
-0.129068
-0.134484
-0.140109
-0.145616
-0.153504
-0.0432596
-0.0491012
-0.0548429
-0.0604878
-0.0660398
-0.0715032
-0.0768833
-0.082186
-0.0874188
-0.0925905
-0.0977117
-0.102796
-0.107858
-0.11292
-0.118005
-0.123143
-0.128373
-0.133767
-0.139112
-0.146153
-0.0401933
-0.0457958
-0.0513093
-0.056737
-0.0620825
-0.0673497
-0.0725433
-0.0776687
-0.0827324
-0.087742
-0.0927066
-0.0976374
-0.102548
-0.107455
-0.112378
-0.117343
-0.122382
-0.127549
-0.132712
-0.139017
-0.0372629
-0.0426347
-0.0479274
-0.0531437
-0.058287
-0.0633609
-0.0683695
-0.0733178
-0.0782112
-0.0830564
-0.087861
-0.0926345
-0.097388
-0.102135
-0.106893
-0.111682
-0.116528
-0.121474
-0.126443
-0.13211
-0.0344615
-0.0396111
-0.0446899
-0.0497007
-0.0546465
-0.0595305
-0.0643565
-0.0691286
-0.0738517
-0.0785314
-0.0831743
-0.0877881
-0.0923821
-0.0969676
-0.101558
-0.10617
-0.110825
-0.115556
-0.120325
-0.125444
-0.0317829
-0.0367183
-0.0415904
-0.0464017
-0.0511548
-0.0558528
-0.0604989
-0.0650967
-0.0696505
-0.074165
-0.0786456
-0.083099
-0.0875325
-0.0919554
-0.0963786
-0.100815
-0.105282
-0.109807
-0.114374
-0.119026
-0.0292213
-0.0339505
-0.0386228
-0.0432405
-0.0478062
-0.0523223
-0.0567918
-0.0612179
-0.0656041
-0.0699545
-0.0742737
-0.0785669
-0.0828404
-0.0871014
-0.0913588
-0.095623
-0.0999064
-0.104234
-0.1086
-0.112856
-0.0267711
-0.0313019
-0.0357814
-0.0402118
-0.0445952
-0.0489341
-0.0532308
-0.0574882
-0.0617093
-0.0658976
-0.0700568
-0.0741913
-0.0783062
-0.0824072
-0.0865013
-0.0905967
-0.0947027
-0.0988415
-0.103011
-0.106933
-0.0244274
-0.0287674
-0.0330611
-0.0373102
-0.0415169
-0.0456832
-0.0498113
-0.0539035
-0.0579626
-0.0619914
-0.065993
-0.069971
-0.0739295
-0.0778731
-0.0818074
-0.0857384
-0.0896732
-0.0936323
-0.0976117
-0.101252
-0.0221864
-0.0263426
-0.0304569
-0.034531
-0.0385665
-0.0425652
-0.0465291
-0.0504601
-0.0543606
-0.058233
-0.06208
-0.0659043
-0.0697094
-0.0734989
-0.0772771
-0.0810487
-0.0848187
-0.0886066
-0.0924035
-0.0958054
-0.0200426
-0.0240226
-0.0279644
-0.0318696
-0.0357395
-0.0395757
-0.04338
-0.0471541
-0.0509
-0.0546196
-0.0583152
-0.0619893
-0.0656443
-0.0692833
-0.0729097
-0.076527
-0.0801386
-0.0837635
-0.087386
-0.0905858
-0.0179931
-0.0218037
-0.0255794
-0.0293216
-0.0330315
-0.0367105
-0.04036
-0.0439817
-0.047577
-0.0511479
-0.054696
-0.0582234
-0.0617322
-0.0652248
-0.0687038
-0.0721718
-0.0756314
-0.0791008
-0.0825573
-0.0855838
-0.0160339
-0.0196817
-0.0232977
-0.0268829
-0.0304384
-0.0339654
-0.0374652
-0.040939
-0.0443883
-0.0478145
-0.0512192
-0.054604
-0.0579706
-0.0613209
-0.0646571
-0.067981
-0.0712946
-0.0746154
-0.0779141
-0.0807901
-0.0141611
-0.0176529
-0.0211154
-0.0245495
-0.0279563
-0.0313366
-0.0346916
-0.0380224
-0.0413302
-0.0446162
-0.0478817
-0.051128
-0.0543566
-0.0575691
-0.0607671
-0.0639519
-0.0671253
-0.0703039
-0.0734525
-0.0761956
-0.0123715
-0.0157136
-0.0190287
-0.0223176
-0.0255811
-0.0288201
-0.0320354
-0.0352281
-0.038399
-0.0415493
-0.04468
-0.0477922
-0.0508872
-0.0539663
-0.0570306
-0.0600814
-0.06312
-0.0661622
-0.069168
-0.0717916
-0.0106617
-0.0138603
-0.017034
-0.0201834
-0.0233092
-0.0264121
-0.0294928
-0.0325522
-0.035591
-0.0386102
-0.0416106
-0.0445932
-0.047559
-0.0505091
-0.0534445
-0.056366
-0.0592749
-0.0621861
-0.0650558
-0.0675701
-0.00902873
-0.0120899
-0.015128
-0.0181435
-0.0211369
-0.0241089
-0.0270601
-0.0299911
-0.0329026
-0.0357953
-0.0386699
-0.0415274
-0.0443684
-0.047194
-0.0500049
-0.0528019
-0.0555861
-0.0583715
-0.0611113
-0.0635239
-0.0074696
-0.0103992
-0.0133073
-0.0161944
-0.0190608
-0.021907
-0.0247336
-0.027541
-0.0303299
-0.0331007
-0.0358542
-0.038591
-0.0413118
-0.0440173
-0.0467083
-0.0493852
-0.0520495
-0.0547138
-0.0573294
-0.0596463
-0.00598157
-0.00878522
-0.0115689
-0.0143328
-0.0170773
-0.0198029
-0.0225098
-0.0251984
-0.0278693
-0.0305229
-0.0331598
-0.0357804
-0.0383853
-0.0409752
-0.0435507
-0.0461121
-0.0486609
-0.0512088
-0.0537056
-0.0559313
-0.004562
-0.00724516
-0.00990963
-0.0125556
-0.0151833
-0.017793
-0.0203851
-0.0229597
-0.0255173
-0.0280582
-0.0305828
-0.0330917
-0.0355852
-0.0380638
-0.0405282
-0.0429785
-0.0454163
-0.0478521
-0.0502352
-0.0523735
-0.00320838
-0.00577631
-0.00832674
-0.0108598
-0.0133755
-0.0158743
-0.0183561
-0.0208213
-0.0232701
-0.0257028
-0.0281197
-0.0305211
-0.0329075
-0.0352793
-0.0376368
-0.0399803
-0.0423114
-0.0446394
-0.0469137
-0.0489678
-0.0019183
-0.00437605
-0.00681738
-0.00924232
-0.0116509
-0.0140433
-0.0164195
-0.0187798
-0.0211242
-0.0234531
-0.0257666
-0.028065
-0.0303485
-0.0326176
-0.0348726
-0.0371135
-0.039342
-0.0415666
-0.0437367
-0.0457095
-0.000689429
-0.00304187
-0.00537889
-0.00770042
-0.0100064
-0.012297
-0.0145721
-0.0168318
-0.0190763
-0.0213056
-0.02352
-0.0257195
-0.0279044
-0.030075
-0.0322316
-0.0343741
-0.0365042
-0.0386293
-0.0406999
-0.0425942
0.000480454
-0.00177136
-0.00400868
-0.00623134
-0.00843926
-0.0106324
-0.0128107
-0.0149742
-0.0171229
-0.0192569
-0.0213762
-0.023481
-0.0255714
-0.0276477
-0.0297099
-0.031758
-0.0337938
-0.0358236
-0.037799
-0.0396176
0.00159346
-0.000562186
-0.00270426
-0.00483243
-0.00694655
-0.00904651
-0.0111322
-0.0132037
-0.0152607
-0.0173035
-0.0193318
-0.021346
-0.0233459
-0.0253317
-0.0273036
-0.0292614
-0.0312069
-0.0331454
-0.0350299
-0.0367754
0.0026518
0.000587929
-0.0014632
-0.00350112
-0.00552563
-0.00753655
-0.00953377
-0.0115171
-0.0134866
-0.015442
-0.0173834
-0.0193108
-0.0212242
-0.0231235
-0.025009
-0.0268804
-0.0287395
-0.0305906
-0.0323885
-0.0340636
0.00365783
0.00168123
-0.000283145
-0.00223492
-0.00417386
-0.00609976
-0.00801241
-0.00991167
-0.0117974
-0.0136694
-0.0155277
-0.0173721
-0.0192027
-0.0210195
-0.0228223
-0.0246112
-0.0263877
-0.0281554
-0.0298708
-0.031478
0.00461302
0.0027195
0.000837963
-0.00103155
-0.0028888
-0.0047335
-0.00656542
-0.00838433
-0.0101901
-0.0119824
-0.0137613
-0.0155266
-0.0172782