/*--------------------------------*- C++ -*----------------------------------*\
  =========                 |
  \\      /  F ield         | OpenFOAM: The Open Source CFD Toolbox
   \\    /   O peration     | Website:  https://openfoam.org
    \\  /    A nd           | Version:  7
     \\/     M anipulation  |
\*---------------------------------------------------------------------------*/
FoamFile
{
    version     2.0;
    format      ascii;
    class       volScalarField;
    location    "0.9996";
    object      p;
}
// * * * * * * * * * * * * * * * * * * * * * * * * * * * * * * * * * * * * * //

dimensions      [0 2 -2 0 0 0 0];

internalField   nonuniform List<scalar> 
23200
(
-0.323474
-0.328131
-0.329105
-0.327184
-0.322679
-0.315396
-0.305179
-0.291906
-0.275491
-0.255942
-0.233408
-0.208237
-0.181012
-0.152561
-0.123938
-0.0963419
-0.0709858
-0.0489531
-0.0310597
-0.0170253
-0.325567
-0.330045
-0.330903
-0.328902
-0.324343
-0.317032
-0.306815
-0.293567
-0.277198
-0.257711
-0.235249
-0.210151
-0.182988
-0.154579
-0.125965
-0.098337
-0.0729039
-0.0507509
-0.0327091
-0.0184003
-0.329725
-0.333848
-0.334476
-0.332317
-0.327649
-0.320284
-0.310065
-0.296863
-0.280584
-0.261218
-0.238897
-0.213941
-0.186899
-0.158568
-0.12997
-0.102278
-0.0766909
-0.0543001
-0.0359663
-0.0211174
-0.33589
-0.339492
-0.339779
-0.337385
-0.332555
-0.325107
-0.314881
-0.301745
-0.285594
-0.266404
-0.244285
-0.219531
-0.192661
-0.16444
-0.135858
-0.108067
-0.0822513
-0.05951
-0.0407495
-0.0251123
-0.343982
-0.346906
-0.346748
-0.344045
-0.339001
-0.33144
-0.321199
-0.308144
-0.292152
-0.273182
-0.251316
-0.226814
-0.200156
-0.172066
-0.143494
-0.115565
-0.0894472
-0.0662502
-0.0469413
-0.0302922
-0.353898
-0.355999
-0.355298
-0.352218
-0.346906
-0.3392
-0.328937
-0.315968
-0.300158
-0.281441
-0.259867
-0.235653
-0.209234
-0.181282
-0.152706
-0.124596
-0.098105
-0.0743563
-0.054393
-0.036539
-0.365514
-0.366665
-0.365334
-0.361808
-0.356181
-0.348296
-0.337995
-0.325112
-0.309496
-0.291053
-0.269794
-0.245889
-0.219717
-0.191898
-0.163293
-0.134955
-0.108023
-0.0836374
-0.0629312
-0.0437148
-0.378693
-0.378782
-0.376743
-0.372709
-0.366719
-0.358624
-0.348263
-0.335458
-0.320038
-0.301875
-0.280937
-0.257343
-0.231412
-0.203706
-0.175033
-0.146417
-0.118979
-0.0938838
-0.0723647
-0.0516663
-0.393287
-0.392221
-0.389403
-0.384814
-0.378412
-0.370071
-0.359625
-0.346882
-0.331646
-0.313755
-0.293129
-0.269828
-0.244112
-0.216481
-0.187695
-0.158744
-0.13074
-0.104875
-0.0824913
-0.06023
-0.40914
-0.406845
-0.403192
-0.397996
-0.391143
-0.38252
-0.37196
-0.359254
-0.34418
-0.326536
-0.306193
-0.283152
-0.257607
-0.229999
-0.201041
-0.171695
-0.143071
-0.116388
-0.0931045
-0.0692375
-0.426096
-0.422515
-0.41798
-0.412137
-0.404792
-0.395852
-0.385145
-0.372444
-0.357497
-0.340063
-0.319958
-0.297121
-0.271686
-0.244034
-0.214836
-0.185034
-0.155738
-0.128202
-0.103999
-0.0785193
-0.443997
-0.43909
-0.43364
-0.427114
-0.419243
-0.40995
-0.399059
-0.386323
-0.371459
-0.354181
-0.334251
-0.311549
-0.286145
-0.258368
-0.228854
-0.198532
-0.168519
-0.140108
-0.114977
-0.0879089
-0.46269
-0.456435
-0.450043
-0.442807
-0.43438
-0.4247
-0.413585
-0.400768
-0.38593
-0.368743
-0.348911
-0.326256
-0.30079
-0.272797
-0.242885
-0.211978
-0.181207
-0.151908
-0.125849
-0.0972445
-0.482027
-0.474414
-0.467067
-0.4591
-0.45009
-0.43999
-0.42861
-0.415659
-0.400784
-0.383608
-0.363783
-0.341073
-0.315439
-0.28713
-0.256733
-0.225178
-0.193614
-0.163425
-0.136436
-0.106373
-0.501868
-0.4929
-0.48459
-0.475879
-0.466265
-0.455713
-0.444026
-0.430884
-0.415898
-0.398644
-0.378723
-0.355844
-0.329928
-0.301194
-0.270224
-0.237961
-0.205575
-0.174502
-0.146581
-0.115162
-0.522079
-0.511769
-0.5025
-0.493038
-0.482802
-0.471769
-0.45973
-0.446335
-0.431158
-0.413728
-0.393596
-0.370426
-0.344104
-0.314835
-0.283206
-0.250177
-0.216946
-0.185006
-0.156143
-0.123499
-0.542532
-0.530903
-0.520684
-0.51047
-0.4996
-0.488059
-0.475622
-0.46191
-0.446455
-0.428743
-0.408278
-0.384687
-0.357833
-0.327918
-0.295546
-0.261701
-0.22761
-0.194824
-0.164959
-0.131207
-0.563106
-0.550188
-0.539037
-0.528075
-0.516562
-0.504488
-0.491608
-0.47751
-0.461687
-0.443579
-0.422653
-0.398506
-0.370993
-0.340326
-0.307136
-0.272435
-0.23748
-0.203856
-0.17275
-0.137974
-0.583686
-0.569515
-0.557453
-0.545753
-0.533594
-0.520963
-0.507594
-0.493039
-0.476752
-0.458131
-0.436611
-0.411774
-0.383478
-0.35196
-0.317889
-0.282311
-0.24652
-0.212041
-0.17927
-0.144085
-0.604159
-0.588775
-0.57583
-0.563407
-0.550599
-0.53739
-0.523487
-0.508402
-0.491551
-0.472297
-0.450051
-0.42439
-0.395192
-0.362734
-0.327734
-0.291285
-0.254724
-0.21944
-0.185187
-0.152201
-0.624412
-0.607862
-0.594064
-0.580936
-0.567483
-0.553675
-0.53919
-0.523502
-0.505986
-0.485977
-0.462873
-0.436259
-0.406049
-0.372575
-0.336614
-0.299311
-0.262051
-0.226136
-0.19197
-0.165786
-0.644334
-0.626665
-0.612052
-0.598241
-0.584147
-0.569721
-0.554608
-0.538239
-0.519957
-0.499072
-0.47498
-0.447293
-0.415973
-0.381418
-0.344475
-0.306343
-0.268435
-0.23199
-0.197599
-0.173267
-0.663808
-0.645074
-0.629685
-0.615217
-0.600488
-0.585426
-0.569637
-0.552512
-0.533361
-0.511482
-0.48628
-0.457408
-0.424892
-0.389209
-0.351277
-0.312344
-0.273837
-0.236943
-0.20231
-0.178052
-0.682716
-0.662974
-0.646852
-0.631755
-0.616399
-0.600683
-0.58417
-0.566213
-0.546093
-0.523105
-0.496679
-0.466524
-0.432743
-0.395901
-0.356987
-0.317291
-0.27824
-0.240964
-0.206153
-0.181372
-0.700933
-0.680244
-0.663436
-0.64774
-0.631767
-0.615379
-0.598096
-0.57923
-0.558044
-0.53384
-0.506088
-0.474565
-0.439468
-0.401452
-0.361579
-0.321171
-0.281638
-0.244048
-0.209111
-0.183643
-0.718328
-0.696759
-0.679315
-0.663053
-0.646473
-0.629395
-0.611294
-0.591446
-0.569101
-0.543583
-0.514414
-0.481458
-0.445012
-0.405828
-0.365034
-0.323976
-0.28403
-0.246202
-0.211201
-0.185057
-0.734765
-0.712386
-0.694359
-0.677565
-0.66039
-0.642606
-0.62364
-0.602739
-0.579151
-0.55223
-0.521571
-0.487135
-0.449328
-0.408999
-0.367338
-0.325701
-0.285423
-0.247438
-0.212444
-0.185709
-0.750099
-0.726987
-0.708433
-0.691144
-0.673386
-0.654878
-0.635005
-0.612984
-0.588074
-0.559677
-0.527471
-0.491528
-0.45237
-0.41094
-0.36848
-0.326347
-0.285822
-0.247765
-0.212853
-0.185638
-0.764178
-0.740416
-0.721396
-0.703649
-0.685321
-0.666076
-0.645252
-0.622051
-0.595753
-0.56582
-0.532031
-0.494576
-0.454097
-0.411627
-0.368451
-0.325913
-0.285232
-0.24719
-0.212436
-0.184854
-0.776845
-0.752523
-0.733101
-0.714936
-0.696052
-0.676055
-0.654243
-0.62981
-0.602068
-0.570558
-0.535169
-0.496221
-0.454472
-0.411042
-0.367244
-0.324399
-0.283656
-0.245718
-0.211196
-0.183358
-0.787941
-0.763154
-0.743397
-0.724854
-0.70543
-0.68467
-0.661837
-0.636128
-0.606902
-0.573792
-0.53681
-0.496408
-0.453463
-0.409167
-0.364854
-0.321807
-0.281098
-0.243353
-0.209134
-0.181141
-0.797298
-0.772149
-0.752127
-0.73325
-0.713304
-0.691773
-0.667894
-0.640877
-0.610142
-0.575428
-0.536881
-0.495089
-0.451039
-0.405988
-0.361275
-0.318136
-0.27756
-0.240094
-0.206247
-0.178199
-0.80475
-0.779349
-0.759135
-0.739969
-0.71952
-0.697216
-0.672272
-0.643927
-0.611676
-0.575378
-0.535317
-0.492219
-0.447176
-0.401493
-0.356503
-0.313386
-0.273042
-0.235942
-0.202535
-0.174523
-0.810132
-0.784592
-0.764264
-0.744856
-0.723927
-0.700851
-0.674835
-0.645156
-0.611402
-0.57356
-0.53206
-0.487762
-0.441851
-0.395672
-0.350536
-0.307557
-0.267546
-0.230898
-0.197996
-0.170109
-0.813277
-0.787721
-0.767359
-0.747757
-0.726375
-0.702537
-0.67545
-0.644447
-0.609222
-0.569899
-0.527058
-0.481685
-0.435049
-0.388519
-0.343373
-0.300651
-0.261072
-0.224962
-0.19263
-0.164954
-0.814027
-0.78858
-0.768265
-0.748522
-0.726717
-0.702134
-0.673992
-0.641693
-0.605049
-0.564332
-0.520267
-0.473963
-0.426759
-0.38003
-0.335013
-0.29267
-0.253625
-0.218136
-0.18644
-0.159058
-0.812228
-0.787021
-0.766838
-0.747008
-0.724817
-0.699513
-0.670345
-0.636796
-0.598808
-0.556803
-0.511654
-0.464579
-0.416972
-0.370206
-0.325462
-0.283618
-0.245207
-0.210424
-0.179429
-0.152423
-0.807735
-0.782903
-0.762939
-0.743078
-0.720542
-0.694555
-0.664403
-0.629668
-0.590431
-0.547268
-0.501193
-0.453522
-0.405689
-0.359051
-0.314724
-0.273501
-0.235824
-0.201833
-0.171602
-0.145056
-0.800416
-0.776096
-0.756439
-0.736608
-0.713775
-0.68715
-0.656073
-0.620237
-0.579868
-0.535697
-0.48887
-0.44079
-0.392916
-0.346573
-0.30281
-0.262329
-0.225487
-0.192369
-0.16297
-0.136963
-0.790153
-0.766482
-0.747222
-0.727484
-0.70441
-0.677205
-0.645278
-0.608444
-0.567079
-0.522068
-0.47468
-0.426388
-0.378662
-0.332787
-0.289733
-0.250115
-0.214208
-0.182046
-0.153543
-0.128159
-0.776841
-0.75396
-0.735186
-0.715608
-0.692355
-0.664641
-0.631956
-0.594245
-0.552041
-0.506376
-0.45863
-0.410331
-0.362948
-0.317711
-0.275512
-0.236877
-0.202002
-0.170877
-0.143338
-0.118654
-0.760396
-0.738443
-0.720248
-0.7009
-0.677538
-0.649398
-0.616061
-0.577614
-0.534746
-0.488627
-0.440736
-0.392643
-0.345797
-0.30137
-0.26017
-0.222635
-0.188889
-0.158884
-0.132377
-0.108445
-0.740753
-0.719866
-0.70234
-0.683296
-0.659903
-0.631432
-0.597567
-0.558543
-0.515199
-0.468841
-0.421028
-0.373355
-0.327244
-0.283796
-0.243734
-0.207415
-0.174893
-0.146091
-0.120692
-0.0975332
-0.71787
-0.698183
-0.681417
-0.662754
-0.639417
-0.610723
-0.576469
-0.537039
-0.493426
-0.447051
-0.399544
-0.352509
-0.307327
-0.265024
-0.226239
-0.191246
-0.16004
-0.132525
-0.108278
-0.0860684
-0.691727
-0.673371
-0.657456
-0.639253
-0.616067
-0.587269
-0.552778
-0.513132
-0.469465
-0.423305
-0.376335
-0.330156
-0.286094
-0.245098
-0.207723
-0.174168
-0.144374
-0.118216
-0.0951737
-0.0739902
-0.66233
-0.645431
-0.630455
-0.612797
-0.589863
-0.561091
-0.52653
-0.486867
-0.443371
-0.397664
-0.351465
-0.306355
-0.2636
-0.224066
-0.188237
-0.156221
-0.127924
-0.103196
-0.081424
-0.061325
-0.62971
-0.614389
-0.600439
-0.583412
-0.560838
-0.532233
-0.497779
-0.458309
-0.415217
-0.370203
-0.325005
-0.281175
-0.239909
-0.201994
-0.167822
-0.13745
-0.110734
-0.0875067
-0.0670647
-0.0481117
-0.593924
-0.580295
-0.567457
-0.551149
-0.52905
-0.500762
-0.4666
-0.427541
-0.385091
-0.341009
-0.297041
-0.254693
-0.215092
-0.178937
-0.146543
-0.117908
-0.092851
-0.071191
-0.0521352
-0.0343898
-0.555058
-0.543228
-0.531583
-0.516085
-0.494582
-0.466766
-0.43309
-0.394666
-0.353094
-0.310182
-0.267664
-0.226998
-0.189226
-0.154967
-0.124461
-0.0976518
-0.0743285
-0.0542968
-0.0366795
-0.0202009
-0.513224
-0.503291
-0.492919
-0.478322
-0.457538
-0.430358
-0.397368
-0.359799
-0.319343
-0.277832
-0.236983
-0.198184
-0.162398
-0.130162
-0.101646
-0.0767452
-0.0552231
-0.0368762
-0.0207453
-0.00558923
-0.468562
-0.460614
-0.451591
-0.437986
-0.41805
-0.391674
-0.359574
-0.323068
-0.283969
-0.244088
-0.20511
-0.168354
-0.1347
-0.104604
-0.0781725
-0.0552556
-0.0355968
-0.018985
-0.00438395
0.00939743
-0.421239
-0.415353
-0.40775
-0.395232
-0.376269
-0.350863
-0.319834
-0.28465
-0.24712
-0.209082
-0.172168
-0.13762
-0.106232
-0.0783846
-0.0541221
-0.0332566
-0.0155159
-0.000683305
0.0123492
0.0247079
-0.371449
-0.367685
-0.361576
-0.350236
-0.332363
-0.308094
-0.278353
-0.24469
-0.208949
-0.172959
-0.138289
-0.1061
-0.0771016
-0.0515982
-0.0295807
-0.0108264
0.00494841
0.017965
0.0293953
0.0402867
-0.319391
-0.31782
-0.313268
-0.303179
-0.286546
-0.263573
-0.235308
-0.203371
-0.169627
-0.135873
-0.103613
-0.0739196
-0.0474195
-0.0243461
-0.00463985
0.0119518
0.0257204
0.036892
0.0466913
0.056072
-0.265237
-0.266059
-0.26304
-0.254295
-0.23902
-0.217505
-0.1909
-0.160886
-0.12933
-0.0979876
-0.0682854
-0.0412101
-0.017304
0.00326588
0.0206046
0.0349903
0.0467198
0.0560251
0.0641681
0.0719938
-0.209438
-0.212509
-0.211142
-0.203825
-0.190021
-0.170116
-0.145347
-0.117437
-0.0882455
-0.0594716
-0.0324599
-0.00810789
0.0131229
0.0311276
0.0460528
0.0581975
0.0678622
0.0752877
0.0817525
0.0879737
-0.152154
-0.157516
-0.157844
-0.152023
-0.139799
-0.121647
-0.0988758
-0.0732388
-0.0465689
-0.0205016
0.003706
0.0252461
0.0437351
0.0591258
0.071602
0.081479
0.0890608
0.094608
0.0993823
0.103915
-0.0936852
-0.101369
-0.103421
-0.099161
-0.0886188
-0.0723514
-0.0517259
-0.0285107
-0.0045012
0.0187412
0.0400502
0.0587074
0.0744032
0.0871442
0.0971465
0.104737
0.110229
0.113931
0.11702
0.119663
-0.0343544
-0.0443696
-0.0481674
-0.045526
-0.0367575
-0.0224923
-0.0041436
0.0165195
0.037751
0.0580712
0.0764072
0.0921285
0.104996
0.115065
0.122578
0.12787
0.131278
0.133185
0.134529
0.135006
0.0255077
0.0131681
0.00760878
0.00858324
0.0154981
0.0276584
0.0436176
0.0616192
0.0799773
0.0972998
0.112609
0.12536
0.13538
0.142769
0.14779
0.150779
0.152109
0.152203
0.151393
0.149546
0.0855619
0.0709164
0.0635894
0.0628586
0.0678533
0.0778227
0.0912997
0.106552
0.121965
0.136237
0.148487
0.158252
0.165423
0.170138
0.172677
0.173378
0.172645
0.170817
0.167061
0.162599
0.145461
0.12854
0.119448
0.116985
0.120008
0.127718
0.138641
0.151081
0.163499
0.174691
0.18387
0.190654
0.194991
0.197054
0.197139
0.195587
0.192822
0.18914
0.183492
0.177988
0.204852
0.185698
0.174855
0.170644
0.171657
0.177061
0.185381
0.194968
0.204366
0.212471
0.218589
0.222415
0.22395
0.223398
0.221068
0.217305
0.212534
0.207007
0.199754
0.193245
0.263381
0.242047
0.229475
0.223513
0.222498
0.225565
0.231256
0.237974
0.244354
0.249389
0.252477
0.253386
0.252166
0.24905
0.244357
0.238435
0.231697
0.224357
0.215573
0.207961
0.320693
0.297244
0.282976
0.275273
0.272225
0.27295
0.276008
0.279867
0.283253
0.285257
0.285367
0.283419
0.279509
0.273894
0.266902
0.25888
0.250228
0.241132
0.230875
0.222064
0.376437
0.350948
0.335028
0.325607
0.320541
0.318936
0.319383
0.320417
0.320857
0.319892
0.317097
0.312371
0.30585
0.297815
0.288598
0.278547
0.268042
0.257255
0.245584
0.235524
0.430267
0.402823
0.385305
0.374203
0.367152
0.363253
0.361133
0.3594
0.356966
0.353118
0.34751
0.340101
0.331066
0.320702
0.309348
0.297346
0.285062
0.272653
0.259627
0.248309
0.481848
0.452544
0.433491
0.420758
0.411772
0.405635
0.401018
0.3966
0.391389
0.384763
0.376453
0.366474
0.355035
0.342448
0.329055
0.315193
0.301211
0.287257
0.272939
0.260376
0.530854
0.499795
0.47928
0.46498
0.454127
0.445831
0.438806
0.43181
0.423939
0.414662
0.403781
0.391361
0.377643
0.36295
0.347628
0.332007
0.316418
0.301005
0.285463
0.271686
0.576973
0.544273
0.52238
0.506589
0.493955
0.483597
0.474279
0.464832
0.454442
0.44266
0.429355
0.41464
0.39878
0.382112
0.36498
0.34771
0.330616
0.313836
0.297146
0.282204
0.619912
0.585691
0.562514
0.545322
0.531008
0.518706
0.507229
0.49548
0.482731
0.468609
0.453045
0.436194
0.418345
0.399842
0.381032
0.362231
0.343739
0.325695
0.307939
0.291896
0.659395
0.623783
0.599421
0.580931
0.565055
0.550946
0.537464
0.523584
0.508654
0.492373
0.47473
0.455916
0.43624
0.416055
0.395705
0.375503
0.35573
0.336528
0.317797
0.300727
0.695167
0.658299
0.632864
0.613187
0.595883
0.58012
0.564806
0.548982
0.532067
0.513828
0.494299
0.473707
0.452379
0.430673
0.408933
0.387463
0.366534
0.346287
0.326675
0.308665
0.726995
0.689016
0.662622
0.641884
0.623297
0.60605
0.589095
0.571531
0.552845
0.532857
0.51165
0.489478
0.466681
0.443625
0.42065
0.398056
0.3761
0.354928
0.334535
0.315682
0.754674
0.71573
0.688503
0.666835
0.647126
0.628579
0.610188
0.591104
0.570871
0.549362
0.526694
0.503147
0.479076
0.454847
0.430801
0.407232
0.384385
0.362411
0.341341
0.32175
0.778022
0.738267
0.710336
0.687881
0.667218
0.647568
0.627959
0.607588
0.586048
0.563253
0.539353
0.514647
0.489501
0.464284
0.439336
0.414946
0.39135
0.368702
0.347063
0.326845
0.796886
0.756478
0.727977
0.704883
0.683446
0.662901
0.642304
0.62089
0.598291
0.574456
0.54956
0.523919
0.497905
0.471891
0.446216
0.421163
0.396963
0.373771
0.351673
0.330946
0.811145
0.770243
0.741311
0.717733
0.695709
0.674484
0.653138
0.630934
0.607534
0.582911
0.557263
0.530914
0.504245
0.47763
0.451405
0.425852
0.401195
0.377593
0.355149
0.334037
0.820702
0.77947
0.75025
0.726346
0.703927
0.682246
0.660396
0.637662
0.613724
0.588574
0.56242
0.535598
0.50849
0.481471
0.454878
0.42899
0.404029
0.380152
0.357476
0.336105
0.825497
0.7841
0.754734
0.730667
0.708049
0.686139
0.664036
0.641035
0.616827
0.591413
0.565006
0.537946
0.510617
0.483397
0.456619
0.430563
0.405448
0.381435
0.358643
0.337141
0.825497
0.784099
0.754734
0.730667
0.708049
0.686139
0.664036
0.641035
0.616827
0.591413
0.565006
0.537946
0.510617
0.483397
0.456619
0.430563
0.405448
0.381435
0.358643
0.337141
0.820702
0.77947
0.75025
0.726346
0.703927
0.682246
0.660396
0.637662
0.613724
0.588574
0.56242
0.535598
0.50849
0.481471
0.454878
0.42899
0.404029
0.380152
0.357476
0.336105
0.811144
0.770243
0.741311
0.717733
0.695709
0.674484
0.653138
0.630934
0.607534
0.582911
0.557263
0.530914
0.504245
0.47763
0.451405
0.425852
0.401195
0.377593
0.355149
0.334037
0.796886
0.756478
0.727977
0.704883
0.683446
0.662901
0.642304
0.62089
0.598291
0.574456
0.54956
0.523919
0.497905
0.471891
0.446216
0.421163
0.396963
0.373771
0.351673
0.330946
0.778022
0.738267
0.710336
0.687881
0.667218
0.647568
0.627959
0.607589
0.586048
0.563253
0.539353
0.514647
0.489501
0.464285
0.439336
0.414946
0.39135
0.368702
0.347063
0.326845
0.754674
0.71573
0.688503
0.666835
0.647126
0.628579
0.610188
0.591104
0.570871
0.549362
0.526695
0.503148
0.479076
0.454847
0.430801
0.407232
0.384385
0.362411
0.341341
0.32175
0.726995
0.689016
0.662622
0.641884
0.623297
0.60605
0.589095
0.571532
0.552845
0.532857
0.511651
0.489478
0.466681
0.443625
0.42065
0.398056
0.3761
0.354928
0.334535
0.315682
0.695167
0.6583
0.632864
0.613187
0.595883
0.58012
0.564806
0.548982
0.532068
0.513828
0.494299
0.473707
0.452379
0.430673
0.408933
0.387463
0.366534
0.346287
0.326675
0.308665
0.659395
0.623783
0.599421
0.580931
0.565055
0.550946
0.537464
0.523584
0.508654
0.492374
0.47473
0.455916
0.43624
0.416055
0.395706
0.375503
0.35573
0.336528
0.317797
0.300727
0.619913
0.585691
0.562514
0.545322
0.531008
0.518706
0.507229
0.495481
0.482731
0.468609
0.453045
0.436194
0.418345
0.399842
0.381032
0.362232
0.343739
0.325695
0.307939
0.291896
0.576974
0.544273
0.52238
0.50659
0.493955
0.483597
0.474279
0.464832
0.454442
0.44266
0.429355
0.41464
0.39878
0.382112
0.364981
0.347711
0.330616
0.313837
0.297146
0.282205
0.530854
0.499795
0.47928
0.46498
0.454127
0.445831
0.438806
0.43181
0.423939
0.414662
0.403781
0.391362
0.377643
0.362951
0.347628
0.332007
0.316419
0.301005
0.285463
0.271686
0.481848
0.452545
0.433491
0.420758
0.411772
0.405636
0.401018
0.3966
0.391389
0.384763
0.376453
0.366474
0.355035
0.342448
0.329055
0.315194
0.301212
0.287257
0.272939
0.260376
0.430267
0.402824
0.385305
0.374203
0.367152
0.363253
0.361134
0.3594
0.356967
0.353118
0.34751
0.340101
0.331066
0.320702
0.309348
0.297346
0.285062
0.272653
0.259627
0.248309
0.376437
0.350948
0.335028
0.325607
0.320542
0.318937
0.319384
0.320418
0.320857
0.319893
0.317097
0.312371
0.305851
0.297815
0.288598
0.278547
0.268043
0.257255
0.245585
0.235524
0.320693
0.297244
0.282977
0.275274
0.272226
0.27295
0.276008
0.279868
0.283253
0.285257
0.285367
0.283419
0.279509
0.273894
0.266902
0.25888
0.250228
0.241132
0.230875
0.222064
0.263381
0.242048
0.229476
0.223514
0.222498
0.225566
0.231256
0.237975
0.244354
0.249389
0.252477
0.253386
0.252166
0.24905
0.244357
0.238435
0.231697
0.224357
0.215573
0.207961
0.204852
0.185699
0.174855
0.170644
0.171658
0.177061
0.185381
0.194968
0.204367
0.212472
0.21859
0.222415
0.22395
0.223398
0.221068
0.217306
0.212535
0.207007
0.199755
0.193245
0.145461
0.12854
0.119449
0.116986
0.120008
0.127719
0.138642
0.151082
0.163499
0.174691
0.18387
0.190654
0.194991
0.197054
0.197139
0.195587
0.192822
0.18914
0.183492
0.177988
0.0855623
0.0709169
0.0635898
0.062859
0.0678536
0.077823
0.0913
0.106553
0.121965
0.136237
0.148487
0.158253
0.165424
0.170138
0.172677
0.173378
0.172645
0.170817
0.167061
0.162599
0.0255082
0.0131685
0.00760921
0.00858365
0.0154985
0.0276587
0.043618
0.0616195
0.0799776
0.0973001
0.112609
0.125361
0.135381
0.142769
0.14779
0.150779
0.152109
0.152203
0.151393
0.149546
-0.0343539
-0.0443691
-0.0481669
-0.0455256
-0.0367571
-0.022492
-0.00414324
0.0165198
0.0377513
0.0580714
0.0764075
0.0921287
0.104996
0.115065
0.122579
0.12787
0.131278
0.133185
0.134529
0.135007
-0.0936847
-0.101369
-0.10342
-0.0991605
-0.0886183
-0.0723509
-0.0517255
-0.0285104
-0.00450087
0.0187415
0.0400505
0.0587076
0.0744034
0.0871444
0.0971467
0.104737
0.110229
0.113931
0.11702
0.119663
-0.152154
-0.157515
-0.157843
-0.152023
-0.139798
-0.121646
-0.0988754
-0.0732385
-0.0465686
-0.0205013
0.00370628
0.0252464
0.0437353
0.059126
0.0716022
0.0814792
0.089061
0.0946082
0.0993825
0.103915
-0.209437
-0.212508
-0.211142
-0.203825
-0.19002
-0.170115
-0.145346
-0.117437
-0.0882452
-0.0594713
-0.0324596
-0.00810761
0.0131232
0.0311279
0.0460531
0.0581977
0.0678624
0.0752879
0.0817527
0.0879739
-0.265237
-0.266059
-0.26304
-0.254295
-0.23902
-0.217504
-0.1909
-0.160885
-0.129329
-0.0979872
-0.0682851
-0.0412098
-0.0173037
0.00326612
0.0206048
0.0349905
0.04672
0.0560253
0.0641683
0.071994
-0.31939
-0.31782
-0.313267
-0.303178
-0.286546
-0.263573
-0.235307
-0.203371
-0.169626
-0.135873
-0.103612
-0.0739193
-0.0474193
-0.0243458
-0.00463962
0.011952
0.0257206
0.0368922
0.0466914
0.0560722
-0.371448
-0.367684
-0.361575
-0.350235
-0.332363
-0.308094
-0.278353
-0.24469
-0.208949
-0.172959
-0.138289
-0.1061
-0.0771013
-0.0515979
-0.0295805
-0.0108261
0.00494862
0.0179652
0.0293955
0.0402869
-0.421239
-0.415353
-0.40775
-0.395231
-0.376269
-0.350862
-0.319833
-0.284649
-0.247119
-0.209082
-0.172168
-0.137619
-0.106232
-0.0783843
-0.0541219
-0.0332563
-0.0155156
-0.000683101
0.0123494
0.0247081
-0.468562
-0.460614
-0.45159
-0.437986
-0.418049
-0.391673
-0.359574
-0.323068
-0.283968
-0.244088
-0.20511
-0.168353
-0.1347
-0.104604
-0.0781723
-0.0552554
-0.0355965
-0.0189848
-0.00438376
0.00939761
-0.513224
-0.50329
-0.492918
-0.478321
-0.457537
-0.430358
-0.397368
-0.359799
-0.319342
-0.277832
-0.236983
-0.198183
-0.162398
-0.130161
-0.101645
-0.0767449
-0.0552229
-0.036876
-0.0207451
-0.00558905
-0.555058
-0.543228
-0.531582
-0.516085
-0.494581
-0.466766
-0.433089
-0.394665
-0.353094
-0.310182
-0.267663
-0.226998
-0.189226
-0.154967
-0.12446
-0.0976516
-0.0743283
-0.0542966
-0.0366793
-0.0202007
-0.593923
-0.580295
-0.567456
-0.551148
-0.52905
-0.500761
-0.466599
-0.427541
-0.38509
-0.341008
-0.29704
-0.254693
-0.215091
-0.178937
-0.146542
-0.117907
-0.0928507
-0.0711908
-0.052135
-0.0343896
-0.629709
-0.614388
-0.600438
-0.583411
-0.560837
-0.532233
-0.497778
-0.458308
-0.415217
-0.370202
-0.325005
-0.281174
-0.239909
-0.201994
-0.167822
-0.137449
-0.110733
-0.0875065
-0.0670645
-0.0481116
-0.66233
-0.645431
-0.630455
-0.612796
-0.589862
-0.56109
-0.526529
-0.486866
-0.443371
-0.397663
-0.351465
-0.306354
-0.263599
-0.224066
-0.188236
-0.15622
-0.127924
-0.103196
-0.0814238
-0.0613248
-0.691727
-0.673371
-0.657455
-0.639253
-0.616066
-0.587268
-0.552778
-0.513132
-0.469464
-0.423304
-0.376335
-0.330155
-0.286093
-0.245097
-0.207723
-0.174168
-0.144374
-0.118216
-0.0951735
-0.07399
-0.71787
-0.698182
-0.681417
-0.662753
-0.639416
-0.610722
-0.576468
-0.537039
-0.493425
-0.44705
-0.399543
-0.352509
-0.307326
-0.265024
-0.226239
-0.191246
-0.160039
-0.132525
-0.108278
-0.0860682
-0.740753
-0.719865
-0.702339
-0.683295
-0.659903
-0.631432
-0.597567
-0.558542
-0.515199
-0.46884
-0.421027
-0.373355
-0.327243
-0.283795
-0.243734
-0.207415
-0.174893
-0.146091
-0.120691
-0.097533
-0.760395
-0.738442
-0.720247
-0.700899
-0.677537
-0.649397
-0.61606
-0.577614
-0.534745
-0.488627
-0.440736
-0.392642
-0.345797
-0.30137
-0.260169
-0.222635
-0.188889
-0.158884
-0.132377
-0.108445
-0.77684
-0.753959
-0.735186
-0.715608
-0.692354
-0.664641
-0.631955
-0.594244
-0.552041
-0.506376
-0.458629
-0.410331
-0.362947
-0.317711
-0.275512
-0.236877
-0.202002
-0.170877
-0.143337
-0.118653
-0.790152
-0.766482
-0.747221
-0.727483
-0.704409
-0.677205
-0.645278
-0.608443
-0.567079
-0.522068
-0.47468
-0.426387
-0.378662
-0.332786
-0.289733
-0.250115
-0.214208
-0.182046
-0.153543
-0.128158
-0.800416
-0.776095
-0.756438
-0.736607
-0.713774
-0.68715
-0.656073
-0.620237
-0.579867
-0.535696
-0.48887
-0.440789
-0.392915
-0.346573
-0.302809
-0.262329
-0.225487
-0.192369
-0.162969
-0.136963
-0.807734
-0.782903
-0.762938
-0.743078
-0.720542
-0.694554
-0.664402
-0.629668
-0.590431
-0.547268
-0.501193
-0.453521
-0.405689
-0.35905
-0.314724
-0.2735
-0.235824
-0.201832
-0.171602
-0.145055
-0.812227
-0.787021
-0.766838
-0.747007
-0.724816
-0.699513
-0.670344
-0.636795
-0.598807
-0.556802
-0.511653
-0.464579
-0.416972
-0.370206
-0.325461
-0.283617
-0.245206
-0.210424
-0.179428
-0.152423
-0.814026
-0.78858
-0.768265
-0.748522
-0.726717
-0.702133
-0.673992
-0.641693
-0.605049
-0.564331
-0.520266
-0.473963
-0.426758
-0.38003
-0.335013
-0.29267
-0.253624
-0.218136
-0.18644
-0.159058
-0.813277
-0.78772
-0.767358
-0.747756
-0.726374
-0.702536
-0.67545
-0.644447
-0.609221
-0.569898
-0.527057
-0.481685
-0.435049
-0.388519
-0.343372
-0.300651
-0.261072
-0.224962
-0.19263
-0.164954
-0.810131
-0.784591
-0.764264
-0.744855
-0.723926
-0.700851
-0.674835
-0.645155
-0.611401
-0.573559
-0.532059
-0.487761
-0.441851
-0.395672
-0.350536
-0.307557
-0.267545
-0.230898
-0.197995
-0.170108
-0.80475
-0.779348
-0.759135
-0.739968
-0.719519
-0.697215
-0.672272
-0.643926
-0.611676
-0.575378
-0.535317
-0.492219
-0.447175
-0.401493
-0.356503
-0.313386
-0.273042
-0.235942
-0.202534
-0.174522
-0.797297
-0.772148
-0.752126
-0.733249
-0.713303
-0.691772
-0.667893
-0.640876
-0.610141
-0.575428
-0.53688
-0.495088
-0.451039
-0.405988
-0.361275
-0.318136
-0.277559
-0.240094
-0.206247
-0.178198
-0.78794
-0.763153
-0.743396
-0.724853
-0.705429
-0.684669
-0.661837
-0.636128
-0.606902
-0.573792
-0.536809
-0.496407
-0.453463
-0.409167
-0.364854
-0.321807
-0.281098
-0.243352
-0.209133
-0.181141
-0.776845
-0.752523
-0.733101
-0.714935
-0.696051
-0.676054
-0.654242
-0.629809
-0.602067
-0.570557
-0.535169
-0.49622
-0.454472
-0.411042
-0.367244
-0.324399
-0.283656
-0.245718
-0.211196
-0.183357
-0.764177
-0.740415
-0.721396
-0.703648
-0.68532
-0.666075
-0.645251
-0.622051
-0.595752
-0.56582
-0.53203
-0.494576
-0.454096
-0.411627
-0.368451
-0.325912
-0.285231
-0.24719
-0.212436
-0.184854
-0.750098
-0.726986
-0.708433
-0.691143
-0.673385
-0.654878
-0.635004
-0.612983
-0.588073
-0.559676
-0.527471
-0.491528
-0.452369
-0.410939
-0.36848
-0.326346
-0.285822
-0.247764
-0.212853
-0.185638
-0.734765
-0.712386
-0.694358
-0.677564
-0.660389
-0.642605
-0.62364
-0.602738
-0.57915
-0.55223
-0.521571
-0.487134
-0.449327
-0.408999
-0.367338
-0.325701
-0.285423
-0.247438
-0.212444
-0.185709
-0.718328
-0.696759
-0.679314
-0.663052
-0.646472
-0.629394
-0.611293
-0.591445
-0.569101
-0.543582
-0.514414
-0.481458
-0.445012
-0.405827
-0.365033
-0.323975
-0.28403
-0.246202
-0.211201
-0.185057
-0.700932
-0.680244
-0.663435
-0.64774
-0.631767
-0.615378
-0.598095
-0.579229
-0.558043
-0.533839
-0.506087
-0.474564
-0.439467
-0.401451
-0.361578
-0.321171
-0.281637
-0.244048
-0.209111
-0.183643
-0.682715
-0.662973
-0.646851
-0.631754
-0.616398
-0.600682
-0.58417
-0.566212
-0.546092
-0.523104
-0.496679
-0.466523
-0.432743
-0.3959
-0.356986
-0.317291
-0.27824
-0.240964
-0.206153
-0.181372
-0.663807
-0.645073
-0.629684
-0.615217
-0.600487
-0.585425
-0.569636
-0.552511
-0.53336
-0.511481
-0.486279
-0.457407
-0.424891
-0.389209
-0.351277
-0.312344
-0.273837
-0.236943
-0.20231
-0.178052
-0.644333
-0.626664
-0.612051
-0.598241
-0.584146
-0.56972
-0.554607
-0.538239
-0.519956
-0.499071
-0.47498
-0.447293
-0.415972
-0.381418
-0.344475
-0.306343
-0.268435
-0.23199
-0.197599
-0.173267
-0.624412
-0.607861
-0.594064
-0.580936
-0.567483
-0.553675
-0.53919
-0.523501
-0.505985
-0.485977
-0.462872
-0.436259
-0.406049
-0.372574
-0.336613
-0.299311
-0.26205
-0.226136
-0.19197
-0.165786
-0.604159
-0.588775
-0.575829
-0.563406
-0.550599
-0.537389
-0.523486
-0.508402
-0.49155
-0.472297
-0.45005
-0.42439
-0.395191
-0.362734
-0.327734
-0.291285
-0.254724
-0.219439
-0.185187
-0.152201
-0.583686
-0.569515
-0.557452
-0.545753
-0.533593
-0.520962
-0.507594
-0.493039
-0.476751
-0.458131
-0.436611
-0.411774
-0.383477
-0.35196
-0.317889
-0.282311
-0.24652
-0.21204
-0.17927
-0.144085
-0.563106
-0.550188
-0.539036
-0.528074
-0.516562
-0.504487
-0.491608
-0.477509
-0.461686
-0.443579
-0.422652
-0.398506
-0.370993
-0.340326
-0.307136
-0.272435
-0.237479
-0.203856
-0.17275
-0.137974
-0.542531
-0.530902
-0.520684
-0.510469
-0.499599
-0.488058
-0.475622
-0.461909
-0.446455
-0.428743
-0.408277
-0.384686
-0.357832
-0.327918
-0.295546
-0.261701
-0.227609
-0.194824
-0.164959
-0.131207
-0.522078
-0.511768
-0.5025
-0.493037
-0.482801
-0.471769
-0.459729
-0.446334
-0.431157
-0.413728
-0.393596
-0.370426
-0.344104
-0.314835
-0.283206
-0.250177
-0.216946
-0.185006
-0.156143
-0.123499
-0.501868
-0.4929
-0.48459
-0.475879
-0.466265
-0.455713
-0.444026
-0.430883
-0.415897
-0.398644
-0.378722
-0.355844
-0.329928
-0.301193
-0.270224
-0.23796
-0.205575
-0.174502
-0.146581
-0.115162
-0.482027
-0.474414
-0.467066
-0.459099
-0.450089
-0.439989
-0.42861
-0.415658
-0.400783
-0.383607
-0.363783
-0.341073
-0.315439
-0.287129
-0.256733
-0.225178
-0.193614
-0.163425
-0.136436
-0.106373
-0.462689
-0.456434
-0.450043
-0.442807
-0.43438
-0.424699
-0.413585
-0.400767
-0.38593
-0.368742
-0.348911
-0.326256
-0.300789
-0.272797
-0.242885
-0.211978
-0.181207
-0.151908
-0.125849
-0.0972445
-0.443996
-0.43909
-0.43364
-0.427113
-0.419243
-0.40995
-0.399059
-0.386323
-0.371458
-0.354181
-0.334251
-0.311549
-0.286144
-0.258368
-0.228854
-0.198532
-0.168519
-0.140108
-0.114977
-0.0879089
-0.426095
-0.422514
-0.41798
-0.412137
-0.404792
-0.395852
-0.385144
-0.372443
-0.357497
-0.340063
-0.319957
-0.297121
-0.271686
-0.244034
-0.214836
-0.185034
-0.155738
-0.128202
-0.103999
-0.0785194
-0.40914
-0.406845
-0.403191
-0.397996
-0.391142
-0.382519
-0.371959
-0.359254
-0.34418
-0.326536
-0.306193
-0.283152
-0.257607
-0.229999
-0.201041
-0.171695
-0.143071
-0.116388
-0.0931045
-0.0692375
-0.393287
-0.392221
-0.389402
-0.384813
-0.378412
-0.370071
-0.359625
-0.346882
-0.331646