/*--------------------------------*- C++ -*----------------------------------*\
  =========                 |
  \\      /  F ield         | OpenFOAM: The Open Source CFD Toolbox
   \\    /   O peration     | Website:  https://openfoam.org
    \\  /    A nd           | Version:  7
     \\/     M anipulation  |
\*---------------------------------------------------------------------------*/
FoamFile
{
    version     2.0;
    format      ascii;
    class       volScalarField;
    location    "0.5";
    object      p;
}
// * * * * * * * * * * * * * * * * * * * * * * * * * * * * * * * * * * * * * //

dimensions      [0 2 -2 0 0 0 0];

internalField   nonuniform List<scalar> 
16528
(
4.02449
4.02437
4.02414
4.02379
4.02334
4.02278
4.02213
4.02139
4.02058
4.01971
4.01879
4.01783
4.01684
4.01584
4.01483
4.01382
4.01281
4.01182
4.01084
4.00987
4.00892
4.00799
4.00707
4.00617
4.00529
4.00442
4.00357
4.00273
4.00191
4.00109
4.00029
3.99949
3.99871
3.99793
3.99716
3.99639
3.99563
3.99488
3.99413
3.99338
3.99263
3.99189
3.99115
3.99042
3.98968
3.98895
3.98822
3.98749
3.98676
3.98603
3.98531
3.98458
3.98386
3.98313
3.98241
3.98168
3.98096
3.98024
3.97951
3.97879
3.97807
3.97734
3.97662
3.9759
3.97518
3.97446
3.97373
3.97301
3.97229
3.97157
3.97085
3.97013
3.96941
3.96868
3.96796
3.96724
3.96652
3.9658
3.96508
3.96436
3.96363
3.96291
3.96219
3.96147
3.96075
3.96003
3.95931
3.95859
3.95786
3.95714
3.95642
3.9557
3.95498
3.95426
3.95354
3.95282
3.95209
3.95137
3.95065
3.94993
3.94921
3.94849
3.94777
3.94704
3.94632
3.9456
3.94488
3.94416
3.94344
3.94272
3.94199
3.94127
3.94055
3.93983
3.93911
3.93839
3.93767
3.93694
3.93622
3.9355
3.93478
3.93405
3.93333
3.93261
3.93189
3.93116
3.93044
3.92972
3.92899
3.92827
3.92754
3.92682
3.92609
3.92536
3.92464
3.92391
3.92318
3.92245
3.92172
3.92098
3.92025
3.91951
3.91877
3.91803
3.91729
3.91655
3.91581
3.91506
3.91432
3.91358
3.91284
3.91211
3.91139
3.91069
3.91001
3.90936
3.90876
3.90822
3.90775
3.90741
3.90718
3.90722
3.90735
3.90811
3.9088
3.91095
3.91232
3.91713
3.91885
3.92855
3.92862
3.94624
3.9392
3.96565
3.94189
3.97197
3.92222
3.9477
3.87968
3.90147
3.83659
3.85118
3.77823
3.76062
3.67429
3.6158
3.54574
3.45767
3.37277
3.27486
3.14859
3.01478
2.87488
2.7046
2.50633
2.29836
2.0645
1.78948
1.49576
1.19696
4.02454
4.02442
4.02419
4.02384
4.02339
4.02282
4.02217
4.02142
4.02061
4.01973
4.0188
4.01784
4.01685
4.01584
4.01483
4.01382
4.01281
4.01181
4.01083
4.00986
4.00891
4.00798
4.00706
4.00616
4.00528
4.00442
4.00357
4.00273
4.0019
4.00109
4.00029
3.99949
3.9987
3.99793
3.99716
3.99639
3.99563
3.99487
3.99412
3.99338
3.99263
3.99189
3.99115
3.99042
3.98968
3.98895
3.98822
3.98749
3.98676
3.98603
3.98531
3.98458
3.98386
3.98313
3.98241
3.98168
3.98096
3.98024
3.97951
3.97879
3.97807
3.97734
3.97662
3.9759
3.97518
3.97446
3.97373
3.97301
3.97229
3.97157
3.97085
3.97013
3.96941
3.96868
3.96796
3.96724
3.96652
3.9658
3.96508
3.96436
3.96363
3.96291
3.96219
3.96147
3.96075
3.96003
3.95931
3.95859
3.95786
3.95714
3.95642
3.9557
3.95498
3.95426
3.95354
3.95282
3.95209
3.95137
3.95065
3.94993
3.94921
3.94849
3.94777
3.94704
3.94632
3.9456
3.94488
3.94416
3.94344
3.94272
3.94199
3.94127
3.94055
3.93983
3.93911
3.93839
3.93767
3.93694
3.93622
3.9355
3.93478
3.93405
3.93333
3.93261
3.93189
3.93116
3.93044
3.92972
3.92899
3.92827
3.92754
3.92682
3.92609
3.92536
3.92464
3.92391
3.92318
3.92245
3.92172
3.92098
3.92025
3.91951
3.91877
3.91803
3.91729
3.91655
3.91581
3.91506
3.91432
3.91358
3.91284
3.91211
3.91139
3.91068
3.90999
3.90934
3.90873
3.90818
3.9077
3.90735
3.90709
3.90711
3.90719
3.90793
3.90851
3.91065
3.91182
3.91673
3.91807
3.92821
3.92772
3.94636
3.93868
3.96635
3.94156
3.97228
3.92029
3.94623
3.87575
3.90117
3.83395
3.85588
3.77601
3.76785
3.66865
3.62246
3.54417
3.46108
3.3777
3.27662
3.15158
3.01972
2.87755
2.70639
2.51201
2.30363
2.06438
1.78945
1.49859
1.19588
4.02466
4.02454
4.02431
4.02395
4.02349
4.02292
4.02225
4.0215
4.02067
4.01978
4.01884
4.01786
4.01686
4.01585
4.01483
4.01381
4.0128
4.0118
4.01081
4.00984
4.00889
4.00796
4.00704
4.00615
4.00527
4.0044
4.00355
4.00271
4.00189
4.00108
4.00028
3.99948
3.9987
3.99792
3.99715
3.99638
3.99562
3.99487
3.99412
3.99337
3.99263
3.99189
3.99115
3.99042
3.98968
3.98895
3.98822
3.98749
3.98676
3.98603
3.98531
3.98458
3.98385
3.98313
3.98241
3.98168
3.98096
3.98024
3.97951
3.97879
3.97807
3.97734
3.97662
3.9759
3.97518
3.97446
3.97373
3.97301
3.97229
3.97157
3.97085
3.97013
3.96941
3.96868
3.96796
3.96724
3.96652
3.9658
3.96508
3.96436
3.96363
3.96291
3.96219
3.96147
3.96075
3.96003
3.95931
3.95859
3.95786
3.95714
3.95642
3.9557
3.95498
3.95426
3.95354
3.95282
3.95209
3.95137
3.95065
3.94993
3.94921
3.94849
3.94777
3.94704
3.94632
3.9456
3.94488
3.94416
3.94344
3.94272
3.94199
3.94127
3.94055
3.93983
3.93911
3.93839
3.93767
3.93694
3.93622
3.9355
3.93478
3.93406
3.93333
3.93261
3.93189
3.93116
3.93044
3.92972
3.92899
3.92827
3.92754
3.92682
3.92609
3.92537
3.92464
3.92391
3.92318
3.92245
3.92172
3.92098
3.92025
3.91951
3.91877
3.91804
3.91729
3.91655
3.91581
3.91506
3.91432
3.91357
3.91283
3.9121
3.91137
3.91066
3.90996
3.9093
3.90867
3.9081
3.90759
3.90721
3.90689
3.90687
3.90685
3.90753
3.90789
3.91001
3.91073
3.91581
3.91635
3.92732
3.92571
3.9463
3.93753
3.96739
3.94077
3.97178
3.91545
3.94103
3.86687
3.89843
3.82884
3.86206
3.77175
3.7771
3.65737
3.63481
3.53731
3.47327
3.3858
3.28156
3.15978
3.02845
2.88314
2.71274
2.52408
2.31304
2.06555
1.79161
1.50343
1.19205
4.02485
4.02473
4.02448
4.02412
4.02365
4.02306
4.02237
4.0216
4.02076
4.01985
4.01889
4.0179
4.01689
4.01586
4.01483
4.0138
4.01278
4.01178
4.01079
4.00981
4.00886
4.00793
4.00702
4.00612
4.00524
4.00438
4.00353
4.00269
4.00187
4.00106
4.00026
3.99947
3.99868
3.99791
3.99714
3.99638
3.99562
3.99486
3.99411
3.99337
3.99263
3.99189
3.99115
3.99041
3.98968
3.98895
3.98822
3.98749
3.98676
3.98603
3.9853
3.98458
3.98385
3.98313
3.9824
3.98168
3.98096
3.98023
3.97951
3.97879
3.97807
3.97734
3.97662
3.9759
3.97518
3.97446
3.97373
3.97301
3.97229
3.97157
3.97085
3.97013
3.96941
3.96868
3.96796
3.96724
3.96652
3.9658
3.96508
3.96436
3.96363
3.96291
3.96219
3.96147
3.96075
3.96003
3.95931
3.95859
3.95786
3.95714
3.95642
3.9557
3.95498
3.95426
3.95354
3.95282
3.95209
3.95137
3.95065
3.94993
3.94921
3.94849
3.94777
3.94704
3.94632
3.9456
3.94488
3.94416
3.94344
3.94272
3.94199
3.94127
3.94055
3.93983
3.93911
3.93839
3.93767
3.93694
3.93622
3.9355
3.93478
3.93406
3.93333
3.93261
3.93189
3.93116
3.93044
3.92972
3.92899
3.92827
3.92754
3.92682
3.92609
3.92537
3.92464
3.92391
3.92318
3.92245
3.92172
3.92099
3.92025
3.91952
3.91878
3.91804
3.9173
3.91655
3.91581
3.91506
3.91432
3.91357
3.91282
3.91208
3.91135
3.91063
3.90992
3.90924
3.90858
3.90799
3.90743
3.907
3.90661
3.90652
3.90636
3.90694
3.907
3.90904
3.90914
3.91435
3.91375
3.92559
3.92257
3.94534
3.93572
3.96765
3.93939
3.96831
3.90695
3.92904
3.85284
3.89037
3.8215
3.8641
3.7647
3.77974
3.64163
3.64618
3.52597
3.49506
3.38667
3.29844
3.17284
3.03724
2.89254
2.72566
2.54067
2.32332
2.06955
1.79859
1.5081
1.18388
4.02511
4.02498
4.02473
4.02435
4.02386
4.02325
4.02254
4.02175
4.02087
4.01994
4.01896
4.01795
4.01691
4.01587
4.01482
4.01379
4.01276
4.01174
4.01075
4.00978
4.00882
4.00789
4.00698
4.00608
4.00521
4.00434
4.0035
4.00267
4.00185
4.00104
4.00024
3.99945
3.99867
3.99789
3.99713
3.99636
3.99561
3.99485
3.99411
3.99336
3.99262
3.99188
3.99114
3.99041
3.98967
3.98894
3.98821
3.98748
3.98676
3.98603
3.9853
3.98458
3.98385
3.98313
3.9824
3.98168
3.98096
3.98023
3.97951
3.97879
3.97807
3.97734
3.97662
3.9759
3.97518
3.97446
3.97373
3.97301
3.97229
3.97157
3.97085
3.97013
3.96941
3.96868
3.96796
3.96724
3.96652
3.9658
3.96508
3.96436
3.96363
3.96291
3.96219
3.96147
3.96075
3.96003
3.95931
3.95859
3.95786
3.95714
3.95642
3.9557
3.95498
3.95426
3.95354
3.95282
3.95209
3.95137
3.95065
3.94993
3.94921
3.94849
3.94777
3.94704
3.94632
3.9456
3.94488
3.94416
3.94344
3.94272
3.942
3.94127
3.94055
3.93983
3.93911
3.93839
3.93767
3.93694
3.93622
3.9355
3.93478
3.93406
3.93333
3.93261
3.93189
3.93117
3.93044
3.92972
3.92899
3.92827
3.92755
3.92682
3.92609
3.92537
3.92464
3.92391
3.92318
3.92245
3.92172
3.92099
3.92025
3.91952
3.91878
3.91804
3.9173
3.91656
3.91581
3.91506
3.91431
3.91356
3.91281
3.91207
3.91132
3.91059
3.90986
3.90916
3.90848
3.90784
3.90724
3.90675
3.90627
3.90609
3.90576
3.9062
3.90591
3.9078
3.90717
3.91229
3.91039
3.92264
3.91814
3.94252
3.9326
3.96559
3.93633
3.9593
3.89327
3.90873
3.83374
3.87618
3.81
3.85741
3.75181
3.77064
3.62446
3.65071
3.51356
3.51686
3.38164
3.32903
3.174
3.05122
2.90974
2.74346
2.5598
2.33406
2.07897
1.81077
1.50971
1.17177
4.02543
4.0253
4.02504
4.02464
4.02413
4.0235
4.02276
4.02193
4.02102
4.02005
4.01904
4.018
4.01694
4.01588
4.01481
4.01376
4.01272
4.0117
4.0107
4.00973
4.00877
4.00784
4.00693
4.00603
4.00516
4.0043
4.00346
4.00263
4.00182
4.00101
4.00021
3.99943
3.99865
3.99788
3.99711
3.99635
3.99559
3.99484
3.9941
3.99335
3.99261
3.99187
3.99114
3.9904
3.98967
3.98894
3.98821
3.98748
3.98675
3.98603
3.9853
3.98458
3.98385
3.98313
3.9824
3.98168
3.98096
3.98023
3.97951
3.97879
3.97807
3.97734
3.97662
3.9759
3.97518
3.97446
3.97373
3.97301
3.97229
3.97157
3.97085
3.97013
3.96941
3.96868
3.96796
3.96724
3.96652
3.9658
3.96508
3.96436
3.96363
3.96291
3.96219
3.96147
3.96075
3.96003
3.95931
3.95859
3.95786
3.95714
3.95642
3.9557
3.95498
3.95426
3.95354
3.95282
3.95209
3.95137
3.95065
3.94993
3.94921
3.94849
3.94777
3.94704
3.94632
3.9456
3.94488
3.94416
3.94344
3.94272
3.942
3.94127
3.94055
3.93983
3.93911
3.93839
3.93767
3.93694
3.93622
3.9355
3.93478
3.93406
3.93333
3.93261
3.93189
3.93117
3.93044
3.92972
3.929
3.92827
3.92755
3.92682
3.9261
3.92537
3.92464
3.92392
3.92319
3.92246
3.92173
3.92099
3.92026
3.91952
3.91878
3.91805
3.9173
3.91656
3.91581
3.91506
3.91431
3.91356
3.9128
3.91205
3.9113
3.91055
3.9098
3.90907
3.90836
3.90768
3.90701
3.90645
3.90587
3.90558
3.90511
3.90534
3.90473
3.90632
3.90505
3.90969
3.90656
3.91823
3.91227
3.93669
3.92666
3.95858
3.92843
3.94125
3.87224
3.88099
3.8111
3.8568
3.79086
3.83753
3.72632
3.74827
3.60859
3.64815
3.50757
3.53218
3.37918
3.35756
3.16338
3.07977
2.91863
2.76357
2.58231
2.34777
2.0979
1.82664
1.50812
1.15903
4.02584
4.0257
4.02542
4.025
4.02446
4.02379
4.02302
4.02215
4.0212
4.02019
4.01914
4.01806
4.01697
4.01588
4.0148
4.01373
4.01268
4.01165
4.01064
4.00966
4.00871
4.00778
4.00687
4.00598
4.00511
4.00425
4.00342
4.00259
4.00178
4.00098
4.00018
3.9994
3.99862
3.99785
3.99709
3.99633
3.99558
3.99483
3.99409
3.99334
3.9926
3.99187
3.99113
3.9904
3.98967
3.98894
3.98821
3.98748
3.98675
3.98602
3.9853
3.98457
3.98385
3.98313
3.9824
3.98168
3.98096
3.98023
3.97951
3.97879
3.97807
3.97734
3.97662
3.9759
3.97518
3.97446
3.97373
3.97301
3.97229
3.97157
3.97085
3.97013
3.96941
3.96868
3.96796
3.96724
3.96652
3.9658
3.96508
3.96436
3.96363
3.96291
3.96219
3.96147
3.96075
3.96003
3.95931
3.95859
3.95786
3.95714
3.95642
3.9557
3.95498
3.95426
3.95354
3.95282
3.95209
3.95137
3.95065
3.94993
3.94921
3.94849
3.94777
3.94704
3.94632
3.9456
3.94488
3.94416
3.94344
3.94272
3.942
3.94127
3.94055
3.93983
3.93911
3.93839
3.93767
3.93694
3.93622
3.9355
3.93478
3.93406
3.93333
3.93261
3.93189
3.93117
3.93044
3.92972
3.929
3.92827
3.92755
3.92682
3.9261
3.92537
3.92465
3.92392
3.92319
3.92246
3.92173
3.921
3.92026
3.91953
3.91879
3.91805
3.91731
3.91656
3.91582
3.91507
3.91431
3.91356
3.9128
3.91203
3.91127
3.91051
3.90974
3.90899
3.90823
3.9075
3.90678
3.90613
3.90545
3.90498
3.90429
3.90433
3.90355
3.90465
3.90308
3.90669
3.90287
3.91241
3.90532
3.9267
3.91601
3.94211
3.91057
3.90926
3.84337
3.8493
3.78889
3.83335
3.76314
3.80117
3.68829
3.71516
3.59616
3.64068
3.51056
3.54048
3.38399
3.36767
3.15305
3.11408
2.91468
2.80079
2.60275
2.36728
2.12984
1.84251
1.50745
1.15006
4.02633
4.02618
4.02588
4.02544
4.02486
4.02415
4.02332
4.0224
4.0214
4.02034
4.01924
4.01812
4.017
4.01588
4.01477
4.01368
4.01262
4.01158
4.01057
4.00958
4.00863
4.0077
4.00679
4.00591
4.00504
4.0042
4.00336
4.00254
4.00173
4.00094
4.00015
3.99937
3.9986
3.99783
3.99707
3.99631
3.99556
3.99482
3.99407
3.99333
3.99259
3.99186
3.99112
3.99039
3.98966
3.98893
3.9882
3.98747
3.98675
3.98602
3.9853
3.98457
3.98385
3.98312
3.9824
3.98168
3.98095
3.98023
3.97951
3.97879
3.97806
3.97734
3.97662
3.9759
3.97518
3.97446
3.97373
3.97301
3.97229
3.97157
3.97085
3.97013
3.9694
3.96868
3.96796
3.96724
3.96652
3.9658
3.96508
3.96436
3.96363
3.96291
3.96219
3.96147
3.96075
3.96003
3.95931
3.95859
3.95786
3.95714
3.95642
3.9557
3.95498
3.95426
3.95354
3.95282
3.95209
3.95137
3.95065
3.94993
3.94921
3.94849
3.94777
3.94704
3.94632
3.9456
3.94488
3.94416
3.94344
3.94272
3.942
3.94127
3.94055
3.93983
3.93911
3.93839
3.93767
3.93694
3.93622
3.9355
3.93478
3.93406
3.93333
3.93261
3.93189
3.93117
3.93044
3.92972
3.929
3.92827
3.92755
3.92683
3.9261
3.92537
3.92465
3.92392
3.92319
3.92246
3.92173
3.921
3.92027
3.91953
3.9188
3.91806
3.91732
3.91657
3.91582
3.91507
3.91432
3.91356
3.91279
3.91202
3.91125
3.91047
3.90969
3.9089
3.90811
3.90733
3.90655
3.9058
3.90504
3.90438
3.90364
3.90326
3.90247
3.90283
3.90146
3.90351
3.89998
3.90585
3.89819
3.91179
3.8989
3.91127
3.879
3.86419
3.81076
3.81896
3.77097
3.80657
3.73248
3.75118
3.6446
3.67761
3.58694
3.62987
3.52381
3.53718
3.3881
3.352
3.14733
3.1362
2.90656
2.85405
2.60971
2.41409
2.17783
1.85688
1.51053
1.14066
4.02691
4.02674
4.02642
4.02595
4.02532
4.02456
4.02368
4.02269
4.02163
4.02051
4.01935
4.01819
4.01702
4.01586
4.01473
4.01362
4.01254
4.01149
4.01047
4.00949
4.00853
4.00761
4.00671
4.00583
4.00497
4.00413
4.0033
4.00249
4.00169
4.00089
4.00011
3.99933
3.99857
3.9978
3.99705
3.99629
3.99555
3.9948
3.99406
3.99332
3.99258
3.99185
3.99112
3.99038
3.98965
3.98893
3.9882
3.98747
3.98674
3.98602
3.98529
3.98457
3.98385
3.98312
3.9824
3.98168
3.98095
3.98023
3.97951
3.97879
3.97806
3.97734
3.97662
3.9759
3.97518
3.97446
3.97373
3.97301
3.97229
3.97157
3.97085
3.97013
3.9694
3.96868
3.96796
3.96724
3.96652
3.9658
3.96508
3.96436
3.96363
3.96291
3.96219
3.96147
3.96075
3.96003
3.95931
3.95859
3.95786
3.95714
3.95642
3.9557
3.95498
3.95426
3.95354
3.95282
3.95209
3.95137
3.95065
3.94993
3.94921
3.94849
3.94777
3.94704
3.94632
3.9456
3.94488
3.94416
3.94344
3.94272
3.942
3.94127
3.94055
3.93983
3.93911
3.93839
3.93767
3.93694
3.93622
3.9355
3.93478
3.93406
3.93334
3.93261
3.93189
3.93117
3.93045
3.92972
3.929
3.92828
3.92755
3.92683
3.9261
3.92538
3.92465
3.92393
3.9232
3.92247
3.92174
3.92101
3.92028
3.91954
3.91881
3.91807
3.91732
3.91658
3.91583
3.91508
3.91432
3.91356
3.91279
3.91202
3.91123
3.91044
3.90964
3.90883
3.90801
3.90717
3.90634
3.90547
3.90467
3.90377
3.90302
3.90211
3.90153
3.90079
3.90024
3.9002
3.89837
3.89935
3.89256
3.89329
3.87504
3.86681
3.83396
3.81418
3.78128
3.79483
3.75928
3.77987
3.70611
3.70377
3.61791
3.64758
3.59143
3.61544
3.54279
3.5136
3.38872
3.32293
3.15435
3.14605
2.90149
2.90651
2.6003
2.49613
2.21977
1.87551
1.51912
1.10779
4.02759
4.02741
4.02706
4.02654
4.02586
4.02504
4.02408
4.02302
4.02188
4.02069
4.01947
4.01824
4.01703
4.01583
4.01467
4.01353
4.01243
4.01138
4.01036
4.00937
4.00842
4.0075
4.00661
4.00574
4.00489
4.00405
4.00323
4.00243
4.00163
4.00085
4.00007
3.9993
3.99853
3.99777
3.99702
3.99627
3.99553
3.99478
3.99404
3.99331
3.99257
3.99184
3.99111
3.99038
3.98965
3.98892
3.98819
3.98747
3.98674
3.98602
3.98529
3.98457
3.98384
3.98312
3.9824
3.98167
3.98095
3.98023
3.97951
3.97879
3.97806
3.97734
3.97662
3.9759
3.97518
3.97445
3.97373
3.97301
3.97229
3.97157
3.97085
3.97013
3.9694
3.96868
3.96796
3.96724
3.96652
3.9658
3.96508
3.96436
3.96363
3.96291
3.96219
3.96147
3.96075
3.96003
3.95931
3.95859
3.95786
3.95714
3.95642
3.9557
3.95498
3.95426
3.95354
3.95282
3.95209
3.95137
3.95065
3.94993
3.94921
3.94849
3.94777
3.94704
3.94632
3.9456
3.94488
3.94416
3.94344
3.94272
3.942
3.94127
3.94055
3.93983
3.93911
3.93839
3.93767
3.93695
3.93622
3.9355
3.93478
3.93406
3.93334
3.93261
3.93189
3.93117
3.93045
3.92972
3.929
3.92828
3.92755
3.92683
3.92611
3.92538
3.92466
3.92393
3.9232
3.92247
3.92175
3.92102
3.92028
3.91955
3.91881
3.91808
3.91734
3.91659
3.91584
3.91509
3.91433
3.91357
3.9128
3.91202
3.91123
3.91042
3.90961
3.90877
3.90793
3.90703
3.90617
3.90518
3.90435
3.90319
3.90249
3.90093
3.90073
3.89853
3.89919
3.89634
3.89735
3.89393
3.88886
3.87732
3.85044
3.82433
3.78765
3.77786
3.76186
3.78039
3.75405
3.75492
3.69184
3.67413
3.62341
3.63951
3.61267
3.59962
3.55501
3.47631
3.38995
3.30935
3.18206
3.1538
2.91987
2.96222
2.59479
2.59223
2.23203
1.9155
1.53026
1.03761
4.02838
4.02819
4.0278
4.02723
4.02648
4.02558
4.02454
4.02338
4.02215
4.02087
4.01958
4.01828
4.01701
4.01578
4.01458
4.01342
4.01231
4.01124
4.01022
4.00924
4.00829
4.00738
4.0065
4.00563
4.00479
4.00397
4.00316
4.00236
4.00157
4.00079
4.00002
3.99926
3.9985
3.99774
3.99699
3.99625
3.9955
3.99476
3.99403
3.99329
3.99256
3.99183
3.9911
3.99037
3.98964
3.98891
3.98819
3.98746
3.98674
3.98601
3.98529
3.98456
3.98384
3.98312
3.9824
3.98167
3.98095
3.98023
3.97951
3.97878
3.97806
3.97734
3.97662
3.9759
3.97518
3.97445
3.97373
3.97301
3.97229
3.97157
3.97085
3.97013
3.9694
3.96868
3.96796
3.96724
3.96652
3.9658
3.96508
3.96436
3.96363
3.96291
3.96219
3.96147
3.96075
3.96003
3.95931
3.95859
3.95786
3.95714
3.95642
3.9557
3.95498
3.95426
3.95354
3.95282
3.95209
3.95137
3.95065
3.94993
3.94921
3.94849
3.94777
3.94704
3.94632
3.9456
3.94488
3.94416
3.94344
3.94272
3.942
3.94127
3.94055
3.93983
3.93911
3.93839
3.93767
3.93695
3.93622
3.9355
3.93478
3.93406
3.93334
3.93261
3.93189
3.93117
3.93045
3.92973
3.929
3.92828
3.92756
3.92683
3.92611
3.92538
3.92466
3.92393
3.92321
3.92248
3.92175
3.92102
3.92029
3.91956
3.91882
3.91809
3.91735
3.91661
3.91586
3.91511
3.91435
3.91359
3.91281
3.91203
3.91123
3.91042
3.9096
3.90874
3.90787
3.90693
3.90604
3.90493
3.90407
3.90258
3.90206
3.89983
3.90013
3.89636
3.89843
3.89246
3.89612
3.88828
3.88636
3.86655
3.83491
3.80264
3.76016
3.76194
3.75138
3.77091
3.75261
3.7398
3.69607
3.67335
3.6585
3.6518
3.64211
3.5954
3.55698
3.46837
3.41014
3.33046
3.22919
3.16677
3.01144
3.05608
2.62231
2.67081
2.23153
1.97072
1.5164
0.973477
4.02931
4.02909
4.02866
4.02803
4.0272
4.02619
4.02504
4.02378
4.02244
4.02106
4.01967
4.0183
4.01697
4.01569
4.01445
4.01327
4.01215
4.01108
4.01006
4.00908
4.00815
4.00724
4.00637
4.00552
4.00469
4.00388
4.00308
4.00229
4.00151
4.00074
3.99997
3.99921
3.99846
3.99771
3.99696
3.99622
3.99548
3.99474
3.99401
3.99328
3.99255
3.99182
3.99109
3.99036
3.98963
3.98891
3.98818
3.98746
3.98673
3.98601
3.98529
3.98456
3.98384
3.98312
3.98239
3.98167
3.98095
3.98023
3.97951
3.97878
3.97806
3.97734
3.97662
3.9759
3.97518
3.97445
3.97373
3.97301
3.97229
3.97157
3.97085
3.97013
3.9694
3.96868
3.96796
3.96724
3.96652
3.9658
3.96508
3.96436
3.96363
3.96291
3.96219
3.96147
3.96075
3.96003
3.95931
3.95859
3.95786
3.95714
3.95642
3.9557
3.95498
3.95426
3.95354
3.95282
3.95209
3.95137
3.95065
3.94993
3.94921
3.94849
3.94777
3.94704
3.94632
3.9456
3.94488
3.94416
3.94344
3.94272
3.942
3.94127
3.94055
3.93983
3.93911
3.93839
3.93767
3.93695
3.93622
3.9355
3.93478
3.93406
3.93334
3.93262
3.93189
3.93117
3.93045
3.92973
3.929
3.92828
3.92756
3.92684
3.92611
3.92539
3.92466
3.92394
3.92321
3.92249
3.92176
3.92103
3.9203
3.91957
3.91884
3.9181
3.91736
3.91662
3.91588
3.91513
3.91437
3.91361
3.91284
3.91205
3.91125
3.91044
3.90961
3.90873
3.90786
3.90688
3.90597
3.90476
3.9039
3.9022
3.90174
3.89901
3.89966
3.8948
3.89773
3.88997
3.89512
3.88266
3.8799
3.85823
3.82848
3.80224
3.76084
3.76413
3.75378
3.76326
3.75832
3.73537
3.72357
3.70425
3.70505
3.68533
3.66516
3.60829
3.56067
3.49224
3.46617
3.36559
3.37652
3.26924
3.12972
3.20924
2.77763
2.70801
2.29347
2.0396
1.41831
0.997809
4.03039
4.03014
4.02966
4.02894
4.02801
4.02688
4.0256
4.0242
4.02273
4.02123
4.01974
4.01829
4.01689
4.01556
4.01429
4.01308
4.01194
4.01088
4.00987
4.0089
4.00798
4.00709
4.00623
4.00539
4.00458
4.00378
4.00299
4.00221
4.00144
4.00068
3.99992
3.99917
3.99842
3.99767
3.99693
3.99619
3.99546
3.99472
3.99399
3.99326
3.99253
3.9918
3.99108
3.99035
3.98963
3.9889
3.98818
3.98745
3.98673
3.98601
3.98528
3.98456
3.98384
3.98311
3.98239
3.98167
3.98095
3.98023
3.9795
3.97878
3.97806
3.97734
3.97662
3.9759
3.97518
3.97445
3.97373
3.97301
3.97229
3.97157
3.97085
3.97013
3.9694
3.96868
3.96796
3.96724
3.96652
3.9658
3.96508
3.96436
3.96363
3.96291
3.96219
3.96147
3.96075
3.96003
3.95931
3.95859
3.95786
3.95714
3.95642
3.9557
3.95498
3.95426
3.95354
3.95282
3.95209
3.95137
3.95065
3.94993
3.94921
3.94849
3.94777
3.94705
3.94632
3.9456
3.94488
3.94416
3.94344
3.94272
3.942
3.94127
3.94055
3.93983
3.93911
3.93839
3.93767
3.93695
3.93622
3.9355
3.93478
3.93406
3.93334
3.93262
3.93189
3.93117
3.93045
3.92973
3.92901
3.92828
3.92756
3.92684
3.92612
3.92539
3.92467
3.92394
3.92322
3.92249
3.92177
3.92104
3.92031
3.91958
3.91885
3.91812
3.91738
3.91664
3.9159
3.91515
3.9144
3.91364
3.91287
3.91208
3.91129
3.91047
3.90964
3.90876
3.90788
3.90688
3.90596
3.90469
3.90382
3.90196
3.90149
3.89836
3.89925
3.89336
3.89656
3.88627
3.89054
3.87407
3.87034
3.84939
3.82833
3.81687
3.79024
3.79727
3.77534
3.77744
3.76901
3.74769
3.76241
3.74451
3.74672
3.70542
3.6853
3.59368
3.60239
3.5112
3.56504
3.48807
3.50036
3.48528
3.31052
3.29162
3.07151
2.80838
2.45946
2.12442
1.19475
1.08098
4.03165
4.03137
4.03081
4.02999
4.02893
4.02765
4.02621
4.02465
4.02302
4.02139
4.01978
4.01823
4.01676
4.01538
4.01407
4.01284
4.0117
4.01064
4.00964
4.00869
4.00778
4.00691
4.00607
4.00526
4.00446
4.00367
4.0029
4.00213
4.00137
4.00061
3.99986
3.99912
3.99838
3.99764
3.9969
3.99617
3.99543
3.9947
3.99397
3.99325
3.99252
3.99179
3.99107
3.99034
3.98962
3.98889
3.98817
3.98745
3.98672
3.986
3.98528
3.98456
3.98383
3.98311
3.98239
3.98167
3.98095
3.98023
3.9795
3.97878
3.97806
3.97734
3.97662
3.9759
3.97517
3.97445
3.97373
3.97301
3.97229
3.97157
3.97085
3.97013
3.9694
3.96868
3.96796
3.96724
3.96652
3.9658
3.96508
3.96436
3.96363
3.96291
3.96219
3.96147
3.96075
3.96003
3.95931
3.95859
3.95786
3.95714
3.95642
3.9557
3.95498
3.95426
3.95354
3.95282
3.95209
3.95137
3.95065
3.94993
3.94921
3.94849
3.94777
3.94705
3.94632
3.9456
3.94488
3.94416
3.94344
3.94272
3.942
3.94127
3.94055
3.93983
3.93911
3.93839
3.93767
3.93695
3.93623
3.9355
3.93478
3.93406
3.93334
3.93262
3.9319
3.93117
3.93045
3.92973
3.92901
3.92829
3.92756
3.92684
3.92612
3.9254
3.92467
3.92395
3.92322
3.9225
3.92177
3.92105
3.92032
3.91959
3.91886
3.91813
3.9174
3.91666
3.91592
3.91518
3.91443
3.91367
3.91291
3.91213
3.91134
3.91053
3.9097
3.90883
3.90795
3.90695
3.90602
3.90474
3.90382
3.90192
3.90127
3.89793
3.89809
3.89187
3.89366
3.88189
3.88277
3.86461
3.85734
3.84012
3.82981
3.82736
3.83119
3.82737
3.82342
3.80234
3.79708
3.77197
3.79938
3.76437
3.78482
3.7048
3.71124
3.67562
3.68766
3.68842
3.72167
3.70083
3.67552
3.63426
3.54232
3.41133
3.34327
3.02669
2.81
2.24412
1.22437
0.707113
4.03313
4.03279
4.03215
4.0312
4.02997
4.0285
4.02686
4.0251
4.0233
4.02152
4.01978
4.01812
4.01657
4.01513
4.01378
4.01253
4.0114
4.01036
4.00938
4.00845
4.00757
4.00672
4.00591
4.00511
4.00433
4.00356
4.0028
4.00204
4.0013
4.00055
3.99981
3.99907
3.99833
3.9976
3.99687
3.99614
3.99541
3.99468
3.99396
3.99323
3.99251
3.99178
3.99106
3.99033
3.98961
3.98889
3.98816
3.98744
3.98672
3.986
3.98528
3.98455
3.98383
3.98311
3.98239
3.98167
3.98095
3.98022
3.9795
3.97878
3.97806
3.97734
3.97662
3.9759
3.97517
3.97445
3.97373
3.97301
3.97229
3.97157
3.97085
3.97013
3.9694
3.96868
3.96796
3.96724
3.96652
3.9658
3.96508
3.96436
3.96363
3.96291
3.96219
3.96147
3.96075
3.96003
3.95931
3.95859
3.95786
3.95714
3.95642
3.9557
3.95498
3.95426
3.95354
3.95282
3.95209
3.95137
3.95065
3.94993
3.94921
3.94849
3.94777
3.94705
3.94632
3.9456
3.94488
3.94416
3.94344
3.94272
3.942
3.94127
3.94055
3.93983
3.93911
3.93839
3.93767
3.93695
3.93623
3.9355
3.93478
3.93406
3.93334
3.93262
3.9319
3.93118
3.93045
3.92973
3.92901
3.92829
3.92757
3.92684
3.92612
3.9254
3.92468
3.92395
3.92323
3.92251
3.92178
3.92106
3.92033
3.91961
3.91888
3.91815
3.91742
3.91669
3.91595
3.91521
3.91446
3.91371
3.91296
3.91219
3.9114
3.9106
3.90979
3.90893
3.90806
3.90708
3.90615
3.90491
3.90397
3.90208
3.90135
3.89786
3.89787
3.89058
3.8923
3.8767
3.88024
3.85271
3.85801
3.82701
3.84461
3.83062
3.86576
3.85296
3.86979
3.84471
3.85189
3.82608
3.85976
3.82976
3.85314
3.83019
3.87597
3.83333
3.87237
3.84737
3.84957
3.82533
3.78579
3.73894
3.69835
3.56857
3.55097
3.19027
3.20098
2.42552
1.91066
0.116188
4.03487
4.03447
4.0337
4.03258
4.03113
4.02943
4.02754
4.02555
4.02355
4.02158
4.01969
4.01792
4.01629
4.01479
4.0134
4.01216
4.01105
4.01004
4.00908
4.00818
4.00733
4.00652
4.00573
4.00496
4.0042
4.00345
4.0027
4.00196
4.00122
4.00049
3.99975
3.99902
3.99829
3.99756
3.99684
3.99611
3.99539
3.99466
3.99394
3.99322
3.99249
3.99177
3.99105
3.99032
3.9896
3.98888
3.98816
3.98744
3.98672
3.98599
3.98527
3.98455
3.98383
3.98311
3.98239
3.98167
3.98094
3.98022
3.9795
3.97878
3.97806
3.97734
3.97662
3.9759
3.97517
3.97445
3.97373
3.97301
3.97229
3.97157
3.97085
3.97013
3.9694
3.96868
3.96796
3.96724
3.96652
3.9658
3.96508
3.96436
3.96363
3.96291
3.96219
3.96147
3.96075
3.96003
3.95931
3.95859
3.95786
3.95714
3.95642
3.9557
3.95498
3.95426
3.95354
3.95282
3.95209
3.95137
3.95065
3.94993
3.94921
3.94849
3.94777
3.94705
3.94632
3.9456
3.94488
3.94416
3.94344
3.94272
3.942
3.94128
3.94055
3.93983
3.93911
3.93839
3.93767
3.93695
3.93623
3.9355
3.93478
3.93406
3.93334
3.93262
3.9319
3.93118
3.93046
3.92973
3.92901
3.92829
3.92757
3.92685
3.92613
3.9254
3.92468
3.92396
3.92324
3.92251
3.92179
3.92107
3.92034
3.91962
3.91889
3.91817
3.91744
3.91671
3.91598
3.91524
3.9145
3.91376
3.91301
3.91225
3.91148
3.91069
3.90989
3.90906
3.90821
3.90727
3.90636
3.90519
3.90423
3.90253
3.90159
3.89859
3.89801
3.89191
3.89254
3.87992
3.88408
3.86262
3.87752
3.85381
3.88931
3.87141
3.91027
3.89131
3.91429
3.89107
3.91561
3.88668
3.91437
3.88724
3.91111
3.89612
3.9051
3.88616
3.88194
3.87484
3.86122
3.83888
3.81389
3.7734
3.73673
3.65225
3.61193
3.43406
3.38446
2.95542
2.83632
1.2582
0.874526
0.528461
0.182105
-0.155737
-0.489561
-0.814733
-1.11737
-1.38805
0.867457
0.520308
0.173596
-0.168033
-0.505336
-0.830957
-1.13281
-1.40322
0.853453
0.503109
0.153246
-0.196848
-0.541257
-0.86764
-1.16807
-1.43854
0.835607
0.479763
0.119334
-0.243891
-0.596418
-0.925199
-1.22532
-1.49492
0.815795
0.448469
0.0687747
-0.311283
-0.671353
-1.0035
-1.30737
-1.57388
0.792495
0.400487
-0.00574424
-0.402451
-0.770524
-1.1067
-1.41153
-1.6718
0.760267
0.329033
-0.109535
-0.524304
-0.902248
-1.24369
-1.54368
-1.78443
0.711719
0.234255
-0.239303
-0.680017
-1.07431
-1.42191
-1.71262
-1.92458
0.635586
0.116869
-0.394324
-0.871373
-1.29344
-1.64723
-1.9173
-2.0949
0.495467
-0.0790032
-0.630204
-1.13667
-1.57808
-1.93396
-2.17659
-2.29491
0.314614
-0.46473
-1.09835
-1.59386
-2.01271
-2.34622
-2.53519
-2.55098
0.155761
-0.982712
-1.78483
-2.3111
-2.67339
-2.92583
-3.03616
-2.98882
-0.0881321
-1.46182
-2.39332
-3.10952
-3.55931
-3.69646
-3.47477
-3.10981
-1.13109
-1.87898
-2.476
-3.43429
-4.24187
-4.60239
-4.52757
-3.90296
-3.61021
-4.79836
-3.82706
-3.94836
-4.20882
-4.0864
-4.04919
-3.62753
-1.53954
-2.67994
-3.96762
-4.50136
-4.60166
-4.52179
-4.33556
-4.04493
-1.62528
-1.83445
-2.01482
-2.16007
-2.28139
-2.3945
-2.4895
-2.55699
-2.61801
-2.67875
-2.71242
-2.7178
-2.70815
-2.66788
-2.58794
-2.48152
-2.35131
-2.19414
-2.01251
-1.81585
-1.61489
-1.40877
-1.20212
-1.01067
-0.837168
-0.678305
-0.538754
-0.420266
-0.318295
-0.232651
-0.162693
-0.105196
-0.0588211
-0.0215785
0.00862366
0.0323307
0.0504943
0.0645769
0.0755659
0.0840365
0.0904615
0.0952611
0.098789
0.101331
0.103115
0.104317
0.105075
0.105495
0.105658
0.105626
0.105445
0.105149
0.104767
0.104316
0.103814
0.103271
0.102695
0.102095
0.101474
0.100836
0.100186
0.0995243
0.0988539
0.098176
0.0974919
0.0968026
0.0961088
0.0954113
0.0947105
0.094007
0.0933011
0.0925932
0.0918835
0.0911723
0.0904597
0.089746
0.0890314
0.0883158
0.0875995
0.0868826
0.0861651
0.0854471
0.0847287
0.0840099
0.0832908
0.0825714
0.0818517
0.0811319
0.0804118
0.0796916
0.0789713
0.0782508
0.0775303
0.0768096
0.0760889
0.0753681
0.0746472
0.0739263
0.0732053
0.0724843
0.0717633
0.0710422
0.0703211
0.0696
0.0688789
0.0681578
0.0674366
0.0667154
0.0659942
0.065273
0.0645518
0.0638306
0.0631094
0.0623882
0.061667
0.0609457
0.0602245
0.0595033
0.058782
0.0580608
0.0573396
0.0566183
0.0558971
0.0551758
0.0544546
0.0537333
0.0530121
0.0522908
0.0515696
0.0508483
0.0501271
0.0494058
0.0486846
0.0479633
0.0472421
0.0465208
0.0457996
0.0450783
0.0443571
0.0436358
0.0429146
0.0421933
0.0414721
0.0407508
0.0400296
0.0393083
0.038587
0.0378658
0.0371445
0.0364233
0.035702
0.0349808
0.0342595
0.0335383
0.032817
0.0320958
0.0313745
0.0306533
0.029932
0.0292108
0.0284895
0.0277682
0.027047
0.0263257
0.0256045
0.0248832
0.024162
0.0234407
0.0227195
0.0219982
0.021277
0.0205557
0.0198345
0.0191132
0.018392
0.0176707
0.0169494
0.0162282
0.0155069
0.0147857
0.0140644
0.0133432
0.0126219
0.0119007
0.0111794
0.0104582
0.00973692
0.00901566
0.00829441
0.00757316
0.00685191
0.00613065
0.0054094
0.00468815
0.00396689
0.00324564
0.00252439
0.00180313
0.00108188
0.000360627
-1.6407
-1.84872
-2.02539
-2.16851
-2.29015
-2.40208
-2.49498
-2.56352
-2.62691
-2.6888
-2.72344
-2.72924
-2.72301
-2.68388
-2.60133
-2.49707
-2.36948
-2.20622
-2.02219
-1.83005
-1.62598
-1.41223
-1.20529
-1.01704
-0.841794
-0.677989
-0.536938
-0.419732
-0.31872
-0.232826
-0.162902
-0.106205
-0.0612831
-0.0247674
0.00582467
0.0300706
0.0486506
0.0631873
0.0746481
0.083517
0.0902265
0.0951994
0.0988152
0.101392
0.103183
0.10438
0.105128
0.105539
0.105694
0.105654
0.105467
0.105167
0.104781
0.104328
0.103824
0.103279
0.102702
0.1021
0.101479
0.100841
0.100189
0.0995274
0.0988566
0.0981783
0.0974939
0.0968043
0.0961103
0.0954126
0.0947117
0.094008
0.093302
0.0925939
0.0918842
0.0911728
0.0904602
0.0897465
0.0890318
0.0883162
0.0875998
0.0868829
0.0861653
0.0854473
0.0847289
0.0840101
0.0832909
0.0825715
0.0818518
0.081132
0.0804119
0.0796917
0.0789714
0.0782509
0.0775303
0.0768097
0.0760889