/*--------------------------------*- C++ -*----------------------------------*\
  =========                 |
  \\      /  F ield         | OpenFOAM: The Open Source CFD Toolbox
   \\    /   O peration     | Website:  https://openfoam.org
    \\  /    A nd           | Version:  7
     \\/     M anipulation  |
\*---------------------------------------------------------------------------*/
FoamFile
{
    version     2.0;
    format      ascii;
    class       surfaceScalarField;
    location    "33.999728";
    object      phi;
}
// * * * * * * * * * * * * * * * * * * * * * * * * * * * * * * * * * * * * * //

dimensions      [0 3 -1 0 0 0 0];

internalField   nonuniform List<scalar> 
46020
(
-1.97126e-06
1.97126e-06
-6.04749e-14
-7.25252e-06
5.28126e-06
2.46551e-14
-1.5467e-05
8.21448e-06
1.36767e-13
-2.61806e-05
1.07136e-05
2.4562e-13
-3.88927e-05
1.27121e-05
3.58142e-13
-5.30343e-05
1.41416e-05
5.00576e-13
-6.79636e-05
1.49292e-05
6.71819e-13
-8.29583e-05
1.49947e-05
8.60152e-13
-9.72066e-05
1.42483e-05
1.0813e-12
-0.000109795
1.25884e-05
1.33908e-12
-0.000119694
9.89947e-06
1.62433e-12
-0.000125747
6.05248e-06
1.92774e-12
-0.000126657
9.09742e-07
2.23609e-12
-0.000120997
-5.65954e-06
2.54429e-12
-0.000107249
-1.3748e-05
2.88421e-12
-8.39023e-05
-2.3347e-05
3.19989e-12
-4.96676e-05
-3.42346e-05
3.48665e-12
-3.87019e-06
-4.57974e-05
3.71304e-12
5.31542e-05
-5.70244e-05
3.77999e-12
-6.60115e-05
3.98442e-12
0.000119166
-1.93274e-06
3.904e-06
-7.10085e-06
1.04494e-05
-1.51223e-05
1.6236e-05
-2.55563e-05
2.11476e-05
-3.78934e-05
2.50492e-05
-5.15542e-05
2.78024e-05
-6.5884e-05
2.9259e-05
-8.01454e-05
2.92561e-05
-9.35087e-05
2.76116e-05
-0.00010504
2.41192e-05
-0.000113684
1.85443e-05
-0.000118257
1.06249e-05
-0.000117427
7.99121e-08
-0.000109728
-1.33589e-05
-9.35877e-05
-2.98878e-05
-6.74305e-05
-4.95042e-05
-2.98808e-05
-7.17843e-05
1.98415e-05
-9.55198e-05
8.14951e-05
-0.000118678
-0.000137461
0.000152945
-1.85635e-06
5.76035e-06
-6.79982e-06
1.53928e-05
-1.4438e-05
2.38741e-05
-2.43161e-05
3.10257e-05
-3.59076e-05
3.66407e-05
-4.86118e-05
4.05066e-05
-6.17487e-05
4.23958e-05
-7.45505e-05
4.20579e-05
-8.61519e-05
3.9213e-05
-9.55767e-05
3.3544e-05
-0.000101723
2.46907e-05
-0.000103348
1.22495e-05
-9.90546e-05
-4.21325e-06
-8.7294e-05
-2.51194e-05
-6.63946e-05
-5.07872e-05
-3.4649e-05
-8.12498e-05
9.48736e-06
-0.000115921
6.70001e-05
-0.000153033
0.000137843
-0.000189521
-0.000219689
0.000220071
-1.74335e-06
7.50371e-06
-6.35398e-06
2.00035e-05
-1.34235e-05
3.09437e-05
-2.24764e-05
4.00786e-05
-3.29601e-05
4.71245e-05
-4.42423e-05
5.17888e-05
-5.56047e-05
5.37582e-05
-6.62344e-05
5.26876e-05
-7.52127e-05
4.81913e-05
-8.15015e-05
3.98328e-05
-8.39269e-05
2.71161e-05
-8.11615e-05
9.4842e-06
-7.17105e-05
-1.36643e-05
-5.39057e-05
-4.29243e-05
-2.59275e-05
-7.87654e-05
1.41211e-05
-0.000121298
6.80285e-05
-0.000169828
0.000137085
-0.000222089
0.000221532
-0.000273968
-0.000317847
0.00031969
-1.59555e-06
9.09926e-06
-5.76987e-06
2.41778e-05
-1.20929e-05
3.72667e-05
-2.00611e-05
4.80468e-05
-2.90872e-05
5.61505e-05
-3.84965e-05
6.11982e-05
-4.75203e-05
6.2782e-05
-5.52855e-05
6.04528e-05
-6.08031e-05
5.37089e-05
-6.2953e-05
4.19827e-05
-6.04663e-05
2.46294e-05
-5.19059e-05
9.23779e-07
-3.56482e-05
-2.9922e-05
-9.87168e-06
-6.87008e-05
2.74317e-05
-0.000116069
7.83994e-05
-0.000172266
0.000145136
-0.000236565
0.000229319
-0.000306272
0.000331564
-0.000376214
-0.000436806
0.000450523
-1.41522e-06
1.05145e-05
-5.05576e-06
2.78183e-05
-1.04638e-05
4.26747e-05
-1.71003e-05
5.46833e-05
-2.43346e-05
6.33848e-05
-3.14394e-05
6.8303e-05
-3.75827e-05
6.89253e-05
-4.18172e-05
6.46873e-05
-4.30668e-05
5.49585e-05
-4.01102e-05
3.90262e-05
-3.1562e-05
1.60812e-05
-1.58508e-05
-1.47874e-05
8.80284e-06
-5.45757e-05
4.44035e-05
-0.000104301
9.31831e-05
-0.000164848
0.000157561
-0.000236644
0.000240009
-0.000319013
0.00034267
-0.000408932
0.000466613
-0.000500156
-0.000581055
0.000610863
-1.20502e-06
1.17195e-05
-4.22127e-06
3.08346e-05
-8.55677e-06
4.70102e-05
-1.36295e-05
5.97561e-05
-1.87565e-05
6.85118e-05
-2.31474e-05
7.26939e-05
-2.58952e-05
7.16731e-05
-2.59642e-05
6.47563e-05
-2.21751e-05
5.11695e-05
-1.31877e-05
3.00387e-05
2.52086e-06
3.72657e-07
2.66777e-05
-3.89442e-05
6.12422e-05
-8.91401e-05
0.000108427
-0.000151487
0.000170714
-0.000227135
0.000250833
-0.000316763
0.00035166
-0.00041984
0.000475859
-0.000533131
0.00062502
-0.000649318
-0.000754606
0.000798571
-9.67839e-07
1.26873e-05
-3.27694e-06
3.31437e-05
-6.39445e-06
5.01277e-05
-9.68772e-06
6.30493e-05
-1.24126e-05
7.12367e-05
-1.37056e-05
7.39869e-05
-1.25731e-05
7.05406e-05
-7.87767e-06
6.00608e-05
1.67815e-06
4.16136e-05
1.75708e-05
1.41461e-05
4.14777e-05
-2.35343e-05
7.53035e-05
-7.277e-05
0.000121206
-0.000135042
0.000181624
-0.000211905
0.000259306
-0.000304817
0.000357305
-0.000414762
0.000478917
-0.000541453
0.000627359
-0.000681573
0.0008048
-0.000826759
-0.000960883
0.00101108
-7.06667e-07
1.3394e-05
-2.23381e-06
3.46708e-05
-4.00065e-06
5.18946e-05
-5.3162e-06
6.43649e-05
-5.36645e-06
7.12869e-05
-3.20504e-06
7.18254e-05
2.25939e-06
6.50762e-05
1.22784e-05
5.00418e-05
2.82816e-05
2.56105e-05
5.18969e-05
-9.46916e-06
8.49733e-05
-5.66108e-05
0.000129607
-0.000117404
0.000188171
-0.000193606
0.000263342
-0.000287076
0.000358138
-0.000399612
0.000475932
-0.000532556
0.00062043
-0.000685951
0.000795402
-0.000856545
0.00100363
-0.00103499
-0.0012026
0.00124535
-4.24484e-07
1.38185e-05
-1.10291e-06
3.53492e-05
-1.39933e-06
5.2191e-05
-5.56792e-07
6.35223e-05
2.31689e-06
6.84133e-05
8.26044e-06
6.58819e-05
1.84733e-05
5.48633e-05
3.43326e-05
3.41825e-05
5.74124e-05
2.53059e-06
8.95052e-05
-4.15619e-05
0.000132645
-9.97505e-05
0.000189133
-0.000173892
0.000261563
-0.000266036
0.000352857
-0.00037837
0.000466292
-0.000513048
0.00060554
-0.000671805
0.000774674
-0.000855084
0.000977976
-0.00105985
0.00121885
-0.00127586
-0.00148164
0.00149789
-1.24136e-07
1.39426e-05
1.05411e-07
3.51197e-05
1.38607e-06
5.09103e-05
4.54914e-06
6.03593e-05
1.0573e-05
6.23894e-05
2.05972e-05
5.58577e-05
3.59386e-05
3.9522e-05
5.81099e-05
1.20112e-05
8.88404e-05
-2.81999e-05
0.000130098
-8.28191e-05
0.00018411
-0.000153763
0.000253391
-0.000243172
0.000340761
-0.000353406
0.000449375
-0.000486984
0.000582754
-0.000646426
0.000744821
-0.000833872
0.000939941
-0.0010502
0.00117283
-0.00129273
0.00144747
-0.00155051
-0.00179891
0.00176475
1.91789e-07
1.37508e-05
1.38044e-06
3.3931e-05
4.33368e-06
4.79571e-05
9.96284e-06
5.47301e-05
1.93402e-05
5.3012e-05
3.37141e-05
4.14838e-05
5.4527e-05
1.87091e-05
8.34357e-05
-1.68975e-05
0.000122333
-6.70967e-05
0.000173367
-0.000133854
0.000238969
-0.000219364
0.000321864
-0.000326067
0.000425094
-0.000456637
0.000552034
-0.000613924
0.000706409
-0.000800801
0.000892329
-0.00101979
0.00111435
-0.00127222
0.00137746
-0.00155584
0.00168618
-0.00185923
-0.00215426
0.00204152
5.2106e-07
1.32298e-05
2.7145e-06
3.17376e-05
7.42393e-06
4.32477e-05
1.56484e-05
4.65056e-05
2.85607e-05
4.00997e-05
4.75246e-05
2.25199e-05
7.41148e-05
-7.88116e-06
0.000110138
-5.29209e-05
0.000157656
-0.000114614
0.000219003
-0.000195201
0.000296809
-0.00029717
0.000394008
-0.000423267
0.00051385
-0.000576479
0.0006599
-0.000759974
0.000836038
-0.000976938
0.00104648
-0.00123023
0.00129581
-0.00152156
0.00158913
-0.00184916
0.00193135
-0.00220145
-0.00254631
0.00232341
8.61889e-07
1.23679e-05
4.09976e-06
2.84997e-05
1.06396e-05
3.67079e-05
2.15739e-05
3.55714e-05
3.81817e-05
2.34919e-05
6.19477e-05
-1.24616e-06
9.45837e-05
-4.05171e-05
0.00013805
-9.63874e-05
0.000194578
-0.000171142
0.000266688
-0.000267311
0.000357202
-0.000387684
0.00046925
-0.000535315
0.000606265
-0.000713494
0.000771961
-0.00092567
0.000970309
-0.00117529
0.00120552
-0.00146544
0.00148207
-0.00179811
0.00180488
-0.00217198
0.00217908
-0.00257565
-0.00297246
0.00260523
1.21288e-06
1.1155e-05
5.53031e-06
2.41823e-05
1.39661e-05
2.82721e-05
2.77113e-05
2.18261e-05
4.81558e-05
3.04747e-06
7.69089e-05
-2.99992e-05
0.000115822
-7.943e-05
0.000167009
-0.000147575
0.00023287
-0.000237003
0.000316101
-0.000350542
0.000419706
-0.000491288
0.000546986
-0.000662595
0.00070152
-0.000868028
0.00088712
-0.00111127
0.00110777
-0.00139594
0.00136755
-0.00172523
0.00167065
-0.0021012
0.00202155
-0.00252287
0.00242528
-0.00297938
-0.00342875
0.00288157
1.57309e-06
9.58193e-06
7.00164e-06
1.87537e-05
1.73918e-05
1.78819e-05
3.40371e-05
5.1809e-06
5.84409e-05
-2.13564e-05
9.23392e-05
-6.38975e-05
0.000137722
-0.000124813
0.000196856
-0.000206709
0.0002723
-0.000312446
0.000366913
-0.000445155
0.000483857
-0.000608232
0.000626571
-0.000805309
0.000798733
-0.00104019
0.00100418
-0.00131672
0.00124683
-0.00163858
0.0015305
-0.0020089
0.0018589
-0.0024296
0.00223578
-0.00289975
0.00266575
-0.00340935
-0.00390993
0.00314694
1.94198e-06
7.63995e-06
8.51049e-06
1.21852e-05
2.09073e-05
5.48503e-06
4.05306e-05
-1.44424e-05
6.8999e-05
-4.98248e-05
0.000108174
-0.000103073
0.000160182
-0.000176821
0.000227433
-0.00027396
0.000312631
-0.000397645
0.00041878
-0.000551304
0.000549165
-0.000738616
0.000707317
-0.000963461
0.000896949
-0.00122982
0.00112185
-0.00154162
0.00138575
-0.00190248
0.00169212
-0.00231527
0.00204399
-0.00278147
0.00244413
-0.0032999
0.00289622
-0.00386144
-0.0044098
0.0033961
2.31933e-06
5.32062e-06
1.00546e-05
4.44995e-06
2.4505e-05
-8.96539e-06
4.71742e-05
-3.71115e-05
7.97948e-05
-8.24454e-05
0.000124351
-0.000147629
0.000183098
-0.000235568
0.000258577
-0.000349438
0.000353619
-0.000492687
0.000471339
-0.000669025
0.000615105
-0.000882382
0.00078848
-0.00113684
0.000995136
-0.00143648
0.00123872
-0.00178521
0.00152267
-0.00218643
0.00184999
-0.00264259
0.00222295
-0.00315443
0.00264316
-0.0037201
0.00311245
-0.00433073
-0.00492264
0.00362529
2.70516e-06
2.61546e-06
1.16324e-05
-4.47726e-06
2.81784e-05
-2.55114e-05
5.39509e-05
-6.28841e-05
9.07937e-05
-0.000119288
0.000140807
-0.000197642
0.000206363
-0.000301125
0.000290118
-0.000433193
0.000395001
-0.000597571
0.000524201
-0.000798224
0.000681111
-0.00103929
0.000869255
-0.00132498
0.00109217
-0.00165939
0.00135325
-0.00204629
0.00165555
-0.00248873
0.00200155
-0.00298859
0.00239283
-0.00354572
0.00283
-0.00415727
0.00331167
-0.0048124
-0.0054401
0.00382913
3.09958e-06
-4.84122e-07
1.32424e-05
-1.46201e-05
3.19209e-05
-4.41899e-05
6.08437e-05
-9.18069e-05
0.000101959
-0.000160404
0.000157474
-0.000253157
0.000229864
-0.000373514
0.000321872
-0.000525201
0.000436495
-0.000712195
0.000576944
-0.000938673
0.000746572
-0.00120892
0.000948777
-0.00152718
0.00118685
-0.00189747
0.00146382
-0.00232326
0.00178222
-0.00280713
0.00214396
-0.00335032
0.00255022
-0.00395198
0.00300158
-0.00460862
0.00349484
-0.00530566
-0.00596665
0.00402138
3.50263e-06
-3.98676e-06
1.48829e-05
-2.60004e-05
3.57253e-05
-6.50322e-05
6.78334e-05
-0.000123915
0.000113252
-0.000205822
0.000174279
-0.000314184
0.000253473
-0.000452707
0.000353636
-0.000625364
0.00047779
-0.000836348
0.000629107
-0.00108999
0.000810827
-0.00139064
0.00102612
-0.00174248
0.00127791
-0.00214926
0.00156871
-0.00261405
0.00190038
-0.00313881
0.00227411
-0.00372404
0.0026905
-0.00436837
0.00315052
-0.00506865
0.00366316
-0.0058183
-0.00660436
0.00430088
3.91425e-06
-7.901e-06
1.65516e-05
-3.86377e-05
3.95823e-05
-8.80629e-05
7.48967e-05
-0.000159229
0.000124623
-0.000255549
0.000191136
-0.000380697
0.000277047
-0.000538619
0.000385186
-0.000733503
0.000518543
-0.000969705
0.000680193
-0.00125164
0.00087317
-0.00158362
0.00110031
-0.00196961
0.00136404
-0.002413
0.00166621
-0.00291621
0.00200783
-0.00348043
0.00238905
-0.00410527
0.00280936
-0.00478867
0.00326819
-0.00552749
0.00376852
-0.00631862
-0.00716549
0.00432964
4.33399e-06
-1.2235e-05
1.82446e-05
-5.25483e-05
4.34797e-05
-0.000113298
8.20053e-05
-0.000197755
0.000136018
-0.000309562
0.000207945
-0.000452624
0.000300425
-0.000631099
0.000416268
-0.000849345
0.000558381
-0.00111182
0.000729665
-0.00142292
0.000932857
-0.00178681
0.00117035
-0.0022071
0.00144396
-0.00268661
0.0017547
-0.00322696
0.00210261
-0.00382834
0.00248663
-0.00448929
0.0029047
-0.00520675
0.00335403
-0.00597681
0.00383153
-0.00679612
-0.00767263
0.00433868
4.76098e-06
-1.6996e-05
1.99566e-05
-6.77439e-05
4.74016e-05
-0.000140743
8.91238e-05
-0.000239477
0.00014737
-0.000367808
0.000224593
-0.000529847
0.000323423
-0.000729929
0.000446603
-0.000972526
0.000596897
-0.00126211
0.000776951
-0.00160298
0.000989118
-0.00199898
0.00123524
-0.00245322
0.0015164
-0.00296777
0.00183271
-0.00354327
0.00218311
-0.00417875
0.0025653
-0.00487147
0.00297575
-0.0056172
0.0034098
-0.00641087
0.00386145
-0.00724777
-0.00813491
0.00432373
5.19384e-06
-2.21898e-05
2.16801e-05
-8.42302e-05
5.13277e-05
-0.000170391
9.62093e-05
-0.000284359
0.000158599
-0.000430197
0.000240947
-0.000612195
0.000345833
-0.000834815
0.000475884
-0.00110258
0.000633653
-0.00141988
0.000821455
-0.00179078
0.00104117
-0.00221869
0.00129398
-0.00270604
0.00158019
-0.00325397
0.00189892
-0.003862
0.00224801
-0.00452784
0.00262399
-0.00524744
0.00302212
-0.00601533
0.00343652
-0.00682527
0.00385996
-0.00767121
-0.00855751
0.00428255
5.63056e-06
-2.78204e-05
2.34057e-05
-0.000102005
5.52328e-05
-0.000202218
0.000103211
-0.000332337
0.000169614
-0.000496601
0.000256859
-0.000699439
0.00036743
-0.000945386
0.000503781
-0.00123893
0.000668189
-0.00158429
0.000862562
-0.00198515
0.00108822
-0.00244434
0.00134564
-0.00296347
0.00163425
-0.00354258
0.00195219
-0.00417994
0.00229627
-0.00487192
0.00266201
-0.00561318
0.00304381
-0.00639713
0.00343514
-0.00721661
0.00382865
-0.00806472
-0.00894327
0.00421442
6.06849e-06
-3.38889e-05
2.51212e-05
-0.000121058
5.9087e-05
-0.000236184
0.000110068
-0.000383318
0.000180313
-0.000566846
0.000272164
-0.00079129
0.000387966
-0.00106119
0.000529943
-0.00138091
0.00070003
-0.00175438
0.000899658
-0.00218478
0.00112952
-0.00267421
0.00138933
-0.00322328
0.00167763
-0.00383087
0.00199161
-0.00449392
0.00232718
-0.0052075
0.00267908
-0.00596508
0.00304119
-0.00675923
0.00340688
-0.00758231
0.00376935
-0.00842719
-0.00929392
0.00412
6.50434e-06
-4.03932e-05
2.68126e-05
-0.000141366
6.28555e-05
-0.000272226
0.000116715
-0.000437177
0.000190581
-0.000640712
0.000286683
-0.000887392
0.000407179
-0.00118168
0.000554008
-0.00152773
0.000728697
-0.00192907
0.000932141
-0.00238822
0.00116436
-0.00290642
0.00142427
-0.00348319
0.00170954
-0.00411614
0.00201652
-0.00480091
0.00234036
-0.00553134
0.00267529
-0.00630001
0.00301501
-0.00709895
0.00335325
-0.00792054
0.00368414
-0.00875808
-0.00961074
0.00400095
6.93419e-06
-4.73274e-05
2.84633e-05
-0.000162895
6.64989e-05
-0.000310262
0.000123076
-0.000493754
0.000200293
-0.00071793
0.000300227
-0.000987325
0.000424799
-0.00130626
0.000575608
-0.00167854
0.000753721
-0.00210718
0.000959442
-0.00259395
0.00119208
-0.00313906
0.00144978
-0.00374088
0.00172938
-0.00439574
0.00202651
-0.00509803
0.00233575
-0.00584059
0.00265109
-0.00661534
0.0029664
-0.00741426
0.00327603
-0.00823017
0.00357531
-0.00905737
-0.00989495
0.00385952
7.35356e-06
-5.4681e-05
3.0055e-05
-0.000185597
6.99743e-05
-0.000350181
0.000129071
-0.00055285
0.000209319
-0.000798178
0.0003126
-0.00109061
0.000440552
-0.00143421
0.000594384
-0.00183238
0.000774654
-0.00228745
0.000981044
-0.00280034
0.00121215
-0.00337017
0.00146535
-0.00399408
0.00173676
-0.00466716
0.00202143
-0.0053827
0.00231361
-0.00613276
0.00260728
-0.00690902
0.00289676
-0.00770374
0.00317725
-0.00851066
0.00344536
-0.00932547
-0.0101478
0.00369824
7.75746e-06
-6.24384e-05
3.15678e-05
-0.000209407
7.32357e-05
-0.000391849
0.000134617
-0.000614231
0.000217524
-0.000881085
0.000323605
-0.00119669
0.000454169
-0.00156477
0.00060999
-0.0019882
0.000791084
-0.00246854
0.000996492
-0.00300574
0.00122411
-0.00359779
0.0014706
-0.00424058
0.0017315
-0.00492806
0.00200142
-0.00565262
0.00227449
-0.00640584
0.00254495
-0.00717948
0.00280774
-0.00796653
0.00305907
-0.00876199
0.0032968
-0.0095632
-0.0103708
0.00351974
8.14056e-06
-7.0579e-05
3.29805e-05
-0.000234247
7.62352e-05
-0.000435104
0.000139627
-0.000677623
0.000224773
-0.000966232
0.000333047
-0.00130496
0.000465391
-0.00169712
0.000622109
-0.00214492
0.00080265
-0.00264908
0.00100541
-0.00320851
0.00122763
-0.00382
0.00146535
-0.0044783
0.00171363
-0.00517634
0.00196684
-0.00590583
0.0022192
-0.0066582
0.0024654
-0.00742568
0.00270116
-0.00820228
0.00292372
-0.00898455
0.00313213
-0.0097716
-0.0105652
0.00332657
8.49721e-06
-7.90762e-05
3.42714e-05
-0.000260021
7.8924e-05
-0.000479757
0.000144014
-0.000742713
0.000230933
-0.00105315
0.000340741
-0.00141477
0.00047398
-0.00183036
0.000630459
-0.00230139
0.000809049
-0.00282767
0.00100753
-0.00340699
0.00122252
-0.00403499
0.00144957
-0.00470535
0.00168338
-0.00541015
0.00191828
-0.00614073
0.00214876
-0.00688868
0.0023701
-0.00764701
0.00257889
-0.00841108
0.00277341
-0.00917908
0.00295373
-0.00995192
-0.0107326
0.00312113
8.82165e-06
-8.78978e-05
3.54184e-05
-0.000286618
8.12537e-05
-0.000525592
0.000147696
-0.000809156
0.000235876
-0.00114133
0.000346514
-0.00152541
0.000479722
-0.00196356
0.0006348
-0.00245647
0.000810047
-0.00300292
0.00100266
-0.0035996
0.00120872
-0.00424105
0.00142338
-0.00492
0.00164116
-0.00562793
0.00185651
-0.00635607
0.00206433
-0.00709651
0.00226061
-0.0078433
0.00244285
-0.00859332
0.00261028
-0.0093465
0.00276383
-0.0101055
-0.0108744
0.00290559
9.10807e-06
-9.70059e-05
3.63998e-05
-0.00031391
8.31772e-05
-0.000572369
0.000150591
-0.00087657
0.000239485
-0.00123022
0.000350212
-0.00163613
0.000482437
-0.00209579
0.000634944
-0.00260898
0.000805485
-0.00317346
0.000990719
-0.00378483
0.00118629
-0.00443663
0.00138707
-0.00512078
0.00158756
-0.00582842
0.00178245
-0.00655096
0.0019672
-0.00728125
0.00213855
-0.00801466
0.0022949
-0.00874966
0.00243632
-0.00948793
0.00256445
-0.0102336
-0.0109918
0.00268189
9.35078e-06
-0.000106357
3.71944e-05
-0.000341753
8.46498e-05
-0.000619825
0.000152626
-0.000944547
0.000241655
-0.00131925
0.000351702
-0.00174618
0.000481977
-0.00222606
0.000630757
-0.00275776
0.000795278
-0.00333798
0.000971734
-0.00396129
0.00115542
-0.00462032
0.00134107
-0.00530642
0.00152328
-0.00601063
0.00169712
-0.00672481
0.00185869
-0.00744282
0.00200552
-0.00816148
0.00213681
-0.00888096
0.00225338
-0.0096045
0.00235738
-0.0103376
-0.0110861
0.0024517
9.54429e-06
-0.000115901
3.77825e-05
-0.000369992
8.56304e-05
-0.000667673
0.000153735
-0.00101265
0.000242295
-0.00140781
0.000350878
-0.00185476
0.000478237
-0.00235342
0.000622163
-0.00290168
0.000779424
-0.00349524
0.000945822
-0.00412769
0.00111642
-0.00479091
0.0012859
-0.00547591
0.00144912
-0.00617385
0.00160162
-0.0068773
0.00174016
-0.00758136
0.00186305
-0.00828437
0.00197024
-0.00898815
0.00206312
-0.00969739
0.0021442
-0.0104187
-0.0111584
0.0022165
9.68347e-06
-0.000125584
3.8146e-05
-0.000398454
8.60826e-05
-0.000715609
0.00015386
-0.00108043
0.000241332
-0.00149528
0.000347661
-0.00196109
0.000471153
-0.00247691
0.000609145
-0.00303968
0.000757992
-0.00364409
0.000913191
-0.00428289
0.00106967
-0.00494739
0.0012222
-0.00562844
0.00136597
-0.00631761
0.00149706
-0.00700839
0.00161293
-0.00769723
0.00171261
-0.00838406
0.0017967
-0.00907223
0.00186703
-0.00976772
0.00192631
-0.010478
-0.0112097
0.00197752
9.76363e-06
-0.000135348
3.82688e-05
-0.000426959
8.59749e-05
-0.000763315
0.000152955
-0.00114741
0.000238709
-0.00158104
0.000341999
-0.00206438
0.000460702
-0.00259562
0.000591741
-0.00317071
0.000731124
-0.00378347
0.00087413
-0.00442589
0.00101565
-0.00508891
0.00115066
-0.00576345
0.00127474
-0.00644169
0.00138458
-0.00711823
0.00147829
-0.00779095
0.00155559
-0.00846135
0.00161757
-0.00913421
0.00166641
-0.00981657
0.00170488
-0.0105164
-0.0112406
0.00173583
9.78061e-06
-0.000145129
3.81372e-05
-0.000455316
8.52819e-05
-0.00081046
0.000150985
-0.00121311
0.000234393
-0.00166445
0.000333874
-0.00216386
0.000446906
-0.00270865
0.000570046
-0.00329385
0.000699026
-0.00391245
0.000828997
-0.00455587
0.000954913
-0.00521483
0.00107202
-0.00588056
0.00117638
-0.00654605
0.00126527
-0.00720712
0.00133746
-0.00786314
0.00139322
-0.00851711
0.00143408
-0.00917508
0.00146242
-0.0098449
0.00148096
-0.010535
-0.011252
0.00149235
9.73088e-06
-0.00015486
3.77401e-05
-0.000483325
8.39846e-05
-0.000856705
0.000147928
-0.00127705
0.000228367
-0.00174489
0.000323295
-0.00225879
0.000429824
-0.00281518
0.000544203
-0.00340823
0.00066196
-0.00403021
0.000778204
-0.00467211
0.000888039
-0.00532466
0.000987058
-0.00597958
0.00107182
-0.00663081
0.0011402
-0.0072755
0.00119157
-0.0079145
0.00122667
-0.00855221
0.00124733
-0.00919574
0.00125605
-0.00985362
0.00125543
-0.0105343
-0.0112444
0.00124786
9.61161e-06
-0.000164471
3.70693e-05
-0.000510783
8.20707e-05
-0.000901706
0.000143774
-0.00133876
0.000220635
-0.00182175
0.0003103
-0.00234846
0.000409556
-0.00291443
0.000514401
-0.00351308
0.000620238
-0.00413605
0.000722212
-0.00477408
0.00081565
-0.0054181
0.000896544
-0.00606048
0.000961973
-0.00669624
0.00101039
-0.00732391
0.00104166
-0.00794578
0.00105695
-0.0085675
0.00105829
-0.00919708
0.00104817
-0.00984349
0.00102904
-0.0105152
-0.0112184
0.00100303
9.42067e-06
-0.000173892
3.61197e-05
-0.000537482
7.95348e-05
-0.000945121
0.000138525
-0.00139775
0.000211223
-0.00189445
0.000294956
-0.00243219
0.000386235
-0.00300571
0.00048087
-0.00360771
0.000574209
-0.00422939
0.00066151
-0.00486138
0.000738384
-0.00549497
0.000801255
-0.00612335
0.000847724
-0.00674271
0.000876767
-0.00735296
0.000888712
-0.00795772
0.000885002
-0.00856379
0.000867803
-0.00917988
0.000839543
-0.00981523
0.000802488
-0.0104782
-0.0111744
0.000758461
9.15677e-06
-0.000183049
3.48891e-05
-0.000563214
7.63787e-05
-0.000986611
0.000132196
-0.00145356
0.000200173
-0.00196242
0.000277354
-0.00250937
0.000360024
-0.00308838
0.00044387
-0.00369156
0.000524254
-0.00430977
0.00059661
-0.00493374
0.000656883
-0.00555525
0.000701948
-0.00616841
0.00072991
-0.00677067
0.000740223
-0.00736327
0.000733583
-0.00795108
0.000711649
-0.00854185
0.000676627
-0.00914486
0.000630839
-0.00976945
0.000576337
-0.0104237
-0.0111127
0.000514699
8.81938e-06
-0.000191868
3.33786e-05
-0.000587773
7.26108e-05
-0.00102584
0.000124814
-0.00150577
0.000187546
-0.00202516
0.000257608
-0.00257943
0.000331115
-0.00316189
0.000403689
-0.00376413
0.000470774
-0.00437686
0.000528035
-0.004991
0.000571783
-0.005599
0.000599352
-0.00619598
0.000609322
-0.00678064
0.000601564
-0.00735551
0.00057707
-0.00792659
0.000537632
-0.00850241
0.000485433
-0.00909266
0.000422646
-0.00970666
0.000351084
-0.0103521
-0.0110339
0.00027221
8.40878e-06
-0.000200277
3.15922e-05
-0.000610957
6.82464e-05
-0.0010625
0.000116416
-0.00155394
0.000173419
-0.00208216
0.000235854
-0.00264187
0.000299719
-0.00322576
0.000360637
-0.00382505
0.000414186
-0.00443041
0.000456308
-0.00503312
0.000483707
-0.00562639
0.000494163
-0.00620644
0.000486697
-0.00677318
0.000461534
-0.00733035
0.000419887
-0.00788494
0.000363612
-0.00844614
0.000294817
-0.00902387
0.000215526
-0.00962737
0.000127285
-0.0102639
-0.0109371
3.05416e-05
7.92606e-06
-0.000208203
2.95371e-05
-0.000632568
6.33069e-05
-0.00109627
0.000107052
-0.00159768
0.000157881
-0.00213299
0.000212242
-0.00269623
0.000266067
-0.00327958
0.000315034
-0.00387402
0.00035491
-0.00447028
0.000381948
-0.00506016
0.000393253
-0.0056377
0.000387037
-0.00620022
0.000362717
-0.00674886
0.00032081
-0.00728844
0.00026268
-0.00782681
0.000190185
-0.00837364
0.000105311
-0.00893899
9.8625e-06
-0.00953192
-9.45739e-05
-0.0101594
-0.0108241
-0.000207573
7.37308e-06
-0.000215576
2.72229e-05
-0.000652418
5.78195e-05
-0.00112686
9.67781e-05
-0.00163664
0.000141037
-0.00217725
0.000186938
-0.00274213
0.000230402
-0.00332305
0.000267212
-0.00391083
0.000293368
-0.00449644
0.00030546
-0.00507225
0.000300994
-0.00563323
0.00027859
-0.00617782
0.000238011
-0.00670828
0.000180008
-0.00723044
0.000106029
-0.00775283
1.78798e-05
-0.00828549
-8.25844e-05
-0.00883853
-0.000193712
-0.00942079
-0.000314357
-0.0100388
-0.0106947
-0.000443736
6.75246e-06
-0.000222328
2.46624e-05
-0.000670328
5.18169e-05
-0.00115402
8.56602e-05
-0.00167048
0.000123
-0.00221459
0.000160117
-0.00277925
0.000192974
-0.0033559
0.000217505
-0.00393536
0.000229977
-0.00450891
0.000227332
-0.00506961
0.000207473
-0.00561337
0.000169395
-0.00613974
0.000113158
-0.00665204
3.96869e-05
-0.00715697
-4.95356e-05
-0.00766361
-0.000152797
-0.00818223
-0.000268436
-0.00872289
-0.000394999
-0.00929423
-0.000531444
-0.00990234
-0.010549
-0.000677145
6.06749e-06
-0.000228396
2.18703e-05
-0.00068613
4.53364e-05
-0.00117748
7.37709e-05
-0.00169892
0.000103891
-0.00224471
0.000131965
-0.00280732
0.00015404
-0.00337798
0.000166246
-0.00394756
0.000165142
-0.00450781
0.000148032
-0.0050525
0.000113199
-0.00557854
5.99798e-05
-0.00608652
-1.13159e-05
-0.00658075
-9.96411e-05
-0.00706864
-0.000203533
-0.00755972
-0.000321418
-0.00806435
-0.000451832
-0.00859248
-0.000593523
-0.00915254
-0.000745554
-0.00975031
-0.0103872
-0.000907375
5.32211e-06
-0.000233718
1.88637e-05
-0.000699672
3.84193e-05
-0.00119704
6.11885e-05
-0.00172169
8.38395e-05
-0.00226736
0.000102671
-0.00282615
0.000113859
-0.00338916
0.000113763
-0.00394747
9.92554e-05
-0.0044933
6.80027e-05
-0.00502125
1.86474e-05
-0.00552918
-4.91668e-05
-0.00601871
-0.000134927
-0.00649499
-0.000237517
-0.00696605
-0.000355531
-0.00744171
-0.000487565
-0.00793231
-0.000632375
-0.00844767
-0.000788915
-0.008996
-0.00095634
-0.00958288
-0.0102095
-0.00113408
4.52087e-06
-0.000238239
1.56617e-05
-0.000710813
3.11104e-05
-0.00121249
4.79962e-05
-0.00173857
6.29777e-05
-0.00228234
7.24273e-05
-0.0028356
7.26877e-05
-0.00338943
6.03763e-05
-0.00393516
3.26938e-05
-0.00446562
-1.23381e-05
-0.00497621
-7.57404e-05
-0.00546578
-0.000157599
-0.00593685
-0.000257242
-0.00639534
-0.000373522
-0.00684977
-0.000505129
-0.0073101
-0.00065085
-0.00778659
-0.000809687
-0.00828883
-0.000980807
-0.00882488
-0.00116345
-0.00940024
-0.010016
-0.00135695
3.66886e-06
-0.000241908
1.22848e-05
-0.000719429
2.34574e-05
-0.00122366
3.42801e-05
-0.0017494
4.14412e-05
-0.0022895
4.14258e-05
-0.00283559
3.07785e-05
-0.00337878
6.39971e-06
-0.00391078
-3.41872e-05
-0.00442503
-9.26031e-05
-0.0049178
-0.000169557
-0.00538883
-0.000264908
-0.0058415
-0.000377862
-0.00628239
-0.000507276
-0.00672036
-0.000651959
-0.00716541
-0.000810913
-0.00762764
-0.000983402
-0.00811634
-0.00116883
-0.00863945
-0.00136654
-0.00920253
-0.00980688
-0.00157564
2.77171e-06
-0.000244679
8.75502e-06
-0.000725412
1.55102e-05
-0.00123042
2.0129e-05
-0.00175402
1.93669e-05
-0.00228874
9.85955e-06
-0.00282608
-1.16227e-05
-0.0033573
-4.78846e-05
-0.00387452
-0.000101052
-0.00437186
-0.000172425
-0.00484642
-0.000262429
-0.00529882
-0.000370723
-0.0057332
-0.00049643
-0.00615668
-0.000638436
-0.00657835
-0.00079569
-0.00700816
-0.000967416
-0.00745591
-0.00115316
-0.0079306
-0.00135261
-0.00844
-0.00156525
-0.00898989
-0.00958227
-0.00178986
1.83601e-06
-0.000246515
5.09591e-06
-0.000728672
7.31993e-06
-0.00123264
5.63346e-06
-0.00175233
-3.10539e-06
-0.00228
-2.20892e-05
-0.00280709
-5.42829e-05
-0.0033251
-0.00010218
-0.00382662
-0.000167582
-0.00430646
-0.000251469
-0.00476254
-0.000354013
-0.00519628
-0.000474709
-0.00561251
-0.000612624
-0.00601877
-0.000766695
-0.00642428
-0.000936017
-0.00683884
-0.00112004
-0.00727189
-0.00131862
-0.00773202
-0.00153176
-0.00822685
-0.00175918
-0.00876247
-0.00934218
-0.00199926
8.76184e-07
-0.000247392
1.32862e-06
-0.000729124
-1.06199e-06
-0.00123025
-9.11907e-06
-0.00174427
-2.58516e-05
-0.00226327
-5.42346e-05
-0.00277871
-9.69669e-05
-0.00328237
-0.000156225
-0.00376736
-0.000233481
-0.0042292
-0.000329424
-0.00466659
-0.000443997
-0.00508171
-0.000576561
-0.00547995
-0.000726152
-0.00586918
-0.000891775
-0.00625866
-0.00107267
-0.00665794
-0.00126851
-0.00707605
-0.00147943
-0.0075211
-0.00170586
-0.00800042
-0.00194792
-0.00852041
-0.00908658
-0.00220353
-1.49261e-07
-0.000247242
-2.52191e-06
-0.000726752
-9.58154e-06
-0.00122319
-2.40367e-05
-0.00172982
-4.87278e-05
-0.00223858
-8.63991e-05
-0.00274104
-0.000139459
-0.00322931
-0.000209765
-0.00369705
-0.000298476
-0.00414049
-0.000406005
-0.00455906
-0.000532095
-0.00495562
-0.000676003
-0.00533604
-0.000836756
-0.00570842
-0.00101343
-0.00608198
-0.00120541
-0.00646596
-0.00141256
-0.0068689
-0.00163529
-0.00729837
-0.0018745
-0.00776121
-0.00213098
-0.00826393
-0.0088152
-0.00240236
-1.14767e-06
-0.000246095
-6.42524e-06
-0.000721474
-1.81871e-05
-0.00121143
-3.90307e-05
-0.00170897
-7.1609e-05
-0.002206
-0.000118413
-0.00269424
-0.000181553
-0.00316617
-0.000262567
-0.00361604
-0.000362312
-0.00404075
-0.000480949
-0.00444043
-0.000618049
-0.00481852
-0.000772788
-0.0051813
-0.000944202
-0.00553701
-0.00113145
-0.00589473
-0.00133403
-0.00626338
-0.00155198
-0.00665096
-0.00178592
-0.00706443
-0.00203726
-0.00750987
-0.0023078
-0.00799339
-0.00852758
-0.00259541
-2.18e-06
-0.000243915
-1.03645e-05
-0.00071329
-2.68265e-05
-0.00119497
-5.40151e-05
-0.00168178
-9.43707e-05
-0.00216564
-0.000150116
-0.00263849
-0.000223054
-0.00309323
-0.00031441
-0.00352468
-0.000424753
-0.0039304
-0.000554017
-0.00431116
-0.000701623
-0.00467091
-0.000866691
-0.00501623
-0.00104828
-0.00535542
-0.00124563
-0.00569738
-0.00145837
-0.00605065
-0.0016866
-0.00642272
-0.00193112
-0.00681991
-0.00219371
-0.00724728
-0.00247743
-0.00770967
-0.00822312
-0.00278189
-3.21924e-06
-0.000240695
-1.43129e-05
-0.000702196
-3.54484e-05
-0.00117383
-6.89056e-05
-0.00164833
-0.000116893
-0.00211765
-0.000181352
-0.00257403
-0.000263777
-0.00301081
-0.000365088
-0.00342337
-0.000485583
-0.00380991
-0.000624989
-0.00417176
-0.000782603
-0.0045133
-0.000957508
-0.00484133
-0.0011488
-0.00516412
-0.00135582
-0.00549037
-0.00157826
-0.0058282
-0.00181634
-0.00618465
-0.00207082
-0.00656543
-0.00234347
-0.00697464
-0.00263842
-0.00741472
-0.00789893
-0.00296261
-4.25856e-06
-0.000236437
-1.82456e-05
-0.000688209
-4.40028e-05
-0.00114807
-8.36208e-05
-0.00160871
-0.000139062
-0.00206221
-0.000211977
-0.00250112
-0.000303553
-0.00291923
-0.000414413
-0.00331251
-0.000544603
-0.00367972
-0.000693663
-0.0040227