/*--------------------------------*- C++ -*----------------------------------*\
  =========                 |
  \\      /  F ield         | OpenFOAM: The Open Source CFD Toolbox
   \\    /   O peration     | Website:  https://openfoam.org
    \\  /    A nd           | Version:  7
     \\/     M anipulation  |
\*---------------------------------------------------------------------------*/
FoamFile
{
    version     2.0;
    format      ascii;
    class       volVectorField;
    location    "2.4";
    object      U;
}
// * * * * * * * * * * * * * * * * * * * * * * * * * * * * * * * * * * * * * //

dimensions      [0 1 -1 0 0 0 0];

internalField   nonuniform List<vector> 
16528
(
(1.00014 -0.000244853 3.54394e-16)
(1.00145 -0.000722192 2.11226e-16)
(1.00426 -0.00119827 1.33237e-15)
(1.00852 -0.00165953 2.2709e-15)
(1.0141 -0.00209531 1.68038e-15)
(1.02092 -0.00250064 1.64755e-15)
(1.02889 -0.00287138 -2.81036e-16)
(1.03791 -0.00320403 3.33871e-16)
(1.04785 -0.00349646 2.77763e-16)
(1.0586 -0.00374796 -1.1423e-15)
(1.07003 -0.00395903 -6.65177e-16)
(1.08202 -0.00413113 -6.7981e-16)
(1.09447 -0.00426645 -2.08798e-15)
(1.10727 -0.00436774 -3.33339e-15)
(1.12031 -0.00443812 -2.69228e-15)
(1.13352 -0.00448088 -3.60659e-15)
(1.14681 -0.00449934 -3.89946e-15)
(1.16013 -0.0044968 -4.08825e-15)
(1.17341 -0.00447635 -4.35565e-15)
(1.1866 -0.00444093 -4.8834e-15)
(1.19967 -0.00439319 -4.2801e-15)
(1.21258 -0.00433554 -4.1685e-15)
(1.2253 -0.00427011 -4.77656e-15)
(1.23783 -0.00419876 -1.13087e-14)
(1.25013 -0.00412312 -7.22014e-15)
(1.2622 -0.00404455 -6.87499e-15)
(1.27404 -0.00396422 -5.66262e-15)
(1.28564 -0.00388309 -6.66907e-15)
(1.297 -0.00380194 -4.48461e-15)
(1.30811 -0.00372142 -4.77874e-15)
(1.31899 -0.00364203 -4.73434e-15)
(1.32964 -0.00356415 -5.83782e-15)
(1.34006 -0.00348807 -5.58464e-15)
(1.35026 -0.00341402 -6.00908e-15)
(1.36024 -0.00334211 -4.7744e-15)
(1.37001 -0.00327245 -5.01886e-15)
(1.37958 -0.00320508 -5.4603e-15)
(1.38895 -0.00313998 -5.83509e-15)
(1.39813 -0.00307714 -6.38485e-15)
(1.40713 -0.00301651 -6.42497e-15)
(1.41596 -0.00295803 -4.90227e-15)
(1.42461 -0.0029016 -5.86542e-15)
(1.4331 -0.00284716 -5.34195e-15)
(1.44143 -0.0027946 -5.65017e-15)
(1.44961 -0.00274384 -6.01953e-15)
(1.45764 -0.00269478 -5.92693e-15)
(1.46552 -0.00264732 -6.43842e-15)
(1.47327 -0.00260138 -6.1594e-15)
(1.48088 -0.00255686 -6.31334e-15)
(1.48837 -0.00251368 -5.93794e-15)
(1.49573 -0.00247176 -7.12239e-15)
(1.50296 -0.00243103 -6.4516e-15)
(1.51008 -0.00239141 -6.64144e-15)
(1.51708 -0.00235284 -6.05396e-15)
(1.52397 -0.00231525 -6.58205e-15)
(1.53075 -0.00227859 -6.50005e-15)
(1.53742 -0.0022428 -5.22171e-15)
(1.54398 -0.00220783 -5.43465e-15)
(1.55044 -0.00217364 -5.65568e-15)
(1.55681 -0.0021402 -6.00373e-15)
(1.56307 -0.00210745 -5.63155e-15)
(1.56924 -0.00207536 -5.47978e-15)
(1.57532 -0.00204391 -5.55324e-15)
(1.5813 -0.00201307 -5.38213e-15)
(1.58719 -0.0019828 -5.44759e-15)
(1.59299 -0.00195309 -5.65954e-15)
(1.59871 -0.00192391 -6.06496e-15)
(1.60434 -0.00189524 -5.83895e-15)
(1.60989 -0.00186706 -5.02158e-15)
(1.61535 -0.00183936 -4.69805e-15)
(1.62073 -0.00181212 -4.24677e-15)
(1.62603 -0.00178533 -5.30197e-15)
(1.63126 -0.00175897 -4.49007e-15)
(1.6364 -0.00173304 -4.45739e-15)
(1.64147 -0.00170752 -4.58902e-15)
(1.64647 -0.0016824 -4.34642e-15)
(1.65139 -0.00165767 -4.56991e-15)
(1.65624 -0.00163332 -4.16168e-15)
(1.66102 -0.00160935 -4.87256e-15)
(1.66573 -0.00158575 -4.6753e-15)
(1.67036 -0.00156251 -3.78224e-15)
(1.67493 -0.00153962 -2.56669e-15)
(1.67944 -0.00151708 -2.68733e-15)
(1.68387 -0.00149488 -3.3033e-15)
(1.68824 -0.00147301 -4.11379e-15)
(1.69255 -0.00145147 -4.02552e-15)
(1.6968 -0.00143026 -3.98782e-15)
(1.70098 -0.00140937 -4.6962e-15)
(1.7051 -0.00138879 -5.07884e-15)
(1.70916 -0.00136852 -4.74811e-15)
(1.71316 -0.00134855 -4.241e-15)
(1.7171 -0.00132889 -4.67789e-15)
(1.72099 -0.00130951 -5.50428e-15)
(1.72482 -0.00129043 -4.05931e-15)
(1.72859 -0.00127163 -4.3561e-15)
(1.73231 -0.00125312 -3.67203e-15)
(1.73597 -0.00123488 -4.37942e-15)
(1.73958 -0.00121691 -3.63882e-15)
(1.74314 -0.00119921 -4.20652e-15)
(1.74664 -0.00118178 -4.19253e-15)
(1.75009 -0.0011646 -3.55787e-15)
(1.7535 -0.00114767 -3.72096e-15)
(1.75685 -0.00113099 -3.26176e-15)
(1.76016 -0.00111456 -4.00726e-15)
(1.76342 -0.00109836 -2.39089e-15)
(1.76663 -0.00108239 -3.01299e-15)
(1.76979 -0.00106666 -2.39462e-15)
(1.77291 -0.00105114 -2.86194e-15)
(1.77598 -0.00103584 -1.52633e-15)
(1.779 -0.00102075 -3.08007e-15)
(1.78199 -0.00100586 -1.62632e-15)
(1.78493 -0.000991165 -2.09858e-15)
(1.78782 -0.000976661 -2.43231e-15)
(1.79068 -0.000962338 -1.00689e-15)
(1.79349 -0.000948189 -1.40276e-15)
(1.79626 -0.000934207 -1.35193e-15)
(1.79899 -0.000920383 -1.41914e-15)
(1.80168 -0.000906709 -2.01334e-15)
(1.80432 -0.000893177 -1.66856e-15)
(1.80693 -0.000879776 -1.546e-15)
(1.8095 -0.0008665 -1.44513e-15)
(1.81203 -0.000853337 -1.06695e-15)
(1.81453 -0.00084028 -1.43506e-15)
(1.81698 -0.000827319 -1.26946e-15)
(1.8194 -0.000814444 -8.50667e-16)
(1.82177 -0.000801646 -6.99866e-16)
(1.82411 -0.000788917 -4.0933e-16)
(1.82642 -0.000776248 -7.11131e-16)
(1.82868 -0.00076363 -1.96683e-15)
(1.83091 -0.000751056 -1.13726e-15)
(1.8331 -0.000738519 -4.74735e-16)
(1.83526 -0.000726012 -7.45896e-17)
(1.83738 -0.000713531 -4.93789e-16)
(1.83946 -0.000701073 -6.03343e-16)
(1.8415 -0.000688633 -1.08201e-15)
(1.84351 -0.000676214 -3.54697e-16)
(1.84548 -0.000663815 -1.24481e-15)
(1.84741 -0.000651442 -2.56183e-16)
(1.84931 -0.0006391 -2.21493e-16)
(1.85118 -0.000626802 4.96036e-18)
(1.853 -0.00061456 5.38312e-16)
(1.85479 -0.000602392 2.79317e-16)
(1.85655 -0.000590324 -4.58716e-16)
(1.85827 -0.000578383 -1.16541e-15)
(1.85995 -0.000566605 3.25789e-16)
(1.8616 -0.000555034 2.95057e-16)
(1.86321 -0.000543722 -1.63786e-16)
(1.8648 -0.000532732 1.94017e-16)
(1.86635 -0.000522137 9.55161e-16)
(1.86787 -0.000512025 -6.82388e-16)
(1.86936 -0.0005025 3.41135e-16)
(1.87083 -0.000493682 6.79781e-17)
(1.87227 -0.000485714 8.18764e-16)
(1.87368 -0.000478765 -7.29413e-17)
(1.87508 -0.000473028 2.41573e-16)
(1.87647 -0.000468734 -6.81328e-17)
(1.87784 -0.000466152 2.53625e-16)
(1.87921 -0.000465594 3.27079e-16)
(1.88058 -0.000467428 6.25098e-16)
(1.88196 -0.000472084 -2.47059e-16)
(1.88336 -0.000480065 5.14778e-16)
(1.88478 -0.000491956 -1.98609e-16)
(1.88625 -0.000508446 2.52199e-16)
(1.88777 -0.000530336 1.00639e-15)
(1.88937 -0.000558565 3.01541e-16)
(1.89106 -0.000594226 1.55502e-15)
(1.89287 -0.000638598 6.76517e-16)
(1.89482 -0.000693167 6.32595e-16)
(1.89695 -0.000759666 2.55852e-17)
(1.8993 -0.000840107 7.19728e-16)
(1.9019 -0.000936826 1.63958e-16)
(1.90482 -0.00105252 -2.28699e-17)
(1.9081 -0.00119031 4.2727e-16)
(1.91183 -0.00135378 1.12951e-15)
(1.91608 -0.00154702 1.22872e-16)
(1.92095 -0.00177471 1.64516e-16)
(1.92654 -0.00204215 1.98347e-16)
(1.93299 -0.00235526 7.076e-16)
(1.94043 -0.00272066 6.36256e-16)
(1.94903 -0.00314561 2.51784e-17)
(1.95897 -0.003638 5.6156e-16)
(1.97048 -0.00420617 1.18794e-15)
(1.98378 -0.00485876 5.74767e-16)
(1.99913 -0.00560439 5.64052e-16)
(2.01683 -0.00645117 2.92452e-16)
(2.03718 -0.00740607 3.91547e-16)
(2.06052 -0.00847407 6.62582e-16)
(2.08717 -0.00965707 -1.47446e-16)
(2.1175 -0.0109525 5.65385e-16)
(2.1518 -0.0123519 7.35413e-16)
(2.19039 -0.0138389 7.71619e-16)
(2.23349 -0.0153881 1.04181e-15)
(2.28124 -0.016963 7.87557e-16)
(2.33365 -0.018516 2.28128e-16)
(2.39059 -0.0199878 5.39731e-16)
(2.45173 -0.0213101 3.81973e-16)
(2.51652 -0.0224086 1.09972e-15)
(2.5842 -0.0232091 9.94292e-16)
(2.65379 -0.0236456 9.163e-16)
(2.72411 -0.0236683 1.00481e-15)
(1.00014 -0.000568189 -2.35724e-16)
(1.00147 -0.00169332 7.61432e-16)
(1.0043 -0.00280669 4.92435e-15)
(1.00858 -0.00388364 6.53198e-15)
(1.01421 -0.00490282 2.4255e-15)
(1.02108 -0.00585089 5.05485e-15)
(1.02911 -0.00671746 -1.89424e-15)
(1.03819 -0.00749446 2.59321e-15)
(1.04819 -0.0081771 1.37802e-15)
(1.059 -0.00876381 -3.55384e-15)
(1.07049 -0.00925581 -2.54284e-15)
(1.08255 -0.00965658 -2.02833e-15)
(1.09505 -0.00997132 -5.45588e-15)
(1.1079 -0.0102065 -7.92326e-15)
(1.12099 -0.0103696 -6.06272e-15)
(1.13424 -0.0104681 -8.68195e-15)
(1.14758 -0.01051 -1.03195e-14)
(1.16093 -0.010503 -8.36623e-15)
(1.17425 -0.0104542 -1.06654e-14)
(1.18747 -0.0103706 -1.20667e-14)
(1.20056 -0.0102583 -9.5139e-15)
(1.2135 -0.010123 -1.12966e-14)
(1.22624 -0.00996964 -1.25753e-14)
(1.23878 -0.00980252 -1.07768e-14)
(1.2511 -0.00962543 -1.25902e-14)
(1.26319 -0.00944156 -1.32817e-14)
(1.27504 -0.0092536 -1.37006e-14)
(1.28665 -0.00906381 -1.45511e-14)
(1.29802 -0.008874 -1.0388e-14)
(1.30914 -0.00868565 -1.16732e-14)
(1.32003 -0.00849994 -1.24993e-14)
(1.33068 -0.00831775 -1.27405e-14)
(1.3411 -0.00813978 -1.32392e-14)
(1.3513 -0.0079665 -1.4112e-14)
(1.36128 -0.00779824 -1.04288e-14)
(1.37105 -0.0076352 -1.19958e-14)
(1.38061 -0.00747747 -1.29331e-14)
(1.38998 -0.00732505 -1.33325e-14)
(1.39916 -0.00717789 -1.38758e-14)
(1.40815 -0.00703588 -1.45556e-14)
(1.41696 -0.00689885 -1.07837e-14)
(1.4256 -0.00676664 -1.20943e-14)
(1.43407 -0.00663904 -1.28594e-14)
(1.44239 -0.00651584 -1.34101e-14)
(1.45055 -0.00639683 -1.38129e-14)
(1.45856 -0.00628178 -1.3695e-14)
(1.46642 -0.00617049 -1.39647e-14)
(1.47415 -0.00606273 -1.39005e-14)
(1.48173 -0.00595831 -1.40843e-14)
(1.48919 -0.00585702 -1.40446e-14)
(1.49652 -0.00575869 -1.4278e-14)
(1.50373 -0.00566314 -1.42939e-14)
(1.51081 -0.0055702 -1.43142e-14)
(1.51778 -0.00547971 -1.47984e-14)
(1.52463 -0.00539154 -1.46206e-14)
(1.53137 -0.00530554 -1.54474e-14)
(1.538 -0.0052216 -1.09519e-14)
(1.54453 -0.0051396 -1.18651e-14)
(1.55095 -0.00505944 -1.24921e-14)
(1.55727 -0.00498102 -1.29728e-14)
(1.5635 -0.00490425 -1.29385e-14)
(1.56962 -0.00482905 -1.32218e-14)
(1.57565 -0.00475535 -1.34604e-14)
(1.58159 -0.00468308 -1.34921e-14)
(1.58743 -0.00461217 -1.36956e-14)
(1.59319 -0.00454258 -1.39068e-14)
(1.59886 -0.00447425 -1.38102e-14)
(1.60444 -0.00440712 -1.48333e-14)
(1.60993 -0.00434117 -8.31275e-15)
(1.61535 -0.00427635 -1.01305e-14)
(1.62068 -0.00421262 -1.06735e-14)
(1.62593 -0.00414995 -1.20091e-14)
(1.6311 -0.00408831 -9.47003e-15)
(1.6362 -0.00402767 -1.05208e-14)
(1.64121 -0.00396801 -1.05741e-14)
(1.64616 -0.0039093 -1.16008e-14)
(1.65102 -0.00385152 -8.7079e-15)
(1.65582 -0.00379464 -9.3237e-15)
(1.66054 -0.00373865 -1.0347e-14)
(1.6652 -0.00368353 -1.05214e-14)
(1.66978 -0.00362927 -8.25751e-15)
(1.6743 -0.00357584 -6.17135e-15)
(1.67875 -0.00352323 -7.64401e-15)
(1.68313 -0.00347143 -8.62503e-15)
(1.68745 -0.00342042 -9.44652e-15)
(1.6917 -0.00337018 -1.00136e-14)
(1.69589 -0.00332071 -1.04096e-14)
(1.70002 -0.003272 -1.06033e-14)
(1.70409 -0.00322402 -1.08564e-14)
(1.70809 -0.00317677 -1.10933e-14)
(1.71204 -0.00313024 -1.13627e-14)
(1.71593 -0.00308442 -1.1406e-14)
(1.71976 -0.00303928 -1.26739e-14)
(1.72354 -0.00299483 -6.92989e-15)
(1.72726 -0.00295106 -8.47234e-15)
(1.73092 -0.00290794 -9.07332e-15)
(1.73454 -0.00286547 -1.06011e-14)
(1.73809 -0.00282364 -7.67002e-15)
(1.7416 -0.00278244 -8.8356e-15)
(1.74506 -0.00274186 -9.87016e-15)
(1.74846 -0.00270188 -7.37836e-15)
(1.75181 -0.0026625 -9.03576e-15)
(1.75512 -0.0026237 -6.3382e-15)
(1.75837 -0.00258547 -8.08068e-15)
(1.76158 -0.00254779 -5.28601e-15)
(1.76474 -0.00251066 -6.80849e-15)
(1.76786 -0.00247407 -4.5444e-15)
(1.77093 -0.00243799 -6.12043e-15)
(1.77395 -0.00240242 -3.77018e-15)
(1.77693 -0.00236733 -5.81606e-15)
(1.77987 -0.00233272 -3.42276e-15)
(1.78276 -0.00229857 -4.86182e-15)
(1.78562 -0.00226486 -3.63258e-15)
(1.78842 -0.00223158 -1.94535e-15)
(1.79119 -0.00219871 -3.73514e-15)
(1.79392 -0.00216622 -2.2597e-15)
(1.7966 -0.0021341 -4.01569e-15)
(1.79925 -0.00210234 -1.82157e-15)
(1.80185 -0.0020709 -4.07322e-15)
(1.80442 -0.00203978 -1.81286e-15)
(1.80695 -0.00200894 -3.83405e-15)
(1.80944 -0.00197837 -1.69772e-15)
(1.81189 -0.00194805 -3.48626e-15)
(1.8143 -0.00191795 -1.29812e-15)
(1.81668 -0.00188805 -3.04535e-15)
(1.81902 -0.00185833 -1.00061e-15)
(1.82132 -0.00182877 -2.81008e-15)
(1.82358 -0.00179936 -8.23619e-16)
(1.82581 -0.00177006 -2.94639e-15)
(1.828 -0.00174086 -6.71902e-16)
(1.83016 -0.00171176 -2.32295e-15)
(1.83228 -0.00168272 -5.27324e-16)
(1.83436 -0.00165374 -2.32263e-15)
(1.8364 -0.00162482 -3.59434e-16)
(1.83841 -0.00159594 -2.50493e-15)
(1.84039 -0.0015671 -2.1671e-16)
(1.84232 -0.00153832 -1.98787e-15)
(1.84422 -0.00150959 -9.30574e-16)
(1.84609 -0.00148094 3.26091e-16)
(1.84792 -0.00145238 7.46239e-16)
(1.84971 -0.00142396 1.78106e-15)
(1.85147 -0.00139571 -5.23371e-16)
(1.85319 -0.00136769 5.86426e-16)
(1.85488 -0.00133997 -1.39006e-15)
(1.85654 -0.00131263 4.48982e-16)
(1.85815 -0.00128577 -1.05024e-15)
(1.85974 -0.00125951 -1.19952e-16)
(1.8613 -0.00123399 7.08043e-16)
(1.86282 -0.0012094 1.79505e-15)
(1.86431 -0.00118592 -4.79522e-16)
(1.86577 -0.00116381 9.86492e-16)
(1.86721 -0.00114334 -7.82092e-16)
(1.86862 -0.00112485 1.07225e-15)
(1.87001 -0.00110871 -7.97689e-16)
(1.87139 -0.0010954 6.55481e-16)
(1.87274 -0.00108543 8.94323e-16)
(1.87409 -0.00107944 2.31931e-15)
(1.87543 -0.00107814 -1.90606e-16)
(1.87678 -0.0010824 1.5734e-15)
(1.87813 -0.0010932 -5.21006e-16)
(1.8795 -0.00111173 1.15568e-15)
(1.88091 -0.00113932 -1.42284e-16)
(1.88235 -0.00117759 7.65857e-16)
(1.88384 -0.0012284 1.45845e-15)
(1.88541 -0.00129391 1.72296e-15)
(1.88708 -0.00137668 2.85252e-15)
(1.88885 -0.00147966 3.3673e-16)
(1.89077 -0.00160632 1.90655e-15)
(1.89287 -0.00176067 -2.02279e-16)
(1.89518 -0.00194738 1.49799e-15)
(1.89774 -0.00217189 -5.81997e-16)
(1.90062 -0.00244047 3.80045e-16)
(1.90386 -0.00276036 1.21306e-15)
(1.90754 -0.0031399 2.71831e-15)
(1.91173 -0.00358862 3.31498e-16)
(1.91654 -0.00411741 1.80785e-15)
(1.92206 -0.00473859 1.93875e-16)
(1.92843 -0.00546601 1.56345e-15)
(1.93578 -0.00631511 2.76118e-16)
(1.94429 -0.00730286 1.09842e-15)
(1.95413 -0.0084477 1.95703e-15)
(1.96551 -0.00976924 2.98767e-15)
(1.97868 -0.0112878 1.0277e-15)
(1.9939 -0.0130237 2.45489e-15)
(2.01145 -0.0149962 5.62054e-16)
(2.03164 -0.0172221 1.79599e-15)
(2.05481 -0.0197135 5.15722e-16)
(2.08131 -0.0224756 1.30053e-15)
(2.11147 -0.0255031 2.14264e-15)
(2.14565 -0.028777 2.26222e-15)
(2.18412 -0.0322601 3.33472e-15)
(2.22715 -0.0358937 1.53881e-15)
(2.27489 -0.0395928 2.68079e-15)
(2.32736 -0.0432458 1.3522e-15)
(2.38445 -0.0467131 2.46415e-15)
(2.44583 -0.0498331 1.45532e-15)
(2.51097 -0.0524287 2.30574e-15)
(2.57908 -0.0543232 2.63225e-15)
(2.64918 -0.0553582 3.32655e-15)
(2.72008 -0.0554138 2.77082e-15)
(1.00015 -0.000928354 -2.06213e-16)
(1.0015 -0.0027836 2.55442e-15)
(1.00437 -0.00461125 2.8002e-15)
(1.00873 -0.00637593 4.03505e-16)
(1.01445 -0.00804666 -2.13831e-15)
(1.02144 -0.00960001 -1.49673e-16)
(1.02959 -0.0110179 -1.48539e-15)
(1.0388 -0.0122873 -1.67206e-16)
(1.04895 -0.0134006 3.6698e-17)
(1.0599 -0.0143557 -1.52159e-15)
(1.07152 -0.0151549 -2.0836e-15)
(1.08371 -0.0158041 -2.17008e-15)
(1.09634 -0.0163123 -3.43323e-15)
(1.1093 -0.0166904 -4.67894e-15)
(1.12251 -0.0169505 -7.15575e-15)
(1.13586 -0.0171056 -7.28089e-15)
(1.14929 -0.0171686 -7.80678e-15)
(1.16272 -0.0171519 -9.85327e-15)
(1.17611 -0.0170678 -9.46997e-15)
(1.1894 -0.0169272 -9.80824e-15)
(1.20255 -0.0167403 -1.14637e-14)
(1.21554 -0.0165162 -1.08693e-14)
(1.22833 -0.016263 -1.10263e-14)
(1.24091 -0.0159878 -1.04408e-14)
(1.25327 -0.0156966 -1.0598e-14)
(1.26539 -0.0153945 -1.10068e-14)
(1.27726 -0.015086 -1.13226e-14)
(1.2889 -0.0147746 -1.2133e-14)
(1.30028 -0.0144632 -8.9747e-15)
(1.31142 -0.0141543 -9.77139e-15)
(1.32232 -0.0138497 -1.03365e-14)
(1.33298 -0.0135508 -1.0976e-14)
(1.3434 -0.0132588 -1.12506e-14)
(1.3536 -0.0129744 -1.18046e-14)
(1.36358 -0.0126982 -1.11371e-14)
(1.37334 -0.0124304 -1.09645e-14)
(1.38289 -0.0121712 -1.12614e-14)
(1.39224 -0.0119206 -1.14371e-14)
(1.40139 -0.0116785 -1.17541e-14)
(1.41036 -0.0114448 -1.23793e-14)
(1.41915 -0.0112192 -1.13115e-14)
(1.42775 -0.0110014 -1.13091e-14)
(1.43619 -0.0107911 -1.15561e-14)
(1.44447 -0.010588 -1.14856e-14)
(1.45258 -0.0103918 -1.19058e-14)
(1.46054 -0.0102019 -1.2094e-14)
(1.46835 -0.0100183 -1.2307e-14)
(1.47602 -0.0098404 -1.2396e-14)
(1.48355 -0.009668 -1.25559e-14)
(1.49094 -0.00950075 -1.25704e-14)
(1.4982 -0.00933837 -1.26346e-14)
(1.50534 -0.00918057 -1.27097e-14)
(1.51235 -0.00902709 -1.27508e-14)
(1.51924 -0.00887768 -1.31313e-14)
(1.52601 -0.00873211 -1.30645e-14)
(1.53267 -0.00859016 -1.36386e-14)
(1.53921 -0.00845164 -1.03917e-14)
(1.54565 -0.00831636 -1.07442e-14)
(1.55198 -0.00818415 -1.10777e-14)
(1.55821 -0.00805486 -1.13658e-14)
(1.56433 -0.00792834 -1.15403e-14)
(1.57036 -0.00780447 -1.14831e-14)
(1.57628 -0.00768311 -1.1782e-14)
(1.58212 -0.00756417 -1.1927e-14)
(1.58786 -0.00744754 -1.21925e-14)
(1.59351 -0.00733312 -1.23491e-14)
(1.59906 -0.00722083 -1.22092e-14)
(1.60454 -0.00711059 -1.2685e-14)
(1.60992 -0.00700234 -1.15646e-14)
(1.61522 -0.00689599 -1.03624e-14)
(1.62044 -0.0067915 -1.03663e-14)
(1.62557 -0.00668881 -9.86434e-15)
(1.63063 -0.00658786 -9.72395e-15)
(1.63561 -0.00648861 -9.0773e-15)
(1.64051 -0.00639101 -9.10803e-15)
(1.64533 -0.00629502 -8.62134e-15)
(1.65008 -0.00620059 -8.34253e-15)
(1.65476 -0.00610771 -7.84802e-15)
(1.65937 -0.00601632 -8.01674e-15)
(1.6639 -0.0059264 -7.69939e-15)
(1.66837 -0.00583792 -7.71439e-15)
(1.67276 -0.00575085 -5.1304e-15)
(1.67709 -0.00566516 -5.85745e-15)
(1.68136 -0.00558083 -6.56324e-15)
(1.68556 -0.00549782 -7.11081e-15)
(1.68969 -0.00541612 -7.50699e-15)
(1.69376 -0.0053357 -7.86207e-15)
(1.69777 -0.00525655 -8.32108e-15)
(1.70172 -0.00517863 -8.54811e-15)
(1.70561 -0.00510192 -8.84338e-15)
(1.70944 -0.00502642 -9.26599e-15)
(1.71322 -0.00495209 -9.40952e-15)
(1.71694 -0.00487891 -9.87048e-15)
(1.7206 -0.00480688 -9.22942e-15)
(1.7242 -0.00473596 -8.12321e-15)
(1.72775 -0.00466613 -8.18726e-15)
(1.73125 -0.00459739 -7.92465e-15)
(1.7347 -0.0045297 -7.6448e-15)
(1.73809 -0.00446306 -7.07353e-15)
(1.74144 -0.00439743 -7.5076e-15)
(1.74473 -0.00433281 -6.93883e-15)
(1.74798 -0.00426917 -6.46114e-15)
(1.75117 -0.00420649 -5.5997e-15)
(1.75432 -0.00414475 -5.22362e-15)
(1.75743 -0.00408393 -4.25402e-15)
(1.76048 -0.00402401 -3.94719e-15)
(1.76349 -0.00396496 -3.01168e-15)
(1.76646 -0.00390677 -3.00502e-15)
(1.76938 -0.0038494 -2.20683e-15)
(1.77226 -0.00379285 -2.10864e-15)
(1.77509 -0.00373707 -1.42014e-15)
(1.77789 -0.00368204 -1.30428e-15)
(1.78064 -0.00362774 -1.36352e-15)
(1.78335 -0.00357414 -6.14906e-16)
(1.78602 -0.0035212 -5.37494e-16)
(1.78865 -0.0034689 -1.8403e-16)
(1.79124 -0.00341721 -3.04391e-16)
(1.7938 -0.00336609 1.64932e-16)
(1.79631 -0.00331552 3.49391e-17)
(1.79878 -0.00326545 5.93123e-16)
(1.80122 -0.00321585 4.28706e-16)
(1.80362 -0.00316669 8.8801e-16)
(1.80598 -0.00311793 9.72084e-16)
(1.80831 -0.00306954 1.44335e-15)
(1.8106 -0.00302147 1.33928e-15)
(1.81285 -0.00297371 1.84393e-15)
(1.81507 -0.0029262 1.62226e-15)
(1.81725 -0.00287892 2.00822e-15)
(1.81939 -0.00283184 1.78125e-15)
(1.8215 -0.00278492 2.19911e-15)
(1.82358 -0.00273815 2.15431e-15)
(1.82562 -0.00269149 2.43404e-15)
(1.82762 -0.00264493 2.40512e-15)
(1.82959 -0.00259846 2.61819e-15)
(1.83152 -0.00255205 2.58746e-15)
(1.83342 -0.00250573 3.03025e-15)
(1.83528 -0.00245948 2.8713e-15)
(1.83711 -0.00241333 2.72904e-15)
(1.8389 -0.00236729 3.02155e-15)
(1.84066 -0.00232142 3.27291e-15)
(1.84239 -0.00227576 3.57998e-15)
(1.84408 -0.00223039 3.45819e-15)
(1.84573 -0.00218538 3.66789e-15)
(1.84735 -0.00214085 3.38323e-15)
(1.84894 -0.00209693 3.77436e-15)
(1.85049 -0.00205379 3.48592e-15)
(1.85202 -0.00201162 3.60499e-15)
(1.85351 -0.00197065 3.96858e-15)
(1.85497 -0.00193117 4.2857e-15)
(1.8564 -0.00189349 4.16381e-15)
(1.8578 -0.001858 4.30296e-15)
(1.85918 -0.00182517 3.98958e-15)
(1.86053 -0.00179551 4.44973e-15)
(1.86186 -0.00176965 3.95411e-15)
(1.86318 -0.00174833 4.24002e-15)
(1.86448 -0.0017324 4.45436e-15)
(1.86577 -0.00172286 4.73267e-15)
(1.86706 -0.00172088 4.39742e-15)
(1.86835 -0.00172784 4.88074e-15)
(1.86965 -0.00174533 4.4726e-15)
(1.87096 -0.00177523 4.63227e-15)
(1.87231 -0.00181973 4.63492e-15)
(1.87369 -0.0018814 4.49103e-15)
(1.87513 -0.00196322 4.53653e-15)
(1.87664 -0.00206871 4.70801e-15)
(1.87824 -0.00220195 4.95172e-15)
(1.87995 -0.00236771 4.76876e-15)
(1.8818 -0.00257156 5.01461e-15)
(1.88383 -0.00281997 4.76758e-15)
(1.88606 -0.00312048 4.70618e-15)
(1.88854 -0.00348183 4.47766e-15)
(1.89132 -0.00391416 4.54695e-15)
(1.89447 -0.00442914 4.73127e-15)
(1.89803 -0.00504026 5.15507e-15)
(1.90211 -0.00576295 4.98288e-15)
(1.90678 -0.00661483 5.07599e-15)
(1.91215 -0.00761591 4.88075e-15)
(1.91835 -0.00878869 5.09805e-15)
(1.92552 -0.0101583 5.01325e-15)
(1.93382 -0.0117526 5.25688e-15)
(1.94343 -0.0136017 5.19982e-15)
(1.95456 -0.015738 5.39985e-15)
(1.96745 -0.0181952 5.36311e-15)
(1.98235 -0.0210072 5.55944e-15)
(1.99957 -0.0242067 5.26814e-15)
(2.01942 -0.0278227 5.32868e-15)
(2.04223 -0.0318769 5.2989e-15)
(2.06837 -0.0363805 5.26085e-15)
(2.09819 -0.0413279 5.18362e-15)
(2.13205 -0.0466913 5.30786e-15)
(2.17028 -0.0524135 5.70284e-15)
(2.21315 -0.0584011 5.42489e-15)
(2.26086 -0.0645172 5.64328e-15)
(2.31346 -0.0705794 5.56576e-15)
(2.37087 -0.0763558 5.58966e-15)
(2.43279 -0.0815763 5.52894e-15)
(2.49869 -0.0859395 5.70194e-15)
(2.56779 -0.0891428 5.66121e-15)
(2.63905 -0.0909113 5.89883e-15)
(2.71122 -0.0910334 5.69627e-15)
(1.00015 -0.00130711 -4.95081e-17)
(1.00154 -0.00392477 1.59233e-16)
(1.00449 -0.00649999 2.22438e-15)
(1.00897 -0.0089833 7.86395e-16)
(1.01484 -0.0113323 -2.37021e-15)
(1.022 -0.0135131 -2.40807e-16)
(1.03035 -0.0154997 -2.96669e-15)
(1.03977 -0.0172742 -5.53898e-16)
(1.05012 -0.0188264 -8.37868e-16)
(1.06129 -0.0201539 -3.10443e-15)
(1.07313 -0.0212607 -2.83983e-15)
(1.08552 -0.022156 -2.75967e-15)
(1.09835 -0.0228531 -4.716e-15)
(1.11149 -0.0233678 -6.22527e-15)
(1.12486 -0.0237177 -5.50619e-15)
(1.13837 -0.0239213 -6.97864e-15)
(1.15194 -0.023997 -8.17774e-15)
(1.1655 -0.0239625 -7.63395e-15)
(1.179 -0.0238347 -8.97146e-15)
(1.19239 -0.0236292 -1.00545e-14)
(1.20563 -0.02336 -9.28569e-15)
(1.2187 -0.0230399 -1.05323e-14)
(1.23156 -0.02268 -1.12755e-14)
(1.24421 -0.0222901 -1.02996e-14)
(1.25662 -0.0218785 -1.1095e-14)
(1.26878 -0.0214522 -1.17502e-14)
(1.2807 -0.0210172 -1.21816e-14)
(1.29236 -0.0205785 -1.27586e-14)
(1.30377 -0.02014 -1.07085e-14)
(1.31493 -0.0197051 -1.12743e-14)
(1.32583 -0.0192762 -1.16876e-14)
(1.3365 -0.0188553 -1.20193e-14)
(1.34692 -0.0184439 -1.2246e-14)
(1.35711 -0.0180431 -1.27429e-14)
(1.36707 -0.0176536 -1.11162e-14)
(1.37681 -0.0172757 -1.16712e-14)
(1.38633 -0.0169098 -1.22178e-14)
(1.39565 -0.0165558 -1.24301e-14)
(1.40476 -0.0162136 -1.23938e-14)
(1.41368 -0.015883 -1.30485e-14)
(1.42241 -0.0155636 -1.14291e-14)
(1.43096 -0.0152552 -1.19999e-14)
(1.43933 -0.0149572 -1.22859e-14)
(1.44753 -0.0146692 -1.24846e-14)
(1.45556 -0.0143907 -1.26536e-14)
(1.46344 -0.0141213 -1.28763e-14)
(1.47116 -0.0138606 -1.3069e-14)
(1.47873 -0.013608 -1.31336e-14)
(1.48615 -0.0133631 -1.32252e-14)
(1.49344 -0.0131256 -1.33775e-14)
(1.50059 -0.0128949 -1.34322e-14)
(1.5076 -0.0126708 -1.34236e-14)
(1.51449 -0.0124528 -1.36591e-14)
(1.52125 -0.0122407 -1.37279e-14)
(1.52788 -0.0120341 -1.37538e-14)
(1.5344 -0.0118327 -1.4227e-14)
(1.54081 -0.0116362 -1.19607e-14)
(1.5471 -0.0114444 -1.20761e-14)
(1.55328 -0.0112571 -1.21046e-14)
(1.55935 -0.0110741 -1.23903e-14)
(1.56532 -0.0108951 -1.23279e-14)
(1.57119 -0.0107199 -1.23622e-14)
(1.57695 -0.0105484 -1.24968e-14)
(1.58262 -0.0103805 -1.25881e-14)
(1.58819 -0.0102159 -1.29073e-14)
(1.59367 -0.0100547 -1.30785e-14)
(1.59906 -0.0098965 -1.29979e-14)
(1.60436 -0.00974137 -1.33494e-14)
(1.60957 -0.00958915 -1.22484e-14)
(1.61469 -0.00943976 -9.42421e-15)
(1.61973 -0.00929309 -1.07218e-14)
(1.62469 -0.00914907 -8.40553e-15)
(1.62957 -0.00900762 -1.00723e-14)
(1.63436 -0.00886866 -7.58809e-15)
(1.63908 -0.00873214 -9.1921e-15)
(1.64373 -0.00859798 -7.01704e-15)
(1.64829 -0.00846614 -8.58246e-15)
(1.65279 -0.00833654 -6.16878e-15)
(1.65721 -0.00820914 -7.76236e-15)
(1.66156 -0.00808389 -5.66719e-15)
(1.66585 -0.00796074 -7.45179e-15)
(1.67006 -0.00783965 -6.24902e-15)
(1.67421 -0.00772057 -6.88205e-15)
(1.67829 -0.00760347 -7.43633e-15)
(1.68231 -0.00748829 -7.88177e-15)
(1.68626 -0.00737502 -8.18144e-15)
(1.69016 -0.0072636 -8.48938e-15)
(1.69399 -0.007154 -8.7758e-15)
(1.69776 -0.0070462 -9.06327e-15)
(1.70147 -0.00694015 -9.38373e-15)
(1.70513 -0.00683582 -9.64568e-15)
(1.70873 -0.00673318 -9.93117e-15)
(1.71227 -0.00663221 -1.02934e-14)
(1.71576 -0.00653286 -9.40575e-15)
(1.71919 -0.00643511 -6.82219e-15)
(1.72257 -0.00633893 -8.26072e-15)
(1.7259 -0.00624429 -6.24555e-15)
(1.72918 -0.00615116 -7.69832e-15)
(1.7324 -0.00605952 -5.40642e-15)
(1.73558 -0.00596932 -6.99947e-15)
(1.73871 -0.00588055 -5.27245e-15)
(1.74179 -0.00579317 -4.30299e-15)
(1.74483 -0.00570715 -3.25507e-15)
(1.74781 -0.00562246 -2.59177e-15)
(1.75076 -0.00553908 -1.84013e-15)
(1.75366 -0.00545696 -1.19998e-15)
(1.75651 -0.00537608 -6.13615e-16)
(1.75932 -0.0052964 -1.85535e-16)
(1.76209 -0.00521789 4.03422e-16)
(1.76482 -0.00514051 7.74133e-16)
(1.7675 -0.00506423 1.04961e-15)
(1.77015 -0.00498901 1.71946e-15)
(1.77275 -0.0049148 7.02885e-16)
(1.77532 -0.00484157 1.46762e-15)
(1.77784 -0.00476929 1.81909e-15)
(1.78033 -0.00469789 2.28895e-15)
(1.78278 -0.00462734 2.71191e-15)
(1.78519 -0.0045576 3.00827e-15)
(1.78757 -0.00448861 3.09669e-15)
(1.78991 -0.00442033 3.44534e-15)
(1.79221 -0.00435272 3.71097e-15)
(1.79448 -0.00428571 4.04845e-15)
(1.79671 -0.00421926 4.15825e-15)
(1.7989 -0.00415332 4.35945e-15)
(1.80106 -0.00408785 4.50364e-15)
(1.80319 -0.00402278 4.75361e-15)
(1.80528 -0.00395808 4.76427e-15)
(1.80734 -0.0038937 4.95981e-15)
(1.80936 -0.00382958 5.03984e-15)
(1.81135 -0.00376571 5.37835e-15)
(1.8133 -0.00370202 5.46254e-15)
(1.81522 -0.0036385 5.72414e-15)
(1.81711 -0.00357512 5.73969e-15)
(1.81897 -0.00351185 5.75746e-15)
(1.82079 -0.00344869 6.02408e-15)
(1.82257 -0.00338563 6.22276e-15)
(1.82432 -0.00332268 6.4624e-15)
(1.82604 -0.00325986 5.26535e-15)
(1.82773 -0.00319721 5.63295e-15)
(1.82938 -0.00313478 5.94818e-15)
(1.831 -0.00307264 6.38393e-15)
(1.83259 -0.00301089 6.52942e-15)
(1.83414 -0.00294964 6.75213e-15)
(1.83567 -0.00288906 6.71458e-15)
(1.83716 -0.00282931 6.88633e-15)
(1.83861 -0.00277063 7.15354e-15)
(1.84004 -0.00271328 7.09399e-15)
(1.84144 -0.00265758 7.14406e-15)
(1.84281 -0.00260391 7.27942e-15)
(1.84415 -0.00255271 7.4052e-15)
(1.84546 -0.00250452 7.45736e-15)
(1.84675 -0.00245994 7.47028e-15)
(1.84802 -0.00241972 7.61184e-15)
(1.84927 -0.00238469 7.5777e-15)
(1.8505 -0.00235586 7.64478e-15)
(1.85172 -0.00233439 7.90089e-15)
(1.85293 -0.00232165 7.86569e-15)
(1.85413 -0.00231924 7.91737e-15)
(1.85534 -0.00232903 7.96398e-15)
(1.85655 -0.00235319 8.00381e-15)
(1.85779 -0.00239429 8.04566e-15)
(1.85905 -0.00245532 8.40143e-15)
(1.86035 -0.00253978 7.08043e-15)
(1.8617 -0.00265175 7.40641e-15)
(1.86312 -0.00279602 7.68839e-15)
(1.86463 -0.00297816 8.03851e-15)
(1.86625 -0.0032047 8.03728e-15)
(1.868 -0.00348324 7.9521e-15)
(1.86992 -0.00382264 8.0798e-15)
(1.87204 -0.00423321 7.93973e-15)
(1.87439 -0.00472693 8.05269e-15)
(1.87704 -0.00531768 8.05314e-15)
(1.88004 -0.00602151 8.17939e-15)
(1.88344 -0.00685693 8.40331e-15)
(1.88734 -0.00784521 8.31334e-15)
(1.89181 -0.00901063 8.40557e-15)
(1.89696 -0.0103809 8.37042e-15)
(1.90291 -0.0119871 8.47017e-15)
(1.9098 -0.0138644 8.45569e-15)
(1.91778 -0.0160515 8.4458e-15)
(1.92704 -0.018591 8.46549e-15)
(1.93778 -0.0215284 8.28951e-15)
(1.95024 -0.024912 8.45281e-15)
(1.96468 -0.0287908 8.47456e-15)
(1.9814 -0.0332127 8.52364e-15)
(2.00071 -0.0382215 8.43285e-15)
(2.02297 -0.0438521 8.53494e-15)
(2.04855 -0.0501252 7.6552e-15)
(2.07783 -0.0570398 7.84069e-15)
(2.11119 -0.0645645 7.92904e-15)
(2.14902 -0.0726265 8.15334e-15)
(2.19162 -0.0811025 8.22376e-15)
(2.23924 -0.0898051 8.19953e-15)
(2.29201 -0.0984811 8.24294e-15)
(2.34988 -0.106798 8.18356e-15)
(2.41261 -0.114367 8.09523e-15)
(2.47969 -0.120741 8.12684e-15)
(2.55032 -0.125466 8.01131e-15)
(2.62341 -0.128121 8.02243e-15)
(2.69759 -0.128371 7.79346e-15)
(1.00016 -0.00170623 -9.5276e-17)
(1.00159 -0.00512507 -4.4753e-16)
(1.00466 -0.00848603 -1.28048e-15)
(1.0093 -0.0117228 -1.12066e-15)
(1.01537 -0.0147795 -2.09505e-15)
(1.02278 -0.0176111 -2.40003e-15)
(1.0314 -0.0201836 -2.93174e-15)
(1.04111 -0.0224739 -2.52599e-15)
(1.05176 -0.02447 -2.23152e-15)
(1.06323 -0.0261699 -2.59382e-15)
(1.07536 -0.0275803 -2.82247e-15)
(1.08803 -0.0287144 -3.1209e-15)
(1.10112 -0.0295907 -3.68445e-15)
(1.11452 -0.0302309 -4.21337e-15)
(1.12812 -0.0306587 -3.28003e-15)
(1.14184 -0.0308985 -4.49105e-15)
(1.1556 -0.0309746 -5.08384e-15)
(1.16933 -0.0309102 -5.66388e-15)
(1.18299 -0.0307273 -6.21648e-15)
(1.19652 -0.030446 -6.66389e-15)
(1.20988 -0.0300844 -7.07408e-15)
(1.22306 -0.0296587 -7.41908e-15)
(1.23601 -0.0291831 -7.6804e-15)
(1.24874 -0.0286699 -8.95958e-15)
(1.26121 -0.0281297 -8.67532e-15)
(1.27344 -0.0275714 -8.75741e-15)
(1.2854 -0.0270025 -8.86759e-15)
(1.29709 -0.0264292 -9.00245e-15)
(1.30852 -0.0258565 -8.68483e-15)
(1.31969 -0.0252885 -8.57026e-15)
(1.3306 -0.0247284 -8.69073e-15)
(1.34126 -0.0241787 -8.68753e-15)
(1.35166 -0.0236411 -8.7789e-15)
(1.36182 -0.0231171 -9.01574e-15)
(1.37175 -0.0226075 -8.73259e-15)
(1.38144 -0.0221129 -8.64943e-15)
(1.3909 -0.0216336 -8.82561e-15)
(1.40015 -0.0211695 -8.87933e-15)
(1.40919 -0.0207207 -8.86774e-15)
(1.41802 -0.0202867 -9.17887e-15)
(1.42665 -0.0198672 -8.98267e-15)
(1.43509 -0.0194618 -8.93998e-15)
(1.44335 -0.0190699 -8.91235e-15)
(1.45143 -0.018691 -8.99547e-15)
(1.45933 -0.0183245 -9.07785e-15)
(1.46707 -0.0179698 -9.24077e-15)
(1.47464 -0.0176265 -9.33639e-15)
(1.48206 -0.0172938 -9.40471e-15)
(1.48932 -0.0169713 -9.47386e-15)
(1.49644 -0.0166585 -9.52294e-15)
(1.50341 -0.0163547 -9.54402e-15)
(1.51024 -0.0160597 -9.67674e-15)
(1.51694 -0.0157729 -9.79302e-15)
(1.5235 -0.0154938 -9.8277e-15)
(1.52994 -0.0152222 -9.78344e-15)
(1.53626 -0.0149576 -1.02642e-14)
(1.54245 -0.0146997 -8.68191e-15)
(1.54853 -0.0144481 -8.79809e-15)
(1.5545 -0.0142026 -8.88098e-15)