/*--------------------------------*- C++ -*----------------------------------*\
  =========                 |
  \\      /  F ield         | OpenFOAM: The Open Source CFD Toolbox
   \\    /   O peration     | Website:  https://openfoam.org
    \\  /    A nd           | Version:  7
     \\/     M anipulation  |
\*---------------------------------------------------------------------------*/
FoamFile
{
    version     2.0;
    format      ascii;
    class       surfaceScalarField;
    location    "82.00052";
    object      phi;
}
// * * * * * * * * * * * * * * * * * * * * * * * * * * * * * * * * * * * * * //

dimensions      [0 3 -1 0 0 0 0];

internalField   nonuniform List<scalar> 
11438
(
8.45109e-06
-0.00103161
8.76446e-05
-0.000993034
0.000149292
-0.000909663
0.000184055
-0.000781468
-0.000608711
-0.001048
-2.95165e-05
-0.00106471
-3.23951e-05
-0.00108097
-3.59328e-05
-0.00109657
-3.95174e-05
-0.00111141
-4.29266e-05
-0.00112542
-4.59928e-05
-0.00113861
-4.85669e-05
-0.00115095
-5.04997e-05
-0.00116246
-5.16388e-05
-0.00117313
-5.18218e-05
-0.00118295
-5.08764e-05
-0.00119194
-4.86218e-05
-0.00120007
-4.48703e-05
-0.00120734
-3.94306e-05
-0.00121372
-3.21119e-05
-0.00121919
-2.27291e-05
-0.00122367
-1.11206e-05
-0.00122716
2.97862e-06
-0.00122977
1.96923e-05
-0.00123141
3.8951e-05
-0.00123204
6.08432e-05
-0.00123159
8.53524e-05
-0.00123
0.00011238
-0.00122722
0.000141736
-0.00122317
0.000173121
-0.00121777
0.000206117
-0.00121094
0.000240171
-0.00120257
0.000274583
-0.00119258
0.0003085
-0.00118084
0.000340901
-0.00116723
0.000370589
-0.00115163
0.000396191
-0.00113387
0.000416183
-0.00111382
0.000428891
-0.00109128
0.000432547
-0.00106609
0.00042533
-0.00103806
0.000405435
-0.001007
0.000371165
-0.000972709
0.000321004
-0.00093506
0.00025389
-0.000893981
0.000169235
-0.000849247
6.67075e-05
-0.000801246
-5.21106e-05
-0.000749922
-0.000186724
-0.000695481
-0.000334945
-0.000638272
-0.000492615
-0.000578566
-0.000655526
-0.000516609
-0.000818075
-0.000452545
-0.000974121
-0.000386426
-0.00111664
0.00105052
-0.000318056
-0.00123829
0.00116992
-0.000246909
-0.00133177
0.00126062
-0.000172219
-0.00138974
0.00131505
-9.29627e-05
-0.00140493
0.00132568
-8.18617e-06
-0.00137207
0.00128729
8.33596e-05
-0.00128634
0.0011948
0.000181991
-0.00114675
0.00104812
0.000287714
-0.000952185
0.000846462
0.000399737
-0.000709682
0.000597659
0.000516446
-0.000422675
0.000305966
0.000635519
-0.000108536
-1.0538e-05
0.000754079
0.000226927
-0.000345487
0.000869963
0.000558012
-0.000673896
0.000979981
0.000875928
-0.000985946
0.00108486
0.00115989
-0.00126477
0.00118196
0.00137147
-0.00146857
0.00127845
0.00155831
-0.00165481
0.00137062
0.00151792
-0.00161009
0.00147472
0.00160432
-0.00170841
0.00097785
-0.00108816
-0.00100903
-1.35243e-05
-0.0010254
-1.60223e-05
-0.00104138
-1.99482e-05
-0.00105674
-2.41627e-05
-0.00107134
-2.83295e-05
-0.00108511
-3.22194e-05
-0.00109803
-3.56488e-05
-0.00111008
-3.84483e-05
-0.00112126
-4.04619e-05
-0.00113155
-4.15255e-05
-0.00114096
-4.14681e-05
-0.00114947
-4.01115e-05
-0.00115707
-3.72722e-05
-0.00116373
-3.27648e-05
-0.00116944
-2.64064e-05
-0.00117414
-1.80259e-05
-0.00117777
-7.49795e-06
-0.00118038
5.59327e-06
-0.00118199
2.13008e-05
-0.00118253
3.94941e-05
-0.00118195
6.02626e-05
-0.00118019
8.35886e-05
-0.00117718
0.000109369
-0.00117284
0.000137405
-0.00116712
0.000167392
-0.0011599
0.000198903
-0.00115111
0.000231376
-0.00114063
0.000264105
-0.00112836
0.000296228
-0.00111418
0.00032672
-0.00109796
0.000354372
-0.00107957
0.000377796
-0.00105885
0.000395473
-0.00103568
0.000405711
-0.00100987
0.000406742
-0.000981283
0.000396743
-0.000949757
0.000373909
-0.00091515
0.000336558
-0.00087731
0.000283163
-0.000836167
0.000212747
-0.000791769
0.000124837
-0.000744001
1.89395e-05
-0.000693527
-0.000102585
-0.000640214
-0.000240037
-0.00058447
-0.000390689
-0.000526896
-0.00055019
-0.000467948
-0.000714473
-0.000408102
-0.000877921
-0.000347669
-0.00103455
-0.000286921
-0.00117739
-0.000225791
-0.00129942
-0.000163834
-0.00139372
-0.00010028
-0.0014533
-3.40319e-05
-0.00147118
3.6423e-05
-0.00144253
0.000112611
-0.00136253
0.000195409
-0.00122955
0.00028544
-0.00104222
0.00038265
-0.000806892
0.00048605
-0.000526075
0.000594173
-0.000216658
0.000704631
0.000116469
0.000815843
0.0004468
0.000925169
0.000766602
0.00103354
0.00105152
0.00113847
0.00126653
0.00124705
0.00144973
0.00135443
0.00141055
0.00147578
0.00148296
0.000855624
-0.000924704
1.5164e-06
-0.000940126
-6.00826e-07
-0.00095534
-4.73383e-06
-0.000970021
-9.48183e-06
-0.000983989
-1.4361e-05
-0.000997151
-1.90572e-05
-0.00100946
-2.33408e-05
-0.00102089
-2.70165e-05
-0.00103143
-2.99254e-05
-0.00104105
-3.18994e-05
-0.00104975
-3.27683e-05
-0.00105751
-3.23567e-05
-0.0010643
-3.04849e-05
-0.00107009
-2.69725e-05
-0.00107485
-2.16441e-05
-0.00107853
-1.43426e-05
-0.00108105
-4.9782e-06
-0.00108251
7.04733e-06
-0.00108283
2.16244e-05
-0.00108198
3.86434e-05
-0.0010799
5.8179e-05
-0.00107652
8.02073e-05
-0.00107177
0.000104619
-0.00106557
0.000131209
-0.00105784
0.000159664
-0.00104849
0.00018955
-0.00103741
0.000220295
-0.00102449
0.000251186
-0.00100962
0.000281356
-0.000992672
0.000309774
-0.000973523
0.000335223
-0.000952022
0.000356295
-0.000928044
0.000371494
-0.000901442
0.000379109
-0.000872081
0.000377381
-0.000839828
0.00036449
-0.00080456
0.000338642
-0.000766185
0.000298183
-0.000724584
0.000241562
-0.000679746
0.000167909
-0.00063167
7.67616e-05
-0.000581134
-3.15963e-05
-0.000527826
-0.000155894
-0.000472294
-0.000295568
-0.00041501
-0.000447974
-0.000356769
-0.00060843
-0.000298227
-0.000773016
-0.000240084
-0.000936063
-0.000182799
-0.00109184
-0.000126893
-0.00123329
-7.24607e-05
-0.00135386
-1.92273e-05
-0.00144696
3.35757e-05
-0.0015061
8.75089e-05
-0.00152511
0.000143934
-0.00149895
0.000204562
-0.00142316
0.00027113
-0.00129612
0.000344846
-0.00111593
0.000426416
-0.000888462
0.000515585
-0.000615244
0.000611682
-0.000312755
0.000713022
1.51289e-05
0.000818607
0.000341215
0.000926281
0.000658928
0.00103728
0.000940528
0.00114909
0.00115472
0.00126861
0.00133021
0.00138984
0.00128932
0.0015262
0.0013466
0.000723267
-0.000795199
1.52474e-05
-0.000809532
1.3733e-05
-0.000823581
9.315e-06
-0.000837169
4.10624e-06
-0.000850041
-1.48898e-06
-0.00086229
-6.80865e-06
-0.000873747
-1.18839e-05
-0.000884338
-1.64258e-05
-0.000894029
-2.02343e-05
-0.000902795
-2.31335e-05
-0.000910609
-2.49537e-05
-0.000917443
-2.5523e-05
-0.000923262
-2.46659e-05
-0.000928029
-2.22056e-05
-0.0009317
-1.79725e-05
-0.000934222
-1.18205e-05
-0.000935512
-3.68888e-06
-0.000935613
7.14899e-06
-0.000934483
2.04936e-05
-0.000932065
3.62258e-05
-0.000928297
5.44108e-05
-0.000923108
7.50188e-05
-0.000916423
9.79337e-05
-0.000908159
0.000122944
-0.000898224
0.00014973
-0.000886521
0.000177847
-0.000872943
0.000206717
-0.000857374
0.000235618
-0.000839695
0.000263677
-0.000819782
0.000289862
-0.000797507
0.000312948
-0.000772711
0.000331499
-0.000745289
0.000344072
-0.000715107
0.000348927
-0.00068205
0.000344323
-0.000646014
0.000328454
-0.000606914
0.000299542
-0.000564702
0.000255971
-0.000519303
0.000196163
-0.00047075
0.000119356
-0.000419152
2.51634e-05
-0.000365465
-8.52832e-05
-0.000309405
-0.000211954
-0.000251561
-0.000353412
-0.000192543
-0.000506992
-0.000133332
-0.000667641
-7.47766e-05
-0.000831571
-1.76518e-05
-0.000993188
3.67445e-05
-0.00114623
8.8204e-05
-0.00128475
0.00013676
-0.00140241
0.000182366
-0.00149256
0.000225672
-0.00154941
0.00026791
-0.00156735
0.000310891
-0.00154193
0.000356594
-0.00146886
0.000407259
-0.00134678
0.000464693
-0.00117337
0.00053038
-0.000954149
0.00060484
-0.000689704
0.000688226
-0.000396141
0.000779621
-7.62659e-05
0.000878654
0.000242181
0.0009836
0.000553981
0.00109604
0.000828084
0.00121331
0.00103745
0.0013419
0.00120163
0.00147493
0.00115629
0.00162345
0.00119807
0.000582899
-0.000620978
2.75146e-05
-0.000633551
2.63055e-05
-0.000646058
2.18226e-05
-0.000658407
1.64554e-05
-0.000670402
1.05055e-05
-0.000681582
4.37183e-06
-0.000691871
-1.59508e-06
-0.000701497
-6.79955e-06
-0.000710294
-1.14373e-05
-0.000718165
-1.52625e-05
-0.000725072
-1.80469e-05
-0.000730976
-1.9619e-05
-0.00073583
-1.98125e-05
-0.000739581
-1.84537e-05
-0.000742178
-1.53763e-05
-0.000743559
-1.04388e-05
-0.000743659
-3.58924e-06
-0.000742389
5.87951e-06
-0.000739793
1.78972e-05
-0.000735795
3.22273e-05
-0.00073032
4.89365e-05
-0.000723293
6.7992e-05
-0.000714633
8.9273e-05
-0.000704251
0.000112562
-0.000692053
0.000137533
-0.00067794
0.000163734
-0.000661803
0.00019058
-0.000643524
0.00021734
-0.000622983
0.000243135
-0.000600053
0.000266933
-0.00057461
0.000287505
-0.000546487
0.000303376
-0.000515596
0.000313181
-0.000481824
0.000315156
-0.000445081
0.00030758
-0.000405294
0.000288666
-0.000362416
0.000256665
-0.000316443
0.000209997
-0.000267323
0.000147043
-0.000214921
6.69539e-05
-0.000160303
-2.94544e-05
-0.000103279
-0.000142308
-4.41916e-05
-0.000271041
1.61289e-05
-0.000413732
7.58859e-05
-0.000566749
0.000135546
-0.000727301
0.000193867
-0.000889893
0.0002498
-0.00104912
0.000302482
-0.00119892
0.000351014
-0.00133328
0.000394871
-0.00144627
0.000433967
-0.00153166
0.000468912
-0.00158435
0.000500863
-0.0015993
0.000531734
-0.0015728
0.000563702
-0.00150083
0.000599429
-0.00138251
0.000641258
-0.00121519
0.000691421
-0.00100431
0.000751196
-0.000749479
0.000821618
-0.000466563
0.000902438
-0.000157086
0.000994116
0.000150504
0.00109519
0.000452903
0.00120767
0.000715614
0.0013286
0.000916524
0.0014639
0.00106632
0.00160613
0.00101406
0.00176362
0.00104058
0.000436866
-0.000401714
3.86401e-05
-0.000412458
3.70495e-05
-0.000423344
3.27082e-05
-0.000434205
2.73171e-05
-0.00044481
2.11103e-05
-0.000455029
1.45912e-05
-0.000464761
8.13606e-06
-0.000473455
1.89484e-06
-0.000481352
-3.53973e-06
-0.000488477
-8.13833e-06
-0.00049465
-1.18737e-05
-0.000499815
-1.44536e-05
-0.000503907
-1.57207e-05
-0.000506858
-1.55023e-05
-0.000508602
-1.3633e-05
-0.000509073
-9.96792e-06
-0.00050822
-4.44191e-06
-0.000505778
3.43777e-06
-0.000501923
1.40421e-05
-0.000496541
2.68454e-05
-0.000489546
4.19413e-05
-0.000480853
5.92992e-05
-0.000470376
7.87955e-05
-0.000458022
0.000100209
-0.000443697
0.000123207
-0.000427298
0.000147335
-0.00040872
0.000172002
-0.00038785
0.000196469
-0.000364564
0.000219849
-0.000338737
0.000241105
-0.000310256
0.000259024
-0.000278919
0.000272038
-0.000244663
0.000278925
-0.000207412
0.000277906
-0.000167087
0.000267255
-0.000123623
0.000245203
-7.69959e-05
0.000210037
-2.71231e-05
0.000160124
2.52968e-05
9.46233e-05
8.01048e-05
1.21459e-05
0.000136988
-8.63374e-05
0.000196117
-0.000201437
0.000256903
-0.000331827
0.000318627
-0.000475456
0.00038055
-0.000628673
0.000441489
-0.000788239
0.000500356
-0.00094876
0.000555991
-0.00110476
0.00060735
-0.00125028
0.000653407
-0.00137934
0.000693459
-0.00148632
0.000727264
-0.00156546
0.000755293
-0.00161238
0.000778574
-0.00162258
0.000799021
-0.00159325
0.000818907
-0.00152071
0.000841202
-0.00140481
0.000868675
-0.00124267
0.000904237
-0.00103987
0.000949861
-0.000795102
0.00100746
-0.000524161
0.00107743
-0.000227059
0.00116109
6.68462e-05
0.00125719
0.000356803
0.00136814
0.000604658
0.00149076
0.000793905
0.00163014
0.000926943
0.00177865
0.000865555
0.00194179
0.000877439
0.000287638
-0.000134732
4.61605e-05
-0.000144496
4.68138e-05
-0.000154287
4.24992e-05
-0.000163973
3.70025e-05
-0.000173579
3.07167e-05
-0.000182945
2.39573e-05
-0.000191892
1.7083e-05
-0.000200411
1.04134e-05
-0.000208088
4.13744e-06
-0.000214675
-1.55161e-06
-0.000220508
-6.04023e-06
-0.000225399
-9.5629e-06
-0.000229191
-1.19288e-05
-0.000231802
-1.28907e-05
-0.000233157
-1.22789e-05
-0.000233183
-9.94151e-06
-0.00023186
-5.76471e-06
-0.00022872
2.97289e-07
-0.000224073
9.39492e-06
-0.000217752
2.05247e-05
-0.000209669
3.38587e-05
-0.000199729
4.93585e-05
-0.000187834
6.69007e-05
-0.000173887
8.62622e-05
-0.000157789
0.000107109
-0.000139436
0.000128982
-0.000118721
0.000151288
-9.55429e-05
0.000173291
-6.97873e-05
0.000194093
-4.1268e-05
0.000212586
-9.77056e-06
0.000227527
2.43768e-05
0.00023789
6.14372e-05
0.000241865
0.000101499
0.000237844
0.000144604
0.00022415
0.000190762
0.000199044
0.000239962
0.000160838
0.000292111
0.000107975
0.00034733
3.9404e-05
0.000404655
-4.51791e-05
0.000464432
-0.000146115
0.00052608
-0.000263084
0.00058902
-0.000394768
0.000652496
-0.000538932
0.000715722
-0.000691898
0.000777492
-0.00085001
0.000836664
-0.00100793
0.000891975
-0.00116007
0.000942245
-0.00130055
0.000986337
-0.00142343
0.00102341
-0.0015234
0.00105309
-0.00159514
0.00107566
-0.00163496
0.00109201
-0.00163893
0.00110394
-0.00160519
0.00111373
-0.00153051
0.00112453
-0.0014156
0.00113938
-0.00125752
0.00116177
-0.00106227
0.00119426
-0.000827592
0.0012396
-0.000569506
0.00129879
-0.000286249
0.001374
-8.36225e-06
0.00146414
0.000266662
0.00157205
0.00049675
0.00169436
0.0006716
0.0018351
0.000786194
0.00198688
0.000713783
0.00215242
0.000711895
0.000137688
0.000182776
5.36803e-05
0.000172885
5.67051e-05
0.000163355
5.20292e-05
0.000154102
4.62556e-05
0.000144806
4.00127e-05
0.000135565
3.31979e-05
0.000126585
2.60628e-05
0.000118042
1.89569e-05
0.000110018
1.21616e-05
0.00010259
5.87624e-06
9.66401e-05
-9.05305e-08
9.13643e-05
-4.28706e-06
8.71193e-05
-7.68382e-06
8.40926e-05
-9.86397e-06
8.23929e-05
-1.05793e-05
8.21117e-05
-9.66027e-06
8.33481e-05
-7.00118e-06
8.61829e-05
-2.53745e-06
9.10394e-05
4.53844e-06
9.76244e-05
1.39396e-05
0.000106138
2.53453e-05
0.000116693
3.88029e-05
0.000129391
5.42035e-05
0.000144325
7.13275e-05
0.000161592
8.98423e-05
0.000181281
0.000109292
0.000203483
0.000129086
0.000228292
0.000148482
0.000255824
0.000166561
0.000286188
0.000182223
0.000319444
0.00019427
0.000355762
0.000201572
0.000395167
0.00020246
0.000437656
0.000195355
0.000483235
0.000178571
0.000531892
0.000150387
0.000583588
0.000109142
0.000638252
5.33114e-05
0.00069547
-1.78144e-05
0.000755005
-0.000104714
0.000816707
-0.000207816
0.000880083
-0.00032646
0.000944478
-0.000459163
0.00100908
-0.000603536
0.00107306
-0.000755876
0.0011352
-0.000912148
0.00119431
-0.00106705
0.00124909
-0.00121485
0.00129828
-0.00134974
0.00134069
-0.00146584
0.0013754
-0.00155811
0.0014019
-0.00162164
0.00142037
-0.00165342
0.00143147
-0.00165003
0.00143687
-0.0016106
0.00143873
-0.00153237
0.00144024
-0.0014171
0.00144458
-0.00126185
0.00145565
-0.00107334
0.00147647
-0.000848413
0.00151056
-0.000603596
0.00155944
-0.000335128
0.00162599
-7.49133e-05
0.00170948
0.000183178
0.00181294
0.000393283
0.00193306
0.000551487
0.00207261
0.000646639
0.00222473
0.000561665
0.00238969
0.000546938
-1.06051e-05
0.000555944
0.000544189
6.84597e-05
0.000533312
6.29056e-05
0.000522905
5.66634e-05
0.000512537
5.038e-05
0.000502214
4.35212e-05
0.000492099
3.61776e-05
0.000482355
2.87006e-05
0.000473147
2.137e-05
0.000464632
1.43916e-05
0.000456573
7.96814e-06
0.000450031
2.25501e-06
0.000444679
-2.3324e-06
0.000440409
-5.59402e-06
0.000437417
-7.58644e-06
0.000435905
-8.14876e-06
0.000435992
-7.0884e-06
0.000437694
-4.2386e-06
0.000441674
5.57962e-07
0.000447502
8.1121e-06
0.000455423
1.74237e-05
0.000465556
2.86697e-05
0.000478016
4.17438e-05
0.00049291
5.64331e-05
0.000510343
7.24102e-05
0.000530412
8.92232e-05
0.000553214
0.000106284
0.000578848
0.000122849
0.000607406
0.000138002
0.000638959
0.00015067
0.000673569
0.00015966
0.000711352
0.00016379
0.000752327
0.000161486
0.000796482
0.0001512
0.000843786
0.000131266
0.00089418
9.99932e-05
0.000947653
5.5669e-05
0.00100398
-3.01177e-06
0.00106253
-7.63721e-05
0.00112351
-0.000165692
0.00118644
-0.000270743
0.00125078
-0.000390805
0.00131588
-0.000524256
0.00138088
-0.000668539
0.0014449
-0.0008199
0.00150676
-0.000974004
0.00156525
-0.00112553
0.00161905
-0.00126865
0.00166691
-0.0013976
0.00170763
-0.00150656
0.00174029
-0.00159077
0.00176432
-0.00164567
0.00177977
-0.00166886
0.00178713
-0.00165739
0.0017879
-0.00161136
0.00178401
-0.00152848
0.00177858
-0.00141167
0.00177475
-0.00125803
0.00177671
-0.0010753
0.00178771
-0.000859415
0.00181195
-0.00062783
0.00185132
-0.000374505
0.00190946
-0.000133051
0.00198586
0.000106774
0.00208374
0.000295402
0.00220004
0.000435188
0.00233614
0.000510544
0.00248594
0.000411868
0.00264765
0.000385221
-0.000155075
0.000974212
8.4654e-05
0.00095937
7.77475e-05
0.000945474
7.05587e-05
0.000931968
6.38868e-05
0.0009187
5.67888e-05
0.000905749
4.9129e-05
0.000893228
4.1221e-05
0.000881261
3.33377e-05
0.000869978
2.56745e-05
0.000859524
1.84221e-05
0.000849937
1.18422e-05
0.000841504
6.09994e-06
0.00083476
1.15071e-06
0.000829406
-2.23286e-06
0.000825494
-4.23677e-06
0.000823247
-4.84177e-06
0.000822822
-3.81371e-06
0.000824431
-1.05106e-06
0.000828323
4.22077e-06
0.000834469
1.12776e-05
0.000843032
2.01069e-05
0.000854137
3.06382e-05
0.000867904
4.26667e-05
0.000884443
5.58713e-05
0.00090386
6.98062e-05
0.000926253
8.389e-05
0.000951713
9.73885e-05
0.000980316
0.000109399
0.00101211
0.000118877
0.00104714
0.000124634
0.00108548
0.000125445
0.00112714
0.000119823
0.00117209
0.000106252
0.00122025
8.31054e-05
0.00127153
4.87105e-05
0.00132605
1.15246e-06
0.00138275
-5.97129e-05
0.00144216
-0.000135778
0.00150371
-0.000227242
0.00156699
-0.000334025
0.00163144
-0.000455251
0.00169635
-0.000589171
0.00176088
-0.000733066
0.00182409
-0.000883113
0.00188483
-0.00103475
0.00194192
-0.00118262
0.00199408
-0.00132081
0.00204011
-0.00144363
0.00207886
-0.00154531
0.00210949
-0.0016214
0.00213142
-0.0016676
0.00214463
-0.00168207
0.00214948
-0.00166224
0.00214728
-0.00160915
0.00213969
-0.0015209
0.00212965
-0.00140163
0.00212012
-0.0012485
0.00211536
-0.00107054
0.00211869
-0.000862753
0.00213482
-0.000643959
0.00216591
-0.000405593
0.00221623
-0.000183373
0.00228553
3.74811e-05
0.00237703
0.000203896
0.00248823
0.000323985
0.00261902
0.000379756
0.0027642
0.000266685
0.00292045
0.000228978
-0.000293849
0.00146498
0.000107941
0.00144338
9.93433e-05
0.00142327
9.06724e-05
0.00140406
8.30977e-05
0.00138549
7.53577e-05
0.00136754
6.70788e-05
0.00135024
5.85146e-05
0.00133367
4.99081e-05
0.00131792
4.14239e-05
0.00130311
3.32324e-05
0.00128942
2.55322e-05
0.001277
1.85191e-05
0.00126576
1.23956e-05
0.00125614
7.38243e-06
0.00124837
3.53602e-06
0.00124253
1.00348e-06
0.00123875
-3.40094e-08
0.00123677
9.26441e-07
0.0012373
3.69098e-06
0.00124037
8.2095e-06
0.00124607
1.44079e-05
0.00125453
2.21738e-05
0.00126589
3.13035e-05
0.00128028
4.14845e-05
0.00129781
5.22811e-05
0.00131857
6.31242e-05
0.00134266
7.32965e-05
0.00137015
8.19168e-05
0.00140104
8.79807e-05
0.00143538
9.02954e-05
0.0014732
8.76224e-05
0.0015145
7.85242e-05
0.00155921
6.15467e-05
0.00160725
3.50658e-05
0.00165857
-2.6081e-06
0.00171245
-5.27352e-05
0.00176923
-0.000116493
0.00182837
-0.000194919
0.00188952
-0.000288385
0.00195217
-0.000396679
0.00201573
-0.00051881
0.00207947
-0.000652907
0.00214251
-0.000796106
0.00220391
-0.000944513
0.00226255
-0.00109339
0.0023173
-0.00123736
0.00236697
-0.00137048
0.00241045
-0.00148711
0.00244672
-0.00158159
0.00247508
-0.00164975
0.00249498
-0.0016875
0.00250642
-0.00169351
0.00250966
-0.00166549
0.00250584
-0.00160533
0.00249636
-0.00151142
0.00248388
-0.00138914
0.00247104
-0.00123566
0.00246203
-0.00106153
0.00246005
-0.000860775
0.0024701
-0.000654007
0.00249448
-0.000429976
0.00253794
-0.00022683
0.00260051
-2.50933e-05
0.00268528
0.000119134
0.00279051
0.000218755
0.00291462
0.000255639
0.00305336
0.000127954
0.00320235
7.99858e-05
-0.000425398
0.00201381
0.00198273
0.000130422
0.00195361
0.000119788
0.001926
0.000110713
0.00189959
0.000101764
0.00187428
9.23889e-05
0.00185002
8.2775e-05
0.00182681
7.31184e-05
0.0018047
6.35378e-05
0.00178376
5.417e-05
0.00176411
4.51859e-05
0.00174586
3.67629e-05
0.00172919
2.90708e-05
0.00171426
2.23054e-05
0.00170117
1.6629e-05
0.00169001
1.21631e-05
0.00168092
9.06196e-06
0.0016743
7.53991e-06
0.00167027
7.71959e-06
0.00166896
9.52423e-06
0.00167049
1.28779e-05
0.00167501
1.76526e-05
0.00168267
2.36437e-05
0.00169361
3.05476e-05
0.00170795
3.7941e-05
0.0017258
4.52708e-05
0.00174725
5.18434e-05
0.00177237
5.68027e-05
0.00180114
5.92096e-05
0.00183358
5.78581e-05
0.00186969
5.15106e-05
0.00190946
3.87567e-05
0.00195279
1.82099e-05
0.00199954
-1.16784e-05
0.00204941
-5.24867e-05
0.00210223
-0.000105554
0.00215774
-0.000172002
0.00221555
-0.000252722
0.00227519
-0.000348025
0.00233612
-0.000457611
0.00239769
-0.00058038
0.00245913
-0.000714352
0.00251956
-0.000856538
0.00257803
-0.00100298
0.00263348
-0.00114883
0.00268482
-0.00128871
0.00273101
-0.00141667
0.0027711
-0.0015272
0.00280424
-0.00161473
0.00282988
-0.00167539
0.0028476
-0.00170522
0.00285746
-0.00170337
0.00285968
-0.00166771
0.00285528
-0.00160092
0.00284538
-0.00150152
0.00283235
-0.00137611
0.00281842
-0.00122174
0.00280756
-0.00105067
0.00280268
-0.000855895
0.00280884
-0.000660163
0.00282839
-0.000449523
0.00286622
-0.000264661
0.00292295
-8.18303e-05
0.00300101
4.10747e-05
0.00309983
0.000119938
0.00321642
0.000139046
0.00334737
-2.99796e-06
0.00348781
-6.04521e-05
-0.00054858
0.00256702
0.00252669
0.000160114
0.00248845
0.000148956
0.00245204
0.000138168
0.00241731
0.000127128
0.00238412
0.000115964
0.00235242
0.000104812
0.00232222
9.37436e-05
0.00229353
8.28558e-05
0.00226643
7.22848e-05
0.00224101
6.21816e-05
0.00221738
5.27049e-05
0.00219566
4.40211e-05
0.00217601
3.62789e-05
0.00215856
2.96156e-05
0.00214345
2.41762e-05
0.00213087
2.01182e-05
0.00212106
1.75319e-05
0.00211417
1.64071e-05
0.00211037
1.66802e-05
0.0021098
1.82263e-05
0.0021126
2.08411e-05
0.00211892
2.42254e-05
0.0021289
2.79654e-05
0.00214265
3.15232e-05
0.00216026
3.42295e-05
0.00218181
3.52512e-05
0.00220726
3.37576e-05
0.0022366
2.85245e-05
0.00226979
1.83136e-05
0.00230686
1.69087e-06
0.00234754
-2.24703e-05
0.00239177
-5.59109e-05
0.00243926
-9.9978e-05
0.00248973
-0.000156017
0.00254283
-0.000225101
0.00259812
-0.000308012
0.00265508
-0.000404988
0.00271311
-0.000515639
0.00277149
-0.000638767
0.00282944
-0.000772297
0.00288605
-0.000913145
0.00294038
-0.00105732
0.00299145
-0.0011999
0.0030383
-0.00133556
0.00308001
-0.00145837
0.00311582
-0.00156302
0.0031451
-0.00164401
0.00316749
-0.00169778
0.00318274
-0.00172047
0.00319103
-0.00171165
0.00319258
-0.00166926
0.00318832
-0.00159666
0.00317914
-0.00149234
0.00316712
-0.0013641
0.00315405
-0.00120867
0.00314353
-0.00104015
0.00313808
-0.000850439
0.00314257
-0.000664653
0.00315932
-0.000466279
0.00319309
-0.000298429
0.00324507
-0.000133808
0.003317
-3.08588e-05
0.00340938
2.75597e-05
0.00351811
3.03138e-05
0.00364048
-0.000125367
0.00377153
-0.000191497
-0.000662669
0.00312304
0.00021248
0.00307319
0.000198804
0.00302572
0.000185638
0.00298043
0.000172418
0.00293718
0.000159212
0.0028959
0.000146098
0.00285653
0.000133109
0.00281908
0.00012031
0.00278356
0.000107801
0.00275004
9.57018e-05
0.0027186
8.41487e-05
0.00268934
7.32818e-05
0.00266238
6.32388e-05
0.00263784
5.41498e-05
0.00261588
4.61413e-05
0.00259666
3.93351e-05
0.00258038
3.38101e-05
0.00256722
2.95737e-05
0.00255733
2.65713e-05
0.00255087
2.46829e-05
0.002548
2.37103e-05
0.00254886
2.33625e-05
0.00255359
2.32356e-05
0.00256231
2.2805e-05
0.00257512
2.14206e-05
0.00259211
1.8257e-05
0.0026132
1.26753e-05
0.00263846
3.25949e-06
0.00266766
-1.08814e-05
0.00270077
-3.14216e-05
0.00273778
-5.94779e-05
0.00277839
-9.65247e-05
0.00282234
-0.000143925
0.00286926
-0.000202943
0.00291876
-0.000274599
0.00297033
-0.000359581
0.00302339
-0.000458047
0.00307727
-0.000569525
0.00313123
-0.000692726
0.00318444
-0.000825507
0.00323601
-0.000964712
0.00328504
-0.00110634
0.00333061
-0.00124548
0.00337191
-0.00137686
0.00340819
-0.00149465
0.00343891
-0.00159373
0.00346365
-0.00166876
0.00348229
-0.00171642
0.00349477
-0.00173295
0.00350141
-0.00171829
0.00350248
-0.00167033
0.00349887
-0.00159305
0.00349127
-0.00148474
0.00348148
-0.00135431
0.00347085
-0.00119804
0.00346255
-0.00103184
0.00345864
-0.000846532
0.00346358
-0.000669599
0.00347962
-0.000482309
0.00351105
-0.000329865
0.0035596
-0.000182356
0.00362633
-9.75948e-05
0.0037127
-5.88058e-05
0.00381375
-7.07412e-05
0.00392718
-0.000238792
0.00404847
-0.000312785
-0.000767363
0.00371318
0.00365268
0.000259306
0.00359482
0.000243499
0.00353943
0.000227803
0.00348643
0.000212219
0.00343574
0.000196782
0.00338733
0.00018152
0.00334117
0.000166472
0.00329726
0.000151706
0.00325565
0.000137314
0.00321639
0.000123409
0.00317957
0.000110108
0.00314527
9.7532e-05
0.00311363
8.57963e-05
0.00308476
7.50105e-05
0.00305882
6.52726e-05
0.00303598
5.66473e-05
0.00301641
4.91446e-05
0.00300027
4.27147e-05
0.00298771
3.72417e-05
0.00297889
3.25323e-05
0.00297395
2.83039e-05
0.00297302
2.4162e-05
0.00297623
1.95946e-05
0.00298371
1.39402e-05
0.00299553
6.43957e-06
0.00301162
-3.42221e-06
0.00303173
-1.68493e-05
0.00305614
-3.52905e-05
0.00308457
-5.98537e-05
0.00311693
-9.18321e-05
0.00315295
-0.000132542
0.0031923
-0.000183281
0.0032346
-0.000245243
0.00327938
-0.000319377
0.00332608
-0.000406284
0.00337408
-0.00050604
0.00342264
-0.000618094
0.003471
-0.000741084
0.00351831
-0.000872818
0.0035637
-0.0010101
0.00360633
-0.00114897
0.0036454
-0.00128454
0.00368023
-0.00141169
0.00371028
-0.00152471
0.00373524
-0.0016187
0.00375494
-0.00168845
0.00376947
-0.00173095
0.00377898
-0.00174247
0.00378394
-0.00172325
0.0037847
-0.00167109
0.0037821
-0.00159046
0.00377672
-0.00147936
0.00377005
-0.00134764
0.0037631
-0.00119109
0.00375852
-0.00102726
0.00375795
-0.000845967
0.00376524
-0.000676889
0.0037825
-0.00049957
0.00381335
-0.000360709
0.00386005
-0.000229057
0.00392274
-0.00016029
0.00400383
-0.000139892
0.00409769
-0.000164602
0.0042024
-0.000343496
0.004314
-0.000424394
-0.000862772
0.00419266
0.000327359
0.00412711
0.000309043
0.004064
0.000290912
0.00400334
0.000272887
0.00394511
0.000255005
0.00388932
0.000237316
0.00383594
0.000219848
0.003785
0.000202644
0.00373654
0.000185782
0.00369059
0.000169351
0.00364725
0.000153453
0.00360659
0.00013819
0.00356872
0.000123664
0.00353377
0.000109968
0.00350185
9.71835e-05
0.00347314
8.53611e-05
0.00344778
7.45076e-05
0.00342592
6.45741e-05
0.00340771
5.54476e-05
0.00339331
4.69396e-05
0.00338283
3.87769e-05
0.00337642
3.05775e-05
0.00337416
2.18546e-05
0.00337616
1.19346e-05
0.0033829
-3.00542e-07
0.00339342
-1.39428e-05
0.00340835
-3.17729e-05
0.00342744
-5.43858e-05
0.00345062
-8.30295e-05
0.00347768
-0.000118899
0.00350837
-0.000163227
0.00354232
-0.000217235
0.00357911
-0.000282035
0.00361823
-0.000358495
0.00365908
-0.000447131
0.00370098
-0.000547939
0.00374319
-0.000660301
0.0037849
-0.000782794
0.00382528
-0.000913205
0.00386352
-0.00104834
0.00389885
-0.00118431
0.00393061
-0.0013163
0.00395831
-0.00143938
0.00398161
-0.001548
0.00400043
-0.00163752
0.00401483
-0.00170286
0.00402515
-0.00174126
0.0040317
-0.00174902
0.00403509
-0.00172664
0.00403574
-0.00167174
0.00403448
-0.0015892
0.00403177
-0.00147665
0.00402888
-0.00134474
0.00402649
-0.0011887
0.00402677
-0.00102753
0.00403096
-0.000850156
0.00404216
-0.000688097
0.00406238
-0.000519784
0.0040943
-0.000392634
0.0041407
-0.000275452
0.00420072
-0.000220311
0.0042775
-0.000216672
0.00436503
-0.000252137
0.00446161
-0.000440071
0.00456403
-0.000526812
-0.000949395
0.00465811
0.00458936
0.000377788
0.00452268
0.000357595
0.00445818
0.000337384
0.00439594
0.000317248
0.00433599
0.000297267
0.00427837
0.000277464
0.00422314
0.000257879
0.00417034
0.000238578
0.00412005
0.000219642
0.00407235
0.000201156
0.00402732
0.000183213
0.00398509
0.0001659
0.00394575
0.000149301
0.00390946
0.000133482
0.00387633
0.000118486
0.00384652
0.000104314
0.00382018
9.09174e-05
0.00379744
7.81847e-05
0.00377845
6.59326e-05
0.00376333
5.38968e-05
0.00375221
4.16997e-05
0.0037452
2.88645e-05
0.00374245
1.46826e-05
0.0037437
-1.54881e-06
0.00374929
-1.95327e-05
0.00375901
-4.14949e-05
0.00377283
-6.82064e-05
0.00379059
-0.000100788
0.00381208
-0.000140393
0.00383704
-0.000188179
0.00386508
-0.000245278
0.00389576
-0.000312713
0.00392853
-0.000391266
0.00396277
-0.000481372
0.00399778
-0.000582951
0.00403281
-0.000695329
0.00406706
-0.000817049
0.00409976
-0.000945904
0.00413016
-0.00107874
0.00415761
-0.00121176
0.00418162
-0.00134031
0.00420188
-0.00145964
0.00421827
-0.0015644
0.00423095
-0.00165019
0.00424018
-0.00171209
0.00424648
-0.00174757
0.00425034
-0.00175287
0.00425247
-0.00172877
0.00425334
-0.00167261
0.00425375
-0.00158962
0.00425409
-0.00147699
0.00425542
-0.00134607
0.00425821
-0.00119149
0.00426411
-0.00103343
0.00427407
-0.000860123
0.0042904
-0.000704426
0.00431497
-0.00054435
0.00434945
-0.000427113
0.00439696
-0.000322967
0.00445572
-0.000279064
0.00452933
-0.000290286
0.00461164
-0.000334443
0.00470101
-0.000529446
0.00479509
-0.000620886
-0.00102807
0.00495488
0.00488983
0.000422644
0.0048264
0.00040081
0.00476473
0.000378924
0.00470491
0.000357083
0.00464705
0.000335321
0.00459124
0.000313687
0.00453758
0.000292245
0.00448615
0.000271068
0.00443707
0.000250235
0.00439046
0.000229829
0.00434642
0.000209933
0.0043051
0.000190621
0.00426663
0.000171955
0.00423115
0.000153968
0.0041988
0.000136662
0.00416973
0.000119988
0.00414408
0.000103838
0.00412197
8.80357e-05
0.00410354
7.23296e-05
0.00408889
5.63549e-05
0.00407806
3.96928e-05
0.00407111
2.16281e-05
0.00406861
9.57857e-07
0.00406968
-2.06034e-05
0.00407467
-4.64928e-05
0.00408351
-7.70418e-05
0.00409603
-0.000113309
0.00411202
-0.000156384
0.00413118
-0.000207343
0.00415314
-0.000267231
0.00417741
-0.000336988
0.00420346
-0.00041731
0.00423064
-0.000508557
0.00425828
-0.000610585
0.00428563
-0.000722686
0.00431197
-0.000843386
0.00433659
-0.000970519
0.00435885
-0.001101
0.00437827
-0.00123118
0.00439451
-0.00135655
0.0044075
-0.00147262
0.0044173
-0.0015742
0.00442426
-0.00165716
0.00442883
-0.00171666
0.00443168
-0.00175042
0.00443341
-0.0017546
0.00443481
-0.00173016
0.00443636
-0.00167416
0.00443883
-0.00159209
0.00444258
-0.00148073
0.00444846
-0.00135196
0.0044568
-0.00119983
0.0044688
-0.00104544
0.00448521
-0.000876523
0.00450749
-0.000726715
0.00453744
-0.000574297
0.00457568
-0.000465348
0.00462554
-0.000372836
0.00468436
-0.000337884
0.00475601