/*--------------------------------*- C++ -*----------------------------------*\
  =========                 |
  \\      /  F ield         | OpenFOAM: The Open Source CFD Toolbox
   \\    /   O peration     | Website:  https://openfoam.org
    \\  /    A nd           | Version:  7
     \\/     M anipulation  |
\*---------------------------------------------------------------------------*/
FoamFile
{
    version     2.0;
    format      ascii;
    class       surfaceScalarField;
    location    "6";
    object      phi;
}
// * * * * * * * * * * * * * * * * * * * * * * * * * * * * * * * * * * * * * //

dimensions      [0 3 -1 0 0 0 0];

internalField   nonuniform List<scalar> 
823
(
0.00918592
0.00103649
-0.00913434
0.00923529
0.00118956
0.00134131
0.00945103
0.000982167
-0.00939671
0.009505
0.00113559
0.00955806
0.00128825
0.00960954
0.00143968
0.00965865
0.00158934
0.0097045
0.00173667
0.00974605
0.00188103
0.00978215
0.00202173
0.00215802
0.00971503
0.000927203
-0.00966006
0.00977096
0.00107966
0.0098275
0.00123171
0.0098842
0.00138298
0.00994051
0.00153304
0.00999576
0.00168142
0.0100492
0.00182762
0.0100998
0.00197107
0.00211115
0.00998229
0.000873024
-0.00992811
0.0100384
0.00102358
0.0100961
0.00117394
0.0101553
0.00132379
0.0102156
0.0014728
0.0102764
0.00162059
0.0103373
0.00176674
0.0103975
0.00191081
0.00205229
0.0102554
0.000820419
-0.0102028
0.0103105
0.00096844
0.0103681
0.00111637
0.0104279
0.00126396
0.0104898
0.00141091
0.0105535
0.00155692
0.0106186
0.00170166
0.0106846
0.00184477
0.00198584
0.010536
0.00076979
-0.0104854
0.0105896
0.000914851
0.0106461
0.00105987
0.0107054
0.00120461
0.0107675
0.00134883
0.0108321
0.00149228
0.0108991
0.00163467
0.0109682
0.00177572
0.00191508
0.0108252
0.00072138
-0.0107768
0.0108769
0.000863169
0.0109318
0.00100492
0.01099
0.00114643
0.0110513
0.00128748
0.0111158
0.00142783
0.0111832
0.00156725
0.0112535
0.00170549
0.00184227
0.0111235
0.000675237
-0.0110774
0.0111732
0.000813525
0.0112263
0.00095177
0.011283
0.00108977
0.0113431
0.00122733
0.0114067
0.00136423
0.0114737
0.00150027
0.011544
0.00163522
0.00176885
0.0114316
0.000631355
-0.0113877
0.0114791
0.000765958
0.0115304
0.000900501
0.0115854
0.0010348
0.0116441
0.00116865
0.0117064
0.00130186
0.0117725
0.00143424
0.0118421
0.00156559
0.00169568
0.0117495
0.000589643
-0.0117078
0.0117951
0.000720411
0.0118445
0.000851102
0.0118977
0.00098153
0.0119549
0.00111151
0.0120159
0.00124086
0.0120807
0.00136939
0.0121494
0.00149692
0.00162323
0.012078
0.000550049
-0.0120384
0.0121215
0.000676843
0.0121691
0.000803541
0.0122207
0.000929966
0.0122762
0.00105594
0.0123358
0.00118128
0.0123994
0.00130582
0.012467
0.00142936
0.00155172
0.0124171
0.000512466
-0.0123795
0.0124588
0.000635156
0.0125046
0.000757737
0.0125546
0.000880035
0.0126086
0.00100188
0.0126668
0.00112309
0.0127291
0.0012435
0.0127955
0.00136294
0.00148122
0.0127675
0.00047679
-0.0127318
0.0128074
0.000595256
0.0128515
0.000713601
0.0128999
0.000831656
0.0129525
0.000949254
0.0130094
0.00106623
0.0130705
0.00118241
0.0131358
0.00129762
0.00141171
0.0131295
0.000442923
-0.0130956
0.0131677
0.000557047
0.0132103
0.000671039
0.0132572
0.000784739
0.0133084
0.000897984
0.0133641
0.00101061
0.013424
0.00112245
0.0134883
0.00123335
0.00134315
0.0135037
0.000410757
-0.0134716
0.0135403
0.000520425
0.0135814
0.000629956
0.013627
0.000739192
0.013677
0.000847977
0.0137314
0.000956153
0.0137903
0.00106356
0.0138536
0.00117005
0.00127545
0.0138908
0.0003802
-0.0138603
0.013926
0.000485299
0.0139657
0.000590256
0.0140099
0.000694921
0.0140588
0.000799141
0.0141122
0.000902765
0.0141701
0.00100564
0.0142325
0.00110762
0.00120854
0.0142915
0.000351157
-0.0142625
0.0143253
0.000451574
0.0143637
0.000551849
0.0144068
0.000651834
0.0144545
0.000751384
0.0145069
0.000850354
0.014564
0.000948597
0.0146256
0.00104597
0.00114232
0.0147066
0.000323535
-0.014679
0.014739
0.000419158
0.0147762
0.000514639
0.0148182
0.000609837
0.014865
0.000704613
0.0149165
0.000798825
0.0149728
0.000892335
0.0150337
0.000985003
0.00107669
0.0151369
0.000297242
-0.0151106
0.0151681
0.000387959
0.0152042
0.000478535
0.0152452
0.000568837
0.0152911
0.00065873
0.0153418
0.000748082
0.0153974
0.000836759
0.0154578
0.000924627
0.00101155
0.0155834
0.000272191
-0.0155583
0.0156135
0.000357885
0.0156486
0.000443443
0.0156887
0.000528738
0.0157337
0.000613641
0.0157838
0.000698026
0.0158388
0.000781765
0.0158987
0.000864733
0.000946802
0.0160471
0.000248291
-0.0160232
0.0160761
0.000328847
0.0161103
0.000409271
0.0161496
0.000489444
0.016194
0.000569244
0.0162435
0.000648553
0.016298
0.000727248
0.0163575
0.000805211
0.000882323
0.0165291
0.000225457
-0.0165063
0.0165572
0.000300752
0.0165905
0.000375923
0.0166291
0.000450855
0.0166729
0.000525437
0.0167219
0.000599555
0.0167761
0.000673095
0.0168353
0.000745946
0.000817995
0.0170306
0.000203603
-0.0170088
0.0170579
0.000273511
0.0170905
0.000343302
0.0171285
0.000412872
0.0171718
0.000482114
0.0172204
0.000550922
0.0172743
0.00061919
0.0173335
0.000686814
0.000753689
0.0175529
0.00018263
-0.0175319
0.0175794
0.000247022
0.0176114
0.000311305
0.0176489
0.000375384
0.0176918
0.000439159
0.0177402
0.000502532
0.017794
0.000565406
0.0178532
0.000627684
0.000689268
0.0180974
0.00016246
-0.0180773
0.0181233
0.000221196
0.0181547
0.000279834
0.0181918
0.000338284
0.0182345
0.000396458
0.0182828
0.000454264
0.0183366
0.000511614
0.0183959
0.000568417
0.000624586
0.0186656
0.000142996
-0.0186461
0.0186909
0.000195931
0.0187219
0.000248778
0.0187587
0.000301458
0.0188013
0.000353887
0.0188496
0.000405986
0.0189035
0.000457672
0.0189631
0.000508865
0.000559486
0.0192591
0.000124144
-0.0192402
0.0192839
0.000171123
0.0193146
0.000218027
0.0193513
0.000264782
0.0193939
0.000311316
0.0194423
0.000357557
0.0194965
0.000403432
0.0195565
0.00044887
0.000493798
0.0198796
0.000105805
-0.0198612
0.019904
0.000146665
0.0199346
0.00018746
0.0199713
0.000228128
0.020014
0.000268606
0.0200627
0.000308829
0.0201174
0.000348734
0.020178
0.00038826
0.000427342
0.0205291
8.78732e-05
-0.0205111
0.0205533
0.000122439
0.0205838
0.000156952
0.0206206
0.000191359
0.0206636
0.000225606
0.0207127
0.00025964
0.0207681
0.000293405
0.0208295
0.00032685
0.000359921
0.0212096
7.02378e-05
-0.021192
0.0212337
9.83224e-05
0.0212643
0.000126367
0.0213014
0.000154326
0.0213448
0.000182157
0.0213946
0.000209816
0.0214508
0.000237259
0.0215132
0.000264441
0.000291321
0.0219237
5.2776e-05
-0.0219062
0.0219478
7.41798e-05
0.0219786
9.55546e-05
0.0220161
0.000116866
0.0220602
0.000138082
0.0221108
0.000159167
0.022168
0.000180089
0.0222316
0.000200814
0.000221309
0.0226738
3.5355e-05
-0.0226564
0.0226981
4.98628e-05
0.0227293
6.43523e-05
0.0227674
7.88004e-05
0.0228123
9.31842e-05
0.022864
0.000107481
0.0229224
0.000121668
0.0229875
0.000135723
0.000149623
0.0234632
1.78181e-05
-0.0234456
0.0234878
2.51985e-05
0.0235196
3.25706e-05
0.0235585
3.99223e-05
0.0236044
4.72424e-05
0.0236574
5.45187e-05
0.0237173
6.17399e-05
0.0237841
6.88942e-05
7.59704e-05
0.024295
-0.0242772
0.0243202
0.0243528
0.0243927
0.02444
0.0244945
0.0245562
0.0246251
0.00902714
0.000574313
0.00908123
0.000728425
0.000882625
0.00923574
0.000368657
0.00928873
0.000521321
0.00934248
0.000674672
0.000828401
0.00950341
0.000319711
0.00955407
0.000470657
0.00960634
0.000622402
0.00077468
0.00977829
0.00027423
0.00982603
0.000422921
0.00987599
0.000572439
0.000722556
0.0100608
0.000232185
0.0101054
0.000378224
0.0101528
0.000525086
0.000672557
0.0103513
0.000193409
0.010393
0.000336514
0.0104377
0.000480412
0.000624906
0.010651
0.000157878
0.0106897
0.00029782
0.0107316
0.000438509
0.00057976
0.0109597
0.000125474
0.0109955
0.000262039
0.0110347
0.000399306
0.0005371
0.0112779
9.60549e-05
0.0113109
0.000229044
0.0113475
0.000362715
0.00049688
0.0116054
6.93682e-05
0.0116358
0.000198673
0.0116699
0.000328596
0.000458977
0.0119432
4.53954e-05
0.011971
0.000170845
0.0120027
0.000296878
0.000423336
0.0122912
2.39749e-05
0.0123166
0.000145435
0.012346
0.000267437
0.000389836
0.0126499
4.97341e-06
0.012673
0.000122313
0.0127003
0.000240155
0.000358368
0.0130199
-1.17555e-05
0.0130408
0.000101371
0.0130661
0.000214926
0.000328829
0.0134017
-2.62339e-05
0.0134205
8.24809e-05
0.0134438
0.000191632
0.000301108
0.0137959
-3.8629e-05
0.0138128
6.55532e-05
0.0138343
0.000170179
0.00027511
0.0142033
-4.90664e-05
0.0142184
5.04884e-05
0.0142381
0.000150471
0.000250741
0.0146248
-5.76227e-05
0.0146381
3.71916e-05
0.0146561
0.000132414
0.000227907
0.0150611
-6.43855e-05
0.0150727
2.55721e-05
0.0150892
0.000115918
0.000206518
0.0155133
-6.94375e-05
0.0155233
1.55449e-05
0.0155383
0.000100896
0.000186485
0.0159823
-7.28578e-05
0.0159908
7.02729e-06
0.0160044
8.72647e-05
0.000167724
0.0164693
-7.47224e-05
0.0164764
-5.71887e-08
0.0164887
7.49432e-05
0.00015015
0.0169754
-7.50945e-05
0.0169812
-5.82675e-06
0.0169923
6.38588e-05
0.000133683
0.0175022
-7.40617e-05
0.0175065
-1.02196e-05
0.0175165
5.39158e-05
0.00011823
0.0180507
-7.16698e-05
0.0180539
-1.34389e-05
0.0180627
4.50545e-05
0.000103717
0.0186225
-6.79893e-05
0.0186246
-1.55177e-05
0.0186325
3.71917e-05
9.00563e-05
0.0192194
-6.3082e-05
0.0192204
-1.65232e-05
0.0192273
3.02494e-05
7.71623e-05
0.0198429
-5.70109e-05
0.0198429
-1.65264e-05
0.019849
2.41464e-05
6.49445e-05
0.0204951
-4.98386e-05
0.0204941
-1.56003e-05
0.0204995
1.88002e-05
5.33091e-05
0.0211779
-4.16317e-05
0.0211762
-1.38221e-05
0.0211808
1.41219e-05
4.21562e-05
0.0218939
-3.24613e-05
0.0218913
-1.12756e-05
0.0218954
1.00149e-05
3.13765e-05
0.0226454
-2.24044e-05
0.0226422
-8.05071e-06
0.0226459
6.37558e-06
2.08517e-05
0.0234357
-1.15557e-05
0.0234319
-4.25789e-06
0.0234352
3.07829e-06
1.04407e-05
0.0242679
0.0242637
0.0242668
)
;

boundaryField
{
    inlet
    {
        type            calculated;
        value           nonuniform 0();
    }
    outlet
    {
        type            calculated;
        value           nonuniform 0();
    }
    cylinder
    {
        type            calculated;
        value           nonuniform 0();
    }
    top
    {
        type            symmetryPlane;
        value           uniform 0;
    }
    bottom
    {
        type            symmetryPlane;
        value           nonuniform 0();
    }
    defaultFaces
    {
        type            empty;
        value           nonuniform 0();
    }
    procBoundary32to26
    {
        type            processor;
        value           nonuniform List<scalar> 
15
(
-0.00108807
-0.00123893
-0.00138769
0.00928167
-0.00149116
-0.00163846
-0.00178252
-0.00192258
-0.00205783
-0.00218743
-0.000628902
-0.000782512
-0.000935739
-0.00897255
-0.00042067
)
;
    }
    procBoundary32to31
    {
        type            processor;
        value           nonuniform List<scalar> 
33
(
-0.00918373
-0.00945446
-0.00973281
-0.0100187
-0.0103125
-0.0106155
-0.0109273
-0.0112484
-0.0115787
-0.0119192
-0.0122698
-0.0126309
-0.0130032
-0.0133872
-0.0137835
-0.0141929
-0.0146162
-0.0150543
-0.0155082
-0.0159789
-0.0164674
-0.0169751
-0.0175032
-0.0180531
-0.0186262
-0.0192243
-0.019849
-0.0205022
-0.0211861
-0.021903
-0.0226555
-0.0234466
-0.0242795
)
;
    }
    procBoundary32to33
    {
        type            processor;
        value           nonuniform List<scalar> 
33
(
0.00981157
0.0101467
0.0104564
0.0107511
0.0110389
0.0113263
0.0116174
0.0119153
0.0122218
0.0125385
0.012866
0.0132053
0.0135568
0.0139213
0.0142994
0.0146918
0.0150994
0.0155229
0.0159634
0.016422
0.0168997
0.0173978
0.0179176
0.0184605
0.0190282
0.0196222
0.0202445
0.0208969
0.0215818
0.0223016
0.0230592
0.0238578
0.0247011
)
;
    }
}


// ************************************************************************* //
