/*--------------------------------*- C++ -*----------------------------------*\
  =========                 |
  \\      /  F ield         | OpenFOAM: The Open Source CFD Toolbox
   \\    /   O peration     | Website:  https://openfoam.org
    \\  /    A nd           | Version:  7
     \\/     M anipulation  |
\*---------------------------------------------------------------------------*/
FoamFile
{
    version     2.0;
    format      ascii;
    class       volVectorField;
    location    "6";
    object      U;
}
// * * * * * * * * * * * * * * * * * * * * * * * * * * * * * * * * * * * * * //

dimensions      [0 1 -1 0 0 0 0];

internalField   nonuniform List<vector> 
435
(
(1.28623 0.2496 5.11915e-20)
(1.29257 0.242064 1.51483e-19)
(1.29818 0.234119 -3.32425e-19)
(1.277 0.236709 -2.82092e-20)
(1.28361 0.230495 -1.15458e-19)
(1.28976 0.223986 -1.15529e-19)
(1.29536 0.217153 -3.17729e-20)
(1.30031 0.20996 -2.47028e-19)
(1.30451 0.202372 3.07386e-19)
(1.30783 0.194349 5.63914e-19)
(1.31013 0.185853 5.21388e-19)
(1.31126 0.17685 6.86418e-19)
(1.26686 0.223441 -3.0257e-20)
(1.2734 0.218215 -5.19739e-20)
(1.27967 0.212786 3.80982e-19)
(1.28561 0.207128 1.18445e-19)
(1.29116 0.201212 1.69555e-19)
(1.29623 0.195004 -2.04388e-19)
(1.30074 0.188467 -4.92979e-19)
(1.30458 0.181561 3.78592e-22)
(1.30763 0.174246 -9.79361e-19)
(1.25638 0.210218 3.74416e-20)
(1.26265 0.205741 5.31055e-20)
(1.26878 0.201123 -1.19535e-19)
(1.27471 0.196348 -2.33759e-19)
(1.28043 0.191394 -1.86398e-19)
(1.28586 0.186234 6.66112e-19)
(1.29097 0.180837 3.43822e-20)
(1.29566 0.17517 -3.56041e-19)
(1.29986 0.169193 3.15406e-19)
(1.24586 0.197317 4.78418e-21)
(1.25176 0.193413 1.13771e-19)
(1.25759 0.189414 5.42927e-20)
(1.26332 0.185307 3.41038e-20)
(1.26893 0.181078 -1.02779e-20)
(1.2744 0.176708 -6.95112e-19)
(1.27969 0.172174 -3.57951e-20)
(1.28475 0.167448 -6.91001e-20)
(1.28952 0.162501 1.41018e-19)
(1.23545 0.184866 -3.1565e-21)
(1.24094 0.18142 1.05445e-20)
(1.24639 0.177908 -1.3263e-19)
(1.25181 0.174322 2.39573e-19)
(1.25718 0.170652 2.17452e-19)
(1.26248 0.166885 4.34091e-19)
(1.26769 0.163006 2.22883e-19)
(1.27279 0.158995 -3.53586e-20)
(1.27774 0.154831 -1.46709e-19)
(1.22524 0.172941 -1.84745e-21)
(1.2303 0.169875 1.18309e-20)
(1.23536 0.16676 1.5719e-19)
(1.24041 0.163592 6.69911e-20)
(1.24546 0.160365 -1.45681e-19)
(1.25048 0.157071 -1.65173e-19)
(1.25547 0.1537 -2.40721e-19)
(1.26041 0.150239 -1.02542e-19)
(1.26529 0.146673 -3.02152e-20)
(1.21524 0.161582 6.83612e-21)
(1.21989 0.158835 -8.3176e-20)
(1.22456 0.156053 -2.25227e-20)
(1.22923 0.153232 1.17945e-19)
(1.23392 0.150368 3.46111e-21)
(1.23861 0.147457 2.63529e-19)
(1.2433 0.144492 4.17168e-19)
(1.24799 0.141465 1.51054e-19)
(1.25266 0.138366 -8.7503e-20)
(1.20547 0.150789 3.09325e-22)
(1.20974 0.14832 -7.12633e-20)
(1.21402 0.145824 -2.21981e-20)
(1.21832 0.143299 -1.12166e-19)
(1.22265 0.140743 -6.97609e-20)
(1.22699 0.138152 -1.69522e-21)
(1.23136 0.135523 -3.80094e-19)
(1.23573 0.13285 -1.143e-19)
(1.24012 0.130128 8.02858e-20)
(1.19592 0.140549 -1.66591e-20)
(1.19982 0.138327 7.23913e-20)
(1.20374 0.136083 -4.00567e-20)
(1.20769 0.133818 -6.47211e-20)
(1.21167 0.131529 1.23708e-19)
(1.21567 0.129214 -1.66803e-19)
(1.2197 0.126871 1.90669e-19)
(1.22376 0.124497 3.6774e-20)
(1.22784 0.122087 9.43398e-21)
(1.18658 0.130843 2.15286e-20)
(1.19014 0.128842 6.32257e-21)
(1.19373 0.126825 3.96984e-21)
(1.19735 0.12479 -1.19217e-19)
(1.201 0.122738 -1.09388e-19)
(1.20468 0.120666 -3.38427e-21)
(1.20839 0.118573 -1.42416e-19)
(1.21213 0.116456 -1.57666e-21)
(1.21589 0.114315 -5.6566e-20)
(1.17746 0.121657 -2.24557e-20)
(1.18071 0.119854 -6.73493e-20)
(1.18399 0.118039 8.24401e-20)
(1.1873 0.116211 7.87946e-20)
(1.19064 0.11437 -2.94065e-20)
(1.19401 0.112514 3.40962e-20)
(1.19741 0.110642 -1.79852e-19)
(1.20085 0.108753 -1.55657e-20)
(1.20432 0.106845 1.78299e-19)
(1.16854 0.11296 -7.99286e-21)
(1.17151 0.111337 3.02093e-20)
(1.17451 0.109706 -3.33944e-20)
(1.17753 0.108065 -5.75805e-20)
(1.18059 0.106413 7.98799e-20)
(1.18367 0.104751 -1.6398e-19)
(1.18679 0.103077 1.25227e-19)
(1.18994 0.101391 1.8322e-19)
(1.19312 0.0996903 -1.04586e-19)
(1.15984 0.10473 -1.09023e-20)
(1.16255 0.10327 3.16822e-20)
(1.16528 0.101805 -3.40062e-20)
(1.16805 0.100333 1.14462e-19)
(1.17084 0.0988531 -4.79032e-20)
(1.17366 0.0973657 2.79354e-21)
(1.17651 0.0958698 1.22922e-19)
(1.1794 0.0943647 -6.37613e-20)
(1.18231 0.0928498 2.66692e-19)
(1.15136 0.0969395 3.89903e-20)
(1.15383 0.0956293 -2.25789e-20)
(1.15633 0.0943149 -1.56063e-21)
(1.15885 0.092996 -9.38361e-20)
(1.1614 0.0916721 -1.79513e-20)
(1.16398 0.0903428 2.72343e-20)
(1.16659 0.0890075 -1.73186e-19)
(1.16922 0.0876658 1.57389e-19)
(1.17189 0.0863171 -3.8499e-20)
(1.14312 0.0895655 -8.44183e-21)
(1.14537 0.0883913 3.99675e-21)
(1.14765 0.0872145 6.88446e-20)
(1.14995 0.086035 3.59513e-20)
(1.15228 0.0848523 8.1013e-20)
(1.15463 0.0836661 4.50861e-20)
(1.15702 0.0824761 5.20711e-20)
(1.15942 0.0812817 -1.36614e-19)
(1.16186 0.0800825 8.9572e-20)
(1.13512 0.0825844 1.18058e-21)
(1.13718 0.0815341 -4.02733e-20)
(1.13925 0.0804826 3.13938e-20)
(1.14136 0.0794298 1.71675e-20)
(1.14348 0.0783753 -8.578e-20)
(1.14563 0.0773188 -6.71401e-20)
(1.1478 0.0762601 -1.16225e-19)
(1.15 0.0751988 -1.17135e-20)
(1.15222 0.0741344 -1.32257e-19)
(1.12739 0.0759739 -3.92342e-21)
(1.12926 0.0750366 6.66818e-21)
(1.13116 0.0740992 -5.76307e-20)
(1.13308 0.0731615 -1.42665e-20)
(1.13501 0.0722233 -5.78761e-20)
(1.13697 0.0712844 1.88357e-19)
(1.13895 0.0703445 -8.6735e-20)
(1.14095 0.0694032 1.59142e-19)
(1.14297 0.0684604 -2.87125e-19)
(1.11994 0.0697105 6.90435e-21)
(1.12165 0.0688764 1.79914e-20)
(1.12338 0.068043 -2.39311e-21)
(1.12512 0.0672101 -3.01923e-20)
(1.12689 0.0663776 -5.91652e-20)
(1.12868 0.0655453 -3.78751e-20)
(1.13048 0.064713 -5.07978e-20)
(1.1323 0.0638804 8.03666e-20)
(1.13414 0.0630473 1.54026e-19)
(1.11278 0.0637727 7.07519e-21)
(1.11435 0.0630327 -2.26571e-20)
(1.11592 0.0622941 -6.40795e-21)
(1.11752 0.0615566 8.13602e-21)
(1.11913 0.0608201 7.0757e-20)
(1.12075 0.0600846 -4.99205e-20)
(1.12239 0.0593497 5.18312e-20)
(1.12405 0.0586154 -1.41926e-19)
(1.12572 0.0578813 -3.26836e-20)
(1.10595 0.0581384 -5.74711e-21)
(1.10737 0.0574844 1.02357e-20)
(1.10881 0.0568322 1.57774e-21)
(1.11027 0.0561815 -6.01396e-21)
(1.11174 0.0555323 8.81328e-21)
(1.11322 0.0548846 -4.58723e-20)
(1.11471 0.0542381 2.47155e-20)
(1.11622 0.0535926 -3.94662e-20)
(1.11774 0.0529481 3.2014e-20)
(1.09945 0.0527858 4.18687e-21)
(1.10075 0.0522104 -2.27031e-21)
(1.10207 0.0516369 -1.56169e-20)
(1.1034 0.0510653 4.54382e-20)
(1.10473 0.0504955 7.13611e-20)
(1.10608 0.0499275 8.21679e-20)
(1.10744 0.049361 -7.97599e-21)
(1.10881 0.0487961 6.84332e-20)
(1.11019 0.0482324 -1.25006e-19)
(1.09331 0.0476942 -1.62734e-21)
(1.0945 0.0471903 -4.21179e-21)
(1.0957 0.0466884 1.88292e-20)
(1.09692 0.0461887 -2.42133e-20)
(1.09814 0.045691 -1.58291e-20)
(1.09937 0.0451953 -5.50792e-20)
(1.1006 0.0447014 -6.18242e-21)
(1.10185 0.0442092 -8.78565e-21)
(1.1031 0.0437187 6.74976e-20)
(1.08754 0.0428403 1.43356e-20)
(1.08863 0.0424017 -2.76552e-20)
(1.08973 0.0419653 5.05067e-22)
(1.09084 0.0415311 7.19438e-21)
(1.09196 0.041099 5.3132e-20)
(1.09308 0.0406689 -9.38215e-21)
(1.09421 0.0402408 1.47723e-19)
(1.09534 0.0398146 6.64352e-21)
(1.09648 0.0393902 -3.17453e-20)
(1.08216 0.0382019 -3.28119e-21)
(1.08317 0.0378231 1.56657e-20)
(1.08418 0.0374464 -3.15167e-20)
(1.0852 0.0370719 1.79733e-20)
(1.08622 0.0366995 -8.13121e-20)
(1.08724 0.0363291 3.49295e-20)
(1.08827 0.0359607 -5.25423e-20)
(1.0893 0.0355943 -6.49841e-20)
(1.09034 0.0352296 9.00141e-21)
(1.0772 0.0337576 2.06712e-21)
(1.07813 0.0334332 3.1031e-21)
(1.07906 0.0331109 4.39212e-21)
(1.08 0.0327906 4.78768e-20)
(1.08093 0.0324723 2.44366e-20)
(1.08187 0.0321561 -3.66484e-20)
(1.08281 0.0318418 5.53099e-21)
(1.08375 0.0315294 1.31211e-20)
(1.0847 0.0312188 -9.67754e-20)
(1.07267 0.0294831 -6.58778e-21)
(1.07353 0.0292084 9.19665e-22)
(1.07439 0.0289356 -3.99126e-20)
(1.07526 0.0286648 3.50112e-20)
(1.07612 0.0283958 -7.10743e-20)
(1.07698 0.0281288 2.00033e-20)
(1.07784 0.0278636 1.30009e-20)
(1.07871 0.0276002 3.05856e-20)
(1.07957 0.0273385 1.39953e-19)
(1.0686 0.0253535 9.82153e-22)
(1.0694 0.0251243 -4.15795e-21)
(1.0702 0.0248968 -4.02928e-21)
(1.071 0.0246711 1.5032e-20)
(1.07179 0.0244472 2.50846e-20)
(1.07259 0.024225 -5.64378e-20)
(1.07338 0.0240044 2.56724e-20)
(1.07418 0.0237856 -6.11689e-20)
(1.07497 0.0235682 -9.07102e-21)
(1.06501 0.021343 1.81249e-21)
(1.06575 0.0211555 3.40867e-21)
(1.0665 0.0209696 1.43388e-21)
(1.06724 0.0207852 1.96951e-21)
(1.06798 0.0206024 5.80416e-20)
(1.06872 0.0204211 -7.76537e-20)
(1.06946 0.0202413 7.49596e-20)
(1.07019 0.0200629 6.8044e-21)
(1.07092 0.0198859 1.87575e-21)
(1.06191 0.0174228 4.78283e-21)
(1.06262 0.0172739 -3.598e-20)
(1.06332 0.0171262 2.8963e-20)
(1.06401 0.0169799 -2.93889e-21)
(1.06471 0.016835 1.16764e-20)
(1.0654 0.0166912 -3.94923e-20)
(1.06608 0.0165488 -2.26961e-20)
(1.06677 0.0164075 1.51895e-20)
(1.06744 0.0162674 -1.52011e-20)
(1.05935 0.0135631 -4.65824e-21)
(1.06002 0.01345 7.08845e-21)
(1.06068 0.0133379 -1.67982e-22)
(1.06134 0.0132269 -4.54196e-21)
(1.062 0.013117 6.50464e-21)
(1.06265 0.013008 -3.42128e-20)
(1.06329 0.0129 2.52322e-20)
(1.06394 0.012793 2.17441e-22)
(1.06457 0.0126869 2.5907e-20)
(1.05735 0.00972769 9.62395e-22)
(1.05799 0.00964849 -7.65002e-21)
(1.05863 0.00957008 1.32136e-20)
(1.05926 0.00949243 2.17822e-20)
(1.05988 0.00941554 -7.03883e-20)
(1.0605 0.00933937 4.75976e-20)
(1.06112 0.00926389 2.03779e-20)
(1.06173 0.00918908 -9.21311e-21)
(1.06233 0.00911489 9.8293e-21)
(1.05597 0.00588155 -7.58088e-21)
(1.05659 0.00583447 3.54468e-21)
(1.0572 0.00578785 2.49016e-21)
(1.05781 0.00574168 -5.39936e-20)
(1.05841 0.00569594 9.08411e-20)
(1.05901 0.00565061 -4.43532e-20)
(1.05961 0.00560568 -2.34133e-20)
(1.06019 0.00556112 -6.30712e-20)
(1.06078 0.0055169 1.64031e-19)
(1.05523 0.00197179 5.28344e-21)
(1.05584 0.00195713 -3.58088e-21)
(1.05644 0.00194264 1.35058e-20)
(1.05704 0.0019283 -4.46454e-21)
(1.05763 0.00191407 -2.46856e-20)
(1.05822 0.00189994 3.69793e-20)
(1.0588 0.00188588 1.32491e-20)
(1.05937 0.00187186 -3.2688e-21)
(1.05994 0.00185788 3.65e-20)
(1.26369 0.270027 3.43461e-19)
(1.2717 0.263558 -1.35084e-19)
(1.27924 0.256757 -6.99161e-20)
(1.24713 0.2591 4.80589e-20)
(1.25501 0.253836 9.85754e-20)
(1.26265 0.248359 1.37469e-19)
(1.26999 0.242657 1.35773e-20)
(1.23864 0.242659 -1.25744e-19)
(1.24595 0.23808 -3.82441e-19)
(1.2531 0.233358 3.50877e-20)
(1.26008 0.228483 3.98201e-20)
(1.23017 0.226958 2.15304e-19)
(1.23686 0.222934 1.45672e-19)
(1.24347 0.218806 -6.19591e-20)
(1.24998 0.21457 -2.56978e-20)
(1.22171 0.212133 2.44416e-20)
(1.22781 0.208539 -9.9321e-20)
(1.23388 0.204874 -1.33898e-19)
(1.2399 0.201135 -2.66638e-21)
(1.21327 0.198075 -2.51386e-19)
(1.21885 0.194852 1.10136e-19)
(1.2244 0.191578 8.96648e-21)
(1.22994 0.18825 1.26111e-20)
(1.20497 0.184774 -5.23466e-20)
(1.21004 0.181878 -1.8622e-19)
(1.21511 0.178941 8.07598e-21)
(1.22017 0.175963 -8.89464e-21)
(1.19675 0.172239 -1.20198e-19)
(1.20136 0.169623 3.47442e-20)
(1.20598 0.166974 7.72714e-20)
(1.2106 0.164294 -1.22193e-20)
(1.18863 0.16042 7.01993e-20)
(1.19281 0.158047 6.18703e-20)
(1.19702 0.155651 7.42109e-20)
(1.20123 0.153232 3.05265e-21)
(1.18056 0.149253 4.83404e-20)
(1.18436 0.147103 7.2753e-20)
(1.18819 0.144936 -9.28446e-20)
(1.19204 0.142752 2.23486e-20)
(1.1726 0.138699 1.39548e-19)
(1.17606 0.136756 1.64317e-20)
(1.17954 0.1348 2.79437e-20)
(1.18305 0.132829 -1.14019e-20)
(1.16473 0.128759 -6.98639e-20)
(1.16787 0.126999 -6.88013e-20)
(1.17104 0.125229 -3.19052e-20)
(1.17424 0.123449 1.72441e-20)
(1.15696 0.119372 -7.39607e-20)
(1.15981 0.11778 1.07228e-21)
(1.1627 0.116181 -3.37318e-21)
(1.16561 0.114575 3.39428e-22)
(1.14929 0.110512 2.47599e-20)
(1.15189 0.109074 3.32354e-20)
(1.15451 0.107631 -2.24774e-20)
(1.15716 0.106183 2.86439e-21)
(1.14175 0.102146 7.35388e-20)
(1.14412 0.100849 2.88706e-20)
(1.14651 0.0995492 1.64344e-21)
(1.14892 0.098246 -2.35945e-20)
(1.13436 0.094243 -6.48557e-20)
(1.13651 0.0930762 -4.44447e-20)
(1.13869 0.0919078 -1.07191e-20)
(1.14089 0.0907376 1.81848e-20)
(1.12714 0.0867782 -2.53882e-20)
(1.1291 0.0857305 -3.40207e-21)
(1.13109 0.0846824 1.13844e-20)
(1.13309 0.0836338 7.6039e-21)
(1.12011 0.0797251 1.32151e-20)
(1.1219 0.0787868 4.10222e-20)
(1.12371 0.0778489 1.38703e-20)
(1.12554 0.0769113 1.76868e-21)
(1.11329 0.0730561 2.81195e-20)
(1.11492 0.0722182 -6.18637e-21)
(1.11658 0.0713813 -6.8298e-21)
(1.11825 0.0705455 -7.14732e-21)
(1.10671 0.0667465 -9.78824e-21)
(1.1082 0.0660008 2.85776e-20)
(1.10971 0.0652567 -1.0796e-20)
(1.11124 0.0645139 5.93811e-21)
(1.10039 0.0607717 3.61267e-21)
(1.10176 0.0601107 -3.25803e-20)
(1.10314 0.0594515 9.05949e-21)
(1.10454 0.058794 -2.40703e-21)
(1.09436 0.0551071 2.32858e-20)
(1.09561 0.0545237 1.65184e-21)
(1.09688 0.0539424 -4.03828e-20)
(1.09816 0.0533631 5.11238e-21)
(1.08863 0.0497306 2.28966e-20)
(1.08978 0.0492186 -1.42922e-20)
(1.09095 0.0487084 -1.98591e-21)
(1.09212 0.0482002 4.77723e-21)
(1.08324 0.0446156 -3.78813e-20)
(1.0843 0.0441689 7.26489e-21)
(1.08537 0.043724 1.54803e-20)
(1.08645 0.043281 1.78361e-21)
(1.07819 0.0397378 4.57556e-20)
(1.07918 0.0393506 -2.50079e-20)
(1.08017 0.0389657 -6.60963e-21)
(1.08116 0.0385828 5.31879e-21)
(1.07353 0.0350752 -3.83708e-20)
(1.07444 0.0347429 -2.53465e-20)
(1.07536 0.0344125 1.23758e-21)
(1.07628 0.0340841 4.36096e-21)
(1.06926 0.0306005 2.11316e-22)
(1.07011 0.0303185 -1.20891e-20)
(1.07096 0.0300382 8.35569e-21)
(1.07182 0.0297597 -2.13466e-21)
(1.06541 0.0262874 1.31568e-20)
(1.06621 0.0260515 1.38439e-20)
(1.067 0.0258171 -1.43364e-20)
(1.0678 0.0255845 -4.88113e-21)
(1.06201 0.0221079 1.80507e-20)
(1.06276 0.0219145 -3.11514e-20)
(1.06351 0.0217225 7.37279e-22)
(1.06426 0.021532 3.70498e-21)
(1.05908 0.0180313 -1.53373e-20)
(1.05979 0.0178773 3.83224e-20)
(1.0605 0.0177245 -2.16708e-20)
(1.06121 0.017573 3.86528e-21)
(1.05665 0.0140258 6.44279e-21)
(1.05733 0.0139086 -5.87729e-21)
(1.058 0.0137924 7.87274e-21)
(1.05868 0.0136772 -6.12127e-21)
(1.05476 0.0100522 -3.31313e-20)
(1.05541 0.00996995 1.61119e-20)
(1.05606 0.00988842 -1.24118e-20)
(1.05671 0.00980766 7.66685e-22)
(1.05344 0.00607448 5.49989e-20)
(1.05408 0.00602556 4.72243e-21)
(1.05471 0.00597709 5.09492e-21)
(1.05534 0.00592909 -8.55676e-21)
(1.05275 0.00203243 -2.52443e-20)
(1.05338 0.00201693 1.27739e-20)
(1.054 0.00200167 -3.85634e-21)
(1.05462 0.00198663 5.47467e-21)
)
;

boundaryField
{
    inlet
    {
        type            uniformFixedValue;
        uniformValue    constant (1 0 0);
        value           nonuniform 0();
    }
    outlet
    {
        type            pressureInletOutletVelocity;
        value           nonuniform 0();
    }
    cylinder
    {
        type            fixedValue;
        value           nonuniform 0();
    }
    top
    {
        type            symmetryPlane;
    }
    bottom
    {
        type            symmetryPlane;
    }
    defaultFaces
    {
        type            empty;
    }
    procBoundary32to26
    {
        type            processor;
        value           nonuniform List<vector> 
15
(
(1.29363 0.26148 7.10654e-20)
(1.29919 0.252189 5.42289e-20)
(1.30362 0.242361 -3.99827e-19)
(1.30292 0.225733 1.06849e-19)
(1.30292 0.225733 1.06849e-19)
(1.30667 0.216874 -6.20977e-20)
(1.30929 0.207509 2.05746e-19)
(1.31062 0.197607 -5.85534e-20)
(1.31049 0.187145 -1.23132e-19)
(1.30874 0.176106 5.33627e-19)
(1.27153 0.286359 4.09575e-19)
(1.27968 0.278543 -6.9686e-20)
(1.28709 0.270257 -6.61943e-20)
(1.25526 0.276179 -1.12028e-19)
(1.25526 0.276179 -1.12028e-19)
)
;
    }
    procBoundary32to31
    {
        type            processor;
        value           nonuniform List<vector> 
33
(
(1.23903 0.264167 -3.0354e-19)
(1.2312 0.247106 -1.61312e-19)
(1.2234 0.230878 1.48755e-19)
(1.21555 0.215659 1.18306e-20)
(1.20767 0.20125 4.01035e-20)
(1.1999 0.187629 -8.35156e-20)
(1.19215 0.174826 -8.7859e-20)
(1.18444 0.16277 5.82878e-21)
(1.17679 0.151385 -4.74258e-20)
(1.16917 0.140629 1.69256e-19)
(1.16161 0.13051 -1.64709e-20)
(1.15413 0.120958 8.21785e-21)
(1.14672 0.111945 9.09128e-20)
(1.13942 0.10344 -2.24486e-20)
(1.13224 0.0954087 -5.43669e-20)
(1.1252 0.0878258 -4.1476e-20)
(1.11834 0.080664 3.89346e-21)
(1.11168 0.0738951 -2.60147e-20)
(1.10524 0.0674936 -3.70753e-22)
(1.09904 0.0614344 5.1545e-20)
(1.09312 0.0556925 -3.98192e-20)
(1.08749 0.0502445 1.09026e-19)
(1.08218 0.0450642 -6.52395e-20)
(1.07722 0.0401269 1.34736e-20)
(1.07262 0.0354092 -5.44407e-20)
(1.06841 0.0308842 -8.84093e-21)
(1.06461 0.0265248 5.11905e-20)
(1.06125 0.0223026 8.90927e-21)
(1.05836 0.0181864 4.91225e-21)
(1.05596 0.0141439 3.64059e-21)
(1.0541 0.0101353 -6.20141e-20)
(1.0528 0.00612383 9.87219e-20)
(1.05212 0.00204816 -2.94624e-20)
)
;
    }
    procBoundary32to33
    {
        type            processor;
        value           nonuniform List<vector> 
33
(
(1.31106 0.167309 3.16528e-20)
(1.30977 0.16648 -2.70411e-19)
(1.30346 0.162865 -1.54308e-19)
(1.29393 0.157297 2.69273e-19)
(1.28249 0.150486 -2.03815e-19)
(1.27008 0.142983 3.23666e-19)
(1.2573 0.135183 9.75918e-20)
(1.24451 0.127347 -2.2008e-19)
(1.23194 0.119637 2.65499e-20)
(1.21969 0.112145 8.84402e-20)
(1.20781 0.104917 2.50834e-19)
(1.19633 0.0979753 -1.47257e-19)
(1.18525 0.0913241 1.03521e-19)
(1.17458 0.0849608 1.75072e-19)
(1.16431 0.0788782 -3.2972e-19)
(1.15446 0.0730667 2.08022e-19)
(1.14502 0.0675157 -1.0391e-19)
(1.136 0.0622134 7.94828e-20)
(1.12741 0.0571473 -7.20812e-20)
(1.11927 0.0523042 -5.35874e-20)
(1.11158 0.0476699 -7.18188e-20)
(1.10436 0.0432296 1.14906e-21)
(1.09762 0.0389674 -8.4134e-20)
(1.09138 0.0348667 2.55806e-20)
(1.08564 0.0309099 -1.21482e-19)
(1.08043 0.0270785 1.63349e-19)
(1.07576 0.0233524 -5.57035e-20)
(1.07165 0.0197102 7.99085e-20)
(1.06812 0.0161284 -2.88909e-20)
(1.0652 0.0125816 8.2212e-20)
(1.06293 0.00904125 -4.51835e-20)
(1.06135 0.005473 1.27683e-19)
(1.06051 0.00184389 1.24533e-19)
)
;
    }
}


// ************************************************************************* //
