/*--------------------------------*- C++ -*----------------------------------*\
  =========                 |
  \\      /  F ield         | OpenFOAM: The Open Source CFD Toolbox
   \\    /   O peration     | Website:  https://openfoam.org
    \\  /    A nd           | Version:  7
     \\/     M anipulation  |
\*---------------------------------------------------------------------------*/
FoamFile
{
    version     2.0;
    format      ascii;
    class       surfaceScalarField;
    location    "23";
    object      phi;
}
// * * * * * * * * * * * * * * * * * * * * * * * * * * * * * * * * * * * * * //

dimensions      [0 3 -1 0 0 0 0];

internalField   nonuniform List<scalar> 
822
(
0.001213
-0.000905655
0.00125459
-0.000895323
0.00129918
-0.000878935
0.00134655
-0.000858576
0.00139647
-0.000836927
-0.000817208
0.00125946
0.00129897
-0.000934834
0.00134162
-0.000921583
0.0013872
-0.000904156
0.00143548
-0.000885206
0.0014862
-0.000867923
0.00153907
-0.000856105
0.0015938
-0.000853713
0.00165009
-0.000865349
0.00170757
-0.000894522
0.00176595
-0.00094601
0.0018248
-0.00102003
0.00188387
-0.0011218
0.00194254
-0.00124198
0.0020008
-0.00139136
0.00205759
-0.00153583
0.00211358
-0.00171372
0.00216677
-0.00182352
0.0022198
-0.00200417
0.00226884
-0.00195989
0.00232022
-0.00214468
-0.00175848
0.00301054
-0.000973565
0.00305458
-0.000965624
0.003104
-0.000953577
0.00315877
-0.000939968
0.0032187
-0.000927856
0.00328347
-0.000920879
0.00335259
-0.000922832
0.00342533
-0.000938092
0.00350081
-0.00097
0.00357785
-0.00102305
0.00365521
-0.00109739
0.00373129
-0.00119788
0.0038047
-0.00131539
0.00387361
-0.00146026
0.00393695
-0.00159918
0.00399302
-0.00176979
0.00404191
-0.00187242
0.00408269
-0.00204495
0.00411819
-0.0019954
0.00414774
-0.00217423
-0.00179539
0.0034296
-0.00100318
0.00346492
-0.00100094
0.003506
-0.000994661
0.0035528
-0.000986771
0.00360514
-0.000980198
0.00366268
-0.000978411
0.00372488
-0.000985035
0.003791
-0.00100421
0.00386011
-0.00103911
0.00393098
-0.00109393
0.00400235
-0.00116876
0.00407251
-0.00126804
0.00414012
-0.001383
0.00420313
-0.00152326
0.00426072
-0.00165677
0.00431067
-0.00181973
0.00435388
-0.00191563
0.004388
-0.00207907
0.00441825
-0.00202564
0.00444021
-0.00219619
-0.0018276
0.00389576
-0.00102215
0.00392086
-0.00102604
0.00395214
-0.00102594
0.00398955
-0.00102418
0.00403289
-0.00102354
0.0040818
-0.00102732
0.00413572
-0.00103896
0.00419388
-0.00106237
0.00425531
-0.00110054
0.00431874
-0.00115736
0.00438286
-0.00123288
0.00444593
-0.0013311
0.00450655
-0.00144362
0.00456261
-0.00157932
0.00461335
-0.00170751
0.00465635
-0.00186274
0.00469283
-0.00195211
0.00471987
-0.00210611
0.00474375
-0.00204952
0.00475827
-0.00221071
-0.00185405
0.00440906
-0.00102912
0.00442259
-0.00103957
0.00444273
-0.00104608
0.00446941
-0.00105086
0.00450243
-0.00105656
0.00454139
-0.00106628
0.00458573
-0.0010833
0.00463463
-0.00111126
0.0046871
-0.00115301
0.00474182
-0.00121208
0.00479745
-0.00128851
0.00485221
-0.00138585
0.00490468
-0.0014961
0.0049527
-0.00162735
0.00499556
-0.00175036
0.0050307
-0.00189788
0.00505961
-0.00198102
0.00507884
-0.00212534
0.00509573
-0.00206642
0.00510231
-0.0022173
-0.00187418
0.00496837
-0.00102298
0.00496921
-0.00104041
0.00497708
-0.00105395
0.00499189
-0.00106567
0.00501341
-0.00107808
0.00504124
-0.00109411
0.00507479
-0.00111685
0.00511322
-0.0011497
0.00515551
-0.0011953
0.00520032
-0.0012569
0.00524628
-0.00133446
0.00529156
-0.00143114
0.00533477
-0.0015393
0.00537369
-0.00166627
0.00540766
-0.00178433
0.00543404
-0.00192426
0.00545457
-0.00200155
0.00546533
-0.0021361
0.00547465
-0.00207573
0.00547288
-0.00221553
-0.00188748
0.00557112
-0.00100302
0.00555849
-0.00102779
0.00555324
-0.0010487
0.00555528
-0.00106771
0.00556436
-0.00108716
0.00558008
-0.00110983
0.00560183
-0.0011386
0.00562875
-0.00117661
0.00565979
-0.00122634
0.00569361
-0.00129072
0.00572881
-0.00136966
0.00576357
-0.0014659
0.00579647
-0.0015722
0.00582531
-0.00169512
0.00584948
-0.0018085
0.00586628
-0.00194107
0.0058777
-0.00201297
0.0058794
-0.0021378
0.00588061
-0.00207695
0.00587016
-0.00220508
-0.00189348
0.00621302
-0.000969007
0.0061866
-0.00100136
0.0061678
-0.0010299
0.00615654
-0.00105645
0.00615258
-0.00108321
0.00615551
-0.00111276
0.0061647
-0.00114779
0.0061793
-0.00119121
0.00619825
-0.00124529
0.0062202
-0.00131267
0.00624373
-0.0013932
0.00626706
-0.00148923
0.00628877
-0.00159391
0.00630669
-0.00171304
0.00632027
-0.00182207
0.00632679
-0.00194758
0.00632846
-0.00201464
0.00632061
-0.00212994
0.00631329
-0.00206963
0.00629395
-0.00218574
-0.00189181
0.00688806
-0.000921343
0.00684806
-0.000961368
0.00681579
-0.000997632
0.00679118
-0.00103183
0.006774
-0.00106603
0.00676384
-0.0011026
0.00676009
-0.00114403
0.00676188
-0.00119301
0.00676818
-0.00125159
0.00677764
-0.00132213
0.00678886
-0.00140442
0.00680009
-0.00150045
0.00680993
-0.00160375
0.00681627
-0.00171939
0.00681864
-0.00182444
0.00681433
-0.00194328
0.00680578
-0.00200609
0.00678803
-0.00211219
0.00677187
-0.00205347
0.00674357
-0.00215743
-0.00188219
0.0075885
-0.000861112
0.0075358
-0.000908669
0.00749074
-0.000952563
0.00745326
-0.00099436
0.00742318
-0.00103595
0.0074001
-0.00107952
0.00738344
-0.00112737
0.00737235
-0.00118192
0.00736581
-0.00124505
0.00736251
-0.00131883
0.00736109
-0.001403
0.00735983
-0.00149919
0.0073574
-0.00160132
0.00735177
-0.00171376
0.00734254
-0.00181521
0.00732708
-0.00192781
0.00730803
-0.00198704
0.00728021
-0.00208437
0.00725502
-0.00202828
0.00721784
-0.00212026
-0.0018645
0.00830522
-0.000790111
0.00824136
-0.000844803
0.00818479
-0.000895993
0.00813553
-0.0009451
0.00809343
-0.000993845
0.00805813
-0.00104422
0.00802908
-0.00109832
0.00800548
-0.00115832
0.00798635
-0.00122591
0.00797043
-0.00130291
0.0079564
-0.00138897
0.00794264
-0.00148543
0.00792787
-0.00158655
0.00791017
-0.00169606
0.00788925
-0.00179429
0.00786255
-0.00190111
0.00783294
-0.00195743
0.00779511
-0.00204654
0.00776089
-0.00199407
0.0077151
-0.00207446
-0.00183872
0.00902813
-0.00071078
0.00895526
-0.000771937
0.0088891
-0.000829829
0.00882972
-0.00088572
0.00877703
-0.000941156
0.00873074
-0.000997934
0.00869035
-0.00105792
0.00865511
-0.00112309
0.0086241
-0.00119491
0.00859614
-0.00127495
0.00856998
-0.00136281
0.00854408
-0.00145953
0.00851727
-0.00155975
0.00848776
-0.00166654
0.00845537
-0.0017619
0.00841767
-0.00186341
0.00837772
-0.00191748
0.00833015
-0.00199898
0.00828711
-0.00195103
0.00823314
-0.00202049
-0.00180501
0.00974686
-0.000626045
0.00966766
-0.000692737
0.00959432
-0.000756487
0.009527
-0.000818397
0.00946568
-0.000879832
0.00941013
-0.000942386
0.00935992
-0.00100772
0.0093144
-0.00107756
0.0092727
-0.0011532
0.00923372
-0.00123597
0.00919633
-0.00132541
0.00915909
-0.00142229
0.00912095
-0.00152161
0.00908025
-0.00162585
0.00903697
-0.00171862
0.00898882
-0.00181527
0.00893902
-0.00186767
0.00888229
-0.00194225
0.00883084
-0.00189957
0.00876933
-0.00195899
-0.00176373
0.0104516
-0.000539085
0.0103691
-0.000610173
0.0102913
-0.000678725
0.0102186
-0.000745678
0.010151
-0.000812213
0.0100883
-0.000879722
0.0100302
-0.000949655
0.00997619
-0.00102352
0.0099254
-0.00110242
0.00987687
-0.00118745
0.00982956
-0.0012781
0.00978218
-0.0013749
0.0097338
-0.00147323
0.00968293
-0.00157498
0.00962969
-0.00166538
0.00957198
-0.00175755
0.00951313
-0.00180883
0.00944805
-0.00187717
0.00938883
-0.00184035
0.0093206
-0.00189076
-0.00171539
0.011134
-0.000453042
0.0110511
-0.000527262
0.0109718
-0.000599416
0.0108964
-0.000670282
0.010825
-0.000740859
0.0107576
-0.000812341
0.010694
-0.000885973
0.0106335
-0.000963049
0.0105755
-0.00104448
0.0105193
-0.00113117
0.0104637
-0.00122256
0.0104078
-0.00131894
0.0103506
-0.00141606
0.0102909
-0.0015153
0.010229
-0.00160343
0.0101629
-0.00169146
0.0100961
-0.00174201
0.0100237
-0.00180481
0.00995758
-0.00177424
0.00988362
-0.00181679
-0.00166069
0.0117877
-0.00037073
0.0117073
-0.000446788
0.0116291
-0.000521291
0.0115537
-0.000594865
0.0114812
-0.000668336
0.0114116
-0.000742709
0.0113446
-0.000819033
0.01128
-0.000898396
0.011217
-0.000981537
0.011155
-0.00106917
0.0110932
-0.00116069
0.0110304
-0.00125621
0.0109662
-0.00135183
0.0108993
-0.00144843
0.0108302
-0.00153433
0.0107572
-0.00161844
0.0106838
-0.00166856
0.0106054
-0.00172648
0.0105335
-0.00170229
0.0104549
-0.00173821
-0.00160049
0.0124093
-0.000294391
0.0123335
-0.000371064
0.0122589
-0.000446702
0.0121859
-0.000521791
0.0121145
-0.000597
0.012045
-0.000673154
0.0119771
-0.000751122
0.0119105
-0.000831798
0.0118447
-0.000915765
0.0117791
-0.00100356
0.011713
-0.00109456
0.0116454
-0.00118869
0.011576
-0.00128243
0.0115038
-0.00137619
0.0114292
-0.00145977
0.011351
-0.00154015
0.0112724
-0.00158996
0.0111895
-0.00164363
0.011113
-0.00162574
0.011031
-0.00165625
-0.00153577
0.0129979
-0.000225543
0.0129286
-0.000301761
0.0128593
-0.00037744
0.0127905
-0.000452945
0.0127223
-0.000528803
0.0126548
-0.000605677
0.0125879
-0.000684269
0.0125214
-0.000765298
0.0124549
-0.000849208
0.0123877
-0.000936377
0.0123193
-0.00102618
0.012249
-0.00111837
0.0121764
-0.00120979
0.0121006
-0.00130045
0.0120224
-0.00138157
0.0119406
-0.00145831
0.0118584
-0.00150782
0.0117726
-0.00155779
0.0116928
-0.00154591
0.0116087
-0.00157217
-0.0014676
0.0135556
-0.00016495
0.0134937
-0.000239842
0.0134309
-0.000314644
0.0133675
-0.000389619
0.0133039
-0.000465167
0.01324
-0.00054181
0.0131759
-0.000620099
0.0131112
-0.000700597
0.0130456
-0.000783623
0.0129786
-0.000869418
0.0129098
-0.000957355
0.0128385
-0.00104707
0.0127645
-0.00113575
0.012687
-0.00122304
0.012607
-0.00130148
0.0125233
-0.00137464
0.0124392
-0.00142374
0.0123519
-0.00147049
0.0122701
-0.00146414
0.0121852
-0.00148722
-0.00139709
0.0140865
-0.000112698
0.0140322
-0.000185603
0.0139764
-0.00025881
0.0139193
-0.000332492
0.013861
-0.000406942
0.0138018
-0.000482555
0.0137414
0.0136798
0.0136165
0.0135513
0.0134835
0.0134128
0.013339
0.0132615
0.0131812
0.0130972
0.0130127
0.0129254
0.0128429
0.0127583
0.0145962
0.0145494
0.0145005
0.0144497
0.0143972
)
;

boundaryField
{
    inlet
    {
        type            calculated;
        value           nonuniform 0();
    }
    outlet
    {
        type            calculated;
        value           nonuniform List<scalar> 
20
(
0.00418465
0.00447241
0.00478472
0.00512245
0.00548617
0.00587616
0.00629228
0.00673395
0.00720015
0.00768932
0.00819944
0.00872805
0.00927226
0.00982892
0.0103947
0.0109663
0.0115405
0.0121147
0.0126865
0.00237204
)
;
    }
    cylinder
    {
        type            calculated;
        value           nonuniform 0();
    }
    top
    {
        type            symmetryPlane;
        value           nonuniform 0();
    }
    bottom
    {
        type            symmetryPlane;
        value           nonuniform 0();
    }
    defaultFaces
    {
        type            empty;
        value           nonuniform 0();
    }
    procBoundary29to23
    {
        type            processor;
        value           nonuniform List<scalar> 
23
(
0.000867219
0.000853729
0.000834351
0.000811206
0.000787
0.000764988
0.00144869
0.000803228
0.000798983
0.000809065
0.00083704
0.000887628
0.000961178
0.00106273
0.0011833
0.0013331
0.00147904
0.00165773
0.00177033
0.00195114
0.00191085
0.0020933
0.00170666
)
;
    }
    procBoundary29to28
    {
        type            processor;
        value           nonuniform List<scalar> 
20
(
-0.00117456
-0.00122326
-0.000941855
-0.00297181
-0.00339998
-0.00387679
-0.00440209
-0.00497451
-0.00559108
-0.00624703
-0.00693572
-0.00764873
-0.00837623
-0.00910746
-0.0098316
-0.0105386
-0.01122
-0.01187
-0.0124856
-0.0130667
)
;
    }
    procBoundary29to34
    {
        type            processor;
        value           nonuniform List<scalar> 3(-0.0136162 -0.0141387 -0.0146405);
    }
    procBoundary29to35
    {
        type            processor;
        value           nonuniform List<scalar> 
22
(
-0.00055975
-0.000638952
-0.000720373
-0.000804138
-0.000889629
-0.000976377
-0.00106191
-0.00114558
-0.00122111
-0.00129071
-0.0013392
-0.00138315
-0.00138172
-0.00140255
-0.0013253
-6.83515e-05
-0.000138802
-0.000209885
-0.000281696
-0.000354435
0.014343
-0.000428386
)
;
    }
}


// ************************************************************************* //
