/*--------------------------------*- C++ -*----------------------------------*\
  =========                 |
  \\      /  F ield         | OpenFOAM: The Open Source CFD Toolbox
   \\    /   O peration     | Website:  https://openfoam.org
    \\  /    A nd           | Version:  7
     \\/     M anipulation  |
\*---------------------------------------------------------------------------*/
FoamFile
{
    version     2.0;
    format      ascii;
    class       surfaceScalarField;
    location    "115.000648";
    object      phi;
}
// * * * * * * * * * * * * * * * * * * * * * * * * * * * * * * * * * * * * * //

dimensions      [0 3 -1 0 0 0 0];

internalField   nonuniform List<scalar> 
11438
(
-0.00303063
-0.00134508
-0.00296645
-0.00130104
-0.00291944
-0.00111617
-0.00291584
-0.000796258
-0.000357776
-0.00132845
-0.00188135
-0.00130308
-0.00206666
-0.00126697
-0.00224721
-0.00121837
-0.00241624
-0.00115534
-0.00256729
-0.00107581
-0.00269334
-0.000977726
-0.00278677
-0.000859245
-0.00283949
-0.000719007
-0.00284326
-0.000556637
-0.00279015
-0.000372819
-0.00267315
-0.00016941
-0.00248678
5.13566e-05
-0.00222828
0.000286929
-0.00189696
0.00053088
-0.00149085
0.000780829
-0.00101765
0.00103399
-0.00048193
0.00128804
0.00010691
0.00154152
0.000739299
0.00179322
0.00139913
0.00204067
0.00206731
0.00227993
0.00271942
0.0025052
0.00332863
0.0027094
0.00386936
0.00288533
0.00432227
0.00302707
0.00467819
0.00313071
0.00493968
0.0031941
0.00512017
0.00321528
0.00524273
0.00319125
0.00533932
0.00312046
0.00544488
0.00301
0.00557874
0.00288217
0.00571727
0.00277282
0.0057788
0.00271925
0.00564182
0.00274452
0.00519465
0.00285009
0.00438373
0.00302117
0.00322674
0.00323749
0.00179213
0.00348076
0.000177341
0.00373273
-0.00149063
0.0039762
-0.00306946
0.00419234
-0.00441559
0.00436574
-0.00543686
0.00448872
-0.00611534
0.00456078
-0.00650035
0.00458658
-0.0066803
0.00457544
-0.00674134
0.00453673
-0.00673468
0.00446885
-0.00670512
0.006773
0.00435855
-0.00674396
0.00685426
0.00419889
-0.00693535
0.007095
0.00400819
-0.00721724
0.00740794
0.0038272
-0.00728995
0.00747094
0.00369822
-0.00678059
0.00690957
0.00364747
-0.00541368
0.00546443
0.00368149
-0.00328036
0.00324633
0.00379184
-0.000616869
0.000506519
0.00394982
0.00199718
-0.00215515
0.00411681
0.00432765
-0.00449464
0.00425608
0.00596628
-0.00610555
0.00435063
0.00712579
-0.00722034
0.0044039
0.00766017
-0.00771344
0.00440457
0.00784873
-0.0078494
0.00434342
0.00802672
-0.00796558
0.00419796
0.00825048
-0.00810502
0.00401033
0.00882892
-0.0086413
0.00380581
0.00816686
-0.00796234
0.00360726
0.00796347
-0.00776491
0.00293229
-0.00281299
-0.00130565
-0.00187674
-0.0013048
-0.00206751
-0.00129668
-0.00225534
-0.0012795
-0.00243342
-0.00125104
-0.00259575
-0.00120871
-0.00273568
-0.00114958
-0.0028459
-0.00107057
-0.00291849
-0.000968799
-0.00294503
-0.000842017
-0.00291693
-0.000689133
-0.00282603
-0.000510428
-0.00266548
-0.000308
-0.00243071
-8.58973e-05
-0.00211907
0.000157111
-0.00173385
0.000413001
-0.00127354
0.000676512
-0.000745442
0.000946271
-0.000162849
0.00121856
0.000467009
0.00149202
0.00112567
0.00176333
0.00179599
0.0020282
0.00245455
0.00228048
0.00307635
0.00251273
0.00363711
0.00271725
0.00411775
0.00288728
0.00450816
0.00301782
0.00480914
0.00310534
0.00503265
0.00314673
0.00520134
0.00313945
0.0053466
0.00308528
0.00549905
0.00299681
0.00566721
0.00290081
0.00581328
0.00283294
0.00584667
0.00282463
0.00565014
0.0028905
0.00512877
0.00302558
0.00424866
0.00321247
0.00303985
0.00343135
0.00157324
0.00366499
-5.62957e-05
0.00390004
-0.00172567
0.00412055
-0.00328997
0.00431008
-0.00460512
0.00445543
-0.00558221
0.00455125
-0.00621115
0.00459915
-0.00654825
0.00460444
-0.00668559
0.0045758
-0.00671269
0.00452254
-0.00668142
0.00444404
-0.00662662
0.00432637
-0.00662629
0.00415921
-0.00676819
0.00395811
-0.00701614
0.00376482
-0.00709666
0.00362582
-0.00664159
0.00357046
-0.00535832
0.0036059
-0.0033158
0.00372171
-0.000732673
0.00388807
0.00183082
0.00406442
0.0041513
0.00421438
0.00581632
0.00432122
0.00701895
0.00438644
0.00759495
0.0043968
0.00783837
0.00434284
0.00808068
0.00420422
0.00838909
0.00402124
0.00901191
0.00382051
0.00836758
0.00361831
0.00816567
0.00305982
-0.00113883
-0.00185408
-0.00115981
-0.00204653
-0.00117777
-0.00223738
-0.0011911
-0.00242008
-0.00119765
-0.0025892
-0.00119468
-0.00273864
-0.00117873
-0.00286185
-0.00114567
-0.00295155
-0.00109107
-0.00299963
-0.00101063
-0.00299738
-0.000900982
-0.00293568
-0.000760255
-0.00280621
-0.000588552
-0.00260241
-0.000387584
-0.00232004
-0.000162456
-0.00195898
8.61478e-05
-0.00152214
0.000355295
-0.00101459
0.00063385
-0.000441404
0.00092052
0.00018034
0.00121171
0.000834482
0.00150326
0.00150444
0.00179049
0.00216732
0.00206681
0.00280003
0.00232442
0.00337951
0.00255511
0.00388706
0.00275139
0.00431188
0.00290715
0.00465338
0.00301765
0.00492216
0.00307918
0.00513981
0.00309058
0.0053352
0.00305758
0.00553205
0.00299755
0.00572725
0.00293951
0.00587131
0.00291654
0.00586964
0.00295321
0.00561346
0.00305661
0.00502537
0.00321681
0.00408846
0.00341486
0.00284179
0.00363201
0.0013561
0.00385377
-0.000278053
0.00406934
-0.00194125
0.00426528
-0.00348591
0.00442708
-0.00476692
0.00454374
-0.00569887
0.00461219
-0.00627961
0.00463614
-0.00657219
0.00462164
-0.00667109
0.00457652
-0.00666757
0.00450966
-0.00661456
0.0044215
-0.00653845
0.00429804
-0.00650283
0.00412572
-0.00659587
0.00391649
-0.00680691
0.00371216
-0.00689233
0.00356317
-0.0064926
0.00350252
-0.00529767
0.00353847
-0.00335175
0.00365862
-0.000852822
0.00383197
0.00165747
0.00401647
0.00396679
0.0041764
0.00565639
0.0042951
0.00690025
0.00437202
0.00751803
0.00439211
0.00781828
0.00434601
0.00812678
0.00421523
0.00851987
0.00403754
0.0091896
0.00384112
0.00856401
0.00363543
0.00837136
0.00319542
-0.00083334
-0.00181699
-0.000872021
-0.00200785
-0.000911904
-0.0021975
-0.000952014
-0.00237997
-0.000990707
-0.00255051
-0.00102561
-0.00270374
-0.00105315
-0.00283432
-0.00106865
-0.00293605
-0.00106661
-0.00300168
-0.00104076
-0.00302322
-0.00098534
-0.0029911
-0.000895788
-0.00289576
-0.000769334
-0.00272887
-0.000605527
-0.00248384
-0.000406799
-0.00215771
-0.000177874
-0.00175107
7.78855e-05
-0.00127035
0.000359597
-0.000723115
0.000653499
-0.000113563
0.000956918
0.000531064
0.001264
0.00119736
0.00156942
0.00186191
0.00186598
0.00250346
0.00214552
0.00309997
0.00239935
0.00363323
0.00261926
0.00409197
0.00279819
0.00447445
0.00293052
0.00478982
0.00301272
0.00505761
0.00304566
0.00530226
0.00303889
0.00553882
0.0030132
0.00575294
0.00299776
0.00588675
0.00302127
0.00584613
0.00310123
0.00553351
0.00323833
0.00488827
0.00341915
0.00390765
0.00362416
0.00263678
0.0038362
0.00114406
0.00404379
-0.000485647
0.00423845
-0.0021359
0.00440878
-0.00365624
0.00454213
-0.00490028
0.00462978
-0.00578652
0.00467099
-0.00632081
0.00467141
-0.00657261
0.00463796
-0.00663764
0.00457751
-0.00660713
0.00449812
-0.00653517
0.00440123
-0.00644156
0.00427343
-0.00637503
0.00409825
-0.00642068
0.00388332
-0.00659198
0.00366938
-0.00667839
0.00351047
-0.00633369
0.00344372
-0.00523091
0.00347894
-0.00338698
0.00360227
-0.000976146
0.0037812
0.00147854
0.0039728
0.00377518
0.00414203
0.00548716
0.00427217
0.00677011
0.00436054
0.00742967
0.00439045
0.00778836
0.00435293
0.0081643
0.004231
0.00864181
0.0040593
0.00936129
0.00386775
0.00875556
0.00365887
0.00858024
0.0033388
-0.000405737
-0.00176903
-0.000457284
-0.0019563
-0.000513629
-0.00214115
-0.000574673
-0.00231893
-0.000639912
-0.00248527
-0.000707484
-0.00263617
-0.000774221
-0.00276758
-0.000835601
-0.00287467
-0.0008862
-0.00295108
-0.000918249
-0.00299118
-0.000923956
-0.00298539
-0.00089604
-0.00292368
-0.000828452
-0.00279645
-0.000717434
-0.00259486
-0.000562496
-0.00231265
-0.000365849
-0.00194771
-0.000134223
-0.00150197
0.000132253
-0.000989591
0.000422293
-0.000403603
0.000730779
0.000222578
0.00104756
0.000880571
0.00136607
0.0015434
0.00167842
0.00219111
0.00197592
0.00280247
0.0022494
0.00335975
0.00249001
0.00385136
0.00269001
0.00427445
0.00284347
0.00463636
0.00294763
0.00495345
0.00300581
0.00524408
0.0030306
0.00551402
0.00304433
0.00573921
0.00307438
0.0058567
0.00314415
0.00577636
0.00326451
0.00541315
0.00343104
0.00472174
0.00362802
0.00371067
0.00383618
0.00242861
0.00404054
0.000939706
0.00423235
-0.000677463
0.00440526
-0.00230881
0.00454943
-0.00380041
0.004654
-0.00500485
0.00471266
-0.00584517
0.00472699
-0.00633515
0.00470455
-0.00655017
0.0046531
-0.00658619
0.00457859
-0.00653262
0.00448784
-0.00644441
0.00438314
-0.00633687
0.00425227
-0.00624416
0.00407642
-0.00624484
0.00385836
-0.00637393
0.00363649
-0.00645652
0.00346778
-0.00616497
0.00339398
-0.00515712
0.00342718
-0.00342019
0.00355211
-0.00110107
0.00373538
0.00129528
0.00393313
0.00357744
0.00411108
0.00530921
0.00425224
0.00662894
0.00435183
0.00733009
0.00439169
0.0077485
0.00436351
0.00819248
0.00425145
0.00875387
0.00408651
0.00952624
0.0039005
0.00894156
0.00368889
0.00879185
0.00348957
0.000121012
-0.00171945
5.90305e-05
-0.00189432
-9.11937e-06
-0.002073
-8.55441e-05
-0.0022425
-0.000170382
-0.00240043
-0.00026251
-0.00254404
-0.000359835
-0.00267026
-0.000458509
-0.00277599
-0.000555808
-0.00285378
-0.000642123
-0.00290486
-0.000708958
-0.00291856
-0.000746996
-0.00288564
-0.000747545
-0.00279591
-0.000702571
-0.00263983
-0.000607624
-0.0024076
-0.000462153
-0.00209318
-0.000268533
-0.00169559
-3.78088e-05
-0.00122032
0.00023794
-0.000679352
0.000539036
-7.85184e-05
0.000856898
0.000562708
0.00118154
0.00121876
0.00150415
0.0018685
0.00181507
0.00249156
0.00210443
0.00307039
0.00236285
0.00359294
0.00258222
0.00405508
0.00275678
0.0044618
0.00288498
0.00482525
0.00297246
0.0051566
0.0030337
0.00545278
0.00309076
0.00568215
0.00316762
0.00577984
0.00328195
0.00566203
0.00343888
0.00525622
0.00363027
0.00453035
0.00383915
0.00350179
0.00404723
0.00222053
0.00424175
0.000745186
0.00441695
-0.000852668
0.00456784
-0.0024597
0.00468572
-0.00391829
0.00476148
-0.00508061
0.00479139
-0.00587508
0.00477949
-0.00632324
0.00473509
-0.00650578
0.00466674
-0.00651784
0.00457948
-0.00644536
0.00447863
-0.00634356
0.00436703
-0.00622527
0.00423418
-0.00611131
0.00405968
-0.00607034
0.00384112
-0.00615537
0.00361323
-0.00622862
0.00343499
-0.00598673
0.00335311
-0.00507524
0.00338275
-0.00344983
0.00350786
-0.00122619
0.00369413
0.001109
0.00389712
0.00337444
0.00408328
0.00512305
0.00423507
0.00647715
0.00434568
0.00721948
0.00439567
0.00769851
0.00437758
0.00821057
0.00427646
0.008855
0.0041191
0.0096836
0.00393941
0.00912125
0.0037257
0.00900556
0.00364716
0.000712106
-0.00165808
0.000647059
-0.00182928
0.000571657
-0.0019976
0.00048552
-0.00215637
0.000387916
-0.00230283
0.000278638
-0.00243476
0.000158051
-0.00254967
2.78499e-05
-0.00264579
-0.000101189
-0.00272474
-0.000229733
-0.00277632
-0.000348624
-0.00279967
-0.000447753
-0.00278651
-0.000518093
-0.00272557
-0.00054598
-0.00261195
-0.000522864
-0.00243071
-0.000444071
-0.00217198
-0.000308332
-0.00183133
-0.000120502
-0.00140815
0.000114863
-0.000914716
0.000391327
-0.000354982
0.000698791
0.000255244
0.00102011
0.000897434
0.00134554
0.00154307
0.00166417
0.00217294
0.0019652
0.00276936
0.00223865
0.00331948
0.00247619
0.00381754
0.00267243
0.00426556
0.00282725
0.00467043
0.00294785
0.005036
0.00304924
0.00535139
0.00315172
0.00557967
0.00327496
0.0056566
0.00343102
0.00550596
0.00362025
0.00506699
0.00383191
0.00431869
0.0040487
0.003285
0.00425384
0.00201539
0.00443729
0.000561736
0.0045955
-0.00101088
0.00472447
-0.00258868
0.00481621
-0.00401003
0.00486334
-0.00512774
0.00486494
-0.00587669
0.00482772
-0.00628602
0.00476253
-0.00644058
0.00467848
-0.00643379
0.00457985
-0.00634673
0.00447024
-0.00623396
0.00435267
-0.0061077
0.00421872
-0.00597736
0.00404734
-0.00589896
0.00383088
-0.00593891
0.00359914
-0.00599688
0.00341188
-0.00579947
0.00332088
-0.00498425
0.00334527
-0.00347421
0.00346902
-0.00134994
0.00365703
0.000920996
0.00386446
0.00316701
0.00405835
0.00492916
0.00422037
0.00631514
0.00434183
0.00709802
0.00440215
0.00763819
0.00439492
0.0082178
0.00430581
0.0089441
0.00415694
0.00983247
0.00398445
0.00929374
0.00376946
0.00922054
0.00381091
0.00134898
-0.0015928
0.00127835
-0.00175865
0.00119744
-0.00191669
0.00110526
-0.00206419
0.00100119
-0.00219876
0.00088449
-0.00231806
0.000754986
-0.00242017
0.000613428
-0.00250423
0.000458779
-0.00257009
0.000297123
-0.00261466
0.000133367
-0.00263591
-2.1212e-05
-0.00263193
-0.000149467
-0.00259731
-0.000245978
-0.00251544
-0.000297546
-0.00237914
-0.000294634
-0.00217489
-0.000231992
-0.00189397
-0.000107745
-0.00153239
7.27098e-05
-0.00109517
0.000309022
-0.000591295
0.00058887
-2.46033e-05
0.000893062
0.000593242
0.00121074
0.00122539
0.00152932
0.00185436
0.00183667
0.00246201
0.00212191
0.00303425
0.00237631
0.00356313
0.00259492
0.00404695
0.00277861
0.00448675
0.0029351
0.00487951
0.00307859
0.0052079
0.00322649
0.00543178
0.00339377
0.00548932
0.00358746
0.00531227
0.0038042
0.00485025
0.00403165
0.00409124
0.00425291
0.00306374
0.00445316
0.00181514
0.00462492
0.000389974
0.0047663
-0.00115226
0.00487368
-0.00269605
0.00493947
-0.00407583
0.00495822
-0.00514649
0.00493225
-0.00585072
0.00487094
-0.00622471
0.00478634
-0.00635597
0.00468792
-0.00633537
0.00457931
-0.00623812
0.00446235
-0.006117
0.00433975
-0.00598509
0.0042054
-0.00584301
0.00403858
-0.00573213
0.00382674
-0.00572708
0.00359358
-0.00576372
0.0033981
-0.00560398
0.00329701
-0.00488316
0.00331439
-0.00349159
0.00343508
-0.00147063
0.00362363
0.000732448
0.00383475
0.00295589
0.00403595
0.00472796
0.00420782
0.00614327
0.00433998
0.00696586
0.00441085
0.00756733
0.00441522
0.00821343
0.00433923
0.00902009
0.00419984
0.00997186
0.00403555
0.00945803
0.00382028
0.00943582
0.00397998
0.00199975
0.00192311
-0.00168201
0.00183637
-0.00182995
0.00173878
-0.00196661
0.00162998
-0.00208995
0.00150929
-0.00219737
0.00137606
-0.00228694
0.00122964
-0.00235781
0.00106931
-0.00240976
0.00089684
-0.00244219
0.00071582
-0.00245489
0.000531879
-0.00244799
0.000352177
-0.00241761
0.000192041
-0.0023553
6.4533e-05
-0.00225164
-1.35824e-05
-0.00209677
-2.8543e-05
-0.00187901
2.07622e-05
-0.0015817
0.000140301
-0.00121471
0.000317575
-0.000768569
0.000546697
-0.000253725
0.000818992
0.000320947
0.00111552
0.000928863
0.00142363
0.00154625
0.00172986
0.00215578
0.00202208
0.00274202
0.00229091
0.00329431
0.00253155
0.00380631
0.00274489
0.00427341
0.00293807
0.00468632
0.00312334
0.00502264
0.00331448
0.00524064
0.00352181
0.00528199
0.00374803
0.00508605
0.00398704
0.00461124
0.00422575
0.00385253
0.00444822
0.00284127
0.00464193
0.00162142
0.00480193
0.000229982
0.00492717
-0.0012775
0.0050135
-0.00278238
0.00505371
-0.00411603
0.00504472
-0.0051375
0.0049923
-0.0057983
0.00490842
-0.00614083
0.00480601
-0.00625357
0.00469467
-0.00622403
0.00457747
-0.00612092
0.00445457
-0.0059941
0.00432793
-0.00585845
0.00419371
-0.00570879
0.00403255
-0.00557097
0.00382766
-0.00552219
0.00359569
-0.00553176
0.0033932
-0.0054015
0.00328123
-0.00477118
0.0032897
-0.00350006
0.00340567
-0.00158659
0.0035935
0.00054462
0.00380763
0.00274175
0.00401572
0.00451988
0.00419706
0.00596193
0.00433979
0.00682313
0.00442143
0.00748568
0.00443813
0.00819673
0.00437635
0.00908188
0.00424752
0.0101007
0.00409254
0.00961301
0.00387817
0.00965019
0.0041534
0.00255549
-0.00159884
0.0024621
-0.00173656
0.00235847
-0.00186298
0.00224479
-0.00197628
0.00212085
-0.00207342
0.00198615
-0.00215224
0.00183997
-0.00221163
0.00168137
-0.00225116
0.00151007
-0.0022709
0.00132681
-0.00227163
0.0011335
-0.00225467
0.000935287
-0.0022194
0.000742249
-0.00216226
0.000567756
-0.00207714
0.000426444
-0.00195546
0.000332544
-0.00178511
0.000300888
-0.00155004
0.000334857
-0.00124868
0.000436618
-0.00087033
0.000601349
-0.000418457
0.000822385
9.99103e-05
0.00108181
0.000669437
0.00136631
0.00126175
0.00166127
0.00186082
0.00195314
0.00245016
0.00223182
0.00301562
0.00249181
0.00354632
0.00273307
0.00403215
0.00296105
0.00445834
0.00318516
0.00479853
0.00341521
0.00501059
0.00365716
0.00504004
0.0039101
0.0048331
0.00416602
0.00435533
0.00441163
0.00360692
0.00463238
0.00262052
0.00481829
0.00143551
0.0049666
8.16668e-05
0.00507627
-0.00138717
0.00514214
-0.00284825
0.00515737
-0.00413126
0.00512161
-0.00510173
0.00504416
-0.00572085
0.00493945
-0.00603613
0.00482106
-0.00613518
0.00469834
-0.00610131
0.00457392
-0.0059965
0.00444648
-0.00586666
0.00431682
-0.00572879
0.00418315
-0.00557512
0.00402838
-0.00541619
0.00383247
-0.00532628
0.00360444
-0.00530373
0.0033966
-0.00519366
0.00327327
-0.00464786
0.00327103
-0.00349782
0.00338037
-0.00169593
0.00356626
0.000358732
0.00378272
0.00252528
0.00399728
0.00430532
0.00418771
0.00577149
0.00434088
0.00666996
0.00443354
0.00739302
0.00446322
0.00816704
0.00441673
0.00912837
0.00429963
0.0102178
0.00415518
0.00975747
0.00394308
0.00986228
0.00433006
0.00315274
-0.00150774
0.00305161
-0.00163544
0.00294105
-0.00175242
0.00282185
-0.00185707
0.0026943
-0.00194588
0.00255842
-0.00201635
0.00241388
-0.00206709
0.00226
-0.00209728
0.0020959
-0.0021068
0.00192072
-0.00209645
0.00173395
-0.0020679
0.00153704
-0.00202249
0.00133495
-0.00196018
0.00113673
-0.00187892
0.000954624
-0.00177336
0.000803786
-0.00163428
0.000700946
-0.0014472
0.000656415
-0.00120415
0.000678437
-0.000892352
0.000768449
-0.000508469
0.000924664
-5.63041e-05
0.00113172
0.000462383
0.00137837
0.0010151
0.00164968
0.00158951
0.00193144
0.0021684
0.00221255
0.00273451
0.00248614
0.00327273
0.00275037
0.00376792
0.00300819
0.00420052
0.00326557
0.00454115
0.00352823
0.00474792
0.00379816
0.00477011
0.00407154
0.00455973
0.00433896
0.0040879
0.00458738
0.00335851
0.00480389
0.00240401
0.00498095
0.00125845
0.00511802
-5.54044e-05
0.00521251
-0.00148166
0.00525833
-0.00289407
0.00524919
-0.00412212
0.00518778
-0.00504032
0.00508698
-0.00562006
0.00496344
-0.00591259
0.00483103
-0.00600277
0.00469855
-0.00596883
0.00456825
-0.00586619
0.00443761
-0.00573602
0.00430603
-0.00559721
0.00417327
-0.00544236
0.00402524
-0.00526817
0.00383996
-0.005141
0.00361863
-0.0050824
0.00340756
-0.00498259
0.00327289
-0.00451319
0.00325819
-0.00348312
0.00335902
-0.00179676
0.0035416
0.000176147
0.00375969
0.0023072
0.00398026
0.00408474
0.00417939
0.00557236
0.00434287
0.00650649
0.00444674
0.00728915
0.00449001
0.00812377
0.00445985
0.00915854
0.00435574
0.0103219
0.00422313
0.00989008
0.00401487
0.0100705
0.00450869
0.00369367
0.00358422
-0.00152599
0.00346636
-0.00163455
0.00334134
-0.00173206
0.00320991
-0.00181445
0.0030726
-0.00187904
0.00292969
-0.00192418
0.00278102
-0.00194861
0.00262596
-0.00195173
0.00246333
-0.00193382
0.00229157
-0.00189615
0.00210964
-0.00184057
0.00191834
-0.00176887
0.00172141
-0.00168198
0.00152647
-0.00157842
0.00134544
-0.00145325
0.00119423
-0.00129599
0.00108701
-0.00109693
0.00103717
-0.000842503
0.00105285
-0.000524159
0.00113518
-0.000138626
0.00128004
0.000317523
0.00147643
0.000818709
0.00171164
0.0013543
0.00197194
0.00190809
0.0022455
0.00246095
0.00252391
0.00299432
0.00280306
0.00348877
0.00308288
0.0039207
0.0033656
0.00425842
0.00365298
0.00446055
0.00394339
0.0044797
0.00423058
0.00427254
0.00450419
0.0038143
0.0047516
0.00311109
0.00496176
0.00219385
0.00512953
0.00109068
0.00525524
-0.000181111
0.00533502
-0.00156143
0.00536096
-0.00292002
0.00532797
-0.00408913
0.00524223
-0.00495458
0.00512004
-0.00549787
0.00497986
-0.0057724
0.00483551
-0.00585842
0.00469498
-0.0058283
0.00456008
-0.00573129
0.0044275
-0.00560345
0.00429511
-0.00546482
0.00416361
-0.00531086
0.00402238
-0.00512694
0.00384892
-0.00496754
0.00363696
-0.00487044
0.00342519
-0.00477082
0.00327977
-0.00436777
0.00325118
-0.00345452
0.00334152
-0.0018871
0.00351933
-1.66858e-06
0.00373823
0.00208831
0.00396433
0.00385865
0.00417173
0.00536496
0.00434535
0.00633287
0.00446061
0.00717389
0.00451798
0.0080664
0.00450513
0.00917139
0.00441531
0.0104117
0.00429596
0.0100094
0.00409327
0.0102732
0.00468788
0.00404209
0.00391764
-0.0015101
0.0037875
-0.00160191
0.0036527
-0.00167966
0.00351422
-0.00174056
0.00337286
-0.00178281
0.00322905
-0.0018048
0.00308272
-0.0018054
0.00293313
-0.00178423
0.00277881
-0.00174182
0.00261786
-0.00167962
0.00244873
-0.00159975
0.00227119
-0.00150444
0.00208774
-0.00139497
0.00190491
-0.00127042
0.00173435
-0.00112543
0.00158982
-0.000952396
0.00148676
-0.000739444
0.00143809
-0.000475493
0.0014518
-0.00015234
0.00153006
0.000239264
0.00166799
0.000680781
0.00185672
0.00116557
0.00208434
0.00168047
0.00233915
0.00220615
0.00261158
0.00272189
0.0028953
0.00320506
0.0031871
0.0036289
0.00348554
0.00395998
0.00378858
0.00415751
0.00409143
0.00417686
0.00438574
0.00397823
0.00466038
0.00353966
0.00490331
0.00286816
0.00510536
0.0019918
0.0052635
0.000932533
0.00537803
-0.000295634
0.00544301
-0.00162642
0.00544896
-0.00292597
0.00539265
-0.00403281
0.0052841
-0.00484603
0.00514274
-0.00535651
0.00498828
-0.00561795
0.00483417
-0.00570432
0.00468731
-0.00568143
0.00454905
-0.00559303
0.0044157
-0.0054701
0.00428361
-0.00533272
0.00415376
-0.00518102
0.00401914
-0.00499232
0.00385821
-0.00480661
0.00365803
-0.00467026
0.00344844
-0.00456122
0.00329353
-0.00421287
0.00325005
-0.00341104
0.00332803
-0.00196509
0.00349927
-0.000172907
0.00371812
0.00186947
0.00394914
0.00362762
0.00416435
0.00514975
0.0043479
0.00614931
0.00447468
0.00704711
0.00454656
0.00799452
0.00455193
0.00916603
0.00447775
0.0104859
0.00437314
0.010114
0.00417791
0.0104685
0.00486609
0.00428289
-0.00138102
0.00414941
-0.00146843
0.00401275
-0.001543
0.0038742
-0.00160201
0.00373496
-0.00164358
0.00359595
-0.0016658
0.00345767
-0.00166712
0.00332
-0.00164657
0.00318209
-0.0016039
0.00304232
-0.00153985
0.00289863
-0.00145606
0.00274893
-0.00135474
0.00259214
-0.00123818
0.00242967
-0.00110795
0.0022673
-0.000963062
0.00211469
-0.000799787
0.00198535
-0.000610101
0.00189368
-0.000383827
0.00185273
-0.00011139
0.00186993
0.00022207
0.00194826
0.000602451
0.00208455
0.00102927
0.00227051
0.00149452
0.00249599
0.00198066
0.00275122
0.00246666
0.00302817
0.00292811
0.00332088
0.00333619
0.00362454
0.00365633
0.00393371
0.00384833
0.00424079
0.00386978
0.00453564
0.00368338
0.00480647
0.00326882
0.0050419
0.00263274
0.00523455
0.00179914
0.0053828
0.000784281
0.00548609
-0.000398925
0.00553572
-0.00167605
0.00552127
-0.00291151
0.00544222
-0.00395376
0.00531266
-0.00471647
0.00515463
-0.00519848
0.00498842
-0.00545174
0.00482675
-0.00554264
0.00467528
-0.00552997
0.00453487
-0.00545262
0.00440177
-0.005337
0.00427106
-0.00520201
0.00414336
-0.00505331
0.00401499
-0.00486395
0.00386679
-0.0046584
0.00368044
-0.00448392
0.00347609
-0.00435687
0.00331362
-0.0040504
0.00325484
-0.00335226
0.0033187
-0.00202895
0.00348153
-0.000335738
0.00369921
0.00165178
0.00393443
0.00339241
0.0041569
0.00492728
0.00435013
0.00595609
0.00448848
0.00690875
0.00457517
0.00790783
0.00459955
0.00914165
0.00454238
0.010543
0.00445402
0.0102024
0.00426832
0.0106542
0.00504165
0.00455639
0.00442223
-0.00133428
0.00428598
-0.00140674
0.00414915
-0.00146518
0.00401326
-0.00150768
0.00387954
-0.00153208
0.00374893
-0.00153651
0.0036219
-0.00151954
0.00349825
-0.00148025
0.00337708
-0.00141868
0.0032569
-0.00133588
0.00313551
-0.00123335
0.00301044
-0.00111311
0.00287995
-0.000977457
0.00274477
-0.000827886
0.00260918
-0.000664189
0.00248184
-0.000482767
0.00237453
-0.000276514
0.00230202
-3.88855e-05
0.00227334
0.000250757
0.00229961
0.000576179
0.00238412
0.000944758
0.00252384
0.0013548
0.002712
0.0017925
0.00294007
0.0022386
0.0031994
0.00266878
0.00348207
0.00305352
0.00378052
0.00335788
0.00408645
0.0035424
0.00438985
0.00356638
0.00467904
0.00339418
0.00494173
0.00300614
0.00516713
0.00240733
0.00534947
0.00161681
0.00548765
0.000646099
0.00557915
-0.000490424
0.00561232
-0.00170922
0.00557682
-0.00287602
0.00547581
-0.00385275
0.00532739
-0.00456806
0.00515546
-0.00502655
0.00498014
-0.00527642
0.00481308
-0.00537558
0.00465871
-0.0053756
0.00451729
-0.0053112
0.00438534
-0.00520505
0.00425702
-0.00507369
0.00413203
-0.00492832
0.00400949
-0.00474141
0.00387378
-0.00452269
0.00370283
-0.00431297
0.00350681
-0.00416084
0.00333931
-0.0038829
0.00326554
-0.00327849
0.00331376
-0.00207717
0.00346628
-0.000488262
0.00368146
0.00143661
0.00391996
0.00315391
0.00414908
0.00469816
0.00435163
0.00575354
0.00450154
0.00675883
0.00460321
0.00780617
0.00464727
0.00909758
0.00460845
0.0105819
0.00453787
0.010273
0.00436387
0.0108282
0.00521277
0.00460755
-0.00120246
0.00447431
-0.0012735
0.00434137
-0.00133224
0.00421039
-0.0013767
0.00408282
-0.00140451
0.00395992
-0.00141361
0.00384259
-0.00140221
0.00373125
-0.00136891
0.0036259
-0.00131333
0.00352581
-0.00123579
0.00342925
-0.00113679
0.00333372
-0.00101758
0.00323653
-0.000880265
0.00313583
-0.000727187
0.00303193
-0.000560292
0.00292858
-0.000379416
0.0028327
-0.000180636
0.00275119
4.2623e-05
0.00270124
0.000300712
0.00269238
0.000585043
0.00273407
0.000903065
0.00282954
0.00125933
0.00297702
0.00164502
0.00317098
0.00204464
0.00340375
0.00243601
0.00366668
0.00279059
0.0039504
0.00307416
0.00424445
0.00324835
0.00453694
0.00327389
0.00481497
0.00311616
0.00506579
0.00275532
0.00527926
0.00219387
0.00545069
0.00144538
0.00557829
0.000518503
0.00565673
-0.00056887
0.00567175
-0.00172423
0.00561454
-0.00281882
0.00549271
-0.00373092
0.00532799
-0.00440334
0.00514517
-0.00484373
0.00496342
-0.00509467
0.00479309
-0.00520525
0.00463743
-0.00521994
0.00449611
-0.00516988
0.00436607
-0.00507501
0.00424105
-0.00494867
0.00411944
-0.00480671
0.00400233
-0.00462429
0.00387846
-0.00439883
0.00372395
-0.00415845
0.0035392
-0.0039761
0.00336967
-0.00371337
0.00328195
-0.00319077
0.00331342
-0.00210864
0.00345391
-0.000628754
0.00366492
0.0012256
0.00390558
0.00291325
0.00414061
0.00446312
0.00435201
0.00554214
0.00451339
0.00659745
0.00463007
0.00768949
0.00469434
0.00903331
0.00467515
0.010601
0.00462387
0.0103243
0.00446386
0.0109882
0.00537758
0.00471259
0.00458486
-0.00114577
0.00445787
-0.00120526
0.00433335
-0.00125218
0.00421289
-0.00128404
0.00409797
-0.00129869
0.00398986
-0.0012941
0.00388962
-0.00126866
0.00379792
-0.00122163
0.0037146
-0.00115248
0.00363867
-0.00106086
0.00356831
-0.000947227
0.00350096
-0.000812919
0.00343379
-0.000660015
0.00336468
-0.000491184
0.00329368
-0.000308409
0.00322517
-0.000112128
0.00316022
0.000107568
0.00311149
0.000349446
0.00308927
0.000607258
0.00310443
0.000887904
0.00316514
0.00119863
0.00327499
0.00153517
0.00343279
0.00188683
0.00363352
0.00223528
0.0038694
0.00255471
0.00413058
0.00281298
0.00440542
0.0029735
0.00468082
0.00299849
0.004943
0.00285398
0.00517896
0.00251936
0.00537916
0.00199366
0.00553925
0.00128529
0.00565503
0.000402722
0.00571803
-0.000631877
0.00571256
-0.00171876
0.0056331
-0.00273936
0.00549214
-0.00358996
0.00531414
-0.00422533
0.00512364
-0.00465323
0.00493813
-0.00490916
0.00476654
-0.00503366
0.0046111
-0.0050645
0.00447093
-0.00502971
0.00434347
-0.00494755
0.00422254
-0.00482774
0.00410507
-0.00468924
0.00399312
-0.00451234
0.00388018
-0.00428588
0.00374257
-0.00402084
0.00357179
-0.00380532
0.00340353
-0.0035451
0.00330362
-0.00309086
0.00331795
-0.00212297
0.00344471
-0.000755506
0.00364978
0.00102053
0.00389122
0.0026718
0.00413126
0.00422308
0.00435093
0.00532248
0.00452357
0.00642481
0.00465515
0.00755791
0.00473999
0.00894847
0.00474164
0.0105994
0.00471111
0.0103548
0.00456744
0.0111318
0.00553416
0.00462805
0.00450869
-0.0010859
0.00439195
-0.00113543
0.00427948
-0.00117158
0.0041729
-0.00119211
0.0040737
-0.0011949
0.0039833
-0.00117826
0.00390292
-0.00114125
0.00383302
-0.00108258
0.00377338
-0.00100121
0.00372301
-0.000896855
0.00368013
-0.000770047
0.00364223
-0.00062211
0.00360656
-0.000455514
0.00357095
-0.0002728
0.0035337
-7.48785e-05
0.0034972
0.000144065
0.00346837
0.000378279
0.00345312
0.000622508
0.00346104
0.000879987
0.00350277
0.0011569
0.00358502
0.00145292
0.00371071
0.00176114
0.00387868
0.00206731
0.00408371
0.00234968
0.00431702
0.00257966
0.00456715
0.00272337
0.00482069
0.00274495
0.00506351
0.00261116
0.00528255
0.00230032
0.00546826
0.00180796
0.0056158
0.00113775
0.00571823
0.000300297
0.00576223
-0.000675876
0.00573334
-0.00168986
0.00563146
-0.00263748
0.00547371
-0.0034322
0.00528582
-0.00403745
0.00509086
-0.00445827
0.00490414
-0.00472244
0.00473311
-0.00486263
0.00457931
-0.0049107
0.00444132
-0.00489172
0.00431709
-0.00482332
0.00420092
-0.00471158
0.00408842
-0.00457674
0.00398155
-0.00440547
0.00387841
-0.00418275
0.0037576
-0.00390004
0.00360312
-0.00365084
0.00343961
-0.00338159
0.00332983
-0.00298109
0.00332727
-0.00212041
0.0034391
-0.00086734
0.00363638
0.000823257
0.00387698
0.0024312
0.00412092
0.00397914
0.00434806
0.00509534
0.00453164
0.00624123
0.00467788
0.00741167
0.00478346
0.00884289
0.004807
0.0105759
0.0047986
0.0103632
0.00467371
0.0112567
0.00568051
0.00450399
-0.000974622
0.00439515
-0.00102658
0.00429041
-0.00106684
0.00419149
-0.00109319
0.00410018
-0.00110359
0.00401842
-0.00109651
0.00394755
-0.00107038
0.00388836
-0.00102339
0.00384123
-0.000954082
0.00380593
-0.000861553
0.00378156
-0.000745683
0.00376639
-0.000606937
0.00375771
-0.000446837
0.00375302
-0.00026811
0.00375381
-7.56675e-05
0.00375341
0.000144466
0.00375411
0.000377583
0.00375953
0.000617083
0.00377631
0.000863212
0.00381523
0.00111797
0.0038838
0.00138435
0.00398768
0.00165726
0.00412873
0.00192626
0.00430437
0.00217405
0.00450838
0.00237565
0.00473099
0.00250076
0.00495972
0.00251623
0.0051808
0.00239008
0.00538143
0.00209968
0.00555219
0.0016372
0.00568548
0.00100445
0.00576565
0.000220128
0.00578839
-0.00069861
0.00573412
-0.00163559
0.00561085
-0.00251422
0.00543953
-0.00326088
0.00524552
-0.00384343
0.00504929
-0.00426205
0.00486369
-0.00453684
0.00469482
-0.00469375
0.00454377
-0.00475965
0.00440879
-0.00475673
0.00428814
-0.00470267
0.00417704
-0.00460047
0.00407012
-0.00446982
0.00396832
-0.00430368
0.00387365
-0.00408807
0.0037688
-0.00379519
0.0036323
-0.00351434
0.00347696
-0.00322625
0.00336003
-0.00286416
0.00334109
-0.00210147
0.0034373
-0.000963547
0.00362519