/*--------------------------------*- C++ -*----------------------------------*\
  =========                 |
  \\      /  F ield         | OpenFOAM: The Open Source CFD Toolbox
   \\    /   O peration     | Website:  https://openfoam.org
    \\  /    A nd           | Version:  7
     \\/     M anipulation  |
\*---------------------------------------------------------------------------*/
FoamFile
{
    version     2.0;
    format      ascii;
    class       volScalarField;
    location    "44.000726";
    object      p;
}
// * * * * * * * * * * * * * * * * * * * * * * * * * * * * * * * * * * * * * //

dimensions      [0 2 -2 0 0 0 0];

internalField   nonuniform List<scalar> 
5800
(
-0.230913
-0.230901
-0.230858
-0.230738
-0.230467
-0.230323
-0.229816
-0.229247
-0.228628
-0.227952
-0.227218
-0.226424
-0.225568
-0.224649
-0.223664
-0.222612
-0.22149
-0.220296
-0.219028
-0.217683
-0.216257
-0.214747
-0.21315
-0.211461
-0.209677
-0.207792
-0.205803
-0.203706
-0.201502
-0.199181
-0.196735
-0.194161
-0.19145
-0.188596
-0.185592
-0.18243
-0.179104
-0.175604
-0.171925
-0.168057
-0.163996
-0.159733
-0.155263
-0.150582
-0.145687
-0.140576
-0.135252
-0.129716
-0.123978
-0.118046
-0.111935
-0.105663
-0.0992521
-0.0927301
-0.0861282
-0.0794799
-0.0728267
-0.0662078
-0.0596699
-0.0532564
-0.0470156
-0.0409918
-0.0352291
-0.0297735
-0.0246501
-0.019927
-0.0155618
-0.0117311
-0.00816589
-0.00543352
-0.00256576
-0.00131434
0.0012412
0.00014304
0.00332195
-0.230439
-0.229926
-0.229348
-0.228726
-0.228048
-0.227311
-0.226515
-0.225657
-0.224736
-0.22375
-0.222697
-0.221575
-0.22038
-0.219112
-0.217767
-0.216341
-0.214831
-0.213235
-0.211547
-0.209763
-0.20788
-0.205893
-0.203802
-0.201598
-0.199277
-0.196833
-0.19426
-0.191552
-0.1887
-0.185698
-0.182539
-0.179215
-0.175718
-0.17204
-0.168175
-0.164114
-0.159853
-0.155384
-0.150704
-0.145809
-0.140699
-0.135373
-0.129836
-0.124095
-0.118161
-0.112046
-0.105771
-0.099356
-0.0928297
-0.0862231
-0.0795702
-0.0729123
-0.0662888
-0.0597465
-0.0533287
-0.0470844
-0.0410574
-0.035292
-0.029834
-0.0247087
-0.0199839
-0.0156174
-0.0117853
-0.00821931
-0.00548469
-0.00261712
-0.00135963
0.0011918
0.000115906
0.00327109
-0.230665
-0.230139
-0.229542
-0.228915
-0.228233
-0.227492
-0.226692
-0.225831
-0.224907
-0.223919
-0.222864
-0.22174
-0.220545
-0.219277
-0.217931
-0.216506
-0.214997
-0.213401
-0.211714
-0.209931
-0.208046
-0.206057
-0.203973
-0.201775
-0.199459
-0.197019
-0.19445
-0.191745
-0.188897
-0.185899
-0.182744
-0.179424
-0.17593
-0.172256
-0.168395
-0.164338
-0.160079
-0.155613
-0.150934
-0.14604
-0.14093
-0.135603
-0.130065
-0.124321
-0.118383
-0.112265
-0.105984
-0.0995633
-0.0930301
-0.0864164
-0.0797559
-0.0730904
-0.0664582
-0.0599081
-0.0534829
-0.0472313
-0.0411973
-0.0354256
-0.0299617
-0.024831
-0.0201014
-0.0157304
-0.0118939
-0.0083243
-0.00558393
-0.00271522
-0.00144498
0.00109883
6.70932e-05
0.0031735
-0.230993
-0.230443
-0.229814
-0.229179
-0.228491
-0.227745
-0.22694
-0.226075
-0.225148
-0.224157
-0.2231
-0.221975
-0.22078
-0.219511
-0.218166
-0.216742
-0.215235
-0.213641
-0.211957
-0.210177
-0.208299
-0.206324
-0.204234
-0.202036
-0.199722
-0.197286
-0.194721
-0.192021
-0.189178
-0.186186
-0.183036
-0.179721
-0.176233
-0.172564
-0.168707
-0.164655
-0.1604
-0.155937
-0.151261
-0.146369
-0.141259
-0.135932
-0.130391
-0.124645
-0.118703
-0.11258
-0.106292
-0.0998642
-0.093323
-0.0867014
-0.0800267
-0.0733523
-0.0667102
-0.0601495
-0.0537135
-0.0474518
-0.0414078
-0.0356268
-0.030154
-0.0250151
-0.0202777
-0.0158993
-0.0120557
-0.00847978
-0.00573053
-0.00285872
-0.00156954
0.000964349
-1.82076e-06
0.00303236
-0.231435
-0.230818
-0.230143
-0.229497
-0.228801
-0.228048
-0.227238
-0.226369
-0.225439
-0.224446
-0.223388
-0.222262
-0.221067
-0.219799
-0.218456
-0.217034
-0.215529
-0.213937
-0.212254
-0.210472
-0.208588
-0.206623
-0.204546
-0.202356
-0.200049
-0.197619
-0.19506
-0.192367
-0.18953
-0.186545
-0.183402
-0.180093
-0.176612
-0.172949
-0.169098
-0.165051
-0.160801
-0.156342
-0.151669
-0.146779
-0.14167
-0.136343
-0.130802
-0.125053
-0.119107
-0.112978
-0.106683
-0.100243
-0.0936936
-0.0870603
-0.0803782
-0.0736905
-0.0670357
-0.0604624
-0.0540138
-0.0477399
-0.0416838
-0.0358914
-0.0304075
-0.0252581
-0.0205108
-0.0161225
-0.0122694
-0.0086843
-0.00592346
-0.00304591
-0.00173197
0.000790919
-8.87998e-05
0.00285233
-0.232061
-0.231236
-0.230501
-0.229844
-0.229137
-0.228375
-0.22756
-0.226688
-0.225756
-0.224762
-0.223704
-0.22258
-0.221386
-0.220121
-0.218781
-0.217362
-0.215862
-0.214276
-0.212599
-0.210827
-0.208969
-0.206992
-0.204914
-0.202728
-0.200426
-0.198003
-0.195451
-0.192765
-0.189936
-0.186958
-0.183823
-0.180522
-0.177049
-0.173393
-0.16955
-0.165509
-0.161264
-0.15681
-0.152142
-0.147255
-0.142148
-0.136821
-0.131273
-0.125524
-0.119573
-0.113438
-0.107137
-0.100692
-0.0941311
-0.0874864
-0.0807924
-0.074092
-0.0674242
-0.0608379
-0.0543758
-0.0480888
-0.0420195
-0.0362146
-0.0307182
-0.0255568
-0.0207978
-0.0163975
-0.0125333
-0.00893614
-0.00616132
-0.00327491
-0.0019304
0.000581315
-0.000191617
0.00263936
-0.233038
-0.231641
-0.230851
-0.23019
-0.229469
-0.228697
-0.227876
-0.227003
-0.226071
-0.225079
-0.224024
-0.222903
-0.221713
-0.220453
-0.219118
-0.217705
-0.21621
-0.214628
-0.212951
-0.211178
-0.209327
-0.207367
-0.205302
-0.203126
-0.200833
-0.198418
-0.195875
-0.193198
-0.190378
-0.187409
-0.184283
-0.180992
-0.17753
-0.17387
-0.170038
-0.166005
-0.161767
-0.157319
-0.152655
-0.147771
-0.142666
-0.13734
-0.131796
-0.126043
-0.120089
-0.113949
-0.10764
-0.101187
-0.0946174
-0.0879627
-0.0812575
-0.0745453
-0.067865
-0.0612661
-0.0547909
-0.0484911
-0.0424086
-0.0365911
-0.0310818
-0.0259075
-0.0211362
-0.0167222
-0.0128454
-0.00923345
-0.00644235
-0.00354377
-0.00216249
0.000338354
-0.000308137
0.00240035
-0.233589
-0.232199
-0.231217
-0.230495
-0.229764
-0.228983
-0.228157
-0.227284
-0.226355
-0.225368
-0.224319
-0.223205
-0.222023
-0.22077
-0.219443
-0.218039
-0.216554
-0.214985
-0.213322
-0.21158
-0.209717
-0.207759
-0.2057
-0.203531
-0.201247
-0.198842
-0.196309
-0.193641
-0.190831
-0.187871
-0.184754
-0.181471
-0.178016
-0.174377
-0.17055
-0.166523
-0.162292
-0.15785
-0.153191
-0.148312
-0.143209
-0.137885
-0.132342
-0.126588
-0.120631
-0.114487
-0.108174
-0.101715
-0.0951376
-0.0884746
-0.0817602
-0.0750381
-0.0683471
-0.0617375
-0.0552506
-0.0489396
-0.042845
-0.0370156
-0.0314939
-0.0263067
-0.0215228
-0.0170938
-0.0132037
-0.00957423
-0.00676442
-0.00385047
-0.0024255
6.48783e-05
-0.000436534
0.00214273
-0.233785
-0.232803
-0.231548
-0.230723
-0.229986
-0.229201
-0.22837
-0.227498
-0.226576
-0.225597
-0.224558
-0.223454
-0.222283
-0.221042
-0.219727
-0.218334
-0.216858
-0.215293
-0.213626
-0.211896
-0.210058
-0.208119
-0.206074
-0.203918
-0.201646
-0.199252
-0.19673
-0.194074
-0.191275
-0.188326
-0.18522
-0.181948
-0.178502
-0.174872
-0.171053
-0.167036
-0.162813
-0.158378
-0.153726
-0.148852
-0.143754
-0.138433
-0.132892
-0.127139
-0.121182
-0.115037
-0.108721
-0.102259
-0.0956766
-0.0890083
-0.0822877
-0.0755588
-0.0688602
-0.0622427
-0.0557471
-0.0494272
-0.0433226
-0.037483
-0.0319504
-0.0267508
-0.0219547
-0.0175099
-0.0136056
-0.00995633
-0.00712501
-0.00419292
-0.00271644
-0.000236161
-0.000575406
0.00187391
-0.233314
-0.231795
-0.230844
-0.230101
-0.229317
-0.228482
-0.227611
-0.226699
-0.225733
-0.224708
-0.223619
-0.222464
-0.221239
-0.219939
-0.218563
-0.217106
-0.215566
-0.213934
-0.212196
-0.210364
-0.208436
-0.206403
-0.20426
-0.202002
-0.199621
-0.197113
-0.194469
-0.191682
-0.188746
-0.185652
-0.182391
-0.178956
-0.175338
-0.171529
-0.167522
-0.163308
-0.158882
-0.154237
-0.14937
-0.144278
-0.138963
-0.133426
-0.127677
-0.121723
-0.11558
-0.109265
-0.102803
-0.09622
-0.0895506
-0.082828
-0.0760966
-0.0693946
-0.0627733
-0.0562726
-0.0499473
-0.0438359
-0.0379885
-0.032447
-0.027236
-0.0224287
-0.0179674
-0.0140483
-0.0103773
-0.00752115
-0.00456875
-0.00303217
-0.000561587
-0.000723759
0.00160079
-0.233635
-0.231917
-0.230817
-0.230065
-0.22929
-0.228454
-0.227587
-0.226686
-0.225736
-0.22473
-0.223662
-0.222527
-0.221323
-0.220044
-0.218687
-0.217246
-0.215714
-0.214077
-0.212368
-0.210568
-0.208664
-0.206652
-0.204527
-0.202286
-0.199921
-0.197428
-0.194799
-0.192027
-0.189104
-0.186024
-0.182777
-0.179355
-0.175749
-0.171952
-0.167956
-0.163753
-0.159337
-0.154702
-0.149845
-0.144762
-0.139455
-0.133926
-0.128183
-0.122236
-0.116099
-0.10979
-0.103333
-0.0967547
-0.0900894
-0.0833702
-0.0766416
-0.0699413
-0.0633212
-0.0568201
-0.0504936
-0.0443792
-0.038527
-0.0329792
-0.0277584
-0.0229409
-0.0184632
-0.0145284
-0.0108344
-0.00794945
-0.00497525
-0.00336947
-0.000907913
-0.000880896
0.00132942
-0.233583
-0.231813
-0.230579
-0.22982
-0.229064
-0.228235
-0.227375
-0.22649
-0.225563
-0.224581
-0.223539
-0.222431
-0.221254
-0.220003
-0.218673
-0.217262
-0.215763
-0.214168
-0.21245
-0.210663
-0.208781
-0.20679
-0.204687
-0.202466
-0.200121
-0.197646
-0.195034
-0.192279
-0.189374
-0.186309
-0.183077
-0.17967
-0.176079
-0.172297
-0.168314
-0.164125
-0.159722
-0.1551
-0.150255
-0.145184
-0.139889
-0.134373
-0.128642
-0.122706
-0.11658
-0.110282
-0.103837
-0.0972688
-0.0906139
-0.0839042
-0.0771847
-0.0704922
-0.063879
-0.0573831
-0.0510601
-0.0449472
-0.0390936
-0.0335426
-0.0283138
-0.0234875
-0.0189935
-0.0150421
-0.0113243
-0.00840609
-0.00540921
-0.00372513
-0.00127133
-0.00104625
0.00106472
-0.23132
-0.230035
-0.229287
-0.228565
-0.227757
-0.226917
-0.226056
-0.225158
-0.224207
-0.223199
-0.222126
-0.220983
-0.219766
-0.21847
-0.217088
-0.215614
-0.214033
-0.212319
-0.210578
-0.208736
-0.206778
-0.204703
-0.202508
-0.200187
-0.197734
-0.195144
-0.19241
-0.189524
-0.186478
-0.183266
-0.179877
-0.176304
-0.172538
-0.168573
-0.164401
-0.160015
-0.155409
-0.150581
-0.145527
-0.140249
-0.13475
-0.129036
-0.123118
-0.11701
-0.11073
-0.104302
-0.0977517
-0.0911142
-0.0844213
-0.0777178
-0.0710399
-0.06444
-0.0579552
-0.051641
-0.0455344
-0.0396832
-0.0341323
-0.0288975
-0.0240638
-0.0195542
-0.0155849
-0.0118431
-0.0088869
-0.00586693
-0.004096
-0.0016478
-0.00121924
0.000810417
-0.229054
-0.228362
-0.227696
-0.226936
-0.226136
-0.225314
-0.224456
-0.223549
-0.222584
-0.221555
-0.220457
-0.219285
-0.218032
-0.216694
-0.215265
-0.213736
-0.212084
-0.210298
-0.208485
-0.206572
-0.204537
-0.202375
-0.200084
-0.197659
-0.195096
-0.192387
-0.189526
-0.186504
-0.183314
-0.179948
-0.176397
-0.172654
-0.16871
-0.164559
-0.160195
-0.155611
-0.150805
-0.145774
-0.140519
-0.135043
-0.129353
-0.123459
-0.117376
-0.111121
-0.104719
-0.0981946
-0.0915824
-0.084914
-0.0782341
-0.071578
-0.0649981
-0.0585307
-0.0522308
-0.0461353
-0.0402906
-0.034743
-0.0295046
-0.0246647
-0.0201405
-0.016152
-0.0123864
-0.00938744
-0.00634422
-0.00447891
-0.00203313
-0.00139911
0.000569154
-0.227496
-0.226924
-0.226348
-0.225672
-0.224945
-0.224186
-0.223387
-0.222538
-0.221631
-0.220661
-0.21962
-0.218504
-0.217306
-0.21602
-0.214641
-0.213158
-0.211556
-0.209815
-0.208003
-0.206134
-0.204151
-0.202035
-0.199782
-0.197392
-0.19486
-0.192183
-0.189352
-0.18636
-0.183198
-0.17986
-0.176337
-0.172622
-0.168705
-0.164582
-0.160245
-0.15569
-0.150912
-0.14591
-0.140685
-0.13524
-0.129582
-0.123721
-0.117671
-0.11145
-0.105082
-0.0985907
-0.0920122
-0.0853763
-0.0787278
-0.072101
-0.0655479
-0.0591043
-0.0528242
-0.0467448
-0.0409104
-0.0353694
-0.03013
-0.0252849
-0.0207474
-0.0167379
-0.0129493
-0.00990301
-0.00683645
-0.00487072
-0.00242315
-0.00158491
0.000342585
-0.224861
-0.224421
-0.223877
-0.223262
-0.222598
-0.221884
-0.221116
-0.220286
-0.21939
-0.218421
-0.217375
-0.216245
-0.215026
-0.213712
-0.212294
-0.210761
-0.209094
-0.207256
-0.205412
-0.20349
-0.201437
-0.199239
-0.196894
-0.194406
-0.191769
-0.188977
-0.186022
-0.182897
-0.179594
-0.176106
-0.172425
-0.168544
-0.164455
-0.160153
-0.155633
-0.150892
-0.145927
-0.14074
-0.135334
-0.129717
-0.123896
-0.117888
-0.111709
-0.105384
-0.0989353
-0.0923987
-0.0858035
-0.0791941
-0.0726038
-0.0660842
-0.0596705
-0.0534155
-0.0473569
-0.0415368
-0.0360052
-0.0307673
-0.025918
-0.0213689
-0.017337
-0.0135264
-0.0104287
-0.00733869
-0.00526827
-0.00281388
-0.0017754
0.000131584
-0.222109
-0.221853
-0.221486
-0.221021
-0.220484
-0.219886
-0.219225
-0.218495
-0.217694
-0.216817
-0.21586
-0.214816
-0.213681
-0.212447
-0.21111
-0.20966
-0.208086
-0.206371
-0.204439
-0.20258
-0.200603
-0.198465
-0.196169
-0.193726
-0.191135
-0.188388
-0.185477
-0.182395
-0.179136
-0.175691
-0.172052
-0.168213
-0.164167
-0.159909
-0.155433
-0.150736
-0.145817
-0.140677
-0.135319
-0.12975
-0.12398
-0.118023
-0.111895
-0.105621
-0.0992231
-0.0927368
-0.0861903
-0.0796275
-0.0730809
-0.0666013
-0.0602234
-0.053999
-0.0479657
-0.0421639
-0.0366447
-0.0314112
-0.0265586
-0.0219999
-0.0179443
-0.0141128
-0.0109606
-0.00784676
-0.00566901
-0.00320213
-0.00196945
-6.36859e-05
-0.218663
-0.218509
-0.218223
-0.217843
-0.217385
-0.21685
-0.216237
-0.215546
-0.214774
-0.213917
-0.212969
-0.211925
-0.21078
-0.209527
-0.208158
-0.206663
-0.205034
-0.203259
-0.201236
-0.199348
-0.19733
-0.195129
-0.192763
-0.19024
-0.187555
-0.184704
-0.181679
-0.178475
-0.175083
-0.171497
-0.167711
-0.163718
-0.159512
-0.155089
-0.150447
-0.145584
-0.1405
-0.1352
-0.129689
-0.123978
-0.118081
-0.112014
-0.1058
-0.0994621
-0.0930342
-0.0865442
-0.0800353
-0.0735393
-0.0671057
-0.0607691
-0.0545797
-0.0485755
-0.0427953
-0.0372904
-0.0320634
-0.0272075
-0.0226403
-0.018559
-0.0147072
-0.0114972
-0.00835843
-0.00607161
-0.00358606
-0.00216632
-0.000243754
-0.215014
-0.214958
-0.214786
-0.214512
-0.214139
-0.213674
-0.213119
-0.212474
-0.211737
-0.210905
-0.209973
-0.208937
-0.207791
-0.20653
-0.205145
-0.203628
-0.201965
-0.200144
-0.198107
-0.196101
-0.19396
-0.191656
-0.189193
-0.186566
-0.183774
-0.180809
-0.177664
-0.174332
-0.170807
-0.167081
-0.163149
-0.159006
-0.154646
-0.150067
-0.145268
-0.14025
-0.135016
-0.129573
-0.12393
-0.118101
-0.112102
-0.105955
-0.0996832
-0.0933194
-0.0868907
-0.0804396
-0.0739973
-0.0676124
-0.0613188
-0.0551659
-0.0491912
-0.0434329
-0.0379416
-0.032721
-0.02786
-0.0232842
-0.0191746
-0.0153025
-0.0120321
-0.00886733
-0.00647177
-0.00396166
-0.00236441
-0.000408985
-0.210404
-0.210523
-0.210542
-0.21046
-0.210274
-0.209987
-0.209602
-0.209119
-0.208536
-0.207852
-0.207063
-0.206166
-0.205154
-0.204023
-0.202764
-0.201369
-0.199822
-0.19809
-0.196165
-0.194213
-0.192191
-0.190021
-0.187677
-0.185154
-0.182456
-0.17958
-0.176519
-0.173268
-0.169821
-0.166172
-0.162315
-0.158246
-0.15396
-0.149455
-0.14473
-0.139786
-0.134626
-0.129258
-0.123689
-0.117935
-0.11201
-0.105937
-0.0997371
-0.0934437
-0.0870829
-0.0806967
-0.0743152
-0.0679868
-0.0617443
-0.0556367
-0.0497003
-0.0439737
-0.0385051
-0.033301
-0.0284439
-0.0238693
-0.0197401
-0.0158556
-0.0125335
-0.00934666
-0.00685335
-0.00431514
-0.00255832
-0.000557882
-0.207359
-0.207493
-0.207523
-0.207448
-0.207268
-0.206985
-0.206599
-0.20611
-0.205516
-0.204815
-0.204003
-0.203076
-0.20203
-0.200859
-0.19956
-0.198132
-0.196578
-0.194872
-0.192864
-0.190733
-0.188558
-0.186241
-0.183755
-0.181098
-0.178265
-0.175249
-0.172044
-0.168645
-0.165044
-0.161237
-0.157218
-0.152985
-0.148535
-0.143867
-0.138982
-0.133884
-0.128581
-0.123079
-0.117395
-0.111541
-0.105543
-0.0994186
-0.0932022
-0.0869181
-0.0806085
-0.0743017
-0.068046
-0.0618719
-0.0558287
-0.0499503
-0.0442759
-0.0388504
-0.0336829
-0.0288497
-0.0242942
-0.0201649
-0.016282
-0.0129292
-0.00972816
-0.00716393
-0.00459831
-0.00271961
-0.000673922
-0.20359
-0.203825
-0.203958
-0.203986
-0.203906
-0.20372
-0.203428
-0.203028
-0.20252
-0.201899
-0.201164
-0.200308
-0.199328
-0.198218
-0.19697
-0.195576
-0.194018
-0.192262
-0.190369
-0.188463
-0.186398
-0.184162
-0.181753
-0.179169
-0.176406
-0.173458
-0.17032
-0.166986
-0.163451
-0.15971
-0.15576
-0.151595
-0.147216
-0.14262
-0.137811
-0.132791
-0.127567
-0.122149
-0.11655
-0.110785
-0.104876
-0.0988435
-0.0927189
-0.0865266
-0.0803078
-0.0740894
-0.0679191
-0.061826
-0.0558587
-0.0500491
-0.044437
-0.0390639
-0.0339422
-0.0291409
-0.0246132
-0.020491
-0.0166186
-0.0132427
-0.010037
-0.0074125
-0.00482932
-0.00284674
-0.000767666
-0.199468
-0.199801
-0.200036
-0.200168
-0.20019
-0.200104
-0.199908
-0.199602
-0.199185
-0.198652
-0.198002
-0.197228
-0.196328
-0.195295
-0.194123
-0.192802
-0.191323
-0.189682
-0.187925
-0.186054
-0.184036
-0.181857
-0.179511
-0.176991
-0.174294
-0.171412
-0.168341
-0.165074
-0.161608
-0.157938
-0.154059
-0.149969
-0.145666
-0.14115
-0.136423
-0.131488
-0.126354
-0.121027
-0.115523
-0.109856
-0.104047
-0.0981149
-0.0920924
-0.0860021
-0.0798841
-0.0737646
-0.0676897
-0.0616875
-0.0558056
-0.0500743
-0.0445334
-0.0392211
-0.0341533
-0.0293909
-0.0248983
-0.0207885
-0.0169327
-0.0135374
-0.0103319
-0.00764948
-0.00505178
-0.00296767
-0.000857554
-0.19525
-0.195678
-0.196009
-0.196239
-0.196359
-0.196369
-0.196267
-0.196054
-0.195726
-0.195282
-0.194716
-0.194027
-0.193209
-0.192258
-0.191166
-0.189928
-0.18854
-0.187004
-0.185326
-0.183513
-0.181555
-0.179442
-0.177163
-0.174712
-0.172082
-0.16927
-0.166268
-0.163073
-0.15968
-0.156083
-0.15228
-0.148268
-0.144046
-0.139614
-0.134974
-0.130129
-0.125087
-0.119857
-0.114452
-0.108885
-0.10318
-0.0973527
-0.0914354
-0.0854502
-0.0794358
-0.0734177
-0.0674407
-0.0615316
-0.0557372
-0.0500858
-0.0446179
-0.0393677
-0.0343552
-0.0296327
-0.0251762
-0.0210796
-0.017241
-0.0138269
-0.0106212
-0.00788236
-0.00526874
-0.00308616
-0.000943406
-0.190962
-0.191477
-0.191899
-0.19222
-0.192432
-0.192532
-0.192521
-0.192395
-0.192154
-0.191795
-0.191314
-0.190707
-0.18997
-0.189099
-0.188088
-0.186933
-0.18563
-0.184178
-0.182576
-0.180835
-0.178953
-0.176912
-0.174705
-0.172326
-0.16977
-0.167031
-0.164104
-0.160984
-0.157667
-0.154149
-0.150427
-0.146498
-0.142362
-0.138017
-0.133468
-0.128718
-0.123773
-0.118643
-0.113341
-0.107879
-0.10228
-0.0965612
-0.0907523
-0.084875
-0.078967
-0.0730526
-0.0671756
-0.0613615
-0.0556563
-0.0500863
-0.0446927
-0.0395057
-0.0345495
-0.0298675
-0.0254478
-0.0213647
-0.0175433
-0.0141112
-0.0109046
-0.008111
-0.00547971
-0.00320226
-0.00102457
-0.186611
-0.18721
-0.187716
-0.188122
-0.18842
-0.188606
-0.188679
-0.188638
-0.18848
-0.188203
-0.187803
-0.187277
-0.18662
-0.185828
-0.184897
-0.183823
-0.182601
-0.181231
-0.179711
-0.178048
-0.176241
-0.174274
-0.172142
-0.169838
-0.167357
-0.164695
-0.161846
-0.158805
-0.155569
-0.152134
-0.148496
-0.144654
-0.140607
-0.136355
-0.131901
-0.127249
-0.122405
-0.117379
-0.112183
-0.10683
-0.101342
-0.0957341
-0.0900366
-0.0842701
-0.0784711
-0.0726629
-0.0668884
-0.0611713
-0.0555573
-0.0500704
-0.0447528
-0.0396303
-0.0347317
-0.0300914
-0.0257093
-0.0216409
-0.0178372
-0.0143882
-0.0111803
-0.008334
-0.00568366
-0.00331546
-0.0011006
-0.182221
-0.182899
-0.183484
-0.183971
-0.18435
-0.184617
-0.18477
-0.184809
-0.184731
-0.184533
-0.184211
-0.183763
-0.183184
-0.18247
-0.181618
-0.180623
-0.179482
-0.178192
-0.176754
-0.175171
-0.173438
-0.171547
-0.16949
-0.167263
-0.16486
-0.162277
-0.159508
-0.156549
-0.153396
-0.150046
-0.146496
-0.142744
-0.13879
-0.134634
-0.130278
-0.125727
-0.120989
-0.116069
-0.110983
-0.105742
-0.100367
-0.0948729
-0.0892895
-0.0836361
-0.0779485
-0.0722486
-0.0665784
-0.0609601
-0.0554391
-0.0500368
-0.0447967
-0.0397399
-0.0349003
-0.0303027
-0.0259593
-0.0219065
-0.018121
-0.0146565
-0.0114471
-0.00855058
-0.00587993
-0.0034255
-0.00117132
-0.177811
-0.178566
-0.179226
-0.179789
-0.180245
-0.180588
-0.180818
-0.180933
-0.180931
-0.180808
-0.180562
-0.18019
-0.179686
-0.179049
-0.178273
-0.177356
-0.176294
-0.175084
-0.173726
-0.17222
-0.170563
-0.168748
-0.166769
-0.164619
-0.162296
-0.159792
-0.157105
-0.15423
-0.151162
-0.1479
-0.14444
-0.14078
-0.136921
-0.132863
-0.128609
-0.124162
-0.11953
-0.114721
-0.109746
-0.104619
-0.0993591
-0.0939816
-0.0885141
-0.0829757
-0.0774011
-0.0718111
-0.0662467
-0.0607286
-0.055302
-0.0499853
-0.044824
-0.039834
-0.0350544
-0.0305005
-0.0261967
-0.0221606
-0.0183937
-0.0149154
-0.0117042
-0.00876021
-0.00606804
-0.00353224
-0.00123667
-0.173394
-0.174222
-0.174955
-0.175591
-0.17612
-0.176536
-0.176839
-0.177027
-0.177098
-0.177048
-0.176875
-0.176576
-0.176146
-0.175582
-0.174882
-0.17404
-0.173055
-0.171923
-0.170643
-0.169214
-0.167633
-0.165895
-0.163992
-0.161921
-0.159677
-0.157255
-0.15465
-0.15186
-0.148879
-0.145706
-0.142337
-0.138772
-0.13501
-0.131052
-0.126901
-0.12256
-0.118037
-0.113338
-0.108478
-0.103466
-0.0983231
-0.0930631
-0.087713
-0.0822909
-0.0768306
-0.0713516
-0.0658941
-0.0604772
-0.0551459
-0.049916
-0.0448343
-0.039912
-0.0351934
-0.0306841
-0.0264205
-0.0224024
-0.0186544
-0.0151642
-0.0119508
-0.00896236
-0.0062476
-0.00363548
-0.00129669
-0.168979
-0.169879
-0.170681
-0.171386
-0.171985
-0.172472
-0.172846
-0.173104
-0.173245
-0.173265
-0.173163
-0.172934
-0.172576
-0.172085
-0.171457
-0.170689
-0.169779
-0.168723
-0.16752
-0.166166
-0.164661
-0.162999
-0.161174
-0.159181
-0.157017
-0.154676
-0.152155
-0.14945
-0.146557
-0.143474
-0.140198
-0.136728
-0.133064
-0.129207
-0.12516
-0.120927
-0.116514
-0.111928
-0.107182
-0.102287
-0.0972619
-0.0921205
-0.0868886
-0.0815836
-0.0762383
-0.070871
-0.0655213
-0.0602062
-0.0549709
-0.0498284
-0.0448271
-0.0399734
-0.0353163
-0.0308527
-0.0266299
-0.0226311
-0.0189023
-0.015402
-0.0121863
-0.00915656
-0.00641829
-0.00373502
-0.00135153
-0.164575
-0.165544
-0.166413
-0.167185
-0.167851
-0.168406
-0.168847
-0.169172
-0.169381
-0.16947
-0.169436
-0.169276
-0.168987
-0.168566
-0.168009
-0.167314
-0.166477
-0.165495
-0.164367
-0.163089
-0.161659
-0.160072
-0.158324
-0.15641
-0.154325
-0.152066
-0.149629
-0.147009
-0.144204
-0.141212
-0.138029
-0.134655
-0.131091
-0.127336
-0.123394
-0.119268
-0.114966
-0.110493
-0.105863
-0.101085
-0.0961785
-0.091156
-0.0860429
-0.0808554
-0.0756255
-0.0703703
-0.0651287
-0.0599159
-0.054777
-0.0497224
-0.0448021
-0.0400175
-0.0354226
-0.0310056
-0.0268241
-0.0228459
-0.0191366
-0.0156283
-0.0124101
-0.00934238
-0.00657988
-0.00383067
-0.00140138
-0.16019
-0.161223
-0.162156
-0.162992
-0.163723
-0.164343
-0.164849
-0.16524
-0.165514
-0.165669
-0.165702
-0.165609
-0.165388
-0.165035
-0.164548
-0.163924
-0.163158
-0.162249
-0.161194
-0.15999
-0.158635
-0.157123
-0.155452
-0.153615
-0.15161
-0.149433
-0.147079
-0.144545
-0.141829
-0.138927
-0.135838
-0.132561
-0.129095
-0.125443
-0.121606
-0.117589
-0.113397
-0.109038
-0.104524
-0.0998638
-0.0950755
-0.0901721
-0.0851777
-0.0801077
-0.0749934
-0.0698503
-0.0647169
-0.0596066
-0.0545644
-0.049598
-0.0447589
-0.040044
-0.0355117
-0.0311422
-0.0270024
-0.0230463
-0.0193566
-0.0158425
-0.0126217
-0.00951944
-0.00673223
-0.00392223
-0.00144653
-0.155828
-0.156924
-0.157918
-0.158815
-0.159608
-0.16029
-0.160858
-0.161312
-0.16165
-0.161869
-0.161966
-0.161939
-0.161784
-0.161499
-0.16108
-0.160524
-0.159829
-0.158991
-0.158008
-0.156878
-0.155596
-0.154159
-0.152563
-0.150805
-0.148879
-0.146783
-0.144512
-0.142064
-0.139436
-0.136625
-0.13363
-0.130449
-0.127083
-0.123533
-0.119802
-0.115892
-0.111812
-0.107567
-0.103168
-0.098625
-0.0939551
-0.0891705
-0.0842947
-0.079342
-0.0743429
-0.0693119
-0.0642865
-0.0592785
-0.0543331
-0.049455
-0.0446974
-0.0400527
-0.0355833
-0.031262
-0.0271644
-0.0232316
-0.019562
-0.0160442
-0.0128209
-0.00968742
-0.00687527
-0.00400953
-0.00148728
-0.151498
-0.152653
-0.153705
-0.154659
-0.155511
-0.156252
-0.15688
-0.157395
-0.157794
-0.158075
-0.158235
-0.158271
-0.158181
-0.157961
-0.157608
-0.157121
-0.156494
-0.155727
-0.154815
-0.153756
-0.152547
-0.151184
-0.149664
-0.147983
-0.146136
-0.144121
-0.141934
-0.139571
-0.137031
-0.13431
-0.131408
-0.128324
-0.125057
-0.12161
-0.117983
-0.114182
-0.110213
-0.106081
-0.101797
-0.097371
-0.092819
-0.0881528
-0.0833951
-0.0785593
-0.073675
-0.0687555
-0.0638379
-0.0589321
-0.0540832
-0.0492935
-0.0446173
-0.0400431
-0.0356369
-0.0313647
-0.0273095
-0.0234015
-0.0197522
-0.016233
-0.0130072
-0.00984603
-0.007009
-0.0040924
-0.00152395
-0.147206
-0.148415
-0.149521
-0.15053
-0.151437
-0.152234
-0.15292
-0.153493
-0.153951
-0.154292
-0.154513
-0.15461
-0.154583
-0.154427
-0.154139
-0.153718
-0.153159
-0.15246
-0.151618
-0.15063
-0.149493
-0.148204
-0.146759
-0.145154
-0.143386
-0.141451
-0.139347
-0.137069
-0.134617
-0.131987
-0.129178
-0.126189
-0.123022
-0.119676
-0.116155
-0.112461
-0.108602
-0.104582
-0.100413
-0.0961035
-0.0916689
-0.0871204
-0.0824801
-0.0777604
-0.0729904
-0.0681819
-0.0633715
-0.0585674
-0.0538147
-0.0491134
-0.0445186
-0.0400153
-0.0356723
-0.03145
-0.0274374
-0.0235557
-0.0199269
-0.0164086
-0.0131807
-0.00999504
-0.00713345
-0.00417071
-0.00155686
-0.142956
-0.144216
-0.145372
-0.146432
-0.147391
-0.148242
-0.148982
-0.149611
-0.150125
-0.150523
-0.150803
-0.15096
-0.150994
-0.1509
-0.150676
-0.150319
-0.149826
-0.149195
-0.148421
-0.147503
-0.146438
-0.145221
-0.143851
-0.142322
-0.140632
-0.138777
-0.136755
-0.134562
-0.132197
-0.129657
-0.126941
-0.124048
-0.120979
-0.117734
-0.114317
-0.110731
-0.106981
-0.103073
-0.0990184
-0.0948241
-0.0905059
-0.0860743
-0.0815506
-0.0769463
-0.0722897
-0.0675915
-0.0628877
-0.0581849
-0.053528
-0.0489147
-0.0444011
-0.0399689
-0.0356892
-0.0315176
-0.027548
-0.0236938
-0.020086
-0.0165707
-0.0133411
-0.0101343
-0.00724872
-0.00424432
-0.00158631
-0.138755
-0.14006
-0.141263
-0.14237
-0.143378
-0.144279
-0.145071
-0.145752
-0.146321
-0.146774
-0.14711
-0.147325
-0.147417
-0.147384
-0.147221
-0.146928
-0.146499
-0.145934
-0.145228
-0.144379
-0.143384
-0.142239
-0.140942
-0.139489
-0.137876
-0.136101
-0.134161
-0.132052
-0.129774
-0.127323
-0.124699
-0.121901
-0.11893
-0.115786
-0.112473
-0.108993
-0.105352
-0.101555
-0.0976134
-0.0935337
-0.0893311
-0.0850154
-0.0806073
-0.0761174
-0.0715734
-0.0669847
-0.0623867
-0.0577846
-0.0532229
-0.0486975
-0.0442649
-0.0399039
-0.0356876
-0.0315673
-0.0276409
-0.0238156
-0.0202292
-0.0167191
-0.0134883
-0.0102635
-0.00735492
-0.00431314
-0.0016126
-0.134607
-0.135954
-0.137199
-0.13835
-0.139402
-0.14035
-0.141191
-0.141922
-0.142541
-0.143047
-0.143437
-0.143708
-0.143857
-0.143882
-0.143779
-0.143547
-0.143182
-0.142681
-0.142042
-0.14126
-0.140334
-0.139261
-0.138036
-0.136657
-0.135121
-0.133425
-0.131566
-0.129541
-0.127349
-0.124987
-0.122455
-0.119751
-0.116877
-0.113834
-0.110623
-0.107249
-0.103716
-0.100029
-0.0961996
-0.0922334
-0.0881453
-0.0839445
-0.0796509
-0.0752745
-0.0708419
-0.0663619
-0.0618689
-0.0573668
-0.0528998
-0.048462
-0.0441099
-0.0398203
-0.0356674
-0.031599
-0.0277161
-0.023921
-0.0203565
-0.0168536
-0.0136225
-0.0103827
-0.0074522
-0.0043771
-0.001636
-0.130517
-0.131902
-0.133184
-0.134375
-0.135469
-0.13646
-0.137345
-0.138123
-0.138791
-0.139346
-0.139788
-0.140112
-0.140316
-0.140397
-0.140353
-0.14018
-0.139877
-0.139439
-0.138864
-0.138149
-0.137291
-0.136288
-0.135135
-0.13383
-0.13237
-0.130752
-0.128973
-0.127031
-0.124925
-0.122651
-0.12021
-0.1176
-0.114822
-0.111878
-0.108769
-0.105499
-0.102073
-0.0984964
-0.0947777
-0.090924
-0.0869493
-0.0828622
-0.078682
-0.0744179
-0.0700958
-0.0657234
-0.0613345
-0.0569317
-0.0525587
-0.048208
-0.0439363
-0.0397181
-0.0356284
-0.0316127
-0.0277735
-0.0240098
-0.0204678
-0.0169742
-0.0137436
-0.0104918
-0.0075407
-0.00443614
-0.00165672
-0.12649
-0.127907
-0.129223
-0.130449
-0.13158
-0.132611
-0.133538
-0.134359
-0.135073
-0.135676
-0.136166
-0.136541
-0.136798
-0.136933
-0.136945
-0.13683
-0.136586
-0.13621
-0.135698
-0.135049
-0.134258
-0.133323
-0.132241
-0.131009
-0.129624
-0.128083
-0.126384
-0.124524
-0.122502
-0.120316
-0.117965
-0.115448
-0.112766
-0.10992
-0.106913
-0.103746
-0.100426
-0.0969574
-0.0933485
-0.0896062
-0.0857437
-0.0817691
-0.0777011
-0.0735482
-0.0693354
-0.0650697
-0.0607838
-0.0564796
-0.0521998
-0.0479359
-0.043744
-0.0395973
-0.0355708
-0.0316082
-0.027813
-0.0240821
-0.0205631
-0.0170808
-0.0138517
-0.0105907
-0.0076206
-0.00449024
-0.00167497
-0.122529
-0.123973
-0.125319
-0.126576
-0.127741
-0.128808
-0.129774
-0.130635
-0.131391
-0.132038
-0.132575
-0.132998
-0.133305
-0.133493
-0.133559
-0.1335
-0.133314
-0.132997
-0.132547
-0.131961
-0.131236
-0.130368
-0.129356
-0.128196
-0.126885
-0.12542
-0.1238
-0.122022
-0.120083
-0.117984
-0.115722
-0.113297
-0.11071
-0.107961
-0.105054
-0.10199
-0.098775
-0.0954131
-0.091913
-0.0882806
-0.0845291
-0.0806658
-0.0767087
-0.0726658
-0.0685612
-0.0644009
-0.0602172
-0.0560106
-0.0518234
-0.0476458
-0.0435332
-0.0394579
-0.0354946
-0.0315857
-0.0278348
-0.0241377
-0.0206425
-0.0171734
-0.013947
-0.0106793
-0.00769206
-0.00453939
-0.00169092
-0.118638
-0.120105
-0.121476
-0.12276
-0.123955
-0.125054
-0.126055
-0.126953
-0.127748
-0.128437
-0.129017
-0.129486
-0.129841
-0.130078
-0.130196
-0.130192
-0.130061
-0.129803
-0.129413
-0.128889
-0.128228
-0.127426
-0.126482
-0.125393
-0.124155
-0.122766
-0.121223
-0.119525
-0.11767
-0.115656
-0.113482
-0.111148
-0.108655
-0.106003
-0.103194
-0.100232
-0.0971205
-0.0938644
-0.0904717
-0.0869481
-0.0833062
-0.0795528
-0.0757054
-0.0717711
-0.0677734
-0.0637176
-0.0596349
-0.0555252
-0.0514296
-0.0473377
-0.0433041
-0.0393002
-0.0353999
-0.0315451
-0.0278389
-0.0241767
-0.0207061
-0.0172519
-0.0140294
-0.0107578
-0.00775526
-0.0045836
-0.00170473
-0.11482
-0.116305
-0.117697
-0.119004
-0.120225
-0.121353
-0.122384
-0.123317
-0.124148
-0.124875
-0.125496
-0.126008
-0.126408
-0.126693
-0.126861
-0.126908
-0.126832
-0.126629
-0.126298
-0.125834
-0.125236
-0.124499
-0.123622
-0.122602
-0.121436
-0.120121
-0.118655
-0.117036
-0.115263
-0.113333
-0.111247
-0.109003
-0.106602
-0.104045
-0.101335
-0.0984724
-0.0954636
-0.0923119
-0.0890254
-0.0856092
-0.0820756
-0.0784308
-0.0746916
-0.0708647
-0.0669726
-0.0630201
-0.0590373
-0.0550235
-0.0510187
-0.0470121
-0.0430569
-0.0391242
-0.0352869
-0.0314867
-0.0278254
-0.0241992
-0.0207539
-0.0173164
-0.0140993
-0.0108262
-0.00781037
-0.00462292
-0.0017165
-0.111077
-0.112576
-0.113985
-0.115312
-0.116554
-0.117707
-0.118766
-0.119729
-0.120593
-0.121356
-0.122015
-0.122568
-0.12301
-0.12334
-0.123555
-0.123652
-0.123628
-0.12348
-0.123204
-0.122799
-0.122262
-0.121589
-0.120778
-0.119825