/*--------------------------------*- C++ -*----------------------------------*\
  =========                 |
  \\      /  F ield         | OpenFOAM: The Open Source CFD Toolbox
   \\    /   O peration     | Website:  https://openfoam.org
    \\  /    A nd           | Version:  7
     \\/     M anipulation  |
\*---------------------------------------------------------------------------*/
FoamFile
{
    version     2.0;
    format      ascii;
    class       volVectorField;
    location    "125";
    object      U;
}
// * * * * * * * * * * * * * * * * * * * * * * * * * * * * * * * * * * * * * //

dimensions      [0 1 -1 0 0 0 0];

internalField   nonuniform List<vector> 
12400
(
(0.000347927 -0.0441231 -8.0733e-21)
(-0.00111382 -0.11331 -3.00916e-20)
(-0.00659271 -0.1675 5.56314e-21)
(-0.0154841 -0.207395 2.1434e-20)
(-0.0273352 -0.234507 9.26588e-21)
(-0.0415942 -0.251156 -2.29584e-20)
(-0.0575551 -0.260075 -7.34173e-21)
(-0.0744995 -0.263891 -2.87626e-21)
(-0.0917865 -0.264636 -2.77699e-20)
(-0.108884 -0.263405 -5.53112e-21)
(-0.125347 -0.260248 -2.10416e-20)
(-0.14076 -0.254257 3.53262e-21)
(-0.154654 -0.243761 -1.13756e-20)
(-0.166437 -0.226525 2.099e-20)
(-0.175347 -0.199938 -2.83311e-20)
(-0.18044 -0.161251 -3.05554e-20)
(-0.180612 -0.107921 -9.08057e-21)
(-0.17464 -0.0381912 5.02291e-20)
(-0.161634 0.0477589 -4.31354e-20)
(-0.138591 0.149221 6.16781e-21)
(0.00171152 -0.0422818 1.18126e-20)
(0.00169557 -0.108291 1.93924e-20)
(-0.00381072 -0.159747 5.95435e-21)
(-0.0136464 -0.197394 1.8244e-20)
(-0.027022 -0.222814 -4.71343e-21)
(-0.0431554 -0.238356 2.83891e-20)
(-0.061176 -0.246721 1.10209e-20)
(-0.0802823 -0.250456 2.53521e-20)
(-0.0998272 -0.251496 -1.43653e-20)
(-0.119332 -0.250856 3.55938e-20)
(-0.138442 -0.248553 1.19089e-19)
(-0.15685 -0.243699 -2.02318e-20)
(-0.174194 -0.234697 3.06399e-20)
(-0.189971 -0.219422 -1.95283e-20)
(-0.203472 -0.19539 5.07546e-20)
(-0.213733 -0.159959 -4.46925e-21)
(-0.219551 -0.11064 2.95894e-20)
(-0.219526 -0.0456935 -1.76573e-19)
(-0.212025 0.0350311 1.92576e-20)
(-0.195349 0.130725 -2.2005e-20)
(0.00289252 -0.0398009 3.64109e-20)
(0.00409758 -0.101863 3.87172e-20)
(-0.00148199 -0.150209 -9.12105e-21)
(-0.0121595 -0.185508 -1.98026e-20)
(-0.0268255 -0.20931 -8.54854e-21)
(-0.0444808 -0.223904 2.80057e-20)
(-0.0641003 -0.231884 4.21257e-20)
(-0.0848011 -0.235668 -9.41274e-20)
(-0.105921 -0.237073 2.83672e-20)
(-0.127016 -0.23703 -3.66606e-20)
(-0.147796 -0.235532 -6.26675e-20)
(-0.168033 -0.231731 -1.14094e-20)
(-0.187452 -0.224124 -1.84571e-20)
(-0.205633 -0.210723 -4.32408e-20)
(-0.221927 -0.189206 4.9576e-20)
(-0.235393 -0.157087 -4.80668e-20)
(-0.244791 -0.111986 5.7543e-21)
(-0.248663 -0.0521411 1.65802e-19)
(-0.244861 0.022835 -1.0694e-19)
(-0.231854 0.112157 9.1361e-20)
(0.00383571 -0.0367567 -2.74854e-20)
(0.00598869 -0.0942102 5.01293e-20)
(0.000292348 -0.139146 -7.37876e-20)
(-0.0110995 -0.172044 3.48484e-20)
(-0.0267906 -0.194325 -1.89331e-19)
(-0.0455873 -0.208137 -1.17006e-19)
(-0.0663238 -0.215904 7.36525e-20)
(-0.0880375 -0.219878 1.83918e-19)
(-0.110039 -0.221733 -7.49803e-20)
(-0.131891 -0.222319 -5.34225e-20)
(-0.153338 -0.221608 -7.69377e-20)
(-0.174196 -0.218801 1.56711e-19)
(-0.194241 -0.212499 1.95734e-19)
(-0.213107 -0.200866 -1.51514e-19)
(-0.230205 -0.181758 -1.26976e-19)
(-0.244629 -0.152879 4.84437e-20)
(-0.255138 -0.112001 -1.00643e-19)
(-0.260281 -0.0573119 -8.05147e-21)
(-0.257691 0.0117392 1.6129e-19)
(-0.244573 0.0940477 4.41121e-20)
(0.00449736 -0.0332431 1.04252e-19)
(0.00728791 -0.0855515 3.2291e-20)
(0.0014331 -0.126847 1.14711e-19)
(-0.0105275 -0.157326 -3.45924e-20)
(-0.0269582 -0.178196 1.8167e-19)
(-0.0465005 -0.191393 1.11687e-19)
(-0.0678659 -0.19912 -1.3474e-19)
(-0.0900144 -0.203429 -1.7526e-19)
(-0.112215 -0.205841 1.62659e-19)
(-0.134015 -0.207118 -4.48355e-20)
(-0.155152 -0.207217 6.74456e-20)
(-0.175446 -0.205391 -2.71526e-19)
(-0.194682 -0.200344 9.15632e-20)
(-0.212512 -0.19039 3.94938e-20)
(-0.228371 -0.173566 2.12963e-20)
(-0.241388 -0.147775 7.17222e-20)
(-0.250282 -0.110981 1.84256e-19)
(-0.253703 -0.0613588 2.48385e-21)
(-0.249583 0.0018888 -6.36591e-20)
(-0.231569 0.076598 4.23717e-20)
(0.00484719 -0.0293656 7.04462e-20)
(0.00794064 -0.0761236 3.4473e-20)
(0.00188796 -0.113618 -1.86027e-19)
(-0.0104836 -0.141686 -1.09672e-19)
(-0.0273561 -0.161258 -4.48664e-20)
(-0.0472422 -0.173999 1.47737e-19)
(-0.0687523 -0.181852 1.76841e-19)
(-0.0907732 -0.186645 -2.13487e-20)
(-0.112522 -0.189736 -4.26618e-20)
(-0.133503 -0.191799 -3.54394e-20)
(-0.153419 -0.192777 -1.20797e-19)
(-0.17205 -0.191974 2.75127e-19)
(-0.189148 -0.188193 -3.56212e-21)
(-0.204336 -0.179884 -1.02805e-19)
(-0.217037 -0.165256 -9.07276e-21)
(-0.226396 -0.142401 2.04187e-20)
(-0.231058 -0.109509 5.08646e-20)
(-0.229611 -0.0648845 -2.05332e-19)
(-0.221508 -0.00704701 7.41152e-20)
(-0.193454 0.0596781 -6.55764e-20)
(0.00486968 -0.0252371 -1.16085e-19)
(0.00792128 -0.066174 6.6953e-20)
(0.00163577 -0.09977 8.10155e-20)
(-0.01098 -0.125457 7.19454e-20)
(-0.0279894 -0.143837 1.53723e-19)
(-0.0478163 -0.156265 2.17509e-20)
(-0.0689941 -0.164395 -2.42211e-20)
(-0.0903443 -0.169816 6.81639e-20)
(-0.111024 -0.173717 -1.01234e-19)
(-0.130477 -0.176685 -8.87308e-21)
(-0.148342 -0.178651 4.86866e-20)
(-0.16433 -0.178965 -2.24549e-19)
(-0.178123 -0.176525 -7.0247e-20)
(-0.189277 -0.169901 6.91597e-20)
(-0.197161 -0.157454 -1.57428e-19)
(-0.200927 -0.137448 1.65462e-19)
(-0.199171 -0.108296 1.33041e-20)
(-0.189898 -0.0686025 -1.34348e-20)
(-0.176271 -0.0157364 -2.16513e-19)
(-0.133678 0.0430207 1.0687e-19)
(0.00456453 -0.0209727 -4.39673e-20)
(0.00723477 -0.0559525 -4.99686e-20)
(0.000689798 -0.0856143 -2.37889e-19)
(-0.0119952 -0.108964 -1.05793e-19)
(-0.0288309 -0.126244 -3.65927e-19)
(-0.0481934 -0.138475 -3.15263e-20)
(-0.0685656 -0.147009 -1.8426e-19)
(-0.0887138 -0.153185 -1.32445e-19)
(-0.107732 -0.158023 2.94043e-19)
(-0.124992 -0.162022 5.0165e-20)
(-0.140047 -0.165103 1.22008e-19)
(-0.15252 -0.166663 1.54564e-19)
(-0.162001 -0.165683 -5.09698e-20)
(-0.16796 -0.160841 -1.65206e-19)
(-0.169682 -0.15063 1.46738e-19)
(-0.166328 -0.133463 1.25318e-19)
(-0.156614 -0.107954 -1.24992e-19)
(-0.1369 -0.0731426 1.59458e-19)
(-0.117274 -0.0248601 2.00445e-19)
(-0.0575845 0.0266771 4.33604e-20)
(0.00394663 -0.0166863 1.19692e-19)
(0.00591701 -0.0457038 1.4486e-19)
(-0.000900148 -0.0714522 7.25363e-20)
(-0.0134696 -0.0925148 1.81192e-19)
(-0.0298127 -0.108769 8.52711e-20)
(-0.0482983 -0.120892 2.24887e-19)
(-0.0673844 -0.129923 1.97624e-19)
(-0.0857935 -0.136952 -7.81516e-20)
(-0.102556 -0.142831 -1.26048e-19)
(-0.116963 -0.147971 2.26236e-19)
(-0.128473 -0.152283 -1.43566e-19)
(-0.136608 -0.155209 1.01815e-19)
(-0.140856 -0.155804 1.37855e-19)
(-0.1406 -0.152847 1.45886e-19)
(-0.135041 -0.144935 -4.12046e-19)
(-0.123329 -0.130621 -1.78093e-19)
(-0.104735 -0.108696 -3.79151e-20)
(-0.0722963 -0.078541 1.60171e-19)
(-0.0461388 -0.0357374 -3.22754e-19)
(0.0309978 0.0103178 -9.60863e-20)
(0.00304542 -0.0124872 1.74103e-19)
(0.00403415 -0.0356627 -2.14334e-19)
(-0.00304732 -0.0575715 -2.26584e-19)
(-0.0153025 -0.0764058 -2.38027e-19)
(-0.0308213 -0.0916879 -1.48631e-19)
(-0.0480006 -0.103753 -3.59886e-20)
(-0.0652969 -0.113333 -2.46411e-19)
(-0.0813988 -0.121273 3.08413e-19)
(-0.095273 -0.128255 8.91803e-20)
(-0.106121 -0.134604 8.50152e-20)
(-0.113299 -0.140217 -3.51315e-19)
(-0.116216 -0.144573 5.19765e-20)
(-0.114257 -0.146797 -4.12942e-20)
(-0.106727 -0.145745 -1.23648e-20)
(-0.0927627 -0.140103 -1.47071e-19)
(-0.0714426 -0.128551 1.76532e-19)
(-0.0432814 -0.110104 -3.39828e-20)
(0.00300222 -0.0834045 -3.42059e-19)
(0.0372324 -0.0472531 5.25745e-20)
(0.134079 -0.0064335 1.51772e-19)
(0.00190375 -0.00847745 1.22403e-19)
(0.00168059 -0.026049 -4.05835e-20)
(-0.00562956 -0.0442431 2.37679e-19)
(-0.0173533 -0.060914 1.2047e-19)
(-0.0316962 -0.0752555 1.73279e-19)
(-0.0471123 -0.0872778 1.62761e-20)
(-0.0620737 -0.0974152 3.33897e-19)
(-0.0752408 -0.106272 -3.02866e-19)
(-0.085512 -0.114363 -1.3724e-19)
(-0.09199 -0.121926 -5.58423e-20)
(-0.0939108 -0.128833 3.4776e-19)
(-0.090561 -0.134588 -6.10496e-20)
(-0.0812121 -0.138367 4.54724e-20)
(-0.0650999 -0.139087 1.95069e-19)
(-0.04135 -0.135497 1.77483e-19)
(-0.00882129 -0.12634 -2.82106e-19)
(0.0304612 -0.111205 -1.35244e-19)
(0.0915023 -0.0865062 6.70887e-20)
(0.132754 -0.0562206 1.65287e-19)
(0.255945 -0.0207871 -2.39143e-20)
(0.000575966 -0.00474926 -1.62498e-19)
(-0.00102443 -0.0170636 -9.17169e-20)
(-0.00849308 -0.0317176 -1.27444e-19)
(-0.0194445 -0.0462991 -1.25572e-19)
(-0.0322342 -0.0597144 1.43931e-19)
(-0.0453923 -0.0716738 -2.8287e-19)
(-0.0574163 -0.0823311 2.80414e-19)
(-0.066937 -0.0920584 1.89979e-20)
(-0.0727744 -0.101205 -2.39384e-19)
(-0.0739141 -0.10991 -5.43373e-20)
(-0.0694526 -0.11801 -2.18644e-19)
(-0.0585347 -0.125012 9.87753e-20)
(-0.0403096 -0.130119 -6.37116e-20)
(-0.0139484 -0.132284 -3.68903e-19)
(0.0213535 -0.130297 2.01703e-20)
(0.066887 -0.122807 9.6676e-20)
(0.119226 -0.110391 1.94988e-19)
(0.197472 -0.0865909 2.84547e-19)
(0.244394 -0.0608086 3.05298e-20)
(0.398116 -0.028074 -1.93644e-19)
(-0.000874563 -0.00138238 -2.22861e-19)
(-0.00394182 -0.0088842 -3.21769e-20)
(-0.0114584 -0.0202217 4.56721e-19)
(-0.0213686 -0.0328023 -2.06596e-19)
(-0.032197 -0.0452951 1.03709e-20)
(-0.0425573 -0.0571438 -2.03306e-19)
(-0.0509732 -0.0682432 -1.96454e-19)
(-0.0560379 -0.0787437 3.21648e-20)
(-0.0564759 -0.088828 1.05461e-19)
(-0.051134 -0.0985294 3.85794e-19)
(-0.0389467 -0.107627 -1.20535e-19)
(-0.0189025 -0.115607 -5.03607e-19)
(0.00996492 -0.121667 3.48866e-19)
(0.0485158 -0.124765 2.83487e-19)
(0.0973949 -0.123696 1.73415e-19)
(0.157884 -0.116887 3.97052e-19)
(0.224767 -0.106144 -1.06855e-19)
(0.32112 -0.0820873 -4.26536e-19)
(0.374964 -0.0603077 6.71192e-20)
(0.555924 -0.026879 5.19786e-20)
(-0.00237835 0.00155801 -1.15898e-19)
(-0.00691851 -0.00166109 1.55613e-19)
(-0.0143277 -0.00995508 -1.58373e-19)
(-0.0228969 -0.0206433 2.5438e-19)
(-0.0313221 -0.0322159 -2.95342e-19)
(-0.0382972 -0.0438879 2.75794e-19)
(-0.0423641 -0.0553204 5.51363e-20)
(-0.0420644 -0.0664546 -2.9971e-19)
(-0.0360083 -0.0773064 2.50485e-19)
(-0.022884 -0.0877912 -2.69674e-19)
(-0.00145298 -0.0976111 3.28262e-19)
(0.0294427 -0.106202 1.7669e-19)
(0.0708322 -0.112726 1.36698e-19)
(0.123502 -0.116113 -1.94468e-19)
(0.187714 -0.115181 -2.71926e-20)
(0.264447 -0.108111 -2.067e-19)
(0.34684 -0.0978549 1.1302e-19)
(0.458454 -0.0728666 -7.51761e-21)
(0.522033 -0.0538243 -1.55741e-19)
(0.716959 -0.0186807 4.85555e-20)
(-0.00386364 0.00402469 2.55255e-20)
(-0.00979416 0.00448829 9.88966e-20)
(-0.0168929 -0.00108417 2.17053e-20)
(-0.0237882 -0.010017 8.44731e-20)
(-0.0293344 -0.0206805 2.03932e-19)
(-0.0322908 -0.0321026 1.93041e-19)
(-0.0312035 -0.0437387 1.38269e-19)
(-0.0245462 -0.0553347 1.74082e-19)
(-0.0108001 -0.0667403 -3.51474e-19)
(0.0115104 -0.077742 -5.2022e-20)
(0.0437805 -0.0879449 -5.43657e-19)
(0.0872535 -0.0967099 -1.63793e-19)
(0.14289 -0.103141 -1.76237e-19)
(0.211172 -0.106128 2.83654e-19)
(0.291667 -0.104563 -4.01906e-19)
(0.384371 -0.096504 7.7317e-20)
(0.481661 -0.0854149 2.10697e-20)
(0.602153 -0.0601094 2.60973e-19)
(0.677027 -0.0417932 -1.11983e-19)
(0.866217 -0.00635836 6.79151e-20)
(-0.00526127 0.00599011 3.46135e-19)
(-0.0124103 0.00948321 1.26662e-19)
(-0.0189449 0.00626297 2.3355e-19)
(-0.0237975 -0.00108547 2.14446e-19)
(-0.0259542 -0.0108699 3.69135e-20)
(-0.0242172 -0.0219724 -4.68419e-19)
(-0.0171177 -0.033672 -3.46898e-19)
(-0.00304851 -0.0455344 -3.15955e-19)
(0.0196403 -0.0572452 2.97409e-19)
(0.0525678 -0.0684526 1.79418e-19)
(0.0972216 -0.0786472 6.21825e-19)
(0.154795 -0.0870986 -4.93078e-19)
(0.225944 -0.0928464 1.79789e-19)
(0.310483 -0.0947604 -3.15093e-19)
(0.406879 -0.0918384 2.16886e-19)
(0.513349 -0.0824174 -7.64867e-20)
(0.622304 -0.0694451 7.94571e-20)
(0.743714 -0.0450147 -2.39174e-19)
(0.827059 -0.0261284 1.88121e-19)
(0.99225 0.00722152 6.88238e-20)
(-0.00650786 0.00744695 -4.79431e-19)
(-0.0146157 0.0132831 1.98188e-19)
(-0.020279 0.0120034 -3.17819e-19)
(-0.0226816 0.006031 -3.02736e-19)
(-0.0209025 -0.00293006 1.10749e-19)
(-0.0137592 -0.0136544 5.60754e-19)
(0.000250133 -0.0252729 -4.12331e-19)
(0.0228196 -0.037187 5.23646e-20)
(0.0557123 -0.048921 -1.17586e-19)
(0.100631 -0.0599767 -1.12855e-19)
(0.159029 -0.0697193 2.92861e-19)
(0.231824 -0.0773222 6.22209e-19)
(0.319014 -0.0817774 -2.44991e-20)
(0.419274 -0.081997 4.86491e-20)
(0.529514 -0.0771212 -1.62531e-20)
(0.645687 -0.0662139 -2.61518e-19)
(0.760313 -0.051131 2.40626e-19)
(0.875152 -0.0284771 3.20442e-19)
(0.959553 -0.00917782 7.5037e-20)
(1.08979 0.0200001 -1.37439e-19)
(-0.00754926 0.00840827 -1.24789e-19)
(-0.0162719 0.0158889 4.06364e-19)
(-0.0206989 0.0161042 -1.31981e-20)
(-0.0201987 0.0112637 2.91438e-19)
(-0.0138981 0.00304344 1.37553e-19)
(-0.000598466 -0.00725674 1.33832e-19)
(0.0212498 -0.018646 -1.67458e-19)
(0.0534177 -0.0303742 2.87257e-19)
(0.0977369 -0.0418076 4.87156e-20)
(0.155884 -0.0522973 -1.72429e-19)
(0.229074 -0.0610815 -9.70112e-20)
(0.31762 -0.0672504 -4.32623e-19)
(0.420412 -0.0697969 -4.15913e-19)
(0.534468 -0.0677892 9.06569e-20)
(0.654749 -0.0606104 -3.8029e-20)
(0.775029 -0.0482584 -1.16498e-19)
(0.887723 -0.0317164 -3.15605e-19)
(0.989902 -0.0114033 -3.34552e-19)
(1.06659 0.00725425 -3.36097e-19)
(1.15927 0.030978 2.82013e-20)
(-0.00834233 0.00890529 2.55185e-20)
(-0.0172557 0.0173421 -3.67137e-19)
(-0.0200168 0.0185858 -3.49176e-19)
(-0.0161055 0.0146055 -2.36035e-19)
(-0.00464813 0.00702162 4.27872e-19)
(0.0155987 -0.00281649 -9.30861e-19)
(0.0462408 -0.0138152 1.91497e-19)
(0.0890978 -0.0250844 -1.10815e-19)
(0.145983 -0.0358364 3.17313e-19)
(0.218377 -0.0452739 3.79144e-20)
(0.306961 -0.0525203 -4.80197e-19)
(0.411013 -0.0566269 1.99542e-19)
(0.527803 -0.0566822 5.70376e-20)
(0.652263 -0.0520658 1.78027e-19)
(0.777295 -0.0425784 -1.8127e-19)
(0.895162 -0.0290869 2.85402e-19)
(0.998536 -0.0122344 -1.09581e-19)
(1.0838 0.00525466 5.09853e-20)
(1.14624 0.0222178 -3.53619e-20)
(1.20488 0.0399257 -1.13312e-19)
(-0.0088547 0.00898331 4.05598e-19)
(-0.0174566 0.0177189 -7.67253e-20)
(-0.018051 0.0195245 -4.95732e-20)
(-0.0101503 0.0161188 2.8354e-19)
(0.00716208 0.00905764 -1.46475e-19)
(0.0351988 -0.00027351 8.40463e-19)
(0.0756146 -0.0106913 3.98122e-20)
(0.130223 -0.0211761 2.61771e-19)
(0.200681 -0.0307917 -4.40897e-19)
(0.288021 -0.0386067 -3.33418e-19)
(0.391997 -0.0436701 4.8459e-19)
(0.510347 -0.0450848 -3.84121e-19)
(0.63824 -0.0421852 3.06085e-19)
(0.768358 -0.0348352 -4.19134e-20)
(0.891965 -0.0234136 8.02043e-19)
(1.00097 -0.00943324 -1.11883e-20)
(1.08942 0.00647803 2.35855e-19)
(1.15579 0.020775 2.99235e-19)
(1.20116 0.0354063 1.60388e-19)
(1.23251 0.0466635 2.18442e-19)
(-0.00906428 0.00869681 1.96653e-19)
(-0.0167756 0.0171286 -4.43083e-19)
(-0.014615 0.0190471 1.4973e-19)
(-0.00206388 0.0159372 2.4679e-19)
(0.0218806 0.00929915 2.10279e-19)
(0.0586108 0.000547913 -6.10667e-19)
(0.109802 -0.00904995 2.77332e-19)
(0.177162 -0.0183524 1.27528e-19)
(0.261991 -0.0262899 5.49849e-20)
(0.364522 -0.0318345 2.26184e-19)
(0.483098 -0.0340453 -1.26094e-19)
(0.613404 -0.0322251 3.96275e-19)
(0.748234 -0.0261463 -3.11971e-19)
(0.878326 -0.0162984 -3.01628e-19)
(0.994325 -0.00366709 -4.88811e-19)
(1.08926 0.00990149 -1.46438e-19)
(1.15979 0.0238065 -2.82274e-19)
(1.20761 0.0348343 -2.79309e-19)
(1.23622 0.0466264 -2.28629e-19)
(1.24882 0.0505982 -1.20504e-19)
(-0.00895223 0.00810549 2.9937e-19)
(-0.0151191 0.0156994 -7.71422e-20)
(-0.00951666 0.0173231 -2.07682e-19)
(0.00844857 0.0142684 -6.78992e-19)
(0.0398937 0.00799257 -5.52169e-20)
(0.086285 -5.28974e-05 7.3037e-19)
(0.149256 -0.00851991 -1.66514e-19)
(0.230252 -0.0161556 1.42792e-19)
(0.329922 -0.0217906 3.40468e-19)
(0.447257 -0.0243777 1.00037e-19)
(0.578661 -0.0231275 -6.44087e-19)
(0.717388 -0.0177413 -1.54068e-19)
(0.853992 -0.00861258 -1.02994e-19)
(0.978154 0.00311064 2.87949e-19)
(1.08135 0.0159948 7.65853e-19)
(1.15907 0.0282238 -2.2588e-19)
(1.21131 0.0394502 -1.34581e-19)
(1.24258 0.0473597 3.21495e-19)
(1.25699 0.0555197 1.58527e-19)
(1.26296 0.0564675 5.65598e-20)
(-0.00849963 0.00726609 -3.2081e-19)
(-0.0123846 0.0135692 2.3755e-19)
(-0.0025488 0.014562 -4.86401e-19)
(0.0217066 0.011385 5.53537e-20)
(0.0616184 0.00547839 3.45611e-19)
(0.118691 -0.00165659 -7.38819e-19)
(0.194402 -0.00859247 -7.79854e-19)
(0.289704 -0.0139904 1.38031e-20)
(0.4042 -0.016647 -4.6742e-19)
(0.535127 -0.0156259 -3.27324e-19)
(0.676491 -0.0104879 5.13719e-19)
(0.819065 -0.00154037 7.91791e-19)
(0.951853 0.0101092 -3.002e-19)
(1.06485 0.0227894 -1.80225e-19)
(1.15178 0.0349301 -4.27497e-19)
(1.21144 0.0450913 2.55906e-20)
(1.24699 0.0533975 -1.4644e-20)
(1.26457 0.0582764 -1.47249e-20)
(1.26951 0.063488 3.21537e-20)
(1.26974 0.0621298 3.84215e-19)
(-0.007682 0.00623033 3.20299e-19)
(-0.00845863 0.0108815 3.54856e-19)
(0.0065155 0.0109985 4.71754e-19)
(0.0380503 0.00761305 1.89373e-19)
(0.0874806 0.0021778 -2.59853e-19)
(0.15627 -0.00374252 -1.82141e-19)
(0.245563 -0.00865191 -2.41959e-20)
(0.355485 -0.0111756 2.66449e-19)
(0.484127 -0.0101886 2.46407e-19)
(0.626462 -0.00505278 1.56474e-19)
(0.773877 0.004095 -2.32808e-20)
(0.915108 0.0161969 -3.80713e-19)
(1.03883 0.0295019 2.97264e-19)
(1.13683 0.0421081 -4.12945e-20)
(1.20609 0.0526641 1.21049e-19)
(1.24873 0.0603499 4.90015e-20)
(1.27024 0.0657643 -3.24745e-20)
(1.27759 0.0680246 9.17913e-20)
(1.27594 0.0707877 -5.61461e-20)
(1.27203 0.067445 -4.00245e-19)
(-0.00646463 0.00504286 1.65681e-19)
(-0.00321051 0.00777832 -6.37945e-19)
(0.0179194 0.00688405 3.14312e-19)
(0.0578243 0.00331818 1.33046e-19)
(0.11788 -0.00142805 -3.93915e-19)
(0.199373 -0.00572035 3.89744e-19)
(0.30285 -0.00802459 2.21799e-19)
(0.427198 -0.0070187 -5.28618e-19)
(0.568479 -0.0018226 6.43051e-20)
(0.719045 0.00767499 -9.85446e-20)
(0.867846 0.0205696 2.32885e-19)
(1.00257 0.03505 -1.7591e-19)
(1.11304 0.0489668 -2.53633e-19)
(1.19402 0.0605524 3.68338e-19)
(1.24601 0.0689588 -1.66772e-19)
(1.27386 0.0740579 7.00057e-20)
(1.2844 0.0768364 -1.42161e-19)
(1.28443 0.0769152 1.92377e-21)
(1.27853 0.0776508 -1.14591e-19)
(1.2723 0.0729339 1.09787e-19)
(-0.00480009 0.00374152 -4.23866e-20)
(0.00350843 0.00439753 -1.87413e-19)
(0.0319141 0.00247934 -2.14693e-19)
(0.0813544 -0.00110928 1.23605e-19)
(0.153143 -0.00482341 -3.67959e-20)
(0.248183 -0.00697004 2.35752e-19)
(0.366075 -0.00603924 1.6913e-19)
(0.503987 -0.000898962 1.63548e-19)
(0.655505 0.00887125 5.24791e-20)
(0.810297 0.0226315 1.39692e-19)
(0.955567 0.0386275 2.29308e-19)
(1.07932 0.0544687 4.55578e-20)
(1.17386 0.0679646 -1.10651e-19)
(1.23751 0.0778061 8.6068e-20)
(1.27391 0.0837918 2.55533e-19)
(1.28973 0.0864201 -4.39512e-19)
(1.29214 0.0869114 1.26288e-19)
(1.28723 0.0852232 1.43807e-19)
(1.27874 0.084305 4.14255e-20)
(1.27085 0.0785126 8.20732e-20)
(-0.00262829 0.00235978 -6.61181e-20)
(0.0118607 0.000875046 4.09128e-19)
(0.0487448 -0.00195004 1.43873e-19)
(0.108917 -0.00526782 -4.44145e-19)
(0.193472 -0.00748371 -1.2113e-19)
(0.302649 -0.00688421 2.30465e-19)
(0.434677 -0.00208847 1.12353e-19)
(0.584526 0.00765786 3.95294e-19)
(0.743045 0.02208 -1.48636e-20)
(0.897584 0.0396321 1.78312e-20)
(1.03474 0.0577914 -1.98762e-19)
(1.14425 0.0739069 -3.00907e-19)
(1.22177 0.0861103 -2.93437e-20)
(1.26913 0.0937571 -1.79312e-19)
(1.29232 0.0972945 1.45218e-19)
(1.29885 0.0976973 6.70896e-19)
(1.29551 0.0962658 2.49066e-19)
(1.28741 0.093159 -2.30868e-19)
(1.27734 0.0908481 -1.098e-19)
(1.26847 0.0842287 4.15631e-20)
(0.000120911 0.000930576 3.21126e-19)
(0.0220142 -0.00265101 -4.94852e-19)
(0.0686321 -0.00613447 -4.75002e-19)
(0.140709 -0.00875501 6.53023e-19)
(0.238902 -0.00889873 1.97132e-19)
(0.362435 -0.00490704 -1.22843e-19)
(0.507702 0.00431841 -3.61121e-19)
(0.667087 0.018929 -4.49035e-19)
(0.82876 0.0377467 3.00248e-19)
(0.978569 0.0582965 5.23938e-20)
(1.10387 0.0775334 1.57022e-19)
(1.19726 0.0929233 1.27386e-19)
(1.25806 0.103201 -5.33903e-21)
(1.291 0.108454 -8.05141e-20)
(1.30354 0.10968 -1.55015e-19)
(1.3032 0.108152 -4.0021e-19)
(1.29596 0.105125 -1.47651e-19)
(1.28586 0.100863 4.84347e-19)
(1.2749 0.0973506 7.53865e-20)
(1.26532 0.090074 -1.06532e-19)
(0.00352309 -0.000509364 -3.33424e-19)
(0.0341298 -0.00603432 3.46563e-19)
(0.0917521 -0.00979885 9.44728e-21)
(0.176815 -0.0111746 -1.47693e-19)
(0.289266 -0.00859162 -4.93708e-20)
(0.4269 -0.000566025 -4.20804e-20)
(0.583841 0.0135189 -2.61787e-19)
(0.749695 0.0329784 3.20118e-19)
(0.910404 0.0556094 -5.27953e-19)
(1.05148 0.0781465 8.18498e-22)
(1.16231 0.0973768 -9.47399e-20)
(1.23905 0.111228 -4.7746e-20)
(1.28438 0.119195 9.99139e-20)
(1.30518 0.122049 -2.18571e-19)
(1.30948 0.121187 -1.07394e-20)
(1.30424 0.118013 1.115e-19)
(1.29445 0.113658 -2.66476e-19)
(1.28315 0.108429 -1.38244e-21)
(1.27167 0.103846 -1.03596e-22)
(1.26161 0.096022 1.90287e-19)
(0.00765346 -0.0019156 4.79918e-20)
(0.0483479 -0.00911462 9.48586e-20)
(0.118216 -0.0126602 1.87686e-19)
(0.217188 -0.0121414 -1.0215e-19)
(0.344173 -0.00613404 -3.34974e-19)
(0.495115 0.00650518 8.75474e-20)
(0.661521 0.0256809 2.01306e-19)
(0.830327 0.0496762 1.09335e-19)
(0.986077 0.0752741 3.70593e-19)
(1.11523 0.0987004 -1.00322e-19)
(1.21021 0.116956 -5.9586e-20)
(1.27081 0.128682 4.91042e-20)
(1.30254 0.134165 -1.40025e-19)
(1.31351 0.134739 -1.8849e-19)
(1.31164 0.132039 -1.17129e-19)
(1.30303 0.127465 9.57378e-20)
(1.29161 0.121983 2.24621e-19)
(1.2796 0.115909 -1.06059e-19)
(1.26783 0.110346 -1.57246e-19)
(1.25741 0.102052 2.26452e-20)
(0.0125807 -0.00323325 8.47997e-20)
(0.0647743 -0.0117138 2.00365e-20)
(0.14805 -0.0144268 -2.5091e-19)
(0.261628 -0.0112872 3.34684e-19)
(0.403017 -0.00115894 7.54768e-20)
(0.56591 0.0165527 -3.95402e-19)
(0.739039 0.0408069 1.5199e-19)
(0.907114 0.068744 -1.99547e-19)
(1.05438 0.0962933 9.20266e-21)
(1.16942 0.11954 3.19907e-20)
(1.24823 0.136036 9.22212e-20)
(1.29398 0.145267 1.00354e-20)
(1.31419 0.148252 3.88362e-19)
(1.31746 0.14673 1.47861e-19)
(1.31111 0.142427 -6.98864e-20)
(1.30023 0.136646 -7.73492e-20)
(1.28782 0.130179 4.19297e-20)
(1.2754 0.123333 4.22885e-20)
(1.26347 0.116852 -6.73775e-20)
(1.25279 0.108135 -7.14748e-20)
(0.0183611 -0.00439574 -9.94379e-20)
(0.0834676 -0.013635 6.72957e-21)
(0.181186 -0.0148 5.13559e-20)
(0.309779 -0.00826749 -1.40709e-19)
(0.464989 0.0066279 2.72317e-19)
(0.637948 0.0296973 1.57078e-19)
(0.814704 0.0587556 -1.58663e-19)
(0.978501 0.089813 -1.04943e-19)
(1.11447 0.118233 9.46038e-20)
(1.21422 0.140346 -1.46048e-19)
(1.27742 0.154497 1.06433e-19)
(1.31002 0.161047 -2.48246e-21)
(1.32078 0.161623 2.92569e-21)
(1.31819 0.15821 -7.40204e-20)
(1.30867 0.152501 2.07225e-19)
(1.29631 0.145652 -1.63847e-20)
(1.2833 0.138292 8.07258e-20)
(1.27065 0.130712 -1.13813e-19)
(1.25864 0.123357 8.34901e-20)
(1.24777 0.114247 -3.2327e-20)
(0.0250336 -0.00532513 1.63294e-19)
(0.104428 -0.014665 1.98398e-19)
(0.217446 -0.0134807 1.47669e-19)
(0.361131 -0.00277254 -2.14201e-20)
(0.529118 0.0174375 3.04405e-20)
(0.709819 0.0459377 2.37474e-21)
(0.886969 0.0792757 3.42902e-19)
(1.04333 0.112479 -1.01032e-19)
(1.16603 0.140715 7.04501e-20)
(1.25019 0.160898 -3.52724e-19)
(1.29892 0.172312 5.07247e-20)
(1.32026 0.176135 1.48722e-19)
(1.32349 0.174448 -6.74009e-20)
(1.31654 0.169332 1.35004e-19)
(1.30483 0.16237 -1.68505e-19)
(1.29153 0.154544 2.25144e-19)
(1.27817 0.146346 7.19674e-21)
(1.26542 0.138046 -6.9099e-20)
(1.25338 0.129848 2.68621e-21)
(1.24237 0.12036 9.62996e-20)
(0.0326156 -0.00593396 -3.08312e-19)
(0.127589 -0.0145798 7.91925e-20)
(0.256539 -0.0101788 -3.10219e-20)
(0.41503 0.0054604 -2.2828e-19)
(0.594316 0.0313899 -8.46264e-20)
(0.78013 0.0651629 -1.62206e-19)
(0.95453 0.102044 -1.40782e-19)
(1.10088 0.136348 -1.50337e-19)
(1.20914 0.163434 1.53667e-19)
(1.27816 0.181069 7.4968e-20)
(1.31393 0.189518 -2.16353e-19)
(1.32587 0.19066 -5.20656e-20)
(1.32324 0.186873 -2.44503e-20)
(1.31312 0.180217 -1.01576e-19)
(1.29993 0.172108 -1.66642e-20)
(1.28604 0.163357 -3.90647e-20)
(1.27251 0.154351 -1.53887e-19)
(1.25973 0.145327 7.20327e-20)
(1.24771 0.136313 8.439e-20)
(1.23661 0.12645 -2.08979e-20)
(0.0410998 -0.006128 1.11706e-20)
(0.152814 -0.0131532 -1.44134e-19)
(0.298068 -0.00462622 6.75256e-20)
(0.470705 0.0166337 -4.74308e-20)
(0.659442 0.0485103 5.86166e-20)
(0.847591 0.0871703 2.67266e-19)
(1.01638 0.126703 -1.15774e-19)
(1.15079 0.161062 2.85766e-19)
(1.24422 0.186164 1.35624e-20)
(1.29902 0.200802 1.39164e-19)
(1.32351 0.206184 1.20315e-20)
(1.32781 0.204748 9.30736e-20)
(1.32071 0.199019 1.84064e-20)
(1.30833 0.190946 8.87984e-21)
(1.29417 0.181758 -1.29396e-19)
(1.27994 0.172108 2.22063e-20)
(1.26634 0.162301 1.11419e-19)
(1.25358 0.152542 5.88134e-21)
(1.24162 0.142732 -4.97677e-20)
(1.23048 0.13249 1.99155e-20)
(0.0504521 -0.00580992 3.77489e-20)
(0.179894 -0.0101667 1.16898e-19)
(0.341531 0.00340952 1.27297e-19)
(0.527296 0.0308779 -3.53667e-20)
(0.723354 0.0687317 1.67034e-19)
(0.911081 0.111688 -3.37422e-20)
(1.07182 0.152886 2.72218e-19)
(1.19306 0.186313 -3.43987e-19)
(1.27186 0.208745 -6.01167e-20)
(1.31372 0.220085 -6.00613e-20)
(1.32861 0.222393 -7.16615e-20)
(1.32682 0.218508 -1.68138e-20)
(1.31639 0.210974 2.36518e-20)
(1.30243 0.201573 -8.43801e-20)
(1.28766 0.191341 8.60803e-20)
(1.27326 0.180796 -3.65712e-20)
(1.25968 0.170185 -2.74447e-20)
(1.247 0.159674 -2.41851e-20)
(1.23513 0.149088 -1.47205e-20)
(1.224 0.138454 -4.45738e-20)
(0.0606104 -0.00488339 1.78648e-19)
(0.208548 -0.00541999 -1.7988e-19)
(0.386343 0.0141121 2.16082e-20)
(0.583893 0.0482437 -2.35535e-20)
(0.78497 0.0919018 -6.09088e-20)
(0.969684 0.138399 -1.24791e-19)
(1.12045 0.180242 -1.90662e-20)
(1.2279 0.211845 8.33036e-20)
(1.29274 0.231071 3.81968e-20)
(1.32311 0.238937 -4.56142e-20)
(1.33002 0.238226 5.11836e-20)
(1.32347 0.232024 -1.13457e-20)
(1.31061 0.222796 -9.89539e-20)
(1.2956 0.212122 1.42241e-19)
(1.28047 0.200858 3.88839e-20)
(1.26603 0.18941 -1.9434e-20)
(1.25254 0.177983 2.40041e-20)
(1.23997 0.166702 3.54264e-20)
(1.22824 0.155357 3.35534e-20)
(1.21716 0.144315 3.39562e-20)
(0.0714848 -0.0032573 -1.85925e-19)
(0.238433 0.00125834 1.49937e-19)
(0.431849 0.0276053 6.59658e-20)
(0.639574 0.0686991 -1.36059e-19)
(0.843313 0.117795 -2.94931e-20)
(1.0227 0.166958 -1.13522e-19)
(1.1621 0.208445 4.52689e-20)
(1.25568 0.237451 -7.49248e-20)
(1.30757 0.253073 5.82182e-21)
(1.32796 0.257386 1.1961e-20)
(1.32836 0.253748 2.21904e-20)
(1.31818 0.245352 -8.37847e-20)
(1.3036 0.234512 8.45345e-20)
(1.28793 0.222594 -5.98279e-20)
(1.27263 0.210294 -1.64124e-20)
(1.25825 0.197928 7.34475e-21)
(1.24489 0.185669 -1.65021e-20)
(1.2325 0.173602 -3.66258e-20)
(1.22096 0.161516 -1.68839e-21)
(1.20996 0.150046 -2.2908e-20)
(0.0829584 -0.000850129 -2.30138e-20)
(0.26915 0.0100017 -7.05188e-20)
(0.477353 0.0439447 -2.4287e-20)
(0.693439 0.0921305 3.90471e-20)
(0.897538 0.146128 -2.42165e-20)
(1.06966 0.197011 2.50728e-20)
(1.19682 0.237199 5.86609e-20)
(1.27689 0.262963 5.18559e-20)
(1.31703 0.274706 4.08694e-20)
(1.32894 0.275462 -8.81157e-21)
(1.32414 0.269004 -2.35326e-20)
(1.31125 0.258522 2.76001e-20)
(1.2955 0.246126 -1.34908e-20)
(1.27945 0.232976 1.66543e-20)
(1.26415 0.219625 -9.86523e-21)
(1.24991 0.206323 2.07251e-20)
(1.23675 0.193217 -5.61835e-21)
(1.22459 0.180348 2.30707e-20)
(1.21327 0.167539 -5.02023e-21)
(1.20241 0.155617 3.31513e-21)
(0.09489 0.00240612 -5.2568e-22)
(0.300255 0.0208976 -3.26966e-22)
(0.522138 0.0631134 -8.47712e-21)
(0.744649 0.118349 4.26115e-20)
(0.946954 0.176571 2.75396e-20)
(1.11026 0.228205 -2.11549e-20)
(1.22479 0.266235 -1.58819e-20)
(1.29205 0.288242 -4.89598e-21)
(1.32176 0.295936 -2.29624e-20)
(1.32658 0.29318 -1.40137e-21)
(1.31772 0.284017 9.08213e-22)
(1.30289 0.271536 -9.67654e-21)
(1.2864 0.257621 -6.16172e-21)
(1.27021 0.243237 -1.3737e-20)
(1.25502 0.228818 -1.42528e-20)
(1.24099 0.214561 -1.11057e-21)
(1.2281 0.200591 4.98043e-21)
(1.21622 0.186912 5.08621e-21)
(1.20518 0.173398 5.69699e-21)
(1.19452 0.161001 7.6703e-21)
(0.107118 0.0065623 2.78315e-20)
(0.331276 0.0339816 -4.51836e-21)
(0.565496 0.0850211 -7.92174e-21)
(0.792446 0.147097 2.01936e-20)
(0.991023 0.208765 4.03861e-20)
(1.14439 0.260196 -1.78445e-20)
(1.24629 0.295313 -1.44163e-20)
(1.30166 0.313167 -2.66166e-20)
(1.32229 0.31673 -2.34953e-20)
(1.32133 0.310542 4.49899e-21)
(1.30938 0.298785 -3.85518e-21)
(1.29322 0.284376 -1.52405e-21)
(1.27635 0.268964 -8.77032e-21)
(1.2602 0.253335 -1.36834e-20)
(1.24523 0.23783 -2.91277e-21)
(1.23151 0.222602 -1.10889e-21)
(1.21895 0.207756 -4.40155e-22)
(1.20741 0.193262 2.37481e-21)
(1.19671 0.179058 8.36089e-21)
(1.18628 0.166167 6.04546e-21)
(0.119462 0.0116491 -1.69814e-20)
(0.361725 0.0492342 -2.70434e-20)
(0.606745 0.109506 -3.6108e-20)
(0.836173 0.178063 4.81172e-20)
(1.02936 0.242328 4.54174e-20)
(1.17205 0.292649 3.09335e-22)
(1.26167 0.324212 1.66628e-20)
(1.30623 0.337631 4.60166e-20)
(1.31911 0.337047 4.93026e-20)
(1.31352 0.327532 3.07099e-20)
(1.29932 0.313283 -7.3871e-20)
(1.28234 0.297002 3.02525e-20)
(1.26536 0.280105 -1.25714e-20)
(1.24942 0.263222 2.96102e-20)
(1.23479 0.246614 -6.68451e-22)
(1.22144 0.230404 -4.52724e-21)
(1.20928 0.214674 2.52359e-21)
(1.19816 0.199365 1.99417e-20)
(1.18783 0.184484 -7.61455e-21)
(1.17772 0.171082 -9.61161e-22)
(0.131734 0.0176751 -5.52883e-20)
(0.391114 0.0665795 1.30018e-19)
(0.645254 0.136341 1.27505e-20)
(0.875285 0.210887 -1.64603e-19)
(1.06172 0.276872 -2.9453e-20)
(1.19337 0.325246 6.86412e-20)
(1.2713 0.352729 -1.56089e-19)
(1.30623 0.361529 -9.26976e-22)
(1.31261 0.356838 1.24262e-20)
(1.30344 0.344112 -3.53146e-21)
(1.28769 0.327468 3.87761e-20)
(1.2703 0.30936 -6.06176e-20)
(1.25346 0.290985 9.19937e-21)
(1.23788 0.272839 -1.91936e-20)
(1.22367 0.255118 -1.38739e-20)
(1.21079 0.23792 1.34394e-20)
(1.1991 0.221303 -1.16361e-21)
(1.18846 0.205187 -3.09556e-20)
(1.17857 0.189641 1.31608e-21)
(1.16881 0.17571 -1.0769e-20)
(0.143735 0.024625 4.17624e-20)
(0.41897 0.0858861 -7.40108e-20)
(0.680456 0.165238 -5.99599e-21)
(0.90935 0.245176 -1.39133e-19)
(1.08797 0.312001 -8.2609e-20)
(1.20852 0.35768 6.75743e-20)
(1.27555 0.380669 -7.68633e-20)
(1.30205 0.384753 8.31761e-21)