/*--------------------------------*- C++ -*----------------------------------*\
  =========                 |
  \\      /  F ield         | OpenFOAM: The Open Source CFD Toolbox
   \\    /   O peration     | Website:  https://openfoam.org
    \\  /    A nd           | Version:  7
     \\/     M anipulation  |
\*---------------------------------------------------------------------------*/
FoamFile
{
    version     2.0;
    format      ascii;
    class       volVectorField;
    location    "0.1";
    object      U;
}
// * * * * * * * * * * * * * * * * * * * * * * * * * * * * * * * * * * * * * //

dimensions      [0 1 -1 0 0 0 0];

internalField   nonuniform List<vector> 
4032
(
(3 4.52701e-18 0)
(3 1.01871e-16 0)
(3 9.17253e-17 0)
(3 -9.69533e-17 0)
(3 -8.05331e-17 0)
(3 -8.10373e-17 0)
(3 -7.03044e-17 0)
(3 3.04954e-16 0)
(3 5.33446e-16 0)
(3 3.08606e-16 0)
(3 1.43873e-16 0)
(3 7.48229e-17 0)
(3 4.20966e-16 0)
(3 8.74666e-16 0)
(3 1.28969e-15 0)
(3 1.35953e-15 0)
(3 9.04089e-16 0)
(3 4.17246e-16 0)
(3 -4.67808e-16 0)
(3 -6.63949e-16 0)
(1.9282 5.15043e-05 0)
(-0.0628384 0.000320468 0)
(-0.490038 0.000725895 0)
(-0.146863 0.00125506 0)
(3 3.24644e-16 0)
(3 9.74926e-16 0)
(3 1.42853e-15 0)
(3 6.98589e-16 0)
(3 5.43007e-16 0)
(3 3.73673e-16 0)
(3 4.92055e-16 0)
(3 6.7898e-16 0)
(3 7.89914e-16 0)
(3 1.67909e-16 0)
(3 -2.52563e-16 0)
(3 -4.03606e-16 0)
(3 -6.38451e-16 0)
(3 3.93147e-16 0)
(3 1.42729e-15 0)
(3 1.79838e-15 0)
(3 8.44789e-16 0)
(3 6.72949e-16 0)
(3 1.06084e-16 0)
(3 -4.17398e-16 0)
(1.9322 0.00280591 0)
(-0.0573117 0.0100113 0)
(-0.485995 0.0160459 0)
(-0.146058 0.0232809 0)
(3 3.50318e-16 0)
(3 8.50589e-16 0)
(3 5.89531e-16 0)
(3 2.23117e-16 0)
(3 3.1473e-16 0)
(3 1.39435e-16 0)
(3 1.9522e-16 0)
(3 7.20804e-16 0)
(3 7.87311e-16 0)
(3 7.71024e-16 0)
(3 3.95619e-16 0)
(3 -2.60192e-18 0)
(3 -4.16704e-16 0)
(3 -7.27194e-16 0)
(3 -7.93851e-16 0)
(3 -2.1551e-16 0)
(3 4.37109e-16 0)
(3 8.31931e-16 0)
(3 7.38781e-16 0)
(3 4.28183e-16 0)
(1.97797 0.0231267 0)
(-0.0262151 0.0597488 0)
(-0.469933 0.0723196 0)
(-0.142635 0.089487 0)
(3 -2.35623e-16 0)
(3 -9.96753e-16 0)
(3 -1.14654e-15 0)
(3 -7.89202e-16 0)
(3 -8.25275e-17 0)
(3 1.88743e-16 0)
(3 -7.17139e-17 0)
(3 1.8229e-16 0)
(3 3.47784e-16 0)
(3 5.21186e-16 0)
(3 3.34738e-16 0)
(3 2.21759e-16 0)
(3 2.39953e-16 0)
(3 4.12815e-17 0)
(3 3.72948e-17 0)
(3 -6.59478e-17 0)
(3 8.47259e-18 0)
(3 -3.85591e-17 0)
(3 1.96034e-17 0)
(3 -1.55339e-16 0)
(2.13543 0.0635183 0)
(0.0565054 0.166641 0)
(-0.434956 0.168009 0)
(-0.134054 0.185758 0)
(3 1.76863e-16 0)
(3 -2.83666e-17 0)
(3 3.09676e-16 0)
(3 2.02109e-16 0)
(3 -2.6696e-16 0)
(3 -2.77263e-16 0)
(3 -2.71221e-16 0)
(3 -1.09725e-15 0)
(3 -1.0331e-15 0)
(3 -1.38662e-17 0)
(3 3.48725e-16 0)
(3 -9.4297e-17 0)
(3 -5.69232e-18 0)
(3 7.11889e-16 0)
(3 1.58732e-15 0)
(3 1.23199e-15 0)
(3 2.63746e-16 0)
(3 3.439e-16 0)
(3 -1.08984e-16 0)
(3 -7.67011e-16 0)
(2.42206 0.0889425 0)
(0.218923 0.305045 0)
(-0.362611 0.279299 0)
(-0.111401 0.288982 0)
(3 -4.65674e-17 0)
(3 2.32366e-17 0)
(3 1.43034e-17 0)
(3 -2.93327e-16 0)
(3 -1.04528e-15 0)
(3 -1.74281e-15 0)
(3 -1.48821e-15 0)
(3 -7.6032e-16 0)
(3 -7.98921e-16 0)
(3 -4.53786e-16 0)
(3 2.33021e-16 0)
(3 2.36581e-16 0)
(3 8.36018e-17 0)
(3 1.20278e-16 0)
(3 3.83211e-16 0)
(3 4.49265e-16 0)
(3 1.41841e-16 0)
(3 -4.11513e-17 0)
(3 9.09398e-17 0)
(3 2.15551e-16 0)
(2.75811 0.0609838 0)
(0.485745 0.46755 0)
(-0.250105 0.422844 0)
(-0.0723153 0.419991 0)
(3 -3.2968e-16 0)
(3 -1.92921e-16 0)
(3 3.67416e-16 0)
(3 1.28636e-16 0)
(3 -2.54588e-16 0)
(3 -1.04578e-15 0)
(3 -9.88082e-16 0)
(3 -5.08069e-16 0)
(3 -1.13425e-16 0)
(3 -7.4587e-18 0)
(3 -6.63802e-17 0)
(3 -1.47726e-16 0)
(3 -5.03213e-16 0)
(3 -3.82289e-16 0)
(3 -2.32793e-16 0)
(3 -1.72489e-16 0)
(3 3.15719e-16 0)
(3 2.26826e-16 0)
(3 4.8423e-16 0)
(3 9.59478e-16 0)
(2.99815 0.0035799 0)
(0.949205 0.629041 0)
(-0.0611541 0.556294 0)
(0.0559706 0.543244 0)
(3 3.24539e-16 0)
(3 1.19361e-15 0)
(3 1.36203e-15 0)
(3 1.09577e-15 0)
(3 1.02203e-15 0)
(3 7.2025e-16 0)
(3 6.35248e-16 0)
(3 -6.13311e-17 0)
(3 3.3714e-16 0)
(3 3.07006e-16 0)
(3 7.67659e-17 0)
(3 -7.16311e-16 0)
(3 -6.72381e-16 0)
(3 -5.0334e-16 0)
(3 -1.00141e-15 0)
(3 -8.66674e-16 0)
(3 -4.3415e-16 0)
(3 2.86684e-16 0)
(3 -4.49317e-16 0)
(3 -6.71084e-18 0)
(3 1.37021e-06 0)
(1.79436 0.629968 0)
(0.151185 0.758641 0)
(0.155631 0.892659 0)
(3 2.62313e-17 0)
(3 1.38867e-16 0)
(3 -3.81125e-16 0)
(3 -8.73757e-16 0)
(3 -6.97281e-16 0)
(3 3.90034e-16 0)
(3 6.8812e-16 0)
(3 6.3951e-16 0)
(3 2.72521e-16 0)
(3 3.94592e-16 0)
(3 4.36929e-16 0)
(3 -3.68532e-17 0)
(3 -6.73814e-16 0)
(3 -8.54595e-16 0)
(3 -6.49449e-16 0)
(3 2.76098e-17 0)
(3 6.68697e-17 0)
(3 -1.98884e-16 0)
(3 -8.68953e-16 0)
(3 -5.49634e-16 0)
(3 4.08997e-12 0)
(2.90423 0.164637 0)
(0.987684 0.980666 0)
(0.612383 1.42074 0)
(3 1.49646e-16 0)
(3 -4.20589e-16 0)
(3 -8.58869e-16 0)
(3 -9.87792e-16 0)
(3 -8.71424e-16 0)
(3 -3.26248e-16 0)
(3 5.74202e-16 0)
(3 8.54438e-16 0)
(3 4.7197e-16 0)
(3 2.25955e-16 0)
(3 1.00947e-16 0)
(3 -3.9075e-16 0)
(3 -1.11079e-15 0)
(3 -4.77226e-16 0)
(3 -1.9381e-16 0)
(3 1.93516e-16 0)
(3 3.68199e-16 0)
(3 7.57555e-16 0)
(3 5.06532e-16 0)
(3 -1.61997e-16 0)
(3 -7.00665e-16 0)
(3.0032 0.00275169 0)
(2.34606 0.611726 0)
(1.20873 1.34817 0)
(3 -1.05177e-16 0)
(3 -3.47979e-16 0)
(3 2.59582e-16 0)
(3 1.06951e-15 0)
(3 1.15522e-15 0)
(3 9.35757e-16 0)
(3 9.89698e-16 0)
(3 8.49245e-16 0)
(3 9.47735e-16 0)
(3 1.53062e-16 0)
(3 -3.22345e-16 0)
(3 -4.55837e-16 0)
(3 2.44487e-16 0)
(3 2.10317e-16 0)
(3 -9.54987e-16 0)
(3 -9.97094e-16 0)
(3 2.13933e-16 0)
(3 7.73321e-16 0)
(3 1.24166e-15 0)
(3 4.32741e-16 0)
(3 -3.03705e-16 0)
(3 2.48173e-06 0)
(3.02819 0.0580923 0)
(1.90768 1.00089 0)
(3 -2.03572e-16 0)
(3 1.73598e-16 0)
(3 5.67642e-16 0)
(3 7.83309e-16 0)
(3 9.59134e-16 0)
(3 5.85546e-16 0)
(3 3.1599e-16 0)
(3 -1.75826e-16 0)
(3 -1.72552e-16 0)
(3 -4.08902e-16 0)
(3 -4.78657e-16 0)
(3 1.0196e-16 0)
(3 2.15572e-17 0)
(3 -4.87247e-16 0)
(3 -1.0642e-15 0)
(3 -5.48573e-16 0)
(3 2.06404e-16 0)
(3 3.99606e-16 0)
(3 1.05864e-15 0)
(3 1.01185e-15 0)
(3 1.34718e-15 0)
(3 4.62583e-11 0)
(3.0011 0.000619154 0)
(2.83523 0.231147 0)
(3 1.65318e-16 0)
(3 1.36682e-16 0)
(3 -1.39328e-16 0)
(3 -4.70586e-16 0)
(3 -6.69957e-16 0)
(3 -5.96616e-16 0)
(3 -3.71021e-16 0)
(3 -6.21298e-16 0)
(3 -4.22561e-16 0)
(3 -7.38687e-17 0)
(3 -2.36311e-16 0)
(3 6.41457e-17 0)
(3 -2.86159e-16 0)
(3 -7.28707e-16 0)
(3 -4.87139e-16 0)
(3 -2.9155e-17 0)
(3 -3.27133e-16 0)
(3 -2.76152e-16 0)
(3 -9.95621e-17 0)
(3 2.75459e-16 0)
(3 6.6944e-16 0)
(3 6.56808e-16 0)
(3 3.71435e-07 0)
(2.99895 0.00662683 0)
(3 2.36371e-16 0)
(3 4.70161e-16 0)
(3 1.26995e-16 0)
(3 -1.04285e-15 0)
(3 -1.36692e-15 0)
(3 -1.08822e-15 0)
(3 -1.13856e-15 0)
(3 -6.97231e-16 0)
(3 -5.15154e-16 0)
(3 -2.18642e-16 0)
(3 2.69748e-16 0)
(3 4.4506e-16 0)
(3 9.90386e-16 0)
(3 1.24948e-15 0)
(3 1.3182e-15 0)
(3 8.89831e-16 0)
(3 5.12192e-17 0)
(3 -7.1081e-16 0)
(3 -8.37389e-16 0)
(3 -6.35637e-16 0)
(3 -1.33439e-15 0)
(3 -1.83943e-15 0)
(3 9.92997e-12 0)
(3 1.74882e-05 0)
(3 1.79232e-16 0)
(3 1.15952e-16 0)
(3 -7.80276e-16 0)
(3 -9.27783e-16 0)
(3 -8.73111e-16 0)
(3 -8.07684e-16 0)
(3 -1.4033e-15 0)
(3 -1.13928e-15 0)
(3 -1.47549e-15 0)
(3 -1.5141e-15 0)
(3 -7.64116e-16 0)
(3 -1.56871e-16 0)
(3 3.83403e-16 0)
(3 1.61409e-15 0)
(3 1.81045e-15 0)
(3 1.1808e-15 0)
(3 4.73214e-16 0)
(3 5.63168e-17 0)
(3 -2.21073e-16 0)
(3 -2.07607e-16 0)
(3 -2.29334e-16 0)
(3 -3.24148e-16 0)
(3 1.8583e-16 0)
(3 3.01058e-09 0)
(3 -3.34548e-16 0)
(3 -9.20176e-16 0)
(3 -1.5621e-15 0)
(3 -1.12898e-15 0)
(3 1.53523e-16 0)
(3 1.72108e-16 0)
(3 -5.05387e-16 0)
(3 -1.01017e-15 0)
(3 -1.19689e-15 0)
(3 -1.08012e-15 0)
(3 -1.06631e-15 0)
(3 -9.88238e-17 0)
(3 1.52203e-16 0)
(3 6.46111e-16 0)
(3 9.21547e-16 0)
(3 1.79003e-15 0)
(3 1.62529e-15 0)
(3 1.62401e-15 0)
(3 1.21883e-15 0)
(3 7.98294e-16 0)
(3 8.70146e-16 0)
(3 1.29138e-15 0)
(3 1.09954e-15 0)
(3 9.08248e-14 0)
(3 -2.16909e-16 0)
(3 -4.15773e-17 0)
(3 4.01049e-16 0)
(3 5.98129e-16 0)
(3 5.73259e-16 0)
(3 5.69931e-16 0)
(3 1.88979e-16 0)
(3 -2.24013e-16 0)
(3 -4.01242e-16 0)
(3 -5.95406e-16 0)
(3 -8.3689e-16 0)
(3 -6.47711e-16 0)
(3 -3.54638e-16 0)
(3 -4.93186e-16 0)
(3 4.14653e-17 0)
(3 1.11863e-15 0)
(3 2.07693e-15 0)
(3 1.95142e-15 0)
(3 1.48217e-15 0)
(3 1.19637e-15 0)
(3 1.05061e-15 0)
(3 1.40749e-15 0)
(3 1.4848e-15 0)
(3 1.00932e-15 0)
(3 2.88577e-16 0)
(3 3.39409e-16 0)
(3 7.63812e-16 0)
(3 7.3637e-16 0)
(3 5.60229e-18 0)
(3 -7.45102e-16 0)
(3 -1.02985e-15 0)
(3 -6.4895e-16 0)
(3 -5.04417e-17 0)
(3 -1.1209e-16 0)
(3 -1.05147e-15 0)
(3 -1.79361e-15 0)
(3 -1.4491e-15 0)
(3 -3.16684e-16 0)
(3 6.13778e-17 0)
(3 -2.51347e-16 0)
(3 2.15591e-17 0)
(3 4.37962e-16 0)
(3 4.6419e-16 0)
(3 1.03697e-15 0)
(3 1.46597e-15 0)
(3 1.33809e-15 0)
(3 1.17996e-15 0)
(3 3.14301e-16 0)
(3 -4.59213e-18 0)
(3 5.91309e-18 0)
(3 -1.68584e-17 0)
(3 -2.74551e-16 0)
(3 -7.95328e-16 0)
(3 -1.37556e-15 0)
(3 -1.21929e-15 0)
(3 -8.72784e-16 0)
(3 -5.46887e-16 0)
(3 -1.99102e-16 0)
(3 -1.81046e-16 0)
(3 -4.79041e-16 0)
(3 -3.63823e-17 0)
(3 4.8452e-16 0)
(3 2.30418e-16 0)
(3 -1.33478e-15 0)
(3 -2.49618e-15 0)
(3 -1.5313e-15 0)
(3 -5.86002e-16 0)
(3 2.55315e-17 0)
(3 4.93861e-16 0)
(3 5.34881e-16 0)
(3 3.79568e-16 0)
(3 1.40101e-16 0)
(3 7.49222e-17 0)
(3 3.37812e-16 0)
(3 4.73765e-16 0)
(3 4.53193e-16 0)
(3 2.18513e-16 0)
(3 3.78422e-16 0)
(3 1.01083e-15 0)
(3 6.60644e-16 0)
(3 -1.14462e-16 0)
(3 -2.74155e-16 0)
(3 -2.3727e-17 0)
(3 8.44358e-16 0)
(3 -1.75292e-17 0)
(3 -8.89624e-16 0)
(3 -8.26577e-16 0)
(3 -1.21738e-15 0)
(3 -1.8425e-15 0)
(3 -1.8066e-15 0)
(3 -9.24837e-16 0)
(3 -1.97671e-16 0)
(3 -1.8554e-16 0)
(3 -6.5553e-16 0)
(3 -2.7085e-16 0)
(3 1.06688e-16 0)
(3 6.27564e-17 0)
(3 1.64192e-16 0)
(3 2.81464e-16 0)
(3 3.14259e-16 0)
(3 1.11198e-15 0)
(3 1.92294e-15 0)
(3 2.25008e-15 0)
(3 2.1929e-15 0)
(3 1.35111e-15 0)
(3 7.75317e-16 0)
(3 1.37643e-16 0)
(3 -1.78488e-16 0)
(3 -6.56806e-16 0)
(3 -1.0808e-15 0)
(3 -1.01594e-15 0)
(3 -8.74545e-16 0)
(3 -6.926e-16 0)
(3 -1.25233e-15 0)
(3 -1.65053e-15 0)
(3 -9.0915e-16 0)
(3 -3.89162e-16 0)
(3 -4.88353e-16 0)
(3 -4.2574e-16 0)
(3 1.78669e-17 0)
(3 -2.09741e-16 0)
(3 -3.87573e-16 0)
(3 -2.70931e-16 0)
(3 -1.23467e-16 0)
(3 1.84098e-16 0)
(3 6.89855e-16 0)
(3 8.26803e-16 0)
(3 9.96274e-16 0)
(3 5.67624e-16 0)
(3 3.05304e-16 0)
(3 6.13302e-16 0)
(3 -2.7511e-16 0)
(3 -7.66266e-16 0)
(3 -1.68911e-15 0)
(3 -1.87795e-15 0)
(3 -1.3346e-15 0)
(3 -1.0855e-15 0)
(3 -1.14454e-15 0)
(3 -1.20682e-15 0)
(3 -1.96184e-15 0)
(3 -1.51048e-15 0)
(3 -1.29744e-16 0)
(3 1.5923e-16 0)
(3 3.64619e-16 0)
(3 -2.0094e-17 0)
(3 2.31471e-17 0)
(3 9.01807e-17 0)
(3 4.15252e-16 0)
(3 -3.73229e-16 0)
(3 -5.03757e-16 0)
(3 -9.054e-16 0)
(3 9.19502e-18 0)
(3 2.16726e-16 0)
(3 -6.1797e-16 0)
(3 -7.029e-16 0)
(3 -1.03886e-15 0)
(3 -1.54035e-15 0)
(3 -1.75212e-15 0)
(3 -1.49146e-15 0)
(3 -1.21084e-15 0)
(3 -2.58545e-16 0)
(3 3.4702e-16 0)
(3 5.25042e-16 0)
(3 -5.18137e-16 0)
(3 -6.82215e-16 0)
(3 -3.69283e-16 0)
(3 -3.42606e-16 0)
(3 -3.80374e-16 0)
(3 -9.81963e-17 0)
(3 1.3996e-16 0)
(3 1.11322e-16 0)
(3 5.2517e-17 0)
(3 5.61683e-17 0)
(3 1.98678e-16 0)
(3 -4.0206e-17 0)
(3 -6.86147e-16 0)
(3 -1.00339e-15 0)
(3 -7.87255e-16 0)
(3 -1.74648e-15 0)
(3 -1.95435e-15 0)
(3 -1.76894e-15 0)
(3 -4.94179e-16 0)
(3 6.32182e-17 0)
(3 -1.83512e-16 0)
(3 8.71503e-17 0)
(3 1.81515e-15 0)
(3 2.24206e-15 0)
(3 2.13074e-15 0)
(3 1.19399e-15 0)
(3 3.67444e-16 0)
(3 -2.13517e-16 0)
(3 -4.91454e-16 0)
(3 -1.82542e-16 0)
(3 -4.39327e-16 0)
(3 -4.34647e-16 0)
(3 -8.32329e-16 0)
(3 -5.01754e-16 0)
(3 -4.87342e-16 0)
(3 -5.55054e-16 0)
(3 -6.5423e-16 0)
(3 -9.14426e-16 0)
(3 -1.3342e-15 0)
(3 -1.51733e-15 0)
(3 -1.82129e-15 0)
(3 -7.49994e-16 0)
(3 -3.3664e-16 0)
(3 -2.1506e-16 0)
(3 1.16441e-16 0)
(3 1.87867e-16 0)
(3 6.11326e-16 0)
(3 1.34889e-15 0)
(3 1.29619e-15 0)
(3 1.21451e-15 0)
(3 7.2648e-16 0)
(3 5.90713e-16 0)
(3 4.73344e-16 0)
(3 7.42018e-17 0)
(3 -7.0075e-18 0)
(3 -2.89682e-16 0)
(3 -4.01803e-16 0)
(3 -2.47369e-16 0)
(3 -5.16217e-16 0)
(3 -1.05959e-15 0)
(3 -9.70267e-16 0)
(3 -6.94717e-16 0)
(3 -6.39196e-16 0)
(3 -7.10165e-16 0)
(3 -2.48358e-16 0)
(3 2.08388e-16 0)
(3 -1.74587e-16 0)
(3 -6.96619e-16 0)
(3 -4.24584e-16 0)
(3 4.64731e-16 0)
(3 -1.18931e-16 0)
(3 -1.97251e-16 0)
(3 -2.60753e-16 0)
(3 1.3463e-16 0)
(3 3.88935e-16 0)
(3 1.81525e-16 0)
(3 -1.5469e-16 0)
(3 3.56258e-17 0)
(3 2.26233e-16 0)
(3 -9.89477e-17 0)
(3 1.17519e-16 0)
(3 -1.61682e-17 0)
(3 1.69537e-16 0)
(3 -1.7484e-16 0)
(3 -4.35999e-16 0)
(3 -4.44503e-16 0)
(3 4.00988e-16 0)
(3 9.03693e-16 0)
(3 1.09596e-15 0)
(3 3.93323e-16 0)
(3 -2.40367e-16 0)
(3 -3.04189e-16 0)
(3 1.50169e-16 0)
(3 6.82976e-16 0)
(3 4.03147e-17 0)
(3 -7.29175e-16 0)
(3 -7.80699e-16 0)
(3 -4.74777e-16 0)
(3 -1.30527e-16 0)
(3 -1.03901e-16 0)
(3 -3.97133e-16 0)
(3 5.90647e-17 0)
(3 2.21464e-16 0)
(3 3.91323e-16 0)
(3 5.67137e-16 0)
(3 6.07988e-16 0)
(3 1.38641e-16 0)
(3 6.59495e-17 0)
(3 4.01284e-16 0)
(3 3.17919e-16 0)
(3 3.99732e-16 0)
(3 4.14607e-16 0)
(3 6.83909e-17 0)
(3 2.83785e-16 0)
(3 8.03676e-16 0)
(3 6.34138e-16 0)
(3 4.28387e-16 0)
(3 4.73358e-16 0)
(3 4.13847e-16 0)
(3 -4.57841e-16 0)
(3 -8.76106e-16 0)
(3 -1.58448e-15 0)
(3 -1.88738e-15 0)
(3 -8.21706e-16 0)
(3 4.22298e-17 0)
(3 -2.72185e-17 0)
(3 3.31257e-17 0)
(3 8.46846e-16 0)
(3 1.10501e-15 0)
(3 5.72905e-16 0)
(3 2.98566e-16 0)
(3 2.14319e-16 0)
(3 -5.30379e-16 0)
(3 -3.16702e-16 0)
(3 -2.82497e-16 0)
(3 -2.95795e-16 0)
(3 -7.19384e-16 0)
(3 1.23891e-16 0)
(3 1.72343e-15 0)
(3 2.06417e-15 0)
(3 4.2307e-16 0)
(3 1.82269e-16 0)
(3 1.39668e-16 0)
(3 -2.9807e-16 0)
(3 -7.05338e-16 0)
(3 -7.15983e-16 0)
(3 -5.5539e-16 0)
(3 -1.00382e-16 0)
(3 8.69708e-17 0)
(3 -9.25082e-17 0)
(3 -4.29662e-16 0)
(3 -4.13471e-16 0)
(3 -3.71419e-16 0)
(3 -3.00741e-16 0)
(3 -2.6579e-16 0)
(3 -1.04303e-17 0)
(3 -3.4695e-16 0)
(3 -6.07473e-16 0)
(3 -1.07382e-15 0)
(3 -8.77935e-16 0)
(3 -4.02271e-16 0)
(3 -9.81748e-16 0)
(3 1.45066e-15 0)
(3 2.0936e-15 0)
(3 1.52804e-15 0)
(3 3.78342e-16 0)
(3 -6.58465e-17 0)
(3 -1.16874e-16 0)
(3 3.63685e-16 0)
(3 9.45369e-16 0)
(3 1.16986e-15 0)
(3 5.52369e-16 0)
(3 -6.0815e-16 0)
(3 3.89521e-17 0)
(3 1.59145e-16 0)
(3 -1.94251e-16 0)
(3 -5.81685e-16 0)
(3 -6.63265e-16 0)
(3 -1.00616e-15 0)
(3 -1.06248e-15 0)
(3 -2.97906e-16 0)
(3 -8.58245e-17 0)
(3 -7.22816e-16 0)
(3 -4.48909e-16 0)
(3 6.21496e-17 0)
(3 6.63894e-16 0)
(3 1.1103e-15 0)
(3 1.4522e-15 0)
(3 8.30043e-16 0)
(3 7.8101e-18 0)
(3 -7.3083e-16 0)
(3 -8.0285e-16 0)
(3 1.70156e-16 0)
(3 6.03547e-17 0)
(3 -5.46555e-16 0)
(3 -2.0375e-16 0)
(3 -2.04398e-16 0)
(3 1.18205e-16 0)
(3 3.13278e-17 0)
(3 -8.03479e-17 0)
(3 2.16361e-16 0)
(3 -1.30882e-16 0)
(3 -4.01461e-16 0)
(3 2.32629e-17 0)
(3 -2.42547e-17 0)
(3 -7.17855e-17 0)
(3 3.73364e-16 0)
(3 8.19698e-16 0)
(3 9.68803e-16 0)
(3 1.16324e-15 0)
(3 2.13579e-16 0)
(3 -1.73363e-16 0)
(3 -4.60754e-16 0)
(3 -9.48326e-17 0)
(3 5.98027e-16 0)
(3 2.48969e-16 0)
(3 4.12364e-17 0)
(3 -2.05844e-16 0)
(3 -2.79833e-16 0)
(3 2.61779e-16 0)
(3 8.57476e-16 0)
(3 1.65998e-16 0)
(3 5.32212e-18 0)
(3 -2.27395e-16 0)
(3 -4.07181e-16 0)
(3 -2.5481e-16 0)
(3 1.57626e-16 0)
(3 4.3221e-16 0)
(3 4.36648e-16 0)
(3 3.89809e-16 0)
(3 1.08077e-15 0)
(3 1.25729e-15 0)
(3 8.22964e-16 0)
(3 -3.44167e-17 0)
(3 -1.67142e-15 0)
(3 -2.74345e-15 0)
(3 -2.1476e-15 0)
(3 -1.19235e-18 0)
(3 1.26196e-15 0)
(3 1.5892e-15 0)
(3 1.23181e-15 0)
(3 9.15072e-16 0)
(3 9.14194e-16 0)
(3 7.60676e-16 0)
(3 1.0774e-15 0)
(3 -6.92633e-17 0)
(3 -9.99099e-17 0)
(3 -1.74273e-16 0)
(3 -8.63613e-16 0)
(3 -8.56886e-16 0)
(3 -2.98659e-17 0)
(3 2.09124e-16 0)
(3 2.32646e-16 0)
(3 9.09991e-16 0)
(3 1.47535e-15 0)
(3 1.49464e-15 0)
(3 8.53507e-16 0)
(3 4.16474e-16 0)
(3 -5.60046e-16 0)
(3 -1.64447e-15 0)
(3 -6.06389e-16 0)
(3 -5.89073e-17 0)
(3 9.02478e-16 0)
(3 9.86604e-16 0)
(3 7.38243e-16 0)
(3 -4.79828e-18 0)
(3 -5.05999e-16 0)
(3 -4.73969e-16 0)
(3 -3.6629e-16 0)
(3 -1.43727e-16 0)
(3 -1.5747e-16 0)
(3 -6.58736e-17 0)
(3 -2.42755e-16 0)
(3 -8.77594e-16 0)
(3 -1.16419e-15 0)
(3 -1.89494e-16 0)
(3 6.77094e-16 0)
(3 6.89655e-16 0)
(3 4.61629e-16 0)
(3 5.68086e-16 0)
(3 1.37654e-15 0)
(3 1.58428e-15 0)
(3 9.6461e-16 0)
(3 2.22786e-16 0)
(3 6.47172e-16 0)
(3 8.29881e-16 0)
(3 1.34823e-15 0)
(3 7.40626e-16 0)
(3 2.18709e-16 0)
(3 -3.30785e-16 0)
(3 -8.46045e-16 0)
(3 -1.29306e-15 0)
(3 -1.62907e-15 0)
(3 -6.97963e-17 0)
(3 -2.76891e-17 0)
(3 5.27199e-16 0)
(3 7.29138e-16 0)
(3 1.785e-16 0)
(3 -4.08365e-16 0)
(3 -6.57488e-16 0)
(3 -3.20972e-16 0)
(3 -2.3817e-16 0)
(3 -2.27326e-16 0)
(3 8.75101e-17 0)
(3 3.81493e-16 0)
(3 1.02366e-15 0)
(3 1.11036e-15 0)
(3 1.66602e-15 0)
(3 1.43954e-15 0)
(3 1.38045e-15 0)
(3 1.04701e-15 0)
(3 1.05294e-15 0)
(3 4.83077e-16 0)
(3 -1.07791e-16 0)
(3 -4.39307e-16 0)
(3 -4.95056e-16 0)
(3 -2.05959e-16 0)
(3 -1.13543e-16 0)
(3 -1.9966e-16 0)
(3 1.292e-16 0)
(3 1.144e-15 0)
(3 2.16503e-15 0)
(3 1.81295e-15 0)
(3 1.04481e-15 0)
(3 -2.3328e-16 0)
(3 -2.65008e-16 0)
(3 8.19454e-17 0)
(3 1.20053e-15 0)
(3 1.09995e-15 0)
(3 7.7294e-16 0)
(3 1.4384e-15 0)
(3 1.78513e-15 0)
(3 1.94519e-15 0)
(3 1.51071e-15 0)
(3 8.98467e-16 0)
(3 3.31128e-16 0)
(3 2.92548e-16 0)
(3 7.58252e-17 0)
(3 8.17662e-16 0)
(3 1.30742e-15 0)
(3 1.01461e-15 0)
(3 3.19216e-17 0)
(3 3.80542e-16 0)
(3 2.03061e-16 0)
(3 7.00471e-16 0)
(3 1.73413e-15 0)
(3 1.70708e-15 0)
(3 1.2723e-15 0)
(3 2.51839e-16 0)
(3 -2.42579e-16 0)
(3 -3.22084e-16 0)
(3 5.64488e-17 0)
(3 5.26682e-16 0)
(3 5.05375e-16 0)
(3 2.51045e-16 0)
(3 -3.306e-17 0)
(3 3.70137e-16 0)
(3 -2.14845e-17 0)
(3 -8.79129e-16 0)
(3 -1.42342e-15 0)
(3 -1.67115e-15 0)
(3 -1.10385e-17 0)
(3 8.58895e-16 0)
(3 6.44209e-16 0)
(3 4.54826e-16 0)
(3 -8.38637e-17 0)
(3 2.54964e-17 0)
(3 5.37828e-16 0)
(3 1.33015e-15 0)
(3 1.56683e-15 0)
(3 1.45668e-15 0)
(3 7.6677e-16 0)
(3 6.25511e-16 0)
(3 5.88874e-16 0)
(3 4.96978e-16 0)
(3 -5.4279e-16 0)
(3 -7.27759e-16 0)
(3 -5.2429e-16 0)
(3 -3.04746e-16 0)
(3 -5.07177e-17 0)
(3 -9.1067e-17 0)
(3 -9.64551e-16 0)
(3 -1.52698e-15 0)
(3 -1.9937e-15 0)
(3 -1.20864e-15 0)
(3 1.04345e-16 0)
(3 -1.34792e-16 0)
(3 -3.95009e-16 0)
(3 -5.35334e-16 0)
(3 -8.2418e-17 0)
(3 -4.6571e-16 0)
(3 9.1664e-18 0)
(3 1.17529e-15 0)
(3 1.55958e-15 0)
(3 1.07339e-15 0)
(3 1.04997e-15 0)
(3 1.07834e-15 0)
(3 1.28035e-15 0)
(3 1.45156e-15 0)
(3 5.56588e-16 0)
(3 8.51322e-17 0)
(3 -2.47901e-16 0)
(3 3.41436e-16 0)
(3 5.26383e-16 0)
(3 5.1586e-16 0)
(3 -5.09519e-16 0)
(3 -8.68547e-16 0)
(3 -7.68655e-16 0)
(3 -2.30464e-16 0)
(3 -1.65083e-16 0)
(3 -3.80166e-16 0)
(3 -2.38215e-16 0)
(3 -1.46644e-17 0)
(1.65347 1.18159 0)
(2.02281 1.3128 0)
(2.42096 1.07008 0)
(2.61582 0.800355 0)
(2.80042 0.644834 0)
(2.91909 0.484415 0)
(2.98816 0.325562 0)
(3.01816 0.245643 0)
(3.02256 0.158826 0)
(3.03426 0.0581068 0)
(3.04447 0.0120354 0)
(3.03766 0.00751494 0)
(3.02982 0.00715142 0)
(3.01284 0.00398262 0)
(3.00166 0.000570947 0)
(3.00002 7.22481e-06 0)
(3 -7.25863e-07 0)
(3 -4.71699e-07 0)
(3 -1.16943e-07 0)
(3 -2.60606e-09 0)
(3 1.27564e-10 0)
(3 5.03632e-11 0)
(3 2.50728e-12 0)
(3 -5.02541e-14 0)
(3 -1.92845e-14 0)
(3 -1.85296e-15 0)
(3 2.85025e-16 0)
(3 4.34898e-16 0)
(3 2.82965e-16 0)
(3 8.54945e-16 0)
(3 9.32754e-16 0)
(3 6.67637e-16 0)
(3 1.14063e-16 0)
(3 -6.58212e-16 0)
(3 -5.63842e-16 0)
(3 -3.00853e-16 0)
(3 -1.91904e-17 0)
(3 -3.62052e-16 0)
(3 -7.48819e-16 0)
(3 -8.74818e-16 0)
(3 -8.74325e-16 0)
(3 -5.98778e-16 0)
(3 -1.08153e-16 0)
(3 -5.54612e-17 0)
(3 -1.94142e-16 0)
(3 -3.76963e-16 0)
(3 -4.08329e-16 0)
(3 -4.24888e-16 0)
(3 -2.82683e-16 0)
(3 -4.45703e-16 0)
(3 -1.27635e-15 0)
(3 -1.89776e-15 0)
(3 -1.60252e-15 0)
(3 -1.61165e-15 0)
(3 -1.36405e-15 0)
(3 -1.37798e-15 0)
(3 -9.83466e-16 0)
(3 -5.04842e-16 0)
(3 -1.43996e-16 0)
(3 -1.43147e-16 0)
(3 7.03314e-16 0)
(3 1.08033e-15 0)
(3 1.29991e-15 0)
(3 7.7465e-16 0)
(3 -4.3492e-16 0)
(3 -1.97641e-15 0)
(3 -2.87667e-15 0)
(3 -2.57491e-15 0)
(3 -1.97655e-15 0)
(3 -1.53206e-16 0)
(3 6.16599e-17 0)
(3 5.70438e-17 0)
(3 -1.33924e-16 0)
(3 -3.43558e-16 0)
(3 6.99867e-16 0)
(3 1.88202e-15 0)
(3 1.63712e-15 0)
(3 1.4209e-15 0)
(3 1.11256e-15 0)
(3 1.00546e-15 0)
(3 6.30388e-16 0)
(3 2.51936e-18 0)
(3 -1.27723e-16 0)
(3 -1.01905e-16 0)
(3 -2.7139e-16 0)
(3 -1.98125e-16 0)
(3 -3.2285e-16 0)
(3 -2.8961e-16 0)
(3 1.8945e-16 0)
(3 5.04075e-16 0)
(3 7.15805e-16 0)
(3 2.79439e-16 0)
(3 2.15943e-16 0)
(3 -1.90552e-17 0)
(3 -2.45062e-16 0)
(3 -2.20933e-16 0)
(1.95736 1.28977 0)
(2.45342 1.05888 0)
(2.68741 0.712258 0)
(2.90269 0.334327 0)
(2.98818 0.160691 0)
(3.04401 0.0473418 0)
(3.10792 -0.00215868 0)
(3.13742 -0.000698227 0)
(3.14365 0.00707981 0)
(3.10467 0.0143732 0)
(3.07241 0.0168622 0)
(3.06053 0.0148362 0)
(3.03802 0.0102253 0)
(3.01049 0.003578 0)
(3.0007 0.000258012 0)
(3 -6.71951e-07 0)
(3 -1.54044e-06 0)
(3 -9.50104e-07 0)
(3 -1.8772e-07 0)
(3 -2.7054e-09 0)
(3 2.40582e-10 0)
(3 9.29425e-11 0)
(3 4.38773e-12 0)
(3 -7.38722e-14 0)
(3 -3.02906e-14 0)
(3 -1.46637e-15 0)
(3 2.44245e-16 0)
(3 -3.61257e-16 0)
(3 -5.81976e-16 0)
(3 -8.80334e-17 0)
(3 -2.49275e-17 0)
(3 -1.1655e-16 0)
(3 2.15657e-16 0)
(3 -9.40237e-17 0)
(3 -3.79262e-16 0)
(3 -4.09632e-16 0)
(3 -3.20849e-16 0)
(3 -3.26565e-16 0)
(3 -7.72794e-16 0)
(3 -2.05178e-15 0)
(3 -2.02116e-15 0)
(3 -1.30183e-15 0)
(3 -9.52421e-16 0)
(3 -3.27787e-16 0)
(3 -1.79359e-16 0)
(3 -3.00745e-16 0)
(3 -1.23496e-16 0)
(3 -1.81699e-16 0)
(3 -2.07713e-16 0)
(3 -5.5193e-16 0)
(3 -8.80685e-16 0)
(3 -1.15563e-15 0)
(3 -1.1578e-15 0)
(3 -1.42721e-15 0)
(3 -1.36345e-15 0)
(3 -9.40691e-16 0)
(3 -1.16788e-15 0)
(3 -1.36193e-15 0)
(3 -1.30265e-15 0)
(3 -1.11393e-15 0)
(3 1.52745e-16 0)
(3 1.90163e-15 0)
(3 2.27607e-15 0)
(3 1.48778e-15 0)
(3 -5.68978e-16 0)
(3 -2.13537e-15 0)
(3 -3.24599e-15 0)
(3 -3.54463e-15 0)
(3 -3.06725e-15 0)
(3 -1.96981e-15 0)
(3 -1.62135e-15 0)
(3 -1.13304e-15 0)
(3 -1.97202e-16 0)
(3 8.21043e-16 0)
(3 9.87907e-16 0)
(3 1.00009e-15 0)
(3 7.20498e-16 0)
(3 7.15129e-16 0)
(3 1.11728e-15 0)
(3 7.86578e-16 0)
(3 -2.92479e-16 0)
(3 -8.69743e-16 0)
(3 -4.57512e-16 0)
(3 2.63854e-16 0)
(3 -3.1253e-16 0)
(3 -5.8991e-16 0)
(3 -8.74093e-16 0)
(3 -4.54308e-16 0)
(3 -2.80474e-16 0)
(3 2.41596e-16 0)
(3 1.49153e-15 0)
(3 1.36452e-15 0)
(3 8.25248e-16 0)
(3 -1.84715e-16 0)
(3 -5.66561e-16 0)
(3 -7.19065e-16 0)
(2.26915 1.11053 0)
(2.50965 1.07934 0)
(2.6898 0.939474 0)
(2.88372 0.736602 0)
(2.97947 0.586452 0)
(3.04307 0.471905 0)
(3.12025 0.348411 0)
(3.15489 0.24015 0)
(3.14597 0.161873 0)
(3.11829 0.0995315 0)
(3.08489 0.0588659 0)
(3.05421 0.0352917 0)
(3.02516 0.0160979 0)
(3.00512 0.00290759 0)
(3.00021 9.12436e-05 0)
(3 -1.20507e-07 0)
(3 -2.48856e-07 0)
(3 -1.27479e-07 0)
(3 -1.38718e-08 0)
(3 -6.7047e-11 0)
(3 2.37223e-11 0)
(3 8.73428e-12 0)
(3 3.31443e-13 0)
(3 -5.10726e-15 0)
(3 -2.16041e-15 0)
(3 -4.23009e-16 0)
(3 -5.29281e-16 0)
(3 -1.00874e-15 0)
(3 -1.15313e-15 0)
(3 -1.88928e-15 0)
(3 -1.91217e-15 0)
(3 -1.68942e-15 0)
(3 -1.49208e-15 0)
(3 -1.12385e-15 0)
(3 -1.23166e-15 0)
(3 -1.79629e-15 0)
(3 -1.45265e-15 0)
(3 -1.28061e-15 0)
(3 -1.25137e-15 0)
(3 -1.21741e-15 0)
(3 -1.49634e-15 0)
(3 -1.51864e-15 0)
(3 -1.2833e-15 0)
(3 -1.24172e-16 0)
(3 9.03795e-17 0)
(3 1.01808e-16 0)
(3 1.95712e-16 0)
(3 3.59324e-16 0)
(3 -2.71954e-16 0)
(3 -3.68255e-16 0)
(3 1.07422e-18 0)
(3 6.08989e-16 0)
(3 4.26507e-16 0)
(3 4.17021e-16 0)
(3 3.93565e-16 0)
(3 4.13081e-16 0)
(3 -7.79526e-17 0)
(3 -1.80216e-15 0)
(3 -2.1954e-15 0)
(3 -1.48498e-15 0)
(3 -5.20709e-16 0)
(3 8.26751e-16 0)
(3 1.32906e-15 0)
(3 1.4851e-15 0)
(3 1.03161e-15 0)
(3 5.10958e-16 0)
(3 -5.14491e-16 0)
(3 -2.31055e-15 0)
(3 -2.26786e-15 0)
(3 -1.79433e-15 0)
(3 -1.94942e-15 0)
(3 -1.40414e-15 0)
(3 -1.84327e-16 0)
(3 -9.41754e-17 0)
(3 -8.78319e-18 0)
(3 -1.89971e-16 0)
(3 -6.31705e-16 0)
(3 -6.38123e-16 0)
(3 -1.02435e-15 0)
(3 -1.44949e-15 0)
(3 -1.88721e-15 0)
(3 -1.43772e-15 0)
(3 1.02802e-16 0)
(3 8.93374e-16 0)
(3 1.13566e-15 0)
(3 5.99945e-16 0)
(3 -2.68548e-16 0)
(3 -5.58841e-16 0)
(3 -2.62291e-17 0)
(3 5.83057e-16 0)
(3 1.21129e-15 0)
(3 1.19472e-15 0)
(3 7.69695e-16 0)
(3 -1.48897e-16 0)
(3 -1.21777e-16 0)
(3 -4.12748e-16 0)
(2.5866 0.64615 0)
(2.68366 0.81259 0)
(2.76698 0.764781 0)
(2.89736 0.653387 0)
(2.96509 0.562292 0)
(3.02107 0.478628 0)
(3.07903 0.370808 0)
(3.10752 0.258205 0)
(3.10437 0.164867 0)
(3.08601 0.0999212 0)
(3.06015 0.0587018 0)
(3.03286 0.0291075 0)
(3.01076 0.00838677 0)
(3.00117 0.000752326 0)
(3.00002 9.63906e-06 0)
(3 -9.1767e-09 0)
(3 -6.21456e-09 0)
(3 -2.23623e-09 0)
(3 -1.14857e-10 0)
(3 3.52869e-13 0)
(3 3.90644e-13 0)
(3 9.08102e-14 0)
(3 4.34e-15 0)
(3 1.79041e-15 0)
(3 1.68347e-15 0)
(3 2.97244e-16 0)
(3 -4.6776e-16 0)
(3 -3.22211e-16 0)
(3 -1.13263e-15 0)
(3 -1.35366e-15 0)
(3 -1.51273e-15 0)
(3 -1.55213e-15 0)
(3 -2.56921e-15 0)
(3 -2.80452e-15 0)
(3 -1.94881e-15 0)
(3 -1.77135e-15 0)
(3 -1.37087e-15 0)
(3 -4.69246e-16 0)
(3 -5.0495e-16 0)
(3 -7.14252e-16 0)
(3 -6.30526e-16 0)
(3 -2.98984e-16 0)
(3 -3.06532e-16 0)
(3 -3.49758e-16 0)
(3 1.57748e-16 0)
(3 3.45076e-16 0)
(3 4.67574e-17 0)
(3 -2.82757e-16 0)
(3 -5.05111e-16 0)
(3 -4.73986e-16 0)
(3 -3.4471e-16 0)
(3 8.71648e-17 0)
(3 9.49763e-16 0)
(3 1.39532e-15 0)
(3 1.29912e-15 0)
(3 7.74281e-17 0)
(3 -6.60029e-16 0)
(3 -6.95429e-16 0)
(3 -5.68016e-16 0)
(3 -5.24661e-16 0)
(3 -5.91044e-16 0)
(3 3.88673e-16 0)
(3 1.8657e-15 0)
(3 1.69967e-15 0)
(3 1.89122e-15 0)
(3 9.97939e-16 0)
(3 8.26464e-17 0)
(3 -4.47809e-16 0)
(3 -2.59495e-16 0)
(3 -6.89393e-17 0)
(3 -1.5773e-16 0)
(3 -1.45373e-16 0)
(3 -3.40515e-16 0)
(3 -8.5085e-16 0)
(3 -7.35092e-16 0)
(3 -1.47936e-16 0)
(3 3.53492e-16 0)
(3 1.09585e-17 0)
(3 -1.25008e-15 0)
(3 -1.71793e-15 0)
(3 -1.47332e-15 0)
(3 -1.72943e-16 0)
(3 4.5184e-16 0)
(3 5.26325e-17 0)
(3 2.01762e-17 0)
(3 7.43643e-16 0)
(3 7.8791e-16 0)
(3 6.38202e-16 0)
(3 1.0363e-15 0)
(3 1.16139e-15 0)
(3 6.44094e-17 0)
(3 -2.98455e-16 0)
(3 -3.79728e-16 0)
(3 -4.00061e-16 0)
(3 -4.39421e-16 0)
(3 -2.65071e-16 0)
(2.94261 0.106947 0)
(2.85994 0.321812 0)
(2.87475 0.420569 0)
(2.93852 0.40738 0)
(2.96442 0.382885 0)
(3.00267 0.337534 0)
(3.03961 0.271318 0)
(3.05683 0.199014 0)
(3.05308 0.132734 0)
(3.03806 0.0773907 0)
(3.02317 0.0365199 0)
(3.00964 0.0113967 0)
(3.00161 0.00146162 0)
(3.00005 3.88692e-05 0)
(3 9.93421e-08 0)
(3 -9.21424e-12 0)
(3 -1.1274e-11 0)
(3 -2.4191e-12 0)
(3 -1.59934e-13 0)
(3 7.93959e-15 0)
(3 -5.50573e-15 0)
(3 -6.91622e-16 0)
(3 2.98052e-16 0)
(3 8.1483e-16 0)
(3 5.31832e-16 0)
(3 4.19725e-16 0)
(3 -1.70073e-16 0)
(3 2.13894e-16 0)
(3 -6.83364e-17 0)
(3 -6.86324e-17 0)
(3 -4.18178e-16 0)
(3 -1.12956e-15 0)
(3 -1.15205e-15 0)
(3 -1.02992e-15 0)
(3 -5.69911e-16 0)
(3 -2.16266e-17 0)
(3 5.5254e-16 0)
(3 1.39595e-15 0)
(3 1.08956e-15 0)
(3 4.77064e-16 0)
(3 3.68694e-16 0)
(3 5.36271e-16 0)
(3 1.86828e-16 0)
(3 2.40138e-16 0)
(3 8.13382e-16 0)
(3 9.6521e-17 0)
(3 -2.90454e-16 0)
(3 -3.09585e-16 0)
(3 -1.56817e-16 0)
(3 7.7867e-17 0)
(3 -1.91905e-16 0)
(3 -9.27358e-16 0)
(3 -3.16022e-16 0)
(3 9.92418e-17 0)
(3 -5.6057e-16 0)
(3 -1.47888e-15 0)
(3 -1.9965e-15 0)
(3 -6.96726e-16 0)
(3 -4.76103e-16 0)
(3 -6.17886e-16 0)
(3 -5.57272e-16 0)
(3 1.64019e-16 0)
(3 2.48827e-16 0)
(3 -1.28252e-16 0)
(3 4.42752e-16 0)
(3 6.28984e-16 0)
(3 4.46389e-16 0)
(3 7.80071e-16 0)
(3 7.3679e-16 0)
(3 -1.57219e-16 0)
(3 -5.55082e-16 0)
(3 -5.28579e-16 0)
(3 -1.39104e-15 0)
(3 -1.36229e-15 0)
(3 -1.01363e-15 0)
(3 -4.45633e-16 0)
(3 1.79101e-16 0)
(3 5.41515e-16 0)
(3 1.12484e-15 0)
(3 3.65592e-16 0)
(3 1.9835e-16 0)
(3 8.3804e-16 0)
(3 7.3877e-16 0)
(3 -9.21387e-16 0)
(3 -9.44328e-16 0)
(3 3.87084e-16 0)
(3 1.55696e-15 0)
(3 1.8594e-15 0)
(3 1.15469e-15 0)
(3 1.98098e-16 0)
(3 -2.62852e-16 0)
(3 -7.8632e-16 0)
(3 -1.32805e-15 0)
(3 -1.04253e-15 0)
(3 -8.39718e-16 0)
(3 -6.26073e-16 0)
(2.99936 0.00202458 0)
(2.99182 0.0210522 0)
(2.97985 0.0615363 0)
(2.9734 0.105491 0)
(2.97942 0.130562 0)
(2.98628 0.126375 0)
(2.99748 0.108403 0)
(3.00599 0.0790076 0)
(3.00861 0.0480054 0)
(3.00729 0.0226456 0)
(3.00387 0.00710256 0)
(3.00085 0.00103441 0)
(3.00004 3.75016e-05 0)
(3 1.58084e-07 0)
(3 3.53842e-11 0)
(3 -3.42557e-15 0)
(3 -2.26266e-15 0)
(3 -1.30846e-15 0)
(3 -4.00208e-15 0)
(3 -7.35931e-15 0)
(3 -3.54202e-15 0)
(3 -1.06575e-15 0)
(3 -9.37933e-16 0)
(3 -7.52559e-16 0)
(3 -3.90986e-16 0)
(3 -9.00596e-17 0)
(3 2.82e-16 0)
(3 2.42309e-16 0)
(3 3.58006e-16 0)
(3 6.58342e-16 0)
(3 7.23391e-16 0)
(3 6.88084e-16 0)
(3 1.06724e-15 0)
(3 1.29799e-15 0)
(3 1.63605e-15 0)
(3 1.71099e-15 0)
(3 1.99848e-15 0)
(3 2.3983e-15 0)
(3 1.56099e-15 0)
(3 8.41962e-16 0)
(3 7.45418e-16 0)
(3 1.40048e-16 0)
(3 2.5147e-16 0)
(3 3.56879e-16 0)
(3 4.58932e-16 0)
(3 2.53389e-16 0)
(3 3.61515e-16 0)
(3 1.74765e-16 0)
(3 -2.09484e-17 0)
(3 -3.79872e-16 0)
(3 -5.02361e-16 0)
(3 -1.13664e-15 0)
(3 -1.81417e-15 0)
(3 -2.00657e-15 0)
(3 -1.23871e-15 0)
(3 -1.21177e-15 0)
(3 -4.44694e-16 0)
(3 -6.86214e-17 0)
(3 2.86355e-16 0)
(3 -8.54743e-17 0)
(3 -4.54348e-16 0)
(3 -2.67851e-16 0)
(3 -5.70563e-16 0)
(3 -2.75572e-16 0)
(3 1.75346e-16 0)
(3 4.8842e-16 0)
(3 -2.8974e-16 0)
(3 -1.01135e-15 0)
(3 -1.09998e-15 0)
(3 -7.3325e-16 0)
(3 -6.49974e-16 0)
(3 -8.80225e-16 0)
(3 -1.43543e-15 0)
(3 -1.35331e-15 0)
(3 -9.24518e-16 0)
(3 -9.0583e-16 0)
(3 -6.98167e-16 0)
(3 -9.03075e-17 0)
(3 -2.3797e-16 0)
(3 2.59919e-16 0)
(3 3.11025e-16 0)
(3 6.10101e-16 0)
(3 4.40556e-16 0)
(3 -3.17983e-16 0)
(3 4.94949e-16 0)
(3 8.4635e-16 0)
(3 5.86863e-16 0)
(3 -7.2444e-17 0)
(3 -5.64804e-16 0)
(3 -8.74062e-16 0)
(3 -1.15136e-15 0)
(3 -1.37987e-15 0)
(3 -1.45826e-15 0)
(3 -1.68339e-15 0)
(3 -1.0206e-15 0)
(3 -6.1771e-16 0)
(3 3.0778e-06 0)
(2.99997 0.000113301 0)
(2.99974 0.000875755 0)
(2.9991 0.00320864 0)
(2.99868 0.00676915 0)
(2.99886 0.00850745 0)
(2.99917 0.00806022 0)
(2.99976 0.00630999 0)
(3.00026 0.00372489 0)
(3.00038 0.00144553 0)
(3.00015 0.000269621 0)
(3.00001 1.36955e-05 0)
(3 8.92485e-08 0)
(3 3.2797e-11 0)
(3 -3.5694e-16 0)
(3 -1.6065e-15 0)
(3 -9.36313e-16 0)
(3 -1.50721e-16 0)
(3 7.24772e-17 0)
(3 -1.11364e-15 0)
(3 -6.40907e-16 0)
(3 1.25197e-16 0)
(3 2.29906e-16 0)
(3 3.97876e-16 0)
(3 5.1535e-16 0)
(3 4.96367e-16 0)
(3 8.45694e-16 0)
(3 3.37591e-16 0)