/*--------------------------------*- C++ -*----------------------------------*\
  =========                 |
  \\      /  F ield         | OpenFOAM: The Open Source CFD Toolbox
   \\    /   O peration     | Website:  https://openfoam.org
    \\  /    A nd           | Version:  7
     \\/     M anipulation  |
\*---------------------------------------------------------------------------*/
FoamFile
{
    version     2.0;
    format      ascii;
    class       volVectorField;
    location    "21.99953";
    object      U;
}
// * * * * * * * * * * * * * * * * * * * * * * * * * * * * * * * * * * * * * //

dimensions      [0 1 -1 0 0 0 0];

internalField   nonuniform List<vector> 
23200
(
(-0.000351306 0.000425865 -1.7093e-21)
(-0.00190815 0.00104084 -6.63963e-21)
(-0.00498815 0.00146176 1.24728e-21)
(-0.00896806 0.00171575 4.88196e-21)
(-0.0134547 0.00182368 2.13459e-21)
(-0.0181393 0.00180456 -5.32696e-21)
(-0.0227174 0.00167655 -1.72389e-21)
(-0.026908 0.00145629 -6.98129e-22)
(-0.0304592 0.00115872 -6.39288e-21)
(-0.0331456 0.000797033 -1.22177e-21)
(-0.0347674 0.000382826 -7.31709e-21)
(-0.0351495 -7.36147e-05 7.55918e-22)
(-0.0341404 -0.000562618 -2.44374e-21)
(-0.0316153 -0.00107382 4.34e-21)
(-0.0274814 -0.00159432 -5.47763e-21)
(-0.0216915 -0.00210555 -5.78707e-21)
(-0.0142678 -0.0025787 -1.65975e-21)
(-0.00536624 -0.00296954 8.78994e-21)
(0.00469238 -0.00322666 -7.31072e-21)
(0.01567 -0.00326516 -4.24226e-22)
(-0.000412092 0.00126752 -1.48885e-21)
(-0.00203562 0.00309677 -4.70249e-21)
(-0.00511727 0.00434795 4.15883e-21)
(-0.00904427 0.00510162 1.00757e-20)
(-0.0134286 0.00541994 1.79649e-21)
(-0.0179649 0.00535959 3.45822e-22)
(-0.022352 0.00497472 -3.70971e-21)
(-0.0263119 0.00431502 2.02064e-21)
(-0.0295949 0.00342507 -1.18278e-20)
(-0.0319776 0.00234432 7.5004e-21)
(-0.0332615 0.0011074 2.71237e-20)
(-0.0332726 -0.00025495 -4.54046e-21)
(-0.0318602 -0.00171373 6.62698e-21)
(-0.0288996 -0.00323869 -4.02476e-21)
(-0.0242981 -0.00479088 1.01798e-20)
(-0.018008 -0.00631513 -1.15581e-21)
(-0.0100499 -0.00772554 5.52689e-21)
(-0.000586527 -0.00888992 -3.28003e-20)
(0.0100586 -0.00965229 3.24829e-21)
(0.0217886 -0.00974929 -1.30297e-20)
(-0.000530991 0.00207923 8.16993e-21)
(-0.00228379 0.00507604 8.93462e-21)
(-0.00536592 0.007123 -2.05337e-21)
(-0.00918514 0.00835165 -4.6558e-21)
(-0.0133636 0.00886403 -1.83541e-21)
(-0.0176027 0.0087535 6.7756e-21)
(-0.0216077 0.0081093 1.01608e-20)
(-0.0251064 0.00701338 -2.27522e-20)
(-0.0278536 0.00553936 6.49882e-21)
(-0.0296296 0.00375243 -8.40708e-21)
(-0.0302389 0.0017098 -1.43296e-20)
(-0.0295094 -0.000537734 -2.73819e-21)
(-0.027292 -0.00294247 -4.38863e-21)
(-0.0234626 -0.0054544 -9.84937e-21)
(-0.0179286 -0.00801002 1.10525e-20)
(-0.0106413 -0.0105188 -1.05674e-20)
(-0.00161881 -0.0128392 1.31876e-21)
(0.00896355 -0.0147524 3.21748e-20)
(0.0207738 -0.0159936 -2.2166e-20)
(0.0340005 -0.016093 1.93183e-20)
(-0.000702731 0.00284189 -6.00597e-21)
(-0.00263931 0.00692966 1.19844e-20)
(-0.00571508 0.00971575 -1.74876e-20)
(-0.00936779 0.0113787 8.26089e-21)
(-0.0132344 0.0120583 -4.59714e-20)
(-0.0170259 0.0118829 -2.86337e-20)
(-0.0204574 0.0109753 1.83676e-20)
(-0.0232648 0.0094485 4.48902e-20)
(-0.0252097 0.00740418 -1.86966e-20)
(-0.0260778 0.00493243 -1.28963e-20)
(-0.0256779 0.00211233 -1.82804e-20)
(-0.023841 -0.000985953 3.73711e-20)
(-0.0204203 -0.00429687 4.56209e-20)
(-0.015293 -0.00775112 -3.58385e-20)
(-0.00836671 -0.0112629 -2.87101e-20)
(0.000407875 -0.0147085 1.02996e-20)
(0.0110163 -0.0178926 -2.29279e-20)
(0.0232644 -0.0205129 -1.23847e-21)
(0.036802 -0.0221901 3.64019e-20)
(0.0522527 -0.0221973 6.21158e-21)
(-0.000919599 0.00353766 2.40889e-20)
(-0.00308256 0.00861174 8.05043e-21)
(-0.00613679 0.0120594 2.8099e-20)
(-0.00955843 0.014101 -8.69999e-21)
(-0.0130033 0.0149108 4.50129e-20)
(-0.016195 0.0146502 2.76161e-20)
(-0.0188608 0.0134737 -3.37859e-20)
(-0.0207472 0.0115235 -4.37041e-20)
(-0.0216247 0.00892807 4.04334e-20)
(-0.0212861 0.00580119 -1.14981e-20)
(-0.0195458 0.00224297 1.69108e-20)
(-0.016239 -0.00165788 -6.68067e-20)
(-0.011222 -0.00581884 2.28982e-20)
(-0.00437398 -0.0101534 8.06478e-21)
(0.00439594 -0.0145548 4.78184e-21)
(0.0151376 -0.0188693 1.75079e-20)
(0.0278402 -0.0228517 4.44716e-20)
(0.0422849 -0.0261198 1.04688e-21)
(0.0580873 -0.028174 -1.26672e-20)
(0.0764614 -0.027956 -1.64446e-20)
(-0.00117166 0.00415042 1.68335e-20)
(-0.00358817 0.0100805 8.79063e-21)
(-0.00659465 0.0140929 -4.57992e-20)
(-0.00971295 0.0164433 -2.797e-20)
(-0.0126213 0.0173373 -1.10829e-20)
(-0.0150578 0.0169663 3.76596e-20)
(-0.0167645 0.015514 4.52105e-20)
(-0.0175009 0.0131501 -5.72343e-21)
(-0.0170478 0.0100279 -1.09402e-20)
(-0.0152068 0.00628381 -9.47949e-21)
(-0.0117991 0.00203768 -3.02432e-20)
(-0.00666543 -0.00260421 6.90518e-20)
(0.000333757 -0.00754347 -6.09207e-22)
(0.00931612 -0.0126779 -2.64923e-20)
(0.02037 -0.0178827 -1.79178e-21)
(0.033544 -0.0229777 5.43204e-21)
(0.0488305 -0.0276725 1.5589e-20)
(0.0659802 -0.0315106 -5.73885e-20)
(0.084551 -0.033868 2.58883e-20)
(0.106508 -0.0332539 -6.46106e-21)
(-0.001447 0.00466609 -2.83279e-20)
(-0.00412559 0.0112994 1.7181e-20)
(-0.00704467 0.0157625 2.09113e-20)
(-0.00977772 0.0183396 1.81113e-20)
(-0.012028 0.0192631 3.99728e-20)
(-0.0135503 0.0187519 5.95198e-21)
(-0.0141032 0.0170162 -5.69565e-21)
(-0.0134606 0.0142506 1.74774e-20)
(-0.0114158 0.0106314 -2.67407e-20)
(-0.00778035 0.00631601 -2.92959e-21)
(-0.00238367 0.00144297 1.27697e-20)
(0.0049268 -0.00386527 -5.85175e-20)
(0.014285 -0.00949541 -1.8963e-20)
(0.0258038 -0.0153315 1.78715e-20)
(0.039567 -0.0212331 -4.21341e-20)
(0.0556196 -0.0269986 4.64024e-20)
(0.0739549 -0.0322982 5.67444e-21)
(0.0942883 -0.0366093 -6.74267e-21)
(0.116087 -0.0391828 -6.97282e-20)
(0.142232 -0.0379651 3.98166e-20)
(-0.00173209 0.00507296 -1.14781e-20)
(-0.0046598 0.0122375 -1.27402e-20)
(-0.00743607 0.0170228 -6.17482e-20)
(-0.00969051 0.0197336 -2.80442e-20)
(-0.0111535 0.0206251 -9.63633e-20)
(-0.0115975 0.0199404 -8.0744e-21)
(-0.0107993 0.0179131 -4.90276e-20)
(-0.00854909 0.0147603 -3.52392e-20)
(-0.00465364 0.0106793 7.79378e-20)
(0.00106411 0.00584657 1.29559e-20)
(0.00876502 0.000417997 3.32473e-20)
(0.0185935 -0.00546867 4.13237e-20)
(0.0306763 -0.0116867 -1.46835e-20)
(0.045119 -0.0181079 -4.64027e-20)
(0.0619982 -0.0245795 4.19937e-20)
(0.0813511 -0.0308833 3.87181e-20)
(0.103168 -0.0366573 -3.77153e-20)
(0.127125 -0.0413235 5.20914e-20)
(0.152557 -0.0440147 7.85374e-20)
(0.183423 -0.0419532 2.14714e-20)
(-0.00201205 0.00536185 3.01042e-20)
(-0.00515207 0.0128704 3.84809e-20)
(-0.00771225 0.0178375 1.89817e-20)
(-0.00938148 0.0205806 4.83702e-20)
(-0.0099184 0.021373 2.25625e-20)
(-0.00911417 0.0204789 6.07438e-20)
(-0.00676487 0.0181523 5.28088e-20)
(-0.00267799 0.0146299 -2.12372e-20)
(0.00332482 0.0101277 -3.39571e-20)
(0.0114079 0.00483978 6.19264e-20)
(0.021721 -0.00106239 -3.85833e-20)
(0.0343984 -0.00742667 2.84241e-20)
(0.0495574 -0.0141142 3.81509e-20)
(0.0672935 -0.0209861 4.14737e-20)
(0.0876716 -0.0278802 -1.21629e-19)
(0.110716 -0.0345672 -5.6006e-20)
(0.136409 -0.0406613 -1.44708e-20)
(0.16438 -0.0455426 6.24469e-20)
(0.193783 -0.0482439 -1.32308e-19)
(0.229809 -0.0450719 -4.85499e-20)
(-0.002271 0.00552624 4.5631e-20)
(-0.0055607 0.0131806 -5.73969e-20)
(-0.00781186 0.0181805 -6.16727e-20)
(-0.00877436 0.020848 -6.48322e-20)
(-0.00823573 0.0214707 -4.07499e-20)
(-0.0060062 0.0203301 -9.74583e-21)
(-0.0019019 0.0176978 -6.77832e-20)
(0.00425132 0.0138272 8.51253e-20)
(0.0126159 0.00895077 2.45203e-20)
(0.0233419 0.00327797 2.42497e-20)
(0.0365664 -0.0030052 -9.8263e-20)
(0.0524115 -0.00973365 1.518e-20)
(0.0709816 -0.0167572 -1.16898e-20)
(0.0923581 -0.0239278 -4.45913e-21)
(0.116589 -0.0310766 -4.64288e-20)
(0.143678 -0.0379686 5.89046e-20)
(0.17359 -0.0442039 -1.28886e-20)
(0.205906 -0.0491372 -1.40964e-19)
(0.239538 -0.0517332 1.93147e-20)
(0.281046 -0.0471661 9.11039e-20)
(-0.00249242 0.00556228 3.32687e-20)
(-0.00584182 0.0131573 -1.10851e-20)
(-0.00766975 0.0180356 6.46217e-20)
(-0.0077876 0.0205164 3.279e-20)
(-0.00601181 0.020897 4.81251e-20)
(-0.00217173 0.0194737 4.90598e-21)
(0.00389593 0.0165318 9.22458e-20)
(0.0123462 0.0123391 -8.41296e-20)
(0.0233244 0.00714205 -3.80419e-20)
(0.036965 0.00116359 -1.50149e-20)
(0.0533902 -0.00539733 9.79892e-20)
(0.0727068 -0.0123638 -1.71283e-20)
(0.0950026 -0.0195752 1.41006e-20)
(0.12034 -0.0268755 5.91712e-20)
(0.148742 -0.0340916 5.61396e-20)
(0.180182 -0.0409881 -9.66644e-20)
(0.214596 -0.0471612 -5.28671e-20)
(0.251511 -0.051959 2.68728e-20)
(0.289541 -0.0543283 8.41741e-20)
(0.336703 -0.0480757 -1.06153e-20)
(-0.00265938 0.00546876 -4.38723e-20)
(-0.0059501 0.0127969 -2.56546e-20)
(-0.00721801 0.0173975 -3.65366e-20)
(-0.00633565 0.0195797 -3.53702e-20)
(-0.00314777 0.0196468 4.11119e-20)
(0.00249723 0.0179068 -7.9506e-20)
(0.0107418 0.0146559 7.85818e-20)
(0.021721 0.0101733 5.5791e-21)
(0.035562 0.00471688 -6.751e-20)
(0.0523817 -0.00147869 -1.54989e-20)
(0.0722847 -0.00820317 -6.2697e-20)
(0.0953591 -0.0152689 2.89275e-20)
(0.121671 -0.0225059 -1.95185e-20)
(0.151255 -0.029751 -1.1517e-19)
(0.184104 -0.0368288 5.50493e-21)
(0.220145 -0.0435087 3.43398e-20)
(0.259273 -0.049393 7.4404e-20)
(0.30095 -0.0538445 1.29757e-19)
(0.343441 -0.05586 2.06987e-20)
(0.396255 -0.0476402 -1.27168e-19)
(-0.00275479 0.00524699 -6.19837e-20)
(-0.00583946 0.0121024 -9.79127e-21)
(-0.00638705 0.0162711 1.29831e-19)
(-0.00433012 0.0180455 -5.9742e-20)
(0.000458988 0.0177313 3.17049e-21)
(0.00811313 0.0156454 -5.83498e-20)
(0.0187536 0.0120922 -5.60752e-20)
(0.032495 0.00735917 9.89133e-21)
(0.0494444 0.00171363 3.01036e-20)
(0.0696991 -0.00460035 1.10753e-19)
(0.0933428 -0.0113629 -3.51067e-20)
(0.12044 -0.0183768 -1.49146e-19)
(0.151028 -0.0254637 1.05426e-19)
(0.185108 -0.0324546 8.99609e-20)
(0.222625 -0.039173 5.78468e-20)
(0.263451 -0.0453975 1.43634e-19)
(0.307417 -0.0507467 -4.48515e-20)
(0.353914 -0.0546194 -2.03186e-19)
(0.400813 -0.0561474 3.27315e-20)
(0.459067 -0.0457055 3.61287e-20)
(-0.00276165 0.0049006 -3.27913e-20)
(-0.00546357 0.0110833 4.4305e-20)
(-0.00510647 0.0146717 -4.57643e-20)
(-0.00168119 0.0159349 7.3181e-20)
(0.00491316 0.015178 -8.52815e-20)
(0.0147909 0.0127243 7.91776e-20)
(0.028052 0.00888357 1.51064e-20)
(0.0447893 0.00394908 -8.62014e-20)
(0.0650882 -0.00180522 7.24035e-20)
(0.0890233 -0.0081279 -7.81249e-20)
(0.116653 -0.0147913 9.64804e-20)
(0.148012 -0.0215904 5.17486e-20)
(0.183102 -0.0283397 4.19276e-20)
(0.221876 -0.0348652 -6.19221e-20)
(0.264223 -0.0409915 -9.25374e-21)
(0.30994 -0.0465093 -7.533e-20)
(0.358769 -0.0510625 4.97028e-20)
(0.410019 -0.0541072 7.62808e-22)
(0.461151 -0.0550046 -8.39916e-20)
(0.524396 -0.0421319 3.62625e-20)
(-0.00266323 0.0044354 7.66568e-21)
(-0.0047765 0.00975556 2.89297e-20)
(-0.00330599 0.0126243 6.50989e-21)
(0.00170115 0.0132822 2.49147e-20)
(0.0103198 0.0120308 5.87259e-20)
(0.022646 0.00919743 5.58316e-20)
(0.0387575 0.00509452 4.04696e-20)
(0.0587241 1.8484e-05 5.08281e-20)
(0.0826072 -0.00575261 -1.0196e-19)
(0.110455 -0.0119624 -1.55409e-20)
(0.142294 -0.0183776 -1.60282e-19)
(0.178123 -0.0247876 -4.94215e-20)
(0.217896 -0.0310015 -5.54494e-20)
(0.261509 -0.0368422 9.12177e-20)
(0.308774 -0.0421368 -1.39031e-19)
(0.359396 -0.0466913 2.74139e-20)
(0.413005 -0.0501812 9.26649e-21)
(0.468803 -0.0521406 1.27587e-19)
(0.523871 -0.0522509 -5.99793e-20)
(0.591386 -0.0368085 4.37152e-20)
(-0.00244311 0.00385918 1.01731e-19)
(-0.00373309 0.0081406 3.7248e-20)
(-0.000916312 0.0101636 6.93529e-20)
(0.00590573 0.0101348 6.37646e-20)
(0.0167826 0.00834964 1.05738e-20)
(0.0317914 0.00513738 -1.38267e-19)
(0.0509873 0.000810538 -1.01409e-19)
(0.0744147 -0.00433412 -9.25037e-20)
(0.102108 -0.0100171 8.67969e-20)
(0.134083 -0.0159798 5.2691e-20)
(0.170329 -0.0219862 1.84586e-19)
(0.210798 -0.0278226 -1.49814e-19)
(0.255386 -0.0332957 5.54835e-20)
(0.303914 -0.0382282 -1.03053e-19)
(0.356104 -0.042452 7.51437e-20)
(0.411544 -0.04579 -2.69091e-20)
(0.469727 -0.0479544 3.32329e-20)
(0.529723 -0.0485768 -1.1711e-19)
(0.588317 -0.0477244 9.60198e-20)
(0.659091 -0.0296742 3.56875e-20)
(-0.00208536 0.00318146 -1.41802e-19)
(-0.00228944 0.0062654 6.02812e-20)
(0.00212995 0.00733306 -9.46923e-20)
(0.0110188 0.00655231 -8.97223e-20)
(0.0244015 0.00420987 3.34906e-20)
(0.0423358 0.000634995 1.66412e-19)
(0.0648522 -0.00386238 -1.21944e-19)
(0.0919675 -0.00898794 1.53144e-20)
(0.123684 -0.0144638 -3.45847e-20)
(0.159979 -0.0200322 -3.307e-20)
(0.200798 -0.025458 8.80603e-20)
(0.246032 -0.0305281 1.90134e-19)
(0.295505 -0.0350511 -7.25249e-21)
(0.34895 -0.0388536 1.55122e-20)
(0.405975 -0.0417761 -5.98867e-21)
(0.466037 -0.04366 -9.98426e-20)
(0.528462 -0.0442551 9.59552e-20)
(0.592157 -0.0433103 1.46527e-19)
(0.653768 -0.0412734 3.92519e-20)
(0.726458 -0.0206986 -6.72496e-20)
(-0.0015746 0.00241343 -3.7599e-20)
(-0.00040328 0.00416187 1.24647e-19)
(0.00589743 0.00418467 -3.59889e-21)
(0.0171226 0.00260602 8.76414e-20)
(0.0332711 -0.000298477 4.1013e-20)
(0.05438 -0.00420165 4.03966e-20)
(0.0804529 -0.00879885 -5.05389e-20)
(0.111475 -0.0138013 8.5024e-20)
(0.147411 -0.018936 1.39116e-20)
(0.188194 -0.0239502 -5.11458e-20)
(0.233709 -0.0286136 -2.88305e-20)
(0.28378 -0.0327193 -1.32248e-19)
(0.33814 -0.0360834 -1.31315e-19)
(0.396416 -0.038543 2.98271e-20)
(0.458086 -0.039953 -1.1732e-20)
(0.522455 -0.0401748 -4.26483e-20)
(0.588664 -0.0389943 -1.30225e-19)
(0.65542 -0.0362852 -1.53149e-19)
(0.719437 -0.0326911 -1.69325e-19)
(0.792211 -0.00977782 1.72084e-20)
(-0.000896008 0.00156772 6.74261e-21)
(0.00196563 0.00186661 -1.13727e-19)
(0.0104471 0.000778223 -1.07658e-19)
(0.0242937 -0.00162187 -7.22657e-20)
(0.0434781 -0.00507172 1.30686e-19)
(0.0680143 -0.00924848 -2.8186e-19)
(0.097876 -0.0138557 5.7019e-20)
(0.133012 -0.0186137 -3.38694e-20)
(0.173343 -0.0232581 9.51169e-20)
(0.218745 -0.0275459 1.1573e-20)
(0.269036 -0.0312573 -1.45614e-19)
(0.323951 -0.0341985 6.16695e-20)
(0.383122 -0.0362012 1.84694e-20)
(0.446045 -0.0371224 5.99714e-20)
(0.512058 -0.0368407 -6.40256e-20)
(0.580305 -0.0352419 1.0836e-19)
(0.649735 -0.0321499 -4.5712e-20)
(0.718859 -0.0275272 2.19944e-20)
(0.784655 -0.0217183 -1.58885e-20)
(0.854868 0.00299776 -5.85953e-20)
(-3.54979e-05 0.000658377 1.23936e-19)
(0.00485506 -0.00057945 -2.42464e-20)
(0.0158354 -0.00281919 -1.50621e-20)
(0.0326017 -0.00603908 8.82859e-20)
(0.055099 -0.00999369 -4.44125e-20)
(0.0833153 -0.014367 2.56511e-19)
(0.11719 -0.0188742 1.16117e-20)
(0.15663 -0.0232483 7.81885e-20)
(0.201502 -0.0272387 -1.32967e-19)
(0.251615 -0.0306174 -1.01188e-19)
(0.306705 -0.0331826 1.47826e-19)
(0.366403 -0.0347616 -1.20516e-19)
(0.430217 -0.0352131 9.72954e-20)
(0.497501 -0.0344266 -1.55493e-20)
(0.567435 -0.0323189 2.84218e-19)
(0.639004 -0.0288155 -4.69302e-21)
(0.711002 -0.0237935 9.44093e-20)
(0.78188 -0.0172176 1.32145e-19)
(0.849277 -0.00851039 7.7041e-20)
(0.914984 0.0155383 1.0694e-19)
(0.00102024 -0.00029924 6.08681e-20)
(0.00829977 -0.00313128 -1.40058e-19)
(0.0221128 -0.0065337 4.78277e-20)
(0.0421072 -0.0105442 7.81438e-20)
(0.0681977 -0.0149372 6.57996e-20)
(0.100343 -0.0194064 -1.88168e-19)
(0.138442 -0.0236825 8.50934e-20)
(0.182352 -0.0275158 3.88042e-20)
(0.231877 -0.030675 1.66449e-20)
(0.286746 -0.032954 6.89184e-20)
(0.346594 -0.0341775 -3.90499e-20)
(0.410933 -0.0342049 1.2365e-19)
(0.479128 -0.0329346 -1.01471e-19)
(0.550373 -0.0303047 -1.03079e-19)
(0.623679 -0.0262907 -1.74736e-19)
(0.697875 -0.0208866 -5.39675e-20)
(0.771642 -0.0140626 -1.15151e-19)
(0.843572 -0.00576297 -1.24432e-19)
(0.912671 0.00533138 -1.10785e-19)
(0.975611 0.0221851 -6.73459e-20)
(0.00228356 -0.00128844 9.41461e-20)
(0.012331 -0.00573992 -2.55682e-20)
(0.0293234 -0.0102852 -6.61798e-20)
(0.0528602 -0.0150277 -2.1353e-19)
(0.0828232 -0.0197653 -1.64128e-20)
(0.119136 -0.0242054 2.27431e-19)
(0.161653 -0.0280984 -5.08649e-20)
(0.210171 -0.0312175 4.43225e-20)
(0.264418 -0.0333572 1.05078e-19)
(0.324032 -0.0343418 3.11917e-20)
(0.388528 -0.0340323 -2.01743e-19)
(0.457281 -0.0323325 -4.97356e-20)
(0.529495 -0.0291952 -3.46512e-20)
(0.604187 -0.0246252 9.73503e-20)
(0.680191 -0.0186787 2.75424e-19)
(0.756175 -0.0114497 -8.6346e-20)
(0.830706 -0.00305556 -5.60479e-20)
(0.902401 0.00636792 1.40372e-19)
(0.9709 0.0177038 7.44811e-20)
(1.03052 0.0254064 2.90844e-20)
(0.00376564 -0.00229121 -1.01726e-19)
(0.0169758 -0.00835272 7.57144e-20)
(0.0375029 -0.013988 -1.55932e-19)
(0.0648982 -0.0193728 1.78365e-20)
(0.099007 -0.0243336 1.09099e-19)
(0.139713 -0.0285952 -2.32414e-19)
(0.186815 -0.0319332 -2.43766e-19)
(0.240042 -0.0341504 4.53153e-21)
(0.299034 -0.0350748 -1.45503e-19)
(0.363318 -0.0345705 -1.02417e-19)
(0.432278 -0.0325463 1.6216e-19)
(0.505129 -0.0289644 2.56039e-19)
(0.5809 -0.0238473 -1.00568e-19)
(0.658421 -0.0172835 -6.22177e-20)
(0.736341 -0.00942833 -1.54792e-19)
(0.813171 -0.000494934 9.18897e-21)
(0.887358 0.00923799 -6.38935e-21)
(0.957452 0.0194174 -5.46403e-21)
(1.02313 0.0305717 1.63924e-20)
(1.07831 0.0342824 1.98605e-19)
(0.00547628 -0.00328825 1.02351e-19)
(0.0222561 -0.0109135 1.14821e-19)
(0.0466779 -0.0175512 1.51035e-19)
(0.0782446 -0.0234573 5.97407e-20)
(0.116761 -0.0284915 -8.3072e-20)
(0.162063 -0.0324018 -5.8295e-20)
(0.213888 -0.0349952 -8.38921e-21)
(0.271883 -0.0361114 8.40873e-20)
(0.335588 -0.0356213 7.74527e-20)
(0.404402 -0.0334396 4.90981e-20)
(0.47756 -0.029536 -6.23359e-21)
(0.554106 -0.0239449 -1.23519e-19)
(0.632879 -0.0167743 9.9286e-20)
(0.712521 -0.00821135 -1.52745e-20)
(0.7915 0.00147751 4.53243e-20)
(0.868183 0.0119542 1.89658e-20)
(0.940922 0.0227959 -1.56139e-20)
(1.00821 0.033495 3.85069e-20)
(1.06958 0.0443686 -2.78398e-20)
(1.11946 0.0465875 -2.04749e-19)
(0.00742355 -0.00425892 5.3705e-20)
(0.0281881 -0.0133629 -2.07381e-19)
(0.0568643 -0.02088 1.0261e-19)
(0.0929067 -0.0271541 4.25976e-20)
(0.136075 -0.0320849 -1.2619e-19)
(0.18615 -0.0354493 1.24014e-19)
(0.242798 -0.0370934 6.96298e-20)
(0.305573 -0.0369025 -1.67931e-19)
(0.373897 -0.0348007 2.06778e-20)
(0.447031 -0.0307657 -3.20902e-20)
(0.524043 -0.0248417 7.65741e-20)
(0.603795 -0.0171502 -5.7712e-20)
(0.684935 -0.00789871 -8.77264e-20)
(0.765917 0.00261528 1.30079e-19)
(0.845054 0.0140077 -6.35956e-20)
(0.920599 0.0258202 2.62634e-20)
(0.990858 0.0375137 -6.12676e-20)
(1.05434 0.0484898 3.54047e-22)
(1.11045 0.0589176 -5.28201e-20)
(1.15457 0.0606387 5.79731e-20)
(0.00961347 -0.0051813 -1.35183e-20)
(0.0347813 -0.0156385 -6.14103e-20)
(0.068066 -0.0238756 -6.93413e-20)
(0.108874 -0.0303334 4.01358e-20)
(0.156916 -0.034958 -1.18419e-20)
(0.211909 -0.037563 7.59532e-20)
(0.273436 -0.0380417 5.41699e-20)
(0.340947 -0.0363354 5.18467e-20)
(0.413735 -0.032433 1.6976e-20)
(0.490905 -0.0263883 4.5169e-20)
(0.571351 -0.0183344 7.70579e-20)
(0.653745 -0.00849399 1.65855e-20)
(0.736548 0.00281345 -3.85433e-20)
(0.818047 0.0151723 3.06144e-20)
(0.896428 0.028081 9.57245e-20)
(0.969885 0.0409733 -1.74701e-19)
(1.03674 0.0532252 5.33057e-20)
(1.09561 0.0642031 6.4869e-20)
(1.14591 0.0739785 2.04688e-20)
(1.18402 0.0755018 4.15546e-20)
(0.0120496 -0.0060323 -2.16399e-20)
(0.0420373 -0.0176756 1.33905e-19)
(0.0802735 -0.0264373 4.67202e-20)
(0.126118 -0.0328639 -1.44868e-19)
(0.179225 -0.0369561 -3.89275e-20)
(0.239241 -0.0385724 7.43373e-20)
(0.305656 -0.0376632 3.61611e-20)
(0.377803 -0.0342367 1.27818e-19)
(0.454833 -0.0283593 -4.93412e-21)
(0.535686 -0.0201753 6.28571e-21)
(0.619073 -0.00992051 -6.53859e-20)
(0.70348 0.00206814 -1.031e-19)
(0.787195 0.01535 -1.13298e-20)
(0.868366 0.0293883 -6.46701e-20)
(0.945101 0.0435702 5.56698e-20)
(1.0156 0.0572408 2.69513e-19)
(1.07828 0.0697257 1.0462e-19)
(1.13193 0.0804039 -1.0247e-19)
(1.1761 0.0892982 -5.1138e-20)
(1.20819 0.0905724 1.9696e-20)
(0.0147327 -0.00678774 1.03854e-19)
(0.0499494 -0.0194075 -1.63374e-19)
(0.0934628 -0.0284629 -1.55335e-19)
(0.144587 -0.0346151 2.13063e-19)
(0.202917 -0.0379283 6.35478e-20)
(0.268018 -0.0383151 -4.02471e-20)
(0.339277 -0.0357938 -1.16704e-19)
(0.4159 -0.0304519 -1.45615e-19)
(0.496884 -0.0224471 9.84864e-20)
(0.580998 -0.0120276 1.77479e-20)
(0.666771 0.000454425 5.31913e-20)
(0.752513 0.0145372 4.43746e-20)
(0.836362 0.0296535 -3.39621e-21)
(0.916369 0.0451479 -2.99032e-20)
(0.990622 0.06031 -5.98147e-20)
(1.05739 0.0744206 -1.63271e-19)
(1.11527 0.0867915 -6.43575e-20)
(1.16331 0.0968556 2.15288e-19)
(1.20128 0.104634 3.50421e-20)
(1.22748 0.105449 -5.27341e-20)
(0.0176602 -0.00742262 -1.07828e-19)
(0.0585011 -0.0207664 1.14475e-19)
(0.107595 -0.0298502 3.36751e-21)
(0.164212 -0.035459 -4.79553e-20)
(0.227881 -0.0377298 -1.58419e-20)
(0.29808 -0.0366396 -1.3496e-20)
(0.374084 -0.0322865 -8.50502e-20)
(0.454961 -0.0248501 1.04523e-19)
(0.539549 -0.0145932 -1.74007e-19)
(0.626442 -0.00188183 6.33678e-22)
(0.713995 0.0128041 -3.1497e-20)
(0.800361 0.0288708 -1.55164e-20)
(0.883562 0.0456241 3.67173e-20)
(0.961605 0.0622989 -8.38527e-20)
(1.03262 0.0781064 -4.5311e-21)
(1.09502 0.0922939 4.63424e-20)
(1.14765 0.104197 -1.14841e-19)
(1.18987 0.113337 5.62101e-23)
(1.22175 0.119776 5.44405e-22)
(1.24236 0.119875 9.29716e-20)
(0.0208261 -0.00791139 1.60144e-20)
(0.0676658 -0.0216843 3.15247e-20)
(0.122613 -0.030499 6.12308e-20)
(0.184897 -0.0352728 -3.3157e-20)
(0.253978 -0.0362252 -1.09088e-19)
(0.329237 -0.0334092 2.87583e-20)
(0.40983 -0.0270147 6.58717e-20)
(0.49468 -0.0173272 3.60043e-20)
(0.582462 -0.004728 1.22762e-19)
(0.671601 0.0102871 -3.39593e-20)
(0.760291 0.0271013 -2.0454e-20)
(0.846556 0.0449858 1.8001e-20)
(0.928349 0.0631249 -5.1966e-20)
(1.00369 0.0806595 -7.29952e-20)
(1.07081 0.0967482 -4.78663e-20)
(1.12835 0.110639 3.96854e-20)
(1.17544 0.121727 9.69817e-20)
(1.21182 0.129655 -4.71236e-20)
(1.23785 0.134559 -7.32543e-20)
(1.2533 0.133698 1.10867e-20)
(0.0242204 -0.0082283 2.69928e-20)
(0.077406 -0.0220942 6.53736e-21)
(0.138445 -0.0303123 -8.15142e-20)
(0.206529 -0.0339406 1.08591e-19)
(0.281045 -0.0332912 2.44475e-20)
(0.361272 -0.0285046 -1.28475e-19)
(0.44624 -0.0198756 4.95541e-20)
(0.534723 -0.00780889 -6.55325e-20)
(0.625238 0.00718353 3.2801e-21)
(0.716049 0.0244656 1.09546e-20)
(0.805213 0.0432789 3.2108e-20)
(0.890661 0.0627618 4.04488e-21)
(0.970328 0.0819885 1.45952e-19)
(1.0423 0.100028 5.81387e-20)
(1.105 0.116017 -2.83292e-20)
(1.15733 0.12924 -3.23644e-20)
(1.19877 0.139188 1.83244e-20)
(1.22942 0.145649 1.93632e-20)
(1.24999 0.148858 -3.19361e-20)
(1.26075 0.146838 -3.50725e-20)
(0.0278288 -0.00834785 -3.18499e-20)
(0.0876731 -0.0219309 1.90057e-21)
(0.155 -0.0291988 1.67287e-20)
(0.228971 -0.0313565 -4.52018e-20)
(0.308893 -0.0288194 8.79709e-20)
(0.393941 -0.0218275 5.0932e-20)
(0.483014 -0.0107934 -5.1618e-20)
(0.574741 0.00374722 -3.47033e-20)
(0.667484 0.0211401 3.18342e-20)
(0.759366 0.0406025 -5.00829e-20)
(0.848336 0.0612333 3.81214e-20)
(0.932279 0.0820462 -6.32778e-22)
(1.00916 0.102024 1.47417e-21)
(1.07722 0.12019 -2.97532e-20)
(1.13509 0.135695 8.45779e-20)
(1.18201 0.147897 -7.25971e-21)
(1.21782 0.156413 3.5755e-20)
(1.24301 0.161195 -5.14824e-20)
(1.25856 0.162593 3.90107e-20)
(1.26518 0.159267 -1.5931e-20)
(0.0316329 -0.00824531 5.1651e-20)
(0.0984067 -0.0211331 6.35157e-20)
(0.172173 -0.0270744 4.66007e-20)
(0.252063 -0.0274269 -7.1205e-21)
(0.33731 -0.0227193 9.24517e-21)
(0.426977 -0.0133032 6.05932e-22)
(0.519834 0.000279377 1.11633e-19)
(0.614369 0.01735 -3.35152e-20)
(0.708804 0.0371044 2.39978e-20)
(0.801144 0.0586098 -1.2298e-19)
(0.889267 0.0808275 1.84089e-20)
(0.97106 0.102661 5.63883e-20)
(1.04459 0.123024 -2.54017e-20)
(1.10827 0.140929 5.3683e-20)
(1.16104 0.155577 -7.01554e-20)
(1.20249 0.166431 9.61118e-20)
(1.23284 0.173264 3.3047e-21)
(1.25291 0.1762 -3.18194e-20)
(1.26396 0.175711 1.1729e-21)
(1.267 0.170989 4.69608e-20)
(0.0356096 -0.00789722 -9.62745e-20)
(0.109535 -0.0196442 2.50804e-20)
(0.189839 -0.0238645 -1.03133e-20)
(0.27563 -0.0220729 -7.23318e-20)
(0.366064 -0.0149207 -2.68484e-20)
(0.460095 -0.00288258 -5.17123e-20)
(0.556368 0.013359 -4.56277e-20)
(0.653239 0.0329741 -4.98414e-20)
(0.748808 0.0550036 5.21425e-20)
(0.840994 0.0783665 2.64114e-20)
(0.927647 0.101897 -7.8796e-20)
(1.00671 0.124407 -2.0001e-20)
(1.07639 0.144773 -9.5988e-21)
(1.13537 0.162031 -4.06831e-20)
(1.18291 0.175468 -6.9879e-21)
(1.21896 0.184685 -1.69654e-20)
(1.24411 0.18963 -6.86928e-20)
(1.2595 0.190601 3.30461e-20)
(1.26657 0.188191 4.04338e-20)
(1.26657 0.182029 -1.00896e-20)
(0.0397316 -0.00728206 3.23307e-21)
(0.120976 -0.0174141 -4.50883e-20)
(0.207859 -0.0195062 2.11351e-20)
(0.299477 -0.0152328 -1.51297e-20)
(0.394907 -0.00537618 1.85661e-20)
(0.492998 0.00945544 8.52375e-20)
(0.592277 0.0284301 -3.72065e-20)
(0.690983 0.0505605 9.49022e-20)
(0.787121 0.0747317 4.90058e-21)
(0.878557 0.0997212 4.9549e-20)
(0.963163 0.124252 4.52397e-21)
(1.03899 0.147072 3.58394e-20)
(1.10445 0.167053 7.74315e-21)
(1.15851 0.183291 3.63413e-21)
(1.2008 0.195193 -5.45926e-20)
(1.23163 0.202528 9.70201e-21)
(1.25193 0.205425 4.98807e-20)
(1.2631 0.204356 2.36163e-21)
(1.26674 0.200027 -2.39811e-20)
(1.26424 0.19242 9.7954e-21)
(0.0439673 -0.00638075 1.14252e-20)
(0.132637 -0.0144003 3.58862e-20)
(0.226083 -0.0139502 3.91244e-20)
(0.323393 -0.00686413 -1.16025e-20)
(0.423576 0.00593705 5.18684e-20)
(0.525377 0.0237028 -1.07238e-20)
(0.627219 0.0454452 8.78131e-20)
(0.727243 0.0700169 -1.14067e-19)
(0.823389 0.0961513 -2.09188e-20)
(0.913513 0.122497 -2.12721e-20)
(0.995553 0.147687 -2.62918e-20)
(1.06772 0.170437 -6.41198e-21)
(1.12868 0.189649 9.4995e-21)
(1.17773 0.204517 -3.52607e-20)
(1.21486 0.214599 3.63871e-20)
(1.24074 0.219848 -1.59384e-20)
(1.25661 0.220585 -1.2322e-20)
(1.26406 0.217443 -1.12706e-20)
(1.26481 0.211224 -7.05165e-21)
(1.26027 0.2022 -2.21816e-20)
(0.048281 -0.00517735 5.27333e-20)
(0.144414 -0.0105701 -5.43836e-20)
(0.244344 -0.00716245 6.61135e-21)
(0.347158 0.00305426 -7.69596e-21)
(0.451798 0.0190154 -1.87255e-20)
(0.556921 0.0398214 -3.91479e-20)
(0.660858 0.0643247 -6.35229e-21)
(0.761677 0.0912198 2.7712e-20)
(0.857286 0.119097 1.32475e-20)
(0.945576 0.146494 -1.66078e-20)
(1.0246 0.171983 1.90347e-20)
(1.09278 0.194278 -4.10097e-21)
(1.14907 0.212352 -3.98772e-20)
(1.19312 0.22553 5.91788e-20)
(1.22528 0.233549 1.66152e-20)
(1.24655 0.236558 -8.87632e-21)
(1.25844 0.235066 1.09257e-20)
(1.26268 0.229851 1.67056e-20)
(1.26104 0.221794 1.63603e-20)
(1.25492 0.211401 1.71135e-20)
(0.0526334 -0.00365956 -5.42948e-20)
(0.156198 -0.00590114 4.45823e-20)
(0.262468 0.000873684 1.94511e-20)
(0.37054 0.0145206 -4.06146e-20)
(0.479298 0.0338279 -8.7514e-21)
(0.58732 0.0577425 -3.53298e-20)
(0.692866 0.0849579 1.44159e-20)
(0.793961 0.114016 -2.46291e-20)
(0.88852 0.14338 1.98678e-21)
(0.974509 0.171498 4.30768e-21)
(1.05015 0.196912 8.44435e-21)
(1.1141 0.218375 -3.28556e-20)
(1.16566 0.234965 3.44349e-20)
(1.20481 0.246171 -2.48739e-20)
(1.23226 0.251927 -6.91243e-21)
(1.24933 0.252586 3.30968e-21)
(1.25771 0.248834 -7.56225e-21)
(1.25925 0.241576 -1.74134e-20)
(1.25568 0.231752 -7.85888e-22)
(1.24837 0.220052 -1.1661e-20)
(0.0569821 -0.00181928 -6.59284e-21)
(0.167872 -0.000382955 -2.06823e-20)
(0.280274 0.0101565 -7.19485e-21)
(0.393303 0.0275093 1.17257e-20)
(0.505797 0.0503154 -7.13047e-21)
(0.616269 0.0773677 7.50079e-21)
(0.722933 0.107204 1.85868e-20)
(0.823801 0.138227 1.72381e-20)
(0.916833 0.168788 1.42044e-20)
(1.00012 0.197278 -3.37414e-21)
(1.07208 0.222244 -9.04447e-21)
(1.13167 0.242512 1.09064e-20)
(1.17851 0.257303 -5.47346e-21)
(1.21296 0.266296 7.03945e-21)
(1.23605 0.269635 -4.31905e-21)
(1.24934 0.267874 9.29885e-21)
(1.25469 0.261866 -2.56416e-21)
(1.254 0.252618 1.08989e-20)
(1.24895 0.241111 -2.55839e-21)
(1.2408 0.228173 1.65269e-21)
(0.061282 0.000346894 -7.5764e-23)
(0.179313 0.00598203 -5.31229e-23)
(0.297574 0.0206647 -2.42162e-21)
(0.41521 0.0419698 1.2359e-20)
(0.531022 0.0683908 8.16236e-21)
(0.643477 0.098569 -6.48495e-21)
(0.750769 0.130896 -5.08738e-21)
(0.850932 0.163649 -1.61691e-21)
(0.94201 0.195096 -7.89843e-21)
(1.02225 0.223599 -4.4975e-22)
(1.09033 0.247748 3.98237e-22)
(1.1455 0.266482 -3.80868e-21)
(1.18774 0.279195 -2.51683e-21)
(1.21775 0.285775 -5.81079e-21)
(1.23685 0.286586 -6.25106e-21)
(1.24683 0.282378 -5.28078e-22)
(1.24963 0.274146 2.31168e-21)
(1.24716 0.262977 2.46417e-21)
(1.24102 0.249877 2.84063e-21)
(1.23235 0.235777 3.98779e-21)
(0.0654862 0.00283732 7.51134e-21)
(0.190395 0.0131778 -1.29011e-21)
(0.314182 0.0323568 -2.19286e-21)
(0.436025 0.0578264 5.61952e-21)
(0.554706 0.0879393 1.16405e-20)
(0.668669 0.121191 -5.29334e-21)
(0.77611 0.155841 -4.46413e-21)
(0.875123 0.19006 -8.81994e-21)
(0.963874 0.222063 -8.29987e-21)
(1.04081 0.25022 1.58778e-21)
(1.10488 0.273198 -1.53267e-21)
(1.15567 0.290088 -6.52689e-22)
(1.1935 0.300482 -3.67118e-21)
(1.21938 0.304496 -5.92702e-21)
(1.23492 0.302711 -1.30789e-21)
(1.24203 0.296058 -4.82461e-22)
(1.24275 0.285659 -1.91428e-22)
(1.23892 0.272655 1.16229e-21)
(1.23205 0.258056 4.32153e-21)
(1.22311 0.242869 3.36204e-21)
(0.0695467 0.00564496 -4.49077e-21)
(0.200993 0.0211743 -7.09107e-21)
(0.32991 0.0451705 -9.69761e-21)
(0.45552 0.074979 1.30451e-20)
(0.576599 0.10882 1.29345e-20)
(0.691588 0.145053 3.7799e-22)
(0.798721 0.181822 5.30091e-21)
(0.89618 0.217222 1.51724e-20)
(0.982292 0.249441 1.72278e-20)
(1.05574 0.276896 1.14885e-20)
(1.11576 0.298373 -2.85624e-20)
(1.16227 0.313143 1.2054e-20)
(1.19594 0.321022 -5.3759e-21)
(1.21807 0.322358 1.27573e-20)
(1.23046 0.317946 -2.88772e-22)
(1.23518 0.308882 -2.07717e-21)
(1.23424 0.296392 1.17302e-21)
(1.22944 0.281646 1.00793e-20)
(1.22215 0.265646 -3.99167e-21)
(1.21319 0.249448 -4.21623e-22)
(0.0734148 0.00875722 -1.39723e-20)
(0.210982 0.029927 3.43643e-20)
(0.344576 0.0590231 3.48581e-21)
(0.473475 0.093303 -4.48485e-20)
(0.596464 0.130865 -8.62588e-21)
(0.712005 0.16995 2.0538e-20)
(0.818398 0.208607 -4.8485e-20)
(0.913947 0.244882 -6.59144e-22)
(0.997171 0.276975 4.35894e-21)
(1.06701 0.303389 -1.30687e-21)
(1.12301 0.323062 1.50185e-20)
(1.16543 0.335475 -2.45714e-20)
(1.19524 0.340683 3.82148e-21)
(1.214 0.339271 -8.59929e-21)
(1.2237 0.332238 -6.44787e-21)
(1.22646 0.320823 6.26917e-21)