/*--------------------------------*- C++ -*----------------------------------*\
  =========                 |
  \\      /  F ield         | OpenFOAM: The Open Source CFD Toolbox
   \\    /   O peration     | Website:  https://openfoam.org
    \\  /    A nd           | Version:  7
     \\/     M anipulation  |
\*---------------------------------------------------------------------------*/
FoamFile
{
    version     2.0;
    format      ascii;
    class       volVectorField;
    location    "2.3";
    object      U;
}
// * * * * * * * * * * * * * * * * * * * * * * * * * * * * * * * * * * * * * //

dimensions      [0 1 -1 0 0 0 0];

internalField   nonuniform List<vector> 
197568
(
(3 -1.80402e-16 0)
(3 -3.01941e-16 0)
(3 -5.12874e-16 0)
(3 -2.64207e-16 0)
(3 1.80467e-16 0)
(3 7.12059e-16 0)
(3 9.899e-16 0)
(3 3.47917e-16 0)
(3 -9.85689e-16 0)
(3 -1.76515e-15 0)
(3 -6.60099e-16 0)
(3 -1.03142e-16 0)
(3 5.05219e-16 0)
(3 9.57731e-16 0)
(3 7.18487e-16 0)
(3 3.56908e-16 0)
(3 -4.29355e-17 0)
(3 -2.05083e-16 0)
(3 9.06509e-16 0)
(3 7.50731e-16 0)
(3 2.02836e-16 0)
(3 -2.62657e-16 0)
(3 1.38061e-16 0)
(3 3.34557e-16 0)
(3 5.8358e-16 0)
(3 8.00838e-16 0)
(3 -1.32132e-16 0)
(3 -2.49426e-16 0)
(3 2.40384e-16 0)
(3 2.69586e-16 0)
(3 2.56925e-16 0)
(3 3.71687e-17 0)
(3 5.02374e-17 0)
(3 9.11079e-17 0)
(3 6.44247e-16 0)
(3 7.04102e-16 0)
(3 3.201e-16 0)
(3 -5.22864e-16 0)
(3 -1.29732e-15 0)
(3 -1.53927e-15 0)
(3 -1.177e-15 0)
(3 -7.56172e-16 0)
(3 -2.26342e-16 0)
(3 -4.03503e-16 0)
(3 1.77778e-16 0)
(3 5.46374e-16 0)
(3 8.06326e-16 0)
(3 1.79362e-15 0)
(3 1.10442e-15 0)
(3 8.276e-16 0)
(3 4.3647e-16 0)
(3 7.83721e-16 0)
(3 -3.24842e-16 0)
(3 -7.54521e-16 0)
(3 -1.15498e-15 0)
(3 -1.11324e-15 0)
(3 -8.64941e-16 0)
(3 -1.0369e-15 0)
(3 -1.21326e-15 0)
(3 -1.59168e-15 0)
(3 -1.39987e-15 0)
(3 -8.60606e-16 0)
(3 -2.23465e-16 0)
(3 1.3113e-15 0)
(3 1.63336e-16 0)
(3 -8.64319e-16 0)
(3 -8.26535e-16 0)
(3 -1.26551e-15 0)
(3 -1.74329e-15 0)
(3 -1.60764e-15 0)
(3 -1.19807e-15 0)
(3 -5.0547e-16 0)
(3 1.00609e-16 0)
(3 2.85618e-16 0)
(3 -1.17536e-16 0)
(3 -6.65385e-16 0)
(3 -7.19136e-16 0)
(3 6.25076e-17 0)
(3 2.15424e-16 0)
(3 -3.53719e-16 0)
(3 -3.38709e-16 0)
(3 -4.64465e-16 0)
(3 -6.20255e-16 0)
(3 -3.56405e-16 0)
(3 -6.02243e-16 0)
(3 -4.50353e-16 0)
(3 -3.39297e-15 0)
(1.36568 0.00232116 0)
(0.776719 0.00237452 0)
(0.752453 0.00508731 0)
(0.741843 0.00340433 0)
(0.732852 0.0028079 0)
(0.725744 0.00276885 0)
(0.719583 0.00307409 0)
(0.713455 0.00335334 0)
(0.706608 0.00348308 0)
(0.698884 0.00365327 0)
(0.690059 0.00397797 0)
(0.679705 0.00446867 0)
(0.667656 0.00492804 0)
(0.654662 0.00495838 0)
(0.642344 0.00425477 0)
(0.632123 0.00324436 0)
(0.624924 0.00295998 0)
(0.620036 0.00336301 0)
(0.615694 0.00394233 0)
(0.610038 0.00453019 0)
(0.601337 0.00501477 0)
(0.588829 0.00505595 0)
(0.574288 0.00442798 0)
(0.561072 0.00355523 0)
(0.551771 0.0031502 0)
(0.546335 0.00346852 0)
(0.542526 0.00395686 0)
(0.537458 0.00440807 0)
(0.529207 0.00460581 0)
(0.516975 0.00434171 0)
(0.503171 0.00395473 0)
(0.489885 0.00388651 0)
(0.478882 0.00403952 0)
(0.471246 0.00422809 0)
(0.466795 0.00432894 0)
(0.462812 0.00435086 0)
(0.456661 0.00431041 0)
(0.446532 0.00412794 0)
(0.433566 0.003849 0)
(0.420742 0.00375176 0)
(0.409795 0.00400054 0)
(0.401505 0.00449051 0)
(0.395116 0.00479162 0)
(0.388437 0.00475948 0)
(0.379342 0.00464004 0)
(0.367599 0.00464652 0)
(0.35464 0.00468385 0)
(0.342206 0.00463094 0)
(0.332154 0.0045401 0)
(0.32452 0.00447821 0)
(0.31761 0.00447851 0)
(0.309168 0.00452863 0)
(0.299532 0.00461375 0)
(0.289674 0.00468721 0)
(0.280047 0.00475967 0)
(0.271447 0.00482935 0)
(0.26296 0.00487975 0)
(0.253063 0.00484338 0)
(0.241559 0.00474434 0)
(0.229731 0.00466932 0)
(0.218483 0.00468203 0)
(0.209514 0.00478827 0)
(0.201668 0.00488609 0)
(0.194443 0.00502145 0)
(0.185846 0.00513774 0)
(0.174968 0.00518867 0)
(0.162711 0.00517212 0)
(0.150481 0.00513584 0)
(0.139199 0.00512332 0)
(0.128934 0.00515595 0)
(0.118812 0.00521793 0)
(0.108399 0.0052995 0)
(0.0974071 0.00536181 0)
(0.0861518 0.00542305 0)
(0.0748709 0.00546701 0)
(0.0636682 0.00557824 0)
(0.052451 0.00569772 0)
(0.0412366 0.00583251 0)
(0.0298305 0.00593859 0)
(0.0179599 0.00594585 0)
(0.00620698 0.00604264 0)
(3 1.64614e-17 0)
(3 2.3942e-16 0)
(3 4.51203e-16 0)
(3 8.44858e-16 0)
(3 8.8832e-16 0)
(3 1.10574e-15 0)
(3 4.60674e-16 0)
(3 1.32289e-16 0)
(3 -1.81033e-15 0)
(3 -3.04809e-15 0)
(3 -2.36736e-15 0)
(3 -5.09954e-16 0)
(3 7.31089e-16 0)
(3 1.01538e-15 0)
(3 3.2893e-16 0)
(3 -7.34249e-17 0)
(3 1.52615e-17 0)
(3 -1.60229e-17 0)
(3 5.41063e-16 0)
(3 3.45808e-16 0)
(3 -3.93235e-16 0)
(3 -2.99192e-16 0)
(3 2.51657e-16 0)
(3 3.62384e-16 0)
(3 3.38576e-16 0)
(3 3.30683e-18 0)
(3 -1.43951e-15 0)
(3 -1.65825e-15 0)
(3 -6.39264e-16 0)
(3 -2.80796e-16 0)
(3 2.56548e-16 0)
(3 3.68543e-16 0)
(3 5.44393e-16 0)
(3 5.90991e-16 0)
(3 1.47635e-15 0)
(3 1.84627e-15 0)
(3 1.3276e-15 0)
(3 5.44048e-16 0)
(3 -8.77517e-16 0)
(3 -1.26734e-15 0)
(3 -1.56887e-15 0)
(3 -1.61537e-15 0)
(3 -9.94782e-16 0)
(3 -3.61854e-17 0)
(3 7.65553e-17 0)
(3 6.44034e-17 0)
(3 1.05366e-16 0)
(3 1.28722e-15 0)
(3 6.24889e-16 0)
(3 1.11136e-15 0)
(3 3.66972e-16 0)
(3 1.00351e-16 0)
(3 -9.56501e-16 0)
(3 -1.27895e-15 0)
(3 -1.29278e-15 0)
(3 -9.02713e-16 0)
(3 -1.14892e-15 0)
(3 -1.7649e-15 0)
(3 -1.79666e-15 0)
(3 -1.77218e-15 0)
(3 -1.55571e-15 0)
(3 -1.08483e-15 0)
(3 1.02246e-16 0)
(3 2.28044e-15 0)
(3 8.28831e-16 0)
(3 -3.30648e-16 0)
(3 -1.27222e-15 0)
(3 -2.59007e-15 0)
(3 -2.05284e-15 0)
(3 -1.35343e-15 0)
(3 -1.10527e-15 0)
(3 -1.82727e-15 0)
(3 -1.42059e-15 0)
(3 -3.60584e-16 0)
(3 -2.82126e-16 0)
(3 -7.39414e-16 0)
(3 1.95639e-17 0)
(3 5.68859e-16 0)
(3 5.08102e-16 0)
(3 3.2968e-16 0)
(3 9.11941e-18 0)
(3 1.62847e-16 0)
(3 4.60081e-16 0)
(3 6.90163e-16 0)
(3 4.5701e-16 0)
(3 2.15574e-16 0)
(3 -2.61859e-15 0)
(1.37005 0.010926 0)
(0.774941 0.0101731 0)
(0.750988 0.0150119 0)
(0.741775 0.0106136 0)
(0.732718 0.00825984 0)
(0.724989 0.00763189 0)
(0.718024 0.00825777 0)
(0.711172 0.00933611 0)
(0.703814 0.0103582 0)
(0.695926 0.0112194 0)
(0.687547 0.0121108 0)
(0.67821 0.0130598 0)
(0.667539 0.0136405 0)
(0.655835 0.0130851 0)
(0.64416 0.0112661 0)
(0.633641 0.0092528 0)
(0.625334 0.00888165 0)
(0.619575 0.0102231 0)
(0.614979 0.0122612 0)
(0.60928 0.0141223 0)
(0.601158 0.0151054 0)
(0.59007 0.0142674 0)
(0.576976 0.0118002 0)
(0.564093 0.00938333 0)
(0.554024 0.0091034 0)
(0.547558 0.0106847 0)
(0.543125 0.0125372 0)
(0.53774 0.0137827 0)
(0.529894 0.0137095 0)
(0.518631 0.0123649 0)
(0.505309 0.0110533 0)
(0.4921 0.0108309 0)
(0.48078 0.0115741 0)
(0.472655 0.0126061 0)
(0.467542 0.0133866 0)
(0.462953 0.0137377 0)
(0.456303 0.0137452 0)
(0.445969 0.013117 0)
(0.433049 0.0120833 0)
(0.420153 0.0115597 0)
(0.409071 0.0120678 0)
(0.400657 0.0134303 0)
(0.393887 0.0143937 0)
(0.386753 0.0143786 0)
(0.377444 0.0139899 0)
(0.365901 0.0138664 0)
(0.353239 0.0138303 0)
(0.341248 0.0136111 0)
(0.331524 0.0133922 0)
(0.323996 0.0133238 0)
(0.317039 0.0133906 0)
(0.308561 0.0135357 0)
(0.298938 0.0137492 0)
(0.28912 0.0139913 0)
(0.279507 0.0142936 0)
(0.270878 0.0146535 0)
(0.262357 0.0149171 0)
(0.252517 0.0148393 0)
(0.24115 0.0144735 0)
(0.229423 0.0141216 0)
(0.218293 0.0140519 0)
(0.209251 0.0142836 0)
(0.201311 0.0146032 0)
(0.193905 0.0150865 0)
(0.185104 0.015548 0)
(0.174098 0.0157733 0)
(0.161859 0.0157136 0)
(0.149787 0.0155358 0)
(0.138704 0.0154229 0)
(0.128616 0.0155028 0)
(0.118521 0.0157533 0)
(0.108024 0.0160596 0)
(0.0968714 0.0162465 0)
(0.0855282 0.0163716 0)
(0.0743087 0.016425 0)
(0.0632896 0.0167005 0)
(0.0522573 0.0170928 0)
(0.0411091 0.0175327 0)
(0.0296706 0.0178794 0)
(0.0177392 0.0178875 0)
(0.00615993 0.018072 0)
(3 1.11715e-16 0)
(3 3.09488e-16 0)
(3 9.70384e-16 0)
(3 1.18499e-15 0)
(3 6.76252e-16 0)
(3 -2.09604e-16 0)
(3 -9.20835e-16 0)
(3 -1.11021e-15 0)
(3 -1.43276e-15 0)
(3 -1.69827e-15 0)
(3 -1.64097e-15 0)
(3 -1.00846e-15 0)
(3 -4.57538e-16 0)
(3 -6.99983e-16 0)
(3 -1.14206e-15 0)
(3 -7.61808e-16 0)
(3 -2.27381e-16 0)
(3 -1.45969e-16 0)
(3 -5.28033e-17 0)
(3 -2.14377e-16 0)
(3 -2.23772e-16 0)
(3 7.02886e-16 0)
(3 1.11269e-15 0)
(3 4.12463e-16 0)
(3 -4.50974e-16 0)
(3 -2.57315e-15 0)
(3 -2.72016e-15 0)
(3 -2.39448e-15 0)
(3 -1.52394e-15 0)
(3 -1.17479e-16 0)
(3 9.81076e-16 0)
(3 1.54023e-15 0)
(3 1.46648e-15 0)
(3 1.3428e-15 0)
(3 1.46188e-15 0)
(3 8.91265e-16 0)
(3 6.44832e-16 0)
(3 5.44004e-16 0)
(3 -1.84192e-16 0)
(3 -9.65258e-16 0)
(3 -1.75314e-15 0)
(3 -2.76415e-15 0)
(3 -2.61346e-15 0)
(3 -2.58412e-16 0)
(3 -4.71216e-16 0)
(3 -1.13893e-15 0)
(3 -8.72026e-16 0)
(3 -1.88619e-16 0)
(3 3.5786e-16 0)
(3 5.01175e-16 0)
(3 7.54728e-17 0)
(3 -1.04838e-15 0)
(3 -1.19168e-15 0)
(3 -1.07207e-15 0)
(3 -1.19794e-15 0)
(3 -2.57578e-15 0)
(3 -3.31395e-15 0)
(3 -3.21725e-15 0)
(3 -2.66363e-15 0)
(3 -1.62524e-15 0)
(3 -1.38808e-15 0)
(3 -5.97628e-17 0)
(3 8.40335e-16 0)
(3 2.15787e-15 0)
(3 1.21665e-15 0)
(3 4.00362e-16 0)
(3 -2.02062e-15 0)
(3 -2.92517e-15 0)
(3 -2.7183e-15 0)
(3 -2.35904e-15 0)
(3 -2.50838e-15 0)
(3 -2.78966e-15 0)
(3 -2.33739e-15 0)
(3 -1.07772e-15 0)
(3 -4.83657e-16 0)
(3 -5.30669e-16 0)
(3 -5.40827e-16 0)
(3 4.2707e-16 0)
(3 6.08588e-16 0)
(3 7.09301e-16 0)
(3 -9.20159e-17 0)
(3 7.23307e-17 0)
(3 2.66277e-16 0)
(3 6.22388e-16 0)
(3 8.72569e-16 0)
(3 3.93377e-16 0)
(3 5.98797e-16 0)
(1.38229 0.0198108 0)
(0.775591 0.0172938 0)
(0.751309 0.0239701 0)
(0.743967 0.0180944 0)
(0.735142 0.0145767 0)
(0.72667 0.0130122 0)
(0.718479 0.0136138 0)
(0.710245 0.0152647 0)
(0.701696 0.0169443 0)
(0.693093 0.0187483 0)
(0.684661 0.0204248 0)
(0.676066 0.0218933 0)
(0.666757 0.0225475 0)
(0.656655 0.0214424 0)
(0.646163 0.0186781 0)
(0.635799 0.0156796 0)
(0.626496 0.0148763 0)
(0.619235 0.0167217 0)
(0.613538 0.0197781 0)
(0.60724 0.0226747 0)
(0.599052 0.0241721 0)
(0.588747 0.0232132 0)
(0.576887 0.0200829 0)
(0.564975 0.0168823 0)
(0.554646 0.0160592 0)
(0.546959 0.0179765 0)
(0.541257 0.0206922 0)
(0.535119 0.0225503 0)
(0.52732 0.0223881 0)
(0.517057 0.0204429 0)
(0.504504 0.0186799 0)
(0.491775 0.0186064 0)
(0.480579 0.0198342 0)
(0.472249 0.0213452 0)
(0.466431 0.0223683 0)
(0.461085 0.0227471 0)
(0.453824 0.0226157 0)
(0.443348 0.0216622 0)
(0.430793 0.0202488 0)
(0.418374 0.0196274 0)
(0.407737 0.0206344 0)
(0.399554 0.0227679 0)
(0.392441 0.0241041 0)
(0.384721 0.0238697 0)
(0.375085 0.0230678 0)
(0.363718 0.0227744 0)
(0.351411 0.0227303 0)
(0.339963 0.0224519 0)
(0.330659 0.0222025 0)
(0.323275 0.0221576 0)
(0.316264 0.0222796 0)
(0.307767 0.0224862 0)
(0.298243 0.0228182 0)
(0.288542 0.0231819 0)
(0.279011 0.0236385 0)
(0.270323 0.0242025 0)
(0.261656 0.0246489 0)
(0.251737 0.0245858 0)
(0.240445 0.0241048 0)
(0.228796 0.0236743 0)
(0.217892 0.0236656 0)
(0.208831 0.0240583 0)
(0.200905 0.0245115 0)
(0.193354 0.025161 0)
(0.184298 0.0257807 0)
(0.173071 0.0260986 0)
(0.160761 0.0260317 0)
(0.148805 0.0258544 0)
(0.137943 0.0257776 0)
(0.128099 0.0259239 0)
(0.118103 0.0262669 0)
(0.107526 0.0267021 0)
(0.0961714 0.0269734 0)
(0.0847042 0.0272188 0)
(0.0735678 0.0273717 0)
(0.0628008 0.0278257 0)
(0.0519961 0.0284254 0)
(0.0409164 0.0290839 0)
(0.0294357 0.0296481 0)
(0.0174482 0.0297292 0)
(0.00607702 0.0300717 0)
(3 -1.63587e-16 0)
(3 -2.42263e-16 0)
(3 -2.25676e-16 0)
(3 -2.3122e-16 0)
(3 -1.02455e-15 0)
(3 -1.76566e-15 0)
(3 -1.46538e-15 0)
(3 -1.25178e-15 0)
(3 -1.04397e-15 0)
(3 -1.00427e-15 0)
(3 -9.87072e-16 0)
(3 -6.39513e-16 0)
(3 -4.62804e-16 0)
(3 -5.12322e-16 0)
(3 -1.28644e-16 0)
(3 2.17427e-16 0)
(3 1.9938e-16 0)
(3 -1.23598e-16 0)
(3 2.02081e-16 0)
(3 1.07123e-16 0)
(3 -2.4514e-16 0)
(3 -3.52808e-16 0)
(3 -1.57648e-16 0)
(3 -6.7748e-17 0)
(3 -9.52834e-16 0)
(3 -1.98069e-15 0)
(3 -2.00007e-15 0)
(3 -2.15143e-15 0)
(3 -1.86701e-15 0)
(3 7.99564e-17 0)
(3 3.2975e-16 0)
(3 8.63412e-17 0)
(3 4.36319e-16 0)
(3 5.83434e-16 0)
(3 8.53983e-17 0)
(3 -7.19467e-16 0)
(3 -7.93042e-16 0)
(3 -9.70962e-16 0)
(3 -1.71612e-15 0)
(3 -1.99256e-15 0)
(3 -1.93276e-15 0)
(3 -2.60173e-15 0)
(3 -3.07742e-15 0)
(3 -2.56862e-15 0)
(3 -2.12795e-15 0)
(3 -1.45954e-15 0)
(3 -1.50838e-15 0)
(3 -1.16649e-15 0)
(3 -7.1276e-16 0)
(3 -8.27782e-16 0)
(3 -1.14435e-15 0)
(3 -1.1078e-15 0)
(3 -1.44786e-15 0)
(3 -2.24098e-15 0)
(3 -2.64597e-15 0)
(3 -2.9595e-15 0)
(3 -2.54678e-15 0)
(3 -1.9405e-15 0)
(3 -1.26577e-15 0)
(3 1.13645e-16 0)
(3 4.34342e-16 0)
(3 3.97782e-16 0)
(3 5.49013e-16 0)
(3 9.63854e-16 0)
(3 6.77375e-16 0)
(3 -6.3577e-16 0)
(3 -2.42374e-15 0)
(3 -2.542e-15 0)
(3 -3.35153e-15 0)
(3 -4.44682e-15 0)
(3 -4.7069e-15 0)
(3 -2.31599e-15 0)
(3 -1.23227e-15 0)
(3 -1.31815e-15 0)
(3 -8.21731e-16 0)
(3 -7.30303e-16 0)
(3 -1.375e-15 0)
(3 -2.45757e-16 0)
(3 5.22688e-16 0)
(3 4.1046e-16 0)
(3 -1.9479e-16 0)
(3 -1.57168e-15 0)
(3 -1.4486e-15 0)
(3 -5.32313e-16 0)
(3 2.11226e-16 0)
(3 2.42456e-16 0)
(3 2.17442e-15 0)
(1.40193 0.0283244 0)
(0.778083 0.0233166 0)
(0.752717 0.0312223 0)
(0.746112 0.0260348 0)
(0.737459 0.0221755 0)
(0.728738 0.0197375 0)
(0.719764 0.0194441 0)
(0.710709 0.0212362 0)
(0.701228 0.023754 0)
(0.691929 0.0264121 0)
(0.683356 0.0288669 0)
(0.675438 0.0306142 0)
(0.667485 0.0309421 0)
(0.658926 0.0293451 0)
(0.649294 0.0260439 0)
(0.638781 0.0226543 0)
(0.6284 0.0215634 0)
(0.619462 0.023502 0)
(0.612135 0.0271829 0)
(0.605109 0.0308394 0)
(0.59707 0.0326326 0)
(0.587934 0.0315402 0)
(0.577663 0.0281852 0)
(0.566689 0.0247241 0)
(0.556176 0.0236687 0)
(0.54739 0.0257931 0)
(0.540419 0.0291668 0)
(0.533541 0.0312901 0)
(0.525919 0.0306656 0)
(0.516621 0.0281095 0)
(0.505002 0.0261485 0)
(0.492884 0.0263129 0)
(0.481919 0.0281786 0)
(0.47321 0.0302366 0)
(0.466455 0.0314896 0)
(0.460138 0.0318716 0)
(0.452211 0.0314852 0)
(0.441791 0.0301633 0)
(0.429833 0.0285157 0)
(0.41809 0.0279415 0)
(0.407956 0.0295481 0)
(0.39973 0.0323956 0)
(0.391866 0.0339922 0)
(0.383317 0.0334541 0)
(0.37333 0.0321453 0)
(0.362101 0.0315982 0)
(0.35034 0.0315017 0)
(0.339527 0.031175 0)
(0.330603 0.030952 0)
(0.323202 0.0309686 0)
(0.315984 0.0311269 0)
(0.307417 0.0313821 0)
(0.297993 0.0318082 0)
(0.288379 0.0322944 0)
(0.278874 0.0329024 0)
(0.269988 0.0336805 0)
(0.260998 0.034319 0)
(0.250888 0.0342987 0)
(0.239614 0.0337595 0)
(0.228049 0.0333352 0)
(0.217389 0.0334793 0)
(0.208274 0.0340627 0)
(0.200296 0.0346173 0)
(0.19251 0.0352871 0)
(0.183134 0.0359566 0)
(0.171688 0.0362902 0)
(0.159335 0.0362127 0)
(0.147519 0.0361113 0)
(0.136903 0.0361624 0)
(0.127311 0.0364165 0)
(0.117446 0.0368129 0)
(0.106829 0.0373091 0)
(0.0953251 0.0376232 0)
(0.0837841 0.0379965 0)
(0.0727803 0.0382901 0)
(0.0623095 0.0389202 0)
(0.051761 0.0397082 0)
(0.0407466 0.0405501 0)
(0.0292164 0.0413058 0)
(0.0172059 0.0414948 0)
(0.00600371 0.042012 0)
(3 1.1807e-16 0)
(3 4.10544e-17 0)
(3 1.87871e-16 0)
(3 6.20075e-17 0)
(3 -5.10252e-16 0)
(3 -6.61721e-16 0)
(3 -9.11888e-16 0)
(3 -7.48312e-16 0)
(3 -1.29407e-15 0)
(3 -1.80261e-15 0)
(3 -1.37913e-15 0)
(3 -9.24146e-16 0)
(3 -9.22432e-16 0)
(3 -9.85918e-16 0)
(3 -1.11596e-16 0)
(3 -1.65699e-17 0)
(3 6.12358e-17 0)
(3 -5.02427e-17 0)
(3 1.28156e-16 0)
(3 -1.96699e-17 0)
(3 -6.33361e-16 0)
(3 -1.4037e-15 0)
(3 -1.09773e-15 0)
(3 -2.80647e-16 0)
(3 -2.90442e-16 0)
(3 4.61949e-16 0)
(3 6.55983e-16 0)
(3 8.68969e-16 0)
(3 1.27665e-15 0)
(3 1.00495e-15 0)
(3 4.6757e-16 0)
(3 -4.83202e-16 0)
(3 -1.04128e-15 0)
(3 -6.35686e-16 0)
(3 -9.75189e-16 0)
(3 -1.35491e-15 0)
(3 -1.89768e-15 0)
(3 -1.6398e-15 0)
(3 -1.96773e-15 0)
(3 -2.71365e-15 0)
(3 -3.03697e-15 0)
(3 -2.18953e-15 0)
(3 -2.96191e-15 0)
(3 -3.60407e-15 0)
(3 -3.51287e-15 0)
(3 -2.31698e-15 0)
(3 -2.06293e-15 0)
(3 -2.00596e-15 0)
(3 -2.15266e-15 0)
(3 -1.86924e-15 0)
(3 -1.68985e-15 0)
(3 -1.75099e-15 0)
(3 -1.49945e-15 0)
(3 -1.64968e-15 0)
(3 -1.92421e-15 0)
(3 -1.50177e-15 0)
(3 -9.61577e-16 0)
(3 2.32723e-16 0)
(3 5.38398e-16 0)
(3 6.54228e-16 0)
(3 9.08823e-16 0)
(3 1.02698e-15 0)
(3 1.67788e-15 0)
(3 1.64122e-15 0)
(3 7.98853e-16 0)
(3 -3.77251e-16 0)
(3 -1.14795e-15 0)
(3 -1.4517e-15 0)
(3 -2.27687e-15 0)
(3 -3.2529e-15 0)
(3 -3.72557e-15 0)
(3 -3.1439e-15 0)
(3 -2.82612e-15 0)
(3 -2.26598e-15 0)
(3 -4.81477e-16 0)
(3 8.06393e-16 0)
(3 4.36456e-17 0)
(3 -5.2203e-16 0)
(3 -6.09988e-16 0)
(3 -1.16955e-16 0)
(3 -2.227e-16 0)
(3 -9.64486e-16 0)
(3 -1.04871e-15 0)
(3 -8.19262e-16 0)
(3 -1.24651e-15 0)
(3 -1.33264e-17 0)
(3 1.51518e-15 0)
(1.42841 0.0353697 0)
(0.78109 0.0280268 0)
(0.754071 0.0372327 0)
(0.74672 0.0337972 0)
(0.737906 0.0312051 0)
(0.729195 0.028421 0)
(0.719975 0.0268554 0)
(0.710508 0.027618 0)
(0.700655 0.0301102 0)
(0.690859 0.0334029 0)
(0.682092 0.0365088 0)
(0.674715 0.0386221 0)
(0.667937 0.0388762 0)
(0.660806 0.0371185 0)
(0.652205 0.033885 0)
(0.641957 0.0302916 0)
(0.630871 0.0288246 0)
(0.620501 0.0305694 0)
(0.611488 0.0344721 0)
(0.603667 0.0385512 0)
(0.595857 0.0405667 0)
(0.587671 0.0395526 0)
(0.578619 0.0363869 0)
(0.568405 0.0330285 0)
(0.557753 0.0318425 0)
(0.547971 0.0338828 0)
(0.539904 0.0375868 0)
(0.532385 0.0397464 0)
(0.524894 0.0386313 0)
(0.516329 0.0357789 0)
(0.505812 0.0338884 0)
(0.49449 0.0343474 0)
(0.484002 0.0367351 0)
(0.474998 0.039113 0)
(0.46727 0.0404086 0)
(0.459825 0.0406819 0)
(0.45122 0.0400686 0)
(0.441002 0.0385198 0)
(0.429919 0.0368275 0)
(0.419113 0.0365278 0)
(0.409595 0.038794 0)
(0.401125 0.0421863 0)
(0.3922 0.0439567 0)
(0.382774 0.0430195 0)
(0.372444 0.0411909 0)
(0.361542 0.0404225 0)
(0.350455 0.0402162 0)
(0.340321 0.0398717 0)
(0.331675 0.0396898 0)
(0.324072 0.0397722 0)
(0.316464 0.0399597 0)
(0.307785 0.0402527 0)
(0.298457 0.0407411 0)
(0.288905 0.0413555 0)
(0.279401 0.0421191 0)
(0.270221 0.0431318 0)
(0.260766 0.0439872 0)
(0.250371 0.0440438 0)
(0.239033 0.0435175 0)
(0.227631 0.0431717 0)
(0.217197 0.0435292 0)
(0.208035 0.0443241 0)
(0.199937 0.0449483 0)
(0.191814 0.0455343 0)
(0.182063 0.0461226 0)
(0.17041 0.0464004 0)
(0.158021 0.0462968 0)
(0.146303 0.0463162 0)
(0.135851 0.0465573 0)
(0.12638 0.0469265 0)
(0.116565 0.0473306 0)
(0.105893 0.0478215 0)
(0.0942992 0.0481456 0)
(0.0827554 0.0486511 0)
(0.0719155 0.0491448 0)
(0.0617257 0.0499715 0)
(0.0514179 0.0509208 0)
(0.0404841 0.0519188 0)
(0.0289451 0.05285 0)
(0.0169872 0.0531692 0)
(0.00593851 0.0538692 0)
(3 8.60827e-17 0)
(3 4.49948e-16 0)
(3 8.56112e-16 0)
(3 9.37639e-16 0)
(3 7.42376e-16 0)
(3 4.05361e-16 0)
(3 -6.91158e-16 0)
(3 -1.17342e-15 0)
(3 -1.43505e-15 0)
(3 -1.4701e-15 0)
(3 -1.6174e-15 0)
(3 -1.19721e-15 0)
(3 -1.10264e-15 0)
(3 -8.95474e-16 0)
(3 -1.28552e-15 0)
(3 -1.00732e-15 0)
(3 -1.13583e-15 0)
(3 -3.14142e-16 0)
(3 -6.37311e-16 0)
(3 -6.73624e-16 0)
(3 -6.63554e-16 0)
(3 -8.70986e-16 0)
(3 -4.39707e-16 0)
(3 7.06938e-17 0)
(3 2.0421e-16 0)
(3 9.81066e-16 0)
(3 1.88478e-15 0)
(3 2.30059e-15 0)
(3 2.07244e-15 0)
(3 1.74938e-15 0)
(3 5.69575e-16 0)
(3 -6.44629e-17 0)
(3 -1.1779e-15 0)
(3 -1.67853e-15 0)
(3 -9.92289e-16 0)
(3 -1.84945e-15 0)
(3 -2.03945e-15 0)
(3 -2.37869e-15 0)
(3 -2.2948e-15 0)
(3 -2.16788e-15 0)
(3 -1.54966e-15 0)
(3 -1.05984e-15 0)
(3 -1.75677e-15 0)
(3 -2.80015e-15 0)
(3 -3.01009e-15 0)
(3 -3.18241e-15 0)
(3 -2.82216e-15 0)
(3 -2.79219e-15 0)
(3 -2.57113e-15 0)
(3 -1.43831e-15 0)
(3 -1.23078e-15 0)
(3 -1.21273e-15 0)
(3 -1.79936e-15 0)
(3 -1.57953e-15 0)
(3 -9.12608e-16 0)
(3 -1.15614e-15 0)
(3 -6.80921e-16 0)
(3 8.69529e-16 0)
(3 1.42662e-15 0)
(3 8.38083e-16 0)
(3 1.14269e-15 0)
(3 1.99748e-15 0)
(3 2.41021e-15 0)
(3 2.18925e-15 0)
(3 1.35619e-15 0)
(3 -1.09269e-16 0)
(3 -7.37395e-16 0)
(3 -1.3699e-15 0)
(3 -1.7808e-15 0)
(3 -1.50247e-15 0)
(3 -1.83404e-15 0)
(3 -2.03248e-15 0)
(3 -2.40659e-15 0)
(3 -1.31757e-15 0)
(3 -2.60037e-17 0)
(3 3.4781e-16 0)
(3 5.01734e-17 0)
(3 -7.14169e-16 0)
(3 -1.43199e-15 0)
(3 -7.48569e-16 0)
(3 6.74376e-16 0)
(3 8.94467e-16 0)
(3 -5.17167e-16 0)
(3 -1.64858e-15 0)
(3 -1.60112e-15 0)
(3 -1.20259e-15 0)
(3 -1.52514e-15 0)
(1.46029 0.0415929 0)
(0.7827 0.0330053 0)
(0.754383 0.0430862 0)
(0.746035 0.041479 0)
(0.736795 0.0403428 0)
(0.728363 0.0379809 0)
(0.719748 0.0355099 0)
(0.710477 0.0347616 0)
(0.700549 0.0364046 0)
(0.690275 0.0395367 0)
(0.680855 0.0429641 0)
(0.673498 0.0454663 0)
(0.667429 0.046142 0)
(0.661217 0.0449636 0)
(0.653562 0.0422397 0)
(0.643828 0.0387313 0)
(0.632474 0.0368281 0)
(0.621071 0.0379599 0)
(0.610821 0.0414943 0)
(0.602374 0.0456955 0)
(0.594995 0.0480027 0)
(0.587598 0.0473168 0)
(0.579459 0.0445774 0)
(0.569872 0.0414939 0)
(0.559206 0.040267 0)
(0.548805 0.0421764 0)
(0.539944 0.0459046 0)
(0.531901 0.0479197 0)
(0.524427 0.0464668 0)
(0.516405 0.0435829 0)
(0.506828 0.0418586 0)
(0.496447 0.0426907 0)
(0.486391 0.045487 0)
(0.477016 0.0479952 0)
(0.468269 0.0490921 0)
(0.45965 0.049146 0)
(0.450413 0.0483655 0)
(0.440487 0.0468055 0)
(0.430439 0.0453017 0)
(0.42074 0.0454926 0)
(0.411772 0.0483006 0)
(0.402616 0.0520157 0)
(0.39267 0.0538122 0)
(0.382405 0.0524974 0)
(0.372026 0.0501854 0)
(0.36154 0.0492121 0)
(0.351358 0.0489236 0)
(0.341939 0.0485741 0)
(0.333424 0.0484439 0)
(0.325421 0.0485766 0)
(0.317265 0.0488215 0)
(0.308428 0.0491426 0)
(0.299191 0.0496867 0)
(0.289756 0.0504292 0)
(0.280279 0.0513763 0)
(0.270761 0.0526304 0)
(0.260756 0.0536956 0)
(0.250046 0.0538316 0)
(0.23862 0.0533868 0)
(0.227523 0.0531479 0)
(0.217309 0.0537429 0)
(0.208168 0.054764 0)
(0.199909 0.0554584 0)
(0.19139 0.0559525 0)
(0.181293 0.0563758 0)
(0.16953 0.0565444 0)
(0.157184 0.056385 0)
(0.145565 0.0565184 0)
(0.135176 0.0569752 0)
(0.125621 0.0574721 0)
(0.115731 0.0578644 0)
(0.104958 0.0583089 0)
(0.0933424 0.0586157 0)
(0.0818695 0.0592307 0)
(0.0711919 0.0599364 0)
(0.0612147 0.0609695 0)
(0.0510681 0.0620492 0)
(0.0402078 0.0631941 0)
(0.0286994 0.0642972 0)
(0.0168414 0.0647449 0)
(0.00590581 0.0656279 0)
(3 -9.24756e-17 0)
(3 4.15318e-16 0)
(3 2.12193e-16 0)
(3 -3.5243e-16 0)
(3 -2.74169e-16 0)
(3 -2.0907e-16 0)
(3 2.02116e-16 0)
(3 -5.29678e-16 0)
(3 -1.23392e-15 0)
(3 -1.57687e-15 0)
(3 -1.94289e-15 0)
(3 -1.80591e-15 0)
(3 -8.85338e-16 0)
(3 2.4088e-16 0)
(3 -4.3722e-16 0)
(3 -7.48987e-16 0)
(3 -4.85631e-16 0)
(3 5.54647e-16 0)
(3 -5.27457e-17 0)
(3 -7.48338e-16 0)
(3 -9.95703e-16 0)
(3 -1.1942e-15 0)
(3 -1.55494e-15 0)
(3 -5.01305e-16 0)
(3 7.62608e-16 0)
(3 1.12505e-15 0)
(3 1.35192e-15 0)
(3 1.32046e-15 0)
(3 1.24596e-15 0)
(3 8.88253e-16 0)
(3 5.12051e-16 0)
(3 2.00878e-17 0)
(3 -9.33798e-17 0)
(3 -1.406e-15 0)
(3 -2.18794e-15 0)
(3 -2.04357e-15 0)
(3 -2.34318e-15 0)
(3 -3.10204e-15 0)
(3 -2.34897e-15 0)
(3 -9.37945e-16 0)
(3 -1.02006e-15 0)
(3 -1.66621e-15 0)
(3 -2.61393e-15 0)
(3 -2.25196e-15 0)
(3 -1.9135e-15 0)
(3 -1.82532e-15 0)
(3 -1.92527e-15 0)
(3 -1.74551e-15 0)
(3 -1.11078e-15 0)
(3 -6.13642e-16 0)
(3 -4.69415e-16 0)
(3 -5.51672e-16 0)
(3 -6.39127e-16 0)
(3 -9.38142e-16 0)
(3 -8.44836e-16 0)
(3 -4.55185e-16 0)
(3 -4.17578e-16 0)
(3 9.87681e-16 0)
(3 1.55246e-15 0)
(3 1.89321e-15 0)
(3 2.2651e-15 0)
(3 2.67383e-15 0)
(3 2.0711e-15 0)
(3 1.86042e-15 0)
(3 1.8692e-15 0)
(3 6.44874e-16 0)
(3 -7.50305e-16 0)
(3 -1.86248e-15 0)
(3 -1.53931e-15 0)
(3 -8.54546e-16 0)
(3 -7.78605e-16 0)
(3 -9.98913e-16 0)
(3 -9.7078e-16 0)
(3 -7.66951e-16 0)
(3 -7.21892e-16 0)
(3 -7.78161e-16 0)
(3 -7.31759e-16 0)
(3 -5.60615e-16 0)
(3 -4.20647e-16 0)
(3 -8.07107e-16 0)
(3 -7.23535e-16 0)
(3 -8.03079e-16 0)
(3 -1.43787e-15 0)
(3 -2.01725e-15 0)
(3 -1.41792e-15 0)
(3 -1.27309e-15 0)
(3 -1.89288e-15 0)
(1.49763 0.0483523 0)
(0.783745 0.0381673 0)
(0.753042 0.0489675 0)
(0.744797 0.0494047 0)
(0.736032 0.0492725 0)
(0.728625 0.0473755 0)
(0.721053 0.0443873 0)
(0.712169 0.0421811 0)
(0.70181 0.0425804 0)
(0.690608 0.0451507 0)
(0.680091 0.0486759 0)
(0.672038 0.0517307 0)
(0.666388 0.0532192 0)
(0.660871 0.0527777 0)
(0.654135 0.0507227 0)
(0.645159 0.0473456 0)
(0.633782 0.0450172 0)
(0.621699 0.0454212 0)
(0.610501 0.0483777 0)
(0.601431 0.0525129 0)
(0.594374 0.0551861 0)
(0.587446 0.0549586 0)
(0.579835 0.0526465 0)
(0.570603 0.0498472 0)
(0.559936 0.0486854 0)
(0.549145 0.0504211 0)
(0.539719 0.053982 0)
(0.531248 0.0558169 0)
(0.523666 0.0542373 0)
(0.516027 0.0515751 0)
(0.507324 0.0502337 0)
(0.498076 0.0514685 0)
(0.488494 0.0544511 0)
(0.478689 0.0568164 0)
(0.469048 0.0575326 0)
(0.459416 0.0572682 0)
(0.449712 0.0564491 0)
(0.440273 0.0551187 0)
(0.431428 0.0540904 0)
(0.422872 0.0548626 0)
(0.414088 0.0579436 0)
(0.404084 0.0616763 0)
(0.39308 0.0634203 0)
(0.382089 0.0617791 0)
(0.371813 0.0591257 0)
(0.36198 0.0579903 0)
(0.352795 0.057669 0)
(0.344011 0.0573498 0)
(0.335416 0.0572639 0)
(0.326812 0.0574676 0)
(0.318035 0.0577454 0)
(0.30903 0.05811 0)
(0.299968 0.0587016 0)
(0.29085 0.0595476 0)
(0.281502 0.0606796 0)
(0.271689 0.0621447 0)
(0.261161 0.0634161 0)
(0.249997 0.0636569 0)
(0.238706 0.0633248 0)
(0.227927 0.0632004 0)
(0.217936 0.0640388 0)
(0.208929 0.0652979 0)
(0.200404 0.0661079 0)
(0.191411 0.0665197 0)
(0.180978 0.0667695 0)
(0.169159 0.0667949 0)
(0.156929 0.0665399 0)
(0.145419 0.0667472 0)
(0.134994 0.06741 0)
(0.125108 0.0680499 0)
(0.115016 0.068439 0)
(0.104066 0.0688329 0)
(0.0924823 0.0691064 0)
(0.081149 0.0697999 0)
(0.0706214 0.0706821 0)
(0.0607766 0.0719112 0)
(0.0507079 0.0731059 0)
(0.0399065 0.074395 0)
(0.0284682 0.07567 0)
(0.016743 0.0762298 0)
(0.00589255 0.0772706 0)
(3 -2.94679e-16 0)
(3 -2.08339e-16 0)
(3 -5.94054e-16 0)
(3 -1.00296e-15 0)
(3 -5.61417e-16 0)
(3 1.19081e-16 0)
(3 4.28262e-16 0)
(3 3.11962e-17 0)
(3 -9.41134e-16 0)
(3 -1.35656e-15 0)
(3 -1.40187e-15 0)
(3 -7.7409e-16 0)
(3 -7.35094e-16 0)
(3 -9.94162e-16 0)
(3 2.90832e-16 0)
(3 6.94665e-16 0)
(3 8.92633e-16 0)
(3 5.55815e-16 0)
(3 4.47357e-16 0)
(3 1.15342e-16 0)
(3 -3.35189e-16 0)
(3 -3.36702e-16 0)
(3 -9.23092e-16 0)
(3 -6.49716e-16 0)
(3 7.49246e-16 0)
(3 9.37445e-16 0)
(3 8.16115e-16 0)
(3 6.59314e-17 0)
(3 -1.04055e-16 0)
(3 -3.35891e-16 0)
(3 -6.6909e-17 0)
(3 1.01592e-16 0)
(3 5.94678e-16 0)
(3 -6.25088e-17 0)
(3 -7.56275e-16 0)
(3 -9.34845e-16 0)
(3 -1.72769e-15 0)
(3 -1.95987e-15 0)
(3 -1.23311e-15 0)
(3 -7.85417e-16 0)
(3 -1.16651e-15 0)
(3 -2.267e-15 0)
(3 -3.29458e-15 0)
(3 -2.67095e-15 0)
(3 -1.40314e-15 0)
(3 -8.72767e-16 0)
(3 -1.5372e-15 0)
(3 -1.64887e-15 0)
(3 -2.02199e-15 0)
(3 -1.82904e-15 0)
(3 -1.18895e-15 0)
(3 -6.81533e-16 0)
(3 3.32664e-16 0)
(3 9.62698e-16 0)
(3 6.777e-16 0)
(3 1.02065e-15 0)
(3 1.44225e-15 0)
(3 1.47409e-15 0)
(3 1.52687e-15 0)
(3 2.84763e-15 0)
(3 2.46751e-15 0)
(3 2.11939e-15 0)
(3 1.90879e-15 0)
(3 1.47059e-15 0)
(3 9.59137e-16 0)
(3 4.8785e-16 0)
(3 6.37832e-16 0)
(3 1.82428e-16 0)
(3 -4.55976e-16 0)
(3 -1.55625e-15 0)
(3 -1.51826e-15 0)
(3 -1.40806e-15 0)
(3 -1.55732e-15 0)
(3 -1.66858e-15 0)
(3 -1.63927e-15 0)
(3 -1.49307e-15 0)
(3 -1.9355e-15 0)
(3 -2.43342e-15 0)
(3 -1.74742e-15 0)
(3 -1.93633e-15 0)
(3 -2.64484e-15 0)
(3 -2.64194e-15 0)
(3 -3.15469e-15 0)
(3 -1.15281e-15 0)
(3 -1.0378e-15 0)
(3 -9.03114e-16 0)
(3 -1.45622e-15 0)
(1.54319 0.0562388 0)
(0.786604 0.0442835 0)
(0.751141 0.0544882 0)
(0.743487 0.0572696 0)
(0.735422 0.0576769 0)
(0.729138 0.0562195 0)
(0.722589 0.0532409 0)
(0.714166 0.0500002 0)
(0.703432 0.0490435 0)
(0.691272 0.0508504 0)
(0.679573 0.054209 0)
(0.670592 0.0579692 0)
(0.665177 0.0603985 0)
(0.660105 0.0607453 0)
(0.654088 0.0591582 0)
(0.645824 0.0559492 0)
(0.63461 0.0531026 0)
(0.622191 0.0528194 0)
(0.610344 0.055248 0)
(0.600914 0.0593327 0)
(0.59411 0.0623762 0)
(0.587449 0.0626057 0)
(0.58011 0.0606175 0)
(0.571132 0.0580522 0)
(0.560564 0.0569661 0)
(0.549506 0.0585149 0)
(0.539643 0.0618391 0)
(0.530771 0.0635781 0)
(0.522993 0.0620779 0)
(0.515675 0.0597728 0)
(0.507804 0.0589105 0)
(0.499544 0.060524 0)
(0.490302 0.0634457 0)
(0.480102 0.0653449 0)
(0.469513 0.0656537 0)
(0.459287 0.0651275 0)
(0.449335 0.0644432 0)
(0.440592 0.0635884 0)
(0.432921 0.0631998 0)
(0.425261 0.0645188 0)
(0.416169 0.0675829 0)
(0.405016 0.0712069 0)
(0.393126 0.072733 0)
(0.381771 0.0708354 0)
(0.37179 0.0680016 0)
(0.362815 0.0667755 0)
(0.35468 0.066467 0)
(0.346368 0.0662024 0)
(0.337453 0.0661349 0)
(0.328079 0.0663711 0)
(0.318677 0.0667064 0)
(0.309577 0.0671464 0)
(0.300813 0.067798 0)
(0.292116 0.0687322 0)
(0.282934 0.0700188 0)
(0.272827 0.071631 0)
(0.261772 0.0730867 0)
(0.250214 0.0734906 0)
(0.238945 0.0732822 0)
(0.228416 0.0733221 0)
(0.218784 0.0744593 0)
(0.209843 0.0759427 0)
(0.200965 0.0768723 0)
(0.191438 0.0772255 0)
(0.180688 0.0773255 0)
(0.168866 0.0772025 0)
(0.156846 0.0768189 0)
(0.145507 0.07706 0)
(0.135007 0.0778669 0)
(0.124704 0.0786465 0)
(0.114273 0.0790539 0)
(0.103131 0.0794167 0)
(0.0916507 0.0796574 0)
(0.0805388 0.0804087 0)
(0.0701766 0.0814042 0)
(0.0604132 0.0827962 0)
(0.0503628 0.0841057 0)
(0.0396036 0.0855351 0)
(0.0282549 0.0869797 0)
(0.0166687 0.0876224 0)
(0.00588507 0.0887727 0)
(3 5.18107e-17 0)
(3 -7.55436e-17 0)
(3 -8.78772e-18 0)
(3 6.72291e-16 0)
(3 1.02161e-15 0)
(3 6.61224e-16 0)
(3 -6.11001e-17 0)
(3 -6.12829e-16 0)
(3 9.58642e-17 0)
(3 2.96682e-16 0)
(3 4.44412e-16 0)
(3 4.95326e-16 0)
(3 4.24059e-16 0)
(3 2.49785e-17 0)
(3 3.3203e-16 0)
(3 2.22051e-16 0)
(3 3.71709e-16 0)
(3 5.01625e-16 0)
(3 4.67548e-16 0)
(3 -9.50341e-17 0)
(3 -8.21534e-17 0)
(3 1.01751e-16 0)
(3 1.38948e-16 0)
(3 1.09826e-16 0)
(3 7.40752e-16 0)
(3 -2.18238e-16 0)
(3 -2.14378e-15 0)
(3 -2.42954e-15 0)
(3 -2.02197e-15 0)
(3 -1.64937e-15 0)
(3 -1.35638e-15 0)
(3 -4.92137e-16 0)
(3 -1.56396e-16 0)
(3 1.79886e-16 0)
(3 1.75657e-16 0)
(3 -4.3547e-16 0)
(3 -9.08822e-16 0)
(3 -6.77038e-16 0)
(3 -1.64013e-16 0)
(3 5.05329e-16 0)
(3 -1.30144e-16 0)
(3 -9.9284e-16 0)
(3 -1.60294e-15 0)
(3 -2.45607e-15 0)
(3 -2.25492e-15 0)
(3 -1.11085e-15 0)
(3 2.81526e-16 0)
(3 1.89361e-16 0)
(3 -5.14469e-16 0)
(3 -5.12559e-16 0)
(3 -2.52998e-16 0)
(3 7.20193e-16 0)
(3 8.13953e-16 0)
(3 1.07638e-15 0)
(3 1.71004e-15 0)
(3 1.81216e-15 0)
(3 2.80586e-15 0)
(3 3.02027e-15 0)
(3 2.4486e-15 0)
(3 1.65142e-15 0)
(3 1.40973e-15 0)
(3 1.09818e-15 0)
(3 1.24357e-15 0)
(3 7.26463e-16 0)
(3 5.67842e-17 0)
(3 -6.74468e-17 0)
(3 9.28284e-16 0)
(3 1.14694e-15 0)
(3 7.20457e-17 0)
(3 -1.5957e-15 0)
(3 -1.92684e-15 0)
(3 -1.57957e-15 0)
(3 -5.71504e-16 0)
(3 -5.48639e-16 0)
(3 -9.40821e-16 0)
(3 -2.27198e-15 0)
(3 -2.5482e-15 0)
(3 -1.95694e-15 0)
(3 -1.94197e-15 0)