/*--------------------------------*- C++ -*----------------------------------*\
  =========                 |
  \\      /  F ield         | OpenFOAM: The Open Source CFD Toolbox
   \\    /   O peration     | Website:  https://openfoam.org
    \\  /    A nd           | Version:  7
     \\/     M anipulation  |
\*---------------------------------------------------------------------------*/
FoamFile
{
    version     2.0;
    format      ascii;
    class       volVectorField;
    location    "1";
    object      U;
}
// * * * * * * * * * * * * * * * * * * * * * * * * * * * * * * * * * * * * * //

dimensions      [0 1 -1 0 0 0 0];

internalField   nonuniform List<vector> 
344
(
(1.04481 1.47108e-05 4.09374e-15)
(1.04481 1.6626e-05 4.49102e-15)
(1.04482 1.90934e-05 3.29259e-15)
(1.04482 2.11322e-05 4.14222e-15)
(1.04483 2.45511e-05 3.76339e-15)
(1.04483 2.59485e-05 3.52832e-15)
(1.04484 3.14023e-05 2.73298e-15)
(1.04484 2.97372e-05 2.9968e-15)
(1.04486 4.05075e-05 3.24049e-15)
(1.04485 2.88069e-05 2.88402e-15)
(1.04488 5.44229e-05 2.39307e-15)
(1.04486 1.39366e-05 2.81149e-15)
(1.04493 8.01793e-05 3.46466e-15)
(1.04486 -3.61403e-05 2.9532e-15)
(1.045 0.00013482 3.43746e-15)
(1.04484 -0.000166266 2.48926e-15)
(1.0451 0.000253967 4.28074e-15)
(1.04519 -0.000153836 2.08077e-15)
(1.04513 -0.000128277 1.78929e-15)
(1.04507 -0.000107286 2.6921e-15)
(1.04503 -8.99537e-05 1.73112e-15)
(1.04499 -7.55778e-05 3.23097e-15)
(1.04495 -6.36086e-05 2.74701e-15)
(1.04492 -5.36113e-05 3.36196e-15)
(1.0449 -4.52388e-05 2.17671e-15)
(1.04488 -3.82112e-05 3.04023e-15)
(1.04486 -3.23014e-05 2.3284e-15)
(1.04485 -2.73236e-05 3.10144e-15)
(1.04484 -2.31245e-05 2.51757e-15)
(1.04483 -1.9578e-05 3.39786e-15)
(1.04482 -1.65793e-05 2.80704e-15)
(1.04481 -1.40412e-05 3.32001e-15)
(1.04481 -1.18906e-05 2.52217e-15)
(1.0448 -1.00665e-05 3.50363e-15)
(1.0448 -8.51746e-06 2.85329e-15)
(1.04479 -7.20027e-06 3.37483e-15)
(1.04479 -6.07867e-06 2.58547e-15)
(1.04479 -5.12169e-06 3.00813e-15)
(1.04478 -4.30315e-06 2.92288e-15)
(1.04478 -3.601e-06 3.48078e-15)
(1.04478 -2.99642e-06 3.20539e-15)
(1.04478 -2.47289e-06 2.97927e-15)
(1.04478 -2.01665e-06 2.78172e-15)
(1.04478 -1.61574e-06 2.77566e-15)
(1.04478 -1.25949e-06 2.60356e-15)
(1.04477 -9.38637e-07 2.95725e-15)
(1.04477 -6.45009e-07 2.92904e-15)
(1.04477 -3.71149e-07 3.31639e-15)
(1.04477 -1.10124e-07 2.53327e-15)
(1.04477 1.44272e-07 3.34319e-15)
(1.04477 3.98532e-07 2.49417e-15)
(1.04477 6.58441e-07 3.18537e-15)
(1.04477 9.29981e-07 2.73996e-15)
(1.04477 1.21944e-06 3.34996e-15)
(1.04477 1.53299e-06 2.84914e-15)
(1.04477 1.87727e-06 3.51572e-15)
(1.04477 2.25958e-06 3.15935e-15)
(1.04477 2.68766e-06 3.47193e-15)
(1.04478 3.17006e-06 2.55686e-15)
(1.04478 3.71585e-06 3.40944e-15)
(1.04478 4.33562e-06 3.14924e-15)
(1.04478 5.03922e-06 3.31069e-15)
(1.04478 5.84075e-06 2.74618e-15)
(1.04478 6.74889e-06 3.04035e-15)
(1.04478 7.78498e-06 2.85321e-15)
(1.04478 8.94717e-06 2.91982e-15)
(1.04479 1.02812e-05 2.37303e-15)
(1.04479 1.1738e-05 2.66474e-15)
(1.04479 1.34504e-05 2.80908e-15)
(1.04479 1.51947e-05 2.33011e-15)
(1.0448 1.74155e-05 2.28966e-15)
(1.0448 1.92772e-05 1.88826e-15)
(1.04481 2.23067e-05 2.12136e-15)
(1.04481 2.36248e-05 1.31176e-15)
(1.04482 2.83353e-05 1.53405e-15)
(1.04482 2.70464e-05 8.74699e-16)
(1.04484 3.60828e-05 1.19249e-15)
(1.04484 2.63249e-05 8.68453e-16)
(1.04486 4.73559e-05 9.26967e-16)
(1.04485 1.35731e-05 9.19447e-16)
(1.0449 6.72495e-05 1.18028e-15)
(1.04485 -2.90678e-05 1.31374e-15)
(1.04496 0.0001082 1.16243e-15)
(1.04484 -0.000138527 9.94347e-16)
(1.04504 0.000195978 1.27637e-15)
(1.04511 -0.00012562 3.49854e-15)
(1.04504 -0.00010472 5.23622e-15)
(1.04498 -8.75666e-05 5.04101e-15)
(1.04494 -7.3409e-05 4.90179e-15)
(1.0449 -6.1669e-05 5.52328e-15)
(1.04486 -5.18958e-05 5.59466e-15)
(1.04483 -4.37337e-05 5.59768e-15)
(1.04481 -3.68985e-05 4.6351e-15)
(1.04479 -3.11618e-05 5.21767e-15)
(1.04477 -2.6338e-05 4.26859e-15)
(1.04476 -2.22751e-05 5.42682e-15)
(1.04475 -1.8848e-05 4.03031e-15)
(1.04473 -1.59537e-05 5.66719e-15)
(1.04473 -1.35066e-05 4.12222e-15)
(1.04472 -1.14354e-05 5.64251e-15)
(1.04471 -9.68041e-06 3.72041e-15)
(1.04471 -8.1918e-06 5.65561e-15)
(1.0447 -6.92754e-06 3.84276e-15)
(1.0447 -5.85225e-06 5.22978e-15)
(1.0447 -4.93633e-06 3.27537e-15)
(1.04469 -4.15441e-06 4.73851e-15)
(1.04469 -3.48511e-06 3.34928e-15)
(1.04469 -2.91039e-06 5.10912e-15)
(1.04469 -2.41485e-06 3.52641e-15)
(1.04468 -1.98489e-06 4.81755e-15)
(1.04468 -1.60919e-06 3.1116e-15)
(1.04468 -1.27796e-06 4.46554e-15)
(1.04468 -9.82308e-07 3.83785e-15)
(1.04468 -7.14681e-07 4.53357e-15)
(1.04468 -4.68104e-07 4.29747e-15)
(1.04468 -2.36501e-07 4.59834e-15)
(1.04468 -1.39235e-08 3.79655e-15)
(1.04468 2.04842e-07 4.50864e-15)
(1.04468 4.25359e-07 3.6661e-15)
(1.04468 6.52612e-07 4.14553e-15)
(1.04468 8.91829e-07 3.88007e-15)
(1.04468 1.14852e-06 3.89893e-15)
(1.04468 1.4281e-06 3.63146e-15)
(1.04468 1.7364e-06 3.81818e-15)
(1.04468 2.07995e-06 3.67966e-15)
(1.04468 2.46567e-06 3.66479e-15)
(1.04468 2.90116e-06 3.00998e-15)
(1.04468 3.39456e-06 3.37175e-15)
(1.04468 3.9553e-06 3.32443e-15)
(1.04468 4.59224e-06 3.17772e-15)
(1.04469 5.31792e-06 2.6712e-15)
(1.04469 6.14018e-06 2.58008e-15)
(1.04469 7.07757e-06 2.37825e-15)
(1.04469 8.12912e-06 2.03528e-15)
(1.04469 9.33377e-06 1.29878e-15)
(1.04469 1.06504e-05 1.38136e-15)
(1.0447 1.21905e-05 1.09352e-15)
(1.0447 1.37656e-05 8.58132e-16)
(1.0447 1.57464e-05 3.46244e-16)
(1.04471 1.74331e-05 -3.77974e-17)
(1.04471 2.00908e-05 -2.04822e-16)
(1.04472 2.13255e-05 -9.55708e-16)
(1.04473 2.53439e-05 -9.52597e-16)
(1.04473 2.43938e-05 -1.64566e-15)
(1.04474 3.18511e-05 -1.63943e-15)
(1.04474 2.38608e-05 -1.8456e-15)
(1.04477 4.07866e-05 -1.81908e-15)
(1.04476 1.30444e-05 -1.86533e-15)
(1.0448 5.56303e-05 -2.03174e-15)
(1.04477 -2.29096e-05 -1.83297e-15)
(1.04485 8.50152e-05 -2.2806e-15)
(1.04476 -0.000114113 -2.14266e-15)
(1.0449 0.00014679 -2.0999e-15)
(1.04468 -9.74935e-05 7.0834e-15)
(1.04461 -8.12708e-05 1.22036e-14)
(1.04455 -6.79579e-05 6.28948e-15)
(1.04451 -5.69698e-05 1.11992e-14)
(1.04447 -4.78572e-05 6.33445e-15)
(1.04443 -4.02704e-05 1.12201e-14)
(1.0444 -3.39334e-05 6.18452e-15)
(1.04438 -2.86262e-05 9.72728e-15)
(1.04436 -2.41717e-05 5.76413e-15)
(1.04434 -2.0426e-05 8.39729e-15)
(1.04433 -1.72711e-05 6.22336e-15)
(1.04432 -1.46099e-05 7.34274e-15)
(1.04431 -1.23625e-05 6.67682e-15)
(1.0443 -1.04623e-05 6.73882e-15)
(1.04429 -8.85395e-06 7.08819e-15)
(1.04428 -7.49115e-06 5.36404e-15)
(1.04428 -6.33503e-06 7.81822e-15)
(1.04427 -5.35295e-06 5.90735e-15)
(1.04427 -4.51737e-06 7.99902e-15)
(1.04427 -3.80526e-06 5.51349e-15)
(1.04426 -3.19683e-06 7.95003e-15)
(1.04426 -2.67539e-06 5.87099e-15)
(1.04426 -2.22694e-06 8.58492e-15)
(1.04426 -1.83944e-06 6.11641e-15)
(1.04426 -1.50221e-06 8.80704e-15)
(1.04426 -1.20635e-06 5.73717e-15)
(1.04425 -9.44184e-07 8.55908e-15)
(1.04425 -7.08673e-07 4.28732e-15)
(1.04425 -4.93854e-07 8.10814e-15)
(1.04425 -2.94065e-07 4.84738e-15)
(1.04425 -1.04354e-07 7.45005e-15)
(1.04425 7.98982e-08 4.52261e-15)
(1.04425 2.63155e-07 6.45699e-15)
(1.04425 4.50022e-07 4.91628e-15)
(1.04425 6.44674e-07 5.12272e-15)
(1.04425 8.51554e-07 4.14462e-15)
(1.04425 1.07541e-06 3.83399e-15)
(1.04425 1.32089e-06 2.74295e-15)
(1.04425 1.59308e-06 2.87604e-15)
(1.04425 1.89768e-06 2.09096e-15)
(1.04425 2.24085e-06 2.18039e-15)
(1.04425 2.62917e-06 9.09815e-16)
(1.04425 3.06992e-06 1.47132e-15)
(1.04426 3.57142e-06 8.99486e-16)
(1.04426 4.14147e-06 6.86652e-16)
(1.04426 4.79113e-06 1.75399e-17)
(1.04426 5.5274e-06 4.01992e-16)
(1.04426 6.36623e-06 -1.1316e-15)
(1.04426 7.30735e-06 -8.67798e-16)
(1.04426 8.38341e-06 -2.66563e-15)
(1.04427 9.56061e-06 -2.17169e-15)
(1.04427 1.09306e-05 -3.60807e-15)
(1.04427 1.23382e-05 -3.13843e-15)
(1.04428 1.40853e-05 -4.476e-15)
(1.04428 1.55984e-05 -4.45429e-15)
(1.04429 1.79016e-05 -5.48595e-15)
(1.04429 1.90485e-05 -5.98683e-15)
(1.0443 2.24242e-05 -6.51008e-15)
(1.0443 2.1776e-05 -6.97693e-15)
(1.04432 2.78028e-05 -7.21037e-15)
(1.04432 2.14139e-05 -7.33704e-15)
(1.04434 3.46859e-05 -7.39216e-15)
(1.04433 1.2372e-05 -7.6832e-15)
(1.04437 4.52171e-05 -7.92608e-15)
(1.04434 -1.75445e-05 -7.96229e-15)
(1.04441 6.49527e-05 -8.42646e-15)
(1.04434 -9.26202e-05 -8.31782e-15)
(1.04445 0.000105445 -8.25822e-15)
(1.04284 -5.84065e-05 5.99608e-15)
(1.04279 -4.8851e-05 7.30774e-15)
(1.04274 -4.09588e-05 5.59744e-15)
(1.0427 -3.44098e-05 6.74107e-15)
(1.04267 -2.89546e-05 6.32528e-15)
(1.04264 -2.43963e-05 6.93827e-15)
(1.04262 -2.05775e-05 5.49751e-15)
(1.0426 -1.73715e-05 5.84585e-15)
(1.04259 -1.46753e-05 4.90606e-15)
(1.04257 -1.24042e-05 6.36345e-15)
(1.04256 -1.04884e-05 4.66389e-15)
(1.04255 -8.87046e-06 5.70718e-15)
(1.04254 -7.50241e-06 5.21138e-15)
(1.04253 -6.34445e-06 5.57233e-15)
(1.04253 -5.36311e-06 4.92757e-15)
(1.04252 -4.53042e-06 5.41813e-15)
(1.04252 -3.82278e-06 5.07229e-15)
(1.04251 -3.22034e-06 5.24576e-15)
(1.04251 -2.70646e-06 4.36332e-15)
(1.04251 -2.26677e-06 4.44969e-15)
(1.04251 -1.8892e-06 4.69639e-15)
(1.0425 -1.56359e-06 4.55832e-15)
(1.0425 -1.28124e-06 5.03577e-15)
(1.0425 -1.03426e-06 4.2601e-15)
(1.0425 -8.1618e-07 4.86775e-15)
(1.0425 -6.21373e-07 3.09911e-15)
(1.0425 -4.44424e-07 4.84597e-15)
(1.0425 -2.81175e-07 3.19736e-15)
(1.0425 -1.27062e-07 4.72884e-15)
(1.0425 2.15199e-08 3.40248e-15)
(1.0425 1.68086e-07 4.51222e-15)
(1.0425 3.16368e-07 3.25115e-15)
(1.0425 4.69994e-07 3.81013e-15)
(1.0425 6.32358e-07 3.18215e-15)
(1.0425 8.07109e-07 3.70804e-15)
(1.0425 9.9824e-07 2.5798e-15)
(1.0425 1.20962e-06 2.46944e-15)
(1.0425 1.44566e-06 2.36538e-15)
(1.0425 1.71119e-06 1.83365e-15)
(1.0425 2.01159e-06 2.46516e-15)
(1.0425 2.35252e-06 8.54602e-16)
(1.0425 2.74031e-06 2.74253e-15)
(1.0425 3.18225e-06 5.95509e-16)
(1.0425 3.68503e-06 3.04308e-15)
(1.0425 4.25832e-06 -8.10451e-16)
(1.0425 4.90824e-06 2.88229e-15)
(1.04251 5.64832e-06 -1.77248e-15)
(1.04251 6.47884e-06 1.68157e-15)
(1.04251 7.42661e-06 -3.02019e-15)
(1.04251 8.46459e-06 4.65358e-16)
(1.04252 9.66636e-06 -3.90981e-15)
(1.04252 1.09071e-05 -4.41638e-16)
(1.04252 1.24261e-05 -4.42683e-15)
(1.04253 1.37657e-05 -1.68929e-15)
(1.04253 1.57311e-05 -5.21839e-15)
(1.04254 1.67829e-05 -3.48565e-15)
(1.04255 1.95655e-05 -6.21023e-15)
(1.04255 1.91776e-05 -4.4502e-15)
(1.04256 2.39219e-05 -6.39831e-15)
(1.04256 1.89666e-05 -4.80726e-15)
(1.04258 2.90255e-05 -6.15384e-15)
(1.04258 1.15481e-05 -5.35777e-15)
(1.04261 3.59406e-05 -6.61653e-15)
(1.04259 -1.29328e-05 -6.19401e-15)
(1.04264 4.77523e-05 -7.04484e-15)
(1.04259 -7.37382e-05 -6.85139e-15)
(1.04267 7.11341e-05 -6.2768e-15)
(1.03642 -3.71212e-05 6.71657e-15)
(1.03637 -3.1065e-05 6.6525e-15)
(1.03633 -2.60548e-05 6.35559e-15)
(1.03629 -2.18918e-05 6.77656e-15)
(1.03626 -1.84206e-05 7.04814e-15)
(1.03624 -1.55178e-05 6.63017e-15)
(1.03622 -1.30845e-05 6.2772e-15)
(1.0362 -1.1041e-05 6.36816e-15)
(1.03619 -9.32201e-06 5.73452e-15)
(1.03617 -7.87383e-06 6.66035e-15)
(1.03616 -6.65211e-06 5.3959e-15)
(1.03615 -5.62037e-06 6.83839e-15)
(1.03615 -4.74793e-06 5.61495e-15)
(1.03614 -4.00939e-06 6.46049e-15)
(1.03613 -3.38333e-06 5.12912e-15)
(1.03613 -2.85185e-06 6.25069e-15)
(1.03613 -2.39986e-06 5.08006e-15)
(1.03612 -2.01459e-06 6.24428e-15)
(1.03612 -1.68538e-06 4.19122e-15)
(1.03612 -1.40294e-06 5.60268e-15)
(1.03611 -1.15948e-06 4.5446e-15)
(1.03611 -9.48431e-07 5.73993e-15)
(1.03611 -7.64179e-07 4.6206e-15)
(1.03611 -6.01525e-07 5.6255e-15)
(1.03611 -4.56141e-07 4.23458e-15)
(1.03611 -3.24392e-07 4.61247e-15)
(1.03611 -2.02578e-07 3.99427e-15)
(1.03611 -8.73173e-08 4.96507e-15)
(1.03611 2.34496e-08 4.49965e-15)
(1.03611 1.32688e-07 5.06272e-15)
(1.03611 2.43306e-07 3.82037e-15)
(1.03611 3.58017e-07 5.34326e-15)
(1.03611 4.79526e-07 3.79076e-15)
(1.03611 6.10461e-07 5.3789e-15)
(1.03611 7.53744e-07 4.06171e-15)
(1.03611 9.1256e-07 4.61192e-15)
(1.03611 1.09007e-06 3.1868e-15)
(1.03611 1.29e-06 4.3087e-15)
(1.03611 1.51636e-06 3.12355e-15)
(1.03611 1.77371e-06 4.13892e-15)
(1.03611 2.06682e-06 2.87257e-15)
(1.03611 2.4011e-06 4.13388e-15)
(1.03611 2.78273e-06 3.1428e-15)
(1.03611 3.21743e-06 3.90217e-15)
(1.03611 3.71336e-06 2.67887e-15)
(1.03611 4.27589e-06 2.97675e-15)
(1.03612 4.91615e-06 1.71566e-15)
(1.03612 5.63487e-06 1.88214e-15)
(1.03612 6.45356e-06 6.13579e-16)
(1.03612 7.3511e-06 9.49007e-16)
(1.03613 8.38504e-06 -3.07365e-16)
(1.03613 9.4576e-06 2.08609e-16)
(1.03613 1.0753e-05 -8.2567e-16)
(1.03614 1.19157e-05 -7.35017e-16)
(1.03614 1.35596e-05 -1.44513e-15)
(1.03615 1.45028e-05 -2.29632e-15)
)
;

boundaryField
{
    inlet
    {
        type            uniformFixedValue;
        uniformValue    constant (1 0 0);
        value           nonuniform 0();
    }
    outlet
    {
        type            pressureInletOutletVelocity;
        value           nonuniform 0();
    }
    wall
    {
        type            fixedValue;
        value           nonuniform 0();
    }
    wedge1
    {
        type            wedge;
    }
    wedge2
    {
        type            wedge;
    }
    axis
    {
        type            empty;
    }
    procBoundary37to31
    {
        type            processor;
        value           nonuniform List<vector> 
69
(
(1.04481 1.59703e-05 3.5896e-15)
(1.04481 1.80584e-05 3.48208e-15)
(1.04482 2.07784e-05 3.2412e-15)
(1.04482 2.29967e-05 2.81109e-15)
(1.04483 2.68225e-05 2.83367e-15)
(1.04483 2.82962e-05 1.94076e-15)
(1.04484 3.45445e-05 1.96026e-15)
(1.04484 3.2466e-05 1.13475e-15)
(1.04486 4.51285e-05 2.07015e-15)
(1.04485 3.13056e-05 1.17497e-15)
(1.04489 6.20057e-05 1.28875e-15)
(1.04486 1.41229e-05 7.46263e-16)
(1.04494 9.44855e-05 1.50862e-15)
(1.04486 -4.4199e-05 1.16483e-15)
(1.04503 0.000165148 1.9785e-15)
(1.04482 -0.000197682 8.2855e-16)
(1.04516 0.000321676 2.00768e-15)
(1.0452 -0.000181868 2.76461e-15)
(1.04514 -0.000151718 1.51551e-15)
(1.04508 -0.000126933 3.5719e-15)
(1.04504 -0.000106454 1.15651e-15)
(1.045 -8.94606e-05 4.32728e-15)
(1.04497 -7.53067e-05 3.00172e-15)
(1.04494 -6.34815e-05 4.61685e-15)
(1.04492 -5.35761e-05 2.1246e-15)
(1.0449 -4.52605e-05 4.39237e-15)
(1.04488 -3.82666e-05 3.26831e-15)
(1.04487 -3.23747e-05 4.25902e-15)
(1.04486 -2.74041e-05 3.17046e-15)
(1.04485 -2.32056e-05 4.43995e-15)
(1.04484 -1.96554e-05 4.13464e-15)
(1.04483 -1.66502e-05 4.13457e-15)
(1.04482 -1.41037e-05 3.57573e-15)
(1.04482 -1.19438e-05 3.97957e-15)
(1.04481 -1.01099e-05 3.79867e-15)
(1.04481 -8.55055e-06 3.97289e-15)
(1.04481 -7.22306e-06 3.59832e-15)
(1.0448 -6.09082e-06 3.45498e-15)
(1.0448 -5.12285e-06 4.01218e-15)
(1.0448 -4.2931e-06 3.89357e-15)
(1.0448 -3.57932e-06 4.34456e-15)
(1.0448 -2.96212e-06 3.16828e-15)
(1.0448 -2.42522e-06 3.83154e-15)
(1.04479 -1.95457e-06 3.12837e-15)
(1.04479 -1.53764e-06 3.76736e-15)
(1.04479 -1.16361e-06 2.92427e-15)
(1.04479 -8.22936e-07 4.2617e-15)
(1.04479 -5.0685e-07 3.99779e-15)
(1.04479 -2.07423e-07 3.76633e-15)
(1.04479 8.25296e-08 3.82368e-15)
(1.04479 3.70465e-07 3.88531e-15)
(1.04479 6.62962e-07 4.46478e-15)
(1.04479 9.66707e-07 3.91099e-15)
(1.04479 1.28875e-06 4.37498e-15)
(1.04479 1.63606e-06 4.20863e-15)
(1.04479 2.01606e-06 5.35622e-15)
(1.04479 2.43689e-06 4.2092e-15)
(1.04479 2.90705e-06 4.92091e-15)
(1.04479 3.43607e-06 3.5304e-15)
(1.04479 4.03396e-06 5.71927e-15)
(1.0448 4.71248e-06 3.6115e-15)
(1.0448 5.48254e-06 5.31385e-15)
(1.0448 6.35972e-06 2.87856e-15)
(1.0448 7.35364e-06 5.22635e-15)
(1.0448 8.48854e-06 3.63451e-15)
(1.0448 9.76167e-06 5.10934e-15)
(1.0448 1.12258e-05 2.89907e-15)
(1.04481 1.28238e-05 4.97262e-15)
(1.04481 1.28238e-05 4.97262e-15)
)
;
    }
    procBoundary37to32
    {
        type            processor;
        value           uniform (1.04479 -0.000460245 2.30229e-15);
    }
    procBoundary37to36
    {
        type            processor;
        value           nonuniform List<vector> 5((1.04527 -0.000185154 1.21425e-15) (1.04519 -0.000151253 4.73734e-15) (1.04476 -0.000117398 1.13717e-14) (1.04291 -7.0043e-05 6.37818e-15) (1.04291 -7.0043e-05 6.37818e-15));
    }
    procBoundary37to38
    {
        type            processor;
        value           nonuniform List<vector> 4((1.04481 -0.000382192 1.26907e-15) (1.04474 -0.000314289 -1.93782e-15) (1.04432 -0.000255227 -8.18187e-15) (1.04257 -0.000203848 -7.13769e-15));
    }
    procBoundary37to42
    {
        type            processor;
        value           uniform (1.03648 -4.44831e-05 5.76897e-15);
    }
    procBoundary37to43
    {
        type            processor;
        value           nonuniform List<vector> 
68
(
(1.03616 1.67442e-05 -2.49162e-15)
(1.03616 1.65626e-05 -2.91396e-15)
(1.03617 2.01829e-05 -2.49918e-15)
(1.03618 1.64669e-05 -2.7865e-15)
(1.03619 2.37816e-05 -2.40207e-15)
(1.03619 1.05094e-05 -3.14473e-15)
(1.03622 2.7773e-05 -3.18338e-15)
(1.0362 -9.1142e-06 -3.91875e-15)
(1.03625 3.33193e-05 -3.96062e-15)
(1.0362 -5.73397e-05 -4.04138e-15)
(1.03628 4.33961e-05 -3.56847e-15)
(1.01597 -1.91466e-05 1.27587e-14)
(1.01593 -1.6033e-05 6.32548e-15)
(1.0159 -1.34499e-05 1.14107e-14)
(1.01587 -1.1299e-05 6.20919e-15)
(1.01585 -9.50278e-06 1.10878e-14)
(1.01583 -7.99905e-06 5.80589e-15)
(1.01581 -6.73773e-06 9.66934e-15)
(1.0158 -5.67807e-06 5.89714e-15)
(1.01579 -4.78669e-06 8.56439e-15)
(1.01578 -4.03576e-06 6.49706e-15)
(1.01577 -3.40234e-06 7.4945e-15)
(1.01576 -2.86755e-06 7.06289e-15)
(1.01575 -2.41536e-06 6.79667e-15)
(1.01575 -2.03254e-06 7.19078e-15)
(1.01574 -1.70787e-06 5.38748e-15)
(1.01574 -1.43199e-06 8.0132e-15)
(1.01574 -1.19699e-06 6.07618e-15)
(1.01574 -9.96122e-07 8.64431e-15)
(1.01573 -8.23778e-07 5.47903e-15)
(1.01573 -6.75005e-07 8.81089e-15)
(1.01573 -5.45673e-07 6.12243e-15)
(1.01573 -4.32144e-07 9.51059e-15)
(1.01573 -3.31534e-07 6.20738e-15)
(1.01573 -2.40912e-07 9.93446e-15)
(1.01573 -1.57926e-07 5.74961e-15)
(1.01572 -8.00453e-08 9.67126e-15)
(1.01572 -6.14437e-09 4.46316e-15)
(1.01572 6.65972e-08 9.08193e-15)
(1.01572 1.39086e-07 4.83739e-15)
(1.01572 2.13527e-07 8.15266e-15)
(1.01572 2.91936e-07 4.58634e-15)
(1.01572 3.76076e-07 7.61122e-15)
(1.01572 4.67833e-07 5.22719e-15)
(1.01572 5.69163e-07 6.64453e-15)
(1.01572 6.82338e-07 4.20768e-15)
(1.01572 8.09767e-07 4.98368e-15)
(1.01572 9.53967e-07 2.98991e-15)
(1.01572 1.11793e-06 4.24662e-15)
(1.01573 1.30493e-06 2.31608e-15)
(1.01573 1.51868e-06 3.45669e-15)
(1.01573 1.76306e-06 2.05068e-15)
(1.01573 2.04256e-06 2.92931e-15)
(1.01573 2.36229e-06 2.00205e-15)
(1.01573 2.72694e-06 2.10433e-15)
(1.01573 3.14326e-06 1.42746e-15)
(1.01573 3.61569e-06 1.60583e-15)
(1.01573 4.15329e-06 1.26609e-16)
(1.01574 4.75679e-06 2.85867e-16)
(1.01574 5.44327e-06 -9.79121e-16)
(1.01574 6.19616e-06 -5.68579e-16)
(1.01575 7.05995e-06 -1.99507e-15)
(1.01575 7.9588e-06 -1.66464e-15)
(1.01575 9.03223e-06 -2.45319e-15)
(1.01576 1.00086e-05 -2.51655e-15)
(1.01576 1.13467e-05 -3.00718e-15)
(1.03616 1.67442e-05 -2.49162e-15)
(1.01577 1.21566e-05 -4.08151e-15)
)
;
    }
}


// ************************************************************************* //
