/*--------------------------------*- C++ -*----------------------------------*\
  =========                 |
  \\      /  F ield         | OpenFOAM: The Open Source CFD Toolbox
   \\    /   O peration     | Website:  https://openfoam.org
    \\  /    A nd           | Version:  7
     \\/     M anipulation  |
\*---------------------------------------------------------------------------*/
FoamFile
{
    version     2.0;
    format      ascii;
    class       volScalarField;
    location    "2.3";
    object      p;
}
// * * * * * * * * * * * * * * * * * * * * * * * * * * * * * * * * * * * * * //

dimensions      [1 -1 -2 0 0 0 0];

internalField   nonuniform List<scalar> 
100800
(
1
1
1
1
1
1
1
1
1
1
1
1
1
1
1
1
1
1
1
1
1
1
1
1
1
1
1
1
1
1
1
1
1
1
1
1
1
1
1
1
1
1
1
1
1
1
1
1
1
1
1
1
1
1
1
1
1
1
1
1
1
1
5.44643
10.3159
10.4735
10.4988
10.5594
10.6117
10.6646
10.7111
10.7539
10.7969
10.8425
10.8905
10.9384
10.9827
11.0213
11.0553
11.09
11.1297
11.176
11.2233
11.2679
11.3082
11.3439
11.3776
11.412
11.4474
11.4838
11.5195
11.5506
11.5743
11.5914
11.6073
11.6285
11.6577
11.6932
11.7307
11.7654
11.7941
11.8176
11.8392
11.8617
11.8846
11.9047
11.9191
11.9287
11.9393
11.9552
11.978
12.0045
12.028
12.0438
12.0531
12.0569
12.0553
12.0513
12.043
12.0352
12.0238
1
1
1
1
1
1
1
1
1
1
1
1
1
1
1
1
1
1
1
1
1
1
1
1
1
1
1
1
1
1
1
1
1
1
1
1
1
1
1
1
1
1
1
1
1
1
1
1
1
1
1
1
1
1
1
1
1
1
1
1
1
1
5.40496
10.3084
10.471
10.5001
10.5599
10.6121
10.6655
10.7125
10.755
10.7972
10.8428
10.8908
10.938
10.9815
11.0194
11.0534
11.0887
11.1292
11.1755
11.2227
11.2668
11.3063
11.3417
11.3762
11.4119
11.4479
11.4839
11.5181
11.5479
11.5714
11.5897
11.6074
11.6297
11.658
11.6914
11.7268
11.761
11.7911
11.8169
11.8401
11.8624
11.8832
11.9006
11.9135
11.9239
11.9362
11.9537
11.9772
12.0034
12.0264
12.0422
12.0519
12.0561
12.0545
12.05
12.0409
12.0322
12.0207
1
1
1
1
1
1
1
1
1
1
1
1
1
1
1
1
1
1
1
1
1
1
1
1
1
1
1
1
1
1
1
1
1
1
1
1
1
1
1
1
1
1
1
1
1
1
1
1
1
1
1
1
1
1
1
1
1
1
1
1
1
1
5.32128
10.3062
10.4635
10.5003
10.5577
10.6104
10.6645
10.7124
10.7554
10.7981
10.8439
10.8916
10.9377
10.9797
11.0163
11.0503
11.0858
11.1271
11.1741
11.2213
11.2646
11.303
11.3382
11.3735
11.4109
11.4479
11.4835
11.5158
11.5437
11.5667
11.5865
11.6068
11.6307
11.6585
11.6894
11.7217
11.7545
11.7858
11.8146
11.8406
11.8633
11.8818
11.8955
11.9057
11.9161
11.9304
11.9505
11.9757
12.0017
12.0236
12.0389
12.049
12.0542
12.0535
12.0489
12.0385
12.0278
12.0153
1
1
1
1
1
1
1
1
1
1
1
1
1
1
1
1
1
1
1
1
1
1
1
1
1
1
1
1
1
1
1
1
1
1
1
1
1
1
1
1
1
1
1
1
1
1
1
1
1
1
1
1
1
1
1
1
1
1
1
1
1
1
5.20655
10.2869
10.4606
10.5014
10.5548
10.6071
10.6614
10.7097
10.7542
10.798
10.8448
10.8924
10.9373
10.977
11.0122
11.0464
11.0823
11.1247
11.172
11.2187
11.2608
11.2984
11.3339
11.3703
11.4093
11.4469
11.4814
11.5115
11.5377
11.5606
11.5823
11.6053
11.6308
11.658
11.6862
11.7158
11.7473
11.7798
11.8113
11.8396
11.8623
11.8782
11.8882
11.8962
11.9065
11.9227
11.9456
11.9725
11.9987
12.0198
12.0345
12.0449
12.0509
12.051
12.0461
12.0344
12.0215
12.008
1
1
1
1
1
1
1
1
1
1
1
1
1
1
1
1
1
1
1
1
1
1
1
1
1
1
1
1
1
1
1
1
1
1
1
1
1
1
1
1
1
1
1
1
1
1
1
1
1
1
1
1
1
1
1
1
1
1
1
1
1
1
5.06685
10.2483
10.4586
10.4999
10.5501
10.6029
10.6573
10.7058
10.7513
10.7961
10.8441
10.8925
10.9367
10.9738
11.0082
11.0423
11.078
11.121
11.1683
11.2144
11.2554
11.2927
11.3292
11.3665
11.4063
11.4435
11.4766
11.5048
11.5299
11.5533
11.5771
11.6024
11.6292
11.6556
11.682
11.7098
11.7406
11.7738
11.8069
11.8364
11.8587
11.8723
11.88
11.8865
11.8966
11.914
11.9388
11.9672
11.9938
12.0148
12.0292
12.0398
12.0462
12.0469
12.0417
12.0288
12.014
11.9997
1
1
1
1
1
1
1
1
1
1
1
1
1
1
1
1
1
1
1
1
1
1
1
1
1
1
1
1
1
1
1
1
1
1
1
1
1
1
1
1
1
1
1
1
1
1
1
1
1
1
1
1
1
1
1
1
1
1
1
1
1
1
4.90457
10.1938
10.4556
10.4956
10.544
10.5973
10.6521
10.7008
10.746
10.7913
10.8398
10.8891
10.9337
10.9701
11.0051
11.0392
11.0745
11.1164
11.1629
11.208
11.2484
11.2865
11.3243
11.3621
11.4014
11.4374
11.4688
11.4958
11.5211
11.546
11.5719
11.5988
11.6258
11.6513
11.6766
11.7037
11.7345
11.768
11.8012
11.8302
11.8515
11.8642
11.8713
11.8775
11.8875
11.9051
11.9303
11.9594
11.9868
12.0083
12.023
12.0335
12.0399
12.0407
12.0349
12.0214
12.0055
11.991
1
1
1
1
1
1
1
1
1
1
1
1
1
1
1
1
1
1
1
1
1
1
1
1
1
1
1
1
1
1
1
1
1
1
1
1
1
1
1
1
1
1
1
1
1
1
1
1
1
1
1
1
1
1
1
1
1
1
1
1
1
1
4.71787
10.1333
10.447
10.4863
10.5359
10.5905
10.6457
10.6949
10.7397
10.7842
10.8322
10.8823
10.9284
10.9665
11.0025
11.0366
11.0705
11.1097
11.1544
11.1989
11.2397
11.2799
11.3192
11.3569
11.3946
11.4283
11.4581
11.4846
11.5111
11.5382
11.5662
11.594
11.6207
11.6452
11.67
11.6972
11.7283
11.7617
11.7939
11.8213
11.8417
11.8546
11.8625
11.8695
11.8796
11.8964
11.9205
11.9491
11.9768
11.9993
12.015
12.0258
12.0319
12.0322
12.0259
12.0122
11.9962
11.9821
1
1
1
1
1
1
1
1
1
1
1
1
1
1
1
1
1
1
1
1
1
1
1
1
1
1
1
1
1
1
1
1
1
1
1
1
1
1
1
1
1
1
1
1
1
1
1
1
1
1
1
1
1
1
1
1
1
1
1
1
1
1
4.49913
10.076
10.4338
10.4721
10.524
10.5803
10.6372
10.6879
10.7333
10.7764
10.8228
10.8731
10.9203
10.9608
10.9983
11.0326
11.0647
11.1011
11.144
11.1882
11.2304
11.2727
11.3127
11.3494
11.3847
11.4161
11.4448
11.4721
11.5005
11.53
11.5599
11.5884
11.6148
11.6385
11.6629
11.6903
11.7214
11.7541
11.7845
11.8099
11.8294
11.8433
11.8532
11.8619
11.8724
11.8878
11.9096
11.9365
11.9641
11.9878
12.005
12.0166
12.0224
12.0217
12.0148
12.0013
11.9859
11.9728
1
1
1
1
1
1
1
1
1
1
1
1
1
1
1
1
1
1
1
1
1
1
1
1
1
1
1
1
1
1
1
1
1
1
1
1
1
1
1
1
1
1
1
1
1
1
1
1
1
1
1
1
1
1
1
1
1
1
1
1
1
1
4.24618
10.0226
10.4175
10.4562
10.5112
10.5695
10.6276
10.6791
10.7244
10.767
10.8122
10.8623
10.911
10.9537
10.992
11.0262
11.0572
11.0915
11.133
11.1772
11.2206
11.2639
11.3034
11.3384
11.3717
11.4018
11.4307
11.4597
11.4904
11.5218
11.5529
11.5819
11.6078
11.6308
11.6547
11.6817
11.7122
11.7437
11.7724
11.7964
11.8158
11.8313
11.8439
11.8547
11.8657
11.8795
11.8982
11.9221
11.9486
11.9734
11.9925
12.0056
12.0114
12.0098
12.0021
11.9887
11.9744
11.9624
1
1
1
1
1
1
1
1
1
1
1
1
1
1
1
1
1
1
1
1
1
1
1
1
1
1
1
1
1
1
1
1
1
1
1
1
1
1
1
1
1
1
1
1
1
1
1
1
1
1
1
1
1
1
1
1
1
1
1
1
1
1
3.96029
9.96066
10.4058
10.4449
10.5009
10.5589
10.6169
10.6693
10.7151
10.7579
10.8021
10.8512
10.9003
10.9442
10.9826
11.0165
11.047
11.0802
11.1211
11.1656
11.2099
11.2533
11.2917
11.3252
11.3575
11.3874
11.4176
11.4483
11.4805
11.5126
11.544
11.5731
11.5992
11.6221
11.6456
11.6718
11.7009
11.7308
11.7581
11.7814
11.8013
11.8185
11.8337
11.8467
11.8583
11.8704
11.8856
11.906
11.9307
11.9562
11.9776
11.9928
11.9994
11.9968
11.9882
11.9749
11.9614
11.9505
1
1
1
1
1
1
1
1
1
1
1
1
1
1
1
1
1
1
1
1
1
1
1
1
1
1
1
1
1
1
1
1
1
1
1
1
1
1
1
1
1
1
1
1
1
1
1
1
1
1
1
1
1
1
1
1
1
1
1
1
1
1
3.64621
9.86777
10.4
10.439
10.4961
10.5508
10.6065
10.6585
10.7047
10.748
10.7924
10.8414
10.8909
10.9349
10.9727
11.0063
11.0368
11.0694
11.1093
11.1531
11.1967
11.2386
11.2757
11.3085
11.3412
11.3725
11.4048
11.4375
11.4706
11.5026
11.5337
11.5627
11.589
11.612
11.6351
11.6599
11.687
11.7152
11.7417
11.7652
11.7862
11.8055
11.8229
11.8378
11.8498
11.8603
11.872
11.8884
11.9106
11.9364
11.9602
11.978
11.9857
11.9827
11.9732
11.9594
11.9463
11.9361
1
1
1
1
1
1
1
1
1
1
1
1
1
1
1
1
1
1
1
1
1
1
1
1
1
1
1
1
1
1
1
1
1
1
1
1
1
1
1
1
1
1
1
1
1
1
1
1
1
1
1
1
1
1
1
1
1
1
1
1
1
1
3.31411
9.72743
10.3968
10.4365
10.4937
10.5454
10.5983
10.6489
10.6952
10.7384
10.7825
10.8303
10.8795
10.9233
10.9606
10.9944
11.0253
11.0571
11.0958
11.1385
11.1809
11.2217
11.2586
11.2918
11.3257
11.3587
11.3929
11.4268
11.46
11.4914
11.5216
11.5502
11.5767
11.6
11.6228
11.6462
11.6712
11.6978
11.7238
11.7479
11.7703
11.7913
11.8106
11.8269
11.8392
11.8483
11.8567
11.8691
11.8887
11.9147
11.9408
11.9614
11.9705
11.9675
11.9571
11.9428
11.9294
11.9194
1
1
1
1
1
1
1
1
1
1
1
1
1
1
1
1
1
1
1
1
1
1
1
1
1
1
1
1
1
1
1
1
1
1
1
1
1
1
1
1
1
1
1
1
1
1
1
1
1
1
1
1
1
1
1
1
1
1
1
1
1
1
2.97396
9.53715
10.3947
10.4339
10.4896
10.5398
10.5904
10.6398
10.6863
10.7294
10.7728
10.8191
10.8678
10.9121
10.9496
10.9838
11.0148
11.0451
11.0813
11.1219
11.1626
11.2027
11.2403
11.2749
11.3105
11.3451
11.3806
11.4152
11.4486
11.4795
11.5092
11.5372
11.5631
11.5858
11.6073
11.629
11.6523
11.6779
11.7041
11.7294
11.7535
11.7762
11.797
11.8143
11.8266
11.8341
11.8397
11.8487
11.8657
11.8916
11.9198
11.9427
11.9533
11.9504
11.9396
11.9246
11.9106
11.9006
1
1
1
1
1
1
1
1
1
1
1
1
1
1
1
1
1
1
1
1
1
1
1
1
1
1
1
1
1
1
1
1
1
1
1
1
1
1
1
1
1
1
1
1
1
1
1
1
1
1
1
1
1
1
1
1
1
1
1
1
1
1
2.62836
9.29607
10.3967
10.4323
10.4847
10.5329
10.5823
10.6306
10.6772
10.7201
10.7625
10.8072
10.855
10.8999
10.9382
10.9728
11.0035
11.0323
11.0657
11.104
11.1435
11.1837
11.2232
11.2601
11.2973
11.3328
11.368
11.4016
11.4337
11.4639
11.4932
11.5209
11.5466
11.5686
11.589
11.6094
11.6318
11.6573
11.6842
11.7109
11.7363
11.76
11.7814
11.7989
11.8109
11.817
11.8205
11.827
11.8421
11.8678
11.8974
11.922
11.9337
11.9313
11.9203
11.9049
11.8901
11.8801
1
1
1
1
1
1
1
1
1
1
1
1
1
1
1
1
1
1
1
1
1
1
1
1
1
1
1
1
1
1
1
1
1
1
1
1
1
1
1
1
1
1
1
1
1
1
1
1
1
1
1
1
1
1
1
1
1
1
1
1
1
1
2.28402
8.99583
10.4026
10.4309
10.4785
10.5244
10.5726
10.6195
10.6654
10.7088
10.7511
10.7949
10.8413
10.8864
10.9253
10.9603
10.9912
11.0195
11.051
11.0873
11.1257
11.1659
11.2067
11.2454
11.2838
11.3196
11.354
11.3863
11.4173
11.4471
11.4765
11.5044
11.5294
11.5502
11.5689
11.5879
11.6097
11.6355
11.6634
11.6913
11.7176
11.7418
11.7633
11.7806
11.7923
11.7975
11.7998
11.8047
11.8184
11.8435
11.8735
11.8986
11.9108
11.9089
11.8981
11.8829
11.868
11.8585
1
1
1
1
1
1
1
1
1
1
1
1
1
1
1
1
1
1
1
1
1
1
1
1
1
1
1
1
1
1
1
1
1
1
1
1
1
1
1
1
1
1
1
1
1
1
1
1
1
1
1
1
1
1
1
1
1
1
1
1
1
1
1.96232
8.64125
10.4094
10.4274
10.47
10.5133
10.5612
10.608
10.6541
10.698
10.74
10.7825
10.8267
10.8711
10.9105
10.9464
10.9782
11.0071
11.0377
11.0725
11.1099
11.1496
11.1913
11.2314
11.2705
11.3064
11.3395
11.3698
11.399
11.4281
11.4577
11.4858
11.5104
11.53
11.5469
11.5647
11.586
11.6123
11.6416
11.6711
11.6984
11.7226
11.7433
11.7596
11.7703
11.7747
11.7763
11.7806
11.7936
11.8182
11.8477
11.8723
11.8843
11.883
11.8729
11.8588
11.8446
11.8364
1
1
1
1
1
1
1
1
1
1
1
1
1
1
1
1
1
1
1
1
1
1
1
1
1
1
1
1
1
1
1
1
1
1
1
1
1
1
1
1
1
1
1
1
1
1
1
1
1
1
1
1
1
1
1
1
1
1
1
1
1
1
1.66948
8.21976
10.4159
10.4174
10.4591
10.5002
10.5482
10.595
10.6406
10.685
10.7276
10.7696
10.8125
10.856
10.8958
10.9318
10.9646
10.9946
11.0252
11.0592
11.0957
11.1347
11.1762
11.2167
11.2558
11.2914
11.3229
11.3512
11.3784
11.4067
11.4364
11.465
11.4897
11.5085
11.5242
11.5409
11.5617
11.5884
11.6189
11.6496
11.6774
11.7011
11.7205
11.7354
11.7451
11.7492
11.751
11.7557
11.7687
11.7924
11.8204
11.8431
11.8542
11.8534
11.8444
11.8324
11.8203
11.8141
1
1
1
1
1
1
1
1
1
1
1
1
1
1
1
1
1
1
1
1
1
1
1
1
1
1
1
1
1
1
1
1
1
1
1
1
1
1
1
1
1
1
1
1
1
1
1
1
1
1
1
1
1
1
1
1
1
1
1
1
1
1
1.41486
7.74317
10.4101
10.4
10.4427
10.4814
10.5296
10.5776
10.6245
10.6698
10.7135
10.756
10.7982
10.8406
10.8804
10.9165
10.9504
10.9818
11.013
11.0467
11.0824
11.1202
11.1606
11.2006
11.2388
11.274
11.3041
11.3309
11.3563
11.3835
11.4129
11.4421
11.4674
11.4862
11.5015
11.5172
11.5371
11.5633
11.5944
11.626
11.6544
11.6776
11.6955
11.7088
11.7176
11.7215
11.7241
11.73
11.7434
11.7657
11.7909
11.8106
11.8202
11.8198
11.8126
11.8036
11.7947
11.7911
1
1
1
1
1
1
1
1
1
1
1
1
1
1
1
1
1
1
1
1
1
1
1
1
1
1
1
1
1
1
1
1
1
1
1
1
1
1
1
1
1
1
1
1
1
1
1
1
1
1
1
1
1
1
1
1
1
1
1
1
1
1
1.1812
7.21546
10.3878
10.3925
10.4331
10.4725
10.5194
10.5657
10.6111
10.6558
10.6995
10.7421
10.7841
10.826
10.8657
10.9017
10.9359
10.9685
11.0001
11.0336
11.0685
11.1049
11.1437
11.1826
11.2197
11.2541
11.2831
11.3087
11.3326
11.3584
11.3872
11.4168
11.4431
11.4629
11.4785
11.4936
11.512
11.5369
11.5675
11.5995
11.6282
11.6512
11.668
11.6799
11.6877
11.6918
11.6954
11.703
11.7169
11.7373
11.7587
11.7744
11.782
11.7822
11.7776
11.7726
11.7677
11.7668
1
1
1
1
1
1
1
1
1
1
1
1
1
1
1
1
1
1
1
1
1
1
1
1
1
1
1
1
1
1
1
1
1
1
1
1
1
1
1
1
1
1
1
1
1
1
1
1
1
1
1
1
1
1
1
1
1
1
1
1
1
1
1.00959
6.63009
10.3253
10.3686
10.4103
10.4552
10.503
10.5504
10.5959
10.6397
10.6831
10.7255
10.7668
10.8078
10.8474
10.8836
10.9185
10.9524
10.9849
11.0185
11.0528
11.088
11.125
11.1626
11.1983
11.2318
11.2596
11.2843
11.3069
11.3314
11.3591
11.3891
11.4167
11.4381
11.4545
11.4691
11.4858
11.5085
11.5375
11.5693
11.5986
11.6218
11.638
11.6487
11.6556
11.66
11.6648
11.6741
11.6885
11.7066
11.7234
11.7345
11.7399
11.7413
11.7398
11.7393
11.7385
11.74
1
1
1
1
1
1
1
1
1
1
1
1
1
1
1
1
1
1
1
1
1
1
1
1
1
1
1
1
1
1
1
1
1
1
1
1
1
1
1
1
1
1
1
1
1
1
1
1
1
1
1
1
1
1
1
1
1
1
1
1
1
1
1.00007
5.94826
10.2008
10.333
10.3866
10.4402
10.4887
10.5357
10.5809
10.6245
10.6678
10.7105
10.7518
10.7922
10.8317
10.8679
10.9027
10.9368
10.9691
11.0016
11.0343
11.0677
11.1028
11.1392
11.1741
11.2069
11.234
11.2579
11.2795
11.3025
11.329
11.3589
11.3878
11.4111
11.4287
11.4432
11.4581
11.4781
11.5049
11.5359
11.5655
11.5891
11.6051
11.615
11.6211
11.6257
11.6317
11.6426
11.6573
11.6725
11.6844
11.691
11.6945
11.6975
11.6997
11.7037
11.7068
11.71
1
1
1
1
1
1
1
1
1
1
1
1
1
1
1
1
1
1
1
1
1
1
1
1
1
1
1
1
1
1
1
1
1
1
1
1
1
1
1
1
1
1
1
1
1
1
1
1
1
1
1
1
1
1
1
1
1
1
1
1
1
1
1
5.19969
10.0714
10.3151
10.3673
10.4227
10.4717
10.519
10.5651
10.6095
10.6536
10.6967
10.7374
10.7767
10.8155
10.8515
10.8854
10.9192
10.951
10.9826
11.0146
11.0471
11.0811
11.1165
11.1505
11.1822
11.208
11.2306
11.2509
11.2724
11.2976
11.3273
11.3573
11.3825
11.4012
11.4153
11.4283
11.4453
11.4691
11.4988
11.5286
11.553
11.5692
11.5785
11.584
11.5889
11.5961
11.6084
11.6228
11.6347
11.6419
11.6448
11.6469
11.6514
11.6574
11.6652
11.6711
11.6752
1
1
1
1
1
1
1
1
1
1
1
1
1
1
1
1
1
1
1
1
1
1
1
1
1
1
1
1
1
1
1
1
1
1
1
1
1
1
1
1
1
1
1
1
1
1
1
1
1
1
1
1
1
1
1
1
1
1
1
1
1
1
1
4.42644
9.89813
10.2944
10.355
10.4105
10.4582
10.5038
10.5486
10.5917
10.6347
10.6773
10.7179
10.7568
10.7958
10.833
10.8676
10.9018
10.9333
10.9631
10.9935
11.0245
11.057
11.0916
11.1251
11.1563
11.1814
11.2029
11.2222
11.2425
11.2664
11.2955
11.3261
11.3525
11.3718
11.3854
11.3965
11.4105
11.4312
11.4591
11.4888
11.5138
11.5303
11.5393
11.5444
11.5497
11.5576
11.5704
11.5835
11.5921
11.5955
11.5958
11.5973
11.6035
11.613
11.6236
11.6312
11.6354
1
1
1
1
1
1
1
1
1
1
1
1
1
1
1
1
1
1
1
1
1
1
1
1
1
1
1
1
1
1
1
1
1
1
1
1
1
1
1
1
1
1
1
1
1
1
1
1
1
1
1
1
1
1
1
1
1
1
1
1
1
1
1
3.6559
9.63235
10.2901
10.348
10.4008
10.4468
10.4904
10.534
10.5772
10.6191
10.6595
10.6985
10.7363
10.7749
10.8133
10.8484
10.882
10.9125
10.9401
10.9686
10.9984
11.0302
11.0648
11.0986
11.1297
11.1541
11.1742
11.1925
11.2117
11.2347
11.263
11.2936
11.3206
11.3402
11.353
11.3625
11.3738
11.3914
11.4169
11.446
11.4713
11.4883
11.4973
11.5025
11.5081
11.5161
11.5282
11.5393
11.545
11.5456
11.5446
11.5464
11.5541
11.566
11.5778
11.5857
11.5892
1
1
1
1
1
1
1
1
1
1
1
1
1
1
1
1
1
1
1
1
1
1
1
1
1
1
1
1
1
1
1
1
1
1
1
1
1
1
1
1
1
1
1
1
1
1
1
1
1
1
1
1
1
1
1
1
1
1
1
1
1
1
1
2.93608
9.27004
10.3165
10.3392
10.3889
10.4321
10.4736
10.5161
10.5591
10.6006
10.6403
10.6787
10.7161
10.754
10.7936
10.8302
10.8634
10.892
10.917
10.943
10.9715
11.0025
11.0369
11.0708
11.1015
11.125
11.1437
11.1612
11.1801
11.2025
11.2298
11.2595
11.2862
11.3056
11.3179
11.3263
11.3355
11.3501
11.3729
11.4006
11.4257
11.4429
11.4524
11.4583
11.4641
11.471
11.4807
11.489
11.4927
11.4918
11.4908
11.4938
11.5027
11.5157
11.5273
11.5347
11.5373
1
1
1
1
1
1
1
1
1
1
1
1
1
1
1
1
1
1
1
1
1
1
1
1
1
1
1
1
1
1
1
1
1
1
1
1
1
1
1
1
1
1
1
1
1
1
1
1
1
1
1
1
1
1
1
1
1
1
1
1
1
1
1
2.25722
8.75573
10.3483
10.3552
10.3965
10.4307
10.4658
10.5037
10.5451
10.5856
10.6225
10.658
10.6945
10.7312
10.7711
10.8093
10.8433
10.8712
10.8942
10.9175
10.9447
10.9749
11.0087
11.0423
11.0723
11.095
11.1125
11.1296
11.1485
11.1702
11.1958
11.2236
11.2491
11.2682
11.2804
11.2884
11.2961
11.3079
11.3271
11.3525
11.3767
11.3942
11.4044
11.4114
11.4169
11.4217
11.4281
11.4331
11.4356
11.435
11.4351
11.4395
11.4487
11.4609
11.4708
11.4769
11.4786
1
1
1
1
1
1
1
1
1
1
1
1
1
1
1
1
1
1
1
1
1
1
1
1
1
1
1
1
1
1
1
1
1
1
1
1
1
1
1
1
1
1
1
1
1
1
1
1
1
1
1
1
1
1
1
1
1
1
1
1
1
1
1
1.65089
8.17986
10.4193
10.3391
10.374
10.4061
10.443
10.4832
10.5254
10.5663
10.6034
10.639
10.6741
10.7086
10.7467
10.7863
10.8212
10.8491
10.8712
10.8921
10.9176
10.9467
10.9798
11.0127
11.0419
11.0642
11.0812
11.0981
11.1168
11.1377
11.161
11.186
11.2097
11.2285
11.2411
11.2491
11.2556
11.2645
11.2796
11.3016
11.3246
11.3423
11.3537
11.3617
11.3661
11.3676
11.3697
11.3713
11.3732
11.3742
11.3763
11.3822
11.3906
11.4005
11.408
11.4129
11.4142
1
1
1
1
1
1
1
1
1
1
1
1
1
1
1
1
1
1
1
1
1
1
1
1
1
1
1
1
1
1
1
1
1
1
1
1
1
1
1
1
1
1
1
1
1
1
1
1
1
1
1
1
1
1
1
1
1
1
1
1
1
1
1
1.20426
7.44147
10.3925
10.3404
10.3638
10.3906
10.4243
10.4595
10.4991
10.5417
10.5824
10.6196
10.6536
10.6852
10.7199
10.7589
10.7949
10.8244
10.8473
10.867
10.8902
10.9176
10.9494
10.9814
11.0098
11.0323
11.0494
11.0662
11.0846
11.104
11.1247
11.1468
11.1687
11.1872
11.2002
11.2081
11.2134
11.2195
11.2303
11.2481
11.2697
11.2877
11.3001
11.3084
11.3107
11.3084
11.3057
11.3044
11.3066
11.31
11.3147
11.3213
11.327
11.3333
11.3377
11.3412
11.3421
1
1
1
1
1
1
1
1
1
1
1
1
1
1
1
1
1
1
1
1
1
1
1
1
1
1
1
1
1
1
1
1
1
1
1
1
1
1
1
1
1
1
1
1
1
1
1
1
1
1
1
1
1
1
1
1
1
1
1
1
1
1
1
1.00787
6.60631
10.2435
10.2573
10.3002
10.3433
10.3864
10.4286
10.4719
10.5156
10.5563
10.5943
10.6288
10.66
10.6922
10.7289
10.7654
10.7966
10.8215
10.8413
10.8621
10.8874
10.9172
10.9482
10.9758
10.9989
11.0166
11.0334
11.0508
11.0688
11.087
11.1063
11.1263
11.1444
11.1575
11.1651
11.1689
11.1724
11.1792
11.1928
11.2128
11.2308
11.2436
11.251
11.2502
11.2436
11.2362
11.2326
11.2352
11.2409
11.2478
11.2539
11.2559
11.2583
11.2599
11.2624
11.2633
1
1
1
1
1
1
1
1
1
1
1
1
1
1
1
1
1
1
1
1
1
1
1
1
1
1
1
1
1
1
1
1
1
1
1
1
1
1
1
1
1
1
1
1
1
1
1
1
1
1
1
1
1
1
1
1
1
1
1
1
1
1
1
1.00003
5.60924
10.0782
10.2113
10.2793
10.3317
10.3725
10.4115
10.4514
10.494
10.5354
10.5722
10.6047
10.632
10.661
10.6961
10.7334
10.7662
10.793
10.8134
10.8324
10.8556
10.8831
10.9133
10.9404
10.964
10.9826
10.9991
11.0152
11.0314
11.0475
11.0647
11.0829
11.1
11.1129
11.1195
11.1217
11.1228
11.1264
11.1363
11.154
11.1714
11.1836
11.1888
11.1842
11.1733
11.1618
11.1564
11.1596
11.1674
11.1756
11.1796
11.1768
11.1747
11.173
11.1741
11.1745
1
1
1
1
1
1
1
1
1
1
1
1
1
1
1
1
1
1
1
1
1
1
1
1
1
1
1
1
1
1
1
1
1
1
1
1
1
1
1
1
1
1
1
1
1
1
1
1
1
1
1
1
1
1
1
1
1
1
1
1
1
1
1
1
4.61122
9.82756
10.153
10.2318
10.3005
10.3462
10.388
10.43
10.4723
10.5132
10.5502
10.5827
10.6085
10.6338
10.6642
10.6992
10.7325
10.7614
10.7832
10.8005
10.8213
10.8466
10.8764
10.9039
10.9279
10.9468
10.9628
10.9772
10.9918
11.0064
11.0221
11.0386
11.0538
11.0656
11.0708
11.0713
11.0707
11.0724
11.0792
11.0937
11.1093
11.1197
11.1217
11.1125
11.0977
11.0829
11.0757
11.0788
11.0871
11.0942
11.0944
11.0872
11.0812
11.0768
11.0767
11.0766
1
1
1
1
1
1
1
1
1
1
1
1
1
1
1
1
1
1
1
1
1
1
1
1
1
1
1
1
1
1
1
1
1
1
1
1
1
1
1
1
1
1
1
1
1
1
1
1
1
1
1
1
1
1
1
1
1
1
1
1
1
1
1
1
3.64757
9.45762
10.1474
10.2347
10.2938
10.3384
10.376
10.4113
10.4487
10.4869
10.5227
10.5541
10.5798
10.6046
10.6341
10.6679
10.7005
10.7292
10.7499
10.7662
10.7855
10.8087
10.8378
10.866
10.89
10.9088
10.9239
10.937
10.9502
10.964
10.9785
10.9929
11.0054
11.0151
11.0188
11.0181
11.0167
11.017
11.0212
11.0317
11.0437
11.051
11.0489
11.0357
11.017
10.9997
10.9907
10.9927
10.9998
11.0041
10.9996
10.9879
10.977
10.9687
10.9656
10.9636
1
1
1
1
1
1
1
1
1
1
1
1
1
1
1
1
1
1
1
1
1
1
1
1
1
1
1
1
1
1
1
1
1
1
1
1
1
1
1
1
1
1
1
1
1
1
1
1
1
1
1
1
1
1
1
1
1
1
1
1
1
1
1
1
2.71682
8.90254
10.1726
10.2212
10.2689
10.3112
10.3522
10.3922
10.4299
10.466
10.4979
10.5261
10.5507
10.575
10.6021
10.6347
10.6681
10.696
10.7186
10.731
10.7473
10.7685
10.7971
10.8263
10.8502
10.8684
10.8823
10.8944
10.9067
10.9199
10.9334
10.9454
10.9548
10.9611
10.9638
10.9625
10.9612
10.9602
10.9615
10.9674
10.9741
10.9767
10.9707
10.9544
10.9323
10.9121
10.9005
10.8993
10.902
10.901
10.8903
10.8738
10.8586
10.8468
10.8411
10.8378
1
1
1
1
1
1
1
1
1
1
1
1
1
1
1
1
1
1
1
1
1
1
1
1
1
1
1
1
1
1
1
1
1
1
1
1
1
1
1
1
1
1
1
1
1
1
1
1
1
1
1
1
1
1
1
1
1
1
1
1
1
1
1
1
1.82232
8.25006
10.2931
10.22
10.2616
10.3014
10.336
10.3664
10.4001
10.4365
10.4706
10.5004
10.5246
10.547
10.5723
10.6029
10.6351
10.6612
10.681
10.6959
10.7102
10.7286
10.7546
10.7834
10.8079
10.8255
10.8382
10.8496
10.8612
10.8739
10.8862
10.8955
10.9017
10.9049
10.906
10.9051
10.9042
10.9019
10.8995
10.8994
10.8997
10.8968
10.887
10.8683
10.8435
10.82
10.8043
10.7975
10.7937
10.7861
10.7699
10.7478
10.7259
10.7069
10.6951
10.6873
1
1
1
1
1
1
1
1
1
1
1
1
1
1
1
1
1
1
1
1
1
1
1
1
1
1
1
1
1
1
1
1
1
1
1
1
1
1
1
1
1
1
1
1
1
1
1
1
1
1
1
1
1
1
1
1
1
1
1
1
1
1
1
1
1.13284
7.35589
10.3619
10.2497
10.247
10.2638
10.297
10.3341
10.3729
10.4091
10.4423
10.4713
10.4955
10.5179
10.5426
10.5718
10.6028
10.6286
10.6473
10.6614
10.6737
10.6898
10.7122
10.7397
10.7632
10.78
10.7918
10.8025
10.8134
10.825
10.8358
10.8428
10.8463
10.8469
10.8464
10.846
10.8451
10.8407
10.834
10.8271
10.8206
10.8119
10.7985
10.7777
10.7503
10.7226
10.7006
10.6858
10.6728
10.6555
10.6303
10.5991
10.5689
10.5431
10.5263
10.5168
1
1
1
1
1
1
1
1
1
1
1
1
1
1
1
1
1
1
1
1
1
1
1
1
1
1
1
1
1
1
1
1
1
1
1
1
1
1
1
1
1
1
1
1
1
1
1
1
1
1
1
1
1
1
1
1
1
1
1
1
1
1
1
1
1.0023
6.303
10.1113
10.1031
10.1866
10.236
10.2783
10.3089
10.3415
10.3786
10.4124
10.4413
10.4655
10.4872
10.5108
10.5391
10.5696
10.5957
10.6148
10.6291
10.6409
10.6537
10.6718
10.6937
10.7172
10.7333
10.744
10.7534
10.763
10.7729
10.7817
10.787
10.7886
10.7877
10.7861
10.7853
10.783
10.7758
10.7643
10.7507
10.7372
10.7229
10.7056
10.6821
10.6516
10.6184
10.5881
10.5628
10.5388
10.5106
10.4753
10.4344
10.3927
10.3521
10.3204
10.2988
1
1
1
1
1
1
1
1
1
1
1
1
1
1
1
1
1
1
1
1
1
1
1
1
1
1
1
1
1
1
1
1
1
1
1
1
1
1
1
1
1
1
1
1
1
1
1
1
1
1
1
1
1
1
1
1
1
1
1
1
1
1
1
1
0.999994
5.05476
9.8215
10.0752
10.1725
10.2144
10.2481
10.2792
10.3136
10.3459
10.3776
10.4074
10.4326
10.4546
10.4779
10.5053
10.5353
10.5618
10.5818
10.5963
10.6074
10.6181
10.6328
10.6511
10.6705
10.6864
10.6962
10.7035
10.7105
10.7174
10.7238
10.728
10.729
10.7274
10.7247
10.722
10.7167
10.7061
10.6898
10.6701
10.6502
10.6305
10.6087
10.5815
10.5466
10.5065
10.4661
10.4283
10.3909
10.3483
10.2964
10.2352
10.1702
10.1104
10.0642
10.0415
1
1
1
1
1
1
1
1
1
1
1
1
1
1
1
1
1
1
1
1
1
1
1
1
1
1
1
1
1
1
1
1
1
1
1
1
1
1
1
1
1
1
1
1
1
1
1
1
1
1
1
1
1
1
1
1
1
1
1
1
1
1
1
1
0.999999
3.88719
9.45141
10.0693
10.1311
10.1849
10.2274
10.2572
10.2819
10.3085
10.3391
10.3689
10.3952
10.4191
10.4429
10.4696
10.4988
10.5259
10.5473
10.5623
10.5727
10.5818
10.5936
10.6087
10.6258
10.6409
10.6495
10.6538
10.6565
10.6594
10.6629
10.6666
10.6676
10.6656
10.6614
10.6554
10.6461
10.6314
10.6109
10.5863
10.5607
10.5354
10.5081
10.4754
10.4344
10.386
10.334
10.2818
10.2279
10.1664
10.0937
10.0102
9.92043
9.82979
9.73999
9.6675
1
1
1
1
1
1
1
1
1
1
1
1
1
1
1
1
1
1
1
1
1
1
1
1
1
1
1
1
1
1
1
1
1
1
1
1
1
1
1
1
1
1
1
1
1
1
1
1
1
1
1
1
1
1
1
1
1
1
1
1
1
1
1
1
1
2.73474
8.82252
10.115
10.139
10.1784
10.2058
10.2338
10.2573
10.2816
10.3078
10.3343
10.36
10.3838
10.4069
10.432
10.46
10.4876
10.5104
10.5263
10.5366
10.5448
10.554
10.5661
10.5806
10.5944
10.6024
10.6041
10.602
10.6002
10.6007
10.6035
10.6048
10.6018
10.595
10.5847
10.5703
10.5517
10.5278
10.4996
10.4691
10.4377
10.4037
10.3637
10.3148
10.2568
10.192
10.1235
10.0501
9.96643
9.86595
9.74391
9.59604
9.42702
9.26559
9.14898
1
1
1
1
1
1
1
1
1
1
1
1
1
1
1
1
1
1
1
1
1
1
1
1
1
1
1
1
1
1
1
1
1
1
1
1
1
1
1
1
1
1
1
1
1
1
1
1
1
1
1
1
1
1
1
1
1
1
1
1
1
1
1
1
1
1.68977
8.14611
10.2281
10.1163
10.137
10.167
10.1989
10.2261
10.2527
10.2801
10.3062
10.3292
10.35
10.3707
10.3933
10.4191
10.4466
10.4709
10.4881
10.499
10.5068
10.5137
10.5226
10.5342
10.5458
10.5531
10.5534
10.5478
10.5418
10.5386
10.5396
10.54
10.5354
10.5251
10.5097
10.4903
10.468
10.4416
10.4105
10.3756
10.3376
10.2954
10.2464
10.1879
10.1192
10.0407
9.95437
9.85825
9.74611
9.60806
9.43613
9.22581
8.97346
8.70038
8.51967
1
1
1
1
1
1
1
1
1
1
1
1
1
1
1
1
1
1
1
1
1
1
1
1
1
1
1
1
1
1
1
1
1
1
1
1
1
1
1
1
1
1
1
1
1
1
1
1
1
1
1
1
1
1
1
1
1
1
1
1
1
1
1
1
1
1.05828
7.03452
10.2244
10.1215
10.1234
10.1376
10.1646
10.1955
10.2232
10.2507
10.2771
10.3006
10.3206
10.3386
10.3572
10.3792
10.4049
10.4297
10.4482
10.4603
10.4672
10.4722
10.478
10.4862
10.4951
10.5014
10.5006
10.4931
10.4836
10.4769
10.4751
10.4728
10.4655
10.4513
10.431
10.4071
10.3814
10.3527
10.3191
10.2799
10.2349
10.1834
10.1239
10.0545
9.97414
9.88135
9.776
9.65465
9.50984
9.32836
9.09677
8.79154
8.34551
7.50842
5.56606
1
1
1
1
1
1
1
1
1
1
1
1
1
1
1
1
1
1
1
1
1
1
1
1
1
1
1
1
1
1
1
1
1
1
1
1
1
1
1
1
1
1
1
1
1
1
1
1
1
1
1
1
1
1
1
1
1
1
1
1
1
1
1
1
1
1.00029
5.65793
9.87276
9.97252
10.0524
10.0996
10.134
10.1636
10.1917
10.2192
10.2457
10.2696
10.2896
10.3066
10.3227
10.341
10.3636
10.3879
10.4074
10.4204
10.4268
10.4292
10.4316
10.4365
10.4427
10.4478
10.4461
10.4378
10.4258
10.4158
10.41
10.4036
10.3925
10.3745
10.3501
10.3226
10.2937
10.2622
10.2256
10.1816
10.1292
10.0679
9.99726
9.9161
9.82319
9.71553
9.59045
9.44253
9.26272
9.03402
8.73249
8.30752
7.678
6.63634
4.49392
1
1
1
1
1
1
1
1
1
1
1
1
1
1
1
1
1
1
1
1
1
1
1
1
1
1
1
1
1
1
1
1
1
1
1
1
1
1
1
1
1
1
1
1
1
1
1
1
1
1
1
1
1
1
1
1
1
1
1
1
1
1
1
1
1
0.999998
4.26647
9.51148
9.95569
10.0306
10.0806
10.11
10.1298
10.156
10.1841
10.2114
10.2359
10.2562
10.2729
10.2877
10.3036
10.3232
10.3457
10.3652
10.3783
10.3848
10.3845
10.3838
10.3854
10.389
10.3922
10.3899
10.3809
10.3674
10.3542
10.3435
10.3324
10.317
10.2954
10.268
10.2374
10.2053
10.1703
10.1296
10.0803
10.0204
9.94952
9.86773
9.77448
9.6685
9.54555
9.40066
9.22584
9.01167
8.73654
8.37921
7.86178
7.18501
5.87939
4.12578
1
1
1
1
1
1
1
1
1
1
1
1
1
1
1
1
1
1
1
1
1
1
1
1
1
1
1
1
1
1
1
1
1
1
1
1
1
1
1
1
1
1
1
1
1
1
1
1
1
1
1
1
1
1
1
1
1
1
1
1
1
1
1
1
1
1
2.93623
8.89447
9.99741
10.0264
10.0577
10.0825
10.104
10.1266
10.1512
10.1769
10.201
10.2216
10.2381
10.2522
10.2662
10.283
10.3028
10.3212
10.334
10.3404
10.3392
10.3355
10.3339
10.3348
10.336
10.3327
10.3232
10.3082
10.2917
10.2764
10.2604
10.241
10.2164
10.1866
10.1531
10.1172
10.0776
10.0317
9.97629
9.90914
9.82919
9.73674
9.63149
9.51232
9.37406
9.21057
9.01075
8.76565
8.45246
8.05068
7.50025
6.7035
5.46679
4.01669
1
1
1
1
1
1
1
1
1
1
1
1
1
1
1
1
1
1
1
1
1
1
1
1
1
1
1
1
1
1
1
1
1
1
1
1
1
1
1
1
1
1
1
1
1
1
1
1
1
1
1
1
1
1
1
1
1
1
1
1
1
1
1
1
1
1
1.75563
8.15801
10.0778
9.99092
10.0124
10.0455
10.0734
10.0967
10.1191
10.1424
10.1652
10.1856
10.2023
10.2161
10.2287
10.2429
10.2593
10.2757
10.2877
10.2936
10.2928
10.2867
10.2822
10.2805
10.2795
10.2746
10.264
10.2473
10.2277
10.2082
10.188
10.165
10.1377
10.1056
10.0689
10.0285
9.98359
9.93164
9.86983
9.79581
9.70789
9.60593
9.48928
9.35709
9.20378
9.02322
8.80264
8.53148
8.18988
7.74892
7.1845
6.35777
5.28635
4.09605
1
1
1
1
1
1
1
1
1
1
1
1
1
1
1
1
1
1
1
1
1
1
1
1
1
1
1
1
1
1
1
1
1
1
1
1
1
1
1
1
1
1
1
1
1
1
1
1
1
1
1
1
1
1
1
1
1
1
1
1
1
1
1
1
1
1
1.06726
6.90832
10.0719
9.99546
9.99548
10.0112
10.0409
10.0649
10.0865
10.1086
10.1304
10.1501
10.1664
10.1797
10.1912
10.2027
10.2156
10.2291
10.2397
10.2453
10.2453
10.2381
10.2308
10.2264
10.2229
10.2161
10.2039
10.1854
10.1631
10.1398
10.116
10.09
10.0602
10.0255
9.98537
9.94005
9.88911
9.83073
9.76228
9.68179
9.58682
9.47658
9.34956
9.20506
9.03769
8.8416
8.60489
8.31494
7.95508
7.49688
6.91672
6.14162
5.24474
4.24726
1
1
1
1
1
1
1
1
1
1
1
1
1
1
1
1
1
1
1
1
1
1
1
1
1
1
1
1
1
1
1
1
1
1
1
1
1
1
1
1
1
1
1
1
1
1
1
1
1
1
1
1
1
1
1
1
1
1
1
1
1
1
1
1
1
1
1.00034
5.35449
9.65342
9.84713
9.92967
9.97869
10.0066
10.0308
10.052
10.0732
10.0941
10.1132
10.1292
10.1421
10.1527
10.1619
10.1713
10.1822
10.1917
10.197
10.1974
10.1902
10.1802
10.1723
10.1657
10.1568
10.1427
10.1227
10.0983
10.0717
10.0446
10.0159
9.98349
9.94566
9.9015
9.85088
9.79357
9.72876
9.65397
9.56761
9.4666
9.3496
9.21376
9.05829
8.87849
8.66888
8.41978
8.11856
7.74933
7.29189
6.71001
6.02791
5.24681
4.37289
1
1
1
1
1
1
1
1
1
1
1
1
1
1
1
1
1
1
1
1
1
1
1
1
1
1
1
1
1
1
1
1
1
1
1
1
1
1
1
1
1
1
1
1
1
1
1
1
1
1
1
1
1
1
1
1
1
1
1
1
1
1
1
1
1
1
0.999997
3.81735
9.23753
9.84702
9.91518
9.96251
9.98639
10.0006
10.0172
10.0364
10.0563
10.0746
10.0901
10.1024
10.1121
10.1193
10.1264
10.1346
10.1432
10.1484
10.1491
10.1419
10.1299
10.1185
10.1078
10.0967
10.081
10.06
10.034
10.0046
9.97424
9.94244
9.90698
9.86572
9.81736
9.76163
9.69833
9.62734
9.54668
9.45499
9.34855
9.2258
9.08263
8.91804
8.72801
8.50781
8.24981
7.94252
7.57289
7.12655
6.57583
5.95057
5.25518
4.50459
1
1
1
1
1
1
1
1
1
1
1
1
1
1
1
1
1
1
1
1
1
1
1
1
1
1
1
1
1
1
1
1
1
1
1
1
1
1
1
1
1
1
1
1
1
1
1
1
1
1
1
1
1
1
1
1
1
1
1
1
1
1
1
1
1
1
0.999999
2.33594
8.49592
9.93922
9.92048
9.93608
9.95443
9.97262
9.98808
10.004
10.0211
10.0375
10.0519
10.0634
10.0724
10.0773
10.0821
10.0883
10.0954
10.1004
10.101
10.0935
10.0804
10.0655
10.0509
10.0367
10.0195
9.99763
9.97005
9.93827
9.90463
9.86928
9.83041
9.78569
9.73338
9.67289
9.60404
9.52723
9.44103
9.34422
9.23307
9.10552
8.95677
8.78521
8.58743
8.35988
8.09653
7.78609
7.42683
6.99135
6.47863
5.90593
5.29993
4.64059
1
1
1
1
1
1
1
1
1
1
1
1
1
1
1
1
1
1
1
1
1
1
1
1
1
1
1
1
1
1
1
1
1
1
1
1
1
1
1
1
1
1
1
1
1
1
1
1
1
1
1
1
1
1
1
1
1
1
1
1
1
1
1
1
1
1
1
1.20037
7.42855
10.0521
9.93186
9.89916
9.91377
9.94016
9.95621
9.9709
9.986
10.0004
10.013
10.0233
10.0312
10.0346
10.0377
10.0421
10.0474
10.0514
10.0514
10.044
10.0306
10.0132
9.99516
9.97769
9.95876
9.93559
9.9066
9.87262
9.83557
9.79619
9.75341
9.70512
9.6492
9.58465
9.5111
9.42927
9.33827
9.23665
9.12115
8.98918
8.83652
8.66035
8.45751
8.22569
7.9595
7.65241
7.30206
6.87789
6.40983
5.91074
5.35812
4.75333
1
1
1
1
1
1
1
1
1
1
1
1
1
1
1
1
1
1
1
1
1
1
1
1
1
1
1
1
1
1
1
1
1
1
1
1
1
1
1
1
1
1
1
1
1
1
1
1
1
1
1
1
1
1
1
1
1
1
1
1
1
1
1
1
1
1
1
1.004
5.92817
9.66159
9.76373
9.83233
9.87076
9.90207
9.91972
9.93514
9.94962
9.96301
9.97463
9.98409
9.99112
9.99367
9.99503
9.99727
10.0003
10.0026
10.0013
9.99388
9.9801
9.96123
9.94065
9.92
9.89871
9.87379
9.84323
9.80696
9.76647
9.72301
9.67631
9.62468
9.56572
9.49787
9.42045
9.33423
9.23889
9.13283
9.01319
8.87701
8.72114
8.54253
8.33791
8.10459
7.83925
7.53944
7.19189
6.7953
6.37236
5.92037
5.39176
4.85557
1
1
1
1
1
1
1
1
1
1
1
1
1
1
1
1
1
1
1
1
1
1
1
1
1
1
1
1
1
1
1
1
1
1
1
1
1