/*--------------------------------*- C++ -*----------------------------------*\
  =========                 |
  \\      /  F ield         | OpenFOAM: The Open Source CFD Toolbox
   \\    /   O peration     | Website:  https://openfoam.org
    \\  /    A nd           | Version:  7
     \\/     M anipulation  |
\*---------------------------------------------------------------------------*/
FoamFile
{
    version     2.0;
    format      ascii;
    class       surfaceScalarField;
    location    "3.6";
    object      phi;
}
// * * * * * * * * * * * * * * * * * * * * * * * * * * * * * * * * * * * * * //

dimensions      [0 3 -1 0 0 0 0];

internalField   nonuniform List<scalar> 
615
(
7.4187e-05
7.95153e-07
7.43215e-05
7.85041e-07
7.44543e-05
7.75101e-07
7.45854e-05
7.65333e-07
7.47149e-05
7.55735e-07
7.48429e-05
7.46309e-07
7.49693e-05
7.37054e-07
7.50942e-05
7.27972e-07
7.52176e-05
7.19067e-07
7.53395e-05
7.10347e-07
7.546e-05
7.01824e-07
7.55791e-05
6.9352e-07
7.56968e-05
6.85468e-07
7.58131e-05
6.77729e-07
7.59281e-05
6.70387e-07
7.60419e-05
6.63616e-07
7.61545e-05
6.57617e-07
7.6266e-05
6.52972e-07
7.63763e-05
6.50036e-07
7.64856e-05
6.5104e-07
7.65936e-05
6.55555e-07
7.66995e-05
6.72198e-07
7.68032e-05
6.90836e-07
7.34269e-07
6.09513e-05
1.20752e-06
6.11809e-05
1.18946e-06
6.14072e-05
1.17175e-06
6.16302e-05
1.15439e-06
6.185e-05
1.13736e-06
6.20667e-05
1.12067e-06
6.22803e-05
1.1043e-06
6.24908e-05
1.08824e-06
6.26984e-05
1.07249e-06
6.29031e-05
1.05704e-06
6.3105e-05
1.04187e-06
6.3304e-05
1.02699e-06
6.35003e-05
1.01239e-06
6.36939e-05
9.98046e-07
6.38848e-05
9.83968e-07
6.40731e-05
9.70143e-07
6.42588e-05
9.56565e-07
6.4442e-05
9.43228e-07
6.46228e-05
9.30126e-07
6.4801e-05
9.17252e-07
6.49769e-05
9.04601e-07
6.51504e-05
8.92167e-07
6.53216e-05
8.79944e-07
6.54906e-05
8.67928e-07
6.56572e-05
8.56113e-07
6.58217e-05
8.44496e-07
6.5984e-05
8.3307e-07
6.61442e-05
8.21832e-07
6.63022e-05
8.10777e-07
6.64582e-05
7.99903e-07
6.66121e-05
7.89205e-07
6.67641e-05
7.7868e-07
6.6914e-05
7.68325e-07
6.7062e-05
7.58138e-07
6.72081e-05
7.48114e-07
6.73523e-05
7.38253e-07
6.74947e-05
7.28551e-07
6.76353e-05
7.19006e-07
6.7774e-05
7.09618e-07
6.7911e-05
7.00383e-07
6.80462e-05
6.913e-07
6.81798e-05
6.82367e-07
6.83116e-05
6.73583e-07
6.84418e-05
6.64948e-07
6.85704e-05
6.56461e-07
6.86974e-05
6.48119e-07
6.88228e-05
6.39921e-07
6.89467e-05
6.31868e-07
6.9069e-05
6.2396e-07
6.91899e-05
6.16196e-07
6.93093e-05
6.08579e-07
6.94272e-05
6.01112e-07
6.95438e-05
5.93803e-07
6.96589e-05
5.86663e-07
6.97727e-05
5.79711e-07
6.98852e-05
5.72978e-07
6.99964e-05
5.66519e-07
7.01064e-05
5.6041e-07
7.02152e-05
5.54815e-07
7.03229e-05
5.49917e-07
7.04296e-05
5.46286e-07
7.05354e-05
5.4426e-07
7.06403e-05
5.4612e-07
7.07444e-05
5.51463e-07
7.0847e-05
5.69585e-07
7.0948e-05
5.89835e-07
6.38957e-07
5.53448e-05
9.86658e-07
5.55624e-05
9.7183e-07
5.57769e-05
9.57295e-07
5.59882e-05
9.43048e-07
5.61965e-05
9.29081e-07
5.64018e-05
9.15386e-07
5.66041e-05
9.01956e-07
5.68036e-05
8.88785e-07
5.70002e-05
8.75867e-07
5.7194e-05
8.63193e-07
5.73851e-05
8.50758e-07
5.75736e-05
8.38556e-07
5.77594e-05
8.2658e-07
5.79426e-05
8.14825e-07
5.81233e-05
8.03285e-07
5.83015e-05
7.91954e-07
5.84772e-05
7.80827e-07
5.86505e-05
7.69898e-07
5.88215e-05
7.59162e-07
5.89901e-05
7.48615e-07
5.91565e-05
7.3825e-07
5.93206e-05
7.28065e-07
5.94825e-05
7.18053e-07
5.96422e-05
7.08212e-07
5.97998e-05
6.98536e-07
5.99553e-05
6.89022e-07
6.01087e-05
6.79667e-07
6.026e-05
6.70465e-07
6.04094e-05
6.61414e-07
6.05568e-05
6.52512e-07
6.07022e-05
6.43754e-07
6.08458e-05
6.35139e-07
6.09874e-05
6.26663e-07
6.11273e-05
6.18324e-07
6.12652e-05
6.1012e-07
6.14014e-05
6.02049e-07
6.15359e-05
5.94109e-07
6.16686e-05
5.86298e-07
6.17996e-05
5.78615e-07
6.19289e-05
5.71058e-07
6.20566e-05
5.63625e-07
6.21827e-05
5.56316e-07
6.23071e-05
5.49129e-07
6.243e-05
5.42064e-07
6.25513e-05
5.3512e-07
6.26712e-05
5.28295e-07
6.27895e-05
5.2159e-07
6.29064e-05
5.15003e-07
6.30218e-05
5.08534e-07
6.31358e-05
5.02185e-07
6.32484e-05
4.95957e-07
6.33597e-05
4.89854e-07
6.34696e-05
4.83881e-07
6.35782e-05
4.78049e-07
6.36855e-05
4.72375e-07
6.37916e-05
4.66885e-07
6.38965e-05
4.61629e-07
6.40003e-05
4.56672e-07
6.41029e-05
4.52162e-07
6.42046e-05
4.48264e-07
6.43053e-05
4.45511e-07
6.44054e-05
4.44214e-07
6.45049e-05
4.46636e-07
6.4604e-05
4.52382e-07
6.47023e-05
4.71247e-07
6.47999e-05
4.92263e-07
5.46042e-07
4.95531e-05
7.80656e-07
4.9756e-05
7.68873e-07
4.9956e-05
7.57325e-07
5.01531e-05
7.46006e-07
5.03472e-05
7.3491e-07
5.05386e-05
7.24032e-07
5.07272e-05
7.13366e-07
5.09131e-05
7.02906e-07
5.10963e-05
6.92648e-07
5.12769e-05
6.82585e-07
5.14549e-05
6.72713e-07
5.16305e-05
6.63026e-07
5.18035e-05
6.53521e-07
5.19742e-05
6.44191e-07
5.21424e-05
6.35033e-07
5.23083e-05
6.26041e-07
5.24719e-05
6.17212e-07
5.26333e-05
6.08541e-07
5.27924e-05
6.00024e-07
5.29494e-05
5.91658e-07
5.31042e-05
5.83437e-07
5.32569e-05
5.75359e-07
5.34075e-05
5.67419e-07
5.35561e-05
5.59615e-07
5.37027e-05
5.51943e-07
5.38474e-05
5.444e-07
5.399e-05
5.36982e-07
5.41308e-05
5.29687e-07
5.42697e-05
5.22513e-07
5.44068e-05
5.15456e-07
5.4542e-05
5.08514e-07
5.46755e-05
5.01686e-07
5.48072e-05
4.94968e-07
5.49371e-05
4.88359e-07
5.50654e-05
4.81858e-07
5.5192e-05
4.75462e-07
5.53169e-05
4.6917e-07
5.54402e-05
4.6298e-07
5.5562e-05
4.56892e-07
5.56821e-05
4.50903e-07
5.58007e-05
4.45014e-07
5.59178e-05
4.39223e-07
5.60334e-05
4.33529e-07
5.61475e-05
4.27931e-07
5.62602e-05
4.22429e-07
5.63715e-05
4.17022e-07
5.64814e-05
4.1171e-07
5.65899e-05
4.06492e-07
5.66971e-05
4.01369e-07
5.68029e-05
3.9634e-07
5.69075e-05
3.91409e-07
5.70107e-05
3.86576e-07
5.71128e-05
3.81849e-07
5.72136e-05
3.77236e-07
5.73132e-05
3.7275e-07
5.74117e-05
3.68415e-07
5.7509e-05
3.6427e-07
5.76053e-05
3.60372e-07
5.77006e-05
3.5685e-07
5.77951e-05
3.53841e-07
5.78887e-05
3.5183e-07
5.79819e-05
3.5108e-07
5.80748e-05
3.53764e-07
5.81677e-05
3.59456e-07
5.82607e-05
3.78231e-07
5.8354e-05
3.98917e-07
4.5603e-07
4.35741e-05
5.92345e-07
4.37597e-05
5.83367e-07
4.39424e-05
5.74569e-07
4.41225e-05
5.65946e-07
4.42999e-05
5.57495e-07
4.44747e-05
5.4921e-07
4.4647e-05
5.41087e-07
4.48168e-05
5.33123e-07
4.49841e-05
5.25312e-07
4.5149e-05
5.17651e-07
4.53116e-05
5.10136e-07
4.54719e-05
5.02763e-07
4.56299e-05
4.95528e-07
4.57856e-05
4.88428e-07
4.59392e-05
4.81458e-07
4.60906e-05
4.74617e-07
4.62399e-05
4.67899e-07
4.63872e-05
4.61303e-07
4.65324e-05
4.54824e-07
4.66756e-05
4.4846e-07
4.68168e-05
4.42208e-07
4.69561e-05
4.36064e-07
4.70935e-05
4.30027e-07
4.7229e-05
4.24092e-07
4.73627e-05
4.18259e-07
4.74946e-05
4.12524e-07
4.76247e-05
4.06885e-07
4.7753e-05
4.01339e-07
4.78796e-05
3.95886e-07
4.80046e-05
3.90522e-07
4.81279e-05
3.85245e-07
4.82495e-05
3.80055e-07
4.83695e-05
3.7495e-07
4.84879e-05
3.69927e-07
4.86048e-05
3.64986e-07
4.87201e-05
3.60126e-07
4.8834e-05
3.55344e-07
4.89463e-05
3.5064e-07
4.90572e-05
3.46014e-07
4.91666e-05
3.41463e-07
4.92747e-05
3.36988e-07
4.93813e-05
3.32587e-07
4.94866e-05
3.2826e-07
4.95905e-05
3.24007e-07
4.96931e-05
3.19826e-07
4.97944e-05
3.15718e-07
4.98944e-05
3.11682e-07
4.99932e-05
3.07717e-07
5.00907e-05
3.03825e-07
5.01871e-05
3.00005e-07
5.02822e-05
2.9626e-07
5.03762e-05
2.9259e-07
5.04691e-05
5.05608e-05
5.06514e-05
5.0741e-05
5.08296e-05
5.09173e-05
5.1004e-05
5.109e-05
5.11754e-05
5.12604e-05
5.13454e-05
5.14309e-05
5.15175e-05
5.16056e-05
3.74057e-05
3.75709e-05
3.77336e-05
3.7894e-05
3.80519e-05
3.82076e-05
3.83609e-05
3.8512e-05
3.8661e-05
3.88077e-05
3.89524e-05
3.9095e-05
3.92355e-05
3.93741e-05
3.95107e-05
3.96454e-05
3.97782e-05
3.99091e-05
4.00382e-05
4.01655e-05
4.02911e-05
4.04149e-05
4.0537e-05
4.06575e-05
4.07763e-05
4.08935e-05
4.10091e-05
4.11231e-05
4.12356e-05
4.13466e-05
4.14561e-05
4.15642e-05
4.16708e-05
4.17759e-05
4.18797e-05
4.19821e-05
4.20832e-05
4.21829e-05
4.22814e-05
4.23785e-05
4.24744e-05
4.25691e-05
4.26625e-05
4.27547e-05
4.28458e-05
4.29357e-05
4.30244e-05
4.31121e-05
4.31986e-05
4.32841e-05
4.33684e-05
)
;

boundaryField
{
    inlet
    {
        type            calculated;
        value           nonuniform 0();
    }
    outlet
    {
        type            calculated;
        value           nonuniform List<scalar> 5(7.69005e-05 7.10433e-05 6.48928e-05 5.84441e-05 5.16922e-05);
    }
    wall
    {
        type            calculated;
        value           nonuniform 0();
    }
    wedge1
    {
        type            wedge;
        value           nonuniform List<scalar> 
344
(
-7.56963e-17
-6.17714e-17
-4.90302e-17
-1.13549e-16
1.84726e-16
-7.45674e-17
-6.08464e-17
-4.82928e-17
-1.11833e-16
1.81923e-16
-7.34614e-17
-5.99399e-17
-4.75706e-17
-1.10152e-16
1.79176e-16
-7.23753e-17
-5.90498e-17
-4.68609e-17
-1.08503e-16
1.76485e-16
-7.13104e-17
-5.81766e-17
-4.6165e-17
-1.06887e-16
1.73848e-16
-7.02667e-17
-5.73216e-17
-4.54836e-17
-1.05303e-16
1.71262e-16
-6.92428e-17
-5.64825e-17
-4.4815e-17
-1.03749e-16
1.68727e-16
-6.82391e-17
-5.56605e-17
-4.41602e-17
-1.02227e-16
1.66241e-16
-6.72541e-17
-5.48533e-17
-4.35173e-17
-1.00733e-16
1.63803e-16
-6.62884e-17
-5.40628e-17
-4.28877e-17
-9.92685e-17
1.61411e-16
-6.53413e-17
-5.32873e-17
-4.22704e-17
-9.78322e-17
1.59065e-16
-6.44102e-17
-5.25251e-17
-4.16632e-17
-9.64219e-17
1.56764e-16
-6.34964e-17
-5.17767e-17
-4.10673e-17
-9.50379e-17
1.54506e-16
-6.2599e-17
-5.10416e-17
-4.04819e-17
-9.36788e-17
1.52291e-16
-6.17185e-17
-5.03209e-17
-3.99081e-17
-9.2346e-17
1.50116e-16
-6.08535e-17
-4.96125e-17
-3.93442e-17
-9.10365e-17
1.47982e-16
-6.00043e-17
-4.89178e-17
-3.87912e-17
-8.97518e-17
1.45885e-16
-5.91698e-17
-4.82346e-17
-3.82475e-17
-8.84893e-17
1.43827e-16
-5.83507e-17
-4.75647e-17
-3.77145e-17
-8.72506e-17
1.41805e-16
-5.75462e-17
-4.69066e-17
-3.7191e-17
-8.60335e-17
1.39818e-16
-5.67543e-17
-4.62587e-17
-3.66754e-17
-8.48369e-17
1.37867e-16
-5.59758e-17
-4.56215e-17
-3.61684e-17
-8.36605e-17
1.35951e-16
-5.52114e-17
-4.49964e-17
-3.56711e-17
-8.25056e-17
1.34066e-16
-5.44603e-17
-4.43821e-17
-3.51827e-17
-8.13705e-17
1.32214e-16
-5.37205e-17
-4.37771e-17
-3.47013e-17
-8.02537e-17
1.30394e-16
-5.2993e-17
-4.31818e-17
-3.42278e-17
-7.91553e-17
1.28605e-16
-5.22782e-17
-4.25975e-17
-3.37631e-17
-7.80764e-17
1.26845e-16
-5.15757e-17
-4.20231e-17
-3.33065e-17
-7.70154e-17
1.25115e-16
-5.08834e-17
-4.14571e-17
-3.28562e-17
-7.59712e-17
1.23413e-16
-5.02024e-17
-4.08999e-17
-3.24131e-17
-7.49437e-17
1.2174e-16
-4.95329e-17
-4.03527e-17
-3.1978e-17
-7.39339e-17
1.20094e-16
-4.88738e-17
-3.98138e-17
-3.15494e-17
-7.29399e-17
1.18475e-16
-4.82259e-17
-3.92843e-17
-3.11284e-17
-7.19628e-17
1.16882e-16
-4.75882e-17
-3.87628e-17
-3.07139e-17
-7.1001e-17
1.15315e-16
-4.69612e-17
-3.82506e-17
-3.03068e-17
-7.00557e-17
1.13773e-16
-4.63448e-17
-3.77469e-17
-2.99065e-17
-6.91258e-17
1.12256e-16
-4.57374e-17
-3.72505e-17
-2.95119e-17
-6.82104e-17
1.10764e-16
-4.51399e-17
-3.67621e-17
-2.91236e-17
-6.73098e-17
1.09297e-16
-4.4552e-17
-3.62814e-17
-2.87415e-17
-6.64237e-17
1.07854e-16
-4.39741e-17
-3.58093e-17
-2.83662e-17
-6.55528e-17
1.06434e-16
-4.34055e-17
-3.53445e-17
-2.79968e-17
-6.46959e-17
1.05038e-16
-4.28466e-17
-3.48879e-17
-2.76339e-17
-6.38538e-17
1.03666e-16
-4.22968e-17
-3.44386e-17
-2.72768e-17
-6.30254e-17
1.02316e-16
-1.51567e-16
-4.17567e-17
-3.39975e-17
-2.69263e-17
-6.22117e-17
1.00989e-16
-1.49645e-16
-4.1226e-17
-3.3564e-17
-2.6582e-17
-6.1412e-17
9.96846e-17
-1.47755e-16
-4.07037e-17
-3.31374e-17
-2.62429e-17
-6.06256e-17
9.84032e-17
-1.45898e-16
-4.01905e-17
-3.2718e-17
-2.59096e-17
-5.98528e-17
9.71446e-17
-1.44074e-16
-3.96867e-17
-3.23066e-17
-2.55828e-17
-5.90944e-17
9.5908e-17
-1.42282e-16
-3.91921e-17
-3.19027e-17
-2.5262e-17
-5.83497e-17
9.46939e-17
-1.40522e-16
-3.8706e-17
-3.15058e-17
-2.49467e-17
-5.76186e-17
9.35028e-17
-1.38795e-16
-3.82291e-17
-3.11162e-17
-2.46373e-17
-5.69013e-17
9.23349e-17
-1.37101e-16
-3.77617e-17
-3.07349e-17
-2.43345e-17
-5.61991e-17
9.11905e-17
-1.35443e-16
-3.73044e-17
-3.03618e-17
-2.40384e-17
-5.55123e-17
-1.33821e-16
-3.6857e-17
-2.99969e-17
-2.37489e-17
-5.48418e-17
-1.32239e-16
-3.64211e-17
-2.96416e-17
-2.34672e-17
-5.41898e-17
-1.30705e-16
-3.59989e-17
-2.92979e-17
-2.3195e-17
-5.356e-17
-1.29228e-16
-3.55931e-17
-2.89682e-17
-2.29343e-17
-5.2958e-17
-1.27823e-16
-3.52086e-17
-2.86568e-17
-2.26889e-17
-5.23927e-17
-1.26521e-16
-3.48545e-17
-2.8372e-17
-2.24659e-17
-5.18822e-17
-1.25358e-16
-3.45423e-17
-2.81239e-17
-2.22741e-17
-5.14485e-17
-1.2443e-16
-3.43023e-17
-2.79414e-17
-2.21398e-17
-5.11609e-17
-1.23809e-16
-3.41585e-17
-2.7847e-17
-2.20831e-17
-5.107e-17
-1.23838e-16
-3.42255e-17
-2.7954e-17
-2.22128e-17
-5.14807e-17
-1.24518e-16
-3.45077e-17
-2.82693e-17
-2.25362e-17
-5.24064e-17
-1.2707e-16
-3.54382e-17
-2.92464e-17
-2.35164e-17
-5.52426e-17
-1.30203e-16
-3.65751e-17
-3.044e-17
-2.47127e-17
-5.86715e-17
-1.36687e-16
-3.89987e-17
-3.30831e-17
-2.75054e-17
-6.73156e-17
)
;
    }
    wedge2
    {
        type            wedge;
        value           nonuniform List<scalar> 
344
(
-7.5727e-17
-6.17997e-17
-4.90551e-17
-1.13571e-16
1.84708e-16
-7.45965e-17
-6.08726e-17
-4.8316e-17
-1.11853e-16
1.81906e-16
-7.34875e-17
-5.99634e-17
-4.7591e-17
-1.1017e-16
1.79161e-16
-7.2402e-17
-5.90737e-17
-4.68821e-17
-1.08522e-16
1.7647e-16
-7.13377e-17
-5.82019e-17
-4.61874e-17
-1.06906e-16
1.73831e-16
-7.02933e-17
-5.73459e-17
-4.55053e-17
-1.05322e-16
1.71246e-16
-6.92692e-17
-5.6507e-17
-4.48369e-17
-1.03768e-16
1.68711e-16
-6.8264e-17
-5.56833e-17
-4.41806e-17
-1.02244e-16
1.66226e-16
-6.72783e-17
-5.4876e-17
-4.35374e-17
-1.00751e-16
1.63788e-16
-6.63103e-17
-5.40827e-17
-4.29054e-17
-9.92839e-17
1.61399e-16
-6.53599e-17
-5.33041e-17
-4.22849e-17
-9.7845e-17
1.59054e-16
-6.44286e-17
-5.25413e-17
-4.16775e-17
-9.64343e-17
1.56754e-16
-6.35144e-17
-5.17928e-17
-4.10815e-17
-9.505e-17
1.54496e-16
-6.26171e-17
-5.10585e-17
-4.04969e-17
-9.36921e-17
1.5228e-16
-6.17354e-17
-5.03365e-17
-3.99221e-17
-9.2358e-17
1.50106e-16
-6.087e-17
-4.96283e-17
-3.93583e-17
-9.10491e-17
1.47971e-16
-6.00195e-17
-4.89319e-17
-3.88039e-17
-8.97628e-17
1.45876e-16
-5.91844e-17
-4.82485e-17
-3.826e-17
-8.85005e-17
1.43818e-16
-5.83631e-17
-4.7576e-17
-3.77246e-17
-8.72593e-17
1.41797e-16
-5.75558e-17
-4.69153e-17
-3.71984e-17
-8.60402e-17
1.39812e-16
-5.67637e-17
-4.6267e-17
-3.66827e-17
-8.48432e-17
1.37862e-16
-5.59852e-17
-4.56304e-17
-3.61762e-17
-8.36675e-17
1.35945e-16
-5.52191e-17
-4.50034e-17
-3.56773e-17
-8.25108e-17
1.34062e-16
-5.44655e-17
-4.43868e-17
-3.51865e-17
-8.13739e-17
1.32211e-16
-5.37258e-17
-4.37816e-17
-3.47052e-17
-8.0257e-17
1.30392e-16
-5.29983e-17
-4.31869e-17
-3.42321e-17
-7.91593e-17
1.28602e-16
-5.2282e-17
-4.26008e-17
-3.37659e-17
-7.80787e-17
1.26844e-16
-5.1577e-17
-4.20242e-17
-3.33071e-17
-7.70161e-17
1.25114e-16
-5.08846e-17
-4.1458e-17
-3.28569e-17
-7.59717e-17
1.23413e-16
-5.02036e-17
-4.09014e-17
-3.24143e-17
-7.49449e-17
1.21739e-16
-4.95331e-17
-4.0353e-17
-3.19783e-17
-7.3934e-17
1.20094e-16
-4.88737e-17
-3.98141e-17
-3.15497e-17
-7.29403e-17
1.18475e-16
-4.82245e-17
-3.92832e-17
-3.11276e-17
-7.19619e-17
1.16883e-16
-4.7586e-17
-3.87614e-17
-3.07127e-17
-7.10001e-17
1.15316e-16
-4.69574e-17
-3.82472e-17
-3.03037e-17
-7.0053e-17
1.13776e-16
-4.63384e-17
-3.77411e-17
-2.99012e-17
-6.91212e-17
1.1226e-16
-4.57304e-17
-3.7244e-17
-2.95061e-17
-6.82052e-17
1.10769e-16
-4.51323e-17
-3.67552e-17
-2.91174e-17
-6.73043e-17
1.09302e-16
-4.4544e-17
-3.62746e-17
-2.87354e-17
-6.64184e-17
1.07859e-16
-4.3965e-17
-3.58012e-17
-2.83591e-17
-6.55465e-17
1.0644e-16
-4.33957e-17
-3.53361e-17
-2.79893e-17
-6.46895e-17
1.05044e-16
-4.28357e-17
-3.48782e-17
-2.76254e-17
-6.38463e-17
1.03672e-16
-4.22851e-17
-3.44284e-17
-2.72678e-17
-6.30176e-17
1.02323e-16
-1.51553e-16
-4.17434e-17
-3.39856e-17
-2.69158e-17
-6.22025e-17
1.00997e-16
-1.49629e-16
-4.12108e-17
-3.35503e-17
-2.65696e-17
-6.14013e-17
9.96937e-17
-1.47738e-16
-4.06881e-17
-3.31231e-17
-2.62302e-17
-6.06144e-17
9.84128e-17
-1.45881e-16
-4.01744e-17
-3.27036e-17
-2.58968e-17
-5.98417e-17
9.71542e-17
-1.44055e-16
-3.96693e-17
-3.22909e-17
-2.55688e-17
-5.9082e-17
9.59186e-17
-1.42261e-16
-3.9173e-17
-3.18854e-17
-2.52465e-17
-5.83362e-17
9.47054e-17
-1.40501e-16
-3.86864e-17
-3.1488e-17
-2.49307e-17
-5.76046e-17
9.35147e-17
-1.38773e-16
-3.82088e-17
-3.10982e-17
-2.46211e-17
-5.68873e-17
9.2347e-17
-1.37078e-16
-3.77404e-17
-3.07156e-17
-2.43173e-17
-5.6184e-17
9.12034e-17
-1.35418e-16
-3.72815e-17
-3.03411e-17
-2.40198e-17
-5.54961e-17
-1.33795e-16
-3.68335e-17
-2.99757e-17
-2.37299e-17
-5.48251e-17
-1.32213e-16
-3.63971e-17
-2.96201e-17
-2.3448e-17
-5.4173e-17
-1.30678e-16
-3.59739e-17
-2.92755e-17
-2.3175e-17
-5.35426e-17
-1.29199e-16
-3.55674e-17
-2.89451e-17
-2.29138e-17
-5.29402e-17
-1.27794e-16
-3.51818e-17
-2.86327e-17
-2.26674e-17
-5.2374e-17
-1.2649e-16
-3.48267e-17
-2.83469e-17
-2.24435e-17
-5.18627e-17
-1.25326e-16
-3.45133e-17
-2.8098e-17
-2.2251e-17
-5.14284e-17
-1.24397e-16
-3.42723e-17
-2.79145e-17
-2.21158e-17
-5.11399e-17
-1.23775e-16
-3.41276e-17
-2.78191e-17
-2.20583e-17
-5.10483e-17
-1.23803e-16
-3.41937e-17
-2.79253e-17
-2.21872e-17
-5.14584e-17
-1.24482e-16
-3.44751e-17
-2.82399e-17
-2.251e-17
-5.23836e-17
-1.27034e-16
-3.54049e-17
-2.92164e-17
-2.34898e-17
-5.52194e-17
-1.30166e-16
-3.65409e-17
-3.04093e-17
-2.46855e-17
-5.86477e-17
-1.36649e-16
-3.8964e-17
-3.30518e-17
-2.74777e-17
-6.72914e-17
)
;
    }
    axis
    {
        type            empty;
        value           nonuniform 0();
    }
    procBoundary41to35
    {
        type            processor;
        value           nonuniform List<scalar> 
68
(
-9.3128e-07
-9.19479e-07
-9.0788e-07
-8.96479e-07
-8.85277e-07
-8.74273e-07
-8.63467e-07
-8.52861e-07
-8.42459e-07
-8.3227e-07
-8.22305e-07
-8.12589e-07
-8.03157e-07
-7.94073e-07
-7.85428e-07
-7.77403e-07
-7.70206e-07
-7.64421e-07
-7.60402e-07
-7.60273e-07
-7.63588e-07
-7.78127e-07
-7.94542e-07
-8.31483e-07
-1.44049e-06
-1.41904e-06
-1.39801e-06
-1.37739e-06
-1.35717e-06
-1.33735e-06
-1.3179e-06
-1.29882e-06
-1.28011e-06
-1.26174e-06
-1.24372e-06
-1.22603e-06
-1.20867e-06
-1.19162e-06
-1.17488e-06
-1.15844e-06
-1.1423e-06
-1.12643e-06
-1.11085e-06
-1.09554e-06
-1.08048e-06
-1.06569e-06
-1.05115e-06
-1.03685e-06
-1.02279e-06
-1.00896e-06
-9.95363e-07
-9.81986e-07
-9.68826e-07
-9.55881e-07
-9.43144e-07
-9.30613e-07
-9.18283e-07
-9.06151e-07
-8.94215e-07
-8.82471e-07
-8.70916e-07
-8.59548e-07
-8.48366e-07
-8.37366e-07
-8.26546e-07
-8.15905e-07
-7.40509e-05
-8.05441e-07
)
;
    }
    procBoundary41to40
    {
        type            processor;
        value           nonuniform List<scalar> 4(-6.07184e-05 -5.51239e-05 -4.93471e-05 -4.33858e-05);
    }
    procBoundary41to46
    {
        type            processor;
        value           uniform -3.7238e-05;
    }
    procBoundary41to47
    {
        type            processor;
        value           nonuniform List<scalar> 
68
(
2.89001e-07
2.855e-07
2.82099e-07
2.78814e-07
2.75678e-07
2.72736e-07
2.70095e-07
2.67862e-07
2.66458e-07
2.66081e-07
2.68743e-07
2.73923e-07
2.91707e-07
3.10734e-07
3.69481e-07
4.24615e-07
4.18154e-07
4.11823e-07
4.05618e-07
3.99538e-07
3.93577e-07
3.87734e-07
3.82006e-07
3.76388e-07
3.70879e-07
3.65475e-07
3.60173e-07
3.54972e-07
3.49868e-07
3.44858e-07
3.39941e-07
3.35113e-07
3.30373e-07
3.25717e-07
3.21145e-07
3.16653e-07
3.12239e-07
3.07902e-07
3.0364e-07
2.9945e-07
2.95331e-07
2.91281e-07
2.87299e-07
2.83383e-07
2.79531e-07
2.75743e-07
2.72016e-07
2.68351e-07
2.64745e-07
2.61198e-07
2.57708e-07
2.54275e-07
2.50899e-07
2.47577e-07
2.4431e-07
2.41097e-07
2.37938e-07
2.34832e-07
2.31778e-07
2.28777e-07
2.25828e-07
2.2293e-07
2.20084e-07
2.1729e-07
2.14549e-07
2.1186e-07
4.34518e-05
2.09227e-07
)
;
    }
}


// ************************************************************************* //
