/*--------------------------------*- C++ -*----------------------------------*\
  =========                 |
  \\      /  F ield         | OpenFOAM: The Open Source CFD Toolbox
   \\    /   O peration     | Website:  https://openfoam.org
    \\  /    A nd           | Version:  7
     \\/     M anipulation  |
\*---------------------------------------------------------------------------*/
FoamFile
{
    version     2.0;
    format      ascii;
    class       surfaceScalarField;
    location    "16";
    object      phi;
}
// * * * * * * * * * * * * * * * * * * * * * * * * * * * * * * * * * * * * * //

dimensions      [0 3 -1 0 0 0 0];

internalField   nonuniform List<scalar> 
823
(
0.00881518
0.00100248
-0.00876469
0.00886535
0.00115698
0.00131066
0.00907288
0.000951643
-0.00902205
0.00912458
0.00110529
0.00917679
0.00125845
0.00922909
0.00141074
0.00928093
0.00156172
0.00933167
0.00171089
0.00938055
0.00185771
0.00942666
0.00200159
0.00214188
0.00933667
0.000901553
-0.00928658
0.00938845
0.0010535
0.00944173
0.00120517
0.00949622
0.00135625
0.00955158
0.00150636
0.00960734
0.00165513
0.00966295
0.00180209
0.00971776
0.00194679
0.00208868
0.00960823
0.000852792
-0.00955947
0.00965926
0.00100247
0.00971245
0.00115199
0.00976763
0.00130106
0.0098246
0.00144939
0.00988307
0.00159666
0.00994266
0.00174251
0.0100029
0.00188654
0.00202833
0.00988872
0.000805711
-0.00984164
0.00993848
0.000952716
0.00999086
0.0010996
0.0100458
0.00124613
0.0101031
0.00139204
0.0101627
0.00153706
0.0102244
0.00168089
0.0102877
0.00182321
0.00196367
0.0101786
0.000760434
-0.0101334
0.0102269
0.000904468
0.0102781
0.0010484
0.0103322
0.00119201
0.0103892
0.00133506
0.0104489
0.00147732
0.0105113
0.00161852
0.0105761
0.00175841
0.00189668
0.0104784
0.000716999
-0.010435
0.010525
0.000857832
0.0105749
0.000998562
0.0106279
0.00113898
0.0106841
0.00127887
0.0107434
0.00141801
0.0108057
0.00155618
0.010871
0.00169314
0.00182864
0.0107883
0.000675386
-0.0107467
0.0108333
0.00081283
0.0108817
0.000950159
0.0109335
0.00108718
0.0109887
0.00122368
0.0110472
0.00135946
0.0111091
0.00149431
0.0111742
0.00162802
0.00176035
0.0111085
0.000635539
-0.0110687
0.0111519
0.00076943
0.0111989
0.000903195
0.0112494
0.00103664
0.0113035
0.00116958
0.0113612
0.00130181
0.0114224
0.00143313
0.0114871
0.00156334
0.00169225
0.0114395
0.000597401
-0.0114014
0.0114814
0.000727588
0.0115269
0.000857637
0.0115762
0.000987364
0.0116292
0.00111658
0.0116859
0.0012451
0.0117463
0.00137273
0.0118104
0.00149928
0.00162456
0.0117814
0.000560893
-0.0117449
0.0118218
0.000687235
0.011866
0.00081343
0.0119141
0.000939299
0.011966
0.00106466
0.0120217
0.00118933
0.0120814
0.00131312
0.0121448
0.00143586
0.00155736
0.0121346
0.000525934
-0.0120997
0.0121736
0.000648297
0.0122165
0.000770506
0.0122634
0.000892385
0.0123143
0.00101376
0.0123692
0.00113445
0.012428
0.00125429
0.0124908
0.00137309
0.00149068
0.0124995
0.000492445
-0.0124661
0.0125371
0.000610698
0.0125789
0.000728792
0.0126247
0.000846557
0.0126746
0.000963822
0.0127287
0.00108042
0.0127868
0.00119617
0.012849
0.00131091
0.00142447
0.0128766
0.000460347
-0.0128445
0.0129129
0.000574363
0.0129535
0.000688216
0.0129983
0.000801743
0.0130473
0.000914777
0.0131006
0.00102716
0.0131581
0.00113871
0.0132197
0.00124928
0.0013587
0.0132662
0.00042956
-0.0132354
0.0133014
0.000539213
0.0133409
0.000648703
0.0133847
0.00075787
0.013433
0.000866555
0.0134855
0.000974599
0.0135424
0.00108184
0.0136035
0.00118813
0.00129329
0.013669
0.000400013
-0.0136395
0.0137031
0.000505179
0.0137416
0.000610183
0.0137846
0.00071487
0.0138321
0.000819087
0.013884
0.000922682
0.0139403
0.0010255
0.0140011
0.00112739
0.00122819
0.0140857
0.000371635
-0.0140573
0.0141187
0.000472191
0.0141563
0.000572587
0.0141985
0.000672674
0.0142453
0.000772305
0.0142966
0.000871333
0.0143525
0.000969611
0.0144129
0.00106699
0.00116333
0.0145169
0.000344357
-0.0144896
0.0145489
0.00044018
0.0145856
0.000535845
0.0146271
0.000631211
0.0146732
0.000726138
0.0147241
0.000820484
0.0147796
0.000914108
0.0148397
0.00100687
0.00109863
0.0149633
0.000318113
-0.0149371
0.0149944
0.000409077
0.0150304
0.000499889
0.0150712
0.000590413
0.0151168
0.000680516
0.0151672
0.000770062
0.0152224
0.000858917
0.0152823
0.000946947
0.00103402
0.015426
0.000292836
-0.0154007
0.0154562
0.000378816
0.0154915
0.00046465
0.0155317
0.00055021
0.0155768
0.000635367
0.0156269
0.000719994
0.0156818
0.000803963
0.0157416
0.000887147
0.000969419
0.0159056
0.000268461
-0.0158813
0.0159351
0.000349329
0.0159697
0.000430058
0.0160094
0.000510527
0.0160542
0.000590616
0.0161039
0.000670202
0.0161587
0.000749166
0.0162185
0.000827387
0.000904745
0.0164034
0.000244924
-0.0163799
0.0164322
0.000320548
0.0164662
0.000396042
0.0165054
0.000471292
0.0165499
0.000546184
0.0165995
0.000620605
0.0166542
0.00069444
0.016714
0.000767577
0.000839904
0.0169203
0.000222158
-0.0168976
0.0169485
0.000292403
0.016982
0.000362528
0.0170208
0.000432426
0.017065
0.00050199
0.0171145
0.000571115
0.0171693
0.000639694
0.0172292
0.000707622
0.000774795
0.0174576
0.000200095
-0.0174355
0.0174852
0.000264822
0.0175183
0.000329438
0.0175568
0.000393845
0.0176009
0.000457945
0.0176504
0.000521639
0.0177052
0.000584829
0.0177654
0.000647418
0.000709308
0.0180165
0.000178667
-0.017995
0.0180436
0.000237729
0.0180763
0.000296691
0.0181147
0.000355463
0.0181587
0.000413955
0.0182083
0.000472077
0.0182633
0.000529739
0.0183239
0.000586851
0.000643325
0.0185984
0.000157798
-0.0185775
0.0186251
0.000211043
0.0186575
0.000264198
0.0186958
0.000317184
0.0187399
0.000369919
0.0187896
0.00042232
0.018845
0.000474307
0.0189061
0.000525798
0.000576714
0.0192048
0.000137413
-0.0191844
0.0192311
0.000184678
0.0192635
0.000231868
0.0193017
0.000278908
0.0193459
0.000325726
0.019396
0.00037225
0.0194519
0.000418406
0.0195136
0.000464123
0.00050933
0.0198373
0.000117427
-0.0198173
0.0198634
0.000158544
0.0198957
0.000199597
0.0199341
0.000240523
0.0199786
0.000281257
0.0200291
0.000321736
0.0200856
0.000361897
0.020148
0.000401677
0.000441014
0.0204978
9.77494e-05
-0.0204781
0.0205238
0.000132538
0.0205561
0.000167276
0.0205947
0.000201907
0.0206396
0.000236378
0.0206907
0.000270636
0.0207479
0.000304626
0.0208113
0.000338295
0.000371589
0.0211881
7.82804e-05
-0.0211686
0.0212141
0.00010655
0.0212466
0.00013478
0.0212856
0.000162926
0.021331
0.000190944
0.0213829
0.00021879
0.0214411
0.00024642
0.0215056
0.000273792
0.00030086
0.0219106
5.89068e-05
-0.0218912
0.0219367
8.04534e-05
0.0219695
0.000101972
0.022009
0.000123428
0.0220551
0.000144789
0.0221079
0.00016602
0.0221672
0.000187089
0.0222331
0.000207962
0.000228605
0.0226676
3.95043e-05
-0.0226482
0.0226939
5.41095e-05
0.0227272
6.86973e-05
0.0227674
8.32446e-05
0.0228144
9.77286e-05
0.0228683
0.000112127
0.022929
0.000126415
0.0229964
0.000140573
0.000154576
0.0234619
1.99219e-05
-0.0234423
0.0234886
2.7352e-05
0.0235226
3.47745e-05
0.0235636
4.21771e-05
0.0236118
4.95487e-05
0.0236671
5.68772e-05
0.0237293
6.41512e-05
0.0237985
7.13589e-05
7.84892e-05
0.0242965
-0.0242766
0.0243238
0.0243586
0.0244008
0.0244503
0.0245072
0.0245714
0.0246427
0.0086643
0.000538222
0.00871428
0.000692724
0.000847594
0.00887699
0.000339004
0.00892394
0.000491277
0.00897234
0.000644326
0.000797882
0.00914772
0.000296737
0.00919203
0.000446975
0.00923833
0.000598024
0.000749636
0.0094273
0.000257411
0.00946898
0.000405289
0.00951304
0.000553961
0.000703207
0.00971657
0.000221048
0.00975557
0.000366282
0.00979726
0.000512275
0.000658823
0.0100153
0.00018751
0.0100517
0.000329854
0.0100911
0.00047292
0.000616515
0.0103237
0.000156662
0.0103576
0.000295906
0.0103947
0.000435838
0.000576267
0.010642
0.000128373
0.0106735
0.000264331
0.0107084
0.000400944
0.000538027
0.0109703
0.000102485
0.0109996
0.000235008
0.0110324
0.000368142
0.000501714
0.011309
7.89383e-05
0.0113361
0.000207856
0.0113669
0.000337354
0.000467262
0.0116583
5.7609e-05
0.0116834
0.000182773
0.0117122
0.000308485
0.000434584
0.0120185
3.8387e-05
0.0120417
0.000159656
0.0120687
0.000281442
0.000403592
0.0123901
2.11706e-05
0.0124114
0.000138413
0.0124367
0.000256136
0.000374202
0.0127735
5.84981e-06
0.0127929
0.000118956
0.0128166
0.000232482
0.000346333
0.0131691
-7.5893e-06
0.0131869
0.000101193
0.013209
0.000210394
0.000319901
0.0135777
-1.92702e-05
0.0135938
8.50507e-05
0.0136144
0.000189798
0.000294835
0.0139998
-2.92934e-05
0.0140144
7.04578e-05
0.0140335
0.000170623
0.000271064
0.0144361
-3.77163e-05
0.0144492
5.73431e-05
0.014467
0.0001528
0.000248517
0.0148875
-4.46018e-05
0.0148992
4.56403e-05
0.0149157
0.000136262
0.00022713
0.0153547
-5.00099e-05
0.0153651
3.52874e-05
0.0153804
0.000120946
0.000206837
0.0158388
-5.39976e-05
0.0158478
2.62252e-05
0.015862
0.00010679
0.000187575
0.0163407
-5.66187e-05
0.0163485
1.83972e-05
0.0163616
9.37365e-05
0.000169282
0.0168615
-5.79246e-05
0.0168682
1.17486e-05
0.0168802
8.17261e-05
0.000151897
0.0174024
-5.79642e-05
0.017408
6.22546e-06
0.017419
7.0701e-05
0.000135356
0.0179647
-5.67851e-05
0.0179692
1.77228e-06
0.0179793
6.0603e-05
0.000119595
0.0185498
-5.44357e-05
0.0185532
-1.6563e-06
0.0185624
5.13711e-05
0.000104548
0.0191591
-5.09635e-05
0.0191615
-4.11843e-06
0.01917
4.29434e-05
9.01437e-05
0.0197942
-4.64175e-05
0.0197958
-5.67691e-06
0.0198035
3.52537e-05
7.63092e-05
0.020457
-4.0851e-05
0.0204577
-6.39176e-06
0.0204647
2.8231e-05
6.29624e-05
0.0211493
-3.43209e-05
0.0211493
-6.32977e-06
0.0211557
2.17969e-05
5.00146e-05
0.0218734
-2.68925e-05
0.0218726
-5.56771e-06
0.0218785
1.5863e-05
3.73655e-05
0.0226315
-1.86363e-05
0.0226302
-4.18867e-06
0.0226357
1.03326e-05
2.49044e-05
0.0234265
-9.64505e-06
0.0234246
-2.29979e-06
0.0234299
5.08447e-06
1.24954e-05
0.0242613
0.024259
0.0242641
)
;

boundaryField
{
    inlet
    {
        type            calculated;
        value           nonuniform 0();
    }
    outlet
    {
        type            calculated;
        value           nonuniform 0();
    }
    cylinder
    {
        type            calculated;
        value           nonuniform 0();
    }
    top
    {
        type            symmetryPlane;
        value           uniform 0;
    }
    bottom
    {
        type            symmetryPlane;
        value           nonuniform 0();
    }
    defaultFaces
    {
        type            empty;
        value           nonuniform 0();
    }
    procBoundary32to26
    {
        type            processor;
        value           nonuniform List<scalar> 
15
(
-0.00105297
-0.00120715
-0.00135998
0.00891467
-0.00146304
-0.00161356
-0.00176163
-0.00190658
-0.0020477
-0.00218422
-0.000587534
-0.000742707
-0.000897997
-0.00861499
-0.000384409
)
;
    }
    procBoundary32to31
    {
        type            processor;
        value           nonuniform List<scalar> 
33
(
-0.00883159
-0.00910546
-0.00938797
-0.0096802
-0.00998173
-0.0102928
-0.0106137
-0.0109444
-0.0112854
-0.011637
-0.0119993
-0.0123729
-0.0127582
-0.0131557
-0.013566
-0.0139897
-0.0144277
-0.0148806
-0.0153493
-0.0158348
-0.0163381
-0.0168602
-0.0174024
-0.0179659
-0.0185521
-0.0191626
-0.0197988
-0.0204626
-0.0211559
-0.0218808
-0.0226398
-0.0234355
-0.0242709
)
;
    }
    procBoundary32to33
    {
        type            processor;
        value           nonuniform List<scalar> 
33
(
0.00946899
0.00977096
0.0100633
0.0103523
0.0106431
0.010939
0.0112425
0.0115552
0.0118781
0.012212
0.0125575
0.0129152
0.0132855
0.0136689
0.0140662
0.0144777
0.0149044
0.015347
0.0158062
0.0162832
0.0167788
0.0172943
0.0178309
0.0183899
0.0189727
0.019581
0.0202163
0.0208808
0.0215763
0.0223053
0.0230704
0.0238746
0.0247212
)
;
    }
}


// ************************************************************************* //
