/*--------------------------------*- C++ -*----------------------------------*\
  =========                 |
  \\      /  F ield         | OpenFOAM: The Open Source CFD Toolbox
   \\    /   O peration     | Website:  https://openfoam.org
    \\  /    A nd           | Version:  7
     \\/     M anipulation  |
\*---------------------------------------------------------------------------*/
FoamFile
{
    version     2.0;
    format      ascii;
    class       volScalarField;
    location    "79";
    object      p;
}
// * * * * * * * * * * * * * * * * * * * * * * * * * * * * * * * * * * * * * //

dimensions      [0 2 -2 0 0 0 0];

internalField   nonuniform List<scalar> 
12400
(
-0.228795
-0.230599
-0.231761
-0.232634
-0.233387
-0.234053
-0.234669
-0.235262
-0.235842
-0.236405
-0.236937
-0.237414
-0.237807
-0.238081
-0.238202
-0.238132
-0.237846
-0.237343
-0.236612
-0.235721
-0.228555
-0.230309
-0.231437
-0.232279
-0.233
-0.233629
-0.234202
-0.234747
-0.235273
-0.235776
-0.236245
-0.236658
-0.236991
-0.237218
-0.237316
-0.237265
-0.23706
-0.236735
-0.236309
-0.235847
-0.228602
-0.230276
-0.23135
-0.232148
-0.232825
-0.233407
-0.233929
-0.234418
-0.234883
-0.235322
-0.235723
-0.236069
-0.23634
-0.236519
-0.236592
-0.236554
-0.236416
-0.236242
-0.236085
-0.235877
-0.228917
-0.230485
-0.23149
-0.232231
-0.232851
-0.233376
-0.233838
-0.234263
-0.23466
-0.235027
-0.235355
-0.235629
-0.235834
-0.23596
-0.236002
-0.235968
-0.235881
-0.235823
-0.235924
-0.235728
-0.229476
-0.230918
-0.23184
-0.232512
-0.233065
-0.233521
-0.233912
-0.234263
-0.234582
-0.234869
-0.235117
-0.235312
-0.235444
-0.235509
-0.235512
-0.235472
-0.235417
-0.235422
-0.235831
-0.235296
-0.230253
-0.231554
-0.23238
-0.232972
-0.233446
-0.233822
-0.23413
-0.234395
-0.234625
-0.234822
-0.234979
-0.235085
-0.235136
-0.235131
-0.235083
-0.235024
-0.234989
-0.234968
-0.235839
-0.234486
-0.231218
-0.232368
-0.233091
-0.233593
-0.233975
-0.234258
-0.234471
-0.234635
-0.234764
-0.234857
-0.23491
-0.234917
-0.234874
-0.234788
-0.234674
-0.234579
-0.234567
-0.234377
-0.235916
-0.233486
-0.232343
-0.233339
-0.233951
-0.234353
-0.234633
-0.234809
-0.234911
-0.23496
-0.234971
-0.234945
-0.23488
-0.234772
-0.234622
-0.234441
-0.234247
-0.234091
-0.23413
-0.233714
-0.235725
-0.232416
-0.233602
-0.234446
-0.234942
-0.235236
-0.235401
-0.235456
-0.23543
-0.235347
-0.235221
-0.235059
-0.23486
-0.234623
-0.234351
-0.23406
-0.233772
-0.23353
-0.233608
-0.232889
-0.23558
-0.230998
-0.234973
-0.235672
-0.236051
-0.236228
-0.236266
-0.236183
-0.236011
-0.235776
-0.235496
-0.235179
-0.234828
-0.234444
-0.234035
-0.23362
-0.233227
-0.232867
-0.233042
-0.231799
-0.235517
-0.229263
-0.236443
-0.237007
-0.237268
-0.23732
-0.237216
-0.236979
-0.236642
-0.236235
-0.235779
-0.235288
-0.234768
-0.234223
-0.233663
-0.233111
-0.232605
-0.232087
-0.232437
-0.230448
-0.235452
-0.227364
-0.238006
-0.238447
-0.238588
-0.238506
-0.238247
-0.237838
-0.237316
-0.236717
-0.236066
-0.235382
-0.234676
-0.233956
-0.233233
-0.232534
-0.231915
-0.2312
-0.23178
-0.228919
-0.235219
-0.225545
-0.239667
-0.239996
-0.240016
-0.239789
-0.23936
-0.238761
-0.238035
-0.237222
-0.236357
-0.235464
-0.234557
-0.23365
-0.232757
-0.231903
-0.231172
-0.230235
-0.231025
-0.227358
-0.234534
-0.224057
-0.241439
-0.241666
-0.241561
-0.241178
-0.240564
-0.239756
-0.238805
-0.237761
-0.236664
-0.235546
-0.234427
-0.233325
-0.232255
-0.231239
-0.230391
-0.229238
-0.230085
-0.22593
-0.233075
-0.222918
-0.243349
-0.243478
-0.243242
-0.24269
-0.241871
-0.240837
-0.239643
-0.23835
-0.237006
-0.235651
-0.234312
-0.233008
-0.231757
-0.230572
-0.229581
-0.228243
-0.228866
-0.2247
-0.230686
-0.221778
-0.24543
-0.245461
-0.245083
-0.244344
-0.243306
-0.242025
-0.240571
-0.239013
-0.237411
-0.23581
-0.234242
-0.232731
-0.231292
-0.229925
-0.228742
-0.227242
-0.227315
-0.223516
-0.227493
-0.220101
-0.247728
-0.24765
-0.247113
-0.246171
-0.244893
-0.243347
-0.241617
-0.239782
-0.237911
-0.236056
-0.234254
-0.232527
-0.230883
-0.229307
-0.227857
-0.226158
-0.225424
-0.222056
-0.223742
-0.217516
-0.250293
-0.250088
-0.249368
-0.248204
-0.246664
-0.244836
-0.242815
-0.240691
-0.238543
-0.236428
-0.234383
-0.232424
-0.230541
-0.228703
-0.22689
-0.224869
-0.223174
-0.219985
-0.219503
-0.213944
-0.25318
-0.252815
-0.251895
-0.250479
-0.248655
-0.246526
-0.2442
-0.241779
-0.239346
-0.236962
-0.234658
-0.232436
-0.230263
-0.228074
-0.22578
-0.223249
-0.22052
-0.217099
-0.214582
-0.209477
-0.256448
-0.255884
-0.254729
-0.253035
-0.250904
-0.248456
-0.245812
-0.243083
-0.240356
-0.237688
-0.235099
-0.232565
-0.230019
-0.227362
-0.224447
-0.221202
-0.217419
-0.213362
-0.208841
-0.204191
-0.260158
-0.259343
-0.257915
-0.255913
-0.25345
-0.250664
-0.247689
-0.24464
-0.241604
-0.238629
-0.23571
-0.232792
-0.229765
-0.226494
-0.222808
-0.218675
-0.213853
-0.208872
-0.202799
-0.197932
-0.264361
-0.26324
-0.261498
-0.259155
-0.256333
-0.25319
-0.249868
-0.246485
-0.24312
-0.239798
-0.236484
-0.23308
-0.229435
-0.225397
-0.220798
-0.21566
-0.209809
-0.203765
-0.196887
-0.190852
-0.269112
-0.267622
-0.26552
-0.262801
-0.259594
-0.256073
-0.252386
-0.248649
-0.24492
-0.241195
-0.237394
-0.233375
-0.22896
-0.224003
-0.218379
-0.21218
-0.205314
-0.198336
-0.190663
-0.183766
-0.274459
-0.272532
-0.270023
-0.266894
-0.263273
-0.259351
-0.25528
-0.251158
-0.247016
-0.242804
-0.238395
-0.23361
-0.228269
-0.22226
-0.215541
-0.208273
-0.200465
-0.192637
-0.184312
-0.176846
-0.280443
-0.27801
-0.275046
-0.271472
-0.267411
-0.263066
-0.258582
-0.254032
-0.249403
-0.244593
-0.239428
-0.233713
-0.227297
-0.220137
-0.212293
-0.203993
-0.195321
-0.186759
-0.177882
-0.16994
-0.287102
-0.284091
-0.280628
-0.276576
-0.272047
-0.267253
-0.262319
-0.257278
-0.252061
-0.24651
-0.24042
-0.233609
-0.22599
-0.217619
-0.208661
-0.19939
-0.18994
-0.180733
-0.171375
-0.163053
-0.294462
-0.290805
-0.2868
-0.282242
-0.27722
-0.271943
-0.266506
-0.260885
-0.254947
-0.248485
-0.241287
-0.233223
-0.224308
-0.214707
-0.204674
-0.194505
-0.184354
-0.174571
-0.164797
-0.156124
-0.302543
-0.298175
-0.293591
-0.288501
-0.282958
-0.277158
-0.271144
-0.264823
-0.257996
-0.250429
-0.24194
-0.232492
-0.222224
-0.211408
-0.200356
-0.189361
-0.178576
-0.168272
-0.158126
-0.149133
-0.311349
-0.306212
-0.301018
-0.295374
-0.289281
-0.282899
-0.276206
-0.269029
-0.261117
-0.252238
-0.242288
-0.231359
-0.219721
-0.20773
-0.195724
-0.183969
-0.172604
-0.161822
-0.151342
-0.142047
-0.320869
-0.314913
-0.309087
-0.30287
-0.296186
-0.289144
-0.281637
-0.273414
-0.264196
-0.253799
-0.242246
-0.22978
-0.216788
-0.203677
-0.19078
-0.178324
-0.166424
-0.155201
-0.14442
-0.134843
-0.331072
-0.324257
-0.317782
-0.310972
-0.303647
-0.295838
-0.287346
-0.277856
-0.267099
-0.254998
-0.241738
-0.227717
-0.213411
-0.199242
-0.185516
-0.172412
-0.160015
-0.148385
-0.137335
-0.127495
-0.341899
-0.334199
-0.327067
-0.31964
-0.311603
-0.302889
-0.293206
-0.282204
-0.26968
-0.25572
-0.240694
-0.225136
-0.209572
-0.194411
-0.179913
-0.166209
-0.153352
-0.141349
-0.130061
-0.11998
-0.353262
-0.344667
-0.336875
-0.3288
-0.319955
-0.310165
-0.299054
-0.286286
-0.271792
-0.255861
-0.239052
-0.222001
-0.205247
-0.18916
-0.173946
-0.159688
-0.146407
-0.134067
-0.122575
-0.112276
-0.365039
-0.355556
-0.347104
-0.338337
-0.328564
-0.317491
-0.304697
-0.289919
-0.273287
-0.255323
-0.236753
-0.218274
-0.200404
-0.183458
-0.167582
-0.152817
-0.139151
-0.126515
-0.114851
-0.104362
-0.377074
-0.366725
-0.357616
-0.348096
-0.337245
-0.324658
-0.309918
-0.292912
-0.274024
-0.254013
-0.233738
-0.213912
-0.195007
-0.177269
-0.160788
-0.145564
-0.131555
-0.118666
-0.106868
-0.0962181
-0.38917
-0.377996
-0.368232
-0.357879
-0.345773
-0.331424
-0.314486
-0.295077
-0.273871
-0.251848
-0.22995
-0.20887
-0.189012
-0.170553
-0.153526
-0.137896
-0.12359
-0.110498
-0.0986031
-0.0878277
-0.401095
-0.389155
-0.378731
-0.367447
-0.353887
-0.337525
-0.318168
-0.296235
-0.272706
-0.248743
-0.225326
-0.203095
-0.182374
-0.163267
-0.14576
-0.129782
-0.115232
-0.101988
-0.0900374
-0.0791748
-0.412582
-0.399948
-0.388856
-0.376523
-0.361299
-0.342685
-0.320733
-0.296218
-0.270415
-0.244622
-0.219808
-0.196536
-0.175045
-0.155371
-0.137454
-0.12119
-0.106454
-0.0931156
-0.0811524
-0.0702455
-0.423332
-0.410091
-0.398314
-0.3848
-0.367699
-0.346625
-0.321962
-0.294871
-0.266894
-0.239407
-0.213333
-0.18914
-0.166979
-0.146825
-0.128574
-0.112095
-0.0972368
-0.0838639
-0.0719332
-0.0610303
-0.433024
-0.41927
-0.406785
-0.391948
-0.372773
-0.349077
-0.321652
-0.292055
-0.262046
-0.233027
-0.205842
-0.180854
-0.158131
-0.137591
-0.11909
-0.102471
-0.0875597
-0.0742176
-0.0623696
-0.0515272
-0.441317
-0.427153
-0.413929
-0.39763
-0.376207
-0.349785
-0.319618
-0.287644
-0.255782
-0.225414
-0.197277
-0.17163
-0.148461
-0.127635
-0.108975
-0.0922965
-0.077407
-0.0641638
-0.0524559
-0.0417409
-0.447861
-0.433393
-0.419397
-0.401504
-0.377704
-0.348518
-0.315701
-0.28153
-0.248026
-0.216505
-0.187586
-0.161424
-0.137932
-0.116928
-0.0982062
-0.0815557
-0.0667655
-0.0536916
-0.0421857
-0.0316701
-0.452307
-0.437643
-0.422843
-0.403246
-0.376989
-0.345073
-0.309761
-0.273619
-0.238708
-0.206246
-0.176724
-0.150197
-0.126513
-0.105449
-0.0867675
-0.0702354
-0.0556264
-0.0427946
-0.0315489
-0.0212831
-0.454317
-0.439564
-0.423931
-0.40255
-0.373816
-0.339277
-0.301686
-0.263835
-0.227772
-0.19459
-0.164652
-0.137921
-0.114183
-0.0931795
-0.0746465
-0.0583263
-0.043985
-0.0314756
-0.0205401
-0.0105098
-0.453572
-0.438834
-0.422351
-0.399143
-0.367977
-0.330991
-0.291386
-0.252119
-0.215174
-0.181503
-0.151344
-0.124573
-0.100926
-0.0801074
-0.0618343
-0.0458251
-0.0318403
-0.0197436
-0.00917108
0.000665198
-0.449781
-0.43516
-0.417824
-0.392793
-0.359306
-0.320108
-0.2788
-0.238431
-0.200884
-0.166961
-0.136779
-0.11014
-0.086731
-0.0662265
-0.0483255
-0.032744
-0.019202
-0.00760459
0.00256984
0.0119863
-0.442693
-0.428285
-0.410114
-0.38331
-0.347677
-0.306558
-0.263889
-0.222748
-0.184887
-0.150952
-0.12095
-0.0946128
-0.0715914
-0.0515503
-0.0341291
-0.0191075
-0.00610967
0.00494875
0.0146703
0.023526
-0.432099
-0.417997
-0.399031
-0.370556
-0.333009
-0.290306
-0.246642
-0.20507
-0.167183
-0.133478
-0.103858
-0.0780042
-0.0555167
-0.0361135
-0.0193086
-0.00489036
0.00745075
0.0178941
0.0270886
0.0353158
-0.417841
-0.404134
-0.384438
-0.354444
-0.315267
-0.271349
-0.227074
-0.185412
-0.147787
-0.114553
-0.0855246
-0.0603552
-0.0385862
-0.0198874
-0.00383773
0.00985798
0.0214596
0.0312078
0.0398019
0.0473452
-0.399815
-0.386588
-0.366256
-0.334937
-0.294456
-0.249721
-0.205223
-0.163812
-0.126736
-0.0942189
-0.0660122
-0.0416757
-0.0207793
-0.00293384
0.0122525
0.0251107
0.0358872
0.0448638
0.052789
0.0595884
-0.377973
-0.365309
-0.344457
-0.312048
-0.270625
-0.225487
-0.181156
-0.14033
-0.104093
-0.0725381
-0.0453315
-0.0220146
-0.00213888
0.0147102
0.0289211
0.0408353
0.0506998
0.0588322
0.0660222
0.0720141
-0.352327
-0.340304
-0.319074
-0.285845
-0.24387
-0.198745
-0.154959
-0.11505
-0.0799245
-0.0495557
-0.0235502
-0.00142601
0.0172814
0.0329997
0.0461225
0.0569925
0.06586
0.0730777
0.0794659
0.0845854
-0.322944
-0.311635
-0.290195
-0.256452
-0.214329
-0.169607
-0.126732
-0.0880661
-0.0543147
-0.0253535
-0.000741187
0.0200243
0.0374197
0.0518812
0.0638064
0.0735367
0.0813261
0.0875609
0.0930778
0.0972594
-0.28995
-0.279422
-0.257967
-0.224047
-0.182146
-0.138175
-0.0966271
-0.0594989
-0.0273697
-2.68107e-05
0.0230104
0.0422599
0.0582068
0.0712925
0.0819166
0.0904167
0.0970527
0.102241
0.106816
0.109993
-0.253514
-0.243844
-0.222598
-0.188804
-0.147383
-0.104723
-0.0647987
-0.0294864
0.000788268
0.0263159
0.0476081
0.0651943
0.079565
0.0911644
0.10039
0.107576
0.11299
0.117077
0.120647
0.122751
-0.213838
-0.205139
-0.184304
-0.150771
-0.110463
-0.0694147
-0.0314242
0.00181564
0.0300226
0.0535535
0.0729439
0.0887314
0.101409
0.111421
0.119158
0.124951
0.129086
0.13203
0.13453
0.135495
-0.171156
-0.163583
-0.143213
-0.110423
-0.0715942
-0.0324707
0.00330173
0.0342369
0.0601831
0.0815529
0.0989002
0.112767
0.123646
0.131979
0.138147
0.142478
0.145289
0.147051
0.148376
0.148074
-0.125736
-0.119499
-0.0996844
-0.0681001
-0.0310229
0.00587049
0.0391694
0.0675935
0.0911076
0.110171
0.12535
0.137188
0.146178
0.152751
0.15728
0.160097
0.161561
0.162085
0.161997
0.160093
-0.077995
-0.0731588
-0.0542088
-0.0240525
0.010968
0.0453545
0.0759561
0.101689
0.122623
0.139254
0.152157
0.161876
0.168898
0.173645
0.176479
0.177754
0.177862
0.177049
0.175172
0.17124
-0.0285324
-0.0248304
-0.00707309
0.0213917
0.0540763
0.0857141
0.113427
0.136318
0.154547
0.168641
0.17918
0.186705
0.191695
0.194563
0.195664
0.195385
0.194117
0.191821
0.187892
0.182436
0.0224638
0.0249695
0.0413577
0.0678822
0.0979853
0.126671
0.151338
0.171265
0.18669
0.198164
0.206271
0.211544
0.214455
0.215404
0.21475
0.212903
0.210198
0.206259
0.200345
0.19618
0.0745805
0.0758095
0.0906875
0.115055
0.142369
0.167938
0.189437
0.206307
0.218855
0.227651
0.233277
0.236259
0.237059
0.236068
0.233648
0.230209
0.225985
0.220421
0.213253
0.209626
0.127367
0.127268
0.140508
0.162536
0.186895
0.209223
0.227467
0.241218
0.250844
0.256925
0.260041
0.260712
0.259386
0.256449
0.252262
0.247216
0.24145
0.234405
0.226293
0.222308
0.180373
0.178912
0.190405
0.209949
0.231228
0.250231
0.265168
0.27577
0.282452
0.285807
0.286407
0.284764
0.281316
0.276439
0.270492
0.263835
0.256548
0.248151
0.239161
0.234391
0.233144
0.230307
0.239965
0.256915
0.275033
0.290667
0.302281
0.309731
0.313478
0.314117
0.312216
0.308276
0.302725
0.29593
0.288242
0.279989
0.271222
0.261553
0.251655
0.245895
0.285231
0.281014
0.288776
0.303063
0.317979
0.330238
0.338547
0.342876
0.34372
0.341678
0.337312
0.33111
0.323491
0.314814
0.305416
0.2956
0.285403
0.274518
0.263687
0.25684
0.336185
0.330601
0.336434
0.348024
0.35974
0.368658
0.373713
0.374978
0.372978
0.368315
0.361539
0.35313
0.343496
0.332985
0.321923
0.310587
0.299014
0.28696
0.275187
0.267209
0.385573
0.378647
0.382542
0.391442
0.4
0.405646
0.407531
0.405819
0.40106
0.393855
0.384746
0.374202
0.36262
0.35034
0.337671
0.324874
0.311982
0.298808
0.286102
0.276977
0.43297
0.424742
0.42672
0.432974
0.438453
0.440932
0.439761
0.435186
0.427778
0.418134
0.406787
0.394198
0.380752
0.366779
0.352574
0.338381
0.324236
0.309997
0.296383
0.286115
0.477971
0.468494
0.468604
0.472291
0.474808
0.474259
0.470177
0.462879
0.452953
0.440992
0.427523
0.412994
0.397782
0.382206
0.366548
0.351036
0.33571
0.320469
0.305982
0.294593
0.520193
0.509532
0.507848
0.509082
0.508789
0.505381
0.498559
0.488703
0.476413
0.46228
0.44682
0.430474
0.413609
0.396532
0.379515
0.362769
0.346343
0.330169
0.314856
0.302384
0.559276
0.54751
0.544131
0.543059
0.54014
0.534073
0.524708
0.51248
0.498001
0.481856
0.464555
0.446528
0.428134
0.409672
0.391399
0.373516
0.356076
0.339046
0.322962
0.30946
0.594887
0.582105
0.577157
0.573954
0.568622
0.560121
0.548435
0.534043
0.517568
0.499591
0.480612
0.461055
0.441271
0.421548
0.402133
0.383216
0.364858
0.347053
0.330261
0.315799
0.626723
0.613027
0.606654
0.601525
0.594022
0.583336
0.56957
0.553243
0.534982
0.515366
0.494888
0.473964
0.452937
0.432089
0.411655
0.391815
0.37264
0.354147
0.336718
0.321378
0.654515
0.640015
0.632382
0.625555
0.616145
0.603547
0.587962
0.569943
0.550123
0.529075
0.507288
0.485172
0.463061
0.441231
0.419909
0.399265
0.379379
0.360289
0.342302
0.32618
0.678026
0.662843
0.654132
0.645857
0.634825
0.620604
0.603478
0.584026
0.562886
0.540627
0.517732
0.494606
0.471579
0.44892
0.426846
0.405523
0.385039
0.365446
0.346983
0.330189
0.697058
0.681318
0.671728
0.662272
0.649921
0.634383
0.616007
0.595394
0.573184
0.549943
0.526151
0.502208
0.478439
0.455108
0.432426
0.410554
0.389586
0.369589
0.350739
0.333393
0.711448
0.695285
0.685025
0.674671
0.661319
0.644781
0.625458
0.603965
0.580944
0.55696
0.532489
0.507927
0.483597
0.459758
0.436617
0.414329
0.392996
0.372694
0.35355
0.335782
0.721075
0.704627
0.693914
0.682956
0.66893
0.651722
0.631762
0.609678
0.586113
0.56163
0.536704
0.511727
0.48702
0.46284
0.439391
0.416825
0.395249
0.374743
0.355402
0.337351
0.725856
0.709264
0.698324
0.687062
0.672698
0.655153
0.634873
0.612493
0.588655
0.563922
0.538767
0.513582
0.488687
0.464337
0.440734
0.418029
0.396332
0.375725
0.356286
0.338094
0.725748
0.709156
0.698217
0.686955
0.672592
0.655047
0.634768
0.612388
0.588551
0.563818
0.538664
0.51348
0.488585
0.464237
0.440636
0.417933
0.396238
0.375633
0.356197
0.338009
0.720753
0.704302
0.693591
0.682636
0.668613
0.651405
0.631446
0.609364
0.5858
0.561318
0.536394
0.51142
0.486716
0.462541
0.439096
0.416536
0.394966
0.374467
0.355133
0.337096
0.710908
0.694741
0.684484
0.674135
0.660787
0.644252
0.62493
0.603439
0.58042
0.556439
0.531972
0.507414
0.48309
0.459258
0.436125
0.413847
0.392525
0.372233
0.353101
0.335357
0.696296
0.68055
0.670965
0.661517
0.649173
0.633639
0.615265
0.594655
0.572448
0.549211
0.525425
0.501488
0.477728
0.454407
0.431737
0.409879
0.388926
0.368943
0.350109
0.332796
0.677036
0.661845
0.653142
0.644878
0.633855
0.61964
0.602518
0.583071
0.561935
0.539682
0.516795
0.493678
0.470662
0.448016
0.425959
0.404654
0.384189
0.364616
0.346173
0.329421
0.653288
0.63878
0.631157
0.624346
0.614947
0.602358
0.58678
0.568767
0.548954
0.527914
0.506138
0.484033
0.461937
0.440124
0.418822
0.398201
0.37834
0.359274
0.341312
0.325241
0.625251
0.611545
0.605185
0.600077
0.59259
0.581917
0.56816
0.551842
0.533592
0.513986
0.493521
0.472613
0.451604
0.430777
0.410368
0.390556
0.37141
0.352946
0.335548
0.320268
0.593158
0.580365
0.575434
0.572258
0.566948
0.558464
0.546791
0.532413
0.515951
0.497988
0.479026
0.459489
0.439727
0.420029
0.400644
0.38176
0.363437
0.345666
0.32891
0.314517
0.557277
0.5455
0.542144
0.541105
0.538214
0.532169
0.522823
0.510613
0.496151
0.480025
0.462745
0.444743
0.426376
0.407945
0.389707
0.371862
0.354464
0.337473
0.32143
0.308006
0.517911
0.507238
0.505582
0.506858
0.506601
0.503223
0.496426
0.486593
0.474326
0.460217
0.444783
0.428467
0.411634
0.394594
0.377617
0.360917
0.344538
0.328409
0.313144
0.300757
0.475389
0.4659
0.466045
0.469783
0.472346
0.471835
0.467786
0.460517
0.450621
0.438691
0.425254
0.410761
0.395588
0.380055
0.364444
0.348983
0.333712
0.318523
0.30409
0.292794
0.430071
0.421832
0.423853
0.430169
0.435705
0.438232
0.437103
0.432566
0.425195
0.415588
0.404281
0.391734
0.378335
0.364411
0.35026
0.336126
0.322043
0.307864
0.29431
0.284143
0.382339
0.375402
0.379349
0.388324
0.396952
0.402658
0.404595
0.402931
0.398218
0.391059
0.381998
0.371504
0.359977
0.347754
0.335147
0.322416
0.309594
0.296488
0.283848
0.274834
0.332597
0.327003
0.332898
0.344577
0.356378
0.365369
0.370489
0.371813
0.369869
0.365262
0.358543
0.350193
0.340622
0.330178
0.319185
0.307925
0.296431
0.284452
0.272753
0.264894
0.281267
0.277043
0.284878
0.299269
0.314287
0.326636
0.335023
0.339423
0.340335
0.338361
0.334062
0.32793
0.320384
0.311782
0.302464
0.292732
0.282623
0.271823
0.261073
0.254353
0.228785
0.225941
0.235684
0.252757
0.270996
0.286737
0.298445
0.305982
0.30981
0.310529
0.308707
0.304848
0.299379
0.292671
0.285073
0.276914
0.268245
0.25867
0.248861
0.243237
0.175596
0.174131
0.185721
0.205407
0.226828
0.245958
0.261008
0.271712
0.278491
0.281939
0.282632
0.281082
0.277729
0.27295
0.267104
0.260552
0.253373
0.24508
0.236188
0.231561
0.12215
0.122049
0.135399
0.157591
0.182116
0.204593
0.22297
0.236842
0.246581
0.252771
0.255994
0.256771
0.255554
0.252727
0.248653
0.243723
0.238078
0.231149
0.223141
0.219306
0.0689009
0.0701305
0.0851334
0.109688
0.137193
0.162936
0.18459
0.201601
0.214281
0.223203
0.228951
0.232055
0.232978
0.23211
0.229816
0.226506
0.222414
0.216979
0.209926
0.206449
0.0162989
0.0188089
0.0353364
0.0620724
0.0923948
0.121282
0.146128
0.166218
0.181795
0.193414
0.201661
0.207073
0.210121
0.211208
0.210694
0.208987
0.206428
0.202633
0.196847
0.19282
-0.035206
-0.0314936
-0.0135832
0.0151193
0.0480534
0.0799218
0.107841
0.13092
0.149322
0.163581
0.17428
0.18196
0.187105
0.190126
0.191381
0.191257
0.190148
0.18801
0.184232
0.178889
-0.0851989
-0.0803462
-0.0612288
-0.0308073
0.00449521
0.039144
0.0699812
0.095928
0.117059
0.133877
0.14696
0.156854
0.164047
0.168965
0.171969
0.173414
0.173693
0.173053
0.171349
0.167558
-0.133468
-0.127243
-0.107234
-0.0753561
-0.0379627
-0.00077299
0.0327928
0.0614584
0.0851959
0.104469
0.11985
0.131884
0.141064
0.147826
0.152542
0.155545
0.157194
0.157904
0.15801
0.156279
-0.179461
-0.17189
-0.151303
-0.118197
-0.0790173
-0.0395615
-0.00348908
0.0277177
0.0539147
0.0755203
0.0930923
0.107176
0.118267
0.126807
0.13318
0.137714
0.140727
0.142691
0.144225
0.144118
-0.22273
-0.21402
-0.192981
-0.159071
-0.118384
-0.0769663
-0.038641
-0.00509776
0.0233891
0.0471826
0.0668226
0.0828499
0.0957605
0.106
0.113962
0.119977
0.12433
0.127492
0.130218
0.131395
-0.263004
-0.253312
-0.231847
-0.197688
-0.155812
-0.112748
-0.0724531
-0.0368038
-0.00621828
0.0196003
0.0411682
0.0590186
0.0736451
0.0854941
0.0949651
0.102392
0.108043
0.112366
0.116177
0.118511
-0.300044
-0.289493
-0.267801
-0.233486
-0.191134
-0.146685
-0.10473
-0.0672298
-0.0347569
-0.00709301
0.0162475
0.0357867
0.0520133
0.0653714
0.0762623
0.0850242
0.0919169
0.0973587
0.102193
0.105617
-0.33365
-0.322317
-0.300628
-0.266459
-0.223847
-0.178636
-0.135295
-0.0962194
-0.0620897
-0.0327758
-0.00783136
0.0132503
0.0309505
0.0457085
0.0579234
0.067937
0.0760038
0.0825118
0.0883053
0.0927526
-0.363647
-0.351601
-0.330115
-0.296437
-0.253932
-0.208279
-0.163995
-0.123634
-0.0880936
-0.0573388
-0.0309709
-0.00850397
0.0105344
0.0265749
0.0400115
0.0511876
0.060354
0.0678654
0.0745488
0.0799531
-0.389908
-0.37722
-0.356107
-0.323232
-0.281245
-0.235535
-0.190668
-0.149348
-0.112661
-0.0806864
-0.0530844
-0.0294002
-0.00916561
0.00803345
0.0225833
0.0348273
0.0450136
0.0534609
0.0609657
0.0672625
-0.412358
-0.399107
-0.378512
-0.346714
-0.30564
-0.260292
-0.215215
-0.17327
-0.135706
-0.102737
-0.074097
-0.0493737
-0.0280878
-0.00986131
0.00568895
0.0189023
0.0300246
0.0393381
0.0475988
0.0547243
-0.430983
-0.41725
-0.397292
-0.366811
-0.327016
-0.282448
-0.23755
-0.195315
-0.157164
-0.123441
-0.0939427
-0.0683707
-0.0461782
-0.027063
-0.0106275
0.00345291
0.0154252
0.0255323
0.0344841
0.042376
-0.445824
-0.431694
-0.41247
-0.383505
-0.34532
-0.301933
-0.257607
-0.215421
-0.17697
-0.142744
-0.112632
-0.0863158
-0.0633931
-0.0435337
-0.0263277
-0.0114871
0.00124983
0.0120727
0.0216502
0.0302493
-0.456979
-0.442541
-0.424119
-0.396827
-0.360544
-0.318712
-0.275343
-0.23355
-0.195087
-0.160597
-0.13007
-0.103228
-0.0797316
-0.0592316
-0.0413815
-0.0258908
-0.0124718
-0.00101569
0.00911995
0.0183701
-0.464602
-0.449947
-0.432371
-0.406861
-0.372718
-0.332784
-0.290743
-0.249683
-0.211497
-0.176982
-0.146243
-0.119068
-0.0951497
-0.0741595
-0.0557854
-0.0397295
-0.0257209
-0.0137078
-0.00308177
0.00675018
-0.468896
-0.454121
-0.437409
-0.413738
-0.381919
-0.344182
-0.303814
-0.263821
-0.226201
-0.191903
-0.161153
-0.133818
-0.10963
-0.0882904
-0.0695087
-0.0530059
-0.0385297
-0.0259556
-0.014915
-0.00463491
-0.470108
-0.455313
-0.439466
-0.417643
-0.388267
-0.352971
-0.314593
-0.275985
-0.239214
-0.20537
-0.17481
-0.147484
-0.123174
-0.101615
-0.0825401
-0.0656929
-0.0508287
-0.0377978
-0.026357
-0.0158418
-0.468526
-0.453813
-0.438813
-0.418802
-0.391923
-0.359253
-0.32314
-0.286214
-0.250563
-0.217408
-0.187232
-0.160079
-0.135791
-0.114139
-0.0948803
-0.0777827
-0.0626142
-0.0492266
-0.0374381
-0.0266518
-0.464463
-0.449939
-0.43576
-0.417483
-0.393091
-0.363164
-0.32954
-0.294564
-0.260294
-0.22805
-0.198446
-0.171627
-0.147499
-0.125873
-0.106538
-0.0892827
-0.073894
-0.0602285
-0.0481434
-0.0370696
-0.458256
-0.444027
-0.430636
-0.413988
-0.392011
-0.364871
-0.333903
-0.301112
-0.268461
-0.237343
-0.208492
-0.182159
-0.158321
-0.136838
-0.117527
-0.100204
-0.0846744
-0.0707988
-0.0584709
-0.0471555
-0.450254
-0.436426
-0.423788
-0.408639
-0.388952
-0.364575
-0.336364
-0.305947
-0.275133
-0.245342
-0.217417
-0.191713
-0.16829
-0.147057
-0.127867
-0.11056
-0.0949641
-0.0809433
-0.0684287
-0.0569384
-0.440804
-0.427479
-0.415564
-0.401773
-0.384211
-0.362501
-0.33708
-0.309177
-0.280387
-0.25211
-0.225273
-0.200337
-0.177444
-0.156561
-0.13758
-0.120369
-0.104777
-0.0906735
-0.0780234
-0.0664198
-0.430248
-0.417522
-0.406303
-0.393729
-0.378095
-0.358899
-0.336231
-0.310924
-0.28431
-0.257715
-0.23212
-0.20808
-0.185826
-0.165387
-0.146697
-0.129653
-0.11413
-0.100003
-0.0872622
-0.0755952
-0.418911
-0.406869
-0.396328
-0.384836
-0.370919
-0.354036
-0.334016
-0.311324
-0.286998
-0.262232
-0.238019
-0.214998
-0.193484
-0.173575
-0.155251
-0.138439
-0.123044
-0.10895
-0.0961554
-0.0844657
-0.407093
-0.395809
-0.385935
-0.375403
-0.362992
-0.348188
-0.330649
-0.31053
-0.288553
-0.265735
-0.243034
-0.221146
-0.200468
-0.181169
-0.163278
-0.146759
-0.131544
-0.117531
-0.104718
-0.0930398
-0.395065
-0.384598
-0.375385
-0.365711
-0.354603
-0.341628
-0.326359
-0.308705
-0.289088
-0.268304
-0.247229
-0.226582
-0.206831
-0.188215
-0.17082
-0.154646
-0.139657
-0.125769
-0.112969
-0.10133
-0.383063
-0.373456
-0.364903
-0.356002
-0.346017
-0.334621
-0.321377
-0.306026
-0.288723
-0.270021
-0.250665
-0.23136
-0.212623
-0.194762
-0.177919
-0.162138
-0.147413
-0.133689
-0.120929
-0.109351
-0.371288
-0.362565
-0.354673
-0.34648
-0.337461
-0.32741
-0.315931
-0.302676
-0.287587
-0.270971
-0.253405
-0.235532
-0.217893
-0.200854
-0.184618
-0.169272
-0.154845
-0.141318
-0.12862
-0.117119
-0.359902
-0.352071
-0.344839
-0.337306
-0.329126
-0.320209
-0.310239
-0.298844
-0.285817
-0.271244
-0.255507
-0.239145
-0.222686
-0.206538
-0.19096
-0.176088
-0.161988
-0.148684
-0.136067
-0.124652
-0.349033
-0.342085
-0.335508
-0.328599
-0.321157
-0.313197
-0.304497
-0.294713
-0.283557
-0.270937
-0.257032
-0.242242
-0.227041
-0.211853
-0.196986
-0.182627
-0.168877
-0.155817
-0.143295
-0.13197
-0.338776
-0.332683
-0.326752
-0.32044
-0.31366
-0.306512
-0.298871
-0.290456
-0.280955
-0.270151
-0.258042
-0.244861
-0.230988
-0.216832
-0.202732
-0.188927
-0.17555
-0.16275
-0.150332
-0.139094
-0.329194
-0.323917
-0.318614
-0.312877
-0.306702
-0.300253
-0.293495
-0.286226
-0.278154
-0.268997
-0.258604
-0.247038
-0.234552
-0.2215
-0.208229
-0.195021
-0.182041
-0.169515
-0.157207
-0.146046
-0.320325
-0.315811
-0.311113
-0.305929
-0.300318
-0.294483
-0.288468
-0.282151
-0.27529
-0.267586
-0.258791
-0.24881
-0.23775
-0.225873
-0.213499
-0.20094
-0.188385
-0.176145
-0.163948
-0.152851
-0.312185
-0.308373
-0.304247
-0.299594
-0.294514
-0.289234
-0.283853
-0.278328
-0.272481
-0.266032
-0.258682
-0.250218
-0.240595
-0.229955
-0.218551
-0.206703
-0.19461
-0.18267
-0.170586
-0.15953
-0.304769
-0.301591
-0.298
-0.293854
-0.289279
-0.28451
-0.279686
-0.274827
-0.269822
-0.264435
-0.258361
-0.251308
-0.2431
-0.233739
-0.22338
-0.212317
-0.200735
-0.18912
-0.177146
-0.166112
-0.29806
-0.295442
-0.292345
-0.288679
-0.284585
-0.280296
-0.275974
-0.271687
-0.267384
-0.262887
-0.257912
-0.252134
-0.245278
-0.237215
-0.227967
-0.217772
-0.206766
-0.195512
-0.183658
-0.172614
-0.292023
-0.289893
-0.287244
-0.28403
-0.280394
-0.276562
-0.272705
-0.268922
-0.265213
-0.261456
-0.257411
-0.252755
-0.247154
-0.240368
-0.232281
-0.223037
-0.212693
-0.201857
-0.190129
-0.179087
-0.286613
-0.284899
-0.282655
-0.279861
-0.276663
-0.273268
-0.26985
-0.266526
-0.263331
-0.260193
-0.256923
-0.253229
-0.248756
-0.243188
-0.23628
-0.228067
-0.218475
-0.208149
-0.196578
-0.185511
-0.281774
-0.280409
-0.278526
-0.276124
-0.27334
-0.270366
-0.267369
-0.264472
-0.261735
-0.259123
-0.256498
-0.25361
-0.25012
-0.245674
-0.239927
-0.232791
-0.224062
-0.21433
-0.202994
-0.192038
-0.277443
-0.276368
-0.274804
-0.272764
-0.270372
-0.267802
-0.265211
-0.262721
-0.260402
-0.258248
-0.256162
-0.253942
-0.251285
-0.247833
-0.243185
-0.237142
-0.229355
-0.22038
-0.209312
-0.198475
-0.273551
-0.272713
-0.271433
-0.269725
-0.267703
-0.26552
-0.263321
-0.261222
-0.259294
-0.25755
-0.255922
-0.254253
-0.252285
-0.249685
-0.246037
-0.241042
-0.234295
-0.22601
-0.216115
-0.204577
-0.270024
-0.269384
-0.268355
-0.266952
-0.265276
-0.263462
-0.261639
-0.259915
-0.258359
-0.256989
-0.25576
-0.25455
-0.253147
-0.251253
-0.248481
-0.244427
-0.238826
-0.231086
-0.222917
-0.210288
-0.266791
-0.26632
-0.265514
-0.26439
-0.263036
-0.261569
-0.260105
-0.258739
-0.257535
-0.256513
-0.25564
-0.25482
-0.25388
-0.252559
-0.250528
-0.247268
-0.242861
-0.235441
-0.229039
-0.215496
-0.263784
-0.263462
-0.262857
-0.261988
-0.260932
-0.259789
-0.258662
-0.257635
-0.256762
-0.256063
-0.255511
-0.255028
-0.254472
-0.253613
-0.252196
-0.249568
-0.246325
-0.238979
-0.234479
-0.219939
-0.260941
-0.260761
-0.260339
-0.259703
-0.258919
-0.258075
-0.25726
-0.256546
-0.255981
-0.25558
-0.255318
-0.255131
-0.254896
-0.254414
-0.253491
-0.251362
-0.249167
-0.241735
-0.239343
-0.223447
-0.258213
-0.258172
-0.25792
-0.257496
-0.256959
-0.256387
-0.255855
-0.255426
-0.255141
-0.255009
-0.255008
-0.255079
-0.255116
-0.254944
-0.254408
-0.252701
-0.251334
-0.243867
-0.243507
-0.225984
-0.255559
-0.25566
-0.255572
-0.25534
-0.255025
-0.254695
-0.254415
-0.25424
-0.254203
-0.254308
-0.254535
-0.254829
-0.255094
-0.255179
-0.254935
-0.253617
-0.252779
-0.245573
-0.246666
-0.227734
-0.252951
-0.253204
-0.25327
-0.253213
-0.253097
-0.25298
-0.252921
-0.252966
-0.253141
-0.25345
-0.25387
-0.254349
-0.254801
-0.255093
-0.255067
-0.254111
-0.253506
-0.246957
-0.248579
-0.229084
-0.250376
-0.250791
-0.251006
-0.251108
-0.251167
-0.251234
-0.251363
-0.251593
-0.251946
-0.252422
-0.252997
-0.253624
-0.254222
-0.254672
-0.254807
-0.254164
-0.253586
-0.247976
-0.249272
-0.230442
-0.247833
-0.248418
-0.248776
-0.249022
-0.249234
-0.249458
-0.249743
-0.250124
-0.250619
-0.251226
-0.25192
-0.252657
-0.25336
-0.253921
-0.254171
-0.253768
-0.253126
-0.248505
-0.248996
-0.231796
-0.245331
-0.246093
-0.246589
-0.246963
-0.247307
-0.247662
-0.248073
-0.248574
-0.249177
-0.24988
-0.250658
-0.251467
-0.252237
-0.252865
-0.253189
-0.25294
-0.25224
-0.248442
-0.248085
-0.232955
-0.24289
-0.243831
-0.244457
-0.244947
-0.245402
-0.245864
-0.246375
-0.246964
-0.247645