/*--------------------------------*- C++ -*----------------------------------*\
  =========                 |
  \\      /  F ield         | OpenFOAM: The Open Source CFD Toolbox
   \\    /   O peration     | Website:  https://openfoam.org
    \\  /    A nd           | Version:  7
     \\/     M anipulation  |
\*---------------------------------------------------------------------------*/
FoamFile
{
    version     2.0;
    format      ascii;
    class       volScalarField;
    location    "3";
    object      p;
}
// * * * * * * * * * * * * * * * * * * * * * * * * * * * * * * * * * * * * * //

dimensions      [0 2 -2 0 0 0 0];

internalField   nonuniform List<scalar> 
344
(
-0.502225
-0.477251
-0.452655
-0.428469
-0.404721
-0.381432
-0.35862
-0.336299
-0.314479
-0.293168
-0.272371
-0.25209
-0.232327
-0.21308
-0.194347
-0.176124
-0.158406
-0.141189
-0.124464
-0.108226
-0.0924662
-0.0771767
-0.062349
-0.0479744
-0.034044
-0.0205485
-0.00747888
0.00517418
0.01742
0.0292677
0.0407266
0.0518058
0.0625143
0.072861
0.0828548
0.0925042
0.101818
0.110804
0.11947
0.127826
0.135877
0.143633
0.1511
0.158286
-0.953798
-0.956123
-0.94772
-0.936062
-0.922766
-0.907544
-0.890633
-0.872031
-0.851883
-0.830362
-0.807665
-0.783989
-0.759525
-0.734447
-0.708912
-0.683064
-0.657026
-0.630908
-0.604808
-0.578809
-0.552984
-0.527395
-0.502098
-0.477137
-0.452552
-0.428376
-0.404636
-0.381353
-0.358546
-0.336229
-0.314412
-0.293103
-0.272308
-0.252029
-0.232266
-0.21302
-0.194287
-0.176065
-0.158347
-0.141129
-0.124405
-0.108166
-0.0924058
-0.0771158
-0.0622877
-0.0479127
-0.0339818
-0.020486
-0.00741598
0.00523743
0.0174835
0.0293315
0.0407907
0.0518701
0.0625787
0.0729255
0.0829194
0.0925688
0.101882
0.110868
0.119535
0.12789
0.135941
0.143697
0.151164
0.158349
-0.942232
-0.947983
-0.941215
-0.931429
-0.91926
-0.904881
-0.888555
-0.87038
-0.850549
-0.829268
-0.806758
-0.78323
-0.758883
-0.733901
-0.708445
-0.682661
-0.656676
-0.630603
-0.60454
-0.578572
-0.552773
-0.527207
-0.501928
-0.476983
-0.452411
-0.428245
-0.404514
-0.381239
-0.358438
-0.336126
-0.314314
-0.293009
-0.272216
-0.251939
-0.232179
-0.212934
-0.194202
-0.17598
-0.158264
-0.141046
-0.124322
-0.108084
-0.092324
-0.0770343
-0.0622063
-0.0478314
-0.0339007
-0.0204049
-0.00733505
0.00531823
0.0175642
0.029412
0.040871
0.0519501
0.0626585
0.0730051
0.0829986
0.0926477
0.101961
0.110946
0.119612
0.127967
0.136018
0.143773
0.15124
0.158425
-0.93298
-0.940962
-0.935488
-0.927204
-0.915988
-0.902344
-0.886541
-0.868755
-0.849217
-0.828163
-0.805829
-0.782442
-0.75821
-0.73332
-0.70794
-0.68222
-0.656288
-0.630259
-0.604233
-0.578296
-0.552524
-0.52698
-0.50172
-0.476791
-0.452232
-0.428079
-0.404357
-0.38109
-0.358296
-0.33599
-0.314183
-0.292882
-0.272093
-0.251819
-0.232062
-0.212819
-0.194089
-0.175869
-0.158154
-0.140938
-0.124215
-0.107977
-0.0922183
-0.0769293
-0.0621021
-0.0477279
-0.0337978
-0.0203028
-0.00723353
0.0054191
0.0176644
0.0295116
0.0409699
0.0520484
0.0627561
0.0731019
0.0830947
0.092743
0.102055
0.11104
0.119705
0.128059
0.136109
0.143864
0.151329
0.158514
-0.925712
-0.935043
-0.930583
-0.923482
-0.913053
-0.900028
-0.884676
-0.86723
-0.847951
-0.827098
-0.804923
-0.781664
-0.757535
-0.73273
-0.707421
-0.681758
-0.655876
-0.629888
-0.603897
-0.57799
-0.552242
-0.52672
-0.501478
-0.476564
-0.452019
-0.427877
-0.404165
-0.380907
-0.35812
-0.335821
-0.314019
-0.292723
-0.271938
-0.251668
-0.231913
-0.212673
-0.193946
-0.175728
-0.158015
-0.140801
-0.124079
-0.107843
-0.0920858
-0.0767983
-0.0619724
-0.0475996
-0.0336707
-0.0201769
-0.00710888
0.00554256
0.0177867
0.0296327
0.0410898
0.0521671
0.0628736
0.0732182
0.0832098
0.092857
0.102168
0.111152
0.119816
0.128168
0.136217
0.14397
0.151435
0.158618
-0.920162
-0.930188
-0.926517
-0.920328
-0.910533
-0.898015
-0.883033
-0.86587
-0.846807
-0.826122
-0.804081
-0.780929
-0.756888
-0.732155
-0.706906
-0.681294
-0.655454
-0.629502
-0.603541
-0.57766
-0.551935
-0.526431
-0.501206
-0.476306
-0.451774
-0.427642
-0.403939
-0.380689
-0.35791
-0.335616
-0.31382
-0.292529
-0.271748
-0.251482
-0.231731
-0.212494
)
;

boundaryField
{
    inlet
    {
        type            zeroGradient;
    }
    outlet
    {
        type            fixedValue;
        value           nonuniform 0();
    }
    wall
    {
        type            zeroGradient;
    }
    wedge1
    {
        type            wedge;
    }
    wedge2
    {
        type            wedge;
    }
    axis
    {
        type            empty;
    }
    procBoundary33to27
    {
        type            processor;
        value           nonuniform List<scalar> 
67
(
-0.502306
-0.477321
-0.452716
-0.428523
-0.404769
-0.381476
-0.358661
-0.336337
-0.314516
-0.293204
-0.272406
-0.252125
-0.232362
-0.213115
-0.194383
-0.176161
-0.158444
-0.141227
-0.124504
-0.108267
-0.092508
-0.0772195
-0.0623928
-0.0480192
-0.0340896
-0.0205951
-0.00752631
0.00512598
0.017371
0.0292181
0.0406764
0.051755
0.062463
0.0728093
0.0828027
0.0924517
0.101765
0.110751
0.119417
0.127772
0.135824
0.143579
0.151047
0.158233
-0.968086
-0.965371
-0.954927
-0.940981
-0.926384
-0.910222
-0.892679
-0.873627
-0.853153
-0.831388
-0.808503
-0.784683
-0.760101
-0.73493
-0.70932
-0.683409
-0.65732
-0.63116
-0.605025
-0.578997
-0.553148
-0.527539
-0.527539
)
;
    }
    procBoundary33to28
    {
        type            processor;
        value           uniform 0.165198;
    }
    procBoundary33to34
    {
        type            processor;
        value           nonuniform List<scalar> 4(0.165261 0.165336 0.165424 0.165527);
    }
    procBoundary33to39
    {
        type            processor;
        value           nonuniform List<scalar> 
67
(
-0.19377
-0.175555
-0.157844
-0.140632
-0.123913
-0.10768
-0.0919241
-0.0766386
-0.0618147
-0.0474437
-0.0335168
-0.0200248
-0.00695858
0.00569106
0.0179334
0.0297776
0.041233
0.0523085
0.0630133
0.0733563
0.0833461
0.0929915
0.102301
0.111283
0.119945
0.128296
0.136343
0.144095
0.151557
0.158739
-0.916107
-0.926341
-0.923282
-0.917785
-0.908489
-0.896367
-0.881674
-0.864727
-0.84583
-0.825274
-0.803335
-0.780266
-0.756293
-0.731616
-0.706414
-0.680841
-0.655034
-0.629111
-0.603174
-0.577314
-0.551606
-0.526118
-0.500906
-0.476019
-0.451497
-0.427374
-0.403679
-0.380436
-0.357663
-0.335376
-0.313585
-0.292298
-0.271522
-0.25126
-0.231513
-0.19377
-0.21228
)
;
    }
}


// ************************************************************************* //
