0.24776 	0.447347 	-2.12142e-18 	4.67831
0.251636 	0.454344 	-8.5807e-19 	4.67627
0.255511 	0.461342 	-6.5148e-19 	4.6742
0.258725 	0.467144 	3.16609e-19 	4.67208
0.260662 	0.470642 	1.21712e-18 	4.65304
0.263262 	0.475337 	1.30048e-18 	4.65114
0.267138 	0.482335 	1.01688e-18 	4.64917
0.271014 	0.489332 	1.48427e-18 	4.64696
0.274889 	0.49633 	1.14087e-18 	4.64442
