/*--------------------------------*- C++ -*----------------------------------*\
  =========                 |
  \\      /  F ield         | OpenFOAM: The Open Source CFD Toolbox
   \\    /   O peration     | Website:  https://openfoam.org
    \\  /    A nd           | Version:  7
     \\/     M anipulation  |
\*---------------------------------------------------------------------------*/
FoamFile
{
    version     2.0;
    format      ascii;
    class       volScalarField;
    location    "10";
    object      p;
}
// * * * * * * * * * * * * * * * * * * * * * * * * * * * * * * * * * * * * * //

dimensions      [0 2 -2 0 0 0 0];

internalField   nonuniform List<scalar> 
433
(
-328.481
-308.634
-285.649
-259.55
-232.239
-205.83
212.226
202.218
189.421
167.587
137.767
106.367
77.6909
53.4444
34.1625
517.835
496.944
478.793
453.799
418.503
377.865
334.625
290.897
248.35
70.53
71.0967
73.0155
75.6224
80.2141
88.3529
98.298
106.284
108.537
103.219
-489.101
-461.153
-434.921
-405.13
-367.165
-322.452
-273.742
-225.779
-182.952
-147.28
-305.1
-289.146
-276.63
-266.541
-255.428
-241.728
-224.435
-204.77
-184.793
-165.017
-144.82
268.344
253.821
237.011
211.578
177.391
141.714
109.273
81.7359
59.2791
41.4677
28.1091
18.9985
508.126
487.013
468.645
443.897
409.111
369.716
328.502
287.21
247.007
208.674
172.758
139.853
48.4327
51.0711
54.2204
56.5408
59.2875
64.8713
73.1303
81.6909
87.1426
86.7207
80.1311
69.0721
56.0903
-501.464
-472.417
-445.868
-417.2
-381.862
-340.568
-294.643
-247.436
-202.823
-163.603
-131.108
-104.971
-83.7894
-66.1524
-316.481
-300.191
-286.982
-276.023
-264.39
-250.822
-233.973
-214.354
-193.534
-172.887
-152.305
-131.412
-110.2
-89.343
-69.9932
-53.1915
239.959
226.391
211.086
188.562
157.93
125.822
96.8265
72.3865
52.1355
35.6453
22.6479
13.3431
7.41962
4.00076
2.05548
0.775706
-0.277353
509.977
488.201
468.941
442.938
406.493
365.775
324.367
284.097
245.537
208.891
174.259
141.97
112.676
87.0351
65.3349
47.4916
33.1972
22.0424
102.148
102.922
103.241
100.065
94.479
90.5603
89.964
91.9115
93.5665
91.8289
84.9533
73.5828
59.8306
45.9164
33.3858
22.9315
14.6411
8.32471
3.60583
-502.86
-474.502
-449.086
-422.245
-389.986
-352.543
-310.25
-265.082
-220.034
-178.35
-142.363
-113.049
-89.8011
-71.1928
-55.9757
-43.4806
-33.4567
-25.7543
-20.0423
-15.9515
-13.1161
-351.787
-335.349
-321.192
-307.669
-292.813
-276.196
-256.921
-235.237
-212.081
-188.567
-165.236
-142.034
-119.18
-97.2509
-77.1548
-59.768
-45.5819
-34.5938
-26.4412
-20.6019
-16.537
-13.7795
260.019
245.615
230.393
208.343
177.698
144.802
114.757
89.2003
67.2653
48.349
32.4915
19.945
10.9077
4.8588
0.853136
-1.96282
-4.12782
-5.87555
-7.26852
-8.32155
-9.07523
-9.58282
-9.89889
-10.0734
512.55
492.379
473.986
446.884
408.032
365.232
323.611
284.985
248.545
213.006
178.156
144.68
113.556
85.8703
62.2658
42.9064
27.5635
15.784
7.0231
0.702055
-3.71454
-6.69239
-8.62077
-9.80958
-10.4949
23.1572
28.2287
30.7619
27.6414
20.4899
14.5641
13.8011
19.2833
28.5082
36.9355
40.8907
39.1258
32.8121
24.2754
15.6528
8.13508
2.11868
-2.43877
-5.76745
-8.13766
-9.78222
-10.8824
-11.5814
-11.9921
-12.1999
-557.778
-527.012
-499.261
-470.426
-437.315
-400.788
-360.827
-318.029
-273.591
-229.357
-187.754
-150.919
-119.819
-94.3488
-73.8042
-57.4578
-44.7459
-35.1824
-28.2386
-23.3356
-19.9526
-17.6676
-16.1503
-253.823
-244.918
-237.168
-229.305
-221.348
-212.624
-201.577
-187.906
-172.355
-155.602
-138.089
-120.062
-101.878
-84.4343
-68.5986
-55.0727
-44.1257
-35.6573
-29.3445
-24.7708
-21.5257
378.469
359.707
342.108
317.358
281.732
241.468
202.445
168.146
138.212
110.756
85.3483
62.7554
43.5325
27.785
15.3195
5.67558
-1.62194
-6.97316
-10.7339
443.972
428.467
413.277
387.589
349.056
305.898
265.603
231.897
203.471
176.432
148.496
119.783
91.9843
66.8415
45.3012
27.7271
14.0051
-208.755
-191.51
-177.773
-168.905
-162.489
-155.783
-145.169
-128.583
-106.995
-83.6709
-62.593
-46.3308
-35.3823
-28.7263
-584.497
-554.064
-526.042
-495.514
-459.938
-421.399
-380.767
-338.73
-295.956
-253.361
-212.15
-173.917
-65.108
-65.0191
-64.4235
-64.2746
-66.0879
-69.2753
-72.3334
-73.525
-71.9929
-68.4648
471.692
449.357
429.89
403.611
365.754
321.623
276.124
234.108
297.885
289.143
279.153
259.098
228.243
192.333
157.529
-386.751
-359.846
-336.278
-315.597
-294.345
-523.922
-497.241
-471.709
74.6295
)
;

boundaryField
{
    inlet
    {
        type            zeroGradient;
    }
    outlet
    {
        type            fixedValue;
        value           nonuniform 0();
    }
    cylinder
    {
        type            zeroGradient;
    }
    top
    {
        type            symmetryPlane;
    }
    bottom
    {
        type            symmetryPlane;
    }
    defaultFaces
    {
        type            empty;
    }
    procBoundary13to6
    {
        type            processor;
        value           nonuniform List<scalar> 8(-11.1965 -11.1965 -11.9563 -11.9563 -10.7805 -10.1468 -10.1468 -10.8486);
    }
    procBoundary13to7
    {
        type            processor;
        value           nonuniform List<scalar> 
38
(
-15.1497
-12.267
-14.4817
-19.2622
-15.1497
-17.7004
-13.2433
-19.2622
-14.8174
3.6984
-13.2433
-3.76638
-24.8761
-22.6766
3.6984
-21.4012
-140.084
-24.8761
-111.386
-64.0594
-140.084
-59.1969
196.984
-64.0594
163.574
196.984
128.352
-272.841
128.352
-249.926
-442.454
-272.841
-406.681
68.9273
-442.454
65.8002
68.9273
504.953
)
;
    }
    procBoundary13to12
    {
        type            processor;
        value           nonuniform List<scalar> 
26
(
-180.42
19.7563
208.003
208.003
91.5103
-118.75
-118.75
-123.672
-123.672
13.3029
110.667
110.667
43.4
43.4
-51.2458
-51.2458
-38.8137
-39.472
-39.472
-1.25063
-1.25063
13.5747
13.5747
0.166173
0.166173
-2.25829
)
;
    }
    procBoundary13to19
    {
        type            processor;
        value           nonuniform List<scalar> 10(-360.885 -323.569 -279.42 -231.958 -186.303 -146.884 -384.48 -363.381 -345.464 -345.464);
    }
}


// ************************************************************************* //
