/*--------------------------------*- C++ -*----------------------------------*\
  =========                 |
  \\      /  F ield         | OpenFOAM: The Open Source CFD Toolbox
   \\    /   O peration     | Website:  https://openfoam.org
    \\  /    A nd           | Version:  7
     \\/     M anipulation  |
\*---------------------------------------------------------------------------*/
FoamFile
{
    version     2.0;
    format      ascii;
    class       volScalarField;
    location    "16";
    object      p;
}
// * * * * * * * * * * * * * * * * * * * * * * * * * * * * * * * * * * * * * //

dimensions      [0 2 -2 0 0 0 0];

internalField   nonuniform List<scalar> 
433
(
0.00222906
0.000715235
-0.000810891
-0.0023458
-0.00388442
-0.00542067
-0.00694788
-0.00845885
-0.0099458
-0.0114004
-0.0128136
-0.0141759
-0.0154774
-0.0167079
-0.0178567
-0.0189133
-0.0198669
-0.0207071
0.00189572
0.00036685
-0.00116937
-0.00271499
-0.00426476
-0.00581132
-0.00734739
-0.00886569
-0.0103584
-0.011817
-0.0132324
-0.0145949
-0.0158945
-0.0171208
-0.0182633
-0.0193113
-0.0202542
-0.0210816
0.00126119
-0.000298918
-0.00185538
-0.00342233
-0.0049942
-0.00656097
-0.00811427
-0.00964669
-0.0111503
-0.0126165
-0.0140357
-0.0153982
-0.0166937
-0.0179117
-0.0190416
-0.0200727
-0.0209944
-0.0217966
0.000332535
-0.00127175
-0.00285665
-0.0044538
-0.006057
-0.00765228
-0.00922966
-0.0107816
-0.0123001
-0.0137761
-0.0151999
-0.0165611
-0.0178494
-0.0190541
-0.0201644
-0.0211698
-0.0220598
-0.0228243
-0.000880987
-0.0025423
-0.00416334
-0.00579905
-0.00744214
-0.00907342
-0.0106809
-0.0122568
-0.013793
-0.0152802
-0.0167079
-0.0180656
-0.0193426
-0.020528
-0.021611
-0.022581
-0.0234279
-0.0241419
-0.00238041
-0.00411059
-0.00577458
-0.00745624
-0.00914677
-0.0108204
-0.0124627
-0.0140657
-0.0156213
-0.0171194
-0.0185492
-0.0198997
-0.0211597
-0.0223184
-0.0233648
-0.0242887
-0.02508
-0.0257295
-0.00417037
-0.0059808
-0.0076938
-0.00942805
-0.0111727
-0.012894
-0.0145746
-0.0162065
-0.0177815
-0.0192889
-0.0207173
-0.022055
-0.0232909
-0.0244138
-0.025413
-0.0262783
-0.0270003
-0.0275703
-0.0062604
-0.00816189
-0.00992919
-0.0117218
-0.0135262
-0.0152992
-0.0170203
-0.0186815
-0.0202742
-0.0217875
-0.023209
-0.0245268
-0.0257294
-0.0268056
-0.0277449
-0.0285376
-0.0291748
-0.0296489
-0.00866376
-0.0106667
-0.0124927
-0.0143486
-0.0162172
-0.0180448
-0.019807
-0.0214959
-0.0231031
-0.0246167
-0.0260239
-0.0273123
-0.0284702
-0.0294866
-0.0303515
-0.0310555
-0.0315909
-0.0319511
-0.0113973
-0.0135114
-0.0153997
-0.0173227
-0.0192588
-0.0211422
-0.0229443
-0.0246576
-0.0262736
-0.0277799
-0.0291629
-0.03041
-0.0315095
-0.0324508
-0.0332243
-0.0338217
-0.0342363
-0.0344629
-0.0144812
-0.0167157
-0.0186687
-0.0206613
-0.0226669
-0.0246054
-0.0264443
-0.0281763
-0.0297931
-0.0312818
-0.0326282
-0.0338195
-0.0348443
-0.0356926
-0.0363555
-0.036826
-0.0370988
-0.0371707
-0.0179388
-0.0203022
-0.0223209
-0.0243843
-0.0264593
-0.0284503
-0.0303204
-0.0320629
-0.0336699
-0.0351278
-0.0364222
-0.0375403
-0.0384713
-0.0392059
-0.0397366
-0.0400578
-0.0401662
-0.0400604
-0.0217966
-0.0242964
-0.0263803
-0.0285138
-0.0306561
-0.0326945
-0.0345875
-0.0363292
-0.0379125
-0.0393234
-0.0405473
-0.0415717
-0.0423868
-0.0429844
-0.0433586
-0.0435059
-0.0434249
-0.0431172
-0.0260842
-0.0287266
-0.0308731
-0.0330738
-0.0352788
-0.0373566
-0.0392609
-0.0409874
-0.0425297
-0.0438737
-0.045005
-0.0459119
-0.0465857
-0.0470201
-0.0472112
-0.0471576
-0.046861
-0.0463254
-0.0308345
-0.0336241
-0.0358279
-0.0380902
-0.0403503
-0.0424559
-0.0443562
-0.046049
-0.0475291
-0.0487826
-0.0497956
-0.0505576
-0.0510618
-0.0513039
-0.0512826
-0.0509993
-0.0504588
-0.0496685
-0.0360834
-0.0390225
-0.0412753
-0.0435901
-0.045894
-0.0480119
-0.0498887
-0.0515251
-0.0529175
-0.0540526
-0.0549176
-0.0555038
-0.0558066
-0.0558245
-0.0555591
-0.0550154
-0.0542015
-0.0531286
-0.0418701
-0.0449583
-0.0472477
-0.0496019
-0.0519337
-0.0540435
-0.0558724
-0.0574248
-0.0586993
-0.0596838
-0.0603671
-0.0607428
-0.0608093
-0.0605684
-0.0600252
-0.0591886
-0.0580706
-0.0566867
-0.0482373
-0.0514704
-0.0537786
-0.0561541
-0.0584929
-0.0605687
-0.0623198
-0.0637552
-0.0648766
-0.0656736
-0.0661372
-0.0662642
-0.0660564
-0.0655196
-0.064663
-0.0634997
-0.0620462
-0.0603225
-0.0552311
-0.0585995
-0.0609028
-0.0632752
-0.0655937
-0.0676034
-0.0692404
-0.0705201
-0.0714479
-0.0720158
-0.0722176
-0.0720541
-0.0715312
-0.0706592
-0.069452
-0.0679273
-0.0661065
-0.064014
-0.0629007
-0.066388
-0.0686547
-0.0709925
-0.0732561
-0.0751602
-0.0766403
-0.0777194
-0.0784076
-0.0786999
-0.0785939
-0.0780948
-0.0772135
-0.0759652
-0.074369
-0.0724477
-0.0702279
-0.0677392
-0.071298
-0.0748786
-0.0770677
-0.0793306
-0.0814962
-0.0832471
-0.0845201
-0.0853473
-0.0857445
-0.0857102
-0.0852465
-0.084364
-0.0830789
-0.0814119
-0.0793877
-0.0770346
-0.0743843
-0.0714718
-0.0683326
-0.0804759
-0.0841118
-0.0861719
-0.0883098
-0.0903245
-0.0918657
-0.0928737
-0.0933915
-0.0934409
-0.0930247
-0.0921503
-0.090834
-0.0890982
-0.0869694
-0.0844783
-0.0816589
-0.0785487
-0.0751863
-0.0716135
-0.0904852
-0.094122
-0.0959909
-0.0979428
-0.0997428
-0.101008
-0.101686
-0.101831
-0.101471
-0.100614
-0.0992727
-0.0974708
-0.0952366
-0.092603
-0.0896066
-0.086288
-0.082689
-0.0788543
-0.0748298
-0.101369
-0.104932
-0.106538
-0.108231
-0.109741
-0.110655
-0.11093
-0.110633
-0.109798
-0.108438
-0.106573
-0.104233
-0.101453
-0.0982726
-0.094734
-0.0908858
)
;

boundaryField
{
    inlet
    {
        type            zeroGradient;
    }
    outlet
    {
        type            fixedValue;
        value           nonuniform 0();
    }
    cylinder
    {
        type            zeroGradient;
    }
    top
    {
        type            symmetryPlane;
    }
    bottom
    {
        type            symmetryPlane;
    }
    defaultFaces
    {
        type            empty;
    }
    procBoundary4to3
    {
        type            processor;
        value           nonuniform List<scalar> 
24
(
0.00331174
0.00299865
0.00241083
0.00155049
0.000427578
-0.000959725
-0.00261593
-0.00455045
-0.00677626
-0.00930978
-0.0121707
-0.0153818
-0.0189689
-0.022961
-0.0273901
-0.0322912
-0.0377028
-0.0436668
-0.050229
-0.0574399
-0.0653554
-0.0740389
-0.0835623
-0.0940086
)
;
    }
    procBoundary4to5
    {
        type            processor;
        value           nonuniform List<scalar> 
21
(
-0.0214239
-0.0217834
-0.0224694
-0.0234541
-0.0247141
-0.0262291
-0.0279812
-0.0299537
-0.0321312
-0.0344985
-0.0370404
-0.0397417
-0.0425865
-0.045558
-0.048639
-0.0518111
-0.0550552
-0.0583511
-0.0616775
-0.0650125
-0.0650125
)
;
    }
    procBoundary4to10
    {
        type            processor;
        value           nonuniform List<scalar> 
20
(
-0.0867729
-0.0824461
-0.0779549
-0.113151
-0.116543
-0.117808
-0.119161
-0.120292
-0.12077
-0.120564
-0.119751
-0.118373
-0.116447
-0.114001
-0.111071
-0.107699
-0.103933
-0.099821
-0.0867729
-0.0954129
)
;
    }
    procBoundary4to11
    {
        type            processor;
        value           nonuniform List<scalar> 3(-0.0650047 -0.0678719 -0.0706607);
    }
}


// ************************************************************************* //
