/*--------------------------------*- C++ -*----------------------------------*\
  =========                 |
  \\      /  F ield         | OpenFOAM: The Open Source CFD Toolbox
   \\    /   O peration     | Website:  https://openfoam.org
    \\  /    A nd           | Version:  7
     \\/     M anipulation  |
\*---------------------------------------------------------------------------*/
FoamFile
{
    version     2.0;
    format      ascii;
    class       volScalarField;
    location    "6";
    object      p;
}
// * * * * * * * * * * * * * * * * * * * * * * * * * * * * * * * * * * * * * //

dimensions      [0 2 -2 0 0 0 0];

internalField   nonuniform List<scalar> 
433
(
-408.154
-377.27
-344.689
-311.591
-278.675
-245.617
78.5819
80.585
80.4164
73.2465
60.341
44.3791
28.3327
14.7312
5.44392
519.986
496.517
476.513
450.569
414.573
372.27
326.308
280.255
238.017
262.872
250.671
242.276
233.704
222.047
207.191
187.823
164.68
140.462
118.013
-345.306
-327.036
-308.405
-285.639
-256.936
-226.287
-197.238
-171.99
-149.917
-129.373
-510.664
-480.863
-454.028
-426.517
-394.16
-359.474
-324.307
-289.631
-255.17
-220.559
-186.051
51.4501
54.4951
54.9874
48.4684
36.8251
22.6273
8.6438
-3.03018
-10.6163
-13.0424
-10.9402
-6.33973
528.263
505.686
486.489
460.844
425.27
383.574
338.056
291.566
247.54
208.518
175.156
146.155
240.75
230.151
223.546
217.933
211.419
203.345
190.931
172.787
150.511
127.503
105.934
86.341
68.5094
-388.176
-368.763
-348.891
-323.194
-289.067
-250.809
-213.945
-182.533
-156.869
-134.64
-114.064
-94.7514
-76.9914
-61.0389
-465.225
-439.635
-417.253
-394.576
-367.274
-337.177
-305.939
-275.042
-244.144
-212.49
-180.132
-147.998
-117.657
-90.5369
-67.5411
-48.9512
165.889
162.183
156.016
141.434
120.426
96.6364
72.9923
51.6295
34.2242
22.1358
15.5206
12.9872
12.4428
12.148
11.2797
9.84518
8.15959
529.288
508.765
491.947
468.904
436.662
399.02
357.605
313.839
269.554
226.919
187.955
153.511
123.332
96.9372
74.3081
55.533
40.5598
29.0433
54.8442
53.219
54.0701
58.4515
67.7633
81.3218
94.6334
102.228
101.003
91.8467
78.284
63.6474
49.9673
38.2298
28.8387
21.6561
16.3079
12.3231
9.35818
-492.331
-467.462
-443.368
-413.474
-373.303
-326.409
-277.883
-233.832
-197.091
-166.567
-139.903
-115.432
-92.7092
-72.0321
-53.8438
-38.6203
-26.5496
-17.3742
-10.677
-5.98071
-2.77529
-282.061
-267.402
-256.658
-248.7
-239.286
-227.235
-212.442
-196.403
-179.493
-160.565
-139.061
-115.789
-92.4778
-70.9077
-52.3037
-37.174
-25.4395
-16.6683
-10.3061
-5.82268
-2.75294
-0.721825
368.792
352.725
334.807
306.751
269.043
228.421
189.077
153.237
121.777
95.1575
73.8228
57.3968
44.8746
35.1641
27.3798
21.0852
16.0589
12.149
9.19292
7.01329
5.44055
4.33977
3.57755
3.04799
468.376
452.006
438.926
420.873
395.72
367.275
336.008
301.66
264.493
225.539
186.762
150.567
118.71
91.772
69.7299
52.1152
38.3483
27.8273
19.9813
14.255
10.1765
7.3474
5.42934
4.14894
3.29659
-158.488
-148.001
-137.393
-123.318
-102.494
-74.6535
-42.7078
-11.9515
12.0765
26.024
30.4559
28.5186
23.8999
19.1577
15.3199
12.4227
10.177
8.37929
6.93359
5.77466
4.85429
4.12849
3.55438
3.0939
2.7163
-504.14
-476.364
-450.733
-422.516
-387.483
-347.053
-303.231
-259.718
-220.026
-184.966
-154.142
-126.429
-101.012
-77.9069
-57.6925
-40.9288
-27.7655
-17.9319
-10.8913
-6.01788
-2.74786
-0.647177
0.624384
-91.4573
-88.1684
-88.959
-95.5097
-104.617
-111.574
-113.904
-112.278
-108.094
-101.925
-92.9456
-80.9639
-66.9384
-52.5114
-39.2223
-27.9983
-19.1121
-12.4031
-7.52336
-4.09266
-1.76136
436.534
414.56
391.863
360.25
317.619
272.025
228.82
190.308
156.725
127.607
102.45
81.2399
63.7565
49.5144
37.9719
28.6805
21.3082
15.5918
11.2801
406.246
392.506
380.984
363.969
339.187
312.049
284.729
257.229
228.711
198.875
168.335
138.387
110.525
85.9455
65.2338
48.421
35.21
-235.807
-219.327
-204.122
-187.924
-167.465
-141.883
-111.807
-79.8796
-49.9416
-26.093
-10.2347
-1.84133
1.36335
1.98358
-521.908
-492.807
-466.493
-438.868
-406.139
-369.243
-328.809
-286.874
-246.065
-208.013
-173.402
-142.208
-43.7902
-43.0412
-45.1654
-52.6399
-63.9451
-74.414
-80.8623
-82.9881
-81.9023
-78.5989
475.469
453.271
431.78
401.978
360.762
315.143
270.361
229.137
363.065
352.221
342.438
326.091
301.968
276.366
252.423
-326.83
-306.702
-289.113
-271.106
-248.983
-503.591
-477.79
-454.422
88.263
)
;

boundaryField
{
    inlet
    {
        type            zeroGradient;
    }
    outlet
    {
        type            fixedValue;
        value           nonuniform 0();
    }
    cylinder
    {
        type            zeroGradient;
    }
    top
    {
        type            symmetryPlane;
    }
    bottom
    {
        type            symmetryPlane;
    }
    defaultFaces
    {
        type            empty;
    }
    procBoundary13to6
    {
        type            processor;
        value           nonuniform List<scalar> 8(-0.6828 -0.6828 0.556051 0.556051 1.31104 2.67017 2.67017 2.71986);
    }
    procBoundary13to7
    {
        type            processor;
        value           nonuniform List<scalar> 
38
(
1.32832
2.39806
1.65883
-0.25178
1.32832
0.668962
8.11384
-0.25178
5.84558
25.1031
8.11384
17.5705
1.80974
1.60095
25.1031
1.47296
-114.105
1.80974
-89.0096
-73.21
-114.105
-65.3389
191.871
-73.21
158.409
191.871
230.19
-221.601
230.19
-188.643
-429.714
-221.601
-400.796
81.794
-429.714
73.6157
81.794
528.728
)
;
    }
    procBoundary13to12
    {
        type            processor;
        value           nonuniform List<scalar> 
26
(
-212.22
1.44794
201.574
201.574
98.2503
-109.735
-109.735
-152.658
-152.658
-1.52862
119.858
119.858
52.6251
52.6251
-47.036
-47.036
-35.1139
-34.4799
-34.4799
6.51441
6.51441
20.4605
20.4605
7.17329
7.17329
5.58261
)
;
    }
    procBoundary13to19
    {
        type            processor;
        value           nonuniform List<scalar> 10(-322.771 -292.833 -261.016 -230.33 -202.476 -176.953 -492.625 -462.331 -435.146 -435.146);
    }
}


// ************************************************************************* //
