/*--------------------------------*- C++ -*----------------------------------*\
  =========                 |
  \\      /  F ield         | OpenFOAM: The Open Source CFD Toolbox
   \\    /   O peration     | Website:  https://openfoam.org
    \\  /    A nd           | Version:  7
     \\/     M anipulation  |
\*---------------------------------------------------------------------------*/
FoamFile
{
    version     2.0;
    format      ascii;
    class       surfaceScalarField;
    location    "2";
    object      phi;
}
// * * * * * * * * * * * * * * * * * * * * * * * * * * * * * * * * * * * * * //

dimensions      [0 3 -1 0 0 0 0];

internalField   nonuniform List<scalar> 
618
(
5.90358e-05
-4.27699e-07
5.88675e-05
-4.15793e-07
5.87039e-05
-4.04408e-07
5.85447e-05
-3.93509e-07
5.83897e-05
-3.83068e-07
-3.73056e-07
0.000191484
-0.000135658
0.000186104
-0.00011581
0.000170171
-8.35491e-05
0.000153224
-5.79843e-05
0.000138401
-4.0981e-05
0.000126159
-3.00362e-05
0.000116183
-2.27829e-05
0.000108021
-1.77937e-05
0.00010128
-1.42377e-05
9.56508e-05
-1.16226e-05
9.08983e-05
-9.64692e-06
8.68456e-05
-8.12e-06
8.33577e-05
-6.9167e-06
8.03312e-05
-5.95253e-06
7.76854e-05
-5.16882e-06
7.53567e-05
-4.52384e-06
7.32946e-05
-3.98726e-06
7.14584e-05
-3.53661e-06
6.98148e-05
-3.15494e-06
6.83367e-05
-2.82927e-06
6.70015e-05
-2.54953e-06
6.57905e-05
-2.30779e-06
6.46877e-05
-2.09774e-06
6.36799e-05
-1.91431e-06
6.27556e-05
-1.75339e-06
6.19052e-05
-1.61162e-06
6.11204e-05
-1.4862e-06
6.03938e-05
-1.37483e-06
5.97194e-05
-1.2756e-06
5.90917e-05
-1.18686e-06
5.85058e-05
-1.10727e-06
5.79578e-05
-1.03565e-06
5.7444e-05
-9.71017e-07
5.69611e-05
-9.12519e-07
5.65063e-05
-8.59428e-07
5.60772e-05
-8.11115e-07
5.56714e-05
-7.67036e-07
5.52871e-05
-7.2672e-07
5.49224e-05
-6.89754e-07
5.45758e-05
-6.5578e-07
5.42458e-05
-6.24484e-07
5.39312e-05
-5.95591e-07
5.36308e-05
-5.68857e-07
5.33436e-05
-5.44069e-07
5.30686e-05
-5.21037e-07
5.28051e-05
-4.99596e-07
5.25522e-05
-4.79595e-07
5.23092e-05
-4.60904e-07
5.20755e-05
-4.43405e-07
5.18506e-05
-4.26993e-07
5.16339e-05
-4.11574e-07
5.14248e-05
-3.97065e-07
5.1223e-05
-3.8339e-07
5.10281e-05
-3.70481e-07
5.08397e-05
-3.58278e-07
5.06573e-05
-3.46726e-07
5.04808e-05
-3.35775e-07
5.03098e-05
-3.25381e-07
5.0144e-05
-3.15502e-07
4.99832e-05
-3.06103e-07
4.98271e-05
-2.9715e-07
4.96756e-05
-2.88612e-07
4.95284e-05
-2.80461e-07
4.93852e-05
-2.72672e-07
4.9246e-05
-2.65223e-07
4.91106e-05
-2.58091e-07
4.89788e-05
-2.51258e-07
-2.44705e-07
0.000187783
-0.000149241
0.000171788
-9.98145e-05
0.000149584
-6.13457e-05
0.000130443
-3.88427e-05
0.000115498
-2.60356e-05
0.000103961
-1.85e-05
9.4952e-05
-1.37736e-05
8.77854e-05
-1.06271e-05
8.19796e-05
-8.43188e-06
7.71981e-05
-6.84104e-06
7.32031e-05
-5.65197e-06
6.98234e-05
-4.74028e-06
6.6933e-05
-4.02628e-06
6.44374e-05
-3.45699e-06
6.22647e-05
-2.99611e-06
6.03589e-05
-2.61808e-06
5.86761e-05
-2.30446e-06
5.71812e-05
-2.04169e-06
5.58459e-05
-1.8196e-06
5.46471e-05
-1.63044e-06
5.35658e-05
-1.46822e-06
5.25862e-05
-1.32822e-06
5.16952e-05
-1.20674e-06
5.08816e-05
-1.10077e-06
5.01362e-05
-1.0079e-06
4.94507e-05
-9.26148e-07
4.88184e-05
-8.53891e-07
4.82333e-05
-7.89779e-07
4.76904e-05
-7.32687e-07
4.71852e-05
-6.8167e-07
4.67139e-05
-6.35931e-07
4.6273e-05
-5.94795e-07
4.58597e-05
-5.57686e-07
4.54713e-05
-5.24113e-07
4.51055e-05
-4.93652e-07
4.47603e-05
-4.6594e-07
4.4434e-05
-4.40662e-07
4.41248e-05
-4.17547e-07
4.38314e-05
-3.96355e-07
4.35525e-05
-3.7688e-07
4.32869e-05
-3.58942e-07
4.30337e-05
-3.42381e-07
4.27919e-05
-3.27059e-07
4.25607e-05
-3.12851e-07
4.23393e-05
-2.99649e-07
4.21271e-05
-2.87358e-07
4.19234e-05
-2.75893e-07
4.17277e-05
-2.65177e-07
4.15394e-05
-2.55142e-07
4.13581e-05
-2.45731e-07
4.11835e-05
-2.36887e-07
4.1015e-05
-2.28564e-07
4.08523e-05
-2.20718e-07
4.06951e-05
-2.13311e-07
4.05431e-05
-2.06307e-07
4.03961e-05
-1.99676e-07
4.02537e-05
-1.9339e-07
4.01157e-05
-1.87421e-07
3.9982e-05
-1.81748e-07
3.98522e-05
-1.76349e-07
3.97263e-05
-1.71206e-07
3.9604e-05
-1.663e-07
3.94851e-05
-1.61616e-07
3.93696e-05
-1.57139e-07
3.92572e-05
-1.52857e-07
3.91479e-05
-1.48756e-07
3.90415e-05
-1.44827e-07
-1.41059e-07
0.000173854
-0.000146331
0.000145527
-7.14872e-05
0.000119589
-3.5408e-05
0.000100938
-2.01913e-05
8.77561e-05
-1.28537e-05
7.81409e-05
-8.88472e-06
7.08827e-05
-6.51533e-06
6.52334e-05
-4.97788e-06
6.07244e-05
-3.92283e-06
5.70503e-05
-3.16694e-06
5.40049e-05
-2.60659e-06
5.14443e-05
-2.17966e-06
4.9265e-05
-1.84695e-06
4.73907e-05
-1.58272e-06
4.57641e-05
-1.36951e-06
4.43411e-05
-1.1951e-06
4.30874e-05
-1.05075e-06
4.19758e-05
-9.30038e-07
4.09843e-05
-8.28196e-07
4.00955e-05
-7.41587e-07
3.92947e-05
-6.67412e-07
3.85699e-05
-6.0348e-07
3.79113e-05
-5.48061e-07
3.73103e-05
-4.99768e-07
3.67598e-05
-4.57482e-07
3.6254e-05
-4.2029e-07
3.57875e-05
-3.87442e-07
3.53561e-05
-3.58315e-07
3.49558e-05
-3.32393e-07
3.45834e-05
-3.09242e-07
3.42359e-05
-2.88496e-07
3.3911e-05
-2.69846e-07
3.36063e-05
-2.53028e-07
3.332e-05
-2.37816e-07
3.30504e-05
-2.24019e-07
3.27959e-05
-2.1147e-07
3.25553e-05
-2.00025e-07
3.23273e-05
-1.8956e-07
3.21109e-05
-1.79967e-07
3.19052e-05
-1.71152e-07
3.17093e-05
-1.63032e-07
3.15224e-05
-1.55537e-07
3.1344e-05
-1.48601e-07
3.11733e-05
-1.42169e-07
3.10098e-05
-1.36193e-07
3.08531e-05
-1.30628e-07
3.07026e-05
-1.25436e-07
3.0558e-05
-1.20583e-07
3.04189e-05
-1.16038e-07
3.0285e-05
-1.11774e-07
3.01559e-05
-1.07767e-07
3.00313e-05
-1.03995e-07
2.9911e-05
-1.00439e-07
2.97948e-05
-9.70809e-08
2.96824e-05
-9.39052e-08
2.95736e-05
-9.08978e-08
2.94683e-05
-8.80459e-08
2.93662e-05
-8.5338e-08
2.92672e-05
-8.27636e-08
2.91712e-05
-8.03131e-08
2.90779e-05
-7.7978e-08
2.89874e-05
-7.57504e-08
2.88994e-05
-7.36232e-08
2.88138e-05
-7.15899e-08
2.87306e-05
-6.96444e-08
2.86496e-05
-6.77814e-08
2.85708e-05
-6.59958e-08
-6.4283e-08
0.000141644
-0.000108646
0.000102929
-3.27721e-05
7.92141e-05
-1.16933e-05
6.4845e-05
-5.82219e-06
5.55254e-05
-3.5341e-06
4.90248e-05
-2.38413e-06
4.42373e-05
-1.72784e-06
4.0569e-05
-1.30957e-06
3.76723e-05
-1.02611e-06
3.53301e-05
-8.24828e-07
3.34002e-05
-6.76599e-07
3.17847e-05
-5.64253e-07
3.04149e-05
-4.77069e-07
2.92402e-05
-4.08071e-07
2.82233e-05
-3.52558e-07
2.73354e-05
-3.07261e-07
2.65545e-05
-2.69851e-07
2.58631e-05
-2.38628e-07
2.52473e-05
-2.1233e-07
2.46957e-05
-1.89998e-07
2.41992e-05
-1.70898e-07
2.37501e-05
-1.54457e-07
2.33423e-05
-1.4022e-07
2.29703e-05
-1.27826e-07
2.26299e-05
-1.16985e-07
2.2317e-05
-1.07457e-07
2.20286e-05
-9.90483e-08
2.17619e-05
-9.15978e-08
2.15145e-05
-8.49711e-08
2.12843e-05
-7.90561e-08
2.10696e-05
-7.37582e-08
2.08687e-05
-6.89975e-08
2.06804e-05
-6.4706e-08
2.05034e-05
-6.08258e-08
2.03367e-05
-5.73072e-08
2.01793e-05
-5.41075e-08
2.00305e-05
-5.11899e-08
1.98895e-05
-4.85223e-08
1.97556e-05
-4.60772e-08
1.96282e-05
-4.38305e-08
1.9507e-05
-4.17609e-08
1.93913e-05
-3.98502e-08
1.92808e-05
-3.80821e-08
1.9175e-05
-3.64423e-08
1.90738e-05
-3.49184e-08
1.89766e-05
-3.34991e-08
1.88834e-05
-3.21747e-08
1.87937e-05
-3.09365e-08
1.87075e-05
-2.97767e-08
1.86244e-05
-2.86883e-08
1.85443e-05
-2.76652e-08
1.8467e-05
-2.67019e-08
1.83923e-05
-2.57934e-08
1.83202e-05
-2.49354e-08
1.82504e-05
-2.41237e-08
1.81829e-05
-2.33548e-08
1.81175e-05
-2.26255e-08
1.8054e-05
-2.19328e-08
1.79926e-05
-2.12741e-08
1.79329e-05
-2.06469e-08
1.7875e-05
-2.00491e-08
1.78187e-05
-1.94787e-08
1.7764e-05
-1.89339e-08
1.77108e-05
-1.84129e-08
1.76591e-05
-1.79144e-08
1.76087e-05
-1.74369e-08
1.75597e-05
-1.69792e-08
-1.654e-08
7.32478e-05
4.04757e-05
2.87824e-05
2.29602e-05
1.94261e-05
1.7042e-05
1.53141e-05
1.40046e-05
1.29785e-05
1.21536e-05
1.1477e-05
1.09128e-05
1.04357e-05
1.00276e-05
9.67508e-06
9.36782e-06
9.09797e-06
8.85934e-06
8.64701e-06
8.45701e-06
8.28611e-06
8.13166e-06
7.99144e-06
7.86361e-06
7.74663e-06
7.63917e-06
7.54012e-06
7.44852e-06
7.36355e-06
7.2845e-06
7.21074e-06
7.14174e-06
7.07703e-06
7.01621e-06
6.9589e-06
6.90479e-06
6.8536e-06
6.80508e-06
6.759e-06
6.71517e-06
6.67341e-06
6.63356e-06
6.59548e-06
6.55904e-06
6.52412e-06
6.49062e-06
6.45845e-06
6.42751e-06
6.39773e-06
6.36904e-06
6.34138e-06
6.31468e-06
6.28888e-06
6.26395e-06
6.23982e-06
6.21647e-06
6.19384e-06
6.17191e-06
6.15064e-06
6.12999e-06
6.10994e-06
6.09046e-06
6.07153e-06
6.05312e-06
6.0352e-06
6.01776e-06
6.00079e-06
)
;

boundaryField
{
    inlet
    {
        type            calculated;
        value           nonuniform List<scalar> 5(-0.000171636 -0.0001742 -0.000176765 -0.000179329 -0.000181894);
    }
    outlet
    {
        type            calculated;
        value           nonuniform 0();
    }
    wall
    {
        type            calculated;
        value           uniform 0;
    }
    wedge1
    {
        type            wedge;
        value           nonuniform List<scalar> 
346
(
5.8496e-15
6.55216e-15
2.02276e-14
5.49121e-15
-1.53575e-14
6.18625e-15
5.62081e-15
1.36543e-14
2.91002e-15
-6.242e-15
4.86699e-15
3.83918e-15
7.79739e-15
1.30551e-15
-2.12148e-15
3.57445e-15
2.58445e-15
4.73931e-15
7.04519e-16
-9.89774e-16
2.60948e-15
1.78941e-15
3.11022e-15
4.41227e-16
-5.89114e-16
1.94838e-15
1.29381e-15
2.18324e-15
3.03979e-16
-3.97619e-16
1.49491e-15
9.73122e-16
1.6144e-15
2.23437e-16
-2.90607e-16
1.17637e-15
7.55876e-16
1.24054e-15
1.71521e-16
-2.22774e-16
9.46226e-16
6.02586e-16
9.81806e-16
1.35923e-16
-1.76752e-16
7.75366e-16
4.90626e-16
7.95332e-16
1.10378e-16
-1.43911e-16
6.45442e-16
4.06488e-16
6.56497e-16
9.13845e-17
-1.19549e-16
5.44506e-16
3.41687e-16
5.50341e-16
7.68489e-17
-1.00925e-16
4.6465e-16
2.90753e-16
4.67366e-16
6.54621e-17
-8.63349e-17
4.00468e-16
2.50034e-16
4.01311e-16
5.63766e-17
-7.46691e-17
3.48191e-16
2.17016e-16
3.47909e-16
4.90201e-17
-6.5178e-17
3.05049e-16
1.89842e-16
3.04116e-16
4.2953e-17
-5.7363e-17
2.69096e-16
1.67269e-16
2.67813e-16
3.79143e-17
-5.08363e-17
2.3888e-16
1.48353e-16
2.3743e-16
3.36996e-17
-4.53238e-17
2.13221e-16
1.32299e-16
2.11706e-16
3.00913e-17
-4.06537e-17
1.91303e-16
1.18617e-16
1.8981e-16
2.70212e-17
-3.66426e-17
1.7248e-16
1.06896e-16
1.71055e-16
2.44004e-17
-3.31708e-17
1.56163e-16
9.67259e-17
1.54819e-16
2.20975e-17
-3.01748e-17
1.41967e-16
8.7892e-17
1.40732e-16
2.0101e-17
-2.75531e-17
1.2955e-16
8.01769e-17
1.28441e-16
1.83611e-17
-2.52497e-17
1.18668e-16
7.34183e-17
1.17666e-16
1.68266e-17
-2.32247e-17
1.09071e-16
6.74642e-17
1.08179e-16
1.54777e-17
-2.14303e-17
1.00577e-16
6.21986e-17
9.97894e-17
1.42832e-17
-1.98361e-17
9.30433e-17
5.75333e-17
9.23491e-17
1.32258e-17
-1.84133e-17
8.63561e-17
5.34034e-17
8.57342e-17
1.22903e-17
-1.71383e-17
8.0322e-17
4.96612e-17
7.97929e-17
1.14386e-17
-1.59987e-17
7.49032e-17
4.63065e-17
7.44617e-17
1.06728e-17
-1.49731e-17
7.0028e-17
4.32893e-17
6.96645e-17
9.9829e-18
-1.40477e-17
6.56283e-17
4.05675e-17
6.53349e-17
9.35989e-18
-1.32096e-17
6.16537e-17
3.81098e-17
6.14187e-17
8.79657e-18
-1.24487e-17
5.80605e-17
3.58916e-17
5.78603e-17
8.28236e-18
-1.17588e-17
5.47673e-17
3.38523e-17
5.46311e-17
7.82187e-18
-1.11221e-17
5.17574e-17
3.19931e-17
5.16755e-17
7.39668e-18
-1.05434e-17
4.90056e-17
3.02923e-17
4.89687e-17
7.00501e-18
-1.00139e-17
4.64848e-17
2.87342e-17
4.64886e-17
6.64758e-18
-9.52597e-18
4.41739e-17
2.73065e-17
4.42092e-17
6.31823e-18
-9.07672e-18
4.20606e-17
2.6004e-17
4.2105e-17
6.01132e-18
-8.66581e-18
4.00838e-17
2.47782e-17
4.01697e-17
5.73493e-18
-8.27809e-18
3.82524e-17
2.36473e-17
3.83716e-17
5.47551e-18
-7.92168e-18
3.65572e-17
2.25981e-17
3.67019e-17
5.23248e-18
-7.59156e-18
3.4986e-17
2.16284e-17
3.51525e-17
5.0088e-18
-7.28334e-18
3.35328e-17
2.07311e-17
3.37145e-17
4.80205e-18
-6.99504e-18
3.22017e-17
1.99125e-17
3.23796e-17
4.61052e-18
-6.72597e-18
3.09116e-17
1.9113e-17
3.11171e-17
4.42988e-18
-6.47285e-18
2.97069e-17
1.83659e-17
2.99306e-17
4.25549e-18
-6.23827e-18
2.85769e-17
1.76649e-17
2.88168e-17
4.09033e-18
-6.01794e-18
2.75186e-17
1.70087e-17
2.7772e-17
3.93656e-18
-5.80989e-18
2.65247e-17
1.63928e-17
2.67896e-17
3.79285e-18
-5.61375e-18
2.55885e-17
1.58129e-17
2.58635e-17
3.65715e-18
-5.4282e-18
2.47054e-17
1.52652e-17
2.49884e-17
3.52885e-18
-5.25353e-18
2.38727e-17
1.47503e-17
2.41637e-17
3.40926e-18
-5.08647e-18
2.3092e-17
1.42668e-17
2.33845e-17
3.29584e-18
-4.92883e-18
2.23644e-17
1.38215e-17
2.26418e-17
3.18646e-18
-4.78226e-18
2.16524e-17
1.3376e-17
2.19463e-17
3.08895e-18
-4.63529e-18
2.09697e-17
1.29549e-17
2.12757e-17
2.99261e-18
-4.49938e-18
2.03258e-17
1.25549e-17
2.06366e-17
2.89816e-18
-4.37081e-18
1.97106e-17
1.21727e-17
2.00264e-17
2.80784e-18
-4.24833e-18
1.9126e-17
1.18105e-17
1.94462e-17
2.72302e-18
-4.13054e-18
-1.87547e-16
1.85664e-17
1.14621e-17
1.889e-17
2.6406e-18
-4.01866e-18
-1.82338e-16
1.80331e-17
1.11306e-17
1.83588e-17
2.56151e-18
-3.91196e-18
-1.77358e-16
1.75232e-17
1.08146e-17
1.78522e-17
2.48767e-18
-3.80889e-18
-1.7259e-16
1.70351e-17
1.05108e-17
1.73657e-17
2.41531e-18
-3.71058e-18
-1.68021e-16
1.65703e-17
1.0224e-17
1.69037e-17
2.3498e-18
-3.61481e-18
-1.63629e-16
1.61356e-17
9.95718e-18
1.64667e-17
2.29007e-18
-3.52187e-18
)
;
    }
    wedge2
    {
        type            wedge;
        value           nonuniform List<scalar> 
346
(
5.8496e-15
6.55216e-15
2.02276e-14
5.49121e-15
-1.53575e-14
6.18625e-15
5.62081e-15
1.36543e-14
2.91002e-15
-6.24199e-15
4.86702e-15
3.8392e-15
7.79742e-15
1.30554e-15
-2.12146e-15
3.5745e-15
2.5845e-15
4.73934e-15
7.04543e-16
-9.89765e-16
2.60955e-15
1.78948e-15
3.11027e-15
4.41254e-16
-5.89107e-16
1.94847e-15
1.29388e-15
2.18329e-15
3.04009e-16
-3.97608e-16
1.49503e-15
9.73223e-16
1.61446e-15
2.23474e-16
-2.90596e-16
1.17648e-15
7.55958e-16
1.2406e-15
1.71544e-16
-2.22776e-16
9.46327e-16
6.02667e-16
9.81865e-16
1.35958e-16
-1.76742e-16
7.75504e-16
4.9074e-16
7.95409e-16
1.10424e-16
-1.43896e-16
6.45578e-16
4.06595e-16
6.56574e-16
9.14304e-17
-1.19534e-16
5.44675e-16
3.41815e-16
5.50431e-16
7.69019e-17
-1.00907e-16
4.64853e-16
2.90917e-16
4.67481e-16
6.55305e-17
-8.63121e-17
4.00692e-16
2.50214e-16
4.01437e-16
5.64506e-17
-7.46449e-17
3.48384e-16
2.17157e-16
3.4801e-16
4.90727e-17
-6.51666e-17
3.05271e-16
1.90022e-16
3.04242e-16
4.30245e-17
-5.73405e-17
2.69337e-16
1.67457e-16
2.67939e-16
3.79847e-17
-5.08148e-17
2.39082e-16
1.48492e-16
2.37504e-16
3.37306e-17
-4.53227e-17
2.13456e-16
1.32483e-16
2.1183e-16
3.016e-17
-4.06319e-17
1.91561e-16
1.18819e-16
1.89946e-16
2.70976e-17
-3.66185e-17
1.72708e-16
1.07058e-16
1.71147e-16
2.44441e-17
-3.31644e-17
1.56436e-16
9.69416e-17
1.54968e-16
2.21831e-17
-3.01465e-17
1.42289e-16
8.81519e-17
1.40915e-16
2.02086e-17
-2.75179e-17
1.29935e-16
8.04792e-17
1.28649e-16
1.8476e-17
-2.52153e-17
1.19069e-16
7.37395e-17
1.17893e-16
1.69603e-17
-2.31812e-17
1.09492e-16
6.78014e-17
1.08417e-16
1.56182e-17
-2.13838e-17
1.01013e-16
6.25476e-17
1.00037e-16
1.44294e-17
-1.97877e-17
9.34671e-17
5.78725e-17
9.25892e-17
1.3368e-17
-1.83664e-17
8.671e-17
5.36792e-17
8.59385e-17
1.24133e-17
-1.70974e-17
8.07173e-17
4.99792e-17
8.00188e-17
1.15731e-17
-1.59542e-17
7.53431e-17
4.66579e-17
7.47098e-17
1.08198e-17
-1.49249e-17
7.05032e-17
4.36679e-17
6.99319e-17
1.01412e-17
-1.39952e-17
6.6132e-17
4.09682e-17
6.56186e-17
9.52806e-18
-1.31539e-17
6.21662e-17
3.85189e-17
6.17108e-17
8.97151e-18
-1.23902e-17
5.85508e-17
3.62834e-17
5.81666e-17
8.46841e-18
-1.16924e-17
5.52829e-17
3.42697e-17
5.49305e-17
8.0023e-18
-1.10626e-17
5.23055e-17
3.2431e-17
5.19856e-17
7.58132e-18
-1.04827e-17
4.95802e-17
3.07492e-17
4.92936e-17
7.19836e-18
-9.94961e-18
4.70785e-17
2.92057e-17
4.68217e-17
6.8449e-18
-9.46085e-18
4.47729e-17
2.77828e-17
4.45481e-17
6.52031e-18
-9.01018e-18
4.26335e-17
2.64593e-17
4.24565e-17
6.22431e-18
-8.59007e-18
4.06837e-17
2.52603e-17
4.05163e-17
5.94357e-18
-8.20874e-18
3.88819e-17
2.41477e-17
3.8727e-17
5.68705e-18
-7.85192e-18
3.72084e-17
2.31165e-17
3.70689e-17
5.45128e-18
-7.51922e-18
3.56498e-17
2.21532e-17
3.55249e-17
5.22969e-18
-7.21023e-18
3.41892e-17
2.12508e-17
3.40817e-17
5.02156e-18
-6.92267e-18
3.28026e-17
2.03905e-17
3.27278e-17
4.82576e-18
-6.65346e-18
3.15531e-17
1.9621e-17
3.14763e-17
4.64413e-18
-6.40248e-18
3.03803e-17
1.88991e-17
3.0308e-17
4.47905e-18
-6.16416e-18
2.92807e-17
1.82222e-17
2.92121e-17
4.32557e-18
-5.94007e-18
2.82446e-17
1.75838e-17
2.81801e-17
4.17972e-18
-5.72981e-18
2.72677e-17
1.69814e-17
2.72072e-17
4.04127e-18
-5.53156e-18
2.63468e-17
1.64131e-17
2.62896e-17
3.91081e-18
-5.34472e-18
2.5477e-17
1.58768e-17
2.54234e-17
3.78769e-18
-5.16724e-18
2.46529e-17
1.5367e-17
2.46014e-17
3.6694e-18
-5.00082e-18
2.38653e-17
1.48803e-17
2.38209e-17
3.55748e-18
-4.84225e-18
2.31064e-17
1.44058e-17
2.30846e-17
3.45306e-18
-4.68856e-18
2.24076e-17
1.39784e-17
2.23756e-17
3.34752e-18
-4.55008e-18
2.17497e-17
1.35698e-17
2.17108e-17
3.25074e-18
-4.41429e-18
2.11182e-17
1.31803e-17
2.10788e-17
3.16132e-18
-4.28396e-18
2.05187e-17
1.28104e-17
2.04777e-17
3.07636e-18
-4.15946e-18
1.99451e-17
1.24553e-17
1.99022e-17
2.99393e-18
-4.04139e-18
-1.86538e-16
1.93991e-17
1.21189e-17
1.93549e-17
2.91661e-18
-3.92781e-18
-1.81318e-16
1.8876e-17
1.17961e-17
1.88311e-17
2.84294e-18
-3.81879e-18
-1.76325e-16
1.83757e-17
1.14862e-17
1.83284e-17
2.7706e-18
-3.71528e-18
-1.71548e-16
1.78968e-17
1.11909e-17
1.78482e-17
2.70293e-18
-3.61558e-18
-1.66973e-16
1.74352e-17
1.09035e-17
1.73838e-17
2.63421e-18
-3.5214e-18
-1.62598e-16
1.69815e-17
1.06197e-17
1.69321e-17
2.56515e-18
-3.432e-18
)
;
    }
    axis
    {
        type            empty;
        value           nonuniform 0();
    }
    procBoundary42to36
    {
        type            processor;
        value           nonuniform List<scalar> 
69
(
6.00851e-07
5.84089e-07
5.68062e-07
5.52721e-07
5.38027e-07
5.23938e-07
0.00011581
0.00012119
9.94827e-05
7.49307e-05
5.58042e-05
4.22781e-05
3.27592e-05
2.59552e-05
2.09787e-05
1.7252e-05
1.43994e-05
1.21728e-05
1.04045e-05
8.97905e-06
7.81467e-06
6.85251e-06
6.04934e-06
5.37285e-06
4.79849e-06
4.30737e-06
3.88471e-06
3.51886e-06
3.20051e-06
2.92214e-06
2.67765e-06
2.462e-06
2.27105e-06
2.10136e-06
1.95003e-06
1.81462e-06
1.69309e-06
1.58367e-06
1.48487e-06
1.39541e-06
1.31419e-06
1.24025e-06
1.17278e-06
1.11105e-06
1.05444e-06
1.00241e-06
9.54471e-07
9.10208e-07
8.69251e-07
8.31275e-07
7.95991e-07
7.63143e-07
7.32504e-07
7.03873e-07
6.7707e-07
6.51934e-07
6.28322e-07
6.06106e-07
5.85169e-07
5.65408e-07
5.46731e-07
5.29052e-07
5.12296e-07
4.96394e-07
4.81283e-07
4.66907e-07
4.53215e-07
-5.9209e-05
4.4016e-07
)
;
    }
    procBoundary42to37
    {
        type            processor;
        value           uniform 5.82388e-05;
    }
    procBoundary42to43
    {
        type            processor;
        value           nonuniform List<scalar> 5(4.88505e-05 3.89378e-05 2.8494e-05 1.7512e-05 5.98425e-06);
    }
}


// ************************************************************************* //
