/*--------------------------------*- C++ -*----------------------------------*\
  =========                 |
  \\      /  F ield         | OpenFOAM: The Open Source CFD Toolbox
   \\    /   O peration     | Website:  https://openfoam.org
    \\  /    A nd           | Version:  7
     \\/     M anipulation  |
\*---------------------------------------------------------------------------*/
FoamFile
{
    version     2.0;
    format      ascii;
    class       volScalarField;
    location    "3.4";
    object      T;
}
// * * * * * * * * * * * * * * * * * * * * * * * * * * * * * * * * * * * * * //

dimensions      [0 0 0 1 0 0 0];

internalField   nonuniform List<scalar> 
12096
(
1.86613
1.86841
1.87369
1.88199
1.88848
1.88933
1.88857
1.88724
1.88509
1.88096
1.87595
1.87325
1.87184
1.87108
1.87068
1.8702
1.86923
1.86715
1.86415
1.86072
1.85807
1.85655
1.85543
1.85427
1.85309
1.85173
1.84993
1.84821
1.84691
1.84671
1.84846
1.85087
1.85091
1.84938
1.8473
1.84436
1.83942
1.83268
1.82757
1.82502
1.82295
1.82139
1.821
1.82151
1.82216
1.82106
1.81752
1.81324
1.80856
1.80425
1.80051
1.79729
1.7941
1.79163
1.79004
1.78915
1.7876
1.78355
1.77632
1.7677
1.75818
1.74882
1.74112
1.73511
1.72994
1.72623
1.72437
1.72304
1.72014
1.71412
1.70614
1.69846
1.69079
1.68339
1.67657
1.67112
1.66796
1.66622
1.66431
1.66101
1.65603
1.65008
1.64407
1.63796
1.63149
1.62496
1.61916
1.61411
1.60905
1.60376
1.59832
1.59349
1.58977
1.58684
1.58444
1.58226
1.58018
1.57981
1.58059
1.58106
1.57849
1.5736
1.56805
1.56207
1.5564
1.55321
1.55163
1.55063
1.55003
1.54979
1.5493
1.54743
1.54446
1.54173
1.54016
1.53959
1.54005
1.54265
1.54841
1.55263
1.55261
1.54943
1.54784
1.54505
1.54328
1.55249
1.58425
1.65052
1.71844
1.77193
1.80441
1.83375
1.84283
1.85321
1.85694
1.86014
1.8677
1.87722
1.88206
1.88127
1.88014
1.87889
1.87523
1.86866
1.85979
1.84877
1.84031
1.83837
1.83865
1.84235
1.85059
1.85655
1.85661
1.85456
1.85242
1.85075
1.85035
1.85094
1.85224
1.85319
1.85372
1.85345
1.85129
1.84756
1.84546
1.84494
1.84432
1.84278
1.84041
1.83843
1.83748
1.83815
1.84286
1.85036
1.85396
1.85431
1.85208
1.84568
1.8324
1.81766
1.81185
1.81155
1.81312
1.81644
1.8206
1.82585
1.83357
1.84509
1.85609
1.85907
1.85838
1.857
1.85555
1.85348
1.84719
1.83403
1.82215
1.81872
1.81786
1.81784
1.81932
1.82442
1.83178
1.83583
1.83625
1.83514
1.83204
1.82665
1.81957
1.81377
1.81228
1.81528
1.82281
1.8305
1.83702
1.84446
1.85212
1.8549
1.85303
1.84635
1.83906
1.83122
1.82029
1.80991
1.80742
1.80835
1.81173
1.81674
1.82338
1.8306
1.83454
1.83452
1.83237
1.8294
1.82621
1.82253
1.81836
1.81584
1.81521
1.81526
1.8168
1.82009
1.82313
1.8234
1.82205
1.82041
1.81831
1.81333
1.80278
1.79295
1.78805
1.78733
1.86584
1.86638
1.86859
1.87462
1.88392
1.88962
1.88975
1.88891
1.88746
1.8848
1.88058
1.87613
1.87333
1.87192
1.87136
1.87075
1.86943
1.86675
1.86208
1.85792
1.85636
1.8557
1.85556
1.85475
1.85345
1.85169
1.84968
1.84844
1.8477
1.84788
1.85014
1.85312
1.85369
1.85268
1.85107
1.84906
1.84557
1.83962
1.83299
1.82914
1.82707
1.8252
1.82438
1.82438
1.82534
1.82615
1.82563
1.82281
1.81927
1.81586
1.81182
1.80743
1.80354
1.79972
1.79637
1.79513
1.79542
1.79534
1.79278
1.78697
1.77954
1.77079
1.76168
1.75445
1.7484
1.74391
1.74165
1.74104
1.73981
1.73425
1.72591
1.71804
1.71029
1.70277
1.69582
1.69024
1.68824
1.68868
1.68919
1.68721
1.6808
1.67237
1.66415
1.65626
1.64873
1.64133
1.63441
1.62868
1.62404
1.61984
1.61557
1.61142
1.6074
1.60333
1.59924
1.59473
1.59036
1.5875
1.58663
1.58681
1.5866
1.58431
1.57978
1.57442
1.56887
1.56331
1.55973
1.55737
1.55517
1.55317
1.55145
1.54965
1.54744
1.54567
1.54436
1.54416
1.54504
1.54998
1.55695
1.55817
1.55779
1.55662
1.56202
1.57995
1.62504
1.68301
1.74758
1.78838
1.81708
1.83657
1.84607
1.85402
1.86057
1.86396
1.8687
1.87406
1.88076
1.88611
1.88772
1.887
1.88595
1.88175
1.87186
1.85867
1.84758
1.84341
1.84314
1.84496
1.85134
1.85977
1.86358
1.86367
1.86204
1.85988
1.85863
1.85854
1.8586
1.85845
1.85784
1.85657
1.85447
1.85075
1.8461
1.84399
1.84393
1.84458
1.84498
1.84485
1.84433
1.84421
1.84589
1.85145
1.85798
1.85983
1.85932
1.85638
1.84937
1.83443
1.81815
1.81115
1.80988
1.81013
1.81225
1.81758
1.82524
1.83533
1.84852
1.86024
1.86339
1.86242
1.86073
1.85924
1.85669
1.84971
1.83699
1.82606
1.8226
1.82174
1.82195
1.82433
1.83014
1.83651
1.8391
1.83934
1.83886
1.83622
1.82835
1.81611
1.80602
1.80294
1.80358
1.80862
1.8201
1.83479
1.85017
1.86259
1.86693
1.8661
1.86
1.84868
1.83461
1.81933
1.80877
1.80655
1.80707
1.80934
1.81429
1.82321
1.83339
1.83796
1.83808
1.83648
1.83328
1.8286
1.82255
1.8179
1.81644
1.81623
1.81689
1.81997
1.82432
1.8265
1.82587
1.82436
1.82272
1.82011
1.81499
1.80694
1.80019
1.79615
1.79267
1.79039
1.86587
1.86562
1.86609
1.86927
1.87689
1.88571
1.8895
1.88935
1.88832
1.88685
1.88453
1.88108
1.87701
1.87375
1.87167
1.87031
1.86848
1.86466
1.85905
1.85592
1.85488
1.85445
1.85463
1.8546
1.85356
1.85214
1.85108
1.85044
1.85007
1.85058
1.85242
1.85447
1.85532
1.85479
1.85351
1.85206
1.84985
1.84555
1.83897
1.83349
1.83074
1.82893
1.82743
1.82669
1.82692
1.82874
1.83036
1.82978
1.82703
1.82377
1.8195
1.8136
1.80817
1.80451
1.80183
1.80134
1.80318
1.80629
1.8064
1.80344
1.79756
1.79054
1.78161
1.772
1.7656
1.76107
1.75827
1.75673
1.75514
1.75163
1.74502
1.73747
1.72986
1.72221
1.71509
1.71062
1.71062
1.71334
1.71439
1.71116
1.70261
1.69364
1.68483
1.67566
1.66686
1.65866
1.65087
1.64456
1.64051
1.63811
1.63572
1.63198
1.62664
1.62035
1.61422
1.60793
1.60212
1.59723
1.59449
1.59442
1.59633
1.59656
1.59366
1.58825
1.58204
1.57546
1.56905
1.5642
1.56068
1.55766
1.55496
1.55323
1.55193
1.55113
1.55069
1.5505
1.5526
1.55807
1.56303
1.56626
1.57681
1.60962
1.67119
1.73319
1.7846
1.81813
1.84507
1.85285
1.85609
1.86005
1.86225
1.8647
1.86716
1.87069
1.87598
1.88338
1.88898
1.89291
1.89365
1.89324
1.89065
1.88205
1.86724
1.85539
1.8509
1.85036
1.85308
1.86181
1.869
1.87017
1.86992
1.86884
1.86802
1.86795
1.86884
1.86943
1.86929
1.86847
1.8659
1.86129
1.85519
1.84916
1.84599
1.84528
1.84529
1.84553
1.84633
1.84811
1.85034
1.8545
1.86192
1.86765
1.86808
1.86671
1.86322
1.85532
1.83892
1.82079
1.81226
1.81024
1.80992
1.81035
1.81351
1.82116
1.83407
1.85085
1.86371
1.86713
1.86685
1.86527
1.86306
1.86002
1.8533
1.84103
1.83055
1.82744
1.82679
1.82689
1.82918
1.83526
1.8406
1.84207
1.84226
1.84205
1.84021
1.8331
1.81908
1.80716
1.80371
1.80335
1.80422
1.80921
1.82262
1.84626
1.8661
1.87085
1.87063
1.86854
1.86181
1.84557
1.82308
1.81041
1.80819
1.80814
1.80922
1.81232
1.81942
1.83113
1.83906
1.84083
1.84016
1.83725
1.83274
1.82682
1.82215
1.81983
1.81917
1.81935
1.82211
1.82746
1.82922
1.82811
1.82622
1.82369
1.82006
1.81456
1.8078
1.80355
1.8024
1.8017
1.80152
1.80046
1.8656
1.86524
1.86525
1.86663
1.87115
1.87893
1.88635
1.88892
1.88916
1.88864
1.88734
1.88525
1.88155
1.87649
1.87219
1.86907
1.86626
1.86209
1.85714
1.85461
1.85364
1.85306
1.85303
1.85341
1.85396
1.85388
1.8532
1.85276
1.85273
1.85351
1.85456
1.85542
1.85593
1.85591
1.85512
1.85395
1.85247
1.84998
1.84538
1.83895
1.83444
1.83248
1.8308
1.82933
1.82888
1.82938
1.83143
1.83264
1.83129
1.82823
1.82384
1.81812
1.81384
1.81134
1.8096
1.80931
1.81076
1.81403
1.81561
1.81452
1.81034
1.8051
1.79792
1.78877
1.782
1.77772
1.77444
1.77142
1.76809
1.76443
1.75937
1.75248
1.74543
1.73886
1.73474
1.73425
1.7355
1.73676
1.73588
1.7306
1.72201
1.71353
1.70476
1.6951
1.68545
1.67666
1.6685
1.66229
1.65924
1.65819
1.65677
1.65236
1.64489
1.6374
1.62989
1.62199
1.61493
1.60892
1.60504
1.60473
1.60767
1.61013
1.60853
1.60293
1.59598
1.58859
1.5801
1.57253
1.56762
1.56415
1.56108
1.55903
1.55865
1.55841
1.55897
1.56013
1.56376
1.57154
1.58729
1.63201
1.69717
1.77037
1.81987
1.85309
1.86724
1.87136
1.87425
1.87391
1.87335
1.87309
1.87322
1.8749
1.87647
1.87935
1.8838
1.88877
1.89442
1.89873
1.89926
1.89819
1.89282
1.88059
1.8686
1.86395
1.8631
1.86511
1.87306
1.88014
1.88171
1.8815
1.88012
1.87851
1.87785
1.87828
1.88027
1.88146
1.88125
1.87946
1.87447
1.8661
1.85733
1.85198
1.85007
1.84914
1.84837
1.84834
1.85054
1.85494
1.86232
1.87235
1.87788
1.8776
1.87574
1.8723
1.86396
1.84626
1.82632
1.81714
1.81419
1.81308
1.81288
1.81379
1.81838
1.82989
1.84915
1.86568
1.86987
1.87
1.86947
1.86764
1.86449
1.85775
1.84562
1.83556
1.83288
1.83228
1.83221
1.83377
1.83885
1.84373
1.84525
1.84538
1.84519
1.84373
1.83804
1.8271
1.81692
1.81139
1.80847
1.80766
1.80868
1.81551
1.8335
1.8567
1.86774
1.87061
1.87068
1.86867
1.8595
1.83722
1.816
1.81141
1.81141
1.81207
1.8139
1.8186
1.82705
1.83495
1.84007
1.84162
1.84062
1.8378
1.83459
1.83174
1.82904
1.82767
1.8273
1.82837
1.8306
1.83067
1.82986
1.82879
1.82627
1.82085
1.81313
1.80692
1.80529
1.80544
1.80614
1.80715
1.80957
1.81413
1.86611
1.8654
1.86519
1.86577
1.86781
1.87223
1.87971
1.88753
1.89049
1.89033
1.88939
1.88802
1.88532
1.8802
1.87395
1.86904
1.86467
1.85984
1.8553
1.85322
1.85234
1.85169
1.85152
1.85192
1.8533
1.85484
1.85511
1.8551
1.85527
1.8558
1.85649
1.85675
1.85667
1.85659
1.85635
1.85559
1.85465
1.85328
1.85024
1.8448
1.83855
1.83499
1.83319
1.83152
1.83008
1.82971
1.83015
1.83174
1.83255
1.83089
1.82792
1.82481
1.82162
1.81915
1.8177
1.81738
1.81738
1.8181
1.81994
1.82054
1.81908
1.81536
1.81062
1.80469
1.79734
1.79063
1.78587
1.78131
1.7764
1.77168
1.76765
1.76388
1.76064
1.75881
1.75842
1.75922
1.75922
1.75695
1.75195
1.74589
1.73925
1.73127
1.72276
1.71337
1.70392
1.69541
1.68827
1.6835
1.68062
1.67846
1.67546
1.66981
1.66179
1.65376
1.64554
1.63718
1.62951
1.62267
1.6189
1.61863
1.62099
1.62401
1.62346
1.61818
1.61035
1.60226
1.59278
1.58352
1.5774
1.57324
1.57013
1.56761
1.5675
1.56858
1.57128
1.5798
1.60367
1.65481
1.72135
1.79733
1.84362
1.87319
1.87903
1.8897
1.89428
1.89559
1.89498
1.89217
1.88898
1.88931
1.89126
1.89249
1.895
1.89864
1.90058
1.90239
1.90508
1.9057
1.90521
1.90187
1.89348
1.88464
1.88125
1.88081
1.88304
1.8897
1.89693
1.89913
1.89896
1.89815
1.89671
1.89555
1.89527
1.89543
1.89552
1.89481
1.89334
1.88991
1.88224
1.87198
1.86436
1.8606
1.85852
1.85665
1.85543
1.8563
1.86072
1.86999
1.88267
1.88852
1.88823
1.88619
1.88328
1.87566
1.85772
1.83554
1.82562
1.8226
1.82089
1.81981
1.8197
1.82156
1.82916
1.84526
1.86271
1.86982
1.87235
1.87288
1.87219
1.86926
1.86274
1.85139
1.84175
1.83911
1.83866
1.83858
1.83968
1.84343
1.84668
1.84748
1.84773
1.8476
1.8463
1.84166
1.83191
1.82253
1.81913
1.81809
1.81767
1.81827
1.82218
1.83303
1.85072
1.8639
1.86907
1.87016
1.86953
1.86523
1.85332
1.83355
1.81986
1.81675
1.81696
1.81865
1.82292
1.82853
1.83251
1.83535
1.83756
1.83916
1.83983
1.8395
1.83829
1.83784
1.83793
1.83937
1.84172
1.84247
1.84157
1.83919
1.83599
1.83153
1.82436
1.81449
1.80732
1.80577
1.80594
1.80812
1.81183
1.81677
1.82402
1.83408
1.86857
1.8659
1.86556
1.86555
1.86588
1.86774
1.87305
1.8826
1.88987
1.89064
1.88994
1.88903
1.88737
1.88375
1.87778
1.87074
1.86377
1.85718
1.85314
1.85173
1.851
1.85041
1.85025
1.85059
1.852
1.85428
1.85634
1.85705
1.85741
1.8578
1.8582
1.85832
1.85804
1.85758
1.85707
1.85658
1.85585
1.85487
1.85315
1.84939
1.84312
1.83744
1.83429
1.83229
1.83059
1.82913
1.82859
1.82949
1.83217
1.83381
1.83321
1.8314
1.82931
1.82655
1.82423
1.82268
1.82136
1.82094
1.82174
1.82396
1.82444
1.82278
1.81946
1.81488
1.8074
1.7974
1.78911
1.78354
1.77922
1.77584
1.77469
1.77563
1.77774
1.77932
1.78035
1.7798
1.77684
1.77076
1.76434
1.75814
1.75228
1.74619
1.7387
1.73054
1.72245
1.7153
1.70989
1.70559
1.70166
1.69698
1.69095
1.68413
1.67714
1.66929
1.66135
1.65342
1.64589
1.64032
1.6367
1.63538
1.63567
1.63717
1.63745
1.63355
1.62521
1.6165
1.60708
1.59711
1.5901
1.58475
1.58084
1.57984
1.58091
1.58985
1.62161
1.6751
1.75496
1.82245
1.86849
1.88796
1.89974
1.90792
1.91013
1.91652
1.92083
1.92048
1.91828
1.91492
1.91451
1.91565
1.91965
1.92363
1.92439
1.92434
1.92342
1.92201
1.9211
1.91885
1.91377
1.90693
1.90267
1.90156
1.90207
1.90497
1.91111
1.91874
1.92258
1.92267
1.92234
1.92142
1.92044
1.9199
1.91972
1.9192
1.91741
1.91472
1.91022
1.90218
1.89189
1.88378
1.87892
1.87558
1.87265
1.8703
1.86988
1.87183
1.88009
1.89354
1.90006
1.90084
1.89941
1.89639
1.88976
1.87333
1.85019
1.83827
1.83499
1.83269
1.83065
1.83013
1.83091
1.83587
1.84826
1.8634
1.87008
1.87277
1.87411
1.87433
1.8725
1.86694
1.85728
1.84918
1.84735
1.84724
1.84719
1.84802
1.85024
1.85166
1.85157
1.8514
1.85078
1.84891
1.84462
1.83702
1.8304
1.82799
1.82759
1.82785
1.82996
1.83529
1.84426
1.85505
1.86434
1.87044
1.87243
1.87205
1.86888
1.86095
1.84942
1.83883
1.83097
1.82673
1.82652
1.82879
1.83207
1.83538
1.8368
1.83677
1.83699
1.83818
1.84089
1.84417
1.84653
1.84853
1.8522
1.85673
1.85827
1.8579
1.85614
1.85168
1.84415
1.83322
1.82049
1.81206
1.80942
1.80926
1.8099
1.81297
1.82027
1.83092
1.84458
1.84969
1.87312
1.86884
1.86589
1.86525
1.86526
1.86572
1.86854
1.87612
1.88634
1.89031
1.88999
1.88941
1.8884
1.8862
1.88151
1.8735
1.86301
1.85458
1.85166
1.85092
1.85037
1.84981
1.84952
1.84963
1.85062
1.85306
1.85585
1.85774
1.85869
1.85932
1.85981
1.85979
1.85954
1.85898
1.858
1.85701
1.85619
1.85529
1.85386
1.85082
1.84556
1.83897
1.83454
1.83221
1.83048
1.82898
1.82788
1.82798
1.8304
1.83517
1.83725
1.83676
1.83491
1.83247
1.82913
1.82619
1.82441
1.82343
1.82374
1.82578
1.82754
1.82705
1.82444
1.82019
1.81221
1.80051
1.79157
1.78753
1.785
1.78363
1.78382
1.78704
1.79272
1.79513
1.79491
1.79147
1.78523
1.77836
1.77233
1.76669
1.76245
1.75883
1.75391
1.74794
1.74177
1.73584
1.73032
1.72491
1.71875
1.71164
1.70433
1.69711
1.69046
1.68401
1.67737
1.67074
1.66495
1.66046
1.65654
1.65303
1.6508
1.65024
1.65032
1.6482
1.64083
1.63182
1.62274
1.61276
1.60474
1.59845
1.59724
1.6047
1.63484
1.69572
1.78009
1.84696
1.89479
1.90943
1.92381
1.92509
1.92951
1.93501
1.93898
1.94383
1.94547
1.94477
1.94482
1.9458
1.94837
1.95135
1.95446
1.95651
1.9566
1.95439
1.9506
1.94685
1.94163
1.93419
1.92796
1.92631
1.92688
1.93022
1.93572
1.94255
1.9497
1.95404
1.9544
1.95431
1.95348
1.95191
1.9506
1.94936
1.94786
1.94551
1.94229
1.93711
1.92814
1.91671
1.90811
1.90334
1.89957
1.89585
1.89276
1.89164
1.89212
1.89789
1.90872
1.91477
1.91644
1.91545
1.91191
1.90543
1.89145
1.8703
1.85634
1.85182
1.84889
1.8459
1.84404
1.84407
1.84757
1.85823
1.87192
1.87729
1.87812
1.87796
1.87708
1.87426
1.86901
1.86148
1.85663
1.85601
1.85661
1.8579
1.85967
1.86118
1.86131
1.86055
1.85938
1.85756
1.85398
1.84769
1.84089
1.83768
1.83735
1.83872
1.84098
1.84478
1.85115
1.86047
1.86858
1.87311
1.87511
1.87519
1.87506
1.87328
1.86852
1.86176
1.85636
1.85335
1.85009
1.84507
1.84104
1.84075
1.84164
1.84178
1.84049
1.83846
1.83821
1.83968
1.84489
1.8526
1.85966
1.86554
1.87035
1.87294
1.87315
1.87276
1.87065
1.86385
1.85009
1.83359
1.82308
1.81951
1.81857
1.81846
1.81946
1.82318
1.83264
1.84733
1.85804
1.85944
1.87482
1.87205
1.868
1.86555
1.86508
1.86522
1.86656
1.87077
1.87925
1.88764
1.89042
1.8902
1.88942
1.88778
1.88385
1.8754
1.86301
1.85381
1.85122
1.85054
1.84991
1.84922
1.84855
1.8483
1.84879
1.85088
1.85463
1.8582
1.86028
1.86101
1.86106
1.86116
1.86109
1.86048
1.85931
1.85778
1.85634
1.85509
1.85353
1.85103
1.84663
1.84046
1.83507
1.83215
1.83061
1.82938
1.82834
1.82799
1.82927
1.83334
1.83795
1.83925
1.83841
1.83659
1.83405
1.83047
1.8282
1.82691
1.82639
1.82678
1.828
1.82814
1.82619
1.8222
1.81561
1.80642
1.79897
1.79554
1.79372
1.79305
1.79408
1.79711
1.80045
1.80234
1.80063
1.79503
1.78817
1.78245
1.77805
1.77529
1.77371
1.77186
1.76872
1.7644
1.75945
1.75367
1.74714
1.73983
1.73158
1.72336
1.71571
1.70843
1.70205
1.6971
1.69297
1.68905
1.68488
1.68046
1.67585
1.6712
1.66739
1.66457
1.66305
1.66139
1.65629
1.64789
1.63904
1.62868
1.62216
1.62851
1.65705
1.72417
1.80015
1.87803
1.91996
1.94161
1.95109
1.94958
1.95445
1.95519
1.95919
1.96443
1.97014
1.97444
1.97646
1.97829
1.98089
1.98432
1.98827
1.99089
1.99196
1.99174
1.98989
1.98645
1.98066
1.97245
1.96332
1.95792
1.95763
1.95954
1.96381
1.97109
1.9802
1.98773
1.99181
1.99244
1.99225
1.99153
1.99052
1.98906
1.987
1.98393
1.98016
1.97599
1.96984
1.9599
1.94759
1.93834
1.9327
1.92774
1.92325
1.91985
1.91899
1.91999
1.92569
1.93219
1.9354
1.93632
1.93505
1.93077
1.92374
1.91142
1.89383
1.88035
1.87402
1.86955
1.86552
1.86274
1.86223
1.86447
1.87351
1.88512
1.88882
1.88897
1.88761
1.88429
1.87891
1.87146
1.86467
1.86265
1.86372
1.86706
1.87059
1.87319
1.87478
1.87522
1.87477
1.87321
1.8702
1.86483
1.85705
1.85037
1.84807
1.84831
1.85017
1.85491
1.86322
1.8717
1.87898
1.88429
1.88797
1.88912
1.88814
1.88455
1.88055
1.87828
1.87707
1.87532
1.87474
1.87466
1.87342
1.86903
1.86202
1.85651
1.85346
1.8505
1.84694
1.84466
1.84444
1.84673
1.85457
1.86559
1.87441
1.88034
1.88444
1.88692
1.88774
1.88729
1.88441
1.87472
1.857
1.8423
1.83721
1.83561
1.83491
1.83489
1.83639
1.84229
1.85202
1.8602
1.86576
1.86599
1.87491
1.87287
1.86978
1.86686
1.86576
1.86568
1.86648
1.86893
1.87373
1.88171
1.88852
1.88994
1.88919
1.8878
1.88468
1.87675
1.86372
1.85388
1.85086
1.85007
1.84946
1.84881
1.84811
1.8476
1.84777
1.84907
1.85266
1.85827
1.86186
1.862
1.86196
1.86193
1.86167
1.86111
1.86009
1.85836
1.8563
1.85441
1.85254
1.8502
1.8469
1.84223
1.83693
1.83343
1.83176
1.83067
1.82966
1.82941
1.82986
1.8317
1.83576
1.83968
1.84024
1.83915
1.83752
1.83522
1.83186
1.82912
1.82787
1.82697
1.82701
1.82709
1.82598
1.82354
1.82021
1.81495
1.8084
1.8042
1.80316
1.80334
1.80337
1.80349
1.80341
1.80232
1.79986
1.7963
1.79287
1.79045
1.78831
1.78678
1.78555
1.7837
1.78102
1.77739
1.77249
1.76663
1.75915
1.74956
1.73948
1.73082
1.72343
1.71661
1.71157
1.70948
1.70878
1.70747
1.7041
1.69932
1.69444
1.68961
1.68486
1.68006
1.67632
1.67376
1.66993
1.66405
1.65554
1.66046
1.69077
1.75812
1.83789
1.9126
1.94999
1.97912
1.98444
1.98634
1.98117
1.97744
1.98052
1.9866
1.9969
2.00497
2.0112
2.01525
2.01758
2.01958
2.02201
2.02575
2.02972
2.03163
2.03186
2.03077
2.02655
2.01898
2.00915
2.0001
1.99636
1.99692
1.99957
2.00362
2.00989
2.01838
2.02648
2.03043
2.03083
2.03054
2.03021
2.0297
2.02899
2.02734
2.02359
2.01883
2.01363
2.00625
1.99492
1.98152
1.97149
1.96482
1.95854
1.95286
1.94917
1.94874
1.9509
1.95657
1.96048
1.96193
1.96137
1.95777
1.95189
1.94394
1.93229
1.91799
1.90693
1.90069
1.8954
1.89014
1.88616
1.88458
1.88579
1.89344
1.90233
1.90433
1.90383
1.90134
1.89634
1.88842
1.87811
1.87056
1.86885
1.87049
1.87551
1.88191
1.88713
1.89041
1.89179
1.89197
1.8916
1.88933
1.8834
1.87499
1.86939
1.86857
1.86934
1.87111
1.87462
1.88057
1.88896
1.89798
1.90473
1.90825
1.90905
1.90763
1.90243
1.89629
1.89312
1.89289
1.89555
1.89976
1.90062
1.90066
1.90045
1.89709
1.88758
1.87549
1.86736
1.86252
1.85916
1.85742
1.85749
1.86109
1.87059
1.88317
1.89304
1.89789
1.89987
1.90082
1.90104
1.89996
1.89552
1.88552
1.8735
1.86627
1.86274
1.86109
1.86085
1.86168
1.86518
1.87051
1.87703
1.88185
1.88231
1.88058
1.87466
1.87269
1.87073
1.86857
1.86754
1.86747
1.86793
1.86944
1.87186
1.87624
1.88341
1.88841
1.8885
1.88741
1.88479
1.87807
1.86557
1.85453
1.85074
1.84981
1.84932
1.84884
1.84828
1.84767
1.84739
1.84781
1.85034
1.85593
1.86106
1.86191
1.86181
1.86187
1.86173
1.86116
1.85997
1.85806
1.85558
1.85309
1.85099
1.84897
1.84663
1.84359
1.83978
1.83603
1.83362
1.83245
1.83161
1.83091
1.83044
1.83066
1.83265
1.83725
1.8409
1.84112
1.84003
1.83832
1.83531
1.83091
1.82738
1.82607
1.82549
1.82579
1.82675
1.82632
1.82436
1.82168
1.81787
1.8133
1.81017
1.80835
1.80684
1.8045
1.80187
1.79991
1.79953
1.80053
1.80117
1.80075
1.80012
1.79857
1.79576
1.7928
1.78964
1.78559
1.78061
1.77383
1.76422
1.75318
1.74378
1.73655
1.73049
1.72602
1.72409
1.72391
1.7243
1.72399
1.72145
1.71674
1.71132
1.70578
1.69995
1.69408
1.68704
1.68595
1.68476
1.68946
1.72203
1.79033
1.88138
1.94996
1.99548
2.01741
2.02816
2.02799
2.01878
2.01131
2.00826
2.00808
2.01576
2.03078
2.04389
2.05103
2.05462
2.05672
2.05821
2.06019
2.06394
2.06933
2.07321
2.07426
2.07336
2.06873
2.05935
2.04781
2.03943
2.03724
2.03858
2.04172
2.04575
2.05103
2.05716
2.06248
2.06494
2.06513
2.06507
2.06538
2.06611
2.06652
2.06615
2.06344
2.05843
2.05266
2.04438
2.03137
2.0158
2.00396
1.99617
1.98857
1.98176
1.979
1.9798
1.98375
1.98887
1.99123
1.99137
1.98888
1.98283
1.97489
1.96476
1.95218
1.94039
1.93299
1.92803
1.92338
1.91883
1.9147
1.9121
1.91265
1.91809
1.92307
1.92396
1.92273
1.91905
1.91257
1.90265
1.89011
1.88136
1.87942
1.88069
1.88611
1.89444
1.90159
1.90652
1.91004
1.91249
1.91415
1.9144
1.91132
1.90362
1.89864
1.89877
1.90078
1.90341
1.90698
1.91228
1.91966
1.92777
1.93416
1.93712
1.93741
1.93566
1.9294
1.92145
1.91707
1.91579
1.91617
1.92021
1.92762
1.93091
1.93093
1.93042
1.92693
1.91566
1.89879
1.88677
1.88123
1.87814
1.87716
1.87841
1.8837
1.89244
1.90329
1.91321
1.91777
1.91873
1.91874
1.91773
1.91395
1.90713
1.9012
1.89966
1.8994
1.89834
1.89754
1.89783
1.89957
1.90375
1.90812
1.90941
1.90881
1.907
1.89932
1.87295
1.87224
1.87116
1.87072
1.87012
1.86996
1.87016
1.8705
1.87097
1.87246
1.87695
1.88378
1.88649
1.88598
1.88421
1.87924
1.86845
1.85615
1.85077
1.84972
1.84924
1.84874
1.8482
1.84756
1.84717
1.8475
1.84909
1.8529
1.85835
1.86145
1.8615
1.86142
1.86126
1.86067
1.85943
1.85765
1.85524
1.85231
1.84983
1.84815
1.84662
1.84476
1.842
1.83863
1.83553
1.8334
1.83217
1.83128
1.83038
1.8297
1.83025
1.83372
1.83933
1.84188
1.84148
1.84021
1.83812
1.83377
1.82881
1.8264
1.82577
1.82586
1.82782
1.82937
1.82922
1.82771
1.82426
1.8188
1.81327
1.80908
1.80525
1.80162
1.79944
1.79926
1.80183
1.80675
1.80985
1.81078
1.81004
1.80703
1.80315
1.799
1.79435
1.78905
1.78263
1.77435
1.76502
1.75699
1.75126
1.74663
1.74291
1.7403
1.73945
1.73956
1.73925
1.73787
1.73517
1.73077
1.72416
1.71693
1.7099
1.70395
1.70038
1.70522
1.73717
1.8092
1.9065
1.98392
2.04154
2.06331
2.07619
2.07392
2.06596
2.05274
2.04395
2.04267
2.04394
2.05236
2.06543
2.07741
2.08527
2.08964
2.092
2.094
2.0967
2.10137
2.10757
2.11217
2.11344
2.1129
2.10861
2.09794
2.08411
2.07535
2.07381
2.07532
2.07859
2.0831
2.08798
2.09226
2.09484
2.09492
2.09351
2.09305
2.09392
2.09645
2.09886
2.09955
2.0984
2.09433
2.08879
2.08001
2.06568
2.0477
2.03322
2.02404
2.01612
2.01066
2.00967
2.01152
2.01693
2.0218
2.02285
2.02143
2.01607
2.00768
1.99728
1.98451
1.97112
1.96107
1.95506
1.95173
1.95057
1.94961
1.94686
1.94448
1.9451
1.94776
1.94894
1.94868
1.94619
1.94131
1.93336
1.92155
1.90747
1.89828
1.8965
1.8974
1.90245
1.91201
1.92123
1.92751
1.93202
1.93608
1.94001
1.94278
1.9431
1.94084
1.93822
1.93863
1.94106
1.94402
1.94772
1.95267
1.95911
1.96621
1.97148
1.97274
1.9724
1.96963
1.96292
1.95442
1.94864
1.94606
1.94517
1.94552
1.94862
1.95526
1.96023
1.96056
1.95832
1.95288
1.94185
1.926
1.91231
1.90589
1.90453
1.90505
1.90797
1.9129
1.91853
1.92565
1.934
1.93845
1.93886
1.93866
1.93643
1.93154
1.92831
1.92866
1.93121
1.93482
1.93783
1.9407
1.94361
1.94735
1.95053
1.95057
1.94891
1.94386
1.93458
1.91573
1.87149
1.87228
1.87271
1.87258
1.87217
1.8719
1.87132
1.87079
1.87066
1.87081
1.87251
1.87743
1.88267
1.88347
1.88259
1.87947
1.87169
1.85978
1.85186
1.84937
1.8487
1.84835
1.84791
1.84744
1.8473
1.84736
1.84791
1.84979
1.85376
1.8587
1.86061
1.86042
1.8603
1.85999
1.85915
1.85763
1.85535
1.85259
1.84968
1.84755
1.84601
1.84429
1.84222
1.83952
1.83656
1.83395
1.83228
1.83124
1.83044
1.82988
1.82991
1.8317
1.8365
1.84114
1.84192
1.84134
1.84011
1.83753
1.83289
1.82842
1.82689
1.827
1.82813
1.82971
1.82989
1.82897
1.8263
1.82059
1.81293
1.80715
1.8041
1.80217
1.80113
1.80166
1.80567
1.81275
1.81613
1.81623
1.81459
1.81138
1.80704
1.801
1.79425
1.78757
1.78103
1.77505
1.77054
1.76696
1.76332
1.76005
1.75747
1.75625
1.75609
1.75501
1.75237
1.74914
1.74473
1.73882
1.73227
1.72529
1.71937
1.72067
1.74383
1.81542
1.916
2.00767
2.07306
2.10218
2.11957
2.12008
2.11189
2.09475
2.08235
2.0775
2.07803
2.08338
2.09194
2.10167
2.1092
2.1139
2.1175
2.12105
2.12439
2.12849
2.13389
2.13994
2.14473
2.14615
2.14528
2.14041
2.12922
2.11412
2.10466
2.10314
2.10443
2.10802
2.11255
2.11651
2.11903
2.11949
2.11744
2.11465
2.11357
2.1153
2.11996
2.12441
2.12625
2.12598
2.12311
2.11732
2.10845
2.09367
2.07382
2.05811
2.04915
2.04302
2.0401
2.04005
2.0429
2.04891
2.05313
2.05361
2.05109
2.04354
2.03304
2.01965
2.00371
1.98917
1.97971
1.97421
1.97232
1.973
1.97587
1.979
1.98084
1.98171
1.98217
1.98204
1.98004
1.97516
1.96839
1.95885
1.94527
1.93002
1.92085
1.91942
1.92057
1.92584
1.93612
1.9472
1.95486
1.96003
1.96512
1.97026
1.9746
1.97735
1.97885
1.98058
1.98415
1.98822
1.99151
1.99468
1.99866
2.00344
2.00836
2.01094
2.01096
2.00968
2.00593
1.99975
1.99252
1.98662
1.98246
1.97956
1.97786
1.97736
1.97781
1.98032
1.98387
1.98474
1.98195
1.97556
1.96747
1.95791
1.94806
1.94151
1.93971
1.94032
1.94219
1.94487
1.94742
1.95068
1.95576
1.96007
1.96053
1.96045
1.95952
1.95925
1.96148
1.96543
1.96991
1.97464
1.97972
1.98516
1.99041
1.9935
1.99348
1.99139
1.98481
1.97287
1.95596
1.93441
1.87356
1.87418
1.87415
1.87426
1.87345
1.87325
1.87259
1.87095
1.86982
1.8693
1.8694
1.8717
1.87718
1.88049
1.88031
1.87871
1.87384
1.86431
1.85419
1.84953
1.84835
1.84797
1.84763
1.84731
1.84703
1.84692
1.84698
1.84754
1.84963
1.85396
1.85833
1.85939
1.85927
1.85927
1.85894
1.85791
1.85611
1.85345
1.85027
1.84724
1.84508
1.84335
1.84153
1.83932
1.83685
1.83444
1.83271
1.83173
1.83105
1.83052
1.83033
1.83117
1.83378
1.83836
1.84191
1.84222
1.84148
1.84043
1.83845
1.83466
1.83046
1.82914
1.8292
1.82972
1.82979
1.82866
1.82565
1.81955
1.81222
1.80846
1.80696
1.80578
1.8052
1.80629
1.81031
1.81516
1.81808
1.8179
1.81544
1.81163
1.80611
1.79889
1.79203
1.78712
1.78387
1.78173
1.77981
1.77749
1.77497
1.77305
1.77212
1.77163
1.7695
1.76622
1.76126
1.7558
1.74966
1.74338
1.73908
1.73923
1.7554
1.81547
1.91394
2.01722
2.08887
2.13035
2.15099
2.1561
2.14911
2.134
2.11786
2.10846
2.10768
2.11102
2.11696
2.12579
2.13318
2.13726
2.13824
2.13947
2.14144
2.14592
2.15227
2.15867
2.16403
2.16756
2.16817
2.16686
2.1617
2.15008
2.1354
2.12711
2.12605
2.12716
2.13051
2.13425
2.13652
2.13714
2.13591
2.13309
2.13086
2.13088
2.1337
2.13889
2.14422
2.14658
2.14655
2.14354
2.13773
2.12853
2.11288
2.09369
2.08071
2.07445
2.07071
2.06895
2.06918
2.07187
2.07804
2.08161
2.08146
2.07778
2.06916
2.0574
2.04201
2.02395
2.0084
1.99851
1.99261
1.99125
1.99365
1.99988
2.00617
2.01078
2.0146
2.01746
2.0181
2.01637
2.01066
2.00171
1.98915
1.97338
1.95809
1.94942
1.94789
1.94901
1.95461
1.96592
1.97873
1.9876
1.99342
1.99923
2.00478
2.00939
2.01288
2.01584
2.01986
2.02554
2.03143
2.03663
2.04088
2.04469
2.04814
2.04985
2.04986
2.04831
2.04466
2.03994
2.03465
2.02943
2.02507
2.02145
2.01746
2.01327
2.00934
2.00593
2.00287
2.00119
2.00081
2.00092
2.00099
2.00032
1.99856
1.99615
1.99202
1.98637
1.98167
1.97864
1.9774
1.97749
1.97776
1.97832
1.97982
1.98277
1.98558
1.98785
1.9907
1.9947
1.99942
2.0043
2.00904
2.01398
2.01953
2.02543
2.02977
2.03029
2.02868
2.02223
2.00842
1.98996
1.97269
1.95554
1.8705
1.87165
1.87245
1.87299
1.87444
1.87483
1.87424
1.87224
1.86917
1.86785
1.86743
1.86822
1.87257
1.87727
1.8778
1.87693
1.87373
1.86687
1.85746
1.8508
1.84848
1.84775
1.84726
1.84683
1.84649
1.84623
1.846
1.8461
1.84713
1.84997
1.85439
1.85779
1.85839
1.85833
1.85832
1.85798
1.85705
1.85512
1.85169
1.84753
1.84416
1.84199
1.84018
1.83835
1.83647
1.83477
1.83353
1.83271
1.83193
1.83125
1.83104
1.83116
1.83205
1.83505
1.8401
1.84316
1.84363
1.84362
1.84292
1.84104
1.83675
1.83146
1.82909
1.82843
1.82742
1.82544
1.82221
1.81829
1.8148
1.81246
1.81132
1.81083
1.81142
1.81318
1.81437
1.81565
1.8167
1.81594
1.81275
1.80827
1.80332
1.79882
1.79504
1.79207
1.79022
1.78878
1.78752
1.78649
1.78597
1.78573
1.7844
1.78114
1.7766
1.77105
1.76376
1.75703
1.75301
1.75176
1.76245
1.8116
1.91221
2.01957
2.09796
2.14972
2.17206
2.18211
2.17939
2.16861
2.15109
2.13595
2.13081
2.13174
2.13587
2.14257
2.14939
2.15322
2.15516
2.15497
2.15486
2.15669
2.16217
2.16897
2.1756
2.18011
2.18189
2.18137
2.17899
2.17231
2.16085
2.14976
2.14531
2.14501
2.14587
2.14778
2.14941
2.1499
2.14914
2.14691
2.14459
2.14395
2.14548
2.14902
2.15463
2.15957
2.16147
2.16101
2.15762
2.15165
2.14158
2.12642
2.11099
2.10241
2.09877
2.09653
2.09533
2.09539
2.09795
2.1044
2.10687
2.10614
2.10092
2.09148
2.07905
2.06242
2.04349
2.02811
2.01866
2.01362
2.01289
2.01556
2.02283
2.03139
2.03864
2.04461
2.0492
2.05147
2.05132
2.04794
2.03919
2.02452
2.00647
1.99145
1.98454
1.98347
1.98437
1.98897
1.99843
2.01154
2.0226
2.02887
2.03538
2.04236
2.0481
2.05118
2.05258
2.05521
2.06055
2.06648
2.07215
2.07763
2.08196
2.08401
2.08416
2.08274
2.07862
2.07292
2.06756
2.06332
2.06069
2.05858
2.05639
2.05315
2.04867
2.04303
2.03569
2.02823
2.02229
2.01774
2.01579
2.01671
2.02177
2.02807
2.03183
2.03311
2.03323
2.03142
2.02562
2.01808
2.01201
2.00865
2.00714
2.00677
2.00759
2.01084
2.01602
2.02173
2.0267
2.03125
2.03559
2.03975
2.04374
2.04769
2.05158
2.0548
2.05576
2.05374
2.04777
2.0362
2.01956
2.00368
1.99319
1.97942
1.86405
1.866
1.86759
1.86972
1.87255
1.87397
1.87329
1.87145
1.86814
1.86589
1.86571
1.86619
1.86953
1.87447
1.87564
1.8749
1.87246
1.86766
1.86021
1.85275
1.84853
1.84688
1.84619
1.84574
1.8453
1.84485
1.84446
1.8444
1.8451
1.84714
1.85076
1.85499
1.85706
1.85719
1.85744
1.85761
1.85743
1.8563
1.85313
1.84795
1.84321
1.84034
1.8385
1.83706
1.8359
1.83486
1.83399
1.83341
1.83295
1.83243
1.8319
1.83171
1.83217
1.83366
1.83756
1.84339
1.8464
1.84647
1.84603
1.84504
1.84171
1.83456
1.82759
1.82381
1.82209
1.82089
1.81978
1.81874
1.81781
1.81685
1.81594
1.81588
1.81619
1.81651
1.81579
1.81395
1.81177
1.8101
1.80907
1.80709
1.80482
1.80289
1.80053
1.79807
1.79622
1.79533
1.79522
1.79582
1.79591
1.79383
1.79006
1.78527
1.77785
1.76978
1.76417
1.7611
1.76497
1.79937
1.88941
2.00216
2.09916
2.15693
2.18468
2.19714
2.20004
2.19418
2.18058
2.16442
2.15299
2.15093
2.15141
2.15353
2.15936
2.16372
2.16563
2.16575
2.16541
2.16574
2.16908
2.17469
2.18147
2.18754
2.19039
2.1907
2.18947
2.18565
2.17814
2.16769
2.16018
2.15867
2.15916
2.16023
2.16046
2.15989
2.15875
2.15685
2.15446
2.15294
2.15351
2.15629
2.16073
2.16701
2.17101
2.17218
2.17114
2.1674
2.1604
2.14975
2.13648
2.12674
2.12264
2.12047
2.11861
2.11755
2.11784
2.12152
2.12748
2.12848
2.12659
2.12024
2.11065
2.09657
2.07864
2.06039
2.04771
2.04113
2.03881
2.03882
2.04134
2.04742
2.05558
2.06392
2.07131
2.07735
2.08132
2.0824
2.08088
2.074
2.0599
2.04129
2.02711
2.02202
2.02175
2.02354