/*--------------------------------*- C++ -*----------------------------------*\
  =========                 |
  \\      /  F ield         | OpenFOAM: The Open Source CFD Toolbox
   \\    /   O peration     | Website:  https://openfoam.org
    \\  /    A nd           | Version:  7
     \\/     M anipulation  |
\*---------------------------------------------------------------------------*/
FoamFile
{
    version     2.0;
    format      ascii;
    class       volScalarField;
    location    "62.00019";
    object      p;
}
// * * * * * * * * * * * * * * * * * * * * * * * * * * * * * * * * * * * * * //

dimensions      [0 2 -2 0 0 0 0];

internalField   nonuniform List<scalar> 
5800
(
-0.225714
-0.225727
-0.225708
-0.225612
-0.225364
-0.225125
-0.224619
-0.224052
-0.223434
-0.22276
-0.222029
-0.221238
-0.220385
-0.21947
-0.21849
-0.217443
-0.216327
-0.215141
-0.21388
-0.212543
-0.211126
-0.20963
-0.208049
-0.206377
-0.204613
-0.202753
-0.200794
-0.198731
-0.19656
-0.194277
-0.191877
-0.18935
-0.186695
-0.183904
-0.180975
-0.177899
-0.17467
-0.171281
-0.167726
-0.163998
-0.160092
-0.156002
-0.151725
-0.147255
-0.142591
-0.137731
-0.132678
-0.127434
-0.122004
-0.116399
-0.110629
-0.10471
-0.0986598
-0.0925009
-0.0862597
-0.0799654
-0.0736509
-0.0673529
-0.061109
-0.0549593
-0.0489452
-0.043108
-0.0374882
-0.0321275
-0.0270542
-0.022326
-0.0179195
-0.0139788
-0.0102924
-0.00733925
-0.0042857
-0.00269837
0.000110315
-0.000553586
0.00302889
-0.225268
-0.224758
-0.224183
-0.223564
-0.22289
-0.222158
-0.221366
-0.220513
-0.219596
-0.218615
-0.217567
-0.21645
-0.215261
-0.213999
-0.212661
-0.211243
-0.209737
-0.208141
-0.20646
-0.204689
-0.202822
-0.200854
-0.198782
-0.196601
-0.194308
-0.191896
-0.18936
-0.186696
-0.183897
-0.180958
-0.177875
-0.174639
-0.171246
-0.167688
-0.163961
-0.160058
-0.155975
-0.151708
-0.147252
-0.142606
-0.137769
-0.13274
-0.127522
-0.122122
-0.116546
-0.110805
-0.104913
-0.0988887
-0.0927526
-0.0865301
-0.0802494
-0.0739424
-0.0676454
-0.0613946
-0.0552312
-0.0491964
-0.0433321
-0.0376798
-0.0322828
-0.0271703
-0.0224032
-0.0179575
-0.0139825
-0.0102643
-0.00728734
-0.00421786
-0.00261839
0.00017714
-0.000479354
0.00303055
-0.225519
-0.224998
-0.224406
-0.223784
-0.223107
-0.222372
-0.221578
-0.220722
-0.219803
-0.21882
-0.217769
-0.216649
-0.215458
-0.214192
-0.212849
-0.211426
-0.209921
-0.208328
-0.206634
-0.204854
-0.202979
-0.201004
-0.198924
-0.196735
-0.194432
-0.192011
-0.189466
-0.186792
-0.183985
-0.181038
-0.177948
-0.174707
-0.171309
-0.16775
-0.164023
-0.160123
-0.156047
-0.151788
-0.147345
-0.142715
-0.137896
-0.132889
-0.127696
-0.122322
-0.116774
-0.111062
-0.105198
-0.0991989
-0.0930847
-0.0868794
-0.0806104
-0.0743086
-0.0680114
-0.0617456
-0.0555676
-0.0495092
-0.0436146
-0.0379271
-0.0324913
-0.0273375
-0.0225297
-0.0180435
-0.0140328
-0.010282
-0.00727936
-0.00419409
-0.00257738
0.000200987
-0.000428501
0.00298611
-0.22587
-0.225326
-0.224705
-0.224076
-0.223396
-0.222656
-0.221858
-0.220999
-0.220077
-0.219091
-0.218038
-0.216916
-0.215722
-0.214454
-0.213109
-0.211683
-0.210172
-0.208574
-0.206884
-0.205094
-0.203211
-0.201229
-0.199141
-0.196945
-0.194634
-0.192205
-0.189653
-0.186972
-0.184158
-0.181206
-0.17811
-0.174865
-0.171465
-0.167905
-0.16418
-0.160285
-0.156216
-0.151968
-0.147538
-0.142924
-0.138124
-0.133138
-0.127969
-0.122619
-0.117097
-0.111409
-0.105569
-0.0995913
-0.0934949
-0.0873031
-0.0810412
-0.0747376
-0.0684335
-0.0621599
-0.0559598
-0.0498747
-0.0439477
-0.0382233
-0.0327475
-0.0275516
-0.0227026
-0.0181755
-0.0141289
-0.0103454
-0.00731624
-0.0042154
-0.00257745
0.000180914
-0.000403017
0.0028963
-0.226331
-0.225724
-0.225057
-0.22442
-0.223733
-0.222988
-0.222185
-0.221323
-0.220399
-0.219411
-0.218356
-0.217232
-0.216037
-0.214767
-0.21342
-0.211992
-0.21048
-0.208877
-0.207179
-0.205389
-0.203504
-0.201516
-0.199424
-0.197221
-0.194905
-0.19247
-0.189912
-0.187225
-0.184406
-0.181449
-0.17835
-0.175103
-0.171702
-0.168144
-0.164421
-0.160532
-0.15647
-0.152232
-0.147816
-0.143217
-0.138435
-0.13347
-0.128322
-0.122996
-0.117496
-0.111831
-0.106013
-0.10005
-0.0939662
-0.0877843
-0.0815265
-0.0752234
-0.068909
-0.0626198
-0.056397
-0.0502839
-0.0443234
-0.0385615
-0.0330457
-0.027808
-0.0229185
-0.0183512
-0.0142697
-0.010454
-0.00739847
-0.00428214
-0.00261985
0.000116986
-0.000403763
0.00276364
-0.226971
-0.226161
-0.225437
-0.22479
-0.224094
-0.223341
-0.222534
-0.221669
-0.220744
-0.219755
-0.2187
-0.217576
-0.216382
-0.215112
-0.213766
-0.212338
-0.210826
-0.209223
-0.207525
-0.205735
-0.203844
-0.201852
-0.199756
-0.19755
-0.195229
-0.19279
-0.190228
-0.187538
-0.184715
-0.181756
-0.178655
-0.175406
-0.172006
-0.16845
-0.164732
-0.160849
-0.156795
-0.152568
-0.148164
-0.143581
-0.138817
-0.133871
-0.128742
-0.123433
-0.117954
-0.112309
-0.106507
-0.100561
-0.0944897
-0.0883134
-0.082056
-0.0757481
-0.0694222
-0.063116
-0.0568696
-0.050728
-0.044734
-0.0389354
-0.0333806
-0.0281028
-0.0231745
-0.0185688
-0.0144541
-0.0106071
-0.00752617
-0.00439421
-0.00270489
1.0072e-05
-0.0004304
0.00259244
-0.227956
-0.226585
-0.225806
-0.225157
-0.224447
-0.223685
-0.222874
-0.222009
-0.221084
-0.220097
-0.219045
-0.217924
-0.216732
-0.215466
-0.214122
-0.212697
-0.211185
-0.209581
-0.207875
-0.206093
-0.204206
-0.202215
-0.200118
-0.197911
-0.195589
-0.193148
-0.190584
-0.187893
-0.185069
-0.182109
-0.179008
-0.175761
-0.172363
-0.168814
-0.165091
-0.161217
-0.157173
-0.152957
-0.148565
-0.143996
-0.139247
-0.134318
-0.129208
-0.12392
-0.118459
-0.11283
-0.107042
-0.101109
-0.0950452
-0.0888729
-0.0826144
-0.0763001
-0.0699617
-0.0636381
-0.0573682
-0.0511988
-0.0451728
-0.0393394
-0.033748
-0.0284326
-0.0234683
-0.0188265
-0.0146812
-0.0108043
-0.0076991
-0.00455113
-0.00283188
-0.000138348
-0.00048169
0.00238858
-0.228537
-0.227151
-0.226187
-0.225479
-0.224761
-0.223991
-0.223176
-0.222311
-0.22139
-0.220409
-0.219362
-0.218248
-0.217062
-0.215802
-0.214465
-0.213046
-0.211541
-0.209946
-0.208262
-0.206466
-0.204576
-0.202587
-0.200491
-0.198285
-0.195964
-0.193524
-0.19096
-0.18827
-0.185447
-0.182488
-0.179388
-0.176143
-0.172748
-0.1692
-0.165492
-0.161623
-0.157587
-0.153381
-0.149001
-0.144446
-0.139712
-0.134798
-0.129705
-0.124433
-0.118988
-0.113373
-0.107599
-0.101675
-0.0956185
-0.0894488
-0.0831882
-0.0768673
-0.0705166
-0.0641763
-0.0578844
-0.0516895
-0.0456341
-0.039769
-0.0341445
-0.0287949
-0.0237982
-0.0191234
-0.0149503
-0.011045
-0.00791659
-0.0047521
-0.00299926
-0.000326284
-0.000555852
0.00215907
-0.228742
-0.227767
-0.226531
-0.225722
-0.224998
-0.224226
-0.223406
-0.222543
-0.22163
-0.220657
-0.21962
-0.218516
-0.217341
-0.216092
-0.214764
-0.213354
-0.211857
-0.210265
-0.20858
-0.206798
-0.20492
-0.202939
-0.200849
-0.198647
-0.196331
-0.193894
-0.191335
-0.188647
-0.185828
-0.182872
-0.179776
-0.176536
-0.173146
-0.169603
-0.165902
-0.162041
-0.158014
-0.153818
-0.149451
-0.144908
-0.140189
-0.13529
-0.130212
-0.124955
-0.119524
-0.113923
-0.10816
-0.102246
-0.0961949
-0.0900276
-0.0837651
-0.0774383
-0.0710769
-0.0647221
-0.0584111
-0.052194
-0.0461131
-0.0402206
-0.0345673
-0.0291878
-0.024163
-0.0194583
-0.0152607
-0.0113284
-0.00817749
-0.004996
-0.00320473
-0.000551256
-0.000650873
0.00191149
-0.228289
-0.226788
-0.225855
-0.225127
-0.224356
-0.223533
-0.222673
-0.221768
-0.220808
-0.219786
-0.218698
-0.217538
-0.216304
-0.214991
-0.213596
-0.212114
-0.210539
-0.208865
-0.207092
-0.205221
-0.203247
-0.201166
-0.198973
-0.196664
-0.194235
-0.191682
-0.189001
-0.186187
-0.183238
-0.180148
-0.176914
-0.173531
-0.169995
-0.166303
-0.16245
-0.158433
-0.154249
-0.149893
-0.145364
-0.140658
-0.135773
-0.13071
-0.125468
-0.12005
-0.114462
-0.10871
-0.102805
-0.0967605
-0.0905966
-0.0843337
-0.0780033
-0.071634
-0.0652682
-0.0589422
-0.0527075
-0.0466061
-0.0406912
-0.0350145
-0.0296098
-0.0245614
-0.0198304
-0.0156113
-0.0116536
-0.0084801
-0.00528124
-0.00344546
-0.000810266
-0.000764742
0.00165336
-0.22862
-0.22692
-0.225838
-0.225102
-0.22434
-0.223516
-0.22266
-0.221769
-0.220826
-0.219823
-0.218755
-0.217616
-0.216403
-0.21511
-0.213734
-0.212268
-0.210704
-0.209027
-0.207276
-0.20543
-0.203476
-0.201411
-0.199231
-0.196935
-0.194517
-0.191975
-0.189303
-0.186499
-0.183559
-0.180478
-0.177253
-0.173879
-0.170353
-0.16667
-0.162828
-0.158822
-0.15465
-0.150307
-0.145791
-0.141098
-0.136229
-0.13118
-0.125953
-0.120549
-0.114974
-0.109234
-0.103339
-0.0973025
-0.0911441
-0.0848838
-0.0785532
-0.0721802
-0.0658082
-0.0594725
-0.0532259
-0.0471099
-0.0411784
-0.0354841
-0.0300593
-0.0249923
-0.0202386
-0.0160007
-0.0120191
-0.0088221
-0.00560574
-0.00371821
-0.00109979
-0.000895567
0.00139159
-0.228584
-0.226827
-0.22561
-0.224867
-0.224125
-0.223309
-0.222461
-0.221585
-0.220665
-0.219686
-0.218644
-0.217533
-0.216347
-0.215082
-0.213733
-0.212295
-0.210763
-0.209125
-0.20737
-0.205535
-0.203599
-0.201553
-0.199392
-0.197113
-0.194711
-0.192184
-0.189526
-0.186736
-0.183808
-0.180739
-0.177526
-0.174164
-0.17065
-0.16698
-0.163151
-0.159158
-0.154999
-0.15067
-0.146168
-0.141491
-0.136637
-0.131604
-0.126392
-0.121004
-0.115444
-0.109718
-0.103836
-0.0978096
-0.0916603
-0.0854066
-0.0790805
-0.0727092
-0.0663367
-0.0599975
-0.0537454
-0.0476216
-0.0416799
-0.0359742
-0.0305347
-0.0254539
-0.0206812
-0.0164268
-0.012423
-0.00920053
-0.00596674
-0.00401947
-0.00141578
-0.00104158
0.00113211
-0.226349
-0.225079
-0.224346
-0.223637
-0.222843
-0.222014
-0.221163
-0.220272
-0.219326
-0.218318
-0.217241
-0.21609
-0.21486
-0.213545
-0.212138
-0.210631
-0.209008
-0.207236
-0.205458
-0.203566
-0.201551
-0.199418
-0.197163
-0.194785
-0.192278
-0.189639
-0.186867
-0.183956
-0.180905
-0.177707
-0.174361
-0.170863
-0.167208
-0.163394
-0.159418
-0.155275
-0.150962
-0.146477
-0.141817
-0.136981
-0.131965
-0.126772
-0.121401
-0.115859
-0.110149
-0.104283
-0.0982718
-0.0921362
-0.0858944
-0.0795786
-0.0732153
-0.066849
-0.0605136
-0.054263
-0.0481385
-0.0421931
-0.0364825
-0.0310338
-0.0259438
-0.0211557
-0.0168865
-0.0128625
-0.00961176
-0.00636079
-0.00434559
-0.0017538
-0.00120109
0.000879671
-0.224113
-0.223436
-0.222783
-0.222035
-0.221247
-0.220435
-0.219584
-0.218681
-0.217717
-0.216686
-0.215581
-0.214395
-0.213125
-0.211763
-0.210306
-0.208746
-0.207066
-0.205193
-0.203331
-0.201364
-0.19927
-0.19705
-0.194702
-0.192222
-0.18961
-0.186862
-0.183974
-0.180945
-0.177769
-0.174444
-0.170965
-0.167331
-0.163536
-0.159579
-0.155456
-0.151163
-0.146699
-0.142059
-0.137243
-0.132248
-0.127076
-0.121727
-0.116206
-0.110517
-0.104672
-0.0986811
-0.0925648
-0.086341
-0.0800423
-0.0736941
-0.0673414
-0.0610173
-0.0547756
-0.0486577
-0.0427156
-0.0370063
-0.0315538
-0.0264589
-0.0216591
-0.0173761
-0.0133338
-0.0100516
-0.00678372
-0.00469276
-0.00210912
-0.00137241
0.000637799
-0.222577
-0.222018
-0.221455
-0.22079
-0.220074
-0.219324
-0.218533
-0.217688
-0.216783
-0.21581
-0.214763
-0.213634
-0.212419
-0.211111
-0.209703
-0.208186
-0.206547
-0.20478
-0.202871
-0.200951
-0.198914
-0.196741
-0.194433
-0.191989
-0.189408
-0.186691
-0.183834
-0.180833
-0.177685
-0.174386
-0.170934
-0.167325
-0.163556
-0.159623
-0.155524
-0.151256
-0.146816
-0.142201
-0.13741
-0.132441
-0.127295
-0.121972
-0.116477
-0.110815
-0.104996
-0.0990313
-0.092941
-0.0867423
-0.0804678
-0.0741424
-0.0678108
-0.0615058
-0.0552806
-0.0491767
-0.0432444
-0.0375424
-0.0320913
-0.0269953
-0.0221874
-0.0178912
-0.0138325
-0.0105153
-0.0072307
-0.00505704
-0.00247686
-0.00155374
0.000408907
-0.219982
-0.219553
-0.219019
-0.218414
-0.217758
-0.217052
-0.216288
-0.21546
-0.214562
-0.213588
-0.212531
-0.211386
-0.210146
-0.208805
-0.207356
-0.205788
-0.204083
-0.202227
-0.200258
-0.198279
-0.196179
-0.193934
-0.19154
-0.189003
-0.186327
-0.183509
-0.180545
-0.177433
-0.174169
-0.17075
-0.167173
-0.163435
-0.159533
-0.155465
-0.151227
-0.146818
-0.142233
-0.137473
-0.132535
-0.12742
-0.122129
-0.116667
-0.111037
-0.105251
-0.0993188
-0.0932613
-0.0870949
-0.0808522
-0.0745572
-0.0682545
-0.0619761
-0.0557746
-0.0496916
-0.0437755
-0.0380864
-0.0326418
-0.0275479
-0.0227353
-0.0184262
-0.0143532
-0.0109976
-0.00769631
-0.00543439
-0.00285219
-0.00174317
0.000194466
-0.217263
-0.217016
-0.216657
-0.216201
-0.215672
-0.215081
-0.214424
-0.213696
-0.212894
-0.212012
-0.211046
-0.209988
-0.208833
-0.207575
-0.206207
-0.204722
-0.20311
-0.201359
-0.199435
-0.197428
-0.195381
-0.193206
-0.19087
-0.188385
-0.185757
-0.182985
-0.180066
-0.176997
-0.173775
-0.170397
-0.16686
-0.163161
-0.159297
-0.155267
-0.151066
-0.146693
-0.142146
-0.137423
-0.132522
-0.127445
-0.122192
-0.116769
-0.111178
-0.105432
-0.0995397
-0.0935224
-0.0873958
-0.0811923
-0.0749355
-0.0686691
-0.0624249
-0.0562542
-0.0501987
-0.044305
-0.0386339
-0.0332006
-0.0281118
-0.0232981
-0.018976
-0.0148909
-0.0114938
-0.00817564
-0.0058213
-0.00323102
-0.00193891
-4.90289e-06
-0.21386
-0.213714
-0.213436
-0.213063
-0.212612
-0.212081
-0.211471
-0.210779
-0.210003
-0.209138
-0.208178
-0.207118
-0.205951
-0.204671
-0.20327
-0.20174
-0.200068
-0.198243
-0.196227
-0.194236
-0.192154
-0.189904
-0.187495
-0.184938
-0.18223
-0.17937
-0.176358
-0.17319
-0.169864
-0.166377
-0.162727
-0.15891
-0.154926
-0.150771
-0.146443
-0.14194
-0.137262
-0.132406
-0.127374
-0.122167
-0.11679
-0.111246
-0.105547
-0.0997025
-0.093733
-0.0876538
-0.0814971
-0.0752858
-0.069063
-0.0628597
-0.0567261
-0.0507038
-0.0448376
-0.0391884
-0.0337703
-0.0286883
-0.0238759
-0.0195398
-0.0154436
-0.0120016
-0.00866569
-0.00621551
-0.00361061
-0.00213968
-0.000189389
-0.210252
-0.210203
-0.210038
-0.20977
-0.209403
-0.20894
-0.208385
-0.207737
-0.206994
-0.206152
-0.205205
-0.20415
-0.202979
-0.201688
-0.20027
-0.198718
-0.197017
-0.19514
-0.192973
-0.190972
-0.188807
-0.186469
-0.183975
-0.181327
-0.178528
-0.175575
-0.172466
-0.169198
-0.165767
-0.162173
-0.158411
-0.15448
-0.150378
-0.146103
-0.141653
-0.137026
-0.132222
-0.127243
-0.122088
-0.116763
-0.111272
-0.105627
-0.0998359
-0.0939197
-0.0878933
-0.0817883
-0.075627
-0.0694517
-0.063293
-0.0571998
-0.051213
-0.0453767
-0.0397504
-0.0343489
-0.0292732
-0.0244631
-0.020111
-0.0160041
-0.0125141
-0.0091593
-0.00661188
-0.0039861
-0.00234345
-0.000359102
-0.205679
-0.205806
-0.205832
-0.205755
-0.205574
-0.20529
-0.204906
-0.204421
-0.203834
-0.203142
-0.202342
-0.201428
-0.200396
-0.19924
-0.197955
-0.196532
-0.194966
-0.193259
-0.191396
-0.189182
-0.187106
-0.184918
-0.182553
-0.180016
-0.177314
-0.174451
-0.171425
-0.168236
-0.16488
-0.161356
-0.157663
-0.153797
-0.149759
-0.145545
-0.141155
-0.136587
-0.131842
-0.126921
-0.121824
-0.116557
-0.111124
-0.105538
-0.0998054
-0.0939483
-0.0879805
-0.0819337
-0.0758291
-0.0697091
-0.0636027
-0.0575587
-0.0516165
-0.0458199
-0.0402262
-0.0348518
-0.029792
-0.0249944
-0.0206352
-0.0165262
-0.0129968
-0.00962735
-0.00699253
-0.00434227
-0.0025443
-0.00051227
-0.202669
-0.202809
-0.202845
-0.202775
-0.202598
-0.202316
-0.201929
-0.201436
-0.200835
-0.200122
-0.199295
-0.198348
-0.197277
-0.196078
-0.194746
-0.193278
-0.191673
-0.189913
-0.187985
-0.185763
-0.183528
-0.181187
-0.178687
-0.176028
-0.17321
-0.170232
-0.16709
-0.163782
-0.160307
-0.156662
-0.152846
-0.148856
-0.144693
-0.140353
-0.135837
-0.131143
-0.126275
-0.121233
-0.116023
-0.110648
-0.105121
-0.0994505
-0.0936569
-0.0877537
-0.0817731
-0.0757348
-0.0696816
-0.0636403
-0.0576602
-0.051778
-0.0460381
-0.0404943
-0.0351648
-0.0301389
-0.0253705
-0.0210227
-0.0169249
-0.013376
-0.00999975
-0.00730286
-0.0046286
-0.00271208
-0.000631728
-0.198932
-0.199174
-0.199313
-0.199346
-0.19927
-0.199085
-0.198792
-0.198388
-0.197873
-0.197243
-0.196494
-0.195621
-0.19462
-0.193486
-0.192212
-0.19079
-0.18921
-0.187451
-0.185499
-0.183514
-0.181423
-0.179175
-0.176759
-0.174179
-0.171437
-0.168531
-0.165459
-0.16222
-0.158812
-0.155234
-0.151484
-0.147559
-0.143461
-0.139186
-0.134736
-0.130109
-0.125309
-0.120336
-0.115196
-0.109894
-0.104441
-0.0988461
-0.09313
-0.0873057
-0.0814049
-0.0754467
-0.0694731
-0.0635099
-0.0576055
-0.0517948
-0.0461221
-0.0406379
-0.0353625
-0.0303784
-0.0256477
-0.0213176
-0.0172394
-0.0136771
-0.0103027
-0.00755265
-0.00486368
-0.00284509
-0.000728858
-0.194845
-0.195185
-0.195426
-0.195562
-0.195588
-0.195503
-0.195307
-0.194998
-0.194575
-0.194034
-0.193371
-0.192582
-0.191664
-0.19061
-0.189414
-0.188071
-0.186571
-0.184909
-0.183099
-0.181186
-0.179146
-0.176955
-0.174605
-0.172094
-0.169422
-0.166586
-0.163585
-0.160416
-0.157078
-0.153569
-0.149889
-0.146035
-0.142007
-0.137803
-0.133426
-0.128872
-0.124147
-0.11925
-0.114189
-0.108968
-0.103598
-0.0980878
-0.0924586
-0.0867228
-0.0809117
-0.0750436
-0.0691595
-0.0632844
-0.0574655
-0.051736
-0.0461399
-0.040724
-0.0355115
-0.0305765
-0.0258912
-0.0215845
-0.0175323
-0.0139603
-0.0105928
-0.0077916
-0.00509102
-0.00297205
-0.000822362
-0.190662
-0.191096
-0.191433
-0.191667
-0.191791
-0.191802
-0.191701
-0.191485
-0.191153
-0.1907
-0.190125
-0.189423
-0.188589
-0.187619
-0.186507
-0.185249
-0.183839
-0.182277
-0.180569
-0.178726
-0.176748
-0.174625
-0.172347
-0.169909
-0.16731
-0.164547
-0.161618
-0.158522
-0.155257
-0.151822
-0.148215
-0.144434
-0.140481
-0.136353
-0.132051
-0.127575
-0.122929
-0.118113
-0.113134
-0.107997
-0.102714
-0.0972923
-0.0917536
-0.0861098
-0.0803915
-0.0746165
-0.068825
-0.0630406
-0.0573098
-0.0516635
-0.0461461
-0.0408002
-0.0356522
-0.0307676
-0.0261288
-0.0218463
-0.0178207
-0.0142394
-0.0108785
-0.00802717
-0.00531343
-0.00309667
-0.000911908
-0.186407
-0.186929
-0.187357
-0.187682
-0.187898
-0.188
-0.187989
-0.187863
-0.187618
-0.187252
-0.186763
-0.186145
-0.185395
-0.184508
-0.18348
-0.182307
-0.180984
-0.179512
-0.177889
-0.176125
-0.174226
-0.17218
-0.169979
-0.167618
-0.165096
-0.16241
-0.159559
-0.15654
-0.153352
-0.149994
-0.146464
-0.142762
-0.138887
-0.134838
-0.130617
-0.126222
-0.121659
-0.116928
-0.112035
-0.106987
-0.101794
-0.0964647
-0.0910198
-0.0854713
-0.0798489
-0.0741699
-0.0684735
-0.0627821
-0.0571415
-0.0515803
-0.0461433
-0.0408686
-0.0357864
-0.0309529
-0.0263613
-0.0221033
-0.0181044
-0.0145144
-0.0111593
-0.00825901
-0.00553027
-0.00321888
-0.000996789
-0.182091
-0.182696
-0.183207
-0.183619
-0.183921
-0.184109
-0.184183
-0.184142
-0.183981
-0.1837
-0.183293
-0.182757
-0.18209
-0.181286
-0.180341
-0.179251
-0.178014
-0.176628
-0.175091
-0.173412
-0.171592
-0.169627
-0.167505
-0.165224
-0.162782
-0.160176
-0.157405
-0.154467
-0.151359
-0.148082
-0.144633
-0.141013
-0.13722
-0.133255
-0.129117
-0.124809
-0.120332
-0.115689
-0.110888
-0.105931
-0.100832
-0.095599
-0.0902515
-0.0848014
-0.0792781
-0.073698
-0.0680994
-0.0625035
-0.0569554
-0.0514812
-0.0461265
-0.0409246
-0.0359096
-0.0311282
-0.026585
-0.0223523
-0.0183806
-0.0147828
-0.0114331
-0.00848547
-0.00574028
-0.00333806
-0.00107651
-0.177735
-0.17842
-0.17901
-0.179502
-0.179885
-0.180155
-0.18031
-0.18035
-0.18027
-0.180069
-0.179742
-0.179287
-0.1787
-0.177976
-0.177113
-0.176107
-0.174953
-0.173652
-0.172203
-0.170608
-0.16887
-0.166985
-0.164944
-0.162744
-0.160383
-0.157859
-0.15517
-0.152314
-0.14929
-0.146096
-0.142732
-0.139196
-0.135488
-0.131609
-0.127559
-0.12334
-0.118953
-0.114402
-0.109694
-0.104833
-0.0998317
-0.0946974
-0.0894502
-0.0841014
-0.0786799
-0.073201
-0.0677026
-0.0622043
-0.0567506
-0.0513652
-0.0460944
-0.0409665
-0.03602
-0.031292
-0.026798
-0.0225915
-0.0186475
-0.0150429
-0.0116982
-0.00870556
-0.00594261
-0.00345386
-0.00115084
-0.173359
-0.17412
-0.174787
-0.175355
-0.175815
-0.176162
-0.176395
-0.176511
-0.176509
-0.176384
-0.176135
-0.175758
-0.175249
-0.174604
-0.173821
-0.172895
-0.171825
-0.170607
-0.169243
-0.167732
-0.166075
-0.164271
-0.162311
-0.160193
-0.157914
-0.155473
-0.152868
-0.150096
-0.147157
-0.144048
-0.14077
-0.137321
-0.133701
-0.129911
-0.125951
-0.121823
-0.11753
-0.113073
-0.108462
-0.103699
-0.0987971
-0.0937642
-0.0886197
-0.0833745
-0.0780567
-0.0726811
-0.0672847
-0.0618855
-0.0565278
-0.0512324
-0.0460467
-0.040994
-0.036117
-0.0314431
-0.0269991
-0.0228199
-0.0189037
-0.0152938
-0.0119538
-0.00891852
-0.00613661
-0.00356601
-0.00121966
-0.168977
-0.169812
-0.17055
-0.171192
-0.171725
-0.172146
-0.172453
-0.172643
-0.172715
-0.172665
-0.17249
-0.172188
-0.171755
-0.171187
-0.170481
-0.169635
-0.168645
-0.167509
-0.166227
-0.164799
-0.163223
-0.161499
-0.159621
-0.157585
-0.155389
-0.153032
-0.150511
-0.147824
-0.144971
-0.141949
-0.138758
-0.135398
-0.131868
-0.128169
-0.124301
-0.120266
-0.116068
-0.111708
-0.107195
-0.102532
-0.0977326
-0.0928031
-0.0877631
-0.0826232
-0.0774108
-0.0721399
-0.0668468
-0.0615479
-0.0562873
-0.0510828
-0.0459832
-0.0410064
-0.0361997
-0.0315808
-0.0271873
-0.0230363
-0.0191482
-0.0155345
-0.0121989
-0.00912366
-0.00632172
-0.00367427
-0.00128298
-0.164597
-0.165504
-0.166312
-0.167023
-0.167627
-0.168119
-0.168496
-0.168758
-0.168901
-0.168923
-0.168821
-0.168591
-0.168232
-0.167739
-0.167109
-0.16634
-0.165428
-0.164372
-0.163171
-0.161823
-0.160328
-0.158684
-0.156887
-0.154933
-0.152821
-0.150547
-0.14811
-0.145509
-0.142742
-0.139808
-0.136706
-0.133435
-0.129996
-0.126389
-0.122615
-0.118675
-0.114574
-0.110313
-0.105899
-0.101338
-0.096642
-0.0918173
-0.0868832
-0.0818498
-0.076744
-0.0715788
-0.0663899
-0.0611921
-0.0560293
-0.0509165
-0.0459036
-0.0410033
-0.0362674
-0.0317041
-0.0273615
-0.0232397
-0.0193799
-0.0157641
-0.0124325
-0.00932036
-0.00649749
-0.00377835
-0.00134089
-0.160229
-0.161204
-0.162079
-0.162857
-0.163529
-0.164089
-0.164535
-0.164865
-0.165077
-0.165169
-0.165137
-0.164978
-0.16469
-0.16427
-0.163714
-0.16302
-0.162185
-0.161207
-0.160085
-0.158817
-0.157401
-0.155837
-0.15412
-0.152248
-0.150218
-0.148027
-0.145676
-0.14316
-0.14048
-0.137634
-0.134621
-0.131441
-0.128093
-0.124579
-0.1209
-0.117056
-0.113052
-0.108891
-0.104579
-0.100121
-0.0955287
-0.0908098
-0.0859825
-0.0810564
-0.0760579
-0.070999
-0.0659149
-0.0608186
-0.0557541
-0.0507333
-0.0458075
-0.0409841
-0.0363194
-0.0318123
-0.027521
-0.0234294
-0.0195979
-0.0159818
-0.012654
-0.00950806
-0.0066636
-0.00387802
-0.00139359
-0.155879
-0.156919
-0.157859
-0.158702
-0.159439
-0.160064
-0.160575
-0.160972
-0.161251
-0.16141
-0.161446
-0.161356
-0.161138
-0.160789
-0.160305
-0.159685
-0.158925
-0.158023
-0.156978
-0.155788
-0.154451
-0.152965
-0.151328
-0.149537
-0.147589
-0.145482
-0.143214
-0.140785
-0.138191
-0.135433
-0.13251
-0.12942
-0.126165
-0.122745
-0.11916
-0.115414
-0.111508
-0.107447
-0.103237
-0.0988824
-0.0943956
-0.0897831
-0.0850632
-0.0802449
-0.0753541
-0.0704018
-0.0654227
-0.0604281
-0.055462
-0.0505334
-0.0456947
-0.0409486
-0.0363552
-0.0319049
-0.0276649
-0.0236046
-0.0198015
-0.016187
-0.0128627
-0.00968628
-0.00681982
-0.00397305
-0.00144133
-0.151554
-0.152657
-0.153658
-0.154561
-0.155361
-0.156049
-0.156624
-0.157084
-0.157428
-0.157652
-0.157754
-0.157732
-0.157582
-0.157302
-0.156889
-0.15634
-0.155654
-0.154826
-0.153857
-0.152743
-0.151484
-0.150076
-0.148518
-0.146807
-0.14494
-0.142916
-0.140733
-0.138388
-0.135882
-0.133212
-0.130378
-0.127379
-0.124217
-0.12089
-0.117401
-0.113752
-0.109945
-0.105985
-0.101877
-0.0976266
-0.0932453
-0.0887396
-0.0841272
-0.0794168
-0.0746337
-0.069788
-0.0649139
-0.060021
-0.0551532
-0.0503167
-0.0455651
-0.0408964
-0.0363742
-0.0319812
-0.0277926
-0.0237647
-0.01999
-0.0163791
-0.0130583
-0.00985464
-0.006966
-0.00406323
-0.00148439
-0.14726
-0.148422
-0.149481
-0.150443
-0.151301
-0.152049
-0.152685
-0.153207
-0.153613
-0.153901
-0.154067
-0.15411
-0.154027
-0.153814
-0.15347
-0.152992
-0.152377
-0.151623
-0.150727
-0.149689
-0.148506
-0.147175
-0.145696
-0.144064
-0.142278
-0.140336
-0.138236
-0.135977
-0.133556
-0.130974
-0.12823
-0.125322
-0.122252
-0.119019
-0.115626
-0.112074
-0.108367
-0.104507
-0.100502
-0.0963556
-0.0920799
-0.0876809
-0.083176
-0.0785734
-0.0738979
-0.0691586
-0.0643892
-0.0595977
-0.0548279
-0.0500833
-0.0454186
-0.0408272
-0.0363762
-0.032041
-0.0279038
-0.0239092
-0.0201631
-0.0165576
-0.0132404
-0.0100128
-0.0071021
-0.0041484
-0.0015231
-0.143004
-0.14422
-0.145334
-0.146351
-0.147265
-0.148071
-0.148764
-0.149345
-0.149811
-0.15016
-0.150389
-0.150495
-0.150476
-0.15033
-0.150053
-0.149644
-0.149099
-0.148416
-0.147593
-0.146629
-0.145521
-0.144267
-0.142864
-0.141312
-0.139606
-0.137745
-0.135728
-0.133553
-0.131219
-0.128724
-0.126069
-0.123252
-0.120274
-0.117135
-0.113838
-0.110383
-0.106775
-0.103016
-0.0991135
-0.0950713
-0.090901
-0.0866085
-0.082211
-0.0777158
-0.0731476
-0.0685142
-0.0638491
-0.0591585
-0.0544863
-0.0498333
-0.045255
-0.040741
-0.0363609
-0.0320838
-0.0279979
-0.0240378
-0.0203202
-0.0167223
-0.0134087
-0.0101605
-0.00722816
-0.00422841
-0.00155777
-0.13879
-0.140058
-0.141222
-0.14229
-0.143257
-0.144117
-0.144866
-0.145504
-0.146027
-0.146435
-0.146723
-0.146891
-0.146935
-0.146853
-0.146642
-0.146299
-0.145822
-0.14521
-0.144459
-0.143567
-0.142533
-0.141354
-0.140028
-0.138553
-0.136927
-0.135147
-0.133213
-0.131121
-0.128873
-0.126465
-0.123898
-0.121171
-0.118285
-0.115241
-0.112039
-0.108681
-0.105172
-0.101514
-0.0977136
-0.0937752
-0.0897101
-0.0855237
-0.0812331
-0.0768449
-0.0723833
-0.0678554
-0.0632939
-0.0587038
-0.0541285
-0.0495666
-0.0450743
-0.0406376
-0.0363281
-0.0321094
-0.0280747
-0.0241502
-0.0204612
-0.0168728
-0.0135632
-0.0102976
-0.00734424
-0.00430315
-0.00158871
-0.134626
-0.135939
-0.13715
-0.138267
-0.139283
-0.140193
-0.140995
-0.141686
-0.142264
-0.142728
-0.143075
-0.143302
-0.143406
-0.143386
-0.143239
-0.142961
-0.142552
-0.142008
-0.141327
-0.140506
-0.139545
-0.13844
-0.13719
-0.135792
-0.134244
-0.132544
-0.130691
-0.128683
-0.126519
-0.124198
-0.12172
-0.119083
-0.116289
-0.113337
-0.110231
-0.10697
-0.10356
-0.100002
-0.0963035
-0.0924685
-0.0885081
-0.0844275
-0.0802431
-0.0759614
-0.0716058
-0.0671826
-0.062724
-0.0582337
-0.0537546
-0.0492835
-0.0448766
-0.0405168
-0.0362776
-0.0321177
-0.0281341
-0.0242461
-0.0205859
-0.0170089
-0.0137038
-0.0104238
-0.00745048
-0.00437253
-0.00161623
-0.130514
-0.13187
-0.133124
-0.134284
-0.135346
-0.136304
-0.137154
-0.137896
-0.138527
-0.139044
-0.139446
-0.13973
-0.139894
-0.139934
-0.139848
-0.139634
-0.13929
-0.138812
-0.1382
-0.137449
-0.136559
-0.135528
-0.134352
-0.13303
-0.131559
-0.129939
-0.128167
-0.126242
-0.124162
-0.121927
-0.119536
-0.116989
-0.114286
-0.111427
-0.108415
-0.105251
-0.101939
-0.0984811
-0.0948843
-0.0911523
-0.0872961
-0.0833205
-0.0792418
-0.0750658
-0.0708155
-0.0664962
-0.0621398
-0.0577485
-0.0533649
-0.0489839
-0.0446617
-0.0403788
-0.0362094
-0.0321086
-0.028176
-0.0243254
-0.0206942
-0.0171305
-0.0138305
-0.0105392
-0.00754703
-0.0044365
-0.0016406
-0.126461
-0.127855
-0.129147
-0.130347
-0.131451
-0.132453
-0.133349
-0.134138
-0.134818
-0.135387
-0.135842
-0.13618
-0.1364
-0.136498
-0.136472
-0.13632
-0.136039
-0.135627
-0.135081
-0.134399
-0.133579
-0.132619
-0.131516
-0.130269
-0.128876
-0.127334
-0.125642
-0.123798
-0.121802
-0.119652
-0.117348
-0.11489
-0.112278
-0.109512
-0.106594
-0.103526
-0.100312
-0.096953
-0.0934571
-0.0898275
-0.0860747
-0.0822036
-0.0782298
-0.0741587
-0.0700128
-0.0657967
-0.0615415
-0.0572484
-0.0529595
-0.0486679
-0.0444299
-0.0402234
-0.0361234
-0.0320819
-0.0282002
-0.0243881
-0.0207861
-0.0172375
-0.0139434
-0.0106437
-0.00763409
-0.00449505
-0.00166206
-0.122471
-0.123897
-0.125223
-0.126459
-0.127601
-0.128643
-0.129582
-0.130416
-0.131142
-0.131759
-0.132264
-0.132655
-0.132928
-0.133083
-0.133115
-0.133022
-0.132802
-0.132453
-0.131973
-0.131358
-0.130606
-0.129717
-0.128686
-0.127513
-0.126195
-0.12473
-0.123117
-0.121355
-0.119441
-0.117376
-0.115159
-0.112788
-0.110266
-0.107592
-0.104768
-0.101795
-0.098678
-0.0954183
-0.0920227
-0.0884947
-0.0848447
-0.0810772
-0.0772075
-0.0732404
-0.069198
-0.0650842
-0.0609293
-0.0567336
-0.0525385
-0.0483358
-0.0441811
-0.0400508
-0.0360198
-0.0320378
-0.0282068
-0.024434
-0.0208616
-0.0173299
-0.0140426
-0.0107372
-0.00771186
-0.00454817
-0.00168082
-0.118546
-0.12
-0.121356
-0.122624
-0.123801
-0.12488
-0.125857
-0.126732
-0.127502
-0.128164
-0.128717
-0.129157
-0.129482
-0.12969
-0.129778
-0.129743
-0.129583
-0.129295
-0.128878
-0.128328
-0.127644
-0.126823
-0.125863
-0.124762
-0.123519
-0.12213
-0.120596
-0.118913
-0.117082
-0.1151
-0.112968
-0.110685
-0.108252
-0.105669
-0.102938
-0.10006
-0.0970395
-0.0938779
-0.0905818
-0.0871548
-0.0836068
-0.079942
-0.0761754
-0.0723115
-0.0683717
-0.0643591
-0.0603035
-0.0562043
-0.0521021
-0.0479875
-0.0439155
-0.0398611
-0.0358985
-0.0319761
-0.0281959
-0.0244632
-0.0209209
-0.0174078
-0.0141282
-0.0108198
-0.00778054
-0.00459589
-0.00169708
-0.114691
-0.116168
-0.11755
-0.118846
-0.120053
-0.121165
-0.122178
-0.123091
-0.123901
-0.124606
-0.125203
-0.12569
-0.126064
-0.126323
-0.126464
-0.126485
-0.126382
-0.126154
-0.125798
-0.125312
-0.124693
-0.12394
-0.123049
-0.12202
-0.120849
-0.119536
-0.118078
-0.116475
-0.114724
-0.112825
-0.110778
-0.108582
-0.106238
-0.103745
-0.101106
-0.0983222
-0.095397
-0.0923326
-0.0891353
-0.0858083
-0.0823614
-0.0787985
-0.0751341
-0.0713724
-0.067534
-0.0636217
-0.0596645
-0.0556608
-0.0516505
-0.0476233
-0.0436332
-0.0396542
-0.0357597
-0.0318971
-0.0281676
-0.0244759
-0.0209641
-0.0174711
-0.0142004
-0.0108916
-0.00784036
-0.00463826
-0.00171099
-0.110909
-0.112405
-0.113808
-0.115128
-0.116361
-0.117502
-0.118548
-0.119495
-0.120342
-0.121086
-0.121726
-0.122257
-0.122678
-0.122985
-0.123177
-0.123251
-0.123203
-0.123033
-0.122737
-0.122312
-0.121757
-0.12107
-0.120247
-0.119287
-0.118189
-0.116949
-0.115568
-0.114042
-0.112371
-0.110554
-0.10859
-0.10648
-0.104223
-0.10182
-0.0992724
-0.0965816
-0.0937512
-0.0907833
-0.0876838
-0.084456
-0.0811092
-0.0776472
-0.074084
-0.0704234
-0.0666854
-0.0628724
-0.0590124
-0.0551034
-0.0511839
-0.0472434
-0.0433344
-0.0394304
-0.0356036
-0.0318008
-0.0281221
-0.024472
-0.0209913
-0.01752
-0.0142594
-0.0109526
-0.00789153
-0.00467535
-0.00172268
-0.107202
-0.108712
-0.110133
-0.111472
-0.112728
-0.113895
-0.114969
-0.115948
-0.116828
-0.117609
-0.118287
-0.11886
-0.119325
-0.119678
-0.119919
-0.120043
-0.120049
-0.119934
-0.119696
-0.119331
-0.118838
-0.118215
-0.117458