/*--------------------------------*- C++ -*----------------------------------*\
  =========                 |
  \\      /  F ield         | OpenFOAM: The Open Source CFD Toolbox
   \\    /   O peration     | Website:  https://openfoam.org
    \\  /    A nd           | Version:  7
     \\/     M anipulation  |
\*---------------------------------------------------------------------------*/
FoamFile
{
    version     2.0;
    format      ascii;
    class       volScalarField;
    location    "60";
    object      p;
}
// * * * * * * * * * * * * * * * * * * * * * * * * * * * * * * * * * * * * * //

dimensions      [0 2 -2 0 0 0 0];

internalField   nonuniform List<scalar> 
15000
(
-0.260392
-0.26062
-0.260843
-0.261047
-0.261248
-0.261448
-0.261646
-0.26184
-0.26203
-0.262217
-0.262399
-0.262576
-0.262748
-0.262914
-0.263075
-0.26323
-0.26338
-0.263524
-0.263662
-0.263795
-0.263923
-0.264046
-0.264164
-0.264278
-0.264387
-0.264492
-0.264594
-0.264692
-0.264787
-0.264881
-0.264973
-0.265066
-0.265161
-0.26526
-0.265365
-0.265482
-0.265619
-0.265757
-0.265823
-0.266134
-0.259782
-0.260014
-0.260239
-0.260446
-0.26065
-0.260852
-0.261051
-0.261247
-0.261438
-0.261625
-0.261807
-0.261984
-0.262155
-0.26232
-0.262479
-0.262632
-0.262778
-0.262918
-0.263052
-0.263178
-0.263299
-0.263413
-0.26352
-0.263622
-0.263717
-0.263805
-0.263888
-0.263965
-0.264036
-0.264103
-0.264164
-0.264222
-0.264278
-0.264334
-0.26439
-0.264453
-0.26453
-0.264601
-0.26459
-0.264819
-0.259241
-0.259475
-0.259702
-0.259911
-0.260116
-0.260319
-0.26052
-0.260717
-0.260909
-0.261096
-0.261277
-0.261453
-0.261623
-0.261786
-0.261942
-0.262091
-0.262233
-0.262368
-0.262495
-0.262614
-0.262726
-0.262829
-0.262925
-0.263012
-0.263091
-0.263162
-0.263224
-0.263277
-0.263322
-0.263359
-0.263388
-0.263409
-0.263423
-0.263433
-0.263439
-0.263445
-0.263461
-0.263463
-0.263374
-0.263523
-0.258769
-0.259005
-0.259234
-0.259444
-0.25965
-0.259854
-0.260055
-0.260252
-0.260444
-0.26063
-0.260811
-0.260985
-0.261153
-0.261313
-0.261465
-0.26161
-0.261747
-0.261875
-0.261994
-0.262105
-0.262206
-0.262298
-0.26238
-0.262452
-0.262513
-0.262564
-0.262603
-0.262632
-0.262648
-0.262653
-0.262646
-0.262628
-0.262599
-0.262561
-0.262514
-0.262462
-0.262416
-0.26235
-0.262181
-0.262251
-0.25837
-0.258607
-0.258837
-0.259048
-0.259254
-0.259459
-0.259659
-0.259856
-0.260047
-0.260232
-0.260411
-0.260583
-0.260747
-0.260903
-0.261051
-0.261191
-0.261321
-0.261441
-0.261552
-0.261652
-0.261742
-0.261821
-0.261888
-0.261942
-0.261985
-0.262014
-0.262029
-0.26203
-0.262016
-0.261987
-0.261943
-0.261883
-0.261809
-0.26172
-0.261618
-0.261508
-0.261397
-0.261263
-0.261015
-0.261008
-0.258044
-0.258282
-0.258513
-0.258724
-0.25893
-0.259134
-0.259335
-0.25953
-0.259719
-0.259903
-0.260079
-0.260248
-0.260408
-0.26056
-0.260703
-0.260835
-0.260958
-0.26107
-0.261171
-0.26126
-0.261337
-0.261401
-0.261451
-0.261487
-0.261508
-0.261514
-0.261503
-0.261475
-0.261428
-0.261363
-0.261279
-0.261176
-0.261053
-0.260912
-0.260754
-0.260582
-0.260407
-0.260204
-0.259878
-0.259796
-0.257794
-0.258032
-0.258263
-0.258474
-0.25868
-0.258884
-0.259083
-0.259276
-0.259464
-0.259645
-0.259818
-0.259982
-0.260138
-0.260285
-0.260421
-0.260547
-0.260661
-0.260763
-0.260853
-0.260929
-0.260992
-0.261039
-0.261072
-0.261088
-0.261086
-0.261066
-0.261027
-0.260968
-0.260886
-0.260783
-0.260657
-0.260507
-0.260334
-0.260139
-0.259921
-0.259687
-0.259446
-0.259175
-0.258769
-0.258614
-0.257621
-0.257859
-0.25809
-0.258301
-0.258506
-0.258708
-0.258906
-0.259098
-0.259283
-0.25946
-0.259629
-0.259789
-0.25994
-0.26008
-0.260209
-0.260326
-0.260431
-0.260522
-0.260599
-0.260662
-0.260709
-0.260739
-0.260752
-0.260745
-0.26072
-0.260673
-0.260603
-0.26051
-0.260392
-0.260248
-0.260077
-0.259878
-0.259652
-0.259399
-0.25912
-0.258821
-0.258513
-0.258172
-0.257688
-0.257463
-0.257528
-0.257766
-0.257997
-0.258207
-0.258411
-0.258611
-0.258807
-0.258996
-0.259177
-0.259351
-0.259516
-0.259671
-0.259815
-0.259948
-0.260068
-0.260176
-0.26027
-0.260349
-0.260413
-0.26046
-0.26049
-0.260501
-0.260492
-0.260463
-0.260411
-0.260334
-0.260233
-0.260104
-0.259946
-0.259759
-0.25954
-0.25929
-0.259007
-0.258694
-0.25835
-0.257983
-0.257606
-0.257195
-0.256632
-0.256338
-0.257516
-0.257754
-0.257984
-0.258193
-0.258395
-0.258594
-0.258787
-0.258973
-0.259151
-0.25932
-0.259479
-0.259628
-0.259765
-0.25989
-0.260002
-0.260099
-0.260181
-0.260247
-0.260296
-0.260326
-0.260337
-0.260328
-0.260296
-0.260241
-0.260161
-0.260054
-0.259917
-0.259751
-0.259551
-0.259317
-0.259048
-0.258742
-0.2584
-0.258022
-0.25761
-0.257172
-0.256723
-0.25624
-0.255597
-0.255236
-0.257589
-0.257826
-0.258055
-0.258262
-0.258463
-0.258659
-0.258849
-0.259031
-0.259205
-0.259369
-0.259522
-0.259664
-0.259793
-0.259909
-0.26001
-0.260096
-0.260165
-0.260217
-0.260249
-0.260262
-0.260253
-0.260221
-0.260165
-0.260083
-0.259973
-0.259832
-0.259659
-0.259452
-0.259208
-0.258925
-0.258602
-0.258237
-0.257831
-0.257385
-0.2569
-0.256386
-0.255861
-0.255303
-0.254579
-0.254148
-0.257748
-0.257984
-0.258212
-0.258417
-0.258615
-0.258809
-0.258995
-0.259173
-0.259342
-0.2595
-0.259647
-0.259781
-0.259901
-0.260007
-0.260097
-0.26017
-0.260225
-0.260261
-0.260276
-0.260269
-0.260239
-0.260183
-0.260101
-0.25999
-0.259848
-0.259672
-0.25946
-0.25921
-0.258919
-0.258584
-0.258203
-0.257776
-0.257302
-0.256782
-0.256219
-0.255623
-0.255016
-0.25438
-0.253572
-0.253067
-0.257997
-0.258232
-0.258458
-0.258661
-0.258856
-0.259046
-0.259228
-0.259401
-0.259564
-0.259716
-0.259855
-0.25998
-0.260091
-0.260185
-0.260263
-0.260322
-0.260362
-0.260381
-0.260377
-0.26035
-0.260296
-0.260216
-0.260106
-0.259964
-0.259788
-0.259575
-0.259323
-0.259027
-0.258686
-0.258296
-0.257855
-0.257361
-0.256814
-0.256214
-0.255567
-0.254882
-0.254185
-0.253466
-0.252572
-0.251974
-0.258339
-0.258572
-0.258795
-0.258996
-0.259188
-0.259374
-0.259551
-0.259718
-0.259875
-0.260019
-0.260149
-0.260265
-0.260365
-0.260447
-0.260511
-0.260556
-0.260579
-0.260579
-0.260555
-0.260505
-0.260428
-0.260321
-0.260182
-0.260008
-0.259797
-0.259545
-0.25925
-0.258908
-0.258514
-0.258066
-0.257561
-0.256996
-0.25637
-0.255686
-0.254946
-0.254162
-0.253366
-0.252555
-0.251565
-0.250807
-0.258777
-0.259008
-0.259228
-0.259425
-0.259613
-0.259794
-0.259966
-0.260127
-0.260276
-0.260411
-0.260532
-0.260637
-0.260725
-0.260794
-0.260843
-0.260871
-0.260876
-0.260857
-0.260812
-0.260739
-0.260636
-0.260501
-0.260331
-0.260124
-0.259877
-0.259585
-0.259246
-0.258854
-0.258406
-0.257898
-0.257325
-0.256685
-0.255976
-0.255199
-0.254359
-0.253468
-0.252559
-0.251644
-0.250545
-0.249511
-0.259316
-0.259543
-0.25976
-0.259953
-0.260136
-0.260311
-0.260476
-0.260629
-0.260769
-0.260895
-0.261005
-0.261098
-0.261172
-0.261227
-0.26126
-0.26127
-0.261256
-0.261217
-0.261149
-0.261051
-0.260922
-0.260758
-0.260557
-0.260315
-0.26003
-0.259697
-0.259312
-0.258871
-0.258367
-0.257796
-0.257153
-0.256434
-0.255637
-0.254762
-0.253813
-0.252804
-0.251773
-0.250737
-0.249532
-0.24851
-0.259957
-0.26018
-0.260392
-0.26058
-0.260757
-0.260925
-0.261083
-0.261227
-0.261358
-0.261473
-0.261571
-0.261651
-0.261711
-0.261749
-0.261765
-0.261757
-0.261722
-0.26166
-0.261569
-0.261445
-0.261288
-0.261094
-0.26086
-0.260583
-0.26026
-0.259885
-0.259454
-0.258961
-0.2584
-0.257766
-0.257051
-0.256251
-0.255361
-0.254381
-0.253314
-0.252175
-0.251007
-0.249821
-0.248439
-0.247481
-0.260707
-0.260925
-0.261131
-0.261312
-0.261482
-0.261643
-0.261791
-0.261926
-0.262045
-0.262148
-0.262233
-0.262298
-0.262342
-0.262363
-0.26236
-0.262331
-0.262275
-0.262189
-0.262072
-0.261922
-0.261735
-0.26151
-0.261243
-0.26093
-0.260568
-0.26015
-0.259673
-0.259128
-0.258511
-0.257812
-0.257024
-0.25614
-0.255155
-0.254064
-0.252871
-0.25159
-0.250267
-0.248909
-0.247333
-0.246323
-0.261569
-0.26178
-0.261979
-0.262153
-0.262315
-0.262466
-0.262604
-0.262727
-0.262834
-0.262923
-0.262992
-0.263041
-0.263067
-0.263069
-0.263045
-0.262995
-0.262915
-0.262804
-0.26266
-0.262481
-0.262264
-0.262007
-0.261706
-0.261357
-0.260955
-0.260495
-0.259971
-0.259376
-0.258702
-0.257939
-0.257079
-0.256111
-0.255028
-0.253822
-0.252494
-0.251057
-0.24956
-0.248007
-0.246205
-0.24507
-0.262548
-0.262751
-0.262941
-0.263105
-0.263257
-0.263397
-0.263523
-0.263633
-0.263725
-0.263799
-0.263851
-0.263881
-0.263888
-0.263869
-0.263823
-0.263748
-0.263643
-0.263505
-0.263333
-0.263124
-0.262876
-0.262586
-0.262249
-0.261863
-0.261422
-0.26092
-0.260351
-0.259706
-0.258976
-0.258151
-0.257219
-0.256168
-0.254986
-0.253664
-0.252195
-0.25059
-0.248897
-0.24712
-0.245046
-0.24372
-0.263646
-0.263839
-0.264018
-0.264172
-0.264312
-0.264439
-0.264551
-0.264646
-0.264722
-0.264777
-0.264811
-0.264821
-0.264806
-0.264764
-0.264693
-0.264592
-0.26446
-0.264293
-0.264091
-0.263851
-0.26357
-0.263245
-0.262873
-0.262449
-0.261968
-0.261424
-0.26081
-0.260116
-0.259332
-0.258447
-0.257446
-0.256314
-0.255036
-0.253596
-0.251983
-0.2502
-0.248293
-0.24626
-0.243857
-0.242259
-0.264867
-0.265048
-0.265215
-0.265356
-0.265482
-0.265595
-0.265691
-0.265768
-0.265826
-0.265862
-0.265874
-0.265861
-0.265822
-0.265754
-0.265657
-0.265528
-0.265366
-0.265168
-0.264934
-0.26466
-0.264344
-0.263984
-0.263574
-0.263112
-0.262591
-0.262005
-0.261346
-0.260605
-0.259769
-0.258826
-0.257759
-0.256549
-0.255178
-0.253622
-0.251864
-0.249898
-0.247759
-0.245439
-0.242646
-0.240673
-0.266215
-0.266382
-0.266534
-0.266661
-0.266771
-0.266867
-0.266945
-0.267003
-0.26704
-0.267053
-0.267042
-0.267004
-0.266938
-0.266842
-0.266715
-0.266555
-0.266361
-0.26613
-0.265861
-0.265551
-0.265198
-0.2648
-0.264351
-0.263849
-0.263287
-0.262659
-0.261956
-0.261167
-0.260282
-0.259283
-0.258153
-0.25687
-0.25541
-0.253743
-0.251843
-0.249689
-0.247308
-0.244673
-0.241427
-0.238949
-0.267693
-0.267844
-0.267979
-0.268089
-0.268182
-0.268259
-0.268316
-0.268352
-0.268366
-0.268354
-0.268316
-0.268251
-0.268155
-0.268028
-0.267869
-0.267675
-0.267445
-0.267177
-0.26687
-0.266522
-0.26613
-0.26569
-0.265201
-0.264657
-0.264052
-0.26338
-0.262632
-0.261797
-0.260862
-0.25981
-0.258621
-0.257269
-0.255725
-0.253954
-0.251916
-0.249577
-0.246946
-0.243976
-0.240216
-0.23708
-0.269304
-0.269437
-0.269554
-0.269645
-0.269718
-0.269773
-0.269808
-0.269819
-0.269807
-0.269767
-0.2697
-0.269603
-0.269475
-0.269313
-0.269118
-0.268886
-0.268618
-0.26831
-0.267962
-0.267571
-0.267136
-0.266653
-0.266119
-0.26553
-0.26488
-0.264163
-0.263369
-0.262487
-0.261503
-0.260399
-0.259152
-0.257736
-0.256114
-0.254246
-0.25208
-0.249564
-0.246684
-0.243367
-0.239045
-0.235074
-0.271054
-0.271166
-0.271262
-0.271333
-0.271383
-0.271414
-0.271423
-0.271407
-0.271365
-0.271295
-0.271195
-0.271064
-0.270899
-0.2707
-0.270464
-0.270192
-0.26988
-0.269528
-0.269135
-0.268698
-0.268216
-0.267685
-0.267104
-0.266466
-0.265768
-0.265002
-0.264159
-0.263228
-0.262194
-0.261039
-0.259738
-0.25826
-0.256569
-0.254614
-0.252334
-0.249656
-0.246541
-0.242885
-0.237985
-0.233004
-0.272945
-0.273035
-0.273108
-0.273155
-0.273181
-0.273186
-0.273166
-0.27312
-0.273046
-0.272942
-0.272805
-0.272636
-0.272431
-0.272189
-0.27191
-0.271592
-0.271233
-0.270833
-0.27039
-0.269902
-0.269369
-0.268786
-0.268152
-0.267462
-0.266711
-0.265893
-0.264998
-0.264016
-0.26293
-0.261723
-0.26037
-0.258837
-0.257084
-0.255057
-0.252683
-0.24987
-0.246549
-0.242588
-0.237136
-0.230986
-0.274984
-0.27505
-0.275097
-0.275119
-0.275117
-0.275093
-0.275042
-0.274962
-0.274852
-0.27471
-0.274534
-0.274322
-0.274073
-0.273785
-0.273458
-0.273089
-0.272679
-0.272226
-0.271728
-0.271185
-0.270594
-0.269955
-0.269264
-0.268516
-0.267709
-0.266834
-0.265884
-0.264847
-0.263708
-0.26245
-0.261046
-0.259465
-0.257665
-0.255588
-0.253152
-0.250249
-0.246771
-0.242532
-0.236453
-0.22883
-0.277176
-0.277215
-0.277235
-0.277229
-0.277198
-0.277141
-0.277055
-0.276939
-0.27679
-0.276607
-0.276386
-0.276128
-0.27583
-0.275492
-0.275112
-0.274688
-0.274221
-0.273709
-0.273152
-0.272548
-0.271896
-0.271194
-0.27044
-0.269631
-0.268761
-0.267826
-0.266816
-0.265722
-0.264529
-0.26322
-0.261772
-0.260154
-0.258328
-0.256239
-0.253806
-0.250915
-0.247426
-0.243004
-0.236042
-0.226366
-0.27953
-0.27954
-0.279529
-0.279492
-0.279429
-0.279337
-0.279214
-0.279058
-0.278866
-0.278637
-0.278369
-0.27806
-0.277709
-0.277315
-0.276877
-0.276393
-0.275864
-0.275289
-0.274667
-0.273997
-0.273278
-0.272508
-0.271687
-0.27081
-0.269874
-0.268873
-0.2678
-0.266645
-0.265398
-0.264041
-0.262555
-0.260917
-0.259096
-0.257052
-0.254733
-0.25207
-0.248983
-0.24508
-0.238522
-0.229663
-0.282053
-0.282032
-0.281988
-0.281919
-0.28182
-0.281689
-0.281525
-0.281325
-0.281087
-0.280809
-0.280488
-0.280124
-0.279716
-0.279261
-0.27876
-0.278212
-0.277616
-0.276972
-0.276279
-0.275538
-0.274746
-0.273904
-0.27301
-0.272061
-0.271053
-0.269983
-0.268843
-0.267627
-0.266323
-0.264921
-0.263405
-0.26176
-0.259971
-0.258025
-0.25592
-0.25369
-0.251436
-0.249207
-0.247861
-0.257725
-0.284756
-0.284701
-0.284622
-0.284516
-0.284379
-0.284207
-0.283999
-0.283751
-0.283462
-0.28313
-0.282753
-0.28233
-0.281859
-0.281339
-0.280771
-0.280152
-0.279484
-0.278766
-0.277998
-0.27718
-0.276311
-0.275392
-0.27442
-0.273394
-0.272311
-0.271167
-0.269958
-0.268677
-0.267317
-0.26587
-0.264326
-0.262682
-0.260936
-0.259102
-0.257221
-0.255401
-0.253865
-0.2529
-0.253637
-0.265435
-0.287651
-0.287559
-0.287442
-0.287297
-0.287118
-0.286901
-0.286644
-0.286345
-0.286001
-0.285611
-0.285173
-0.284686
-0.284148
-0.283558
-0.282917
-0.282224
-0.281479
-0.280682
-0.279834
-0.278934
-0.277984
-0.276982
-0.275928
-0.274821
-0.273659
-0.272439
-0.271158
-0.26981
-0.268392
-0.266898
-0.265326
-0.26368
-0.261972
-0.260236
-0.25854
-0.257028
-0.255963
-0.255694
-0.257051
-0.267197
-0.290751
-0.290619
-0.290459
-0.290272
-0.290047
-0.289782
-0.289473
-0.289118
-0.288716
-0.288264
-0.28776
-0.287204
-0.286594
-0.28593
-0.285212
-0.284439
-0.283612
-0.282732
-0.281799
-0.280814
-0.279777
-0.278689
-0.27755
-0.276358
-0.275113
-0.273814
-0.272456
-0.271039
-0.269558
-0.268014
-0.266408
-0.26475
-0.263062
-0.261389
-0.259813
-0.258482
-0.257648
-0.257631
-0.258965
-0.266935
-0.294068
-0.293893
-0.293687
-0.293454
-0.293181
-0.292862
-0.292497
-0.292083
-0.291617
-0.291098
-0.290525
-0.289895
-0.289209
-0.288466
-0.287666
-0.28681
-0.285897
-0.28493
-0.283908
-0.282833
-0.281706
-0.280528
-0.2793
-0.27802
-0.276689
-0.275306
-0.273869
-0.272377
-0.270828
-0.269225
-0.267572
-0.265883
-0.264185
-0.262526
-0.260986
-0.259701
-0.258879
-0.25877
-0.259666
-0.265322
-0.297618
-0.297395
-0.29714
-0.296856
-0.29653
-0.296155
-0.295729
-0.295251
-0.294717
-0.294127
-0.29348
-0.292773
-0.292006
-0.29118
-0.290294
-0.28935
-0.288348
-0.287289
-0.286175
-0.285007
-0.283787
-0.282516
-0.281194
-0.279823
-0.278402
-0.276931
-0.275409
-0.273835
-0.272209
-0.270534
-0.268817
-0.267071
-0.265323
-0.263617
-0.262026
-0.260657
-0.259666
-0.259221
-0.259451
-0.262904
-0.301415
-0.301139
-0.30083
-0.300493
-0.300109
-0.299672
-0.299182
-0.298635
-0.29803
-0.297365
-0.296638
-0.295849
-0.294998
-0.294085
-0.29311
-0.292074
-0.290978
-0.289824
-0.288615
-0.287351
-0.286034
-0.284666
-0.283249
-0.281782
-0.280267
-0.278702
-0.277087
-0.275422
-0.273706
-0.271942
-0.270135
-0.268299
-0.266455
-0.264641
-0.262911
-0.261345
-0.260046
-0.259112
-0.258573
-0.260057
-0.305473
-0.30514
-0.304772
-0.304376
-0.30393
-0.303428
-0.302868
-0.302248
-0.301567
-0.300822
-0.300013
-0.299138
-0.298199
-0.297194
-0.296126
-0.294995
-0.293803
-0.292552
-0.291243
-0.28988
-0.288463
-0.286996
-0.285478
-0.283912
-0.282295
-0.280629
-0.278912
-0.277143
-0.27532
-0.273444
-0.27152
-0.269554
-0.267565
-0.265578
-0.263631
-0.261775
-0.260071
-0.258561
-0.257224
-0.25702
-0.309805
-0.30941
-0.308977
-0.308518
-0.308006
-0.307433
-0.306799
-0.306102
-0.30534
-0.304512
-0.303616
-0.302652
-0.30162
-0.300522
-0.299357
-0.298128
-0.296836
-0.295484
-0.294074
-0.292609
-0.291089
-0.289518
-0.287895
-0.286222
-0.284498
-0.28272
-0.280888
-0.278998
-0.277047
-0.275033
-0.272956
-0.27082
-0.268635
-0.266414
-0.264181
-0.261964
-0.259791
-0.257668
-0.255551
-0.253941
-0.314423
-0.31396
-0.313458
-0.31293
-0.312347
-0.3117
-0.310987
-0.310209
-0.309362
-0.308446
-0.307459
-0.306402
-0.305275
-0.304079
-0.302815
-0.301485
-0.300092
-0.298636
-0.297122
-0.29555
-0.293924
-0.292243
-0.29051
-0.288722
-0.286879
-0.284978
-0.283014
-0.280983
-0.278878
-0.276695
-0.274429
-0.272079
-0.269647
-0.267138
-0.264562
-0.261931
-0.259251
-0.256511
-0.25366
-0.250904
-0.319337
-0.3188
-0.318223
-0.317622
-0.316963
-0.316236
-0.315441
-0.314577
-0.313642
-0.312634
-0.311554
-0.3104
-0.309175
-0.307879
-0.306513
-0.305079
-0.30358
-0.302019
-0.300396
-0.298715
-0.296976
-0.295181
-0.293328
-0.291417
-0.289442
-0.287401
-0.285286
-0.283088
-0.280801
-0.278414
-0.275919
-0.27331
-0.270583
-0.267737
-0.264772
-0.261691
-0.258488
-0.255147
-0.251622
-0.247945
-0.324554
-0.323937
-0.323279
-0.3226
-0.321861
-0.321051
-0.320169
-0.319215
-0.318187
-0.317084
-0.315907
-0.314655
-0.313328
-0.311929
-0.310458
-0.308919
-0.307312
-0.305641
-0.303906
-0.30211
-0.300254
-0.298335
-0.296353
-0.294304
-0.292183
-0.289981
-0.28769
-0.285299
-0.282796
-0.280167
-0.277403
-0.274491
-0.271424
-0.268198
-0.26481
-0.261255
-0.257529
-0.253614
-0.249478
-0.245065
-0.330078
-0.329375
-0.328632
-0.32787
-0.327046
-0.326147
-0.325174
-0.324127
-0.323004
-0.321803
-0.320526
-0.319172
-0.317742
-0.316237
-0.31466
-0.313011
-0.311294
-0.309509
-0.307658
-0.305741
-0.303758
-0.301706
-0.299582
-0.29738
-0.295091
-0.292706
-0.290212
-0.287595
-0.284839
-0.28193
-0.278853
-0.275597
-0.27215
-0.268509
-0.26467
-0.260631
-0.256389
-0.251936
-0.247249
-0.242244
-0.335909
-0.335115
-0.33428
-0.333431
-0.332518
-0.331527
-0.33046
-0.329316
-0.328094
-0.326794
-0.325414
-0.323956
-0.32242
-0.320808
-0.31912
-0.31736
-0.315528
-0.313625
-0.311651
-0.309605
-0.307486
-0.305288
-0.303006
-0.300631
-0.298152
-0.295556
-0.292827
-0.289948
-0.286902
-0.283672
-0.280242
-0.276601
-0.27274
-0.268655
-0.264348
-0.259821
-0.255077
-0.25012
-0.244938
-0.23945
-0.342043
-0.341154
-0.340222
-0.339282
-0.338276
-0.337189
-0.336025
-0.334782
-0.333459
-0.332055
-0.330571
-0.329007
-0.327363
-0.325641
-0.323841
-0.321965
-0.320014
-0.317987
-0.315882
-0.313698
-0.311429
-0.30907
-0.30661
-0.30404
-0.301343
-0.298505
-0.295506
-0.292328
-0.288951
-0.285359
-0.281537
-0.277476
-0.27317
-0.268621
-0.263834
-0.258822
-0.253595
-0.248166
-0.242536
-0.236642
-0.348473
-0.347482
-0.34645
-0.345414
-0.344312
-0.343127
-0.341863
-0.340518
-0.339092
-0.337584
-0.335993
-0.334321
-0.332567
-0.330733
-0.328818
-0.326822
-0.324746
-0.322587
-0.320342
-0.318006
-0.315573
-0.313033
-0.310373
-0.30758
-0.304635
-0.30152
-0.298214
-0.294697
-0.29095
-0.286957
-0.282707
-0.278193
-0.273418
-0.268389
-0.26312
-0.257629
-0.251938
-0.246068
-0.24003
-0.233783
-0.355185
-0.354087
-0.35295
-0.351816
-0.350615
-0.34933
-0.347963
-0.346515
-0.344985
-0.343371
-0.341673
-0.339891
-0.338025
-0.336075
-0.334041
-0.33192
-0.329712
-0.327412
-0.325014
-0.322513
-0.319896
-0.317153
-0.314266
-0.31122
-0.307992
-0.304563
-0.300911
-0.297014
-0.292857
-0.288427
-0.283716
-0.278725
-0.273463
-0.267945
-0.262193
-0.256235
-0.250099
-0.243815
-0.237402
-0.230838
-0.362159
-0.360951
-0.359706
-0.358471
-0.357169
-0.355782
-0.354312
-0.352759
-0.351123
-0.349402
-0.347596
-0.345703
-0.343723
-0.341654
-0.339495
-0.337243
-0.334894
-0.332441
-0.329877
-0.327191
-0.324369
-0.321396
-0.318253
-0.314919
-0.311373
-0.307591
-0.303551
-0.299237
-0.294632
-0.289731
-0.284531
-0.279042
-0.273281
-0.26727
-0.261042
-0.25463
-0.248069
-0.241394
-0.234632
-0.227773
-0.36937
-0.368049
-0.366693
-0.365355
-0.363951
-0.362461
-0.360887
-0.35923
-0.357488
-0.35566
-0.353743
-0.351737
-0.34964
-0.347449
-0.345159
-0.342768
-0.340267
-0.337647
-0.334899
-0.332007
-0.328955
-0.325723
-0.322291
-0.318634
-0.314729
-0.310554
-0.306088
-0.301317
-0.296231
-0.29083
-0.285119
-0.279118
-0.272851
-0.26635
-0.259653
-0.252802
-0.245835
-0.238792
-0.231702
-0.224564
-0.376786
-0.37535
-0.373881
-0.37244
-0.370934
-0.36934
-0.367662
-0.3659
-0.364053
-0.362116
-0.360089
-0.357968
-0.355751
-0.353431
-0.351005
-0.348463
-0.345798
-0.342996
-0.340042
-0.33692
-0.333609
-0.330087
-0.326329
-0.322311
-0.318008
-0.313401
-0.308471
-0.303208
-0.297611
-0.291685
-0.285448
-0.278925
-0.272151
-0.265166
-0.258013
-0.250739
-0.243385
-0.235993
-0.228594
-0.221189
-0.384369
-0.382816
-0.381234
-0.379689
-0.378081
-0.376385
-0.374604
-0.372738
-0.370785
-0.368741
-0.366602
-0.364364
-0.362022
-0.359568
-0.356995
-0.354292
-0.351447
-0.348442
-0.345261
-0.341882
-0.338281
-0.334433
-0.330312
-0.325894
-0.321154
-0.316076
-0.310646
-0.304862
-0.298728
-0.292261
-0.285486
-0.278439
-0.271162
-0.263703
-0.256108
-0.248428
-0.240706
-0.232984
-0.225291
-0.217627
-0.392073
-0.390403
-0.388708
-0.387061
-0.385352
-0.383554
-0.381672
-0.379704
-0.377646
-0.375494
-0.373242
-0.370884
-0.368412
-0.365817
-0.363087
-0.360209
-0.357165
-0.353937
-0.350502
-0.346836
-0.342911
-0.338701
-0.33418
-0.329322
-0.324107
-0.318522
-0.312562
-0.306229
-0.29954
-0.292519
-0.285203
-0.277635
-0.269864
-0.261943
-0.253924
-0.245856
-0.237785
-0.22975
-0.221777
-0.213864
-0.399845
-0.398059
-0.396253
-0.394505
-0.392697
-0.390801
-0.38882
-0.386751
-0.38459
-0.38233
-0.379963
-0.377481
-0.374873
-0.372127
-0.369228
-0.366158
-0.362897
-0.359421
-0.355704
-0.351718
-0.347435
-0.342827
-0.337866
-0.332531
-0.326806
-0.320683
-0.314165
-0.307264
-0.300006
-0.292427
-0.28457
-0.276488
-0.268236
-0.25987
-0.251445
-0.243009
-0.234606
-0.226276
-0.218038
-0.209886
-0.407624
-0.405724
-0.40381
-0.401964
-0.400061
-0.39807
-0.395992
-0.393825
-0.391562
-0.389193
-0.386709
-0.384099
-0.381348
-0.378441
-0.375359
-0.372079
-0.368578
-0.364827
-0.360799
-0.356461
-0.351783
-0.346739
-0.341302
-0.335455
-0.329188
-0.3225
-0.315403
-0.307921
-0.300089
-0.291951
-0.283561
-0.274977
-0.26626
-0.257468
-0.248656
-0.239872
-0.231157
-0.222548
-0.21406
-0.20568
-0.415345
-0.413334
-0.411315
-0.409376
-0.407382
-0.405299
-0.403128
-0.400865
-0.3985
-0.396023
-0.393419
-0.390675
-0.387773
-0.384693
-0.381411
-0.377902
-0.374137
-0.370084
-0.365712
-0.360988
-0.355881
-0.350365
-0.344418
-0.338028
-0.331191
-0.323918
-0.316228
-0.308157
-0.299749
-0.291059
-0.282148
-0.273079
-0.263916
-0.254719
-0.245541
-0.236429
-0.227421
-0.218552
-0.209827
-0.201233
-0.422935
-0.420818
-0.418699
-0.416671
-0.414591
-0.412421
-0.410161
-0.407804
-0.405339
-0.402751
-0.400024
-0.39714
-0.394077
-0.390809
-0.387311
-0.383551
-0.379496
-0.375113
-0.370366
-0.365222
-0.359652
-0.353631
-0.347143
-0.340183
-0.332756
-0.324881
-0.31659
-0.307929
-0.298952
-0.289722
-0.280307
-0.270773
-0.261186
-0.251605
-0.242084
-0.232665
-0.223385
-0.214273
-0.205327
-0.196535
-0.430313
-0.428095
-0.425883
-0.423772
-0.421611
-0.419359
-0.417014
-0.414567
-0.412003
-0.409304
-0.406449
-0.403417
-0.400182
-0.396713
-0.392979
-0.388945
-0.384575
-0.379831
-0.374678
-0.369082
-0.363017
-0.356461
-0.349406
-0.341855
-0.333821
-0.325337
-0.316445
-0.307199
-0.297665
-0.287912
-0.278013
-0.268036
-0.258049
-0.24811
-0.238269
-0.228565
-0.219032
-0.209697
-0.200546
-0.191572
-0.437392
-0.435082
-0.432783
-0.430595
-0.42836
-0.426032
-0.423607
-0.421072
-0.41841
-0.415598
-0.412611
-0.409423
-0.406003
-0.402317
-0.398328
-0.393997
-0.389284
-0.384152
-0.378562
-0.372485
-0.365896
-0.358781
-0.351138
-0.34298
-0.334332
-0.325237
-0.315748
-0.305931
-0.295857
-0.285602
-0.275243
-0.26485
-0.254489
-0.244216
-0.234078
-0.224113
-0.214349
-0.20481
-0.195471
-0.186335
-0.444084
-0.441688
-0.439311
-0.437055
-0.434752
-0.432354
-0.429853
-0.427234
-0.424473
-0.421546
-0.418422
-0.415069
-0.411452
-0.407531
-0.403267
-0.398615
-0.393535
-0.387986
-0.381933
-0.375348
-0.368211
-0.360516
-0.352271
-0.343498
-0.334235
-0.324534
-0.314461
-0.304088
-0.293497
-0.282766
-0.271974
-0.261192
-0.250484
-0.239905
-0.229496
-0.219292
-0.209319
-0.199598
-0.19009
-0.180811
-0.450292
-0.44782
-0.445373
-0.443057
-0.440695
-0.438233
-0.435661
-0.432959
-0.430101
-0.427055
-0.423788
-0.420261
-0.416434
-0.412262
-0.407702
-0.402708
-0.397236
-0.391246
-0.384705
-0.377588
-0.369885
-0.361597
-0.352741
-0.343351
-0.333477
-0.323184
-0.312544
-0.30164
-0.290558
-0.279379
-0.268184
-0.257044
-0.246019
-0.23516
-0.224506
-0.214089
-0.20393
-0.194047
-0.184388
-0.17499
-0.455918
-0.453381
-0.450875
-0.448507
-0.446093
-0.443574
-0.440936
-0.438155
-0.435199
-0.432032
-0.428615
-0.424903
-0.420852
-0.416414
-0.411539
-0.406181
-0.400294
-0.393841
-0.386791
-0.379127
-0.370844
-0.361954
-0.352486
-0.342486
-0.332015
-0.321146
-0.309964
-0.298556
-0.287013
-0.275419
-0.263854
-0.252386
-0.241074
-0.229964
-0.219093
-0.208487
-0.198166
-0.188145
-0.178356
-0.168862
-0.460863
-0.458271
-0.455716
-0.453306
-0.450849
-0.44828
-0.445581
-0.442723
-0.439669
-0.436378
-0.432803
-0.428898
-0.42461
-0.419889
-0.414681
-0.408939
-0.402619
-0.395684
-0.38811
-0.379886
-0.371017
-0.361525
-0.351451
-0.340853
-0.329803
-0.318384
-0.306688
-0.294809
-0.28284
-0.270865
-0.258963
-0.247201
-0.235633
-0.224302
-0.213241
-0.202472
-0.192015
-0.181878
-0.171982
-0.162415
-0.465024
-0.462389
-0.459798
-0.457355
-0.454863
-0.452251
-0.449495
-0.446563
-0.443412
-0.439992
-0.436255
-0.432145
-0.427609
-0.422589
-0.417034
-0.410892
-0.404122
-0.396691
-0.388583
-0.379793
-0.370338
-0.360251
-0.349584
-0.338407
-0.326803
-0.314864
-0.302688
-0.290374
-0.278014
-0.265696
-0.253494
-0.241471
-0.22968
-0.218159
-0.206937
-0.196033
-0.185465
-0.175237
-0.165255
-0.155642
-0.468302
-0.465636
-0.463019
-0.460555
-0.458036
-0.455388
-0.452581
-0.449577
-0.446327
-0.442776
-0.438869
-0.434547
-0.429751
-0.424421
-0.418503
-0.411948
-0.404717
-0.396783
-0.388136
-0.378781
-0.368746
-0.358077
-0.346837
-0.335107
-0.32298
-0.310556
-0.297938
-0.285228
-0.272518
-0.259894
-0.247429
-0.235182
-0.2232
-0.211521
-0.200167
-0.189156
-0.178504
-0.16821
-0.158166
-0.148534
-0.470595
-0.467912
-0.465282
-0.462806
-0.460269
-0.457592
-0.454739
-0.451666
-0.448317
-0.444632
-0.44055
-0.436008
-0.430942
-0.425291
-0.419001
-0.412024
-0.404325
-0.395884
-0.386699
-0.376788
-0.366187
-0.354955
-0.343168
-0.330917
-0.318304
-0.305434
-0.292416
-0.27935
-0.266332
-0.253443
-0.240753
-0.228318
-0.216182
-0.204375
-0.192921
-0.181831
-0.171122
-0.160789
-0.150708
-0.141083
-0.471808
-0.469121
-0.46649
-0.464012
-0.461467
-0.458768
-0.455873
-0.452733
-0.449285
-0.445464
-0.441203
-0.436434
-0.431091
-0.425112
-0.418443
-0.411039
-0.40287
-0.393926
-0.384212
-0.373757
-0.362611
-0.350843
-0.338542
-0.325807
-0.312747
-0.299475
-0.2861
-0.272725
-0.259441
-0.24633
-0.233455
-0.220869
-0.208613
-0.196713
-0.185188
-0.17405
-0.163312
-0.152965
-0.142873
-0.133283
-0.471847
-0.46917
-0.466551
-0.464081
-0.461536
-0.458822
-0.455891
-0.452687
-0.449141
-0.445182
-0.440738
-0.435738
-0.430113
-0.423801
-0.41675
-0.408919
-0.400285
-0.390845
-0.380617
-0.369639
-0.357974
-0.345704
-0.332925
-0.319748
-0.306288
-0.29266
-0.278976
-0.265337
-0.251833
-0.238541
-0.225522
-0.212825
-0.200484
-0.188524
-0.176961
-0.165805
-0.155067
-0.144733
-0.134656
-0.125128
-0.470625
-0.467971
-0.465376
-0.462926
-0.46039
-0.457667
-0.454706
-0.45144
-0.447797
-0.4437
-0.439071
-0.433837
-0.427929
-0.421283
-0.413851
-0.405598
-0.396509
-0.386588
-0.375866
-0.364392
-0.352242
-0.339506
-0.326294
-0.312721
-0.298908
-0.284974
-0.271029
-0.257174
-0.243497
-0.230069
-0.216947
-0.204176
-0.191788
-0.179804
-0.168235
-0.157091
-0.146382
-0.13609
-0.126056
-0.116614
-0.46806
-0.465443
-0.462885
-0.460464
-0.457945
-0.455222
-0.452234
-0.448911
-0.445172
-0.440937
-0.436124
-0.430657
-0.424466
-0.41749
-0.409683
-0.401019
-0.391488
-0.381108
-0.369918
-0.357981
-0.345383
-0.332227
-0.318627
-0.304709
-0.290594
-0.276405
-0.26225
-0.248229
-0.234425
-0.220906
-0.207724
-0.19492
-0.182522
-0.170547
-0.159006
-0.147905
-0.137253
-0.127032
-0.117074
-0.107743
-0.464079
-0.461512
-0.459003
-0.456621
-0.454128
-0.451411
-0.448402
-0.445025
-0.441194
-0.436823
-0.431828
-0.42613
-0.41966
-0.412361
-0.404191
-0.395129
-0.385179
-0.374365
-0.36274
-0.350378
-0.337376
-0.323846
-0.309911
-0.295699
-0.281337
-0.266946
-0.252634
-0.238497
-0.224614
-0.211049
-0.19785
-0.185053
-0.172683
-0.160754
-0.149274
-0.138245
-0.127677
-0.117551
-0.107692
-0.0984709
-0.458615
-0.456112
-0.453663
-0.45133
-0.448871
-0.446167
-0.443143
-0.439717
-0.435798
-0.431294
-0.426121
-0.420198
-0.413458
-0.405846
-0.397327
-0.38789
-0.377545
-0.36633
-0.354307
-0.341563
-0.328205
-0.314352
-0.300135
-0.285685
-0.271131
-0.256593
-0.242177
-0.227975
-0.214062
-0.200497
-0.187325
-0.174577
-0.162274
-0.150428
-0.139042
-0.128117
-0.117659
-0.107646
-0.0978662
-0.0886628
-0.451612
-0.449184
-0.446808
-0.444534
-0.442116
-0.439432
-0.436399
-0.432929
-0.428926
-0.424297
-0.418952
-0.412812
-0.405813
-0.397903
-0.389057
-0.379268
-0.368559
-0.356979
-0.344601
-0.331523
-0.317859
-0.303739
-0.289296
-0.274665
-0.259976
-0.245347
-0.230881
-0.216665
-0.202771
-0.189254
-0.176153
-0.163496
-0.1513
-0.139575
-0.128321
-0.117534
-0.107221
-0.0973507
-0.0876366
-0.0782995
-0.443022
-0.440683
-0.43839
-0.436183
-0.433815
-0.431158
-0.428122
-0.424615
-0.420535
-0.415786
-0.410278
-0.403934
-0.39669
-0.388502
-0.379351
-0.369241
-0.358204
-0.3463
-0.333613
-0.320251
-0.306337
-0.292005
-0.277395
-0.262642
-0.247876
-0.233211
-0.218749
-0.204572
-0.190747
-0.177324
-0.164339
-0.151816
-0.139769
-0.128205
-0.117121
-0.10651
-0.0963772
-0.0867027
-0.0771178
-0.0681664
-0.432809
-0.43057
-0.428371
-0.42624
-0.42393
-0.421306
-0.418275
-0.414737
-0.410587
-0.405728
-0.400069
-0.393534
-0.386064
-0.377622
-0.368194
-0.357796
-0.346471
-0.334288
-0.321342
-0.30775
-0.293642
-0.279158
-0.26444
-0.249624
-0.234838
-0.220195
-0.205791
-0.191704
-0.177997
-0.164715
-0.151891
-0.139545
-0.12769
-0.116327
-0.105453
-0.0950632
-0.0851637
-0.0756872
-0.0663245
-0.0577601
-0.420948
-0.418819