/*--------------------------------*- C++ -*----------------------------------*\
  =========                 |
  \\      /  F ield         | OpenFOAM: The Open Source CFD Toolbox
   \\    /   O peration     | Website:  https://openfoam.org
    \\  /    A nd           | Version:  7
     \\/     M anipulation  |
\*---------------------------------------------------------------------------*/
FoamFile
{
    version     2.0;
    format      ascii;
    class       volVectorField;
    location    "60";
    object      U;
}
// * * * * * * * * * * * * * * * * * * * * * * * * * * * * * * * * * * * * * //

dimensions      [0 1 -1 0 0 0 0];

internalField   nonuniform List<vector> 
15000
(
(-5.14138e-06 -0.000793007 -1.10742e-21)
(-6.66641e-05 -0.00230345 -9.24879e-22)
(-0.000236153 -0.00377091 4.06856e-22)
(-0.000514746 -0.0051896 -4.17831e-22)
(-0.000903472 -0.00655363 -3.04893e-22)
(-0.0014074 -0.0078571 1.34915e-21)
(-0.00203197 -0.0090942 2.3797e-21)
(-0.00278178 -0.0102597 2.13604e-21)
(-0.0036608 -0.011348 -6.32043e-21)
(-0.00467241 -0.0123545 3.38485e-21)
(-0.00581919 -0.013274 1.40362e-21)
(-0.00710283 -0.0141024 -3.03588e-21)
(-0.00852407 -0.0148362 1.43047e-21)
(-0.0100826 -0.0154726 -3.39159e-21)
(-0.0117772 -0.0160099 -3.64092e-22)
(-0.0136054 -0.0164473 -1.76798e-21)
(-0.0155638 -0.016785 2.16427e-21)
(-0.0176477 -0.0170242 1.53907e-22)
(-0.0198514 -0.0171674 4.16323e-21)
(-0.0221681 -0.0172179 1.96342e-21)
(-0.0245903 -0.0171803 1.91057e-21)
(-0.0271094 -0.01706 -5.47431e-21)
(-0.0297165 -0.0168632 4.90926e-21)
(-0.0324024 -0.0165967 4.09554e-21)
(-0.0351578 -0.0162675 4.96525e-21)
(-0.0379741 -0.015883 -5.38909e-22)
(-0.0408434 -0.0154506 -1.23807e-21)
(-0.0437597 -0.0149766 -2.51698e-21)
(-0.0467189 -0.0144662 2.51544e-21)
(-0.04972 -0.0139228 -1.21805e-21)
(-0.0527656 -0.013348 5.59154e-23)
(-0.0558629 -0.0127416 4.37478e-21)
(-0.0590243 -0.0121008 1.0001e-22)
(-0.0622681 -0.0114199 7.00883e-21)
(-0.0656187 -0.0106902 -2.29993e-21)
(-0.0691092 -0.00989947 3.34589e-21)
(-0.0727865 -0.00903253 4.9707e-21)
(-0.0766822 -0.00807055 -6.12237e-21)
(-0.0807197 -0.00698908 1.28248e-20)
(-0.0851033 -0.00575881 1.79663e-21)
(9.95209e-06 -0.000654097 -2.08796e-21)
(-2.37593e-05 -0.00189481 8.75142e-21)
(-0.0001679 -0.00309623 -3.90866e-21)
(-0.000423668 -0.00425336 6.10855e-21)
(-0.000792123 -0.00536113 -3.47307e-21)
(-0.00127844 -0.00641466 2.64729e-21)
(-0.00188808 -0.00740925 -7.09495e-21)
(-0.00262566 -0.00834034 1.46172e-21)
(-0.00349512 -0.00920373 -3.80945e-21)
(-0.00449976 -0.00999537 1.83037e-20)
(-0.00564212 -0.0107117 -3.21424e-21)
(-0.0069238 -0.0113495 -1.47792e-20)
(-0.00834542 -0.0119064 2.8122e-21)
(-0.00990656 -0.0123806 -1.0968e-20)
(-0.0116057 -0.012771 1.12348e-20)
(-0.0134402 -0.0130777 5.7683e-21)
(-0.0154061 -0.0133014 1.90455e-21)
(-0.0174986 -0.0134438 -9.93059e-21)
(-0.0197116 -0.0135076 -6.88056e-21)
(-0.0220377 -0.0134962 9.39091e-21)
(-0.0244689 -0.0134139 1.10019e-20)
(-0.0269963 -0.0132655 -1.43766e-20)
(-0.0296103 -0.0130564 4.28478e-21)
(-0.0323011 -0.0127921 4.01211e-21)
(-0.0350589 -0.0124783 -1.56759e-20)
(-0.0378744 -0.01212 1.53964e-21)
(-0.0407392 -0.0117221 -7.14351e-21)
(-0.0436466 -0.0112877 -1.05005e-21)
(-0.046592 -0.0108186 -1.47828e-20)
(-0.0495736 -0.010314 1.78144e-20)
(-0.0525937 -0.00977093 -1.45914e-21)
(-0.0556585 -0.00918386 2.00529e-21)
(-0.0587801 -0.00854453 1.27082e-20)
(-0.0619761 -0.00784162 -2.87233e-20)
(-0.0652705 -0.00706069 -6.74685e-21)
(-0.0686957 -0.0061845 1.75626e-20)
(-0.0722986 -0.00519362 -1.34684e-20)
(-0.0761098 -0.00406622 -1.69917e-20)
(-0.0800487 -0.00277372 -3.63422e-21)
(-0.0843208 -0.00128998 -2.13472e-20)
(1.77021e-05 -0.000513408 1.0297e-20)
(-2.33325e-06 -0.00148107 -6.73947e-21)
(-0.000134806 -0.00241337 9.06037e-22)
(-0.000380937 -0.00330613 1.27775e-21)
(-0.000741773 -0.00415516 -2.76156e-21)
(-0.00122251 -0.00495659 1.07389e-20)
(-0.00182861 -0.00570676 -1.73924e-20)
(-0.00256462 -0.00640218 1.63779e-20)
(-0.00343438 -0.00703962 -4.47804e-21)
(-0.00444103 -0.00761619 -8.41487e-21)
(-0.0055869 -0.00812939 3.74823e-21)
(-0.0068734 -0.00857717 1.37036e-21)
(-0.00830093 -0.00895809 -1.26413e-20)
(-0.00986879 -0.0092713 4.51291e-21)
(-0.0115751 -0.0095167 1.83045e-20)
(-0.0134169 -0.0096949 1.05398e-20)
(-0.0153899 -0.00980729 -4.18941e-20)
(-0.0174886 -0.00985599 2.70602e-20)
(-0.0197064 -0.00984384 -3.10125e-20)
(-0.0220355 -0.00977434 5.62442e-22)
(-0.0244672 -0.00965147 1.90816e-20)
(-0.0269918 -0.00947956 9.22002e-21)
(-0.0295992 -0.0092631 -3.57828e-20)
(-0.0322787 -0.00900642 1.1016e-20)
(-0.0350199 -0.00871339 1.94433e-20)
(-0.0378125 -0.00838719 1.80928e-20)
(-0.0406474 -0.00802987 -2.2419e-20)
(-0.043517 -0.00764177 -1.00084e-20)
(-0.0464158 -0.00722081 -1.94496e-20)
(-0.0493413 -0.00676219 2.67424e-21)
(-0.0522946 -0.00625825 -1.42256e-21)
(-0.0552814 -0.00569836 -9.77543e-21)
(-0.058313 -0.00506868 8.79961e-21)
(-0.0614065 -0.00435213 2.75612e-20)
(-0.0645853 -0.00352854 -1.05495e-20)
(-0.0678816 -0.00257536 -4.09989e-20)
(-0.0713427 -0.00146896 1.83421e-20)
(-0.0749996 -0.000184407 1.13357e-20)
(-0.078767 0.00131134 2.03153e-21)
(-0.0828524 0.0030408 -2.81918e-20)
(1.8013e-05 -0.000371502 -7.60778e-21)
(-2.67838e-06 -0.00106396 2.03013e-21)
(-0.000137398 -0.00172526 1.04135e-20)
(-0.000387332 -0.00235206 1.67222e-20)
(-0.000753454 -0.00294105 -4.20444e-21)
(-0.0012409 -0.00348943 -2.52114e-20)
(-0.00185502 -0.00399461 1.40037e-21)
(-0.00260026 -0.00445417 -7.09482e-21)
(-0.00348025 -0.00486599 3.48575e-21)
(-0.00449789 -0.00522825 1.76773e-20)
(-0.00565525 -0.00553955 2.52607e-21)
(-0.00695344 -0.00579892 4.40858e-21)
(-0.00839251 -0.00600593 -1.19831e-20)
(-0.00997136 -0.00616068 -1.83085e-20)
(-0.0116877 -0.00626389 1.96368e-20)
(-0.0135381 -0.00631692 1.19794e-20)
(-0.0155176 -0.00632171 -2.77623e-20)
(-0.0176203 -0.00628083 7.95688e-21)
(-0.0198389 -0.00619732 -2.39485e-20)
(-0.0221648 -0.00607468 1.51094e-20)
(-0.0245886 -0.00591664 7.78881e-21)
(-0.0270998 -0.00572701 -1.06514e-20)
(-0.0296874 -0.00550938 7.78416e-21)
(-0.0323399 -0.00526688 -1.15826e-20)
(-0.0350458 -0.00500176 8.28663e-22)
(-0.037794 -0.00471514 -4.19897e-20)
(-0.0405742 -0.0044065 5.12353e-20)
(-0.0433777 -0.00407313 2.52526e-20)
(-0.046198 -0.0037094 -3.61914e-20)
(-0.0490312 -0.00330636 5.40787e-20)
(-0.0518777 -0.00285166 -1.72254e-20)
(-0.0547419 -0.00232942 -3.17719e-20)
(-0.0576344 -0.00172012 8.73802e-22)
(-0.0605716 -0.0010007 -2.28374e-20)
(-0.0635765 -0.000144992 3.79842e-20)
(-0.0666815 0.00087523 7.78053e-21)
(-0.069935 0.00208816 4.08913e-20)
(-0.0733692 0.0035223 -5.33519e-21)
(-0.0768942 0.00521576 3.25345e-20)
(-0.0807203 0.00718734 -6.95965e-21)
(1.08269e-05 -0.000229007 -3.90392e-21)
(-2.49595e-05 -0.000645346 -2.22297e-20)
(-0.000175953 -0.00103497 5.23658e-21)
(-0.000443244 -0.00139541 1.47175e-20)
(-0.000827671 -0.00172427 1.53543e-20)
(-0.00133422 -0.00201983 -3.5824e-20)
(-0.00196807 -0.00228059 -3.54178e-21)
(-0.00273343 -0.00250526 1.38509e-20)
(-0.00363368 -0.00269283 -1.60458e-20)
(-0.00467141 -0.0028426 1.83431e-20)
(-0.00584832 -0.00295424 -1.6226e-20)
(-0.00716512 -0.00302786 -2.75368e-20)
(-0.00862141 -0.00306404 2.65161e-20)
(-0.0102156 -0.00306381 2.50809e-20)
(-0.0119449 -0.00302875 -1.27386e-20)
(-0.0138052 -0.00296091 9.47274e-21)
(-0.015791 -0.00286286 1.28914e-21)
(-0.0178956 -0.00273755 3.91484e-21)
(-0.0201109 -0.00258827 -1.43417e-20)
(-0.0224277 -0.00241852 2.23765e-20)
(-0.0248355 -0.00223179 -1.81821e-22)
(-0.0273229 -0.00203136 3.71902e-21)
(-0.0298781 -0.00182001 -3.21946e-20)
(-0.0324882 -0.00159966 9.75035e-21)
(-0.0351409 -0.00137099 4.01584e-20)
(-0.0378236 -0.00113306 -3.11722e-20)
(-0.0405249 -0.000882901 -3.17522e-21)
(-0.0432348 -0.000614777 8.06193e-20)
(-0.0459453 -0.0003195 -1.53323e-20)
(-0.0486514 1.5976e-05 -7.10352e-21)
(-0.0513518 0.000408837 3.21924e-20)
(-0.05405 0.000880323 3.96117e-20)
(-0.0567553 0.00145585 -4.09826e-20)
(-0.0594835 0.00216482 1.29103e-20)
(-0.0622574 0.00303989 -1.22745e-20)
(-0.0651099 0.00411559 -8.67264e-21)
(-0.0680911 0.00542539 3.40135e-20)
(-0.0712353 0.00700211 -6.05143e-20)
(-0.0744485 0.0088901 2.63621e-21)
(-0.0779449 0.0111047 9.03284e-22)
(-3.8745e-06 -8.64983e-05 3.52804e-21)
(-6.92243e-05 -0.000226925 -2.23575e-20)
(-0.000250555 -0.000345337 -2.21758e-21)
(-0.000548799 -0.000440162 3.51113e-20)
(-0.000964593 -0.00050994 -4.61641e-21)
(-0.00150269 -0.000554028 1.27951e-20)
(-0.00216802 -0.000572078 -3.32785e-20)
(-0.00296447 -0.000563932 1.46852e-20)
(-0.00389506 -0.000529695 -5.2759e-21)
(-0.004962 -0.000469796 -1.70568e-20)
(-0.00616653 -0.000385021 1.468e-20)
(-0.00750888 -0.000276539 -2.99192e-20)
(-0.0089881 -0.000145926 6.90028e-20)
(-0.010602 4.82837e-06 -7.77583e-20)
(-0.0123472 0.000173317 1.515e-20)
(-0.0142188 0.000356747 2.5785e-20)
(-0.0162106 0.000551984 -1.98444e-20)
(-0.0183151 0.000755633 -1.76727e-20)
(-0.0205234 0.000964159 -4.24625e-20)
(-0.0228252 0.00117404 -1.03369e-20)
(-0.0252091 0.001382 2.95854e-20)
(-0.0276628 0.00158523 4.82418e-20)
(-0.030173 0.00178174 -3.01031e-20)
(-0.0327259 0.00197075 -7.29592e-23)
(-0.0353077 0.00215311 -1.14682e-20)
(-0.0379046 0.00233167 5.61385e-20)
(-0.0405036 0.00251193 -7.99243e-20)
(-0.0430932 0.00270245 -8.01742e-20)
(-0.0456637 0.00291593 -4.17113e-20)
(-0.0482085 0.00316963 -3.27262e-20)
(-0.0507248 0.00348548 8.95248e-20)
(-0.0532145 0.00389039 -7.87877e-20)
(-0.0556857 0.00441597 -2.11754e-20)
(-0.0581533 0.00509841 -6.86123e-20)
(-0.0606401 0.0059776 4.19244e-20)
(-0.0631796 0.00709525 3.46335e-20)
(-0.0658242 0.00849118 -3.62483e-20)
(-0.0686121 0.0102038 1.02548e-19)
(-0.071445 0.0122853 -3.23294e-20)
(-0.0745427 0.0147483 2.01845e-20)
(-2.60762e-05 5.54842e-05 1.80841e-20)
(-0.000135422 0.000189691 -1.06162e-20)
(-0.000361123 0.000340952 1.55644e-20)
(-0.000703888 0.000509928 2.37822e-20)
(-0.00116408 0.000697124 -7.00385e-20)
(-0.00174616 0.000902074 8.66037e-20)
(-0.00245467 0.00112398 -3.8118e-20)
(-0.00329313 0.00136185 2.74674e-20)
(-0.00426412 0.00161443 -2.95897e-20)
(-0.00536935 0.00188016 2.05916e-21)
(-0.00660954 0.00215715 -2.77266e-20)
(-0.00798431 0.00244315 2.14411e-20)
(-0.00949209 0.00273559 3.29638e-20)
(-0.01113 0.00303153 -1.01809e-19)
(-0.0128939 0.00332772 -2.06255e-21)
(-0.0147782 0.00362064 1.46168e-20)
(-0.0167758 0.00390654 9.12835e-20)
(-0.0188782 0.00418161 -5.03119e-20)
(-0.0210755 0.00444203 -6.09642e-21)
(-0.0233566 0.00468423 -1.47454e-21)
(-0.0257089 0.0049051 2.34483e-20)
(-0.0281189 0.00510225 -5.79274e-20)
(-0.030572 0.00527442 3.40506e-20)
(-0.0330532 0.00542187 -6.70812e-20)
(-0.0355471 0.00554684 4.00626e-20)
(-0.0380383 0.00565413 2.20792e-20)
(-0.0405123 0.00575141 5.77313e-20)
(-0.0429555 0.0058503 -4.41354e-20)
(-0.0453567 0.00596675 1.34864e-19)
(-0.0477072 0.00612213 -6.33559e-20)
(-0.0500023 0.00634338 -3.62338e-20)
(-0.0522421 0.00666311 5.94912e-20)
(-0.0544333 0.00711959 -4.04913e-20)
(-0.0565897 0.00775641 8.369e-21)
(-0.058734 0.00862158 3.50203e-20)
(-0.0609005 0.00976519 -1.56282e-19)
(-0.063145 0.0112349 -2.86791e-20)
(-0.0655102 0.0130764 1.80486e-20)
(-0.0678949 0.0153522 2.36239e-21)
(-0.0705257 0.018074 -1.69515e-21)
(-5.57353e-05 0.00019644 -1.65804e-20)
(-0.000223415 0.000603013 5.90172e-21)
(-0.000507424 0.00102141 -9.0173e-20)
(-0.000908181 0.00145137 5.05926e-20)
(-0.00142571 0.00189242 -2.31698e-20)
(-0.00206407 0.00234297 -1.29571e-20)
(-0.00282737 0.00280108 3.04037e-20)
(-0.00371865 0.00326458 -1.83149e-20)
(-0.00473995 0.00373108 6.18554e-20)
(-0.00589241 0.00419788 -6.39522e-20)
(-0.00717611 0.00466196 1.06274e-19)
(-0.00859 0.00512003 -5.01627e-20)
(-0.0101318 0.00556847 3.47084e-21)
(-0.0117979 0.00600343 3.46089e-20)
(-0.0135832 0.0064208 -5.01201e-21)
(-0.0154812 0.00681633 -1.77029e-20)
(-0.0174841 0.00718567 2.03924e-21)
(-0.0195822 0.00752452 7.39678e-21)
(-0.0217648 0.0078288 4.82892e-20)
(-0.0240193 0.00809483 -8.90316e-20)
(-0.0263322 0.0083196 7.47841e-20)
(-0.0286886 0.00850109 -1.77174e-20)
(-0.0310726 0.00863866 -9.18631e-21)
(-0.0334677 0.0087335 7.63478e-21)
(-0.0358568 0.00878915 5.1865e-20)
(-0.038223 0.00881206 -9.79923e-20)
(-0.0405496 0.00881223 -3.46192e-20)
(-0.0428214 0.00880381 1.61204e-19)
(-0.0450247 0.00880619 -4.42954e-20)
(-0.0471488 0.00884471 4.74068e-20)
(-0.0491865 0.00895127 -4.66449e-20)
(-0.0511361 0.00916446 -1.68701e-20)
(-0.0530022 0.00952958 2.96921e-20)
(-0.0547977 0.0100984 1.9657e-19)
(-0.0565446 0.010928 5.2478e-20)
(-0.0582785 0.0120785 -9.52131e-21)
(-0.0600592 0.0136072 -1.86107e-20)
(-0.0619353 0.0155696 3.05256e-20)
(-0.0638035 0.0180418 -1.03313e-20)
(-0.0658989 0.0210371 -1.81941e-19)
(-9.27841e-05 0.000335907 2.0087e-21)
(-0.000332986 0.00101166 -1.37051e-20)
(-0.000689086 0.00169372 2.62721e-20)
(-0.00116114 0.00238089 -4.63986e-20)
(-0.00174875 0.00307172 -4.32764e-20)
(-0.0024555 0.0037635 2.45623e-20)
(-0.00328499 0.00445311 6.84966e-20)
(-0.00423965 0.00513724 9.17382e-21)
(-0.00532091 0.00581232 -6.51921e-20)
(-0.00652924 0.00647453 1.97328e-20)
(-0.00786402 0.00711973 2.46289e-20)
(-0.00932342 0.00774357 -4.58534e-20)
(-0.0109043 0.00834142 6.80619e-20)
(-0.0126023 0.00890849 -5.48035e-20)
(-0.0144113 0.00943984 1.38579e-20)
(-0.0163239 0.00993045 4.74314e-20)
(-0.0183312 0.0103754 -9.90696e-20)
(-0.0204226 0.0107698 1.10455e-19)
(-0.022586 0.0111094 -8.22644e-20)
(-0.0248079 0.0113903 4.48798e-20)
(-0.0270733 0.0116094 1.74677e-22)
(-0.029366 0.0117652 -1.53854e-20)
(-0.0316688 0.0118574 4.28465e-20)
(-0.0339633 0.0118881 -3.63007e-20)
(-0.036231 0.0118618 -6.05506e-20)
(-0.0384528 0.0117866 1.42065e-19)
(-0.0406104 0.0116745 -1.57537e-19)
(-0.0426858 0.011542 1.11885e-19)
(-0.0446634 0.0114118 5.24346e-20)
(-0.0465295 0.011313 2.49851e-20)
(-0.0482747 0.0112826 -4.3662e-20)
(-0.0498944 0.0113651 7.34869e-20)
(-0.0513913 0.0116134 6.03865e-20)
(-0.0527765 0.0120881 -1.78979e-19)
(-0.0540716 0.0128567 -9.13954e-20)
(-0.0553134 0.0139912 -5.99096e-20)
(-0.0565661 0.0155609 1.48185e-19)
(-0.0578857 0.017634 -3.33242e-20)
(-0.059168 0.0203046 -2.32105e-20)
(-0.0606584 0.023592 5.79865e-20)
(-0.000137132 0.000473455 9.31485e-23)
(-0.000463843 0.00141432 4.33359e-20)
(-0.00090559 0.00235569 -9.23277e-20)
(-0.00146199 0.00329541 2.97303e-20)
(-0.00213217 0.00423105 2.48624e-20)
(-0.00291912 0.00515878 2.48151e-20)
(-0.00382583 0.0060743 7.48809e-22)
(-0.00485407 0.00697315 -5.97166e-20)
(-0.00600455 0.00785062 -5.8004e-20)
(-0.00727698 0.00870174 -4.89377e-21)
(-0.00866992 0.0095213 4.62978e-20)
(-0.0101807 0.0103039 9.20132e-21)
(-0.0118053 0.0110438 -1.10522e-20)
(-0.0135383 0.0117354 1.86356e-21)
(-0.0153727 0.012373 4.80209e-20)
(-0.0173001 0.0129506 -4.71331e-20)
(-0.0193104 0.0134628 -1.57359e-20)
(-0.0213918 0.0139042 1.52181e-20)
(-0.0235312 0.0142702 -4.41269e-20)
(-0.0257137 0.0145566 -7.27799e-20)
(-0.027923 0.0147605 1.09511e-19)
(-0.0301415 0.0148803 3.896e-20)
(-0.0323503 0.0149162 -6.47421e-20)
(-0.0345296 0.0148709 -1.18684e-19)
(-0.0366588 0.0147499 9.28358e-20)
(-0.038717 0.0145625 -5.13208e-21)
(-0.0406834 0.0143224 2.40296e-20)
(-0.0425379 0.0140485 2.1891e-20)
(-0.0442618 0.0137661 -4.84617e-20)
(-0.045839 0.0135082 3.55812e-21)
(-0.0472567 0.0133164 1.33633e-19)
(-0.0485076 0.0132417 -1.17296e-19)
(-0.0495914 0.0133445 -2.47038e-20)
(-0.0505175 0.0136953 6.79893e-20)
(-0.0513063 0.0143733 5.27082e-20)
(-0.051996 0.0154641 3.727e-20)
(-0.0526557 0.0170524 -1.39774e-19)
(-0.0533503 0.0192225 2.95266e-21)
(-0.053976 0.022092 4.69356e-20)
(-0.0547888 0.0256927 -4.49583e-21)
(-0.000188666 0.000608668 -1.41867e-20)
(-0.000615612 0.00180975 1.71615e-21)
(-0.00115627 0.00300521 1.36404e-20)
(-0.00180974 0.00419195 3.18501e-20)
(-0.00257457 0.00536656 -2.44458e-20)
(-0.00345311 0.00652407 2.83795e-20)
(-0.00444762 0.00765905 3.59908e-20)
(-0.00555912 0.00876589 -7.7094e-20)
(-0.00678751 0.00983873 5.94314e-21)
(-0.00813164 0.0108715 2.74156e-20)
(-0.00958918 0.0118579 -3.16037e-20)
(-0.0111565 0.0127915 -2.12036e-21)
(-0.0128286 0.0136656 1.89039e-20)
(-0.014599 0.0144737 -5.64129e-20)
(-0.0164597 0.0152091 -3.1408e-20)
(-0.0184011 0.0158653 3.62338e-20)
(-0.020412 0.0164361 -1.37667e-20)
(-0.0224795 0.0169158 -2.84588e-20)
(-0.024589 0.0172991 1.48764e-19)
(-0.0267244 0.0175817 -1.48433e-19)
(-0.028868 0.0177607 1.01684e-19)
(-0.0310007 0.0178343 -4.07996e-20)
(-0.033102 0.0178032 1.04651e-19)
(-0.0351504 0.0176704 -1.40808e-19)
(-0.0371234 0.017442 7.40547e-20)
(-0.0389978 0.0171285 -3.69212e-20)
(-0.0407506 0.0167448 3.66223e-20)
(-0.042359 0.0163118 -3.91653e-21)
(-0.0438014 0.0158573 -6.38267e-20)
(-0.0450583 0.0154176 4.68227e-20)
(-0.0461136 0.0150389 -1.09247e-19)
(-0.0469564 0.0147781 9.48364e-20)
(-0.0475834 0.014704 5.99981e-20)
(-0.0480009 0.0148972 -1.05084e-19)
(-0.0482286 0.0154503 -4.3417e-20)
(-0.0483052 0.0164649 2.09253e-19)
(-0.0483054 0.0180439 7.12187e-20)
(-0.048305 0.0202925 -2.75903e-20)
(-0.0482017 0.0233579 -1.32182e-20)
(-0.0482604 0.027293 -4.26366e-20)
(-0.000247244 0.000741133 3.38438e-20)
(-0.000787827 0.0021967 -6.84111e-20)
(-0.00144027 0.00364019 1.10882e-20)
(-0.00220309 0.00506756 6.58658e-21)
(-0.00307418 0.00647443 2.52279e-20)
(-0.00405513 0.00785472 -6.83977e-20)
(-0.00514739 0.00920187 6.34249e-20)
(-0.00635113 0.0105091 -8.13849e-20)
(-0.00766537 0.0117696 3.535e-21)
(-0.00908798 0.012976 -2.46666e-20)
(-0.0106157 0.014121 6.6093e-20)
(-0.0122437 0.0151973 2.2393e-20)
(-0.0139661 0.0161971 -9.33249e-21)
(-0.0157752 0.017113 2.46026e-20)
(-0.0176619 0.0179376 -6.51646e-20)
(-0.0196154 0.0186637 4.31183e-20)
(-0.0216232 0.0192844 1.55454e-19)
(-0.0236712 0.0197934 -1.11476e-19)
(-0.0257436 0.0201851 -9.73158e-20)
(-0.0278228 0.020455 7.68241e-20)
(-0.0298897 0.0205996 2.90811e-20)
(-0.0319236 0.0206175 -4.52658e-20)
(-0.0339025 0.0205092 2.49306e-20)
(-0.0358029 0.020278 2.93306e-20)
(-0.0376005 0.0199305 -6.57152e-20)
(-0.0392698 0.0194776 5.69304e-21)
(-0.0407853 0.0189355 -6.19774e-20)
(-0.0421213 0.0183264 8.26236e-20)
(-0.0432529 0.0176802 1.15227e-19)
(-0.0441572 0.017036 -3.12389e-21)
(-0.0448142 0.016444 1.06101e-19)
(-0.045209 0.0159673 -2.19284e-20)
(-0.0453341 0.0156824 -2.16878e-20)
(-0.0451929 0.0156812 2.11413e-20)
(-0.0448029 0.0160706 -1.45563e-19)
(-0.0442037 0.0169708 5.8666e-20)
(-0.0434757 0.0185066 1.06941e-19)
(-0.0427081 0.0208091 -1.2919e-19)
(-0.0418027 0.0240603 7.24249e-20)
(-0.0410248 0.0283447 1.00578e-19)
(-0.000312689 0.000870419 5.08704e-20)
(-0.000979904 0.00257387 -4.35086e-21)
(-0.00175653 0.00425845 1.80763e-20)
(-0.00264042 0.00591918 -3.38545e-20)
(-0.00362873 0.00755073 4.50657e-20)
(-0.00472219 0.00914595 -2.86976e-20)
(-0.00592137 0.0106971 -7.84896e-20)
(-0.00722548 0.0121965 -1.23507e-20)
(-0.00863251 0.0136359 4.99718e-20)
(-0.0101393 0.0150073 -1.257e-20)
(-0.0117415 0.0163022 2.67831e-20)
(-0.0134333 0.0175122 -7.52701e-20)
(-0.0152074 0.0186287 -4.87743e-20)
(-0.0170551 0.0196436 1.42949e-19)
(-0.018966 0.0205485 1.0826e-19)
(-0.020928 0.0213356 -1.7268e-19)
(-0.0229274 0.0219974 6.3906e-20)
(-0.0249487 0.0225271 -1.12705e-19)
(-0.0269748 0.0229186 4.09561e-20)
(-0.0289867 0.023167 -2.66421e-20)
(-0.0309638 0.0232689 5.03006e-20)
(-0.0328839 0.0232222 1.2847e-20)
(-0.0347232 0.0230277 1.25091e-20)
(-0.0364565 0.0226885 2.96421e-20)
(-0.0380572 0.0222113 -4.93142e-20)
(-0.0394979 0.0216075 5.63608e-20)
(-0.04075 0.0208936 7.191e-20)
(-0.0417851 0.0200928 -8.76546e-20)
(-0.0425747 0.0192366 -5.19442e-20)
(-0.043092 0.0183662 -8.59712e-20)
(-0.0433127 0.0175354 -7.89881e-20)
(-0.0432172 0.0168124 1.39872e-19)
(-0.0427934 0.0162817 -2.00436e-19)
(-0.0420407 0.0160466 1.961e-19)
(-0.0409739 0.0162298 -2.76409e-19)
(-0.0396328 0.0169723 -1.07683e-20)
(-0.0381041 0.0184254 -2.14642e-20)
(-0.0364953 0.0207503 5.5376e-20)
(-0.0347176 0.0241681 -2.2311e-20)
(-0.0330117 0.0288043 1.12244e-20)
(-0.000384779 0.00099606 -1.62848e-20)
(-0.00119111 0.00293986 6.06508e-20)
(-0.00210372 0.00485767 -9.2073e-20)
(-0.00311971 0.00674359 7.39046e-21)
(-0.00423541 0.00859135 4.56865e-20)
(-0.00545062 0.0103927 2.07433e-20)
(-0.00676489 0.012139 -1.01236e-19)
(-0.00817637 0.0138213 1.33766e-19)
(-0.00968198 0.0154305 -1.16736e-19)
(-0.0112774 0.0169574 1.36058e-19)
(-0.0129571 0.0183927 -1.57948e-19)
(-0.0147141 0.0197269 7.9343e-20)
(-0.0165397 0.0209509 -7.09308e-20)
(-0.018424 0.0220554 -6.95237e-20)
(-0.0203553 0.0230317 9.30093e-20)
(-0.0223202 0.0238709 -6.49799e-20)
(-0.0243037 0.0245653 5.69211e-20)
(-0.0262888 0.0251073 4.59175e-20)
(-0.0282571 0.0254906 -1.74197e-19)
(-0.030188 0.0257099 3.33476e-20)
(-0.0320596 0.0257613 -2.44601e-20)
(-0.0338479 0.0256426 -9.77825e-20)
(-0.0355275 0.0253542 1.18528e-20)
(-0.0370713 0.0248992 5.47625e-20)
(-0.0384506 0.0242841 -1.09958e-20)
(-0.0396355 0.02352 -6.48898e-20)
(-0.0405949 0.0226234 -1.36741e-19)
(-0.0412969 0.0216181 1.90124e-19)
(-0.0417097 0.0205362 -1.06689e-19)
(-0.0418019 0.0194204 5.62203e-20)
(-0.0415447 0.018327 -2.45425e-19)
(-0.0409131 0.0173287 1.91721e-19)
(-0.0398897 0.0165175 9.59986e-20)
(-0.0384685 0.0160078 -9.31304e-20)
(-0.036661 0.0159394 1.732e-19)
(-0.0345063 0.0164773 1.09721e-19)
(-0.0320982 0.0178041 1.97839e-19)
(-0.0295701 0.0201177 -1.07877e-19)
(-0.0268604 0.023687 1.37047e-20)
(-0.0241342 0.0286998 -3.58624e-20)
(-0.00046323 0.00111753 8.40891e-20)
(-0.00142054 0.00329314 -1.43977e-19)
(-0.00248019 0.00543531 1.19936e-19)
(-0.00363846 0.00753725 -7.7156e-20)
(-0.00489078 0.00959178 6.64852e-20)
(-0.0062359 0.0115897 -7.76686e-20)
(-0.00767224 0.0135211 -2.20963e-21)
(-0.00919681 0.0153763 7.69592e-20)
(-0.0108053 0.0171452 -3.9358e-20)
(-0.0124923 0.0188177 1.00439e-20)
(-0.0142507 0.0203833 8.11588e-20)
(-0.0160723 0.021832 1.26127e-19)
(-0.0179472 0.0231536 -2.16268e-19)
(-0.019864 0.0243385 1.1403e-19)
(-0.0218097 0.0253768 -6.64083e-20)
(-0.0237694 0.0262597 -8.96992e-21)
(-0.0257267 0.0269782 -1.34927e-20)
(-0.0276632 0.0275248 -1.68461e-19)
(-0.029559 0.0278926 -1.08071e-19)
(-0.0313921 0.0280759 1.26047e-19)
(-0.0331389 0.0280706 1.99425e-21)
(-0.0347738 0.0278742 -1.69055e-20)
(-0.0362697 0.0274865 -5.59925e-20)
(-0.0375973 0.0269102 1.71056e-19)
(-0.038726 0.0261515 -1.336e-19)
(-0.0396233 0.0252208 6.3992e-20)
(-0.0402554 0.0241345 -2.68191e-20)
(-0.0405872 0.0229156 3.21149e-19)
(-0.0405829 0.0215963 -2.85508e-19)
(-0.0402068 0.0202199 -1.08846e-19)
(-0.0394247 0.0188441 5.53674e-20)
(-0.0382057 0.0175448 1.91029e-20)
(-0.0365258 0.0164204 -2.6086e-20)
(-0.0343728 0.015596 3.06604e-20)
(-0.0317529 0.0152292 -1.35348e-19)
(-0.0287029 0.015512 1.44579e-19)
(-0.0253226 0.016665 -2.13755e-19)
(-0.0217746 0.0189359 1.96936e-19)
(-0.0180563 0.0226754 -3.92833e-20)
(-0.0142626 0.0282218 -5.25004e-21)
(-0.000547682 0.00123424 6.37317e-20)
(-0.00166704 0.00363196 -1.73899e-19)
(-0.00288392 0.00598851 1.14435e-19)
(-0.00419367 0.00829625 1.64247e-20)
(-0.00559073 0.0105471 1.62281e-20)
(-0.00707266 0.0127309 -1.07791e-19)
(-0.00863667 0.0148368 1.35668e-19)
(-0.0102784 0.0168541 -2.61168e-20)
(-0.0119924 0.0187719 -1.77039e-19)
(-0.0137717 0.0205791 1.96243e-20)
(-0.015608 0.0222647 1.58665e-19)
(-0.0174915 0.0238174 -9.54236e-21)
(-0.0194109 0.0252266 5.54826e-20)
(-0.0213535 0.0264819 -3.80405e-21)
(-0.0233047 0.0275732 1.00698e-19)
(-0.0252482 0.0284909 3.25694e-20)
(-0.027166 0.029226 -1.43871e-19)
(-0.0290382 0.0297701 1.71728e-19)
(-0.0308432 0.0301161 -7.91946e-20)
(-0.0325576 0.0302581 8.60461e-20)
(-0.034156 0.0301915 1.08602e-20)
(-0.0356111 0.0299134 -1.25553e-19)
(-0.0368938 0.0294232 -4.55973e-20)
(-0.0379731 0.0287232 -3.31296e-20)
(-0.038816 0.0278186 2.60839e-19)
(-0.0393877 0.0267194 -1.06725e-19)
(-0.0396513 0.0254406 1.37199e-19)
(-0.0395686 0.0240044 -1.73823e-20)
(-0.0390998 0.0224419 1.29347e-19)
(-0.0382045 0.0207957 -7.34058e-20)
(-0.0368427 0.0191238 8.47883e-20)
(-0.034977 0.0175036 1.04892e-19)
(-0.0325758 0.0160377 -2.04545e-19)
(-0.0296187 0.0148609 -5.32695e-20)
(-0.026104 0.0141476 1.62362e-19)
(-0.0220633 0.0141182 3.76792e-20)
(-0.0175962 0.0150365 -9.54812e-21)
(-0.0128724 0.0172152 2.50342e-20)
(-0.00791014 0.0211262 -4.96795e-20)
(-0.00296583 0.0272543 -2.47573e-19)
(-0.000637754 0.00134563 3.87562e-21)
(-0.00192936 0.00395461 -6.07199e-20)
(-0.0033126 0.00651444 5.4453e-20)
(-0.00478179 0.0090167 -1.30873e-20)
(-0.00633018 0.0114523 -1.3431e-19)
(-0.00795415 0.0138103 1.18275e-19)
(-0.00964947 0.0160788 7.13192e-20)
(-0.0114106 0.0182462 -1.31869e-20)
(-0.0132304 0.020301 -9.74889e-21)
(-0.0151006 0.0222313 -1.20707e-19)
(-0.0170115 0.0240253 2.37555e-20)
(-0.0189518 0.0256714 1.41304e-19)
(-0.0209086 0.0271581 -1.94239e-19)
(-0.0228675 0.0284743 1.48256e-19)
(-0.0248124 0.0296097 -3.40724e-20)
(-0.0267252 0.0305541 -6.21929e-20)
(-0.0285864 0.0312982 -6.30864e-20)
(-0.0303744 0.0318334 6.32799e-20)
(-0.0320659 0.0321524 3.73208e-20)
(-0.0336356 0.0322489 -1.06707e-19)
(-0.0350566 0.032118 -8.73411e-20)
(-0.0362996 0.0317566 -2.95557e-21)
(-0.0373336 0.0311637 -1.84465e-21)
(-0.0381255 0.0303407 1.79976e-20)
(-0.0386401 0.0292923 -3.79108e-20)
(-0.03884 0.0280271 -6.29598e-20)
(-0.0386855 0.026559 1.49803e-20)
(-0.0381348 0.0249083 1.04182e-19)
(-0.0371443 0.0231042 -1.871e-19)
(-0.0356686 0.0211876 -6.21849e-20)
(-0.0336618 0.0192147 3.86337e-20)
(-0.0310794 0.0172625 -1.56012e-19)
(-0.0278815 0.0154355 1.95398e-19)
(-0.024038 0.0138748 -3.49261e-20)
(-0.019537 0.0127688 -4.16422e-20)
(-0.0144019 0.0123646 1.92718e-19)
(-0.00873065 0.0129692 1.03785e-19)
(-0.00269282 0.0149666 -6.90135e-20)
(0.00371202 0.0189631 -1.48463e-19)
(0.010007 0.0255393 2.27441e-19)
(-0.000732871 0.00145096 1.17726e-20)
(-0.00220565 0.00425887 -1.14717e-19)
(-0.00376286 0.00700931 3.06153e-20)
(-0.00539771 0.00969309 1.60935e-19)
(-0.00710236 0.0123005 -1.11949e-19)
(-0.00887174 0.0148197 7.46631e-20)
(-0.0107003 0.0172381 -9.85786e-20)
(-0.0125809 0.0195432 2.66731e-20)
(-0.0145051 0.0217227 3.98766e-20)
(-0.0164629 0.0237641 -2.62804e-20)
(-0.0184428 0.0256549 -3.46572e-20)
(-0.0204319 0.027383 6.26359e-20)
(-0.0224157 0.0289363 -8.29719e-20)
(-0.024378 0.0303036 3.17274e-20)
(-0.0263008 0.0314739 3.50084e-20)
(-0.0281644 0.0324369 -2.60897e-20)
(-0.0299474 0.0331831 1.35888e-19)
(-0.0316264 0.0337038 3.4506e-20)
(-0.0331762 0.0339915 6.33275e-20)
(-0.0345697 0.0340397 -2.09546e-20)
(-0.0357779 0.0338436 -5.73781e-20)
(-0.0367697 0.0333997 1.39314e-19)
(-0.0375119 0.0327067 -6.37931e-20)
(-0.0379692 0.0317654 -2.66981e-19)
(-0.0381039 0.0305796 1.01495e-19)
(-0.037876 0.0291567 -1.79645e-19)
(-0.0372428 0.0275089 -8.77891e-20)
(-0.0361592 0.0256545 1.80185e-19)
(-0.0345772 0.0236198 -7.98105e-20)
(-0.0324467 0.0214427 3.95951e-20)
(-0.0297159 0.019176 1.39871e-19)
(-0.026333 0.0168939 -3.09586e-19)
(-0.0222491 0.0146994 -1.93538e-19)
(-0.0174238 0.0127358 1.10418e-19)
(-0.0118335 0.0112015 -1.53685e-19)
(-0.0054907 0.0103656 8.54374e-22)
(0.00151013 0.0105772 -3.90144e-20)
(0.00899765 0.0122987 2.35282e-19)
(0.0169791 0.0162828 -4.85037e-19)
(0.0248042 0.0232326 1.63292e-19)
(-0.000832318 0.00154939 8.06334e-21)
(-0.00249373 0.00454237 -4.19891e-20)
(-0.00423104 0.00746949 1.1576e-20)
(-0.0060363 0.0103208 7.37025e-20)
(-0.00790043 0.0130859 -8.21431e-20)
(-0.00981689 0.0157522 -1.64486e-20)
(-0.0117785 0.0183065 -8.68685e-20)
(-0.0137767 0.0207355 1.70884e-19)
(-0.015801 0.0230263 -1.08609e-19)
(-0.0178398 0.0251657 3.88247e-20)
(-0.01988 0.0271408 9.65516e-20)
(-0.0219067 0.0289389 -1.33818e-19)
(-0.0239035 0.0305479 9.56116e-20)
(-0.0258523 0.0319561 -3.63186e-20)
(-0.0277332 0.0331522 2.20517e-20)
(-0.0295245 0.0341259 3.64883e-21)
(-0.0312028 0.0348676 -2.30079e-19)
(-0.0327426 0.0353688 1.18644e-19)
(-0.0341167 0.035622 -1.32462e-19)
(-0.0352959 0.0356208 1.14916e-20)
(-0.0362489 0.0353604 6.70227e-20)
(-0.0369425 0.0348372 -9.01115e-20)
(-0.037341 0.0340498 -6.64506e-20)
(-0.0374067 0.0329986 9.36274e-20)
(-0.0370993 0.0316866 1.58289e-19)
(-0.0363759 0.0301202 -1.58961e-19)
(-0.0351906 0.0283098 2.14536e-19)
(-0.0334946 0.0262711 -8.40966e-20)
(-0.0312361 0.0240275 2.24887e-19)
(-0.02836 0.0216125 6.15883e-20)
(-0.0248087 0.0190743 -2.63004e-19)
(-0.0205233 0.0164815 2.0315e-20)
(-0.0154463 0.0139325 3.68474e-20)
(-0.00952662 0.0115677 -1.53439e-19)
(-0.00272809 0.00958898 -2.78779e-21)
(0.00494911 0.00828105 -2.89235e-20)
(0.0134169 0.00802994 -4.17174e-20)
(0.0225005 0.00937739 6.02654e-20)
(0.0322077 0.0132422 -7.34222e-20)
(0.0417325 0.0205303 -1.03035e-19)
(-0.000935278 0.00163998 -6.0902e-20)
(-0.00279115 0.00480246 1.07242e-19)
(-0.00471291 0.00789068 2.57317e-20)
(-0.00669139 0.010894 -8.10411e-20)
(-0.00871612 0.0138014 5.40086e-21)
(-0.010779 0.0165995 1.00217e-19)
(-0.0128711 0.0192744 -9.55838e-20)
(-0.0149819 0.0218125 7.07555e-20)
(-0.0170994 0.0242001 -1.27572e-19)
(-0.0192099 0.0264236 -3.3073e-20)
(-0.0212983 0.0284698 1.37106e-19)
(-0.0233478 0.0303256 -7.87642e-20)
(-0.0253398 0.0319787 3.68169e-20)
(-0.0272541 0.0334171 4.06097e-20)
(-0.0290687 0.0346298 1.86621e-20)
(-0.0307597 0.0356064 -5.81401e-20)
(-0.0323013 0.0363376 1.7875e-19)
(-0.0336658 0.0368149 -6.24175e-20)
(-0.0348237 0.0370313 7.72915e-20)
(-0.0357432 0.0369807 -6.06417e-20)
(-0.0363906 0.0366585 -1.82069e-20)
(-0.03673 0.0360616 -2.5677e-20)
(-0.0367231 0.0351884 -1.17995e-19)
(-0.0363293 0.0340395 2.72021e-20)
(-0.0355053 0.0326174 2.19244e-20)
(-0.0342049 0.0309275 9.9392e-20)
(-0.0323789 0.0289788 -6.0688e-20)
(-0.0299747 0.0267848 4.56716e-20)
(-0.0269362 0.0243654 -1.80867e-20)
(-0.0232037 0.0217496 7.74179e-20)
(-0.0187141 0.0189796 -3.14638e-20)
(-0.0134019 0.0161167 -8.98217e-20)
(-0.00720156 0.0132507 1.32033e-19)
(-5.21975e-05 0.0105144 -2.01035e-19)
(0.0080944 0.00810518 8.02292e-20)
(0.0172514 0.00631395 9.14587e-20)
(0.0273391 0.00555349 1.92992e-19)
(0.0381805 0.00643821 -1.55616e-19)
(0.049788 0.0100704 1.49234e-19)
(0.0612092 0.0176302 1.51389e-19)
(-0.00104082 0.00172187 6.86325e-21)
(-0.00309504 0.00503663 1.33411e-19)
(-0.00520354 0.0082688 -7.9659e-22)
(-0.00735581 0.0114071 -4.88835e-20)
(-0.00953993 0.0144398 -2.37428e-20)
(-0.011746 0.017353 3.81555e-20)
(-0.0139632 0.0201322 -5.96813e-20)
(-0.0161792 0.0227634 -5.1604e-21)
(-0.0183798 0.0252323 1.47347e-19)