/*--------------------------------*- C++ -*----------------------------------*\
  =========                 |
  \\      /  F ield         | OpenFOAM: The Open Source CFD Toolbox
   \\    /   O peration     | Website:  https://openfoam.org
    \\  /    A nd           | Version:  7
     \\/     M anipulation  |
\*---------------------------------------------------------------------------*/
FoamFile
{
    version     2.0;
    format      ascii;
    class       volScalarField;
    location    "41.99986";
    object      p;
}
// * * * * * * * * * * * * * * * * * * * * * * * * * * * * * * * * * * * * * //

dimensions      [0 2 -2 0 0 0 0];

internalField   nonuniform List<scalar> 
5800
(
-0.282996
-0.278136
-0.272575
-0.266347
-0.259505
-0.252121
-0.244295
-0.236192
-0.227949
-0.28862
-0.292718
-0.295099
-0.296392
-0.296898
-0.296586
-0.295468
-0.293567
-0.290899
-0.287478
-0.283316
-0.27843
-0.272842
-0.266588
-0.259716
-0.252297
-0.24443
-0.236285
-0.227986
-0.290259
-0.294173
-0.296417
-0.297593
-0.29799
-0.297581
-0.296375
-0.294395
-0.291656
-0.288171
-0.283951
-0.279011
-0.273372
-0.267064
-0.260134
-0.252647
-0.244695
-0.236468
-0.228059
-0.292697
-0.296339
-0.298379
-0.29938
-0.299616
-0.29906
-0.297721
-0.295623
-0.292778
-0.289197
-0.284891
-0.279871
-0.274154
-0.267766
-0.26075
-0.253162
-0.245085
-0.236737
-0.228168
-0.29591
-0.299195
-0.300966
-0.301737
-0.301758
-0.301007
-0.299494
-0.297237
-0.294251
-0.290542
-0.28612
-0.280993
-0.275173
-0.268681
-0.261551
-0.25383
-0.245591
-0.237083
-0.228315
-0.299867
-0.302715
-0.304155
-0.304641
-0.304397
-0.303405
-0.301672
-0.299219
-0.296055
-0.292187
-0.287621
-0.28236
-0.276412
-0.26979
-0.262521
-0.25464
-0.246204
-0.237498
-0.2285
-0.216643
-0.304534
-0.30687
-0.307919
-0.308069
-0.30751
-0.306229
-0.304236
-0.301546
-0.29817
-0.294111
-0.28937
-0.283949
-0.277849
-0.271074
-0.263642
-0.255574
-0.246909
-0.237972
-0.228722
-0.215546
-0.309869
-0.311624
-0.312229
-0.311992
-0.31107
-0.309456
-0.307159
-0.304196
-0.300571
-0.296289
-0.291347
-0.285739
-0.279462
-0.272513
-0.264895
-0.256618
-0.247695
-0.238493
-0.228982
-0.214279
-0.31583
-0.316942
-0.317051
-0.31638
-0.315049
-0.313058
-0.310418
-0.307142
-0.303235
-0.298698
-0.293525
-0.287706
-0.28123
-0.274083
-0.26626
-0.257753
-0.24855
-0.239053
-0.22928
-0.212855
-0.322373
-0.322785
-0.322351
-0.321202
-0.319419
-0.317009
-0.313986
-0.310361
-0.306138
-0.301315
-0.295883
-0.289827
-0.283128
-0.275764
-0.267717
-0.258963
-0.249461
-0.23964
-0.229615
-0.211293
-0.329454
-0.329117
-0.328095
-0.326428
-0.324151
-0.321283
-0.317838
-0.313828
-0.309256
-0.304117
-0.298399
-0.292082
-0.285139
-0.277538
-0.269249
-0.260234
-0.250417
-0.240247
-0.229983
-0.20962
-0.33703
-0.335898
-0.334252
-0.332027
-0.329218
-0.325853
-0.321951
-0.317522
-0.312569
-0.307085
-0.301054
-0.294451
-0.287243
-0.279387
-0.270842
-0.261551
-0.251409
-0.240866
-0.230377
-0.207869
-0.34506
-0.343094
-0.340787
-0.337969
-0.334593
-0.330696
-0.326304
-0.321424
-0.31606
-0.310203
-0.303833
-0.296922
-0.289428
-0.281299
-0.272481
-0.262904
-0.252428
-0.241492
-0.230783
-0.206081
-0.353503
-0.350669
-0.34767
-0.344228
-0.340251
-0.335792
-0.330877
-0.325517
-0.319713
-0.313457
-0.306725
-0.299483
-0.291683
-0.283264
-0.274159
-0.264285
-0.253468
-0.242123
-0.231179
-0.204304
-0.362325
-0.358592
-0.354872
-0.350778
-0.346172
-0.34112
-0.335655
-0.329787
-0.323519
-0.316839
-0.309721
-0.302127
-0.294001
-0.285274
-0.275868
-0.265686
-0.254525
-0.24276
-0.231542
-0.202602
-0.371492
-0.366832
-0.362366
-0.357595
-0.352333
-0.346664
-0.340623
-0.334224
-0.327468
-0.320342
-0.312817
-0.30485
-0.296379
-0.287326
-0.277604
-0.267103
-0.255595
-0.243415
-0.231846
-0.201074
-0.380971
-0.375359
-0.370125
-0.364655
-0.358717
-0.352408
-0.345771
-0.33882
-0.331555
-0.323962
-0.31601
-0.30765
-0.298814
-0.289417
-0.279364
-0.268532
-0.256677
-0.244094
-0.232004
-0.199749
-0.390733
-0.384146
-0.378125
-0.371938
-0.365305
-0.358339
-0.351088
-0.343567
-0.335775
-0.327698
-0.319299
-0.310525
-0.301303
-0.291543
-0.281144
-0.269974
-0.257788
-0.244825
-0.231798
-0.198419
-0.400748
-0.393164
-0.386339
-0.379421
-0.372079
-0.364442
-0.356565
-0.348459
-0.340126
-0.331546
-0.322681
-0.313471
-0.30384
-0.293695
-0.282935
-0.271432
-0.258977
-0.245735
-0.231309
-0.197753
-0.410982
-0.402383
-0.394742
-0.387082
-0.379021
-0.370704
-0.362189
-0.353488
-0.344599
-0.335501
-0.326149
-0.31648
-0.306412
-0.295855
-0.284714
-0.272887
-0.260263
-0.246992
-0.231899
-0.204789
-0.421403
-0.411771
-0.403302
-0.394893
-0.386109
-0.377106
-0.367948
-0.358643
-0.349187
-0.339554
-0.329693
-0.319536
-0.308999
-0.297993
-0.286435
-0.274264
-0.261483
-0.248331
-0.234802
-0.226701
-0.431971
-0.42129
-0.411987
-0.402828
-0.393318
-0.383629
-0.373825
-0.36391
-0.353875
-0.343688
-0.333293
-0.322615
-0.311567
-0.300063
-0.288033
-0.275446
-0.262386
-0.249112
-0.235623
-0.231145
-0.44264
-0.430899
-0.42076
-0.410851
-0.40062
-0.390247
-0.379796
-0.369266
-0.358641
-0.347881
-0.336921
-0.325682
-0.314073
-0.302011
-0.289436
-0.276339
-0.262838
-0.249162
-0.235052
-0.230177
-0.453358
-0.440548
-0.429574
-0.418923
-0.407978
-0.396927
-0.385832
-0.374683
-0.363454
-0.352097
-0.340539
-0.328693
-0.316466
-0.303776
-0.290575
-0.276867
-0.262783
-0.248511
-0.233701
-0.227244
-0.46406
-0.45018
-0.438378
-0.426996
-0.415348
-0.403629
-0.391894
-0.38012
-0.368273
-0.356292
-0.344096
-0.331589
-0.318679
-0.305288
-0.291375
-0.27696
-0.262175
-0.247172
-0.231608
-0.22314
-0.474675
-0.459727
-0.447109
-0.435014
-0.422679
-0.410304
-0.397933
-0.385529
-0.373045
-0.360409
-0.347528
-0.334303
-0.32064
-0.306469
-0.291763
-0.276555
-0.260978
-0.245159
-0.228819
-0.21833
-0.485117
-0.469112
-0.455698
-0.44291
-0.429909
-0.416892
-0.403889
-0.390848
-0.377706
-0.364376
-0.35076
-0.336752
-0.322264
-0.307238
-0.291662
-0.27559
-0.259161
-0.242494
-0.2254
-0.213089
-0.495289
-0.478247
-0.464062
-0.450608
-0.436965
-0.423321
-0.409692
-0.396004
-0.382177
-0.368113
-0.353705
-0.338848
-0.323463
-0.307508
-0.290998
-0.27401
-0.2567
-0.23919
-0.221394
-0.207534
-0.505081
-0.487033
-0.472109
-0.458022
-0.443763
-0.42951
-0.415256
-0.400908
-0.386367
-0.371523
-0.356264
-0.340491
-0.32414
-0.307194
-0.289699
-0.271763
-0.253568
-0.235251
-0.216825
-0.201697
-0.514371
-0.495357
-0.479736
-0.465052
-0.450208
-0.435363
-0.420487
-0.405464
-0.390174
-0.374501
-0.358331
-0.341577
-0.324197
-0.306209
-0.287695
-0.268803
-0.249742
-0.230675
-0.211702
-0.195564
-0.523026
-0.503098
-0.486827
-0.47159
-0.456193
-0.440774
-0.425277
-0.409558
-0.393485
-0.376931
-0.35979
-0.341995
-0.323535
-0.304468
-0.284921
-0.265085
-0.2452
-0.225455
-0.206022
-0.1891
-0.530899
-0.510124
-0.493259
-0.477515
-0.4616
-0.445625
-0.429505
-0.41307
-0.396174
-0.37869
-0.360524
-0.341637
-0.322057
-0.301891
-0.281317
-0.260571
-0.239922
-0.219584
-0.199781
-0.182268
-0.537836
-0.51629
-0.498896
-0.482697
-0.466301
-0.449788
-0.433042
-0.415869
-0.398113
-0.37965
-0.36041
-0.34039
-0.319668
-0.298405
-0.276831
-0.255226
-0.233888
-0.21305
-0.192968
-0.175028
-0.543673
-0.521447
-0.503595
-0.486996
-0.470158
-0.453125
-0.43575
-0.417817
-0.399163
-0.37968
-0.359328
-0.33815
-0.316281
-0.293941
-0.271415
-0.249022
-0.227083
-0.205843
-0.185575
-0.167349
-0.54824
-0.525436
-0.507205
-0.490266
-0.473026
-0.455492
-0.437484
-0.418768
-0.399186
-0.378649
-0.35716
-0.334815
-0.311815
-0.288441
-0.265029
-0.241936
-0.219495
-0.197957
-0.177593
-0.159203
-0.55136
-0.528095
-0.509569
-0.492352
-0.474754
-0.456737
-0.438094
-0.418579
-0.398042
-0.376429
-0.353792
-0.330293
-0.306198
-0.281853
-0.257642
-0.233949
-0.211115
-0.189384
-0.169016
-0.150569
-0.552858
-0.529257
-0.510528
-0.493099
-0.475185
-0.456706
-0.437428
-0.417101
-0.395595
-0.372897
-0.34912
-0.324498
-0.299369
-0.274136
-0.249229
-0.225049
-0.201935
-0.180121
-0.159838
-0.141435
-0.552556
-0.528755
-0.509919
-0.492347
-0.474163
-0.455245
-0.435337
-0.414193
-0.391713
-0.367938
-0.34305
-0.317359
-0.291275
-0.265259
-0.239772
-0.215228
-0.191955
-0.170167
-0.150058
-0.13179
-0.550281
-0.526424
-0.507583
-0.489938
-0.471532
-0.4522
-0.431673
-0.409717
-0.386273
-0.361447
-0.335497
-0.308814
-0.281876
-0.255196
-0.229261
-0.204484
-0.181174
-0.159522
-0.139677
-0.121632
-0.545863
-0.522105
-0.503362
-0.485717
-0.467138
-0.447423
-0.426294
-0.403543
-0.379163
-0.353331
-0.326392
-0.298814
-0.271144
-0.243935
-0.217692
-0.192818
-0.169597
-0.148192
-0.128698
-0.110961
-0.539145
-0.515643
-0.497106
-0.479535
-0.460836
-0.440774
-0.419071
-0.395556
-0.370283
-0.343514
-0.315678
-0.287325
-0.25906
-0.231472
-0.205068
-0.180239
-0.157232
-0.136182
-0.117127
-0.0997797
-0.529978
-0.506896
-0.488674
-0.471252
-0.45249
-0.432122
-0.409885
-0.385651
-0.35955
-0.331932
-0.303314
-0.274324
-0.245618
-0.217808
-0.1914
-0.166757
-0.14409
-0.123504
-0.104974
-0.0880973
-0.51823
-0.495734
-0.477936
-0.46074
-0.441975
-0.421353
-0.39863
-0.373741
-0.346896
-0.318538
-0.289275
-0.259802
-0.230822
-0.202958
-0.176703
-0.152389
-0.130189
-0.110172
-0.0922526
-0.0759302
-0.503786
-0.482042
-0.464778
-0.447887
-0.429184
-0.408366
-0.385223
-0.359758
-0.332272
-0.303305
-0.273549
-0.243766
-0.214687
-0.186942
-0.161
-0.137158
-0.115546
-0.0962014
-0.0789793
-0.063296
-0.48655
-0.465725
-0.449104
-0.432598
-0.414026
-0.39308
-0.369594
-0.343651
-0.315649
-0.286221
-0.256144
-0.226232
-0.197239
-0.169788
-0.144321
-0.12109
-0.100186
-0.0816138
-0.0651705
-0.0501688
-0.46645
-0.446707
-0.430836
-0.414796
-0.396431
-0.375435
-0.3517
-0.325394
-0.297016
-0.267295
-0.23708
-0.207231
-0.178514
-0.151535
-0.126699
-0.104217
-0.0841364
-0.0664353
-0.0508525
-0.0364928
-0.443439
-0.424937
-0.409922
-0.39443
-0.376352
-0.355395
-0.331516
-0.30498
-0.276385
-0.246551
-0.216395
-0.186808
-0.158558
-0.132225
-0.108177
-0.0865765
-0.0674315
-0.0506901
-0.036052
-0.0225375
-0.417495
-0.400388
-0.386331
-0.371471
-0.353765
-0.332947
-0.309045
-0.282424
-0.253785
-0.224033
-0.194138
-0.165017
-0.137426
-0.111913
-0.0888019
-0.0682103
-0.0501121
-0.034433
-0.0207559
-0.00821904
-0.388626
-0.37306
-0.360061
-0.345915
-0.328674
-0.308102
-0.28431
-0.257767
-0.22927
-0.199801
-0.170378
-0.141925
-0.115182
-0.0906574
-0.068629
-0.0491701
-0.0322174
-0.0176791
-0.00504721
0.00646336
-0.356868
-0.342982
-0.331135
-0.317788
-0.301108
-0.2809
-0.257362
-0.231068
-0.202909
-0.173933
-0.145193
-0.117611
-0.0919001
-0.0685266
-0.0477187
-0.0295065
-0.013796
-0.000474406
0.0110397
0.021473
-0.322289
-0.310211
-0.299605
-0.287143
-0.271124
-0.251405
-0.228275
-0.202412
-0.174793
-0.146523
-0.118675
-0.0921631
-0.0676631
-0.0455942
-0.026137
-0.00927942
0.00509968
0.0171327
0.0274668
0.0367687
-0.284985
-0.274833
-0.265553
-0.254059
-0.238806
-0.219707
-0.197148
-0.171904
-0.145029
-0.117678
-0.0909303
-0.0656797
-0.0425606
-0.0219419
-0.00395679
0.0114461
0.024412
0.0350909
0.0441891
0.0523057
-0.245085
-0.236965
-0.22909
-0.218646
-0.204266
-0.185925
-0.164101
-0.139669
-0.113743
-0.0875207
-0.0620748
-0.0382684
-0.0166902
0.00234252
0.0187433
0.0325999
0.0440782
0.0533446
0.0611566
0.068035
-0.202747
-0.19675
-0.190354
-0.181041
-0.167642
-0.150197
-0.129278
-0.105845
-0.0810795
-0.0561876
-0.0322346
-0.0100451
0.00984325
0.0271651
0.0418792
0.0541066
0.0640307
0.0718337
0.0783139
0.0839006
-0.15816
-0.154362
-0.149511
-0.141409
-0.1291
-0.112686
-0.0928432
-0.0706025
-0.0471918
-0.023825
-0.00154584
0.0188667
0.0369286
0.0524265
0.0653621
0.0758861
0.0841972
0.0904934
0.0956003
0.0998395
-0.111528
-0.110003
-0.106756
-0.0999372
-0.0888209
-0.0735851
-0.0549812
-0.0341158
-0.0122488
0.0094092
0.0298471
0.0483365
0.0644491
0.0780224
0.0890984
0.097854
0.104501
0.109256
0.112952
0.115782
-0.0630431
-0.0639406
-0.062306
-0.0568406
-0.047022
-0.0330962
-0.0158919
0.00342291
0.0235681
0.0433481
0.0617926
0.0782282
0.0922832
0.103844
0.112991
0.119922
0.124862
0.128056
0.130311
0.131627
-0.0131045
-0.0163347
-0.0164002
-0.0123572
-0.00393287
0.00855565
0.0242082
0.0418084
0.060068
0.0778167
0.0941327
0.108401
0.120305
0.129781
0.136941
0.142
0.145201
0.146837
0.147614
0.147178
0.0380932
0.0324872
0.0306919
0.0332571
0.0401975
0.0511291
0.0650891
0.0808247
0.0970513
0.112634
0.126704
0.138708
0.148387
0.155718
0.160844
0.163994
0.165437
0.165527
0.164692
0.162195
0.090241
0.0822354
0.0786908
0.0797291
0.0851039
0.0943694
0.10651
0.120247
0.134312
0.147612
0.159341
0.169003
0.176396
0.181538
0.184597
0.185813
0.185489
0.183988
0.181179
0.176628
0.14301
0.132606
0.1273
0.12677
0.130508
0.138011
0.14822
0.159844
0.171638
0.182562
0.191871
0.199135
0.204201
0.207126
0.208101
0.207375
0.205284
0.202106
0.196852
0.190722
0.196064
0.183278
0.176208
0.174078
0.176119
0.181778
0.189962
0.199377
0.208814
0.21729
0.224125
0.228951
0.231666
0.232364
0.231252
0.228595
0.22475
0.219956
0.213182
0.206608
0.249056
0.23392
0.225093
0.221343
0.221642
0.225391
0.231475
0.238608
0.245624
0.251601
0.255929
0.258299
0.258658
0.257131
0.253944
0.249373
0.24378
0.237368
0.229264
0.22199
0.301634
0.284193
0.273628
0.268248
0.266772
0.268565
0.272496
0.277296
0.281849
0.285302
0.287111
0.287027
0.285041
0.281308
0.27607
0.269611
0.262286
0.254275
0.244853
0.236643
0.353441
0.333755
0.32148
0.314473
0.311206
0.311014
0.312759
0.3152
0.317275
0.318201
0.317501
0.314984
0.310683
0.304778
0.297525
0.289212
0.280188
0.270613
0.259892
0.250585
0.40412
0.382259
0.368315
0.359697
0.354639
0.352453
0.352004
0.352082
0.351688
0.350108
0.346931
0.342023
0.335453
0.327425
0.318205
0.308087
0.297405
0.28631
0.274316
0.263841
0.453317
0.429367
0.413803
0.403602
0.396772
0.392604
0.389973
0.387711
0.38488
0.380837
0.375239
0.367998
0.359223
0.349136
0.338013
0.326147
0.31386
0.301296
0.288066
0.276401
0.500685
0.47474
0.457619
0.445878
0.437308
0.43119
0.426416
0.421859
0.416649
0.410211
0.402264
0.392771
0.381871
0.369804
0.356853
0.343308
0.329481
0.315508
0.301086
0.28824
0.545885
0.518053
0.499447
0.48622
0.475963
0.467949
0.461091
0.454309
0.4468
0.438056
0.427855
0.416207
0.403278
0.389323
0.374631
0.359491
0.344197
0.328886
0.313329
0.299327
0.588591
0.55899
0.538981
0.524338
0.512462
0.502625
0.493766
0.484853
0.475147
0.464207
0.451868
0.438178
0.423331
0.407596
0.391263
0.374617
0.357943
0.341373
0.324745
0.309634
0.628493
0.597251
0.575931
0.559953
0.546544
0.534978
0.524222
0.513293
0.501516
0.488511
0.474165
0.458564
0.441925
0.424527
0.406664
0.388617
0.370656
0.352915
0.33529
0.319129
0.665299
0.632553
0.610024
0.592805
0.577965
0.564783
0.552254
0.539446
0.525742
0.510821
0.494618
0.477251
0.458959
0.44003
0.420759
0.401422
0.382277
0.363461
0.34492
0.32778
0.69874
0.664634
0.641007
0.622652
0.606498
0.59183
0.577673
0.563142
0.547675
0.531005
0.513109
0.494137
0.474344
0.454025
0.433476
0.412969
0.392752
0.372964
0.353593
0.335556
0.728567
0.693255
0.668648
0.649274
0.631936
0.615929
0.600306
0.584226
0.567178
0.548942
0.529532
0.509127
0.487994
0.466437
0.444751
0.423203
0.402032
0.381379
0.361272
0.34243
0.754559
0.718201
0.69274
0.672473
0.654095
0.636911
0.620001
0.602562
0.584128
0.564523
0.543792
0.522136
0.499837
0.477202
0.454526
0.432073
0.410072
0.388669
0.367923
0.348375
0.776523
0.739284
0.713101
0.692076
0.672814
0.654628
0.636623
0.618029
0.59842
0.577654
0.555805
0.533092
0.509807
0.486262
0.46275
0.439534
0.416834
0.394799
0.373513
0.353366
0.794295
0.756346
0.729579
0.707937
0.687956
0.668955
0.650058
0.630526
0.609963
0.588255
0.565501
0.541932
0.51785
0.493568
0.469382
0.445549
0.422283
0.399738
0.378018
0.357385
0.807742
0.769256
0.742047
0.719938
0.69941
0.679789
0.660216
0.639972
0.618684
0.596264
0.572823
0.548607
0.523921
0.499083
0.474387
0.450087
0.426394
0.403464
0.381416
0.360413
0.816764
0.777918
0.750412
0.727989
0.707094
0.687056
0.667027
0.646303
0.62453
0.60163
0.577728
0.553078
0.527988
0.502776
0.477738
0.453126
0.429146
0.405958
0.38369
0.36244
0.55532
0.530026
0.504628
0.479418
0.454649
0.430526
0.407209
0.38483
0.363455
-0.227361
-0.229707
-0.231998
-0.234137
-0.23133
-0.236011
-0.233514
-0.224412
-0.237499
-0.235298
-0.225869
-0.238476
-0.236503
-0.226895
-0.220414
-0.238825
-0.236934
-0.227333
-0.220973
-0.23853
-0.236364
-0.227084
-0.221022
-0.215721
-0.235539
-0.233882
-0.225944
-0.220441
-0.215367
-0.210071
-0.235024
-0.229801
-0.221813
-0.216678
-0.21191
-0.207157
-0.206725
-0.217002
-0.21967
-0.21622
-0.211389
-0.206838
-0.2022
-0.201759
-0.209105
-0.212628
-0.209636
-0.206362
-0.202647
-0.198537
-0.199443
-0.203672
-0.206589
-0.204313
-0.201326
-0.19802
-0.194317
-0.196749
-0.198986
-0.201221
-0.199291
-0.196553
-0.193565
-0.190198
-0.193749
-0.194548
-0.196057
-0.194283
-0.191785
-0.189069
-0.185997
-0.190268
-0.190143
-0.190968
-0.189274
-0.18697
-0.184477
-0.181663
-0.186284
-0.185635
-0.18588
-0.18424
-0.182103
-0.1798
-0.177214
-0.181851
-0.180948
-0.180734
-0.179149
-0.177171
-0.175042
-0.172665
-0.177016
-0.17605
-0.175494
-0.173979
-0.172163
-0.170203
-0.168022
-0.171831
-0.17094
-0.170147
-0.168724
-0.167076
-0.165285
-0.163294
-0.166357
-0.165635
-0.164696
-0.163383
-0.161912
-0.160294
-0.158489
-0.160653
-0.160161
-0.159151
-0.157968
-0.15668
-0.155239
-0.153619
-0.154778
-0.154549
-0.153531
-0.152491
-0.151393
-0.150132
-0.148696
-0.148787
-0.148836
-0.147859
-0.146973
-0.146065
-0.144988
-0.143734
-0.142733
-0.143059
-0.142161
-0.141434
-0.140715
-0.13982
-0.138747
-0.136661
-0.137252
-0.136462
-0.135896
-0.135362
-0.134647
-0.133752
-0.130614
-0.13145
-0.130788
-0.130381
-0.130025
-0.129486
-0.128764
-0.124627
-0.125686
-0.125163
-0.12491
-0.124723
-0.124353
-0.123798
-0.118732
-0.119986
-0.119609
-0.119503
-0.119475
-0.119264
-0.118869
-0.112955
-0.114376
-0.114144
-0.114178
-0.114296
-0.114236
-0.113991
-0.107316
-0.108876
-0.108787
-0.108949
-0.109201
-0.10928
-0.109177
-0.10183
-0.103504
-0.103549
-0.10383
-0.104203
-0.104411
-0.104439
-0.0965096
-0.0982723
-0.0984435
-0.098832
-0.0993136
-0.0996371
-0.0997859
-0.0913617
-0.0931912
-0.0934781
-0.0939629
-0.0945406
-0.0949688
-0.0952279
-0.086391
-0.0882679
-0.0886593
-0.0892293
-0.0898914
-0.090413
-0.0907719
-0.0815994
-0.0835069
-0.0839914
-0.084636
-0.0853713
-0.0859755
-0.0864239
-0.0769868
-0.0789104
-0.0794768
-0.0801862
-0.0809843
-0.0816606
-0.0821887
-0.0725514
-0.0744792
-0.0751167
-0.0758815
-0.0767329
-0.0774717
-0.0780701
-0.0682907
-0.0702124
-0.0709111
-0.0717226
-0.0726186
-0.073411
-0.0740709
-0.0642009
-0.0661082
-0.0668588
-0.0677094
-0.068642
-0.0694798
-0.070193
-0.0602781
-0.0621641
-0.0629583
-0.0638409
-0.064803
-0.0656785
-0.0664375
-0.056518
-0.0583771
-0.0592073
-0.0601156
-0.0611008
-0.0620073
-0.062805
-0.0529163
-0.0547438
-0.0556033
-0.0565315
-0.0575342
-0.0584655
-0.0592954
-0.0494684
-0.0512605
-0.0521433
-0.0530866
-0.0541015
-0.0550521
-0.0559085
-0.0461701
-0.0479237
-0.0488244
-0.0497782
-0.0508009
-0.0517657
-0.0526433
-0.0430169
-0.0447294
-0.0456435
-0.0466038
-0.0476303
-0.0486048
-0.0494988
-0.0400046
-0.0416741
-0.0425971
-0.0435606
-0.0445873
-0.0455676
-0.0464737
-0.0371289
-0.0387537
-0.0396822
-0.0406457
-0.0416695
-0.042652
-0.0435663
-0.0343856
-0.0359647
-0.0368952
-0.0378561
-0.0388743
-0.0398559
-0.0407748
-0.0317708
-0.0333032
-0.0342329
-0.0351888
-0.0361991
-0.0371769
-0.0380974
-0.0292802
-0.0307655
-0.0316919
-0.0326407
-0.033641
-0.0346127
-0.0355321
-0.02691
-0.028348
-0.0292688
-0.0302088
-0.0311973
-0.0321608
-0.0330766
-0.0246563
-0.026047
-0.0269604
-0.02789
-0.0288652
-0.0298186
-0.0307287
-0.0225152
-0.0238589
-0.0247632
-0.0256811
-0.0266419
-0.0275837
-0.0284863
-0.020483
-0.0217802
-0.022674
-0.0235792
-0.0245245
-0.0254533
-0.0263468
-0.0185561
-0.0198074
-0.0206896
-0.0215812
-0.0225101
-0.023425
-0.024308
-0.016731
-0.0179372
-0.0188068
-0.0196842
-0.0205961
-0.0214961
-0.0223676
-0.0150042
-0.0161664
-0.0170225
-0.0178851
-0.0187796
-0.0196641
-0.0205231
-0.0133724
-0.0144917
-0.0153338
-0.0161812
-0.017058
-0.0179264
-0.0187722
-0.0118324
-0.01291
-0.0137378
-0.0145697
-0.0154287
-0.0162807
-0.0171127
-0.0103812
-0.0114185
-0.0122315
-0.013048
-0.0138891
-0.0147246
-0.0155424
-0.00901592
-0.0100144
-0.0108125
-0.0116134
-0.0124367
-0.0132556
-0.014059
-0.00773378
-0.00869486
-0.00947806
-0.0102635
-0.0110693
-0.0118717
-0.0126606
-0.00653217
-0.00745749
-0.00822586
-0.00899609
-0.00978472
-0.0105707
-0.0113452
-0.00540869
-0.00629989
-0.00705362
-0.00780894
-0.00858077
-0.00935075
-0.0101109
-0.00436109
-0.00521988
-0.00595927
-0.00670006
-0.00745561
-0.00820996
-0.00895596
-0.00338731
-0.00421545
-0.00494088
-0.00566761
-0.00640746
-0.00714668
-0.00787893
-0.00248549
-0.0032848
-0.00399674
-0.00470996
-0.00543478
-0.00615945
-0.0068784
-0.00165399
-0.00242632
-0.00312534
-0.00382567
-0.0045362
-0.00524697
-0.00595317
-0.000891408
-0.00163865
-0.0023254
-0.00301353
-0.00371057
-0.00440821
-0.00510227
-0.000196591
-0.000920689
-0.00159588
-0.00227257
-0.002957
-0.00364232
-0.00432496
0.000431339
-0.000271604
-0.000936028
-0.00160211
-0.00227488
-0.00294877
-0.00362077
0.000992955
0.00030913
-0.000345405
-0.00100178
-0.00166389
-0.00232731
-0.00298955
0.00148849
0.000821693
0.000176098
-0.000471518
-0.00112405
-0.00177806
-0.00243147
0.00191781
0.00126588
0.000628199
-1.16921e-05
-0.000655795
-0.00130149
-0.0019471
0.00228037
0.00164108
0.0010102
0.000376936
-0.00025995
-0.000898522
-0.00153743
0.00257504
0.00194609
0.00132083
0.000693012
6.20588e-05
-0.000570649
-0.00120404
0.00280061
0.00217955
0.00155859
0.000934936
0.000308512
-0.000319712
-0.000948864
0.00295363
0.0023381
0.0017202
0.0010995
0.000476252
-0.000148836
-0.000775032
0.00303439
0.00242109
0.00180434
0.00118482
0.00056297
-6.06881e-05
-0.0006855
-0.100015
-0.109927
-0.119359
-0.128301
-0.136743
-0.144677
-0.152097
-0.158999
-0.165383
-0.171255
-0.17663
-0.181539
-0.186028
-0.190169
-0.194064
-0.197861
-0.201771
-0.206044
-0.211285
-0.227261
-0.0941977
-0.103703
-0.112767
-0.121382
-0.12954
-0.137237
-0.144468
-0.151236
-0.157545
-0.163412
-0.168865
-0.173951
-0.178744
-0.183354
-0.187943
-0.192743
-0.19812
-0.20454
-0.211969
-0.234018
-0.0886926
-0.0978214
-0.106561
-0.114908
-0.12286
-0.130414
-0.137574
-0.144347
-0.150745
-0.156791
-0.162518
-0.167977
-0.173241
-0.178412
-0.183633
-0.189096
-0.19509
-0.201955
-0.208656
-0.230332
-0.0834626
-0.0922385
-0.100673
-0.108764
-0.116511
-0.123915
-0.130983
-0.137722
-0.144148
-0.15028
-0.156152
-0.161808
-0.167309
-0.172739
-0.178207
-0.183853
-0.18989
-0.196632
-0.202604
-0.223148
-0.0784929
-0.0869272
-0.09506
-0.102891
-0.110421
-0.117653
-0.124592
-0.131249
-0.137637
-0.143776
-0.149695
-0.155432
-0.161043
-0.166598
-0.172194
-0.17795
-0.184052
-0.190858
-0.196731
-0.215874
-0.0737708
-0.0818737
-0.0897103
-0.0972811
-0.104589
-0.111636
-0.118431
-0.124982
-0.131302
-0.137413
-0.143339
-0.149117
-0.154798
-0.160445
-0.166146
-0.172011
-0.178198
-0.185064
-0.190936
-0.20833
-0.0692817
-0.0770646
-0.0846123
-0.0919266
-0.0990103
-0.105868
-0.112507
-0.118937
-0.125171
-0.131228
-0.137132
-0.142917
-0.148629
-0.154323
-0.160079
-0.165989
-0.172179
-0.178975
-0.184828
-0.20047
-0.0650113
-0.0724856
-0.0797522
-0.0868138
-0.0936737
-0.100337
-0.106811
-0.113106
-0.119233
-0.125211
-0.131063
-0.136817
-0.142515
-0.148205
-0.153955
-0.159843
-0.16597
-0.172628
-0.178486
-0.192505
-0.0609459
-0.0681227
-0.0751162
-0.0819291
-0.0885657
-0.0950311
-0.101332
-0.107479
-0.113483
-0.11936
-0.125131
-0.130822
-0.136468
-0.142113
-0.147812
-0.153636
-0.159667
-0.166157
-0.172016
-0.184539
-0.0570731
-0.0639631
-0.070691
-0.07726
-0.0836744
-0.0899394
-0.096062
-0.102051
-0.107917
-0.113676
-0.119344
-0.124947
-0.130513
-0.13608
-0.141699
-0.147426
-0.153334
-0.15963
-0.165455
-0.176615
-0.0533811
-0.0599946
-0.0664647
-0.0727947
-0.078989
-0.0850526
-0.0909923
-0.0968161
-0.102534
-0.10816
-0.113709
-0.119202
-0.124666
-0.130132
-0.135643
-0.141248
-0.147009
-0.15309
-0.158842
-0.16878
-0.0498594
-0.0562062
-0.0624261
-0.0685223
-0.0744991
-0.0803615
-0.0861156
-0.091769
-0.0973308
-0.102813
-0.108229
-0.113597
-0.118939
-0.124284
-0.129667
-0.13513
-0.140725
-0.14658
-0.152225
-0.161075
-0.0464981
-0.0525878
-0.0585649
-0.0644327
-0.0701953
-0.0758574
-0.0814246
-0.0869038
-0.0923032
-0.0976329
-0.102905
-0.108136
-0.113344
-0.118552
-0.123792
-0.129097
-0.134514
-0.140139
-0.145646
-0.153533
-0.0432884
-0.0491301
-0.0548717
-0.0605167
-0.0660687
-0.0715321
-0.0769122
-0.082215
-0.0874478
-0.0926195
-0.0977408
-0.102825
-0.107887
-0.112949
-0.118034
-0.123172
-0.128402
-0.133797
-0.139141
-0.146183
-0.040222
-0.0458245
-0.051338
-0.0567658
-0.0621112
-0.0673784
-0.0725721
-0.0776975
-0.0827612
-0.0877709
-0.0927355
-0.0976664
-0.102577
-0.107484
-0.112407
-0.117373
-0.122411
-0.127579
-0.132742
-0.139046
-0.0372915
-0.0426633
-0.0479559
-0.0531723
-0.0583155
-0.0633895
-0.0683981
-0.0733464
-0.0782399
-0.083085
-0.0878897
-0.0926632
-0.0974168
-0.102164
-0.106922
-0.111711
-0.116557
-0.121503
-0.126473
-0.132139
-0.03449
-0.0396395
-0.0447183
-0.0497291
-0.0546749
-0.0595589
-0.0643849
-0.069157
-0.0738802
-0.0785599
-0.0832028
-0.0878167
-0.0924107
-0.0969962
-0.101587
-0.106199
-0.110853
-0.115585
-0.120354
-0.125473
-0.0318112
-0.0367466
-0.0416187
-0.04643
-0.0511831
-0.0558811
-0.0605271
-0.065125
-0.0696788
-0.0741933
-0.078674
-0.0831273
-0.0875609
-0.0919838
-0.0964071
-0.100844
-0.10531
-0.109835
-0.114402
-0.119054
-0.0292495
-0.0339786
-0.0386509
-0.0432687
-0.0478343
-0.0523505
-0.05682
-0.0612461
-0.0656323
-0.0699827
-0.0743019
-0.0785951
-0.0828686
-0.0871297
-0.0913871
-0.0956513
-0.0999348
-0.104262
-0.108628
-0.112884
-0.0267992
-0.0313299
-0.0358095
-0.0402398
-0.0446232
-0.048962
-0.0532588
-0.0575162
-0.0617373
-0.0659256
-0.0700848
-0.0742193
-0.0783342
-0.0824352
-0.0865294
-0.0906249
-0.0947308
-0.0988696
-0.103039
-0.106961
-0.0244553
-0.0287953
-0.033089
-0.0373381
-0.0415448
-0.0457111
-0.0498391
-0.0539314
-0.0579904
-0.0620192
-0.0660208
-0.0699988
-0.0739574
-0.077901
-0.0818353
-0.0857664
-0.0897011
-0.0936603
-0.0976397
-0.10128
-0.0222142
-0.0263704
-0.0304847
-0.0345588
-0.0385942
-0.0425929
-0.0465567
-0.0504878
-0.0543883
-0.0582607
-0.0621076
-0.065932
-0.0697371
-0.0735266
-0.0773048
-0.0810764
-0.0848464
-0.0886344
-0.0924313
-0.0958332
-0.0200703
-0.0240502
-0.0279921
-0.0318972
-0.0357671
-0.0396033
-0.0434075
-0.0471816
-0.0509275
-0.0546471
-0.0583427
-0.0620168
-0.0656718
-0.0693109
-0.0729373
-0.0765545
-0.0801662
-0.0837912
-0.0874137
-0.0906135
-0.0180207
-0.0218312
-0.0256069
-0.0293491
-0.0330589
-0.0367379
-0.0403874
-0.0440091
-0.0476044
-0.0511752
-0.0547233
-0.0582507
-0.0617596
-0.0652521
-0.0687311
-0.0721992
-0.0756588
-0.0791282
-0.0825847
-0.0856113
-0.0160613
-0.0197091
-0.0233251
-0.0269103
-0.0304657
-0.0339927
-0.0374925
-0.0409663
-0.0444156
-0.0478418
-0.0512464
-0.0546312
-0.0579978
-0.0613481
-0.0646843
-0.0680082
-0.0713219
-0.0746427
-0.0779414
-0.0808174
-0.0141884
-0.0176802
-0.0211426
-0.0245767
-0.0279834
-0.0313638
-0.0347187
-0.0380495
-0.0413573
-0.0446433
-0.0479087
-0.0511551
-0.0543837
-0.0575961
-0.0607941
-0.063979
-0.0671524
-0.0703309
-0.0734796
-0.0762227
-0.0123987
-0.0157407
-0.0190558
-0.0223447
-0.0256082
-0.0288471
-0.0320624
-0.035255
-0.038426
-0.0415762
-0.0447069
-0.0478191
-0.0509141
-0.0539931
-0.0570575
-0.0601083
-0.0631469
-0.066189
-0.0691949
-0.0718185
-0.0106888
-0.0138874
-0.017061
-0.0202104
-0.0233361
-0.026439
-0.0295197
-0.032579
-0.0356178
-0.038637
-0.0416374
-0.04462
-0.0475858
-0.0505358
-0.0534712
-0.0563927
-0.0593016
-0.0622128
-0.0650826
-0.0675968
-0.00905568
-0.0121168
-0.0151549
-0.0181703
-0.0211637
-0.0241357
-0.0270868
-0.0300178
-0.0329292
-0.0358219
-0.0386966
-0.041554
-0.044395
-0.0472206
-0.0500315
-0.0528284
-0.0556126
-0.058398
-0.0611378
-0.0635504
-0.00749643
-0.010426
-0.0133341
-0.0162211
-0.0190875
-0.0219337
-0.0247602
-0.0275676
-0.0303564
-0.0331273
-0.0358807
-0.0386175
-0.0413382
-0.0440437
-0.0467347
-0.0494116
-0.0520759
-0.0547402
-0.0573558
-0.0596726
-0.00600829
-0.0088119
-0.0115955
-0.0143594
-0.0171039
-0.0198294
-0.0225362
-0.0252249
-0.0278957
-0.0305493
-0.0331861
-0.0358067
-0.0384116
-0.0410015
-0.043577
-0.0461384
-0.0486872
-0.051235
-0.0537319
-0.0559575
-0.00458861
-0.00727173
-0.00993616
-0.0125821
-0.0152098
-0.0178194
-0.0204114
-0.022986
-0.0255435
-0.0280844
-0.030609
-0.0331179
-0.0356113
-0.03809
-0.0405543
-0.0430046
-0.0454424
-0.0478781
-0.0502613
-0.0523995
-0.00323488
-0.00580276
-0.00835314
-0.0108861
-0.0134019
-0.0159005
-0.0183823
-0.0208475
-0.0232962
-0.0257289
-0.0281457
-0.0305472
-0.0329335
-0.0353053
-0.0376628
-0.0400063
-0.0423373
-0.0446653
-0.0469396
-0.0489937
-0.00194469
-0.00440239
-0.00684368
-0.00926856
-0.0116771
-0.0140694
-0.0164456
-0.0188059
-0.0211503
-0.0234791
-0.0257925
-0.0280909
-0.0303744
-0.0326435
-0.0348984
-0.0371393
-0.0393678
-0.0415923
-0.0437625
-0.0457353
-0.000715706
-0.0030681
-0.00540507
-0.00772656
-0.0100325
-0.012323
-0.0145981
-0.0168578
-0.0191022
-0.0213315
-0.0235458
-0.0257453
-0.0279302
-0.0301008
-0.0322573
-0.0343997
-0.0365299
-0.038655
-0.0407255
-0.0426198
0.000454285
-0.00179748
-0.00403475
-0.00625737
-0.00846523
-0.0106583
-0.0128366
-0.015
-0.0171487
-0.0192826
-0.0214019
-0.0235067
-0.0255971
-0.0276733
-0.0297354
-0.0317836
-0.0338193
-0.0358491
-0.0378244
-0.039643
0.0015674
-0.000588199
-0.00273022
-0.00485835
-0.00697242
-0.00907233
-0.011158
-0.0132294
-0.0152864
-0.0173291
-0.0193574
-0.0213715
-0.0233714
-0.0253572
-0.027329
-0.0292868
-0.0312323
-0.0331707
-0.0350552
-0.0368007
0.00262584
0.000562023
-0.00148905
-0.00352693
-0.00555138
-0.00756226
-0.00955942
-0.0115428
-0.0135121
-0.0154675
-0.0174089
-0.0193362
-0.0212495
-0.0231489
-0.0250343
-0.0269057
-0.0287647
-0.0306158
-0.0324137
-0.0340887
0.00363198
0.00165542
-0.000308896
-0.00226062
-0.00419951
-0.00612535
-0.00803796
-0.00993716
-0.0118228
-0.0136948
-0.015553
-0.0173974
-0.019228
-0.0210447
-0.0228475
-0.0246364
-0.0264128
-0.0281804
-0.0298958
-0.031503
0.00458727
0.00269381
0.000812316
-0.00105714
-0.00291434
-0.00475899
-0.00659085
-0.00840972
-0.0102154
-0.0120077
-0.0137865
-0.0155518