/*--------------------------------*- C++ -*----------------------------------*\
  =========                 |
  \\      /  F ield         | OpenFOAM: The Open Source CFD Toolbox
   \\    /   O peration     | Website:  https://openfoam.org
    \\  /    A nd           | Version:  7
     \\/     M anipulation  |
\*---------------------------------------------------------------------------*/
FoamFile
{
    version     2.0;
    format      ascii;
    class       volVectorField;
    location    "13";
    object      U;
}
// * * * * * * * * * * * * * * * * * * * * * * * * * * * * * * * * * * * * * //

dimensions      [0 1 -1 0 0 0 0];

internalField   nonuniform List<vector> 
435
(
(1.2836 0.298342 8.41039e-20)
(1.29134 0.290585 2.47864e-19)
(1.29813 0.282318 -5.42343e-19)
(1.27477 0.283887 -4.63478e-20)
(1.28274 0.277646 -1.89428e-19)
(1.29008 0.27103 -1.8967e-19)
(1.2967 0.264006 -5.21279e-20)
(1.30249 0.256538 -4.01162e-19)
(1.30732 0.24859 4.97824e-19)
(1.31104 0.240122 9.11336e-19)
(1.31351 0.231098 8.39952e-19)
(1.31455 0.221486 1.10231e-18)
(1.26502 0.269011 -4.98773e-20)
(1.27285 0.263909 -8.54697e-20)
(1.2803 0.258542 6.23829e-19)
(1.28727 0.252882 1.93332e-19)
(1.2937 0.246899 2.76077e-19)
(1.2995 0.240558 -3.31488e-19)
(1.30454 0.23382 -7.96813e-19)
(1.30872 0.226646 3.61666e-22)
(1.3119 0.218994 -1.57267e-18)
(1.25493 0.254164 6.1689e-20)
(1.26243 0.249922 8.72887e-20)
(1.26969 0.245495 -1.95836e-19)
(1.27665 0.240865 -3.81655e-19)
(1.28328 0.236008 -3.03364e-19)
(1.2895 0.230896 1.0803e-18)
(1.29524 0.225499 5.56317e-20)
(1.30041 0.219778 -5.73648e-19)
(1.30492 0.213696 5.06328e-19)
(1.24485 0.239633 7.83832e-21)
(1.2519 0.236049 1.86721e-19)
(1.25881 0.232336 8.89353e-20)
(1.26554 0.228484 5.60627e-20)
(1.27207 0.224475 -1.6757e-20)
(1.27836 0.220292 -1.12681e-18)
(1.28435 0.215911 -5.78442e-20)
(1.28999 0.211302 -1.11372e-19)
(1.2952 0.206433 2.25946e-19)
(1.23494 0.225585 -5.23293e-21)
(1.2415 0.222514 1.69978e-20)
(1.24798 0.219353 -2.16745e-19)
(1.25436 0.216096 3.90613e-19)
(1.26063 0.212733 3.52991e-19)
(1.26675 0.209252 7.02977e-19)
(1.2727 0.205636 3.59618e-19)
(1.27844 0.201867 -5.66979e-20)
(1.28394 0.197918 -2.35267e-19)
(1.22528 0.212094 -3.05276e-21)
(1.23135 0.209435 1.90653e-20)
(1.23737 0.206713 2.56396e-19)
(1.24334 0.203923 1.08824e-19)
(1.24925 0.201061 -2.36681e-19)
(1.25508 0.198119 -2.6739e-19)
(1.26082 0.195088 -3.88078e-19)
(1.26644 0.191953 -1.64203e-19)
(1.27193 0.1887 -4.84905e-20)
(1.21589 0.199189 1.11181e-20)
(1.22148 0.196872 -1.35831e-19)
(1.22704 0.194508 -3.69293e-20)
(1.23259 0.192096 1.91066e-19)
(1.2381 0.189634 5.4596e-21)
(1.24358 0.187116 4.25235e-19)
(1.24902 0.184539 6.71061e-19)
(1.2544 0.181894 2.42698e-19)
(1.2597 0.179171 -1.39909e-19)
(1.20676 0.186877 4.22318e-22)
(1.2119 0.184847 -1.15825e-19)
(1.21703 0.182782 -3.62473e-20)
(1.22215 0.180683 -1.82248e-19)
(1.22727 0.178548 -1.12943e-19)
(1.23238 0.176375 -3.24948e-21)
(1.23747 0.174161 -6.11377e-19)
(1.24254 0.171902 -1.8305e-19)
(1.24757 0.169592 1.28313e-19)
(1.19789 0.175147 -2.71278e-20)
(1.2026 0.173362 1.17667e-19)
(1.20732 0.171552 -6.48797e-20)
(1.21205 0.169716 -1.0484e-19)
(1.21678 0.167855 1.99245e-19)
(1.22151 0.165967 -2.68883e-19)
(1.22625 0.164051 3.05926e-19)
(1.23098 0.162105 5.91373e-20)
(1.2357 0.160126 1.50732e-20)
(1.18924 0.163971 3.48954e-20)
(1.19356 0.162399 1.01804e-20)
(1.1979 0.160808 6.58982e-21)
(1.20225 0.159199 -1.92268e-19)
(1.20662 0.157572 -1.76301e-19)
(1.21099 0.155925 -5.54967e-21)
(1.21538 0.15426 -2.28447e-19)
(1.21978 0.152574 -2.33511e-21)
(1.22418 0.150867 -9.0233e-20)
(1.18081 0.153325 -3.6355e-20)
(1.18477 0.151939 -1.08858e-19)
(1.18876 0.150539 1.33064e-19)
(1.19276 0.149127 1.27019e-19)
(1.19678 0.147701 -4.72344e-20)
(1.20082 0.146262 5.46305e-20)
(1.20488 0.14481 -2.87815e-19)
(1.20895 0.143344 -2.46821e-20)
(1.21304 0.141865 2.84287e-19)
(1.17258 0.143178 -1.28812e-20)
(1.17621 0.141956 4.87567e-20)
(1.17987 0.140724 -5.38581e-20)
(1.18356 0.139483 -9.25345e-20)
(1.18726 0.138232 1.28231e-19)
(1.19098 0.136973 -2.62891e-19)
(1.19473 0.135705 2.00563e-19)
(1.19849 0.134429 2.92616e-19)
(1.20228 0.133144 -1.66698e-19)
(1.16454 0.133504 -1.75415e-20)
(1.16788 0.132426 5.10044e-20)
(1.17124 0.131341 -5.46956e-20)
(1.17463 0.13025 1.83807e-19)
(1.17804 0.129153 -7.68599e-20)
(1.18147 0.12805 4.52744e-21)
(1.18492 0.126942 1.96545e-19)
(1.1884 0.125829 -1.01708e-19)
(1.19189 0.124711 4.24883e-19)
(1.15671 0.124277 6.27767e-20)
(1.15977 0.123326 -3.63513e-20)
(1.16286 0.12237 -2.47556e-21)
(1.16597 0.121411 -1.50617e-19)
(1.16911 0.120448 -2.8723e-20)
(1.17227 0.119482 4.35914e-20)
(1.17545 0.118513 -2.76726e-19)
(1.17866 0.117541 2.51029e-19)
(1.18188 0.116566 -6.13906e-20)
(1.14907 0.115469 -1.3595e-20)
(1.15188 0.11463 6.39827e-21)
(1.15472 0.113789 1.10491e-19)
(1.15758 0.112945 5.762e-20)
(1.16047 0.1121 1.29717e-19)
(1.16338 0.111253 7.20875e-20)
(1.16631 0.110405 8.31503e-20)
(1.16926 0.109556 -2.17921e-19)
(1.17224 0.108706 1.42697e-19)
(1.14164 0.107057 1.89401e-21)
(1.14422 0.106317 -6.46664e-20)
(1.14683 0.105576 5.03398e-20)
(1.14946 0.104835 2.7488e-20)
(1.15212 0.104093 -1.37355e-19)
(1.15479 0.10335 -1.07387e-19)
(1.15749 0.102608 -1.85591e-19)
(1.16021 0.101865 -1.86512e-20)
(1.16295 0.101123 -2.10595e-19)
(1.13443 0.0990173 -6.30067e-21)
(1.1368 0.0983652 1.07001e-20)
(1.1392 0.0977131 -9.24305e-20)
(1.14162 0.0970612 -2.28426e-20)
(1.14406 0.0964096 -9.25799e-20)
(1.14652 0.0957586 3.01217e-19)
(1.149 0.0951083 -1.38477e-19)
(1.1515 0.094459 2.53925e-19)
(1.15403 0.093811 -4.57599e-19)
(1.12745 0.0913283 1.10906e-20)
(1.12964 0.0907541 2.88711e-20)
(1.13184 0.0901805 -3.84271e-21)
(1.13406 0.0896076 -4.83751e-20)
(1.13631 0.0890356 -9.46812e-20)
(1.13857 0.0884647 -6.05635e-20)
(1.14085 0.087895 -8.12002e-20)
(1.14315 0.0873268 1.28285e-19)
(1.14547 0.0867603 2.4554e-19)
(1.12073 0.0839676 1.13621e-20)
(1.12274 0.0834626 -3.63657e-20)
(1.12476 0.0829586 -1.02797e-20)
(1.12681 0.0824556 1.30309e-20)
(1.12887 0.0819538 1.1326e-19)
(1.13095 0.0814534 -7.99209e-20)
(1.13304 0.0809545 8.2803e-20)
(1.13516 0.0804572 -2.26658e-19)
(1.13729 0.0799618 -5.20783e-20)
(1.11427 0.0769145 -9.2313e-21)
(1.11612 0.0764712 1.64425e-20)
(1.11798 0.0760291 2.53713e-21)
(1.11986 0.0755881 -9.63069e-21)
(1.12176 0.0751485 1.41076e-20)
(1.12367 0.0747102 -7.34868e-20)
(1.12559 0.0742735 3.95251e-20)
(1.12753 0.0738385 -6.31405e-20)
(1.12949 0.0734053 5.1149e-20)
(1.1081 0.0701497 6.72939e-21)
(1.10981 0.0697614 -3.63567e-21)
(1.11152 0.0693742 -2.50713e-20)
(1.11325 0.0689883 7.29254e-20)
(1.11499 0.0686036 1.14417e-19)
(1.11675 0.0682203 1.31586e-19)
(1.11852 0.0678385 -1.28042e-20)
(1.1203 0.0674582 1.09397e-19)
(1.12209 0.0670796 -1.9979e-19)
(1.10225 0.0636517 -2.62018e-21)
(1.10381 0.0633126 -6.75474e-21)
(1.10539 0.0629745 3.02434e-20)
(1.10699 0.0626376 -3.88313e-20)
(1.10859 0.0623019 -2.54112e-20)
(1.1102 0.0619674 -8.83223e-20)
(1.11183 0.0616342 -9.9615e-21)
(1.11346 0.0613023 -1.40522e-20)
(1.1151 0.0609719 1.07974e-19)
(1.09672 0.0573996 2.30774e-20)
(1.09816 0.0571046 -4.451e-20)
(1.09962 0.0568106 7.98427e-22)
(1.10109 0.0565176 1.15891e-20)
(1.10256 0.0562256 8.53083e-20)
(1.10405 0.0559347 -1.5085e-20)
(1.10554 0.0556448 2.36834e-19)
(1.10704 0.055356 1.06363e-20)
(1.10855 0.0550684 -5.08061e-20)
(1.09154 0.0513717 -5.28579e-21)
(1.09288 0.0511165 2.52179e-20)
(1.09422 0.0508622 -5.07043e-20)
(1.09558 0.0506087 2.89221e-20)
(1.09694 0.050356 -1.30694e-19)
(1.09831 0.0501041 5.60681e-20)
(1.09968 0.0498531 -8.42912e-20)
(1.10106 0.0496029 -1.04262e-19)
(1.10244 0.0493536 1.44833e-20)
(1.08673 0.0455452 3.33056e-21)
(1.08798 0.0453262 5.00163e-21)
(1.08922 0.0451077 7.0787e-21)
(1.09048 0.0448899 7.70503e-20)
(1.09173 0.0446727 3.92892e-20)
(1.093 0.0444562 -5.889e-20)
(1.09426 0.0442402 8.90752e-21)
(1.09553 0.0440248 2.09966e-20)
(1.0968 0.04381 -1.55251e-19)
(1.08233 0.039896 -1.06367e-20)
(1.08348 0.0397098 1.4883e-21)
(1.08464 0.0395241 -6.43304e-20)
(1.08581 0.0393387 5.6409e-20)
(1.08697 0.0391539 -1.14457e-19)
(1.08814 0.0389694 3.22196e-20)
(1.08931 0.0387853 2.08926e-20)
(1.09048 0.0386015 4.9157e-20)
(1.09165 0.038418 2.24805e-19)
(1.07835 0.034398 1.58457e-21)
(1.07943 0.0342418 -6.70409e-21)
(1.08051 0.034086 -6.50397e-21)
(1.08159 0.0339304 2.42282e-20)
(1.08268 0.0337752 4.03706e-20)
(1.08376 0.0336201 -9.08788e-20)
(1.08484 0.0334652 4.13491e-20)
(1.08593 0.0333105 -9.83568e-20)
(1.08701 0.0331558 -1.4545e-20)
(1.07482 0.0290226 2.9279e-21)
(1.07583 0.0288941 5.51151e-21)
(1.07685 0.0287659 2.31227e-21)
(1.07786 0.0286379 3.17955e-21)
(1.07887 0.02851 9.35968e-20)
(1.07988 0.0283821 -1.25145e-19)
(1.08089 0.0282543 1.20794e-19)
(1.0819 0.0281265 1.0909e-20)
(1.08291 0.0279986 2.97368e-21)
(1.07177 0.0237375 7.73627e-21)
(1.07273 0.0236349 -5.81769e-20)
(1.07368 0.0235325 4.68215e-20)
(1.07464 0.0234301 -4.74974e-21)
(1.07559 0.0233278 1.88593e-20)
(1.07654 0.0232255 -6.36848e-20)
(1.07749 0.023123 -3.65479e-20)
(1.07843 0.0230205 2.44717e-20)
(1.07937 0.0229177 -2.44762e-20)
(1.06924 0.0185079 -7.54166e-21)
(1.07015 0.0184297 1.14719e-20)
(1.07106 0.0183515 -2.71792e-22)
(1.07196 0.0182733 -7.33904e-21)
(1.07287 0.0181951 1.05069e-20)
(1.07376 0.0181168 -5.52209e-20)
(1.07466 0.0180383 4.07062e-20)
(1.07555 0.0179596 3.36072e-22)
(1.07644 0.0178807 4.17462e-20)
(1.06726 0.0132906 1.55855e-21)
(1.06813 0.0132358 -1.23831e-20)
(1.069 0.0131809 2.13845e-20)
(1.06987 0.0131261 3.52104e-20)
(1.07073 0.0130712 -1.13735e-19)
(1.07159 0.0130162 7.68891e-20)
(1.07245 0.0129609 3.28777e-20)
(1.0733 0.0129055 -1.48662e-20)
(1.07414 0.0128497 1.58472e-20)
(1.06588 0.00804271 -1.22836e-20)
(1.06673 0.00801015 5.74825e-21)
(1.06757 0.00797756 4.03313e-21)
(1.06841 0.00794492 -8.73172e-20)
(1.06925 0.00791219 1.46856e-19)
(1.07008 0.00787933 -7.16784e-20)
(1.0709 0.0078463 -3.77889e-20)
(1.07172 0.00781305 -1.01714e-19)
(1.07254 0.00777954 2.64485e-19)
(1.06515 0.00269864 8.56279e-21)
(1.06598 0.00268955 -5.80538e-21)
(1.06681 0.00268049 2.18579e-20)
(1.06763 0.0026714 -7.23642e-21)
(1.06845 0.00266223 -3.99101e-20)
(1.06927 0.00265295 5.97522e-20)
(1.07008 0.00264351 2.1367e-20)
(1.07088 0.00263384 -5.3055e-21)
(1.07168 0.00262391 5.88191e-20)
(1.25593 0.318861 5.70303e-19)
(1.2658 0.312455 -2.23391e-19)
(1.27506 0.305623 -1.15274e-19)
(1.23826 0.305594 8.0194e-20)
(1.24796 0.300618 1.64195e-19)
(1.25732 0.295352 2.27836e-19)
(1.26628 0.289781 2.2333e-20)
(1.2307 0.287129 -2.09778e-19)
(1.23964 0.282915 -6.36139e-19)
(1.24837 0.278499 5.81476e-20)
(1.25684 0.273868 6.58454e-20)
(1.22306 0.269518 3.58075e-19)
(1.23126 0.265905 2.42102e-19)
(1.23932 0.262146 -1.02808e-19)
(1.24721 0.258235 -4.24564e-20)
(1.21551 0.252819 3.94972e-20)
(1.22299 0.249688 -1.64686e-19)
(1.23038 0.246447 -2.21431e-19)
(1.23767 0.243097 -4.35759e-21)
(1.20804 0.237048 -4.16777e-19)
(1.21485 0.234302 1.82017e-19)
(1.22161 0.231477 1.51689e-20)
(1.22831 0.228572 2.08185e-20)
(1.20065 0.222125 -8.61296e-20)
(1.20686 0.219705 -3.06905e-19)
(1.21303 0.217228 1.36606e-20)
(1.21917 0.214691 -1.45809e-20)
(1.19339 0.208003 -1.97006e-19)
(1.19903 0.205868 5.74904e-20)
(1.20467 0.203687 1.26953e-19)
(1.21028 0.201461 -1.99509e-20)
(1.18622 0.194654 1.15846e-19)
(1.19136 0.192762 1.01568e-19)
(1.19649 0.190835 1.21201e-19)
(1.20163 0.188873 5.07295e-21)
(1.17913 0.182026 7.93054e-20)
(1.1838 0.180346 1.18749e-19)
(1.18849 0.178639 -1.51591e-19)
(1.19318 0.176906 3.64371e-20)
(1.17211 0.170066 2.27333e-19)
(1.17637 0.168572 2.65538e-20)
(1.18064 0.167058 4.53661e-20)
(1.18493 0.165524 -1.84948e-20)
(1.16514 0.15873 -1.13687e-19)
(1.16903 0.1574 -1.11766e-19)
(1.17293 0.156056 -5.18979e-20)
(1.17686 0.154697 2.79577e-20)
(1.15825 0.147966 -1.19744e-19)
(1.1618 0.146785 1.82798e-21)
(1.16537 0.145593 -5.49856e-21)
(1.16896 0.144391 5.2014e-22)
(1.15143 0.137747 4.03253e-20)
(1.15467 0.136697 5.37476e-20)
(1.15794 0.13564 -3.62951e-20)
(1.16123 0.134576 4.58563e-21)
(1.1447 0.128038 1.18884e-19)
(1.14766 0.127105 4.65634e-20)
(1.15065 0.126167 2.6949e-21)
(1.15367 0.125224 -3.80282e-20)
(1.13807 0.1188 -1.04697e-19)
(1.14078 0.117971 -7.16764e-20)
(1.14352 0.11714 -1.72446e-20)
(1.14628 0.116306 2.9293e-20)
(1.13155 0.110004 -4.09424e-20)
(1.13403 0.10927 -5.44999e-21)
(1.13654 0.108534 1.83332e-20)
(1.13908 0.107796 1.22344e-20)
(1.12517 0.101622 2.13082e-20)
(1.12745 0.100972 6.60812e-20)
(1.12975 0.100321 2.23177e-20)
(1.13208 0.0996691 2.84144e-21)
(1.11895 0.0936287 4.53054e-20)
(1.12104 0.0930534 -9.95712e-21)
(1.12316 0.0924781 -1.09862e-20)
(1.12529 0.091903 -1.14901e-20)
(1.1129 0.0859948 -1.57652e-20)
(1.11483 0.0854872 4.60086e-20)
(1.11677 0.08498 -1.73697e-20)
(1.11874 0.0844734 9.54917e-21)
(1.10707 0.0786965 5.81331e-21)
(1.10884 0.0782498 -5.24751e-20)
(1.11063 0.0778039 1.45802e-20)
(1.11244 0.0773587 -3.87419e-21)
(1.10146 0.0717126 3.75217e-20)
(1.1031 0.0713206 2.66022e-21)
(1.10475 0.0709294 -6.5019e-20)
(1.10642 0.0705391 8.22706e-21)
(1.09611 0.0650175 3.69135e-20)
(1.09762 0.0646747 -2.30357e-20)
(1.09915 0.0643328 -3.21474e-21)
(1.10069 0.0639918 7.69303e-21)
(1.09104 0.0585877 -6.119e-20)
(1.09244 0.0582895 1.1735e-20)
(1.09385 0.057992 2.49603e-20)
(1.09528 0.0576954 2.87718e-21)
(1.08627 0.0523993 7.38777e-20)
(1.08757 0.0521414 -4.03957e-20)
(1.08888 0.0518841 -1.0669e-20)
(1.09021 0.0516275 8.575e-21)
(1.08183 0.0464272 -6.20664e-20)
(1.08305 0.0462059 -4.09669e-20)
(1.08427 0.0459851 1.99889e-21)
(1.0855 0.0457648 7.04179e-21)
(1.07775 0.0406454 3.07624e-22)
(1.07889 0.0404574 -1.95739e-20)
(1.08003 0.0402698 1.35021e-20)
(1.08118 0.0400827 -3.44665e-21)
(1.07406 0.0350259 2.1307e-20)
(1.07512 0.0348684 2.24148e-20)
(1.0762 0.0347113 -2.32052e-20)
(1.07727 0.0345545 -7.88964e-21)
(1.07077 0.0295385 2.92775e-20)
(1.07178 0.0294092 -5.04726e-20)
(1.07279 0.0292801 1.19107e-21)
(1.0738 0.0291512 5.99851e-21)
(1.06794 0.0241493 -2.48784e-20)
(1.06889 0.0240461 6.21324e-20)
(1.06985 0.023943 -3.51313e-20)
(1.07081 0.0238402 6.26362e-21)
(1.06558 0.0188219 1.04578e-20)
(1.06649 0.0187432 -9.53668e-21)
(1.06741 0.0186647 1.27659e-20)
(1.06832 0.0185863 -9.92146e-21)
(1.06374 0.0135108 -5.38353e-20)
(1.06462 0.0134556 2.6155e-20)
(1.0655 0.0134005 -2.01414e-20)
(1.06638 0.0133455 1.24388e-21)
(1.06246 0.0081732 8.94129e-20)
(1.06332 0.00814052 7.66773e-21)
(1.06417 0.00810788 8.26276e-21)
(1.06503 0.00807528 -1.38832e-20)
(1.06178 0.00273591 -4.10341e-20)
(1.06263 0.00272639 2.07607e-20)
(1.06347 0.00271702 -6.25657e-21)
(1.06431 0.00270778 8.88463e-21)
)
;

boundaryField
{
    inlet
    {
        type            uniformFixedValue;
        uniformValue    constant (1 0 0);
        value           nonuniform 0();
    }
    outlet
    {
        type            pressureInletOutletVelocity;
        value           nonuniform 0();
    }
    cylinder
    {
        type            fixedValue;
        value           nonuniform 0();
    }
    top
    {
        type            symmetryPlane;
    }
    bottom
    {
        type            symmetryPlane;
    }
    defaultFaces
    {
        type            empty;
    }
    procBoundary32to26
    {
        type            processor;
        value           nonuniform List<vector> 
15
(
(1.29055 0.311681 1.16038e-19)
(1.29751 0.301939 8.87738e-20)
(1.30313 0.291544 -6.49046e-19)
(1.30386 0.27351 1.7407e-19)
(1.30386 0.27351 1.7407e-19)
(1.30838 0.264126 -1.01668e-19)
(1.31151 0.254134 3.33817e-19)
(1.31309 0.243507 -9.42906e-20)
(1.31294 0.232225 -1.98003e-19)
(1.31087 0.220279 8.57096e-19)
(1.26307 0.337238 6.77199e-19)
(1.2732 0.329307 -1.1523e-19)
(1.2824 0.320795 -1.08469e-19)
(1.24552 0.324861 -1.86814e-19)
(1.24552 0.324861 -1.86814e-19)
)
;
    }
    procBoundary32to31
    {
        type            processor;
        value           nonuniform List<vector> 
33
(
(1.22826 0.31029 -5.08392e-19)
(1.22155 0.291147 -2.69515e-19)
(1.21473 0.272989 2.48614e-19)
(1.20795 0.255842 1.97267e-20)
(1.20119 0.239717 6.64473e-20)
(1.19442 0.224486 -1.37897e-19)
(1.18774 0.21009 -1.44249e-19)
(1.18109 0.196509 9.98691e-21)
(1.17446 0.183678 -7.70639e-20)
(1.16786 0.17154 2.76323e-19)
(1.16128 0.160044 -2.682e-20)
(1.15473 0.149136 1.3359e-20)
(1.14822 0.13879 1.47238e-19)
(1.14177 0.128966 -3.63841e-20)
(1.13538 0.119625 -8.78595e-20)
(1.12909 0.110737 -6.69227e-20)
(1.12291 0.102272 6.24259e-21)
(1.11688 0.0942037 -4.19703e-20)
(1.111 0.0865027 -5.79572e-22)
(1.10531 0.0791441 8.31321e-20)
(1.09984 0.0721055 -6.42676e-20)
(1.09461 0.065361 1.76031e-19)
(1.08965 0.0588867 -1.05396e-19)
(1.08498 0.0526578 2.18001e-20)
(1.08063 0.046649 -8.80795e-20)
(1.07662 0.0408337 -1.43264e-20)
(1.07299 0.0351836 8.30253e-20)
(1.06977 0.029668 1.4479e-20)
(1.06698 0.0242526 7.97143e-21)
(1.06466 0.0189007 5.92239e-21)
(1.06285 0.0135661 -1.00834e-19)
(1.06159 0.00820595 1.60556e-19)
(1.06094 0.00274563 -4.79321e-20)
)
;
    }
    procBoundary32to33
    {
        type            processor;
        value           nonuniform List<vector> 
33
(
(1.31399 0.211261 5.06778e-20)
(1.31393 0.210825 -4.32203e-19)
(1.30864 0.207209 -2.46597e-19)
(1.29992 0.201268 4.30462e-19)
(1.28912 0.193762 -3.25083e-19)
(1.27724 0.185307 5.16605e-19)
(1.26492 0.176356 1.55601e-19)
(1.25257 0.167223 -3.50593e-19)
(1.24042 0.158109 4.24831e-20)
(1.22859 0.149136 1.40875e-19)
(1.21714 0.140371 3.99075e-19)
(1.20608 0.13185 -2.34162e-19)
(1.19541 0.123587 1.64532e-19)
(1.18513 0.11559 2.78462e-19)
(1.17523 0.107856 -5.2445e-19)
(1.16571 0.100382 3.30897e-19)
(1.15657 0.0931644 -1.65381e-19)
(1.1478 0.0861956 1.26683e-19)
(1.13943 0.0794683 -1.14828e-19)
(1.13145 0.072974 -8.54705e-20)
(1.12389 0.0667027 -1.14721e-19)
(1.11675 0.060643 1.84869e-21)
(1.11006 0.054782 -1.34648e-19)
(1.10383 0.0491051 4.10022e-20)
(1.09807 0.0435957 -1.94827e-19)
(1.09282 0.0382348 2.62196e-19)
(1.08809 0.0330012 -8.94747e-20)
(1.08391 0.0278705 1.28484e-19)
(1.0803 0.0228146 -4.64668e-20)
(1.07732 0.0178014 1.32326e-19)
(1.07498 0.0127936 -7.27464e-20)
(1.07335 0.00774571 2.05777e-19)
(1.07247 0.00261365 2.00707e-19)
)
;
    }
}


// ************************************************************************* //
