/*--------------------------------*- C++ -*----------------------------------*\
  =========                 |
  \\      /  F ield         | OpenFOAM: The Open Source CFD Toolbox
   \\    /   O peration     | Website:  https://openfoam.org
    \\  /    A nd           | Version:  7
     \\/     M anipulation  |
\*---------------------------------------------------------------------------*/
FoamFile
{
    version     2.0;
    format      ascii;
    class       surfaceScalarField;
    location    "1";
    object      phi;
}
// * * * * * * * * * * * * * * * * * * * * * * * * * * * * * * * * * * * * * //

dimensions      [0 3 -1 0 0 0 0];

internalField   nonuniform List<scalar> 
614
(
0.000149852
3.56812e-09
0.000149852
4.13708e-09
0.000149853
4.78929e-09
0.000149853
5.5222e-09
0.000149853
6.37201e-09
0.000149853
7.29931e-09
0.000149854
8.41463e-09
0.000149854
9.53473e-09
0.000149855
1.10427e-08
0.000149855
1.22301e-08
0.000149856
1.44508e-08
0.000149856
1.51693e-08
0.000149858
1.90531e-08
0.000149858
1.74983e-08
0.00014986
2.59553e-08
0.000149861
1.66256e-08
0.000149864
3.82731e-08
0.000149864
5.52289e-09
0.000149871
6.44025e-08
0.000149867
-3.33548e-08
0.000149884
1.25101e-07
-1.4042e-07
0.000152578
-1.16393e-07
0.000152571
-9.73268e-08
0.000152565
-8.15783e-08
0.00015256
-6.85182e-08
0.000152555
-5.76497e-08
0.000152551
-4.85774e-08
0.000152548
-4.09846e-08
0.000152546
-3.46155e-08
0.000152543
-2.92625e-08
0.000152541
-2.4756e-08
0.00015254
-2.09564e-08
0.000152538
-1.77488e-08
0.000152537
-1.50379e-08
0.000152536
-1.27445e-08
0.000152535
-1.08023e-08
0.000152535
-9.15611e-09
0.000152534
-7.75952e-09
0.000152533
-6.57359e-09
0.000152533
-5.56538e-09
0.000152533
-4.70726e-09
0.000152532
-3.97575e-09
0.000152532
-3.35096e-09
0.000152532
-2.81608e-09
0.000152532
-2.35679e-09
0.000152531
-1.96072e-09
0.000152531
-1.61743e-09
0.000152531
-1.31789e-09
0.000152531
-1.05416e-09
0.000152531
-8.19389e-10
0.000152531
-6.07596e-10
0.000152531
-4.13294e-10
0.000152531
-2.31593e-10
0.000152531
-5.80893e-11
0.000152531
1.11791e-10
0.000152531
2.81944e-10
0.000152531
4.5626e-10
0.000152531
6.38873e-10
0.000152531
8.33811e-10
0.000152531
1.04532e-09
0.000152531
1.27802e-09
0.000152531
1.5367e-09
0.000152531
1.82677e-09
0.000152531
2.15388e-09
0.000152531
2.52463e-09
0.000152531
2.9453e-09
0.000152532
3.42485e-09
0.000152532
3.96865e-09
0.000152532
4.59146e-09
0.000152532
5.29091e-09
0.000152532
6.10053e-09
0.000152533
6.98364e-09
0.000152533
8.04201e-09
0.000152534
9.10627e-09
0.000152534
1.05272e-08
0.000152535
1.16548e-08
0.000152535
1.37223e-08
0.000152536
1.44193e-08
0.000152537
1.79733e-08
0.000152538
1.66002e-08
0.00015254
2.42039e-08
0.000152541
1.58229e-08
0.000152544
3.50258e-08
0.000152544
5.76089e-09
0.000152551
5.74682e-08
0.000152546
-2.91104e-08
0.000152563
1.08784e-07
-1.23953e-07
0.000155261
-1.07134e-07
0.000155253
-8.95168e-08
0.000155246
-7.49868e-08
0.000155241
-6.29514e-08
0.000155236
-5.29449e-08
0.000155232
-4.45984e-08
0.000155229
-3.7617e-08
0.000155226
-3.17637e-08
0.000155223
-2.6846e-08
0.000155221
-2.27074e-08
0.00015522
-1.9219e-08
0.000155218
-1.62747e-08
0.000155217
-1.37868e-08
0.000155216
-1.16825e-08
0.000155215
-9.90066e-09
0.000155214
-8.39053e-09
0.000155214
-7.1095e-09
0.000155213
-6.02175e-09
0.000155213
-5.09702e-09
0.000155212
-4.30993e-09
0.000155212
-3.63892e-09
0.000155212
-3.06569e-09
0.000155211
-2.57482e-09
0.000155211
-2.15318e-09
0.000155211
-1.78937e-09
0.000155211
-1.4738e-09
0.000155211
-1.19819e-09
0.000155211
-9.55209e-10
0.00015521
-7.38551e-10
0.00015521
-5.42704e-10
0.00015521
-3.62586e-10
0.00015521
-1.93697e-10
0.00015521
-3.19545e-11
0.00015521
1.27e-10
0.00015521
2.86657e-10
0.00015521
4.50728e-10
0.00015521
6.23077e-10
0.00015521
8.07476e-10
0.00015521
1.00793e-09
0.00015521
1.2288e-09
0.00015521
1.47461e-09
0.000155211
1.75045e-09
0.000155211
2.06165e-09
0.000155211
2.41445e-09
0.000155211
2.81472e-09
0.000155211
3.27087e-09
0.000155211
3.78797e-09
0.000155211
4.37967e-09
0.000155212
5.04387e-09
0.000155212
5.81129e-09
0.000155212
6.64827e-09
0.000155213
7.64742e-09
0.000155213
8.65407e-09
0.000155214
9.98573e-09
0.000155214
1.10526e-08
0.000155215
1.29652e-08
0.000155216
1.36418e-08
0.000155217
1.68675e-08
0.000155218
1.56786e-08
0.00015522
2.2445e-08
0.00015522
1.50027e-08
0.000155224
3.18392e-08
0.000155223
5.96311e-09
0.00015523
5.08181e-08
0.000155226
-2.50646e-08
0.000155241
9.34578e-08
0.000155226
-1.08407e-07
1.90084e-07
0.000157943
-9.72256e-08
0.000157935
-8.11817e-08
0.000157928
-6.79676e-08
0.000157922
-5.7034e-08
0.000157917
-4.79512e-08
0.000157913
-4.038e-08
0.000157909
-3.40505e-08
0.000157906
-2.87458e-08
0.000157903
-2.42907e-08
0.000157901
-2.05423e-08
0.000157899
-1.73837e-08
0.000157898
-1.47183e-08
0.000157897
-1.24664e-08
0.000157896
-1.0562e-08
0.000157895
-8.94961e-09
0.000157894
-7.58323e-09
0.000157893
-6.42421e-09
0.000157892
-5.4401e-09
0.000157892
-4.60345e-09
0.000157892
-3.8913e-09
0.000157891
-3.2841e-09
0.000157891
-2.76525e-09
0.000157891
-2.3208e-09
0.00015789
-1.93886e-09
0.00015789
-1.60906e-09
0.00015789
-1.32273e-09
0.00015789
-1.07236e-09
0.00015789
-8.51274e-10
0.00015789
-6.53736e-10
0.00015789
-4.74729e-10
0.00015789
-3.09608e-10
0.00015789
-1.5426e-10
0.00015789
-4.96401e-12
0.00015789
1.42392e-10
0.00015789
2.90904e-10
0.00015789
4.44086e-10
0.00015789
6.05514e-10
0.00015789
7.78696e-10
0.00015789
9.67382e-10
0.00015789
1.17566e-09
0.00015789
1.40776e-09
0.00015789
1.66845e-09
0.00015789
1.96273e-09
0.00015789
2.29645e-09
0.00015789
2.6751e-09
0.00015789
3.1065e-09
0.000157891
3.5954e-09
0.000157891
4.15436e-09
0.000157891
4.78157e-09
0.000157891
5.50489e-09
0.000157892
6.29386e-09
0.000157892
7.23176e-09
0.000157893
8.17904e-09
0.000157893
9.41963e-09
0.000157894
1.04246e-08
0.000157895
1.2182e-08
0.000157895
1.28379e-08
0.000157897
1.57407e-08
0.000157897
1.4733e-08
0.000157899
2.06901e-08
0.0001579
1.41586e-08
0.000157903
2.87406e-08
0.000157903
6.1038e-09
0.000157909
4.45208e-08
0.000157906
-2.1297e-08
0.00015792
7.92748e-08
0.000157905
-9.39766e-08
1.56932e-07
0.000160625
-8.66979e-08
0.000160616
-7.2347e-08
0.000160609
-6.05423e-08
0.000160603
-5.07842e-08
0.000160598
-4.26837e-08
0.000160593
-3.5935e-08
0.000160589
-3.02956e-08
0.000160586
-2.55709e-08
0.000160583
-2.1604e-08
0.000160581
-1.82672e-08
0.000160579
-1.5456e-08
0.000160578
-1.30841e-08
0.000160576
-1.10805e-08
0.000160575
-9.38615e-09
0.000160574
-7.95187e-09
0.000160573
-6.73648e-09
0.000160572
-5.7056e-09
0.000160572
-4.83027e-09
0.000160571
-4.08606e-09
0.000160571
-3.45254e-09
0.000160571
-2.91227e-09
0.00016057
-2.45047e-09
0.00016057
-2.05472e-09
0.00016057
-1.71441e-09
0.00016057
-1.4203e-09
0.000160569
-1.16465e-09
0.000160569
-9.4075e-10
0.000160569
-7.42645e-10
0.000160569
-5.65188e-10
0.000160569
-4.03866e-10
0.000160569
-2.54519e-10
0.000160569
-1.1343e-10
0.000160569
2.28242e-11
0.000160569
1.57879e-10
0.000160569
2.9464e-10
0.000160569
4.36309e-10
0.000160569
5.86186e-10
0.000160569
7.47505e-10
0.000160569
9.23741e-10
0.000160569
1.11868e-09
0.000160569
1.33626e-09
0.000160569
1.58092e-09
0.000160569
1.85731e-09
0.000160569
2.17087e-09
0.00016057
2.5267e-09
0.00016057
2.93203e-09
0.00016057
3.39131e-09
0.00016057
3.91596e-09
0.00016057
4.5045e-09
0.000160571
5.18196e-09
0.000160571
5.92113e-09
0.000160572
0.000160572
0.000160573
0.000160573
0.000160574
0.000160575
0.000160576
0.000160577
0.000160579
0.00016058
0.000160583
0.000160583
0.000160589
0.000160585
0.000160598
0.000160585
0.000163307
0.000163298
0.00016329
0.000163283
0.000163278
0.000163273
0.000163269
0.000163266
0.000163263
0.000163261
0.000163259
0.000163257
0.000163255
0.000163254
0.000163253
0.000163252
0.000163251
0.000163251
0.00016325
0.00016325
0.000163249
0.000163249
0.000163249
0.000163249
0.000163248
0.000163248
0.000163248
0.000163248
0.000163248
0.000163248
0.000163248
0.000163248
0.000163248
0.000163248
0.000163248
0.000163248
0.000163248
0.000163248
0.000163248
0.000163248
0.000163248
0.000163248
0.000163248
0.000163248
0.000163248
0.000163249
0.000163249
0.000163249
0.000163249
0.00016325
)
;

boundaryField
{
    inlet
    {
        type            calculated;
        value           nonuniform 0();
    }
    outlet
    {
        type            calculated;
        value           nonuniform 0();
    }
    wall
    {
        type            calculated;
        value           nonuniform 0();
    }
    wedge1
    {
        type            wedge;
        value           nonuniform List<scalar> 
344
(
2.19485e-17
6.03083e-18
5.6004e-18
-3.81886e-17
1.44489e-17
1.79785e-17
4.67121e-18
2.81925e-18
-3.2048e-17
1.21853e-17
1.49312e-17
3.80845e-18
3.09836e-18
-2.71996e-17
9.89515e-18
1.22081e-17
2.94672e-18
2.26409e-18
-2.29729e-17
8.57275e-18
9.97856e-18
2.22381e-18
1.74831e-18
-1.95641e-17
7.05717e-18
8.16991e-18
1.63607e-18
1.38849e-18
-1.66667e-17
5.77778e-18
6.50792e-18
1.09048e-18
6.61618e-19
-1.42584e-17
4.58981e-18
5.41965e-18
8.58136e-19
6.05091e-19
-1.20419e-17
4.12696e-18
4.11952e-18
3.52491e-19
2.10434e-20
-1.04547e-17
3.4858e-18
3.49738e-18
3.13505e-19
4.28613e-19
-8.86285e-18
2.71378e-18
2.49174e-18
-1.21184e-19
-5.20347e-19
-7.75231e-18
2.08448e-18
2.15909e-18
-8.48523e-20
-4.8561e-20
-6.57671e-18
1.83248e-18
1.2541e-18
-5.11227e-19
-8.81088e-19
-5.84721e-18
1.69136e-18
1.07854e-18
-4.04268e-19
9.35708e-20
-4.93723e-18
1.06895e-18
4.18291e-19
-7.45041e-19
-8.67172e-19
-4.46427e-18
8.15382e-19
4.97405e-19
-4.98198e-19
-1.82832e-19
-3.67469e-18
6.80227e-19
-1.34557e-19
-8.72981e-19
-6.34566e-19
-3.45813e-18
4.44152e-19
-5.77044e-20
-6.58661e-19
-3.98868e-19
-2.87304e-18
3.2895e-19
-5.91385e-19
-1.02468e-18
-8.28304e-19
-2.78723e-18
1.71761e-19
-2.45079e-19
-6.74984e-19
-4.7958e-19
-2.22454e-18
1.21218e-19
-7.00507e-19
-9.95345e-19
-8.7049e-19
-2.20379e-18
4.68353e-20
-5.91093e-19
-8.27666e-19
-6.22579e-19
-1.84134e-18
-1.19582e-19
-1.03325e-18
-1.13556e-18
-1.05074e-18
-1.89896e-18
-1.53027e-19
-8.21456e-19
-8.96286e-19
-7.21466e-19
-1.55113e-18
-2.70616e-19
-1.10037e-18
-1.08601e-18
-1.05799e-18
-1.57743e-18
-1.74926e-19
-8.82847e-19
-8.95691e-19
-7.12427e-19
-1.2416e-18
-2.98261e-19
-1.09227e-18
-1.06585e-18
-1.98825e-18
-9.50729e-19
-2.35879e-19
-9.45081e-19
-8.63793e-19
-1.25512e-18
-1.18487e-18
-3.53342e-19
-1.28537e-18
-1.12623e-18
-1.02125e-18
-1.2442e-18
-2.61884e-19
-1.12198e-18
-1.0052e-18
-1.36525e-18
-1.09448e-18
-6.40662e-20
-1.31035e-18
-1.12947e-18
-6.54806e-19
-1.16835e-18
-4.49642e-19
-1.05589e-18
-9.08413e-19
-1.50438e-18
-9.3213e-19
-4.27626e-19
-1.42878e-18
-1.20246e-18
-7.74146e-19
-1.11647e-18
-4.44969e-19
-1.15434e-18
-9.79835e-19
-1.21171e-18
-8.87948e-19
-8.08461e-20
-1.43663e-18
-1.2028e-18
-1.54499e-18
-1.06077e-18
-5.51215e-19
-1.11215e-18
-9.39351e-19
-1.04748e-18
-8.16086e-19
-4.69994e-19
-1.34909e-18
-1.13809e-18
-1.46592e-18
-1.03044e-18
-5.5501e-19
-1.08354e-18
-9.25294e-19
-9.54796e-19
-7.827e-19
-1.69525e-19
-1.30651e-18
-1.10475e-18
-1.43466e-18
-9.93917e-19
-6.9847e-19
-9.57082e-19
-8.10412e-19
-7.56623e-19
-6.96599e-19
-5.42241e-19
-1.19231e-18
-9.93785e-19
-1.34273e-18
-8.99561e-19
-6.43956e-19
-9.80951e-19
-7.75675e-19
-5.75887e-19
-5.63933e-19
-1.31781e-19
-1.22279e-18
-9.64476e-19
-1.33644e-18
-7.88396e-19
-7.63577e-19
-1.04615e-18
-8.08678e-19
-4.66062e-19
-4.99238e-19
-4.84576e-19
-1.16213e-18
-8.95226e-19
-1.30054e-18
-5.97532e-19
-7.30415e-19
-7.32309e-19
-9.71069e-19
-7.02959e-19
-2.25595e-19
-2.87756e-19
-4.06275e-19
-1.51584e-18
-1.12769e-18
-8.14164e-19
-8.27993e-19
-3.6012e-19
-4.95257e-19
-1.08479e-18
-9.68484e-19
-6.73106e-19
-6.77035e-19
-8.36648e-20
-5.62383e-19
-1.1864e-18
-1.05202e-18
-7.15813e-19
-7.24387e-19
-6.95543e-20
-8.00099e-19
-8.78051e-19
-9.58346e-19
-5.79928e-19
-5.85597e-19
2.82355e-19
-5.31721e-19
-9.33444e-19
-1.05736e-18
-6.28142e-19
-6.13022e-19
3.53352e-19
-6.77155e-19
-6.85246e-19
-1.03574e-18
-5.44244e-19
-5.64996e-19
6.63612e-19
-7.52886e-19
-1.13163e-18
-5.39932e-19
-4.92688e-19
9.23003e-19
-6.62009e-19
-1.30838e-18
-5.83944e-19
-5.39133e-19
1.30924e-18
-6.28907e-19
-1.35249e-18
-5.09089e-19
-4.12769e-19
1.65005e-18
-5.69518e-19
-1.61787e-18
-5.44779e-19
-4.58668e-19
2.19942e-18
-3.52529e-19
-1.46678e-18
-3.85854e-19
-2.91171e-19
2.50473e-18
-4.63814e-19
-2.08126e-18
-5.16473e-19
-3.90408e-19
3.49589e-18
-2.26271e-19
-1.65593e-18
-3.11172e-19
-1.68288e-19
3.26052e-18
-8.25818e-19
-3.25168e-18
-8.67568e-19
-6.48221e-19
5.2739e-18
-2.25711e-21
-1.48787e-18
-2.69611e-19
-1.13713e-19
3.22271e-18
-1.47431e-18
-5.31733e-18
-1.36433e-18
-1.05263e-18
8.55332e-18
8.44293e-19
3.10569e-19
2.94386e-19
3.75992e-19
1.11043e-18
-3.21528e-18
-1.00221e-17
-2.67724e-18
-2.25865e-18
1.50903e-17
3.06823e-18
6.01573e-18
1.76539e-18
1.58995e-18
-6.14575e-18
-7.6998e-18
-2.14917e-17
-6.07218e-18
-5.28137e-18
3.04467e-17
8.94533e-18
2.15288e-17
5.78615e-18
4.94257e-18
-2.84735e-17
-1.3892e-17
-1.17877e-17
6.18429e-17
)
;
    }
    wedge2
    {
        type            wedge;
        value           nonuniform List<scalar> 
344
(
2.47603e-17
8.15101e-18
7.01012e-18
-3.70795e-17
1.52216e-17
2.11584e-17
7.20022e-18
7.72111e-18
-3.07898e-17
1.26172e-17
1.79364e-17
6.15225e-18
5.73347e-18
-2.55859e-17
1.08966e-17
1.54485e-17
5.428e-18
5.1472e-18
-2.13971e-17
8.89788e-18
1.33322e-17
4.82979e-18
4.48949e-18
-1.78052e-17
7.45147e-18
1.15058e-17
4.31349e-18
3.83439e-18
-1.48583e-17
6.62565e-18
1.01195e-17
3.93431e-18
3.77374e-18
-1.23727e-17
5.8838e-18
8.64612e-18
3.38983e-18
3.13853e-18
-1.04807e-17
4.72707e-18
7.78942e-18
3.24242e-18
3.14704e-18
-8.61141e-18
3.86633e-18
6.59267e-18
2.73066e-18
2.2335e-18
-7.28976e-18
3.63061e-18
6.06317e-18
2.70101e-18
2.79047e-18
-5.94195e-18
3.2915e-18
5.09771e-18
2.27244e-18
1.97044e-18
-5.03949e-18
2.72611e-18
4.9048e-18
2.367e-18
2.51161e-18
-4.01109e-18
2.08902e-18
4.1506e-18
1.97922e-18
1.27864e-18
-3.43262e-18
2.21298e-18
4.02309e-18
2.08242e-18
2.06759e-18
-2.6446e-18
1.97124e-18
3.27608e-18
1.63419e-18
1.17721e-18
-2.36506e-18
1.68664e-18
3.34162e-18
1.83834e-18
1.47885e-18
-1.67451e-18
1.5669e-18
2.78446e-18
1.47916e-18
1.11537e-18
-1.49073e-18
1.38007e-18
2.9101e-18
1.72248e-18
1.4364e-18
-9.23146e-19
1.28163e-18
2.21798e-18
1.26866e-18
9.95757e-19
-9.32479e-19
1.11496e-18
2.37858e-18
1.50066e-18
1.30849e-18
-4.83228e-19
1.00554e-18
2.02112e-18
1.25788e-18
9.94202e-19
-4.46654e-19
1.01568e-18
2.25196e-18
1.5023e-18
1.36581e-18
-5.02653e-20
9.16737e-19
1.86061e-18
1.20921e-18
9.88373e-19
-1.11105e-19
9.22275e-19
1.98767e-18
1.35307e-18
1.28394e-18
1.58802e-19
7.31654e-19
1.64113e-18
1.12443e-18
9.032e-19
2.92401e-20
7.74714e-19
1.74182e-18
1.26189e-18
2.1491e-18
-1.77776e-21
6.44619e-19
1.50263e-18
1.03242e-18
1.3902e-18
2.9552e-19
7.04761e-19
1.76522e-18
1.27173e-18
1.13401e-18
4.79557e-19
5.65241e-19
1.53592e-18
1.13145e-18
1.45903e-18
4.3543e-19
2.78784e-19
1.66989e-18
1.23929e-18
7.24976e-19
5.98841e-19
6.79054e-19
1.36972e-18
1.00515e-18
1.56691e-18
4.38487e-19
6.29273e-19
1.70394e-18
1.28807e-18
8.23777e-19
6.87391e-19
6.23553e-19
1.39721e-18
1.0569e-18
1.28131e-18
5.14673e-19
1.65039e-19
1.65264e-18
1.27297e-18
1.57251e-18
7.36209e-19
6.95527e-19
1.30569e-18
1.0043e-18
1.10656e-18
5.35402e-19
6.01167e-19
1.52279e-18
1.19893e-18
1.47443e-18
7.90979e-19
6.75958e-19
1.23988e-18
9.83588e-19
1.00819e-18
5.83985e-19
1.61962e-19
1.44681e-18
1.16115e-18
1.42538e-18
8.37674e-19
8.02852e-19
1.08113e-18
8.66069e-19
8.08304e-19
5.87528e-19
6.38787e-19
1.29853e-18
1.04871e-18
1.31509e-18
8.44446e-19
7.32268e-19
1.06634e-18
8.31418e-19
6.28362e-19
5.74e-19
3.6647e-20
1.28296e-18
1.01992e-18
1.28861e-18
8.77321e-19
8.29484e-19
1.07394e-18
8.64881e-19
5.19599e-19
6.86576e-19
5.33866e-19
1.14861e-18
9.51188e-19
1.22786e-18
9.0537e-19
7.57517e-19
7.89111e-19
9.03558e-19
7.56965e-19
2.77888e-19
7.4617e-19
4.0295e-19
1.56736e-18
9.91945e-19
8.65203e-19
8.78188e-19
1.00132e-18
2.59951e-19
9.35056e-19
7.43488e-19
7.17901e-19
5.56017e-19
9.51612e-19
4.66284e-19
1.21708e-18
7.1801e-19
7.51822e-19
7.62685e-19
1.20627e-18
6.3718e-19
6.7301e-19
4.81531e-19
6.00632e-19
4.18e-19
1.18764e-18
2.79152e-19
9.20158e-19
4.16829e-19
6.30542e-19
6.22268e-19
1.49381e-18
2.00105e-19
4.07656e-19
1.71131e-19
5.13798e-19
3.38322e-19
1.66589e-18
6.61487e-19
4.30641e-20
4.79917e-19
4.47147e-19
1.89946e-18
2.92352e-19
-1.36111e-19
4.58141e-19
2.29839e-19
2.22006e-18
4.15131e-19
-3.43091e-19
3.49065e-19
2.7788e-19
2.43408e-18
2.92386e-20
-6.86452e-19
2.47647e-19
2.56564e-20
2.98969e-18
-1.81735e-20
-9.50812e-19
9.36896e-20
3.57867e-20
3.04445e-18
-4.08651e-19
-1.54431e-18
-8.82373e-20
-2.84548e-19
4.04114e-18
-2.60064e-19
-1.36299e-18
-9.01636e-20
-1.92701e-19
3.57293e-18
-7.44526e-19
-2.60656e-18
-3.23361e-19
-5.16784e-19
5.85585e-18
-2.89926e-19
-1.23813e-18
-1.98285e-20
-1.72251e-19
3.55067e-18
-1.64195e-18
-4.89085e-18
-1.05463e-18
-1.16183e-18
8.91409e-18
1.45933e-19
2.84573e-19
3.09525e-19
5.84554e-20
1.31784e-18
-3.56883e-18
-9.83087e-18
-2.53871e-18
-2.36373e-18
1.55081e-17
2.25719e-18
6.02214e-18
1.85895e-18
1.29053e-18
-5.82223e-18
-8.00624e-18
-2.12543e-17
-5.77875e-18
-5.03559e-18
3.10013e-17
8.03055e-18
2.15878e-17
5.86923e-18
4.47829e-18
-2.82437e-17
-1.35147e-17
-1.14562e-17
6.24073e-17
)
;
    }
    axis
    {
        type            empty;
        value           nonuniform 0();
    }
    procBoundary31to25
    {
        type            processor;
        value           nonuniform List<scalar> 
68
(
-3.70049e-09
-4.29302e-09
-4.97284e-09
-5.73731e-09
-6.62519e-09
-7.59462e-09
-8.76441e-09
-9.93854e-09
-1.15306e-08
-1.27774e-08
-1.51479e-08
-1.5891e-08
-2.01009e-08
-1.83742e-08
-2.76849e-08
-1.74209e-08
-4.15445e-08
-5.28572e-09
-7.15317e-08
3.76891e-08
-1.42187e-07
1.57507e-07
1.24978e-07
1.04591e-07
8.77238e-08
7.37188e-08
6.20523e-08
5.23061e-08
4.41439e-08
3.72935e-08
3.15335e-08
2.66825e-08
2.25913e-08
1.91366e-08
1.62162e-08
1.37451e-08
1.16521e-08
9.87788e-09
8.3725e-09
7.0941e-09
6.00726e-09
5.08219e-09
4.29366e-09
3.62027e-09
3.04389e-09
2.5491e-09
2.12263e-09
1.75322e-09
1.43113e-09
1.14784e-09
8.96012e-10
6.69204e-10
4.6155e-10
2.67794e-10
8.32382e-11
-9.68932e-11
-2.76872e-10
-4.60769e-10
-6.52965e-10
-8.57735e-10
-1.07955e-09
-1.32329e-09
-1.59398e-09
-1.89735e-09
-2.2393e-09
-2.62687e-09
-0.000149852
-3.06665e-09
)
;
    }
    procBoundary31to26
    {
        type            processor;
        value           uniform 0.000149867;
    }
    procBoundary31to30
    {
        type            processor;
        value           nonuniform List<scalar> 4(-0.000152587 -0.00015527 -0.000157953 -0.000160636);
    }
    procBoundary31to32
    {
        type            processor;
        value           nonuniform List<scalar> 5(0.000152546 -2.26619e-07 0.000155262 0.000157938 0.000160614);
    }
    procBoundary31to36
    {
        type            processor;
        value           uniform -0.000163318;
    }
    procBoundary31to37
    {
        type            processor;
        value           nonuniform List<scalar> 
69
(
6.79594e-09
7.68214e-09
8.83035e-09
9.77213e-09
1.13752e-08
1.20087e-08
1.45975e-08
1.37638e-08
1.89481e-08
1.32869e-08
2.57499e-08
6.16759e-09
3.86161e-08
-1.78462e-08
6.63131e-08
-8.07549e-08
1.27283e-07
-7.5588e-08
-6.30443e-08
-5.27374e-08
-4.42239e-08
-3.71606e-08
-3.12787e-08
-2.63651e-08
-2.22496e-08
-1.87948e-08
-1.58894e-08
-1.34419e-08
-1.13772e-08
-9.63334e-09
-8.15875e-09
-6.91059e-09
-5.85297e-09
-4.95592e-09
-4.19419e-09
-3.5465e-09
-2.99505e-09
-2.52463e-09
-2.12237e-09
-1.77744e-09
-1.48058e-09
-1.22372e-09
-1.00009e-09
-8.03839e-10
-6.29734e-10
-4.73263e-10
-3.30428e-10
-1.97585e-10
-7.14144e-11
5.11669e-11
1.73317e-10
2.97732e-10
4.27299e-10
5.65025e-10
7.13864e-10
8.76989e-10
1.05787e-09
1.26017e-09
1.48796e-09
1.74553e-09
2.03791e-09
2.36977e-09
2.74779e-09
3.17609e-09
3.66491e-09
4.2132e-09
4.84312e-09
0.00016325
5.53076e-09
)
;
    }
}


// ************************************************************************* //
