/*--------------------------------*- C++ -*----------------------------------*\
  =========                 |
  \\      /  F ield         | OpenFOAM: The Open Source CFD Toolbox
   \\    /   O peration     | Website:  https://openfoam.org
    \\  /    A nd           | Version:  7
     \\/     M anipulation  |
\*---------------------------------------------------------------------------*/
FoamFile
{
    version     2.0;
    format      ascii;
    class       surfaceScalarField;
    location    "6";
    object      phi;
}
// * * * * * * * * * * * * * * * * * * * * * * * * * * * * * * * * * * * * * //

dimensions      [0 3 -1 0 0 0 0];

internalField   nonuniform List<scalar> 
812
(
2.70912e-07
8.10894e-06
1.10084e-06
2.54284e-05
2.53158e-06
4.47294e-05
4.60448e-06
6.61661e-05
8.98998e-05
2.93493e-07
7.81545e-06
1.19475e-06
2.45272e-05
2.75174e-06
4.31725e-05
5.01255e-06
6.39053e-05
8.02488e-06
8.68875e-05
1.18352e-05
0.000112288
1.64883e-05
0.000140284
2.20259e-05
0.00017106
2.8486e-05
0.000204803
3.59019e-05
0.000241711
4.43001e-05
0.000281981
5.36996e-05
0.000325814
6.411e-05
0.000373414
7.55297e-05
0.00042498
8.7944e-05
0.00048071
0.000540794
3.13462e-07
7.50198e-06
1.278e-06
2.35626e-05
2.94733e-06
4.15031e-05
5.37591e-06
6.14767e-05
8.61842e-06
8.3645e-05
1.27292e-05
0.000108178
1.77612e-05
0.000135252
2.37657e-05
0.000165055
3.07909e-05
0.000197778
3.88807e-05
0.000233621
4.80738e-05
0.000272787
5.84018e-05
0.000315486
6.98882e-05
0.000361927
8.25459e-05
0.000412322
9.63759e-05
0.00046688
0.000111365
0.000525805
0.000127484
0.000589292
3.30688e-07
7.1713e-06
1.35013e-06
2.25432e-05
3.11734e-06
3.97359e-05
5.69273e-06
5.89014e-05
9.13755e-06
8.02001e-05
1.35134e-05
0.000103802
1.88814e-05
0.000129884
2.53017e-05
0.000158635
3.28321e-05
0.000190248
4.15275e-05
0.000224926
5.14381e-05
0.000262877
6.26085e-05
0.000304316
7.50756e-05
0.00034946
8.88674e-05
0.000398531
0.000104
0.000451747
0.000120479
0.000509326
0.000571481
3.4511e-07
6.82619e-06
1.41082e-06
2.14775e-05
3.26101e-06
3.78857e-05
5.96151e-06
5.62009e-05
9.57968e-06
7.6582e-05
1.41839e-05
9.91975e-05
1.9843e-05
0.000124225
2.66254e-05
0.000151852
3.45986e-05
0.000182275
4.38275e-05
0.000215697
5.43739e-05
0.00025233
6.62949e-05
0.000292395
7.9641e-05
0.000336114
9.4455e-05
0.000383717
0.00011077
0.000435432
0.000128605
0.000491491
0.000552117
3.56697e-07
6.46949e-06
1.45994e-06
2.03742e-05
3.37795e-06
3.59677e-05
6.18147e-06
5.33973e-05
9.94343e-06
7.282e-05
1.47385e-05
9.44024e-05
2.06425e-05
0.000118321
2.7732e-05
0.000144763
3.6083e-05
0.000173924
4.57706e-05
0.000206009
5.68675e-05
0.000241233
6.94429e-05
0.000279819
8.35607e-05
0.000321996
9.92784e-05
0.000367999
0.000116645
0.000418066
0.000135697
0.000472438
0.000531353
3.65454e-07
6.10403e-06
1.49749e-06
1.92422e-05
3.46811e-06
3.39971e-05
6.35244e-06
5.0513e-05
1.02284e-05
6.89441e-05
1.51763e-05
8.94545e-05
2.12785e-05
0.000112219
2.86187e-05
0.000137423
3.72815e-05
0.000165261
4.73511e-05
0.000195939
5.89107e-05
0.000229674
7.20411e-05
0.000266689
8.68193e-05
0.000307218
0.000103317
0.000351501
0.000121598
0.000399785
0.000141719
0.000452317
3.71422e-07
5.73261e-06
1.5236e-06
1.809e-05
3.53177e-06
3.19889e-05
6.47484e-06
4.75699e-05
1.04351e-05
6.49838e-05
1.54979e-05
8.43917e-05
2.17514e-05
0.000105965
2.92861e-05
0.000129888
3.8194e-05
0.000156353
4.85681e-05
0.000185565
6.05013e-05
0.000217741
7.40854e-05
0.000253105
8.94099e-05
0.000291894
0.00010656
0.000334351
0.000125616
0.000380729
0.000431284
3.74676e-07
5.35794e-06
1.53856e-06
1.69261e-05
3.56957e-06
2.99579e-05
6.54977e-06
4.45898e-05
1.05652e-05
6.09684e-05
1.57055e-05
7.92513e-05
2.20641e-05
9.96068e-05
2.97373e-05
0.000122215
3.88241e-05
0.000147266
4.94252e-05
0.000174964
6.16426e-05
0.000205523
7.55786e-05
0.000239169
9.13341e-05
0.000276138
0.000109008
0.000316678
0.000128694
0.000361043
0.000409497
3.75332e-07
4.9826e-06
1.54282e-06
1.57586e-05
3.58249e-06
2.79182e-05
6.57893e-06
4.15933e-05
1.06212e-05
5.69261e-05
1.58029e-05
7.40697e-05
2.22215e-05
9.31883e-05
2.99785e-05
0.000114458
3.9179e-05
0.000138066
4.99309e-05
0.000164212
6.23444e-05
0.00019311
7.65309e-05
0.000224982
9.26024e-05
0.000260067
0.00011067
0.00029861
0.000130842
0.000340871
0.000153222
0.000387117
0.000437623
3.7353e-07
4.60908e-06
1.53694e-06
1.45952e-05
3.57177e-06
2.58834e-05
6.56454e-06
3.86005e-05
1.06067e-05
5.28839e-05
1.57948e-05
6.88816e-05
2.223e-05
8.67531e-05
3.00182e-05
0.000106669
3.92695e-05
0.000128814
5.0098e-05
0.000153384
6.26212e-05
0.000180587
7.69591e-05
0.000210645
9.32333e-05
0.000243792
0.000111566
0.000280277
0.000132079
0.000320358
0.000154891
0.000364305
0.000412397
3.69436e-07
4.23964e-06
1.52158e-06
1.34431e-05
3.53892e-06
2.38661e-05
6.50928e-06
3.56302e-05
1.05259e-05
4.88673e-05
1.56874e-05
6.37201e-05
2.2098e-05
8.03425e-05
2.98669e-05
9.89005e-05
3.91088e-05
0.000119573
4.99428e-05
0.00014255
6.24927e-05
0.000168037
7.68858e-05
0.000196251
9.32528e-05
0.000227426
0.000111726
0.000261804
0.000132439
0.000299645
0.000155523
0.00034122
0.00038681
3.63241e-07
3.8764e-06
1.4975e-06
1.23088e-05
3.48565e-06
2.18779e-05
6.41623e-06
3.26996e-05
1.03835e-05
4.49e-05
1.54878e-05
5.86158e-05
2.18351e-05
7.39952e-05
2.95376e-05
9.11981e-05
3.87131e-05
0.000110397
4.94852e-05
0.000131778
6.19828e-05
0.000155539
7.63395e-05
0.000181895
9.26936e-05
0.000211071
0.000111186
0.000243311
0.000131962
0.00027887
0.000155166
0.000318017
0.000361034
3.55151e-07
3.52125e-06
1.46553e-06
1.11984e-05
3.41387e-06
1.99296e-05
6.28883e-06
2.98247e-05
1.01852e-05
4.10037e-05
1.52039e-05
5.35971e-05
2.14524e-05
6.77467e-05
2.90446e-05
8.36058e-05
3.81009e-05
0.000101341
4.87481e-05
0.00012113
6.11191e-05
0.000143168
7.53531e-05
0.000167661
9.15943e-05
0.00019483
0.000109992
0.000224913
0.0001307
0.000258162
0.000153874
0.000294843
0.000179671
0.000335237
0.000379638
3.45386e-07
3.17586e-06
1.42655e-06
1.01173e-05
3.32559e-06
1.80305e-05
6.13071e-06
2.70195e-05
9.93648e-06
3.71979e-05
1.48441e-05
4.86895e-05
2.09614e-05
6.16293e-05
2.84033e-05
7.61639e-05
3.72919e-05
9.24521e-05
4.77562e-05
0.000110666
5.99321e-05
0.000130992
7.39629e-05
0.00015363
8.99979e-05
0.000178795
0.000108193
0.000206718
0.000128709
0.000237646
0.000151712
0.00027184
0.000177371
0.000309577
0.000205858
0.000351152
0.000396871
3.34165e-07
2.8417e-06
1.38146e-06
9.06998e-06
3.22285e-06
1.61891e-05
5.94557e-06
2.42968e-05
9.64342e-06
3.35001e-05
1.4417e-05
4.39159e-05
2.03741e-05
5.56722e-05
2.76299e-05
6.89082e-05
3.63068e-05
8.37752e-05
4.65353e-05
0.000100438
5.84535e-05
0.000119074
7.22072e-05
0.000139876
8.79497e-05
0.000163053
0.000105842
0.000188826
0.000126051
0.000217436
0.000148752
0.000249139
0.000174122
0.000284207
0.000202346
0.000322928
0.000365608
3.21704e-07
2.51999e-06
1.33112e-06
8.06056e-06
3.10765e-06
1.44126e-05
5.73706e-06
2.16674e-05
9.31181e-06
2.99253e-05
1.39314e-05
3.92964e-05
1.97026e-05
4.9901e-05
2.674e-05
6.18707e-05
3.51661e-05
7.53491e-05
4.51115e-05
9.04923e-05
5.67152e-05
0.00010747
7.01248e-05
0.000126467
8.54962e-05
0.000147681
0.000102994
0.000171329
0.00012279
0.00019764
0.000145066
0.000226864
0.000170007
0.000259265
0.000197808
0.000295127
0.000228666
0.00033475
0.00037845
3.08206e-07
2.21179e-06
1.27636e-06
7.09241e-06
2.98189e-06
1.27071e-05
5.50863e-06
1.91407e-05
8.94717e-06
2.64868e-05
1.33953e-05
3.48483e-05
1.89582e-05
4.43381e-05
2.57492e-05
5.50798e-05
3.38897e-05
6.72086e-05
4.35097e-05
8.08723e-05
5.47483e-05
9.62316e-05
6.77535e-05
0.000113462
8.26826e-05
0.000132752
9.97024e-05
0.000154309
0.000118989
0.000178354
0.000140727
0.000205126
0.00016511
0.000234882
0.000192339
0.000267898
0.000222624
0.000304465
0.000256179
0.000344896
0.000389519
2.9385e-07
1.91794e-06
1.21792e-06
6.16834e-06
2.84727e-06
1.10777e-05
5.26338e-06
1.67246e-05
8.55449e-06
2.31957e-05
1.28161e-05
3.05867e-05
1.81512e-05
3.90029e-05
2.46712e-05
4.85598e-05
3.24956e-05
5.93842e-05
4.17531e-05
7.16148e-05
5.25815e-05
8.54032e-05
6.51284e-05
0.000100915
7.95514e-05
0.000118329
9.60179e-05
0.000137842
0.000114706
0.000159666
0.000135804
0.000184028
0.00015951
0.000211177
0.000186031
0.000241376
0.000215586
0.00027491
0.000248399
0.000312083
0.000284701
0.000353217
0.000398652
2.78788e-07
1.63915e-06
1.15641e-06
5.29072e-06
2.70523e-06
9.5289e-06
5.00397e-06
1.44258e-05
8.13806e-06
2.00616e-05
1.22002e-05
2.65246e-05
1.72908e-05
3.39123e-05
2.35182e-05
4.23323e-05
3.09998e-05
5.19026e-05
3.98618e-05
6.27528e-05
5.02401e-05
7.50248e-05
6.22807e-05
8.8874e-05
7.61401e-05
0.00010447
9.19855e-05
0.000121997
0.000109995
0.000141656
0.00013036
0.000163664
0.00015328
0.000188257
0.000178967
0.000215688
0.000207647
0.000246231
0.000239551
0.000280179
0.000274924
0.000317844
0.000314017
0.000359559
0.00040568
2.63137e-07
1.37601e-06
1.09232e-06
4.46153e-06
2.55692e-06
8.0643e-06
4.7325e-06
1.22502e-05
7.70132e-06
1.70927e-05
1.15528e-05
2.26731e-05
1.6384e-05
2.90811e-05
2.23003e-05
3.64161e-05
2.94154e-05
4.47874e-05
3.78528e-05
5.43154e-05
4.77454e-05
6.51322e-05
5.92367e-05
7.73828e-05
7.24809e-05
9.12256e-05
8.76438e-05
0.000106834
0.000104903
0.000124397
0.000124448
0.000144119
0.000146482
0.000166223
0.00017122
0.00019095
0.000198889
0.000218562
0.00022973
0.000249337
0.000263996
0.000301949
0.000343864
2.46981e-07
1.12903e-06
1.02602e-06
3.6825e-06
2.40316e-06
6.68716e-06
4.45056e-06
1.02029e-05
7.24688e-06
1.42964e-05
1.08779e-05
1.90421e-05
1.54368e-05
2.45222e-05
2.10251e-05
3.08278e-05
2.77528e-05
3.80597e-05
3.57395e-05
4.63288e-05
4.51144e-05
5.57573e-05
5.60174e-05
6.64797e-05
6.85997e-05
7.86434e-05
8.30241e-05
9.24096e-05
9.9466e-05
0.000107955
0.000118114
0.000125471
0.00013917
0.000162849
0.000189382
2.30372e-07
8.9866e-07
9.5772e-07
2.95515e-06
2.24455e-06
5.40032e-06
4.15926e-06
8.28814e-06
6.77662e-06
1.16791e-05
1.01783e-05
1.56405e-05
1.44532e-05
2.02472e-05
1.96986e-05
2.55825e-05
2.602e-05
3.17382e-05
3.35324e-05
3.88164e-05
4.23606e-05
4.69291e-05
5.26401e-05
5.62003e-05
6.45177e-05
7.81523e-05
9.37158e-05
2.13346e-07
6.85314e-07
8.87604e-07
2.28089e-06
2.08151e-06
4.20642e-06
3.85947e-06
6.51019e-06
6.29201e-06
9.24652e-06
9.45635e-06
1.24761e-05
1.34369e-05
1.62667e-05
1.83259e-05
2.06935e-05
2.42239e-05
3.12408e-05
3.94962e-05
1.95932e-07
4.89382e-07
8.15829e-07
1.66099e-06
1.91447e-06
3.10777e-06
3.55206e-06
5.79466e-06
8.71473e-06
1.23917e-05
1.78206e-07
7.42705e-07
)
;

boundaryField
{
    inlet
    {
        type            calculated;
        value           nonuniform 0();
    }
    outlet
    {
        type            calculated;
        value           nonuniform 0();
    }
    cylinder
    {
        type            calculated;
        value           uniform 0;
    }
    top
    {
        type            symmetryPlane;
        value           nonuniform 0();
    }
    bottom
    {
        type            symmetryPlane;
        value           nonuniform 0();
    }
    defaultFaces
    {
        type            empty;
        value           nonuniform 0();
    }
    procBoundary14to7
    {
        type            processor;
        value           nonuniform List<scalar> 
20
(
-8.37985e-06
-2.62584e-05
-4.61602e-05
-6.8239e-05
-9.26551e-05
7.35982e-06
-0.000116099
-0.000144937
-0.000176597
-0.000211264
-0.000249127
-0.000290379
-0.000335214
-0.000383824
-0.0004364
-0.000493124
-0.000554173
0.000101324
-0.000605411
-0.00067473
)
;
    }
    procBoundary14to8
    {
        type            processor;
        value           nonuniform List<scalar> 
28
(
0.000144685
0.000657529
0.00013829
0.000147969
0.000156461
0.000163722
0.00050935
0.000146649
0.000150481
-0.000462309
0.000177908
0.000180116
0.000181111
0.000180942
-0.000408217
0.00020825
-0.000428356
0.000237343
0.000233608
-0.000412567
0.000262783
-0.000426561
0.000293221
-0.000438681
0.00032473
-0.00044875
0.000357088
-0.000456578
)
;
    }
    procBoundary14to9
    {
        type            processor;
        value           nonuniform List<scalar> 
30
(
0.000283578
0.000321606
0.000363765
0.000390021
0.000410422
0.000145167
0.000167271
0.000192028
0.000219015
0.000219705
6.67658e-05
7.87749e-05
9.23911e-05
0.000111393
0.000107793
2.58402e-05
3.17995e-05
3.86738e-05
4.91201e-05
4.65764e-05
4.8726e-06
7.00392e-06
9.55605e-06
1.25897e-05
1.69124e-05
1.61727e-05
3.11176e-07
1.09649e-06
1.74418e-06
2.1063e-06
)
;
    }
    procBoundary14to20
    {
        type            processor;
        value           nonuniform List<scalar> 2(1.78206e-07 -4.89375e-07);
    }
    procBoundary14to27
    {
        type            processor;
        value           uniform 3.11168e-07;
    }
}


// ************************************************************************* //
