/*--------------------------------*- C++ -*----------------------------------*\
  =========                 |
  \\      /  F ield         | OpenFOAM: The Open Source CFD Toolbox
   \\    /   O peration     | Website:  https://openfoam.org
    \\  /    A nd           | Version:  7
     \\/     M anipulation  |
\*---------------------------------------------------------------------------*/
FoamFile
{
    version     2.0;
    format      ascii;
    class       volVectorField;
    location    "6";
    object      U;
}
// * * * * * * * * * * * * * * * * * * * * * * * * * * * * * * * * * * * * * //

dimensions      [0 1 -1 0 0 0 0];

internalField   nonuniform List<vector> 
433
(
(0.00070652 -0.000541666 3.10917e-20)
(0.01773 -0.00542726 -2.41456e-21)
(0.0530402 -0.0163879 1.46331e-20)
(0.0889789 -0.0278627 -2.79011e-20)
(0.125522 -0.039844 -1.81345e-20)
(0.162643 -0.0523198 1.56991e-20)
(0.0173135 -0.00457015 -1.70203e-20)
(0.0518348 -0.0138459 2.82892e-20)
(0.087016 -0.0236421 -1.8513e-20)
(0.122838 -0.0339549 -7.73532e-22)
(0.159277 -0.044776 -3.46909e-20)
(0.196302 -0.0561076 1.3358e-20)
(0.233877 -0.0679507 2.97809e-20)
(0.271961 -0.0803014 -5.70513e-21)
(0.310506 -0.0931505 -9.35043e-22)
(0.34946 -0.106484 -1.5993e-20)
(0.388764 -0.120281 4.1283e-20)
(0.428351 -0.134515 -8.47308e-20)
(0.468146 -0.149153 6.94011e-20)
(0.508069 -0.164154 9.87267e-21)
(0.548028 -0.179467 -6.98181e-20)
(0.587926 -0.195034 4.22675e-20)
(0.0168112 -0.00374367 -1.87315e-20)
(0.0503737 -0.0113908 3.1866e-20)
(0.0846263 -0.0195594 -2.79391e-20)
(0.119554 -0.0282487 3.41434e-20)
(0.155138 -0.0374541 -3.7466e-20)
(0.191354 -0.0471825 3.4957e-20)
(0.228169 -0.0574408 -2.73969e-20)
(0.265549 -0.0682308 -1.90141e-20)
(0.303453 -0.0795497 6.03128e-20)
(0.341834 -0.0913899 -3.48745e-20)
(0.380638 -0.103738 -2.19597e-20)
(0.419806 -0.116576 1.36892e-20)
(0.459269 -0.129878 -1.73077e-21)
(0.498952 -0.143611 -2.69415e-20)
(0.53877 -0.157733 4.19434e-20)
(0.57863 -0.172196 -1.23239e-20)
(0.618428 -0.186941 -1.69094e-20)
(0.658054 -0.201901 -9.36232e-21)
(0.0162307 -0.00295606 5.59217e-21)
(0.0486783 -0.00904724 5.87352e-20)
(0.0818441 -0.0156556 -4.79952e-20)
(0.115718 -0.022783 1.15826e-20)
(0.150286 -0.0304281 -1.22999e-20)
(0.185528 -0.0386024 2.88189e-20)
(0.221419 -0.0473174 -7.07215e-21)
(0.257929 -0.0565806 -4.81881e-21)
(0.295025 -0.0663949 -5.39383e-21)
(0.332665 -0.0767589 -4.77538e-22)
(0.370804 -0.0876666 -2.11192e-20)
(0.409386 -0.0991062 3.33805e-20)
(0.448353 -0.11106 3.2604e-20)
(0.487633 -0.123502 -1.94858e-20)
(0.527149 -0.136401 2.30902e-20)
(0.566814 -0.149716 -5.93929e-21)
(0.606531 -0.163398 -2.90337e-20)
(0.0155801 -0.00221464 2.7009e-21)
(0.0467726 -0.00683709 3.89962e-21)
(0.0787087 -0.0119672 -2.33352e-22)
(0.111383 -0.0176093 -2.64679e-21)
(0.144786 -0.0237646 1.54793e-21)
(0.178904 -0.0304486 4.8105e-21)
(0.213717 -0.0376772 -1.25112e-20)
(0.249203 -0.0454626 3.96926e-20)
(0.285333 -0.0538131 -3.18783e-20)
(0.322074 -0.0627329 2.23842e-20)
(0.359386 -0.0722223 -2.67234e-20)
(0.397223 -0.0822761 2.13977e-20)
(0.43553 -0.0928836 -1.36378e-20)
(0.474246 -0.104028 1.14424e-20)
(0.513301 -0.115684 -9.66896e-21)
(0.552613 -0.127821 -5.71683e-21)
(0.592094 -0.140398 2.92609e-20)
(0.0148685 -0.00152567 -9.901e-21)
(0.0446825 -0.00477918 -3.46186e-21)
(0.0752625 -0.00852595 1.72345e-20)
(0.106607 -0.0127723 -2.79082e-20)
(0.138713 -0.0175218 1.10044e-20)
(0.17157 -0.022793 1.28782e-20)
(0.205166 -0.0286059 -1.28493e-20)
(0.239484 -0.0349766 -1.51179e-21)
(0.274502 -0.0419181 9.36667e-22)
(0.310195 -0.0494399 4.96758e-21)
(0.346529 -0.0575476 4.51194e-21)
(0.383466 -0.0662424 4.39679e-21)
(0.420959 -0.0755202 -1.53741e-20)
(0.458954 -0.0853712 1.64859e-20)
(0.497388 -0.0957788 -4.03783e-21)
(0.53619 -0.106719 -1.35769e-20)
(0.575277 -0.118162 7.52812e-21)
(0.0141053 -0.000894274 -4.79691e-21)
(0.0424357 -0.00288908 2.01797e-21)
(0.0715507 -0.00535825 -1.3002e-21)
(0.101453 -0.00830969 1.61539e-21)
(0.132144 -0.0117487 -1.36824e-20)
(0.16362 -0.0156967 3.90903e-21)
(0.195873 -0.0201767 1.32502e-20)
(0.228894 -0.0252084 -8.78737e-21)
(0.262668 -0.0308088 -3.95937e-21)
(0.297175 -0.0369917 6.53374e-21)
(0.33239 -0.043768 -6.68314e-21)
(0.368282 -0.0511441 -7.18966e-21)
(0.404812 -0.0591221 -3.11003e-21)
(0.441935 -0.0676988 8.55388e-21)
(0.479596 -0.076865 6.81224e-21)
(0.517731 -0.0866049 -1.31745e-20)
(0.556267 -0.0968953 1.86341e-21)
(0.0133001 -0.000324434 -1.82077e-21)
(0.0400607 -0.001179 7.08101e-21)
(0.0676202 -0.00248498 -1.88721e-21)
(0.0959859 -0.00425141 4.26013e-22)
(0.125162 -0.00648511 -3.06194e-21)
(0.155152 -0.00920947 2.54696e-21)
(0.185954 -0.0124501 -5.8567e-21)
(0.217564 -0.0162295 6.76609e-21)
(0.249974 -0.0205681 -7.52336e-21)
(0.283171 -0.0254834 6.98455e-21)
(0.317138 -0.0309905 -5.38316e-21)
(0.351851 -0.0371009 3.93936e-22)
(0.387279 -0.043822 5.96724e-21)
(0.423386 -0.0511566 -2.94257e-21)
(0.460126 -0.0591021 6.21222e-21)
(0.497444 -0.0676499 -8.77708e-21)
(0.0124629 0.000181042 1.94248e-21)
(0.0375865 0.000342272 -6.84141e-21)
(0.0635189 7.8576e-05 1.71767e-21)
(0.0902711 -0.000619866 7.89056e-22)
(0.117852 -0.00176091 2.94469e-21)
(0.146269 -0.00336946 -2.37082e-21)
(0.175527 -0.00547296 6.24419e-21)
(0.205628 -0.0080963 -6.39695e-21)
(0.23657 -0.0112623 6.88441e-21)
(0.268348 -0.0149917 -6.84307e-21)
(0.30095 -0.0193033 6.10751e-21)
(0.334362 -0.0242125 1.62488e-21)
(0.368561 -0.0297316 -5.10946e-21)
(0.403519 -0.0358687 2.7661e-21)
(0.439198 -0.042627 -6.65269e-21)
(0.475553 -0.0500046 9.78418e-21)
(0.0116034 0.000620491 5.54278e-21)
(0.0350421 0.00166933 -1.19944e-21)
(0.0592946 0.00232265 2.89248e-22)
(0.0843754 0.00257023 -4.02746e-21)
(0.110297 0.00240354 1.42105e-20)
(0.137073 0.00179672 -1.48879e-20)
(0.164712 0.000721085 -3.41027e-21)
(0.193223 -0.000849862 8.63003e-21)
(0.222609 -0.00294089 4.28816e-21)
(0.252873 -0.00557532 -6.57525e-21)
(0.28401 -0.00877457 2.59353e-21)
(0.316013 -0.0125577 4.9729e-22)
(0.348867 -0.0169408 1.90084e-21)
(0.382552 -0.0219365 -1.24398e-20)
(0.417041 -0.0275534 -4.21288e-21)
(0.452296 -0.0337953 9.93102e-21)
(0.488273 -0.0406607 8.94967e-22)
(0.0107313 0.00099336 8.79389e-21)
(0.0324559 0.00280002 4.75191e-21)
(0.0549942 0.00424287 -1.85809e-20)
(0.0783641 0.00531161 3.02296e-20)
(0.102582 0.0059974 -1.2569e-20)
(0.127665 0.00627395 -1.55265e-20)
(0.153628 0.00611192 1.80701e-20)
(0.180484 0.0054838 -2.44821e-21)
(0.208245 0.00436349 -2.2848e-20)
(0.236916 0.00272592 2.0159e-20)
(0.266502 0.000547467 -6.49161e-21)
(0.297002 -0.00219357 1.52269e-21)
(0.32841 -0.00551651 1.57144e-20)
(0.360713 -0.00943777 -2.4911e-20)
(0.393893 -0.0139703 7.44097e-21)
(0.427922 -0.0191231 1.90354e-20)
(0.462767 -0.0249004 -4.03306e-21)
(0.00985572 0.00130014 -2.76525e-21)
(0.0298549 0.00373528 -7.13006e-21)
(0.050663 0.00583997 7.71093e-22)
(0.0723005 0.00760415 -1.19724e-21)
(0.0947871 0.00901895 4.3007e-21)
(0.118144 0.0100582 -9.41334e-22)
(0.142391 0.0106923 9.88469e-21)
(0.167547 0.0108935 -3.53908e-20)
(0.193627 0.0106348 4.02075e-20)
(0.220645 0.0098902 -2.66943e-20)
(0.24861 0.00863443 4.1389e-20)
(0.277529 0.00684386 -2.18826e-20)
(0.307403 0.00449671 9.12194e-21)
(0.338229 0.00157357 -7.87801e-21)
(0.369995 -0.00194215 1.37385e-20)
(0.402684 -0.00606366 2.81779e-21)
(0.436272 -0.0108002 -3.88983e-20)
(0.00898528 0.00154227 -4.9455e-21)
(0.0272651 0.0044789 -6.17655e-20)
(0.046344 0.00711944 5.41063e-20)
(0.0662449 0.0094543 -5.76981e-21)
(0.0869904 0.0114749 8.54882e-21)
(0.108605 0.0131556 -3.3054e-20)
(0.131114 0.0144672 7.5415e-21)
(0.15454 0.015382 1.51065e-21)
(0.178903 0.0158729 9.77544e-21)
(0.204222 0.0159133 7.10601e-21)
(0.230514 0.0154771 2.48816e-20)
(0.25779 0.0145394 -3.72706e-20)
(0.286059 0.0130767 -2.7634e-20)
(0.315326 0.0110673 3.95156e-20)
(0.345587 0.00849176 -4.32001e-20)
(0.376836 0.00533353 1.8241e-20)
(0.409055 0.00157927 3.08392e-20)
(0.008128 0.00172205 2.0308e-20)
(0.0247104 0.00503723 -4.44924e-20)
(0.0420772 0.00809101 3.46198e-20)
(0.0602536 0.0108745 -4.47081e-20)
(0.0792646 0.0133798 4.43552e-20)
(0.0991383 0.015582 -4.18667e-20)
(0.119903 0.0174528 2.66545e-20)
(0.141586 0.0189651 1.71027e-20)
(0.164211 0.0200922 -7.09859e-20)
(0.187804 0.0208073 7.44027e-20)
(0.212385 0.0210843 -6.74965e-20)
(0.237973 0.0208976 3.5809e-20)
(0.264582 0.0202225 -2.76321e-22)
(0.292225 0.019036 2.09883e-20)
(0.320907 0.0173165 -5.66534e-20)
(0.350627 0.0150448 1.51813e-21)
(0.38138 0.0122043 2.21889e-20)
(0.413151 0.00878178 1.10409e-20)
(0.00729114 0.00184253 1.8879e-20)
(0.0222125 0.00541884 -2.98947e-20)
(0.0378992 0.00876822 2.0607e-20)
(0.0543783 0.0118827 3.17153e-21)
(0.0716767 0.0147551 4.50335e-20)
(0.0898254 0.0173617 -1.84363e-20)
(0.108856 0.0196756 -3.04525e-20)
(0.128799 0.0216706 1.22463e-20)
(0.149683 0.0233207 -8.28668e-21)
(0.171537 0.0245998 2.37407e-20)
(0.194388 0.0254821 -5.61806e-20)
(0.218258 0.0259418 9.40739e-20)
(0.243169 0.0259539 -8.54705e-20)
(0.269139 0.0254945 -1.21722e-20)
(0.296181 0.0245407 1.01668e-19)
(0.324303 0.0230714 -4.88041e-20)
(0.353507 0.0210678 2.50452e-20)
(0.383788 0.0185134 -1.33668e-19)
(0.415134 0.0153948 8.19237e-20)
(0.00648113 0.00190736 6.56936e-21)
(0.019791 0.00563423 -2.13724e-20)
(0.033843 0.00916782 3.79692e-20)
(0.0486656 0.0125012 2.30946e-20)
(0.0642875 0.0156282 -2.25205e-20)
(0.0807419 0.0185266 -4.06742e-21)
(0.0980631 0.0211711 3.60724e-20)
(0.116285 0.0235367 -8.37814e-20)
(0.135439 0.0255988 5.04383e-20)
(0.155559 0.0273323 -3.04974e-20)
(0.176674 0.028712 2.92632e-20)
(0.198814 0.0297126 2.28731e-20)
(0.222004 0.0303094 -4.12616e-20)
(0.246268 0.0304781 9.24747e-20)
(0.271627 0.0301954 -1.33026e-19)
(0.298095 0.0294389 1.37712e-19)
(0.325684 0.0281882 -1.29123e-20)
(0.354396 0.0264244 -3.67573e-20)
(0.38423 0.0241315 3.80646e-20)
(0.00570359 0.00192071 -1.11279e-20)
(0.0174628 0.00569542 -4.86705e-20)
(0.0299374 0.00930922 -2.62415e-21)
(0.0431568 0.0127564 -3.04213e-20)
(0.0571508 0.0160318 5.38375e-20)
(0.0719548 0.019115 4.77967e-20)
(0.0876052 0.0219826 1.81549e-20)
(0.104138 0.0246113 -1.36291e-19)
(0.121589 0.0269779 4.96325e-20)
(0.139993 0.0290587 -1.26998e-20)
(0.159384 0.0308297 -8.33388e-22)
(0.179795 0.0322667 -2.61017e-20)
(0.201258 0.0333454 -1.22477e-20)
(0.2238 0.0340419 9.3183e-20)
(0.247448 0.0343329 -8.67309e-20)
(0.272224 0.0341956 2.66843e-20)
(0.298146 0.0336085 8.49286e-20)
(0.325226 0.0325514 -9.67231e-21)
(0.35347 0.0310061 -9.70845e-20)
(0.382878 0.0289566 4.10516e-20)
(0.00496327 0.00188715 1.20947e-20)
(0.0152425 0.00561569 1.61847e-20)
(0.0262072 0.00921401 -1.03596e-20)
(0.0378873 0.0126777 -9.66414e-20)
(0.0503137 0.0160027 7.70086e-20)
(0.0635229 0.0191708 -4.40257e-20)
(0.0775532 0.0221603 3.87313e-20)
(0.0924424 0.0249501 4.6965e-20)
(0.108229 0.0275187 -8.43102e-20)
(0.124949 0.0298441 1.26924e-20)
(0.142642 0.0319037 9.2717e-21)
(0.161342 0.0336747 6.98639e-20)
(0.181085 0.035134 -1.25573e-19)
(0.201905 0.0362584 9.91502e-20)
(0.223832 0.0370251 2.33504e-20)
(0.246893 0.0374114 3.8746e-20)
(0.271114 0.0373955 -1.33317e-19)
(0.296515 0.0369564 4.09517e-20)
(0.323109 0.0360745 4.64951e-20)
(0.350905 0.0347319 -4.93013e-20)
(0.379905 0.0329129 1.65544e-21)
(0.00426411 0.00181152 -2.76592e-20)
(0.0131423 0.00540923 2.76225e-20)
(0.0226733 0.00890545 -2.41802e-20)
(0.0328874 0.0122971 -1.70241e-20)
(0.043816 0.0155814 8.13082e-21)
(0.0554965 0.0187421 -2.04905e-20)
(0.0679683 0.0217599 5.2428e-20)
(0.0812708 0.0246157 1.42885e-20)
(0.0954436 0.02729 7.08044e-20)
(0.110526 0.0297628 -5.99941e-20)
(0.126558 0.0320133 2.99986e-20)
(0.143579 0.0340203 -3.97649e-21)
(0.161626 0.035762 -1.12611e-19)
(0.180736 0.0372166 1.31349e-19)
(0.200946 0.0383621 -5.19935e-20)
(0.222287 0.0391764 -3.7457e-20)
(0.244789 0.0396379 -5.26944e-20)
(0.268479 0.0397254 2.2009e-20)
(0.293379 0.0394187 2.46863e-20)
(0.319507 0.0386987 -6.59827e-20)
(0.346871 0.0375476 1.23255e-19)
(0.375476 0.0359499 1.69147e-20)
(0.00360926 0.00169887 -1.94271e-20)
(0.011172 0.00509094 7.30534e-20)
(0.0193527 0.00840805 -5.56285e-20)
(0.0281818 0.0116485 -4.91338e-20)
(0.0376907 0.0148107 2.4074e-20)
(0.0479174 0.0178808 7.2858e-20)
(0.058902 0.0208416 -6.65e-20)
(0.0706846 0.0236764 -1.42813e-21)
(0.083306 0.0263678 8.81383e-20)
(0.0968072 0.0288979 5.77243e-21)
(0.111229 0.0312478 -9.68781e-20)
(0.126614 0.0333982 1.18941e-20)
(0.143 0.0353291 7.7726e-20)
(0.16043 0.0370201 -9.73588e-20)
(0.17894 0.0384505 5.30263e-20)
(0.198569 0.0395992 9.98383e-21)
(0.21935 0.0404452 -1.3465e-20)
(0.241316 0.0409676 7.23077e-20)
(0.264495 0.041146 -6.19648e-20)
(0.288911 0.0409606 -5.54118e-20)
(0.314584 0.0403925 2.08778e-20)
(0.341526 0.0394245 5.13952e-20)
(0.369744 0.0380409 9.78982e-22)
(0.00300117 0.0015544 -2.5376e-20)
(0.00933928 0.00467619 5.53071e-20)
(0.016259 0.00774729 -6.3949e-20)
(0.0237904 0.0107673 3.28383e-21)
(0.0319646 0.013736 1.67506e-20)
(0.0408199 0.0166417 2.85033e-20)
(0.0503963 0.0194696 -3.6023e-20)
(0.0607346 0.0222053 -3.93013e-20)
(0.0718759 0.0248337 4.3352e-20)
(0.0838621 0.027339 -5.86809e-20)
(0.0967354 0.0297046 1.34259e-19)
(0.110538 0.031913 -2.01861e-20)
(0.125313 0.0339462 -1.00326e-20)
(0.141101 0.0357856 -1.7225e-20)
(0.157945 0.0374118 -8.38844e-20)
(0.175884 0.0388052 9.56502e-20)
(0.194956 0.0399456 1.01338e-20)
(0.215198 0.040813 -1.39574e-19)
(0.236644 0.0413869 -2.67214e-20)
(0.259325 0.0416476 8.4525e-20)
(0.283266 0.0415753 4.29317e-20)
(0.30849 0.0411516 5.75411e-20)
(0.335013 0.040359 -5.75892e-20)
(0.362843 0.0391819 3.55114e-21)
(0.00244165 0.0013834 3.91953e-20)
(0.00764998 0.00418074 -1.18569e-19)
(0.0134023 0.00694932 1.81738e-20)
(0.0197283 0.00969007 -5.28362e-21)
(0.0266584 0.0124041 9.38737e-20)
(0.0342306 0.0150818 -1.07386e-21)
(0.0424847 0.0177109 -4.25644e-20)
(0.0514613 0.0202793 -6.54523e-21)
(0.0612017 0.0227741 -8.23115e-20)
(0.0717478 0.0251819 1.16257e-19)
(0.0831423 0.0274881 -4.17858e-20)
(0.0954285 0.0296775 -6.72634e-21)
(0.10865 0.0317341 -3.80583e-20)
(0.122849 0.033641 -4.18519e-20)
(0.13807 0.0353807 -2.40788e-21)
(0.154354 0.0369348 7.86313e-20)
(0.171743 0.0382847 -2.20839e-21)
(0.190277 0.039411 7.69734e-20)
(0.209994 0.0402939 -1.66768e-19)
(0.23093 0.0409137 5.67759e-20)
(0.00193194 0.00119122 1.97093e-20)
(0.00610816 0.00362055 -4.04481e-20)
(0.0107901 0.00604082 7.70063e-20)
(0.0160065 0.00845421 1.36231e-23)
(0.0217873 0.010863 -1.28351e-20)
(0.0281694 0.0132599 -1.9158e-20)
(0.0351922 0.0156349 3.98098e-20)
(0.0428957 0.0179781 -7.01619e-20)
(0.0513205 0.0202791 1.10093e-20)
(0.0605085 0.0225266 -9.73975e-21)
(0.0705023 0.0247083 -3.625e-20)
(0.081345 0.0268112 1.8856e-20)
(0.0930804 0.0288212 -4.46356e-20)
(0.105752 0.0307234 3.54309e-20)
(0.119405 0.0325022 -5.49522e-20)
(0.134082 0.0341408 2.58412e-19)
(0.00147278 0.00098328 -4.11398e-20)
(0.00471629 0.00301177 -5.70533e-20)
(0.00842688 0.00504875 3.64321e-20)
(0.0126322 0.00709756 7.49051e-20)
(0.0173612 0.00916167 -8.9567e-20)
(0.0226497 0.0112358 -2.48042e-20)
(0.0285361 0.0133123 2.41344e-20)
(0.0350593 0.0153835 1.17409e-20)
(0.0422592 0.0174412 7.62802e-20)
(0.0501768 0.0194763 -8.13609e-20)
(0.058854 0.0214788 1.31288e-20)
(0.0683335 0.0234378 -5.889e-21)
(0.00106439 0.000764977 1.44917e-20)
(0.00347533 0.00237058 8.40509e-21)
(0.00631462 0.00400016 -5.43591e-20)
(0.0096087 0.00565813 5.1214e-20)
(0.0133852 0.00734902 -3.4073e-20)
(0.0176788 0.00906949 -3.88342e-20)
(0.0225263 0.0108142 1.23801e-19)
(0.0279653 0.0125775 -4.46734e-20)
(0.000706533 0.000541677 -3.0478e-20)
(0.00238469 0.00171295 6.99936e-20)
(0.00445267 0.00292174 -4.93058e-20)
)
;

boundaryField
{
    inlet
    {
        type            uniformFixedValue;
        uniformValue    constant (1 0 0);
        value           nonuniform 0();
    }
    outlet
    {
        type            pressureInletOutletVelocity;
        value           nonuniform 0();
    }
    cylinder
    {
        type            fixedValue;
        value           uniform (0 0 0);
    }
    top
    {
        type            symmetryPlane;
    }
    bottom
    {
        type            symmetryPlane;
    }
    defaultFaces
    {
        type            empty;
    }
    procBoundary14to7
    {
        type            processor;
        value           nonuniform List<vector> 
20
(
(0.0180545 -0.00630585 8.08837e-21)
(0.0539712 -0.0189897 3.2903e-20)
(0.0904845 -0.0321758 6.74802e-21)
(0.127566 -0.0458529 2.0501e-20)
(0.165185 -0.0600046 -4.35485e-20)
(0.200304 -0.0652867 6.85694e-21)
(0.200304 -0.0652867 6.85694e-21)
(0.238464 -0.0787399 -2.30504e-20)
(0.277076 -0.0926689 5.69476e-20)
(0.316089 -0.107058 -3.54578e-20)
(0.355443 -0.121885 2.96095e-20)
(0.395074 -0.137123 -2.65291e-20)
(0.43491 -0.152737 -2.15029e-20)
(0.474871 -0.168686 4.01428e-20)
(0.51487 -0.184918 -6.38568e-20)
(0.554813 -0.201377 9.57515e-20)
(0.594595 -0.217995 -1.11875e-19)
(0.627654 -0.210789 -5.33959e-20)
(0.627654 -0.210789 -5.33959e-20)
(0.667097 -0.226655 8.88772e-20)
)
;
    }
    procBoundary14to8
    {
        type            processor;
        value           nonuniform List<vector> 
28
(
(0.697387 -0.216999 6.2292e-21)
(0.646194 -0.177389 -1.14285e-20)
(0.646194 -0.177389 -1.14285e-20)
(0.631642 -0.153366 -1.09843e-20)
(0.614555 -0.130065 -8.63889e-21)
(0.595118 -0.107705 -6.5721e-21)
(0.535274 -0.0767847 6.14656e-22)
(0.535274 -0.0767847 6.14656e-22)
(0.512528 -0.0579935 -6.16288e-22)
(0.512528 -0.0579935 -6.16288e-22)
(0.524916 -0.0481421 2.0716e-21)
(0.49838 -0.0313011 1.75515e-20)
(0.470722 -0.0161563 8.05987e-21)
(0.44222 -0.00278045 1.2737e-20)
(0.44222 -0.00278045 1.2737e-20)
(0.445917 0.0047676 -7.3418e-21)
(0.445917 0.0047676 -7.3418e-21)
(0.447523 0.0117024 6.18263e-20)
(0.415173 0.0212961 -1.90651e-20)
(0.415173 0.0212961 -1.90651e-20)
(0.413439 0.0263896 -4.04294e-21)
(0.413439 0.0263896 -4.04294e-21)
(0.4101 0.0306044 -2.44756e-20)
(0.4101 0.0306044 -2.44756e-20)
(0.405317 0.0338927 3.34801e-20)
(0.405317 0.0338927 3.34801e-20)
(0.399236 0.0362287 -3.14681e-20)
(0.399236 0.0362287 -3.14681e-20)
)
;
    }
    procBoundary14to9
    {
        type            processor;
        value           nonuniform List<vector> 
30
(
(0.253116 0.0412505 1.72258e-20)
(0.276582 0.0412849 3.72763e-20)
(0.301353 0.0409981 2.80387e-20)
(0.391983 0.037607 -1.38832e-19)
(0.327448 0.0403723 -3.33619e-20)
(0.149826 0.0356219 2.34413e-19)
(0.16668 0.0369271 -5.7691e-20)
(0.184685 0.0380377 -1.41161e-19)
(0.253116 0.0412505 1.72258e-20)
(0.203881 0.0389342 -7.23434e-20)
(0.0786587 0.0253412 2.81101e-20)
(0.0898735 0.0271762 3.54224e-20)
(0.102022 0.0289291 -1.38687e-19)
(0.149826 0.0356219 2.34413e-19)
(0.115149 0.0305847 -1.02676e-19)
(0.0340344 0.0143534 4.40079e-20)
(0.0407734 0.016135 -1.87692e-20)
(0.0482232 0.0179144 -4.28923e-20)
(0.0786587 0.0253412 2.81101e-20)
(0.0564254 0.0196829 5.09614e-20)
(0.00693548 0.00417336 -9.51523e-20)
(0.00985944 0.00547332 9.05638e-20)
(0.0132575 0.00682018 -8.14195e-20)
(0.0171649 0.00821065 5.56003e-20)
(0.0340344 0.0143534 4.40079e-20)
(0.0216176 0.00964126 1.23312e-20)
(0.00039832 0.000318543 2.59195e-20)
(0.00144202 0.00105436 -1.21024e-20)
(0.00693548 0.00417336 -9.51523e-20)
(0.00283741 0.00183932 -1.67301e-20)
)
;
    }
    procBoundary14to20
    {
        type            processor;
        value           nonuniform List<vector> 2((0.00238467 -0.00171293 3.00464e-20) (0.00106438 -0.000764968 -1.05637e-20));
    }
    procBoundary14to27
    {
        type            processor;
        value           uniform (0.00039831 -0.000318535 -2.82237e-20);
    }
}


// ************************************************************************* //
