/*--------------------------------*- C++ -*----------------------------------*\
  =========                 |
  \\      /  F ield         | OpenFOAM: The Open Source CFD Toolbox
   \\    /   O peration     | Website:  https://openfoam.org
    \\  /    A nd           | Version:  7
     \\/     M anipulation  |
\*---------------------------------------------------------------------------*/
FoamFile
{
    version     2.0;
    format      ascii;
    class       volVectorField;
    location    "28.000462";
    object      U;
}
// * * * * * * * * * * * * * * * * * * * * * * * * * * * * * * * * * * * * * //

dimensions      [0 1 -1 0 0 0 0];

internalField   nonuniform List<vector> 
5800
(
(0.0761844 0.0278533 -6.89179e-21)
(0.0520254 0.0221171 -2.86435e-21)
(0.033812 0.0160356 1.80915e-20)
(0.0216268 0.00971478 -7.00622e-21)
(0.0155216 0.00325365 8.31253e-22)
(1.05393 -0.000804664 0)
(1.05454 -0.000788689 0)
(1.05514 -0.000772128 0)
(1.05575 -0.000754976 0)
(1.05635 -0.00073723 0)
(1.05695 -0.000718892 0)
(1.05755 -0.000699964 0)
(1.05815 -0.000680454 0)
(1.05873 -0.000660368 0)
(1.05932 -0.000639718 0)
(1.05989 -0.000618517 0)
(1.06046 -0.000596779 0)
(1.06101 -0.000574525 0)
(1.06156 -0.000551773 0)
(1.06209 -0.000528549 0)
(1.06262 -0.000504878 0)
(1.06312 -0.000480788 0)
(1.06362 -0.000456313 0)
(1.06409 -0.000431485 0)
(1.06455 -0.000406344 0)
(1.06499 -0.000380927 0)
(1.06541 -0.000355278 0)
(1.0658 -0.000329442 0)
(1.06618 -0.000303466 0)
(1.06653 -0.000277399 0)
(1.06686 -0.000251294 0)
(1.06716 -0.000225202 0)
(1.06743 -0.000199179 0)
(1.06767 -0.000173281 0)
(1.06789 -0.000147564 0)
(1.06807 -0.000122086 0)
(1.06822 -9.69051e-05 0)
(1.06834 -7.20783e-05 0)
(1.06843 -4.76624e-05 0)
(1.06848 -2.37136e-05 0)
(1.06849 -2.86202e-07 0)
(1.06848 2.2567e-05 0)
(1.06842 4.47958e-05 0)
(1.06833 6.63526e-05 0)
(1.06821 8.71929e-05 0)
(1.06804 0.000107276 0)
(1.06784 0.000126565 0)
(1.06761 0.000145027 0)
(1.06733 0.000162634 0)
(1.06702 0.000179364 0)
(1.06668 0.000195199 0)
(1.06629 0.000210126 0)
(1.06588 0.000224138 0)
(1.06542 0.000237234 0)
(1.06494 0.000249418 0)
(1.06442 0.0002607 0)
(1.06386 0.000271094 0)
(1.06328 0.000280617 0)
(1.06266 0.000289298 0)
(1.06201 0.000297152 0)
(1.06133 0.000304235 0)
(1.06062 0.000310514 0)
(1.05988 0.000316175 0)
(1.05913 0.000320879 0)
(1.05832 0.000325502 0)
(1.05755 0.00032813 0)
(1.0566 0.000332856 0)
(1.05598 0.000331291 0)
(1.05448 0.000338325 0)
(1.05416 -0.00240077 0)
(1.05477 -0.00235298 0)
(1.05538 -0.00230344 0)
(1.05599 -0.00225212 0)
(1.05659 -0.00219902 0)
(1.0572 -0.00214417 0)
(1.0578 -0.00208756 0)
(1.05839 -0.00202922 0)
(1.05898 -0.00196917 0)
(1.05956 -0.00190744 0)
(1.06014 -0.00184407 0)
(1.0607 -0.00177912 0)
(1.06126 -0.00171263 0)
(1.06181 -0.00164466 0)
(1.06234 -0.00157528 0)
(1.06286 -0.00150458 0)
(1.06337 -0.00143264 0)
(1.06386 -0.00135956 0)
(1.06434 -0.00128543 0)
(1.0648 -0.00121037 0)
(1.06524 -0.0011345 0)
(1.06565 -0.00105794 0)
(1.06605 -0.000980831 0)
(1.06642 -0.000903311 0)
(1.06677 -0.000825528 0)
(1.0671 -0.000747637 0)
(1.0674 -0.000669796 0)
(1.06767 -0.000592168 0)
(1.06791 -0.00051492 0)
(1.06812 -0.000438222 0)
(1.0683 -0.000362245 0)
(1.06845 -0.000287161 0)
(1.06857 -0.000213141 0)
(1.06865 -0.000140356 0)
(1.0687 -6.89707e-05 0)
(1.06871 8.51576e-07 0)
(1.06869 6.89544e-05 0)
(1.06864 0.000135188 0)
(1.06854 0.000199411 0)
(1.06842 0.000261491 0)
(1.06825 0.000321308 0)
(1.06805 0.00037875 0)
(1.06781 0.000433723 0)
(1.06753 0.000486144 0)
(1.06722 0.000535944 0)
(1.06687 0.000583072 0)
(1.06649 0.000627491 0)
(1.06607 0.000669182 0)
(1.06561 0.000708141 0)
(1.06512 0.00074438 0)
(1.0646 0.000777929 0)
(1.06404 0.000808831 0)
(1.06345 0.000837143 0)
(1.06283 0.000862941 0)
(1.06218 0.000886285 0)
(1.0615 0.000907319 0)
(1.0608 0.000926 0)
(1.06005 0.00094275 0)
(1.0593 0.000956885 0)
(1.05849 0.000970243 0)
(1.05772 0.000978983 0)
(1.05676 0.000991235 0)
(1.05615 0.000991096 0)
(1.05464 0.00100638 0)
(1.05462 -0.00397197 0)
(1.05523 -0.00389252 0)
(1.05585 -0.00381016 0)
(1.05646 -0.00372487 0)
(1.05706 -0.00363666 0)
(1.05767 -0.00354553 0)
(1.05827 -0.00345152 0)
(1.05887 -0.00335465 0)
(1.05946 -0.00325496 0)
(1.06004 -0.00315251 0)
(1.06062 -0.00304736 0)
(1.06119 -0.00293959 0)
(1.06175 -0.00282929 0)
(1.06229 -0.00271657 0)
(1.06283 -0.00260153 0)
(1.06335 -0.00248431 0)
(1.06386 -0.00236506 0)
(1.06435 -0.00224393 0)
(1.06482 -0.00212109 0)
(1.06528 -0.00199673 0)
(1.06572 -0.00187105 0)
(1.06613 -0.00174425 0)
(1.06653 -0.00161656 0)
(1.0669 -0.00148822 0)
(1.06724 -0.00135947 0)
(1.06757 -0.00123056 0)
(1.06786 -0.00110176 0)
(1.06813 -0.000973333 0)
(1.06837 -0.000845564 0)
(1.06857 -0.000718731 0)
(1.06875 -0.000593117 0)
(1.0689 -0.000469005 0)
(1.06901 -0.00034668 0)
(1.06909 -0.00022642 0)
(1.06913 -0.000108501 0)
(1.06914 6.80927e-06 0)
(1.06912 0.000119254 0)
(1.06906 0.000228586 0)
(1.06896 0.000334573 0)
(1.06882 0.000436997 0)
(1.06865 0.000535661 0)
(1.06844 0.000630385 0)
(1.0682 0.00072101 0)
(1.06792 0.000807404 0)
(1.0676 0.000889456 0)
(1.06725 0.000967081 0)
(1.06686 0.00104022 0)
(1.06643 0.00110885 0)
(1.06597 0.00117296 0)
(1.06548 0.00123257 0)
(1.06495 0.00128774 0)
(1.06439 0.00133854 0)
(1.0638 0.00138507 0)
(1.06318 0.00142744 0)
(1.06252 0.00146578 0)
(1.06184 0.0015003 0)
(1.06113 0.001531 0)
(1.06039 0.00155839 0)
(1.05963 0.00158181 0)
(1.05881 0.00160324 0)
(1.05804 0.00161882 0)
(1.05709 0.00163667 0)
(1.05647 0.00164195 0)
(1.05496 0.00165996 0)
(1.0553 -0.00552126 0)
(1.05591 -0.00541024 0)
(1.05653 -0.00529514 0)
(1.05714 -0.00517596 0)
(1.05775 -0.00505271 0)
(1.05836 -0.00492541 0)
(1.05897 -0.00479408 0)
(1.05957 -0.00465878 0)
(1.06016 -0.00451958 0)
(1.06075 -0.00437653 0)
(1.06133 -0.00422975 0)
(1.06189 -0.00407933 0)
(1.06245 -0.00392542 0)
(1.063 -0.00376815 0)
(1.06354 -0.00360769 0)
(1.06406 -0.00344423 0)
(1.06457 -0.00327797 0)
(1.06506 -0.00310912 0)
(1.06553 -0.00293794 0)
(1.06598 -0.00276468 0)
(1.06642 -0.00258961 0)
(1.06683 -0.00241304 0)
(1.06722 -0.00223528 0)
(1.06759 -0.00205665 0)
(1.06793 -0.0018775 0)
(1.06825 -0.00169818 0)
(1.06854 -0.00151905 0)
(1.0688 -0.00134051 0)
(1.06904 -0.00116293 0)
(1.06924 -0.000986694 0)
(1.06941 -0.000812209 0)
(1.06955 -0.000639865 0)
(1.06965 -0.000470053 0)
(1.06973 -0.000303164 0)
(1.06976 -0.000139576 0)
(1.06977 2.03406e-05 0)
(1.06973 0.000176228 0)
(1.06966 0.000327748 0)
(1.06956 0.000474579 0)
(1.06942 0.000616423 0)
(1.06924 0.000753006 0)
(1.06902 0.000884085 0)
(1.06877 0.00100944 0)
(1.06848 0.0011289 0)
(1.06816 0.0012423 0)
(1.0678 0.00134954 0)
(1.0674 0.00145054 0)
(1.06697 0.00154526 0)
(1.0665 0.0016337 0)
(1.066 0.00171591 0)
(1.06547 0.00179194 0)
(1.0649 0.00186192 0)
(1.06431 0.00192598 0)
(1.06368 0.00198429 0)
(1.06302 0.00203703 0)
(1.06233 0.00208448 0)
(1.06162 0.00212669 0)
(1.06087 0.00216428 0)
(1.06011 0.00219658 0)
(1.05929 0.00222574 0)
(1.05852 0.00224785 0)
(1.05756 0.00227122 0)
(1.05695 0.00228095 0)
(1.05542 0.00230234 0)
(1.05617 -0.00705258 0)
(1.05679 -0.00690974 0)
(1.05742 -0.00676168 0)
(1.05804 -0.0066084 0)
(1.05865 -0.00644992 0)
(1.05927 -0.00628625 0)
(1.05987 -0.00611744 0)
(1.06048 -0.00594357 0)
(1.06107 -0.0057647 0)
(1.06166 -0.00558096 0)
(1.06224 -0.00539245 0)
(1.06282 -0.00519932 0)
(1.06338 -0.00500176 0)
(1.06392 -0.00479993 0)
(1.06446 -0.00459407 0)
(1.06498 -0.00438442 0)
(1.06549 -0.00417123 0)
(1.06598 -0.00395479 0)
(1.06645 -0.00373542 0)
(1.0669 -0.00351346 0)
(1.06733 -0.00328926 0)
(1.06774 -0.0030632 0)
(1.06813 -0.00283568 0)
(1.06849 -0.00260714 0)
(1.06883 -0.002378 0)
(1.06914 -0.00214873 0)
(1.06943 -0.0019198 0)
(1.06968 -0.00169169 0)
(1.06991 -0.00146489 0)
(1.0701 -0.0012399 0)
(1.07026 -0.00101723 0)
(1.07039 -0.000797381 0)
(1.07049 -0.000580849 0)
(1.07056 -0.000368131 0)
(1.07058 -0.00015971 0)
(1.07058 4.39452e-05 0)
(1.07053 0.000242382 0)
(1.07046 0.00043517 0)
(1.07034 0.000621906 0)
(1.07019 0.000802214 0)
(1.07 0.000975749 0)
(1.06977 0.00114221 0)
(1.06951 0.00130132 0)
(1.06921 0.00145285 0)
(1.06888 0.00159664 0)
(1.06851 0.00173252 0)
(1.0681 0.00186043 0)
(1.06766 0.00198032 0)
(1.06719 0.00209218 0)
(1.06668 0.00219609 0)
(1.06614 0.00229215 0)
(1.06557 0.00238049 0)
(1.06496 0.0024613 0)
(1.06433 0.00253482 0)
(1.06367 0.00260127 0)
(1.06297 0.00266101 0)
(1.06225 0.00271414 0)
(1.0615 0.0027614 0)
(1.06073 0.0028021 0)
(1.05991 0.00283863 0)
(1.05914 0.00286683 0)
(1.05817 0.0028956 0)
(1.05756 0.002909 0)
(1.05603 0.00293438 0)
(1.05725 -0.0085691 0)
(1.05787 -0.00839401 0)
(1.0585 -0.00821257 0)
(1.05913 -0.00802477 0)
(1.05975 -0.00783064 0)
(1.06037 -0.00763021 0)
(1.06098 -0.00742354 0)
(1.06159 -0.00721071 0)
(1.06219 -0.00699184 0)
(1.06278 -0.00676706 0)
(1.06337 -0.00653652 0)
(1.06394 -0.0063004 0)
(1.0645 -0.00605892 0)
(1.06505 -0.00581233 0)
(1.06559 -0.00556088 0)
(1.06611 -0.00530488 0)
(1.06661 -0.00504465 0)
(1.0671 -0.00478055 0)
(1.06757 -0.00451297 0)
(1.06802 -0.00424233 0)
(1.06845 -0.00396906 0)
(1.06885 -0.00369363 0)
(1.06923 -0.00341654 0)
(1.06959 -0.00313831 0)
(1.06992 -0.00285948 0)
(1.07023 -0.0025806 0)
(1.0705 -0.00230225 0)
(1.07075 -0.00202502 0)
(1.07097 -0.00174952 0)
(1.07115 -0.00147634 0)
(1.07131 -0.0012061 0)
(1.07143 -0.000939413 0)
(1.07151 -0.000676881 0)
(1.07157 -0.000419104 0)
(1.07158 -0.000166663 0)
(1.07156 7.98737e-05 0)
(1.07151 0.000319964 0)
(1.07142 0.000553092 0)
(1.07129 0.000778773 0)
(1.07113 0.000996557 0)
(1.07093 0.00120604 0)
(1.07069 0.00140685 0)
(1.07042 0.00159868 0)
(1.07011 0.00178126 0)
(1.06976 0.00195437 0)
(1.06938 0.00211787 0)
(1.06896 0.00227166 0)
(1.06851 0.0024157 0)
(1.06803 0.00255 0)
(1.06751 0.00267465 0)
(1.06696 0.00278978 0)
(1.06638 0.00289558 0)
(1.06576 0.00299229 0)
(1.06512 0.0030802 0)
(1.06445 0.00315959 0)
(1.06375 0.00323091 0)
(1.06302 0.00329431 0)
(1.06227 0.00335064 0)
(1.06149 0.00339921 0)
(1.06067 0.00344265 0)
(1.05989 0.0034765 0)
(1.05891 0.00351043 0)
(1.0583 0.00352712 0)
(1.05676 0.00355658 0)
(1.05851 -0.0100738 0)
(1.05914 -0.00986583 0)
(1.05978 -0.00965037 0)
(1.06041 -0.00942743 0)
(1.06104 -0.00919703 0)
(1.06167 -0.00895922 0)
(1.06228 -0.00871409 0)
(1.0629 -0.00846174 0)
(1.0635 -0.0082023 0)
(1.0641 -0.00793594 0)
(1.06469 -0.00766285 0)
(1.06526 -0.00738326 0)
(1.06582 -0.00709742 0)
(1.06637 -0.00680563 0)
(1.06691 -0.00650822 0)
(1.06743 -0.00620553 0)
(1.06793 -0.00589797 0)
(1.06842 -0.00558597 0)
(1.06889 -0.00526999 0)
(1.06933 -0.00495053 0)
(1.06975 -0.00462811 0)
(1.07015 -0.00430329 0)
(1.07053 -0.00397667 0)
(1.07088 -0.00364885 0)
(1.07121 -0.00332049 0)
(1.0715 -0.00299223 0)
(1.07177 -0.00266477 0)
(1.07201 -0.00233879 0)
(1.07221 -0.00201501 0)
(1.07239 -0.00169414 0)
(1.07253 -0.00137689 0)
(1.07264 -0.001064 0)
(1.07271 -0.000756152 0)
(1.07275 -0.000454061 0)
(1.07275 -0.000158403 0)
(1.07272 0.000130164 0)
(1.07265 0.000411007 0)
(1.07255 0.000683529 0)
(1.0724 0.00094717 0)
(1.07223 0.00120141 0)
(1.07201 0.00144579 0)
(1.07176 0.00167989 0)
(1.07147 0.00190335 0)
(1.07115 0.00211587 0)
(1.07079 0.00231721 0)
(1.07039 0.00250722 0)
(1.06996 0.00268579 0)
(1.0695 0.00285289 0)
(1.069 0.00300856 0)
(1.06847 0.0031529 0)
(1.06791 0.0032861 0)
(1.06732 0.00340839 0)
(1.0667 0.00352005 0)
(1.06605 0.00362145 0)
(1.06537 0.00371295 0)
(1.06466 0.00379506 0)
(1.06393 0.00386801 0)
(1.06316 0.00393277 0)
(1.06238 0.00398862 0)
(1.06155 0.00403848 0)
(1.06077 0.00407753 0)
(1.05978 0.00411632 0)
(1.05917 0.004136 0)
(1.05762 0.00416945 0)
(1.05995 -0.0115692 0)
(1.0606 -0.0113276 0)
(1.06124 -0.0110773 0)
(1.06188 -0.0108184 0)
(1.06252 -0.0105509 0)
(1.06315 -0.0102749 0)
(1.06377 -0.00999054 0)
(1.06439 -0.0096979 0)
(1.065 -0.00939715 0)
(1.0656 -0.00908849 0)
(1.06619 -0.00877215 0)
(1.06677 -0.00844842 0)
(1.06734 -0.00811759 0)
(1.06789 -0.00778001 0)
(1.06842 -0.00743607 0)
(1.06894 -0.0070862 0)
(1.06944 -0.00673086 0)
(1.06993 -0.00637056 0)
(1.07039 -0.00600583 0)
(1.07083 -0.00563727 0)
(1.07125 -0.00526548 0)
(1.07164 -0.00489113 0)
(1.07201 -0.00451489 0)
(1.07235 -0.00413749 0)
(1.07267 -0.00375965 0)
(1.07295 -0.00338216 0)
(1.07321 -0.0030058 0)
(1.07343 -0.00263137 0)
(1.07363 -0.00225968 0)
(1.07379 -0.00189156 0)
(1.07392 -0.00152783 0)
(1.07401 -0.00116932 0)
(1.07407 -0.000816826 0)
(1.07409 -0.000471153 0)
(1.07408 -0.000133073 0)
(1.07403 0.000196665 0)
(1.07395 0.000517348 0)
(1.07383 0.000828299 0)
(1.07367 0.00112889 0)
(1.07348 0.00141854 0)
(1.07324 0.00169673 0)
(1.07298 0.00196299 0)
(1.07267 0.00221694 0)
(1.07233 0.00245825 0)
(1.07196 0.00268666 0)
(1.07155 0.00290201 0)
(1.0711 0.00310419 0)
(1.07063 0.0032932 0)
(1.07012 0.0034691 0)
(1.06957 0.00363203 0)
(1.069 0.00378221 0)
(1.0684 0.00391993 0)
(1.06776 0.00404554 0)
(1.0671 0.00415949 0)
(1.06641 0.00426219 0)
(1.0657 0.00435426 0)
(1.06495 0.00443597 0)
(1.06418 0.00450845 0)
(1.0634 0.00457095 0)
(1.06256 0.0046267 0)
(1.06177 0.00467047 0)
(1.06078 0.0047138 0)
(1.06016 0.00473615 0)
(1.05861 0.00477348 0)
(1.06157 -0.0130576 0)
(1.06223 -0.0127812 0)
(1.06288 -0.0124951 0)
(1.06353 -0.0121993 0)
(1.06418 -0.0118937 0)
(1.06481 -0.0115786 0)
(1.06545 -0.0112541 0)
(1.06607 -0.0109202 0)
(1.06669 -0.0105772 0)
(1.06729 -0.0102253 0)
(1.06788 -0.00986489 0)
(1.06846 -0.00949618 0)
(1.06903 -0.00911957 0)
(1.06958 -0.00873545 0)
(1.07012 -0.00834429 0)
(1.07064 -0.00794658 0)
(1.07114 -0.00754286 0)
(1.07161 -0.00713371 0)
(1.07207 -0.00671977 0)
(1.07251 -0.00630171 0)
(1.07292 -0.00588022 0)
(1.0733 -0.00545607 0)
(1.07366 -0.00503004 0)
(1.074 -0.00460294 0)
(1.0743 -0.00417563 0)
(1.07458 -0.00374897 0)
(1.07482 -0.00332386 0)
(1.07503 -0.00290121 0)
(1.07521 -0.00248194 0)
(1.07536 -0.00206698 0)
(1.07547 -0.00165726 0)
(1.07555 -0.0012537 0)
(1.07559 -0.000857207 0)
(1.0756 -0.000468679 0)
(1.07557 -8.89771e-05 0)
(1.0755 0.000281065 0)
(1.0754 0.000640656 0)
(1.07526 0.000989046 0)
(1.07508 0.00132554 0)
(1.07487 0.00164951 0)
(1.07462 0.00196038 0)
(1.07433 0.00225765 0)
(1.07401 0.0025409 0)
(1.07365 0.00280978 0)
(1.07326 0.00306403 0)
(1.07284 0.00330349 0)
(1.07237 0.00352807 0)
(1.07188 0.00373778 0)
(1.07136 0.0039327 0)
(1.0708 0.00411304 0)
(1.07021 0.00427905 0)
(1.0696 0.0044311 0)
(1.06895 0.00456961 0)
(1.06828 0.00469508 0)
(1.06758 0.00480803 0)
(1.06685 0.00490916 0)
(1.0661 0.00499882 0)
(1.06532 0.00507828 0)
(1.06453 0.00514675 0)
(1.06368 0.00520782 0)
(1.06288 0.00525582 0)
(1.06189 0.00530333 0)
(1.06127 0.00532804 0)
(1.0597 0.0053691 0)
(1.06336 -0.0145407 0)
(1.06403 -0.0142285 0)
(1.06469 -0.0139055 0)
(1.06535 -0.0135715 0)
(1.06601 -0.0132268 0)
(1.06666 -0.0128714 0)
(1.06729 -0.0125055 0)
(1.06792 -0.0121293 0)
(1.06854 -0.011743 0)
(1.06915 -0.0113469 0)
(1.06975 -0.0109413 0)
(1.07033 -0.0105267 0)
(1.0709 -0.0101033 0)
(1.07145 -0.00967178 0)
(1.07199 -0.00923255 0)
(1.0725 -0.00878622 0)
(1.073 -0.00833339 0)
(1.07348 -0.00787475 0)
(1.07393 -0.00741101 0)
(1.07436 -0.00694292 0)
(1.07476 -0.00647131 0)
(1.07514 -0.00599702 0)
(1.07549 -0.00552092 0)
(1.07581 -0.00504396 0)
(1.0761 -0.00456708 0)
(1.07636 -0.00409126 0)
(1.07659 -0.0036175 0)
(1.07679 -0.00314683 0)
(1.07695 -0.00268026 0)
(1.07708 -0.00221885 0)
(1.07718 -0.0017636 0)
(1.07724 -0.00131556 0)
(1.07726 -0.000875721 0)
(1.07725 -0.00044507 0)
(1.0772 -2.45575e-05 0)
(1.07711 0.000384903 0)
(1.07699 0.000782446 0)
(1.07683 0.00116726 0)
(1.07663 0.00153858 0)
(1.0764 0.00189574 0)
(1.07613 0.00223812 0)
(1.07582 0.00256518 0)
(1.07548 0.00287649 0)
(1.07511 0.00317168 0)
(1.07469 0.00345051 0)
(1.07425 0.0037128 0)
(1.07377 0.00395848 0)
(1.07326 0.00418761 0)
(1.07272 0.00440031 0)
(1.07215 0.00459682 0)
(1.07154 0.00477747 0)
(1.07091 0.00494268 0)
(1.07025 0.00509296 0)
(1.06957 0.00522889 0)
(1.06886 0.00535108 0)
(1.06812 0.00546033 0)
(1.06736 0.00555708 0)
(1.06657 0.00564273 0)
(1.06577 0.00571648 0)
(1.06491 0.00578228 0)
(1.06411 0.00583397 0)
(1.06311 0.0058853 0)
(1.06249 0.00591206 0)
(1.06091 0.00595671 0)
(1.06532 -0.0160202 0)
(1.066 -0.0156709 0)
(1.06668 -0.0153096 0)
(1.06735 -0.0149363 0)
(1.06801 -0.0145511 0)
(1.06867 -0.0141541 0)
(1.06931 -0.0137456 0)
(1.06995 -0.0133258 0)
(1.07058 -0.012895 0)
(1.07119 -0.0124535 0)
(1.07179 -0.0120016 0)
(1.07238 -0.0115398 0)
(1.07294 -0.0110687 0)
(1.0735 -0.0105887 0)
(1.07403 -0.0101004 0)
(1.07454 -0.00960454 0)
(1.07504 -0.00910177 0)
(1.07551 -0.00859287 0)
(1.07595 -0.00807864 0)
(1.07637 -0.00755994 0)
(1.07677 -0.00703768 0)
(1.07713 -0.00651281 0)
(1.07747 -0.00598633 0)
(1.07778 -0.00545926 0)
(1.07806 -0.00493268 0)
(1.07831 -0.00440766 0)
(1.07852 -0.00388532 0)
(1.0787 -0.00336679 0)
(1.07885 -0.0028532 0)
(1.07896 -0.00234569 0)
(1.07904 -0.00184539 0)
(1.07907 -0.00135343 0)
(1.07908 -0.000870899 0)
(1.07904 -0.000398871 0)
(1.07897 6.16204e-05 0)
(1.07887 0.000509588 0)
(1.07872 0.000944097 0)
(1.07854 0.00136427 0)
(1.07832 0.00176931 0)
(1.07806 0.00215849 0)
(1.07777 0.00253115 0)
(1.07744 0.00288676 0)
(1.07708 0.00322484 0)
(1.07668 0.00354503 0)
(1.07625 0.0038471 0)
(1.07578 0.00413088 0)
(1.07528 0.00439634 0)
(1.07475 0.00464356 0)
(1.07419 0.00487272 0)
(1.07361 0.00508412 0)
(1.07299 0.00527816 0)
(1.07234 0.00545532 0)
(1.07167 0.0056162 0)
(1.07097 0.00576149 0)
(1.07024 0.00589187 0)
(1.0695 0.00600828 0)
(1.06872 0.00611119 0)
(1.06792 0.00620224 0)
(1.06712 0.00628052 0)
(1.06625 0.00635043 0)
(1.06544 0.00640529 0)
(1.06443 0.00646004 0)
(1.06381 0.00648853 0)
(1.06221 0.00653663 0)
(1.06745 -0.0174973 0)
(1.06814 -0.0171095 0)
(1.06883 -0.0167085 0)
(1.06951 -0.0162943 0)
(1.07018 -0.0158672 0)
(1.07085 -0.0154273 0)
(1.0715 -0.0149748 0)
(1.07214 -0.01451 0)
(1.07278 -0.0140332 0)
(1.07339 -0.0135449 0)
(1.074 -0.0130455 0)
(1.07458 -0.0125354 0)
(1.07515 -0.0120152 0)
(1.07571 -0.0114856 0)
(1.07624 -0.0109472 0)
(1.07675 -0.0104008 0)
(1.07723 -0.00984719 0)
(1.0777 -0.00928716 0)
(1.07814 -0.00872167 0)
(1.07855 -0.00815167 0)
(1.07893 -0.00757818 0)
(1.07929 -0.00700226 0)
(1.07961 -0.006425 0)
(1.07991 -0.00584755 0)
(1.08017 -0.00527108 0)
(1.0804 -0.0046968 0)
(1.0806 -0.00412592 0)
(1.08076 -0.00355969 0)
(1.08089 -0.00299933 0)
(1.08098 -0.0024461 0)
(1.08103 -0.00190122 0)
(1.08105 -0.00136592 0)
(1.08103 -0.000841367 0)
(1.08097 -0.000328732 0)
(1.08088 0.00017088 0)
(1.08075 0.000656411 0)
(1.08058 0.00112686 0)
(1.08037 0.00158131 0)
(1.08013 0.00201891 0)
(1.07985 0.00243889 0)
(1.07953 0.00284058 0)
(1.07918 0.00322341 0)
(1.07879 0.00358692 0)
(1.07837 0.00393076 0)
(1.07791 0.00425468 0)
(1.07743 0.00455857 0)
(1.07691 0.00484243 0)
(1.07636 0.00510637 0)
(1.07578 0.00535064 0)
(1.07517 0.0055756 0)
(1.07454 0.00578172 0)
(1.07387 0.00596958 0)
(1.07319 0.00613986 0)
(1.07247 0.00629336 0)
(1.07174 0.00643085 0)
(1.07097 0.00655339 0)
(1.07019 0.00666155 0)
(1.06938 0.00675714 0)
(1.06856 0.00683921 0)
(1.06769 0.0069126 0)
(1.06688 0.00697006 0)
(1.06585 0.00702785 0)
(1.06523 0.00705774 0)
(1.06362 0.00710915 0)
(1.06974 -0.0189732 0)
(1.07044 -0.0185452 0)
(1.07114 -0.0181029 0)
(1.07183 -0.0176463 0)
(1.07252 -0.0171757 0)
(1.07319 -0.0166912 0)
(1.07385 -0.0161932 0)
(1.0745 -0.0156819 0)
(1.07514 -0.0151577 0)
(1.07576 -0.0146211 0)
(1.07637 -0.0140727 0)
(1.07696 -0.0135129 0)
(1.07753 -0.0129424 0)
(1.07808 -0.012362 0)
(1.0786 -0.0117723 0)
(1.07911 -0.0111742 0)
(1.07959 -0.0105687 0)
(1.08005 -0.00995662 0)
(1.08048 -0.00933903 0)
(1.08088 -0.00871699 0)
(1.08125 -0.00809163 0)
(1.08159 -0.00746411 0)
(1.08191 -0.00683565 0)
(1.08219 -0.0062075 0)
(1.08243 -0.00558096 0)
(1.08264 -0.00495733 0)
(1.08282 -0.00433795 0)
(1.08296 -0.00372416 0)
(1.08307 -0.0031173 0)
(1.08313 -0.00251872 0)
(1.08317 -0.00192976 0)
(1.08316 -0.0013517 0)
(1.08311 -0.000785838 0)
(1.08303 -0.000233396 0)
(1.08291 0.000304442 0)
(1.08275 0.000826554 0)
(1.08256 0.00133189 0)
(1.08232 0.00181947 0)
(1.08205 0.00228842 0)
(1.08175 0.00273794 0)
(1.08141 0.00316734 0)
(1.08103 0.00357606 0)
(1.08062 0.00396361 0)
(1.08017 0.00432968 0)
(1.07969 0.00467403 0)
(1.07918 0.0049966 0)
(1.07864 0.00529741 0)
(1.07807 0.00557665 0)
(1.07747 0.00583463 0)
(1.07684 0.00607178 0)
(1.07619 0.00628865 0)
(1.07551 0.00648592 0)
(1.0748 0.00666436 0)
(1.07408 0.00682489 0)
(1.07332 0.00696837 0)
(1.07255 0.00709602 0)
(1.07176 0.00720846 0)
(1.07093 0.00730773 0)
(1.07011 0.00739281 0)
(1.06922 0.00746903 0)
(1.0684 0.00752853 0)
(1.06737 0.00758896 0)
(1.06674 0.00761992 0)
(1.06512 0.00767452 0)
(1.07218 -0.0204486 0)
(1.0729 -0.0199788 0)
(1.07361 -0.0194934 0)
(1.07432 -0.0189926 0)
(1.07501 -0.0184768 0)
(1.07569 -0.017946 0)
(1.07636 -0.0174007 0)
(1.07702 -0.0168413 0)
(1.07766 -0.0162681 0)
(1.07829 -0.0156817 0)
(1.0789 -0.0150827 0)
(1.07949 -0.0144717 0)
(1.08005 -0.0138495 0)
(1.0806 -0.0132169 0)
(1.08113 -0.0125746 0)
(1.08163 -0.0119238 0)
(1.0821 -0.0112652 0)
(1.08255 -0.0106001 0)
(1.08297 -0.00992953 0)
(1.08336 -0.00925466 0)
(1.08372 -0.00857674 0)
(1.08405 -0.00789706 0)
(1.08434 -0.00721695 0)
(1.0846 -0.00653778 0)
(1.08483 -0.00586095 0)
(1.08502 -0.00518789 0)
(1.08518 -0.00452004 0)
(1.0853 -0.00385885 0)
(1.08538 -0.00320578 0)
(1.08542 -0.00256226 0)
(1.08543 -0.00192972 0)
(1.08539 -0.00130955 0)
(1.08532 -0.000703103 0)
(1.08521 -0.000111694 0)
(1.08507 0.000463433 0)
(1.08488 0.0010211 0)
(1.08465 0.00156021 0)
(1.08439 0.00207974 0)
(1.08409 0.00257879 0)
(1.08376 0.00305653 0)
(1.08339 0.00351229 0)
(1.08298 0.00394548 0)
(1.08255 0.00435564 0)
(1.08207 0.00474248 0)
(1.08157 0.00510579 0)
(1.08103 0.00544555 0)
(1.08047 0.00576186 0)
(1.07988 0.00605494 0)
(1.07925 0.00632519 0)
(1.07861 0.00657311 0)
(1.07793 0.00679936 0)
(1.07724 0.00700472 0)
(1.07651 0.00719006 0)
(1.07577 0.0073564 0)
(1.075 0.00750474 0)
(1.07422 0.00763643 0)
(1.07341 0.00775218 0)
(1.07258 0.00785425 0)
(1.07174 0.00794155 0)
(1.07085 0.00801994 0)
(1.07002 0.0080809 0)
(1.06897 0.0081436 0)
(1.06834 0.00817528 0)
(1.06671 0.00823296 0)
(1.07478 -0.0219241 0)
(1.07552 -0.0214105 0)
(1.07624 -0.0208802 0)
(1.07696 -0.0203334 0)
(1.07766 -0.0197705 0)
(1.07835 -0.0191916 0)
(1.07903 -0.0185973 0)
(1.07969 -0.0179878 0)
(1.08034 -0.0173639 0)
(1.08097 -0.016726 0)
(1.08158 -0.0160748 0)
(1.08217 -0.0154111 0)
(1.08274 -0.0147357 0)
(1.08328 -0.0140494 0)
(1.0838 -0.0133533 0)
(1.0843 -0.0126483 0)
(1.08476 -0.0119356 0)
(1.0852 -0.0112164 0)
(1.08561 -0.0104919 0)
(1.08598 -0.00976338 0)
(1.08633 -0.0090322 0)
(1.08664 -0.00829977 0)
(1.08692 -0.00756755 0)
(1.08716 -0.00683702 0)
(1.08737 -0.0061097 0)
(1.08754 -0.00538713 0)
(1.08767 -0.00467087 0)
(1.08776 -0.00396247 0)
(1.08782 -0.00326348 0)
(1.08783 -0.00257545 0)
(1.08781 -0.00189989 0)
(1.08775 -0.00123827 0)
(1.08765 -0.00059203 0)
(1.08751 3.74594e-05 0)
(1.08733 0.000648891 0)
(1.08712 0.00124104 0)
(1.08686 0.00181275 0)
(1.08657 0.002363 0)
(1.08624 0.00289084 0)
(1.08588 0.00339545 0)
(1.08548 0.00387615 0)
(1.08504 0.00433235 0)
(1.08457 0.00476365 0)
(1.08407 0.00516975 0)
(1.08354 0.00555051 0)
(1.08298 0.00590595 0)
(1.08239 0.00623623 0)
(1.08178 0.00654166 0)
(1.08113 0.0068227 0)
(1.08046 0.00707997 0)
(1.07977 0.0073142 0)
(1.07905 0.00752629 0)
(1.07831 0.00771723 0)
(1.07755 0.00788816 0)
(1.07677 0.00804019 0)
(1.07597 0.00817485 0)
(1.07515 0.00829291 0)
(1.07431 0.0083969 0)
(1.07346 0.00848561 0)
(1.07255 0.00856553 0)
(1.07172 0.00862735 0)
(1.07066 0.00869194 0)
(1.07003 0.008724 0)
(1.06838 0.0087847 0)
(1.07754 -0.0234 0)
(1.07828 -0.0228406 0)
(1.07902 -0.0222633 0)
(1.07975 -0.0216686 0)
(1.08046 -0.0210565 0)
(1.08116 -0.0204276 0)
(1.08185 -0.0197823 0)
(1.08252 -0.019121 0)
(1.08317 -0.0184444 0)
(1.0838 -0.0177532 0)
(1.08441 -0.0170482 0)
(1.085 -0.01633 0)
(1.08557 -0.0155998 0)
(1.08611 -0.0148584 0)
(1.08662 -0.014107 0)
(1.08711 -0.0133467 0)
(1.08756 -0.0125786 0)
(1.08799 -0.0118042 0)
(1.08839 -0.0110248 0)
(1.08875 -0.0102418 0)
(1.08908 -0.00945661 0)
(1.08937 -0.00867084 0)
(1.08963 -0.00788605 0)
(1.08985 -0.00710383 0)
(1.09003 -0.00632583 0)
(1.09017 -0.0055537 0)
(1.09028 -0.00478911 0)
(1.09035 -0.00403371 0)
(1.09038 -0.00328916 0)
(1.09036 -0.0025571 0)
(1.09031 -0.00183911 0)
(1.09022 -0.00113677 0)
(1.09009 -0.000451561 0)
(1.08992 0.00021507 0)
(1.08971 0.000861766 0)
(1.08946 0.00148726 0)
(1.08917 0.00209037 0)
(1.08885 0.00267003 0)
(1.08849 0.00322531 0)
(1.08809 0.00375537 0)
(1.08766 0.00425954 0)
(1.08719 0.00473727 0)
(1.0867 0.00518817 0)
(1.08617 0.00561198 0)
(1.08561 0.00600863 0)
(1.08502 0.0063782 0)
(1.0844 0.0067209 0)
(1.08376 0.00703715 0)
(1.08309 0.00732749 0)
(1.0824 0.00759263 0)
(1.08169 0.00783343 0)
(1.08095 0.00805088 0)
(1.08019 0.0082461 0)
(1.07941 0.00842038 0)
(1.07862 0.00857494 0)
(1.0778 0.00871147 0)
(1.07697 0.00883083 0)
(1.07611 0.00893585 0)
(1.07526 0.00902517 0)
(1.07434 0.00910594 0)
(1.0735 0.00916805 0)
(1.07243 0.00923418 0)
(1.0718 0.00926624 0)
(1.07013 0.00932994 0)
(1.08044 -0.0248763 0)
(1.0812 -0.024269 0)
(1.08195 -0.0236427 0)
(1.08269 -0.0229978 0)
(1.08342 -0.0223346 0)
(1.08413 -0.0216535 0)
(1.08482 -0.0209551 0)
(1.08549 -0.02024 0)
(1.08615 -0.0195089 0)
(1.08678 -0.0187625 0)
(1.08739 -0.0180017 0)
(1.08798 -0.0172274 0)
(1.08854 -0.0164407 0)
(1.08908 -0.0156427 0)
(1.08958 -0.0148345 0)
(1.09006 -0.0140174 0)
(1.09051 -0.0131928 0)
(1.09092 -0.0123621 0)
(1.0913 -0.0115268 0)
(1.09164 -0.0106884 0)
(1.09195 -0.00984852 0)
(1.09223 -0.00900883 0)
(1.09246 -0.00817101 0)
(1.09266 -0.00733681 0)
(1.09282 -0.00650797 0)
(1.09293 -0.00568626 0)
(1.09301 -0.00487346 0)
(1.09305 -0.00407132 0)
(1.09305 -0.00328161 0)
(1.09301 -0.00250604 0)
(1.09292 -0.00174629 0)
(1.0928 -0.00100399 0)
(1.09263 -0.000280708 0)
(1.09243 0.000422065 0)
(1.09218 0.00110293 0)
(1.0919 0.00176057 0)
(1.09158 0.0023938 0)
(1.09122 0.00300154 0)
(1.09083 0.00358284 0)
(1.0904 0.00413689 0)
(1.08993 0.00466302 0)
(1.08943 0.00516072 0)
(1.08891 0.00562964 0)
(1.08835 0.00606958 0)
(1.08776 0.00648053 0)
(1.08714 0.00686262 0)
(1.0865 0.00721618 0)
(1.08583 0.00754169 0)
(1.08513 0.0078398 0)
(1.08442 0.00811133 0)
(1.08368 0.00835724 0)
(1.08292 0.00857868 0)
(1.08215 0.00877686 0)
(1.08135 0.00895322 0)
(1.08054 0.00910913 0)
(1.07971 0.00924644 0)
(1.07886 0.00936611 0)
(1.07799 0.00947124 0)
(1.07713 0.00956036 0)
(1.0762 0.00964135 0)
(1.07535 0.00970313 0)
(1.07427 0.00977047 0)
(1.07363 0.00980219 0)
(1.07195 0.0098689 0)
(1.08349 -0.026353 0)
(1.08427 -0.0256955 0)
(1.08503 -0.0250179 0)
(1.08578 -0.0243205 0)
(1.08652 -0.0236039 0)
(1.08724 -0.0228685 0)
(1.08794 -0.022115 0)
(1.08862 -0.0213439 0)
(1.08927 -0.0205562 0)
(1.08991 -0.0197526 0)
(1.09052 -0.0189342 0)
(1.0911 -0.018102 0)
(1.09166 -0.0172571 0)
(1.09219 -0.0164008 0)
(1.09268 -0.0155343 0)
(1.09315 -0.0146591 0)
(1.09358 -0.0137767 0)
(1.09398 -0.0128886 0)
(1.09434 -0.0119964 0)
(1.09467 -0.0111017 0)
(1.09496 -0.0102064 0)
(1.09521 -0.00931225 0)
(1.09542 -0.008421 0)
(1.09559 -0.00753454 0)
(1.09572 -0.00665474 0)
(1.09581 -0.00578348 0)
(1.09586 -0.00492264 0)
(1.09586 -0.00407408 0)
(1.09583 -0.00323965 0)
(1.09575 -0.00242116 0)
(1.09563 -0.00162036 0)
(1.09547 -0.000838955 0)
(1.09527 -7.85558e-05 0)
(1.09503 0.000659295 0)
(1.09475 0.00137316 0)
(1.09443 0.0020617 0)
(1.09408 0.00272372 0)
(1.09368 0.00335812 0)
(1.09325 0.00396397 0)
(1.09279 0.00454048 0)
(1.09229 0.00508701 0)
(1.09176 0.00560309 0)
(1.09119 0.00608842 0)
(1.0906 0.00654287 0)
(1.08998 0.00696648 0)
(1.08934 0.00735949 0)
(1.08866 0.00772229 0)
(1.08797 0.00805548 0)
(1.08725 0.00835982 0)
(1.08651 0.00863624 0)
(1.08575 0.00888582 0)
(1.08497 0.00910983 0)
(1.08417 0.00930964 0)
(1.08336 0.00948684 0)
(1.08253 0.00964291 0)
(1.08168 0.00977991 0)
(1.08082 0.00989887 0)
(1.07994 0.0100032 0)
(1.07906 0.0100913 0)
(1.07812 0.0101719 0)
(1.07727 0.0102328 0)
(1.07617 0.010301 0)
(1.07553 0.010332 0)
(1.07384 0.0104018 0)
(1.08668 -0.0278297 0)
(1.08748 -0.0271195 0)
(1.08825 -0.0263882 0)
(1.08902 -0.0256361 0)
(1.08976 -0.0248637 0)
(1.09049 -0.0240717 0)
(1.09119 -0.0232607 0)
(1.09188 -0.0224315 0)
(1.09254 -0.021585 0)
(1.09317 -0.0207223 0)
(1.09378 -0.0198443 0)
(1.09436 -0.0189522 0)
(1.09491 -0.0180474 0)
(1.09543 -0.0171312 0)
(1.09592 -0.0162049 0)
(1.09637 -0.0152702 0)
(1.09679 -0.0143287 0)
(1.09717 -0.013382 0)
(1.09751 -0.0124319 0)
(1.09782 -0.0114802 0)
(1.09808 -0.0105288 0)
(1.09831 -0.00957961 0)
(1.09849 -0.00863455 0)
(1.09863 -0.0076956 0)
(1.09873 -0.00676477 0)
(1.09879 -0.00584404 0)
(1.09881 -0.00493539 0)
(1.09878 -0.00404079 0)
(1.09871 -0.00316218 0)
(1.0986 -0.00230142 0)
(1.09844 -0.00146036 0)
(1.09825 -0.000640753 0)
(1.09801 0.000155738 0)
(1.09773 0.000927534 0)
(1.09741 0.00167317 0)
(1.09705 0.00239129 0)
(1.09666 0.00308069 0)
(1.09622 0.00374029 0)
(1.09576 0.00436917 0)
(1.09525 0.00496657 0)
(1.09472 0.00553189 0)
(1.09415 0.00606471 0)
(1.09356 0.00656479 0)
(1.09293 0.00703208 0)
(1.09228 0.0074667 0)
(1.0916 0.00786897 0)
(1.0909 0.00823941 0)
(1.09017 0.00857869 0)
(1.08943 0.0088877 0)
(1.08866 0.00916749 0)
(1.08788 0.00941928 0)
(1.08708 0.00964448 0)
(1.08626 0.00984459 0)
(1.08543 0.0100214 0)
(1.08458 0.0101764 0)
(1.08372 0.010312 0)
(1.08285 0.0104293 0)
(1.08195 0.010532 0)
(1.08106 0.0106183 0)
(1.08011 0.0106978 0)
(1.07925 0.0107572 0)
(1.07814 0.0108261 0)
(1.0775 0.010856 0)
(1.07578 0.0109291 0)
(1.09002 -0.0293057 0)
(1.09083 -0.0285405 0)
(1.09162 -0.0277529 0)
(1.09239 -0.0269435 0)
(1.09315 -0.0261129 0)
(1.09388 -0.0252618 0)
(1.09459 -0.024391 0)
(1.09528 -0.0235014 0)
(1.09594 -0.0225941 0)
(1.09657 -0.02167 0)
(1.09718 -0.0207304 0)
(1.09775 -0.0197766 0)
(1.09829 -0.01881 0)
(1.0988 -0.0178322 0)
(1.09928 -0.0168446 0)
(1.09971 -0.015849 0)
(1.10011 -0.0148471 0)
(1.10048 -0.0138407 0)
(1.1008 -0.0128318 0)
(1.10108 -0.0118222 0)
(1.10132 -0.0108141 0)
(1.10152 -0.00980935 0)
(1.10167 -0.00881015 0)
(1.10179 -0.00781857 0)
(1.10185 -0.00683669 0)
(1.10188 -0.00586664 0)
(1.10186 -0.0049105 0)
(1.10179 -0.00397031 0)
(1.10169 -0.0030481 0)
(1.10154 -0.00214582 0)
(1.10134 -0.00126536 0)
(1.10111 -0.000408537 0)
(1.10083 0.000422945 0)
(1.10051 0.00122748 0)