/*--------------------------------*- C++ -*----------------------------------*\
  =========                 |
  \\      /  F ield         | OpenFOAM: The Open Source CFD Toolbox
   \\    /   O peration     | Website:  https://openfoam.org
    \\  /    A nd           | Version:  7
     \\/     M anipulation  |
\*---------------------------------------------------------------------------*/
FoamFile
{
    version     2.0;
    format      ascii;
    class       volScalarField;
    location    "4.8";
    object      p;
}
// * * * * * * * * * * * * * * * * * * * * * * * * * * * * * * * * * * * * * //

dimensions      [0 2 -2 0 0 0 0];

internalField   nonuniform List<scalar> 
344
(
0.461
0.285898
0.125475
-0.0186504
-0.145728
0.453518
0.277702
0.116934
-0.0272081
-0.154036
0.259405
0.0979459
-0.0461618
-0.172377
0.230911
0.0685228
-0.0753959
-0.200547
0.191394
0.0280073
-0.115388
-0.238853
-0.25489
-0.347187
-0.424398
-0.487728
-0.538534
-0.578222
-0.60817
-0.62967
-0.643898
-0.651907
-0.654632
-0.652869
-0.647328
-0.638624
-0.627281
-0.61375
-0.598414
-0.581605
-0.563608
-0.544668
-0.524994
-0.504767
-0.484141
-0.463251
-0.442211
-0.421119
-0.400059
-0.379102
-0.35831
-0.337735
-0.31742
-0.297403
-0.277714
-0.258378
-0.239415
-0.220843
-0.202675
-0.184919
-0.167584
-0.150675
-0.134194
-0.118142
-0.102519
-0.087324
-0.0725536
-0.0582042
-0.0442714
-0.03075
-0.0176342
-0.00491789
0.00740549
0.0193428
0.0309012
0.042088
0.0529105
0.0633763
0.0734929
0.0832679
0.0927088
0.101823
0.110619
0.119102
0.127282
0.135164
0.142756
-0.262752
-0.354468
-0.431014
-0.493645
-0.543754
-0.582778
-0.612113
-0.633058
-0.646794
-0.654373
-0.656723
-0.654637
-0.648818
-0.639875
-0.628328
-0.614621
-0.599135
-0.582198
-0.564091
-0.545056
-0.5253
-0.505003
-0.484317
-0.463375
-0.44229
-0.421159
-0.400066
-0.379081
-0.358265
-0.33767
-0.317338
-0.297306
-0.277604
-0.258258
-0.239287
-0.220709
-0.202535
-0.184775
-0.167437
-0.150526
-0.134043
-0.117991
-0.102368
-0.0871738
-0.0724044
-0.0580564
-0.0441253
-0.0306058
-0.0174923
-0.0047784
0.00754241
0.019477
0.0310326
0.0422165
0.0530361
0.0634989
0.0736125
0.0833844
0.0928224
0.101934
0.110726
0.119207
0.127383
0.135263
0.142852
-0.280053
-0.370446
-0.445497
-0.506564
-0.555127
-0.592685
-0.620673
-0.640407
-0.653072
-0.659714
-0.661248
-0.658459
-0.652036
-0.642576
-0.630587
-0.616501
-0.60069
-0.583474
-0.565128
-0.545887
-0.525955
-0.505505
-0.484689
-0.463634
-0.442452
-0.421237
-0.400072
-0.379026
-0.358158
-0.337517
-0.317148
-0.297084
-0.277355
-0.257987
-0.238998
-0.220405
-0.202219
-0.184451
-0.167106
-0.15019
-0.133704
-0.117651
-0.102028
-0.0868347
-0.0720675
-0.0577225
-0.0437951
-0.0302799
-0.0171712
-0.0044626
0.00785258
0.0197813
0.0313307
0.0425083
0.0533214
0.0637776
0.0738846
0.0836499
0.0930811
0.102186
0.110972
0.119446
0.127616
0.135489
0.143071
-0.306522
-0.394798
-0.467487
-0.526108
-0.572276
-0.607583
-0.633515
-0.651413
-0.662461
-0.667694
-0.668001
-0.664155
-0.656831
-0.6466
-0.63395
-0.619299
-0.603004
-0.585373
-0.56667
-0.547122
-0.526926
-0.50625
-0.485237
-0.464014
-0.442687
-0.421348
-0.400076
-0.378938
-0.357992
-0.337285
-0.316859
-0.296748
-0.27698
-0.257578
-0.238563
-0.219947
-0.201745
-0.183963
-0.166609
-0.149686
-0.133197
-0.117141
-0.101519
-0.0863273
-0.0715635
-0.0572231
-0.0433014
-0.0297929
-0.0166916
-0.00399104
0.00831558
0.0202353
0.0317754
0.0429434
0.0537467
0.0641931
0.07429
0.0840453
0.0934665
0.102561
0.111337
0.119801
0.127962
0.135825
0.143398
-0.342311
-0.427542
-0.496891
-0.552105
-0.594977
-0.627221
-0.650385
-0.665827
-0.674727
-0.678102
-0.676798
-0.67157
-0.663066
-0.651829
-0.638319
-0.622932
-0.606006
-0.587835
-0.568667
-0.548721
-0.528182
-0.507209
-0.485942
-0.4645
-0.442985
-0.421484
-0.400073
-0.378816
-0.357768
-0.336975
-0.316476
-0.296303
-0.276484
-0.25704
-0.23799
-0.219347
-0.201123
-0.183324
-0.165958
-0.149027
-0.132533
-0.116476
-0.100854
-0.0856654
-0.0709063
-0.0565724
-0.0426585
-0.029159
-0.0160676
-0.00337776
0.00891747
0.0208253
0.032353
0.0435083
0.0542988
0.064732
0.0748158
0.0845579
0.093966
0.103048
0.11181
0.120262
)
;

boundaryField
{
    inlet
    {
        type            zeroGradient;
    }
    outlet
    {
        type            fixedValue;
        value           nonuniform 0();
    }
    wall
    {
        type            zeroGradient;
    }
    wedge1
    {
        type            wedge;
    }
    wedge2
    {
        type            wedge;
    }
    axis
    {
        type            empty;
    }
    procBoundary3to2
    {
        type            processor;
        value           nonuniform List<scalar> 5(0.648221 0.641817 0.436747 0.436747 0.410505);
    }
    procBoundary3to4
    {
        type            processor;
        value           nonuniform List<scalar> 4(0.150065 0.150158 0.150371 0.150689);
    }
    procBoundary3to8
    {
        type            processor;
        value           uniform 0.373863;
    }
    procBoundary3to9
    {
        type            processor;
        value           nonuniform List<scalar> 
70
(
0.139614
-0.0245724
-0.166846
-0.287758
0.128409
0.13626
0.143821
-0.387663
-0.468728
-0.533604
-0.584331
-0.622936
-0.651276
-0.67096
-0.683346
-0.689582
-0.690676
-0.687408
-0.680505
-0.670575
-0.658123
-0.643575
-0.6273
-0.609614
-0.590791
-0.571064
-0.550637
-0.529683
-0.508355
-0.486781
-0.465074
-0.443332
-0.421636
-0.400058
-0.378658
-0.357488
-0.336591
-0.316005
-0.295759
-0.275879
-0.256385
-0.237294
-0.218618
-0.200368
-0.182551
-0.16517
-0.14823
-0.131731
-0.115672
-0.100052
-0.0848674
-0.0701147
-0.055789
-0.041885
-0.0283967
-0.0153177
-0.00264116
0.00964
0.0215331
0.0330457
0.0441855
0.0549602
0.0653775
0.0754453
0.0851713
0.0945633
0.103629
0.112376
0.128409
0.120812
)
;
    }
}


// ************************************************************************* //
