0.104021 	0.49633 	2.0618e-19 	0.0992236 	-0.00141367 	5.35618e-17
