/*--------------------------------*- C++ -*----------------------------------*\
  =========                 |
  \\      /  F ield         | OpenFOAM: The Open Source CFD Toolbox
   \\    /   O peration     | Website:  https://openfoam.org
    \\  /    A nd           | Version:  7
     \\/     M anipulation  |
\*---------------------------------------------------------------------------*/
FoamFile
{
    version     2.0;
    format      ascii;
    class       volScalarField;
    location    "28";
    object      p;
}
// * * * * * * * * * * * * * * * * * * * * * * * * * * * * * * * * * * * * * //

dimensions      [0 2 -2 0 0 0 0];

internalField   nonuniform List<scalar> 
5600
(
-0.254717
-0.262552
-0.258768
-0.253057
-0.243809
-0.232291
-0.219078
-0.204025
-0.18995
-0.172107
-0.255568
-0.263129
-0.259268
-0.253463
-0.244161
-0.232594
-0.219345
-0.204203
-0.190186
-0.171831
-0.257261
-0.264276
-0.26026
-0.254268
-0.244857
-0.233194
-0.219879
-0.204566
-0.190642
-0.171281
-0.259779
-0.265983
-0.261734
-0.255461
-0.245886
-0.234078
-0.220673
-0.205098
-0.191309
-0.170464
-0.263097
-0.268231
-0.263671
-0.257024
-0.247229
-0.235227
-0.221666
-0.205804
-0.192187
-0.169394
-0.267185
-0.271
-0.266051
-0.258935
-0.248864
-0.236619
-0.222878
-0.206633
-0.193253
-0.168091
-0.272005
-0.274263
-0.268847
-0.261169
-0.250763
-0.238226
-0.224277
-0.207568
-0.194484
-0.16658
-0.277515
-0.277993
-0.272031
-0.2637
-0.252901
-0.240021
-0.225832
-0.208591
-0.195848
-0.164896
-0.283672
-0.282159
-0.275575
-0.266498
-0.255247
-0.241975
-0.227513
-0.209683
-0.19731
-0.163083
-0.290431
-0.286728
-0.279449
-0.269538
-0.257776
-0.244062
-0.229292
-0.210827
-0.198826
-0.161193
-0.297753
-0.291665
-0.283625
-0.272794
-0.260463
-0.246258
-0.23114
-0.212011
-0.200346
-0.159293
-0.305567
-0.296959
-0.288076
-0.276243
-0.263285
-0.248542
-0.233031
-0.213227
-0.201811
-0.157453
-0.313849
-0.302567
-0.292778
-0.279866
-0.266224
-0.250899
-0.234942
-0.214472
-0.203155
-0.155751
-0.322554
-0.308463
-0.297712
-0.283649
-0.269269
-0.253317
-0.236851
-0.215749
-0.204306
-0.154267
-0.331642
-0.314623
-0.302857
-0.287579
-0.272408
-0.255786
-0.23874
-0.217062
-0.205191
-0.153097
-0.341074
-0.321026
-0.308201
-0.291648
-0.275636
-0.258301
-0.240593
-0.218415
-0.205729
-0.15233
-0.350812
-0.327649
-0.313728
-0.295851
-0.278949
-0.260856
-0.242398
-0.219812
-0.205802
-0.151907
-0.360822
-0.334473
-0.319428
-0.300181
-0.282343
-0.263444
-0.244148
-0.221267
-0.20523
-0.151596
-0.371065
-0.341475
-0.325288
-0.304634
-0.285812
-0.266052
-0.245848
-0.222791
-0.203984
-0.152493
-0.381502
-0.348633
-0.331293
-0.309199
-0.289344
-0.268658
-0.247486
-0.224319
-0.202656
-0.159916
-0.392091
-0.355922
-0.337426
-0.313864
-0.292922
-0.271231
-0.249016
-0.225624
-0.201939
-0.178237
-0.402784
-0.363313
-0.343665
-0.318607
-0.296517
-0.273724
-0.250376
-0.226511
-0.200827
-0.182758
-0.413526
-0.37077
-0.34998
-0.3234
-0.300092
-0.276084
-0.251496
-0.226843
-0.199404
-0.182681
-0.424253
-0.378253
-0.356334
-0.328202
-0.303596
-0.278249
-0.252308
-0.226584
-0.197689
-0.180803
-0.434894
-0.385711
-0.362678
-0.332963
-0.306966
-0.280145
-0.252732
-0.225712
-0.195543
-0.177534
-0.445364
-0.393085
-0.368954
-0.337617
-0.310127
-0.281692
-0.252686
-0.224195
-0.19286
-0.1732
-0.45557
-0.400306
-0.37509
-0.342089
-0.31299
-0.282799
-0.252086
-0.221999
-0.189575
-0.168075
-0.465404
-0.407294
-0.381003
-0.346286
-0.315458
-0.283372
-0.250849
-0.219092
-0.185643
-0.16232
-0.474749
-0.413959
-0.386595
-0.350105
-0.317419
-0.28331
-0.248897
-0.21544
-0.181035
-0.156021
-0.483474
-0.420196
-0.391757
-0.353431
-0.31876
-0.282513
-0.246154
-0.211013
-0.175726
-0.149213
-0.491439
-0.425893
-0.396368
-0.35614
-0.319357
-0.280882
-0.242553
-0.205781
-0.169703
-0.141905
-0.498493
-0.430925
-0.400294
-0.358096
-0.319088
-0.278321
-0.238033
-0.199721
-0.162956
-0.134089
-0.504476
-0.435159
-0.403395
-0.359163
-0.317831
-0.274739
-0.232542
-0.19281
-0.155479
-0.125752
-0.509224
-0.438451
-0.405521
-0.359196
-0.315464
-0.270055
-0.226034
-0.185034
-0.14727
-0.116881
-0.512564
-0.440653
-0.406517
-0.358055
-0.311876
-0.264196
-0.218475
-0.176381
-0.13833
-0.107463
-0.514324
-0.44161
-0.406226
-0.355599
-0.306961
-0.257098
-0.209837
-0.166844
-0.12866
-0.097488
-0.514329
-0.441166
-0.404493
-0.351694
-0.300624
-0.248712
-0.200102
-0.15642
-0.118266
-0.0869522
-0.51241
-0.439163
-0.401163
-0.346216
-0.292783
-0.238997
-0.189258
-0.145112
-0.107154
-0.0758546
-0.5084
-0.435447
-0.39609
-0.339051
-0.28337
-0.227924
-0.177302
-0.132927
-0.0953346
-0.0641988
-0.502142
-0.429868
-0.389135
-0.330097
-0.27233
-0.215478
-0.164239
-0.119874
-0.0828187
-0.0519925
-0.493489
-0.422284
-0.380175
-0.319271
-0.259626
-0.201652
-0.150079
-0.105969
-0.0696215
-0.0392478
-0.482308
-0.412565
-0.369099
-0.306505
-0.245233
-0.186454
-0.13484
-0.0912298
-0.0557605
-0.025981
-0.468482
-0.400593
-0.355816
-0.29175
-0.229146
-0.169899
-0.118547
-0.0756807
-0.041256
-0.0122091
-0.451914
-0.386268
-0.340251
-0.274977
-0.211372
-0.152014
-0.101231
-0.0593493
-0.0261308
0.00206028
-0.432528
-0.369509
-0.322356
-0.256178
-0.191934
-0.132837
-0.0829289
-0.0422678
-0.010414
0.0168265
-0.41027
-0.350255
-0.302103
-0.235364
-0.170872
-0.112414
-0.0636833
-0.0244695
0.00585613
0.032035
-0.385113
-0.328467
-0.279488
-0.212565
-0.148237
-0.0907993
-0.0435424
-0.00599183
0.0226572
0.0475782
-0.357056
-0.304135
-0.254533
-0.187834
-0.124096
-0.068058
-0.0225629
0.0130902
0.039969
0.0634777
-0.326126
-0.277272
-0.227284
-0.16124
-0.098528
-0.0442625
-0.000812688
0.0327527
0.0577256
0.0797037
-0.292377
-0.247917
-0.197811
-0.132874
-0.0716242
-0.0194956
0.0216477
0.052937
0.0758809
0.0962128
-0.255893
-0.216137
-0.166212
-0.102841
-0.0434865
0.00615619
0.0447437
0.0735826
0.0943873
0.112957
-0.216787
-0.182031
-0.132617
-0.0712532
-0.014227
0.0325976
0.0683965
0.0946254
0.113193
0.129884
-0.175202
-0.145721
-0.097171
-0.0382366
0.0160305
0.0597264
0.0925225
0.115997
0.132242
0.146933
-0.131307
-0.107361
-0.0599433
-0.00401689
0.0471536
0.0874349
0.117033
0.137626
0.151475
0.164037
-0.0852858
-0.0671266
-0.0212015
0.0313054
0.0790039
0.11561
0.141836
0.159435
0.17083
0.181121
-0.0373409
-0.0252106
0.0188437
0.0675513
0.111435
0.144132
0.166834
0.181348
0.190247
0.198104
0.0121988
0.0182107
0.0600061
0.104532
0.144295
0.172881
0.191926
0.203286
0.209677
0.21486
0.0631173
0.062865
0.102061
0.142055
0.177427
0.20173
0.21701
0.225181
0.229063
0.231142
0.115138
0.108491
0.144769
0.179921
0.210672
0.230551
0.241984
0.246961
0.248285
0.246645
0.167953
0.154822
0.187886
0.217927
0.243865
0.259213
0.266747
0.26854
0.267095
0.261263
0.221243
0.201576
0.231158
0.255864
0.276842
0.287585
0.291199
0.289795
0.285171
0.275772
0.274679
0.24846
0.274327
0.293526
0.309438
0.315537
0.315231
0.310619
0.303192
0.291753
0.327924
0.295176
0.317133
0.330701
0.341486
0.342938
0.338734
0.330904
0.320758
0.307512
0.380634
0.341418
0.359314
0.367182
0.372823
0.369658
0.361602
0.350575
0.337746
0.322744
0.432466
0.386882
0.400612
0.402763
0.403288
0.395569
0.383733
0.369562
0.354115
0.337358
0.483074
0.431265
0.44077
0.437242
0.432723
0.420548
0.405028
0.387791
0.369813
0.351306
0.532119
0.474267
0.479538
0.470423
0.460974
0.444474
0.42539
0.405188
0.384781
0.364548
0.579266
0.515595
0.516673
0.502116
0.487894
0.467231
0.444726
0.421682
0.398959
0.377041
0.624192
0.554965
0.551941
0.532137
0.51334
0.488708
0.46295
0.437203
0.412291
0.388744
0.666585
0.592105
0.585119
0.560315
0.537177
0.508799
0.479976
0.451687
0.424725
0.399619
0.70615
0.626758
0.615998
0.586485
0.559279
0.527403
0.495726
0.465071
0.436208
0.409633
0.742608
0.658681
0.644381
0.610496
0.579527
0.544428
0.510125
0.477296
0.446693
0.41875
0.775701
0.687651
0.670086
0.632208
0.597812
0.559787
0.523106
0.488308
0.456134
0.426941
0.805196
0.713464
0.692951
0.651493
0.614036
0.573404
0.534605
0.498057
0.464491
0.434176
0.830882
0.735939
0.712829
0.668239
0.62811
0.585209
0.544568
0.5065
0.471726
0.440429
0.852575
0.754916
0.729593
0.682347
0.639958
0.59514
0.552946
0.513596
0.477806
0.445677
0.870119
0.770262
0.743134
0.693734
0.649515
0.603148
0.559698
0.519313
0.482705
0.4499
0.883389
0.781868
0.753368
0.702334
0.656729
0.609191
0.564792
0.523625
0.486398
0.453082
0.892289
0.789651
0.760226
0.708096
0.661561
0.613236
0.568202
0.526511
0.488871
0.45521
0.896756
0.793557
0.763667
0.710985
0.663983
0.615264
0.569911
0.527958
0.49011
0.456276
0.896756
0.793557
0.763667
0.710985
0.663983
0.615264
0.569911
0.527958
0.49011
0.456276
0.892289
0.789651
0.760226
0.708096
0.661561
0.613236
0.568202
0.526511
0.488871
0.45521
0.883389
0.781868
0.753368
0.702334
0.656729
0.609191
0.564792
0.523625
0.486398
0.453082
0.870119
0.770262
0.743134
0.693734
0.649515
0.603148
0.559698
0.519313
0.482705
0.4499
0.852575
0.754916
0.729593
0.682347
0.639958
0.59514
0.552946
0.513596
0.477806
0.445677
0.830882
0.735939
0.712829
0.668239
0.62811
0.585209
0.544568
0.5065
0.471726
0.440429
0.805196
0.713464
0.692951
0.651493
0.614036
0.573404
0.534605
0.498057
0.464491
0.434176
0.775701
0.687651
0.670086
0.632208
0.597812
0.559787
0.523106
0.488308
0.456134
0.426941
0.742608
0.658681
0.644381
0.610496
0.579527
0.544428
0.510125
0.477296
0.446693
0.41875
0.70615
0.626758
0.615998
0.586485
0.559279
0.527403
0.495726
0.465071
0.436208
0.409633
0.666585
0.592105
0.585119
0.560315
0.537177
0.508799
0.479976
0.451687
0.424725
0.399619
0.624192
0.554965
0.551941
0.532137
0.51334
0.488708
0.46295
0.437203
0.412291
0.388744
0.579266
0.515595
0.516673
0.502116
0.487894
0.467231
0.444726
0.421682
0.398959
0.377041
0.532119
0.474267
0.479538
0.470423
0.460974
0.444474
0.42539
0.405188
0.384781
0.364548
0.483074
0.431265
0.44077
0.437242
0.432723
0.420548
0.405028
0.387791
0.369813
0.351306
0.432466
0.386882
0.400612
0.402763
0.403288
0.395569
0.383733
0.369562
0.354115
0.337358
0.380634
0.341418
0.359314
0.367182
0.372823
0.369658
0.361602
0.350575
0.337746
0.322744
0.327924
0.295176
0.317133
0.330701
0.341486
0.342938
0.338734
0.330904
0.320758
0.307512
0.274679
0.24846
0.274327
0.293526
0.309438
0.315537
0.315231
0.310619
0.303192
0.291753
0.221243
0.201576
0.231158
0.255864
0.276842
0.287585
0.291199
0.289795
0.285171
0.275772
0.167953
0.154822
0.187886
0.217927
0.243865
0.259213
0.266747
0.26854
0.267095
0.261263
0.115138
0.108491
0.144769
0.179921
0.210672
0.230551
0.241984
0.246961
0.248285
0.246645
0.0631173
0.062865
0.102061
0.142055
0.177427
0.20173
0.21701
0.225181
0.229063
0.231142
0.0121988
0.0182107
0.0600061
0.104532
0.144295
0.172881
0.191926
0.203286
0.209677
0.21486
-0.0373409
-0.0252106
0.0188437
0.0675513
0.111435
0.144132
0.166834
0.181348
0.190247
0.198104
-0.0852858
-0.0671266
-0.0212015
0.0313054
0.0790039
0.11561
0.141836
0.159435
0.17083
0.181121
-0.131307
-0.107361
-0.0599433
-0.00401689
0.0471536
0.0874349
0.117033
0.137626
0.151475
0.164037
-0.175202
-0.145721
-0.097171
-0.0382365
0.0160305
0.0597264
0.0925225
0.115997
0.132242
0.146933
-0.216787
-0.182031
-0.132617
-0.0712532
-0.014227
0.0325976
0.0683965
0.0946254
0.113193
0.129884
-0.255893
-0.216137
-0.166212
-0.102841
-0.0434865
0.0061562
0.0447437
0.0735826
0.0943873
0.112957
-0.292377
-0.247917
-0.197811
-0.132874
-0.0716242
-0.0194956
0.0216477
0.052937
0.0758809
0.0962128
-0.326126
-0.277272
-0.227284
-0.16124
-0.0985279
-0.0442625
-0.000812684
0.0327527
0.0577256
0.0797037
-0.357056
-0.304135
-0.254533
-0.187834
-0.124096
-0.068058
-0.0225629
0.0130902
0.039969
0.0634777
-0.385113
-0.328467
-0.279488
-0.212565
-0.148237
-0.0907993
-0.0435424
-0.00599183
0.0226572
0.0475782
-0.41027
-0.350254
-0.302103
-0.235364
-0.170872
-0.112414
-0.0636833
-0.0244695
0.00585614
0.032035
-0.432528
-0.369509
-0.322356
-0.256178
-0.191934
-0.132837
-0.0829289
-0.0422678
-0.010414
0.0168265
-0.451914
-0.386268
-0.340251
-0.274977
-0.211372
-0.152014
-0.101231
-0.0593493
-0.0261308
0.00206028
-0.468482
-0.400593
-0.355815
-0.29175
-0.229146
-0.169899
-0.118547
-0.0756807
-0.041256
-0.0122091
-0.482308
-0.412565
-0.369099
-0.306505
-0.245233
-0.186454
-0.13484
-0.0912298
-0.0557605
-0.025981
-0.493489
-0.422284
-0.380175
-0.319271
-0.259626
-0.201652
-0.150079
-0.105969
-0.0696215
-0.0392478
-0.502142
-0.429868
-0.389135
-0.330097
-0.27233
-0.215478
-0.164239
-0.119874
-0.0828187
-0.0519925
-0.5084
-0.435447
-0.39609
-0.339051
-0.28337
-0.227924
-0.177302
-0.132927
-0.0953346
-0.0641988
-0.51241
-0.439163
-0.401163
-0.346216
-0.292783
-0.238997
-0.189258
-0.145112
-0.107154
-0.0758546
-0.514329
-0.441166
-0.404493
-0.351694
-0.300624
-0.248712
-0.200102
-0.15642
-0.118266
-0.0869522
-0.514324
-0.44161
-0.406226
-0.355599
-0.306961
-0.257098
-0.209837
-0.166844
-0.12866
-0.097488
-0.512564
-0.440653
-0.406517
-0.358055
-0.311876
-0.264196
-0.218475
-0.176381
-0.13833
-0.107463
-0.509224
-0.438451
-0.405521
-0.359196
-0.315464
-0.270055
-0.226034
-0.185034
-0.14727
-0.116881
-0.504476
-0.435159
-0.403395
-0.359163
-0.317831
-0.274739
-0.232542
-0.19281
-0.155479
-0.125752
-0.498493
-0.430925
-0.400294
-0.358096
-0.319088
-0.278321
-0.238033
-0.199721
-0.162956
-0.134089
-0.491439
-0.425893
-0.396368
-0.35614
-0.319357
-0.280882
-0.242553
-0.205781
-0.169703
-0.141905
-0.483474
-0.420196
-0.391757
-0.353431
-0.31876
-0.282513
-0.246154
-0.211013
-0.175726
-0.149213
-0.474749
-0.413959
-0.386595
-0.350105
-0.317419
-0.28331
-0.248897
-0.21544
-0.181035
-0.156021
-0.465404
-0.407294
-0.381003
-0.346286
-0.315458
-0.283372
-0.250849
-0.219092
-0.185643
-0.16232
-0.45557
-0.400306
-0.37509
-0.342089
-0.31299
-0.282799
-0.252086
-0.221999
-0.189575
-0.168075
-0.445364
-0.393085
-0.368954
-0.337617
-0.310127
-0.281692
-0.252686
-0.224195
-0.19286
-0.1732
-0.434894
-0.385711
-0.362678
-0.332963
-0.306966
-0.280145
-0.252732
-0.225712
-0.195543
-0.177534
-0.424253
-0.378253
-0.356334
-0.328202
-0.303596
-0.278249
-0.252308
-0.226584
-0.197689
-0.180803
-0.413526
-0.37077
-0.34998
-0.3234
-0.300092
-0.276084
-0.251496
-0.226843
-0.199404
-0.182681
-0.402784
-0.363313
-0.343665
-0.318607
-0.296517
-0.273724
-0.250376
-0.226511
-0.200827
-0.182758
-0.392091
-0.355922
-0.337426
-0.313864
-0.292922
-0.271231
-0.249016
-0.225624
-0.201939
-0.178237
-0.381502
-0.348633
-0.331293
-0.309199
-0.289344
-0.268658
-0.247486
-0.224319
-0.202656
-0.159916
-0.371065
-0.341475
-0.325288
-0.304634
-0.285812
-0.266052
-0.245848
-0.222791
-0.203984
-0.152493
-0.360822
-0.334473
-0.319428
-0.300181
-0.282343
-0.263444
-0.244148
-0.221267
-0.20523
-0.151596
-0.350812
-0.327649
-0.313728
-0.295851
-0.278949
-0.260856
-0.242398
-0.219812
-0.205802
-0.151907
-0.341074
-0.321026
-0.308201
-0.291648
-0.275636
-0.258301
-0.240593
-0.218415
-0.205729
-0.15233
-0.331642
-0.314623
-0.302857
-0.287579
-0.272408
-0.255786
-0.23874
-0.217062
-0.205191
-0.153097
-0.322554
-0.308463
-0.297712
-0.283649
-0.269269
-0.253317
-0.236851
-0.215749
-0.204306
-0.154267
-0.313849
-0.302567
-0.292778
-0.279866
-0.266224
-0.250899
-0.234942
-0.214472
-0.203155
-0.155751
-0.305567
-0.296959
-0.288076
-0.276243
-0.263285
-0.248542
-0.233031
-0.213227
-0.201811
-0.157453
-0.297753
-0.291665
-0.283625
-0.272794
-0.260463
-0.246258
-0.23114
-0.212011
-0.200346
-0.159293
-0.290431
-0.286728
-0.279449
-0.269538
-0.257776
-0.244062
-0.229292
-0.210827
-0.198826
-0.161193
-0.283672
-0.282159
-0.275575
-0.266498
-0.255247
-0.241975
-0.227514
-0.209683
-0.19731
-0.163083
-0.277515
-0.277993
-0.272031
-0.2637
-0.252901
-0.240021
-0.225832
-0.208591
-0.195848
-0.164896
-0.272005
-0.274263
-0.268847
-0.261169
-0.250763
-0.238226
-0.224277
-0.207568
-0.194484
-0.16658
-0.267185
-0.271
-0.266051
-0.258935
-0.248864
-0.236619
-0.222878
-0.206633
-0.193253
-0.168091
-0.263097
-0.268231
-0.263671
-0.257024
-0.247229
-0.235227
-0.221666
-0.205804
-0.192187
-0.169394
-0.259779
-0.265983
-0.261734
-0.255461
-0.245886
-0.234078
-0.220673
-0.205098
-0.191309
-0.170464
-0.257261
-0.264276
-0.26026
-0.254268
-0.244857
-0.233194
-0.219879
-0.204566
-0.190642
-0.171281
-0.255568
-0.263129
-0.259268
-0.253463
-0.244161
-0.232594
-0.219345
-0.204203
-0.190186
-0.171831
-0.254717
-0.262552
-0.258768
-0.253057
-0.243809
-0.232291
-0.219078
-0.204025
-0.18995
-0.172107
-0.164795
-0.159566
-0.153605
-0.147267
-0.140498
-0.13326
-0.12556
-0.117404
-0.1088
-0.0997686
-0.0903409
-0.0805622
-0.0705074
-0.0602046
-0.0499431
-0.0391919
-0.0299324
-0.0172459
-0.0137352
0.0098373
-0.165222
-0.159962
-0.153901
-0.147521
-0.140726
-0.133464
-0.125744
-0.11757
-0.108951
-0.0999044
-0.0904622
-0.0806693
-0.0706007
-0.0602844
-0.05001
-0.039248
-0.0299714
-0.0172946
-0.013724
0.00972476
-0.166067
-0.16075
-0.154489
-0.148026
-0.141179
-0.133868
-0.126108
-0.1179
-0.109249
-0.100172
-0.0907014
-0.0808804
-0.0707846
-0.0604417
-0.0501418
-0.0393588
-0.0300486
-0.0173913
-0.0137021
0.00950141
-0.167316
-0.16192
-0.155361
-0.148774
-0.14185
-0.134466
-0.126644
-0.118384
-0.109686
-0.100565
-0.0910518
-0.0811895
-0.071054
-0.0606723
-0.0503352
-0.0395219
-0.0301621
-0.0175346
-0.0136713
0.00917071
-0.168943
-0.163456
-0.156505
-0.149753
-0.142726
-0.135245
-0.127341
-0.119012
-0.110252
-0.101072
-0.0915035
-0.0815879
-0.0714012
-0.0609698
-0.050585
-0.0397336
-0.0303095
-0.0177225
-0.0136336
0.00873775
-0.17091
-0.165332
-0.157902
-0.150947
-0.143793
-0.13619
-0.128184
-0.119769
-0.110931
-0.10168
-0.0920441
-0.0820643
-0.0718168
-0.0613265
-0.0508849
-0.0399892
-0.0304875
-0.0179521
-0.0135914
0.00820925
-0.173169
-0.167515
-0.159527
-0.152334
-0.145031
-0.137283
-0.129153
-0.120635
-0.111706
-0.102372
-0.0926585
-0.0826057
-0.0722893
-0.061733
-0.0512274
-0.0402835
-0.0306925
-0.0182203
-0.0135473
0.0075934
-0.175663
-0.169955
-0.161346
-0.153886
-0.146415
-0.138498
-0.130227
-0.12159
-0.112556
-0.103129
-0.0933299
-0.0831973
-0.0728064
-0.0621794
-0.0516046
-0.0406105
-0.0309207
-0.0185234
-0.0135042
0.00689979
-0.178317
-0.17259
-0.163316
-0.155569
-0.147913
-0.139809
-0.131378
-0.122609
-0.11346
-0.10393
-0.0940399
-0.0838234
-0.0733549
-0.062655
-0.052008
-0.040964
-0.0311679
-0.0188574
-0.0134646
0.00613924
-0.181044
-0.17534
-0.165381
-0.15734
-0.149489
-0.141181
-0.132576
-0.123663
-0.114391
-0.104754
-0.0947694
-0.0844677
-0.0739211
-0.0631488
-0.052429
-0.0413379
-0.0314302
-0.0192181
-0.0134309
0.0053236
-0.183741
-0.178107
-0.167477
-0.159149
-0.151098
-0.142576
-0.133788
-0.124724
-0.115323
-0.105577
-0.0954986
-0.0851137
-0.0744916
-0.0636503
-0.0528595
-0.041726
-0.0317038
-0.0196009
-0.0134051
0.00446554
-0.186299
-0.180779
-0.169526
-0.160934
-0.152686
-0.143947
-0.134974
-0.125757
-0.116229
-0.106377
-0.0962083
-0.0857455
-0.0750536
-0.0641494
-0.0532914
-0.0421223
-0.0319851
-0.0200013
-0.0133891
0.00357825
-0.188601
-0.183228
-0.171436
-0.162624
-0.154192
-0.145244
-0.136093
-0.12673
-0.11708
-0.107129
-0.0968801
-0.0863484
-0.0755952
-0.0646367
-0.0537177
-0.0425214
-0.0322709
-0.020415
-0.0133841
0.0026751
-0.19053
-0.185314
-0.17311
-0.164141
-0.155546
-0.146412
-0.137103
-0.127607
-0.11785
-0.107815
-0.0974972
-0.086909
-0.0761057
-0.0651038
-0.054132
-0.0429182
-0.0325583
-0.0208376
-0.0133914
0.00176939
-0.191987
-0.186904
-0.174444
-0.165397
-0.156673
-0.147389
-0.137955
-0.128354
-0.118512
-0.108411
-0.0980425
-0.0874137
-0.0765742
-0.0655421
-0.0545274
-0.0433071
-0.0328439
-0.0212643
-0.0134113
0.000873988
-0.192894
-0.187848
-0.175314
-0.166283
-0.157475
-0.148103
-0.138596
-0.128929
-0.119034
-0.108895
-0.0984988
-0.0878489
-0.0769899
-0.0659428
-0.0548971
-0.0436823
-0.0331241
-0.0216903
-0.0134439
1.01405e-06
-0.193073
-0.187908
-0.175557
-0.166686
-0.157877
-0.14851
-0.139004
-0.129323
-0.119416
-0.109269
-0.0988693
-0.0882184
-0.0773565
-0.0663091
-0.0552438
-0.0440454
-0.0334009
-0.0221144
-0.0134911
-0.000839326
-0.192497
-0.187077
-0.175255
-0.166689
-0.15795
-0.148679
-0.139244
-0.129597
-0.119713
-0.109585
-0.0992002
-0.088563
-0.0777091
-0.0666708
-0.0555922
-0.0444152
-0.0336892
-0.0225443
-0.0135597
-0.0016398
-0.192644
-0.185804
-0.174458
-0.166097
-0.157437
-0.148373
-0.139115
-0.12959
-0.119797
-0.109739
-0.0994102
-0.0888188
-0.0779983
-0.0669897
-0.0559133
-0.0447699
-0.0339735
-0.0229691
-0.0136443
-0.00239032
-0.189626
-0.179664
-0.170444
-0.162951
-0.154826
-0.146372
-0.137593
-0.128426
-0.118912
-0.109078
-0.0989321
-0.0884953
-0.0778028
-0.0669102
-0.0559122
-0.0448771
-0.0340736
-0.0232693
-0.013674
-0.0030619
-0.161446
-0.165214
-0.16545
-0.159868
-0.152368
-0.144368
-0.135889
-0.126943
-0.117611
-0.107938
-0.0979428
-0.0876526
-0.077101
-0.0663611
-0.0554894
-0.0446415
-0.0338949
-0.0233996
-0.0136037
-0.00373099
-0.155509
-0.155595
-0.155997
-0.151563
-0.145242
-0.13833
-0.130797
-0.122649
-0.113997
-0.104916
-0.0954439
-0.0856245
-0.075497
-0.065149
-0.054615
-0.0441083
-0.0335694
-0.0234552
-0.0135299
-0.00447238
-0.147468
-0.146067
-0.145818
-0.142201
-0.136918
-0.130981
-0.12438
-0.117097
-0.109232
-0.100865
-0.0920463
-0.0828269
-0.0732497
-0.0634118
-0.0533307
-0.0432613
-0.033035
-0.023357
-0.0134091
-0.00513765
-0.138278
-0.136622
-0.135625
-0.13256
-0.128187
-0.123129
-0.117396
-0.110966
-0.103909
-0.0962993
-0.0881854
-0.0796223
-0.0706531
-0.0613812
-0.0518097
-0.0422248
-0.0323696
-0.0231488
-0.0132643
-0.00569429
-0.127795
-0.126511
-0.125034
-0.122381
-0.118838
-0.114638
-0.10977
-0.104204
-0.0979937
-0.0911919
-0.0838429
-0.0759987
-0.0677005
-0.0590537
-0.0500503
-0.0409971
-0.0315717
-0.0228236
-0.0130932
-0.00611672
-0.115841
-0.115401
-0.113848
-0.111615
-0.108852
-0.105496
-0.101479
-0.0967996
-0.0914637
-0.0855116
-0.0789804
-0.0719147
-0.0643497
-0.056389
-0.0480158
-0.0395453
-0.0306135
-0.0223559
-0.0128786
-0.00638061
-0.102882
-0.103396
-0.102097
-0.100359
-0.0983457
-0.0958154
-0.0926473
-0.0888319
-0.084387
-0.079306
-0.0736267
-0.0673827
-0.0606011
-0.0533787
-0.0456916
-0.0378518
-0.0294753
-0.0217262
-0.0126022
-0.00647139
-0.0893646
-0.090744
-0.0899222
-0.0887553
-0.0874662
-0.0857316
-0.0833888
-0.0804233
-0.0768401
-0.0726512
-0.0678418
-0.062445
-0.056481
-0.0500364
-0.0430808
-0.0359121
-0.0281466
-0.0209225
-0.0122463
-0.00638878
-0.0757038
-0.0777758
-0.0775403
-0.0769872
-0.0763878
-0.0754039
-0.073851
-0.0717074
-0.0689751
-0.0656441
-0.0617029
-0.0571619
-0.0520333
-0.0463908
-0.0401993
-0.0337326
-0.0266245
-0.0199406
-0.0117958
-0.00614758
-0.0622887
-0.064848
-0.0652125
-0.0652694
-0.0653078
-0.0650133
-0.0641976
-0.0628295
-0.0609045
-0.0584036
-0.0553062
-0.0516118
-0.0473186
-0.0424865
-0.037077
-0.0313319
-0.0249162
-0.018786
-0.0112412
-0.00577588
-0.0494298
-0.0522849
-0.0531983
-0.05382
-0.054427
-0.0547468
-0.0546
-0.0539463
-0.0527732
-0.0510556
-0.0487645
-0.0458885
-0.0424133
-0.0383834
-0.0337581
-0.0287417
-0.0230395
-0.0174752
-0.0105808
-0.0053105
-0.0373526
-0.0403504
-0.0417266
-0.0428406
-0.0439357
-0.044786
-0.0452289
-0.045217
-0.0447293
-0.0437347
-0.042197
-0.0400938
-0.0374057
-0.0341548
-0.0303001
-0.0260068
-0.0210245
-0.0160358
-0.00982276
-0.00479087
-0.0262096
-0.0292416
-0.0309845
-0.0325058
-0.034005
-0.0352997
-0.036248
-0.0367978
-0.0369201
-0.0365783
-0.0357307
-0.0343461
-0.0323949
-0.0298849
-0.0267727
-0.0231842
-0.0189129
-0.0145049
-0.00898491
-0.00425303
-0.0161031
-0.0190997
-0.0211192
-0.0229638
-0.0247861
-0.0264422
-0.0278115
-0.0288399
-0.029492
-0.029726
-0.029496
-0.0287629
-0.0274894
-0.0256696
-0.0232572
-0.0203425
-0.0167582
-0.0129283
-0.00809424
-0.0037257
-0.00710947
-0.0100306
-0.0122504
-0.0143424
-0.0164149
-0.0183561
-0.0200661
-0.0214914
-0.0225913
-0.0233206
-0.0236295
-0.0234734
-0.0228085
-0.0216157
-0.0198473
-0.017562
-0.014625
-0.0113588
-0.00718521
-0.00322946
0.000703075
-0.00212363
-0.00448322
-0.00675853
-0.00901822
-0.0111775
-0.0131551
-0.0148995
-0.0163671
-0.0175098
-0.0182758
-0.0186157
-0.0184809
-0.0178414
-0.0166486
-0.0149344
-0.0125894
-0.00985599
-0.00629826
-0.0027787
0.00725259
0.00452486
0.00207244
-0.000333241
-0.00272742
-0.00504678
-0.0072266
-0.00921816
-0.0109762
-0.0124512
-0.01359
-0.0143403
-0.0146497
-0.0144803
-0.0137807
-0.0125637
-0.0107381
-0.00848606
-0.0054787
-0.00238498
0.0124536
0.00981487
0.00730306
0.00480785
0.00232072
-0.000111414
-0.00243718
-0.004611
-0.00658701
-0.00831517
-0.0097417
-0.0108125
-0.0114729
-0.0116789
-0.0113775
-0.0105671
-0.00916948
-0.00732309
-0.00477641
-0.00206039
0.0161383
0.013573
0.0110301
0.00848176
0.00593857
0.00343629
0.00101659
-0.00127762
-0.0034004
-0.00530162
-0.0069274
-0.00822275
-0.00913146
-0.00960581
-0.00959158
-0.00907771
-0.00799426
-0.00645043
-0.00424709
-0.00181965
0.0181758
0.0156423
0.0130788
0.010499
0.00792353
0.00538235
0.00291178
0.000553028
-0.00164824
-0.00364206
-0.00537475
-0.00679102
-0.00783412
-0.00845436
-0.0085974
-0.00824615
-0.00733765
-0.00596087
-0.00395446
-0.00168199
-0.0342009
-0.0452325
-0.0557819
-0.0658315
-0.0753644
-0.0843642
-0.0928154
-0.100704
-0.108021
-0.114759
-0.120924
-0.126532
-0.131623
-0.136268
-0.140584
-0.144766
-0.149099
-0.153983
-0.161079
-0.174639
-0.0246589
-0.0350001
-0.0449217
-0.0544107
-0.0634555
-0.0720465
-0.0801775
-0.0878469
-0.0950602
-0.101833
-0.108198
-0.114207
-0.119943
-0.125534
-0.131158
-0.137069
-0.14359
-0.150988
-0.160407
-0.175362
-0.01556
-0.0252439
-0.0345848
-0.0435755
-0.0522112
-0.0604897
-0.0684129
-0.075988
-0.0832285
-0.0901569
-0.0968065
-0.103224
-0.109473
-0.115636
-0.121815
-0.128135
-0.134734
-0.141637
-0.149583
-0.161801
-0.0068637
-0.0159273
-0.0247108
-0.0332099
-0.0414223
-0.0493481
-0.0569905
-0.0643563
-0.0714566
-0.0783072
-0.0849304
-0.0913547
-0.097617
-0.103764
-0.109855
-0.115973
-0.122226
-0.12868
-0.13598
-0.14651
0.00139769
-0.00706532
-0.0152978
-0.0232963
-0.0310592
-0.0385867
-0.0458814
-0.0529484
-0.0597958
-0.0664355
-0.0728839
-0.0791632
-0.0853032
-0.0913438
-0.0973379
-0.103358
-0.109491
-0.115787
-0.12265
-0.131464
0.00922219
0.00133774
-0.00635638
-0.0138572
-0.0211634
-0.0282752
-0.0351945
-0.0419256
-0.048475
-0.0548524
-0.0610711
-0.067149
-0.0731092
-0.0789809
-0.0848001
-0.0906111
-0.0964616
-0.102374
-0.108608
-0.115914
0.0166147
0.00928343
0.00210978
-0.00490343
-0.0117546
-0.0184436
-0.0249715
-0.031341
-0.0375566
-0.043625
-0.049555
-0.0553581
-0.0610487
-0.0666446
-0.0721672
-0.0776434
-0.0831035
-0.0885705
-0.0942117
-0.100359
0.0235775
0.0167724
0.010099
0.00356018
-0.00284191
-0.00910624
-0.0152327
-0.0212224
-0.0270776
-0.0328018
-0.0384002
-0.0438793
-0.049248
-0.054517
-0.0596997
-0.0648132
-0.0698762
-0.0749062
-0.0799887
-0.0852095
0.030109
0.0238022
0.0176064
0.0115251
0.00556103
-0.000284012
-0.00600879
-0.0116129
-0.0170968
-0.0224619
-0.0277105
-0.0328462
-0.0378734
-0.0427981
-0.0476274
-0.05237
-0.0570357
-0.0616359
-0.0661989
-0.0706975
0.036206
0.0303677
0.0246243
0.0189795
0.0134368
0.0079987
0.00266734
-0.00255574
-0.00766963
-0.0126741
-0.0175694
-0.0223566
-0.0270375
-0.0316144
-0.0360902
-0.0404687
-0.0447549
-0.0489555
-0.0530634
-0.0570158
0.0418647
0.036463
0.0311435
0.0259104
0.0207675
0.015718
0.0107647
0.00591004
0.00115587
-0.00349638
-0.00804574
-0.0124917
-0.0168342
-0.0210735
-0.0252103
-0.0292456
-0.0331818
-0.037022
-0.0407407
-0.0442793
0.0470759
0.0420773
0.0371514
0.0323021
0.0275336
0.0228496
0.0182533
0.0137479
0.00933565
0.00501888
0.000799316
-0.00332161
-0.0073428
-0.0112635
-0.0150831
-0.0188014
-0.0224192
-0.0259376
-0.0293252
-0.0325422
0.0518303
0.0472006
0.0426356
0.0381394
0.0337165
0.0293708
0.0251059
0.0209251
0.0168315
0.0128274
0.00891532
0.00509703
0.00137419
-0.00225188
-0.00578006
-0.0092095
-0.0125406
-0.0157729
-0.018877
-0.0218321
0.0561133
0.0518175
0.0475796
0.0434042
0.0392957
0.0352583
0.0312958
0.0274116
0.023609
0.0198908
0.0162595
0.0127172
0.00926584
0.00590703
0.00264206
-0.000528027
-0.00360331
-0.0065827
-0.0094416
-0.0121741
0.0599152
0.0559159
0.0519692
0.0480797
0.0442519
0.04049
0.0367978
0.033179
0.0296368
0.0261741
0.0227936
0.0194975
0.0162878
0.0131662
0.0101341
0.0071926
0.00434188
0.00158329
-0.0010643
-0.00360393
0.0632121
0.0594714
0.055779
0.0521395
0.0485572
0.0450364
0.0415809
0.0381941
0.0348795
0.0316398
0.0284778
0.0253957
0.0223956
0.0194792
0.0166479
0.0139028
0.0112443
0.00867379
0.00620463
0.00382988
0.0659829
0.0624612
0.0589842
0.0555565
0.0521822
0.0488653
0.0456096
0.0424187
0.0392955
0.0362431
0.0332641
0.0303607
0.0275349
0.0247885
0.0221229
0.0195392
0.017038
0.0146205
0.0122955
0.010056
0.0681724
0.0648301
0.0615298
0.0582757
0.0550718
0.0519218
0.0488295
0.0457979
0.0428302
0.0399291
0.037097
0.0343363
0.0316487
0.0290359
0.0264994
0.0240403
0.0216592
0.0193573
0.0171395
0.0150008
0.0697568
0.0665452
0.0633731
0.0602445
0.0571632
0.0541329
0.0511568
0.048238
0.0453796
0.0425842
0.0398541
0.0371915
0.0345984
0.0320763
0.0296268
0.0272509
0.0249495
0.0227234
0.0205749
0.0185019
0.0705863
0.0674721
0.0643958
0.0613607
0.0583699
0.0554265
0.0525333
0.049693
0.0469081
0.0441809
0.0415135
0.0389078
0.0363657
0.0338887
0.0314782
0.0291354
0.0268614
0.0246571
0.0225237
0.0204609
0.25127
0.235651
0.219835
0.204889
0.189681
0.174264
0.158858
0.143517
0.128274
0.113171
0.0982524
0.0835515
0.0691002
0.0549259
0.041053
0.0275712
0.014376
0.00159437
-0.0107672
-0.0227054
0.241962
0.227025
0.211285
0.197119
0.182934
0.16854
0.154203
0.139985
0.125885
0.111929
0.0981507
0.0845748
0.0712261
0.0581272
0.0453004
0.0328324
0.0205886
0.0087183
-0.00278142
-0.0139131
0.230392
0.216209
0.201174
0.187958
0.174972
0.161789
0.148658
0.135663
0.122791
0.110052
0.0974711
0.0850696
0.0728671
0.0608841
0.0491473
0.0377288
0.0264044
0.0154371
0.0047939
-0.00554272
0.218931
0.205913
0.192035
0.179852
0.168006
0.155981
0.143978
0.132104
0.120351
0.108718
0.0972248
0.0858876
0.0747216
0.063741
0.0529571
0.0423869
0.0320515
0.0219384
0.0120766
0.00247358
0.208038
0.196216
0.183585
0.172425
0.161639
0.150708
0.139775
0.128956
0.118249
0.107647
0.0971625
0.0868099
0.0766004
0.0665438
0.0566437
0.0468936
0.0374501
0.0281308
0.0189992
0.0100868
0.197913
0.187205
0.175802
0.165635
0.155834
0.145924
0.136
0.126167
0.116431
0.106785
0.0972362
0.0877956
0.0784733
0.0692787
0.0602202
0.051304
0.0425851
0.0339879
0.0255499
0.0172936
0.188596
0.178919
0.168697
0.159491
0.15061