/*--------------------------------*- C++ -*----------------------------------*\
  =========                 |
  \\      /  F ield         | OpenFOAM: The Open Source CFD Toolbox
   \\    /   O peration     | Website:  https://openfoam.org
    \\  /    A nd           | Version:  7
     \\/     M anipulation  |
\*---------------------------------------------------------------------------*/
FoamFile
{
    version     2.0;
    format      ascii;
    class       volVectorField;
    location    "2";
    object      U;
}
// * * * * * * * * * * * * * * * * * * * * * * * * * * * * * * * * * * * * * //

dimensions      [0 1 -1 0 0 0 0];

internalField   nonuniform List<vector> 
433
(
(0.0038501 -0.00285116 3.52182e-20)
(0.00703438 -0.00484934 4.76449e-20)
(0.0107572 -0.00691684 5.38613e-20)
(0.00162769 -0.00118153 -1.23898e-20)
(0.00523396 -0.00364025 -8.88785e-21)
(0.00938777 -0.0061439 7.64599e-20)
(0.0141226 -0.00870013 -6.40517e-20)
(0.0194738 -0.0113172 3.51707e-20)
(0.0254848 -0.0139939 3.91099e-20)
(0.0322019 -0.0167267 -1.53573e-19)
(0.0396729 -0.0195129 4.49264e-20)
(0.00213694 -0.00143677 4.65986e-20)
(0.00677622 -0.00438874 5.63131e-20)
(0.0120039 -0.00736787 -5.33303e-20)
(0.0178544 -0.0103804 -7.98388e-20)
(0.0243639 -0.0134333 1.13862e-19)
(0.0315769 -0.0165228 3.44233e-20)
(0.0395408 -0.0196434 -8.20634e-21)
(0.048304 -0.0227894 -1.80022e-21)
(0.0579161 -0.0259552 -7.15764e-20)
(0.0684277 -0.0291346 8.83649e-20)
(0.0798908 -0.0323211 -3.86035e-21)
(0.0923569 -0.0355069 1.65875e-20)
(0.10588 -0.0386846 -1.18965e-19)
(0.00269855 -0.00167303 -2.20524e-20)
(0.00847361 -0.00507911 5.68438e-20)
(0.0148772 -0.00849248 -8.86724e-20)
(0.0219446 -0.0119179 -8.12927e-21)
(0.0297126 -0.0153607 1.56244e-20)
(0.0382263 -0.0188149 1.32711e-20)
(0.0475335 -0.0222721 -5.34952e-20)
(0.057683 -0.025724 8.48835e-20)
(0.0687243 -0.0291626 -3.29911e-20)
(0.080708 -0.032579 2.91887e-20)
(0.0936855 -0.0359639 4.29025e-20)
(0.107708 -0.0393077 -1.37989e-20)
(0.122829 -0.0425999 4.71707e-20)
(0.139098 -0.0458299 -2.11591e-20)
(0.156567 -0.0489863 5.06888e-20)
(0.175285 -0.0520573 -2.64362e-19)
(0.1953 -0.0550313 7.74533e-20)
(0.00331116 -0.00188458 -5.22767e-20)
(0.0103218 -0.00569418 1.26761e-19)
(0.0180001 -0.00948896 -1.96557e-20)
(0.0263819 -0.0132721 1.27039e-20)
(0.0355041 -0.0170475 -1.25955e-19)
(0.0454122 -0.0208064 2.05177e-20)
(0.0561539 -0.024538 4.66598e-20)
(0.0677777 -0.0282312 -7.18618e-21)
(0.0803327 -0.0318754 1.02432e-19)
(0.093869 -0.0354591 -1.2729e-19)
(0.108437 -0.0389705 3.54269e-20)
(0.124086 -0.0423972 -1.29557e-20)
(0.140868 -0.0457265 3.74922e-20)
(0.158831 -0.0489453 4.47801e-20)
(0.178023 -0.0520405 1.70502e-21)
(0.198491 -0.0549985 -1.6503e-19)
(0.220277 -0.0578055 -4.70971e-20)
(0.243423 -0.0604481 -9.96501e-20)
(0.267964 -0.0629127 2.3287e-19)
(0.29393 -0.0651861 -1.0389e-19)
(0.321345 -0.0672558 9.22803e-20)
(0.00397296 -0.00206588 3.26028e-20)
(0.012315 -0.00621744 -5.50801e-20)
(0.0213624 -0.0103297 7.44693e-20)
(0.0311512 -0.0144044 -1.6746e-20)
(0.0417183 -0.0184436 -4.39359e-21)
(0.0531086 -0.0224364 -4.95987e-20)
(0.0653696 -0.0263689 4.97075e-20)
(0.0785489 -0.0302278 6.16606e-20)
(0.0926947 -0.0339996 -5.48946e-20)
(0.107855 -0.0376704 5.62698e-20)
(0.12408 -0.0412259 -1.50971e-19)
(0.141416 -0.0446512 3.94885e-20)
(0.159912 -0.0479314 1.52976e-20)
(0.179614 -0.0510514 3.54726e-21)
(0.200567 -0.0539957 1.06128e-19)
(0.22281 -0.0567492 -7.85873e-20)
(0.246385 -0.0592969 3.77965e-20)
(0.271323 -0.061624 1.682e-19)
(0.297653 -0.0637163 -3.97521e-21)
(0.325399 -0.0655607 -6.82029e-20)
(0.354574 -0.0671445 8.36161e-21)
(0.385183 -0.068457 -8.85014e-20)
(0.417219 -0.0694884 7.81998e-20)
(0.450666 -0.0702324 -4.17495e-21)
(0.0046816 -0.00221155 2.36888e-20)
(0.0144458 -0.00663285 -9.13486e-20)
(0.0249512 -0.0109882 6.2671e-20)
(0.0362336 -0.0152775 -2.22901e-20)
(0.0483295 -0.0195014 6.80159e-20)
(0.0612831 -0.0236465 -8.32793e-20)
(0.0751406 -0.0276963 6.02001e-20)
(0.0899484 -0.0316351 3.06972e-21)
(0.105753 -0.0354467 -1.00188e-19)
(0.122601 -0.039115 9.48662e-20)
(0.140539 -0.0426231 2.75676e-20)
(0.159612 -0.0459541 -1.59406e-20)
(0.179864 -0.0490909 -1.15807e-19)
(0.201338 -0.0520164 1.07603e-19)
(0.224074 -0.0547135 -5.7663e-20)
(0.248107 -0.0571658 6.60709e-21)
(0.27347 -0.059357 5.2739e-20)
(0.300189 -0.0612717 -7.41555e-20)
(0.328286 -0.0628954 6.97024e-20)
(0.357771 -0.0642151 2.7386e-20)
(0.38865 -0.0652192 -4.0475e-20)
(0.420913 -0.0658978 -1.68727e-20)
(0.454541 -0.0662443 -1.13392e-20)
(0.00543413 -0.00231638 2.99854e-20)
(0.016705 -0.006925 -2.95361e-20)
(0.0287505 -0.0114386 3.75398e-20)
(0.0416058 -0.0158557 1.76242e-20)
(0.0553067 -0.0201753 -8.41172e-21)
(0.0698961 -0.0243816 3.18362e-20)
(0.0854184 -0.0284558 -4.63581e-20)
(0.101918 -0.0323796 7.18052e-20)
(0.11944 -0.0361346 -8.29812e-20)
(0.138027 -0.0397024 -5.95892e-20)
(0.157723 -0.043064 -5.75973e-20)
(0.17857 -0.0462005 -9.62057e-22)
(0.200608 -0.0490929 5.19101e-20)
(0.223875 -0.0517227 4.479e-20)
(0.248404 -0.0540715 -6.23529e-20)
(0.274225 -0.0561216 3.18167e-20)
(0.301364 -0.0578562 8.41969e-21)
(0.329838 -0.0592598 -1.12702e-19)
(0.359659 -0.0603181 1.0365e-19)
(0.390829 -0.0610189 1.15126e-19)
(0.423338 -0.0613517 -1.29734e-19)
(0.457166 -0.0613097 -4.33041e-20)
(0.00622693 -0.00237537 -1.19365e-20)
(0.0190814 -0.00707914 -2.01905e-20)
(0.0327411 -0.0116569 1.58217e-21)
(0.04724 -0.0161056 1.1776e-19)
(0.0626129 -0.0204228 -9.31501e-20)
(0.0789008 -0.0245905 4.48205e-20)
(0.096146 -0.0285876 -4.67707e-20)
(0.114391 -0.0323935 -4.98241e-20)
(0.133676 -0.0359879 9.32465e-20)
(0.154042 -0.0393503 9.4555e-21)
(0.17553 -0.0424599 9.96912e-21)
(0.198175 -0.0452961 -6.43171e-20)
(0.222014 -0.0478386 1.48005e-19)
(0.247079 -0.0500675 -1.17738e-19)
(0.273396 -0.0519636 1.68787e-20)
(0.30099 -0.0535087 -3.65592e-20)
(0.329875 -0.0546861 1.66502e-19)
(0.360063 -0.0554804 -9.46105e-20)
(0.391553 -0.0558784 -5.24118e-20)
(0.424334 -0.0558693 6.38554e-20)
(0.458386 -0.0554454 -3.93831e-20)
(0.00705567 -0.00238377 1.16046e-20)
(0.0215617 -0.00708141 5.25117e-20)
(0.0369 -0.0116203 1.09357e-20)
(0.0531034 -0.0159958 3.25449e-20)
(0.0702048 -0.0202043 -6.94799e-20)
(0.088243 -0.0242259 -6.25728e-20)
(0.107257 -0.0280371 -2.91729e-20)
(0.127287 -0.0316156 1.63753e-19)
(0.14837 -0.0349393 -1.60882e-19)
(0.170543 -0.0379859 1.11668e-19)
(0.19384 -0.0407332 -9.36971e-21)
(0.218295 -0.0431594 1.72094e-20)
(0.243936 -0.0452431 9.62818e-21)
(0.27079 -0.0469638 -1.17856e-19)
(0.298876 -0.0483019 8.22991e-20)
(0.328209 -0.0492394 -4.02531e-20)
(0.358798 -0.0497601 -1.05193e-19)
(0.390641 -0.0498497 1.19419e-19)
(0.423725 -0.0494966 -2.91291e-20)
(0.458031 -0.0486928 -4.76425e-20)
(0.00791527 -0.00233719 -3.60469e-21)
(0.0241304 -0.00691898 2.58488e-20)
(0.0412011 -0.0113078 -4.09227e-20)
(0.0591582 -0.015498 -3.08527e-20)
(0.0780328 -0.0194844 2.66768e-20)
(0.0978606 -0.0232454 1.55911e-20)
(0.118678 -0.026756 -3.47292e-20)
(0.14052 -0.029992 8.57439e-20)
(0.163421 -0.03293 -5.34396e-20)
(0.187413 -0.0355464 4.46117e-20)
(0.212525 -0.037818 -4.01408e-20)
(0.238784 -0.0397221 -3.26944e-20)
(0.266214 -0.0412369 6.05747e-20)
(0.294831 -0.0423418 -9.65394e-20)
(0.32465 -0.0430175 1.45905e-19)
(0.355676 -0.0432469 -1.71004e-19)
(0.387907 -0.0430149 2.99972e-20)
(0.421329 -0.042309 8.52304e-20)
(0.455922 -0.0411208 -4.24513e-20)
(0.00879989 -0.00223163 -2.43864e-20)
(0.0267698 -0.00658035 4.04704e-20)
(0.0456141 -0.0107011 -2.64968e-20)
(0.0653616 -0.0145869 -1.12256e-21)
(0.0860408 -0.0182318 -4.96502e-20)
(0.107684 -0.0216126 1.88723e-20)
(0.130324 -0.0247029 3.8335e-20)
(0.153992 -0.0274774 -3.90128e-21)
(0.178717 -0.0299114 -4.68248e-21)
(0.204525 -0.0319807 -2.99977e-20)
(0.231441 -0.0336615 5.78592e-20)
(0.259484 -0.0349308 -1.25532e-19)
(0.288672 -0.0357671 8.54113e-20)
(0.319013 -0.0361501 2.37507e-20)
(0.350513 -0.0360619 -9.1196e-20)
(0.383168 -0.0354865 6.3146e-20)
(0.416964 -0.034411 -6.93389e-20)
(0.451878 -0.0328261 1.30123e-19)
(0.0097029 -0.00206363 -2.56345e-20)
(0.0294599 -0.00605561 4.36298e-20)
(0.0501054 -0.00978417 -3.82758e-20)
(0.0716659 -0.0132414 4.67934e-20)
(0.094167 -0.0164206 -5.13688e-20)
(0.117637 -0.0192975 4.80045e-20)
(0.142105 -0.0218446 -3.76723e-20)
(0.167596 -0.0240358 -2.618e-20)
(0.194134 -0.0258459 8.30928e-20)
(0.221741 -0.0272503 -4.789e-20)
(0.250433 -0.0282253 -3.0075e-20)
(0.280225 -0.0287484 1.90139e-20)
(0.311124 -0.0287986 -2.36503e-21)
(0.343133 -0.0283571 -3.7165e-20)
(0.376247 -0.0274075 5.78404e-20)
(0.410451 -0.0259365 -1.69824e-20)
(0.445721 -0.0239339 2.1505e-21)
(0.482022 -0.0213941 -6.18795e-21)
(0.010617 -0.00183033 7.34155e-21)
(0.0321786 -0.00533675 7.73756e-20)
(0.0546381 -0.0085445 -6.3261e-20)
(0.078019 -0.011445 1.52364e-20)
(0.102344 -0.014031 -1.61934e-20)
(0.127636 -0.0162777 3.80952e-20)
(0.15392 -0.0181568 -9.34263e-21)
(0.181216 -0.0196419 -6.32716e-21)
(0.209542 -0.020708 -6.98953e-21)
(0.238912 -0.0213306 -5.53063e-22)
(0.269339 -0.0214866 -2.78725e-20)
(0.300827 -0.0211546 4.43216e-20)
(0.333376 -0.0203152 4.32938e-20)
(0.36698 -0.0189515 -2.58511e-20)
(0.401625 -0.0170497 3.08368e-20)
(0.437284 -0.0145994 -7.76752e-21)
(0.473923 -0.0115946 -3.89208e-20)
(0.0115341 -0.00152963 3.40908e-21)
(0.034902 -0.00441794 4.9697e-21)
(0.0591721 -0.0069732 -3.23118e-22)
(0.0843645 -0.00918638 -3.42952e-21)
(0.110498 -0.01105 2.00897e-21)
(0.137592 -0.012539 6.14671e-21)
(0.165664 -0.0136251 -1.59406e-20)
(0.19473 -0.0142822 5.07095e-20)
(0.224801 -0.0144855 -4.06957e-20)
(0.255885 -0.0142118 2.868e-20)
(0.287986 -0.0134391 -3.4221e-20)
(0.321102 -0.0121477 2.74618e-20)
(0.355224 -0.0103205 -1.76008e-20)
(0.390336 -0.00794334 1.45318e-20)
(0.426413 -0.0050059 -1.23332e-20)
(0.46342 -0.00150178 -7.42764e-21)
(0.501311 0.00257038 3.79321e-20)
(0.0124456 -0.00116022 -1.21917e-20)
(0.0376045 -0.00329587 -4.2347e-21)
(0.0636647 -0.00506552 2.12345e-20)
(0.0906426 -0.00646005 -3.44587e-20)
(0.118553 -0.00747213 1.35736e-20)
(0.14741 -0.00807683 1.59127e-20)
(0.177226 -0.00824649 -1.58607e-20)
(0.20801 -0.00795572 -1.91266e-21)
(0.239767 -0.00718104 1.15364e-21)
(0.272498 -0.00590058 6.19243e-21)
(0.306199 -0.00409448 5.52747e-21)
(0.340858 -0.00174548 5.44497e-21)
(0.37646 0.0011606 -1.91478e-20)
(0.412978 0.00463427 2.04194e-20)
(0.450378 0.00868177 -4.94594e-21)
(0.488613 0.0133045 -1.6989e-20)
(0.527626 0.0184984 9.50808e-21)
(0.0133426 -0.000721735 -5.7258e-21)
(0.0402593 -0.00196992 2.42884e-21)
(0.0680713 -0.00282127 -1.56672e-21)
(0.0967911 -0.00326688 1.93963e-21)
(0.126429 -0.0032999 -1.64156e-20)
(0.156994 -0.00289621 4.68886e-21)
(0.188491 -0.00202922 1.59208e-20)
(0.220925 -0.000674972 -1.05603e-20)
(0.254292 0.0011882 -4.77987e-21)
(0.288586 0.00357994 7.87732e-21)
(0.323795 0.00651741 -8.08754e-21)
(0.359901 0.0100147 -8.71311e-21)
(0.396875 0.0140822 -3.76679e-21)
(0.434685 0.0187261 1.03146e-20)
(0.473284 0.0239476 8.2819e-21)
(0.512616 0.0297426 -1.60066e-20)
(0.552613 0.0361002 2.29198e-21)
(0.0142156 -0.000214802 -2.11521e-21)
(0.0428386 -0.000442441 8.23759e-21)
(0.0723459 -0.000245115 -2.19389e-21)
(0.102746 0.000385496 5.09342e-22)
(0.134044 0.00145535 -3.57036e-21)
(0.166243 0.00298724 2.97587e-21)
(0.199343 0.00500602 -6.84134e-21)
(0.233341 0.00753358 7.91675e-21)
(0.268226 0.0105891 -8.81522e-21)
(0.303984 0.0141893 8.18685e-21)
(0.340596 0.0183479 -6.31114e-21)
(0.378034 0.023075 4.74509e-22)
(0.416262 0.0283766 7.02258e-21)
(0.455237 0.0342535 -3.46512e-21)
(0.494901 0.0407014 7.32015e-21)
(0.535189 0.0477095 -1.0346e-20)
(0.015055 0.000358905 2.19465e-21)
(0.0453141 0.00128111 -7.74072e-21)
(0.0764419 0.00265312 1.9416e-21)
(0.108442 0.00448228 8.81166e-22)
(0.141315 0.00677325 3.33988e-21)
(0.175059 0.00954687 -2.69508e-21)
(0.209665 0.0128257 7.09646e-21)
(0.245125 0.0166288 -7.28268e-21)
(0.28142 0.0209722 7.84974e-21)
(0.318529 0.025869 -7.80514e-21)
(0.356424 0.0313289 6.96839e-21)
(0.395068 0.0373571 1.84545e-21)
(0.434417 0.0439542 -5.85179e-21)
(0.474418 0.0511154 3.16909e-21)
(0.515004 0.0588297 -7.62423e-21)
(0.556101 0.0670794 1.12154e-20)
(0.0158513 0.000996617 6.08195e-21)
(0.0476577 0.00319205 -1.33318e-21)
(0.0803127 0.00585831 3.27424e-22)
(0.113815 0.00900132 -4.44219e-21)
(0.148161 0.012624 1.56806e-20)
(0.183341 0.0167448 -1.64421e-20)
(0.219342 0.021383 -3.77824e-21)
(0.256145 0.0265545 9.54397e-21)
(0.293728 0.0322714 4.76548e-21)
(0.33206 0.0385425 -7.29866e-21)
(0.371104 0.0453725 2.90495e-21)
(0.410817 0.0527614 5.81232e-22)
(0.451144 0.0607039 2.11887e-21)
(0.492024 0.0691885 -1.38195e-20)
(0.533382 0.0781971 -4.71497e-21)
(0.575133 0.0877043 1.10886e-20)
(0.617179 0.0976767 9.84558e-22)
(0.0165949 0.00169446 9.38472e-21)
(0.0498413 0.0052785 5.04691e-21)
(0.0839124 0.00935006 -1.9849e-20)
(0.118802 0.0139133 3.23671e-20)
(0.154501 0.0189689 -1.34471e-20)
(0.190994 0.0245322 -1.66532e-20)
(0.228261 0.0306188 1.93753e-20)
(0.266276 0.0372406 -2.5943e-21)
(0.30501 0.0444052 -2.46096e-20)
(0.344424 0.0521164 2.16908e-20)
(0.384474 0.0603733 -6.93728e-21)
(0.425107 0.0691701 1.66631e-21)
(0.466261 0.0784946 1.70025e-20)
(0.507866 0.0883285 -2.68317e-20)
(0.549839 0.0986458 7.98301e-21)
(0.592087 0.109413 2.06163e-20)
(0.634502 0.120588 -4.44988e-21)
(0.0172767 0.00244746 -2.83893e-21)
(0.0518381 0.00752532 -7.38854e-21)
(0.0871968 0.0131028 8.23502e-22)
(0.123342 0.0191816 -1.189e-21)
(0.160259 0.0257601 4.43982e-21)
(0.197925 0.0328496 -9.85444e-22)
(0.236316 0.0404617 1.02755e-20)
(0.275398 0.0486033 -3.69187e-20)
(0.315133 0.0572771 4.19346e-20)
(0.355478 0.0664812 -2.79443e-20)
(0.396378 0.0762086 4.33166e-20)
(0.437775 0.0864468 -2.29515e-20)
(0.479598 0.0971765 9.63821e-21)
(0.521769 0.108372 -8.11184e-21)
(0.564196 0.119999 1.42887e-20)
(0.60678 0.132015 2.95183e-21)
(0.649406 0.144369 -4.08411e-20)
(0.0178878 0.00324958 -4.92762e-21)
(0.0536226 0.00991432 -6.18442e-20)
(0.0901244 0.0170857 5.42232e-20)
(0.127377 0.0247629 -5.74548e-21)
(0.165362 0.032941 8.57289e-21)
(0.20405 0.0416273 -3.32825e-20)
(0.243408 0.0508282 7.59401e-21)
(0.283399 0.0605455 1.48927e-21)
(0.323976 0.0707761 9.7547e-21)
(0.365089 0.0815118 7.12343e-21)
(0.406678 0.0927392 2.50922e-20)
(0.448675 0.104438 -3.78068e-20)
(0.491002 0.116582 -2.79853e-20)
(0.533575 0.129137 4.00342e-20)
(0.576295 0.142061 -4.38098e-20)
(0.619054 0.155302 1.84373e-20)
(0.661734 0.1688 3.12437e-20)
(0.0184202 0.00409375 1.9567e-20)
(0.0551713 0.0124243 -4.28934e-20)
(0.092657 0.0212634 3.34166e-20)
(0.130857 0.0306071 -4.32074e-20)
(0.169745 0.0404472 4.29161e-20)
(0.209288 0.0507858 -4.06158e-20)
(0.249448 0.061624 2.59182e-20)
(0.290179 0.0729578 1.66932e-20)
(0.331429 0.0847777 -6.92737e-20)
(0.373141 0.0970689 7.24671e-20)
(0.415249 0.109811 -6.59669e-20)
(0.457676 0.122976 3.48204e-20)
(0.500341 0.136529 -2.91506e-22)
(0.543149 0.150429 2.04003e-20)
(0.585999 0.164623 -5.50977e-20)
(0.628776 0.179052 1.44739e-21)
(0.671356 0.193647 2.14267e-20)
(0.713605 0.208329 1.08318e-20)
(0.0188664 0.00497194 1.7467e-20)
(0.0564626 0.0150315 -2.76395e-20)
(0.0947597 0.0255962 1.90467e-20)
(0.133732 0.0366586 2.93612e-21)
(0.173349 0.0482068 4.17638e-20)
(0.213572 0.0602373 -1.71121e-20)
(0.254356 0.0727453 -2.82383e-20)
(0.29565 0.0857203 1.14053e-20)
(0.337398 0.0991462 -7.80935e-21)
(0.379533 0.113001 2.22947e-20)
(0.421985 0.127257 -5.26134e-20)
(0.464672 0.141878 8.80219e-20)
(0.507504 0.156821 -7.99162e-20)
(0.550384 0.172036 -1.14795e-20)
(0.593203 0.187462 9.52016e-20)
(0.635842 0.203031 -4.56441e-20)
(0.0192204 0.00587549 5.80501e-21)
(0.0574797 0.0177098 -1.89048e-20)
(0.0964045 0.0300404 3.34465e-20)
(0.135965 0.0428562 2.04339e-20)
)
;

boundaryField
{
    inlet
    {
        type            uniformFixedValue;
        uniformValue    constant (1 0 0);
        value           nonuniform 0();
    }
    outlet
    {
        type            pressureInletOutletVelocity;
        value           nonuniform 0();
    }
    cylinder
    {
        type            fixedValue;
        value           uniform (0 0 0);
    }
    top
    {
        type            symmetryPlane;
    }
    bottom
    {
        type            symmetryPlane;
    }
    defaultFaces
    {
        type            empty;
    }
    procBoundary20to14
    {
        type            processor;
        value           uniform (0.00117184 -0.000913273 3.64322e-20);
    }
    procBoundary20to25
    {
        type            processor;
        value           nonuniform List<vector> 
20
(
(0.678173 0.218663 5.10254e-20)
(0.720061 0.234274 -1.18607e-19)
(0.176126 0.0561406 2.59998e-20)
(0.216843 0.0698849 -3.92935e-21)
(0.258067 0.0840776 2.86609e-20)
(0.299741 0.0987018 -7.09971e-20)
(0.341803 0.113734 4.21191e-20)
(0.384182 0.129145 -3.26654e-20)
(0.4268 0.144899 2.49513e-20)
(0.469573 0.160951 1.75938e-20)
(0.512404 0.177251 -4.81575e-20)
(0.55519 0.193738 8.96357e-20)
(0.59782 0.210345 -1.1071e-19)
(0.678173 0.218663 5.10254e-20)
(0.640171 0.226993 1.24103e-19)
(0.0194761 0.00679453 -9.17201e-21)
(0.0582038 0.0204299 -3.77176e-20)
(0.0975625 0.0345479 -1.54416e-21)
(0.176126 0.0561406 2.59998e-20)
(0.137518 0.0491328 -2.80139e-20)
)
;
    }
    procBoundary20to26
    {
        type            processor;
        value           nonuniform List<vector> 
28
(
(0.489501 -0.066254 9.53579e-20)
(0.489501 -0.066254 9.53579e-20)
(0.492278 -0.0608881 -8.27414e-20)
(0.492278 -0.0608881 -8.27414e-20)
(0.493673 -0.0546019 1.61073e-20)
(0.493673 -0.0546019 1.61073e-20)
(0.493521 -0.0474331 8.32406e-21)
(0.493521 -0.0474331 8.32406e-21)
(0.491647 -0.0394447 3.78629e-20)
(0.491647 -0.0394447 3.78629e-20)
(0.487873 -0.030726 8.3207e-20)
(0.487873 -0.030726 8.3207e-20)
(0.519307 -0.0183158 4.11626e-21)
(0.511495 -0.00803389 -1.5504e-20)
(0.511495 -0.00803389 -1.5504e-20)
(0.540026 0.00720664 -1.42786e-20)
(0.567347 0.0242531 -1.08481e-20)
(0.593192 0.0430032 -8.02267e-21)
(0.576022 0.0552602 7.22094e-22)
(0.576022 0.0552602 7.22094e-22)
(0.597618 0.0758393 -7.1998e-22)
(0.597618 0.0758393 -7.1998e-22)
(0.65941 0.108072 2.33257e-21)
(0.676968 0.13212 1.89739e-20)
(0.69195 0.157002 8.36334e-21)
(0.704204 0.182486 1.27418e-20)
(0.704204 0.182486 1.27418e-20)
(0.755379 0.223011 -7.07824e-21)
)
;
    }
    procBoundary20to27
    {
        type            processor;
        value           nonuniform List<vector> 
29
(
(0.00262382 -0.00203736 2.00525e-20)
(0.00494344 -0.00351139 2.05063e-20)
(0.00775877 -0.00506947 1.68521e-20)
(0.015052 -0.00906288 4.73103e-20)
(0.015052 -0.00906288 4.73103e-20)
(0.0199616 -0.0112888 8.53223e-20)
(0.0255311 -0.0135939 -5.26873e-20)
(0.0318069 -0.0159779 -1.6564e-20)
(0.0479459 -0.022349 -3.7982e-20)
(0.0479459 -0.022349 -3.7982e-20)
(0.0570716 -0.0252316 1.98778e-20)
(0.0671013 -0.0281568 5.29773e-20)
(0.0780875 -0.0311199 4.21474e-20)
(0.0900834 -0.0341159 -1.12243e-19)
(0.12051 -0.0418452 -2.25901e-19)
(0.12051 -0.0418452 -2.25901e-19)
(0.136303 -0.0449801 -5.13635e-20)
(0.153309 -0.04808 2.93488e-19)
(0.17158 -0.0511351 4.42793e-21)
(0.216657 -0.0578954 -1.81858e-19)
(0.216657 -0.0578954 -1.81858e-19)
(0.239396 -0.0606378 -2.81298e-20)
(0.263557 -0.0632464 2.63438e-19)
(0.289172 -0.0657086 -1.42628e-19)
(0.350225 -0.0691099 1.0669e-19)
(0.350225 -0.0691099 1.0669e-19)
(0.380577 -0.0707379 -5.13615e-20)
(0.412398 -0.072131 5.06044e-20)
(0.48549 -0.0706846 9.32471e-20)
)
;
    }
}


// ************************************************************************* //
