/*--------------------------------*- C++ -*----------------------------------*\
  =========                 |
  \\      /  F ield         | OpenFOAM: The Open Source CFD Toolbox
   \\    /   O peration     | Website:  https://openfoam.org
    \\  /    A nd           | Version:  7
     \\/     M anipulation  |
\*---------------------------------------------------------------------------*/
FoamFile
{
    version     2.0;
    format      ascii;
    class       volScalarField;
    location    "13.999398";
    object      p;
}
// * * * * * * * * * * * * * * * * * * * * * * * * * * * * * * * * * * * * * //

dimensions      [0 2 -2 0 0 0 0];

internalField   nonuniform List<scalar> 
5800
(
-0.285884
-0.28659
-0.287037
-0.287299
-0.287419
-0.0378067
-0.0381774
-0.03854
-0.0388933
-0.0392362
-0.0395674
-0.0398858
-0.0401901
-0.0404789
-0.0407508
-0.0410044
-0.0412382
-0.0414505
-0.0416399
-0.0418047
-0.0419432
-0.0420538
-0.0421348
-0.0421845
-0.0422011
-0.042183
-0.0421284
-0.0420356
-0.0419031
-0.0417292
-0.0415125
-0.0412514
-0.0409447
-0.040591
-0.0401893
-0.0397386
-0.0392381
-0.038687
-0.0380849
-0.0374314
-0.0367265
-0.0359703
-0.0351631
-0.0343054
-0.033398
-0.0324419
-0.0314383
-0.0303886
-0.0292944
-0.0281574
-0.0269797
-0.025763
-0.0245098
-0.0232218
-0.0219019
-0.0205511
-0.0191731
-0.0177677
-0.0163394
-0.0148863
-0.0134145
-0.0119184
-0.0104081
-0.00887052
-0.00732441
-0.00574286
-0.00416004
-0.00252421
-0.000891148
-0.037911
-0.0382832
-0.0386472
-0.0390019
-0.039346
-0.0396785
-0.039998
-0.0403032
-0.0405929
-0.0408656
-0.0411197
-0.0413539
-0.0415666
-0.0417561
-0.0419208
-0.0420591
-0.0421692
-0.0422496
-0.0422984
-0.0423139
-0.0422945
-0.0422383
-0.0421438
-0.0420093
-0.0418332
-0.041614
-0.0413503
-0.0410406
-0.0406838
-0.0402788
-0.0398246
-0.0393203
-0.0387653
-0.0381591
-0.0375014
-0.0367922
-0.0360315
-0.0352198
-0.0343575
-0.0334456
-0.0324849
-0.0314769
-0.0304227
-0.0293243
-0.0281831
-0.0270014
-0.0257809
-0.0245242
-0.0232329
-0.02191
-0.0205565
-0.0191761
-0.0177687
-0.0163388
-0.0148842
-0.0134116
-0.0119146
-0.0104042
-0.00886641
-0.00732093
-0.00573941
-0.00415805
-0.0025222
-0.000891519
-0.0381118
-0.0384874
-0.0388545
-0.0392121
-0.0395589
-0.0398939
-0.0402157
-0.040523
-0.0408145
-0.0410886
-0.041344
-0.0415791
-0.0417924
-0.0419821
-0.0421468
-0.0422846
-0.0423939
-0.042473
-0.0425201
-0.0425336
-0.0425116
-0.0424525
-0.0423545
-0.0422161
-0.0420357
-0.0418116
-0.0415426
-0.0412273
-0.0408644
-0.0404528
-0.0399917
-0.0394801
-0.0389174
-0.0383033
-0.0376374
-0.0369197
-0.0361504
-0.0353299
-0.0344588
-0.0335379
-0.0325684
-0.0315516
-0.0304888
-0.029382
-0.0282327
-0.0270433
-0.0258154
-0.0245518
-0.0232541
-0.0219254
-0.0205667
-0.0191817
-0.0177703
-0.0163372
-0.01488
-0.0134056
-0.0119073
-0.0103964
-0.00885848
-0.00731373
-0.00573304
-0.0041535
-0.00251902
-0.000891096
-0.038407
-0.0387873
-0.0391589
-0.0395207
-0.0398714
-0.04021
-0.040535
-0.0408453
-0.0411393
-0.0414157
-0.0416728
-0.0419092
-0.0421233
-0.0423134
-0.0424778
-0.0426149
-0.0427229
-0.0428001
-0.0428447
-0.042855
-0.0428293
-0.0427657
-0.0426627
-0.0425186
-0.0423317
-0.0421006
-0.0418239
-0.0415001
-0.0411282
-0.040707
-0.0402357
-0.0397133
-0.0391394
-0.0385136
-0.0378356
-0.0371055
-0.0363235
-0.0354901
-0.034606
-0.0336721
-0.0326896
-0.03166
-0.0305846
-0.0294655
-0.0283043
-0.0271036
-0.0258649
-0.0245913
-0.0232843
-0.0219471
-0.0205808
-0.0191891
-0.017772
-0.0163342
-0.0148733
-0.0133961
-0.0118961
-0.0103845
-0.00884654
-0.00730284
-0.00572356
-0.00414655
-0.00251441
-0.000890046
-0.0387919
-0.0391785
-0.039556
-0.0399233
-0.0402791
-0.0406223
-0.0409517
-0.0412658
-0.0415631
-0.0418423
-0.0421017
-0.0423398
-0.0425549
-0.0427454
-0.0429095
-0.0430456
-0.0431518
-0.0432265
-0.0432678
-0.043274
-0.0432433
-0.0431739
-0.0430642
-0.0429124
-0.0427171
-0.0424767
-0.0421898
-0.0418551
-0.0414713
-0.0410375
-0.0405527
-0.0400163
-0.0394276
-0.0387865
-0.0380927
-0.0373463
-0.0365477
-0.0356974
-0.0347963
-0.0338454
-0.0328459
-0.0317995
-0.0307077
-0.0295726
-0.028396
-0.0271804
-0.0259278
-0.0246411
-0.023322
-0.0219738
-0.0205976
-0.0191974
-0.0177729
-0.0163291
-0.0148635
-0.0133829
-0.0118807
-0.0103682
-0.00883036
-0.00728811
-0.00571082
-0.00413714
-0.00250825
-0.000888465
-0.0392641
-0.0396583
-0.0400431
-0.040417
-0.0407791
-0.041128
-0.0414626
-0.0417814
-0.0420828
-0.0423653
-0.0426275
-0.0428675
-0.0430839
-0.0432748
-0.0434385
-0.0435732
-0.0436772
-0.0437487
-0.0437859
-0.0437869
-0.0437499
-0.0436733
-0.0435552
-0.0433941
-0.0431883
-0.0429364
-0.0426369
-0.0422885
-0.0418901
-0.0414407
-0.0409394
-0.0403855
-0.0397787
-0.0391187
-0.0384053
-0.0376389
-0.0368199
-0.0359489
-0.0350268
-0.034055
-0.0330347
-0.0319677
-0.0308558
-0.029701
-0.0285055
-0.0272719
-0.0260023
-0.0246996
-0.0233658
-0.0220042
-0.0206161
-0.0192055
-0.0177721
-0.0163211
-0.0148498
-0.0133652
-0.0118605
-0.0103471
-0.0088096
-0.00726926
-0.00569463
-0.00412514
-0.00250046
-0.000886355
-0.0398213
-0.0402246
-0.0406178
-0.0409996
-0.041369
-0.0417246
-0.0420653
-0.0423895
-0.0426957
-0.0429822
-0.0432474
-0.0434898
-0.0437074
-0.0438987
-0.0440618
-0.0441949
-0.0442961
-0.0443637
-0.0443958
-0.0443906
-0.0443462
-0.0442608
-0.0441328
-0.0439604
-0.0437421
-0.0434764
-0.0431619
-0.0427973
-0.0423814
-0.0419134
-0.0413925
-0.040818
-0.0401896
-0.0395071
-0.0387706
-0.0379804
-0.0371372
-0.0362416
-0.0352949
-0.0342983
-0.0332534
-0.0321622
-0.0310264
-0.0298486
-0.0286308
-0.027376
-0.0260863
-0.024765
-0.023414
-0.0220369
-0.0206348
-0.0192121
-0.0177685
-0.0163092
-0.0148314
-0.0133424
-0.0118349
-0.0103207
-0.00878385
-0.00724598
-0.00567474
-0.00411037
-0.00249093
-0.000883685
-0.0404618
-0.0408755
-0.0412784
-0.0416692
-0.0420469
-0.0424103
-0.0427579
-0.0430883
-0.0433998
-0.0436907
-0.0439595
-0.0442043
-0.0444234
-0.044615
-0.0447772
-0.0449082
-0.0450062
-0.0450691
-0.0450953
-0.0450827
-0.0450295
-0.0449339
-0.0447942
-0.0446088
-0.0443759
-0.0440941
-0.0437621
-0.0433786
-0.0429425
-0.0424529
-0.0419092
-0.0413108
-0.0406574
-0.0399489
-0.0391857
-0.0383681
-0.0374968
-0.0365729
-0.0355977
-0.0345726
-0.0334994
-0.0323803
-0.0312172
-0.030013
-0.0287697
-0.0274907
-0.0261781
-0.0248355
-0.0234649
-0.0220701
-0.0206523
-0.019216
-0.0177609
-0.0162923
-0.0148075
-0.0133136
-0.0118033
-0.0102884
-0.00875263
-0.00721789
-0.00565086
-0.00409262
-0.00247955
-0.00088041
-0.0411846
-0.0416099
-0.0420237
-0.0424246
-0.0428116
-0.0431836
-0.0435389
-0.0438762
-0.0441936
-0.0444894
-0.044762
-0.0450095
-0.04523
-0.0454218
-0.0455829
-0.0457114
-0.0458054
-0.045863
-0.0458822
-0.045861
-0.0457977
-0.0456904
-0.0455373
-0.0453368
-0.0450872
-0.044787
-0.044435
-0.04403
-0.0435708
-0.0430567
-0.042487
-0.0418613
-0.0411794
-0.0404415
-0.0396479
-0.0387991
-0.0378962
-0.0369402
-0.0359327
-0.0348754
-0.0337703
-0.0326197
-0.0314259
-0.0301918
-0.02892
-0.0276137
-0.0262756
-0.0249092
-0.0235167
-0.0221023
-0.0206671
-0.0192158
-0.0177481
-0.0162694
-0.0147769
-0.013278
-0.0117648
-0.0102497
-0.00871542
-0.00718455
-0.00562267
-0.00407168
-0.00246617
-0.000876481
-0.0419888
-0.042427
-0.0428528
-0.0432649
-0.0436622
-0.0440435
-0.0444074
-0.0447522
-0.045076
-0.0453772
-0.0456538
-0.0459041
-0.0461261
-0.0463179
-0.0464775
-0.046603
-0.0466923
-0.0467436
-0.0467548
-0.0467239
-0.0466491
-0.0465284
-0.0463601
-0.0461425
-0.045874
-0.0455532
-0.0451786
-0.0447492
-0.044264
-0.0437223
-0.0431234
-0.0424671
-0.0417533
-0.0409824
-0.0401547
-0.0392711
-0.0383327
-0.0373409
-0.0362974
-0.0352042
-0.0340635
-0.0328779
-0.03165
-0.0303829
-0.0290794
-0.0277431
-0.0263766
-0.0249841
-0.0235677
-0.0221317
-0.0206776
-0.0192099
-0.0177287
-0.0162393
-0.0147387
-0.0132346
-0.0117188
-0.0102037
-0.00867167
-0.00714554
-0.00558983
-0.00404731
-0.00245065
-0.000871845
-0.042874
-0.0433263
-0.0437653
-0.0441895
-0.044598
-0.0449896
-0.0453628
-0.0457157
-0.0460464
-0.0463532
-0.0466341
-0.0468873
-0.0471106
-0.0473022
-0.0474599
-0.0475818
-0.0476659
-0.0477099
-0.047712
-0.0476701
-0.0475822
-0.0474464
-0.0472611
-0.0470243
-0.0467347
-0.0463906
-0.0459909
-0.0455344
-0.0450202
-0.0444477
-0.0438163
-0.043126
-0.0423768
-0.0415692
-0.0407038
-0.0397816
-0.038804
-0.0377726
-0.0366893
-0.0355565
-0.0343766
-0.0331525
-0.0318871
-0.0305838
-0.0292456
-0.0278765
-0.0264793
-0.0250582
-0.0236159
-0.0221567
-0.0206821
-0.0191971
-0.0177014
-0.0162006
-0.0146918
-0.0131825
-0.0116643
-0.0101499
-0.0086208
-0.00710038
-0.00555197
-0.00401924
-0.00243283
-0.000866446
-0.0438401
-0.0443078
-0.044761
-0.0451984
-0.045619
-0.0460216
-0.0464047
-0.0467662
-0.0471044
-0.0474171
-0.0477025
-0.0479585
-0.0481831
-0.0483742
-0.0485297
-0.0486473
-0.0487251
-0.048761
-0.0487527
-0.0486983
-0.0485958
-0.0484433
-0.0482388
-0.0479808
-0.0476676
-0.0472979
-0.0468702
-0.0463837
-0.0458375
-0.0452309
-0.0445637
-0.0438359
-0.0430477
-0.0421997
-0.0412928
-0.0403282
-0.0393076
-0.0382328
-0.037106
-0.0359299
-0.0347072
-0.0334412
-0.032135
-0.0307923
-0.0294165
-0.0280118
-0.0265814
-0.0251297
-0.0236595
-0.0221754
-0.0206791
-0.0191756
-0.0176648
-0.0161523
-0.0146351
-0.0131208
-0.0116006
-0.0100874
-0.00856222
-0.00704861
-0.00550875
-0.00398722
-0.00241258
-0.00086023
-0.0448874
-0.0453715
-0.0458401
-0.0462916
-0.0467251
-0.0471395
-0.0475331
-0.0479039
-0.0482498
-0.0485687
-0.0488587
-0.0491175
-0.0493432
-0.0495335
-0.0496863
-0.0497989
-0.0498696
-0.049896
-0.0498762
-0.0498079
-0.0496891
-0.0495179
-0.0492924
-0.0490108
-0.0486717
-0.0482735
-0.0478152
-0.0472956
-0.0467142
-0.0460703
-0.0453638
-0.0445949
-0.043764
-0.0428719
-0.0419196
-0.0409088
-0.0398413
-0.0387192
-0.0375452
-0.0363221
-0.035053
-0.0337415
-0.0323912
-0.031006
-0.0295898
-0.0281469
-0.0266808
-0.0251964
-0.0236965
-0.0221861
-0.0206669
-0.0191441
-0.0176176
-0.0160931
-0.0145675
-0.0130484
-0.0115269
-0.0100157
-0.00849534
-0.00698974
-0.0054598
-0.00395099
-0.00238972
-0.000853138
-0.0460163
-0.046518
-0.047003
-0.0474695
-0.0479168
-0.0483437
-0.0487485
-0.0491289
-0.0494829
-0.0498082
-0.0501028
-0.0503644
-0.0505907
-0.0507796
-0.0509287
-0.0510359
-0.0510986
-0.0511147
-0.051082
-0.0509982
-0.0508615
-0.0506696
-0.0504208
-0.0501134
-0.0497457
-0.0493164
-0.0488244
-0.0482687
-0.0476488
-0.0469642
-0.0462149
-0.0454012
-0.0445238
-0.0435836
-0.0425822
-0.0415212
-0.0404028
-0.0392296
-0.0380044
-0.0367306
-0.0354115
-0.0340511
-0.0326534
-0.0312227
-0.0297632
-0.0282795
-0.0267756
-0.0252564
-0.0237252
-0.0221871
-0.0206439
-0.019101
-0.0175583
-0.0160218
-0.0144879
-0.0129645
-0.0114422
-0.00993403
-0.0084196
-0.00692333
-0.00540476
-0.0039103
-0.00236411
-0.000845114
-0.0472274
-0.047748
-0.0482503
-0.0487327
-0.0491946
-0.0496347
-0.0500512
-0.0504417
-0.0508041
-0.051136
-0.0514351
-0.0516993
-0.0519261
-0.0521131
-0.0522581
-0.0523587
-0.0524124
-0.0524168
-0.0523697
-0.0522689
-0.0521123
-0.0518978
-0.0516234
-0.0512876
-0.0508888
-0.0504256
-0.0498968
-0.0493018
-0.04864
-0.0479111
-0.0471152
-0.046253
-0.0453252
-0.0443331
-0.0432784
-0.0421632
-0.04099
-0.0397617
-0.0384815
-0.0371531
-0.0357804
-0.0343677
-0.0329193
-0.0314401
-0.0299345
-0.0284076
-0.0268635
-0.0253078
-0.0237436
-0.0221765
-0.0206084
-0.0190448
-0.0174857
-0.015937
-0.0143952
-0.012868
-0.0113458
-0.00984165
-0.00833441
-0.0068489
-0.00534329
-0.0038649
-0.00233561
-0.000836105
-0.0485217
-0.0490621
-0.0495828
-0.0500821
-0.0505593
-0.0510132
-0.0514419
-0.051843
-0.052214
-0.0525525
-0.0528563
-0.0531228
-0.0533496
-0.0535343
-0.0536744
-0.0537675
-0.0538109
-0.0538023
-0.0537394
-0.0536198
-0.0534413
-0.0532019
-0.0528998
-0.052533
-0.0521002
-0.0516
-0.0510314
-0.0503937
-0.0496865
-0.0489096
-0.0480635
-0.0471487
-0.0461665
-0.0451185
-0.0440064
-0.0428329
-0.0416008
-0.0403133
-0.0389742
-0.0375875
-0.0361574
-0.034689
-0.0331867
-0.0316559
-0.0301014
-0.0285289
-0.0269426
-0.0253484
-0.0237499
-0.0221526
-0.0205588
-0.0189741
-0.0173984
-0.0158377
-0.0142883
-0.0127581
-0.0112369
-0.00973793
-0.00823923
-0.00676603
-0.00527505
-0.00381456
-0.00230406
-0.000826057
-0.0499002
-0.0504616
-0.0510016
-0.0515185
-0.0520118
-0.0524802
-0.0529216
-0.0533336
-0.0537134
-0.0540587
-0.0543668
-0.0546354
-0.0548619
-0.0550436
-0.055178
-0.0552625
-0.0552945
-0.0552715
-0.055191
-0.0550507
-0.0548484
-0.0545819
-0.0542494
-0.053849
-0.0533793
-0.0528391
-0.0522273
-0.0515435
-0.0507871
-0.0499585
-0.0490581
-0.0480869
-0.0470462
-0.0459379
-0.0447643
-0.0435283
-0.042233
-0.0408823
-0.0394802
-0.0380313
-0.0365403
-0.0350126
-0.0334531
-0.0318679
-0.0302619
-0.0286413
-0.0270108
-0.0253765
-0.0237422
-0.0221138
-0.0204936
-0.0188874
-0.0172951
-0.0157227
-0.0141663
-0.0126339
-0.0111147
-0.00962222
-0.00813355
-0.00667429
-0.00519972
-0.00375905
-0.00226934
-0.000814919
-0.051364
-0.0519475
-0.0525079
-0.0530432
-0.0535532
-0.0540367
-0.0544913
-0.0549144
-0.0553033
-0.0556552
-0.0559677
-0.056238
-0.0564635
-0.0566415
-0.0567693
-0.0568441
-0.0568634
-0.0568245
-0.0567248
-0.0565619
-0.0563335
-0.0560375
-0.055672
-0.0552352
-0.0547256
-0.0541421
-0.0534837
-0.0527501
-0.0519409
-0.0510566
-0.0500979
-0.049066
-0.0479625
-0.0467897
-0.0455502
-0.0442473
-0.0428847
-0.0414666
-0.0399975
-0.0384824
-0.0369268
-0.0353362
-0.0337165
-0.0320738
-0.0304137
-0.0287427
-0.0270661
-0.02539
-0.0237187
-0.0220583
-0.0204112
-0.0187833
-0.0171745
-0.0155909
-0.0140282
-0.0124945
-0.0109786
-0.00949394
-0.00801686
-0.0065733
-0.00511703
-0.00369815
-0.00223133
-0.000802645
-0.0529146
-0.0535213
-0.0541028
-0.0546574
-0.0551849
-0.0556839
-0.0561521
-0.0565866
-0.0569846
-0.0573432
-0.0576597
-0.0579313
-0.0581553
-0.0583289
-0.058449
-0.0585131
-0.0585182
-0.0584617
-0.0583409
-0.0581534
-0.0578967
-0.0575687
-0.0571675
-0.0566913
-0.0561387
-0.0555085
-0.0548
-0.0540128
-0.0531469
-0.0522028
-0.0511815
-0.0500846
-0.0489139
-0.0476721
-0.0463623
-0.0449882
-0.0435539
-0.042064
-0.0405237
-0.0389387
-0.0373146
-0.0356578
-0.0339744
-0.0322714
-0.0305546
-0.0288311
-0.0271064
-0.0253871
-0.0236777
-0.0219845
-0.0203101
-0.0186605
-0.0170354
-0.0154411
-0.013873
-0.0123391
-0.0108278
-0.0093525
-0.00788872
-0.0064627
-0.00502668
-0.00363169
-0.0021899
-0.00078919
-0.0545534
-0.0551843
-0.0557879
-0.0563626
-0.0569081
-0.0574232
-0.0579053
-0.0583515
-0.0587585
-0.0591237
-0.0594439
-0.0597165
-0.0599383
-0.0601064
-0.0602179
-0.0602699
-0.0602594
-0.0601837
-0.0600399
-0.0598255
-0.0595382
-0.0591756
-0.0587359
-0.0582172
-0.0576182
-0.0569378
-0.0561754
-0.0553308
-0.054404
-0.0533959
-0.0523078
-0.0511413
-0.049899
-0.0485837
-0.047199
-0.045749
-0.0442384
-0.0426725
-0.0410569
-0.0393977
-0.0377014
-0.0359749
-0.0342248
-0.0324585
-0.0306826
-0.0289043
-0.0271298
-0.0253659
-0.0236174
-0.0218909
-0.0201889
-0.0185176
-0.0168767
-0.0152723
-0.0136998
-0.012167
-0.0106617
-0.0091974
-0.0077487
-0.00634215
-0.00492844
-0.00355948
-0.00214497
-0.000774516
-0.0562819
-0.0569381
-0.0575647
-0.0581601
-0.0587242
-0.0592558
-0.0597523
-0.0602102
-0.0606264
-0.0609979
-0.0613215
-0.0615944
-0.0618133
-0.0619752
-0.0620769
-0.0621154
-0.0620878
-0.061991
-0.0618222
-0.0615787
-0.0612582
-0.0608583
-0.060377
-0.0598127
-0.0591639
-0.0584297
-0.0576096
-0.0567034
-0.0557116
-0.0546351
-0.0534755
-0.052235
-0.0509162
-0.0495227
-0.0480583
-0.0465278
-0.0449365
-0.0432901
-0.0415948
-0.0398575
-0.0380852
-0.0362854
-0.0344654
-0.032633
-0.0307954
-0.0289604
-0.0271343
-0.0253246
-0.0235362
-0.0217758
-0.0200461
-0.0183534
-0.0166972
-0.0150837
-0.0135078
-0.0119774
-0.0104797
-0.00902816
-0.00759643
-0.00621137
-0.00482209
-0.00348137
-0.00209644
-0.000758586
-0.0581019
-0.0587843
-0.0594347
-0.0600515
-0.0606348
-0.0611834
-0.0616944
-0.0621642
-0.0625895
-0.062967
-0.0632937
-0.0635663
-0.0637815
-0.0639361
-0.0640268
-0.0640504
-0.064004
-0.0638842
-0.0636883
-0.0634134
-0.063057
-0.062617
-0.0620911
-0.0614777
-0.0607756
-0.0599838
-0.059102
-0.0581301
-0.0570688
-0.0559194
-0.0546837
-0.0533642
-0.0519642
-0.0504875
-0.0489387
-0.047323
-0.0456461
-0.0439146
-0.0421354
-0.0403159
-0.0384637
-0.0365871
-0.034694
-0.0327928
-0.0308911
-0.0289974
-0.0271182
-0.0252615
-0.0234323
-0.0216377
-0.0198804
-0.0181666
-0.0164959
-0.0148742
-0.0132963
-0.0117697
-0.0102813
-0.00884435
-0.00743157
-0.0060701
-0.00470745
-0.00339724
-0.00204424
-0.00074137
-0.060015
-0.0607246
-0.0613996
-0.0620384
-0.0626415
-0.0632074
-0.0637331
-0.0642148
-0.0646491
-0.0650325
-0.0653617
-0.0656333
-0.065844
-0.0659902
-0.0660685
-0.0660759
-0.0660088
-0.0658641
-0.0656388
-0.06533
-0.0649352
-0.0644519
-0.0638782
-0.0632124
-0.0624533
-0.0615999
-0.0606521
-0.0596101
-0.0584748
-0.0572478
-0.0559312
-0.0545279
-0.0530417
-0.0514768
-0.0498385
-0.0481325
-0.0463653
-0.0445441
-0.0426765
-0.0407706
-0.0388347
-0.0368778
-0.0349084
-0.0329356
-0.0309676
-0.0290132
-0.0270796
-0.0251748
-0.0233043
-0.0214753
-0.0196905
-0.0179563
-0.0162718
-0.0146431
-0.0130645
-0.0115434
-0.010066
-0.0086456
-0.00725384
-0.00591811
-0.00458436
-0.00330697
-0.0019883
-0.00072284
-0.0620231
-0.0627608
-0.0634611
-0.0641226
-0.0647458
-0.0653294
-0.0658699
-0.0663636
-0.0668067
-0.0671955
-0.0675267
-0.0677967
-0.0680019
-0.0681385
-0.0682032
-0.0681926
-0.0681031
-0.0679314
-0.0676744
-0.0673291
-0.0668929
-0.0663635
-0.0657386
-0.0650168
-0.0641967
-0.0632777
-0.0622597
-0.0611431
-0.0599291
-0.0586195
-0.057217
-0.0557248
-0.0541471
-0.0524889
-0.050756
-0.0489547
-0.0470923
-0.0451767
-0.0432161
-0.0412196
-0.0391961
-0.0371554
-0.0351066
-0.0330595
-0.0310229
-0.0290061
-0.0270166
-0.0250629
-0.0231506
-0.0212872
-0.0194752
-0.0177212
-0.016024
-0.0143896
-0.0128118
-0.011298
-0.00983342
-0.00843159
-0.00706299
-0.00575524
-0.0044527
-0.00321049
-0.00192858
-0.000702976
-0.064128
-0.0648946
-0.0656209
-0.0663057
-0.0669495
-0.0675509
-0.0681065
-0.068612
-0.0690636
-0.0694575
-0.06979
-0.0700576
-0.0702563
-0.0703824
-0.0704319
-0.0704016
-0.0702877
-0.0700868
-0.0697957
-0.0694113
-0.0689309
-0.068352
-0.0676726
-0.0668909
-0.066006
-0.0650172
-0.0639245
-0.0627286
-0.061431
-0.0600338
-0.0585401
-0.0569537
-0.0552793
-0.0535225
-0.0516896
-0.0497878
-0.0478252
-0.0458102
-0.0437522
-0.0416607
-0.0395458
-0.0374177
-0.0352865
-0.0331625
-0.031055
-0.0289741
-0.0269275
-0.0249242
-0.0229698
-0.021072
-0.0192334
-0.0174604
-0.0157516
-0.014113
-0.0125376
-0.0110328
-0.00958322
-0.00820206
-0.00685883
-0.00558134
-0.00431237
-0.00310772
-0.00186505
-0.000681761
-0.0663315
-0.0671279
-0.0678809
-0.0685893
-0.069254
-0.0698735
-0.0704441
-0.0709614
-0.0714213
-0.0718197
-0.0721529
-0.0724171
-0.0726083
-0.072723
-0.0727555
-0.0727037
-0.0725634
-0.0723312
-0.0720035
-0.0715772
-0.0710495
-0.0704179
-0.0696803
-0.068835
-0.0678811
-0.0668181
-0.065646
-0.064366
-0.0629798
-0.0614898
-0.0598996
-0.0582135
-0.0564369
-0.0545759
-0.0526376
-0.0506301
-0.048562
-0.0464428
-0.0442826
-0.042092
-0.0398816
-0.0376626
-0.0354459
-0.0332424
-0.0310621
-0.0289154
-0.0268106
-0.0247571
-0.0227605
-0.0208286
-0.018964
-0.017173
-0.015454
-0.0138126
-0.0122415
-0.0107477
-0.0093151
-0.0079568
-0.00664123
-0.00539633
-0.00416332
-0.00299863
-0.00179769
-0.000659183
-0.0686354
-0.0694624
-0.0702426
-0.0709751
-0.0716611
-0.0722988
-0.0728845
-0.0734133
-0.073881
-0.0742834
-0.0746166
-0.0748763
-0.0750585
-0.0751589
-0.0751744
-0.0750996
-0.0749311
-0.0746652
-0.0742984
-0.0738274
-0.0732493
-0.0725616
-0.0717621
-0.0708493
-0.0698222
-0.0686803
-0.0674243
-0.0660551
-0.064575
-0.0629868
-0.0612946
-0.0595032
-0.0576187
-0.0556478
-0.0535985
-0.0514797
-0.0493009
-0.0470725
-0.0448054
-0.0425112
-0.0402014
-0.0378881
-0.0355828
-0.0332973
-0.0310421
-0.0288283
-0.0266644
-0.0245601
-0.0225213
-0.0205558
-0.018666
-0.0168582
-0.0151304
-0.013488
-0.011923
-0.0104423
-0.00902884
-0.00769568
-0.0064101
-0.00520014
-0.00400552
-0.0028832
-0.0017265
-0.000635236
-0.0710417
-0.0719
-0.0727079
-0.0734649
-0.0741723
-0.0748284
-0.0754289
-0.0759691
-0.0764442
-0.07685
-0.0771823
-0.0774368
-0.0776091
-0.077695
-0.0776903
-0.0775906
-0.0773917
-0.0770897
-0.0766812
-0.0761626
-0.0755309
-0.0747836
-0.0739185
-0.072934
-0.0718292
-0.070604
-0.0692589
-0.0677954
-0.066216
-0.0645241
-0.0627241
-0.0608217
-0.0588233
-0.0567368
-0.0545708
-0.052335
-0.05004
-0.0476972
-0.0453185
-0.0429163
-0.0405031
-0.038092
-0.0356952
-0.0333253
-0.0309934
-0.028711
-0.0264873
-0.0243319
-0.022251
-0.0202525
-0.0183385
-0.0165152
-0.0147802
-0.0131386
-0.0115817
-0.0101163
-0.0087243
-0.00741859
-0.00616539
-0.00499278
-0.00383899
-0.00276146
-0.00165149
-0.000609918
-0.0735521
-0.0744423
-0.0752784
-0.0760602
-0.0767891
-0.0774635
-0.0780789
-0.0786301
-0.0791122
-0.0795207
-0.0798513
-0.0800995
-0.0802607
-0.0803304
-0.0803042
-0.0801775
-0.079946
-0.0796056
-0.0791526
-0.0785834
-0.0778949
-0.0770844
-0.0761497
-0.0750893
-0.0739025
-0.072589
-0.0711498
-0.0695867
-0.0679025
-0.066101
-0.0641874
-0.0621678
-0.0600496
-0.0578414
-0.0555527
-0.0531942
-0.0507776
-0.0483152
-0.0458198
-0.0433052
-0.0407847
-0.0382723
-0.0357811
-0.0333244
-0.0309141
-0.028562
-0.0262776
-0.0240711
-0.0219485
-0.0199177
-0.0179807
-0.0161434
-0.0144029
-0.0127641
-0.0112176
-0.00976959
-0.00840138
-0.00712552
-0.00590712
-0.00477426
-0.00366377
-0.00263344
-0.0015727
-0.000583234
-0.0761685
-0.0770911
-0.0779557
-0.0787624
-0.0795131
-0.0802057
-0.0808357
-0.0813975
-0.081886
-0.0822966
-0.0826247
-0.0828655
-0.0830143
-0.0830663
-0.0830168
-0.0828612
-0.0825949
-0.0822136
-0.0817133
-0.0810905
-0.0803418
-0.0794644
-0.0784562
-0.0773157
-0.076042
-0.0746354
-0.0730969
-0.0714287
-0.0696338
-0.0677169
-0.0656835
-0.0635406
-0.0612964
-0.0589602
-0.0565428
-0.0540557
-0.0515117
-0.0489243
-0.0463075
-0.043676
-0.0410442
-0.0384271
-0.0358386
-0.033293
-0.0308024
-0.0283796
-0.0260342
-0.0237765
-0.0216127
-0.0195505
-0.0175918
-0.0157422
-0.0139982
-0.0123642
-0.0108302
-0.00940208
-0.00806007
-0.00681648
-0.00563535
-0.00454468
-0.00347994
-0.00249918
-0.00149016
-0.000555191
-0.0788924
-0.0798479
-0.0807413
-0.0815731
-0.0823454
-0.0830562
-0.0837005
-0.0842725
-0.0847668
-0.0851787
-0.0855033
-0.0857356
-0.0858706
-0.0859034
-0.085829
-0.0856425
-0.0853391
-0.0849144
-0.0843641
-0.0836845
-0.0828722
-0.0819242
-0.0808384
-0.0796133
-0.0782482
-0.0767433
-0.0751001
-0.073321
-0.0714097
-0.0693711
-0.0672117
-0.0649391
-0.0625624
-0.0600919
-0.0575394
-0.0549177
-0.0522406
-0.0495228
-0.0467795
-0.0440265
-0.0412795
-0.0385543
-0.0358658
-0.033229
-0.0306568
-0.0281623
-0.0257555
-0.0234469
-0.0212425
-0.0191502
-0.0171713
-0.0153111
-0.0135656
-0.0119387
-0.0104196
-0.00901375
-0.00770042
-0.00649158
-0.0053502
-0.00430413
-0.0032876
-0.00235879
-0.00140393
-0.000525803
-0.0817257
-0.0827144
-0.0836367
-0.0844936
-0.0852875
-0.0860162
-0.0866744
-0.087256
-0.0877556
-0.0881679
-0.088488
-0.0887107
-0.0888307
-0.0888427
-0.0887415
-0.0885221
-0.0881794
-0.0877087
-0.0871056
-0.0863662
-0.0854867
-0.0844644
-0.0832968
-0.0819826
-0.0805211
-0.0789128
-0.0771594
-0.0752636
-0.0732296
-0.0710632
-0.0687712
-0.0663623
-0.0638464
-0.0612351
-0.0585411
-0.0557786
-0.0529624
-0.0501087
-0.0472338
-0.0443549
-0.0414886
-0.038652
-0.0358608
-0.0331308
-0.0304756
-0.0279087
-0.0254403
-0.0230811
-0.0208371
-0.018716
-0.0167185
-0.0148498
-0.0131049
-0.0114875
-0.00998574
-0.00860466
-0.00732253
-0.00615096
-0.00505182
-0.00405279
-0.0030869
-0.00221235
-0.00131408
-0.000495088
-0.0846696
-0.0856918
-0.0866431
-0.0875251
-0.0883403
-0.0890867
-0.0897584
-0.0903491
-0.0908531
-0.0912651
-0.0915797
-0.0917915
-0.0918951
-0.0918847
-0.0917551
-0.0915008
-0.0911166
-0.0905973
-0.0899386
-0.089136
-0.088186
-0.0870854
-0.0858318
-0.0844239
-0.0828611
-0.081144
-0.0792746
-0.0772562
-0.0750933
-0.0727924
-0.0703612
-0.0678092
-0.0651474
-0.0623885
-0.0595464
-0.0566365
-0.0536753
-0.05068
-0.0476685
-0.044659
-0.0416696
-0.0387183
-0.0358218
-0.0329967
-0.0302572
-0.0276173
-0.0250874
-0.0226783
-0.0203957
-0.0182472
-0.0162331
-0.0143578
-0.0126159
-0.0110105
-0.00952864
-0.00817493
-0.00692659
-0.00579481
-0.00474043
-0.00379083
-0.002878
-0.00205999
-0.0012207
-0.000463067
-0.0877257
-0.0887814
-0.0897617
-0.0906685
-0.0915049
-0.0922685
-0.0929532
-0.0935524
-0.0940601
-0.0944708
-0.0947789
-0.0949788
-0.0950645
-0.0950302
-0.0948704
-0.0945792
-0.0941511
-0.0935809
-0.0928636
-0.0919948
-0.0909706
-0.0897878
-0.088444
-0.0869377
-0.0852684
-0.0834372
-0.081446
-0.0792987
-0.0770005
-0.0745584
-0.071981
-0.0692789
-0.0664641
-0.0635506
-0.0605536
-0.05749
-0.0543775
-0.0512349
-0.0480816
-0.044937
-0.0418205
-0.0387513
-0.035747
-0.0328251
-0.0300002
-0.0272869
-0.0246957
-0.0222374
-0.0199176
-0.0177434
-0.0157145
-0.0138351
-0.0120987
-0.0105077
-0.00904846
-0.00772476
-0.00651283
-0.0054234
-0.00441628
-0.0035185
-0.00266111
-0.00190187
-0.00112388
-0.000429767
-0.0908952
-0.0919844
-0.0929933
-0.0939247
-0.0947818
-0.0955622
-0.0962594
-0.0968664
-0.0973771
-0.0977856
-0.0980862
-0.0982728
-0.0983393
-0.0982797
-0.0980879
-0.0977579
-0.0972837
-0.0966599
-0.0958812
-0.094943
-0.0938412
-0.0925723
-0.0911339
-0.0895244
-0.0877436
-0.0857924
-0.0836735
-0.081391
-0.0789508
-0.0763605
-0.0736299
-0.0707704
-0.0677954
-0.0647202
-0.0615613
-0.0583372
-0.0550672
-0.0517716
-0.0484711
-0.0451869
-0.0419394
-0.0387491
-0.0356347
-0.0326143
-0.0297032
-0.0269162
-0.0242641
-0.0217577
-0.019402
-0.017204
-0.0151627
-0.0132816
-0.0115532
-0.00997942
-0.0085454
-0.00725441
-0.00608155
-0.00503703
-0.00407966
-0.00323605
-0.00243645
-0.00173814
-0.00102374
-0.000395217
-0.094179
-0.0953015
-0.0963388
-0.0972943
-0.0981718
-0.0989684
-0.0996774
-0.100292
-0.100804
-0.10121
-0.101502
-0.101674
-0.10172
-0.101633
-0.101408
-0.101037
-0.100515
-0.0998349
-0.0989921
-0.0979814
-0.0967983
-0.0954394
-0.093902
-0.0921845
-0.0902868
-0.0882101
-0.0859573
-0.0835331
-0.0809439
-0.0781985
-0.0753072
-0.072283
-0.0691403
-0.0658959
-0.062568
-0.0591766
-0.0557426
-0.052288
-0.0488352
-0.0454067
-0.0420245
-0.0387101
-0.0354832
-0.0323628
-0.0293647
-0.0265041
-0.0237918
-0.0212383
-0.0188485
-0.0166288
-0.0145773
-0.0126971
-0.0109795
-0.00942572
-0.00801976
-0.00676424
-0.00563312
-0.00463606
-0.00373093
-0.00294379
-0.00220428
-0.00156899
-0.000920377
-0.000359451
-0.097578
-0.0987335
-0.0997987
-0.100778
-0.101675
-0.102487
-0.103207
-0.103828
-0.104342
-0.104743
-0.105026
-0.105182
-0.105207
-0.105092
-0.104831
-0.104418
-0.103845
-0.103106
-0.102197
-0.10111
-0.0998426
-0.0983897
-0.0967488
-0.0949185
-0.0928986
-0.0906906
-0.0882976
-0.0857249
-0.0829798
-0.0800717
-0.0770124
-0.0738156
-0.0704976
-0.0670765
-0.0635722
-0.0600064
-0.0564019
-0.0527824
-0.0491719
-0.0455945
-0.0420737
-0.0386323
-0.0352908
-0.0320692
-0.0289836
-0.0260496
-0.0232778
-0.0206788
-0.0182567
-0.0160175
-0.0139584
-0.0120818
-0.0103778
-0.00884693
-0.00747189
-0.00625463
-0.00516795
-0.0042209
-0.00337046
-0.00264205
-0.00196487
-0.00139461
-0.000813939
-0.000322504
-0.101093
-0.102281
-0.103373
-0.104375
-0.105292
-0.106119
-0.106849
-0.107475
-0.10799
-0.108386
-0.108658
-0.108798
-0.1088
-0.108655
-0.108357
-0.107899
-0.107274
-0.106475
-0.105496
-0.104331
-0.102975
-0.101424
-0.0996751
-0.097727
-0.0955795
-0.0932341
-0.0906945
-0.0879666
-0.0850583
-0.08198
-0.0787447
-0.0753675
-0.0718662
-0.0682605
-0.0645723
-0.0608251
-0.0570434
-0.0532528
-0.0494793
-0.0457486
-0.0420855
-0.0385141
-0.0350561
-0.031732
-0.0285586
-0.0255516
-0.0227214
-0.0200784
-0.0176262
-0.0153699
-0.013306
-0.0114358
-0.00974842
-0.00824343
-0.00690223
-0.00572606
-0.00468652
-0.00379201
-0.00299867
-0.0023312
-0.00171852
-0.00121522
-0.000704561
-0.000284416
-0.104724
-0.105943
-0.107062
-0.108087
-0.109021
-0.109863
-0.110603
-0.111233
-0.111747
-0.112138
-0.112398
-0.112521
-0.112499
-0.112323
-0.111987
-0.111483
-0.110803
-0.109941
-0.10889
-0.107643
-0.106195
-0.104542
-0.102681
-0.100611
-0.0983299
-0.0958411
-0.0931484
-0.0902581
-0.0871791
-0.0839229
-0.0805036
-0.0769378
-0.0732451
-0.0694469
-0.065567
-0.0616309
-0.0576652
-0.0536975
-0.0497556
-0.0458669
-0.0420579
-0.0383539
-0.0347775
-0.0313501
-0.0280887
-0.0250093
-0.022122
-0.0194369
-0.0169568
-0.0146861
-0.0126202
-0.0107595
-0.00909174
-0.00761566
-0.00631129
-0.00517903
-0.00418934
-0.00334987
-0.00261601
-0.00201161
-0.00146555
-0.00103106
-0.000592389
-0.000245228
-0.108471
-0.109721
-0.110866
-0.111912
-0.112864
-0.113718
-0.114467
-0.115101
-0.115614
-0.115998
-0.116246
-0.11635
-0.116302
-0.116095
-0.115719
-0.115167
-0.114432
-0.113505
-0.112379
-0.111047
-0.109505
-0.107746
-0.105769
-0.10357
-0.10115
-0.0985122
-0.0956596
-0.0925997
-0.0893424
-0.0859002
-0.0822885
-0.0785258
-0.0746332
-0.0706342
-0.0665547
-0.0624222
-0.0582656
-0.0541146
-0.0499989
-0.0459478
-0.0419892
-0.0381499
-0.0344536
-0.030922
-0.0275728
-0.0244218
-0.021479
-0.0187538
-0.0162483
-0.0139661
-0.0119012
-0.0100531
-0.0084082
-0.00696417
-0.00569963
-0.00461415
-0.00367699
-0.00289503
-0.00222298
-0.00168371
-0.00120631
-0.000842348
-0.000477581
-0.000204982
-0.112334
-0.113614
-0.114783
-0.115849
-0.116818
-0.117685
-0.118441
-0.119079
-0.119589
-0.119966
-0.1202
-0.120285
-0.120211
-0.119971
-0.119554
-0.118954
-0.11816
-0.117166
-0.115963
-0.114544
-0.112904
-0.111036
-0.108937
-0.106606
-0.104042
-0.101248
-0.0982284
-0.0949916
-0.091548
-0.0879115
-0.084099
-0.0801307
-0.0760295
-0.0718212
-0.0675339
-0.0631974
-0.0588428
-0.0545023
-0.0502073
-0.0459893
-0.0418778
-0.0379008
-0.0340829
-0.0304467
-0.02701
-0.0237885
-0.0207919
-0.018029
-0.0155007
-0.01321
-0.0111493
-0.00931715
-0.00769833
-0.00628953
-0.00506787
-0.00403204
-0.00315009
-0.00242805
-0.00182008
-0.00134792
-0.000941137
-0.000649351
-0.000360297
-0.000163725
-0.117621
-0.118813
-0.119898
-0.120882
-0.121761
-0.122524
-0.123164
-0.123671
-0.12404
-0.12426
-0.124325
-0.124224
-0.12395
-0.123492
-0.122841
-0.121989
-0.120926
-0.119644
-0.118135
-0.116393
-0.114412
-0.112188
-0.109719
-0.107005
-0.104048
-0.100855
-0.0974339
-0.093796
-0.0899567
-0.0859346
-0.0817516
-0.077433
-0.0730067
-0.0685032
-0.0639548
-0.0593952
-0.0548587
-0.0503791
-0.0459898
-0.041722
-0.0376049
-0.0336642