/*--------------------------------*- C++ -*----------------------------------*\
  =========                 |
  \\      /  F ield         | OpenFOAM: The Open Source CFD Toolbox
   \\    /   O peration     | Website:  https://openfoam.org
    \\  /    A nd           | Version:  7
     \\/     M anipulation  |
\*---------------------------------------------------------------------------*/
FoamFile
{
    version     2.0;
    format      ascii;
    class       volScalarField;
    location    "14";
    object      p;
}
// * * * * * * * * * * * * * * * * * * * * * * * * * * * * * * * * * * * * * //

dimensions      [0 2 -2 0 0 0 0];

internalField   nonuniform List<scalar> 
433
(
-520.248
-493.84
-469.847
-444.135
-413.831
-298.302
-279.549
-263.487
-247.457
-227.952
-203.222
-172.396
-136.917
-100.344
407.601
394.709
382.624
362.407
332.802
301.199
271.639
244.598
218.116
190.32
160.95
131.364
103.131
444.606
424.025
403.89
374.748
333.581
287.336
241.93
200.482
163.445
130.85
102.733
78.9595
59.5501
44.0827
31.8866
22.3306
14.9279
-191.605
-184.974
-180.324
-177.788
-176.377
-173.676
-167.573
-157.732
-144.924
-130.192
-114.242
-97.2528
-79.8432
-63.0198
-47.8579
-35.1286
-25.1018
-17.6129
-12.2623
-8.59265
-559.209
-528.05
-499.638
-469.213
-433.206
-392.476
-347.39
-299.668
-251.721
-206.432
-165.884
-131.147
-102.12
-78.0599
-58.283
-42.3768
-30.0355
-20.8668
-14.3214
-9.80611
-6.80297
-4.87991
-3.69178
-2.98824
-1.70988
3.88147
7.66161
8.10791
7.48442
9.97495
17.9009
30.4476
43.7017
52.9153
55.152
50.6284
41.866
31.8844
22.7366
15.3086
9.70331
5.67264
2.87276
0.985478
-0.244617
-1.01824
-1.48152
-1.74734
-1.88843
-1.95781
-1.98632
534.478
514.157
495.86
468.514
428.869
384.315
339.375
296.235
255.23
216.117
179.016
144.436
113.137
85.9141
63.2165
44.9969
30.8599
20.2616
12.5872
7.22259
3.61893
1.30112
-0.125954
-0.95998
-1.42439
-1.66699
-1.78127
-1.82504
-1.83232
-1.82197
244.002
230.843
216.523
194.666
163.709
129.985
98.8412
72.4002
50.6126
33.4055
20.451
11.4997
6.14493
3.35922
2.01938
1.2937
0.740163
0.203991
-0.301916
-0.721151
-1.05243
-1.29992
-1.47053
-1.5799
-1.64241
-1.67136
-1.68132
-1.67931
-1.66997
-428.25
-408.055
-390.059
-371.182
-349.175
-324.305
-296.225
-265.453
-233.162
-200.991
-169.704
-139.933
-112.198
-87.1439
-65.4147
-47.4773
-33.413
-22.8984
-15.3639
-10.1872
-6.7599
-4.56313
-3.21308
-2.41694
-1.96869
-1.72733
-1.60138
-1.53777
-434.518
-409.117
-386.448
-362.476
-333.338
-298.589
-258.197
-213.992
-169.411
-128.653
-95.3033
-70.3667
-52.5632
-39.6699
-29.8274
-22.0545
-15.9742
-11.3725
-8.01024
-5.64054
-4.01984
-2.95089
-2.27371
-1.86182
-1.62123
-1.48486
-1.40973
-1.36897
278.895
272.155
265.239
251.721
231.663
211.601
194.935
181.444
168.092
151.883
131.935
109.392
86.5468
65.5622
47.75
33.5093
22.6605
14.7007
9.0423
5.15355
2.57798
0.93883
-0.057944
-0.631878
-0.940896
-1.09673
-1.16692
516.948
494.69
473.687
443.39
400.256
351.42
302.585
256.986
215.377
177.749
143.928
114.004
88.225
66.689
49.1632
35.2271
24.4083
16.2428
10.2829
6.10106
3.27255
1.44714
0.320276
-0.342158
-0.709375
-0.898291
-0.98735
-20.9228
-22.3919
-25.9386
-34.1762
-46.665
-58.9829
-67.6523
-71.8377
-72.2343
-69.6381
-64.5928
-57.1687
-47.9394
-38.0332
-28.6518
-20.6489
-14.3622
-9.73045
-6.48434
-4.29928
-2.87942
-1.99299
-1.46296
-1.16056
-0.99609
-0.912411
-550.79
-521.23
-494.29
-465.405
-431.227
-392.833
-350.712
-306.311
-261.783
-219.364
-180.141
-144.968
-114.068
-87.3802
-64.8936
-46.618
-32.3965
-21.811
-14.2817
-9.12598
-5.72173
-3.5609
-2.24218
-1.47337
-1.04873
-0.829381
-186.881
-173.227
-161.797
-151.118
-138.112
-120.274
-96.5423
-68.4294
-39.8734
-15.8863
-0.0635189
7.35708
8.76701
7.22948
4.9725
3.03817
1.65448
0.733132
0.194462
-0.11674
-0.291625
-0.385449
-0.434412
-0.460036
-0.474711
472.929
456.523
441.703
418.56
384.952
348.126
311.904
277.258
243.314
209.249
175.322
142.567
112.219
85.4981
63.1166
45.1676
31.3187
20.998
13.5578
8.3801
4.91151
2.68405
1.3118
0.50718
0.0592788
383.44
364.997
346.281
318.82
280.043
236.846
195.115
157.738
125.119
97.367
74.3997
55.9506
41.7702
31.0911
22.9979
16.7604
11.9062
8.16363
5.36139
3.36249
1.98795
1.07761
0.504633
0.163127
-0.0278697
-252.72
-243.403
-232.179
-217.603
-199.65
-179.258
-157.751
-135.874
-113.809
-92.1512
-71.7965
-53.7498
-38.6745
-26.8232
-17.9685
-11.6339
-7.29328
-4.408
-2.55818
-1.42762
-0.764015
-0.390408
)
;

boundaryField
{
    inlet
    {
        type            zeroGradient;
    }
    outlet
    {
        type            fixedValue;
        value           nonuniform 0();
    }
    cylinder
    {
        type            zeroGradient;
    }
    top
    {
        type            symmetryPlane;
    }
    bottom
    {
        type            symmetryPlane;
    }
    defaultFaces
    {
        type            empty;
    }
    procBoundary15to9
    {
        type            processor;
        value           nonuniform List<scalar> 
37
(
92.8548
85.8946
77.2569
62.7942
42.007
-379.905
-379.905
-342.556
-302.774
-262.221
-67.6778
-67.6778
-42.9936
-27.232
-18.5048
77.8857
77.8857
56.6315
39.6076
26.5371
9.31555
9.31555
5.19415
2.29349
-6.1572
-6.1572
-4.59434
-3.62746
-3.05006
-2.58709
-2.58709
-2.3634
-2.24538
-1.99169
-1.99169
-1.98426
-1.96971
)
;
    }
    procBoundary15to16
    {
        type            processor;
        value           nonuniform List<scalar> 
17
(
-1.80376
-1.65637
-1.65637
-1.50535
-1.50535
-1.34587
-1.19127
-1.19127
-1.02119
-0.871271
-0.871271
-0.723919
-0.484394
-0.484394
-0.175353
-0.127802
-0.190245
)
;
    }
    procBoundary15to21
    {
        type            processor;
        value           nonuniform List<scalar> 
26
(
-443.198
-407.798
-367.144
-321.68
-273.393
-225.264
-180.606
-141.924
-110.089
-84.5055
-63.8993
-47.1985
-33.8131
-23.4243
-15.7037
-10.169
-6.33624
-3.78248
-2.13548
-1.11439
-0.509303
-0.166791
-283.164
-271.221
-261.452
-261.452
)
;
    }
}


// ************************************************************************* //
