/*--------------------------------*- C++ -*----------------------------------*\
  =========                 |
  \\      /  F ield         | OpenFOAM: The Open Source CFD Toolbox
   \\    /   O peration     | Website:  https://openfoam.org
    \\  /    A nd           | Version:  7
     \\/     M anipulation  |
\*---------------------------------------------------------------------------*/
FoamFile
{
    version     2.0;
    format      ascii;
    class       volVectorField;
    location    "7";
    object      U;
}
// * * * * * * * * * * * * * * * * * * * * * * * * * * * * * * * * * * * * * //

dimensions      [0 1 -1 0 0 0 0];

internalField   nonuniform List<vector> 
433
(
(-0.0189508 0.0387271 8.71315e-21)
(-0.0230571 0.0382339 -6.32559e-21)
(-0.0267459 0.0377252 -7.01131e-21)
(-0.0300865 0.0371427 -1.81946e-21)
(-0.0331665 0.0364489 8.61747e-21)
(-0.036075 0.0356254 3.57384e-21)
(-0.0388887 0.0346674 -1.44314e-20)
(-0.0416632 0.0335783 8.27773e-21)
(0.0740345 -0.00291956 3.78164e-18)
(0.0860215 -0.00163368 5.17331e-19)
(0.0464944 -0.00684719 5.57271e-18)
(0.0552615 -0.00561764 -3.08503e-18)
(0.0650646 -0.00452751 -1.45883e-18)
(0.0758808 -0.00369856 2.3064e-18)
(0.0879715 -0.00345946 -2.08177e-18)
(0.0263661 -0.0099373 9.27167e-19)
(0.0322161 -0.00887675 6.68521e-19)
(0.0390073 -0.00787726 -3.67545e-19)
(0.0467312 -0.00703877 -1.41322e-19)
(0.0553353 -0.00646766 1.51773e-18)
(0.0650266 -0.00641722 6.13822e-19)
(0.0753852 -0.00753884 -1.24012e-18)
(0.0859185 -0.0104092 3.48467e-18)
(0.0122032 -0.0112181 4.30945e-20)
(0.0155687 -0.0106771 1.21533e-18)
(0.019777 -0.0100218 -2.68167e-18)
(0.0248117 -0.00936587 2.62177e-18)
(0.0306518 -0.00882608 -1.83102e-18)
(0.03724 -0.00850593 -2.08395e-19)
(0.0447539 -0.00860229 -6.08239e-19)
(0.0528127 -0.00970464 2.38737e-18)
(0.061021 -0.0123932 3.47374e-19)
(0.00184728 -0.0106511 2.92279e-19)
(0.00359013 -0.0107813 -1.23878e-18)
(0.0058896 -0.0106392 -9.69857e-19)
(0.00879457 -0.0103459 1.01383e-18)
(0.0123373 -0.0100159 -1.03547e-19)
(0.0165246 -0.0097589 -3.84676e-19)
(0.0213199 -0.00966551 2.7958e-18)
(0.0268903 -0.00988375 -1.45629e-18)
(0.0329031 -0.0109603 -8.96196e-19)
(0.039056 -0.0134991 -2.31723e-19)
(-0.00483614 -0.00980898 8.88313e-19)
(-0.00436291 -0.00998245 -7.32526e-19)
(-0.00357667 -0.0100574 6.16401e-19)
(-0.00238047 -0.010035 9.84557e-19)
(-0.000710145 -0.00994798 -3.77038e-19)
(0.00147255 -0.00985359 -1.46811e-19)
(0.00417776 -0.00982244 6.04877e-19)
(0.00737546 -0.00991613 2.14765e-19)
(0.0112167 -0.0102362 -1.76099e-18)
(0.0154109 -0.0113047 6.16679e-19)
(0.0197502 -0.0137741 1.04113e-18)
(-0.00680739 -0.0076541 9.47355e-19)
(-0.00811007 -0.00785755 -6.63583e-19)
(-0.0089844 -0.0081232 -4.27966e-19)
(-0.00940762 -0.00836856 1.83257e-19)
(-0.00937303 -0.00856038 2.90621e-19)
(-0.00888077 -0.00870461 2.06975e-19)
(-0.00793467 -0.00883616 -1.23971e-18)
(-0.00654895 -0.00900631 4.98975e-19)
(-0.00476405 -0.0092596 -1.72513e-18)
(-0.00246106 -0.00966123 4.03938e-19)
(9.12631e-05 -0.01073 1.20666e-18)
(0.00284247 -0.0131905 -3.43769e-19)
(-0.00905607 -0.00234612 -1.61854e-18)
(-0.0114702 -0.00373718 1.81934e-18)
(-0.0132917 -0.00479106 -9.65776e-19)
(-0.0146095 -0.00557711 1.00104e-19)
(-0.0154843 -0.00616059 2.19491e-19)
(-0.0159555 -0.00660559 4.69194e-19)
(-0.0160488 -0.00697609 -1.92559e-19)
(-0.0157883 -0.0073321 -6.3831e-19)
(-0.0152166 -0.00771291 1.36842e-18)
(-0.0142577 -0.00814136 6.56491e-19)
(-0.0131346 -0.00907787 -2.16165e-19)
(-0.0116182 -0.0113305 -1.07404e-18)
(-0.0115689 0.00621617 -3.51012e-19)
(-0.0139981 0.0029794 4.64948e-19)
(-0.0160873 0.000667811 4.30865e-19)
(-0.0179249 -0.000992768 2.23419e-19)
(-0.0195384 -0.00219871 -1.38394e-18)
(-0.0209275 -0.00309412 6.67084e-19)
(-0.0220812 -0.00378833 -1.01771e-18)
(-0.0229867 -0.00436737 -4.30464e-20)
(-0.0236378 -0.00489833 1.43369e-18)
(-0.024046 -0.00541938 -1.03284e-18)
(-0.0241021 -0.00593932 -6.00696e-19)
(-0.023974 -0.00687093 1.232e-18)
(-0.0237045 -0.00892643 8.16129e-20)
(-0.0178371 0.00689664 -2.72061e-19)
(-0.0187906 0.0050542 6.16258e-20)
(-0.0201966 0.00354834 6.52978e-19)
(-0.0218782 0.00230413 -4.94138e-19)
(-0.023683 0.00126388 2.28769e-19)
(-0.0254949 0.000378712 -1.01142e-18)
(-0.0272297 -0.000396697 1.03217e-18)
(-0.0288297 -0.00110567 -3.39134e-19)
(-0.0302607 -0.0017872 7.9148e-20)
(-0.0315123 -0.00246293 1.01485e-18)
(-0.0324778 -0.00312458 -3.49965e-19)
(-0.0333093 -0.00419397 -5.49203e-19)
(-0.034125 -0.00637458 4.99454e-19)
(-0.0139107 0.0065325 2.60881e-19)
(-0.0160959 0.0072576 -2.90666e-19)
(-0.0185784 0.00726144 4.02802e-19)
(-0.021197 0.00682048 -1.15146e-19)
(-0.0238464 0.00613361 -3.42352e-19)
(-0.026457 0.00533131 6.3955e-19)
(-0.0289818 0.00448969 -7.26637e-20)
(-0.0313895 0.00364473 8.75326e-21)
(-0.0336589 0.00280514 -1.85105e-19)
(-0.035778 0.00196472 -4.43882e-19)
(-0.0377477 0.00112143 1.39319e-19)
(-0.0394851 0.000302645 8.74813e-19)
(-0.0411303 -0.000905172 -4.40126e-19)
(-0.0428 -0.00321367 -3.53156e-19)
(-0.00913724 0.016003 1.35601e-20)
(-0.0138848 0.0151574 4.38645e-19)
(-0.0181921 0.0141047 6.49404e-20)
(-0.0220972 0.01295 -7.34221e-20)
(-0.0256672 0.011766 3.51181e-20)
(-0.0289701 0.0105975 -1.89855e-20)
(-0.0320608 0.00946571 -3.31216e-19)
(-0.0349777 0.00837369 -6.26248e-20)
(-0.037745 0.00731226 -1.23987e-19)
(-0.0403774 0.00626684 1.61142e-19)
(-0.0428888 0.00523206 2.1893e-19)
(-0.0452198 0.0042411 1.40325e-19)
(-0.0474913 0.00288367 2.5561e-19)
(-0.0498033 0.000438507 2.02855e-19)
(-0.00716082 0.0361769 4.78293e-20)
(-0.0128724 0.0304066 -2.84609e-19)
(-0.0176127 0.0260899 -3.40756e-20)
(-0.0217127 0.0228033 -3.29533e-20)
(-0.0254024 0.0202281 -2.62163e-19)
(-0.0288297 0.018141 4.77382e-19)
(-0.0320868 0.0163864 -4.6083e-19)
(-0.0352279 0.014855 2.91822e-19)
(-0.0382822 0.0134689 -3.26648e-20)
(-0.0412626 0.0121715 -1.07306e-19)
(-0.0441738 0.0109219 2.96742e-19)
(-0.0470196 0.00970147 -3.08634e-19)
(-0.0497491 0.00854211 -1.34099e-20)
(-0.0524535 0.00703351 7.81628e-20)
(-0.0552106 0.00444475 -2.64146e-19)
(-0.025922 0.041682 -3.11379e-20)
(-0.0264661 0.0356781 -9.74437e-21)
(-0.0274125 0.0312923 1.64822e-19)
(-0.0288552 0.0280001 -1.04711e-20)
(-0.0307624 0.0254309 6.16111e-20)
(-0.0330405 0.0233342 -1.20894e-19)
(-0.0355959 0.0215438 2.99681e-20)
(-0.0383452 0.019949 1.01708e-19)
(-0.0412203 0.0184749 -1.23312e-19)
(-0.0441684 0.0170692 4.19828e-20)
(-0.0471505 0.0156961 -3.75161e-20)
(-0.0501414 0.0143415 -1.69023e-19)
(-0.0530856 0.0130448 2.99103e-19)
(-0.056036 0.0114007 7.11219e-20)
(-0.0590462 0.00867513 3.0848e-20)
(-0.0344037 0.0296228 5.65692e-20)
(-0.0326552 0.0298523 -5.58276e-20)
(-0.0321402 0.0295854 1.85487e-20)
(-0.0326242 0.0289481 3.42932e-21)
(-0.0338843 0.0280484 -2.16509e-20)
(-0.0357249 0.0269707 3.00813e-20)
(-0.0379855 0.0257773 -1.83967e-20)
(-0.0405406 0.0245084 -1.00816e-20)
(-0.0432971 0.0231874 2.74495e-20)
(-0.0461862 0.0218253 5.40035e-20)
(-0.0491579 0.0204266 -1.16281e-19)
(-0.0521775 0.0190021 -2.07724e-20)
(-0.0551967 0.0176092 -5.57874e-21)
(-0.0582347 0.0158538 -4.53435e-20)
(-0.0613285 0.0130052 2.86457e-20)
(-0.0264506 0.0261005 -1.69274e-20)
(-0.0276838 0.0290109 3.99329e-21)
(-0.0294277 0.0306224 -2.72206e-21)
(-0.0314974 0.0312892 -1.38164e-20)
(-0.0337836 0.0312805 -1.32338e-20)
(-0.0362326 0.0308001 1.82617e-20)
(-0.0388162 0.0299951 1.21827e-20)
(-0.0415148 0.0289658 -1.4502e-20)
(-0.0443089 0.0277774 -1.31788e-20)
(-0.0471788 0.0264703 3.63364e-20)
(-0.0501055 0.0250703 7.33216e-21)
(-0.0530717 0.0236033 -1.13772e-20)
(-0.0560512 0.0221386 -3.24745e-21)
(-0.0590377 0.0202916 -6.24401e-21)
(-0.0620617 0.0173375 1.67127e-20)
(0.102044 -0.0147437 9.65849e-20)
(0.106912 -0.000386067 -9.36763e-19)
(0.12108 0.00722486 1.16201e-20)
(0.132305 0.0126711 -4.91981e-20)
(0.143406 0.0154612 3.22762e-19)
(0.153889 0.0162799 -4.95898e-19)
(0.16444 0.0157015 -1.06258e-19)
(0.17556 0.0140027 2.81443e-19)
(0.187752 0.0116908 3.29519e-21)
(0.201349 0.00934102 1.38309e-19)
(0.216702 0.00755366 -2.59705e-20)
(0.234066 0.0068822 -2.09403e-19)
(0.253629 0.00793974 2.56463e-19)
(0.275453 0.0110894 -6.64524e-22)
(0.299557 0.0168422 -2.66631e-20)
(0.325883 0.0251548 2.19677e-20)
(0.354208 0.0361254 -8.76334e-20)
(0.384207 0.0494931 3.95772e-20)
(0.0736818 -0.0165556 -2.49659e-20)
(0.0765229 -0.00365216 2.20048e-19)
(0.088518 0.00367874 -1.41906e-18)
(0.098197 0.00905864 4.34093e-19)
(0.10848 0.0118694 -9.49922e-20)
(0.118592 0.0124511 7.16456e-19)
(0.129132 0.0115708 -1.2101e-19)
(0.140382 0.00961663 -3.23899e-19)
(0.152801 0.0070934 1.47189e-19)
(0.166716 0.00443045 -2.09573e-19)
(0.18248 0.0023618 -1.34339e-19)
(0.200313 0.00148208 -5.32026e-20)
(0.220386 0.00227909 3.28172e-20)
(0.24281 0.0052262 -9.65743e-20)
(0.267578 0.0108119 3.66802e-19)
(0.29461 0.019146 -1.63691e-19)
(0.323758 0.0301014 5.14528e-20)
(0.354697 0.0434867 -9.11555e-20)
(0.0486314 -0.0175276 -4.11752e-19)
(0.0497028 -0.00611788 -3.65162e-19)
(0.0594139 0.000615763 5.86616e-19)
(0.0673535 0.00562418 -2.17141e-19)
(0.0766034 0.00826118 -3.03271e-19)
(0.0860705 0.00866548 1.83163e-19)
(0.0963333 0.00746986 7.84277e-20)
(0.107515 0.0050843 1.18825e-19)
(0.120015 0.00215235 1.5448e-19)
(0.134123 -0.000783412 3.95418e-20)
(0.15019 -0.00313153 -1.20869e-19)
(0.168363 -0.00424261 1.43702e-19)
(0.188827 -0.00366606 -5.10021e-20)
(0.211698 -0.000840424 6.61795e-20)
(0.236996 0.00448744 -1.01783e-19)
(0.264631 0.0127446 6.67515e-20)
(0.294447 0.0236722 -6.18009e-21)
(0.326184 0.0370447 -9.3114e-20)
(0.0266439 -0.0177884 -4.77209e-19)
(0.026124 -0.00770086 5.43415e-19)
(0.0334704 -0.00189658 -8.87929e-19)
(0.0396386 0.00252301 3.28163e-19)
(0.0477118 0.00476714 1.87576e-19)
(0.0563526 0.00472408 1.36573e-19)
(0.0661638 0.00312148 -1.53072e-19)
(0.0771193 0.000385927 4.07195e-19)
(0.0896048 -0.0028874 -2.48803e-19)
(0.103799 -0.00612477 -1.88985e-20)
(0.120021 -0.00878548 -5.35621e-20)
(0.138413 -0.0101989 -1.2155e-19)
(0.159148 -0.00985049 1.00739e-19)
(0.182338 -0.00722905 -7.21192e-20)
(0.208029 -0.00203747 4.649e-20)
(0.236136 0.00600435 1.46358e-20)
(0.266487 0.0168597 -4.94282e-20)
(0.298875 0.0302025 5.13993e-21)
(0.00744856 -0.0171672 2.79815e-19)
(0.00551842 -0.00853464 -6.7345e-19)
(0.010486 -0.00391088 1.55261e-19)
(0.0149575 -0.000192897 6.11429e-19)
(0.0217537 0.00148536 -4.54249e-19)
(0.0294462 0.00080861 -1.17199e-19)
(0.0387405 -0.00118023 2.52618e-19)
(0.0493881 -0.00427683 -1.75181e-19)
(0.0617189 -0.00789746 -5.07312e-20)
(0.075864 -0.0115943 1.63814e-19)
(0.0921418 -0.0146231 -2.12237e-19)
(0.110655 -0.0163618 9.96084e-20)
(0.131556 -0.0162838 -1.40636e-20)
(0.154955 -0.0138899 7.93559e-20)
(0.180897 -0.00884974 -1.26876e-19)
(0.209329 -0.00101428 5.80224e-20)
(0.240089 0.0096681 1.85145e-20)
(-0.00916814 -0.0153687 6.71483e-20)
(-0.0124737 -0.00854962 4.45226e-21)
(-0.00973213 -0.00538145 6.29681e-20)
(-0.00677778 -0.00246618 1.01375e-19)
(-0.00131819 -0.00180409 2.18129e-20)
(0.0054313 -0.00295478 -3.29415e-19)
(0.0141789 -0.00535557 1.18461e-19)
(0.0243972 -0.00889303 -4.32633e-20)
(0.0364668 -0.0129826 4.1784e-20)
(0.0504803 -0.0171576 1.1267e-19)
(0.0667434 -0.0205687 -6.78698e-20)
(0.0852806 -0.0226408 4.98342e-20)
(0.106244 -0.0228719 -7.39705e-20)
(0.129744 -0.020748 7.21877e-20)
(0.155816 -0.0159314 -6.73386e-20)
(0.184423 -0.00827138 -1.86498e-20)
(0.215459 0.00221976 1.68647e-20)
(-0.0236969 -0.0129266 -1.42145e-19)
(-0.0281718 -0.00793041 2.71687e-19)
(-0.0273349 -0.00612897 -1.26287e-19)
(-0.0257674 -0.00415363 -9.42823e-21)
(-0.0215397 -0.00461813 -4.33539e-20)
(-0.0155778 -0.00622397 6.76027e-20)
(-0.00747656 -0.00942051 -2.13954e-19)
(0.00225222 -0.013683 1.08231e-19)
(0.0139908 -0.018112 -1.43258e-20)
(0.0278126 -0.0227304 -2.44904e-22)
(0.0439946 -0.0265629 -9.67883e-20)
(0.0624725 -0.0289962 1.15666e-19)
(0.0834033 -0.0295696 -6.4989e-20)
(0.106898 -0.0277494 1.30878e-19)
(0.132986 -0.0232014 -2.9176e-20)
(0.161645 -0.015748 1.75644e-20)
(0.192805 -0.00540488 -7.81769e-20)
(-0.0359579 -0.0103685 7.69324e-20)
(-0.0414986 -0.00693124 1.50238e-19)
(-0.0423301 -0.00620307 1.08268e-19)
(-0.0419661 -0.00537008 -1.79365e-19)
(-0.0388512 -0.00671849 -1.38477e-19)
(-0.0337094 -0.00911842 2.0473e-19)
(-0.026349 -0.0132192 -5.79506e-20)
(-0.0169748 -0.0182064 -1.57994e-20)
(-0.00551313 -0.0233417 -1.14623e-20)
(0.00801366 -0.028308 1.6558e-20)
(0.0240516 -0.0325725 8.50743e-20)
(0.0424005 -0.0353926 -1.92501e-20)
(0.0632128 -0.0363399 -4.08105e-20)
(0.0866064 -0.0348518 -5.50637e-20)
(0.112601 -0.0306013 1.28106e-20)
(0.141192 -0.0234009 4.90445e-21)
(0.172327 -0.0132457 6.57595e-20)
(-0.0460888 -0.00738099 -2.52303e-19)
(-0.0525286 -0.00550135 2.50492e-19)
(-0.054785 -0.00578733 -1.58314e-19)
(-0.0554489 -0.00623528 2.32446e-19)
(-0.0533134 -0.00854677 -1.38393e-19)
(-0.0489215 -0.0119496 -4.09314e-21)
(-0.0421836 -0.0168216 -4.07991e-20)
(-0.0332491 -0.0223478 1.14028e-19)
(-0.0220778 -0.0283894 -1.6102e-19)
(-0.00875042 -0.0338577 5.26174e-20)
(0.00706912 -0.038586 7.59147e-21)
(0.0252233 -0.0417887 6.33053e-21)
(0.0458405 -0.0431439 7.84365e-21)
(0.0690457 -0.0420137 3.56089e-20)
(0.0948415 -0.0380866 -5.92122e-21)
(0.123245 -0.0311743 -3.25869e-20)
(0.154221 -0.0212613 1.03827e-20)
(-0.0542232 -0.0039908 -1.32043e-19)
(-0.0613547 -0.00364414 2.03079e-20)
(-0.0647616 -0.00497992 -1.08327e-19)
(-0.0662688 -0.00673958 5.12237e-21)
(-0.0649439 -0.0101117 -1.47203e-19)
(-0.0611858 -0.0145533 2.32411e-19)
(-0.0549661 -0.02025 -7.56818e-20)
(-0.0464232 -0.0265078 4.95689e-20)
(-0.0355517 -0.0331502 -9.81881e-21)
(-0.022436 -0.0392659 -2.82047e-20)
(-0.0068258 -0.0445597 -1.14994e-20)
(0.0110894 -0.0481587 2.26029e-20)
(0.0314368 -0.0499428 -4.72381e-20)
(0.0543765 -0.0491932 4.8743e-20)
(0.0798758 -0.045614 -6.00673e-21)
(0.107976 -0.0390169 2.59698e-21)
(0.138663 -0.0293828 -6.52728e-21)
(-0.0604528 -0.000266665 7.9211e-20)
(-0.0680444 -0.00137342 1.08632e-19)
(-0.072304 -0.00384654 -1.05364e-20)
(-0.0744548 -0.00692267 -5.26862e-20)
(-0.0737465 -0.0114143 -2.46097e-20)
(-0.0704793 -0.0169178 2.36984e-20)
(-0.064667 -0.0234884 3.37201e-20)
(-0.0564378 -0.0305419 -5.15314e-20)
(-0.0458249 -0.0378172 -6.35952e-21)
(-0.0329365 -0.0445369 2.1546e-20)
(-0.0175386 -0.0503436 -2.67974e-20)
(0.000119146 -0.0545472 6.71031e-21)
(0.0201363 -0.0567031 4.71989e-20)
(0.0427398 -0.0563487 -4.91592e-20)
(0.0678511 -0.0531392 3.71565e-20)
(0.0955383 -0.0468816 9.4479e-22)
(0.12581 -0.0375534 -4.86266e-21)
(-0.0648088 0.00369162 -9.43055e-20)
(-0.0726597 0.00121309 4.83051e-20)
(-0.0774734 -0.00245842 -5.99829e-20)
(-0.0800289 -0.00684833 8.53961e-20)
(-0.0797252 -0.0124921 -4.43746e-20)
(-0.0767843 -0.0190733 1.57324e-20)
(-0.0712497 -0.0265493 -4.95707e-20)
(-0.0632468 -0.0344182 3.74624e-20)
(-0.0528355 -0.0423706 -1.37094e-20)
(-0.0401327 -0.0497122 8.11046e-21)
(-0.024997 -0.0559992 -2.64622e-20)
(-0.00762139 -0.0608318 5.08813e-20)
(0.0120718 -0.0633875 -3.322e-20)
(0.034254 -0.0634407 4.69026e-21)
(0.0588919 -0.0606188 9.83503e-21)
(0.0860626 -0.0547225 -5.75079e-21)
(0.115797 -0.0457243 -1.43969e-20)
(-0.0673364 0.00775876 -2.65314e-20)
(-0.0752372 0.00396744 1.83941e-20)
(-0.0802915 -0.000879638 2.29858e-20)
(-0.0830059 -0.00658259 -2.32081e-20)
(-0.0828822 -0.0133937 1.1091e-22)
(-0.0800891 -0.0210543 3.06022e-20)
(-0.0746914 -0.0294518 -1.81707e-20)
(-0.0668142 -0.0381471 9.56453e-21)
(-0.0565385 -0.0467914 3.75549e-21)
(-0.0439912 -0.0547676 -1.64984e-21)
(-0.0291038 -0.061616 -9.86406e-21)
(-0.0120281 -0.0669067 1.06892e-20)
(0.00730131 -0.069959 -8.45726e-21)
(0.0290089 -0.0704312 9.98957e-21)
(0.0530958 -0.0680112 -4.64222e-21)
(0.0796537 -0.0624945 3.86354e-21)
(0.108737 -0.0538483 -2.03949e-21)
(-0.0680596 0.0118495 -5.75422e-21)
(-0.0757947 0.00680381 2.59474e-21)
(-0.0807816 0.000799223 -3.79871e-21)
(-0.0834093 -0.00619816 -1.4455e-21)
(-0.0832258 -0.0141725 1.07e-20)
(-0.0803901 -0.022903 -6.2897e-21)
(-0.0749802 -0.0322183 -2.03629e-21)
(-0.0671203 -0.0417397 4.3607e-21)
(-0.0569067 -0.0510759 -7.97294e-22)
(-0.0444784 -0.059685 -1.67352e-21)
(-0.0298132 -0.067092 5.4896e-22)
(-0.0130509 -0.0728378 4.72151e-21)
(0.00587622 -0.0763892 -2.87283e-21)
(0.0270662 -0.0772846 -6.06194e-22)
(0.0505307 -0.075277 -2.28411e-23)
(0.076387 -0.0701546 -1.24393e-21)
(0.104713 -0.0618792 1.52022e-21)
)
;

boundaryField
{
    inlet
    {
        type            uniformFixedValue;
        uniformValue    constant (1 0 0);
        value           nonuniform 0();
    }
    outlet
    {
        type            pressureInletOutletVelocity;
        value           nonuniform 0();
    }
    cylinder
    {
        type            fixedValue;
        value           nonuniform 0();
    }
    top
    {
        type            symmetryPlane;
    }
    bottom
    {
        type            symmetryPlane;
    }
    defaultFaces
    {
        type            empty;
    }
    procBoundary16to9
    {
        type            processor;
        value           nonuniform List<vector> 9((0.0957474 -0.000345051 -1.36369e-20) (0.0632221 -0.00424409 5.02863e-18) (0.0632221 -0.00424409 5.02863e-18) (0.038723 -0.00811259 4.32293e-18) (0.038723 -0.00811259 4.32293e-18) (0.0214564 -0.0109885 -6.41406e-19) (0.0214564 -0.0109885 -6.41406e-19) (0.00971482 -0.0115306 -7.3103e-19) (0.00971482 -0.0115306 -7.3103e-19));
    }
    procBoundary16to10
    {
        type            processor;
        value           nonuniform List<vector> 
25
(
(0.109976 0.00110876 -3.30441e-19)
(0.0991885 -0.000529685 1.06948e-18)
(0.0991885 -0.000529685 1.06948e-18)
(0.113867 -2.08861e-05 6.18907e-19)
(0.100894 -0.00455194 -7.18811e-19)
(0.100894 -0.00455194 -7.18811e-19)
(0.114052 -0.00757521 2.74838e-19)
(0.134108 -0.0120209 -4.14573e-19)
(0.141261 0.00356559 3.83609e-19)
(0.157339 0.0111372 -2.45889e-19)
(0.169776 0.0163785 4.39576e-19)
(0.181266 0.0193161 -7.83228e-19)
(0.191779 0.0204106 3.79628e-19)
(0.202172 0.0199845 -1.04824e-19)
(0.213002 0.0183933 2.56651e-19)
(0.22476 0.0162523 1.78977e-21)
(0.237843 0.0141356 1.11201e-19)
(0.252641 0.0125721 -1.26198e-20)
(0.269391 0.0121099 -4.86899e-19)
(0.28829 0.0133477 3.59566e-19)
(0.309415 0.0166824 -1.22283e-19)
(0.332757 0.0224177 -3.05708e-20)
(0.358227 0.0307475 7.30163e-21)
(0.385588 0.0417107 -2.79781e-20)
(0.414513 0.0550334 1.87962e-19)
)
;
    }
    procBoundary16to15
    {
        type            processor;
        value           nonuniform List<vector> 
17
(
(0.000597495 -0.0101094 7.74615e-19)
(0.000597495 -0.0101094 7.74615e-19)
(-0.00513701 -0.00957542 -1.62025e-19)
(-0.00513701 -0.00957542 -1.62025e-19)
(-0.00513528 -0.007654 1.94437e-18)
(-0.005929 -0.00053767 -1.63598e-19)
(-0.005929 -0.00053767 -1.63598e-19)
(-0.00860556 0.0107604 2.33372e-19)
(-0.0174973 0.00917895 9.62758e-20)
(-0.0174973 0.00917895 9.62758e-20)
(-0.0122812 0.00472233 4.12026e-19)
(-0.00400328 0.0164931 2.29124e-19)
(-0.00400328 0.0164931 2.29124e-19)
(-0.000138448 0.0439274 -2.07628e-19)
(-0.0255658 0.0499721 7.63149e-20)
(-0.0375223 0.0286706 3.40576e-20)
(-0.0260939 0.0213847 4.52775e-22)
)
;
    }
    procBoundary16to17
    {
        type            processor;
        value           nonuniform List<vector> 
15
(
(0.415495 0.0647907 -3.31248e-20)
(0.387056 0.058843 -5.7426e-20)
(0.359476 0.0524376 5.84576e-21)
(0.332955 0.0456066 2.23088e-20)
(0.27298 0.0229961 3.26232e-20)
(0.27298 0.0229961 3.26232e-20)
(0.248718 0.0154616 6.94932e-21)
(0.226278 0.00764306 2.25011e-20)
(0.205859 -0.000397589 -2.53907e-20)
(0.187659 -0.00859604 1.57086e-22)
(0.171857 -0.0169265 1.39681e-20)
(0.158615 -0.0253508 -1.80795e-20)
(0.148078 -0.033807 2.05505e-21)
(0.140362 -0.0422424 -5.54437e-21)
(0.135557 -0.0506083 1.07611e-22)
)
;
    }
    procBoundary16to21
    {
        type            processor;
        value           uniform (-0.014475 0.0392794 -8.13924e-21);
    }
    procBoundary16to22
    {
        type            processor;
        value           nonuniform List<vector> 
33
(
(-0.0223896 0.0526187 -1.07132e-20)
(-0.0257544 0.0482343 6.88023e-21)
(-0.0286626 0.0453456 -1.01002e-20)
(-0.0313198 0.0433525 -9.80201e-21)
(-0.0338623 0.0418501 -1.44874e-21)
(-0.0363648 0.0405764 -1.1364e-20)
(-0.0388624 0.0393724 6.72416e-21)
(-0.0444325 0.0323658 1.61771e-20)
(-0.0413684 0.0381469 -1.05659e-21)
(-0.0444325 0.0323658 1.61771e-20)
(-0.0472136 0.0310385 -2.10892e-20)
(-0.0500111 0.0296066 5.9295e-21)
(-0.0528227 0.0280903 1.28126e-21)
(-0.0556437 0.0265583 5.72693e-22)
(-0.0584418 0.0246302 -9.13864e-21)
(-0.0612487 0.0215868 1.74716e-20)
(-0.0669976 0.015882 4.07314e-21)
(-0.0743596 0.00961622 -2.63501e-21)
(-0.0789633 0.00247308 2.53023e-21)
(-0.0812495 -0.00577217 -1.71802e-22)
(-0.0807666 -0.0148848 -6.50543e-21)
(-0.0776931 -0.0246583 5.30303e-21)
(-0.0721188 -0.0348735 2.6494e-22)
(-0.0641639 -0.0452091 -4.16484e-21)
(-0.0539345 -0.0552239 1.71745e-21)
(-0.0415824 -0.0644564 2.16963e-21)
(-0.0271132 -0.072404 -1.55996e-22)
(-0.0106725 -0.0786161 -1.56476e-21)
(0.00782278 -0.082647 1.60937e-21)
(0.0284546 -0.0839678 -1.29075e-21)
(0.051232 -0.0823791 -6.16974e-23)
(0.0763055 -0.0776618 1.09088e-21)
(0.103775 -0.0697729 -2.41048e-21)
)
;
    }
}


// ************************************************************************* //
