/*--------------------------------*- C++ -*----------------------------------*\
  =========                 |
  \\      /  F ield         | OpenFOAM: The Open Source CFD Toolbox
   \\    /   O peration     | Website:  https://openfoam.org
    \\  /    A nd           | Version:  7
     \\/     M anipulation  |
\*---------------------------------------------------------------------------*/
FoamFile
{
    version     2.0;
    format      ascii;
    class       surfaceScalarField;
    location    "8";
    object      phi;
}
// * * * * * * * * * * * * * * * * * * * * * * * * * * * * * * * * * * * * * //

dimensions      [0 3 -1 0 0 0 0];

internalField   nonuniform List<scalar> 
817
(
-0.00234826
0.00186295
0.00172968
-0.00228671
-0.00247146
0.00185288
0.00171539
0.00183261
0.0063361
0.00199862
0.00615205
0.00203694
0.00595097
0.00206403
0.00573421
0.00208026
0.00208625
0.00694148
0.00212997
0.00679169
0.00218673
0.00662386
0.00223186
0.00643877
0.00226536
0.00623754
0.00228747
0.00602166
0.00229867
0.00579281
0.00229959
0.00229101
0.00749975
0.00222563
0.00738602
0.00230047
0.00725399
0.00236388
0.0071038
0.00241555
0.00693593
0.00245535
0.00675121
0.00248339
0.0065508
0.0025
0.00633607
0.00250574
0.00610814
0.00250022
0.00248052
0.00800351
0.00228655
0.0079259
0.00237808
0.00783087
0.00245891
0.00771797
0.00252844
0.00758707
0.00258625
0.00743836
0.0026321
0.00727237
0.00266599
0.00708989
0.00268822
0.00689158
0.00269853
0.00667704
0.00269506
0.00268881
0.00845582
0.00231512
0.00841279
0.00242112
0.00835419
0.00251752
0.00827908
0.00260355
0.00818677
0.00267856
0.00807683
0.00274204
0.00794912
0.0027937
0.00780378
0.00283356
0.00764095
0.00286136
0.0074602
0.00287581
0.00288666
0.00886017
0.00231552
0.00884809
0.00243319
0.008823
0.00254261
0.00878363
0.00264292
0.00872888
0.00273331
0.00865782
0.00281311
0.00856975
0.00288177
0.00846423
0.00293907
0.00834094
0.00298465
0.0081993
0.00301745
0.00304551
0.00922353
0.00229287
0.0092375
0.00241922
0.00924141
0.00253871
0.00923386
0.00265046
0.00921352
0.00275365
0.00917915
0.00284748
0.00912963
0.00293129
0.00906407
0.00300463
0.00898173
0.00306699
0.00888175
0.00311743
0.00316212
0.00955511
0.00225252
0.0095897
0.00238463
0.00961723
0.00251117
0.00963634
0.00263135
0.00964565
0.00274434
0.00964377
0.00284936
0.00962939
0.00294567
0.00960132
0.0030327
0.00955848
0.00310983
0.00949978
0.00317613
0.003236
0.00986443
0.00219943
0.00991434
0.00233472
0.00995996
0.00246556
0.0100001
0.00259123
0.0100334
0.00271102
0.0100586
0.00282417
0.0100743
0.00292998
0.0100792
0.0030278
0.0100721
0.00311696
0.0100516
0.00319656
0.00326941
0.0101603
0.00213777
0.0102208
0.00227415
0.0102795
0.00240693
0.0103351
0.00253555
0.0103868
0.00265938
0.0104332
0.00277777
0.0104731
0.00289005
0.0105053
0.00299562
0.0105285
0.00309379
0.0105413
0.00318368
0.00326681
0.01045
0.0020708
0.0105175
0.00220664
0.0105849
0.00233955
0.0106514
0.00246904
0.0107162
0.00259461
0.0107782
0.0027157
0.0108365
0.00283176
0.0108899
0.00294222
0.0109373
0.00304642
0.0109774
0.00314354
0.00323411
0.0107393
0.00200083
0.0108109
0.00213499
0.0108838
0.00226666
0.0109574
0.00239546
0.011031
0.00252098
0.011104
0.00264276
0.0111754
0.00276034
0.0112444
0.00287323
0.01131
0.00298082
0.0113711
0.00308237
0.00317768
0.0110323
0.00192941
0.0111062
0.0020611
0.0111822
0.0021906
0.0112601
0.00231759
0.0113393
0.00244175
0.0114194
0.00256271
0.0114997
0.00268008
0.0115795
0.00279343
0.011658
0.00290226
0.0117345
0.00300588
0.0031036
0.0113319
0.00185752
0.0114068
0.00198621
0.0114845
0.0021129
0.0115648
0.00223733
0.0116473
0.00235922
0.0117317
0.00247828
0.0118176
0.00259418
0.0119045
0.00270657
0.0119918
0.00281499
0.0120788
0.00291883
0.0030171
0.0116401
0.0017857
0.0117153
0.00191105
0.0117937
0.00203452
0.0118751
0.00215588
0.0119594
0.0022749
0.0120464
0.00239133
0.0121356
0.00250491
0.0122269
0.00261531
0.0123197
0.00272215
0.0124137
0.00282486
0.00292232
0.0119582
0.00171425
0.0120332
0.00183603
0.0121117
0.00195599
0.0121937
0.00207396
0.0122789
0.00218972
0.0123671
0.00230305
0.0124583
0.00241372
0.0125522
0.00252146
0.0126484
0.00262592
0.0127467
0.00272658
0.00282226
0.0122871
0.0016433
0.0123618
0.00176132
0.0124402
0.0018776
0.0125222
0.00199195
0.0126077
0.00210419
0.0126966
0.00221411
0.0127889
0.00232151
0.0128842
0.00242614
0.0129824
0.00252769
0.0130833
0.00262569
0.00271896
0.0126274
0.00157288
0.0127017
0.00168702
0.0127799
0.00179946
0.0128618
0.00191004
0.0129474
0.00201857
0.0130366
0.00212488
0.0131294
0.00222876
0.0132255
0.00233001
0.0133249
0.00242832
0.0134273
0.00252326
0.00261371
0.0129799
0.00150296
0.0130538
0.00161311
0.0131316
0.0017216
0.0132134
0.00182828
0.013299
0.00193298
0.0133883
0.00203552
0.0134814
0.00213573
0.013578
0.00223339
0.0136781
0.00232825
0.0137814
0.00241989
0.00250726
0.0133449
0.00143351
0.0134184
0.00153956
0.013496
0.001644
0.0135776
0.00174667
0.0136632
0.00184742
0.0137526
0.00194609
0.0138458
0.0020425
0.0139428
0.00213646
0.0140433
0.00222771
0.0141473
0.00231589
0.00240001
0.0137231
0.00136446
0.0137963
0.00146631
0.0138737
0.0015666
0.0139552
0.00166518
0.0140407
0.00176189
0.0141302
0.00185659
0.0142236
0.0019491
0.0143208
0.00203924
0.0144218
0.00212679
0.0145263
0.00221139
0.00229215
0.014115
0.00129576
0.014188
0.00139331
0.0142652
0.00148936
0.0143467
0.00158375
0.0144322
0.00167633
0.0145219
0.00176697
0.0146155
0.0018555
0.014713
0.00194175
0.0148143
0.0020255
0.0149192
0.00210643
0.00218373
0.0145214
0.00122732
0.0145942
0.00132049
0.0146713
0.00141219
0.0147528
0.00150231
0.0148384
0.00159068
0.0149282
0.00167717
0.0150221
0.00176164
0.0151199
0.00184392
0.0152216
0.0019238
0.0153271
0.00200099
0.00207476
0.0149429
0.00115907
0.0150156
0.00124776
0.0150928
0.00133504
0.0151743
0.00142078
0.0152601
0.00150486
0.0153501
0.00158713
0.0154443
0.00166746
0.0155426
0.00174569
0.0156447
0.00182163
0.0157507
0.00189501
0.00196517
0.0153803
0.00109094
0.015453
0.00117504
0.0155303
0.0012578
0.015612
0.00133909
0.015698
0.00141878
0.0157884
0.00149675
0.015883
0.00157286
0.0159817
0.00164697
0.0160845
0.0017189
0.0161911
0.00178841
0.00185489
0.0158346
0.00102284
0.0159074
0.00110226
0.0159848
0.0011804
0.0160668
0.00125714
0.0161532
0.00133236
0.016244
0.00140594
0.0163391
0.00147776
0.0164384
0.00154767
0.0165418
0.00161552
0.0166491
0.00168109
0.00174383
0.0163068
0.000954667
0.0163797
0.0010293
0.0164574
0.00110273
0.0165397
0.00117483
0.0166266
0.00124549
0.0167179
0.0013146
0.0168136
0.00138204
0.0169136
0.00144768
0.0170178
0.00151138
0.0171259
0.00157293
0.00163186
0.0167978
0.000886328
0.016871
0.000956075
0.016949
0.00102468
0.0170318
0.00109205
0.0171193
0.00115805
0.0172113
0.0012226
0.0173077
0.00128558
0.0174085
0.00134687
0.0175136
0.00140634
0.0176227
0.0014638
0.00151884
0.0173088
0.00081771
0.0173824
0.000882459
0.017461
0.000946143
0.0175443
0.00100866
0.0176325
0.00106992
0.0177253
0.00112981
0.0178226
0.00118824
0.0179244
0.0012451
0.0180305
0.00130025
0.0181407
0.00135355
0.00140463
0.0178411
0.000748694
0.0179152
0.000808328
0.0179944
0.000866975
0.0180785
0.000924546
0.0181675
0.000980946
0.0182612
0.00103608
0.0183596
0.00108987
0.0184625
0.0011422
0.0185698
0.00119296
0.0186813
0.00124201
0.00128904
0.018396
0.000679147
0.0184708
0.000733543
0.0185508
0.000787036
0.0186358
0.00083954
0.0187257
0.000890974
0.0188206
0.000941251
0.0189202
0.000990288
0.0190244
0.00103799
0.0191331
0.00108427
0.0192461
0.00112898
0.00117187
0.0189751
0.000608927
0.0190506
0.000657954
0.0191315
0.000706164
0.0192176
0.000753481
0.0193087
0.000799828
0.0194048
0.00084513
0.0195058
0.000889309
0.0196115
0.000932287
0.0197218
0.000973972
0.0198366
0.00101425
0.0010529
0.0195797
0.000537876
0.0196563
0.000581394
0.0197383
0.000624186
0.0198256
0.000666181
0.0199181
0.000707315
0.0200157
0.000747518
0.0201183
0.000786722
0.0202257
0.000824857
0.0203379
0.000861844
0.0204545
0.000897585
0.000931896
0.0202119
0.000465821
0.0202896
0.00050368
0.0203728
0.000540906
0.0204616
0.000577439
0.0205557
0.00061322
0.020655
0.000648191
0.0207594
0.000682291
0.0208688
0.000715459
0.0209831
0.000747629
0.0211019
0.000778716
0.00080857
0.0208733
0.000392571
0.0209524
0.00042461
0.0210371
0.000456113
0.0211276
0.000487029
0.0212235
0.000517308
0.0213248
0.0005469
0.0214313
0.000575756
0.0215429
0.000603822
0.0216595
0.000631043
0.0217809
0.00065735
0.000682621
0.0215661
0.000317915
0.0216468
0.000343959
0.0217333
0.000369568
0.0218257
0.0003947
0.0219237
0.000419314
0.0220272
0.00044337
0.0221361
0.000466827
0.0222503
0.000489642
0.0223696
0.000511771
0.0224938
0.000533158
0.000553709
0.0222928
0.000241616
0.0223753
0.000261477
0.0224639
0.000281007
0.0225584
0.000300173
0.0226588
0.000318945
0.0227648
0.000337291
0.0228765
0.000355181
0.0229935
0.000372583
0.0231159
0.000389461
0.0232432
0.000405774
0.000421455
0.0230559
0.000163409
0.0231405
0.000176881
0.0232314
0.000190129
0.0233285
0.000203131
0.0234315
0.000215866
0.0235405
0.000228313
0.0236552
0.000240451
0.0237756
0.000252258
0.0239013
0.000263711
0.0240323
0.000274781
0.000285425
0.0238586
8.29922e-05
0.0239456
8.98518e-05
0.0240392
9.65975e-05
0.0241391
0.000103219
0.0242452
0.000109704
0.0243575
0.000116043
0.0244757
0.000122225
0.0245998
0.000128239
0.0247294
0.000134073
0.0248645
0.000139712
0.000145135
0.0247042
0.024794
0.0248906
0.0249938
0.0251035
0.0252196
0.0253418
0.02547
0.0256041
0.0257438
)
;

boundaryField
{
    inlet
    {
        type            calculated;
        value           nonuniform 0();
    }
    outlet
    {
        type            calculated;
        value           nonuniform 0();
    }
    cylinder
    {
        type            calculated;
        value           nonuniform 0();
    }
    top
    {
        type            symmetryPlane;
        value           uniform 0;
    }
    bottom
    {
        type            symmetryPlane;
        value           nonuniform 0();
    }
    defaultFaces
    {
        type            empty;
        value           nonuniform 0();
    }
    procBoundary33to26
    {
        type            processor;
        value           nonuniform List<scalar> 9(-0.00240222 -0.00258868 -0.00650212 -0.00707283 -0.00759542 -0.00806443 -0.00848439 -0.00886056 -0.00920088);
    }
    procBoundary33to27
    {
        type            processor;
        value           nonuniform List<scalar> 
16
(
-0.00185542
0.0022197
-0.0018635
-0.00173439
0.00216583
-0.0016088
-0.00159988
0.00550338
-0.00208278
-0.00207075
-0.00205108
0.00555288
-0.00227229
-0.00223895
0.00586657
-0.00245779
)
;
    }
    procBoundary33to28
    {
        type            processor;
        value           nonuniform List<scalar> 
15
(
0.00644603
0.00726235
0.00804045
0.00876514
0.00942589
0.0100182
0.0105439
0.0110101
0.0114276
0.0118086
0.0121653
0.0125085
0.0128467
0.0131866
0.0135326
)
;
    }
    procBoundary33to32
    {
        type            processor;
        value           nonuniform List<scalar> 
33
(
-0.00951476
-0.00981134
-0.0100986
-0.010383
-0.0106693
-0.0109609
-0.01126
-0.0115683
-0.0118867
-0.0122161
-0.012557
-0.0129099
-0.0132754
-0.013654
-0.0140463
-0.0144529
-0.0148746
-0.0153122
-0.0157665
-0.0162386
-0.0167294
-0.0172402
-0.0177721
-0.0183265
-0.0189048
-0.0195087
-0.0201398
-0.0208
-0.0214915
-0.0222165
-0.0229777
-0.0237782
-0.0246212
)
;
    }
    procBoundary33to34
    {
        type            processor;
        value           nonuniform List<scalar> 
22
(
0.0138879
0.0142546
0.0146341
0.0150276
0.015436
0.0158603
0.0163013
0.0167602
0.0172379
0.0177357
0.0182549
0.0187969
0.0193632
0.0199555
0.0205755
0.0212252
0.0219068
0.0226227
0.0233755
0.0241683
0.0250047
0.025889
)
;
    }
}


// ************************************************************************* //
