/*--------------------------------*- C++ -*----------------------------------*\
  =========                 |
  \\      /  F ield         | OpenFOAM: The Open Source CFD Toolbox
   \\    /   O peration     | Website:  https://openfoam.org
    \\  /    A nd           | Version:  7
     \\/     M anipulation  |
\*---------------------------------------------------------------------------*/
FoamFile
{
    version     2.0;
    format      ascii;
    class       volScalarField;
    location    "16";
    object      p;
}
// * * * * * * * * * * * * * * * * * * * * * * * * * * * * * * * * * * * * * //

dimensions      [0 2 -2 0 0 0 0];

internalField   nonuniform List<scalar> 
433
(
-0.102852
-0.0860656
-0.0696324
-0.0537533
-0.038105
-0.0229092
-0.00766872
-0.357624
-0.338729
-0.319794
-0.300847
-0.281908
-0.263002
-0.24415
-0.225378
-0.206717
-0.188204
-0.16988
-0.151803
-0.134012
-0.116603
-0.0995662
-0.0830754
-0.0669564
-0.0515532
-0.0363423
-0.0218536
-0.00719325
-0.354427
-0.335319
-0.31621
-0.297124
-0.27808
-0.259098
-0.240196
-0.221399
-0.202735
-0.184246
-0.16597
-0.147977
-0.1303
-0.113061
-0.0962263
-0.0800347
-0.064224
-0.04931
-0.0345217
-0.0207779
-0.00667147
-0.351082
-0.331769
-0.312497
-0.293287
-0.274152
-0.255107
-0.236167
-0.217355
-0.198698
-0.180239
-0.162017
-0.144111
-0.126551
-0.109484
-0.092849
-0.0769603
-0.0614501
-0.0470374
-0.0326517
-0.0196901
-0.00609725
-0.347566
-0.328062
-0.308645
-0.289327
-0.270118
-0.251028
-0.232066
-0.213253
-0.194614
-0.176195
-0.158034
-0.140221
-0.12278
-0.10589
-0.0894528
-0.0738704
-0.0586519
-0.0447505
-0.0307429
-0.0185989
-0.00546551
-0.343853
-0.324177
-0.304635
-0.285233
-0.265973
-0.246857
-0.227893
-0.209096
-0.190491
-0.172124
-0.154034
-0.136322
-0.119006
-0.102296
-0.0860572
-0.0707846
-0.0558482
-0.0424664
-0.0288077
-0.017514
-0.00477287
-0.339911
-0.320088
-0.300448
-0.280989
-0.261704
-0.24259
-0.223646
-0.204887
-0.186332
-0.168034
-0.150028
-0.132429
-0.115244
-0.0987217
-0.0826821
-0.0677234
-0.0530587
-0.0402026
-0.0268606
-0.0164459
-0.00401828
-0.33571
-0.315771
-0.296066
-0.276582
-0.257303
-0.238219
-0.219322
-0.200625
-0.182143
-0.163932
-0.146027
-0.128554
-0.111512
-0.0951856
-0.079347
-0.0647069
-0.0503032
-0.0379775
-0.0249171
-0.0154054
-0.00320339
-0.331218
-0.311201
-0.291468
-0.271996
-0.252759
-0.233737
-0.214919
-0.196311
-0.177927
-0.159826
-0.142039
-0.12471
-0.107823
-0.0917042
-0.0760704
-0.0617544
-0.0476013
-0.0358089
-0.0229934
-0.0144031
-0.0023328
-0.326412
-0.306359
-0.28664
-0.267219
-0.248062
-0.229139
-0.210431
-0.191943
-0.173686
-0.155719
-0.138074
-0.120908
-0.10419
-0.0882928
-0.0728688
-0.0588839
-0.044971
-0.0337139
-0.0211058
-0.0134494
-0.00141392
-0.321273
-0.301231
-0.281571
-0.262244
-0.243206
-0.224419
-0.205858
-0.187523
-0.16942
-0.151616
-0.134137
-0.117155
-0.100624
-0.0849638
-0.0697563
-0.0561105
-0.0424283
-0.0317078
-0.0192699
-0.0125539
-0.00045668
-0.315796
-0.295813
-0.276257
-0.257068
-0.238189
-0.219577
-0.201197
-0.183048
-0.165132
-0.14752
-0.130231
-0.113459
-0.0971324
-0.081727
-0.0667439
-0.0534471
-0.0399868
-0.029804
-0.0175
-0.0117251
0.000527049
-0.309985
-0.290109
-0.270702
-0.251693
-0.233014
-0.214612
-0.196449
-0.178519
-0.160821
-0.14343
-0.126359
-0.109822
-0.0937206
-0.0785892
-0.0638399
-0.0509033
-0.0376571
-0.0280133
-0.0158088
-0.0109702
0.00152415
-0.303855
-0.284134
-0.264919
-0.246128
-0.227685
-0.20953
-0.191617
-0.173938
-0.156489
-0.139349
-0.122523
-0.106246
-0.090391
-0.0755544
-0.0610492
-0.0484852
-0.0354471
-0.0263435
-0.014207
-0.0102948
0.00252102
-0.297434
-0.27791
-0.258925
-0.240388
-0.222214
-0.204337
-0.186705
-0.169308
-0.152136
-0.135276
-0.118722
-0.102732
-0.0871441
-0.0726237
-0.0583738
-0.0461962
-0.0333615
-0.0247998
-0.012703
-0.00970244
0.00350434
-0.290754
-0.271464
-0.252743
-0.234491
-0.216615
-0.199043
-0.181719
-0.164631
-0.147765
-0.131212
-0.114955
-0.0992776
-0.0839783
-0.0697961
-0.0558137
-0.0440368
-0.0314025
-0.0233845
-0.0113027
-0.00919541
0.00446178
-0.283849
-0.264825
-0.246396
-0.228454
-0.210899
-0.193657
-0.176665
-0.159911
-0.143374
-0.127155
-0.11122
-0.0958807
-0.0808909
-0.0670693
-0.0533669
-0.0420062
-0.0295706
-0.0220984
-0.0100103
-0.00877445
0.00538229
-0.276762
-0.25803
-0.239914
-0.222301
-0.205087
-0.188194
-0.171553
-0.155154
-0.138969
-0.123106
-0.107516
-0.0925392
-0.077879
-0.0644396
-0.05103
-0.0401001
-0.0278638
-0.0209382
-0.00882783
-0.0084366
0.00625583
-0.269584
-0.251161
-0.233373
-0.216102
-0.19924
-0.182706
-0.166428
-0.150396
-0.134575
-0.119084
-0.103853
-0.0892551
-0.0749388
-0.0618973
-0.0487913
-0.0383029
-0.0262696
-0.0198876
-0.00775139
-0.00816885
0.00707374
-0.262242
-0.244158
-0.22672
-0.209809
-0.193314
-0.177152
-0.161247
-0.145594
-0.130147
-0.115039
-0.100178
-0.0859723
-0.0720132
-0.059385
-0.0465962
-0.0365629
-0.0247441
-0.0189094
-0.00675524
-0.00795539
0.00783861
-0.254523
-0.236801
-0.219735
-0.203205
-0.187099
-0.171336
-0.155837
-0.140599
-0.12557
-0.110892
-0.0964472
-0.0826861
-0.0691245
-0.0569592
-0.0445078
-0.0349725
-0.0233516
-0.0181022
-0.00585694
-0.0078871
0.00857198
-0.2652
-0.24696
-0.229517
-0.212753
-0.196558
-0.180822
)
;

boundaryField
{
    inlet
    {
        type            zeroGradient;
    }
    outlet
    {
        type            fixedValue;
        value           uniform 0;
    }
    cylinder
    {
        type            zeroGradient;
    }
    top
    {
        type            symmetryPlane;
    }
    bottom
    {
        type            symmetryPlane;
    }
    defaultFaces
    {
        type            empty;
    }
    procBoundary11to4
    {
        type            processor;
        value           nonuniform List<scalar> 3(-0.376449 -0.373508 -0.370413);
    }
    procBoundary11to5
    {
        type            processor;
        value           nonuniform List<scalar> 
22
(
-0.106069
-0.0889913
-0.0722394
-0.0558991
-0.0398042
-0.0239383
-0.00810414
-0.360687
-0.342011
-0.323259
-0.30446
-0.285638
-0.266818
-0.248025
-0.229287
-0.210635
-0.192104
-0.173733
-0.155575
-0.13767
-0.120093
-0.120093
)
;
    }
    procBoundary11to10
    {
        type            processor;
        value           nonuniform List<scalar> 
19
(
-0.367138
-0.36365
-0.359913
-0.355887
-0.351536
-0.346828
-0.34174
-0.336262
-0.330398
-0.324166
-0.317593
-0.310718
-0.303581
-0.29623
-0.288764
-0.2811
-0.273027
-0.273027
-0.284355
)
;
    }
    procBoundary11to17
    {
        type            processor;
        value           nonuniform List<scalar> 
23
(
-0.165466
-0.150409
-0.135651
-0.121117
-0.106965
-0.0930282
-0.0798059
-0.0667064
-0.0550678
-0.0429595
-0.0339384
-0.0224409
-0.0177474
-0.00525661
-0.00807495
0.00914802
-0.258638
-0.240768
-0.223681
-0.207262
-0.191406
-0.165466
-0.176007
)
;
    }
}


// ************************************************************************* //
