0.0608288 	0.499829 	-3.95496e-19 	0.299781 	-0.00530067 	2.23433e-18
