0.0822235 	0.49733 	1.24899e-19 	0.240942 	-0.000113407 	1.58999e-18
