/*--------------------------------*- C++ -*----------------------------------*\
  =========                 |
  \\      /  F ield         | OpenFOAM: The Open Source CFD Toolbox
   \\    /   O peration     | Website:  https://openfoam.org
    \\  /    A nd           | Version:  7
     \\/     M anipulation  |
\*---------------------------------------------------------------------------*/
FoamFile
{
    version     2.0;
    format      ascii;
    class       volScalarField;
    location    "212";
    object      p;
}
// * * * * * * * * * * * * * * * * * * * * * * * * * * * * * * * * * * * * * //

dimensions      [0 2 -2 0 0 0 0];

internalField   nonuniform List<scalar> 
12400
(
-0.37224
-0.374339
-0.375542
-0.376339
-0.377077
-0.377952
-0.379158
-0.380844
-0.383119
-0.38608
-0.389842
-0.394556
-0.400416
-0.407638
-0.416421
-0.426851
-0.43875
-0.451497
-0.463696
-0.472531
-0.371553
-0.374183
-0.375713
-0.376755
-0.377701
-0.378739
-0.380039
-0.381722
-0.383856
-0.386478
-0.389625
-0.393342
-0.397689
-0.40273
-0.408503
-0.414959
-0.421879
-0.428741
-0.434255
-0.43663
-0.371366
-0.374462
-0.376283
-0.377552
-0.378698
-0.379893
-0.381287
-0.382968
-0.384958
-0.387236
-0.389752
-0.392436
-0.395206
-0.397955
-0.40054
-0.402749
-0.404288
-0.404686
-0.402797
-0.397581
-0.371808
-0.375283
-0.377353
-0.378828
-0.380164
-0.381516
-0.383007
-0.384696
-0.386557
-0.388505
-0.390402
-0.392062
-0.39325
-0.393681
-0.393018
-0.390868
-0.386823
-0.380444
-0.370733
-0.356996
-0.37298
-0.376733
-0.379002
-0.380659
-0.382173
-0.383681
-0.385279
-0.386991
-0.388747
-0.390396
-0.391713
-0.392391
-0.392045
-0.390208
-0.386346
-0.37988
-0.370261
-0.357074
-0.339549
-0.316655
-0.374947
-0.378868
-0.381281
-0.383091
-0.38477
-0.386432
-0.388145
-0.3899
-0.39158
-0.392973
-0.393764
-0.393532
-0.391741
-0.387749
-0.380829
-0.370226
-0.35524
-0.335471
-0.310636
-0.278342
-0.377739
-0.381711
-0.384208
-0.386139
-0.387965
-0.389775
-0.39161
-0.393425
-0.39506
-0.396242
-0.396573
-0.395518
-0.3924
-0.38641
-0.376642
-0.362189
-0.342216
-0.316273
-0.285098
-0.243576
-0.381341
-0.385248
-0.387767
-0.389783
-0.391731
-0.393678
-0.395636
-0.397524
-0.39914
-0.400155
-0.40009
-0.398306
-0.393993
-0.386187
-0.373824
-0.355876
-0.33144
-0.299837
-0.263683
-0.213306
-0.385701
-0.38943
-0.391906
-0.393965
-0.396007
-0.398073
-0.400145
-0.402109
-0.403724
-0.404604
-0.404199
-0.401771
-0.396391
-0.386958
-0.372269
-0.351221
-0.322969
-0.286266
-0.246948
-0.187869
-0.390728
-0.394175
-0.396546
-0.398602
-0.4007
-0.402855
-0.405022
-0.407053
-0.408668
-0.409431
-0.408721
-0.405716
-0.399377
-0.388488
-0.371744
-0.348001
-0.316678
-0.275437
-0.23491
-0.168292
-0.396304
-0.399379
-0.401583
-0.403587
-0.405694
-0.407898
-0.410125
-0.412197
-0.413794
-0.414432
-0.413429
-0.40988
-0.402656
-0.390454
-0.371906
-0.34585
-0.312185
-0.267488
-0.225459
-0.156356
-0.402292
-0.40492
-0.4069
-0.408796
-0.410857
-0.413057
-0.415295
-0.417362
-0.418902
-0.419381
-0.418062
-0.413968
-0.405897
-0.392479
-0.372349
-0.34434
-0.308727
-0.262038
-0.218911
-0.150417
-0.408548
-0.410674
-0.412376
-0.414105
-0.416056
-0.418186
-0.420367
-0.422365
-0.423786
-0.424046
-0.42236
-0.417686
-0.408766
-0.394192
-0.372646
-0.343038
-0.306038
-0.25838
-0.214747
-0.149272
-0.414929
-0.416521
-0.417896
-0.419398
-0.421168
-0.42315
-0.425189
-0.427037
-0.428261
-0.428216
-0.42609
-0.420773
-0.410971
-0.39528
-0.372471
-0.341608
-0.303717
-0.256142
-0.212375
-0.151557
-0.421312
-0.422355
-0.423363
-0.424576
-0.426088
-0.427838
-0.429663
-0.431234
-0.432182
-0.431731
-0.429061
-0.423025
-0.412301
-0.395523
-0.371594
-0.339832
-0.301482
-0.254926
-0.211427
-0.155948
-0.427599
-0.428096
-0.428705
-0.429567
-0.430742
-0.432166
-0.433659
-0.434896
-0.435409
-0.434468
-0.431162
-0.424324
-0.412633
-0.3948
-0.3699
-0.337583
-0.299189
-0.254296
-0.211601
-0.161335
-0.433727
-0.433696
-0.433878
-0.434333
-0.435091
-0.436097
-0.437161
-0.437946
-0.437938
-0.436394
-0.432353
-0.42463
-0.411932
-0.393084
-0.367369
-0.334805
-0.296763
-0.25387
-0.212511
-0.166859
-0.439669
-0.439138
-0.438873
-0.438868
-0.439138
-0.439637
-0.440178
-0.440408
-0.439784
-0.437535
-0.432664
-0.423978
-0.410237
-0.390419
-0.364049
-0.331499
-0.294148
-0.253382
-0.213685
-0.171899
-0.445442
-0.444441
-0.443713
-0.443204
-0.442922
-0.442838
-0.44277
-0.442354
-0.441023
-0.437974
-0.432179
-0.422452
-0.407636
-0.386897
-0.360027
-0.327709
-0.29131
-0.252671
-0.214683
-0.176155
-0.451101
-0.449655
-0.448454
-0.447404
-0.446518
-0.445787
-0.445038
-0.443898
-0.441774
-0.43783
-0.431014
-0.420167
-0.404245
-0.38264
-0.355415
-0.323503
-0.288252
-0.251658
-0.215239
-0.18002
-0.456731
-0.454858
-0.453172
-0.451555
-0.450025
-0.448599
-0.44711
-0.445177
-0.442177
-0.43724
-0.429298
-0.417245
-0.400192
-0.377778
-0.350332
-0.318956
-0.284982
-0.250333
-0.215664
-0.183188
-0.462444
-0.460145
-0.457964
-0.455759
-0.45356
-0.451404
-0.449128
-0.446337
-0.442373
-0.436332
-0.427148
-0.413803
-0.395601
-0.372443
-0.34489
-0.314142
-0.281477
-0.248591
-0.216033
-0.185931
-0.468361
-0.465621
-0.462933
-0.460128
-0.457243
-0.454332
-0.451229
-0.447512
-0.442484
-0.435212
-0.424663
-0.409945
-0.39059
-0.366756
-0.339193
-0.309122
-0.277719
-0.246474
-0.215779
-0.187465
-0.474606
-0.471392
-0.46818
-0.464769
-0.461189
-0.457503
-0.453529
-0.448807
-0.442597
-0.433955
-0.421913
-0.405753
-0.385259
-0.360824
-0.333324
-0.30394
-0.273721
-0.243927
-0.214828
-0.188028
-0.481291
-0.477558
-0.473803
-0.469777
-0.465496
-0.461012
-0.456114
-0.45029
-0.442762
-0.432597
-0.418942
-0.401293
-0.379693
-0.354729
-0.327342
-0.298624
-0.269481
-0.240959
-0.213217
-0.187661
-0.488511
-0.484198
-0.479879
-0.475232
-0.470238
-0.464926
-0.459032
-0.451988
-0.442984
-0.431142
-0.415769
-0.396611
-0.373953
-0.348528
-0.321283
-0.293186
-0.265001
-0.237578
-0.210989
-0.186505
-0.496331
-0.491375
-0.486466
-0.481189
-0.475464
-0.469276
-0.462293
-0.453883
-0.443233
-0.429565
-0.412395
-0.391733
-0.36808
-0.342254
-0.315158
-0.287621
-0.260276
-0.233795
-0.2082
-0.184637
-0.504786
-0.499122
-0.493598
-0.487677
-0.481191
-0.474058
-0.465864
-0.45592
-0.443448
-0.427819
-0.408803
-0.38667
-0.362091
-0.335913
-0.308956
-0.281913
-0.255294
-0.229621
-0.204889
-0.182126
-0.513878
-0.507447
-0.501286
-0.4947
-0.487406
-0.479233
-0.469676
-0.458012
-0.443541
-0.425842
-0.404964
-0.381416
-0.355981
-0.329487
-0.302652
-0.276033
-0.250038
-0.22506
-0.201085
-0.179021
-0.523575
-0.51633
-0.509511
-0.502232
-0.494064
-0.484727
-0.473627
-0.460041
-0.443407
-0.423561
-0.40084
-0.375948
-0.349727
-0.322945
-0.296207
-0.269949
-0.244489
-0.220111
-0.196807
-0.175359
-0.533813
-0.52572
-0.518225
-0.510217
-0.501086
-0.490429
-0.477582
-0.461869
-0.442929
-0.420899
-0.396382
-0.370231
-0.343289
-0.31624
-0.289573
-0.263621
-0.238621
-0.214769
-0.192069
-0.171169
-0.544493
-0.535534
-0.527351
-0.518565
-0.508355
-0.496195
-0.481377
-0.46334
-0.441988
-0.417774
-0.391537
-0.364216
-0.336615
-0.309317
-0.2827
-0.257008
-0.232409
-0.209024
-0.186877
-0.166472
-0.555481
-0.545659
-0.536777
-0.527149
-0.515719
-0.501844
-0.484826
-0.464292
-0.440462
-0.414104
-0.386242
-0.357845
-0.329643
-0.302113
-0.275534
-0.250067
-0.225824
-0.202867
-0.181233
-0.161281
-0.56661
-0.555944
-0.546352
-0.535804
-0.522987
-0.507169
-0.487729
-0.464557
-0.43823
-0.409804
-0.380429
-0.35105
-0.322307
-0.294567
-0.268018
-0.242757
-0.218841
-0.196285
-0.175136
-0.155609
-0.577676
-0.566205
-0.555891
-0.544324
-0.529933
-0.511937
-0.489874
-0.463973
-0.435179
-0.404791
-0.374023
-0.343762
-0.314537
-0.286614
-0.260101
-0.235037
-0.211432
-0.189264
-0.168584
-0.149463
-0.588443
-0.576219
-0.565168
-0.552469
-0.536301
-0.515898
-0.491051
-0.462381
-0.431196
-0.398978
-0.366949
-0.335905
-0.306262
-0.278191
-0.25173
-0.226868
-0.203572
-0.181792
-0.161573
-0.142851
-0.598641
-0.585734
-0.573924
-0.559962
-0.54181
-0.518796
-0.491051
-0.459632
-0.426173
-0.392279
-0.359128
-0.327405
-0.297415
-0.269239
-0.242858
-0.218214
-0.195237
-0.173855
-0.154097
-0.135776
-0.607974
-0.594463
-0.581868
-0.566505
-0.546168
-0.520373
-0.489677
-0.455586
-0.420009
-0.384609
-0.350481
-0.318189
-0.287928
-0.259703
-0.23344
-0.209043
-0.186406
-0.165442
-0.146153
-0.128242
-0.616122
-0.602096
-0.588684
-0.571776
-0.549074
-0.520382
-0.486747
-0.450114
-0.412607
-0.375885
-0.340934
-0.308187
-0.27774
-0.249531
-0.223436
-0.199325
-0.177062
-0.156544
-0.137738
-0.120257
-0.622751
-0.608307
-0.59404
-0.57545
-0.550234
-0.518588
-0.482093
-0.443098
-0.403876
-0.366029
-0.330413
-0.297334
-0.266797
-0.238677
-0.212812
-0.189036
-0.167188
-0.147152
-0.128855
-0.111839
-0.62752
-0.612756
-0.597597
-0.577202
-0.549371
-0.51478
-0.475568
-0.434435
-0.393733
-0.354969
-0.318854
-0.285574
-0.25505
-0.227104
-0.201538
-0.178156
-0.156771
-0.137259
-0.119506
-0.103008
-0.630089
-0.615105
-0.599021
-0.576722
-0.546227
-0.508772
-0.467043
-0.424033
-0.382104
-0.342639
-0.306198
-0.272854
-0.242456
-0.214779
-0.189591
-0.166668
-0.145803
-0.126862
-0.109695
-0.0937449
-0.630129
-0.615026
-0.597988
-0.573721
-0.540575
-0.500403
-0.456413
-0.411814
-0.368928
-0.328983
-0.292396
-0.259136
-0.228985
-0.201678
-0.176954
-0.154561
-0.134277
-0.115965
-0.0994163
-0.0839875
-0.627331
-0.612207
-0.594201
-0.56794
-0.532221
-0.489546
-0.443594
-0.397719
-0.354152
-0.313958
-0.27741
-0.244385
-0.21461
-0.187781
-0.163611
-0.141827
-0.12219
-0.10458
-0.0886761
-0.0737429
-0.621414
-0.606366
-0.587394
-0.559162
-0.521011
-0.476102
-0.428523
-0.381702
-0.337739
-0.29753
-0.261213
-0.22858
-0.199313
-0.173076
-0.149559
-0.128472
-0.109546
-0.0927197
-0.0774696
-0.0632007
-0.612136
-0.597255
-0.57734
-0.547209
-0.506829
-0.460006
-0.411164
-0.363737
-0.319669
-0.27968
-0.243786
-0.211706
-0.183086
-0.157569
-0.134808
-0.114516
-0.0964031
-0.0803606
-0.0658216
-0.0523272
-0.599294
-0.58467
-0.563862
-0.531951
-0.489602
-0.441225
-0.391503
-0.343818
-0.299931
-0.260397
-0.225118
-0.193775
-0.165942
-0.141283
-0.119384
-0.0999568
-0.0827359
-0.0675429
-0.0537673
-0.0411007
-0.582736
-0.568457
-0.546829
-0.513307
-0.469296
-0.419758
-0.369551
-0.321954
-0.278535
-0.239689
-0.205216
-0.174822
-0.147919
-0.124209
-0.103286
-0.0848209
-0.0685645
-0.0542893
-0.0413322
-0.0295392
-0.562361
-0.548511
-0.526164
-0.491245
-0.445919
-0.395634
-0.345343
-0.298177
-0.25551
-0.217598
-0.184174
-0.154812
-0.129012
-0.106385
-0.0865406
-0.069134
-0.0539172
-0.0406256
-0.0285404
-0.0176717
-0.538124
-0.524785
-0.501847
-0.465782
-0.419521
-0.368917
-0.318938
-0.272539
-0.230913
-0.194171
-0.161965
-0.133824
-0.109259
-0.0878441
-0.0691842
-0.0529283
-0.0388274
-0.0265812
-0.0154206
-0.00553111
-0.510034
-0.497285
-0.473907
-0.436982
-0.390193
-0.3397
-0.290416
-0.245119
-0.204802
-0.16945
-0.138651
-0.111902
-0.0887101
-0.0686304
-0.0512585
-0.0362428
-0.0233324
-0.0121909
-0.00200774
0.00684701
-0.478157
-0.466073
-0.442432
-0.404968
-0.358073
-0.308089
-0.25987
-0.216
-0.177253
-0.143507
-0.114301
-0.0891067
-0.0674228
-0.0487949
-0.0328118
-0.0191225
-0.00747423
0.00250495
0.011656
0.0194214
-0.442613
-0.431265
-0.407566
-0.369915
-0.323297
-0.274174
-0.227447
-0.185299
-0.148366
-0.116433
-0.0889955
-0.0655083
-0.0454623
-0.0283974
-0.0138987
-0.00161783
0.00870055
0.0174615
0.0255227
0.0321445
-0.403564
-0.393034
-0.369511
-0.331993
-0.285915
-0.238229
-0.193293
-0.153144
-0.118256
-0.0883296
-0.0628262
-0.0411888
-0.0229028
-0.00750493
0.00541982
0.0162155
0.0251416
0.0326323
0.0395448
0.0449673
-0.361204
-0.351616
-0.328483
-0.291242
-0.246336
-0.200409
-0.157577
-0.119685
-0.0870544
-0.0593126
-0.0358965
-0.0162403
0.000173245
0.0138082
0.0250763
0.0343158
0.0417948
0.0479723
0.0536819
0.0578504
-0.315766
-0.30728
-0.284609
-0.248087
-0.204783
-0.160927
-0.120487
-0.0850864
-0.0549043
-0.0295099
-0.00831991
0.00923607
0.0236758
0.0354613
0.0449971
0.0526162
0.058603
0.0634366
0.067891
0.0707516
-0.267498
-0.260352
-0.238172
-0.202934
-0.161489
-0.120016
-0.0822271
-0.0495251
-0.0219629
0.000939632
0.0197801
0.0351309
0.0475079
0.0573678
0.0651043
0.0710482
0.0755116
0.0789747
0.0820812
0.0835235
-0.216765
-0.211092
-0.18975
-0.156002
-0.11673
-0.0779224
-0.0430136
-0.0131916
0.0116016
0.031887
0.0482717
0.0613274
0.0715661
0.0794357
0.0853173
0.0895479
0.0924765
0.0945258
0.0960634
0.0957663
-0.16429
-0.159708
-0.139594
-0.107608
-0.0707989
-0.0349084
-0.00307535
0.0237124
0.0456112
0.0631747
0.0770155
0.0877023
0.095741
0.101568
0.105554
0.108056
0.109456
0.110007
0.109608
0.107139
-0.110172
-0.106754
-0.0880539
-0.0580955
-0.0240081
0.00875356
0.037348
0.0609761
0.0798796
0.0946378
0.105865
0.114126
0.119918
0.123665
0.125731
0.126505
0.12637
0.125287
0.122686
0.118562
-0.0548146
-0.0526627
-0.0355232
-0.00782418
0.0233214
0.0527808
0.0780085
0.0983808
0.114213
0.126105
0.134671
0.140466
0.143979
0.145622
0.14576
0.144805
0.143084
0.140215
0.135481
0.132621
0.00132989
0.00214906
0.0175921
0.042836
0.0708605
0.0968841
0.118652
0.135702
0.148415
0.157402
0.163276
0.166585
0.167804
0.167335
0.165548
0.162852
0.159471
0.154844
0.148736
0.146334
0.0578107
0.0572536
0.0708801
0.0935091
0.118276
0.14077
0.159021
0.172713
0.182282
0.188351
0.191524
0.192343
0.19127
0.188698
0.184998
0.180557
0.175504
0.169275
0.162114
0.159239
0.114175
0.112215
0.123926
0.143818
0.165233
0.184145
0.198855
0.209184
0.215613
0.21877
0.219257
0.2176
0.214253
0.209601
0.204008
0.197829
0.191136
0.183446
0.175304
0.171525
0.169969
0.166595
0.176317
0.193388
0.2114
0.226715
0.237896
0.244886
0.248204
0.248483
0.246315
0.242217
0.236632
0.229935
0.222479
0.21459
0.20631
0.197249
0.188101
0.183221
0.224743
0.219958
0.227645
0.24185
0.256448
0.268191
0.275887
0.279592
0.279855
0.27731
0.272542
0.266056
0.258283
0.24959
0.240316
0.230761
0.220954
0.210587
0.200415
0.194348
0.278056
0.271875
0.277508
0.288841
0.300056
0.308289
0.312579
0.31308
0.310368
0.305078
0.297783
0.28898
0.279087
0.26846
0.257426
0.246261
0.234991
0.223375
0.212177
0.204888
0.329475
0.321931
0.325519
0.334011
0.341914
0.346734
0.347727
0.345134
0.339554
0.331617
0.32189
0.310857
0.298926
0.286443
0.273719
0.261011
0.248347
0.235539
0.223335
0.214816
0.378585
0.369723
0.371304
0.377023
0.381722
0.383262
0.381097
0.375545
0.367226
0.356764
0.344717
0.331559
0.317688
0.303438
0.289107
0.274934
0.260951
0.247016
0.233836
0.224103
0.424989
0.414867
0.414506
0.417557
0.419196
0.41762
0.412464
0.404116
0.393208
0.380363
0.366127
0.350965
0.335265
0.319351
0.303507
0.287957
0.272737
0.257744
0.243635
0.232717
0.468313
0.457001
0.454789
0.455312
0.454068
0.44957
0.441619
0.430659
0.417335
0.402266
0.385989
0.36896
0.351557
0.334094
0.316842
0.30001
0.283642
0.267671
0.252686
0.240631
0.508205
0.495789
0.491843
0.490006
0.486088
0.478892
0.468363
0.454998
0.439451
0.422336
0.404183
0.385437
0.366469
0.347582
0.329036
0.311028
0.29361
0.276744
0.260946
0.247817
0.544345
0.530918
0.525378
0.521381
0.515028
0.505381
0.492516
0.476973
0.459414
0.440447
0.420595
0.400297
0.379913
0.35974
0.340025
0.320954
0.302587
0.284917
0.268378
0.254252
0.576439
0.562109
0.555136
0.549204
0.540679
0.528853
0.513913
0.496438
0.477094
0.456484
0.435126
0.413451
0.391812
0.370497
0.349745
0.329732
0.310528
0.292146
0.274946
0.259915
0.604229
0.589113
0.580887
0.57327
0.562859
0.549146
0.532411
0.513264
0.492375
0.470345
0.447685
0.424819
0.402094
0.379793
0.358144
0.337316
0.317388
0.298395
0.280617
0.264785
0.627491
0.611712
0.60243
0.593398
0.581408
0.566116
0.547882
0.527339
0.50516
0.481943
0.458194
0.434332
0.4107
0.387574
0.365175
0.343665
0.323133
0.303627
0.285362
0.268849
0.646035
0.629725
0.6196
0.609439
0.596192
0.579646
0.560221
0.538569
0.515364
0.491203
0.466588
0.441934
0.417579
0.393796
0.370798
0.348744
0.32773
0.307817
0.289165
0.272106
0.659712
0.643009
0.632263
0.621273
0.607105
0.589642
0.569344
0.546878
0.522921
0.498067
0.472815
0.447578
0.422691
0.398422
0.374983
0.352527
0.331157
0.310946
0.292015
0.27456
0.668409
0.651455
0.640319
0.628811
0.614069
0.596031
0.575187
0.552211
0.527782
0.502491
0.476836
0.45123
0.426005
0.401428
0.377706
0.354993
0.333393
0.31299
0.293882
0.276152
0.672053
0.654994
0.643704
0.631996
0.617031
0.59877
0.577712
0.554533
0.529914
0.504446
0.478627
0.452868
0.427502
0.402794
0.378952
0.356127
0.334427
0.313935
0.29473
0.276865
0.670614
0.653596
0.642391
0.630803
0.615971
0.597838
0.576899
0.553828
0.529304
0.503921
0.478177
0.452483
0.427174
0.402516
0.378716
0.355926
0.334254
0.313779
0.294576
0.276717
0.664099
0.647267
0.636387
0.625238
0.610892
0.593241
0.572754
0.550099
0.525956
0.500919
0.475489
0.450078
0.425024
0.400594
0.376999
0.354392
0.332879
0.312533
0.293448
0.275756
0.652557
0.636056
0.625734
0.61534
0.601831
0.58501
0.565304
0.543372
0.519892
0.49546
0.47058
0.445669
0.421066
0.397042
0.373812
0.351535
0.330308
0.310202
0.291348
0.273984
0.636077
0.620047
0.610512
0.601179
0.588849
0.5732
0.5546
0.533692
0.511151
0.487579
0.463482
0.439282
0.415323
0.39188
0.369175
0.34737
0.326557
0.306796
0.288276
0.271385
0.614787
0.599364
0.590834
0.582858
0.572039
0.557892
0.540714
0.521122
0.499792
0.477327
0.45424
0.430959
0.407831
0.38514
0.363114
0.341922
0.321647
0.302336
0.284247
0.267962
0.588854
0.574166
0.566847
0.560509
0.551517
0.539193
0.523739
0.505747
0.485887
0.46477
0.442912
0.42075
0.398636
0.376862
0.355665
0.335221
0.315605
0.296847
0.279283
0.263727
0.558482
0.544652
0.538734
0.534295
0.52743
0.51723
0.503792
0.487669
0.46953
0.449988
0.42957
0.408718
0.387793
0.367094
0.34687
0.327305
0.308465
0.290361
0.273409
0.258695
0.523911
0.51105
0.506707
0.504407
0.499947
0.492157
0.481006
0.467008
0.450825
0.433077
0.414298
0.394937
0.375367
0.355895
0.33678
0.318219
0.300267
0.282912
0.266654
0.252881
0.485417
0.473627
0.47101
0.471065
0.469263
0.464145
0.455536
0.443901
0.429895
0.414144
0.39719
0.379493
0.361433
0.343328
0.325452
0.308011
0.291054
0.27454
0.259051
0.246304
0.443305
0.432677
0.431916
0.434513
0.435596
0.433389
0.427555
0.418502
0.406877
0.39331
0.378355
0.362479
0.346074
0.329469
0.31295
0.296739
0.280877
0.265291
0.250636
0.238988
0.397912
0.388524
0.389725
0.395021
0.399185
0.400101
0.397251
0.390979
0.38192
0.370708
0.357907
0.343997
0.32938
0.314395
0.299344
0.284464
0.26979
0.255212
0.241451
0.230957
0.349602
0.34152
0.344763
0.352882
0.360291
0.364512
0.36483
0.361515
0.355184
0.34648
0.335975
0.324161
0.311451
0.298195
0.284711
0.271253
0.257852
0.244356
0.231538
0.222238
0.298764
0.292039
0.297377
0.308407
0.319191
0.326869
0.33051
0.330302
0.326843
0.320779
0.312693
0.303088
0.292389
0.28096
0.269131
0.257177
0.245126
0.232779
0.220942
0.212862
0.245806
0.240479
0.247934
0.261928
0.276179
0.287431
0.294523
0.297546
0.297078
0.293765
0.288202
0.280904
0.272307
0.262787
0.25269
0.242312
0.231681
0.220542
0.209712
0.202857
0.191158
0.187251
0.19682
0.213792
0.231563
0.246471
0.257109
0.263462
0.266078
0.265607
0.262651
0.257739
0.251319
0.243778
0.235476
0.226736
0.21759
0.207711
0.1979
0.192252
0.135262
0.132786
0.144436
0.16436
0.185662
0.204272
0.218519
0.228271
0.234041
0.236477
0.236194
0.233729
0.229545
0.224037
0.217582
0.21053
0.202926
0.194361
0.185559
0.181071
0.07857
0.0775212
0.0911901
0.114002
0.138806
0.161124
0.17901
0.1922
0.201166
0.206555
0.208986
0.209012
0.207107
0.203674
0.199102
0.193774
0.187769
0.18058
0.172765
0.169332
0.0215437
0.0219027
0.0375024
0.0630968
0.09133
0.117323
0.138843
0.155481
0.16766
0.17602
0.181189
0.18373
0.184128
0.182797
0.180132
0.176548
0.17219
0.166466
0.159613
0.157023
-0.0353541
-0.0336227
-0.0162047
0.0120293
0.0435751
0.0731702
0.0982827
0.118347
0.133728
0.145055
0.152962
0.158022
0.160733
0.161518
0.160771
0.158932
0.156243
0.152125
0.14632
0.14413
-0.0916606
-0.0886114
-0.0695075
-0.0388152
-0.00411729
0.0289644
0.0575928
0.0810307
0.0995754
0.113841
0.124466
0.132031
0.137046
0.139947
0.141122
0.141013
0.139975
0.137617
0.1332
0.130519
-0.146914
-0.142628
-0.121985
-0.0890526
-0.0514066
-0.0149954
0.0170357
0.0437637
0.0654072
0.0825598
0.0958597
0.105896
0.11319
0.118189
0.121282
0.122884
0.123413
0.122838
0.120585
0.116682
-0.200666
-0.195239
-0.173225
-0.138304
-0.097957
-0.0584155
-0.0231311
0.00677292
0.0314232
0.0513866
0.0672992
0.0797549
0.0892849
0.0963495
0.101342
0.104646
0.106679
0.107716
0.107667
0.105422
-0.252594
-0.24596
-0.222839
-0.186198
-0.143441
-0.10101
-0.0626563
-0.0297207
-0.00218138
0.020494
0.038936
0.0537416
0.0654485
0.0745294
0.0813885
0.086388
0.0899081
0.0924034
0.0942755
0.0942069
-0.302433
-0.294333
-0.270514
-0.23237
-0.187546
-0.142504
-0.101298
-0.0655042
-0.0352189
-0.00995238
0.0109161
0.0279844
0.0417945
0.0528283
0.0615038
0.0681754
0.0731828
0.0770426
0.0804534
0.0821163
-0.349469
-0.340074
-0.316055
-0.27649
-0.229986
-0.182634
-0.138825
-0.100374
-0.0675103
-0.0397946
-0.0166212
0.00260614
0.0184311
0.0313417
0.0417673
0.0500647
0.0565424
0.0617166
0.0664297
0.0694805
-0.3934
-0.382924
-0.358329
-0.318708
-0.270497
-0.221149
-0.175019
-0.13414
-0.0988864
-0.0688835
-0.0435445
-0.0222777
-0.00453972
0.0101595
0.0222571
0.032116
0.0400258
0.0464813
0.0523921
0.0567049
-0.433985
-0.422612
-0.39769
-0.357905
-0.308868
-0.257814
-0.209674
-0.16662
-0.12919
-0.0970802
-0.0697315
-0.0465594
-0.0270231
-0.0106341
0.00304848
0.0143938
0.0236822
0.0313814
0.0384295
0.0439407
-0.470991
-0.45884
-0.433873
-0.394099
-0.344648
-0.292417
-0.242596
-0.197649
-0.158274
-0.124257
-0.0950701
-0.0701398
-0.0489312
-0.0309611
-0.0157883
-0.0030385
0.00756416
0.0164568
0.0245803
0.0312266
-0.504222
-0.491362
-0.466589
-0.427204
-0.377669
-0.324732
-0.273612
-0.227077
-0.18601
-0.150298
-0.11946
-0.0929294
-0.0701838
-0.0507502
-0.0341894
-0.0201231
-0.00827838
0.00174717
0.0108786
0.0185962
-0.533517
-0.520012
-0.495638
-0.457015
-0.407824
-0.354581
-0.302571
-0.254775
-0.21228
-0.175096
-0.142815
-0.114848
-0.0907091
-0.0699378
-0.0520976
-0.0368088
-0.0238
-0.0127066
-0.00263374
0.00609291
-0.558765
-0.544689
-0.520889
-0.483356
-0.434956
-0.381846
-0.329347
-0.280638
-0.236988
-0.198557
-0.165067
-0.135824
-0.110444
-0.0884679
-0.0694627
-0.0530499
-0.0389596
-0.0268653
-0.0159147
-0.00624113
-0.579913
-0.565341
-0.542266
-0.506117
-0.458933
-0.406413
-0.35384
-0.304575
-0.260082
-0.220592
-0.18616
-0.155791
-0.129334
-0.106293
-0.086241
-0.0688069
-0.0537211
-0.0406947
-0.0289284
-0.0183707
-0.596963
-0.581975
-0.559747
-0.525239
-0.479668
-0.428192
-0.375969
-0.326509
-0.281496
-0.241334
-0.205895
-0.174693
-0.147338
-0.123374
-0.102395
-0.0840467
-0.0680538
-0.0541665
-0.0416468
-0.0302666
-0.60998
-0.594657
-0.573371
-0.540715
-0.497119
-0.447122
-0.395675
-0.346386
-0.301143
-0.260524
-0.224432
-0.192538
-0.164419
-0.139681
-0.117895
-0.0987439
-0.0819323
-0.0672578
-0.0540493
-0.0419036
-0.619085
-0.603512
-0.58323
-0.55259
-0.511283
-0.463178
-0.412925
-0.364177
-0.319005
-0.27817
-0.241695
-0.209295
-0.180588
-0.155186
-0.132718
-0.112879
-0.0953368
-0.0799496
-0.0661211
-0.0532591
-0.624455
-0.608718
-0.589475
-0.560961
-0.522204
-0.476365
-0.427712
-0.379875
-0.335087
-0.294295
-0.25765
-0.224933
-0.195803
-0.169897
-0.14688
-0.126432
-0.108258
-0.0922273
-0.0778465
-0.064323
-0.626319
-0.610509
-0.592312
-0.565976
-0.529967
-0.486723
-0.440053
-0.39349
-0.349399
-0.308907
-0.272302
-0.239449
-0.210057
-0.183796
-0.16035
-0.139411
-0.12071
-0.104093
-0.0891899
-0.0751212
-0.624949
-0.609162
-0.591996
-0.567835
-0.534702
-0.494327
-0.449989
-0.40505
-0.361963
-0.322025
-0.28567
-0.252861
-0.223363
-0.196882
-0.173128
-0.15181
-0.132671
-0.115547
-0.10017
-0.0857996
-0.62066
-0.604992
-0.588823
-0.566786
-0.536583
-0.499284
-0.457587
-0.414601
-0.372814
-0.333679
-0.297783
-0.265194
-0.235742
-0.209173
-0.185223
-0.163629
-0.144141
-0.126595
-0.110792
-0.0960638
-0.613791
-0.598345
-0.583128
-0.563117
-0.535827
-0.501736
-0.462936
-0.422205
-0.382003
-0.343915
-0.308679
-0.27648
-0.24722
-0.220691
-0.196659
-0.174884
-0.155133
-0.137241
-0.121059
-0.105958
-0.604708
-0.589587
-0.575269
-0.557149
-0.532685
-0.501859
-0.46615
-0.427941
-0.389592
-0.352784
-0.318403
-0.286757
-0.257831
-0.231466
-0.207459
-0.185597
-0.165664
-0.147498
-0.13099
-0.11556
-0.593784
-0.579092
-0.56562
-0.54923
-0.527445
-0.499857
-0.467366
-0.431901
-0.395651
-0.360347
-0.327009
-0.296074
-0.267616
-0.241532
-0.217653
-0.195795
-0.175758
-0.157385
-0.140604
-0.124905
-0.581394
-0.567233
-0.554558
-0.539725
-0.520419
-0.495965
-0.46674
-0.43419
-0.400259
-0.36667
-0.334557
-0.304483
-0.27662
-0.250929
-0.227278
-0.205509
-0.185445
-0.16693
-0.149921
-0.134006
-0.567907
-0.554371
-0.542451
-0.528997
-0.511936
-0.490441
-0.464453
-0.434928
-0.403501
-0.371824
-0.341109
-0.312042
-0.284897
-0.259704
-0.236375
-0.214778
-0.194757
-0.176161
-0.158967
-0.142878
-0.55367
-0.540847
-0.529649
-0.517406
-0.502334
-0.483563
-0.460702
-0.434244
-0.405465
-0.375876
-0.346726
-0.318808
-0.2925
-0.267908
-0.24499
-0.223642
-0.203733
-0.185116
-0.167772
-0.151543
-0.539006
-0.526973
-0.516475
-0.50529
-0.491946
-0.47562
-0.455703
-0.432282
-0.406244
-0.378897
-0.35147
-0.32484
-0.299486
-0.275594
-0.253173
-0.232149
-0.212416
-0.193835
-0.176375
-0.160035
-0.524207
-0.513027
-0.503215
-0.492955
-0.481089
-0.466904
-0.449685
-0.429193
-0.405934
-0.380951
-0.355397
-0.330192
-0.30591
-0.282817
-0.260978
-0.240352
-0.220856
-0.202364
-0.18482
-0.168391
-0.509525
-0.499247
-0.490116
-0.480674
-0.470054
-0.4577
-0.442883
-0.425143
-0.404635
-0.382102
-0.358554
-0.334914
-0.311824
-0.289632
-0.268461
-0.248305
-0.229105
-0.210755
-0.193155
-0.176655
-0.495174
-0.485829
-0.47738
-0.468671
-0.459099
-0.448274
-0.435535
-0.420304
-0.402451
-0.382407
-0.360981
-0.339043
-0.317276
-0.296094
-0.275681
-0.256071
-0.237225
-0.219066
-0.201436
-0.184878
-0.481325
-0.47293
-0.465165
-0.457129
-0.448434
-0.438862
-0.42787
-0.414856
-0.399494
-0.381922
-0.362709
-0.342609
-0.322301
-0.302249
-0.282695
-0.263711
-0.24528
-0.227362
-0.209726
-0.193118
-0.468109
-0.460666
-0.453587
-0.446179
-0.438228
-0.429666
-0.420097
-0.408979
-0.39588
-0.380704
-0.363759
-0.345626
-0.326925
-0.308141
-0.28956
-0.271293
-0.253342
-0.235716
-0.218096
-0.201441
-0.45562
-0.449118
-0.442723
-0.435911
-0.428599
-0.420842
-0.4124
-0.402845
-0.391736
-0.378814
-0.364145
-0.348093
-0.331159
-0.3138
-0.296326
-0.278884
-0.261489
-0.244209
-0.226626
-0.20992
-0.443922
-0.438338
-0.432618
-0.426374
-0.41962
-0.412501
-0.404928
-0.396615
-0.38719
-0.376324
-0.363883
-0.349999
-0.334995
-0.319243
-0.303038
-0.286552
-0.269804
-0.252932
-0.235408
-0.218644
-0.433055
-0.428356
-0.423292
-0.417589
-0.411326
-0.404714
-0.397791
-0.390429
-0.382374
-0.373315
-0.362996
-0.351327
-0.338409
-0.324467
-0.309727
-0.294363
-0.278376
-0.26199
-0.24455
-0.227709
-0.423046
-0.419187
-0.414748
-0.409553
-0.403725
-0.397515
-0.391064
-0.3844
-0.377417
-0.369889
-0.361524
-0.35206
-0.341365
-0.329451
-0.316409
-0.302372
-0.287299
-0.271496
-0.25417
-0.237237
-0.41392
-0.410843
-0.406985
-0.402255
-0.396809
-0.390915
-0.3848
-0.378623
-0.372442
-0.366161
-0.359532
-0.352201
-0.34382
-0.334151
-0.323073
-0.310622
-0.296661
-0.281582
-0.264423
-0.247349
-0.405704
-0.403338
-0.400004
-0.395688
-0.390567
-0.38492
-0.379033
-0.373179
-0.367568
-0.362264
-0.357122
-0.351782
-0.345742
-0.33851
-0.329686
-0.319132
-0.306548
-0.292383
-0.275464
-0.258258
-0.398433
-0.396689
-0.393812
-0.389852
-0.385003
-0.379543
-0.373802
-0.368147
-0.36292
-0.358346
-0.354429
-0.350879
-0.347125
-0.342465
-0.33618
-0.327886
-0.31701
-0.304055
-0.287526
-0.270075
-0.392144
-0.390921
-0.388423
-0.38476
-0.380132
-0.374812
-0.369162
-0.363617
-0.358631
-0.35458
-0.351629
-0.349622
-0.348014
-0.34597
-0.342469
-0.336818
-0.32808
-0.316692
-0.300831
-0.283419
-0.386878
-0.386047
-0.38385
-0.380432
-0.375984
-0.370773
-0.365182
-0.359695
-0.354854
-0.351159
-0.348939
-0.348203
-0.348515
-0.349018
-0.348456
-0.345821
-0.339683
-0.330454
-0.315605
-0.298206
-0.382647
-0.382077
-0.380103
-0.376883
-0.372589
-0.367477
-0.36194
-0.356497
-0.35175
-0.348298
-0.346608
-0.346869
-0.348811
-0.351669
-0.35407
-0.35473
-0.351725
-0.345054
-0.332844
-0.315953
-0.37944
-0.378992
-0.377175
-0.374113
-0.369963
-0.364962
-0.359506
-0.35413
-0.349475
-0.346206
-0.344901
-0.345909
-0.349161
-0.354066
-0.3593
-0.363358
-0.364047
-0.360376
-0.352062
-0.335015
-0.377209
-0.376753
-0.375025
-0.372099
-0.368096
-0.36324
-0.357916
-0.352668
-0.34815
-0.345065
-0.344065
-0.345625
-0.349875
-0.356446
-0.364226
-0.371564
-0.376324
-0.376018
-0.371552
-0.355163
-0.375862
-0.375285
-0.373591
-0.370785
-0.366947
-0.362281
-0.357165
-0.352131
-0.347836
-0.344991
-0.344286
-0.346283
-0.351275
-0.359121
-0.369029
-0.379322
-0.388184
-0.391586
-0.390936
-0.376415
-0.375274
-0.374489
-0.372788
-0.370093
-0.36644
-0.36202
-0.357194
-0.35248
-0.34852
-0.346015
-0.345658
-0.348058
-0.353625
-0.362413
-0.373982
-0.386758
-0.399418
-0.406769
-0.41029
-0.398708
-0.375294
-0.374245
-0.372509
-0.369923
-0.366481
-0.362361
-0.357908
-0.353623
-0.35012
-0.348074
-0.348161
-0.351
-0.357075
-0.36658
-0.379389
-0.39413
-0.41005
-0.421313
-0.429467
-0.4217
-0.375757
-0.374423
-0.372642
-0.370169
-0.366962
-0.363191
-0.359187
-0.355428
-0.352496
-0.351029
-0.351671
-0.355029
-0.361621
-0.371735
-0.385491
-0.401728
-0.420288
-0.435064
-0.448119
-0.444745
-0.376498
-0.374893
-0.373073
-0.370724
-0.367775
-0.364394
-0.360899
-0.357744
-0.355475
-0.354687
-0.355984
-0.35995
-0.367115
-0.377822
-0.392366
-0.409757
-0.430402
-0.448034
-0.46592
-0.467064
-0.37736
-0.37553
-0.373695
-0.371487
-0.368817
-0.365855
-0.362911
-0.360411
-0.358864
-0.358821
-0.360842
-0.365487
-0.373286
-0.384622
-0.399898
-0.41825
-0.440562
-0.460391
-0.482656
-0.488009
-0.378206
-0.376223
-0.374409
-0.372365
-0.369992
-0.367468
-0.365093
-0.363268
-0.362465
-0.363189
-0.365962
-0.371318
-0.37979
-0.391795
-0.4078
-0.427041
-0.45072
-0.472302
-0.498168
-0.507232
-0.378918
-0.376874
-0.37513
-0.373274
-0.371212
-0.36913
-0.367321
-0.366162
-0.366085
-0.367554
-0.371056
-0.37711
-0.386249
-0.398932
-0.415655
-0.435788
-0.460598
-0.483737
-0.512268
-0.524608
-0.379404
-0.377402
-0.375782
-0.37414