/*--------------------------------*- C++ -*----------------------------------*\
  =========                 |
  \\      /  F ield         | OpenFOAM: The Open Source CFD Toolbox
   \\    /   O peration     | Website:  https://openfoam.org
    \\  /    A nd           | Version:  7
     \\/     M anipulation  |
\*---------------------------------------------------------------------------*/
FoamFile
{
    version     2.0;
    format      ascii;
    class       surfaceScalarField;
    location    "1";
    object      phi;
}
// * * * * * * * * * * * * * * * * * * * * * * * * * * * * * * * * * * * * * //

dimensions      [0 3 -1 0 0 0 0];

internalField   nonuniform List<scalar> 
615
(
0.000136328
7.74805e-07
0.000136346
6.61194e-07
0.000136362
5.64257e-07
0.000136376
4.81545e-07
0.000136387
4.10966e-07
0.000136397
3.5074e-07
0.000136405
2.99345e-07
0.000136413
2.55486e-07
0.000136419
2.18056e-07
0.000136424
1.86113e-07
0.000136428
1.58851e-07
0.000136432
1.35584e-07
0.000136435
1.15726e-07
0.000136438
9.87778e-08
0.000136441
8.43122e-08
0.000136443
7.19655e-08
0.000136444
6.14273e-08
0.000136446
5.24326e-08
0.000136447
4.47551e-08
0.000136448
3.8202e-08
0.000136449
3.26086e-08
0.00013645
2.78342e-08
0.000136451
2.3759e-08
0.000136451
2.02804e-08
0.000136452
1.73112e-08
0.000136452
1.47766e-08
0.000136452
1.26132e-08
0.000136453
1.07665e-08
0.000136453
9.19032e-09
0.000136453
7.84491e-09
0.000136453
6.69647e-09
0.000136454
5.71623e-09
0.000136454
4.8794e-09
0.000136454
4.16506e-09
0.000136454
3.55537e-09
0.000136454
3.03496e-09
0.000136454
2.59076e-09
2.21155e-09
0.000126227
7.32773e-05
0.000127913
6.23732e-05
0.0001294
5.32406e-05
0.000130714
4.55292e-05
0.000131873
3.89725e-05
0.000132887
3.33702e-05
0.000133772
2.85694e-05
0.000134538
2.44499e-05
0.0001352
2.09141e-05
0.000135769
1.78805e-05
0.000136257
1.52794e-05
0.000136675
1.30513e-05
0.000137033
1.11441e-05
0.000137339
9.51295e-06
0.000137601
8.11878e-06
0.000137825
6.92782e-06
0.000138016
5.9109e-06
0.000138179
5.04288e-06
0.000138318
4.30215e-06
0.000138437
3.67015e-06
0.000138539
3.13099e-06
0.000138626
2.67107e-06
0.0001387
2.27876e-06
0.000138763
1.94413e-06
0.000138818
1.65869e-06
0.000138864
1.41521e-06
0.000138903
1.20751e-06
0.000138937
1.03033e-06
0.000138966
8.79177e-07
0.00013899
7.50224e-07
0.000139011
6.40205e-07
0.000139029
5.46335e-07
0.000139045
4.66242e-07
0.000139058
3.97901e-07
0.000139069
3.39584e-07
0.000139078
2.89821e-07
0.000139086
2.47354e-07
0.000139093
2.11114e-07
0.000139099
1.80186e-07
0.000139104
1.53791e-07
0.000139109
1.31264e-07
0.000139112
1.12039e-07
0.000139115
9.56297e-08
0.000139118
8.16248e-08
0.00013912
6.96714e-08
0.000139122
5.94688e-08
0.000139124
5.07606e-08
0.000139126
4.33279e-08
0.000139127
3.69837e-08
0.000139128
3.15686e-08
0.000139129
2.69465e-08
0.000139129
2.30012e-08
0.00013913
1.96336e-08
0.000139131
1.6759e-08
0.000139131
1.43052e-08
0.000139131
1.22108e-08
0.000139132
1.0423e-08
0.000139132
8.89705e-09
0.000139132
7.59453e-09
0.000139133
6.48275e-09
0.000139133
5.5338e-09
0.000139133
4.72372e-09
0.000139133
4.0322e-09
0.000139133
3.44196e-09
0.000139133
2.93816e-09
0.000139133
2.50812e-09
2.14098e-09
0.000127299
7.10213e-05
0.000129241
6.04315e-05
0.000130934
5.15478e-05
0.000132417
4.4046e-05
0.000133716
3.76734e-05
0.00013485
3.22361e-05
0.000135836
2.75834e-05
0.00013669
2.35962e-05
0.000137427
2.01776e-05
0.00013806
1.72468e-05
0.000138604
1.47355e-05
0.00013907
1.2585e-05
0.00013947
1.0745e-05
0.000139811
9.17151e-06
0.000140103
7.82686e-06
0.000140352
6.67833e-06
0.000140566
5.69772e-06
0.000140748
4.86076e-06
0.000140903
4.14657e-06
0.000141036
3.53727e-06
0.00014115
3.0175e-06
0.000141247
2.57414e-06
0.000141329
2.19598e-06
0.0001414
1.87343e-06
0.000141461
1.59831e-06
0.000141512
1.36365e-06
0.000141556
1.16348e-06
0.000141594
9.92737e-07
0.000141626
8.47079e-07
0.000141653
7.22817e-07
0.000141677
6.16804e-07
0.000141697
5.26356e-07
0.000141714
4.49184e-07
0.000141728
3.83337e-07
0.000141741
3.27151e-07
0.000141751
2.79206e-07
0.00014176
2.38293e-07
0.000141768
2.03378e-07
0.000141775
1.73582e-07
0.00014178
1.48153e-07
0.000141785
1.26451e-07
0.000141789
1.0793e-07
0.000141793
9.21224e-08
0.000141796
7.86307e-08
0.000141798
6.71155e-08
0.0001418
5.7287e-08
0.000141802
4.88981e-08
0.000141804
4.1738e-08
0.000141805
3.56265e-08
0.000141806
3.04101e-08
0.000141807
2.59575e-08
0.000141808
2.2157e-08
0.000141809
1.89129e-08
0.00014181
1.61438e-08
0.00014181
1.37801e-08
0.000141811
1.17625e-08
0.000141811
1.00404e-08
0.000141811
8.57038e-09
0.000141812
7.31565e-09
0.000141812
6.24471e-09
0.000141812
5.33061e-09
0.000141812
4.55031e-09
0.000141812
3.8842e-09
0.000141812
3.31563e-09
0.000141813
2.83032e-09
0.000141813
2.41604e-09
2.06236e-09
0.000128392
6.84617e-05
0.00013058
5.82432e-05
0.000132476
4.96522e-05
0.000134127
4.23945e-05
0.000135567
3.62335e-05
0.00013682
3.09829e-05
0.000137908
2.6496e-05
0.000138848
2.26558e-05
0.000139659
1.93666e-05
0.000140357
1.65491e-05
0.000140956
1.41365e-05
0.00014147
1.20715e-05
0.000141909
1.03052e-05
0.000142286
8.79523e-06
0.000142607
7.50509e-06
0.000142882
6.40328e-06
0.000143117
5.46268e-06
0.000143318
4.65995e-06
0.00014349
3.97504e-06
0.000143636
3.39075e-06
0.000143761
2.89236e-06
0.000143868
2.46728e-06
0.00014396
2.10472e-06
0.000144037
1.7955e-06
0.000144104
1.53177e-06
0.000144161
1.30684e-06
0.000144209
1.11497e-06
0.000144251
9.51318e-07
0.000144286
8.11716e-07
0.000144316
6.92625e-07
0.000144342
5.91028e-07
0.000144364
5.0435e-07
0.000144383
4.30398e-07
0.000144399
3.67299e-07
0.000144413
3.13459e-07
0.000144424
2.67518e-07
0.000144434
2.28314e-07
0.000144443
1.9486e-07
0.00014445
1.6631e-07
0.000144456
1.41946e-07
0.000144462
1.21153e-07
0.000144466
1.03407e-07
0.00014447
8.82611e-08
0.000144473
7.53346e-08
0.000144476
6.43017e-08
0.000144478
5.48851e-08
0.000144481
4.68478e-08
0.000144482
3.99877e-08
0.000144484
3.41325e-08
0.000144485
2.91347e-08
0.000144486
2.48689e-08
0.000144487
2.12277e-08
0.000144488
1.81197e-08
0.000144489
1.54667e-08
0.000144489
1.32021e-08
0.00014449
1.12691e-08
0.00014449
9.61917e-09
0.00014449
8.21081e-09
0.000144491
7.00871e-09
0.000144491
5.9827e-09
0.000144491
5.10694e-09
0.000144491
4.35942e-09
0.000144492
3.72129e-09
0.000144492
3.17657e-09
0.000144492
2.7116e-09
0.000144492
2.31467e-09
1.97582e-09
0.000129507
6.56158e-05
0.000131936
5.5815e-05
0.000134031
4.75568e-05
0.000135849
4.05763e-05
0.000137429
3.46535e-05
0.000138801
2.96114e-05
0.000139989
2.53082e-05
0.000141015
2.16294e-05
0.000141899
1.8482e-05
0.00014266
1.57883e-05
0.000143314
1.34832e-05
0.000143874
1.15114e-05
0.000144353
9.82549e-06
0.000144764
8.3847e-06
0.000145115
7.15398e-06
0.000145415
6.10313e-06
0.000145672
5.20617e-06
0.000145891
4.4408e-06
0.000146078
3.78783e-06
0.000146238
3.23086e-06
0.000146374
2.75581e-06
0.000146491
2.35067e-06
0.000146591
2.00515e-06
0.000146676
1.71048e-06
0.000146748
1.45918e-06
0.00014681
1.24486e-06
0.000146863
1.06206e-06
0.000146908
9.06144e-07
0.000146947
7.73149e-07
0.00014698
6.59701e-07
0.000147008
5.62921e-07
0.000147032
4.80356e-07
0.000147052
4.09914e-07
0.00014707
3.49813e-07
0.000147085
2.98532e-07
0.000147098
2.54775e-07
0.000147108
2.17437e-07
0.000147118
1.85575e-07
0.000147126
0.000147132
0.000147138
0.000147143
0.000147147
0.000147151
0.000147154
0.000147157
0.000147159
0.000147161
0.000147162
0.000147164
0.000147165
0.000147166
0.000147167
0.000147168
0.000147168
0.000147169
0.000147169
0.00014717
0.00014717
0.00014717
0.00014717
0.000147171
0.000147171
0.000147171
0.000147171
0.000147171
0.000130651
0.000133313
0.000135605
0.000137587
0.000139305
0.000140794
0.000142081
0.000143192
0.000144149
0.000144971
0.000145678
0.000146284
0.000146803
0.000147247
0.000147626
0.000147951
0.000148229
0.000148466
0.000148668
0.000148841
0.000148989
0.000149115
0.000149223
0.000149315
0.000149393
0.00014946
0.000149517
0.000149566
0.000149608
0.000149644
0.000149674
0.0001497
0.000149722
0.000149741
0.000149757
0.000149771
0.000149783
)
;

boundaryField
{
    inlet
    {
        type            calculated;
        value           nonuniform 0();
    }
    outlet
    {
        type            calculated;
        value           nonuniform 0();
    }
    wall
    {
        type            calculated;
        value           nonuniform 0();
    }
    wedge1
    {
        type            wedge;
        value           nonuniform List<scalar> 
344
(
2.66944e-15
-6.90521e-15
2.40978e-15
1.19533e-14
-3.91481e-15
2.27125e-15
-5.87455e-15
2.04975e-15
1.01699e-14
-3.3305e-15
1.93776e-15
-5.00995e-15
1.74699e-15
8.66632e-15
-2.83671e-15
1.65621e-15
-4.27981e-15
1.49114e-15
7.39465e-15
-2.4187e-15
1.41685e-15
-3.65956e-15
1.27387e-15
6.31511e-15
-2.06391e-15
1.21238e-15
-3.13034e-15
1.08869e-15
5.39574e-15
-1.76199e-15
1.03722e-15
-2.67754e-15
9.30437e-16
4.61089e-15
-1.50452e-15
8.86971e-16
-2.28957e-15
7.95005e-16
3.93989e-15
-1.28462e-15
7.58055e-16
-1.957e-15
6.79021e-16
3.36578e-15
-1.09667e-15
6.475e-16
-1.67196e-15
5.79703e-16
2.87448e-15
-9.35956e-16
5.52747e-16
-1.42779e-15
4.94677e-16
2.45409e-15
-7.98551e-16
4.71623e-16
-1.21876e-15
4.21937e-16
2.09455e-15
-6.81091e-16
4.0221e-16
-1.03995e-15
3.59733e-16
1.78716e-15
-5.80734e-16
3.42879e-16
-8.87085e-16
3.06588e-16
1.52451e-15
-4.95014e-16
2.92185e-16
-7.56484e-16
2.61197e-16
1.30018e-15
-4.21838e-16
2.48913e-16
-6.44959e-16
2.22459e-16
1.10867e-15
-3.59385e-16
2.11982e-16
-5.49762e-16
1.89404e-16
9.45217e-16
-3.06111e-16
1.80484e-16
-4.68532e-16
1.61221e-16
8.05764e-16
-2.60674e-16
1.53621e-16
-3.99235e-16
1.37192e-16
6.86805e-16
-2.21937e-16
1.30726e-16
-3.40134e-16
1.16714e-16
5.85351e-16
-1.88915e-16
1.11214e-16
-2.89735e-16
9.92626e-17
4.98832e-16
-1.60775e-16
9.45881e-17
-2.46763e-16
8.4402e-17
4.25058e-16
-1.36795e-16
8.04263e-17
-2.10128e-16
7.17462e-17
3.62156e-16
-1.16367e-16
6.83661e-17
-1.78899e-16
6.09706e-17
3.08526e-16
-9.89643e-17
5.80975e-17
-1.5228e-16
5.18006e-17
2.62803e-16
-8.41452e-17
4.9357e-17
-1.29595e-16
4.39919e-17
2.23824e-16
-7.15242e-17
4.19181e-17
-1.10262e-16
3.73575e-17
1.90595e-16
-6.07809e-17
3.55892e-17
-9.37903e-17
3.17053e-17
1.62271e-16
-5.16345e-17
3.02109e-17
-7.9758e-17
2.69096e-17
1.38132e-16
-4.38487e-17
2.69673e-17
2.56333e-17
-6.78044e-17
2.28234e-17
1.17553e-16
-3.7229e-17
2.28826e-17
2.17464e-17
-5.76265e-17
1.93615e-17
1.00021e-16
-3.15952e-17
1.94041e-17
1.84406e-17
-4.89593e-17
1.64151e-17
8.50791e-17
-2.68083e-17
1.6457e-17
1.56384e-17
-4.15835e-17
1.39192e-17
7.23532e-17
-2.27362e-17
1.39492e-17
1.32546e-17
-3.53057e-17
1.1798e-17
6.15083e-17
-1.92813e-17
1.1825e-17
1.12382e-17
-2.9967e-17
1.00009e-17
5.22789e-17
-1.63422e-17
1.00225e-17
9.52212e-18
-2.54253e-17
8.47843e-18
4.44151e-17
-1.38526e-17
8.49818e-18
8.07184e-18
-2.15654e-17
7.19149e-18
3.77288e-17
-1.17356e-17
7.19909e-18
6.84395e-18
-1.82854e-17
6.09435e-18
3.20345e-17
-9.942e-18
6.10264e-18
5.80586e-18
-1.55005e-17
5.16739e-18
2.71949e-17
5.17633e-18
4.92093e-18
-1.31359e-17
4.38733e-18
2.30745e-17
4.39323e-18
4.17203e-18
-1.11307e-17
3.72602e-18
1.95762e-17
3.7241e-18
3.54509e-18
-9.4297e-18
3.16125e-18
1.6603e-17
3.15703e-18
3.01189e-18
-7.98864e-18
2.68131e-18
1.40798e-17
2.68602e-18
2.5578e-18
-6.76608e-18
2.28591e-18
1.19364e-17
2.28479e-18
2.16766e-18
-5.7322e-18
1.94652e-18
1.01179e-17
1.93974e-18
1.85173e-18
-4.85622e-18
1.65503e-18
8.57995e-18
1.64295e-18
1.57612e-18
-4.11582e-18
1.40241e-18
7.2738e-18
1.40636e-18
1.34301e-18
-3.48722e-18
1.20447e-18
6.16866e-18
1.18777e-18
1.14414e-18
-2.95729e-18
1.01739e-18
5.23133e-18
1.02205e-18
9.76017e-19
-2.50725e-18
8.79273e-19
4.43822e-18
8.58623e-19
8.32679e-19
-2.12745e-18
7.38431e-19
3.76637e-18
7.45623e-19
7.11327e-19
-1.8042e-18
6.45417e-19
3.19826e-18
6.33289e-19
5.96655e-19
-1.53124e-18
5.48402e-19
2.7099e-18
5.45259e-19
5.22823e-19
-1.29888e-18
4.7478e-19
2.3118e-18
4.61338e-19
4.4593e-19
-1.1024e-18
4.03004e-19
1.96452e-18
3.87936e-19
3.84467e-19
-9.35336e-19
3.40324e-19
1.6748e-18
3.38636e-19
3.28177e-19
-7.93062e-19
2.99702e-19
1.42506e-18
2.82281e-19
2.84232e-19
-6.73079e-19
2.50552e-19
1.2167e-18
2.49645e-19
2.42034e-19
-5.70587e-19
2.2389e-19
1.03565e-18
2.06024e-19
2.11305e-19
-4.8392e-19
1.8546e-19
8.86837e-19
1.85983e-19
1.7985e-19
-4.09435e-19
1.69547e-19
7.55032e-19
1.62619e-19
1.46857e-19
-3.46202e-19
1.49883e-19
6.39478e-19
1.37051e-19
1.35878e-19
-2.92524e-19
1.28374e-19
5.54102e-19
1.09703e-19
1.2005e-19
-2.47465e-19
1.03248e-19
4.76565e-19
1.03189e-19
1.02064e-19
-2.08373e-19
9.94111e-20
4.06739e-19
9.09491e-20
7.96086e-20
-1.76172e-19
8.85448e-20
3.40438e-19
7.64543e-20
7.88413e-20
-1.47683e-19
7.62136e-20
3.00843e-19
)
;
    }
    wedge2
    {
        type            wedge;
        value           nonuniform List<scalar> 
344
(
2.66952e-15
-6.90513e-15
2.40984e-15
1.19534e-14
-3.91478e-15
2.27132e-15
-5.87449e-15
2.04979e-15
1.01699e-14
-3.33049e-15
1.93783e-15
-5.0099e-15
1.74702e-15
8.66633e-15
-2.83671e-15
1.65626e-15
-4.27978e-15
1.49115e-15
7.39464e-15
-2.41872e-15
1.41689e-15
-3.65953e-15
1.27388e-15
6.3151e-15
-2.06395e-15
1.21241e-15
-3.13032e-15
1.08868e-15
5.39571e-15
-1.76204e-15
1.03724e-15
-2.67754e-15
9.30421e-16
4.61086e-15
-1.50457e-15
8.86975e-16
-2.28958e-15
7.94973e-16
3.93985e-15
-1.28468e-15
7.58057e-16
-1.95701e-15
6.78988e-16
3.36574e-15
-1.09672e-15
6.47487e-16
-1.67198e-15
5.79658e-16
2.87442e-15
-9.36016e-16
5.52737e-16
-1.42781e-15
4.94632e-16
2.45404e-15
-7.98604e-16
4.71597e-16
-1.21879e-15
4.21881e-16
2.09448e-15
-6.81154e-16
4.02186e-16
-1.03998e-15
3.59684e-16
1.7871e-15
-5.80789e-16
3.42844e-16
-8.87123e-16
3.0653e-16
1.52445e-15
-4.95074e-16
2.92157e-16
-7.56524e-16
2.61142e-16
1.30012e-15
-4.2189e-16
2.48875e-16
-6.45e-16
2.22398e-16
1.1086e-15
-3.59442e-16
2.11946e-16
-5.49806e-16
1.8935e-16
9.45157e-16
-3.06163e-16
1.80442e-16
-4.68576e-16
1.6116e-16
8.05701e-16
-2.6073e-16
1.53583e-16
-3.99282e-16
1.37131e-16
6.86746e-16
-2.21989e-16
1.30685e-16
-3.40179e-16
1.16652e-16
5.85289e-16
-1.88969e-16
1.1117e-16
-2.89781e-16
9.92078e-17
4.98772e-16
-1.60825e-16
9.45457e-17
-2.46808e-16
8.43445e-17
4.25e-16
-1.36846e-16
8.03845e-17
-2.10174e-16
7.16878e-17
3.62098e-16
-1.16415e-16
6.83243e-17
-1.78944e-16
6.09127e-17
3.08469e-16
-9.90129e-17
5.80562e-17
-1.52325e-16
5.17393e-17
2.62748e-16
-8.41896e-17
4.93157e-17
-1.29638e-16
4.39386e-17
2.2377e-16
-7.1569e-17
4.18784e-17
-1.10307e-16
3.72937e-17
1.90543e-16
-6.08223e-17
3.55515e-17
-9.3835e-17
3.16524e-17
1.6222e-16
-5.16763e-17
3.01662e-17
-7.98022e-17
2.68465e-17
1.38075e-16
-4.38952e-17
2.69446e-17
2.55929e-17
-6.78507e-17
2.27727e-17
1.17502e-16
-3.72708e-17
2.285e-17
2.17028e-17
-5.7671e-17
1.93025e-17
9.99662e-17
-3.16398e-17
1.93791e-17
1.84022e-17
-4.90054e-17
1.63625e-17
8.50285e-17
-2.68486e-17
1.64243e-17
1.55947e-17
-4.16278e-17
1.38622e-17
7.2299e-17
-2.27797e-17
1.39222e-17
1.32177e-17
-3.53509e-17
1.1745e-17
6.14619e-17
-1.93178e-17
1.17959e-17
1.11956e-17
-3.00097e-17
9.94824e-18
5.22273e-17
-1.6383e-17
9.99382e-18
9.48757e-18
-2.54693e-17
8.42487e-18
4.43712e-17
-1.38863e-17
8.46298e-18
8.03609e-18
-2.16091e-17
7.13149e-18
3.76776e-17
-1.17729e-17
7.17365e-18
6.80588e-18
-1.83295e-17
6.04352e-18
3.19871e-17
-9.97907e-18
6.07803e-18
5.76249e-18
-1.55435e-17
5.12068e-18
2.71429e-17
5.14837e-18
4.88533e-18
-1.31791e-17
4.33494e-18
2.30295e-17
4.36048e-18
4.14285e-18
-1.11722e-17
3.67109e-18
1.95299e-17
3.69994e-18
3.50737e-18
-9.47086e-18
3.11429e-18
1.65582e-17
3.1417e-18
2.97209e-18
-8.02819e-18
2.64498e-18
1.40335e-17
2.65984e-18
2.52164e-18
-6.8076e-18
2.23637e-18
1.18931e-17
2.25434e-18
2.14599e-18
-5.77238e-18
1.8949e-18
1.00777e-17
1.91608e-18
1.81283e-18
-4.89654e-18
1.60943e-18
8.5348e-18
1.63411e-18
1.53853e-18
-4.15403e-18
1.37321e-18
7.23025e-18
1.37955e-18
1.30537e-18
-3.52743e-18
1.15606e-18
6.12398e-18
1.18208e-18
1.10868e-18
-2.99487e-18
9.91386e-19
5.18876e-18
9.94127e-19
9.41055e-19
-2.54535e-18
8.30291e-19
4.39657e-18
8.57866e-19
7.99265e-19
-2.16335e-18
7.17523e-19
3.72649e-18
7.15607e-19
6.78353e-19
-1.84123e-18
5.94367e-19
3.15869e-18
6.11284e-19
5.87457e-19
-1.56723e-18
5.07849e-19
2.68552e-18
5.1508e-19
4.85759e-19
-1.3358e-18
4.25331e-19
2.26924e-18
4.42258e-19
4.1362e-19
-1.13879e-18
3.64213e-19
1.92675e-18
3.82659e-19
3.48229e-19
-9.71871e-19
3.14111e-19
1.63198e-18
3.1798e-19
2.96501e-19
-8.30499e-19
2.58012e-19
1.38623e-18
2.78003e-19
2.48443e-19
-7.0947e-19
2.25423e-19
1.17434e-18
2.27831e-19
2.12258e-19
-6.07081e-19
1.81775e-19
9.98729e-19
2.016e-19
1.7619e-19
-5.19513e-19
1.60924e-19
8.44758e-19
1.61424e-19
1.50711e-19
-4.45753e-19
1.25678e-19
7.19338e-19
1.3376e-19
1.355e-19
-3.82784e-19
1.02e-19
6.16513e-19
1.15814e-19
1.0474e-19
-3.29e-19
8.6543e-20
5.15715e-19
1.06375e-19
8.52641e-20
-2.82543e-19
8.04325e-20
4.3511e-19
8.09257e-20
7.31414e-20
-2.43661e-19
5.70991e-20
3.70356e-19
6.61665e-20
7.01765e-20
-2.09393e-19
4.50165e-20
3.22316e-19
5.76284e-20
4.87505e-20
-1.8121e-19
3.77717e-20
2.64049e-19
)
;
    }
    axis
    {
        type            empty;
        value           nonuniform 0();
    }
    procBoundary28to22
    {
        type            processor;
        value           nonuniform List<scalar> 
68
(
-7.9653e-07
-6.79747e-07
-5.80101e-07
-4.95074e-07
-4.22519e-07
-3.60604e-07
-3.07768e-07
-2.62677e-07
-2.24196e-07
-1.91355e-07
-1.63326e-07
-1.39405e-07
-1.18988e-07
-1.01563e-07
-8.66895e-08
-7.3995e-08
-6.31598e-08
-5.39116e-08
-4.60177e-08
-3.92799e-08
-3.35287e-08
-2.86197e-08
-2.44295e-08
-2.08528e-08
-1.77998e-08
-1.51938e-08
-1.29693e-08
-1.10706e-08
-9.44979e-09
-8.06633e-09
-6.88544e-09
-5.87755e-09
-5.01716e-09
-4.28271e-09
-3.65583e-09
-3.12066e-09
-2.66376e-09
-2.27364e-09
-7.52039e-05
-6.40587e-05
-5.47278e-05
-4.68437e-05
-4.01306e-05
-3.43851e-05
-2.94537e-05
-2.52164e-05
-2.15756e-05
-1.84495e-05
-1.57678e-05
-1.34696e-05
-1.15021e-05
-9.81908e-06
-8.38044e-06
-7.1514e-06
-6.10191e-06
-5.20606e-06
-4.44153e-06
-3.78921e-06
-3.23269e-06
-2.75794e-06
-2.35295e-06
-2.00749e-06
-1.71281e-06
-1.46143e-06
-1.24698e-06
-1.06404e-06
-0.000136306
-9.07963e-07
)
;
    }
    procBoundary28to23
    {
        type            processor;
        value           uniform 0.000136454;
    }
    procBoundary28to27
    {
        type            processor;
        value           nonuniform List<scalar> 4(-0.000124301 -0.000125043 -0.000125832 -0.000126661);
    }
    procBoundary28to29
    {
        type            processor;
        value           nonuniform List<scalar> 4(0.000139133 0.000141813 0.000144492 0.000147171);
    }
    procBoundary28to33
    {
        type            processor;
        value           uniform -0.00012753;
    }
    procBoundary28to34
    {
        type            processor;
        value           nonuniform List<scalar> 
68
(
1.58384e-07
1.3518e-07
1.15377e-07
9.84764e-08
8.40525e-08
7.1742e-08
6.12351e-08
5.22674e-08
4.46133e-08
3.80803e-08
3.25043e-08
2.77449e-08
2.36825e-08
2.0215e-08
1.72552e-08
1.47288e-08
1.25722e-08
1.07314e-08
9.16025e-09
7.81915e-09
6.67447e-09
5.69744e-09
4.86334e-09
4.1514e-09
3.54365e-09
3.02489e-09
2.58216e-09
2.20429e-09
1.88204e-09
6.24951e-05
5.31531e-05
4.5265e-05
3.85935e-05
3.29354e-05
2.81232e-05
2.40211e-05
2.05185e-05
1.7525e-05
1.49654e-05
1.27767e-05
1.09057e-05
9.30665e-06
7.94064e-06
6.77416e-06
5.77841e-06
4.92867e-06
4.2037e-06
3.5853e-06
3.05788e-06
2.60809e-06
2.22453e-06
1.89745e-06
1.61853e-06
1.38068e-06
1.17784e-06
1.00484e-06
8.573e-07
7.31454e-07
6.24108e-07
5.32537e-07
4.54419e-07
3.87774e-07
3.30914e-07
2.824e-07
2.41004e-07
2.05682e-07
0.000149793
1.7554e-07
)
;
    }
}


// ************************************************************************* //
