/*--------------------------------*- C++ -*----------------------------------*\
  =========                 |
  \\      /  F ield         | OpenFOAM: The Open Source CFD Toolbox
   \\    /   O peration     | Website:  https://openfoam.org
    \\  /    A nd           | Version:  7
     \\/     M anipulation  |
\*---------------------------------------------------------------------------*/
FoamFile
{
    version     2.0;
    format      ascii;
    class       volVectorField;
    location    "5.4";
    object      U;
}
// * * * * * * * * * * * * * * * * * * * * * * * * * * * * * * * * * * * * * //

dimensions      [0 1 -1 0 0 0 0];

internalField   nonuniform List<vector> 
344
(
(1.23818 -0.075603 -3.11616e-15)
(1.25278 -0.0742425 -3.06268e-15)
(1.26686 -0.0727193 -3.18833e-15)
(1.28041 -0.071073 -3.19818e-15)
(1.29343 -0.0693374 -3.11875e-15)
(1.3059 -0.0675415 -3.05136e-15)
(1.31784 -0.0657096 -3.04018e-15)
(1.32925 -0.063862 -2.97161e-15)
(1.34015 -0.0620157 -2.89794e-15)
(1.35055 -0.0601842 -2.90393e-15)
(1.36047 -0.0583785 -2.61997e-15)
(1.36993 -0.0566074 -2.49197e-15)
(1.37895 -0.0548774 -2.37701e-15)
(1.38754 -0.0531936 -2.26618e-15)
(1.39572 -0.0515596 -2.24513e-15)
(1.40352 -0.0499778 -2.17311e-15)
(1.41096 -0.0484497 -2.10973e-15)
(1.41805 -0.0469758 -1.99966e-15)
(1.42481 -0.0455561 -1.93968e-15)
(1.43126 -0.0441902 -1.88222e-15)
(1.43742 -0.0428771 -1.85115e-15)
(1.4433 -0.0416155 -1.78877e-15)
(1.44892 -0.0404041 -1.79112e-15)
(1.45429 -0.0392411 -1.67745e-15)
(1.45943 -0.0381248 -1.62363e-15)
(1.46434 -0.0370534 -1.55471e-15)
(1.46905 -0.0360251 -1.49318e-15)
(1.47355 -0.0350379 -1.4048e-15)
(1.47788 -0.03409 -1.43535e-15)
(1.48202 -0.0331796 -1.45844e-15)
(1.486 -0.032305 -1.4056e-15)
(1.48982 -0.0314644 -1.36001e-15)
(1.49349 -0.0306561 -1.24604e-15)
(1.49702 -0.0298786 -1.19761e-15)
(1.50041 -0.0291303 -1.15965e-15)
(1.50368 -0.0284098 -1.08509e-15)
(1.50683 -0.0277158 -1.04447e-15)
(1.50986 -0.0270469 -9.10491e-16)
(1.51278 -0.0264019 -1.02955e-15)
(1.51561 -0.0257795 -1.05407e-15)
(1.51833 -0.0251788 -9.74885e-16)
(1.52096 -0.0245987 -9.70606e-16)
(1.5235 -0.0240381 -8.78721e-16)
(1.52595 -0.0234962 -8.38398e-16)
(1.52833 -0.0229721 -7.25869e-16)
(1.53062 -0.022465 -6.91864e-16)
(1.53285 -0.021974 -6.39933e-16)
(1.535 -0.0214984 -6.10225e-16)
(1.53709 -0.0210377 -5.01835e-16)
(1.00028 -0.00580403 9.99242e-18)
(1.00283 -0.0174727 -2.73779e-16)
(1.00829 -0.028828 -5.55394e-16)
(1.01648 -0.0395117 -1.17213e-15)
(1.02701 -0.0492686 -1.47723e-15)
(1.03952 -0.0579351 -1.70932e-15)
(1.05369 -0.0654237 -1.847e-15)
(1.06916 -0.0717133 -2.55974e-15)
(1.0856 -0.0768341 -3.02698e-15)
(1.10272 -0.0808529 -2.67652e-15)
(1.12024 -0.0838584 -3.15123e-15)
(1.13793 -0.0859516 -3.07285e-15)
(1.1556 -0.0872378 -2.9572e-15)
(1.17308 -0.0878213 -2.78972e-15)
(1.19023 -0.0878021 -3.2646e-15)
(1.20694 -0.0872734 -3.04122e-15)
(1.22315 -0.0863209 -2.81075e-15)
(1.23877 -0.0850217 -3.21981e-15)
(1.25377 -0.0834445 -2.93445e-15)
(1.26813 -0.0816499 -2.691e-15)
(1.28182 -0.0796904 -3.17895e-15)
(1.29485 -0.0776114 -2.96248e-15)
(1.30721 -0.0754515 -2.77714e-15)
(1.31894 -0.0732431 -2.65837e-15)
(1.33003 -0.0710135 -2.59412e-15)
(1.34052 -0.0687848 -2.51881e-15)
(1.35042 -0.0665752 -2.3818e-15)
(1.35977 -0.0643993 -2.31946e-15)
(1.36859 -0.0622682 -2.06825e-15)
(1.3769 -0.0601907 -1.93084e-15)
(1.38475 -0.0581732 -1.86678e-15)
(1.39215 -0.0562202 -1.70745e-15)
(1.39912 -0.0543347 -1.63824e-15)
(1.40571 -0.0525183 -1.51581e-15)
(1.41192 -0.0507717 -1.41474e-15)
(1.41779 -0.0490947 -1.29824e-15)
(1.42333 -0.0474864 -1.24451e-15)
(1.42857 -0.0459455 -1.09467e-15)
(1.43352 -0.04447 -1.02705e-15)
(1.4382 -0.0430581 -1.01963e-15)
(1.44264 -0.0417074 -9.18046e-16)
(1.44685 -0.0404155 -8.7544e-16)
(1.45083 -0.03918 -8.11315e-16)
(1.45462 -0.0379983 -6.96628e-16)
(1.45821 -0.036868 -6.55456e-16)
(1.46162 -0.0357865 -4.98696e-16)
(1.46487 -0.0347514 -9.02795e-16)
(1.46796 -0.0337605 -6.98969e-16)
(1.4709 -0.0328115 -5.42679e-16)
(1.4737 -0.0319021 -4.13029e-16)
(1.47638 -0.0310303 -3.04178e-16)
(1.47893 -0.0301942 -2.04955e-16)
(1.48137 -0.0293918 -1.6202e-16)
(1.4837 -0.0286213 -3.17711e-17)
(1.48593 -0.0278812 -5.51179e-18)
(1.48806 -0.0271697 1.32498e-16)
(1.4901 -0.0264854 5.10595e-17)
(1.49206 -0.0258269 6.94216e-17)
(1.49394 -0.0251928 9.67614e-17)
(1.49574 -0.024582 1.28964e-16)
(1.49747 -0.0239931 1.86302e-16)
(1.49913 -0.0234252 2.28469e-16)
(1.50073 -0.0228771 3.26644e-16)
(1.50227 -0.0223479 4.04096e-16)
(1.50375 -0.0218367 4.71156e-16)
(1.50518 -0.0213426 5.18933e-16)
(1.50655 -0.0208649 6.03251e-16)
(1.00032 -0.006782 3.48841e-17)
(1.00326 -0.020439 -5.80174e-16)
(1.00957 -0.0336838 -1.24317e-15)
(1.01901 -0.0460535 -1.76689e-15)
(1.03106 -0.0572385 -1.67233e-15)
(1.04529 -0.0670521 -2.1506e-15)
(1.06126 -0.0754063 -2.0507e-15)
(1.07855 -0.0822961 -2.10473e-15)
(1.09675 -0.0877773 -2.15729e-15)
(1.11548 -0.0919457 -2.11082e-15)
(1.13444 -0.0949206 -2.16233e-15)
(1.15335 -0.0968326 -2.70698e-15)
(1.17198 -0.0978152 -2.52776e-15)
(1.19016 -0.0979987 -2.36323e-15)
(1.20775 -0.0975065 -2.35212e-15)
(1.22463 -0.096453 -2.25652e-15)
(1.24075 -0.0949417 -2.12039e-15)
(1.25605 -0.0930654 -2.22081e-15)
(1.27052 -0.0909057 -2.18033e-15)
(1.28414 -0.0885334 -2.07862e-15)
(1.29692 -0.0860092 -2.17711e-15)
(1.30889 -0.0833847 -2.14981e-15)
(1.32008 -0.080703 -2.09395e-15)
(1.33051 -0.0779997 -2.11288e-15)
(1.34023 -0.0753037 -2.05701e-15)
(1.34927 -0.0726383 -1.9239e-15)
(1.35768 -0.0700217 -1.74307e-15)
(1.36549 -0.0674681 -1.7142e-15)
(1.37274 -0.0649879 -1.03781e-15)
(1.37948 -0.0625887 -1.02487e-15)
(1.38574 -0.0602755 -1.03906e-15)
(1.39155 -0.0580515 -9.28893e-16)
(1.39695 -0.0559179 -8.7505e-16)
(1.40197 -0.053875 -7.40414e-16)
(1.40664 -0.0519218 -6.05756e-16)
(1.41098 -0.0500567 -4.77401e-16)
(1.41503 -0.0482773 -4.2291e-16)
(1.41879 -0.0465808 -3.07145e-16)
(1.4223 -0.0449642 -1.80092e-16)
(1.42557 -0.0434243 -1.03091e-16)
(1.42863 -0.0419576 -1.78384e-17)
(1.43148 -0.0405608 3.60695e-17)
(1.43415 -0.0392303 1.34798e-16)
(1.43665 -0.0379628 2.33822e-16)
(1.43898 -0.036755 3.26046e-16)
(1.44117 -0.0356037 4.03396e-16)
(1.44323 -0.0345057 4.8311e-16)
(1.44515 -0.0334582 5.66838e-16)
(1.44696 -0.0324582 6.30465e-16)
(1.44866 -0.0315032 7.23659e-16)
(1.45026 -0.0305905 8.27491e-16)
(1.45177 -0.0297178 9.18557e-16)
(1.45319 -0.0288828 9.53923e-16)
(1.45453 -0.0280834 1.00859e-15)
(1.45579 -0.0273175 1.06392e-15)
(1.45698 -0.0265833 1.18798e-15)
(1.45811 -0.025879 8.01366e-16)
(1.45918 -0.0252029 9.91645e-16)
(1.46018 -0.0245535 1.08079e-15)
(1.46114 -0.0239294 1.17399e-15)
(1.46204 -0.0233292 1.30503e-15)
(1.4629 -0.0227516 1.33836e-15)
(1.46371 -0.0221955 1.40839e-15)
(1.46448 -0.0216597 1.49682e-15)
(1.46522 -0.0211431 1.58299e-15)
(1.46591 -0.0206449 1.64941e-15)
(1.46657 -0.020164 1.73194e-15)
(1.00037 -0.00796305 3.88543e-17)
(1.00384 -0.0240446 -2.51243e-16)
(1.0113 -0.0395614 -1.26747e-15)
(1.02241 -0.053918 -1.48734e-15)
(1.03649 -0.0667419 -1.52116e-15)
(1.05297 -0.0778179 -1.75013e-15)
(1.07126 -0.0870614 -1.77621e-15)
(1.09081 -0.0944924 -1.70991e-15)
(1.1111 -0.100204 -1.67145e-15)
(1.13167 -0.104334 -1.59497e-15)
(1.15212 -0.107046 -1.4694e-15)
(1.17215 -0.108516 -1.72293e-15)
(1.19151 -0.108918 -1.70082e-15)
(1.21002 -0.108421 -1.6593e-15)
(1.22755 -0.107181 -1.60021e-15)
(1.24403 -0.105343 -1.48788e-15)
(1.25941 -0.103035 -1.36122e-15)
(1.27368 -0.100367 -1.7182e-15)
(1.28687 -0.0974366 -1.4825e-15)
(1.29901 -0.0943255 -1.32135e-15)
(1.31013 -0.091102 -1.69047e-15)
(1.32031 -0.0878224 -1.50637e-15)
(1.3296 -0.0845325 -1.27344e-15)
(1.33805 -0.0812687 -1.63781e-15)
(1.34574 -0.0780595 -1.39082e-15)
(1.35272 -0.0749269 -1.16085e-15)
(1.35904 -0.0718871 -9.65949e-16)
(1.36478 -0.0689515 -8.80323e-16)
(1.36997 -0.066128 -4.97036e-16)
(1.37467 -0.0634213 -3.02251e-16)
(1.37892 -0.0608335 -1.73587e-16)
(1.38276 -0.0583648 -4.27718e-17)
(1.38624 -0.0560139 8.72522e-17)
(1.38938 -0.0537785 2.15393e-16)
(1.39221 -0.0516552 3.47087e-16)
(1.39477 -0.0496401 4.60208e-16)
(1.39708 -0.0477288 5.61876e-16)
(1.39917 -0.0459167 6.2259e-16)
(1.40105 -0.0441991 7.56709e-16)
(1.40275 -0.0425711 8.9546e-16)
(1.40428 -0.0410279 9.79272e-16)
(1.40566 -0.039565 1.04098e-15)
(1.4069 -0.0381776 1.18156e-15)
(1.40801 -0.0368615 1.24727e-15)
(1.40901 -0.0356124 1.37268e-15)
(1.40991 -0.0344262 1.43933e-15)
(1.41071 -0.0332993 1.94566e-15)
(1.41143 -0.0322279 1.86579e-15)
(1.41207 -0.0312087 1.84607e-15)
(1.41264 -0.0302385 1.90468e-15)
(1.41315 -0.0293142 1.96309e-15)
(1.41359 -0.0284332 2.07664e-15)
(1.41399 -0.0275926 2.1138e-15)
(1.41433 -0.0267902 2.16896e-15)
(1.41463 -0.0260235 2.25549e-15)
(1.41489 -0.0252904 2.34867e-15)
(1.41511 -0.0245891 2.2723e-15)
(1.4153 -0.0239175 2.29228e-15)
(1.41545 -0.0232739 2.34109e-15)
(1.41558 -0.0226568 2.41281e-15)
(1.41568 -0.0220647 2.45026e-15)
(1.41576 -0.0214961 2.58598e-15)
(1.41581 -0.0209497 2.6213e-15)
(1.41585 -0.0204243 2.73223e-15)
(1.41586 -0.0199188 2.8315e-15)
(1.41586 -0.0194321 2.85652e-15)
(1.41585 -0.0189633 2.96319e-15)
(1.00043 -0.00940639 5.52072e-17)
(1.00463 -0.0285422 -6.37463e-16)
(1.01372 -0.046836 -1.29937e-15)
(1.02714 -0.0635691 -1.70073e-15)
(1.04398 -0.0782916 -1.39055e-15)
(1.06343 -0.0907423 -1.80818e-15)
(1.08467 -0.100843 -1.55082e-15)
(1.10695 -0.108656 -1.29792e-15)
(1.12958 -0.11433 -1.17817e-15)
(1.15197 -0.118075 -9.69969e-16)
(1.17368 -0.120125 -8.0653e-16)
(1.19435 -0.120728 -1.29265e-15)
(1.21377 -0.120125 -1.12738e-15)
(1.23178 -0.11854 -9.73534e-16)
(1.24831 -0.11618 -8.22525e-16)
(1.26335 -0.113226 -7.08803e-16)
(1.27693 -0.109833 -5.87504e-16)
(1.2891 -0.106136 -5.60648e-16)
(1.29996 -0.102242 -5.00854e-16)
(1.30959 -0.0982432 -3.78614e-16)
(1.31809 -0.0942105 -4.20298e-16)
(1.32556 -0.0902006 -3.95685e-16)
(1.3321 -0.0862572 -3.20278e-16)
(1.3378 -0.0824131 -3.25876e-16)
(1.34275 -0.0786921 -2.27401e-16)
(1.34702 -0.0751108 -1.0695e-16)
(1.35069 -0.0716798 3.17376e-17)
(1.35384 -0.0684053 1.36514e-16)
(1.35651 -0.0652896 8.1449e-16)
(1.35877 -0.0623324 8.85124e-16)
(1.36066 -0.0595311 9.23945e-16)
(1.36223 -0.0568818 1.03853e-15)
(1.36351 -0.054379 1.10604e-15)
(1.36454 -0.052017 1.26181e-15)
(1.36535 -0.0497891 1.42559e-15)
(1.36597 -0.0476887 1.50879e-15)
(1.36642 -0.0457089 1.63359e-15)
(1.36672 -0.0438428 1.75414e-15)
(1.36689 -0.0420838 1.86528e-15)
(1.36695 -0.0404252 1.97075e-15)
(1.3669 -0.038861 2.08962e-15)
(1.36677 -0.0373849 2.19646e-15)
(1.36656 -0.0359914 2.31029e-15)
(1.36629 -0.0346751 2.39377e-15)
(1.36596 -0.0334308 2.53692e-15)
(1.36558 -0.0322539 2.63303e-15)
(1.36516 -0.0311397 2.80006e-15)
(1.3647 -0.0300843 2.90035e-15)
(1.3642 -0.0290836 2.97301e-15)
(1.36368 -0.028134 3.06489e-15)
(1.36314 -0.0272322 3.17182e-15)
(1.36257 -0.0263751 3.25692e-15)
(1.36199 -0.0255597 3.33099e-15)
(1.3614 -0.0247833 3.42476e-15)
(1.3608 -0.0240435 3.50335e-15)
(1.36018 -0.0233379 3.65441e-15)
(1.35956 -0.0226643 3.25811e-15)
(1.35893 -0.0220209 3.40573e-15)
(1.3583 -0.0214057 3.54673e-15)
(1.35767 -0.020817 3.63336e-15)
(1.35704 -0.0202532 3.75272e-15)
(1.3564 -0.0197129 3.8362e-15)
(1.35577 -0.0191947 3.95598e-15)
(1.35514 -0.0186973 4.04706e-15)
(1.35451 -0.0182196 4.14887e-15)
(1.35388 -0.0177605 4.2061e-15)
(1.35326 -0.0173188 4.32507e-15)
(1.00048 -0.0111537 -2.28863e-17)
(1.00572 -0.034282 -4.76971e-16)
(1.01725 -0.0560373 -8.75537e-16)
(1.03396 -0.0756782 -1.12076e-15)
(1.0546 -0.0926073 -7.5863e-16)
(1.07794 -0.106483 -1.1462e-15)
(1.1028 -0.117253 -7.58153e-16)
(1.12809 -0.125056 -5.09846e-16)
(1.15292 -0.130157 -4.94766e-16)
(1.17661 -0.132891 -3.01709e-16)
(1.19869 -0.133622 -6.13158e-17)
(1.21885 -0.132714 -4.90712e-16)
(1.23695 -0.130508 -2.86354e-16)
(1.25296 -0.12731 -7.35975e-17)
(1.26695 -0.123383 4.22327e-18)
(1.27901 -0.118952 1.26489e-16)
(1.28929 -0.114197 2.999e-16)
(1.29795 -0.109266 2.86341e-16)
(1.30516 -0.104275 3.70131e-16)
(1.31108 -0.0993094 5.07733e-16)
(1.31588 -0.0944372 4.77511e-16)
(1.31968 -0.0897056 5.87939e-16)
(1.32263 -0.0851482 6.99862e-16)
(1.32483 -0.0807868 7.85216e-16)
(1.32641 -0.0766346 9.29265e-16)
(1.32744 -0.0726977 1.10321e-15)
(1.32801 -0.0689771 1.22926e-15)
)
;

boundaryField
{
    inlet
    {
        type            uniformFixedValue;
        uniformValue    constant (1 0 0);
        value           uniform (1 0 0);
    }
    outlet
    {
        type            pressureInletOutletVelocity;
        value           nonuniform 0();
    }
    wall
    {
        type            fixedValue;
        value           nonuniform 0();
    }
    wedge1
    {
        type            wedge;
    }
    wedge2
    {
        type            wedge;
    }
    axis
    {
        type            empty;
    }
    procBoundary12to6
    {
        type            processor;
        value           nonuniform List<vector> 
68
(
(1.22443 -0.0677097 -3.33533e-15)
(1.23898 -0.06667 -3.27664e-15)
(1.25314 -0.0654772 -3.31879e-15)
(1.26687 -0.0641661 -3.41368e-15)
(1.28017 -0.0627662 -3.36845e-15)
(1.29301 -0.0613032 -3.36896e-15)
(1.30541 -0.0597987 -3.34624e-15)
(1.31736 -0.0582707 -3.34482e-15)
(1.32887 -0.0567344 -3.27548e-15)
(1.33993 -0.0552022 -3.34483e-15)
(1.35057 -0.0536842 -2.5743e-15)
(1.3608 -0.0521885 -2.70443e-15)
(1.37062 -0.0507214 -2.75341e-15)
(1.38005 -0.0492878 -2.75913e-15)
(1.3891 -0.0478913 -2.74895e-15)
(1.3978 -0.0465345 -2.74675e-15)
(1.40615 -0.0452191 -2.68983e-15)
(1.41417 -0.0439462 -2.70936e-15)
(1.42187 -0.042716 -2.64046e-15)
(1.42927 -0.0415286 -2.5996e-15)
(1.43638 -0.0403836 -2.57249e-15)
(1.44321 -0.03928 -2.57945e-15)
(1.44978 -0.0382171 -2.53823e-15)
(1.45611 -0.0371937 -2.49503e-15)
(1.46219 -0.0362084 -2.46474e-15)
(1.46805 -0.03526 -2.40165e-15)
(1.4737 -0.0343471 -2.31186e-15)
(1.47914 -0.0334682 -2.26709e-15)
(1.48438 -0.0326219 -2.25618e-15)
(1.48944 -0.0318069 -2.26563e-15)
(1.49432 -0.0310216 -2.23917e-15)
(1.49903 -0.0302648 -2.24655e-15)
(1.50358 -0.0295352 -2.18741e-15)
(1.50798 -0.0288315 -2.18154e-15)
(1.51223 -0.0281525 -2.11256e-15)
(1.51634 -0.027497 -2.08233e-15)
(1.52032 -0.0268639 -2.04507e-15)
(1.52417 -0.0262522 -1.894e-15)
(1.5279 -0.0256609 -2.45928e-15)
(1.53152 -0.025089 -2.24957e-15)
(1.53502 -0.0245356 -2.11776e-15)
(1.53842 -0.0239999 -2.04844e-15)
(1.54172 -0.0234811 -1.9429e-15)
(1.54491 -0.0229784 -1.91007e-15)
(1.54802 -0.0224911 -1.80986e-15)
(1.55104 -0.0220185 -1.82605e-15)
(1.55397 -0.02156 -1.81105e-15)
(1.55682 -0.0211151 -1.7158e-15)
(1.55959 -0.020683 -1.60856e-15)
(1.00025 -0.00497738 4.68418e-17)
(1.0025 -0.0149739 -3.27225e-16)
(1.00732 -0.0247271 -6.61518e-16)
(1.01456 -0.0339576 -1.79503e-15)
(1.02392 -0.0424561 -1.76159e-15)
(1.03511 -0.0500806 -2.04262e-15)
(1.04785 -0.0567477 -2.26989e-15)
(1.06187 -0.0624264 -2.46903e-15)
(1.07689 -0.0671291 -2.72108e-15)
(1.09264 -0.0709006 -2.8081e-15)
(1.1089 -0.0738068 -2.92036e-15)
(1.12546 -0.0759265 -3.09755e-15)
(1.14215 -0.077344 -3.12668e-15)
(1.15882 -0.0781446 -3.11653e-15)
(1.17535 -0.0784111 -3.22026e-15)
(1.19162 -0.0782215 -3.21392e-15)
(1.20756 -0.0776477 -3.12086e-15)
(1.2231 -0.0767554 -3.1347e-15)
(1.2231 -0.0767554 -3.1347e-15)
)
;
    }
    procBoundary12to7
    {
        type            processor;
        value           uniform (1.53911 -0.020591 -4.97098e-16);
    }
    procBoundary12to13
    {
        type            processor;
        value           nonuniform List<vector> 4((1.50788 -0.0204027 5.29343e-16) (1.4672 -0.0196996 1.74459e-15) (1.41582 -0.0185114 2.98886e-15) (1.35264 -0.0168938 4.37895e-15));
    }
    procBoundary12to18
    {
        type            processor;
        value           nonuniform List<vector> 
68
(
(1.32818 -0.06547 1.36291e-15)
(1.32803 -0.062171 1.92832e-15)
(1.32761 -0.0590724 1.9983e-15)
(1.32695 -0.0561656 2.05264e-15)
(1.3261 -0.0534408 2.15736e-15)
(1.32509 -0.0508883 2.28737e-15)
(1.32394 -0.0484978 2.4748e-15)
(1.3227 -0.0462593 2.62181e-15)
(1.32136 -0.044163 2.72517e-15)
(1.31996 -0.0421995 2.86847e-15)
(1.31851 -0.0403596 2.98419e-15)
(1.31702 -0.0386349 3.11912e-15)
(1.31549 -0.0370173 3.22336e-15)
(1.31395 -0.035499 3.35775e-15)
(1.3124 -0.0340729 3.45126e-15)
(1.31083 -0.0327325 3.567e-15)
(1.30927 -0.0314715 3.66582e-15)
(1.30771 -0.0302843 3.792e-15)
(1.30616 -0.0291653 3.92282e-15)
(1.30463 -0.0281098 3.98068e-15)
(1.3031 -0.0271132 4.10503e-15)
(1.30159 -0.0261713 4.20758e-15)
(1.3001 -0.0252803 4.32213e-15)
(1.29862 -0.0244364 4.43977e-15)
(1.29717 -0.0236365 4.5387e-15)
(1.29573 -0.0228775 4.65701e-15)
(1.29432 -0.0221566 4.76164e-15)
(1.29293 -0.0214713 4.91877e-15)
(1.29156 -0.0208191 5.08081e-15)
(1.29021 -0.0201979 4.72998e-15)
(1.28889 -0.0196056 4.82898e-15)
(1.28758 -0.0190404 4.94814e-15)
(1.2863 -0.0185006 5.07585e-15)
(1.28505 -0.0179846 5.19561e-15)
(1.28381 -0.0174909 5.30996e-15)
(1.28259 -0.0170182 5.39014e-15)
(1.2814 -0.0165651 5.49711e-15)
(1.28023 -0.0161307 5.58042e-15)
(1.27908 -0.0157136 5.67917e-15)
(1.27795 -0.0153131 5.78715e-15)
(1.00047 -0.0127298 -1.72621e-17)
(1.00683 -0.0393852 -1.23065e-16)
(1.02091 -0.0642547 -7.89307e-17)
(1.0408 -0.0863399 -2.11725e-16)
(1.0649 -0.104852 1.85439e-17)
(1.09149 -0.119436 -2.18186e-16)
(1.11898 -0.130133 6.24168e-17)
(1.14604 -0.137235 1.19978e-16)
(1.17165 -0.141182 7.88336e-17)
(1.19515 -0.142477 3.5469e-16)
(1.21615 -0.141632 4.71696e-16)
(1.23449 -0.139125 2.79817e-16)
(1.25018 -0.135379 4.40214e-16)
(1.26335 -0.130754 7.07489e-16)
(1.27419 -0.125543 4.96941e-16)
(1.28293 -0.119983 6.99997e-16)
(1.28981 -0.114258 9.75566e-16)
(1.29507 -0.108507 6.66832e-16)
(1.29894 -0.102832 9.55867e-16)
(1.30162 -0.0973079 1.21902e-15)
(1.30329 -0.0919859 9.00458e-16)
(1.30412 -0.0868991 1.19976e-15)
(1.30425 -0.0820673 1.41057e-15)
(1.3038 -0.0775 1.59258e-15)
(1.30288 -0.073199 1.76975e-15)
(1.30157 -0.069161 1.98844e-15)
(1.32818 -0.06547 1.36291e-15)
(1.29995 -0.0653784 2.15768e-15)
)
;
    }
}


// ************************************************************************* //
