/*--------------------------------*- C++ -*----------------------------------*\
  =========                 |
  \\      /  F ield         | OpenFOAM: The Open Source CFD Toolbox
   \\    /   O peration     | Website:  https://openfoam.org
    \\  /    A nd           | Version:  7
     \\/     M anipulation  |
\*---------------------------------------------------------------------------*/
FoamFile
{
    version     2.0;
    format      ascii;
    class       volVectorField;
    location    "49.000392";
    object      U;
}
// * * * * * * * * * * * * * * * * * * * * * * * * * * * * * * * * * * * * * //

dimensions      [0 1 -1 0 0 0 0];

internalField   nonuniform List<vector> 
5800
(
(-0.00061022 0.000823004 -2.08321e-21)
(-0.00365793 0.00207144 -7.35118e-21)
(-0.00993428 0.0030064 1.33755e-21)
(-0.0182785 0.0036804 5.06728e-21)
(-0.0281622 0.00413195 2.1596e-21)
(-0.0391674 0.00439795 -5.26586e-21)
(-0.0508878 0.00451439 -1.67402e-21)
(-0.0629798 0.00451443 -6.57767e-22)
(-0.0751662 0.00442723 -6.05611e-21)
(-0.0872278 0.00427692 -1.1675e-21)
(0.00706645 0.00863338 -6.303e-21)
(0.0374367 0.0193119 -2.14413e-20)
(0.0933001 0.024725 3.92399e-21)
(0.158165 0.0264432 1.42438e-20)
(0.224747 0.0259332 5.84527e-21)
(0.289536 0.0243477 -1.39639e-20)
(0.350792 0.0224155 -4.23927e-21)
(0.408033 0.0204877 -1.70294e-21)
(0.461309 0.0186848 -8.54853e-21)
(0.510799 0.0170287 -7.59418e-21)
(0.556708 0.0155136 -9.51303e-21)
(0.00706646 -0.00863379 6.303e-21)
(0.0374367 -0.0193127 2.14413e-20)
(0.0933001 -0.0247259 -3.92399e-21)
(0.158165 -0.0264441 -1.42438e-20)
(0.224748 -0.0259339 -5.84527e-21)
(0.289536 -0.0243483 1.39639e-20)
(0.350792 -0.0224161 4.23927e-21)
(0.408034 -0.0204882 1.70294e-21)
(0.461309 -0.0186852 1.42872e-20)
(0.510799 -0.017029 2.51088e-21)
(0.556708 -0.0155138 9.51303e-21)
(0.599242 -0.0141297 -1.37192e-21)
(0.638602 -0.0128663 4.46992e-21)
(0.674986 -0.0117138 -7.52528e-21)
(0.708583 -0.0106626 9.02635e-21)
(0.73958 -0.00970414 9.19416e-21)
(0.768154 -0.00883035 2.56623e-21)
(0.794458 -0.00802922 -1.30019e-20)
(0.81861 -0.00728394 1.0445e-20)
(0.840759 -0.00660003 -1.50176e-21)
(0.00839541 -0.025818 -9.26556e-21)
(0.0403368 -0.057774 -1.3917e-20)
(0.0969235 -0.0739912 -4.25596e-21)
(0.161969 -0.079153 -1.23146e-20)
(0.228424 -0.077641 2.72056e-21)
(0.292941 -0.0729035 -1.77928e-20)
(0.353884 -0.0671235 -6.47532e-21)
(0.41082 -0.0613542 -1.38566e-20)
(0.463813 -0.0559575 7.59979e-21)
(0.513047 -0.0509999 -1.79054e-20)
(0.558725 -0.0464645 -5.43978e-20)
(0.601049 -0.042321 8.62212e-21)
(0.640221 -0.0385389 -1.19389e-20)
(0.676436 -0.0350885 7.04689e-21)
(0.709881 -0.0319414 -1.67153e-20)
(0.74074 -0.0290719 1.72217e-21)
(0.769193 -0.0264556 -8.54493e-21)
(0.795397 -0.0240565 4.83835e-20)
(0.819458 -0.0218252 -4.69763e-21)
(0.841472 -0.0197801 5.92413e-21)
(0.0110355 -0.0427545 -2.83685e-20)
(0.0461038 -0.0957474 -2.77197e-20)
(0.104134 -0.122701 6.34844e-21)
(0.169545 -0.131328 1.34634e-20)
(0.235747 -0.128869 5.60872e-21)
(0.299725 -0.121037 -1.72996e-20)
(0.360046 -0.111459 -2.47563e-20)
(0.416374 -0.101891 5.21218e-20)
(0.468805 -0.0929375 -1.41511e-20)
(0.517529 -0.0847116 1.83053e-20)
(0.562744 -0.0771854 2.85375e-20)
(0.604652 -0.0703091 4.86311e-21)
(0.643449 -0.0640321 7.98436e-21)
(0.679327 -0.0583051 1.72112e-20)
(0.712468 -0.0530811 -1.76852e-20)
(0.743054 -0.0483176 1.67206e-20)
(0.771265 -0.0439738 -1.96659e-21)
(0.79727 -0.0399896 -4.72874e-20)
(0.821149 -0.0362855 3.13819e-20)
(0.842896 -0.0328989 -2.54683e-20)
(0.0149514 -0.0592809 2.17987e-20)
(0.0546718 -0.132913 -3.48015e-20)
(0.114861 -0.170491 5.11793e-20)
(0.180826 -0.182619 -2.30876e-20)
(0.24666 -0.179302 1.21109e-19)
(0.309839 -0.168471 7.10546e-20)
(0.369236 -0.155179 -4.34176e-20)
(0.424658 -0.141882 -1.01827e-19)
(0.476252 -0.129433 3.97834e-20)
(0.524214 -0.117993 2.67962e-20)
(0.568741 -0.107525 3.55749e-20)
(0.610027 -0.0979602 -6.93293e-20)
(0.648265 -0.0892277 -8.02178e-20)
(0.68364 -0.0812594 6.03242e-20)
(0.71633 -0.07399 4.67007e-20)
(0.746507 -0.067361 -1.59044e-20)
(0.774358 -0.0613146 3.44718e-20)
(0.800064 -0.0557663 2.08293e-21)
(0.823672 -0.050611 -5.10397e-20)
(0.845026 -0.045914 -1.60183e-20)
(0.0200904 -0.0752399 -8.03455e-20)
(0.0659424 -0.168957 -2.22133e-20)
(0.128996 -0.217003 -7.71196e-20)
(0.195713 -0.23268 2.21154e-20)
(0.261076 -0.228631 -1.14813e-19)
(0.323209 -0.214933 -6.78281e-20)
(0.381389 -0.198042 7.90149e-20)
(0.435616 -0.181114 9.6936e-20)
(0.486103 -0.165255 -8.58588e-20)
(0.533059 -0.150677 2.24222e-20)
(0.576676 -0.137336 -3.13712e-20)
(0.617142 -0.125143 1.20794e-19)
(0.65464 -0.11401 -3.81778e-20)
(0.689351 -0.103849 -1.34133e-20)
(0.721443 -0.0945782 -7.75567e-21)
(0.75108 -0.0861228 -2.69401e-20)
(0.778453 -0.0784084 -6.5719e-20)
(0.803761 -0.0713255 -1.34651e-21)
(0.827011 -0.064748 1.81525e-20)
(0.847857 -0.0587812 -1.71006e-20)
(0.0263832 -0.0904803 -5.24101e-20)
(0.0797861 -0.203578 -2.2107e-20)
(0.146398 -0.26189 1.24623e-19)
(0.214075 -0.281176 6.84436e-20)
(0.278882 -0.276552 2.82389e-20)
(0.339739 -0.260157 -8.69151e-20)
(0.396421 -0.239815 -9.97796e-20)
(0.449173 -0.219382 1.18446e-20)
(0.498293 -0.20022 2.28476e-20)
(0.544005 -0.182601 1.71922e-20)
(0.586498 -0.166472 5.5997e-20)
(0.625949 -0.15173 -1.23299e-19)
(0.662534 -0.138265 1.75895e-21)
(0.696424 -0.125974 4.28814e-20)
(0.727776 -0.114758 2.58014e-21)
(0.756745 -0.104526 -8.4199e-21)
(0.783526 -0.0951874 -2.16994e-20)
(0.808339 -0.0866073 8.04388e-20)
(0.831148 -0.0786434 -3.47268e-20)
(0.85138 -0.0714549 2.82421e-20)
(0.0337448 -0.104859 8.30635e-20)
(0.0960423 -0.236487 -4.38891e-20)
(0.166891 -0.304817 -5.05448e-20)
(0.23575 -0.327782 -4.68241e-20)
(0.299938 -0.322775 -9.24549e-20)
(0.359307 -0.303887 -1.18994e-20)
(0.414227 -0.280273 1.58925e-20)
(0.465238 -0.256484 -3.61792e-20)
(0.512741 -0.234151 5.19229e-20)
(0.556982 -0.213606 4.36112e-21)
(0.598145 -0.194796 -2.19354e-20)
(0.636395 -0.177597 1.00027e-19)
(0.671898 -0.161885 2.95302e-20)
(0.704816 -0.147539 -2.88522e-20)
(0.735293 -0.134444 6.40755e-20)
(0.763471 -0.122496 -6.7707e-20)
(0.789548 -0.111586 -7.28263e-21)
(0.813769 -0.101554 8.44906e-21)
(0.836058 -0.0922451 9.38853e-20)
(0.855584 -0.0838885 -5.25117e-20)
(0.0420748 -0.118243 2.83978e-20)
(0.114522 -0.267412 3.32529e-20)
(0.190268 -0.345467 1.46187e-19)
(0.260544 -0.372188 6.17926e-20)
(0.324074 -0.367019 2.11771e-19)
(0.381769 -0.345875 1.77668e-20)
(0.434683 -0.319198 9.8911e-20)
(0.483701 -0.29223 6.86878e-20)
(0.52935 -0.266878 -1.47186e-19)
(0.571905 -0.243544 -2.34017e-20)
(0.61154 -0.222172 -5.47596e-20)
(0.648413 -0.202627 -6.79361e-20)
(0.682675 -0.184765 2.24015e-20)
(0.714476 -0.168451 6.99014e-20)
(0.743948 -0.153555 -6.14165e-20)
(0.771219 -0.13996 -5.40505e-20)
(0.796485 -0.127542 5.27972e-20)
(0.820022 -0.116111 -7.05635e-20)
(0.841714 -0.105503 -1.01593e-19)
(0.860455 -0.0960355 -2.74207e-20)
(0.0512594 -0.130511 -8.16034e-20)
(0.135007 -0.296099 -8.32187e-20)
(0.216289 -0.383541 -4.35111e-20)
(0.288236 -0.414101 -1.03206e-19)
(0.351099 -0.409017 -5.05137e-20)
(0.40696 -0.385889 -1.1993e-19)
(0.457647 -0.356386 -1.04111e-19)
(0.504437 -0.32644 3.89324e-20)
(0.548012 -0.298242 6.01421e-20)
(0.588675 -0.272272 -1.05314e-19)
(0.6266 -0.248477 6.56729e-20)
(0.661928 -0.226707 -4.40207e-20)
(0.694798 -0.206806 -5.89113e-20)
(0.725347 -0.188622 -6.17826e-20)
(0.753692 -0.172013 1.73798e-19)
(0.779944 -0.156851 7.73462e-20)
(0.804298 -0.142994 1.86968e-20)
(0.82706 -0.130224 -8.04475e-20)
(0.848086 -0.118368 1.68608e-19)
(0.865977 -0.10785 6.28404e-20)
(0.061172 -0.141553 -1.06179e-19)
(0.157256 -0.322316 1.21647e-19)
(0.244686 -0.418762 1.19298e-19)
(0.318574 -0.453246 1.25281e-19)
(0.380794 -0.44852 7.53526e-20)
(0.434695 -0.423709 1.82539e-20)
(0.482957 -0.391646 1.20217e-19)
(0.527308 -0.358944 -1.45734e-19)
(0.568601 -0.328092 -4.07915e-20)
(0.607185 -0.299656 -3.43394e-20)
(0.643228 -0.27359 1.5204e-19)
(0.676855 -0.249733 -2.1101e-20)
(0.708193 -0.227916 1.7897e-20)
(0.737363 -0.207972 3.85075e-21)
(0.764468 -0.189747 6.18582e-20)
(0.789597 -0.173105 -7.73759e-20)
(0.812943 -0.157888 1.55787e-20)
(0.834845 -0.143846 1.76832e-19)
(0.855142 -0.130796 -2.53966e-20)
(0.872129 -0.119289 -1.13745e-19)
(0.0716748 -0.151275 -6.34127e-20)
(0.181003 -0.345855 2.12058e-20)
(0.275161 -0.450875 -1.26704e-19)
(0.351282 -0.489368 -6.23112e-20)
(0.412919 -0.485297 -8.27784e-20)
(0.464769 -0.459131 -6.68235e-21)
(0.510439 -0.424799 -1.61142e-19)
(0.552158 -0.389587 1.42015e-19)
(0.590984 -0.356291 6.22063e-20)
(0.627316 -0.325575 2.63128e-20)
(0.661318 -0.297404 -1.47585e-19)
(0.693103 -0.271609 2.63172e-20)
(0.72278 -0.248008 -1.86234e-20)
(0.750455 -0.226422 -8.01978e-20)
(0.776213 -0.206688 -7.49606e-20)
(0.800124 -0.188661 1.23046e-19)
(0.822373 -0.172169 6.22881e-20)
(0.843333 -0.156931 -3.58535e-20)
(0.862844 -0.142746 -1.00098e-19)
(0.878889 -0.130309 1.49221e-20)
(0.0826205 -0.159598 8.58511e-20)
(0.205958 -0.366534 3.90932e-20)
(0.307391 -0.479653 4.81932e-20)
(0.386056 -0.522237 5.38917e-20)
(0.44721 -0.519134 -5.73514e-20)
(0.496956 -0.491969 1.2639e-19)
(0.539899 -0.455684 -1.25265e-19)
(0.578822 -0.418226 -5.12452e-21)
(0.615013 -0.382713 9.98746e-20)
(0.648936 -0.349916 2.094e-20)
(0.680757 -0.319819 8.79088e-20)
(0.710572 -0.292246 -3.6992e-20)
(0.73847 -0.267004 2.31552e-20)
(0.764544 -0.243904 1.47828e-19)
(0.78886 -0.222774 -8.82606e-21)
(0.811467 -0.203464 -4.34527e-20)
(0.832537 -0.185791 -9.19519e-20)
(0.85248 -0.169437 -1.51093e-19)
(0.871153 -0.154179 -2.33971e-20)
(0.886233 -0.140874 1.51861e-19)
(0.0938541 -0.166457 1.00048e-19)
(0.231816 -0.384199 3.86145e-21)
(0.341032 -0.504899 -1.84947e-19)
(0.422572 -0.551646 7.38022e-20)
(0.483384 -0.549841 1.98396e-22)
(0.531018 -0.522055 7.87981e-20)
(0.571133 -0.484154 7.5233e-20)
(0.607119 -0.444734 -6.77495e-21)
(0.640531 -0.407245 -4.24205e-20)
(0.67191 -0.372579 -1.47718e-19)
(0.701424 -0.340746 4.51395e-20)
(0.729154 -0.311565 1.8658e-19)
(0.755171 -0.284833 -1.31049e-19)
(0.779549 -0.260356 -1.08325e-19)
(0.802338 -0.237951 -6.79783e-20)
(0.823563 -0.217465 -1.62726e-19)
(0.843379 -0.198709 4.78496e-20)
(0.862235 -0.181327 2.27513e-19)
(0.880027 -0.165063 -3.41914e-20)
(0.894131 -0.150949 -4.28188e-20)
(0.105215 -0.171809 4.19437e-20)
(0.258254 -0.398729 -6.59627e-20)
(0.375716 -0.526443 5.76336e-20)
(0.46048 -0.577417 -9.32693e-20)
(0.521138 -0.577249 1.02864e-19)
(0.566696 -0.54924 -1.02945e-19)
(0.60392 -0.510083 -2.51604e-20)
(0.636861 -0.469001 1.10926e-19)
(0.667373 -0.429791 -8.54589e-20)
(0.696091 -0.393479 9.48476e-20)
(0.72319 -0.360108 -1.12388e-19)
(0.748737 -0.329496 -6.48652e-20)
(0.772782 -0.301435 -4.57934e-20)
(0.795383 -0.275721 7.10555e-20)
(0.816572 -0.252167 1.43049e-20)
(0.836346 -0.230618 8.73073e-20)
(0.854841 -0.210883 -5.84688e-20)
(0.872545 -0.192569 -3.96682e-21)
(0.889419 -0.175371 8.92087e-20)
(0.902554 -0.160506 -4.04845e-20)
(0.116537 -0.175625 -9.78788e-21)
(0.284938 -0.410031 -3.92312e-20)
(0.411057 -0.544151 -7.44967e-21)
(0.499415 -0.599397 -2.17207e-20)
(0.56015 -0.601214 -7.04938e-20)
(0.603719 -0.573398 -6.09682e-20)
(0.638033 -0.533361 -4.02547e-20)
(0.667851 -0.490931 -5.57919e-20)
(0.695366 -0.450266 1.15324e-19)
(0.721326 -0.412542 1.24101e-20)
(0.745922 -0.37784 1.77509e-19)
(0.769203 -0.345981 5.48834e-20)
(0.791203 -0.316755 5.97773e-20)
(0.811957 -0.289952 -9.55486e-20)
(0.831482 -0.265381 1.45445e-19)
(0.849748 -0.242886 -2.60174e-20)
(0.866863 -0.22228 -1.50846e-20)
(0.883355 -0.203136 -1.27867e-19)
(0.899282 -0.185085 5.93557e-20)
(0.91147 -0.169524 -4.77072e-20)
(0.127654 -0.177896 -7.97396e-20)
(0.311522 -0.418049 -3.51471e-20)
(0.446654 -0.557923 -5.26365e-20)
(0.538992 -0.617467 -4.59024e-20)
(0.600086 -0.621617 -1.17894e-20)
(0.641805 -0.594423 1.23274e-19)
(0.673231 -0.553898 1.04968e-19)
(0.699882 -0.51045 8.90625e-20)
(0.72433 -0.468606 -9.05333e-20)
(0.74746 -0.429707 -5.23339e-20)
(0.769482 -0.393887 -1.8635e-19)
(0.790433 -0.360972 1.45444e-19)
(0.810325 -0.330752 -5.57403e-20)
(0.829178 -0.303011 1.00925e-19)
(0.846989 -0.277555 -7.49444e-20)
(0.863701 -0.254232 2.7544e-20)
(0.879382 -0.232862 -3.63505e-20)
(0.894601 -0.212992 1.14219e-19)
(0.909556 -0.194176 -9.00774e-20)
(0.920848 -0.177982 -3.96678e-20)
(0.1384 -0.178632 8.94755e-20)
(0.337657 -0.42276 -3.3551e-20)
(0.482094 -0.567693 6.3313e-20)
(0.578811 -0.631537 6.59374e-20)
(0.640594 -0.638365 -2.02906e-20)
(0.680657 -0.612232 -1.32471e-19)
(0.709266 -0.571626 9.50858e-20)
(0.732742 -0.527499 -1.85635e-20)
(0.754083 -0.484758 2.94495e-20)
(0.77433 -0.444931 3.54546e-20)
(0.793728 -0.408208 -7.3224e-20)
(0.812301 -0.374432 -1.7247e-19)
(0.830042 -0.343389 7.49576e-21)
(0.84695 -0.314866 -1.70287e-20)
(0.863009 -0.288664 5.01649e-21)
(0.878132 -0.264636 8.7196e-20)
(0.892336 -0.242616 -8.40441e-20)
(0.906216 -0.222143 -1.28645e-19)
(0.920177 -0.202682 -3.35547e-20)
(0.930662 -0.185922 6.75439e-20)
(0.148609 -0.177864 7.47609e-21)
(0.362988 -0.424178 -3.8022e-20)
(0.516956 -0.573433 8.46925e-21)
(0.618459 -0.64155 -4.9813e-20)
(0.681311 -0.651392 -2.00482e-20)
(0.719971 -0.626766 -1.38232e-20)
(0.745883 -0.586495 2.18992e-20)
(0.766217 -0.542038 -6.75858e-20)
(0.784436 -0.49869 -1.57412e-20)
(0.801773 -0.458182 4.39323e-20)
(0.818516 -0.420777 2.93621e-20)
(0.834682 -0.386334 1.07797e-19)
(0.850242 -0.354644 1.06786e-19)
(0.865177 -0.325494 -2.71981e-20)
(0.879458 -0.298683 7.46386e-21)
(0.892975 -0.274066 2.97181e-20)
(0.905675 -0.25149 1.09682e-19)
(0.918139 -0.230489 1.28365e-19)
(0.93106 -0.210456 1.43417e-19)
(0.940908 -0.193229 -1.82734e-20)
(0.158122 -0.175638 -1.23973e-20)
(0.387167 -0.422353 2.34931e-20)
(0.550813 -0.575154 2.41612e-20)
(0.657515 -0.647483 1.80653e-20)
(0.721863 -0.660661 -4.13525e-20)
(0.759433 -0.637987 1.33559e-19)
(0.782823 -0.598476 -3.92417e-20)
(0.800086 -0.554044 1.10168e-20)
(0.815202 -0.510384 -5.80434e-20)
(0.829625 -0.469446 -5.90474e-21)
(0.843703 -0.431579 9.83012e-20)
(0.85745 -0.396665 -4.94323e-20)
(0.870816 -0.364503 -1.78819e-20)
(0.883762 -0.334881 -4.44652e-20)
(0.896248 -0.307602 4.25031e-20)
(0.908152 -0.282523 -8.44825e-20)
(0.919338 -0.259514 3.27389e-20)
(0.930288 -0.238148 -2.12798e-20)
(0.942018 -0.217815 9.24578e-21)
(0.951542 -0.20043 4.13653e-20)
(0.166786 -0.172024 -5.41565e-21)
(0.409847 -0.417372 6.83025e-22)
(0.583237 -0.572905 -2.60592e-21)
(0.69555 -0.649346 -8.73248e-21)
(0.761868 -0.666162 1.75209e-20)
(0.798722 -0.645883 -8.33207e-20)
(0.819821 -0.607562 -8.72828e-21)
(0.834128 -0.563517 -4.72261e-20)
(0.84619 -0.51984 7.29294e-20)
(0.85772 -0.478721 5.56847e-20)
(0.869144 -0.440611 -9.37062e-20)
(0.880478 -0.405422 7.19834e-20)
(0.891654 -0.37296 -6.05772e-20)
(0.90261 -0.343023 1.37411e-20)
(0.913295 -0.315413 -1.91335e-19)
(0.923593 -0.289983 6.58242e-21)
(0.933305 -0.266605 -6.54798e-20)
(0.942712 -0.244842 -9.47142e-20)
(0.953023 -0.224028 -5.64136e-20)
(0.962853 -0.206268 -9.10368e-20)
(0.174469 -0.167114 1.51172e-20)
(0.430685 -0.409353 -2.24688e-20)
(0.613802 -0.566774 9.70103e-21)
(0.732129 -0.647187 1.16493e-20)
(0.800936 -0.667913 7.22095e-22)
(0.837512 -0.650465 3.81239e-20)
(0.85661 -0.613764 -1.99005e-20)
(0.868123 -0.57047 -1.50683e-20)
(0.877214 -0.527073 -8.54527e-21)
(0.885897 -0.486023 -3.43405e-20)
(0.894697 -0.447886 2.43534e-20)
(0.903641 -0.412612 -6.88138e-20)
(0.912646 -0.380023 5.91023e-20)
(0.921626 -0.349923 5.91794e-20)
(0.930517 -0.322119 1.06166e-19)
(0.939216 -0.29646 3.59945e-20)
(0.947518 -0.272817 7.29812e-20)
(0.955451 -0.250856 8.02393e-20)
(0.963845 -0.230486 7.18682e-20)
(0.973437 -0.213909 3.58317e-20)
(0.181099 -0.161023 4.2031e-20)
(0.449346 -0.398419 -1.36442e-20)
(0.642091 -0.556896 -1.74061e-20)
(0.766821 -0.641087 -3.03734e-20)
(0.838674 -0.665965 6.78758e-21)
(0.875473 -0.651767 -1.15405e-20)
(0.892921 -0.617116 1.6387e-20)
(0.90185 -0.574938 -6.48815e-21)
(0.908088 -0.532116 -2.94268e-20)
(0.913995 -0.491379 -9.85339e-21)
(0.920222 -0.453426 8.011e-20)
(0.926817 -0.418257 1.86775e-20)
(0.933685 -0.385707 1.29877e-20)
(0.940719 -0.355592 -4.7972e-20)
(0.947835 -0.32773 -1.44509e-19)
(0.954941 -0.301967 4.50226e-20)
(0.961868 -0.278164 2.96766e-20)
(0.968481 -0.256098 -8.33546e-20)
(0.975114 -0.235959 -4.67171e-20)
(0.983127 -0.218594 -2.26368e-20)
(0.186536 -0.153723 -4.88437e-20)
(0.465556 -0.384695 3.24116e-20)
(0.667694 -0.54348 -6.8971e-20)
(0.799201 -0.631169 2.85622e-21)
(0.874687 -0.660393 1.9022e-20)
(0.912271 -0.649845 -1.52901e-20)
(0.928486 -0.617667 6.79237e-21)
(0.935092 -0.576969 1.14379e-21)
(0.93863 -0.535016 2.89049e-20)
(0.941859 -0.494833 2.58666e-20)
(0.945583 -0.45727 -5.2916e-20)
(0.949886 -0.422386 -9.30898e-20)
(0.954667 -0.390037 3.4283e-20)
(0.959798 -0.360052 2.80745e-20)
(0.965172 -0.332261 7.49498e-20)
(0.970702 -0.306508 -9.70515e-21)
(0.976271 -0.28264 7.60753e-22)
(0.981691 -0.260509 2.78334e-21)
(0.98688 -0.240481 -7.22525e-21)
(0.993028 -0.222661 -1.09046e-19)
(0.190596 -0.145403 6.7386e-20)
(0.47907 -0.368571 7.29172e-20)
(0.690166 -0.526694 7.25337e-20)
(0.828898 -0.617579 1.75983e-20)
(0.90859 -0.651302 -2.54454e-20)
(0.947573 -0.644778 -2.01879e-20)
(0.963034 -0.615486 -1.1494e-20)
(0.967632 -0.576629 7.47285e-22)
(0.968663 -0.535835 -8.22956e-21)
(0.969336 -0.49644 -1.32629e-20)
(0.970649 -0.459466 4.94168e-21)
(0.972735 -0.425041 4.00835e-20)
(0.975491 -0.393048 -3.4748e-20)
(0.978775 -0.363332 2.64125e-21)
(0.982458 -0.335734 -1.84446e-20)
(0.986448 -0.310102 -1.0411e-20)
(0.990673 -0.28627 5.61604e-21)
(0.994964 -0.264144 -1.7609e-20)
(0.998968 -0.244243 1.69781e-20)
(1.0035 -0.226234 1.00925e-19)
(0.19323 -0.136303 4.84423e-20)
(0.48966 -0.350267 -1.4072e-19)
(0.709114 -0.506777 7.26236e-20)
(0.855389 -0.600534 2.12755e-20)
(0.940027 -0.638805 -5.01193e-20)
(0.981048 -0.636661 2.61636e-20)
(0.996298 -0.610658 2.3564e-21)
(0.999259 -0.573999 -1.47969e-20)
(0.998015 -0.534649 2.14921e-21)
(0.996284 -0.496268 1.99808e-22)
(0.995296 -0.460073 -4.74824e-21)
(0.995253 -0.426273 1.18384e-20)
(0.99606 -0.394784 2.13124e-20)
(0.997565 -0.365467 -3.56208e-20)
(0.99962 -0.338179 1.90945e-20)
(1.00212 -0.312777 -6.41522e-21)
(1.00503 -0.289088 1.96992e-20)
(1.00821 -0.267055 -3.34702e-22)
(1.01114 -0.247304 2.28112e-20)
(1.01426 -0.229252 -2.97242e-20)
(0.194416 -0.12659 -6.30573e-21)
(0.497088 -0.330048 -5.42756e-20)
(0.724326 -0.484029 -4.53083e-20)
(0.8782 -0.580231 2.71623e-20)
(0.968539 -0.623086 -5.4462e-21)
(1.01237 -0.625594 2.72279e-20)
(1.02801 -0.603278 1.30977e-20)
(1.02976 -0.56917 3.60214e-21)
(1.02652 -0.531545 1.51138e-21)
(1.02256 -0.494399 -1.57788e-21)
(1.0194 -0.459161 -2.2629e-22)
(1.01734 -0.426142 -4.19083e-21)
(1.01629 -0.395296 6.54023e-21)
(1.01609 -0.366503 -1.07676e-22)
(1.01659 -0.339636 -2.58877e-20)
(1.01767 -0.314568 4.71573e-20)
(1.0193 -0.291124 -2.3461e-20)
(1.02138 -0.269264 -2.24534e-20)
(1.02327 -0.249674 -1.00533e-20)
(1.02509 -0.231676 -1.74836e-20)
(0.194133 -0.116396 -1.87245e-20)
(0.501181 -0.308219 1.16351e-19)
(0.735522 -0.458755 3.89117e-20)
(0.89705 -0.55694 -1.07019e-19)
(0.993667 -0.604328 -1.95648e-20)
(1.04119 -0.611728 3.24285e-20)
(1.0579 -0.593455 1.39326e-20)
(1.05894 -0.562246 3.5683e-20)
(1.05402 -0.526622 -2.19766e-21)
(1.04805 -0.490921 3.23787e-21)
(1.04287 -0.456811 1.56065e-21)
(1.03889 -0.424717 7.54328e-21)
(1.03608 -0.394643 1.05803e-21)
(1.03427 -0.366489 1.32098e-20)
(1.03329 -0.340148 -8.8437e-21)
(1.03302 -0.315509 -5.9451e-20)
(1.03342 -0.292403 -2.81984e-20)
(1.03442 -0.270789 2.93135e-20)
(1.03529 -0.251379 1.48226e-20)
(1.03589 -0.233516 -6.43719e-21)
(0.192368 -0.105865 1.0931e-19)
(0.501821 -0.285109 -1.5564e-19)
(0.742415 -0.431308 -1.38924e-19)
(0.911636 -0.530942 1.67781e-19)
(1.01507 -0.582744 4.18519e-20)
(1.06711 -0.595225 -2.66211e-20)
(1.08569 -0.581314 -4.65586e-20)
(1.08658 -0.553339 -4.57704e-20)
(1.08035 -0.519987 2.8606e-20)
(1.07261 -0.485935 7.18446e-21)
(1.06558 -0.45311 8.16591e-21)
(1.05983 -0.422075 4.77551e-21)
(1.05537 -0.392891 -3.57856e-21)
(1.05204 -0.365483 2.71724e-21)
(1.04967 -0.339764 1.04512e-20)
(1.04811 -0.31564 3.1395e-20)
(1.04735 -0.292956 1.46124e-20)
(1.04729 -0.271657 -4.98181e-20)
(1.04719 -0.252456 -1.03325e-20)
(1.04665 -0.234811 1.48053e-20)
(0.189135 -0.0951544 -1.19238e-19)
(0.498947 -0.261062 1.15256e-19)
(0.744777 -0.402063 -4.4889e-22)
(0.92162 -0.502543 -3.81447e-20)
(1.03244 -0.558566 -6.10059e-21)
(1.0898 -0.576254 -8.46247e-21)
(1.11109 -0.567001 -4.38421e-20)
(1.11248 -0.542574 4.30135e-20)
(1.10537 -0.511752 -5.23364e-20)
(1.09615 -0.479547 3.15886e-21)
(1.08744 -0.448154 -2.72168e-21)
(1.08007 -0.418299 -8.81162e-22)
(1.07408 -0.390111 -2.5915e-21)
(1.06934 -0.363546 -9.07874e-22)
(1.06566 -0.338534 1.88813e-21)
(1.06291 -0.315006 -4.95941e-21)
(1.06104 -0.29282 1.24961e-20)
(1.05996 -0.271901 3.27544e-21)
(1.05892 -0.252947 1.20813e-21)
(1.05734 -0.235593 -2.44814e-20)
(0.184476 -0.084428 1.83718e-20)
(0.492546 -0.236433 3.33815e-20)
(0.742448 -0.37142 6.13603e-20)
(0.926696 -0.472085 -3.22244e-20)
(1.0454 -0.532047 -8.87146e-20)
(1.10894 -0.555003 2.44634e-20)
(1.13383 -0.550663 3.81351e-20)
(1.13643 -0.530077 2.19611e-20)
(1.12895 -0.502044 4.62146e-20)
(1.11853 -0.471869 -1.00074e-20)
(1.10838 -0.44204 -3.68349e-21)
(1.09954 -0.413477 4.07621e-21)
(1.09215 -0.386381 -9.46521e-21)
(1.0861 -0.360741 -8.19139e-21)
(1.08121 -0.336515 -6.54733e-22)
(1.07735 -0.313653 8.35966e-22)
(1.07443 -0.292033 -1.25525e-20)
(1.07239 -0.271556 6.70595e-21)
(1.07048 -0.252886 1.20094e-20)
(1.06795 -0.235886 -7.41887e-22)
(0.178464 -0.0738476 3.35387e-20)
(0.482667 -0.211584 6.79087e-21)
(0.735334 -0.339794 -8.57904e-20)
(0.926614 -0.439935 1.04538e-19)
(1.05361 -0.503462 1.91213e-20)
(1.1242 -0.531668 -9.78381e-20)
(1.15361 -0.532451 3.07727e-20)
(1.15823 -0.515986 -3.25485e-20)
(1.15094 -0.490977 4.15341e-22)
(1.13968 -0.46301 4.76217e-21)
(1.12831 -0.434883 1.0607e-20)
(1.11816 -0.4077 2.75291e-21)
(1.10953 -0.381781 1.94533e-20)
(1.10228 -0.357139 1.83543e-21)
(1.09629 -0.333767 -4.50463e-21)
(1.09139 -0.311631 4.95442e-22)
(1.0875 -0.290636 -2.23854e-21)
(1.08456 -0.270659 1.09871e-23)
(1.08183 -0.252309 1.13177e-21)
(1.07843 -0.235708 5.40987e-21)
(0.171192 -0.0635672 -3.90436e-20)
(0.469414 -0.186874 2.04029e-21)
(0.723415 -0.307614 1.79394e-20)
(0.921181 -0.406483 -4.31696e-20)
(1.05677 -0.473107 8.17381e-20)
(1.13522 -0.506458 4.01024e-20)
(1.17015 -0.512516 -3.747e-20)
(1.17764 -0.500428 -2.11376e-20)
(1.17117 -0.478678 1.62098e-20)
(1.15951 -0.453092 -1.93929e-20)
(1.14718 -0.426777 1.51234e-20)
(1.1359 -0.401076 8.35434e-22)
(1.12615 -0.376396 9.32914e-22)
(1.11784 -0.352806 -5.9295e-21)
(1.11084 -0.33035 1.13278e-20)
(1.105 -0.308992 -1.56143e-21)
(1.10022 -0.288675 5.61959e-22)
(1.09642 -0.269248 1.22327e-21)
(1.09295 -0.251249 -3.28182e-21)
(1.08876 -0.235079 -6.10921e-22)
(0.162783 -0.05373 6.45712e-20)
(0.452959 -0.162655 7.33557e-20)
(0.706744 -0.275319 5.1747e-20)
(0.910264 -0.372138 -8.4222e-21)
(1.05458 -0.4413 8.34964e-21)
(1.14167 -0.479591 -7.80272e-22)
(1.18313 -0.491013 8.04489e-20)
(1.19443 -0.483526 -2.16368e-20)
(1.18949 -0.465267 1.20567e-20)
(1.17791 -0.44223 -5.8421e-20)
(1.16492 -0.417844 1.0164e-20)
(1.15274 -0.393688 1.91073e-20)
(1.14198 -0.370298 -6.11238e-21)
(1.13273 -0.347832 1.27476e-20)
(1.12484 -0.326331 -1.01098e-20)
(1.11814 -0.305787 1.33078e-20)
(1.11255 -0.286192 1.39041e-21)
(1.10795 -0.267366 -2.55876e-21)
(1.10382 -0.249744 -5.02142e-22)
(1.09893 -0.234027 -2.05919e-21)
(0.153378 -0.0444642 -1.21753e-19)
(0.43353 -0.139262 2.94014e-20)
(0.685457 -0.243346 -1.1821e-20)
(0.8938 -0.337323 -7.64593e-20)
(1.0468 -0.408373 -2.40716e-20)
(1.14322 -0.451299 -4.57843e-20)
(1.19224 -0.468097 -3.59927e-20)
(1.20837 -0.4654 -3.47254e-20)
(1.20575 -0.450852 3.05144e-20)
(1.19477 -0.430537 1.13347e-20)
(1.18147 -0.408186 -3.44228e-20)
(1.16859 -0.385637 -4.42858e-21)
(1.15703 -0.363589 -2.22094e-21)
(1.14695 -0.342278 -1.10072e-20)
(1.13825 -0.321764 -1.30335e-21)
(1.1308 -0.302082 -2.20434e-21)
(1.12447 -0.283236 -1.1058e-20)
(1.11913 -0.265048 2.44108e-21)
(1.11442 -0.247833 4.05788e-21)
(1.10891 -0.232569 -7.75683e-22)
(0.143138 -0.0358808 4.17286e-21)
(0.41142 -0.117005 -5.28831e-20)
(0.659774 -0.212123 2.36856e-20)
(0.871809 -0.302471 -1.597e-20)
(1.03324 -0.374676 1.87469e-20)
(1.13953 -0.421825 7.55234e-20)
(1.19713 -0.443928 -3.25294e-20)
(1.21917 -0.446166 6.8833e-20)
(1.21975 -0.435537 2.44575e-21)
(1.21 -0.418114 2.72666e-20)
(1.19677 -0.397904 2.76081e-21)
(1.18343 -0.377021 1.6346e-20)
(1.17123 -0.356353 2.85856e-21)
(1.16047 -0.336221 4.46393e-22)
(1.15108 -0.316725 -1.69263e-20)
(1.14297 -0.297924 2.68288e-21)
(1.13597 -0.279839 1.06321e-20)
(1.12997 -0.262352 3.66524e-22)
(1.12468 -0.245552 -2.53964e-21)
(1.11875 -0.230757 1.13304e-21)
(0.13224 -0.0280706 1.45274e-20)
(0.386973 -0.0961643 4.2153e-20)
(0.630004 -0.182059 4.43295e-20)
(0.844398 -0.268017 -1.25658e-20)
(1.01376 -0.340572 5.22799e-20)
(1.13031 -0.391418 -1.02017e-20)
(1.19744 -0.418662 7.39951e-20)
(1.22652 -0.425928 -8.61416e-20)
(1.2313 -0.419409 -1.41401e-20)
(1.22347 -0.405052 -1.27955e-20)
(1.21076 -0.387093 -1.38288e-20)
(1.19723 -0.367935 -1.95348e-21)
(1.18457 -0.348673 5.83372e-21)
(1.17325 -0.329738 -1.52519e-20)
(1.1633 -0.311278 1.16233e-20)
(1.15461 -0.293369 -4.96252e-21)
(1.14704 -0.276063 -2.60876e-21)
(1.14046 -0.259279 -3.49868e-21)
(1.13459 -0.242966 -2.45891e-21)
(1.12844 -0.228607 -4.88375e-21)
(0.120869 -0.0211026 6.6988e-20)
(0.360583 -0.0769777 -6.37897e-20)
(0.596542 -0.153536 7.55105e-21)
(0.811776 -0.234392 -8.47669e-21)
(0.988303 -0.306437 -1.98097e-20)
(1.11527 -0.360345 -3.71531e-20)
(1.1928 -0.392461 -4.51375e-21)
(1.23008 -0.404784 2.16581e-20)
(1.24014 -0.402545 8.39845e-21)
(1.23504 -0.391428 -1.08554e-20)
(1.22337 -0.375839 1.16689e-20)
(1.20997 -0.358464 -1.02916e-21)
(1.19704 -0.340632 -1.93949e-20)
(1.1853 -0.322902 2.63471e-20)
(1.17488 -0.305484 7.06237e-21)
(1.16572 -0.288477 -3.5165e-21)
(1.15767 -0.271955 4.39481e-21)
(1.15059 -0.255875 5.0422e-21)
(1.14422 -0.240131 4.52946e-21)
(1.13781 -0.226212 4.38258e-21)
(0.109219 -0.0150221 -6.88381e-20)
(0.332682 -0.0596392 5.19894e-20)
(0.559867 -0.126899 2.2056e-20)
(0.774259 -0.202017 -4.45362e-20)
(0.95689 -0.272654 -9.41117e-21)
(1.09416 -0.328882 -3.39216e-20)
(1.18283 -0.365488 1.31713e-20)
(1.22947 -0.382821 -2.0896e-20)
(1.24596 -0.385003 1.12673e-21)
(1.24452 -0.377304 2.70838e-21)
(1.23451 -0.364213 5.87904e-21)
(1.22162 -0.348687 -1.88418e-20)
(1.20864 -0.332306 1.86954e-20)
(1.19663 -0.315784 -1.25991e-20)
(1.18585 -0.299405 -2.7241e-21)
(1.17629 -0.2833 1.00046e-21)
(1.16784 -0.267564 -3.18901e-21)
(1.16034 -0.25219 -7.85159e-21)
(1.15355 -0.237039 -1.7307e-22)
(1.14682 -0.223541 -4.39215e-21)
(0.097482 -0.00985064 -8.22821e-21)
(0.303733 -0.0442921 -2.40327e-20)
(0.520535 -0.102445 -8.1838e-21)
(0.732277 -0.17129 1.28301e-20)
(0.919659 -0.239615 -7.34829e-21)
(1.06682 -0.297322 7.71134e-21)
(1.16715 -0.337914 1.71805e-20)
(1.22425 -0.360121 1.45966e-20)
(1.24843 -0.366825 1.1247e-20)
(1.25169 -0.362721 -2.45063e-21)
(1.24406 -0.35227 -5.63898e-21)
(1.23211 -0.338671 6.94742e-21)
(1.21934 -0.323766 -3.07644e-21)
(1.20722 -0.308449 4.27331e-21)
(1.19619 -0.293102 -1.9898e-21)
(1.18634 -0.277892 4.92269e-21)
(1.17756 -0.262936 -1.43461e-21)
(1.16971 -0.248263 4.66853e-21)
(1.16257 -0.233697 -1.4077e-21)
(1.15552 -0.220602 2.68765e-22)
(0.0858437 -0.00558616 -1.00599e-22)
(0.274209 -0.0310252 -9.98092e-23)
(0.479162 -0.0804153 -2.741e-21)
(0.686371 -0.142579 1.34864e-20)
(0.876871 -0.207711 8.54275e-21)
(1.03314 -0.265973 -6.39253e-21)
(1.14538 -0.309923 -4.68354e-21)
(1.21396 -0.336763 -1.35802e-21)
(1.24711 -0.348038 -6.47213e-21)
(1.25625 -0.347697 -4.16024e-22)
(1.25186 -0.340046 2.73153e-22)
(1.24139 -0.328468 -2.634e-21)
(1.22914 -0.315074 -1.60043e-21)
(1.21708 -0.300962 -3.58091e-21)
(1.20593 -0.286631 -3.82438e-21)
(1.19586 -0.272303 -3.034e-22)
(1.18683 -0.258114 1.37558e-21)
(1.1787 -0.244131 1.41147e-21)
(1.17126 -0.230138 1.50974e-21)
(1.16398 -0.217433 2.19378e-21)
(0.0744799 -0.00220402 9.31023e-21)
(0.244588 -0.0198719 -1.43843e-21)
(0.436416 -0.060986 -2.43539e-21)
(0.637195 -0.116209 6.11053e-21)
(0.828925 -0.177325 1.22466e-20)
(0.993132 -0.235163 -5.39765e-21)
(1.1172 -0.281715 -4.37825e-21)
(1.19809 -0.312828 -8.11946e-21)
(1.24152 -0.32865 -7.28514e-21)
(1.25782 -0.332226 1.35977e-21)
(1.25768 -0.327552 -1.20405e-21)
(1.24935 -0.318113 -5.52361e-22)
(1.23799 -0.306279 -2.83629e-21)
(1.22621 -0.293377 -4.56388e-21)
(1.21506 -0.280047 -1.11176e-21)
(1.20487 -0.26658 -3.64742e-22)
(1.19566 -0.25314 -7.699e-23)
(1.18731 -0.239832 9.63661e-22)
(1.17965 -0.226408 3.51932e-21)
(1.1722 -0.214068 2.93731e-21)
(0.0635503 0.000340786 -5.58231e-21)
(0.215332 -0.0108108 -8.10885e-21)
(0.39299 -0.0442655 -1.07999e-20)
(0.5855 -0.0924527 1.41708e-20)
(0.77637 -0.148829 1.36633e-20)
(0.946952 -0.205235 2.663e-22)
(1.08234 -0.253518 5.2001e-21)
(1.17613 -0.288409 1.44037e-20)
(1.23107 -0.308666 1.55926e-20)
(1.25594 -0.31628 1.01169e-20)
(1.26121 -0.314771 -2.4676e-20)
(1.25583 -0.307618 1.01118e-20)
(1.24584 -0.297417 -4.75791e-21)
(1.2346 -0.28574 1.02367e-20)
(1.2236 -0.273398 -6.67978e-22)
(1.21339 -0.26077 -1.62247e-21)
(1.20407 -0.248055 1.05828e-21)
(1.19557 -0.235404 1.00515e-20)
(1.18773 -0.222545 -3.51509e-21)
(1.18019 -0.210536 3.24329e-22)
(0.0531937 0.00211084 -1.71673e-20)
(0.186872 -0.00376858 3.91028e-20)
(0.349583 -0.0302894 3.88571e-21)
(0.532116 -0.0715161 -4.8827e-20)
(0.71991 -0.122565 -9.10665e-21)
(0.89492 -0.176547 2.10977e-20)
(1.04066 -0.225588 -4.87081e-20)
(1.14758 -0.26362 -4.44967e-22)
(1.21514 -0.288085 4.52166e-21)
(1.25002 -0.299809 -9.1885e-22)
(1.26204 -0.301656 1.31028e-20)
(1.26058 -0.296967 -2.28342e-20)
(1.25259 -0.288503 3.65343e-21)
(1.24222 -0.278085 -8.66708e-21)
(1.23155 -0.266724 -7.1963e-21)
(1.22142 -0.254913 6.6176e-21)
(1.21207 -0.242898 -7.77702e-22)
(1.20348 -0.230879 -1.58378e-20)
(1.19552 -0.218587 4.48934e-22)
(1.18793 -0.206865 -8.05859e-21)
(0.0435254 0.00318289 1.33229e-20)
(0.159599 0.00137453 -2.16777e-20)
(0.306874 -0.0190211 -1.71843e-21)
(0.477924 -0.0535333 -4.02319e-20)