/*--------------------------------*- C++ -*----------------------------------*\
  =========                 |
  \\      /  F ield         | OpenFOAM: The Open Source CFD Toolbox
   \\    /   O peration     | Website:  https://openfoam.org
    \\  /    A nd           | Version:  7
     \\/     M anipulation  |
\*---------------------------------------------------------------------------*/
FoamFile
{
    version     2.0;
    format      ascii;
    class       volScalarField;
    location    "1.2";
    object      p;
}
// * * * * * * * * * * * * * * * * * * * * * * * * * * * * * * * * * * * * * //

dimensions      [1 -1 -2 0 0 0 0];

internalField   nonuniform List<scalar> 
197568
(
1
1
1
1
1
1
1
1
1
1
1
1
1
1
1
1
1
1
1
1
1
1
1
1
1
1
1
1
1
1
1
1
1
1
1
1
1
1
1
1
1
1
1
1
1
1
1
1
1
1
1
1
1
1
1
1
1
1
1
1
1
1
1
1
1
1
1
1
1
1
1
1
1
1
1
1
1
1
1
1
1
1
1
1
1
1
1
1
1
1
1
1
2.13094
9.01464
10.6891
10.7116
10.7408
10.7491
10.7484
10.7359
10.7401
10.7681
10.8287
10.9069
10.9768
11.0178
11.0339
11.0434
11.0719
11.1218
11.1862
11.2511
11.306
11.3417
11.3642
11.3754
11.3763
11.384
11.3965
11.4115
11.4385
11.4647
11.4951
11.5275
11.5624
11.5995
11.6369
11.6736
11.7078
11.7377
11.7621
11.7809
11.7976
11.8165
11.8404
11.8688
11.8977
11.9208
11.9332
11.9336
11.9195
11.8984
11.8858
11.8865
11.9057
11.9456
11.9898
12.0239
12.0428
12.049
12.0502
12.0526
12.0592
12.0678
12.0732
12.0766
12.0806
12.0883
12.1034
12.1277
12.1595
12.1929
12.2203
12.2338
12.232
12.2195
12.2044
12.1901
1
1
1
1
1
1
1
1
1
1
1
1
1
1
1
1
1
1
1
1
1
1
1
1
1
1
1
1
1
1
1
1
1
1
1
1
1
1
1
1
1
1
1
1
1
1
1
1
1
1
1
1
1
1
1
1
1
1
1
1
1
1
1
1
1
1
1
1
1
1
1
1
1
1
1
1
1
1
1
1
1
1
1
1
1
1
1
1
1
1
1
1
2.11574
8.98709
10.6842
10.7084
10.7376
10.7488
10.7493
10.7381
10.7423
10.7678
10.8273
10.9053
10.9748
11.0159
11.0329
11.0441
11.0742
11.1252
11.1893
11.2532
11.3066
11.341
11.3629
11.3748
11.3761
11.3844
11.3971
11.4128
11.4398
11.4664
11.4966
11.5282
11.5618
11.5976
11.6347
11.6722
11.7077
11.7386
11.7632
11.7809
11.7958
11.8131
11.8361
11.8649
11.895
11.9191
11.9321
11.9328
11.9194
11.9
11.8891
11.8906
11.9082
11.9443
11.9843
12.0161
12.0364
12.047
12.0518
12.0572
12.0642
12.0712
12.0741
12.0738
12.0745
12.0812
12.0987
12.1276
12.1633
12.197
12.2223
12.2325
12.2282
12.2153
12.2017
12.19
1
1
1
1
1
1
1
1
1
1
1
1
1
1
1
1
1
1
1
1
1
1
1
1
1
1
1
1
1
1
1
1
1
1
1
1
1
1
1
1
1
1
1
1
1
1
1
1
1
1
1
1
1
1
1
1
1
1
1
1
1
1
1
1
1
1
1
1
1
1
1
1
1
1
1
1
1
1
1
1
1
1
1
1
1
1
1
1
1
1
1
1
2.08323
8.94521
10.6789
10.7039
10.7328
10.746
10.7484
10.7395
10.7433
10.7676
10.8264
10.904
10.9726
11.0131
11.0303
11.044
11.0768
11.1294
11.1931
11.2554
11.3067
11.3395
11.3607
11.3734
11.3748
11.3835
11.3964
11.4132
11.4404
11.4675
11.4979
11.5284
11.5605
11.5948
11.6313
11.6694
11.7067
11.739
11.7639
11.7804
11.7934
11.8089
11.8312
11.8604
11.8913
11.9158
11.9288
11.9297
11.9175
11.9009
11.8934
11.8967
11.9124
11.9434
11.9783
12.0074
12.0285
12.0426
12.0514
12.0596
12.068
12.0745
12.0761
12.0727
12.069
12.0731
12.0918
12.126
12.1663
12.2007
12.2238
12.2308
12.2241
12.2107
12.1982
12.1894
1
1
1
1
1
1
1
1
1
1
1
1
1
1
1
1
1
1
1
1
1
1
1
1
1
1
1
1
1
1
1
1
1
1
1
1
1
1
1
1
1
1
1
1
1
1
1
1
1
1
1
1
1
1
1
1
1
1
1
1
1
1
1
1
1
1
1
1
1
1
1
1
1
1
1
1
1
1
1
1
1
1
1
1
1
1
1
1
1
1
1
1
2.03546
8.88844
10.6721
10.6992
10.7284
10.7429
10.7464
10.7396
10.7432
10.7664
10.8242
10.9011
10.9689
11.0092
11.0265
11.0435
11.0803
11.1345
11.1973
11.2574
11.306
11.3375
11.3583
11.3717
11.3732
11.3819
11.3947
11.4129
11.4399
11.4675
11.4979
11.5278
11.5587
11.5916
11.6274
11.6658
11.7046
11.7384
11.7635
11.7788
11.7897
11.8037
11.8258
11.8562
11.8883
11.9126
11.9247
11.9248
11.9134
11.9003
11.8965
11.9018
11.9162
11.9418
11.9715
11.9983
12.0203
12.0372
12.0507
12.0614
12.0703
12.0763
12.0763
12.07
12.0628
12.0651
12.0845
12.1231
12.168
12.2034
12.2243
12.2283
12.2196
12.2057
12.1941
12.188
1
1
1
1
1
1
1
1
1
1
1
1
1
1
1
1
1
1
1
1
1
1
1
1
1
1
1
1
1
1
1
1
1
1
1
1
1
1
1
1
1
1
1
1
1
1
1
1
1
1
1
1
1
1
1
1
1
1
1
1
1
1
1
1
1
1
1
1
1
1
1
1
1
1
1
1
1
1
1
1
1
1
1
1
1
1
1
1
1
1
1
1
1.9748
8.81525
10.661
10.6905
10.7236
10.742
10.7434
10.7378
10.742
10.7655
10.8225
10.8982
10.9645
11.0038
11.0208
11.0425
11.0848
11.1405
11.2017
11.259
11.3049
11.3355
11.3562
11.3699
11.3715
11.3798
11.3921
11.4107
11.4369
11.4648
11.4956
11.5258
11.5566
11.5889
11.624
11.6623
11.7017
11.7359
11.7611
11.7755
11.7851
11.7985
11.8214
11.8538
11.8871
11.9104
11.9207
11.9183
11.9062
11.8962
11.8962
11.9041
11.9183
11.9407
11.966
11.9916
12.0145
12.0331
12.0482
12.0607
12.0701
12.075
12.0741
12.0668
12.0586
12.0604
12.0796
12.1194
12.1667
12.2022
12.2216
12.2245
12.2153
12.2014
12.1904
12.1861
1
1
1
1
1
1
1
1
1
1
1
1
1
1
1
1
1
1
1
1
1
1
1
1
1
1
1
1
1
1
1
1
1
1
1
1
1
1
1
1
1
1
1
1
1
1
1
1
1
1
1
1
1
1
1
1
1
1
1
1
1
1
1
1
1
1
1
1
1
1
1
1
1
1
1
1
1
1
1
1
1
1
1
1
1
1
1
1
1
1
1
1
1.90403
8.7211
10.6486
10.6792
10.7185
10.7435
10.7393
10.7342
10.7395
10.7645
10.8213
10.8952
10.9594
10.9977
11.0154
11.0439
11.0914
11.1468
11.205
11.2586
11.3018
11.3321
11.3532
11.3673
11.3694
11.3773
11.3892
11.4075
11.4324
11.4601
11.491
11.5225
11.5544
11.5871
11.6217
11.6594
11.6984
11.7316
11.7561
11.7701
11.7796
11.7935
11.8183
11.8531
11.8875
11.9096
11.9176
11.9117
11.8973
11.8884
11.8913
11.902
11.9182
11.9399
11.9635
11.9884
12.0123
12.0311
12.0445
12.056
12.0643
12.0686
12.0685
12.063
12.0568
12.0599
12.0786
12.1162
12.1616
12.1957
12.2147
12.2187
12.2112
12.1984
12.1878
12.184
1
1
1
1
1
1
1
1
1
1
1
1
1
1
1
1
1
1
1
1
1
1
1
1
1
1
1
1
1
1
1
1
1
1
1
1
1
1
1
1
1
1
1
1
1
1
1
1
1
1
1
1
1
1
1
1
1
1
1
1
1
1
1
1
1
1
1
1
1
1
1
1
1
1
1
1
1
1
1
1
1
1
1
1
1
1
1
1
1
1
1
1
1.82451
8.59958
10.6367
10.6676
10.7139
10.7433
10.7328
10.7284
10.7378
10.7655
10.8221
10.893
10.9534
10.9897
11.0114
11.0476
11.0986
11.152
11.2064
11.256
11.2969
11.3276
11.3493
11.364
11.3674
11.3751
11.3866
11.4043
11.4274
11.4545
11.485
11.5176
11.5515
11.5853
11.6202
11.6571
11.6948
11.7259
11.7489
11.7627
11.7731
11.7888
11.8159
11.8532
11.8885
11.9097
11.9154
11.906
11.8885
11.8788
11.8824
11.8955
11.9155
11.9388
11.9636
11.9886
12.0125
12.0304
12.041
12.0479
12.0529
12.0569
12.0593
12.0583
12.0564
12.0621
12.0806
12.1142
12.1544
12.185
12.2042
12.2108
12.2067
12.1962
12.1863
12.1818
1
1
1
1
1
1
1
1
1
1
1
1
1
1
1
1
1
1
1
1
1
1
1
1
1
1
1
1
1
1
1
1
1
1
1
1
1
1
1
1
1
1
1
1
1
1
1
1
1
1
1
1
1
1
1
1
1
1
1
1
1
1
1
1
1
1
1
1
1
1
1
1
1
1
1
1
1
1
1
1
1
1
1
1
1
1
1
1
1
1
1
1
1.73355
8.43893
10.6213
10.6654
10.7138
10.7389
10.7262
10.7254
10.7403
10.7691
10.8226
10.889
10.9446
10.9803
11.0101
11.0541
11.1063
11.1563
11.2061
11.2512
11.2899
11.3213
11.3435
11.359
11.3646
11.3727
11.3843
11.4016
11.423
11.4495
11.4786
11.5116
11.5475
11.583
11.6186
11.6549
11.691
11.7195
11.7406
11.7542
11.766
11.784
11.8135
11.8528
11.8887
11.9092
11.9134
11.9014
11.8815
11.8697
11.8721
11.8865
11.9099
11.937
11.9644
11.9904
12.0131
12.0291
12.0371
12.0397
12.0406
12.0427
12.0468
12.051
12.0555
12.0651
12.0837
12.1133
12.1466
12.1723
12.1916
12.2012
12.2012
12.1939
12.185
12.1794
1
1
1
1
1
1
1
1
1
1
1
1
1
1
1
1
1
1
1
1
1
1
1
1
1
1
1
1
1
1
1
1
1
1
1
1
1
1
1
1
1
1
1
1
1
1
1
1
1
1
1
1
1
1
1
1
1
1
1
1
1
1
1
1
1
1
1
1
1
1
1
1
1
1
1
1
1
1
1
1
1
1
1
1
1
1
1
1
1
1
1
1
1.62815
8.23225
10.6117
10.6668
10.7174
10.7312
10.7258
10.7299
10.7479
10.7746
10.8208
10.8826
10.934
10.9732
11.0135
11.063
11.1132
11.1587
11.2037
11.2442
11.2808
11.3133
11.3361
11.3525
11.3609
11.3696
11.3817
11.3991
11.4195
11.4454
11.4727
11.505
11.5419
11.579
11.6157
11.6518
11.6866
11.7131
11.7327
11.7461
11.7592
11.7791
11.8102
11.8504
11.8864
11.9065
11.9103
11.8977
11.8765
11.8624
11.8628
11.877
11.9025
11.9334
11.9645
11.9914
12.0123
12.0263
12.0324
12.0323
12.0301
12.0294
12.0327
12.0401
12.051
12.066
12.0859
12.1126
12.1397
12.1609
12.1793
12.1908
12.1942
12.19
12.1828
12.1762
1
1
1
1
1
1
1
1
1
1
1
1
1
1
1
1
1
1
1
1
1
1
1
1
1
1
1
1
1
1
1
1
1
1
1
1
1
1
1
1
1
1
1
1
1
1
1
1
1
1
1
1
1
1
1
1
1
1
1
1
1
1
1
1
1
1
1
1
1
1
1
1
1
1
1
1
1
1
1
1
1
1
1
1
1
1
1
1
1
1
1
1
1.50633
7.97575
10.6169
10.6772
10.7204
10.7295
10.7338
10.7429
10.7581
10.7783
10.8128
10.8711
10.9227
10.9714
11.0222
11.0736
11.1186
11.1592
11.1992
11.2363
11.2712
11.3044
11.3281
11.3446
11.3557
11.3652
11.3779
11.396
11.4166
11.4419
11.4678
11.4985
11.5351
11.573
11.6106
11.6468
11.6811
11.7068
11.7258
11.7395
11.7536
11.7743
11.8056
11.845
11.8802
11.9004
11.9052
11.894
11.8732
11.8575
11.8558
11.8685
11.8949
11.9284
11.9621
11.9897
12.0091
12.0211
12.0263
12.0264
12.0232
12.0197
12.0196
12.026
12.0406
12.0617
12.0853
12.1115
12.1348
12.1534
12.1698
12.1809
12.1854
12.1835
12.1782
12.1717
1
1
1
1
1
1
1
1
1
1
1
1
1
1
1
1
1
1
1
1
1
1
1
1
1
1
1
1
1
1
1
1
1
1
1
1
1
1
1
1
1
1
1
1
1
1
1
1
1
1
1
1
1
1
1
1
1
1
1
1
1
1
1
1
1
1
1
1
1
1
1
1
1
1
1
1
1
1
1
1
1
1
1
1
1
1
1
1
1
1
1
1
1.36194
7.63894
10.6193
10.6974
10.7259
10.745
10.7518
10.757
10.7614
10.7733
10.8003
10.8582
10.917
10.9764
11.0338
11.0834
11.1219
11.1572
11.1923
11.2278
11.2626
11.2961
11.3208
11.3364
11.3491
11.3593
11.3724
11.3913
11.4131
11.4389
11.4638
11.4924
11.5275
11.5647
11.6026
11.6391
11.6737
11.7
11.72
11.7347
11.7496
11.7703
11.8001
11.8368
11.8702
11.8907
11.8977
11.8899
11.8709
11.8545
11.8506
11.8609
11.8867
11.922
11.9571
11.9844
12.0025
12.0133
12.0193
12.0217
12.0199
12.0144
12.0091
12.0111
12.025
12.0498
12.0799
12.1094
12.1328
12.1505
12.1642
12.1723
12.1753
12.174
12.1704
12.1653
1
1
1
1
1
1
1
1
1
1
1
1
1
1
1
1
1
1
1
1
1
1
1
1
1
1
1
1
1
1
1
1
1
1
1
1
1
1
1
1
1
1
1
1
1
1
1
1
1
1
1
1
1
1
1
1
1
1
1
1
1
1
1
1
1
1
1
1
1
1
1
1
1
1
1
1
1
1
1
1
1
1
1
1
1
1
1
1
1
1
1
1
1.19652
7.24377
10.6312
10.7287
10.749
10.7635
10.7633
10.7591
10.7545
10.7614
10.7895
10.851
10.9191
10.9861
11.0446
11.0896
11.1224
11.1528
11.1836
11.2192
11.2559
11.2892
11.3148
11.3289
11.3417
11.3522
11.3651
11.3845
11.4081
11.435
11.4601
11.487
11.5199
11.5552
11.5921
11.6284
11.6639
11.6921
11.7143
11.7306
11.7466
11.7668
11.7941
11.8269
11.8577
11.8785
11.888
11.8844
11.8686
11.8521
11.8463
11.8539
11.8776
11.9141
11.9497
11.976
11.993
12.0037
12.0111
12.017
12.0182
12.0119
12.0016
11.9971
12.0063
12.0317
12.0688
12.1053
12.1328
12.1515
12.1622
12.1654
12.1643
12.1619
12.1596
12.1566
1
1
1
1
1
1
1
1
1
1
1
1
1
1
1
1
1
1
1
1
1
1
1
1
1
1
1
1
1
1
1
1
1
1
1
1
1
1
1
1
1
1
1
1
1
1
1
1
1
1
1
1
1
1
1
1
1
1
1
1
1
1
1
1
1
1
1
1
1
1
1
1
1
1
1
1
1
1
1
1
1
1
1
1
1
1
1
1
1
1
1
1
1.03038
6.85853
10.6706
10.7263
10.7501
10.7645
10.7618
10.7529
10.7443
10.75
10.7856
10.8526
10.927
10.9959
11.0506
11.0901
11.119
11.1468
11.1746
11.2105
11.2497
11.283
11.3101
11.3229
11.334
11.3443
11.357
11.3757
11.4013
11.4298
11.4561
11.4823
11.5132
11.5459
11.5805
11.6159
11.6517
11.6821
11.7073
11.7259
11.7431
11.763
11.7876
11.8166
11.8448
11.8659
11.8773
11.8775
11.865
11.8488
11.8414
11.8466
11.868
11.9042
11.9399
11.9657
11.9817
11.9925
12.0019
12.0111
12.0156
12.0098
11.9962
11.9849
11.9875
12.0107
12.0527
12.0975
12.1326
12.154
12.1622
12.1596
12.1531
12.1483
12.1465
12.1462
1
1
1
1
1
1
1
1
1
1
1
1
1
1
1
1
1
1
1
1
1
1
1
1
1
1
1
1
1
1
1
1
1
1
1
1
1
1
1
1
1
1
1
1
1
1
1
1
1
1
1
1
1
1
1
1
1
1
1
1
1
1
1
1
1
1
1
1
1
1
1
1
1
1
1
1
1
1
1
1
1
1
1
1
1
1
1
1
1
1
1
1
1.00022
6.451
10.6556
10.7153
10.7455
10.7594
10.7528
10.7424
10.7371
10.7466
10.7899
10.86
10.9349
11.0007
11.0493
11.0857
11.1116
11.1385
11.1661
11.2022
11.2428
11.2769
11.3058
11.3181
11.3265
11.3362
11.3487
11.366
11.393
11.423
11.4509
11.4779
11.5075
11.5378
11.5697
11.6034
11.639
11.6704
11.6979
11.7189
11.7376
11.7575
11.7805
11.8068
11.8332
11.8545
11.8669
11.8695
11.8592
11.8433
11.835
11.8388
11.858
11.8928
11.9283
11.9542
11.9697
11.9808
11.9915
12.0026
12.0097
12.0056
11.9909
11.9748
11.9719
11.9915
12.0343
12.0858
12.1295
12.1544
12.1615
12.1538
12.142
12.1344
12.1324
12.1346
1
1
1
1
1
1
1
1
1
1
1
1
1
1
1
1
1
1
1
1
1
1
1
1
1
1
1
1
1
1
1
1
1
1
1
1
1
1
1
1
1
1
1
1
1
1
1
1
1
1
1
1
1
1
1
1
1
1
1
1
1
1
1
1
1
1
1
1
1
1
1
1
1
1
1
1
1
1
1
1
1
1
1
1
1
1
1
1
1
1
1
1
1
6.04198
10.6275
10.7082
10.7361
10.7492
10.7425
10.7358
10.7376
10.7516
10.7983
10.8669
10.9381
10.9988
11.0426
11.0773
11.1022
11.1281
11.1572
11.1944
11.2348
11.2696
11.3003
11.3133
11.3198
11.3286
11.3408
11.3568
11.3837
11.414
11.4437
11.4723
11.5018
11.5307
11.5604
11.5926
11.6273
11.6586
11.6866
11.709
11.7289
11.7494
11.772
11.7976
11.8236
11.8451
11.8579
11.8609
11.8511
11.8353
11.8268
11.8303
11.848
11.8806
11.9156
11.9422
11.958
11.9687
11.9796
11.9913
11.9993
11.9972
11.9837
11.9666
11.9611
11.9773
12.0178
12.0721
12.121
12.1492
12.1568
12.1467
12.1313
12.1214
12.1189
12.1227
1
1
1
1
1
1
1
1
1
1
1
1
1
1
1
1
1
1
1
1
1
1
1
1
1
1
1
1
1
1
1
1
1
1
1
1
1
1
1
1
1
1
1
1
1
1
1
1
1
1
1
1
1
1
1
1
1
1
1
1
1
1
1
1
1
1
1
1
1
1
1
1
1
1
1
1
1
1
1
1
1
1
1
1
1
1
1
1
1
1
1
1
1
5.62888
10.5819
10.6976
10.7259
10.7409
10.738
10.7358
10.7424
10.7572
10.8026
10.8669
10.9349
10.9923
11.0353
11.0667
11.0922
11.1177
11.1485
11.1855
11.2258
11.2612
11.293
11.3074
11.3133
11.3216
11.3332
11.3486
11.3737
11.403
11.4335
11.464
11.4945
11.5231
11.5521
11.5835
11.6175
11.6477
11.6747
11.6968
11.7171
11.7381
11.7616
11.7885
11.8157
11.8378
11.8501
11.852
11.8413
11.8251
11.817
11.8211
11.8381
11.8684
11.9025
11.9296
11.9463
11.9569
11.9669
11.9771
11.9841
11.9838
11.9736
11.9594
11.9549
11.9694
12.0058
12.058
12.1073
12.137
12.1462
12.1368
12.1209
12.1101
12.107
12.1112
1
1
1
1
1
1
1
1
1
1
1
1
1
1
1
1
1
1
1
1
1
1
1
1
1
1
1
1
1
1
1
1
1
1
1
1
1
1
1
1
1
1
1
1
1
1
1
1
1
1
1
1
1
1
1
1
1
1
1
1
1
1
1
1
1
1
1
1
1
1
1
1
1
1
1
1
1
1
1
1
1
1
1
1
1
1
1
1
1
1
1
1
1
5.20801
10.5133
10.6836
10.7174
10.7366
10.7388
10.7394
10.7447
10.7572
10.7989
10.8596
10.9268
10.9845
11.0286
11.0562
11.0819
11.1084
11.1401
11.1767
11.2166
11.2526
11.2845
11.3005
11.307
11.3155
11.3262
11.3412
11.3643
11.3908
11.4208
11.4521
11.4834
11.5131
11.5431
11.5749
11.6087
11.6382
11.6636
11.6843
11.7037
11.7245
11.7492
11.7784
11.808
11.8314
11.8431
11.843
11.8303
11.8136
11.8061
11.8115
11.8285
11.8566
11.8889
11.9163
11.9341
11.9452
11.9537
11.9605
11.9646
11.9652
11.9601
11.9522
11.9521
11.9669
11.9986
12.0444
12.0894
12.1182
12.1291
12.1232
12.11
12.1006
12.0971
12.1006
1
1
1
1
1
1
1
1
1
1
1
1
1
1
1
1
1
1
1
1
1
1
1
1
1
1
1
1
1
1
1
1
1
1
1
1
1
1
1
1
1
1
1
1
1
1
1
1
1
1
1
1
1
1
1
1
1
1
1
1
1
1
1
1
1
1
1
1
1
1
1
1
1
1
1
1
1
1
1
1
1
1
1
1
1
1
1
1
1
1
1
1
1
4.7808
10.4183
10.667
10.7082
10.7333
10.7402
10.7407
10.742
10.7512
10.7888
10.8475
10.9154
10.9766
11.0204
11.0479
11.0722
11.1
11.131
11.1675
11.2077
11.2439
11.2754
11.2923
11.3006
11.3099
11.3195
11.3349
11.3559
11.3788
11.4069
11.4376
11.4687
11.4999
11.5319
11.5647
11.5991
11.6287
11.6535
11.673
11.6907
11.7102
11.735
11.7662
11.7987
11.8238
11.8357
11.8338
11.8189
11.8014
11.7947
11.8013
11.8187
11.8449
11.8749
11.9022
11.9212
11.933
11.9402
11.9431
11.9432
11.9433
11.9429
11.9436
11.9505
11.9675
11.9955
12.0323
12.0687
12.0943
12.1062
12.1054
12.0981
12.0919
12.0886
12.0908
1
1
1
1
1
1
1
1
1
1
1
1
1
1
1
1
1
1
1
1
1
1
1
1
1
1
1
1
1
1
1
1
1
1
1
1
1
1
1
1
1
1
1
1
1
1
1
1
1
1
1
1
1
1
1
1
1
1
1
1
1
1
1
1
1
1
1
1
1
1
1
1
1
1
1
1
1
1
1
1
1
1
1
1
1
1
1
1
1
1
1
1
1
4.35175
10.2981
10.6523
10.697
10.7267
10.7358
10.7355
10.7351
10.7434
10.7774
10.8343
10.9028
10.967
11.011
11.0408
11.0647
11.0912
11.1214
11.1582
11.1986
11.2349
11.2661
11.2831
11.2941
11.3045
11.3133
11.329
11.3484
11.3678
11.3934
11.423
11.4527
11.4845
11.5177
11.5511
11.5865
11.6174
11.6435
11.6629
11.6792
11.6968
11.72
11.7515
11.786
11.8134
11.8264
11.824
11.8078
11.7895
11.7829
11.7901
11.8077
11.8323
11.8601
11.8871
11.9074
11.9203
11.9267
11.9266
11.9221
11.92
11.9227
11.9319
11.9474
11.9681
11.9936
12.0217
12.0476
12.0676
12.0799
12.0847
12.0844
12.0829
12.0805
12.0814
1
1
1
1
1
1
1
1
1
1
1
1
1
1
1
1
1
1
1
1
1
1
1
1
1
1
1
1
1
1
1
1
1
1
1
1
1
1
1
1
1
1
1
1
1
1
1
1
1
1
1
1
1
1
1
1
1
1
1
1
1
1
1
1
1
1
1
1
1
1
1
1
1
1
1
1
1
1
1
1
1
1
1
1
1
1
1
1
1
1
1
1
1
3.9301
10.1441
10.6339
10.6807
10.7143
10.7244
10.7273
10.7277
10.7366
10.7681
10.8221
10.8911
10.9546
11.0019
11.0333
11.058
11.0819
11.1115
11.1483
11.1893
11.2256
11.2564
11.2735
11.2869
11.2979
11.3071
11.3222
11.3399
11.3574
11.3813
11.4106
11.4388
11.4699
11.502
11.5344
11.57
11.6028
11.6321
11.6534
11.6695
11.6851
11.7053
11.7346
11.7691
11.7986
11.8139
11.8131
11.7971
11.7782
11.7706
11.7772
11.7942
11.8176
11.844
11.8709
11.8927
11.9072
11.9138
11.9114
11.9031
11.8977
11.9012
11.9166
11.9404
11.966
11.9901
12.0108
12.0275
12.0418
12.0533
12.0626
12.0686
12.0722
12.0713
12.0713
1
1
1
1
1
1
1
1
1
1
1
1
1
1
1
1
1
1
1
1
1
1
1
1
1
1
1
1
1
1
1
1
1
1
1
1
1
1
1
1
1
1
1
1
1
1
1
1
1
1
1
1
1
1
1
1
1
1
1
1
1
1
1
1
1
1
1
1
1
1
1
1
1
1
1
1
1
1
1
1
1
1
1
1
1
1
1
1
1
1
1
1
1
3.52372
9.94868
10.6132
10.6651
10.703
10.7125
10.7187
10.7213
10.7314
10.7598
10.8115
10.8793
10.9406
10.9896
11.0234
11.0488
11.072
11.1021
11.1389
11.1796
11.2155
11.2453
11.2628
11.277
11.2886
11.2998
11.313
11.3289
11.3462
11.3706
11.4004
11.4286
11.4585
11.4881
11.5177
11.5514
11.5845
11.6177
11.6428
11.6602
11.6745
11.6911
11.7161
11.7484
11.7789
11.7976
11.8006
11.787
11.7678
11.7582
11.7624
11.7772
11.7997
11.826
11.8537
11.8773
11.894
11.9016
11.8979
11.8868
11.8777
11.88
11.8984
11.9276
11.9586
11.983
11.9986
12.0094
12.0186
12.029
12.0408
12.0513
12.0587
12.0593
12.0592
1
1
1
1
1
1
1
1
1
1
1
1
1
1
1
1
1
1
1
1
1
1
1
1
1
1
1
1
1
1
1
1
1
1
1
1
1
1
1
1
1
1
1
1
1
1
1
1
1
1
1
1
1
1
1
1
1
1
1
1
1
1
1
1
1
1
1
1
1
1
1
1
1
1
1
1
1
1
1
1
1
1
1
1
1
1
1
1
1
1
1
1
1
3.12295
9.70987
10.5953
10.6533
10.694
10.7046
10.7106
10.7129
10.7223
10.7503
10.8024
10.8652
10.9265
10.9747
11.0101
11.0364
11.0616
11.0924
11.129
11.1689
11.2046
11.2335
11.2509
11.2652
11.2777
11.2897
11.3015
11.3149
11.3327
11.3591
11.3907
11.4213
11.4506
11.4775
11.5035
11.5336
11.5645
11.5998
11.6292
11.6494
11.6638
11.6775
11.6977
11.7261
11.756
11.778
11.7859
11.7767
11.7581
11.7456
11.7459
11.7568
11.7781
11.8056
11.8352
11.8612
11.8805
11.8892
11.8848
11.8723
11.8604
11.8605
11.8785
11.9101
11.9447
11.9705
11.9847
11.9929
11.9992
12.0082
12.0206
12.0329
12.0422
12.0438
12.0439
1
1
1
1
1
1
1
1
1
1
1
1
1
1
1
1
1
1
1
1
1
1
1
1
1
1
1
1
1
1
1
1
1
1
1
1
1
1
1
1
1
1
1
1
1
1
1
1
1
1
1
1
1
1
1
1
1
1
1
1
1
1
1
1
1
1
1
1
1
1
1
1
1
1
1
1
1
1
1
1
1
1
1
1
1
1
1
1
1
1
1
1
1
2.70609
9.41353
10.6075
10.6413
10.6854
10.6958
10.7007
10.7036
10.7144
10.7432
10.7907
10.8527
10.9121
10.9599
10.9957
11.0239
11.051
11.0825
11.1182
11.1567
11.1919
11.221
11.2388
11.253
11.2656
11.2755
11.2863
11.2972
11.3159
11.3454
11.379
11.413
11.4434
11.4686
11.4924
11.5186
11.5456
11.5802
11.6121
11.6356
11.6519
11.6641
11.68
11.7043
11.7319
11.7557
11.7685
11.7653
11.7483
11.7332
11.7281
11.7343
11.7537
11.783
11.8152
11.8443
11.8658
11.8754
11.8716
11.8587
11.8452
11.8432
11.8588
11.8894
11.9248
11.9521
11.9679
11.9769
11.9827
11.9908
12.0023
12.0141
12.0232
12.0245
12.0247
1
1
1
1
1
1
1
1
1
1
1
1
1
1
1
1
1
1
1
1
1
1
1
1
1
1
1
1
1
1
1
1
1
1
1
1
1
1
1
1
1
1
1
1
1
1
1
1
1
1
1
1
1
1
1
1
1
1
1
1
1
1
1
1
1
1
1
1
1
1
1
1
1
1
1
1
1
1
1
1
1
1
1
1
1
1
1
1
1
1
1
1
1
2.29647
9.0719
10.622
10.6287
10.6736
10.683
10.688
10.6914
10.705
10.7327
10.7775
10.8392
10.8997
10.9478
10.984
11.0135
11.0418
11.0729
11.107
11.1441
11.179
11.2091
11.2284
11.242
11.2526
11.2587
11.2662
11.2762
11.2969
11.3282
11.3636
11.4005
11.4337
11.4592
11.4829
11.5061
11.5292
11.5603
11.5919
11.6177
11.6368
11.6491
11.6631
11.6843
11.7092
11.7328
11.7496
11.7525
11.7377
11.7208
11.7107
11.7119
11.7283
11.7586
11.7932
11.8253
11.8486
11.8588
11.8562
11.8441
11.8306
11.8276
11.8401
11.8675
11.9013
11.9291
11.9479
11.9599
11.9676
11.9755
11.9854
11.995
12.0022
12.0023
12.0023
1
1
1
1
1
1
1
1
1
1
1
1
1
1
1
1
1
1
1
1
1
1
1
1
1
1
1
1
1
1
1
1
1
1
1
1
1
1
1
1
1
1
1
1
1
1
1
1
1
1
1
1
1
1
1
1
1
1
1
1
1
1
1
1
1
1
1
1
1
1
1
1
1
1
1
1
1
1
1
1
1
1
1
1
1
1
1
1
1
1
1
1
1
1.91669
8.65993
10.6321
10.6204
10.6594
10.6687
10.6745
10.6806
10.6944
10.7177
10.7613
10.8257
10.8883
10.9379
10.9752
11.0057
11.0342
11.0639
11.0957
11.1312
11.1663
11.1978
11.2187
11.2319
11.2393
11.2421
11.2467
11.2563
11.278
11.3095
11.3454
11.3834
11.419
11.4471
11.4728
11.4947
11.5148
11.5417
11.571
11.5969
11.618
11.6326
11.6472
11.6666
11.6894
11.7118
11.7303
11.7366
11.725
11.7074
11.6938
11.6907
11.7038
11.7341
11.7697
11.8033
11.8274
11.8381
11.8371
11.8271
11.8157
11.8132
11.8235
11.8468
11.8767
11.9036
11.9249
11.9406
11.9513
11.96
11.9684
11.9753
11.9799
11.9782
11.9778
1
1
1
1
1
1
1
1
1
1
1
1
1
1
1
1
1
1
1
1
1
1
1
1
1
1
1
1
1
1
1
1
1
1
1
1
1
1
1
1
1
1
1
1
1
1
1
1
1
1
1
1
1
1
1
1
1
1
1
1
1
1
1
1
1
1
1
1
1
1
1
1
1
1
1
1
1
1
1
1
1
1
1
1
1
1
1
1
1
1
1
1
1
1.59504
8.16237
10.6329
10.6147
10.6455
10.6564
10.6639
10.6699
10.6792
10.7019
10.7465
10.8129
10.8773
10.9283
10.9668
10.9976
11.0249
11.0528
11.0827
11.118
11.1544
11.1879
11.2101
11.2235
11.2274
11.2291
11.2315
11.2403
11.2615
11.2915
11.3261
11.3623
11.3993
11.4308
11.4595
11.4818
11.5012
11.5245
11.5507
11.5747
11.5964
11.6139
11.6306
11.6502
11.6719
11.693
11.7111
11.7187
11.7101
11.6929
11.6777
11.6717
11.6818
11.7108
11.7456
11.7785
11.802
11.8129
11.8135
11.8067
11.7994
11.7995
11.8091
11.8282
11.8527
11.877
11.8992
11.9178
11.9316
11.9418
11.9498
11.9547
11.9571
11.9538
11.953
1
1
1
1
1
1
1
1
1
1
1
1
1
1
1
1
1
1
1
1
1
1
1
1
1
1
1
1
1
1
1
1
1
1
1
1
1
1
1
1
1
1
1
1
1
1
1
1
1
1
1
1
1
1
1
1
1
1
1
1
1
1
1
1
1
1
1
1
1
1
1
1
1
1
1
1
1
1
1
1
1
1
1
1
1
1
1
1
1
1
1
1
1
1.32137
7.59697
10.6076
10.6113
10.6408
10.6563
10.6668
10.6713
10.6754
10.6923
10.732
10.7945
10.8582
10.9112
10.9524
10.9847
11.0119
11.0385
11.0677
11.1037
11.1423
11.1782
11.2021
11.2161
11.2174
11.2171
11.2187
11.2276
11.2477
11.2752
11.308
11.3413
11.3776
11.4106
11.4422
11.4666
11.4872
11.5083
11.5312
11.5516
11.5726
11.5925
11.612
11.6336
11.6559
11.6764
11.693
11.7
11.6929
11.6763
11.6607
11.654
11.6623
11.6888
11.7218
11.7518
11.773
11.7832
11.7849
11.7821
11.7809
11.7853
11.7964
11.812
11.8306
11.8511
11.8722
11.8918
11.9074
11.9193
11.9279
11.9326
11.9339
11.9301
11.9292
1
1
1
1
1
1
1
1
1
1
1
1
1
1
1
1
1
1
1
1
1
1
1
1
1
1
1
1
1
1
1
1
1
1
1
1
1
1
1
1
1
1
1
1
1
1
1
1
1
1
1
1
1
1
1
1
1
1
1
1
1
1
1
1
1
1
1
1
1
1
1
1
1
1
1
1
1
1
1
1
1
1
1
1
1
1
1
1
1
1
1
1
1
1.06326
6.93637
10.5945
10.6164
10.634
10.6462
10.6543
10.6563
10.66
10.679
10.7208
10.7841
10.8481
10.9
10.9398
10.9706
10.9965
11.0219
11.0517
11.089
11.1305
11.168
11.1936
11.2077
11.2088
11.2068
11.2075
11.2161
11.235
11.2601
11.2909
11.3221
11.3558
11.3883
11.4213
11.4477
11.4707
11.492
11.5129
11.5303
11.5492
11.569
11.5905
11.6146
11.6388
11.6601
11.6753
11.681
11.6736
11.6571
11.6422
11.6366
11.6444
11.6685
11.6992
11.7249
11.7419
11.7502
11.7521
11.7539
11.7599
11.7704
11.784
11.7973
11.811
11.8268
11.8447
11.8625
11.8779
11.8911
11.9015
11.9078
11.9103
11.9074
11.9072
1
1
1
1
1
1
1
1
1
1
1
1
1
1
1
1
1
1
1
1
1
1
1
1
1
1
1
1
1
1
1
1
1
1
1
1
1
1
1
1
1
1
1
1
1
1
1
1
1
1
1
1
1
1
1
1
1
1
1
1
1
1
1
1
1
1
1
1
1
1
1
1
1
1
1
1
1
1
1
1
1
1
1
1
1
1
1
1
1
1
1
1
1
1.00106
6.18025
10.4873
10.5827
10.6153
10.6362
10.6453
10.6495
10.654
10.6712
10.7102
10.7704
10.8336
10.8856
10.9244
10.9538
10.9793
11.0046
11.0351
11.0729
11.1152
11.153
11.1815
11.1968
11.1998
11.1972
11.1969
11.2042
11.2216
11.2449
11.2742
11.3052
11.3362
11.3673
11.3995
11.4268
11.4522
11.4752
11.496
11.5114
11.527
11.544
11.5652
11.591
11.6182
11.6422
11.6575
11.6621
11.6532
11.6357
11.6213
11.6177
11.6262
11.6487
11.677
11.6982
11.7103
11.7152
11.7173
11.7234
11.7361
11.7538
11.7704
11.7825
11.793
11.804
11.8169
11.8306
11.8439
11.8575
11.8703
11.88
11.8857
11.8856
11.8872
1
1
1
1
1
1
1
1
1
1
1
1
1
1
1
1
1
1
1
1
1
1
1
1
1
1
1
1
1
1
1
1
1
1
1
1
1
1
1
1
1
1
1
1
1
1
1
1
1
1
1
1
1
1
1
1
1
1
1
1
1
1
1
1
1
1
1
1
1
1
1
1
1
1
1
1
1
1
1
1
1
1
1
1
1
1
1
1
1
1
1
1
1
1
5.34948
10.374
10.5626
10.6056
10.6248
10.6379
10.6445
10.6473
10.6619
10.6982
10.7554
10.8195
10.8721
10.9107
10.9391
10.9637
10.9883
11.0182
11.0551
11.0963
11.1337
11.1639
11.1817
11.1879
11.1873
11.1865
11.1919
11.2063
11.228
11.2556
11.2869
11.3162
11.3459
11.3757
11.403
11.4311
11.4573
11.4795
11.4949
11.5072
11.52
11.5381
11.5635
11.5932
11.6209
11.638
11.6424
11.6316
11.612
11.5974
11.5956
11.606
11.6282
11.6544
11.6721
11.6795
11.6807
11.683
11.692
11.711
11.7346
11.7532
11.7659
11.7747
11.7815
11.789
11.7974
11.8071
11.82
11.8349
11.8488
11.8592
11.8635
11.8679
1
1
1
1
1
1
1
1
1
1
1
1
1
1
1
1
1
1
1
1
1
1
1
1
1
1
1
1
1
1
1
1
1
1
1
1
1
1
1
1
1
1
1
1
1
1
1
1
1
1
1
1
1
1
1
1
1
1
1
1
1
1
1
1
1
1
1
1
1
1
1
1
1
1
1
1
1
1
1
1
1
1
1
1
1
1
1
1
1
1
1
1
1
1
4.51658
10.2053
10.5498
10.6017
10.6244
10.6353
10.6403
10.6403
10.65
10.6826
10.7379
10.8045
10.8604
10.8997
10.9271
10.9502
10.9736
11.0023
11.0378
11.0775
11.1137
11.1428
11.1612
11.1704
11.174
11.1747
11.1787
11.19
11.2105
11.2368
11.2685
11.2969
11.3251
11.3515
11.378
11.4079
11.438
11.463
11.4806
11.4905
11.4988
11.5112
11.5332
11.563
11.5942
11.6147
11.6207
11.6092
11.5873
11.5716
11.5702
11.5828
11.6061
11.6306
11.6459
11.6494
11.6478
11.6499
11.6612
11.6854
11.7121
11.7316
11.7453
11.7535
11.7577
11.7609
11.764
11.7694
11.7804
11.7965
11.8145
11.8303
11.8399
11.8478
1
1
1
1
1
1
1
1
1
1
1
1
1
1
1
1
1
1
1
1
1
1
1
1
1
1
1
1
1
1
1
1
1
1
1
1
1
1
1
1
1
1
1
1
1
1
1
1
1
1
1
1
1
1
1
1
1
1
1
1
1
1
1
1
1
1
1
1
1
1
1
1
1
1
1
1
1
1
1
1
1
1
1
1
1
1
1
1
1
1
1
1
1
1
3.73426
9.94945
10.5627
10.5954
10.6213
10.6329
10.6356
10.6329
10.6373
10.6655
10.7193
10.7869
10.8462
10.887
10.9145
10.9366
10.9593
10.9882
11.0241
11.0622
11.0953
11.1204
11.1372
11.1485
11.1559
11.16
11.1645
11.1733
11.192
11.2166
11.2476
11.2757
11.3032
11.3266
11.3521
11.3829
11.4161
11.4452
11.4664
11.4761
11.4804
11.4863
11.5026
11.5296
11.5628
11.5879
11.5972
11.5866
11.5629
11.5448
11.542
11.5556
11.5803
11.6041
11.6177
11.6191
11.6167
11.6197
11.6333
11.6597
11.6862
11.7051
11.7198
11.7281
11.7314
11.7321
11.7311
11.7324
11.7409
11.7569
11.7778
11.7983
11.8128
11.8245
1
1
1
1
1
1
1
1
1
1
1
1
1
1
1
1
1
1
1
1
1
1
1
1
1
1
1
1
1
1
1
1
1
1
1
1
1
1
1
1
1
1
1
1
1
1
1
1
1
1
1
1
1
1
1
1
1
1
1
1
1
1
1
1
1
1
1
1
1
1
1
1
1
1
1
1
1
1
1
1
1
1
1
1
1
1
1
1
1
1
1
1
1
1
3.02304
9.57998
10.5613
10.5903
10.6217
10.6301
10.6311
10.6273
10.626
10.6482
10.6982
10.7651
10.8284
10.8742
10.9045
10.9268
10.9478
10.9742
11.0083
11.0454
11.0775
11.1016
11.117
11.1276
11.1354
11.1411
11.1466
11.1544
11.1716
11.195
11.2249
11.2532
11.2804
11.3024
11.3261
11.3566
11.3916
11.425
11.4508
11.4624
11.4643
11.4645
11.4738
11.4948
11.5278
11.5573
11.5709
11.5631
11.5389
11.5177
11.5124
11.5253
11.5504
11.574
11.587
11.5886
11.5874
11.5925
11.6083
11.6338
11.6569
11.6737
11.6883
11.6971
11.701
11.7016
11.6984
11.6967
11.7027
11.7177
11.7399
11.7633
11.7815
11.7964
1
1
1
1
1
1
1
1
1
1
1
1
1
1
1
1
1
1
1
1
1
1
1
1
1
1
1
1
1
1
1
1
1
1
1
1
1
1
1
1
1
1
1
1
1
1
1
1
1
1
1
1
1
1
1
1
1
1
1
1
1
1
1
1
1
1
1
1
1
1
1
1
1
1
1
1
1
1
1
1
1
1
1
1
1
1
1
1
1
1
1
1
1
1
2.36593
9.12122
10.5818
10.5713
10.6121
10.6196
10.6197
10.6162
10.6144
10.6325
10.6788
10.7446
10.8098
10.8566
10.8861
10.907
10.9283
10.9566
10.9929
11.0311
11.0637
11.0864
11.0998
11.1078
11.1144
11.1202
11.1266
11.1346
11.1506
11.1732
11.2019
11.2302
11.2566
11.2777
11.3001
11.3296
11.3651
11.4019
11.432
11.4471
11.4488
11.4452
11.4468
11.4607
11.4911
11.5236
11.542
11.5387
11.5157
11.4919
11.4833
11.4931
11.5162
11.5389
11.5523
11.5564
11.5588
11.5676
11.5853
11.6076
11.6252
11.6387
11.6517
11.6607
11.6663
11.6685
11.6653
11.6625
11.6666
11.6798
11.7013
11.7253
11.7449
11.7617
1
1
1
1
1
1
1
1
1
1
1
1
1
1
1
1
1
1
1
1
1
1
1
1
1
1
1
1
1
1
1
1
1
1
1
1
1
1
1
1
1
1
1
1
1
1
1
1
1
1
1
1
1
1
1
1
1
1
1
1
1
1
1
1
1
1
1
1
1
1
1
1
1
1
1
1
1
1
1
1
1
1
1
1
1
1
1
1
1
1
1
1
1
1
1.79594
8.51847
10.6097
10.5764
10.6084
10.6176
10.6181
10.614
10.6112
10.6238
10.6631
10.7225
10.7847
10.8324
10.8647
10.8889
10.9126
10.9407
10.9751
11.0126
11.0464
11.0714
11.0862
11.0934
11.0979
11.1015
11.1067
11.1144
11.1285
11.1507
11.1782
11.2061
11.2316
11.2526
11.2746
11.3027
11.3374
11.3757
11.4091
11.4282
11.4318
11.4257
11.4211
11.4286
11.4549
11.4879
11.5107
11.5128
11.493
11.4682
11.4552
11.4596
11.4779
11.4985
11.5135
11.522
11.5303
11.544
11.5633
11.5806
11.5914
11.6004
11.6104
11.6192
11.6265
11.6314
11.6304
11.6287
11.6322
11.6436
11.6628
11.6849
11.7034
11.7203
1
1
1
1
1
1
1
1
1
1
1
1
1
1
1
1
1
1
1
1
1
1
1
1
1
1
1
1
1
1
1
1
1
1
1
1
1
1
1
1
1
1
1
1
1
1
1
1
1
1
1
1
1
1
1
1
1
1
1
1
1
1
1
1
1
1
1
1
1
1
1
1
1
1
1
1
1
1
1
1
1
1
1
1
1
1
1
1
1
1
1
1
1
1
1.36854
7.78469
10.5696
10.5451
10.5793
10.5952
10.6045
10.6108
10.6138
10.6215
10.6548
10.708
10.7648
10.8092
10.8409
10.8666
10.8908
10.9181
10.9522
10.9908
11.0276
11.0573
11.0756
11.0839
11.0862
11.0861
11.0879
11.0938
11.106
11.1274
11.154
11.1816
11.2065
11.2274
11.2494
11.2763
11.3096
11.3476
11.383
11.4053
11.4112
11.4041
11.396
11.3978
11.4194
11.4511
11.4774
11.4851
11.4706
11.4467
11.4289
11.4261
11.4369
11.4531
11.4709
11.4853
11.5018
11.5205
11.5398
11.5517
11.556
11.5599
11.5659
11.5737
11.5823
11.5902
11.593
11.5944
11.5987
11.6084
11.624
11.6421
11.657
11.6719
1
1
1
1
1
1
1
1
1
1
1
1
1
1
1
1
1
1
1
1
1
1
1
1
1
1
1
1
1
1
1
1
1
1
1
1
1
1
1
1
1
1
1
1
1
1
1
1
1
1
1
1
1
1
1
1
1
1
1
1
1
1
1
1
1
1
1
1
1
1
1
1
1
1
1
1
1
1
1
1
1
1
1
1
1
1
1
1
1
1
1
1
1
1
1.0327
6.91939
10.5172
10.5257
10.563
10.5863
10.6003
10.6067
10.6083
10.6128
10.6421
10.6907
10.7445
10.7883
10.821
10.8478
10.8707
10.8952
10.9266
10.9651
11.0049
11.0401
11.064
11.0758
11.0777
11.0745
11.0719
11.0741
11.0832
11.1027
11.1287
11.1565
11.1814
11.2025
11.2245
11.2503
11.2819
11.3191
11.3547
11.3783
11.3866
11.3796
11.3701
11.3676
11.384
11.4135
11.442
11.4552
11.4484
11.4263
11.4045
11.3927
11.3934
11.4039
11.4248
11.4466
11.4721
11.4958
11.5141
11.5199
11.5191
11.5178
11.5194
11.5251
11.534
11.5443
11.5517
11.5574
11.5639
11.5728
11.5845
11.5972
11.6072
11.6183
1
1
1
1
1
1
1
1
1
1
1
1
1
1
1
1
1
1
1
1
1
1
1
1
1
1
1
1
1
1
1
1
1
1
1
1
1
1
1
1
1
1
1
1
1
1
1
1
1
1
1
1
1
1
1
1
1
1
1
1
1
1
1
1
1
1
1
1
1
1
1
1
1
1
1
1
1
1
1
1
1
1
1
1
1
1
1
1
1
1
1
1
1
1
1.00027
5.92836
10.3974
10.4765
10.526
10.5602
10.5835
10.5978
10.6005
10.6069
10.6325
10.6775
10.7305
10.7743
10.8067
10.832
10.852
10.8721
10.8987
10.9349
10.9768
11.0177
11.0488
11.066
11.0695
11.0646
11.0574
11.0547
11.0597
11.0766
11.102
11.1306
11.1566
11.1784
11.2004
11.2247
11.2544
11.2894