/*--------------------------------*- C++ -*----------------------------------*\
  =========                 |
  \\      /  F ield         | OpenFOAM: The Open Source CFD Toolbox
   \\    /   O peration     | Website:  https://openfoam.org
    \\  /    A nd           | Version:  7
     \\/     M anipulation  |
\*---------------------------------------------------------------------------*/
FoamFile
{
    version     2.0;
    format      ascii;
    class       volVectorField;
    location    "2.8";
    object      U;
}
// * * * * * * * * * * * * * * * * * * * * * * * * * * * * * * * * * * * * * //

dimensions      [0 1 -1 0 0 0 0];

internalField   nonuniform List<vector> 
344
(
(1.94377 0.0349772 -4.89956e-16)
(1.93865 0.0345564 -4.52096e-16)
(1.93363 0.0341422 -4.9585e-16)
(1.92871 0.0337343 -4.59286e-16)
(1.92388 0.0333328 -4.49657e-16)
(1.91915 0.0329374 -4.18281e-16)
(1.9145 0.0325481 -4.43862e-16)
(1.90995 0.0321648 -4.14327e-16)
(1.90549 0.0317872 -4.38202e-16)
(1.90111 0.0314153 -4.10088e-16)
(1.89681 0.0310489 -4.25378e-16)
(1.89259 0.030688 -4.01722e-16)
(1.88846 0.0303324 -3.72571e-16)
(1.8844 0.0299819 -3.61993e-16)
(1.88042 0.0296365 -3.3069e-16)
(1.87652 0.029296 -3.59726e-16)
(1.87269 0.0289603 -3.26172e-16)
(1.86893 0.0286293 -3.55587e-16)
(1.86524 0.0283028 -3.28206e-16)
(1.86162 0.0279808 -3.39605e-16)
(1.85807 0.0276631 -3.02892e-16)
(1.85459 0.0273497 -2.95172e-16)
(1.85117 0.0270403 -2.58198e-16)
(1.84781 0.0267351 -3.10488e-16)
(1.84452 0.0264337 -2.59467e-16)
(1.84129 0.0261362 -2.83652e-16)
(1.83811 0.0258426 -2.35544e-16)
(1.835 0.0255526 -2.78059e-16)
(1.83194 0.0252663 -2.34131e-16)
(1.82894 0.0249837 -2.18624e-16)
(1.826 0.0247046 -1.84918e-16)
(1.8231 0.0244291 -2.10604e-16)
(1.82027 0.0241572 -1.72441e-16)
(1.81748 0.0238888 -1.94049e-16)
(1.81474 0.023624 -1.59689e-16)
(1.81206 0.0233627 -1.6663e-16)
(1.80942 0.0231051 -1.38505e-16)
(1.80683 0.0228511 -1.03989e-16)
(1.80428 0.0226008 -9.61464e-17)
(1.80178 0.0223542 -6.24777e-17)
(1.79932 0.0221114 -8.87594e-17)
(1.79691 0.0218725 -5.09868e-17)
(1.79454 0.0216374 -7.24139e-17)
(1.79221 0.0214062 -4.36246e-17)
(1.78992 0.021179 -5.10925e-17)
(1.78766 0.0209559 -1.85443e-17)
(1.78545 0.0207368 -2.79296e-18)
(1.78327 0.0205217 3.09131e-17)
(1.78112 0.0203107 -1.13173e-17)
(1.86278 0.0466586 -7.69454e-16)
(1.85671 0.0460069 -7.87455e-16)
(1.85078 0.0453662 -7.61273e-16)
(1.84498 0.0447364 -7.58868e-16)
(1.83931 0.0441172 -7.39452e-16)
(1.83376 0.0435085 -7.0989e-16)
(1.82834 0.0429102 -7.36572e-16)
(1.82304 0.0423221 -6.9521e-16)
(1.81785 0.041744 -7.27181e-16)
(1.81279 0.0411758 -6.86178e-16)
(1.80783 0.0406173 -7.14209e-16)
(1.80299 0.0400683 -6.80383e-16)
(1.79825 0.0395287 -6.81329e-16)
(1.79362 0.0389983 -6.43377e-16)
(1.78909 0.038477 -6.70736e-16)
(1.78466 0.0379645 -6.2769e-16)
(1.78033 0.0374607 -6.37818e-16)
(1.7761 0.0369655 -5.96882e-16)
(1.77196 0.0364787 -6.34338e-16)
(1.76791 0.0360002 -5.91205e-16)
(1.76396 0.0355297 -6.0307e-16)
(1.76009 0.0350671 -5.64231e-16)
(1.7563 0.0346124 -5.97257e-16)
(1.7526 0.0341652 -5.45688e-16)
(1.74898 0.0337255 -5.86126e-16)
(1.74544 0.033293 -5.3512e-16)
(1.74198 0.0328678 -5.74087e-16)
(1.73859 0.0324494 -5.31196e-16)
(1.73528 0.032038 -5.31987e-16)
(1.73204 0.0316332 -5.00563e-16)
(1.72887 0.0312348 -4.58618e-16)
(1.72577 0.0308429 -4.9314e-16)
(1.72274 0.0304571 -4.4198e-16)
(1.71977 0.0300774 -4.80941e-16)
(1.71687 0.0297036 -4.26764e-16)
(1.71403 0.0293356 -4.66896e-16)
(1.71125 0.0289731 -4.21659e-16)
(1.70853 0.0286161 -4.25206e-16)
(1.70587 0.0282644 -3.74983e-16)
(1.70327 0.0279179 -4.10578e-16)
(1.70073 0.0275764 -3.56199e-16)
(1.69824 0.0272399 -3.66022e-16)
(1.6958 0.0269083 -3.15967e-16)
(1.69342 0.0265814 -3.56816e-16)
(1.69108 0.0262591 -3.10227e-16)
(1.6888 0.0259414 -3.18613e-16)
(1.68657 0.0256281 -2.71032e-16)
(1.68438 0.0253194 -3.07074e-16)
(1.68224 0.025015 -2.48768e-16)
(1.68015 0.024715 -2.87181e-16)
(1.6781 0.0244193 -2.31207e-16)
(1.67609 0.0241279 -2.66324e-16)
(1.67413 0.0238409 -2.2066e-16)
(1.67221 0.0235582 -2.17264e-16)
(1.67032 0.0232798 -1.83681e-16)
(1.66848 0.0230059 -1.39008e-16)
(1.66668 0.0227364 -1.74692e-16)
(1.66491 0.0224713 -1.19512e-16)
(1.66318 0.0222108 -1.54597e-16)
(1.66148 0.0219549 -1.01771e-16)
(1.65982 0.0217035 -1.37367e-16)
(1.65819 0.0214568 -9.0931e-17)
(1.6566 0.0212148 -9.05934e-17)
(1.65503 0.0209775 -4.36516e-17)
(1.65349 0.0207449 -6.75329e-17)
(1.65199 0.0205171 -1.90948e-17)
(1.65051 0.0202939 -2.25139e-17)
(1.64906 0.0200754 2.47382e-17)
(1.65938 0.0481997 -9.31449e-16)
(1.65488 0.0474753 -9.2835e-16)
(1.65049 0.0467638 -9.22206e-16)
(1.64621 0.0460649 -8.91493e-16)
(1.64204 0.0453785 -8.82673e-16)
(1.63798 0.0447044 -8.64214e-16)
(1.63403 0.0440425 -8.60046e-16)
(1.63017 0.0433924 -8.43288e-16)
(1.62642 0.0427541 -8.41337e-16)
(1.62276 0.0421273 -8.23341e-16)
(1.61919 0.0415118 -8.22613e-16)
(1.61572 0.0409075 -8.16127e-16)
(1.61234 0.0403141 -7.81878e-16)
(1.60904 0.0397315 -7.65453e-16)
(1.60583 0.0391595 -7.60516e-16)
(1.60271 0.0385978 -7.51494e-16)
(1.59966 0.0380463 -7.23957e-16)
(1.5967 0.0375048 -7.11098e-16)
(1.59381 0.0369732 -7.13197e-16)
(1.591 0.0364511 -7.02469e-16)
(1.58826 0.0359384 -6.74197e-16)
(1.5856 0.0354351 -6.64027e-16)
(1.583 0.0349407 -6.6573e-16)
(1.58047 0.0344552 -6.45253e-16)
(1.57801 0.0339784 -6.46665e-16)
(1.57561 0.0335101 -6.32333e-16)
(1.57328 0.0330501 -6.32381e-16)
(1.571 0.0325982 -6.2303e-16)
(1.56879 0.0321542 -5.81862e-16)
(1.56663 0.0317179 -5.73097e-16)
(1.56453 0.0312893 -5.52406e-16)
(1.56249 0.0308679 -5.44306e-16)
(1.5605 0.0304538 -5.242e-16)
(1.55856 0.0300466 -5.25667e-16)
(1.55668 0.0296463 -5.10012e-16)
(1.55484 0.0292526 -5.11549e-16)
(1.55305 0.0288654 -4.99622e-16)
(1.55131 0.0284845 -4.5671e-16)
(1.54962 0.0281098 -4.4126e-16)
(1.54797 0.027741 -4.38002e-16)
(1.54636 0.0273781 -4.2236e-16)
(1.5448 0.0270209 -3.90017e-16)
(1.54327 0.0266692 -3.7495e-16)
(1.54179 0.026323 -3.778e-16)
(1.54035 0.0259822 -3.66609e-16)
(1.53895 0.0256467 -3.34315e-16)
(1.53758 0.0253163 -3.18073e-16)
(1.53626 0.0249911 -3.17869e-16)
(1.53496 0.0246709 -2.95343e-16)
(1.5337 0.0243557 -2.9885e-16)
(1.53248 0.0240455 -2.781e-16)
(1.53129 0.0237403 -2.77696e-16)
(1.53013 0.02344 -2.6369e-16)
(1.529 0.0231447 -2.21416e-16)
(1.5279 0.0228545 -2.13615e-16)
(1.52683 0.0225692 -1.88525e-16)
(1.52579 0.022289 -1.84332e-16)
(1.52478 0.0220139 -1.60647e-16)
(1.52379 0.0217439 -1.61206e-16)
(1.52283 0.021479 -1.40598e-16)
(1.52189 0.0212194 -1.40925e-16)
(1.52097 0.020965 -1.29072e-16)
(1.52008 0.0207158 -8.87588e-17)
(1.51921 0.0204719 -6.80105e-17)
(1.51837 0.0202332 -6.30403e-17)
(1.51754 0.0199998 -4.62195e-17)
(1.51673 0.0197716 -1.11119e-17)
(1.51594 0.0195485 4.1307e-18)
(1.45117 0.0482462 -1.01997e-15)
(1.44844 0.0474753 -1.02065e-15)
(1.4458 0.0467187 -1.00498e-15)
(1.44324 0.045976 -9.76451e-16)
(1.44076 0.0452471 -9.58561e-16)
(1.43837 0.0445319 -9.40137e-16)
(1.43604 0.04383 -9.25648e-16)
(1.4338 0.0431414 -9.06391e-16)
(1.43162 0.0424657 -9.14027e-16)
(1.42952 0.0418029 -8.88977e-16)
(1.42749 0.0411526 -8.95408e-16)
(1.42552 0.0405147 -8.75434e-16)
(1.42362 0.0398889 -8.4648e-16)
(1.42179 0.039275 -8.23921e-16)
(1.42001 0.0386729 -8.08404e-16)
(1.4183 0.0380823 -7.91374e-16)
(1.41664 0.0375029 -7.91144e-16)
(1.41505 0.0369347 -7.62541e-16)
(1.41351 0.0363773 -7.67561e-16)
(1.41202 0.0358305 -7.44722e-16)
(1.41059 0.0352942 -7.41493e-16)
(1.4092 0.0347681 -7.11368e-16)
(1.40787 0.0342521 -6.90019e-16)
(1.40658 0.0337458 -6.70642e-16)
(1.40534 0.0332491 -6.8606e-16)
(1.40415 0.0327618 -6.58302e-16)
(1.403 0.0322836 -6.6706e-16)
(1.40189 0.0318144 -6.46224e-16)
(1.40082 0.0313539 -6.1475e-16)
(1.3998 0.0309019 -5.93344e-16)
(1.39881 0.0304582 -5.70801e-16)
(1.39786 0.0300226 -5.51612e-16)
(1.39695 0.0295949 -5.33844e-16)
(1.39607 0.0291749 -5.4916e-16)
(1.39523 0.0287624 -5.22883e-16)
(1.39443 0.0283571 -5.35554e-16)
(1.39365 0.0279589 -5.12899e-16)
(1.39291 0.0275677 -4.77427e-16)
(1.39219 0.0271831 -4.53343e-16)
(1.39151 0.0268052 -4.35326e-16)
(1.39086 0.0264336 -4.17896e-16)
(1.39023 0.0260682 -4.17737e-16)
(1.38963 0.025709 -3.82068e-16)
(1.38906 0.0253557 -3.91866e-16)
(1.38852 0.0250083 -3.68096e-16)
(1.388 0.0246666 -3.59664e-16)
(1.3875 0.0243306 -3.27032e-16)
(1.38703 0.0240002 -3.07494e-16)
(1.38658 0.0236753 -2.84889e-16)
(1.38615 0.0233559 -2.9736e-16)
(1.38574 0.023042 -2.73124e-16)
(1.38535 0.0227335 -2.79837e-16)
(1.38499 0.0224304 -2.56452e-16)
(1.38464 0.0221327 -2.21902e-16)
(1.38431 0.0218404 -2.01128e-16)
(1.384 0.0215536 -1.79358e-16)
(1.38371 0.0212723 -1.61592e-16)
(1.38343 0.0209965 -1.42455e-16)
(1.38316 0.0207263 -1.54715e-16)
(1.38292 0.0204616 -1.27967e-16)
(1.38268 0.0202025 -1.38535e-16)
(1.38246 0.019949 -1.13602e-16)
(1.38226 0.0197011 -8.21277e-17)
(1.38206 0.0194588 -5.69184e-17)
(1.38188 0.0192221 -4.13561e-17)
(1.3817 0.0189909 -1.98271e-17)
(1.38154 0.0187652 -1.73408e-17)
(1.38139 0.0185448 1.54247e-17)
(1.2442 0.0467138 -1.08442e-15)
(1.24333 0.0459282 -1.07692e-15)
(1.2425 0.0451574 -1.06739e-15)
(1.24173 0.0444013 -1.02993e-15)
(1.241 0.0436597 -1.01946e-15)
(1.24032 0.0429324 -1.00862e-15)
(1.23969 0.0422193 -9.94426e-16)
(1.2391 0.04152 -9.77315e-16)
(1.23855 0.0408344 -9.67839e-16)
(1.23804 0.0401623 -9.55155e-16)
(1.23758 0.0395034 -9.47316e-16)
(1.23715 0.0388576 -9.35949e-16)
(1.23676 0.0382246 -8.92524e-16)
(1.2364 0.0376042 -8.83903e-16)
(1.23608 0.0369961 -8.69152e-16)
(1.2358 0.0364002 -8.56884e-16)
(1.23554 0.0358162 -8.20882e-16)
(1.23532 0.0352438 -8.13615e-16)
(1.23513 0.0346829 -8.08696e-16)
(1.23497 0.0341332 -7.96768e-16)
(1.23484 0.0335945 -7.61068e-16)
(1.23473 0.0330666 -7.54283e-16)
(1.23465 0.0325492 -7.43211e-16)
(1.2346 0.0320421 -7.30579e-16)
(1.23457 0.0315451 -7.23743e-16)
(1.23456 0.0310579 -7.08344e-16)
(1.23458 0.0305803 -6.99067e-16)
(1.23462 0.0301121 -6.91633e-16)
(1.23468 0.029653 -6.4497e-16)
(1.23476 0.0292028 -6.35463e-16)
(1.23486 0.0287614 -6.21388e-16)
(1.23498 0.0283283 -6.0772e-16)
(1.23511 0.0279036 -5.88355e-16)
(1.23527 0.0274868 -5.82107e-16)
(1.23544 0.0270778 -5.71404e-16)
(1.23562 0.0266765 -5.63931e-16)
(1.23583 0.0262825 -5.52352e-16)
(1.23604 0.0258957 -5.02353e-16)
(1.23627 0.0255159 -4.91048e-16)
(1.23652 0.0251429 -4.7878e-16)
(1.23678 0.0247766 -4.66949e-16)
(1.23705 0.0244167 -4.25677e-16)
(1.23733 0.0240632 -4.15887e-16)
(1.23762 0.023716 -4.09354e-16)
(1.23793 0.0233748 -4.03157e-16)
(1.23824 0.0230396 -3.59617e-16)
(1.23857 0.0227103 -3.52767e-16)
(1.2389 0.0223868 -3.41517e-16)
(1.23924 0.022069 -3.26882e-16)
(1.2396 0.021757 -3.19733e-16)
(1.23996 0.0214506 -3.07903e-16)
(1.24032 0.0211499 -2.9555e-16)
(1.2407 0.0208548 -2.85169e-16)
(1.24108 0.0205654 -2.37727e-16)
(1.24147 0.0202816 -2.29702e-16)
(1.24186 0.0200034 -2.19018e-16)
(1.24226 0.019731 -2.03117e-16)
(1.24267 0.0194642 -1.85709e-16)
(1.24307 0.0192031 -1.7607e-16)
(1.24349 0.0189478 -1.63381e-16)
(1.2439 0.0186982 -1.54464e-16)
(1.24432 0.0184543 -1.42816e-16)
(1.24474 0.0182162 -9.63744e-17)
(1.24517 0.0179838 -8.74603e-17)
(1.24559 0.017757 -7.3119e-17)
(1.24602 0.0175359 -6.0086e-17)
(1.24645 0.0173202 -1.87506e-17)
(1.24688 0.0171099 -8.76004e-18)
(1.04415 0.043645 -1.09475e-15)
(1.04507 0.0428785 -1.08123e-15)
(1.04601 0.0421269 -1.07361e-15)
(1.04695 0.0413899 -1.03988e-15)
(1.04792 0.0406674 -1.03016e-15)
(1.04889 0.0399592 -1.02009e-15)
(1.04987 0.0392651 -1.00755e-15)
(1.05087 0.0385849 -9.92748e-16)
(1.05187 0.0379184 -9.7816e-16)
(1.05289 0.0372655 -9.66916e-16)
(1.05391 0.0366259 -9.5269e-16)
(1.05494 0.0359994 -9.42562e-16)
(1.05598 0.0353857 -9.02093e-16)
(1.05702 0.0347847 -8.95959e-16)
(1.05808 0.0341961 -8.81533e-16)
(1.05914 0.0336197 -8.71626e-16)
(1.0602 0.0330552 -8.32528e-16)
(1.06127 0.0325025 -8.28759e-16)
(1.06234 0.0319612 -8.16833e-16)
(1.06342 0.0314312 -8.09298e-16)
(1.0645 0.0309122 -7.70294e-16)
(1.06558 0.0304041 -7.65535e-16)
(1.06667 0.0299064 -7.52418e-16)
)
;

boundaryField
{
    inlet
    {
        type            uniformFixedValue;
        uniformValue    constant (1 0 0);
        value           nonuniform 0();
    }
    outlet
    {
        type            pressureInletOutletVelocity;
        value           nonuniform 0();
    }
    wall
    {
        type            fixedValue;
        value           nonuniform 0();
    }
    wedge1
    {
        type            wedge;
    }
    wedge2
    {
        type            wedge;
    }
    axis
    {
        type            empty;
    }
    procBoundary16to10
    {
        type            processor;
        value           nonuniform List<vector> 
68
(
(2.10529 0.0326184 -3.3693e-16)
(2.09932 0.0322639 -3.33375e-16)
(2.09346 0.0319143 -3.17695e-16)
(2.08769 0.0315697 -3.28222e-16)
(2.08202 0.0312299 -3.3076e-16)
(2.07645 0.0308948 -3.17197e-16)
(2.07098 0.0305643 -3.20453e-16)
(2.06559 0.0302383 -3.16295e-16)
(2.0603 0.0299168 -3.20088e-16)
(2.0551 0.0295996 -3.21933e-16)
(2.04998 0.0292867 -2.92447e-16)
(2.04495 0.0289779 -2.97023e-16)
(2.04001 0.0286731 -2.89739e-16)
(2.03515 0.0283722 -2.82837e-16)
(2.03036 0.0280752 -2.66815e-16)
(2.02566 0.0277819 -2.69328e-16)
(2.02104 0.0274923 -2.58458e-16)
(2.01649 0.0272063 -2.62559e-16)
(2.01202 0.0269237 -2.62364e-16)
(2.00762 0.0266445 -2.33488e-16)
(2.00329 0.0263686 -2.30909e-16)
(1.99904 0.0260959 -2.27328e-16)
(1.99485 0.0258263 -2.16682e-16)
(1.99074 0.0255598 -1.94145e-16)
(1.98669 0.0252963 -1.90413e-16)
(1.9827 0.0250357 -2.02886e-16)
(1.97878 0.024778 -1.931e-16)
(1.97493 0.0245231 -1.72858e-16)
(1.97113 0.024271 -1.75111e-16)
(1.9674 0.0240217 -1.74061e-16)
(1.96373 0.0237751 -1.57706e-16)
(1.96012 0.0235312 -1.60617e-16)
(1.95656 0.0232901 -1.44841e-16)
(1.95306 0.0230517 -1.44053e-16)
(1.94962 0.022816 -1.39421e-16)
(1.94623 0.0225831 -1.03884e-16)
(1.9429 0.022353 -1.01168e-16)
(1.93962 0.0221257 -8.63486e-17)
(1.93639 0.0219013 -7.5514e-17)
(1.93321 0.0216798 -5.46816e-17)
(1.93008 0.0214613 -5.6491e-17)
(1.92699 0.0212459 -3.9864e-17)
(1.92396 0.0210335 -4.03597e-17)
(1.92097 0.0208243 -3.08368e-17)
(1.91803 0.0206182 -1.17326e-18)
(1.91513 0.0204155 5.05612e-18)
(1.91227 0.020216 1.23728e-17)
(1.90945 0.0200198 2.55467e-17)
(1.90668 0.0198269 5.01251e-17)
(2.05553 0.0438204 -5.63151e-16)
(2.04822 0.0432595 -5.7819e-16)
(2.04105 0.0427074 -5.62529e-16)
(2.03402 0.0421641 -5.69861e-16)
(2.02713 0.0416294 -5.56363e-16)
(2.02038 0.0411032 -5.35539e-16)
(2.01376 0.0405854 -5.33403e-16)
(2.00727 0.0400758 -5.12804e-16)
(2.00091 0.0395743 -5.36813e-16)
(1.99467 0.0390808 -5.08867e-16)
(1.98856 0.0385952 -5.32014e-16)
(1.98256 0.0381173 -5.09538e-16)
(1.97669 0.037647 -5.23809e-16)
(1.97092 0.0371842 -4.97483e-16)
(1.96528 0.0367286 -4.94935e-16)
(1.95974 0.0362803 -4.63923e-16)
(1.95431 0.0358391 -5.08836e-16)
(1.94899 0.0354047 -4.69814e-16)
(1.94899 0.0354047 -4.69814e-16)
)
;
    }
    procBoundary16to11
    {
        type            processor;
        value           uniform (1.77901 0.0201038 3.60053e-17);
    }
    procBoundary16to15
    {
        type            processor;
        value           nonuniform List<vector> 3((1.86898 0.0473214 -8.0114e-16) (1.664 0.048937 -9.47044e-16) (1.45399 0.0490314 -1.0427e-15));
    }
    procBoundary16to17
    {
        type            processor;
        value           nonuniform List<vector> 4((1.64763 0.0198615 -7.83725e-18) (1.51517 0.0193303 2.83744e-18) (1.38125 0.0183297 8.61254e-18) (1.24732 0.0169048 -2.60314e-18));
    }
    procBoundary16to21
    {
        type            processor;
        value           nonuniform List<vector> 2((1.24512 0.0475144 -1.10157e-15) (1.04324 0.0444263 -1.10694e-15));
    }
    procBoundary16to22
    {
        type            processor;
        value           nonuniform List<vector> 
69
(
(1.06776 0.0294191 -7.421e-16)
(1.06885 0.0289418 -7.24989e-16)
(1.06994 0.0284744 -7.15763e-16)
(1.07104 0.0280166 -7.03432e-16)
(1.07213 0.0275681 -6.91914e-16)
(1.07322 0.0271287 -6.51075e-16)
(1.07432 0.0266982 -6.46103e-16)
(1.07541 0.0262764 -6.34463e-16)
(1.07651 0.025863 -6.19284e-16)
(1.0776 0.0254578 -6.04504e-16)
(1.07869 0.0250605 -5.90428e-16)
(1.07978 0.024671 -5.77558e-16)
(1.08087 0.0242891 -5.64887e-16)
(1.08195 0.0239144 -5.52901e-16)
(1.08304 0.0235469 -5.08615e-16)
(1.08412 0.0231863 -5.00025e-16)
(1.0852 0.0228325 -4.89564e-16)
(1.08627 0.0224853 -4.78098e-16)
(1.08735 0.0221445 -4.34846e-16)
(1.08842 0.02181 -4.29704e-16)
(1.08948 0.0214817 -4.17432e-16)
(1.09055 0.0211594 -4.08369e-16)
(1.09161 0.020843 -3.67962e-16)
(1.09266 0.0205325 -3.62393e-16)
(1.09371 0.0202278 -3.50581e-16)
(1.09476 0.0199287 -3.4024e-16)
(1.0958 0.0196354 -3.26737e-16)
(1.09684 0.0193476 -3.16763e-16)
(1.09787 0.0190654 -2.98359e-16)
(1.0989 0.0187889 -2.90697e-16)
(1.09992 0.0185179 -2.47534e-16)
(1.10094 0.0182525 -2.41627e-16)
(1.10195 0.0179927 -2.30084e-16)
(1.10295 0.0177385 -2.16937e-16)
(1.10395 0.0174899 -2.02693e-16)
(1.10495 0.017247 -1.86627e-16)
(1.10593 0.0170096 -1.72863e-16)
(1.10692 0.0167779 -1.59491e-16)
(1.10789 0.0165519 -1.50087e-16)
(1.10886 0.0163314 -1.07635e-16)
(1.10982 0.0161164 -9.70472e-17)
(1.11077 0.015907 -8.53459e-17)
(1.11172 0.0157029 -7.56375e-17)
(1.11266 0.0155041 -3.51564e-17)
(1.1136 0.0153105 -2.7469e-17)
(0.918434 0.0407283 -1.07209e-15)
(0.920429 0.0399959 -1.05579e-15)
(0.922413 0.0392777 -1.0481e-15)
(0.924387 0.0385738 -1.02768e-15)
(0.926351 0.0378838 -1.01329e-15)
(0.928304 0.0372077 -1.00074e-15)
(0.930246 0.0365453 -9.83005e-16)
(0.932178 0.0358964 -9.72102e-16)
(0.934099 0.0352608 -9.54367e-16)
(0.936009 0.0346383 -9.45391e-16)
(0.937907 0.0340288 -9.27202e-16)
(0.939795 0.033432 -9.20236e-16)
(0.941671 0.0328476 -8.97395e-16)
(0.943536 0.0322756 -8.83886e-16)
(0.945389 0.0317156 -8.64945e-16)
(0.94723 0.0311674 -8.5733e-16)
(0.94906 0.0306309 -8.33622e-16)
(0.950878 0.0301057 -8.20541e-16)
(0.952684 0.0295917 -8.01462e-16)
(0.954477 0.0290886 -7.93376e-16)
(0.956259 0.0285962 -7.71684e-16)
(0.958029 0.0281143 -7.59089e-16)
(1.06776 0.0294191 -7.421e-16)
(0.959786 0.0276425 -7.36493e-16)
)
;
    }
}


// ************************************************************************* //
