/*--------------------------------*- C++ -*----------------------------------*\
  =========                 |
  \\      /  F ield         | OpenFOAM: The Open Source CFD Toolbox
   \\    /   O peration     | Website:  https://openfoam.org
    \\  /    A nd           | Version:  7
     \\/     M anipulation  |
\*---------------------------------------------------------------------------*/
FoamFile
{
    version     2.0;
    format      ascii;
    class       volVectorField;
    location    "23";
    object      U;
}
// * * * * * * * * * * * * * * * * * * * * * * * * * * * * * * * * * * * * * //

dimensions      [0 1 -1 0 0 0 0];

internalField   nonuniform List<vector> 
433
(
(0.877593 -0.0685571 -5.87115e-18)
(0.922769 -0.0749609 1.29283e-18)
(0.879337 -0.0545648 -3.29887e-18)
(1.07354 -0.00267539 -2.92178e-19)
(1.07435 -0.00266644 5.81074e-20)
(1.07515 -0.00265714 4.87553e-20)
(1.07594 -0.00264744 8.74094e-20)
(1.07673 -0.00263726 7.75673e-20)
(1.07751 -0.00262652 -3.75301e-20)
(1.07829 -0.0026151 -4.88106e-20)
(1.07905 -0.00260278 -1.04581e-19)
(1.07981 -0.00258915 1.25121e-19)
(1.08057 -0.00257372 -1.85602e-20)
(1.08132 -0.00255553 -3.98936e-20)
(1.07442 -0.00792854 -3.56657e-19)
(1.07524 -0.00789936 -5.65497e-20)
(1.07605 -0.00786994 1.2572e-19)
(1.07686 -0.0078402 1.11314e-19)
(1.07766 -0.00781006 -9.07007e-20)
(1.07846 -0.00777932 4.59024e-20)
(1.07924 -0.00774768 -1.81284e-20)
(1.08002 -0.00771452 -3.08686e-21)
(1.08079 -0.00767855 -4.03698e-20)
(1.08156 -0.00763809 -3.97313e-20)
(1.08233 -0.0075896 -7.26869e-20)
(1.07605 -0.0130898 9.69465e-20)
(1.0769 -0.0130412 1.24586e-19)
(1.07774 -0.0129925 -2.43703e-19)
(1.07858 -0.0129434 1.68548e-19)
(1.07941 -0.0128938 -5.10853e-20)
(1.08023 -0.0128434 9.73286e-20)
(1.08105 -0.0127917 -8.21488e-20)
(1.08186 -0.0127376 6.26615e-20)
(1.08266 -0.012679 -1.30067e-19)
(1.08345 -0.0126128 8.59306e-20)
(1.08425 -0.0125332 5.20596e-20)
(1.07838 -0.0182018 -1.65741e-19)
(1.07927 -0.0181328 2.82043e-19)
(1.08015 -0.0180637 -2.86107e-19)
(1.08103 -0.0179943 2.23315e-19)
(1.08191 -0.0179244 -2.10293e-20)
(1.08278 -0.0178537 -1.08699e-21)
(1.08364 -0.0177813 -1.13618e-19)
(1.08449 -0.0177057 2.01541e-19)
(1.08534 -0.0176239 8.60048e-20)
(1.08617 -0.0175315 -1.38579e-19)
(1.08702 -0.0174202 1.00478e-19)
(1.08136 -0.0233094 -1.02138e-20)
(1.0823 -0.0232191 -3.41381e-20)
(1.08324 -0.0231288 9.14673e-21)
(1.08418 -0.0230383 9.91001e-20)
(1.08511 -0.0229474 -1.11673e-19)
(1.08604 -0.0228555 1.43324e-19)
(1.08695 -0.0227617 -1.97756e-19)
(1.08787 -0.0226641 7.10314e-21)
(1.08877 -0.0225583 -1.74531e-19)
(1.08967 -0.0224388 1.92293e-19)
(1.09057 -0.0222944 -2.00402e-19)
(1.08495 -0.0284489 3.70277e-20)
(1.08596 -0.0283357 2.91643e-20)
(1.08697 -0.0282227 2.4945e-20)
(1.08798 -0.0281097 2.02155e-19)
(1.08898 -0.0279963 -9.55416e-20)
(1.08997 -0.027882 6.68171e-21)
(1.09096 -0.0277656 -1.64505e-19)
(1.09195 -0.0276446 1.30421e-19)
(1.09292 -0.0275136 2.91511e-20)
(1.0939 -0.0273653 -9.91004e-20)
(1.09488 -0.0271858 1.629e-19)
(1.08913 -0.0336522 -2.20491e-19)
(1.09022 -0.0335143 2.11065e-19)
(1.0913 -0.0333767 -2.65611e-19)
(1.09239 -0.0332394 -1.97484e-19)
(1.09347 -0.0331018 -1.00241e-19)
(1.09455 -0.0329635 -1.03719e-19)
(1.09562 -0.0328228 6.29937e-20)
(1.09669 -0.0326768 1.73752e-19)
(1.09776 -0.0325188 -2.99752e-19)
(1.09882 -0.0323398 -1.76364e-19)
(1.09989 -0.0321223 -4.0975e-20)
(1.09385 -0.0389471 1.83976e-19)
(1.09503 -0.0387821 -3.12415e-19)
(1.09621 -0.0386178 3.89982e-19)
(1.09738 -0.0384539 -1.32015e-19)
(1.09856 -0.03829 1.66553e-19)
(1.09973 -0.0381254 -2.54706e-19)
(1.10091 -0.0379583 3.23814e-20)
(1.10207 -0.0377852 -1.94658e-19)
(1.10324 -0.037598 4.30418e-19)
(1.10441 -0.0373855 5.477e-19)
(1.10558 -0.0371264 2.33438e-19)
(1.09909 -0.0443584 1.18579e-20)
(1.10037 -0.0441635 2.80125e-20)
(1.10165 -0.0439696 1.34666e-19)
(1.10294 -0.0437764 1.44249e-19)
(1.10422 -0.0435835 2.03575e-20)
(1.10551 -0.0433899 4.82045e-20)
(1.10679 -0.0431938 -9.91433e-20)
(1.10807 -0.0429909 -6.74052e-20)
(1.10935 -0.0427716 -3.00324e-19)
(1.11064 -0.0425222 -5.62931e-19)
(1.11192 -0.0422171 -7.56508e-20)
(1.10484 -0.049908 1.07795e-19)
(1.10623 -0.0496799 -1.00617e-19)
(1.10763 -0.049453 -3.26725e-19)
(1.10903 -0.0492272 -4.4367e-20)
(1.11043 -0.0490019 -6.6399e-20)
(1.11184 -0.0487762 1.20888e-19)
(1.11325 -0.0485477 4.50009e-20)
(1.11465 -0.0483116 3.40443e-19)
(1.11606 -0.0480568 2.145e-19)
(1.11748 -0.0477665 1.04511e-19)
(1.11889 -0.0474101 -1.83954e-19)
(1.11106 -0.0556153 4.91966e-20)
(1.11258 -0.05535 -6.72536e-20)
(1.11411 -0.0550863 1.2314e-19)
(1.11564 -0.0548239 3.34644e-21)
(1.11717 -0.0545623 2.36187e-19)
(1.11872 -0.0543004 -9.64877e-20)
(1.12026 -0.0540356 2.093e-19)
(1.12181 -0.0537624 2.35744e-19)
(1.12336 -0.0534677 -3.60786e-20)
(1.12492 -0.0531316 2.37478e-19)
(1.12648 -0.0527177 9.64161e-20)
(1.11774 -0.061498 -1.50344e-20)
(1.1194 -0.0611909 -2.14074e-19)
(1.12107 -0.0608855 3.23977e-19)
(1.12274 -0.0605818 3.4064e-19)
(1.12443 -0.0602791 -3.46897e-19)
(1.12611 -0.0599763 -3.8413e-21)
(1.12781 -0.0596705 -3.51182e-20)
(1.12951 -0.0593552 -1.27526e-20)
(1.13121 -0.0590156 -2.69434e-19)
(1.13294 -0.0586279 -3.86257e-19)
(1.13465 -0.0581491 -3.13021e-19)
(1.12486 -0.0675717 2.08746e-19)
(1.12668 -0.0672172 -1.12369e-19)
(1.1285 -0.0668648 1.27781e-19)
(1.13033 -0.0665142 -7.42282e-19)
(1.13217 -0.0661648 1.56953e-20)
(1.13402 -0.0658154 1.40837e-20)
(1.13588 -0.0654628 1.21766e-19)
(1.13774 -0.0650996 -6.22012e-19)
(1.13961 -0.064709 5.50932e-19)
(1.14152 -0.0642628 -1.61552e-19)
(1.1434 -0.0637103 4.09295e-19)
(1.13241 -0.0738507 -9.02329e-20)
(1.13439 -0.0734425 4.98498e-20)
(1.13637 -0.0730364 -3.82216e-19)
(1.13838 -0.0726323 1.49044e-20)
(1.14039 -0.0722296 5.02299e-20)
(1.14241 -0.0718268 1.27579e-19)
(1.14445 -0.0714205 -2.46483e-20)
(1.14649 -0.0710024 3.39437e-19)
(1.14854 -0.0705534 1.04529e-19)
(1.15063 -0.0700406 2.49918e-19)
(1.1527 -0.0694043 -3.42539e-19)
(1.14036 -0.0803478 -1.20011e-19)
(1.14252 -0.0798784 5.06581e-19)
(1.14469 -0.079411 5.62332e-19)
(1.14687 -0.0789456 3.13714e-19)
(1.14907 -0.0784816 -3.509e-19)
(1.15128 -0.0780174 -2.46328e-19)
(1.1535 -0.0775491 -6.26894e-20)
(1.15574 -0.0770678 -3.76302e-19)
(1.15799 -0.0765517 -3.18143e-19)
(1.16028 -0.0759625 1.78174e-19)
(1.16254 -0.0752306 3.08372e-19)
(1.14871 -0.0870744 3.2969e-19)
(1.15105 -0.0865349 -5.32291e-19)
(1.15342 -0.0859974 -5.12576e-19)
(1.1558 -0.0854616 -2.03642e-19)
(1.15819 -0.0849269 6.27999e-19)
(1.1606 -0.0843917 2.98842e-19)
(1.16303 -0.0838518 -1.99773e-19)
(1.16547 -0.0832971 3.35269e-19)
(1.16793 -0.0827034 1.0134e-19)
(1.17043 -0.0820264 4.24967e-21)
(1.1729 -0.0811849 1.50446e-19)
(1.15743 -0.094041 -2.52398e-20)
(1.15998 -0.0934213 -5.58048e-20)
(1.16256 -0.092803 5.99174e-19)
(1.16515 -0.092186 3.77325e-19)
(1.16775 -0.0915697 2.21096e-20)
(1.17038 -0.0909521 -5.68723e-19)
(1.17302 -0.0903288 -1.77954e-19)
(1.17568 -0.0896887 3.68674e-20)
(1.17836 -0.0890049 6.38944e-20)
(1.18109 -0.0882261 8.16859e-19)
(1.18378 -0.0872586 -7.43043e-20)
(1.16653 -0.101257 3.85304e-19)
(1.1693 -0.100545 1.24353e-19)
(1.17209 -0.0998337 -3.31042e-19)
(1.17491 -0.0991229 -3.25463e-19)
(1.17774 -0.0984117 -4.66058e-19)
(1.1806 -0.0976982 3.61947e-19)
(1.18347 -0.0969774 -2.19425e-19)
(1.18636 -0.0962372 6.5557e-20)
(1.18927 -0.0954477 3.34324e-19)
(1.19223 -0.0945504 -6.52202e-19)
(1.19515 -0.0934371 -4.07915e-19)
(1.17598 -0.10873 -6.35322e-19)
(1.17899 -0.107912 8.69445e-20)
(1.18202 -0.107094 -2.69716e-19)
(1.18508 -0.106274 3.41216e-19)
(1.18815 -0.105452 5.49399e-19)
(1.19124 -0.104626 -3.20282e-20)
(1.19436 -0.103791 -1.58642e-19)
(1.19749 -0.102932 -9.16013e-19)
(1.20065 -0.102018 -5.8427e-19)
(1.20385 -0.100981 -3.4241e-19)
(1.20701 -0.0996978 -7.55972e-19)
(1.1858 -0.116468 3.53576e-19)
(1.18906 -0.115528 -4.12045e-19)
(1.19234 -0.114585 4.51684e-19)
(1.19565 -0.113638 1.56517e-19)
(1.19898 -0.112687 1.0235e-20)
(1.20232 -0.111729 4.95088e-19)
(1.20569 -0.110757 8.36797e-19)
(1.20907 -0.109757 1.54906e-18)
(1.21248 -0.108693 3.98661e-19)
(1.21593 -0.107489 -9.4048e-19)
(1.21932 -0.106005 1.2912e-18)
(1.19597 -0.124475 2.6331e-19)
(1.1995 -0.123394 -1.08344e-19)
(1.20305 -0.122306 -1.1949e-20)
(1.20662 -0.121212 -4.31829e-19)
(1.21021 -0.120108 -3.00227e-19)
(1.21382 -0.118992 -7.60197e-19)
(1.21745 -0.117856 5.5627e-19)
(1.22109 -0.116684 -1.2336e-18)
(1.22474 -0.115436 5.58592e-20)
(1.22844 -0.114028 1.94527e-18)
(1.23205 -0.112304 2.9969e-19)
(1.2065 -0.132756 -4.22423e-19)
(1.21031 -0.13151 -6.63491e-19)
(1.21414 -0.130253 4.34019e-19)
(1.21799 -0.128982 4.34223e-19)
(1.22186 -0.127696 -9.25317e-20)
(1.22573 -0.126388 1.34359e-18)
(1.22962 -0.125051 -1.19586e-18)
(1.2335 -0.123664 9.58137e-19)
(1.2374 -0.122186 3.16464e-19)
(1.2413 -0.120523 -4.28693e-19)
(1.24509 -0.118505 3.01882e-19)
(1.21739 -0.141306 4.20634e-19)
(1.2215 -0.139867 5.19602e-19)
(1.22562 -0.138409 -8.19953e-19)
(1.22975 -0.136927 -1.06802e-18)
(1.23389 -0.135418 8.48591e-19)
(1.23802 -0.133873 -8.76481e-19)
(1.24214 -0.132282 9.06402e-19)
(1.24625 -0.130623 6.20534e-19)
(1.25034 -0.128847 -5.37039e-19)
(1.2544 -0.126856 -1.16567e-18)
(1.25828 -0.124473 -2.20516e-18)
(1.22864 -0.150114 1.94888e-19)
(1.23304 -0.148444 -3.07707e-19)
(1.23745 -0.146742 5.75711e-19)
(1.24185 -0.145001 1.47111e-18)
(1.24624 -0.143214 -6.80724e-19)
(1.2506 -0.141369 3.93172e-19)
(1.25492 -0.13945 5.12078e-19)
(1.25919 -0.137433 -1.58974e-18)
(1.26338 -0.135266 6.72751e-19)
(1.26749 -0.132845 2.44201e-19)
(1.2713 -0.129997 2.64904e-18)
(1.24021 -0.159146 1.16009e-19)
(1.24491 -0.157194 7.90082e-19)
(1.24958 -0.15519 -2.06534e-19)
(1.25422 -0.153123 -5.46792e-19)
(1.25881 -0.150979 -4.47697e-19)
(1.26333 -0.148743 -8.56614e-19)
(1.26774 -0.146394 -2.45451e-18)
(1.27204 -0.1439 3.58617e-19)
(1.27619 -0.141209 -1.807e-18)
(1.28014 -0.138218 1.92053e-19)
(1.2836 -0.134777 -2.00118e-18)
(1.25206 -0.168338 -5.76523e-19)
(1.25701 -0.166033 -4.77542e-19)
(1.26189 -0.163643 -2.40805e-19)
(1.26669 -0.161153 1.52015e-18)
(1.27137 -0.158543 1.09926e-18)
(1.2759 -0.155789 3.2191e-19)
(1.28024 -0.152864 2.3448e-18)
(1.28435 -0.149731 8.88453e-19)
(1.28819 -0.146338 9.01366e-19)
(1.29165 -0.142595 1.14379e-19)
(1.29434 -0.138402 1.9926e-19)
(1.26405 -0.177571 9.13174e-20)
(1.26916 -0.174809 4.00282e-19)
(1.27414 -0.171916 4.45644e-19)
(1.27894 -0.168869 -2.47627e-18)
(1.28353 -0.165638 -4.04759e-19)
(1.28783 -0.162192 1.12671e-18)
(1.2918 -0.158497 -2.74342e-18)
(1.29538 -0.154515 -2.77749e-19)
(1.29851 -0.150198 -7.82702e-19)
(1.301 -0.14548 1.85211e-18)
(1.30228 -0.140356 2.08952e-19)
(1.27593 -0.186647 6.51329e-19)
(1.28105 -0.183282 -3.22552e-20)
(1.28592 -0.179721 -2.04973e-19)
(1.29047 -0.175929 6.42739e-19)
(1.29464 -0.17187 -5.62562e-19)
(1.29835 -0.167507 -1.90332e-18)
(1.30151 -0.162799 1.57368e-18)
(1.30403 -0.157713 1.20024e-18)
(1.30587 -0.152214 9.48368e-19)
(1.30671 -0.14628 -2.88383e-18)
(1.30576 -0.14005 6.18087e-19)
(1.28731 -0.195257 -1.15146e-19)
(1.29215 -0.191087 -9.82568e-19)
(1.29658 -0.186633 -6.42961e-21)
(1.30048 -0.181854 -9.20208e-19)
(1.30377 -0.176708 3.37207e-19)
(1.30633 -0.171152 -1.02219e-18)
(1.30804 -0.165152 4.89552e-19)
(1.30881 -0.158683 -3.71652e-19)
(1.30859 -0.15174 -9.63973e-19)
(1.30692 -0.144368 2.00859e-18)
(1.30272 -0.136901 -5.26474e-19)
(1.2975 -0.202948 6.64531e-19)
(1.30166 -0.197709 -2.53768e-19)
(1.30514 -0.19208 1.64304e-18)
(1.30781 -0.186019 1.68086e-18)
(1.30956 -0.179482 -9.83958e-19)
(1.31023 -0.172435 1.36582e-18)
(1.30969 -0.164855 8.11308e-19)
(1.30783 -0.156743 -3.22151e-18)
(1.30461 -0.148139 -9.62212e-19)
(1.29944 -0.13918 6.00356e-19)
(1.29084 -0.130441 4.01334e-19)
(1.30552 -0.209113 -3.66031e-19)
(1.3084 -0.202482 8.53303e-19)
(1.31025 -0.19535 -2.08747e-18)
(1.31093 -0.18768 2.32546e-19)
(1.31028 -0.179442 2.64733e-19)
(1.30815 -0.17062 -1.85266e-18)
(1.30439 -0.161219 -3.03182e-18)
(1.29889 -0.151281 8.4572e-19)
(1.29166 -0.140909 3.84557e-18)
(1.28194 -0.130351 -1.72075e-18)
(1.2678 -0.120454 -1.9452e-18)
(1.31 -0.212997 -7.23437e-19)
(1.3108 -0.204618 7.46748e-19)
(1.31015 -0.195641 9.2582e-19)
(1.30789 -0.186051 9.96113e-20)
(1.30386 -0.175846 1.29712e-18)
(1.2979 -0.165045 2.11815e-18)
(1.28987 -0.153697 5.2464e-19)
(1.27971 -0.1419 -7.93111e-19)
(1.26748 -0.129831 -1.71434e-18)
(1.25228 -0.117858 1.67019e-18)
(1.23166 -0.10709 1.29717e-18)
(1.30914 -0.213758 -5.74301e-20)
(1.30692 -0.203287 -5.39245e-19)
(1.30277 -0.19217 -2.12239e-18)
(1.29653 -0.180427 -4.88831e-19)
(1.28807 -0.168105 -1.4331e-18)
(1.27725 -0.155272 1.7435e-19)
(1.26397 -0.142038 2.70154e-18)
(1.24824 -0.128563 -4.88726e-19)
(1.23023 -0.115098 -1.51179e-18)
(1.20885 -0.102114 -2.18393e-18)
(1.18118 -0.0909262 2.10754e-18)
(1.30086 -0.210573 9.14985e-19)
(1.29457 -0.197749 -1.00365e-18)
(1.28587 -0.184312 4.98427e-19)
(1.27463 -0.170338 -4.68454e-19)
(1.26076 -0.155936 -5.55929e-19)
(1.24419 -0.141239 -1.16106e-18)
(1.2249 -0.12642 -2.34575e-18)
(1.20299 -0.111698 3.0855e-18)
(1.17878 -0.0973774 3.91512e-19)
(1.15093 -0.0839877 8.64009e-19)
(1.11613 -0.0729346 -3.94865e-18)
(1.28291 -0.202797 -2.11278e-18)
(1.27156 -0.187519 3.25154e-18)
(1.25738 -0.171777 -1.13151e-18)
(1.24028 -0.155716 -1.70562e-18)
(1.22027 -0.139513 4.10209e-18)
(1.19737 -0.123372 5.3956e-19)
(1.17165 -0.107524 5.11737e-19)
(1.14338 -0.0922295 1.13646e-18)
(1.11298 -0.0777991 1.85066e-18)
(1.07889 -0.0647369 -2.11371e-19)
(1.03744 -0.0543646 7.31025e-19)
(1.25317 -0.190086 -1.82349e-18)
(1.23598 -0.172488 -1.01296e-18)
(1.21565 -0.154707 4.60118e-18)
(1.19219 -0.136964 1.28079e-18)
(1.1657 -0.119504 -9.45605e-19)
(1.13631 -0.102591 1.98428e-18)
(1.10424 -0.0864975 -1.88101e-18)
(1.06988 -0.0714898 -2.77924e-18)
(1.03381 -0.0578221 -1.83704e-18)
(0.994225 -0.0458469 -8.97485e-19)
(0.947072 -0.0365677 3.56286e-18)
(1.21002 -0.17257 3.27586e-18)
(1.18656 -0.153045 -2.36619e-18)
(1.15984 -0.133758 7.61469e-19)
(1.12997 -0.114989 4.59418e-19)
(1.09714 -0.0970375 -1.28317e-18)
(1.06162 -0.0802079 4.97982e-19)
(1.02371 -0.0647834 3.14619e-18)
(0.983961 -0.0509951 -7.76913e-19)
(0.94313 -0.0389695 4.15302e-18)
(0.899211 -0.0287586 8.9218e-19)
(0.847743 -0.0207471 -2.33124e-18)
(1.15279 -0.151168 -2.36655e-18)
(1.12314 -0.130426 -6.83103e-19)
(1.09033 -0.110452 -4.12389e-18)
(1.05458 -0.0915657 -1.12571e-18)
(1.01615 -0.0740897 2.51796e-19)
(0.97537 -0.0583243 -2.50572e-18)
(0.932599 -0.044516 -2.45212e-18)
(0.888461 -0.0328041 1.88172e-18)
(0.843885 -0.0231159 -4.62243e-18)
(0.796802 -0.0150353 -1.24444e-19)
(1.1135 -0.148705 -1.7527e-18)
(1.08135 -0.126657 -5.38707e-19)
(1.04612 -0.105691 6.10823e-19)
(1.0081 -0.086147 2.05397e-18)
(0.967584 -0.0683544 -1.96058e-18)
(0.924932 -0.0526179 2.47224e-19)
(0.880481 -0.0391899 5.22864e-19)
(0.83456 -0.0282233 3.07061e-18)
(1.03231 -0.118986 7.39256e-19)
(0.994651 -0.0966144 4.02209e-18)
(0.954333 -0.076065 1.80857e-18)
(0.911758 -0.057699 -1.75607e-18)
(0.867349 -0.0418368 3.84625e-18)
)
;

boundaryField
{
    inlet
    {
        type            uniformFixedValue;
        uniformValue    constant (1 0 0);
        value           nonuniform 0();
    }
    outlet
    {
        type            pressureInletOutletVelocity;
        value           nonuniform 0();
    }
    cylinder
    {
        type            fixedValue;
        value           nonuniform 0();
    }
    top
    {
        type            symmetryPlane;
    }
    bottom
    {
        type            symmetryPlane;
    }
    defaultFaces
    {
        type            empty;
    }
    procBoundary3to2
    {
        type            processor;
        value           nonuniform List<vector> 
33
(
(1.07273 -0.00268404 -7.57169e-20)
(1.07359 -0.00795756 -4.47651e-19)
(1.07519 -0.0131381 -6.48682e-20)
(1.07748 -0.0182708 9.6251e-20)
(1.08041 -0.0233998 -1.06941e-19)
(1.08394 -0.0285624 1.84084e-19)
(1.08803 -0.0337906 -3.6972e-19)
(1.09267 -0.0391129 9.05167e-20)
(1.09781 -0.0445543 -2.28592e-19)
(1.10344 -0.0501374 8.40939e-20)
(1.10954 -0.0558822 2.074e-19)
(1.11609 -0.061807 1.243e-19)
(1.12306 -0.0679282 3.28749e-20)
(1.13045 -0.0742611 7.55844e-22)
(1.13822 -0.0808195 -1.85324e-19)
(1.14638 -0.0876158 6.52977e-19)
(1.1549 -0.0946622 -5.81956e-19)
(1.16378 -0.101969 -2.00053e-19)
(1.173 -0.109547 3.94083e-19)
(1.18256 -0.117405 -2.22726e-19)
(1.19246 -0.125551 7.57e-19)
(1.20271 -0.133991 -4.34017e-19)
(1.2133 -0.142728 3.69388e-20)
(1.22424 -0.151756 -2.11915e-19)
(1.23551 -0.161053 -7.8511e-20)
(1.24707 -0.170573 2.58198e-19)
(1.25883 -0.180223 -4.64542e-19)
(1.27062 -0.189845 -1.87096e-19)
(1.2821 -0.19918 -1.44784e-19)
(1.29276 -0.207841 7.30659e-19)
(1.30176 -0.215284 1.2113e-18)
(1.30791 -0.220806 -2.27375e-18)
(1.30962 -0.223579 9.35811e-19)
)
;
    }
    procBoundary3to4
    {
        type            processor;
        value           nonuniform List<vector> 
24
(
(1.08251 -0.00251159 0)
(1.08352 -0.00746262 0)
(1.08547 -0.0123216 0)
(1.08827 -0.0171219 0)
(1.09187 -0.021905 0)
(1.09622 -0.0266993 0)
(1.1013 -0.0315308 0)
(1.10706 -0.0364205 0)
(1.11348 -0.0413856 0)
(1.12054 -0.0464398 0)
(1.12821 -0.0515935 0)
(1.13648 -0.0568538 0)
(1.14533 -0.0622246 0)
(1.15473 -0.0677063 0)
(1.16467 -0.0732955 0)
(1.17513 -0.078985 0)
(1.1861 -0.0847626 0)
(1.19756 -0.0906096 0)
(1.20949 -0.0964984 0)
(1.22185 -0.102388 0)
(1.23459 -0.108215 0)
(1.24757 -0.113884 0)
(1.26058 -0.11925 0)
(1.27323 -0.124099 0)
)
;
    }
    procBoundary3to8
    {
        type            processor;
        value           nonuniform List<vector> 
11
(
(0.919792 -0.0902926 -1.54467e-18)
(0.963818 -0.0975426 -2.79242e-18)
(0.963818 -0.0975426 -2.79242e-18)
(1.3049 -0.222732 3.98863e-19)
(1.29153 -0.217493 -7.14878e-19)
(1.26725 -0.207316 -1.39576e-18)
(1.23016 -0.192075 2.99823e-18)
(1.17911 -0.17237 -2.8458e-18)
(1.17911 -0.17237 -2.8458e-18)
(1.14235 -0.171499 -1.44549e-18)
(1.06696 -0.142797 1.94372e-18)
)
;
    }
    procBoundary3to9
    {
        type            processor;
        value           nonuniform List<vector> 
16
(
(0.832637 -0.0629098 -3.25474e-18)
(0.833263 -0.0491652 5.43586e-19)
(0.833263 -0.0491652 5.43586e-19)
(0.833984 -0.0367042 -1.03438e-18)
(0.833984 -0.0367042 -1.03438e-18)
(0.787168 -0.02167 -4.66264e-18)
(0.742362 -0.00790782 -1.01009e-18)
(0.787708 -0.019704 -2.31165e-18)
(0.740962 -0.0133262 -1.41769e-18)
(0.742362 -0.00790782 -1.01009e-18)
(0.692329 -0.00811055 1.92775e-18)
(0.821532 -0.0287508 -7.23811e-19)
(0.774697 -0.0186476 1.35705e-18)
(0.787708 -0.019704 -2.31165e-18)
(0.727158 -0.0116275 1.75045e-19)
(0.821532 -0.0287508 -7.23811e-19)
)
;
    }
    procBoundary3to10
    {
        type            processor;
        value           nonuniform List<vector> 
13
(
(1.28485 -0.128131 0)
(1.29446 -0.130952 0)
(1.30066 -0.132079 0)
(1.30163 -0.130985 0)
(1.29517 -0.127173 0)
(1.27893 -0.120275 0)
(1.25069 -0.11017 0)
(1.20871 -0.0970638 0)
(1.15211 -0.0815201 0)
(1.08109 -0.0644014 0)
(0.997038 -0.0467368 0)
(0.902321 -0.0295393 0)
(0.799988 -0.0135658 0)
)
;
    }
}


// ************************************************************************* //
