/*--------------------------------*- C++ -*----------------------------------*\
  =========                 |
  \\      /  F ield         | OpenFOAM: The Open Source CFD Toolbox
   \\    /   O peration     | Website:  https://openfoam.org
    \\  /    A nd           | Version:  7
     \\/     M anipulation  |
\*---------------------------------------------------------------------------*/
FoamFile
{
    version     2.0;
    format      ascii;
    class       volVectorField;
    location    "1.1";
    object      U;
}
// * * * * * * * * * * * * * * * * * * * * * * * * * * * * * * * * * * * * * //

dimensions      [0 1 -1 0 0 0 0];

internalField   nonuniform List<vector> 
100800
(
(3 8.45192e-18 0)
(3 -5.27724e-18 0)
(3 1.36732e-16 0)
(3 9.20263e-18 0)
(3 2.41354e-18 0)
(3 2.91456e-16 0)
(3 1.30851e-16 0)
(3 -2.87564e-16 0)
(3 -7.83767e-16 0)
(3 -4.7892e-16 0)
(3 1.25346e-16 0)
(3 4.35779e-17 0)
(3 -1.4732e-16 0)
(3 2.19767e-16 0)
(3 1.41172e-16 0)
(3 4.4147e-16 0)
(3 4.20082e-16 0)
(3 4.95968e-16 0)
(3 9.45812e-17 0)
(3 1.12558e-15 0)
(3 1.47839e-15 0)
(3 1.11956e-15 0)
(3 6.83607e-16 0)
(3 3.47383e-16 0)
(3 5.19487e-16 0)
(3 -3.02003e-16 0)
(3 -1.00369e-15 0)
(3 -5.84745e-16 0)
(3 -3.04043e-16 0)
(3 1.46184e-16 0)
(3 4.215e-16 0)
(3 7.75961e-16 0)
(3 4.69171e-16 0)
(3 5.52127e-16 0)
(3 2.00636e-16 0)
(3 -1.55138e-16 0)
(3 -5.33225e-17 0)
(3 -2.64367e-16 0)
(3 -4.76471e-16 0)
(3 -4.80117e-16 0)
(3 -2.59604e-16 0)
(3 -9.72695e-17 0)
(3 -3.74578e-16 0)
(3 -4.88833e-16 0)
(3 -4.63175e-16 0)
(3 -1.81004e-16 0)
(3 5.14476e-16 0)
(3 4.96837e-16 0)
(3 -2.95997e-16 0)
(3 -1.56125e-15 0)
(3 -1.8338e-15 0)
(3 -1.1931e-15 0)
(3 -7.95982e-16 0)
(3 -4.81981e-16 0)
(3 -3.264e-16 0)
(3 7.3365e-16 0)
(3 1.49906e-15 0)
(3 1.45892e-15 0)
(3 1.47687e-15 0)
(3 9.05968e-16 0)
(3 -7.8297e-17 0)
(3 1.41191e-16 0)
(3 6.32699e-16 0)
(3 1.70892e-15 0)
(3 1.68223e-15 0)
(3 5.19846e-16 0)
(2.9136 0.000206101 0)
(0.994331 0.00346032 0)
(0.711336 0.0025944 0)
(0.702315 0.00692543 0)
(0.690163 0.0065666 0)
(0.679405 0.00542898 0)
(0.669149 0.00390575 0)
(0.659405 0.00325215 0)
(0.648812 0.00369255 0)
(0.637036 0.00469345 0)
(0.624142 0.00587866 0)
(0.611338 0.00721377 0)
(0.598273 0.00835815 0)
(0.584584 0.00873334 0)
(0.570271 0.00824258 0)
(0.557124 0.00703615 0)
(0.543544 0.0055104 0)
(0.530351 0.00421079 0)
(0.517115 0.00404985 0)
(0.503868 0.00444831 0)
(0.491255 0.00575893 0)
(0.476728 0.00689983 0)
(0.461909 0.00752072 0)
(0.446987 0.00699583 0)
(0.432757 0.00626095 0)
(0.418228 0.00611557 0)
(0.40319 0.0064012 0)
(0.388691 0.00663548 0)
(0.376039 0.00665187 0)
(0.365377 0.00655613 0)
(0.355862 0.00651341 0)
(0.346746 0.00650885 0)
(0.335663 0.00655288 0)
(0.32211 0.00656947 0)
(0.305976 0.00655195 0)
(0.288679 0.00659487 0)
(0.272204 0.00671602 0)
(0.25673 0.00684457 0)
(0.241618 0.00699823 0)
(0.226418 0.00705888 0)
(0.211104 0.00700669 0)
(0.195418 0.00699445 0)
(0.179556 0.00702851 0)
(0.163753 0.00718097 0)
(0.148456 0.00729355 0)
(0.134257 0.00741299 0)
(0.121157 0.00754148 0)
(0.108025 0.00764976 0)
(0.0964111 0.00793978 0)
(0.0830054 0.00825612 0)
(0.0675072 0.00858709 0)
(0.0497012 0.0089314 0)
(0.0302556 0.00912652 0)
(0.0100418 0.00918904 0)
(3 -1.2375e-17 0)
(3 -3.11237e-16 0)
(3 -3.40372e-16 0)
(3 -2.67979e-16 0)
(3 -4.36295e-16 0)
(3 -4.76957e-16 0)
(3 -2.33852e-16 0)
(3 -1.49418e-16 0)
(3 -7.7468e-17 0)
(3 -7.56556e-17 0)
(3 -2.35987e-18 0)
(3 -5.78179e-16 0)
(3 -3.34432e-16 0)
(3 5.30367e-16 0)
(3 6.56508e-16 0)
(3 1.38279e-15 0)
(3 1.58469e-15 0)
(3 1.4132e-15 0)
(3 1.38745e-15 0)
(3 1.56475e-15 0)
(3 1.52281e-15 0)
(3 8.07312e-16 0)
(3 4.66391e-16 0)
(3 -5.38141e-16 0)
(3 -1.15943e-15 0)
(3 -1.61824e-15 0)
(3 -1.91213e-15 0)
(3 -1.5988e-15 0)
(3 -9.89891e-16 0)
(3 -1.27714e-16 0)
(3 -1.52435e-16 0)
(3 4.99519e-16 0)
(3 5.08209e-16 0)
(3 7.50272e-16 0)
(3 4.08488e-16 0)
(3 -8.67229e-17 0)
(3 2.72501e-16 0)
(3 3.56147e-16 0)
(3 -3.41075e-16 0)
(3 -4.92153e-16 0)
(3 -6.94616e-16 0)
(3 -4.67599e-16 0)
(3 6.92569e-17 0)
(3 -2.95073e-16 0)
(3 -3.73042e-16 0)
(3 1.23695e-16 0)
(3 1.80723e-15 0)
(3 1.93853e-15 0)
(3 9.76792e-16 0)
(3 -1.31099e-15 0)
(3 -2.2948e-15 0)
(3 -1.8707e-15 0)
(3 -4.95353e-16 0)
(3 4.87909e-16 0)
(3 7.0731e-16 0)
(3 8.2762e-16 0)
(3 1.61753e-15 0)
(3 1.65681e-15 0)
(3 1.7999e-15 0)
(3 1.94053e-15 0)
(3 5.59556e-16 0)
(3 5.21838e-16 0)
(3 4.97944e-16 0)
(3 1.00264e-15 0)
(3 6.86104e-16 0)
(3 5.4939e-17 0)
(2.91626 0.00383082 0)
(0.995769 0.0180694 0)
(0.707173 0.0113192 0)
(0.700487 0.0170962 0)
(0.690525 0.0178654 0)
(0.680066 0.0160731 0)
(0.669113 0.0127775 0)
(0.657903 0.0105742 0)
(0.646023 0.01097 0)
(0.633585 0.0135386 0)
(0.620297 0.0170299 0)
(0.60738 0.0210161 0)
(0.594381 0.0244211 0)
(0.580963 0.0252521 0)
(0.567312 0.0237198 0)
(0.55504 0.020285 0)
(0.542128 0.016211 0)
(0.52892 0.0128494 0)
(0.515126 0.0122436 0)
(0.501255 0.0133307 0)
(0.488358 0.0169342 0)
(0.473783 0.0201529 0)
(0.459196 0.0218172 0)
(0.444749 0.0204539 0)
(0.430801 0.0186131 0)
(0.416252 0.0182947 0)
(0.401176 0.0191319 0)
(0.386686 0.0197858 0)
(0.374113 0.019879 0)
(0.36347 0.0197156 0)
(0.354024 0.0196931 0)
(0.344851 0.0196974 0)
(0.333774 0.019745 0)
(0.320276 0.0197215 0)
(0.304331 0.0196873 0)
(0.287216 0.0198888 0)
(0.270757 0.0202879 0)
(0.255147 0.0205991 0)
(0.239861 0.0209393 0)
(0.22458 0.0210716 0)
(0.209336 0.0209602 0)
(0.193888 0.0210491 0)
(0.178181 0.0212677 0)
(0.162396 0.0217141 0)
(0.147064 0.0219736 0)
(0.132796 0.0223397 0)
(0.119703 0.0227924 0)
(0.106726 0.0231202 0)
(0.0952411 0.023878 0)
(0.0819839 0.0245133 0)
(0.0668199 0.0253912 0)
(0.0494139 0.0265386 0)
(0.0302193 0.0275651 0)
(0.00994195 0.0281336 0)
(3 -1.6421e-16 0)
(3 -4.24622e-16 0)
(3 -2.80773e-16 0)
(3 -4.50501e-17 0)
(3 -5.47787e-16 0)
(3 -3.90779e-16 0)
(3 1.29729e-16 0)
(3 6.83705e-16 0)
(3 2.02633e-16 0)
(3 -1.91112e-16 0)
(3 -4.97993e-17 0)
(3 -2.1252e-16 0)
(3 -3.67346e-18 0)
(3 8.99565e-16 0)
(3 1.51691e-15 0)
(3 1.50794e-15 0)
(3 2.09459e-15 0)
(3 2.10391e-15 0)
(3 1.96606e-15 0)
(3 1.59253e-15 0)
(3 6.30174e-16 0)
(3 -9.7475e-17 0)
(3 -6.84325e-16 0)
(3 -1.19793e-15 0)
(3 -1.46597e-15 0)
(3 -7.14867e-16 0)
(3 -5.89942e-16 0)
(3 -6.88153e-16 0)
(3 -8.15441e-16 0)
(3 -6.60406e-16 0)
(3 1.14454e-15 0)
(3 3.46244e-15 0)
(3 3.64739e-15 0)
(3 2.13883e-15 0)
(3 1.16363e-15 0)
(3 1.34811e-15 0)
(3 1.35446e-15 0)
(3 1.35437e-15 0)
(3 6.36476e-17 0)
(3 -6.19658e-16 0)
(3 -9.5703e-16 0)
(3 -5.35789e-17 0)
(3 4.48331e-16 0)
(3 4.94173e-16 0)
(3 5.19291e-16 0)
(3 1.4627e-15 0)
(3 2.31082e-15 0)
(3 2.81315e-15 0)
(3 2.15657e-15 0)
(3 5.17917e-16 0)
(3 -6.64887e-16 0)
(3 -9.63553e-16 0)
(3 -1.08758e-15 0)
(3 -1.25645e-15 0)
(3 -7.55818e-16 0)
(3 3.1727e-17 0)
(3 1.67086e-15 0)
(3 2.49764e-15 0)
(3 2.95903e-15 0)
(3 2.91929e-15 0)
(3 2.21787e-15 0)
(3 1.29963e-15 0)
(3 6.63041e-16 0)
(3 7.3453e-16 0)
(3 1.09409e-15 0)
(3 8.80994e-16 0)
(2.92439 0.00900458 0)
(1.0034 0.0336971 0)
(0.708869 0.0204898 0)
(0.704184 0.0265225 0)
(0.694801 0.028435 0)
(0.683908 0.0264025 0)
(0.672147 0.0224105 0)
(0.659323 0.0195647 0)
(0.645464 0.0199695 0)
(0.631532 0.0235604 0)
(0.617273 0.0288442 0)
(0.604024 0.0351052 0)
(0.59106 0.0404016 0)
(0.577996 0.0412626 0)
(0.565299 0.0385037 0)
(0.554251 0.0329815 0)
(0.542217 0.026708 0)
(0.529033 0.0218886 0)
(0.514631 0.0212671 0)
(0.49986 0.0230651 0)
(0.486422 0.0286343 0)
(0.471535 0.0335909 0)
(0.456892 0.0358352 0)
(0.442754 0.0335992 0)
(0.428981 0.0308268 0)
(0.414357 0.0304287 0)
(0.399244 0.0317771 0)
(0.384765 0.0327561 0)
(0.372254 0.0328407 0)
(0.361572 0.0325676 0)
(0.352097 0.032573 0)
(0.342763 0.0326957 0)
(0.331606 0.0328655 0)
(0.318164 0.0329363 0)
(0.30247 0.0329916 0)
(0.285562 0.0333239 0)
(0.26904 0.0338568 0)
(0.253218 0.0342752 0)
(0.23772 0.0347748 0)
(0.222333 0.0350205 0)
(0.207228 0.034996 0)
(0.192018 0.035172 0)
(0.176406 0.0354523 0)
(0.160587 0.0360309 0)
(0.145198 0.0363983 0)
(0.130846 0.0369651 0)
(0.117717 0.0377687 0)
(0.104871 0.0383863 0)
(0.0932712 0.039569 0)
(0.0801134 0.0406962 0)
(0.0654279 0.0421182 0)
(0.0486895 0.0440192 0)
(0.0300286 0.0455779 0)
(0.00974887 0.0466336 0)
(3 -8.08474e-17 0)
(3 1.7298e-16 0)
(3 3.78524e-16 0)
(3 4.81697e-16 0)
(3 5.88888e-16 0)
(3 1.43176e-15 0)
(3 1.20665e-15 0)
(3 8.75104e-16 0)
(3 7.73756e-17 0)
(3 8.39956e-17 0)
(3 6.02815e-16 0)
(3 1.0832e-15 0)
(3 1.05302e-15 0)
(3 7.43315e-16 0)
(3 8.18461e-16 0)
(3 9.83002e-16 0)
(3 1.52672e-15 0)
(3 2.20081e-15 0)
(3 1.90513e-15 0)
(3 1.84294e-15 0)
(3 -4.23974e-16 0)
(3 -1.41974e-15 0)
(3 -2.38237e-15 0)
(3 -1.80031e-15 0)
(3 -9.40412e-16 0)
(3 7.36703e-16 0)
(3 1.43573e-15 0)
(3 6.22264e-16 0)
(3 -7.05115e-16 0)
(3 2.91128e-16 0)
(3 2.03509e-15 0)
(3 2.79166e-15 0)
(3 3.16493e-15 0)
(3 3.78565e-15 0)
(3 2.76985e-15 0)
(3 1.68674e-15 0)
(3 2.64377e-16 0)
(3 -1.34531e-16 0)
(3 -3.20028e-16 0)
(3 -7.23936e-16 0)
(3 -1.22006e-16 0)
(3 7.26084e-16 0)
(3 7.1386e-16 0)
(3 1.37408e-15 0)
(3 1.7481e-15 0)
(3 2.14755e-15 0)
(3 2.35115e-15 0)
(3 2.70715e-15 0)
(3 2.06016e-15 0)
(3 1.5214e-15 0)
(3 1.74285e-15 0)
(3 9.27844e-16 0)
(3 4.11164e-16 0)
(3 5.88219e-16 0)
(3 1.08934e-15 0)
(3 1.34593e-15 0)
(3 1.93554e-15 0)
(3 2.05114e-15 0)
(3 2.27561e-15 0)
(3 2.58071e-15 0)
(3 1.43777e-15 0)
(3 1.14618e-15 0)
(3 1.39788e-15 0)
(3 1.25506e-15 0)
(3 1.55318e-15 0)
(3 1.21328e-15 0)
(2.93663 0.0132512 0)
(1.01595 0.0449255 0)
(0.716581 0.0270935 0)
(0.710401 0.0362889 0)
(0.699717 0.0383899 0)
(0.687894 0.0363741 0)
(0.6754 0.0328038 0)
(0.661451 0.0299943 0)
(0.646163 0.0303855 0)
(0.631001 0.0346428 0)
(0.615825 0.0412445 0)
(0.602403 0.0493566 0)
(0.589621 0.0559963 0)
(0.577131 0.056299 0)
(0.565656 0.0521085 0)
(0.555868 0.044728 0)
(0.544439 0.036774 0)
(0.530967 0.0311835 0)
(0.515877 0.0309544 0)
(0.500179 0.0336574 0)
(0.486182 0.0409448 0)
(0.471006 0.0472907 0)
(0.456285 0.0496595 0)
(0.442413 0.0465631 0)
(0.428684 0.0430549 0)
(0.413872 0.0426618 0)
(0.398647 0.0445028 0)
(0.384101 0.0457634 0)
(0.371558 0.0458096 0)
(0.360765 0.0454302 0)
(0.351109 0.0454748 0)
(0.341512 0.045768 0)
(0.330151 0.0461048 0)
(0.316679 0.0463084 0)
(0.301151 0.0464919 0)
(0.284361 0.0469373 0)
(0.267682 0.0475294 0)
(0.251553 0.0480121 0)
(0.235748 0.0486096 0)
(0.22019 0.0490125 0)
(0.205189 0.0491469 0)
(0.190174 0.0494113 0)
(0.174664 0.04973 0)
(0.158859 0.0503741 0)
(0.143396 0.0508144 0)
(0.128971 0.0514835 0)
(0.115838 0.0526243 0)
(0.103093 0.0535362 0)
(0.0912941 0.0551029 0)
(0.0781103 0.0567925 0)
(0.0637424 0.0588006 0)
(0.0475891 0.0613102 0)
(0.0295043 0.0631952 0)
(0.00948059 0.0646929 0)
(3 -2.99486e-16 0)
(3 -7.597e-17 0)
(3 -7.27143e-17 0)
(3 3.56569e-16 0)
(3 6.0999e-16 0)
(3 5.19065e-16 0)
(3 4.7991e-16 0)
(3 -2.99193e-16 0)
(3 -1.75751e-16 0)
(3 5.29961e-16 0)
(3 6.503e-16 0)
(3 9.47203e-16 0)
(3 1.15211e-15 0)
(3 1.22328e-15 0)
(3 1.75092e-15 0)
(3 1.72711e-15 0)
(3 1.74705e-15 0)
(3 1.16698e-15 0)
(3 1.06459e-15 0)
(3 1.26061e-15 0)
(3 -3.23858e-16 0)
(3 -7.13813e-16 0)
(3 -3.0352e-16 0)
(3 3.37152e-16 0)
(3 1.26195e-15 0)
(3 1.40411e-15 0)
(3 1.41273e-15 0)
(3 1.06459e-15 0)
(3 6.97239e-16 0)
(3 8.20282e-16 0)
(3 1.16017e-15 0)
(3 1.18762e-15 0)
(3 1.93347e-15 0)
(3 1.68631e-15 0)
(3 1.52961e-15 0)
(3 1.08376e-15 0)
(3 8.00073e-16 0)
(3 -4.79531e-16 0)
(3 -6.36349e-16 0)
(3 -1.76562e-16 0)
(3 1.77967e-16 0)
(3 3.58093e-16 0)
(3 1.40182e-15 0)
(3 1.65407e-15 0)
(3 2.40108e-15 0)
(3 1.4971e-15 0)
(3 8.37756e-16 0)
(3 8.06461e-16 0)
(3 9.15712e-16 0)
(3 1.97396e-15 0)
(3 2.49847e-15 0)
(3 1.0667e-15 0)
(3 9.18137e-16 0)
(3 1.95531e-15 0)
(3 2.15806e-15 0)
(3 2.41547e-15 0)
(3 9.1955e-16 0)
(3 -1.53848e-16 0)
(3 8.63542e-17 0)
(3 1.77815e-15 0)
(3 2.2326e-15 0)
(3 1.67201e-15 0)
(3 9.85205e-16 0)
(3 -6.65433e-16 0)
(3 -1.14679e-15 0)
(3 -8.97147e-16 0)
(2.9542 0.00493799 0)
(1.04197 0.054121 0)
(0.725841 0.0380477 0)
(0.714486 0.0471853 0)
(0.702038 0.0485527 0)
(0.68933 0.0465676 0)
(0.67628 0.0437372 0)
(0.662059 0.0412184 0)
(0.646398 0.0416756 0)
(0.630814 0.0464163 0)
(0.615062 0.0539973 0)
(0.601625 0.063614 0)
(0.588951 0.0709243 0)
(0.577136 0.0701569 0)
(0.566828 0.064608 0)
(0.557948 0.0558261 0)
(0.546739 0.0468579 0)
(0.532823 0.0410526 0)
(0.517078 0.0414124 0)
(0.500625 0.0450503 0)
(0.486277 0.0537252 0)
(0.471046 0.0610174 0)
(0.456447 0.0631797 0)
(0.442971 0.0592926 0)
(0.429337 0.0552232 0)
(0.41442 0.0548968 0)
(0.399157 0.057229 0)
(0.384582 0.0587838 0)
(0.372013 0.0588317 0)
(0.361153 0.0583928 0)
(0.351289 0.0584983 0)
(0.341463 0.0589777 0)
(0.329878 0.059512 0)
(0.316343 0.059883 0)
(0.300901 0.0602511 0)
(0.284117 0.0607861 0)
(0.267194 0.0613564 0)
(0.250695 0.0618392 0)
(0.23457 0.0625151 0)
(0.218788 0.0630703 0)
(0.203828 0.0634198 0)
(0.188864 0.0638157 0)
(0.173301 0.0641573 0)
(0.157532 0.0648086 0)
(0.141871 0.0652726 0)
(0.127372 0.0659985 0)
(0.114296 0.067375 0)
(0.101624 0.0685508 0)
(0.0896036 0.0704469 0)
(0.0762747 0.0727291 0)
(0.0619653 0.0753063 0)
(0.0461797 0.0783514 0)
(0.0286045 0.0804136 0)
(0.0091629 0.0823142 0)
(3 8.58687e-17 0)
(3 -3.73219e-16 0)
(3 -6.83624e-16 0)
(3 -2.20365e-16 0)
(3 -3.44219e-16 0)
(3 -4.71697e-16 0)
(3 -1.77739e-16 0)
(3 -4.09512e-17 0)
(3 -6.82042e-17 0)
(3 -3.5041e-16 0)
(3 -1.95052e-16 0)
(3 1.95807e-17 0)
(3 1.16653e-15 0)
(3 2.36375e-15 0)
(3 2.1301e-15 0)
(3 1.34596e-15 0)
(3 6.69101e-16 0)
(3 4.39344e-16 0)
(3 7.23064e-16 0)
(3 4.58453e-16 0)
(3 5.83694e-17 0)
(3 -1.16573e-15 0)
(3 -6.38393e-16 0)
(3 7.47626e-16 0)
(3 5.64886e-16 0)
(3 2.29449e-16 0)
(3 1.37096e-16 0)
(3 2.67229e-16 0)
(3 1.05351e-15 0)
(3 8.23501e-16 0)
(3 7.75013e-16 0)
(3 8.99171e-16 0)
(3 1.08107e-15 0)
(3 6.17786e-16 0)
(3 1.12835e-15 0)
(3 1.60573e-15 0)
(3 2.00172e-15 0)
(3 1.94377e-15 0)
(3 7.90695e-16 0)
(3 -6.81823e-17 0)
(3 -5.48477e-17 0)
(3 6.53283e-16 0)
(3 1.07467e-15 0)
(3 1.11354e-15 0)
(3 1.01626e-15 0)
(3 8.08386e-16 0)
(3 1.40485e-16 0)
(3 -4.09574e-16 0)
(3 -6.68312e-16 0)
(3 1.22378e-15 0)
(3 1.97205e-15 0)
(3 2.04974e-15 0)
(3 1.61361e-15 0)
(3 1.29356e-15 0)
(3 9.51548e-16 0)
(3 1.14954e-15 0)
(3 3.03931e-16 0)
(3 1.9274e-16 0)
(3 7.52815e-16 0)
(3 1.1834e-15 0)
(3 1.83335e-15 0)
(3 1.67168e-15 0)
(3 1.33472e-15 0)
(3 -1.23008e-16 0)
(3 -2.72385e-16 0)
(3 -7.43071e-16 0)
(2.98619 0.00333426 0)
(1.07521 0.0601464 0)
(0.73029 0.0498136 0)
(0.715699 0.0575094 0)
(0.702736 0.0583781 0)
(0.689933 0.0564014 0)
(0.677014 0.0542442 0)
(0.662982 0.0523182 0)
(0.64724 0.0532426 0)
(0.63125 0.0586373 0)
(0.614619 0.0672243 0)
(0.600902 0.0781144 0)
(0.587975 0.0852848 0)
(0.576923 0.0831061 0)
(0.567592 0.0763735 0)
(0.559563 0.0665208 0)
(0.548549 0.0570213 0)
(0.534468 0.051354 0)
(0.518408 0.0523885 0)
(0.501585 0.0570231 0)
(0.487056 0.0667971 0)
(0.471915 0.0747461 0)
(0.457394 0.0764877 0)
(0.444254 0.0718739 0)
(0.430675 0.0673735 0)
(0.41571 0.067135 0)
(0.400487 0.0699481 0)
(0.385927 0.0718301 0)
(0.373344 0.0719495 0)
(0.362461 0.0715071 0)
(0.352411 0.0716759 0)
(0.342443 0.0722974 0)
(0.33068 0.0730328 0)
(0.317062 0.0735835 0)
(0.301635 0.0741695 0)
(0.284766 0.0748185 0)
(0.267547 0.0753458 0)
(0.250664 0.0758163 0)
(0.234283 0.0765639 0)
(0.218296 0.0772309 0)
(0.203323 0.0777932 0)
(0.188316 0.0783986 0)
(0.172573 0.0788087 0)
(0.156772 0.0794989 0)
(0.140854 0.079984 0)
(0.126289 0.0807035 0)
(0.113322 0.082184 0)
(0.10067 0.0835216 0)
(0.0884897 0.0856344 0)
(0.0749076 0.0884524 0)
(0.0603285 0.0915519 0)
(0.0445652 0.095118 0)
(0.0273071 0.0973191 0)
(0.00879791 0.0996692 0)
(3 3.20032e-16 0)
(3 -3.30408e-17 0)
(3 -1.92323e-16 0)
(3 -1.00031e-15 0)
(3 -1.0167e-15 0)
(3 -1.13507e-15 0)
(3 -9.7869e-16 0)
(3 -4.20103e-16 0)
(3 -5.7802e-16 0)
(3 -7.71477e-16 0)
(3 -1.02535e-15 0)
(3 -1.01881e-15 0)
(3 1.99766e-16 0)
(3 7.29047e-16 0)
(3 4.5522e-16 0)
(3 -7.00619e-17 0)
(3 -4.64179e-16 0)
(3 4.54802e-18 0)
(3 2.75087e-16 0)
(3 8.82908e-16 0)
(3 1.46108e-15 0)
(3 1.39432e-15 0)
(3 9.28219e-16 0)
(3 -1.24583e-15 0)
(3 -1.44083e-15 0)
(3 -1.70598e-15 0)
(3 -1.58543e-15 0)
(3 -5.85479e-16 0)
(3 5.24004e-16 0)
(3 1.09618e-15 0)
(3 1.20417e-15 0)
(3 -2.55052e-17 0)
(3 -7.51449e-16 0)
(3 -5.06805e-17 0)
(3 7.69937e-16 0)
(3 1.17636e-15 0)
(3 1.60852e-15 0)
(3 2.38045e-15 0)
(3 2.02636e-15 0)
(3 1.54502e-15 0)
(3 9.77554e-16 0)
(3 7.19341e-16 0)
(3 4.62496e-16 0)
(3 7.52002e-16 0)
(3 9.68802e-16 0)
(3 8.42249e-16 0)
(3 7.94875e-16 0)
(3 4.12202e-16 0)
(3 6.84431e-16 0)
(3 1.76647e-15 0)
(3 2.8375e-15 0)
(3 3.50412e-15 0)
(3 3.39516e-15 0)
(3 1.94155e-15 0)
(3 1.77035e-15 0)
(3 1.42994e-15 0)
(3 1.5649e-15 0)
(3 1.85444e-15 0)
(3 1.80724e-15 0)
(3 1.11331e-15 0)
(3 6.92231e-16 0)
(3 1.12168e-15 0)
(3 1.01827e-15 0)
(3 2.55723e-16 0)
(3 -6.74813e-16 0)
(3 -8.65473e-16 0)
(2.99988 0.000143884 0)
(1.10989 0.0722124 0)
(0.732184 0.0622049 0)
(0.716336 0.0670692 0)
(0.703854 0.0675871 0)
(0.690784 0.0659526 0)
(0.678061 0.0644464 0)
(0.664162 0.0633825 0)
(0.648355 0.0651203 0)
(0.631847 0.071458 0)
(0.614383 0.0811905 0)
(0.600146 0.0929824 0)
(0.586818 0.0991015 0)
(0.576762 0.0953027 0)
(0.568279 0.087414 0)
(0.561267 0.0766069 0)
(0.550307 0.0670397 0)
(0.536238 0.061766 0)
(0.520013 0.0635688 0)
(0.50302 0.0693331 0)
(0.488263 0.0800343 0)
(0.473079 0.0884168 0)
(0.458436 0.0897237 0)
(0.445486 0.0844933 0)
(0.431977 0.0796282 0)
(0.417098 0.0794273 0)
(0.402076 0.082659 0)
(0.387613 0.0848798 0)
(0.375005 0.0851565 0)
(0.364035 0.0847986 0)
(0.353777 0.0850604 0)
(0.343681 0.0857698 0)
(0.331791 0.0866826 0)
(0.318063 0.0873941 0)
(0.30259 0.088191 0)
(0.285584 0.0889898 0)
(0.268077 0.0895011 0)
(0.250869 0.0899714 0)
(0.234358 0.0907696 0)
(0.218303 0.0915121 0)
(0.20336 0.0922486 0)
(0.188348 0.0930825 0)
(0.172474 0.093629 0)
(0.156489 0.0944494 0)
(0.140331 0.0950233 0)
(0.125703 0.0957505 0)
(0.112923 0.0971605 0)
(0.100269 0.0985297 0)
(0.0880756 0.100738 0)
(0.0742032 0.103941 0)
(0.0590989 0.107472 0)
(0.0430235 0.111589 0)
(0.0258329 0.114028 0)
(0.00843512 0.116929 0)
(3 -2.00746e-16 0)
(3 6.19866e-17 0)
(3 2.14904e-16 0)
(3 -1.23717e-16 0)
(3 2.96677e-16 0)
(3 -8.92959e-17 0)
(3 -3.05397e-16 0)
(3 -7.13962e-16 0)
(3 -3.0344e-16 0)
(3 -3.36643e-18 0)
(3 -1.26312e-16 0)
(3 -4.39056e-16 0)
(3 -1.29184e-15 0)
(3 -1.78165e-15 0)
(3 -1.18555e-15 0)
(3 -5.24051e-16 0)
(3 -6.80253e-16 0)
(3 1.95386e-16 0)
(3 6.62325e-16 0)
(3 5.94688e-16 0)
(3 7.31972e-16 0)
(3 1.38102e-15 0)
(3 9.92478e-16 0)
(3 -1.19558e-15 0)
(3 -1.08134e-15 0)
(3 -1.62981e-15 0)
(3 -1.69249e-15 0)
(3 -1.40101e-15 0)
(3 -9.64364e-16 0)
(3 -8.12117e-16 0)
(3 -6.61677e-16 0)
(3 -1.03451e-15 0)
(3 -1.25305e-15 0)
(3 -5.79205e-16 0)
(3 3.27896e-16 0)
(3 9.63433e-16 0)
(3 1.03957e-15 0)
(3 7.7824e-16 0)
(3 1.581e-15 0)
(3 2.7396e-15 0)
(3 2.93974e-15 0)
(3 4.36008e-16 0)
(3 -2.20001e-16 0)
(3 1.61884e-17 0)
(3 1.67689e-16 0)
(3 6.43384e-16 0)
(3 8.7006e-16 0)
(3 7.8486e-16 0)
(3 6.70959e-16 0)
(3 1.12608e-15 0)
(3 2.08454e-15 0)
(3 2.65612e-15 0)
(3 2.57103e-15 0)
(3 2.64388e-15 0)
(3 2.52022e-15 0)
(3 1.9112e-15 0)
(3 2.19361e-15 0)
(3 2.05892e-15 0)
(3 1.76621e-15 0)
(3 1.40248e-15 0)
(3 1.0796e-15 0)
(3 8.58634e-16 0)
(3 1.0349e-15 0)
(3 7.49195e-16 0)
(3 3.91223e-16 0)
(3 -1.63669e-16 0)
(3 7.73195e-08 0)
(1.15411 0.0833786 0)
(0.735277 0.0737987 0)
(0.717583 0.0759 0)
(0.705716 0.0764791 0)
(0.692245 0.0754399 0)
(0.679573 0.0745759 0)
(0.665605 0.0745399 0)
(0.649572 0.0773622 0)
(0.632319 0.0849434 0)
(0.614027 0.0960165 0)
(0.599036 0.10812 0)
(0.585353 0.112271 0)
(0.576516 0.106798 0)
(0.568753 0.0977256 0)
(0.562925 0.0860814 0)
(0.551913 0.0768899 0)
(0.538034 0.0722259 0)
(0.521804 0.0748428 0)
(0.504811 0.0818937 0)
(0.489737 0.0934466 0)
(0.474356 0.102115 0)
(0.459444 0.102988 0)
(0.446639 0.0972085 0)
(0.43326 0.092012 0)
(0.418581 0.0917799 0)
(0.403858 0.0953561 0)
(0.38949 0.0979251 0)
(0.376757 0.0984427 0)
(0.365521 0.0982586 0)
(0.355003 0.0986627 0)
(0.344787 0.0994176 0)
(0.332887 0.100442 0)
(0.319154 0.101261 0)
(0.303701 0.102204 0)
(0.286622 0.103173 0)
(0.268909 0.103749 0)
(0.251462 0.104288 0)
(0.234811 0.105168 0)
(0.218885 0.105983 0)
(0.20389 0.106828 0)
(0.188918 0.107829 0)
(0.172982 0.108538 0)
(0.15665 0.109565 0)
(0.140239 0.110313 0)
(0.125439 0.111161 0)
(0.11286 0.11241 0)
(0.100173 0.113707 0)
(0.0881357 0.115866 0)
(0.074027 0.119243 0)
(0.0583295 0.123074 0)
(0.0417621 0.127768 0)
(0.0244524 0.130607 0)
(0.00811468 0.134167 0)
(3 -1.88393e-16 0)
(3 3.05608e-16 0)
(3 8.32541e-16 0)
(3 1.32918e-15 0)
(3 1.41481e-15 0)
(3 9.95941e-16 0)
(3 3.18411e-16 0)
(3 -1.21299e-16 0)
(3 1.75886e-16 0)
(3 3.1564e-16 0)
(3 1.2204e-16 0)
(3 -4.90073e-16 0)
(3 -1.3851e-15 0)
(3 -1.43991e-15 0)
(3 -6.69975e-16 0)
(3 1.15761e-16 0)
(3 3.80593e-17 0)
(3 -1.89825e-16 0)
(3 -5.75813e-16 0)
(3 -1.1405e-15 0)
(3 -7.83491e-16 0)
(3 3.30183e-16 0)
(3 6.80028e-16 0)
(3 -1.90027e-17 0)
(3 -5.41871e-18 0)
(3 4.19672e-16 0)
(3 4.86171e-16 0)
(3 -1.07108e-16 0)
(3 -1.35383e-15 0)
(3 -2.16504e-15 0)
(3 -2.16272e-15 0)
(3 -1.79286e-15 0)
(3 -8.32354e-16 0)
(3 -3.60673e-17 0)
(3 2.8448e-16 0)
(3 6.17955e-16 0)
(3 6.56555e-16 0)
(3 7.5133e-16 0)
(3 1.53214e-15 0)
(3 2.21373e-15 0)
(3 2.7728e-15 0)
(3 2.94153e-15 0)
(3 1.78026e-15 0)
(3 1.12934e-15 0)
(3 1.12979e-15 0)
(3 1.37213e-15 0)
(3 1.3524e-15 0)
(3 1.08695e-15 0)
(3 3.99437e-16 0)
(3 -1.20903e-16 0)
(3 1.77248e-16 0)
(3 1.43564e-15 0)
(3 2.72465e-15 0)
(3 3.3881e-15 0)
(3 2.37993e-15 0)
(3 2.06404e-15 0)
(3 2.00732e-15 0)
(3 1.67444e-15 0)
(3 1.00415e-15 0)
(3 1.16157e-15 0)
(3 1.95969e-15 0)
(3 1.72446e-15 0)
(3 1.51778e-15 0)
(3 2.2608e-15 0)
(3 2.30307e-15 0)
(3 4.53638e-16 0)
(3 1.82195e-12 0)
(1.20732 0.0948846 0)
(0.739802 0.0851632 0)
(0.719432 0.0843994 0)
(0.708122 0.0851297 0)
(0.694019 0.0850072 0)
(0.681112 0.0848761 0)
(0.666785 0.0860957 0)
(0.65022 0.0902789 0)
(0.632009 0.0993191 0)
(0.613069 0.111779 0)
(0.597351 0.123246 0)
(0.58381 0.124606 0)
(0.576545 0.117474 0)
(0.569504 0.107223 0)
(0.565019 0.0949063 0)
(0.554114 0.08633 0)
(0.540557 0.0825949 0)
(0.524318 0.0861228 0)
(0.507256 0.0946549 0)
(0.491612 0.107068 0)
(0.475827 0.115877 0)
(0.460553 0.116256 0)
(0.447856 0.109987 0)
(0.434604 0.104527 0)
(0.42014 0.104247 0)
(0.405735 0.108124 0)
(0.391457 0.111039 0)
(0.378584 0.111801 0)
(0.367038 0.111781 0)
(0.356324 0.112334 0)
(0.346055 0.11311 0)
(0.334292 0.114158 0)
(0.320674 0.11506 0)
(0.305281 0.116102 0)
(0.288167 0.117256 0)
(0.270271 0.118033 0)
(0.252584 0.118758 0)
(0.235729 0.119818 0)
(0.219928 0.120744 0)
(0.204786 0.121624 0)
(0.189919 0.122674 0)
(0.174008 0.123494 0)
(0.157306 0.12473 0)
(0.14069 0.125702 0)
(0.125585 0.126817 0)
(0.11312 0.128094 0)
(0.100334 0.129118 0)
(0.0885349 0.131191 0)
(0.0742941 0.134524 0)
(0.0581013 0.13849 0)
(0.0410322 0.14372 0)
(0.0234863 0.147064 0)
(0.00788774 0.151333 0)
(3 6.91629e-17 0)
(3 3.5097e-16 0)
(3 9.39008e-17 0)
(3 1.79788e-16 0)
(3 -7.85573e-17 0)
(3 -2.72352e-16 0)
(3 7.7897e-17 0)
(3 7.90211e-16 0)
(3 4.16048e-16 0)
(3 -3.18474e-16 0)
(3 -6.81871e-16 0)
(3 -1.82569e-15 0)
(3 -1.9183e-15 0)
(3 -1.42783e-15 0)
(3 -1.77028e-15 0)
(3 -1.35923e-15 0)
(3 -1.01796e-15 0)
(3 -1.36455e-15 0)
(3 -1.94177e-15 0)
(3 -2.12898e-15 0)
(3 -1.47196e-15 0)
(3 8.76839e-17 0)
(3 1.40892e-15 0)
(3 1.60817e-15 0)
(3 1.2223e-15 0)
(3 1.40341e-15 0)
(3 1.43383e-15 0)
(3 1.10468e-15 0)
(3 5.33821e-16 0)
(3 -3.62901e-16 0)
(3 -8.39769e-16 0)
(3 -5.61417e-16 0)
(3 -4.19202e-16 0)
(3 -4.99261e-16 0)
(3 -5.94167e-16 0)
(3 -5.46991e-16 0)
(3 -3.70723e-16 0)
(3 8.45422e-17 0)
(3 1.9339e-16 0)
(3 5.09994e-16 0)
(3 8.97895e-16 0)
(3 1.8015e-15 0)
(3 1.70876e-15 0)
(3 1.56144e-15 0)
(3 8.85311e-16 0)
(3 5.45131e-16 0)
(3 1.19385e-15 0)
(3 1.59263e-15 0)
(3 1.3791e-15 0)
(3 6.52037e-16 0)
(3 6.38464e-16 0)
(3 1.22847e-15 0)
(3 1.9433e-15 0)
(3 1.72486e-15 0)
(3 2.26842e-15 0)
(3 2.41503e-15 0)
(3 2.62173e-15 0)
(3 2.75795e-15 0)
(3 2.06081e-15 0)
(3 1.67089e-15 0)
(3 1.90163e-15 0)
(3 1.36784e-15 0)
(3 7.05329e-16 0)
(3 7.37632e-16 0)
(3 1.05323e-15 0)
(3 1.19186e-15 0)
(3 -4.23127e-15 0)
(1.27152 0.107018 0)
(0.745499 0.0964483 0)
(0.721876 0.0927064 0)
(0.71066 0.094148 0)
(0.695627 0.0948914 0)
(0.682141 0.095657 0)
(0.667291 0.0981497 0)
(0.650112 0.104072 0)
(0.630929 0.114818 0)
(0.61171 0.128365 0)
(0.595622 0.137807 0)
(0.58311 0.135857 0)
(0.577762 0.127051 0)
(0.571105 0.115955 0)
(0.567959 0.103091 0)
(0.55734 0.095355 0)
(0.544039 0.0929933 0)
(0.527509 0.0975972 0)
(0.510182 0.107772 0)
(0.493733 0.121007 0)
(0.47746 0.129698 0)
(0.461919 0.129434 0)
(0.449388 0.122715 0)
(0.436264 0.117088 0)
(0.421992 0.11681 0)
(0.407873 0.120983 0)
(0.393672 0.124251 0)
(0.380674 0.125198 0)
(0.368848 0.125245 0)
(0.35795 0.12592 0)
(0.347612 0.126746 0)
(0.335969 0.127779 0)
(0.322469 0.128804 0)
(0.307118 0.129947 0)
(0.289998 0.13128 0)
(0.271982 0.132371 0)
(0.254091 0.133379 0)
(0.237013 0.13471 0)
(0.221226 0.135799 0)
(0.205864 0.136712 0)
(0.191164 0.13769 0)
(0.175357 0.138509 0)
(0.158389 0.139877 0)
(0.14168 0.141053 0)
(0.1262 0.142529 0)
(0.113616 0.144064 0)
(0.100647 0.14505 0)
(0.088967 0.146796 0)
(0.0746969 0.150035 0)
(0.058245 0.153951 0)
(0.0408455 0.159573 0)
(0.0230671 0.163372 0)
(0.00775808 0.168288 0)
(3 2.74624e-16 0)
(3 2.24412e-16 0)
(3 -1.44824e-16 0)
(3 -3.17504e-16 0)
(3 -7.6022e-16 0)
(3 -4.63116e-16 0)
(3 2.47886e-16 0)
(3 3.99114e-16 0)
(3 3.08533e-16 0)
(3 1.10441e-16 0)
(3 -7.30393e-16 0)
(3 -1.08047e-15 0)
(3 -1.18908e-15 0)
(3 -1.64469e-15 0)
(3 -1.81984e-15 0)
(3 -1.67899e-15 0)
(3 -1.2522e-15 0)
(3 -1.3251e-15 0)
(3 -7.87463e-16 0)
(3 -5.88372e-16 0)
(3 -1.58715e-16 0)
(3 -3.47446e-16 0)
(3 -4.29322e-16 0)
(3 4.61887e-16 0)
(3 4.25597e-16 0)
(3 1.36185e-16 0)
(3 -4.70144e-17 0)
(3 1.67862e-16 0)
(3 3.99904e-16 0)
(3 4.21715e-16 0)
(3 -4.4298e-16 0)
(3 -9.40455e-16 0)
(3 -1.35916e-15 0)
(3 -1.12868e-15 0)
(3 -8.42111e-16 0)
(3 -1.11621e-15 0)
(3 -1.54737e-15 0)
(3 -1.46429e-15 0)
(3 -1.5186e-15 0)
(3 -1.1532e-15 0)
(3 -1.9844e-16 0)
(3 2.6448e-16 0)
(3 9.83496e-16 0)
(3 7.41684e-16 0)
(3 -4.10816e-16 0)
(3 -1.30186e-15 0)
(3 -4.32119e-16 0)
(3 9.94353e-16 0)
(3 2.0939e-15 0)
(3 2.84721e-15 0)
(3 3.15468e-15 0)
(3 2.06406e-15 0)
(3 1.77063e-15 0)
(3 1.35246e-15 0)
(3 2.22653e-15 0)
(3 2.43504e-15 0)
(3 1.99462e-15 0)
(3 1.83885e-15 0)
(3 1.84226e-15 0)
(3 1.83626e-15 0)
(3 1.46691e-15 0)
(3 8.30364e-16 0)
(3 -5.57097e-16 0)
(3 -4.21183e-16 0)
(3 1.67037e-16 0)
(3 8.12078e-16 0)
(3 -3.56542e-15 0)
(1.3499 0.1184 0)
(0.75199 0.107534 0)
(0.724322 0.10139 0)
(0.712415 0.103957 0)
(0.696917 0.105057 0)
(0.683011 0.10662 0)
(0.66747 0.11058 0)
(0.649377 0.118807 0)
(0.628985 0.131527 0)
(0.609801 0.1452 0)
(0.594201 0.150936 0)
(0.583945 0.14584 0)
(0.58072 0.135408 0)
(0.574305 0.123951 0)
(0.571859 0.110908 0)
(0.561303 0.104274 0)
(0.54806 0.103816 0)
(0.530853 0.109597 0)
(0.51312 0.121447 0)
(0.495759 0.135325 0)
(0.479017 0.143499 0)
(0.46342 0.142383 0)
(0.451178 0.135233 0)
(0.438189 0.129546 0)
(0.424077 0.129378 0)
(0.410177 0.133903 0)
(0.396017 0.137604 0)
(0.382899 0.1387 0)
(0.370905 0.138704 0)
(0.359824 0.139451 0)
(0.349432 0.140364 0)
(0.337842 0.14138 0)
(0.324446 0.142566 0)
(0.309155 0.143835 0)
(0.292095 0.145309 0)
(0.274099 0.146748 0)
(0.256117 0.148062 0)
(0.238827 0.149719 0)
(0.222727 0.151062 0)
(0.207385 0.152071 0)
(0.19259 0.15295 0)
(0.176888 0.153627 0)
(0.159896 0.155027 0)
(0.143219 0.156337 0)
(0.127469 0.158176 0)
(0.114524 0.160177 0)
(0.101262 0.16138 0)
(0.08941 0.162974 0)
(0.075081 0.165936 0)
(0.0586215 0.169708 0)
(0.0411368 0.175487 0)
(0.0232126 0.179528 0)
(0.00774114 0.1849 0)
(3 1.76597e-16 0)
(3 1.37788e-16 0)
(3 1.48353e-16 0)
(3 -2.13749e-16 0)
(3 -1.04225e-16 0)
(3 2.15451e-17 0)
(3 -3.0041e-16 0)
(3 -8.2733e-16 0)
(3 -1.05812e-15 0)
(3 -4.60251e-16 0)
(3 2.93564e-17 0)
(3 4.95723e-16 0)
(3 -4.4976e-17 0)
(3 -1.24625e-15 0)
(3 -1.24863e-15 0)
(3 -1.44456e-15 0)
(3 -1.53291e-15 0)
(3 -1.52737e-15 0)
(3 -9.27443e-16 0)
(3 -1.58264e-16 0)
(3 3.86972e-16 0)
(3 3.84187e-16 0)
(3 -7.928e-16 0)
(3 -5.92751e-16 0)
(3 -1.60676e-16 0)
(3 -1.99209e-16 0)
(3 -2.03843e-16 0)
(3 -5.10215e-16 0)
(3 -4.96667e-16 0)
(3 -8.74521e-16 0)
(3 -9.09005e-16 0)
(3 -1.75713e-15 0)
(3 -1.95103e-15 0)
(3 -1.16501e-15 0)
(3 -1.13043e-15 0)
(3 -1.44763e-15 0)
(3 -2.10066e-15 0)
(3 -2.35634e-15 0)
(3 -1.84072e-15 0)
(3 -1.29643e-15 0)
(3 -9.51444e-16 0)
(3 -8.93918e-16 0)
(3 -2.98781e-16 0)
(3 -2.9837e-16 0)
(3 -5.7675e-16 0)
(3 -1.34473e-15 0)
(3 -2.23808e-15 0)
(3 -1.43378e-15 0)
(3 -3.4376e-16 0)
(3 1.31987e-15 0)
(3 2.03224e-15 0)
(3 2.65781e-15 0)
(3 2.95687e-15 0)
(3 3.54381e-15 0)
(3 3.24539e-15 0)
(3 2.73361e-15 0)
(3 1.67777e-15 0)
(3 1.36743e-15 0)
(3 1.75158e-15 0)
(3 1.96493e-15 0)
(3 1.94639e-15 0)
(3 1.28108e-15 0)
(3 -8.97537e-16 0)
(3 -1.53134e-15 0)
(3 -1.33974e-15 0)
(3 -1.15953e-15 0)
(3 6.87771e-16 0)
(1.44288 0.128895 0)
(0.75951 0.119243 0)
(0.726274 0.11065 0)
(0.714071 0.114002 0)
(0.698486 0.115314 0)
(0.683985 0.117932 0)
(0.667293 0.123875 0)
(0.64785 0.134843 0)
(0.626409 0.149249 0)
(0.607706 0.160985 0)
(0.593921 0.161829 0)
(0.58715 0.154371 0)
(0.584582 0.142717 0)
(0.58023 0.13089 0)
(0.576427 0.118747 0)
(0.565424 0.113534 0)
(0.552224 0.115381 0)
(0.533913 0.122377 0)
(0.51567 0.13588 0)
(0.497372 0.150073 0)
(0.480272 0.157201 0)
(0.464952 0.154978 0)
(0.45327 0.147358 0)
(0.440544 0.141678 0)
(0.426655 0.141727 0)
(0.412952 0.146688 0)
(0.39878 0.150988 0)
(0.385467 0.15233 0)
(0.373367 0.152264 0)
(0.362095 0.153039 0)
(0.351659 0.154048 0)
(0.340033 0.15506 0)
(0.326687 0.156393 0)
(0.311453 0.157827 0)
(0.294479 0.159416 0)
(0.276612 0.161141 0)
(0.258651 0.162744 0)
(0.241204 0.16472 0)
(0.224761 0.16642 0)
(0.209134 0.167641 0)
(0.194078 0.168478 0)
(0.178381 0.168949 0)
(0.161591 0.170292 0)
(0.145025 0.171644 0)
(0.129252 0.173786 0)
(0.115842 0.176325 0)
(0.102243 0.177968 0)
(0.0898295 0.179606 0)
(0.0752887 0.182359 0)
(0.0589613 0.185876 0)
(0.041653 0.191617 0)
(0.0237248 0.195589 0)
(0.00783249 0.201164 0)
(3 -1.25333e-16 0)
(3 -5.53566e-16 0)
(3 -9.32425e-16 0)
(3 -1.14065e-15 0)
(3 -7.18786e-16 0)
(3 -8.23495e-16 0)
(3 -1.25176e-15 0)
(3 -1.03671e-15 0)
(3 -5.72081e-16 0)
(3 4.39801e-16 0)
(3 1.67763e-15 0)
(3 2.10092e-15 0)