/*--------------------------------*- C++ -*----------------------------------*\
  =========                 |
  \\      /  F ield         | OpenFOAM: The Open Source CFD Toolbox
   \\    /   O peration     | Website:  https://openfoam.org
    \\  /    A nd           | Version:  7
     \\/     M anipulation  |
\*---------------------------------------------------------------------------*/
FoamFile
{
    version     2.0;
    format      ascii;
    class       volScalarField;
    location    "5.999266";
    object      p;
}
// * * * * * * * * * * * * * * * * * * * * * * * * * * * * * * * * * * * * * //

dimensions      [0 2 -2 0 0 0 0];

internalField   nonuniform List<scalar> 
23200
(
-0.331169
-0.335697
-0.338331
-0.339768
-0.340343
-0.340025
-0.338824
-0.336764
-0.333859
-0.330117
-0.325546
-0.320156
-0.313961
-0.306986
-0.299273
-0.290887
-0.28192
-0.272537
-0.262888
-0.252754
-0.332075
-0.336498
-0.339054
-0.340426
-0.340942
-0.340571
-0.339323
-0.337222
-0.334281
-0.330508
-0.325909
-0.320494
-0.314276
-0.307278
-0.299541
-0.291124
-0.282119
-0.2727
-0.262993
-0.252611
-0.333877
-0.338091
-0.340493
-0.341735
-0.342132
-0.341656
-0.340315
-0.338131
-0.335118
-0.331282
-0.326628
-0.321164
-0.3149
-0.307857
-0.30007
-0.291594
-0.282511
-0.273019
-0.263205
-0.252327
-0.336553
-0.340458
-0.342631
-0.343681
-0.343902
-0.343267
-0.341786
-0.33948
-0.336358
-0.332427
-0.32769
-0.322152
-0.315819
-0.308707
-0.300847
-0.292283
-0.283088
-0.273486
-0.263521
-0.251904
-0.340074
-0.343575
-0.345448
-0.346243
-0.346231
-0.345387
-0.34372
-0.341249
-0.337982
-0.333925
-0.329077
-0.323438
-0.317014
-0.309812
-0.301854
-0.293176
-0.283835
-0.274089
-0.263938
-0.251347
-0.344402
-0.34741
-0.348914
-0.349397
-0.349097
-0.347993
-0.346094
-0.343417
-0.339969
-0.335752
-0.330764
-0.325001
-0.318461
-0.311146
-0.30307
-0.294253
-0.284736
-0.274812
-0.264451
-0.250664
-0.349491
-0.351926
-0.352998
-0.353112
-0.352469
-0.351056
-0.34888
-0.345957
-0.342291
-0.337882
-0.332725
-0.326812
-0.320134
-0.312685
-0.304469
-0.295491
-0.28577
-0.275637
-0.265055
-0.249862
-0.355294
-0.357081
-0.357662
-0.357354
-0.356319
-0.354548
-0.352052
-0.348842
-0.344922
-0.340288
-0.334933
-0.328843
-0.322004
-0.3144
-0.306024
-0.296866
-0.286917
-0.276545
-0.265742
-0.248953
-0.361757
-0.362832
-0.362868
-0.362088
-0.360612
-0.358439
-0.355579
-0.352043
-0.347832
-0.342941
-0.337359
-0.331067
-0.324043
-0.316264
-0.307709
-0.298353
-0.288157
-0.277519
-0.266501
-0.247947
-0.368828
-0.369132
-0.368576
-0.367279
-0.365316
-0.362697
-0.359432
-0.355531
-0.350995
-0.345815
-0.339976
-0.333455
-0.326225
-0.31825
-0.309499
-0.299929
-0.28947
-0.278537
-0.26732
-0.246863
-0.376453
-0.375939
-0.374746
-0.37289
-0.370399
-0.367292
-0.363583
-0.359281
-0.354384
-0.348883
-0.34276
-0.335986
-0.328526
-0.320335
-0.311369
-0.30157
-0.290835
-0.279583
-0.26818
-0.245718
-0.384583
-0.383207
-0.381341
-0.378887
-0.375829
-0.372196
-0.368006
-0.363267
-0.357977
-0.352126
-0.34569
-0.338638
-0.330925
-0.322499
-0.313301
-0.303259
-0.292235
-0.280639
-0.269058
-0.244537
-0.393169
-0.390897
-0.388322
-0.385237
-0.381576
-0.377383
-0.372678
-0.367469
-0.361756
-0.355525
-0.34875
-0.341395
-0.333407
-0.324725
-0.315277
-0.304976
-0.293651
-0.281689
-0.269924
-0.243345
-0.402168
-0.398969
-0.395657
-0.391911
-0.387616
-0.382829
-0.377578
-0.371871
-0.365706
-0.359068
-0.351929
-0.344246
-0.335961
-0.327002
-0.317284
-0.306707
-0.29507
-0.282718
-0.270739
-0.242171
-0.411539
-0.407387
-0.403313
-0.398879
-0.393923
-0.388516
-0.382692
-0.376458
-0.369815
-0.362746
-0.355218
-0.347184
-0.338579
-0.32932
-0.319312
-0.308439
-0.296475
-0.283718
-0.271463
-0.241057
-0.421246
-0.416119
-0.411262
-0.406117
-0.400475
-0.394425
-0.388003
-0.381221
-0.374077
-0.366553
-0.358614
-0.350206
-0.341256
-0.331673
-0.321351
-0.310161
-0.297854
-0.284683
-0.272053
-0.240072
-0.431256
-0.425133
-0.419474
-0.413601
-0.407255
-0.40054
-0.393502
-0.386151
-0.378486
-0.370486
-0.362113
-0.353307
-0.343987
-0.334055
-0.323394
-0.311863
-0.299196
-0.285611
-0.272414
-0.239195
-0.441536
-0.434401
-0.427924
-0.421307
-0.414242
-0.406848
-0.399178
-0.391242
-0.383037
-0.374543
-0.365714
-0.356484
-0.346768
-0.336458
-0.32543
-0.313534
-0.300505
-0.286517
-0.27234
-0.238175
-0.452057
-0.443892
-0.436585
-0.429214
-0.421418
-0.413335
-0.405021
-0.396486
-0.387727
-0.378719
-0.369411
-0.359732
-0.349587
-0.338866
-0.327443
-0.31517
-0.301819
-0.287506
-0.271888
-0.237906
-0.462784
-0.453575
-0.445429
-0.437296
-0.428763
-0.419984
-0.411018
-0.401875
-0.392549
-0.383008
-0.373197
-0.363037
-0.352428
-0.341257
-0.329404
-0.316743
-0.303141
-0.288714
-0.272334
-0.244433
-0.473684
-0.463417
-0.454424
-0.445527
-0.436255
-0.426777
-0.417156
-0.407397
-0.397489
-0.387397
-0.377056
-0.366379
-0.355263
-0.343592
-0.331257
-0.318169
-0.304306
-0.289877
-0.274798
-0.264657
-0.484714
-0.473378
-0.463537
-0.453876
-0.443868
-0.433693
-0.423415
-0.413033
-0.402531
-0.391865
-0.380963
-0.369728
-0.358051
-0.345818
-0.332932
-0.319333
-0.305076
-0.290397
-0.275237
-0.268381
-0.495828
-0.483415
-0.472726
-0.462307
-0.451569
-0.440702
-0.429767
-0.418758
-0.407648
-0.396384
-0.384883
-0.373041
-0.360743
-0.347876
-0.334354
-0.320139
-0.305324
-0.290117
-0.27425
-0.266886
-0.506969
-0.493474
-0.481943
-0.470776
-0.459319
-0.447768
-0.43618
-0.424537
-0.412803
-0.400912
-0.38877
-0.376265
-0.363277
-0.349697
-0.335447
-0.32051
-0.304994
-0.289076
-0.27242
-0.263444
-0.518072
-0.503496
-0.491132
-0.479233
-0.467071
-0.454846
-0.442608
-0.430326
-0.417948
-0.405397
-0.392566
-0.379335
-0.365582
-0.351204
-0.336136
-0.320379
-0.30405
-0.287297
-0.269813
-0.258862
-0.529058
-0.513409
-0.500229
-0.487616
-0.474767
-0.461882
-0.448998
-0.436068
-0.423024
-0.409773
-0.396199
-0.382174
-0.367578
-0.352317
-0.336345
-0.319683
-0.30246
-0.284809
-0.266494
-0.253597
-0.539837
-0.52313
-0.509156
-0.495854
-0.482341
-0.46881
-0.455284
-0.441694
-0.427956
-0.413961
-0.399584
-0.384693
-0.369175
-0.352951
-0.335999
-0.318368
-0.300205
-0.28164
-0.262536
-0.247912
-0.550307
-0.532566
-0.517828
-0.503867
-0.489713
-0.475551
-0.461385
-0.447122
-0.432658
-0.417872
-0.402627
-0.386797
-0.370279
-0.353019
-0.335027
-0.316385
-0.297264
-0.27781
-0.257989
-0.241916
-0.560352
-0.541613
-0.526145
-0.511559
-0.496793
-0.482018
-0.467212
-0.452258
-0.437033
-0.421401
-0.405224
-0.388382
-0.370794
-0.352436
-0.333359
-0.313687
-0.293622
-0.273331
-0.252881
-0.235636
-0.569845
-0.550152
-0.534
-0.518828
-0.50348
-0.488107
-0.47266
-0.456994
-0.440968
-0.424435
-0.40726
-0.389339
-0.370618
-0.351118
-0.330933
-0.310235
-0.289261
-0.268208
-0.247226
-0.229059
-0.578644
-0.558056
-0.54127
-0.525556
-0.50966
-0.493705
-0.477613
-0.461213
-0.444343
-0.426854
-0.408618
-0.389557
-0.369656
-0.348983
-0.327689
-0.305992
-0.284168
-0.262439
-0.241024
-0.222154
-0.5866
-0.565186
-0.547826
-0.531619
-0.515208
-0.498688
-0.481946
-0.464785
-0.447029
-0.428529
-0.409176
-0.388925
-0.367811
-0.345958
-0.323573
-0.300926
-0.278327
-0.25602
-0.234273
-0.214885
-0.59355
-0.571394
-0.553527
-0.536878
-0.51999
-0.50292
-0.485522
-0.467573
-0.448889
-0.429329
-0.408811
-0.387335
-0.364993
-0.341972
-0.318539
-0.295011
-0.271726
-0.248946
-0.226966
-0.207219
-0.599327
-0.576523
-0.558223
-0.54119
-0.523862
-0.506257
-0.488196
-0.469434
-0.449783
-0.429121
-0.407403
-0.384683
-0.361119
-0.336966
-0.312547
-0.288224
-0.264354
-0.241209
-0.219095
-0.199124
-0.603755
-0.580412
-0.561759
-0.544401
-0.526673
-0.50855
-0.48982
-0.47022
-0.44957
-0.427773
-0.404835
-0.380872
-0.356115
-0.330885
-0.305564
-0.280546
-0.256203
-0.232805
-0.210652
-0.190577
-0.606657
-0.582893
-0.563975
-0.546355
-0.528268
-0.509643
-0.490239
-0.469783
-0.448109
-0.425159
-0.400997
-0.375814
-0.349914
-0.323687
-0.297563
-0.271965
-0.247266
-0.223729
-0.201632
-0.181558
-0.607851
-0.583797
-0.564707
-0.54689
-0.528486
-0.509378
-0.489299
-0.467975
-0.445263
-0.421157
-0.395789
-0.36943
-0.34246
-0.315335
-0.288525
-0.262472
-0.23754
-0.213977
-0.192029
-0.172055
-0.60716
-0.582955
-0.56379
-0.545845
-0.527168
-0.507599
-0.486849
-0.464652
-0.440903
-0.415656
-0.389122
-0.361654
-0.33371
-0.305803
-0.278437
-0.252062
-0.227025
-0.20355
-0.181843
-0.162058
-0.604409
-0.580201
-0.561062
-0.543059
-0.524156
-0.50415
-0.482741
-0.45968
-0.43491
-0.408557
-0.380917
-0.35243
-0.323628
-0.295073
-0.267294
-0.240736
-0.215721
-0.192449
-0.171072
-0.151564
-0.599429
-0.575374
-0.556366
-0.538376
-0.519296
-0.498885
-0.476836
-0.452932
-0.427174
-0.399771
-0.371111
-0.341717
-0.312191
-0.283136
-0.255094
-0.228496
-0.203635
-0.180678
-0.159719
-0.140573
-0.592064
-0.56832
-0.549551
-0.531648
-0.512445
-0.491663
-0.469005
-0.444294
-0.417602
-0.389228
-0.359653
-0.329486
-0.299387
-0.269991
-0.241844
-0.215353
-0.190775
-0.168243
-0.147791
-0.129088
-0.582168
-0.5589
-0.540478
-0.522737
-0.503466
-0.482359
-0.459134
-0.433668
-0.406116
-0.376871
-0.34651
-0.31572
-0.285214
-0.255647
-0.227556
-0.20132
-0.177153
-0.155156
-0.135296
-0.117117
-0.569611
-0.546986
-0.52902
-0.511518
-0.492239
-0.470859
-0.447122
-0.420972
-0.392654
-0.362661
-0.331662
-0.300417
-0.269681
-0.240119
-0.212249
-0.186413
-0.162784
-0.141428
-0.122247
-0.10467
-0.554283
-0.532466
-0.515065
-0.49788
-0.47866
-0.457069
-0.43289
-0.406144
-0.377174
-0.346575
-0.315105
-0.283588
-0.252808
-0.22343
-0.195945
-0.170656
-0.147688
-0.127076
-0.108658
-0.0917495
-0.536094
-0.51525
-0.498522
-0.481734
-0.462644
-0.440913
-0.416377
-0.389142
-0.359654
-0.32861
-0.296852
-0.265255
-0.234624
-0.205611
-0.178676
-0.154075
-0.131889
-0.112124
-0.0945513
-0.0783377
-0.514977
-0.495267
-0.479319
-0.463009
-0.444125
-0.422338
-0.397544
-0.369945
-0.340092
-0.308781
-0.276928
-0.245453
-0.215167
-0.186703
-0.160478
-0.136703
-0.115415
-0.0965969
-0.0799563
-0.0644489
-0.490891
-0.472474
-0.457409
-0.441658
-0.423064
-0.401314
-0.376376
-0.348553
-0.318505
-0.287118
-0.255377
-0.224231
-0.194488
-0.16675
-0.141393
-0.118577
-0.0982992
-0.0805171
-0.0648456
-0.0502987
-0.463822
-0.446848
-0.432768
-0.417661
-0.399444
-0.377835
-0.352881
-0.324991
-0.29493
-0.263672
-0.232255
-0.201647
-0.172642
-0.145806
-0.121469
-0.0997395
-0.0805817
-0.0639218
-0.0492849
-0.035766
-0.433785
-0.418398
-0.4054
-0.391021
-0.373277
-0.351922
-0.327092
-0.299305
-0.269427
-0.238509
-0.207632
-0.177772
-0.149698
-0.123931
-0.100763
-0.080241
-0.0623013
-0.0468462
-0.0333194
-0.0208723
-0.400825
-0.387159
-0.375337
-0.36177
-0.344598
-0.32362
-0.299066
-0.271564
-0.242072
-0.211711
-0.181593
-0.152686
-0.12573
-0.101201
-0.0793308
-0.0601332
-0.0435065
-0.0293328
-0.016983
-0.00565931
-0.365015
-0.353196
-0.342638
-0.32997
-0.313473
-0.293003
-0.268886
-0.241857
-0.212962
-0.183377
-0.154232
-0.12648
-0.100823
-0.0776843
-0.0572436
-0.039476
-0.0242496
-0.0114281
-0.000314678
0.00983152
-0.326462
-0.316604
-0.307393
-0.295708
-0.279994
-0.260169
-0.236657
-0.210297
-0.182211
-0.153619
-0.125659
-0.0992567
-0.0750673
-0.0534638
-0.0345741
-0.0183343
-0.00458836
0.0068171
0.0166406
0.0255564
-0.285302
-0.277507
-0.269721
-0.259102
-0.244281
-0.225244
-0.202508
-0.177015
-0.149946
-0.122565
-0.0959926
-0.0711238
-0.0485629
-0.0286288
-0.0114007
0.00322167
0.0154148
0.0253478
0.0338332
0.0414666
-0.2417
-0.236056
-0.229768
-0.220297
-0.20648
-0.188376
-0.166583
-0.142155
-0.116321
-0.090353
-0.0653618
-0.0421993
-0.0214151
-0.00327357
0.0121924
0.0251165
0.0356924
0.0441042
0.051208
0.057507
-0.195854
-0.19243
-0.187707
-0.179465
-0.166761
-0.149725
-0.129066
-0.105892
-0.0814903
-0.057133
-0.0339048
-0.0126084
0.00626401
0.0225018
0.0361159
0.0472699
0.0561721
0.0630219
0.0687045
0.0736146
-0.147978
-0.146837
-0.143743
-0.1368
-0.125319
-0.109499
-0.0901364
-0.0684056
-0.0456276
-0.0230658
-0.00176807
0.0175174
0.034357
0.0485926
0.0602762
0.0695976
0.0767771
0.0820327
0.0862589
0.0897196
-0.0982722
-0.0995597
-0.0980904
-0.0925244
-0.0823719
-0.0679048
-0.050001
-0.0298921
-0.00891734
0.0116793
0.0308952
0.0480409
0.0627415
0.0748901
0.0845762
0.0920114
0.0974281
0.101072
0.103814
0.105723
-0.0471127
-0.0507698
-0.0510057
-0.0468821
-0.0381564
-0.0251727
-0.00888166
0.00943951
0.0284465
0.0469253
0.0639258
0.0788198
0.0912916
0.101282
0.108915
0.11442
0.118045
0.120085
0.12131
0.121434
0.0052667
-0.000784016
-0.00276009
-0.000135009
0.00707291
0.0184514
0.0329875
0.0493701
0.0662622
0.0824892
0.0971595
0.109708
0.119878
0.127654
0.133191
0.13673
0.138547
0.138999
0.138585
0.136615
0.058558
0.0500979
0.0463614
0.0474383
0.0530458
0.0627089
0.0753619
0.089672
0.104321
0.118183
0.130428
0.140558
0.148369
0.15389
0.1573
0.158849
0.15885
0.157675
0.15525
0.151172
0.112431
0.101566
0.0960569
0.0955442
0.0994793
0.10733
0.117988
0.130111
0.14241
0.153815
0.163562
0.171217
0.176632
0.179873
0.181141
0.180696
0.178884
0.17599
0.171038
0.165236
0.166545
0.153294
0.146011
0.143877
0.14608
0.152037
0.160607
0.170449
0.180313
0.18919
0.196387
0.201533
0.204531
0.205485
0.204612
0.202187
0.198576
0.194026
0.187496
0.18117
0.220551
0.204947
0.195899
0.192123
0.192548
0.196545
0.202954
0.210443
0.217811
0.224115
0.228732
0.231354
0.231934
0.230606
0.227607
0.223221
0.217819
0.211612
0.203708
0.196637
0.274093
0.256184
0.245389
0.239962
0.238577
0.240569
0.244764
0.249852
0.254687
0.258395
0.260424
0.260528
0.258704
0.255116
0.250018
0.2437
0.236528
0.228684
0.219425
0.211388
0.326812
0.306658
0.294145
0.287072
0.283862
0.283821
0.285771
0.288435
0.290724
0.291836
0.291292
0.288903
0.284708
0.278899
0.271741
0.263529
0.254621
0.245178
0.234588
0.225433
0.378349
0.356023
0.341833
0.333129
0.328095
0.326014
0.325714
0.325954
0.325708
0.32425
0.321169
0.316331
0.309817
0.301839
0.292672
0.282617
0.272016
0.261022
0.249133
0.238789
0.428349
0.403935
0.38812
0.377815
0.370976
0.366869
0.364335
0.362175
0.359431
0.355452
0.349891
0.34267
0.333903
0.323823
0.312714
0.300876
0.288639
0.276146
0.262997
0.251445
0.476462
0.450058
0.43268
0.420817
0.412208
0.406109
0.401381
0.396872
0.391692
0.385262
0.377301
0.367778
0.356842
0.344742
0.33177
0.318222
0.304415
0.290487
0.276125
0.263373
0.52235
0.494063
0.475195
0.461829
0.451505
0.443471
0.436612
0.429826
0.422295
0.413508
0.403245
0.391523
0.378517
0.364494
0.349748
0.334574
0.319274
0.303985
0.288467
0.274544
0.565686
0.535635
0.515359
0.500562
0.488592
0.478698
0.469795
0.460831
0.451055
0.440025
0.427579
0.413775
0.398816
0.382978
0.366561
0.349857
0.333152
0.316581
0.299976
0.284927
0.606159
0.574473
0.552882
0.536735
0.523207
0.511552
0.500711
0.489689
0.477797
0.46466
0.450167
0.434416
0.417631
0.400102
0.382128
0.363997
0.345984
0.328223
0.310604
0.294491
0.643479
0.610293
0.587491
0.570089
0.555108
0.541805
0.529157
0.516216
0.502358
0.487267
0.470882
0.453332
0.434865
0.415777
0.396371
0.376929
0.357712
0.338859
0.32031
0.303204
0.677375
0.642835
0.618931
0.600382
0.584066
0.56925
0.554941
0.540243
0.524588
0.507714
0.489604
0.47042
0.450425
0.429924
0.40922
0.388589
0.368283
0.348442
0.329051
0.311035
0.707599
0.671858
0.646971
0.627393
0.609875
0.593696
0.577894
0.561616
0.544349
0.525879
0.506229
0.485586
0.464229
0.44247
0.420609
0.398921
0.377646
0.356927
0.336788
0.317957
0.733931
0.697148
0.671405
0.650924
0.632352
0.614976
0.597862
0.580198
0.56152
0.541655
0.520661
0.498746
0.476203
0.453348
0.430482
0.407875
0.385757
0.364277
0.343489
0.323942
0.756178
0.718517
0.69205
0.670804
0.651335
0.632939
0.61471
0.59587
0.575995
0.554949
0.532816
0.509827
0.486282
0.462503
0.438789
0.415406
0.392578
0.370456
0.349121
0.328968
0.774176
0.735807
0.708755
0.686886
0.666687
0.647463
0.628326
0.608531
0.587684
0.56568
0.542626
0.518767
0.494412
0.469885
0.445486
0.421477
0.398075
0.375435
0.353659
0.333013
0.787792
0.748888
0.721393
0.699053
0.6783
0.658445
0.63862
0.618099
0.596515
0.573785
0.550034
0.525516
0.500549
0.475457
0.450539
0.426057
0.402222
0.379191
0.357082
0.336062
0.796925
0.757664
0.729872
0.707214
0.686088
0.665809
0.64552
0.624512
0.602433
0.579216
0.554996
0.530037
0.504659
0.479187
0.453923
0.429123
0.404998
0.381705
0.359373
0.338102
0.801509
0.762069
0.734127
0.71131
0.689996
0.669505
0.648982
0.627729
0.605401
0.581939
0.557485
0.532304
0.506719
0.481058
0.455619
0.43066
0.406389
0.382965
0.360521
0.339124
0.801509
0.762069
0.734127
0.71131
0.689996
0.669505
0.648982
0.627729
0.605401
0.581939
0.557485
0.532304
0.506719
0.481058
0.455619
0.43066
0.406389
0.382965
0.360521
0.339124
0.796925
0.757664
0.729872
0.707214
0.686088
0.665809
0.64552
0.624512
0.602433
0.579216
0.554996
0.530037
0.504659
0.479187
0.453923
0.429123
0.404998
0.381705
0.359373
0.338102
0.787792
0.748888
0.721393
0.699053
0.6783
0.658445
0.63862
0.618099
0.596515
0.573785
0.550034
0.525516
0.500549
0.475457
0.450539
0.426057
0.402222
0.379191
0.357082
0.336062
0.774176
0.735807
0.708755
0.686886
0.666687
0.647463
0.628326
0.608531
0.587684
0.56568
0.542626
0.518767
0.494412
0.469885
0.445486
0.421477
0.398075
0.375435
0.353659
0.333013
0.756178
0.718517
0.69205
0.670804
0.651335
0.632939
0.61471
0.59587
0.575995
0.554949
0.532816
0.509827
0.486282
0.462503
0.438789
0.415406
0.392578
0.370456
0.349121
0.328968
0.733931
0.697148
0.671405
0.650924
0.632352
0.614976
0.597862
0.580198
0.56152
0.541655
0.520661
0.498746
0.476203
0.453348
0.430482
0.407875
0.385757
0.364277
0.343489
0.323942
0.707599
0.671858
0.646971
0.627393
0.609875
0.593696
0.577894
0.561616
0.544349
0.525879
0.506229
0.485586
0.464229
0.44247
0.420609
0.398921
0.377646
0.356927
0.336788
0.317957
0.677375
0.642835
0.618931
0.600382
0.584066
0.56925
0.554941
0.540243
0.524588
0.507714
0.489604
0.47042
0.450425
0.429924
0.40922
0.388589
0.368283
0.348442
0.329051
0.311035
0.643479
0.610293
0.587491
0.570089
0.555108
0.541805
0.529157
0.516216
0.502358
0.487267
0.470882
0.453332
0.434865
0.415777
0.396371
0.376929
0.357712
0.338859
0.32031
0.303204
0.606159
0.574473
0.552882
0.536735
0.523207
0.511552
0.500711
0.489689
0.477797
0.46466
0.450167
0.434416
0.417631
0.400102
0.382128
0.363997
0.345984
0.328223
0.310604
0.294491
0.565686
0.535635
0.515359
0.500562
0.488592
0.478698
0.469795
0.460831
0.451055
0.440025
0.427579
0.413775
0.398815
0.382978
0.366561
0.349857
0.333152
0.316581
0.299976
0.284927
0.52235
0.494063
0.475195
0.461829
0.451505
0.443471
0.436612
0.429826
0.422295
0.413508
0.403245
0.391523
0.378517
0.364494
0.349748
0.334574
0.319274
0.303985
0.288467
0.274544
0.476462
0.450058
0.43268
0.420817
0.412208
0.406109
0.401381
0.396872
0.391692
0.385262
0.377301
0.367778
0.356842
0.344742
0.33177
0.318222
0.304415
0.290487
0.276125
0.263373
0.428349
0.403935
0.38812
0.377815
0.370976
0.366869
0.364335
0.362175
0.359431
0.355452
0.349891
0.34267
0.333903
0.323823
0.312714
0.300876
0.288639
0.276146
0.262997
0.251445
0.378349
0.356023
0.341833
0.333129
0.328095
0.326014
0.325714
0.325954
0.325708
0.32425
0.321169
0.316331
0.309817
0.301839
0.292672
0.282617
0.272016
0.261022
0.249133
0.238789
0.326812
0.306658
0.294145
0.287072
0.283862
0.283821
0.285771
0.288435
0.290724
0.291836
0.291292
0.288903
0.284708
0.278899
0.271741
0.263529
0.25462
0.245178
0.234588
0.225433
0.274093
0.256184
0.245389
0.239962
0.238577
0.240569
0.244764
0.249852
0.254687
0.258395
0.260424
0.260528
0.258704
0.255116
0.250018
0.2437
0.236528
0.228684
0.219425
0.211388
0.220551
0.204947
0.195899
0.192123
0.192548
0.196545
0.202954
0.210443
0.217811
0.224115
0.228732
0.231354
0.231934
0.230606
0.227607
0.223221
0.217819
0.211612
0.203708
0.196637
0.166545
0.153294
0.146011
0.143877
0.14608
0.152037
0.160607
0.170449
0.180313
0.18919
0.196387
0.201533
0.204531
0.205485
0.204612
0.202187
0.198576
0.194026
0.187496
0.18117
0.112431
0.101566
0.0960568
0.0955441
0.0994792
0.10733
0.117988
0.130111
0.14241
0.153814
0.163562
0.171217
0.176632
0.179873
0.181141
0.180696
0.178884
0.17599
0.171038
0.165236
0.0585579
0.0500979
0.0463614
0.0474383
0.0530458
0.0627088
0.0753619
0.089672
0.104321
0.118183
0.130428
0.140558
0.148369
0.15389
0.1573
0.158849
0.15885
0.157674
0.15525
0.151172
0.00526668
-0.000784036
-0.00276011
-0.00013503
0.00707289
0.0184514
0.0329875
0.0493701
0.0662621
0.0824892
0.0971594
0.109708
0.119878
0.127654
0.133191
0.13673
0.138547
0.138999
0.138585
0.136615
-0.0471127
-0.0507698
-0.0510058
-0.0468821
-0.0381564
-0.0251728
-0.00888168
0.00943949
0.0284465
0.0469253
0.0639258
0.0788198
0.0912916
0.101282
0.108915
0.11442
0.118045
0.120085
0.12131
0.121434
-0.0982722
-0.0995598
-0.0980904
-0.0925244
-0.082372
-0.0679048
-0.050001
-0.0298921
-0.00891736
0.0116792
0.0308952
0.0480408
0.0627415
0.07489
0.0845762
0.0920114
0.0974281
0.101072
0.103814
0.105723
-0.147978
-0.146837
-0.143743
-0.1368
-0.125319
-0.109499
-0.0901364
-0.0684056
-0.0456276
-0.0230658
-0.0017681
0.0175174
0.0343569
0.0485925
0.0602762
0.0695975
0.0767771
0.0820326
0.0862589
0.0897196
-0.195854
-0.19243
-0.187707
-0.179465
-0.166761
-0.149725
-0.129066
-0.105892
-0.0814904
-0.057133
-0.0339049
-0.0126084
0.00626398
0.0225017
0.0361158
0.0472699
0.0561721
0.0630218
0.0687045
0.0736146
-0.2417
-0.236056
-0.229768
-0.220297
-0.20648
-0.188376
-0.166583
-0.142155
-0.116321
-0.090353
-0.0653618
-0.0421993
-0.0214151
-0.0032736
0.0121923
0.0251164
0.0356924
0.0441042
0.051208
0.0575069
-0.285302
-0.277507
-0.269721
-0.259102
-0.244281
-0.225244
-0.202508
-0.177015
-0.149946
-0.122565
-0.0959926
-0.0711238
-0.0485629
-0.0286288
-0.0114007
0.00322164
0.0154148
0.0253477
0.0338332
0.0414666
-0.326462
-0.316604
-0.307393
-0.295708
-0.279994
-0.260169
-0.236657
-0.210297
-0.182211
-0.153619
-0.125659
-0.0992567
-0.0750674
-0.0534639
-0.0345741
-0.0183343
-0.00458838
0.00681707
0.0166406
0.0255563
-0.365015
-0.353197
-0.342638
-0.32997
-0.313473
-0.293003
-0.268886
-0.241857
-0.212962
-0.183377
-0.154232
-0.12648
-0.100823
-0.0776843
-0.0572437
-0.039476
-0.0242496
-0.0114282
-0.000314704
0.0098315
-0.400825
-0.387159
-0.375337
-0.36177
-0.344598
-0.323621
-0.299066
-0.271564
-0.242072
-0.211711
-0.181593
-0.152686
-0.12573
-0.101201
-0.0793308
-0.0601332
-0.0435065
-0.0293328
-0.016983
-0.00565934
-0.433785
-0.418398
-0.4054
-0.391021
-0.373277
-0.351922
-0.327092
-0.299305
-0.269427
-0.238509
-0.207632
-0.177772
-0.149698
-0.123931
-0.100763
-0.0802411
-0.0623014
-0.0468462
-0.0333195
-0.0208723
-0.463822
-0.446848
-0.432768
-0.417661
-0.399445
-0.377835
-0.352881
-0.324991
-0.29493
-0.263672
-0.232255
-0.201647
-0.172642
-0.145806
-0.121469
-0.0997396
-0.0805817
-0.0639218
-0.0492849
-0.0357661
-0.490891
-0.472474
-0.457409
-0.441658
-0.423064
-0.401314
-0.376376
-0.348553
-0.318505
-0.287118
-0.255377
-0.224231
-0.194488
-0.16675
-0.141393
-0.118577
-0.0982993
-0.0805171
-0.0648456
-0.0502987
-0.514977
-0.495268
-0.479319
-0.463009
-0.444125
-0.422338
-0.397544
-0.369945
-0.340092
-0.308781
-0.276929
-0.245453
-0.215167
-0.186703
-0.160478
-0.136703
-0.115415
-0.0965969
-0.0799564
-0.0644489
-0.536094
-0.51525
-0.498522
-0.481734
-0.462644
-0.440913
-0.416377
-0.389142
-0.359655
-0.32861
-0.296852
-0.265255
-0.234624
-0.205611
-0.178676
-0.154075
-0.131889
-0.112124
-0.0945513
-0.0783378
-0.554283
-0.532466
-0.515065
-0.49788
-0.47866
-0.457069
-0.43289
-0.406144
-0.377174
-0.346575
-0.315105
-0.283588
-0.252808
-0.22343
-0.195945
-0.170656
-0.147688
-0.127076
-0.108658
-0.0917496
-0.569611
-0.546986
-0.52902
-0.511518
-0.492239
-0.470859
-0.447122
-0.420972
-0.392654
-0.362661
-0.331662
-0.300417
-0.269681
-0.240119
-0.212249
-0.186413
-0.162784
-0.141428
-0.122247
-0.10467
-0.582168
-0.5589
-0.540478
-0.522737
-0.503466
-0.482359
-0.459134
-0.433668
-0.406116
-0.376871
-0.34651
-0.31572
-0.285214
-0.255647
-0.227556
-0.20132
-0.177153
-0.155156
-0.135296
-0.117117
-0.592064
-0.56832
-0.549551
-0.531648
-0.512445
-0.491663
-0.469005
-0.444294
-0.417602
-0.389228
-0.359653
-0.329486
-0.299387
-0.269991
-0.241844
-0.215354
-0.190775
-0.168243
-0.147791
-0.129088
-0.599429
-0.575374
-0.556366
-0.538376
-0.519296
-0.498885
-0.476836
-0.452932
-0.427174
-0.399771
-0.371111
-0.341717
-0.312191
-0.283136
-0.255094
-0.228496
-0.203635
-0.180678
-0.159719
-0.140573
-0.604409
-0.580201
-0.561062
-0.543059
-0.524156
-0.50415
-0.482741
-0.45968
-0.43491
-0.408557
-0.380917
-0.35243
-0.323628
-0.295073
-0.267294
-0.240736
-0.215721
-0.192449
-0.171072
-0.151564
-0.60716
-0.582956
-0.56379
-0.545845
-0.527168
-0.507599
-0.486849
-0.464653
-0.440903
-0.415656
-0.389122
-0.361654
-0.33371
-0.305803
-0.278438
-0.252062
-0.227025
-0.20355
-0.181843
-0.162058
-0.607851
-0.583798
-0.564707
-0.54689
-0.528486
-0.509378
-0.4893
-0.467975
-0.445263
-0.421157
-0.395789
-0.36943
-0.342461
-0.315335
-0.288525
-0.262472
-0.23754
-0.213977
-0.192029
-0.172055
-0.606657
-0.582893
-0.563975
-0.546355
-0.528268
-0.509643
-0.490239
-0.469783
-0.448109
-0.425159
-0.400997
-0.375814
-0.349914
-0.323687
-0.297563
-0.271965
-0.247266
-0.223729
-0.201632
-0.181558
-0.603755
-0.580412
-0.561759
-0.544401
-0.526673
-0.50855
-0.48982
-0.47022
-0.44957
-0.427773
-0.404835
-0.380872
-0.356115
-0.330885
-0.305564
-0.280546
-0.256203
-0.232805
-0.210652
-0.190577
-0.599327
-0.576523
-0.558223
-0.54119
-0.523862
-0.506257
-0.488197
-0.469434
-0.449783
-0.429121
-0.407403
-0.384683
-0.361119
-0.336966
-0.312547
-0.288224
-0.264354
-0.241209
-0.219095
-0.199124
-0.59355
-0.571394
-0.553527
-0.536878
-0.51999
-0.50292
-0.485522
-0.467573
-0.448889
-0.429329
-0.408811
-0.387335
-0.364993
-0.341972
-0.318539
-0.295011
-0.271726
-0.248946
-0.226966
-0.207219
-0.5866
-0.565186
-0.547826
-0.531619
-0.515208
-0.498688
-0.481946
-0.464785
-0.447029
-0.428529
-0.409176
-0.388925
-0.367811
-0.345958
-0.323573
-0.300926
-0.278327
-0.25602
-0.234273
-0.214885
-0.578644
-0.558056
-0.54127
-0.525556
-0.50966
-0.493705
-0.477613
-0.461213
-0.444343
-0.426854
-0.408619
-0.389557
-0.369656
-0.348983
-0.327689
-0.305992
-0.284168
-0.262439
-0.241024
-0.222154
-0.569845
-0.550152
-0.534
-0.518828
-0.50348
-0.488107
-0.47266
-0.456994
-0.440968
-0.424435
-0.40726
-0.389339
-0.370619
-0.351118
-0.330933
-0.310235
-0.289261
-0.268208
-0.247226
-0.229059
-0.560352
-0.541613
-0.526146
-0.511559
-0.496793
-0.482018
-0.467212
-0.452258
-0.437033
-0.421401
-0.405224
-0.388382
-0.370794
-0.352437
-0.33336
-0.313687
-0.293622
-0.273331
-0.252881
-0.235636
-0.550307
-0.532566
-0.517828
-0.503867
-0.489713
-0.475552
-0.461385
-0.447122
-0.432658
-0.417872
-0.402627
-0.386797
-0.370279
-0.353019
-0.335027
-0.316385
-0.297264
-0.27781
-0.257989
-0.241916
-0.539837
-0.52313
-0.509156
-0.495855
-0.482341
-0.46881
-0.455284
-0.441694
-0.427956
-0.413962
-0.399584
-0.384693
-0.369175
-0.352951
-0.335999
-0.318368
-0.300205
-0.28164
-0.262536
-0.247912
-0.529058
-0.513409
-0.500229
-0.487616
-0.474767
-0.461882
-0.448999
-0.436068
-0.423024
-0.409773
-0.396199
-0.382174
-0.367578
-0.352317
-0.336345
-0.319683
-0.30246
-0.284809
-0.266494
-0.253598
-0.518072
-0.503496
-0.491132
-0.479233
-0.467071
-0.454846
-0.442608
-0.430326
-0.417949
-0.405397
-0.392566
-0.379335
-0.365582
-0.351204
-0.336136
-0.320379
-0.30405
-0.287297
-0.269813
-0.258862
-0.506969
-0.493474
-0.481943
-0.470777
-0.459319
-0.447768
-0.43618
-0.424537
-0.412803
-0.400912
-0.38877
-0.376265
-0.363277
-0.349697
-0.335447
-0.32051
-0.304994
-0.289076
-0.272421
-0.263444
-0.495828
-0.483415
-0.472726
-0.462307
-0.451569
-0.440702
-0.429767
-0.418758
-0.407648
-0.396384
-0.384883
-0.373041
-0.360743
-0.347876
-0.334354
-0.320139
-0.305324
-0.290117
-0.27425
-0.266886
-0.484714
-0.473378
-0.463537
-0.453876
-0.443868
-0.433693
-0.423415
-0.413033
-0.402531
-0.391865
-0.380963
-0.369728
-0.358051
-0.345818
-0.332932
-0.319333
-0.305076
-0.290397
-0.275237
-0.268381
-0.473684
-0.463417
-0.454424
-0.445527
-0.436255
-0.426778
-0.417156
-0.407397
-0.397489
-0.387397
-0.377056
-0.366379
-0.355263
-0.343592
-0.331257
-0.318169
-0.304306
-0.289877
-0.274798
-0.264657
-0.462784
-0.453575
-0.445429
-0.437296
-0.428763
-0.419984
-0.411018
-0.401876
-0.392549
-0.383008
-0.373197
-0.363037
-0.352428
-0.341257
-0.329404
-0.316743
-0.303141
-0.288714
-0.272334
-0.244433
-0.452057
-0.443892
-0.436585
-0.429214
-0.421418
-0.413335
-0.405021
-0.396486
-0.387728
-0.378719
-0.369411
-0.359732
-0.349588
-0.338866
-0.327444
-0.31517
-0.301819
-0.287506
-0.271888
-0.237906
-0.441536
-0.434401
-0.427924
-0.421307
-0.414242
-0.406848
-0.399178
-0.391242
-0.383037
-0.374543
-0.365714
-0.356484
-0.346768
-0.336458
-0.32543
-0.313534
-0.300505
-0.286517
-0.27234
-0.238175
-0.431256
-0.425134
-0.419474
-0.413601
-0.407255
-0.40054
-0.393502
-0.386151
-0.378486
-0.370486
-0.362113
-0.353307
-0.343987
-0.334055
-0.323394
-0.311863
-0.299196
-0.285611
-0.272414
-0.239195
-0.421246
-0.416119
-0.411262
-0.406117
-0.400476
-0.394425
-0.388003
-0.381221
-0.374077
-0.366553
-0.358614
-0.350206
-0.341256
-0.331673
-0.321351
-0.310161
-0.297854
-0.284683
-0.272053
-0.240072
-0.411539
-0.407387
-0.403313
-0.398879
-0.393923
-0.388516
-0.382692
-0.376459
-0.369815
-0.362746
-0.355218
-0.347184
-0.338579
-0.32932
-0.319312
-0.308439
-0.296475
-0.283718
-0.271463
-0.241057
-0.402168
-0.398969
-0.395657
-0.391911
-0.387616
-0.382829
-0.377578
-0.371871
-0.365706
-0.359068
-0.351929
-0.344246
-0.335961
-0.327002
-0.317284
-0.306707
-0.29507
-0.282718
-0.270739
-0.242171
-0.393169
-0.390897
-0.388322
-0.385237
-0.381577
-0.377383
-0.372678
-0.36747
-0.361756
-0.355525
-0.34875
-0.341395
-0.333407
-0.324725
-0.315277
-0.304976
-0.293651
-0.281689
-0.269924
-0.243345
-0.384583
-0.383207
-0.381341
-0.378887
-0.375829
-0.372196
-0.368006
-0.363267
-0.357977
-0.352126
-0.34569
-0.338638
-0.330925
-0.322499
-0.313301
-0.303259
-0.292235
-0.280639
-0.269058
-0.244537
-0.376453
-0.375939
-0.374746
-0.37289
-0.370399
-0.367292
-0.363583
-0.359281
-0.354384
-0.348883
-0.34276
-0.335986
-0.328526
-0.320335
-0.311369
-0.30157
-0.290835
-0.279583
-0.26818
-0.245718
-0.368828
-0.369133
-0.368576
-0.367279
-0.365316
-0.362697
-0.359432
-0.355531
-0.350995
-0.345815
-0.339976
-0.333456
-0.326225
-0.31825
-0.309499
-0.299929
-0.28947
-0.278537
-0.26732
-0.246863
-0.361757
-0.362832
-0.362868
-0.362088
-0.360612
-0.358439