/*--------------------------------*- C++ -*----------------------------------*\
  =========                 |
  \\      /  F ield         | OpenFOAM: The Open Source CFD Toolbox
   \\    /   O peration     | Website:  https://openfoam.org
    \\  /    A nd           | Version:  7
     \\/     M anipulation  |
\*---------------------------------------------------------------------------*/
FoamFile
{
    version     2.0;
    format      ascii;
    class       volVectorField;
    location    "5.999266";
    object      U;
}
// * * * * * * * * * * * * * * * * * * * * * * * * * * * * * * * * * * * * * //

dimensions      [0 1 -1 0 0 0 0];

internalField   nonuniform List<vector> 
23200
(
(-0.000381466 0.000461583 -1.94888e-21)
(-0.00206643 0.0011257 -7.56377e-21)
(-0.00539429 0.00157896 1.42094e-21)
(-0.00969002 0.0018519 5.55759e-21)
(-0.0145298 0.00196782 2.42939e-21)
(-0.0195826 0.00194767 -6.06263e-21)
(-0.0245229 0.00181119 -1.96203e-21)
(-0.0290507 0.00157619 -7.94411e-22)
(-0.0328966 0.00125839 -7.27976e-21)
(-0.0358188 0.000871388 -1.39236e-21)
(-0.0376005 0.000426721 -8.33862e-21)
(-0.0380482 -6.58094e-05 8.62538e-22)
(-0.0369899 -0.000597467 -2.78778e-21)
(-0.0342752 -0.00115929 4.95407e-21)
(-0.0297809 -0.00173995 -6.25567e-21)
(-0.0234234 -0.00232229 -6.61059e-21)
(-0.0151834 -0.00287769 -1.89593e-21)
(-0.00517831 -0.0033591 1.00371e-20)
(0.00629373 -0.00371004 -8.34066e-21)
(0.0190423 -0.00382877 -4.82744e-22)
(-0.000446843 0.00137329 -1.69699e-21)
(-0.00220168 0.00334797 -5.3563e-21)
(-0.00552699 0.00469482 4.73526e-21)
(-0.00975989 0.00550445 1.14693e-20)
(-0.0144824 0.00584613 2.04409e-21)
(-0.0193672 0.00578229 3.93283e-22)
(-0.0240922 0.00537174 -4.22199e-21)
(-0.0283602 0.00466766 2.30024e-21)
(-0.0319039 0.00371696 -1.34683e-20)
(-0.0344826 0.0025602 8.54187e-21)
(-0.0358805 0.00123188 3.09111e-20)
(-0.0359045 -0.000238734 -5.1773e-21)
(-0.0343819 -0.00182552 7.56136e-21)
(-0.0311618 -0.00350197 -4.59359e-21)
(-0.02612 -0.00523429 1.16268e-20)
(-0.0191707 -0.0069715 -1.3212e-21)
(-0.0102915 -0.00862841 6.31314e-21)
(0.000393992 -0.0100648 -3.74624e-20)
(0.012587 -0.0111077 3.7097e-21)
(0.0262663 -0.0114447 -1.48557e-20)
(-0.00057456 0.00225093 9.30842e-21)
(-0.00246462 0.00548362 1.01739e-20)
(-0.00578192 0.00768559 -2.33836e-21)
(-0.0098873 0.00900446 -5.29946e-21)
(-0.0143743 0.00955375 -2.09136e-21)
(-0.0189229 0.0094361 7.70898e-21)
(-0.0232177 0.00874827 1.1562e-20)
(-0.026967 0.00757789 -2.5896e-20)
(-0.0299075 0.00600231 7.40306e-21)
(-0.0318013 0.00408856 -9.5749e-21)
(-0.0324342 0.0018936 -1.63317e-20)
(-0.0316134 -0.000534172 -3.12406e-21)
(-0.0291663 -0.00315173 -5.0052e-21)
(-0.0249403 -0.00591545 -1.12403e-20)
(-0.0188092 -0.0087702 1.26291e-20)
(-0.0106838 -0.0116326 -1.20753e-20)
(-0.000536031 -0.0143627 1.5084e-21)
(0.0114993 -0.0167294 3.67536e-20)
(0.0251172 -0.0184371 -2.53142e-20)
(0.0406365 -0.0189329 2.20288e-20)
(-0.000758643 0.0030729 -6.84728e-21)
(-0.00284038 0.00747751 1.36346e-20)
(-0.00613832 0.0104715 -1.99051e-20)
(-0.0100478 0.0122545 9.40023e-21)
(-0.0141792 0.0129815 -5.22967e-20)
(-0.0182228 0.0127934 -3.2573e-20)
(-0.0218733 0.011823 2.08935e-20)
(-0.0248467 0.0101909 5.10896e-20)
(-0.0268859 0.00800376 -2.12814e-20)
(-0.027757 0.00535415 -1.46869e-20)
(-0.0272483 0.00232082 -2.08351e-20)
(-0.0251681 -0.00102936 4.2612e-20)
(-0.0213433 -0.00463709 5.20608e-20)
(-0.0156201 -0.00844244 -4.09199e-20)
(-0.00786968 -0.0123707 -3.27979e-20)
(0.00200105 -0.0163082 1.17722e-20)
(0.0140279 -0.0200633 -2.62168e-20)
(0.0280592 -0.0233178 -1.41343e-21)
(0.0437724 -0.0256477 4.15948e-20)
(0.0619993 -0.0262022 7.09304e-21)
(-0.000990383 0.00381915 2.74352e-20)
(-0.00330718 0.00927836 9.15676e-21)
(-0.00656573 0.012978 3.19591e-20)
(-0.0102055 0.0151633 -9.88973e-21)
(-0.013858 0.0160271 5.11888e-20)
(-0.017227 0.0157455 3.14113e-20)
(-0.0200197 0.0144853 -3.8427e-20)
(-0.0219626 0.0123979 -4.97295e-20)
(-0.0228061 0.00961773 4.6024e-20)
(-0.0223222 0.00626166 -1.30911e-20)
(-0.0203024 0.00242929 1.92728e-20)
(-0.0165566 -0.00179475 -7.61809e-20)
(-0.0109121 -0.0063358 2.61441e-20)
(-0.00321412 -0.0111189 9.21768e-21)
(0.0066683 -0.0160515 5.46303e-21)
(0.0188319 -0.0209933 2.00181e-20)
(0.0333201 -0.0257047 5.08715e-20)
(0.0499592 -0.0297861 1.19923e-21)
(0.0683892 -0.03268 -1.44429e-20)
(0.0901286 -0.0331527 -1.87838e-20)
(-0.00125861 0.0044718 1.91568e-20)
(-0.00383694 0.01084 9.98635e-21)
(-0.00702468 0.0151377 -5.20876e-20)
(-0.0103134 0.0176483 -3.17832e-20)
(-0.0133597 0.0185975 -1.26035e-20)
(-0.0158828 0.0181937 4.28126e-20)
(-0.0176051 0.0166346 5.14085e-20)
(-0.0182656 0.0141002 -6.50355e-21)
(-0.0176242 0.0107506 -1.24461e-20)
(-0.0154595 0.00672559 -1.07917e-20)
(-0.0115679 0.00214442 -3.44705e-20)
(-0.00576201 -0.00289147 7.87358e-20)
(0.00212991 -0.00829286 -6.85713e-22)
(0.0122626 -0.0139712 -3.02569e-20)
(0.0247672 -0.0198185 -2.05695e-21)
(0.0397423 -0.0256718 6.20849e-21)
(0.0572378 -0.0312491 1.78635e-20)
(0.0770514 -0.036077 -6.57108e-20)
(0.0987565 -0.0394619 2.9691e-20)
(0.124731 -0.0396734 -7.40324e-21)
(-0.00155006 0.00501549 -3.22145e-20)
(-0.00439605 0.0121225 1.95271e-20)
(-0.00746761 0.0168921 2.37531e-20)
(-0.0103147 0.0196369 2.05906e-20)
(-0.0126217 0.020611 4.54097e-20)
(-0.0141256 0.0200514 6.75564e-21)
(-0.0145655 0.018183 -6.48711e-21)
(-0.0136948 0.0152118 1.98841e-20)
(-0.0112844 0.0113216 -3.04138e-20)
(-0.00712141 0.00667314 -3.3209e-21)
(-0.00100796 0.00140414 1.45565e-20)
(0.00723925 -0.00436817 -6.67355e-20)
(0.0177891 -0.0105409 -2.16634e-20)
(0.0307943 -0.0170134 2.04114e-20)
(0.0463838 -0.0236649 -4.81846e-20)
(0.0646539 -0.030314 5.3115e-20)
(0.0856573 -0.0366435 6.52075e-21)
(0.109157 -0.0421163 -7.76108e-21)
(0.13462 -0.0459057 -7.99045e-20)
(0.16545 -0.0456409 4.56187e-20)
(-0.00184971 0.00543773 -1.30322e-20)
(-0.00494625 0.0130929 -1.44838e-20)
(-0.0078399 0.0181925 -7.01253e-20)
(-0.0101436 0.0210691 -3.18328e-20)
(-0.0115715 0.0219998 -1.09424e-19)
(-0.0118793 0.0212462 -9.18051e-21)
(-0.0108247 0.0190575 -5.56964e-20)
(-0.00817711 0.0156623 -4.00574e-20)
(-0.00371978 0.0112655 8.86571e-20)
(0.00275042 0.00604704 1.47654e-20)
(0.0114237 0.000161856 3.78782e-20)
(0.0224776 -0.00625809 4.71411e-20)
(0.0360758 -0.0130973 -1.67371e-20)
(0.0523657 -0.0202443 -5.3029e-20)
(0.0714701 -0.0275679 4.80236e-20)
(0.093477 -0.0348737 4.43529e-20)
(0.118436 -0.0418168 -4.3221e-20)
(0.146068 -0.0478096 5.97422e-20)
(0.175683 -0.0519052 9.02108e-20)
(0.211869 -0.050918 2.46743e-20)
(-0.00214125 0.00572913 3.42076e-20)
(-0.0054455 0.0137261 4.36529e-20)
(-0.00808101 0.0190013 2.15487e-20)
(-0.0097265 0.0218979 5.4887e-20)
(-0.0101269 0.0227109 2.56186e-20)
(-0.00905757 0.0217226 6.89451e-20)
(-0.00629593 0.0192025 5.99906e-20)
(-0.00162825 0.0153987 -2.41273e-20)
(0.00514805 0.0105349 -3.86298e-20)
(0.0142248 0.0048083 7.04419e-20)
(0.0257827 -0.00161071 -4.39561e-20)
(0.0399909 -0.00857634 3.24085e-20)
(0.0570047 -0.0159614 4.35543e-20)
(0.0769621 -0.0236445 4.74193e-20)
(0.0999735 -0.0314869 -1.3918e-19)
(0.126111 -0.0392858 -6.42009e-20)
(0.155411 -0.0466778 -1.66356e-20)
(0.187547 -0.0530405 7.17646e-20)
(0.221611 -0.0573329 -1.52084e-19)
(0.263509 -0.0553546 -5.59245e-20)
(-0.00240745 0.00588341 5.17679e-20)
(-0.00584893 0.0140048 -6.5102e-20)
(-0.00812569 0.0192923 -6.99014e-20)
(-0.0089834 0.0220909 -7.34994e-20)
(-0.00819814 0.0227079 -4.62014e-20)
(-0.00556495 0.0214427 -1.10588e-20)
(-0.000881868 0.0185813 -7.69204e-20)
(0.00604667 0.0143883 9.66545e-20)
(0.0154079 0.00910337 2.78789e-20)
(0.0273804 0.00293887 2.7583e-20)
(0.0421331 -0.00392071 -1.11881e-19)
(0.0598236 -0.0113169 1.73016e-20)
(0.0805945 -0.0191114 -1.33549e-20)
(0.104568 -0.0271742 -5.09241e-21)
(0.131836 -0.0353607 -5.31488e-20)
(0.162442 -0.0434649 6.75542e-20)
(0.196398 -0.0511142 -1.48169e-20)
(0.233321 -0.0576698 -1.62147e-19)
(0.272023 -0.0620389 2.21451e-20)
(0.319827 -0.0587883 1.05142e-19)
(-0.00263052 0.00589746 3.76694e-20)
(-0.00610975 0.0139198 -1.25605e-20)
(-0.00790513 0.0190515 7.32562e-20)
(-0.0078291 0.0216304 3.71691e-20)
(-0.00568844 0.0219716 5.45239e-20)
(-0.00129796 0.0203879 5.53477e-21)
(0.00552335 0.0171781 1.04668e-19)
(0.0149519 0.0126201 -9.54856e-20)
(0.027158 0.00696695 -4.32427e-20)
(0.042305 0.000444011 -1.7115e-20)
(0.0605469 -0.00675167 1.11562e-19)
(0.0820257 -0.0144499 -1.95233e-20)
(0.106866 -0.0225022 1.61323e-20)
(0.135167 -0.0307706 6.76697e-20)
(0.16699 -0.0391061 6.4284e-20)
(0.202341 -0.0473043 -1.10897e-19)
(0.241187 -0.0549931 -6.08246e-20)
(0.283083 -0.0615369 3.08683e-20)
(0.326496 -0.0658516 9.71316e-20)
(0.380212 -0.0610477 -1.22226e-20)
(-0.0027925 0.00577114 -4.96879e-20)
(-0.00618008 0.0134699 -2.90105e-20)
(-0.00734814 0.0182766 -4.12824e-20)
(-0.00617461 0.0205142 -4.00181e-20)
(-0.0024961 0.020501 4.6503e-20)
(0.00385314 0.0185598 -9.00693e-20)
(0.0130328 0.0149991 8.90988e-20)
(0.0251992 0.0101067 6.31462e-21)
(0.040504 0.00414631 -7.66752e-20)
(0.0590927 -0.00264564 -1.76182e-20)
(0.0811009 -0.0100613 -7.13628e-20)
(0.10665 -0.0179199 3.29305e-20)
(0.135838 -0.0260634 -2.22835e-20)
(0.168735 -0.0343464 -1.31713e-19)
(0.205357 -0.0426173 6.27102e-21)
(0.245656 -0.0506768 3.94274e-20)
(0.289536 -0.058163 8.55482e-20)
(0.336476 -0.0644635 1.49577e-19)
(0.384548 -0.068581 2.40797e-20)
(0.443976 -0.0619583 -1.47786e-19)
(-0.00287544 0.0055071 -7.00777e-20)
(-0.00601163 0.0126614 -1.10032e-20)
(-0.00638224 0.0169771 1.46772e-19)
(-0.00392853 0.018755 -6.74856e-20)
(0.00148416 0.018313 3.56582e-21)
(0.0100026 0.0159808 -6.60136e-20)
(0.0217647 0.0120731 -6.35068e-20)
(0.0369057 0.00688491 1.1148e-20)
(0.0555566 0.000688004 3.41464e-20)
(0.0778418 -0.00627257 1.25851e-19)
(0.103874 -0.0137798 -3.9937e-20)
(0.133746 -0.0216436 -1.69971e-19)
(0.167525 -0.0296975 1.20308e-19)
(0.205234 -0.0377893 1.02882e-19)
(0.246835 -0.0457659 6.62806e-20)
(0.292204 -0.0534364 1.64935e-19)
(0.341161 -0.0604579 -5.17146e-20)
(0.393091 -0.0662608 -2.34521e-19)
(0.445638 -0.070025 3.77891e-20)
(0.510348 -0.0613503 4.16722e-20)
(-0.00286172 0.00511054 -3.70058e-20)
(-0.0055564 0.0115076 5.00957e-20)
(-0.00493463 0.0151734 -5.1688e-20)
(-0.000998426 0.0163804 8.26825e-20)
(0.00635942 0.0154426 -9.63631e-20)
(0.0172669 0.0126938 8.95684e-20)
(0.0318399 0.00845225 1.71652e-20)
(0.0501909 0.003017 -9.76498e-20)
(0.072428 -0.00333476 8.2104e-20)
(0.0986501 -0.0103516 -8.87164e-20)
(0.128941 -0.0178092 1.09743e-19)
(0.163359 -0.0255103 5.89238e-20)
(0.201926 -0.0332806 4.78048e-20)
(0.244608 -0.0409629 -7.07985e-20)
(0.291294 -0.0484034 -1.06175e-20)
(0.341765 -0.0554227 -8.65152e-20)
(0.395726 -0.0617038 5.73064e-20)
(0.452455 -0.0667387 9.06007e-22)
(0.509161 -0.0699782 -9.73053e-20)
(0.578475 -0.0590691 4.18427e-20)
(-0.00273415 0.00458891 8.64518e-21)
(-0.0047672 0.0100284 3.26824e-20)
(-0.00293322 0.0128968 7.34652e-21)
(0.00270779 0.0134323 2.8086e-20)
(0.0122367 0.0119424 6.63636e-20)
(0.0257627 0.00876265 6.31013e-20)
(0.043379 0.00421175 4.57267e-20)
(0.0651734 -0.00140977 5.75031e-20)
(0.0912275 -0.00782202 -1.15567e-19)
(0.12161 -0.0147697 -1.75913e-20)
(0.156369 -0.0220237 -1.8224e-19)
(0.195518 -0.0293813 -5.63241e-20)
(0.239021 -0.0366631 -6.33481e-20)
(0.286772 -0.0437082 1.04281e-19)
(0.338567 -0.0503644 -1.59419e-19)
(0.394069 -0.0564659 3.14587e-20)
(0.452841 -0.0617274 1.06418e-20)
(0.514027 -0.0657193 1.47622e-19)
(0.574444 -0.0682457 -6.97061e-20)
(0.647423 -0.054992 5.0918e-20)
(-0.00247609 0.00395167 1.14446e-19)
(-0.00359809 0.0082497 4.1982e-20)
(-0.000307479 0.0101882 7.80965e-20)
(0.00728042 0.00996623 7.18105e-20)
(0.0192208 0.00788198 1.19471e-20)
(0.0356039 0.00427079 -1.56019e-19)
(0.0564989 -0.000550762 -1.14617e-19)
(0.0819663 -0.00628356 -1.04639e-19)
(0.112057 -0.0126478 9.83411e-20)
(0.146804 -0.0193871 5.97493e-20)
(0.186209 -0.0262705 2.09787e-19)
(0.23023 -0.0330928 -1.70604e-19)
(0.27876 -0.0396726 6.32598e-20)
(0.331602 -0.0458485 -1.17877e-19)
(0.388436 -0.0514727 8.6158e-20)
(0.448787 -0.0563954 -3.08597e-20)
(0.512049 -0.0603666 3.83172e-20)
(0.577198 -0.0630519 -1.3559e-19)
(0.640764 -0.0646579 1.11183e-19)
(0.716199 -0.049051 4.24658e-20)
(-0.00207152 0.00320999 -1.59368e-19)
(-0.00200478 0.00620279 6.77531e-20)
(0.00301066 0.00709778 -1.06573e-19)
(0.0128065 0.00605024 -1.01057e-19)
(0.0274126 0.00334686 3.76938e-20)
(0.0468992 -0.000679271 1.87673e-19)
(0.0713094 -0.00571624 -1.37661e-19)
(0.100673 -0.0114692 1.7316e-20)
(0.135005 -0.0176615 -3.91747e-20)
(0.174294 -0.0240391 -3.75768e-20)
(0.218487 -0.0303726 1.0002e-19)
(0.267472 -0.0364586 2.16532e-19)
(0.321052 -0.0421182 -8.23671e-21)
(0.378922 -0.0471945 1.77296e-20)
(0.440627 -0.0515486 -6.88193e-21)
(0.505528 -0.0550488 -1.14877e-19)
(0.572824 -0.057482 1.10583e-19)
(0.641292 -0.058627 1.69607e-19)
(0.70735 -0.0590655 4.59171e-20)
(0.783738 -0.0412105 -8.01542e-20)
(-0.00150507 0.00237659 -4.21324e-20)
(5.50155e-05 0.00392379 1.39859e-19)
(0.00708596 0.00368398 -4.09903e-21)
(0.0193683 0.00176422 9.86018e-20)
(0.0369064 -0.00156255 4.616e-20)
(0.0597485 -0.00596744 4.54549e-20)
(0.0879091 -0.0111458 -5.69459e-20)
(0.121383 -0.0168103 9.60898e-20)
(0.160142 -0.0226907 1.58345e-20)
(0.204121 -0.0285391 -5.7965e-20)
(0.253199 -0.0341328 -3.27859e-20)
(0.307179 -0.0392754 -1.50468e-19)
(0.365759 -0.0437969 -1.49754e-19)
(0.428501 -0.0475522 3.4115e-20)
(0.494797 -0.0504183 -1.33577e-20)
(0.563828 -0.0522845 -4.89752e-20)
(0.634578 -0.0529744 -1.50271e-19)
(0.705594 -0.0523891 -1.77347e-19)
(0.773395 -0.0512802 -1.97146e-19)
(0.848806 -0.0313548 1.98271e-20)
(-0.000762086 0.00146553 7.6686e-21)
(0.00262122 0.00145329 -1.27493e-19)
(0.0119789 1.29288e-05 -1.20768e-19)
(0.0270419 -0.0028012 -8.1126e-20)
(0.0477875 -0.00673229 1.46844e-19)
(0.0742401 -0.0114577 -3.17218e-19)
(0.106381 -0.0166831 6.43271e-20)
(0.144165 -0.0221317 -3.8163e-20)
(0.187511 -0.0275439 1.0755e-19)
(0.236291 -0.032683 1.31341e-20)
(0.290301 -0.0373385 -1.65205e-19)
(0.349241 -0.0413284 7.02444e-20)
(0.412684 -0.0445005 2.11355e-20)
(0.480042 -0.0467316 6.86162e-20)
(0.550534 -0.0479249 -7.33705e-20)
(0.623157 -0.0479972 1.24632e-19)
(0.696678 -0.0468122 -5.27666e-20)
(0.769425 -0.0443641 2.54279e-20)
(0.838231 -0.0410738 -1.86531e-20)
(0.910198 -0.0195958 -6.84595e-20)
(0.000171312 0.000492143 1.38681e-19)
(0.00573097 -0.00116407 -2.71294e-20)
(0.017745 -0.00384226 -1.68638e-20)
(0.0358951 -0.00754568 9.89712e-20)
(0.0601302 -0.0120363 -4.99349e-20)
(0.0904469 -0.0170001 2.88435e-19)
(0.126789 -0.0221562 1.31269e-20)
(0.169062 -0.0272426 8.83041e-20)
(0.217126 -0.032015 -1.50244e-19)
(0.270773 -0.0362536 -1.14575e-19)
(0.329701 -0.0397676 1.67751e-19)
(0.39349 -0.0423988 -1.37078e-19)
(0.461567 -0.0440238 1.10798e-19)
(0.533176 -0.0445549 -1.79126e-20)
(0.607353 -0.0439368 3.25736e-19)
(0.682908 -0.0421297 -5.45178e-21)
(0.758435 -0.0390543 1.08752e-19)
(0.832175 -0.0347203 1.52798e-19)
(0.901624 -0.0286483 8.92571e-20)
(0.967966 -0.00825116 1.26419e-19)
(0.00130814 -0.000527029 6.79493e-20)
(0.00941815 -0.00387979 -1.5653e-19)
(0.0244332 -0.00780213 5.34463e-20)
(0.0459863 -0.0123603 8.7423e-20)
(0.0739951 -0.017338 7.37428e-20)
(0.108424 -0.0224329 -2.11384e-19)
(0.149172 -0.0273814 9.57387e-20)
(0.19609 -0.0319407 4.37436e-20)
(0.248963 -0.0358878 1.87981e-20)
(0.307491 -0.0390269 7.79952e-20)
(0.371258 -0.041196 -4.44147e-20)
(0.439703 -0.0422713 1.40461e-19)
(0.512086 -0.0421723 -1.15689e-19)
(0.587468 -0.0408632 -1.17823e-19)
(0.664692 -0.0383504 -2.00214e-19)
(0.742393 -0.0346655 -6.19523e-20)
(0.819031 -0.0298237 -1.32652e-19)
(0.892968 -0.0238265 -1.43758e-19)
(0.962995 -0.0154557 -1.28188e-19)
(1.02548 -0.00190119 -7.66369e-20)
(0.00266042 -0.00157425 1.04875e-19)
(0.0137128 -0.0066418 -2.84375e-20)
(0.0320853 -0.0117815 -7.39267e-20)
(0.0573622 -0.0171284 -2.38953e-19)
(0.0894265 -0.0224921 -1.84801e-20)
(0.128204 -0.0275853 2.55221e-19)
(0.173544 -0.0321659 -5.72468e-20)
(0.225228 -0.0360164 4.99025e-20)
(0.282958 -0.0389416 1.18588e-19)
(0.346323 -0.0407785 3.53074e-20)
(0.414775 -0.0414042 -2.28695e-19)
(0.487592 -0.0407426 -5.6518e-20)
(0.563854 -0.0387706 -3.947e-20)
(0.642422 -0.0355224 1.1109e-19)
(0.721941 -0.0310878 3.15346e-19)
(0.800873 -0.0255986 -9.90963e-20)
(0.877562 -0.0192129 -6.4507e-20)
(0.950394 -0.0121119 1.61932e-19)
(1.01876 -0.00346403 8.61921e-20)
(1.07686 0.00146191 3.36533e-20)
(0.0042389 -0.00263056 -1.13234e-19)
(0.0186406 -0.00939461 8.44367e-20)
(0.0407347 -0.0156899 -1.73922e-19)
(0.0700564 -0.0217274 1.99346e-20)
(0.10645 -0.0273466 1.22125e-19)
(0.149797 -0.0322797 -2.60539e-19)
(0.199886 -0.0363119 -2.73815e-19)
(0.256421 -0.0392573 5.08978e-21)
(0.319002 -0.0409569 -1.64024e-19)
(0.387095 -0.0412903 -1.1573e-19)
(0.46 -0.0401859 1.83725e-19)
(0.536818 -0.0376291 2.90855e-19)
(0.616432 -0.0336704 -1.14442e-19)
(0.697498 -0.0284306 -7.1037e-20)
(0.778466 -0.0221 -1.77184e-19)
(0.857635 -0.014928 1.06062e-20)
(0.933244 -0.00722532 -7.31515e-21)
(1.00364 0.000630411 -6.27692e-21)
(1.06828 0.00914998 1.89044e-20)
(1.1211 0.010412 2.28224e-19)
(0.00605291 -0.00367576 1.13718e-19)
(0.0242216 -0.0120795 1.27733e-19)
(0.0504045 -0.0194326 1.68427e-19)
(0.0840873 -0.0260292 6.67934e-20)
(0.125071 -0.0317443 -9.28589e-20)
(0.173184 -0.036335 -6.52228e-20)
(0.228146 -0.0396202 -9.34811e-21)
(0.289569 -0.0414533 9.45004e-20)
(0.35694 -0.0417212 8.72648e-20)
(0.429583 -0.0403575 5.55437e-20)
(0.506628 -0.0373551 -6.98862e-21)
(0.586988 -0.0327757 -1.40246e-19)
(0.669338 -0.0267589 1.12983e-19)
(0.752134 -0.0195264 -1.74148e-20)
(0.833643 -0.0113801 5.189e-20)
(0.912029 -0.00269044 2.17919e-20)
(0.985462 0.00609822 -1.79863e-20)
(1.05229 0.0144747 4.42774e-20)
(1.11187 0.0227602 -3.21351e-20)
(1.15875 0.0226995 -2.34876e-19)
(0.00810991 -0.00468843 5.94781e-20)
(0.0304701 -0.0146347 -2.30544e-19)
(0.0611069 -0.0229108 1.14085e-19)
(0.0994565 -0.0299022 4.75238e-20)
(0.145271 -0.0355258 -1.40978e-19)
(0.198318 -0.0395697 1.38858e-19)
(0.258237 -0.0418943 7.8196e-20)
(0.324536 -0.0424016 -1.887e-19)
(0.396572 -0.041035 2.32576e-20)
(0.473512 -0.0377952 -3.62488e-20)
(0.554306 -0.0327533 8.66003e-20)
(0.637665 -0.0260626 -6.54311e-20)
(0.722062 -0.0179655 -9.98273e-20)
(0.80576 -0.00879567 1.48229e-19)
(0.886875 0.00102863 -7.27282e-20)
(0.963482 0.0110229 2.99889e-20)
(1.03374 0.0206378 -7.03606e-20)
(1.09607 0.0292917 3.94403e-22)
(1.14981 0.037178 -6.09216e-20)
(1.19046 0.0367022 6.61611e-20)
(0.0104152 -0.00564591 -1.50633e-20)
(0.0373931 -0.0169958 -6.80818e-20)
(0.0728415 -0.026023 -7.71882e-20)
(0.116147 -0.0332127 4.46753e-20)
(0.167007 -0.038531 -1.32245e-20)
(0.225121 -0.0418047 8.48995e-20)
(0.290034 -0.0429445 6.06962e-20)
(0.36114 -0.0419114 5.82632e-20)
(0.437652 -0.0387176 1.91235e-20)
(0.518566 -0.0334441 5.10142e-20)
(0.60264 -0.0262556 8.71874e-20)
(0.688385 -0.0174104 1.89512e-20)
(0.774079 -0.00726563 -4.381e-20)
(0.85782 0.00372631 3.47165e-20)
(0.937615 0.015033 1.09334e-19)
(1.01151 0.0260701 -1.99969e-19)
(1.07773 0.0362167 6.12845e-20)
(1.13487 0.0448743 7.46284e-20)
(1.18234 0.0521588 2.35806e-20)
(1.21669 0.0515234 4.77476e-20)
(0.0129717 -0.00652438 -2.39523e-20)
(0.0449897 -0.0190963 1.4848e-19)
(0.0855941 -0.0286656 5.18859e-20)
(0.134123 -0.0358265 -1.61096e-19)
(0.190212 -0.0406023 -4.3457e-20)
(0.253483 -0.0428671 8.30792e-20)
(0.323379 -0.042592 4.04799e-20)
(0.399163 -0.0398089 1.43368e-19)
(0.479893 -0.0346118 -5.51983e-21)
(0.564385 -0.0271764 7.06482e-21)
(0.651203 -0.0177749 -7.38932e-20)
(0.738662 -0.0067834 -1.16897e-19)
(0.824866 0.00531791 -1.2925e-20)
(0.907786 0.0179567 -7.36692e-20)
(0.985375 0.0304951 6.35137e-20)
(1.05572 0.0422699 3.08363e-19)
(1.11721 0.0526243 1.19978e-19)
(1.16865 0.060989 -1.17773e-19)
(1.20968 0.0674505 -5.88878e-20)
(1.23785 0.0665909 2.28495e-20)
(0.0157789 -0.00729907 1.14746e-19)
(0.0532498 -0.0208679 -1.80785e-19)
(0.0993352 -0.0307344 -1.7227e-19)
(0.153325 -0.0376108 2.36779e-19)
(0.21479 -0.0415866 7.08187e-20)
(0.283264 -0.0425932 -4.4837e-20)
(0.358075 -0.040673 -1.30614e-19)
(0.438347 -0.0359416 -1.63329e-19)
(0.522972 -0.0285886 1.10581e-19)
(0.610582 -0.0188988 1.99174e-20)
(0.699548 -0.00726492 5.99974e-20)
(0.788007 0.00580936 5.01618e-20)
(0.873919 0.0197169 -3.84537e-21)
(0.955177 0.0337702 -3.40318e-20)
(1.02975 0.047241 -6.8279e-20)
(1.09583 0.0594146 -1.86843e-19)
(1.15204 0.0696352 -7.38913e-20)
(1.19751 0.0774022 2.47394e-19)
(1.23214 0.0828158 4.04013e-20)
(1.2544 0.0815289 -6.07361e-20)
(0.0188334 -0.00794442 -1.18991e-19)
(0.0621537 -0.0222415 1.26519e-19)
(0.11402 -0.0321257 3.79899e-21)
(0.173675 -0.0384363 -5.33075e-20)
(0.24062 -0.0413385 -1.77331e-20)
(0.31429 -0.0408317 -1.5065e-20)
(0.393892 -0.037042 -9.50766e-20)
(0.4784 -0.0301819 1.17039e-19)
(0.566535 -0.0205507 -1.95461e-19)
(0.656744 -0.00855588 6.62721e-22)
(0.747219 0.00527864 -3.55415e-20)
(0.835941 0.0203153 -1.74957e-20)
(0.920768 0.0358215 4.1763e-20)
(0.999574 0.0510057 -9.53718e-20)
(1.0704 0.0650714 -5.21816e-21)
(1.13165 0.0772838 5.30164e-20)
(1.18223 0.0870254 -1.31649e-19)
(1.22162 0.0938979 1.28298e-22)
(1.25007 0.0980525 7.17227e-22)
(1.26681 0.0960989 1.07276e-19)
(0.0221279 -0.00843438 1.75816e-20)
(0.0716713 -0.0231483 3.47634e-20)
(0.129586 -0.0327384 6.7769e-20)
(0.195071 -0.0381795 -3.67315e-20)
(0.267552 -0.0397229 -1.21222e-19)
(0.346359 -0.0374475 3.19218e-20)
(0.43057 -0.0315759 7.35059e-20)
(0.519003 -0.0224309 4.01946e-20)
(0.610205 -0.0104355 1.3772e-19)
(0.702447 0.00386888 -3.82038e-20)
(0.793761 0.0198186 -2.30765e-20)
(0.882005 0.0366412 2.03472e-20)
(0.964988 0.053486 -5.88129e-20)
(1.04062 0.0694752 -8.28963e-20)
(1.10711 0.083772 -5.46179e-20)
(1.1631 0.0956561 4.53172e-20)
(1.20785 0.104584 1.11207e-19)
(1.24125 0.110289 -5.41307e-20)
(1.26385 0.113 -8.45297e-20)
(1.27557 0.110158 1.29859e-20)
(0.025651 -0.00874288 2.96637e-20)
(0.081761 -0.0235206 7.23472e-21)
(0.145954 -0.0324752 -9.00905e-20)
(0.21739 -0.0367252 1.20308e-19)
(0.295413 -0.036618 2.71951e-20)
(0.379243 -0.0323243 -1.42949e-19)
(0.467822 -0.0241763 5.52925e-20)
(0.559811 -0.0126206 -7.33322e-20)
(0.653589 0.00178408 3.72086e-21)
(0.747264 0.0183527 1.2297e-20)
(0.838733 0.0362785 3.61303e-20)
(0.925777 0.0546577 4.54709e-21)
(1.00621 0.0725358 1.65467e-19)
(1.07805 0.0889729 6.61934e-20)
(1.13972 0.103124 -3.22359e-20)
(1.19019 0.114319 -3.69993e-20)
(1.22908 0.122123 2.10312e-20)
(1.25668 0.12642 2.23412e-20)
(1.27389 0.127541 -3.70269e-20)
(1.28112 0.12363 -4.05892e-20)
(0.0293871 -0.00884418 -3.49757e-20)
(0.0923702 -0.0232931 2.14028e-21)
(0.163028 -0.031245 1.84814e-20)
(0.240485 -0.0339685 -5.01161e-20)
(0.324002 -0.0319178 9.75302e-20)
(0.412685 -0.0253679 5.66461e-20)
(0.505337 -0.014773 -5.75057e-20)
(0.600465 -0.00071614 -3.87699e-20)
(0.696288 0.016098 3.56568e-20)
(0.790774 0.0348348 -5.62725e-20)
(0.88172 0.0545452 4.28999e-20)
(0.966879 0.0742046 -7.21942e-22)
(1.04413 0.0927747 1.68044e-21)
(1.11166 0.109283 -3.38215e-20)
(1.16817 0.122911 9.63399e-20)
(1.21299 0.133076 -8.33119e-21)
(1.24614 0.13948 4.10943e-20)
(1.26827 0.142171 -5.92945e-20)
(1.28058 0.141592 4.50877e-20)
(1.2839 0.136483 -1.86718e-20)
(0.0333161 -0.00871348 5.66645e-20)
(0.103434 -0.0224046 6.98837e-20)
(0.180695 -0.0289647 5.14274e-20)
(0.264191 -0.0298179 -7.81814e-21)
(0.3531 -0.0255354 1.02759e-20)
(0.446411 -0.0165084 7.22265e-22)
(0.54279 -0.0033254 1.24407e-19)
(0.640595 0.0132834 -3.74286e-20)
(0.737904 0.03246 2.69021e-20)
(0.832573 0.0532184 -1.38046e-19)
(0.92234 0.0744738 2.06634e-20)
(1.00498 0.0950972 6.37164e-20)
(1.07851 0.113992 -2.87313e-20)
(1.14133 0.130187 6.09362e-20)
(1.19248 0.142928 -8.00609e-20)
(1.23166 0.151751 1.09953e-19)
(1.25929 0.156518 3.82707e-21)
(1.27637 0.15745 -3.68235e-20)
(1.28433 0.155103 1.32057e-21)
(1.2843 0.148715 5.47174e-20)
(0.0374136 -0.0083274 -1.05633e-19)
(0.114878 -0.0207993 2.75065e-20)
(0.198825 -0.0255614 -1.1341e-20)
(0.288323 -0.0241973 -7.99036e-20)
(0.382467 -0.0174048 -2.98246e-20)
(0.480128 -0.0057026 -5.74157e-20)
(0.57984 0.0101756 -5.0768e-20)
(0.679828 0.0293445 -5.56129e-20)
(0.77805 0.0507884 5.83478e-20)
(0.872282 0.0733737 2.96924e-20)
(0.960252 0.0958921 -8.86893e-20)
(1.03982 0.117132 -2.26744e-20)
(1.10917 0.135971 -1.08901e-20)
(1.16701 0.151474 -4.6182e-20)
(1.21272 0.162986 -7.97936e-21)
(1.2464 0.170192 -1.94588e-20)
(1.26883 0.173129 -7.91319e-20)
(1.28132 0.172192 3.8209e-20)
(1.28549 0.168046 4.7249e-20)
(1.28265 0.160341 -1.17508e-20)
(0.0416505 -0.00766468 3.53857e-21)
(0.126614 -0.018428 -4.95447e-20)
(0.217273 -0.0209743 2.32984e-20)
(0.312679 -0.0170487 -1.67086e-20)
(0.411845 -0.00748368 2.05317e-20)
(0.51353 0.00706399 9.46459e-20)
(0.616146 0.025707 -4.13203e-20)
(0.717799 0.0473994 1.05868e-19)
(0.816355 0.0709687 5.51439e-21)
(0.909554 0.0951421 5.56066e-20)
(0.995161 0.118606 5.086e-21)
(1.07117 0.140094 4.04686e-20)
(1.13601 0.158491 8.82551e-21)
(1.18871 0.172938 4.14302e-21)
(1.22902 0.182911 -6.23292e-20)
(1.25743 0.188266 1.11432e-20)
(1.27506 0.189228 5.75311e-20)
(1.28347 0.186354 2.62282e-21)
(1.28439 0.180408 -2.80849e-20)
(1.27927 0.171383 1.15221e-20)
(0.0459938 -0.0067067 1.24893e-20)
(0.138547 -0.0152501 3.93755e-20)
(0.235883 -0.0151571 4.30973e-20)
(0.337045 -0.00833386 -1.27916e-20)
(0.440968 0.00424496 5.73928e-20)
(0.546306 0.0217763 -1.18765e-20)
(0.651362 0.0432131 9.76524e-20)
(0.754149 0.0673475 -1.27173e-19)
(0.852473 0.0928556 -2.34112e-20)
(0.944079 0.118339 -2.38426e-20)
(1.02682 0.142404 -2.95561e-20)
(1.09889 0.16376 -7.24919e-21)
(1.15898 0.181339 1.07529e-20)
(1.20649 0.19439 -4.01995e-20)
(1.24155 0.20255 4.15505e-20)
(1.26501 0.205866 -1.82985e-20)
(1.27829 0.204748 -1.42168e-20)
(1.28313 0.199906 -1.31677e-20)
(1.28135 0.192188 -8.32533e-21)
(1.2744 0.181867 -2.63594e-20)
(0.0504064 -0.0054381 5.76827e-20)
(0.15057 -0.0112345 -5.96575e-20)
(0.254485 -0.00807921 7.25885e-21)
(0.361191 0.00196333 -8.4886e-21)
(0.469557 0.0177713 -2.0662e-20)
(0.57814 0.0383886 -4.33943e-20)
(0.685153 0.0626064 -7.09408e-21)
(0.78854 0.0890572 3.08953e-20)
(0.886088 0.116277 1.48287e-20)
(0.97559 0.142761 -1.86416e-20)
(1.05504 0.167063 2.13993e-20)
(1.12287 0.187908 -4.60111e-21)
(1.17809 0.204306 -4.52258e-20)
(1.22047 0.215652 6.74277e-20)
(1.25052 0.22177 1.90158e-20)
(1.26941 0.222902 -1.03385e-20)
(1.27882 0.219641 1.27089e-20)
(1.28061 0.212832 1.95946e-20)
(1.27661 0.203389 1.93722e-20)
(1.26827 0.191814 2.04599e-20)
(0.0548477 -0.00384737 -5.93826e-20)
(0.162569 -0.00636149 4.88557e-20)
(0.272899 0.000272161 2.13877e-20)
(0.384885 0.0138358 -4.47489e-20)
(0.497333 0.0330575 -9.6451e-21)
(0.608721 0.056825 -3.91676e-20)
(0.717194 0.0837681 1.60065e-20)
(0.820657 0.112368 -2.74203e-20)
(0.916916 0.141036 2.22042e-21)
(1.00386 0.168187 4.83117e-21)
(1.07968 0.192354 9.51136e-21)
(1.14307 0.212314 -3.71355e-20)
(1.1934 0.227196 3.91222e-20)
(1.23079 0.236567 -2.83339e-20)
(1.25613 0.240453 -7.86928e-21)
(1.27089 0.239299 3.83449e-21)
(1.27691 0.233869 -8.82304e-21)
(1.27615 0.22512 -2.06021e-20)
(1.2704 0.214017 -9.10779e-22)
(1.26105 0.201241 -1.4084e-20)
(0.0592741 -0.00192734 -7.19291e-21)
(0.174425 -0.000623228 -2.26618e-20)
(0.290941 0.00989095 -7.90804e-21)
(0.407886 0.0272521 1.29267e-20)
(0.524017 0.0500377 -7.89153e-21)
(0.637747 0.0769791 8.28696e-21)
(0.747177 0.10655 2.06447e-20)
(0.850211 0.137094 1.92145e-20)
(0.944715 0.166916 1.58824e-20)
(1.02872 0.194383 -3.80645e-21)
(1.10064 0.218045 -1.02008e-20)
(1.15949 0.236764 1.23423e-20)
(1.20498 0.249824 -6.21229e-21)
(1.23763 0.256989 8.05875e-21)
(1.25863 0.2585 -4.97848e-21)
(1.2697 0.254998 1.08106e-20)
(1.27283 0.247403 -2.99881e-21)
(1.27 0.236764 1.28474e-20)
(1.26292 0.224075 -3.12387e-21)
(1.25288 0.210159 1.95556e-21)
(0.0636395 0.000324331 -8.82814e-23)
(0.186013 0.00597485 -6.93894e-23)
(0.308422 0.0207512 -2.66982e-21)
(0.429956 0.0421556 1.36161e-20)
(0.549334 0.0686179 9.01801e-21)
(0.664927 0.0987159 -7.18966e-21)
(0.77482 0.130778 -5.65838e-21)
(0.876949 0.163026 -1.80063e-21)
(0.96928 0.193687 -8.82355e-21)
(1.05003 0.221112 -4.97925e-22)
(1.11788 0.243903 4.57399e-22)
(1.17217 0.26105 -4.30885e-21)
(1.21298 0.272019 -2.86133e-21)
(1.24118 0.276791 -6.65344e-21)
(1.25824 0.275824 -7.23192e-21)
(1.2661 0.269948 -6.29537e-22)
(1.26682 0.26022 2.72632e-21)
(1.26235 0.247756 2.95397e-21)
(1.25433 0.233563 3.43528e-21)
(1.24389 0.218573 4.89932e-21)
(0.0678963 0.00290483 8.21168e-21)
(0.197207 0.0134135 -1.40295e-21)
(0.325153 0.0328064 -2.40261e-21)
(0.450857 0.0584648 6.19881e-21)
(0.57302 0.0886761 1.28689e-20)
(0.689989 0.121873 -5.86459e-21)
(0.799864 0.156252 -4.95944e-21)
(0.900648 0.189935 -9.84188e-21)
(0.990449 0.221104 -9.30727e-21)
(1.0677 0.248128 1.77777e-21)
(1.13139 0.269702 -1.74096e-21)
(1.18118 0.284975 -7.52611e-22)
(1.21754 0.293623 -4.21316e-21)
(1.24163 0.295857 -6.8669e-21)
(1.25519 0.29235 -1.53809e-21)
(1.2603 0.284106 -5.5638e-22)
(1.25906 0.272299 -2.16385e-22)
(1.25338 0.258087 1.41651e-21)
(1.24476 0.242477 5.38066e-21)
(1.23417 0.22648 4.31123e-21)
(0.0719957 0.00580589 -4.91782e-21)
(0.207878 0.0216593 -7.7927e-21)
(0.340945 0.0459895 -1.06703e-20)
(0.470363 0.076073 1.43927e-20)
(0.594826 0.110065 1.43264e-20)
(0.712684 0.146262 4.41144e-22)
(0.822082 0.18275 5.90794e-21)
(0.921126 0.217578 1.69416e-20)
(1.0081 0.248916 1.93136e-20)
(1.0817 0.275187 1.29713e-20)
(1.1412 0.295219 -3.23781e-20)
(1.18664 0.308352 1.37157e-20)
(1.21882 0.314492 -6.2337e-21)
(1.23919 0.314084 1.47732e-20)
(1.2497 0.308012 -3.53121e-22)
(1.25253 0.297436 -2.45889e-21)
(1.24977 0.283621 1.40136e-21)
(1.24324 0.267748 1.25645e-20)
(1.23432 0.250808 -5.01702e-21)
(1.22381 0.233872 -4.36933e-22)
(0.0758887 0.00901359 -1.52915e-20)
(0.217902 0.0306643 3.77046e-20)
(0.355618 0.0602127 3.82802e-21)
(0.488255 0.0948498 -4.95144e-20)
(0.61452 0.13261 -9.56331e-21)
(0.732788 0.171673 2.28147e-20)
(0.841279 0.210033 -5.40058e-20)
(0.938237 0.2457 -7.59436e-22)
(1.02216 0.276865 4.91734e-21)
(1.092 0.302049 -1.4627e-21)
(1.14739 0.320244 1.70326e-20)
(1.18868 0.331009 -2.81644e-20)
(1.217 0.334494 4.4005e-21)
(1.23407 0.331382 -1.01902e-20)
(1.24198 0.322752 -7.79923e-21)
(1.24296 0.309902 7.56971e-21)