/*--------------------------------*- C++ -*----------------------------------*\
  =========                 |
  \\      /  F ield         | OpenFOAM: The Open Source CFD Toolbox
   \\    /   O peration     | Website:  https://openfoam.org
    \\  /    A nd           | Version:  7
     \\/     M anipulation  |
\*---------------------------------------------------------------------------*/
FoamFile
{
    version     2.0;
    format      ascii;
    class       volScalarField;
    location    "4";
    object      p;
}
// * * * * * * * * * * * * * * * * * * * * * * * * * * * * * * * * * * * * * //

dimensions      [0 2 -2 0 0 0 0];

internalField   nonuniform List<scalar> 
344
(
0.24205
0.245037
0.247853
0.250503
0.25299
0.255319
0.257492
0.259514
0.261388
0.263118
0.264707
0.266157
0.267473
0.268658
0.269713
0.270643
0.27145
0.272136
0.272705
0.273159
0.2735
0.27373
0.273853
0.273871
0.273785
0.273598
0.273313
0.27293
0.272452
0.271882
0.27122
0.27047
0.269632
0.268708
0.2677
0.26661
0.26544
0.26419
0.262863
0.26146
0.259982
0.258431
0.256808
0.255115
0.253353
0.251523
0.249626
0.247665
0.245638
0.154202
0.16109
0.16771
0.174071
0.180179
0.186039
0.191658
0.197042
0.202197
0.207129
0.211843
0.216344
0.220638
0.22473
0.228624
0.232326
0.235841
0.239172
0.242325
0.245303
0.24811
0.250752
0.253231
0.255552
0.257718
0.259733
0.2616
0.263323
0.264905
0.26635
0.26766
0.268838
0.269888
0.270812
0.271613
0.272295
0.272858
0.273307
0.273643
0.27387
0.273988
0.274002
0.273912
0.273721
0.273431
0.273045
0.272564
0.27199
0.271325
0.270571
0.26973
0.268803
0.267793
0.2667
0.265527
0.264274
0.262945
0.261539
0.260059
0.258506
0.256881
0.255186
0.253421
0.251589
0.249691
0.247727
0.245699
0.243608
0.154599
0.161476
0.168086
0.174436
0.180533
0.186383
0.191993
0.197367
0.202513
0.207435
0.21214
0.216632
0.220917
0.225001
0.228887
0.232581
0.236088
0.239412
0.242557
0.245528
0.248329
0.250963
0.253436
0.25575
0.25791
0.259919
0.261781
0.263498
0.265075
0.266514
0.267819
0.268993
0.270038
0.270957
0.271754
0.272431
0.272991
0.273435
0.273768
0.27399
0.274105
0.274115
0.274022
0.273828
0.273535
0.273145
0.272661
0.272084
0.271417
0.27066
0.269816
0.268887
0.267874
0.266779
0.265603
0.264349
0.263017
0.261609
0.260127
0.258572
0.256945
0.255248
0.253482
0.251649
0.249749
0.247783
0.245754
0.243662
0.154907
0.161776
0.168378
0.174721
0.180811
0.186653
0.192255
0.197623
0.202761
0.207677
0.212375
0.21686
0.221139
0.225216
0.229097
0.232785
0.236286
0.239604
0.242743
0.245709
0.248504
0.251134
0.253602
0.255911
0.258066
0.260071
0.261928
0.263641
0.265214
0.266649
0.26795
0.269119
0.270161
0.271077
0.27187
0.272544
0.2731
0.273542
0.273871
0.274091
0.274203
0.27421
0.274114
0.273917
0.273622
0.27323
0.272743
0.272164
0.271494
0.270736
0.26989
0.268958
0.267943
0.266846
0.265669
0.264413
0.263079
0.26167
0.260186
0.25863
0.257002
0.255303
0.253536
0.251701
0.249799
0.247833
0.245802
0.243709
0.155123
0.161987
0.168585
0.174924
0.181009
0.186847
0.192444
0.197807
0.202941
0.207852
0.212546
0.217027
0.221302
0.225375
0.229251
0.232935
0.236432
0.239746
0.242882
0.245844
0.248636
0.251262
0.253727
0.256033
0.258185
0.260186
0.26204
0.26375
0.26532
0.266752
0.26805
0.269217
0.270256
0.27117
0.271961
0.272632
0.273186
0.273625
0.273952
0.27417
0.27428
0.274285
0.274187
0.273988
0.273691
0.273298
0.272809
0.272229
0.271557
0.270797
0.26995
0.269017
0.268
0.266902
0.265723
0.264466
0.263131
0.261721
0.260236
0.258678
0.257049
0.255349
0.253581
0.251745
0.249842
0.247875
0.245843
0.243749
0.155262
0.162125
0.168721
0.175057
0.18114
0.186976
0.192571
0.197932
0.203064
0.207973
0.212664
0.217143
0.221416
0.225486
0.22936
0.233042
0.236537
0.239849
0.242982
0.245942
0.248732
0.251356
0.253818
)
;

boundaryField
{
    inlet
    {
        type            zeroGradient;
    }
    outlet
    {
        type            fixedValue;
        value           nonuniform 0();
    }
    wall
    {
        type            zeroGradient;
    }
    wedge1
    {
        type            wedge;
    }
    wedge2
    {
        type            wedge;
    }
    axis
    {
        type            empty;
    }
    procBoundary16to10
    {
        type            processor;
        value           nonuniform List<scalar> 
68
(
0.241742
0.244739
0.247565
0.250224
0.25272
0.255057
0.257239
0.259269
0.261151
0.262889
0.264485
0.265943
0.267266
0.268457
0.269519
0.270455
0.271268
0.27196
0.272534
0.272994
0.27334
0.273576
0.273704
0.273726
0.273645
0.273463
0.273181
0.272803
0.272329
0.271763
0.271105
0.270358
0.269523
0.268603
0.267599
0.266512
0.265344
0.264098
0.262773
0.261373
0.259898
0.25835
0.256729
0.255039
0.253279
0.251451
0.249557
0.247597
0.245573
0.153723
0.160624
0.167258
0.173633
0.179753
0.185626
0.191258
0.196654
0.201821
0.206764
0.211489
0.216001
0.220306
0.224408
0.228313
0.232025
0.235549
0.238889
0.238889
)
;
    }
    procBoundary16to11
    {
        type            processor;
        value           uniform 0.243549;
    }
    procBoundary16to15
    {
        type            processor;
        value           nonuniform List<scalar> 3(0.147041 0.14745 0.147765);
    }
    procBoundary16to17
    {
        type            processor;
        value           nonuniform List<scalar> 4(0.241456 0.241508 0.241554 0.241593);
    }
    procBoundary16to21
    {
        type            processor;
        value           nonuniform List<scalar> 2(0.147985 0.148126);
    }
    procBoundary16to22
    {
        type            processor;
        value           nonuniform List<scalar> 
69
(
0.256123
0.258273
0.260272
0.262124
0.263832
0.2654
0.266831
0.268127
0.269293
0.27033
0.271242
0.272031
0.272701
0.273253
0.273691
0.274017
0.274233
0.274342
0.274346
0.274247
0.274047
0.273748
0.273354
0.272864
0.272282
0.27161
0.270848
0.27
0.269066
0.268049
0.26695
0.26577
0.264512
0.263176
0.261765
0.260279
0.258721
0.257091
0.25539
0.253621
0.251784
0.249881
0.247913
0.245881
0.243786
0.155362
0.162224
0.16882
0.175155
0.181238
0.187073
0.192667
0.198027
0.203158
0.208066
0.212756
0.217234
0.221506
0.225575
0.229448
0.233129
0.236622
0.239933
0.243066
0.246024
0.248813
0.251436
0.256123
0.253897
)
;
    }
}


// ************************************************************************* //
