/*--------------------------------*- C++ -*----------------------------------*\
  =========                 |
  \\      /  F ield         | OpenFOAM: The Open Source CFD Toolbox
   \\    /   O peration     | Website:  https://openfoam.org
    \\  /    A nd           | Version:  7
     \\/     M anipulation  |
\*---------------------------------------------------------------------------*/
FoamFile
{
    version     2.0;
    format      ascii;
    class       volScalarField;
    location    "2.3";
    object      rho;
}
// * * * * * * * * * * * * * * * * * * * * * * * * * * * * * * * * * * * * * //

dimensions      [1 -3 0 0 0 0 0];

internalField   nonuniform List<scalar> 
84
(
1.20646
1.17937
1.16321
1.15053
1.1383
1.12622
1.11344
1.09792
1.07426
1.04555
1.02199
1.00681
1.00111
0.996192
0.998755
1.02302
1.11508
1.24963
1.41996
1.55732
1.67034
1.20402
1.17785
1.16513
1.1563
1.14828
1.13942
1.1269
1.10792
1.07943
1.04701
1.02151
1.00645
0.99728
0.990028
0.987545
0.98559
0.986184
0.999446
1.05017
1.13517
1.33553
1.21786
1.20183
1.19392
1.18606
1.17716
1.16627
1.15185
1.13012
1.09692
1.06144
1.04005
1.0288
1.01938
1.01015
1.0009
0.992116
0.981059
0.970551
0.954751
0.952473
1.01266
1.19314
1.1813
1.1738
1.16583
1.1568
1.14541
1.13126
1.10959
1.07571
1.04154
1.02293
1.01237
1.00299
0.993515
0.983124
0.973095
0.961569
0.948299
0.931853
0.902803
0.889896
)
;

boundaryField
{
    inlet
    {
        type            calculated;
        value           nonuniform 0();
    }
    outlet
    {
        type            calculated;
        value           nonuniform List<scalar> 4(1.67349 1.34031 1.01586 0.891023);
    }
    bottom
    {
        type            symmetryPlane;
    }
    top
    {
        type            symmetryPlane;
    }
    obstacle
    {
        type            calculated;
        value           nonuniform 0();
    }
    defaultFaces
    {
        type            empty;
    }
    procBoundary47to41
    {
        type            processor;
        value           nonuniform List<scalar> 
21
(
1.22705
1.19686
1.17539
1.1579
1.14005
1.12251
1.10571
1.09245
1.07863
1.05488
1.03218
1.01617
1.0246
1.06603
1.17595
1.34405
1.52767
1.65962
1.76998
1.78842
1.77242
)
;
    }
    procBoundary47to46
    {
        type            processor;
        value           nonuniform List<scalar> 4(1.24536 1.24626 1.25899 1.22984);
    }
}


// ************************************************************************* //
