/*--------------------------------*- C++ -*----------------------------------*\
  =========                 |
  \\      /  F ield         | OpenFOAM: The Open Source CFD Toolbox
   \\    /   O peration     | Website:  https://openfoam.org
    \\  /    A nd           | Version:  7
     \\/     M anipulation  |
\*---------------------------------------------------------------------------*/
FoamFile
{
    version     2.0;
    format      ascii;
    class       volScalarField;
    location    "2";
    object      p;
}
// * * * * * * * * * * * * * * * * * * * * * * * * * * * * * * * * * * * * * //

dimensions      [0 2 -2 0 0 0 0];

internalField   nonuniform List<scalar> 
5600
(
-0.363466
-0.390163
-0.409845
-0.426516
-0.412322
-0.354673
-0.258443
-0.145851
-0.0505625
0.023244
-0.366839
-0.393151
-0.413242
-0.430764
-0.417772
-0.361111
-0.265187
-0.15217
-0.0563378
0.0179666
-0.373359
-0.398901
-0.419758
-0.438896
-0.428201
-0.373424
-0.278063
-0.164253
-0.0673836
0.00788325
-0.382594
-0.406986
-0.428866
-0.450227
-0.442729
-0.390588
-0.296
-0.181132
-0.0826801
-0.00616469
-0.393958
-0.416822
-0.439847
-0.463824
-0.460171
-0.411264
-0.317529
-0.201374
-0.101151
-0.0231393
-0.406771
-0.427734
-0.451862
-0.478601
-0.479158
-0.433971
-0.340735
-0.223642
-0.121581
-0.041947
-0.420324
-0.439018
-0.46403
-0.493414
-0.498262
-0.457121
-0.363671
-0.246687
-0.14282
-0.0615535
-0.433942
-0.450009
-0.475511
-0.507175
-0.516081
-0.477781
-0.386384
-0.268996
-0.163783
-0.0810519
-0.447043
-0.460135
-0.485573
-0.518976
-0.531468
-0.495976
-0.406517
-0.289357
-0.183539
-0.0997014
-0.459169
-0.468959
-0.493697
-0.528222
-0.543431
-0.510623
-0.423114
-0.306895
-0.201369
-0.116946
-0.470005
-0.476301
-0.499734
-0.534179
-0.551446
-0.521046
-0.435613
-0.321076
-0.216797
-0.132411
-0.479381
-0.481969
-0.503296
-0.536924
-0.555403
-0.527042
-0.443809
-0.331702
-0.229587
-0.145888
-0.487259
-0.486037
-0.504561
-0.536642
-0.555513
-0.528789
-0.447825
-0.338854
-0.239711
-0.157311
-0.493716
-0.488717
-0.503953
-0.533738
-0.552333
-0.526745
-0.448042
-0.342826
-0.2473
-0.166729
-0.498922
-0.490301
-0.501991
-0.528814
-0.546647
-0.521544
-0.445007
-0.344044
-0.252578
-0.174248
-0.503114
-0.491142
-0.499249
-0.522616
-0.539304
-0.513882
-0.439354
-0.342995
-0.25578
-0.17994
-0.506589
-0.491634
-0.496301
-0.51593
-0.531061
-0.504442
-0.431739
-0.340179
-0.257086
-0.183777
-0.509681
-0.492195
-0.493653
-0.509531
-0.522474
-0.493839
-0.422796
-0.336069
-0.256618
-0.185793
-0.512748
-0.493236
-0.4917
-0.504108
-0.513876
-0.482591
-0.413109
-0.331082
-0.254607
-0.186612
-0.516156
-0.495127
-0.490722
-0.500129
-0.505455
-0.471112
-0.403155
-0.325557
-0.251713
-0.187704
-0.520255
-0.498134
-0.490932
-0.497731
-0.497328
-0.459721
-0.393269
-0.319732
-0.249012
-0.19011
-0.525357
-0.502373
-0.492515
-0.496697
-0.489585
-0.448655
-0.383648
-0.313776
-0.246847
-0.192633
-0.531716
-0.5078
-0.495646
-0.496581
-0.482265
-0.438069
-0.374402
-0.307848
-0.244637
-0.194006
-0.539507
-0.514256
-0.500426
-0.496911
-0.475352
-0.428045
-0.365578
-0.301972
-0.242204
-0.19449
-0.548805
-0.521553
-0.506796
-0.497349
-0.468782
-0.418598
-0.357174
-0.296157
-0.23945
-0.194067
-0.559559
-0.529545
-0.514463
-0.497723
-0.462473
-0.409689
-0.349153
-0.290375
-0.236345
-0.192906
-0.571589
-0.538164
-0.522914
-0.497955
-0.456343
-0.401237
-0.341449
-0.284592
-0.232889
-0.191091
-0.584609
-0.547408
-0.53152
-0.497972
-0.450319
-0.393142
-0.33398
-0.278762
-0.229082
-0.188698
-0.59827
-0.557305
-0.539675
-0.497661
-0.444324
-0.385293
-0.326654
-0.272838
-0.224925
-0.18577
-0.612179
-0.567849
-0.546893
-0.496876
-0.438274
-0.377576
-0.319378
-0.266769
-0.220413
-0.182338
-0.62598
-0.57895
-0.55285
-0.495458
-0.432074
-0.369883
-0.312058
-0.260506
-0.215536
-0.17842
-0.639349
-0.590386
-0.557371
-0.493258
-0.42562
-0.362105
-0.304607
-0.253996
-0.210281
-0.174028
-0.652
-0.601801
-0.560389
-0.490147
-0.418802
-0.354141
-0.296943
-0.247194
-0.204632
-0.169171
-0.663693
-0.612732
-0.56189
-0.486027
-0.41151
-0.345892
-0.288992
-0.240054
-0.19857
-0.163851
-0.674223
-0.622665
-0.561868
-0.480824
-0.40364
-0.337267
-0.280684
-0.232535
-0.192079
-0.15807
-0.683422
-0.631105
-0.560294
-0.474481
-0.395096
-0.328177
-0.271957
-0.224599
-0.185141
-0.151827
-0.691144
-0.637634
-0.557094
-0.466952
-0.385796
-0.318546
-0.262757
-0.216214
-0.177739
-0.145123
-0.697253
-0.641915
-0.552185
-0.45819
-0.375664
-0.308302
-0.253034
-0.207349
-0.169859
-0.137966
-0.70161
-0.643698
-0.545484
-0.448151
-0.364636
-0.297385
-0.242746
-0.197977
-0.161491
-0.130368
-0.704061
-0.642809
-0.53692
-0.436792
-0.35266
-0.285744
-0.231857
-0.188077
-0.152627
-0.122335
-0.704431
-0.639131
-0.526433
-0.424073
-0.339689
-0.273335
-0.220332
-0.177627
-0.143267
-0.113845
-0.702528
-0.632591
-0.513979
-0.40996
-0.325687
-0.260118
-0.208139
-0.166607
-0.133425
-0.104846
-0.698141
-0.623144
-0.499524
-0.394425
-0.310619
-0.24606
-0.195251
-0.154993
-0.123133
-0.0953421
-0.691057
-0.610761
-0.483047
-0.377449
-0.294446
-0.231139
-0.18167
-0.142809
-0.112363
-0.0854838
-0.681064
-0.595434
-0.464538
-0.35901
-0.277134
-0.215368
-0.167445
-0.130199
-0.10097
-0.0752612
-0.667972
-0.577164
-0.443993
-0.339079
-0.258696
-0.198807
-0.152607
-0.117034
-0.0890689
-0.0646607
-0.651612
-0.555962
-0.421409
-0.31762
-0.239258
-0.181457
-0.13711
-0.103314
-0.0767103
-0.0536923
-0.631856
-0.531848
-0.396778
-0.294696
-0.218929
-0.163246
-0.12097
-0.0890604
-0.0639258
-0.0423799
-0.608622
-0.50489
-0.370088
-0.270697
-0.197413
-0.144218
-0.10421
-0.0743034
-0.0507406
-0.0307533
-0.581879
-0.475259
-0.341364
-0.245408
-0.174906
-0.124425
-0.0868667
-0.059077
-0.0371842
-0.018846
-0.551647
-0.443192
-0.310792
-0.218657
-0.151466
-0.103924
-0.0689815
-0.0434204
-0.0232927
-0.00669632
-0.517996
-0.408679
-0.278488
-0.190596
-0.127152
-0.082778
-0.0506047
-0.0273771
-0.00910952
0.00564973
-0.481072
-0.371143
-0.245026
-0.161405
-0.10203
-0.0610511
-0.0317927
-0.0109955
0.00531752
0.0181367
-0.441117
-0.330825
-0.210288
-0.131245
-0.076184
-0.0388147
-0.0126078
0.00567223
0.0199406
0.0307126
-0.398251
-0.288201
-0.174211
-0.100249
-0.049715
-0.016147
0.00688202
0.0225721
0.0347157
0.0433458
-0.352198
-0.244197
-0.136919
-0.0685371
-0.0227326
0.00686577
0.0266059
0.0396513
0.0495925
0.0559734
-0.30332
-0.199173
-0.0986272
-0.0362319
0.00464848
0.0301321
0.0464956
0.0568597
0.0644715
0.0683276
-0.252159
-0.153141
-0.0595609
-0.00347108
0.0323087
0.0535577
0.0664887
0.0741412
0.0791585
0.0798847
-0.199116
-0.106229
-0.0199418
0.0295939
0.0601234
0.0770476
0.086521
0.0914082
0.0934269
0.0904302
-0.144598
-0.0586506
0.0200091
0.062801
0.0879633
0.100504
0.106508
0.108515
0.107201
0.101045
-0.0890204
-0.0106696
0.0600676
0.0959808
0.115696
0.123825
0.126337
0.125295
0.120557
0.114159
-0.0328067
0.0374256
0.100006
0.128959
0.143187
0.1469
0.145889
0.141701
0.134036
0.127424
0.0236136
0.0853317
0.139592
0.161557
0.170296
0.169615
0.165069
0.157769
0.147618
0.14022
0.0798084
0.132739
0.178594
0.193597
0.196884
0.191852
0.183787
0.173472
0.161116
0.152569
0.135346
0.179334
0.216776
0.224896
0.222809
0.213495
0.201965
0.188753
0.174343
0.164379
0.189801
0.224807
0.253909
0.255278
0.24793
0.234431
0.219519
0.203541
0.187173
0.175632
0.242756
0.268852
0.289763
0.284563
0.272107
0.25455
0.236367
0.217755
0.199504
0.1863
0.293805
0.311171
0.324115
0.312581
0.295203
0.273743
0.252424
0.231315
0.211256
0.196355
0.342558
0.351476
0.356752
0.339164
0.317089
0.291908
0.267608
0.244144
0.222359
0.205769
0.388646
0.389491
0.387466
0.364151
0.337637
0.308944
0.281839
0.256171
0.232752
0.214511
0.431725
0.424951
0.416062
0.387389
0.356728
0.324757
0.29504
0.26733
0.242381
0.222554
0.471482
0.457601
0.442356
0.408737
0.37425
0.339259
0.30714
0.277558
0.251194
0.22987
0.507618
0.487214
0.466178
0.428062
0.3901
0.352366
0.318071
0.286798
0.259148
0.236435
0.539861
0.513583
0.487373
0.445244
0.404183
0.364006
0.327774
0.294999
0.2662
0.242226
0.567968
0.536528
0.505803
0.460177
0.416416
0.37411
0.336193
0.302116
0.272315
0.247224
0.591725
0.555892
0.521349
0.472766
0.426724
0.382621
0.343283
0.308109
0.277459
0.251412
0.610951
0.571544
0.533909
0.482934
0.435047
0.389491
0.349004
0.312944
0.281608
0.254778
0.6255
0.583377
0.543401
0.490616
0.441333
0.394678
0.353323
0.316595
0.284739
0.257312
0.635262
0.591311
0.549764
0.495765
0.445545
0.398153
0.356216
0.31904
0.286835
0.259004
0.640161
0.595291
0.552956
0.498347
0.447657
0.399895
0.357666
0.320266
0.287886
0.259852
0.640161
0.595291
0.552956
0.498347
0.447657
0.399895
0.357666
0.320266
0.287886
0.259852
0.635262
0.591311
0.549764
0.495765
0.445545
0.398153
0.356216
0.31904
0.286835
0.259004
0.6255
0.583377
0.543401
0.490616
0.441333
0.394678
0.353323
0.316595
0.284739
0.257312
0.610951
0.571544
0.533909
0.482934
0.435047
0.389491
0.349004
0.312944
0.281608
0.254778
0.591725
0.555892
0.521349
0.472766
0.426724
0.382621
0.343283
0.308109
0.277459
0.251412
0.567968
0.536528
0.505803
0.460177
0.416415
0.37411
0.336193
0.302116
0.272314
0.247224
0.539861
0.513583
0.487373
0.445244
0.404183
0.364006
0.327774
0.294999
0.2662
0.242226
0.507618
0.487214
0.466178
0.428062
0.3901
0.352366
0.318071
0.286798
0.259148
0.236435
0.471482
0.457601
0.442356
0.408737
0.37425
0.339259
0.30714
0.277558
0.251194
0.22987
0.431725
0.424951
0.416062
0.387389
0.356728
0.324757
0.29504
0.26733
0.24238
0.222554
0.388646
0.389491
0.387466
0.364151
0.337637
0.308944
0.281839
0.256171
0.232752
0.214511
0.342558
0.351476
0.356752
0.339164
0.317089
0.291908
0.267608
0.244144
0.222359
0.205769
0.293805
0.311171
0.324115
0.312581
0.295203
0.273743
0.252424
0.231315
0.211256
0.196355
0.242756
0.268852
0.289763
0.284563
0.272106
0.25455
0.236367
0.217755
0.199504
0.1863
0.189801
0.224807
0.253909
0.255278
0.24793
0.234431
0.219519
0.203541
0.187173
0.175632
0.135346
0.179334
0.216776
0.224896
0.222809
0.213495
0.201965
0.188753
0.174343
0.164379
0.0798083
0.132739
0.178594
0.193597
0.196884
0.191852
0.183787
0.173472
0.161116
0.152569
0.0236136
0.0853317
0.139592
0.161557
0.170296
0.169615
0.165069
0.157769
0.147618
0.14022
-0.0328068
0.0374255
0.100006
0.128959
0.143186
0.1469
0.145889
0.141701
0.134036
0.127424
-0.0890205
-0.0106696
0.0600675
0.0959808
0.115696
0.123825
0.126337
0.125295
0.120557
0.114159
-0.144598
-0.0586506
0.020009
0.062801
0.0879633
0.100504
0.106508
0.108515
0.107201
0.101045
-0.199116
-0.106229
-0.0199418
0.0295938
0.0601233
0.0770476
0.086521
0.0914082
0.0934269
0.0904301
-0.252159
-0.153141
-0.059561
-0.00347113
0.0323087
0.0535577
0.0664887
0.0741412
0.0791585
0.0798847
-0.30332
-0.199174
-0.0986272
-0.036232
0.00464844
0.030132
0.0464956
0.0568596
0.0644715
0.0683275
-0.352198
-0.244197
-0.136919
-0.0685371
-0.0227327
0.00686574
0.0266059
0.0396513
0.0495925
0.0559734
-0.398251
-0.288201
-0.174211
-0.100249
-0.049715
-0.016147
0.00688198
0.0225721
0.0347157
0.0433458
-0.441117
-0.330826
-0.210288
-0.131245
-0.076184
-0.0388147
-0.0126078
0.0056722
0.0199405
0.0307126
-0.481072
-0.371143
-0.245026
-0.161405
-0.10203
-0.0610512
-0.0317927
-0.0109956
0.00531749
0.0181367
-0.517996
-0.408679
-0.278488
-0.190596
-0.127153
-0.082778
-0.0506048
-0.0273772
-0.00910955
0.0056497
-0.551647
-0.443193
-0.310792
-0.218657
-0.151466
-0.103924
-0.0689816
-0.0434205
-0.0232928
-0.00669636
-0.581879
-0.475259
-0.341364
-0.245408
-0.174906
-0.124425
-0.0868667
-0.0590771
-0.0371843
-0.0188461
-0.608622
-0.50489
-0.370088
-0.270697
-0.197413
-0.144218
-0.10421
-0.0743034
-0.0507406
-0.0307533
-0.631856
-0.531848
-0.396778
-0.294696
-0.218929
-0.163246
-0.12097
-0.0890605
-0.0639259
-0.0423799
-0.651612
-0.555962
-0.42141
-0.31762
-0.239258
-0.181457
-0.13711
-0.103314
-0.0767103
-0.0536923
-0.667972
-0.577164
-0.443993
-0.339079
-0.258696
-0.198807
-0.152607
-0.117034
-0.0890689
-0.0646607
-0.681064
-0.595434
-0.464538
-0.35901
-0.277134
-0.215368
-0.167445
-0.130199
-0.10097
-0.0752612
-0.691057
-0.610762
-0.483047
-0.377449
-0.294446
-0.231139
-0.18167
-0.142809
-0.112363
-0.0854838
-0.698141
-0.623144
-0.499524
-0.394425
-0.310619
-0.24606
-0.195251
-0.154993
-0.123134
-0.0953421
-0.702528
-0.632592
-0.513979
-0.40996
-0.325687
-0.260118
-0.208139
-0.166607
-0.133425
-0.104846
-0.704431
-0.639131
-0.526433
-0.424073
-0.339689
-0.273335
-0.220332
-0.177627
-0.143267
-0.113845
-0.704061
-0.642809
-0.53692
-0.436792
-0.35266
-0.285744
-0.231857
-0.188077
-0.152627
-0.122335
-0.70161
-0.643698
-0.545484
-0.448151
-0.364636
-0.297385
-0.242746
-0.197977
-0.161491
-0.130368
-0.697253
-0.641916
-0.552185
-0.45819
-0.375664
-0.308302
-0.253034
-0.207349
-0.169859
-0.137966
-0.691145
-0.637635
-0.557095
-0.466952
-0.385796
-0.318546
-0.262757
-0.216214
-0.177739
-0.145123
-0.683423
-0.631106
-0.560294
-0.474482
-0.395097
-0.328177
-0.271958
-0.224599
-0.185141
-0.151827
-0.674223
-0.622665
-0.561869
-0.480824
-0.40364
-0.337267
-0.280684
-0.232535
-0.192079
-0.15807
-0.663693
-0.612732
-0.56189
-0.486027
-0.41151
-0.345893
-0.288992
-0.240054
-0.19857
-0.163851
-0.652
-0.601801
-0.560389
-0.490147
-0.418802
-0.354141
-0.296943
-0.247194
-0.204632
-0.169171
-0.639349
-0.590386
-0.557371
-0.493258
-0.42562
-0.362105
-0.304607
-0.253996
-0.210281
-0.174028
-0.62598
-0.57895
-0.55285
-0.495458
-0.432074
-0.369883
-0.312058
-0.260506
-0.215536
-0.17842
-0.612179
-0.56785
-0.546893
-0.496876
-0.438274
-0.377576
-0.319378
-0.26677
-0.220413
-0.182338
-0.598271
-0.557305
-0.539675
-0.497661
-0.444324
-0.385293
-0.326654
-0.272838
-0.224925
-0.18577
-0.584609
-0.547408
-0.53152
-0.497972
-0.450319
-0.393142
-0.33398
-0.278762
-0.229082
-0.188698
-0.571589
-0.538164
-0.522914
-0.497955
-0.456343
-0.401237
-0.341449
-0.284592
-0.232889
-0.191091
-0.559559
-0.529545
-0.514463
-0.497723
-0.462473
-0.409689
-0.349153
-0.290375
-0.236345
-0.192906
-0.548805
-0.521553
-0.506796
-0.497349
-0.468782
-0.418599
-0.357174
-0.296157
-0.23945
-0.194067
-0.539507
-0.514257
-0.500426
-0.496911
-0.475352
-0.428045
-0.365578
-0.301972
-0.242205
-0.19449
-0.531716
-0.5078
-0.495646
-0.496581
-0.482265
-0.438069
-0.374402
-0.307848
-0.244637
-0.194006
-0.525357
-0.502373
-0.492516
-0.496697
-0.489585
-0.448655
-0.383649
-0.313776
-0.246847
-0.192633
-0.520255
-0.498134
-0.490932
-0.497731
-0.497329
-0.459721
-0.393269
-0.319733
-0.249012
-0.19011
-0.516156
-0.495127
-0.490723
-0.500129
-0.505455
-0.471112
-0.403155
-0.325557
-0.251713
-0.187704
-0.512748
-0.493236
-0.4917
-0.504108
-0.513876
-0.482591
-0.413109
-0.331083
-0.254607
-0.186612
-0.509681
-0.492195
-0.493654
-0.509531
-0.522474
-0.493839
-0.422796
-0.336069
-0.256618
-0.185793
-0.506589
-0.491634
-0.496301
-0.51593
-0.531061
-0.504442
-0.431739
-0.340179
-0.257086
-0.183777
-0.503115
-0.491142
-0.499249
-0.522616
-0.539304
-0.513882
-0.439354
-0.342996
-0.25578
-0.17994
-0.498922
-0.490301
-0.501991
-0.528814
-0.546647
-0.521544
-0.445007
-0.344044
-0.252578
-0.174248
-0.493716
-0.488717
-0.503953
-0.533738
-0.552334
-0.526746
-0.448042
-0.342826
-0.2473
-0.166729
-0.487259
-0.486037
-0.504561
-0.536642
-0.555513
-0.528789
-0.447825
-0.338854
-0.239711
-0.157311
-0.479381
-0.481969
-0.503296
-0.536924
-0.555403
-0.527042
-0.443809
-0.331702
-0.229587
-0.145888
-0.470005
-0.476301
-0.499734
-0.534179
-0.551447
-0.521046
-0.435613
-0.321076
-0.216797
-0.132411
-0.459169
-0.468959
-0.493697
-0.528222
-0.543431
-0.510624
-0.423114
-0.306895
-0.201369
-0.116946
-0.447043
-0.460135
-0.485573
-0.518977
-0.531468
-0.495976
-0.406517
-0.289357
-0.183539
-0.0997014
-0.433942
-0.450009
-0.475511
-0.507175
-0.516081
-0.477781
-0.386384
-0.268996
-0.163783
-0.0810519
-0.420324
-0.439018
-0.46403
-0.493415
-0.498262
-0.457121
-0.363671
-0.246687
-0.14282
-0.0615535
-0.406771
-0.427734
-0.451862
-0.478601
-0.479159
-0.433971
-0.340735
-0.223642
-0.121581
-0.041947
-0.393958
-0.416822
-0.439848
-0.463824
-0.460171
-0.411264
-0.317529
-0.201374
-0.101151
-0.0231393
-0.382594
-0.406986
-0.428866
-0.450227
-0.442729
-0.390588
-0.296
-0.181132
-0.0826801
-0.0061647
-0.373359
-0.398901
-0.419758
-0.438896
-0.428201
-0.373424
-0.278063
-0.164253
-0.0673836
0.00788325
-0.366839
-0.393151
-0.413242
-0.430764
-0.417772
-0.361111
-0.265187
-0.15217
-0.0563378
0.0179666
-0.363466
-0.390163
-0.409845
-0.426516
-0.412322
-0.354673
-0.258443
-0.145851
-0.0505625
0.023244
0.0453937
0.0558592
0.0643289
0.0698974
0.0724227
0.0723117
0.0700474
0.0660712
0.0608229
0.0547709
0.0483365
0.0418855
0.0356313
0.0297877
0.0243279
0.0194123
0.0147318
0.0106042
0.00626903
0.00250711
0.0409205
0.0519626
0.0610913
0.0672029
0.0701804
0.0704792
0.0685847
0.0649256
0.0599402
0.0541033
0.0478414
0.0415244
0.0353709
0.0296017
0.0241964
0.0193206
0.0146697
0.0105632
0.00624853
0.00249788
0.032249
0.0444059
0.0548019
0.0619519
0.0657975
0.066889
0.0657133
0.0626712
0.0581991
0.0527837
0.046861
0.0408081
0.0348537
0.0292319
0.0239348
0.0191379
0.0145461
0.0104814
0.0062085
0.00247934
0.0199155
0.0336333
0.0457983
0.0543955
0.0594633
0.0616813
0.0615333
0.0593772
0.0556459
0.0508424
0.0454142
0.039748
0.0340866
0.0286825
0.0235457
0.0188658
0.0143618
0.0103593
0.00615093
0.00245127
0.00467681
0.0202388
0.034524
0.0448678
0.0514316
0.0550449
0.056178
0.0551369
0.0523444
0.0483213
0.0435276
0.0383605
0.0330795
0.0279594
0.0230326
0.0185065
0.0141184
0.0101982
0.00607086
0.0024126
-0.0125621
0.00491306
0.0214865
0.0337536
0.041997
0.0471993
0.0498015
0.0500579
0.0483699
0.0452713
0.0412337
0.0366658
0.0318449
0.0270705
0.0224004
0.0180629
0.0138175
0.00999957
0.00595838
0.00236275
-0.0308696
-0.0116105
0.00722427
0.021461
0.0314739
0.03838
0.0425759
0.044256
0.0438039
0.0417486
0.0385697
0.0346874
0.0303975
0.0260249
0.0216548
0.0175385
0.013461
0.00976365
0.00581337
0.00230451
-0.0493875
-0.028613
-0.00772404
0.00839952
0.0201801
0.0288287
0.0346783
0.0378541
0.0387304
0.0378125
0.0355756
0.0324515
0.0287539
0.024833
0.0208024
0.0169374
0.0130514
0.00949214
0.005656
0.00223973
-0.0673837
-0.0454465
-0.0228533
-0.00503916
0.0084232
0.0187818
0.0262854
0.030987
0.0332362
0.0335226
0.0322932
0.0299857
0.0269321
0.0235064
0.0198503
0.0162641
0.0125914
0.0091874
0.00548563
0.00216907
-0.0842931
-0.0615796
-0.037722
-0.0184984
-0.00351101
0.00846249
0.0175679
0.0237825
0.0274157
0.028939
0.0287643
0.0273193
0.0249513
0.0220572
0.0188065
0.0155236
0.012084
0.0088515
0.00530017
0.00209306
-0.0997307
-0.0766225
-0.0519733
-0.0316712
-0.0153686
-0.00192701
0.0086837
0.0163627
0.0213672
0.0241247
0.0250297
0.024481
0.0228312
0.0204985
0.017679
0.0147209
0.0115323
0.00848636
0.00509884
0.0020112
-0.113481
-0.0903303
-0.0653462
-0.04431
-0.0269353
-0.012211
-0.000226333
0.00883879
0.0151745
0.0191502
0.0211309
0.0214985
0.0205913
0.0188432
0.0164763
0.0138614
0.0109397
0.00809382
0.00488285
0.00192206
-0.125477
-0.102591
-0.0776753
-0.0562309
-0.0380397
-0.0222431
-0.00904133
0.00130793
0.00891347
0.0140741
0.0171113
0.0183974
0.018249
0.0171034
0.0152063
0.0129503
0.0103094
0.00767561
0.00465331
0.00182673
-0.135768
-0.11341
-0.0888853
-0.0673141
-0.0485564
-0.0319099
-0.0176639
-0.00615048
0.00264615
0.00894321
0.0130126
0.0152013
0.015819
0.0152893
0.013876
0.0119922
0.00964423
0.00723348
0.00440903
0.00172316
-0.144488
-0.122883
-0.0989863
-0.0775086
-0.0584119
-0.041136
-0.0260249
-0.0134778
-0.00358047
0.00379464
0.00886265
0.0119366
0.0133147
0.0134098
0.0124917
0.0109913
0.00894709
0.00676914
0.00415076
0.001619
-0.151792
-0.131149
-0.10804
-0.0868065
-0.0675603
-0.0498584
-0.0340575
-0.0206117
-0.00971292
-0.00132779
0.00469588
0.00863206
0.0107562
0.011477
0.0110614
0.00995296
0.00822117
0.00628465
0.00388034
0.00151376
-0.157751
-0.138275
-0.116043
-0.0951444
-0.0758996
-0.0579602
-0.0416494
-0.0274565
-0.0156761
-0.00636943
0.000549698
0.00531052
0.00816179
0.00950057
0.00959244
0.00888285
0.00747035
0.00578252
0.00359913
0.00140664
-0.162524
-0.144438
-0.123143
-0.10265
-0.0835454
-0.0655498
-0.0489056
-0.0341133
-0.0215624
-0.0114094
-0.00363936
0.00192481
0.00549917
0.00745873
0.00807141
0.00777585
0.00669385
0.00526372
0.00330809
0.00129839
-0.167011
-0.15057
-0.130332
-0.11025
-0.0913078
-0.0733119
-0.056389
-0.0410278
-0.0277066
-0.0166833
-0.0080256
-0.00161864
0.00271502
0.0053252
0.00647709
0.00661717
0.00588405
0.00472532
0.00300649
0.00119019
-0.169815
-0.154886
-0.135737
-0.115941
-0.0971709
-0.079326
-0.0623833
-0.0467461
-0.0329324
-0.0212839
-0.0119382
-0.00484606
0.000128561
0.00329892
0.00493106
0.00546514
0.00506492
0.00417362
0.00269405
0.00108259
-0.161995
-0.15154
-0.133047
-0.113765
-0.095935
-0.0791936
-0.0632183
-0.0483097
-0.034984
-0.0236071
-0.0143226
-0.00712201
-0.00191592
0.00153343
0.00347728
0.0043081
0.0042006
0.00356316
0.00233673
0.000959632
-0.149772
-0.142006
-0.126042
-0.108629
-0.0926001
-0.0776871
-0.0633182
-0.0496435
-0.0371719
-0.0263065
-0.0172351
-0.0100024
-0.00457514
-0.000791948
0.00154902
0.00277582
0.00305892
0.002762
0.00187281
0.000789258
-0.138349
-0.132272
-0.118949
-0.103622
-0.0892546
-0.0759175
-0.0630116
-0.0505324
-0.0389266
-0.0286213
-0.0198435
-0.0126719
-0.00711316
-0.00306793
-0.000382184
0.00121193
0.00187373
0.00192172
0.00138186
0.000608038
-0.127082
-0.122561
-0.111514
-0.0982299
-0.0854938
-0.0736324
-0.0621303
-0.0508662
-0.0401889
-0.03052
-0.0221185
-0.0150937
-0.00948406
-0.00524434
-0.00226577
-0.00033795
0.000682596
0.00106943
0.000879858
0.000422645
-0.116304
-0.112931
-0.103803
-0.0924433
-0.0813221
-0.0708827
-0.0607242
-0.0506677
-0.0409605
-0.0319913
-0.0240403
-0.0172436
-0.011664
-0.00730007
-0.00408458
-0.00186143
-0.000506234
0.000209494
0.00036818
0.00023264
-0.105842
-0.103374
-0.0959309
-0.0863579
-0.0767921
-0.0677161
-0.0588332
-0.0499507
-0.0412308
-0.0330116
-0.025577
-0.0190839
-0.0136132
-0.00919826
-0.0058076
-0.00333466
-0.00167574
-0.00064719
-0.000147422
4.05447e-05
-0.0956571
-0.0939836
-0.0880216
-0.0800701
-0.0719618
-0.0641754
-0.0564962
-0.0487398
-0.0410043
-0.0335695
-0.0267065
-0.0205839
-0.0152961
-0.010903
-0.00740196
-0.0047301
-0.00280458
-0.00148567
-0.000658211
-0.000150017
-0.0859274
-0.0848715
-0.0801752
-0.0736714
-0.0669026
-0.0603182
-0.0537649
-0.0470754
-0.0403019
-0.0336675
-0.0274175
-0.0217223
-0.0166842
-0.0123824
-0.00883653
-0.00602039
-0.0038708
-0.00229008
-0.00115476
-0.000335572
-0.0766946
-0.0761007
-0.0724763
-0.0672499
-0.0616934
-0.0562126
-0.0507001
-0.0450088
-0.0391589
-0.0333222
-0.0277108
-0.0224876
-0.0177569
-0.0136103
-0.0100833
-0.00717951
-0.00485265
-0.00304423
-0.00162721
-0.00051261
-0.0679813
-0.0677429
-0.0650159
-0.0608982
-0.056421
-0.0519375
-0.047374
-0.0426036
-0.0376247
-0.0325651
-0.0276011
-0.0228804
-0.0185035
-0.014568
-0.0111195
-0.00818427
-0.00572968
-0.00373229
-0.00206556
-0.000677601
-0.0598537
-0.0598711
-0.0578792
-0.054708
-0.0511754
-0.0475787
-0.0438671
-0.0399332
-0.0357611
-0.0314422
-0.0271173
-0.0229145
-0.0189249
-0.0152465
-0.0119294
-0.00901625
-0.00648422
-0.00433988
-0.00246035
-0.000827221
-0.0523514
-0.0525404
-0.0511409
-0.0487653
-0.0460462
-0.0432247
-0.0402653
-0.0370787
-0.0336405
-0.0300126
-0.0263031
-0.022618
-0.0190353
-0.0156483
-0.0125066
-0.00966376
-0.00710301
-0.00485528
-0.00280342
-0.000958578
-0.0454997
-0.0457986
-0.0448697
-0.0431521
-0.0411213
-0.0389653
-0.0366585
-0.0341279
-0.0313448
-0.0283479
-0.025216
-0.0220333
-0.0188626
-0.0157882
-0.0128553
-0.0101236
-0.00757887
-0.0052707
-0.00308873
-0.00106946
-0.0393291
-0.0396907
-0.0391281
-0.0379449
-0.0364857
-0.0348904
-0.0331393
-0.0311734
-0.0289631
-0.0265294
-0.0239261
-0.0212168
-0.0184488
-0.0156945
-0.0129918
-0.0104023
-0.00791203
-0.00558342
-0.00331311
-0.0011586
-0.0338662
-0.0342558
-0.0339722
-0.0332148
-0.0322211
-0.0310885
-0.0298007
-0.0283107
-0.0265899
-0.0246465
-0.0225139
-0.0202371
-0.0178487
-0.0154084
-0.0129444
-0.0105173
-0.00811121
-0.00579673
-0.00347691
-0.0012259
-0.0291404
-0.0295346
-0.0294586
-0.0290329
-0.0284092
-0.0276492
-0.026738
-0.0256388
-0.0243252
-0.0227966
-0.0210698
-0.0191747
-0.0171304
-0.0149841
-0.0127538
-0.0104968
-0.00819402
-0.0059204
-0.00358439
-0.00127256
-0.0251845
-0.02557
-0.0256443
-0.0254696
-0.0251313
-0.0246619
-0.0240472
-0.0232581
-0.0222714
-0.0210807
-0.0196903
-0.0181179
-0.0163716
-0.0144868
-0.0124719
-0.0103795
-0.00818722
-0.00597108
-0.00364406
-0.00130129
-0.0220558
-0.0224258
-0.0226032
-0.0226095
-0.0224807
-0.022227
-0.0218339
-0.0212786
-0.0205407
-0.0196099
-0.0184818
-0.017165
-0.0156592
-0.0139903
-0.0121583
-0.0102113
-0.00812343
-0.00596996
-0.00366726
-0.00131555
-0.0198286
-0.0201837
-0.0204264
-0.0205521
-0.0205634
-0.0204549
-0.0202117
-0.0198158
-0.019249
-0.018499
-0.0175557
-0.0164214
-0.0150898
-0.0135796
-0.0118846
-0.0100491
-0.00804462
-0.00594511
-0.00366971
-0.00132052
-0.0186073
-0.0189558
-0.019234
-0.0194232
-0.0195091
-0.0194778
-0.0193143
-0.0190029
-0.0185268
-0.0178729
-0.0170282
-0.0159919
-0.0147548
-0.0133318
-0.0117134
-0.00994146
-0.0079867
-0.00592032
-0.00366488
-0.00132007
-0.105804
-0.112869
-0.119539
-0.125809
-0.131666
-0.137096
-0.142086
-0.146624
-0.150694
-0.154278
-0.157354
-0.159895
-0.161878
-0.163269
-0.164059
-0.164193
-0.163701
-0.162533
-0.161094
-0.160521
-0.0968759
-0.103288
-0.109316
-0.114962
-0.120218
-0.125071
-0.129505
-0.133506
-0.137055
-0.140133
-0.142718
-0.144795
-0.146369
-0.147432
-0.14801
-0.148114
-0.147871
-0.147454
-0.147318
-0.148228
-0.0881453
-0.0939206
-0.0993421
-0.104416
-0.10914
-0.113502
-0.117492
-0.121101
-0.124322
-0.127152
-0.129599
-0.13167
-0.133382
-0.134743
-0.135785
-0.136539
-0.137031
-0.137299
-0.137303
-0.137659
-0.0796947
-0.0848908
-0.0897767
-0.0943604
-0.0986383
-0.102603
-0.106251
-0.109583
-0.112601
-0.115314
-0.117732
-0.119862
-0.1217
-0.123241
-0.124463
-0.125347
-0.125798
-0.125862
-0.125605
-0.125973
-0.0715786
-0.0762559
-0.0806654
-0.0848125
-0.0886926
-0.0923029
-0.0956444
-0.0987197
-0.101531
-0.10408
-0.106363
-0.108372
-0.110088
-0.111497
-0.11256
-0.11329
-0.113672
-0.113889
-0.11407
-0.114885
-0.0638124
-0.0680269
-0.0720107
-0.0757599
-0.079272
-0.0825489
-0.0855914
-0.0883989
-0.0909682
-0.0932956
-0.095373
-0.0971965
-0.0987555
-0.100061
-0.101111
-0.101963
-0.102616
-0.103168
-0.103622
-0.104452
-0.0564485
-0.0602414
-0.0638299
-0.0672092
-0.070381
-0.0733466
-0.0761046
-0.0786533
-0.0809899
-0.0831146
-0.0850266
-0.0867339
-0.0882407
-0.0895656
-0.0907026
-0.0916666
-0.0924147
-0.0929873
-0.0934364
-0.0942298
-0.0494852
-0.052896
-0.056126
-0.0591731
-0.0620385
-0.0647227
-0.0672251
-0.069546
-0.0716864
-0.0736499
-0.0754393
-0.0770611
-0.0785135
-0.0797982
-0.0808957
-0.0818079
-0.082522
-0.0831053
-0.0836437
-0.0844957
-0.0429392
-0.0460068
-0.0489169
-0.051668
-0.0542602
-0.0566944
-0.0589709
-0.0610912
-0.0630564
-0.0648685
-0.0665272
-0.0680327
-0.0693802
-0.0705711
-0.071602
-0.0724899
-0.0732408
-0.0738984
-0.0745132
-0.0753493
-0.0368217
-0.0395869
-0.042214
-0.0447019
-0.047051
-0.0492617
-0.0513343
-0.0532695
-0.0550673
-0.0567284
-0.0582524
-0.059641
-0.0608954
-0.0620222
-0.0630239
-0.0639096
-0.0646749
-0.0653407
-0.0659534
-0.066735
-0.0311482
-0.0336465
-0.0360234
-0.0382781
-0.0404106
-0.0424209
-0.0443092
-0.0460758
-0.0477212
-0.0492468
-0.0506539
-0.0519455
-0.0531233
-0.0541901
-0.0551447
-0.0559899
-0.0567254
-0.0573727
-0.0579781
-0.0587139
-0.0259307
-0.0281943
-0.0303511
-0.0323999
-0.0343408
-0.0361736
-0.0378985
-0.039516
-0.041027
-0.0424326
-0.043734
-0.0449327
-0.046029
-0.0470247
-0.04792
-0.0487198
-0.0494282
-0.0500614
-0.0506542
-0.0513338
-0.0211805
-0.0232391
-0.0252032
-0.0270719
-0.0288447
-0.0305215
-0.0321024
-0.0335878
-0.034978
-0.0362739
-0.0374763
-0.0385865
-0.0396055
-0.0405356
-0.0413785
-0.0421378
-0.0428162
-0.0434241
-0.0439886
-0.0446054
-0.0169092
-0.01879
-0.0205869
-0.0222989
-0.0239252
-0.0254656
-0.0269199
-0.0282884
-0.0295713
-0.0307693
-0.0318834
-0.0329148
-0.0338648
-0.0347351
-0.0355269
-0.0362426
-0.0368848
-0.0374614
-0.0379938
-0.0385517
-0.0131304
-0.0148586
-0.0165117
-0.0180886
-0.0195885
-0.0210109
-0.0223555
-0.0236223
-0.0248117
-0.0259242
-0.0269605
-0.0279217
-0.0288087
-0.029623
-0.0303659
-0.0310395
-0.0316464
-0.0321924
-0.0326931
-0.0331971
-0.00986155
-0.0114606
-0.0129921
-0.0144545
-0.0158471
-0.017169
-0.0184202
-0.0196003
-0.0207095
-0.0217483
-0.0227172
-0.0236171
-0.024449
-0.025214
-0.0259136
-0.0265494
-0.0271237
-0.0276407
-0.028111
-0.0285673
-0.00712648
-0.00861874
-0.0100493
-0.0114167
-0.0127201
-0.0139586
-0.0151318
-0.0162395
-0.0172818
-0.0182589
-0.0191713
-0.0200198
-0.0208051
-0.0215285
-0.022191
-0.0227942
-0.0233399
-0.0238311
-0.0242749
-0.0246919
-0.00496805
-0.00637564
-0.0077263
-0.00901845
-0.010251
-0.0114232
-0.0125346
-0.0135849
-0.014574
-0.0155021
-0.0163697
-0.0171773
-0.0179256
-0.0186157
-0.0192486
-0.0198255
-0.0203481
-0.0208185
-0.0212411
-0.0216276
-0.00341672
-0.00476227
-0.00605388
-0.00729064
-0.0084716
-0.00959595
-0.0106631
-0.0116726
-0.0126244
-0.0135187
-0.0143556
-0.0151357
-0.0158595
-0.016528
-0.0171419
-0.0177024
-0.0182106
-0.0186684
-0.0190779
-0.0194451
-0.00262408
-0.0039261
-0.00517708
-0.00637538
-0.00751998
-0.00861025
-0.00964582
-0.0106265
-0.0115523
-0.0124233
-0.0132398
-0.0140022
-0.0147111
-0.015367
-0.0159709
-0.0165235
-0.0170259
-0.0174793
-0.0178848
-0.0182453
0.093737
0.0826169
0.0718286
0.0614801
0.0504851
0.0391279
0.0279068
0.0168699
0.00594415
-0.00484754
-0.0154462
-0.0258165
-0.0359389
-0.0457941
-0.0553616
-0.0646237
-0.0735654
-0.0821745
-0.0904308
-0.0983275
0.0884655
0.0774132
0.0657697
0.0557667
0.045685
0.0351127
0.0246557
0.0145079
0.00453389
-0.00531197
-0.0149753
-0.0244146
-0.0336175
-0.0425741
-0.0512692
-0.0596872
-0.0678089
-0.075602
-0.0829891
-0.0900935
0.0822376
0.0717665
0.0599459
0.0503084
0.0413198
0.0317979
0.0221619
0.0128429
0.00377298
-0.00516997
-0.0139641
-0.0225518
-0.0309103
-0.0390336
-0.0469105
-0.0545233
-0.0618512
-0.068873
-0.0755775
-0.0820189
0.0755509
0.0659568
0.0545713
0.0453278
0.0372562
0.0288063
0.0200278
0.0114682
0.00322317
-0.00485118
-0.0127968
-0.020564
-0.0281152
-0.035442
-0.0425393
-0.0493948
-0.0559935
-0.0623235
-0.0683744
-0.0741807
0.0689575