/*--------------------------------*- C++ -*----------------------------------*\
  =========                 |
  \\      /  F ield         | OpenFOAM: The Open Source CFD Toolbox
   \\    /   O peration     | Website:  https://openfoam.org
    \\  /    A nd           | Version:  7
     \\/     M anipulation  |
\*---------------------------------------------------------------------------*/
FoamFile
{
    version     2.0;
    format      ascii;
    class       volScalarField;
    location    "17";
    object      p;
}
// * * * * * * * * * * * * * * * * * * * * * * * * * * * * * * * * * * * * * //

dimensions      [0 2 -2 0 0 0 0];

internalField   nonuniform List<scalar> 
433
(
-0.361376
-0.360755
-0.358469
-0.353879
-0.346316
-0.0182679
0.0857334
0.122193
0.122832
0.10625
0.0827964
0.0578722
0.0340666
0.0124561
-0.00663484
-0.0232115
-0.037454
-0.048862
-0.0568674
-25.7724
-17.1429
-10.9462
-6.6539
-3.76601
-1.88863
-0.718411
-0.0267393
0.353374
0.539597
0.611199
0.619106
0.59443
0.555138
0.51095
0.466713
0.424576
0.385312
0.349059
0.315723
0.28509
0.257576
0.233751
0.203732
51.6777
51.9491
56.6987
64.913
73.0828
77.2619
75.1398
67.2181
55.9639
44.0367
33.2682
24.4481
17.6417
12.5863
8.9379
6.36625
4.58262
3.37112
2.56446
2.03355
1.68409
1.45026
1.28802
1.16909
1.07594
0.998092
0.929544
0.866971
0.808612
0.753586
0.701485
0.652149
0.605452
0.561847
0.522071
0.475365
534.847
513.96
495.225
468.126
429.195
385.385
340.957
297.965
257.142
218.599
182.351
148.704
118.26
91.7459
69.5189
51.5073
37.3551
26.5633
18.58
12.8475
8.85247
6.15293
4.38305
3.25406
2.54859
2.11119
1.83623
1.65551
1.52713
1.4267
1.34081
1.26256
1.18869
1.11785
1.0496
0.983948
0.920898
0.860952
0.805081
0.741731
230.764
215.982
193.243
161.699
128.178
97.8676
72.4838
51.756
35.3425
22.9022
14.4646
9.55936
7.13579
6.06069
5.50178
5.03462
4.5411
4.0495
3.60991
3.24128
2.94585
2.71369
2.53013
2.38126
2.25525
2.14323
2.03928
1.93988
1.84325
1.74866
1.65597
1.56533
1.47698
1.39119
1.30822
1.22822
1.15161
1.07939
0.999007
-345.404
-329.399
-311.087
-290.068
-265.686
-238.728
-210.817
-183.417
-156.752
-130.859
-105.923
-82.5772
-61.7562
-44.2294
-30.2896
-19.7402
-12.0838
-6.72443
-3.09322
-0.719538
0.766467
1.64596
2.1256
2.35182
2.42396
2.40663
2.34006
2.24827
2.14492
2.03747
1.92975
1.82371
1.7203
1.62005
1.52314
1.42991
1.3414
1.2437
-346.526
-306.463
-261.593
-214.976
-170.46
-131.424
-99.7608
-75.4639
-57.0349
-42.6273
-30.9664
-21.4945
-14.0376
-8.43751
-4.39815
-1.6062
0.279657
1.50703
2.2617
2.68769
2.89377
2.95831
2.93577
2.86222
2.76048
2.64433
2.52173
2.39713
2.27298
2.15065
2.03094
1.91444
1.80145
1.6923
1.58824
1.47608
160.328
155.383
148.194
136.595
120.435
101.467
82.0684
64.2159
49.0058
36.7263
27.1986
20.0414
14.7946
11.0611
8.44899
6.6635
5.47028
4.67955
4.15789
3.80238
3.54595
3.34604
3.17656
3.02254
2.87611
2.73354
2.59342
2.45555
2.32028
2.18815
2.05962
1.93508
1.81623
1.6899
231.527
194.254
160.357
129.835
103.08
80.3362
61.5374
46.3904
34.4906
25.3906
18.6267
13.7408
10.3112
7.97091
6.4136
5.39535
4.73187
4.29023
3.98011
3.74564
3.55126
3.37659
3.21143
3.05102
2.89357
2.73876
2.58694
2.43873
2.29458
2.15484
2.02146
1.8818
-20.5861
-20.4734
-17.4808
-13.0572
-8.48463
-4.53616
-1.48268
0.722819
2.24907
3.26364
3.90231
4.27102
4.44888
4.49464
4.45152
4.35039
4.21268
4.05314
3.88144
3.70382
3.52432
3.34547
3.1689
2.99566
2.8265
2.66201
2.5025
2.34807
2.20084
2.04906
-104.792
-80.3322
-58.8309
-41.0155
-27.0399
-16.5795
-9.04794
-3.82597
-0.327207
1.9182
3.27828
4.03463
4.39501
4.50649
4.46877
4.34647
4.17958
3.99165
3.79588
3.59924
3.40525
3.21555
3.03097
2.85197
2.6787
2.511
-10.831
-5.79811
-1.91032
0.900345
2.80657
4.02915
4.77063
5.16956
5.32992
5.33062
5.2295
5.06744
4.87184
4.66003
4.44229
4.22431
4.00902
3.79783
3.59142
3.39013
3.1942
3.00397
34.7863
26.1529
19.7485
15.0986
11.7873
9.48191
7.90525
6.83479
6.10156
5.58377
5.19797
4.88977
4.62552
4.38549
4.15887
3.94021
3.72713
3.51881
17.5701
13.5737
10.7531
8.81056
7.49626
6.61119
6.00535
5.57195
5.23943
4.96268
4.71512
4.48224
4.25687
4.03601
4.28769
4.88431
5.1829
5.27916
5.24242
5.12147
4.94958
4.74873
4.53298
4.31098
4.77717
5.10103
5.17705
5.10531
4.9505
4.75246
5.47407
5.2037
1.78734
1.63629
1.46361
1.27074
1.05843
1.46103
1.32993
)
;

boundaryField
{
    inlet
    {
        type            zeroGradient;
    }
    outlet
    {
        type            fixedValue;
        value           nonuniform 0();
    }
    cylinder
    {
        type            zeroGradient;
    }
    top
    {
        type            symmetryPlane;
    }
    bottom
    {
        type            symmetryPlane;
    }
    defaultFaces
    {
        type            empty;
    }
    procBoundary25to19
    {
        type            processor;
        value           nonuniform List<scalar> 
38
(
243.661
243.661
-361.947
-361.947
-408.046
-380.489
-380.489
172.954
165.711
165.711
316.764
272.385
272.385
-9.08577
-16.821
-16.821
-158.625
-131.167
-131.167
-24.3669
-16.9553
-16.9553
60.8369
46.1627
46.1627
30.5145
23.0874
23.0874
-0.784166
1.64732
3.26494
3.26494
2.7333
4.05754
4.05754
6.05541
5.75844
5.75844
)
;
    }
    procBoundary25to20
    {
        type            processor;
        value           nonuniform List<scalar> 
20
(
-27.1258
-18.3593
-414.392
-374.249
-329.582
-282.34
-235.177
-191.034
-152.047
-119.232
-92.2674
-70.1439
-51.9763
-37.2779
-37.2779
48.7541
52.4287
54.8949
54.0319
54.0319
)
;
    }
    procBoundary25to24
    {
        type            processor;
        value           nonuniform List<scalar> 
24
(
2.35122
2.18902
2.81951
2.35122
2.64057
3.31525
2.81951
3.11681
3.81879
3.31525
3.6053
3.81879
4.08788
4.53451
4.08788
4.30956
4.94661
4.53451
4.70114
5.52055
4.94661
5.10994
1.91439
1.57266
)
;
    }
    procBoundary25to26
    {
        type            processor;
        value           nonuniform List<scalar> 
23
(
-0.708037
-0.691343
-0.673362
-0.65345
-0.630904
-0.155488
-0.241622
-0.289796
-0.317336
-0.333979
-0.344793
-0.35219
-0.357199
-0.360214
-0.360214
-12.0126
-7.58478
-4.59252
-2.63671
-1.40553
-0.663976
-0.241403
-0.241403
)
;
    }
    procBoundary25to31
    {
        type            processor;
        value           nonuniform List<scalar> 
14
(
-0.343236
-0.0702252
-0.0702252
0.135143
0.378323
0.616351
0.844611
1.18247
1.02146
0.844611
0.849898
1.17158
1.18247
1.05733
)
;
    }
}


// ************************************************************************* //
