/*--------------------------------*- C++ -*----------------------------------*\
  =========                 |
  \\      /  F ield         | OpenFOAM: The Open Source CFD Toolbox
   \\    /   O peration     | Website:  https://openfoam.org
    \\  /    A nd           | Version:  7
     \\/     M anipulation  |
\*---------------------------------------------------------------------------*/
FoamFile
{
    version     2.0;
    format      ascii;
    class       volScalarField;
    location    "2.7";
    object      p;
}
// * * * * * * * * * * * * * * * * * * * * * * * * * * * * * * * * * * * * * //

dimensions      [1 -1 -2 0 0 0 0];

internalField   nonuniform List<scalar> 
4116
(
1.0521
1.05053
1.04943
1.04885
1.04835
1.04788
1.0491
1.05226
1.05394
1.05384
1.05297
1.05279
1.05268
1.05129
1.0501
1.04826
1.04472
1.03832
1.02938
1.01663
1.00262
0.991871
0.986578
0.982766
0.977451
0.968353
0.960874
0.95927
0.958783
0.957903
0.955974
0.952558
0.950187
0.949169
0.948195
0.947164
0.946352
0.946331
0.948798
0.951328
0.950714
0.949711
0.948583
0.946907
0.943868
0.938021
0.931058
0.929374
0.935539
0.967371
1.09199
1.32377
1.68422
1.95017
2.20067
2.2542
2.24539
2.26074
2.26761
2.26332
2.2572
2.25901
2.26022
2.25572
2.25213
2.251
2.24965
2.24769
2.24465
2.24189
2.24006
2.23975
2.23907
2.23636
2.2339
2.23224
2.23306
2.23678
2.23818
2.2389
2.23964
2.23683
2.22576
2.20316
2.17059
2.14835
2.1395
2.13307
2.12498
2.11589
2.10968
2.10778
2.10608
2.10371
2.10235
2.10285
2.10204
2.10055
2.10008
2.10038
2.10039
2.09977
2.09881
2.09805
2.09842
2.09947
2.10069
2.10434
2.10974
2.10945
2.10573
2.09786
2.07783
2.03382
1.99095
1.97765
1.97428
1.9721
1.97077
1.97014
1.97072
1.97411
1.98117
1.98691
1.98865
1.98956
1.98849
1.98652
1.9828
1.9766
1.96964
1.96533
1.96267
1.96009
1.95814
1.95383
1.94416
1.92488
1.90069
1.88955
1.88809
1.88875
1.8927
1.89804
1.89849
1.89664
1.88826
1.05313
1.05198
1.05086
1.04947
1.04786
1.0465
1.04681
1.0516
1.05483
1.05431
1.05323
1.05282
1.05155
1.04902
1.04715
1.04602
1.04498
1.04354
1.0383
1.02679
1.01014
0.994237
0.984899
0.979349
0.97287
0.963569
0.956994
0.955369
0.95469
0.954619
0.954495
0.952888
0.950975
0.949455
0.948244
0.947217
0.94665
0.947535
0.950533
0.951352
0.950204
0.948713
0.947286
0.945718
0.943433
0.939504
0.933804
0.927601
0.925094
0.925825
0.933076
0.967405
1.08495
1.33783
1.67965
1.95351
2.11566
2.24594
2.23381
2.21499
2.22632
2.24122
2.24441
2.23943
2.24
2.24022
2.23894
2.23908
2.24117
2.24098
2.23968
2.23681
2.2337
2.23152
2.2323
2.23514
2.23676
2.23673
2.2362
2.23632
2.23474
2.23147
2.22604
2.20993
2.17982
2.14721
2.12728
2.11619
2.10689
2.09985
2.09696
2.09596
2.09682
2.09867
2.09789
2.09764
2.09626
2.09423
2.09249
2.09119
2.09028
2.08965
2.09007
2.092
2.09355
2.09517
2.09892
2.10302
2.10244
2.09907
2.09535
2.08872
2.06909
2.02679
1.98481
1.97213
1.97044
1.96972
1.97019
1.9734
1.97726
1.97917
1.97918
1.97849
1.97704
1.97448
1.96976
1.96338
1.95756
1.954
1.95266
1.95396
1.95468
1.95551
1.95654
1.95492
1.95033
1.93663
1.9082
1.88766
1.88476
1.8848
1.88472
1.88582
1.88603
1.8842
1.87655
1.05437
1.05284
1.05127
1.04958
1.04788
1.0465
1.04633
1.04979
1.05341
1.05346
1.05229
1.05173
1.0516
1.04999
1.04833
1.047
1.04539
1.0432
1.04003
1.03347
1.01902
1.00094
0.986305
0.975923
0.966567
0.958202
0.954301
0.953033
0.952171
0.951732
0.952932
0.954037
0.952642
0.951209
0.950145
0.949198
0.94844
0.948042
0.948358
0.949958
0.951373
0.951002
0.949402
0.947576
0.945844
0.943692
0.939299
0.931623
0.923889
0.921132
0.921401
0.922876
0.930026
0.972176
1.08673
1.34009
1.62472
1.93125
2.06611
2.14797
2.23591
2.23849
2.22269
2.22348
2.23121
2.22775
2.22399
2.22695
2.23708
2.24303
2.23999
2.236
2.23372
2.23175
2.22996
2.22978
2.23346
2.23365
2.23055
2.22882
2.22675
2.22327
2.21678
2.20322
2.17881
2.14772
2.12035
2.10204
2.09271
2.08912
2.08714
2.08567
2.0853
2.0875
2.09077
2.09117
2.08881
2.08629
2.08349
2.08093
2.07927
2.07852
2.08035
2.08615
2.09359
2.10085
2.10239
2.0997
2.09626
2.09305
2.08848
2.07808
2.05456
2.01834
1.98511
1.97091
1.96798
1.96738
1.9687
1.97147
1.97185
1.97107
1.9696
1.96663
1.96121
1.95346
1.94542
1.93984
1.93756
1.93835
1.94335
1.94853
1.95487
1.96548
1.96841
1.96684
1.96136
1.94657
1.91781
1.89139
1.88084
1.87838
1.87673
1.87456
1.87143
1.86708
1.86284
1.05456
1.05297
1.05147
1.04983
1.04813
1.04666
1.04606
1.04787
1.05098
1.0518
1.05157
1.05231
1.05236
1.05053
1.04893
1.04776
1.04639
1.04457
1.04183
1.03688
1.027
1.00978
0.990092
0.973182
0.961078
0.954982
0.952642
0.951296
0.950105
0.949106
0.948972
0.951513
0.953928
0.953021
0.951549
0.950311
0.949199
0.948151
0.947223
0.947147
0.950186
0.952676
0.951501
0.949045
0.946386
0.943547
0.940073
0.934862
0.927916
0.921199
0.918833
0.918053
0.917746
0.918868
0.926289
0.964663
1.074
1.27255
1.60513
1.85036
2.08955
2.13513
2.17947
2.22296
2.23019
2.22037
2.21922
2.22782
2.23818
2.23722
2.23224
2.22961
2.22867
2.23049
2.23307
2.23499
2.2325
2.22798
2.22371
2.21963
2.21439
2.20798
2.19999
2.18908
2.17303
2.14954
2.12103
2.09815
2.08696
2.08157
2.07724
2.0741
2.07232
2.07186
2.07584
2.08047
2.07915
2.0766
2.07358
2.07082
2.06893
2.06874
2.07266
2.08063
2.08974
2.09465
2.0959
2.09367
2.09054
2.08698
2.07972
2.0629
2.03556
2.00874
1.98908
1.97644
1.9688
1.96676
1.9659
1.96452
1.96262
1.95982
1.9551
1.94694
1.93676
1.9293
1.92548
1.92356
1.92378
1.92903
1.93712
1.94759
1.95984
1.96333
1.96173
1.96014
1.95734
1.94623
1.92285
1.8987
1.88199
1.87204
1.86619
1.86111
1.85548
1.85119
1.84982
1.05448
1.05273
1.05119
1.0496
1.04803
1.04665
1.04592
1.04742
1.051
1.05244
1.05299
1.05394
1.05275
1.0507
1.0496
1.04845
1.04716
1.04568
1.04355
1.03941
1.03047
1.01456
0.993009
0.971931
0.959383
0.954791
0.952553
0.950752
0.949186
0.947812
0.94686
0.947094
0.950447
0.953814
0.953187
0.951458
0.949849
0.948425
0.947207
0.946426
0.947467
0.951432
0.953049
0.951241
0.948495
0.945819
0.943038
0.939583
0.93368
0.925703
0.918754
0.915272
0.913725
0.912184
0.91116
0.907892
0.9112
0.932042
1.03838
1.26412
1.57607
1.84589
2.05985
2.16742
2.15753
2.17595
2.20243
2.22669
2.23888
2.2349
2.23004
2.22698
2.22464
2.22761
2.23435
2.23411
2.22957
2.22464
2.21826
2.20853
2.19691
2.18641
2.17795
2.16961
2.15861
2.14224
2.12048
2.0983
2.08281
2.07367
2.06803
2.06502
2.06309
2.06189
2.0619
2.06511
2.06996
2.06939
2.06701
2.06519
2.06392
2.06434
2.07056
2.08234
2.08865
2.09038
2.08958
2.08675
2.08327
2.07781
2.06587
2.04507
2.02399
2.00659
1.99559
1.98465
1.97274
1.96125
1.95599
1.95269
1.94839
1.9416
1.93215
1.92328
1.91821
1.9157
1.91417
1.91367
1.91629
1.92511
1.94381
1.96357
1.9664
1.96332
1.96054
1.95718
1.95019
1.93748
1.92148
1.90435
1.88478
1.86447
1.85027
1.8428
1.83858
1.83661
1.83645
1.05455
1.05285
1.05117
1.04949
1.04795
1.0467
1.04607
1.04799
1.05289
1.05504
1.05582
1.05533
1.05309
1.05148
1.05046
1.04921
1.04783
1.04641
1.04451
1.04095
1.03316
1.01766
0.994247
0.972032
0.9607
0.956426
0.95368
0.951088
0.948815
0.947091
0.945669
0.944664
0.945045
0.949156
0.953341
0.952849
0.950937
0.949369
0.948086
0.946976
0.946636
0.948882
0.952622
0.953089
0.950544
0.947266
0.943739
0.939592
0.934941
0.929588
0.922841
0.916055
0.911134
0.908046
0.904546
0.899398
0.892783
0.880104
0.882427
0.915892
1.01552
1.26498
1.57625
1.88116
2.01576
2.13416
2.18637
2.19687
2.22349
2.2338
2.23034
2.2222
2.21741
2.21816
2.22393
2.22782
2.22533
2.21988
2.21166
2.19853
2.18413
2.17242
2.16275
2.15346
2.14312
2.13046
2.1145
2.09535
2.07878
2.06917
2.06273
2.05848
2.05559
2.05321
2.05171
2.0517
2.05514
2.05928
2.06136
2.06174
2.06216
2.06716
2.07678
2.08011
2.0801
2.08038
2.07937
2.07625
2.07127
2.06145
2.04603
2.03154
2.01909
2.01283
2.00566
1.99163
1.96834
1.95038
1.94158
1.93465
1.92639
1.91756
1.91165
1.90892
1.90747
1.90639
1.90625
1.9078
1.916
1.93565
1.95472
1.95871
1.95768
1.95467
1.95188
1.94769
1.93937
1.92786
1.91734
1.90503
1.88599
1.86018
1.83787
1.82934
1.82713
1.82581
1.82601
1.05406
1.05292
1.05152
1.05002
1.04869
1.04762
1.04714
1.04904
1.05434
1.05748
1.0581
1.05664
1.05438
1.05295
1.052
1.0507
1.04916
1.04747
1.04529
1.04162
1.03391
1.01776
0.992926
0.971903
0.962686
0.958745
0.955618
0.952315
0.949156
0.946883
0.945175
0.943685
0.942584
0.942982
0.947676
0.953267
0.953541
0.951649
0.949946
0.948565
0.947304
0.946982
0.949412
0.952295
0.95136
0.948389
0.945243
0.941926
0.938152
0.933455
0.927299
0.919565
0.91191
0.905734
0.900345
0.893886
0.883786
0.874312
0.86697
0.867004
0.872511
0.915161
1.02785
1.27339
1.58101
1.89239
2.01491
2.11043
2.19869
2.23154
2.22565
2.22026
2.22777
2.22885
2.22459
2.22058
2.2128
2.20355
2.19481
2.18482
2.17335
2.16184
2.151
2.14069
2.13023
2.11871
2.10457
2.08826
2.07432
2.0643
2.0566
2.0508
2.04613
2.0428
2.04054
2.03898
2.03944
2.0459
2.05555
2.06217
2.06837
2.07484
2.07695
2.07617
2.07422
2.07171
2.06852
2.06269
2.05188
2.0394
2.03199
2.02818
2.02767
2.02414
2.01361
1.99024
1.95763
1.93354
1.92024
1.9111
1.90475
1.90099
1.89888
1.89768
1.89733
1.89841
1.90112
1.91
1.9281
1.94124
1.94464
1.94752
1.94771
1.94492
1.94139
1.93578
1.92664
1.9171
1.90925
1.90002
1.88455
1.85881
1.83321
1.82165
1.81875
1.81741
1.81748
1.0523
1.0521
1.05176
1.05109
1.04993
1.04896
1.04855
1.04912
1.05214
1.05779
1.06009
1.05837
1.05633
1.05504
1.05404
1.0527
1.05096
1.04883
1.04619
1.04224
1.03424
1.01709
0.990878
0.970901
0.963561
0.96031
0.95734
0.953821
0.950045
0.947331
0.945337
0.943562
0.941963
0.9409
0.942129
0.948295
0.953858
0.954048
0.951965
0.9498
0.947895
0.946364
0.946928
0.950463
0.951768
0.949615
0.946714
0.943842
0.940594
0.936531
0.930967
0.923253
0.914279
0.905853
0.897851
0.88818
0.876842
0.868194
0.864685
0.863256
0.862216
0.863746
0.871745
0.914253
1.04526
1.28394
1.60265
1.89063
2.10843
2.12884
2.1565
2.1913
2.22195
2.2273
2.22476
2.21998
2.21154
2.19881
2.18475
2.17255
2.16211
2.15142
2.14057
2.13053
2.12037
2.10915
2.096
2.08029
2.06541
2.05593
2.0508
2.04646
2.04146
2.03614
2.03296
2.03105
2.03066
2.03634
2.04872
2.06239
2.07113
2.07362
2.07315
2.07057
2.06704
2.06265
2.05528
2.04399
2.03464
2.03044
2.02804
2.02633
2.02373
2.01926
2.00878
1.98296
1.94272
1.9124
1.89937
1.89396
1.8912
1.88919
1.8877
1.88687
1.88846
1.89394
1.9073
1.92708
1.93522
1.93494
1.93474
1.93607
1.93655
1.93386
1.92885
1.92157
1.91318
1.906
1.8995
1.8917
1.87967
1.85998
1.83651
1.81917
1.81297
1.81177
1.81162
1.05006
1.04988
1.0503
1.05149
1.05117
1.05033
1.04979
1.04932
1.05008
1.05589
1.06116
1.06034
1.05859
1.05746
1.05649
1.05503
1.05285
1.05014
1.04698
1.04252
1.03391
1.01602
0.989205
0.969804
0.963533
0.960826
0.958237
0.9551
0.951265
0.948345
0.946391
0.944567
0.942858
0.941433
0.940718
0.942537
0.948029
0.952814
0.953299
0.9511
0.948622
0.946675
0.946359
0.949583
0.952113
0.950621
0.947864
0.945033
0.941967
0.938266
0.933344
0.92667
0.918256
0.908295
0.896295
0.881724
0.869572
0.864997
0.863303
0.862253
0.861612
0.86097
0.860123
0.861778
0.873363
0.915366
1.07075
1.31631
1.64355
1.8748
2.10268
2.1835
2.18504
2.19725
2.20409
2.20145
2.19576
2.1858
2.1726
2.1617
2.15402
2.14329
2.12926
2.12178
2.11569
2.10666
2.09309
2.07385
2.0556
2.04812
2.04448
2.04061
2.03618
2.03229
2.02935
2.02733
2.02705
2.03369
2.04928
2.0615
2.0654
2.06596
2.06443
2.06116
2.05694
2.04975
2.03802
2.02981
2.02605
2.02317
2.02036
2.01744
2.01411
2.00939
1.99796
1.96766
1.92156
1.89419
1.88648
1.88367
1.88199
1.88058
1.87923
1.87902
1.88369
1.90108
1.92544
1.93198
1.93087
1.92963
1.92804
1.92594
1.92341
1.91946
1.91361
1.90697
1.90093
1.89578
1.89046
1.8831
1.87201
1.85813
1.84261
1.82548
1.8119
1.80798
1.80739
1.04877
1.04826
1.0482
1.04895
1.05073
1.05186
1.05142
1.05073
1.05087
1.05386
1.05798
1.05984
1.06024
1.06017
1.05957
1.05748
1.05438
1.05102
1.04733
1.04232
1.03313
1.01491
0.988129
0.969412
0.963878
0.961431
0.958972
0.95607
0.95243
0.949431
0.94752
0.945718
0.943967
0.94234
0.940879
0.940024
0.94176
0.946716
0.951214
0.952394
0.950606
0.948215
0.947507
0.950351
0.953103
0.951789
0.948936
0.945994
0.942963
0.939495
0.935316
0.930058
0.922596
0.910554
0.892308
0.874182
0.865637
0.863436
0.862538
0.861863
0.86134
0.861161
0.860475
0.859107
0.858466
0.860386
0.875571
0.924538
1.07063
1.33625
1.67837
1.90219
2.06319
2.1984
2.21605
2.20734
2.19099
2.17696
2.1621
2.1459
2.13486
2.12525
2.11911
2.11676
2.11442
2.10725
2.0927
2.06917
2.05089
2.04337
2.03831
2.03407
2.03053
2.02741
2.02503
2.02379
2.02578
2.03564
2.04802
2.05509
2.05668
2.05513
2.0521
2.04799
2.04115
2.0303
2.02254
2.01918
2.01708
2.01447
2.01068
2.0069
2.00284
1.99665
1.9822
1.94849
1.90471
1.88429
1.8795
1.87724
1.87579
1.87471
1.87402
1.87589
1.89068
1.91767
1.92532
1.92465
1.92312
1.92154
1.91917
1.91472
1.90648
1.89848
1.8944
1.89187
1.88891
1.88542
1.88111
1.87507
1.86633
1.8563
1.8459
1.83384
1.81893
1.80792
1.80753
1.04857
1.0479
1.04728
1.04707
1.04768
1.05013
1.05331
1.05464
1.0545
1.05474
1.05595
1.0574
1.05925
1.06136
1.06219
1.05977
1.0557
1.05156
1.04727
1.04175
1.03222
1.01385
0.987208
0.969604
0.964804
0.962475
0.960004
0.957083
0.953386
0.950171
0.948167
0.946302
0.94449
0.94278
0.941138
0.939597
0.938905
0.941283
0.946429
0.9506
0.951714
0.950647
0.950259
0.952755
0.954753
0.953078
0.95007
0.947359
0.944588
0.941365
0.937675
0.933047
0.925328
0.909686
0.885534
0.869215
0.864728
0.863494
0.862696
0.861936
0.861191
0.860558
0.860361
0.860332
0.859189
0.857623
0.857442
0.859713
0.873374
0.933828
1.08034
1.36641
1.68204
1.97313
2.05318
2.13625
2.17755
2.18236
2.17271
2.15901
2.1386
2.12097
2.1121
2.10732
2.10394
2.09837
2.08776
2.06743
2.04898
2.03951
2.03293
2.02763
2.02376
2.02061
2.01826
2.01743
2.02195
2.03295
2.04213
2.04645
2.04636
2.04263
2.03753
2.03041
2.0203
2.01271
2.00886
2.0064
2.00615
2.00544
2.00154
1.99741
1.99262
1.98441
1.96707
1.93384
1.89692
1.88104
1.87732
1.87548
1.87369
1.87208
1.87221
1.88196
1.90333
1.91318
1.91542
1.91487
1.91339
1.91084
1.90677
1.89901
1.88822
1.88196
1.87974
1.87918
1.8787
1.87634
1.87258
1.86825
1.86273
1.85681
1.84941
1.83953
1.82786
1.81821
1.83079
1.04934
1.0484
1.0475
1.04674
1.04639
1.04734
1.05202
1.05753
1.05895
1.05806
1.05683
1.05609
1.0573
1.06048
1.06282
1.06097
1.05665
1.05188
1.04699
1.04104
1.03121
1.0124
0.985882
0.969934
0.965878
0.963673
0.961256
0.958382
0.954777
0.951086
0.948706
0.946701
0.94474
0.942852
0.941071
0.93941
0.938157
0.938898
0.942755
0.947631
0.950657
0.951736
0.953013
0.956115
0.956837
0.954493
0.951845
0.949797
0.947396
0.944312
0.940539
0.935254
0.925273
0.904429
0.878326
0.867265
0.865126
0.864164
0.863266
0.862343
0.861429
0.860562
0.859947
0.85961
0.859392
0.8588
0.857166
0.855663
0.855675
0.858655
0.871786
0.943142
1.10035
1.39735
1.69223
1.97605
2.07954
2.10609
2.1267
2.13642
2.12427
2.11478
2.11905
2.11655
2.10953
2.09931
2.08189
2.05808
2.04325
2.03607
2.02921
2.02257
2.01765
2.01397
2.01089
2.00964
2.01484
2.02503
2.03132
2.03389
2.0333
2.02914
2.02177
2.01196
2.00405
1.9992
1.99534
1.99268
1.99346
1.9955
1.99286
1.98863
1.98316
1.97397
1.95545
1.92241
1.89225
1.88299
1.88024
1.87746
1.87496
1.87357
1.87716
1.89179
1.90123
1.90415
1.90368
1.90276
1.90145
1.89828
1.89234
1.88323
1.87587
1.8724
1.8703
1.86845
1.86709
1.86708
1.86628
1.86407
1.86196
1.86018
1.85737
1.85432
1.86779
1.91298
2.15462
1.0512
1.05012
1.0491
1.04815
1.04743
1.04732
1.04999
1.05654
1.06087
1.06114
1.05945
1.05739
1.05689
1.05916
1.06205
1.06125
1.05718
1.05225
1.04689
1.04042
1.02996
1.01007
0.983739
0.969877
0.966446
0.964318
0.961999
0.959341
0.956202
0.952652
0.949568
0.947153
0.945024
0.943031
0.941182
0.939545
0.938288
0.938426
0.940776
0.944237
0.947605
0.950498
0.954633
0.959245
0.958616
0.956233
0.954651
0.953263
0.951306
0.948465
0.944488
0.937675
0.923283
0.896482
0.87289
0.867021
0.865851
0.864834
0.863743
0.862745
0.862026
0.861375
0.860198
0.858984
0.858259
0.857859
0.85738
0.856631
0.85561
0.854411
0.854337
0.858421
0.877799
0.954455
1.13745
1.42362
1.71216
1.95455
2.11011
2.11134
2.08755
2.09843
2.11809
2.11621
2.10554
2.08738
2.07024
2.05686
2.04401
2.03362
2.02501
2.01708
2.01061
2.00562
2.0028
2.00289
2.00706
2.01356
2.01696
2.01527
2.01296
2.01244
2.00767
1.99983
1.99338
1.98831
1.98392
1.98065
1.98115
1.98582
1.98626
1.98286
1.97772
1.96855
1.94813
1.91165
1.88279
1.87619
1.87436
1.87303
1.87251
1.87619
1.88794
1.89469
1.89705
1.89698
1.89471
1.89199
1.88864
1.8835
1.87657
1.87034
1.86594
1.8626
1.85956
1.85674
1.85594
1.85836
1.86357
1.86537
1.8704
1.88804
1.94446
2.0663
2.29926
2.59808
3.09356
1.05262
1.05164
1.05087
1.05022
1.04957
1.04904
1.04964
1.05358
1.05836
1.06085
1.06086
1.0592
1.05803
1.05903
1.06154
1.06154
1.0578
1.05284
1.04713
1.03999
1.02831
1.00667
0.980626
0.969142
0.966348
0.964367
0.962286
0.959965
0.957351
0.954507
0.951575
0.948795
0.94628
0.944029
0.942035
0.940383
0.9392
0.938882
0.939506
0.940888
0.943489
0.947603
0.954778
0.960923
0.960026
0.958238
0.957419
0.95662
0.955202
0.953012
0.949196
0.940727
0.920526
0.88846
0.870016
0.867129
0.86603
0.864852
0.86359
0.862462
0.862369
0.862553
0.860988
0.859151
0.857801
0.856711
0.856086
0.855852
0.855589
0.855025
0.853852
0.852691
0.854721
0.863709
0.891839
0.967104
1.17216
1.46659
1.75581
1.9104
2.05625
2.13069
2.13703
2.12703
2.10158
2.0785
2.06333
2.04834
2.03137
2.02198
2.01572
2.0109
2.00655
2.0007
1.99689
1.99684
1.99834
1.99996
1.99875
1.99457
1.99104
1.99076
1.99262
1.99018
1.98412
1.97834
1.97346
1.96974
1.97022
1.97716
1.98084
1.97774
1.97165
1.96109
1.93991
1.90491
1.8799
1.87526
1.8742
1.87402
1.87796
1.88626
1.89002
1.89169
1.89188
1.88965
1.88557
1.87878
1.87061
1.86358
1.85856
1.85588
1.85348
1.85199
1.85207
1.85162
1.85295
1.85965
1.88107
1.9431
2.07418
2.29642
2.63428
3.00384
3.36046
3.49736
3.66225
1.05352
1.05275
1.05222
1.0519
1.05162
1.0511
1.0509
1.05258
1.05587
1.05925
1.06121
1.06114
1.06018
1.06016
1.0617
1.06202
1.05865
1.05375
1.04785
1.03992
1.02652
1.00282
0.97722
0.967874
0.96565
0.963798
0.961824
0.959715
0.957621
0.95553
0.953167
0.950648
0.948111
0.945634
0.943327
0.941337
0.939822
0.93879
0.937932
0.937397
0.938507
0.943518
0.954104
0.962601
0.962118
0.960711
0.960432
0.960283
0.959382
0.957783
0.954273
0.94416
0.917897
0.882592
0.868728
0.866953
0.865795
0.864489
0.863129
0.862214
0.862312
0.86266
0.861462
0.859631
0.857934
0.856392
0.8552
0.854533
0.854603
0.854425
0.853692
0.852932
0.85413
0.859344
0.865727
0.872192
0.901921
0.986405
1.19995
1.48619
1.8163
1.95937
2.0508
2.10518
2.10958
2.10097
2.08865
2.06095
2.02594
2.00743
1.99883
1.99556
1.99498
1.99429
1.99297
1.99157
1.98862
1.98604
1.98026
1.97157
1.96651
1.96979
1.9798
1.98263
1.97629
1.96923
1.9636
1.95985
1.96243
1.97265
1.97753
1.97348
1.96577
1.95453
1.93468
1.90326
1.88077
1.87604
1.87462
1.87443
1.87813
1.88378
1.88673
1.88644
1.8841
1.88001
1.87126
1.85731
1.8475
1.84285
1.84088
1.8417
1.84729
1.85106
1.85439
1.86801
1.91615
2.04367
2.26156
2.61263
2.96898
3.35399
3.61521
3.77163
3.85044
3.85985
3.83653
1.05414
1.05336
1.053
1.05324
1.05388
1.05411
1.05396
1.05424
1.0555
1.05763
1.05963
1.06022
1.05955
1.05926
1.06072
1.06205
1.05965
1.05518
1.04954
1.04112
1.02566
0.999401
0.974397
0.966122
0.964125
0.962417
0.960308
0.958614
0.957304
0.956075
0.954417
0.952507
0.950617
0.948535
0.946127
0.943329
0.940472
0.938317
0.936614
0.935326
0.934909
0.939403
0.953635
0.964239
0.963833
0.962681
0.962692
0.962538
0.961445
0.959774
0.956211
0.944954
0.915619
0.88035
0.869105
0.867536
0.866261
0.864838
0.863371
0.862187
0.861564
0.8612
0.860615
0.86002
0.858566
0.85671
0.855303
0.854435
0.853978
0.853059
0.851879
0.851447
0.853448
0.859712
0.865005
0.864346
0.864377
0.869658
0.905559
1.01424
1.25609
1.56762
1.85334
2.00055
2.02591
2.05888
2.06305
2.04725
2.02747
2.01601
2.00357
1.99235
1.98563
1.9842
1.98536
1.98409
1.97655
1.96739
1.95895
1.95037
1.94747
1.95658
1.97102
1.97477
1.96829
1.96048
1.95439
1.95243
1.95958
1.97205
1.97528
1.96946
1.96079
1.94988
1.9317
1.90294
1.88352
1.87966
1.87774
1.87696
1.87893
1.88143
1.88114
1.8785
1.87409
1.86443
1.84604
1.83252
1.82845
1.82892
1.83076
1.84017
1.86613
1.92384
2.05383
2.26151
2.57722
2.9511
3.31165
3.59687
3.76023
3.92248
3.97177
3.98724
3.97837
3.93828
3.86351
1.05475
1.05425
1.05418
1.05457
1.05482
1.05454
1.0538
1.05321
1.05355
1.05501
1.0568
1.0577
1.0576
1.05801
1.06057
1.06348
1.06203
1.058
1.05275
1.04391
1.02597
0.995977
0.971624
0.964614
0.962482
0.960515
0.95871
0.957507
0.956531
0.955759
0.954907
0.953604
0.952113
0.9503
0.948049
0.945274
0.941547
0.937416
0.935222
0.933948
0.933204
0.936696
0.951769
0.9646
0.965133
0.964479
0.96491
0.964129
0.962687
0.960999
0.957556
0.946309
0.916884
0.882394
0.870973
0.868749
0.866968
0.864889
0.862699
0.860931
0.860382
0.860318
0.859699
0.859537
0.859212
0.857241
0.855319
0.854081
0.852531
0.850682
0.849358
0.848769
0.850611
0.858092
0.866895
0.867629
0.866212
0.864694
0.866653
0.876333
0.91955
1.06034
1.30424
1.59077
1.83944
2.01634
2.02904
2.00128
1.99762
1.98969
1.98461
1.98364
1.98616
1.9863
1.9834
1.97565
1.96243
1.9483
1.93721
1.9275
1.93089
1.95116
1.96772
1.96891
1.96057
1.95207
1.94667
1.94775
1.95892
1.97344
1.97638
1.96966
1.96095
1.95005
1.93139
1.90248
1.88379
1.87946
1.87702
1.87593
1.87655
1.8755
1.87271
1.86835
1.85907
1.84094
1.82778
1.81956
1.81987
1.83303
1.88575
2.02612
2.2785
2.59078
2.9464
3.28043
3.62186
3.74977
3.85916
3.93728
4.01315
4.06057
4.06357
4.04477
3.99912
3.91404
3.81
1.05626
1.05543
1.05482
1.05424
1.05368
1.05315
1.05285
1.05313
1.05421
1.05598
1.05761
1.05818
1.05784
1.05812
1.06098
1.06477
1.06389
1.06003
1.0548
1.04542
1.02537
0.992743
0.969838
0.964151
0.961816
0.959349
0.95726
0.955985
0.954921
0.953963
0.953214
0.953045
0.95297
0.951421
0.949319
0.947025
0.943826
0.938971
0.935589
0.934247
0.933472
0.935393
0.947305
0.962941
0.967743
0.967625
0.967364
0.96662
0.965172
0.963407
0.95977
0.947399
0.915781
0.881525
0.870897
0.868439
0.866373
0.864263
0.862299
0.861144
0.861332
0.860838
0.859125
0.857852
0.857559
0.855993
0.853795
0.852292
0.850929
0.849648
0.848633
0.848224
0.850539
0.859011
0.86904
0.871138
0.869938
0.868331
0.865913
0.863784
0.863517
0.875305
0.927141
1.08452
1.33107
1.60263
1.77979
1.95099
2.01049
1.9978
1.97575
1.96685
1.97237
1.97825
1.9679
1.95259
1.93855
1.92745
1.91852
1.91649
1.92825
1.94717
1.95872
1.96075
1.95632
1.95004
1.94606
1.9485
1.96065
1.97582
1.9789
1.97152
1.96232
1.95081
1.9311
1.90109
1.88103
1.87528
1.87179
1.86974
1.86886
1.86615
1.86218
1.85857
1.84088
1.82376
1.82915
1.86813
1.97329
2.21399
2.52817
2.90279
3.26324
3.57681
3.76712
3.84718
3.91067
3.95302
4.01151
4.06381
4.08485
4.09326
4.09282
4.05471
3.96096
3.83726
3.77262
1.05751
1.05565
1.05418
1.05331
1.0533
1.05354
1.05378
1.05449
1.05594
1.0578
1.059
1.05859
1.05725
1.05698
1.06016
1.06468
1.06421
1.0606
1.05568
1.04653
1.02589
0.992988
0.970641
0.964031
0.960901
0.958214
0.956074
0.954472
0.953112
0.951911
0.951091
0.951624
0.953511
0.952801
0.950761
0.948671
0.945904
0.941435
0.937662
0.935915
0.934904
0.935427
0.943484
0.960909
0.970562
0.969794
0.968032
0.966752
0.964934
0.96246
0.957685
0.94413
0.912348
0.879941
0.871272
0.869604
0.867982
0.866333
0.865135
0.864026
0.861858
0.859304
0.856968
0.855429
0.854853
0.854232
0.852608
0.851515
0.850863
0.85036
0.849774
0.849381
0.850832
0.857683
0.866836
0.870675
0.870796
0.870334
0.869173
0.866966
0.864647
0.863558
0.86208
0.878312
0.925373
1.06076
1.29
1.60299
1.77495
1.89162
1.96999
2.00429
2.00617
1.99563
1.95846
1.92453
1.90942
1.90077
1.90273
1.91465
1.93151
1.94547
1.95248
1.95444
1.95256
1.94893
1.9467
1.95
1.96157
1.97641
1.98054
1.97303
1.96362
1.95182
1.93126
1.90069
1.87874
1.87052
1.86462
1.8596
1.85912
1.86292
1.85345
1.85019
1.87851
1.96211
2.17643
2.48746
2.83046
3.18839
3.45281
3.68987
3.82212
3.93649
3.97021
3.96972
3.98343
4.02012
4.0739
4.11084
4.10791
4.09618
4.07101
4.00532
3.8994
3.81268
3.79071
1.05753
1.05586
1.05465
1.05411
1.05395
1.05339
1.05298
1.05367
1.05535
1.05706
1.05763
1.05648
1.05497
1.05681
1.0623
1.0667
1.06566
1.06232
1.05795
1.04881
1.02689
0.992263
0.969137
0.961863
0.958496
0.956507
0.955173
0.95394
0.952782
0.951778
0.950965
0.950695
0.951263
0.95139
0.950108
0.948177
0.94572
0.942598
0.940209
0.938691
0.937797
0.938164
0.943649
0.957305
0.969362
0.970166
0.968265
0.966483
0.964387
0.961725
0.957144
0.945628
0.917545
0.883743
0.873376
0.871821
0.87041
0.868482
0.866262
0.86367
0.860339
0.857306
0.855439
0.854222
0.853847
0.852804
0.851264
0.850149
0.84921
0.848237
0.847287
0.846906
0.848728
0.856229
0.867253
0.873729
0.875146
0.875063
0.874342
0.872616
0.870283
0.867817
0.862823
0.854549
0.832811
0.834134
0.880374
1.04291
1.31372
1.60879
1.78604
1.90728
1.97161
1.96993
1.95447
1.94102
1.9231
1.90933
1.90327
1.90404
1.90948
1.91975
1.93443
1.94758
1.95336
1.95499
1.95617
1.95905
1.96591
1.97636
1.98064
1.97314
1.96238
1.94848
1.9266
1.89633
1.8736
1.86533
1.86088
1.86493
1.85831
1.87843
1.95974
2.14648
2.47196
2.80576
3.16641
3.41436
3.62082
3.72761
3.81865
3.91015
3.97044
4.01257
4.03072
4.03325
4.03613
4.049
4.07294
4.0822
4.07805
4.06033
4.0158
3.94185
3.87794
3.84407
3.83081
1.05833
1.05725
1.05588
1.05438
1.05287
1.05144
1.05097
1.05224
1.05387
1.0546
1.05475
1.05545
1.05823
1.06265
1.0691
1.07005
1.06709
1.06335
1.05804
1.0467
1.02206
0.986814
0.967061
0.96228
0.959844
0.958102
0.95681
0.955665
0.954571
0.953225
0.95147
0.949643
0.948057
0.947072
0.94711
0.947466
0.946638
0.945448
0.944414
0.943641
0.943116
0.943136
0.945701
0.953396
0.963362
0.967554
0.967544
0.966157
0.964121
0.961716
0.957865
0.948328
0.923783
0.888342
0.872964
0.870615
0.868829
0.866657
0.864308
0.861808
0.859551
0.857731
0.855966
0.854238
0.85238
0.850025
0.848118
0.846975
0.846154
0.845523
0.845179
0.846107
0.850518
0.860295
0.871451
0.876963
0.878816
0.878733
0.876995
0.874695
0.872212
0.869239
0.864288
0.852942
0.829692
0.801255
0.797789
0.815415
0.892924
1.08001
1.37295
1.70392
1.8359
1.86227
1.8846
1.91596
1.92725
1.9221
1.91333
1.90889
1.90497
1.90293
1.91073
1.92958
1.95022
1.96446
1.97041
1.97061
1.97041
1.97479
1.97868
1.97176
1.95991
1.94474
1.92102
1.89446
1.88396
1.86317
1.86851
1.92583
2.08557
2.41095
2.75734
3.15132
3.4206
3.61935
3.73256
3.78082
3.84125
3.8675
3.92275
3.9939
4.04434
4.04792
4.037
4.02423
4.01961
4.03471
4.06019
4.06623
4.06075
4.03533
3.9845
3.93037
3.89712
3.87585
3.85949
1.05973
1.05797
1.05611
1.05407
1.05204
1.05045
1.05013
1.05128
1.05198
1.05191
1.05295
1.05688
1.06426
1.07258
1.07343
1.07038
1.06633
1.06143
1.05434
1.042
1.01821
0.986735
0.970033
0.965719
0.963282
0.960802
0.958286
0.955928
0.953784
0.951797
0.949941
0.948231
0.946666
0.945575
0.945377
0.946155
0.947389
0.948312
0.948147
0.947077
0.945871
0.945061
0.945904
0.950532
0.957967
0.963442
0.965322
0.964977
0.963156
0.960844
0.957463
0.949522
0.928448
0.893441
0.872016
0.868538
0.867015
0.865498
0.864477
0.863204
0.861507
0.859557
0.856602
0.852728
0.849289
0.847045
0.84579
0.845073
0.844742
0.844782
0.84535
0.84733
0.852534
0.862316
0.872727
0.877695
0.87944
0.879596
0.877945
0.875982
0.874038
0.871527
0.866868
0.855585
0.830938
0.803076
0.792136
0.789464
0.79273
0.819272
0.924281
1.13845
1.41244
1.6639
1.86721
1.90001
1.89803
1.89819
1.89427
1.89439
1.89587
1.90024
1.91423
1.93738
1.96181
1.97542
1.97626
1.97093
1.96604
1.97097
1.97893
1.97266
1.96109
1.95075
1.93705
1.90036
1.91841
2.02244
2.30532
2.67757
3.07587
3.40177
3.60041
3.76007
3.8025
3.86462
3.87906
3.89764
3.9182
3.91467
3.9337
3.97842
4.01295
4.01895
4.01796
4.02361
4.03336
4.046
4.05791
4.05666
4.04421
4.01982
3.98694
3.95182
3.91281
3.8744
3.85808
1.05875
1.05674
1.05506
1.05359
1.05207
1.05083
1.05058
1.05061
1.05004
1.05013
1.05285
1.05969
1.07011
1.07342
1.07115
1.06767
1.06432
1.06054
1.05489
1.04387
1.02003
0.987237
0.969897
0.96515
0.962319
0.959564
0.957186
0.955361
0.953545
0.951777
0.95046
0.949609
0.94858
0.947331
0.946166
0.945403
0.945843
0.94766
0.948966
0.949228
0.948759
0.948135
0.949076
0.953147
0.958661
0.962384
0.96374
0.963172
0.961437
0.959232
0.955917
0.949175
0.932165
0.899782
0.875933
0.870553
0.869075
0.867568
0.86595
0.864003
0.861183
0.857278
0.852909
0.849496
0.847525
0.846106
0.845101
0.844568
0.844199
0.843697
0.843655
0.845531
0.851303
0.861854
0.874078
0.880748
0.882217
0.881599
0.879937
0.878476
0.87694
0.875007
0.870952
0.858061
0.828678
0.799691
0.789899
0.78655
0.784041
0.783731
0.789457
0.821354
0.951605
1.19934
1.49757
1.71507
1.88045
1.91636
1.91132
1.9021
1.89013
1.8897
1.90849
1.94156
1.96644
1.97141
1.96493
1.95825
1.95437
1.96621
1.97851
1.98818
1.97013
1.96518
2.01375
2.19701
2.53983
2.94242
3.33294
3.56586
3.73541
3.79895
3.86682
3.92912
3.93262
3.92981
3.89761
3.87815
3.87868
3.88357
3.92138
3.99391
4.04227
4.05223
4.05269
4.05063
4.04486
4.0356
4.03071
4.02955
4.02228
4.01068
3.99743
3.97523
3.92855
3.88002
3.86299
1.05751
1.05569
1.05401
1.05303
1.05252
1.05163
1.05042
1.04904
1.0481
1.04971
1.05523
1.06439
1.07185
1.07177
1.0694
1.06734
1.06544
1.0631
1.05882
1.04691
1.01817
0.981691
0.966416
0.963087
0.961077
0.959363
0.957872
0.956835
0.956191
0.95506
0.953429
0.951544
0.949307
0.947169
0.94543
0.944077
0.943668
0.945681
0.948827
0.950557
0.951311
0.952475
0.954903
0.957389
0.959398
0.960961
0.960871
0.959119
0.956927
0.954563
0.951537
0.946485
0.934943
0.911248
0.88489
0.873333
0.869537
0.866718
0.863616
0.860287
0.857031
0.853884
0.851549
0.84997
0.84867
0.847243
0.845685
0.844105
0.842674
0.841523
0.841052
0.842904
0.849841
0.862501
0.875908
0.884307
0.886465
0.885985
0.884329
0.882536
0.880694
0.878072
0.872198
0.855314
0.820605
0.793806
0.788004
0.785962
0.784378
0.783207
0.782845
0.783782
0.79632
0.850464
1.02081
1.28941
1.58557
1.75008
1.87469
1.90996
1.90681
1.91503
1.93405
1.94915
1.95033
1.94079
1.93594
1.94639
1.97131
1.98374
1.99446
2.03197
2.16328
2.44226
2.80794
3.24887
3.53816
3.74772
3.82029
3.84848
3.90245
3.91443
3.92644
3.91023
3.88548
3.86879
3.84951
3.85031
3.86862
3.90484
3.95978
4.03179
4.0653
4.06411
4.05608
4.04095
4.02462
4.01699
4.01551
4.0255
4.03019
4.02597
4.01804
3.99615
3.94335
3.88976
3.86997
1.05783
1.05684
1.05578
1.05387
1.05155
1.04947
1.0477
1.04629
1.04616
1.05009
1.05918
1.07025
1.07399
1.07284
1.07105
1.06929
1.06719
1.06421
1.05849
1.04457
1.0142
0.97874
0.965873
0.963909
0.962569
0.961253
0.960104
0.958772
0.957106
0.955201