/*--------------------------------*- C++ -*----------------------------------*\
  =========                 |
  \\      /  F ield         | OpenFOAM: The Open Source CFD Toolbox
   \\    /   O peration     | Website:  https://openfoam.org
    \\  /    A nd           | Version:  7
     \\/     M anipulation  |
\*---------------------------------------------------------------------------*/
FoamFile
{
    version     2.0;
    format      ascii;
    class       surfaceScalarField;
    location    "8.6";
    object      phi;
}
// * * * * * * * * * * * * * * * * * * * * * * * * * * * * * * * * * * * * * //

dimensions      [0 3 -1 0 0 0 0];

internalField   nonuniform List<scalar> 
615
(
0.000135356
-1.72841e-06
0.000135252
-1.69712e-06
0.00013515
-1.6666e-06
0.00013505
-1.63682e-06
0.000134952
-1.60775e-06
0.000134855
-1.57937e-06
0.000134761
-1.55166e-06
0.000134667
-1.5246e-06
0.000134576
-1.49817e-06
0.000134486
-1.47234e-06
0.000134397
-1.4471e-06
0.00013431
-1.42244e-06
0.000134224
-1.39832e-06
0.00013414
-1.37475e-06
0.000134057
-1.3517e-06
0.000133975
-1.32916e-06
0.000133895
-1.30712e-06
0.000133816
-1.28556e-06
0.000133739
-1.26447e-06
0.000133662
-1.24384e-06
0.000133587
-1.22366e-06
0.000133513
-1.20392e-06
0.00013344
-1.18461e-06
0.000133369
-1.16573e-06
0.000133298
-1.14727e-06
0.000133229
-1.12922e-06
0.000133161
-1.11159e-06
0.000133093
-1.09436e-06
0.000133027
-1.07755e-06
0.000132962
-1.06114e-06
-1.04516e-06
0.000138435
-3.51763e-06
0.000138209
-3.42714e-06
0.000137989
-3.34022e-06
0.000137774
-3.25666e-06
0.000137564
-3.17629e-06
0.000137359
-3.09891e-06
0.000137159
-3.02439e-06
0.000136964
-2.95255e-06
0.000136772
-2.88327e-06
0.000136585
-2.81642e-06
0.000136402
-2.75187e-06
0.000136223
-2.68951e-06
0.000136048
-2.62924e-06
0.000135877
-2.57095e-06
0.000135709
-2.51456e-06
0.000135545
-2.45996e-06
0.000135384
-2.4071e-06
0.000135226
-2.35587e-06
0.000135072
-2.30622e-06
0.000134921
-2.25808e-06
0.000134773
-2.21138e-06
0.000134627
-2.16605e-06
0.000134485
-2.12205e-06
0.000134345
-2.07931e-06
0.000134209
-2.0378e-06
0.000134074
-1.99745e-06
0.000133943
-1.95822e-06
0.000133813
-1.92007e-06
0.000133687
-1.88295e-06
0.000133562
-1.84684e-06
0.00013344
-1.81168e-06
0.00013332
-1.77745e-06
0.000133203
-1.74411e-06
0.000133087
-1.71162e-06
0.000132974
-1.67997e-06
0.000132862
-1.64911e-06
0.000132753
-1.61902e-06
0.000132645
-1.58968e-06
0.00013254
-1.56105e-06
0.000132436
-1.53312e-06
0.000132334
-1.50586e-06
0.000132234
-1.47925e-06
0.000132136
-1.45327e-06
0.000132039
-1.4279e-06
0.000131944
-1.40312e-06
0.000131851
-1.3789e-06
0.000131759
-1.35525e-06
0.000131668
-1.33212e-06
0.00013158
-1.30952e-06
0.000131492
-1.28743e-06
0.000131406
-1.26582e-06
0.000131322
-1.2447e-06
0.000131239
-1.22404e-06
0.000131157
-1.20383e-06
0.000131077
-1.18407e-06
0.000130998
-1.16474e-06
0.00013092
-1.14583e-06
0.000130843
-1.12734e-06
0.000130768
-1.10925e-06
0.000130694
-1.09156e-06
0.000130621
-1.07427e-06
0.000130549
-1.05737e-06
0.000130478
-1.04085e-06
0.000130409
-1.02472e-06
0.00013034
-1.00897e-06
0.000130272
-9.93617e-07
-9.7865e-07
0.000135652
-3.27793e-06
0.000135418
-3.19337e-06
0.00013519
-3.11216e-06
0.000134968
-3.03411e-06
0.00013475
-2.95903e-06
0.000134538
-2.88677e-06
0.000134331
-2.81718e-06
0.000134129
-2.75011e-06
0.000133931
-2.68543e-06
0.000133737
-2.62303e-06
0.000133548
-2.56278e-06
0.000133363
-2.50458e-06
0.000133183
-2.44833e-06
0.000133006
-2.39395e-06
0.000132832
-2.34133e-06
0.000132663
-2.2904e-06
0.000132497
-2.24108e-06
0.000132334
-2.19331e-06
0.000132175
-2.147e-06
0.000132019
-2.1021e-06
0.000131866
-2.05855e-06
0.000131716
-2.01629e-06
0.00013157
-1.97526e-06
0.000131426
-1.93542e-06
0.000131285
-1.89672e-06
0.000131146
-1.8591e-06
0.000131011
-1.82254e-06
0.000130877
-1.78698e-06
0.000130747
-1.75239e-06
0.000130619
-1.71873e-06
0.000130493
-1.68597e-06
0.00013037
-1.65407e-06
0.000130249
-1.62301e-06
0.00013013
-1.59274e-06
0.000130013
-1.56325e-06
0.000129898
-1.5345e-06
0.000129786
-1.50648e-06
0.000129675
-1.47914e-06
0.000129567
-1.45248e-06
0.00012946
-1.42647e-06
0.000129355
-1.40108e-06
0.000129252
-1.3763e-06
0.000129151
-1.3521e-06
0.000129052
-1.32847e-06
0.000128954
-1.3054e-06
0.000128858
-1.28285e-06
0.000128764
-1.26082e-06
0.000128671
-1.23929e-06
0.000128579
-1.21825e-06
0.00012849
-1.19768e-06
0.000128401
-1.17757e-06
0.000128315
-1.15791e-06
0.000128229
-1.13868e-06
0.000128145
-1.11987e-06
0.000128063
-1.10148e-06
0.000127982
-1.08349e-06
0.000127902
-1.06589e-06
0.000127823
-1.04868e-06
0.000127746
-1.03185e-06
0.000127669
-1.01539e-06
0.000127594
-9.99299e-07
0.000127521
-9.83573e-07
0.000127448
-9.68208e-07
0.000127376
-9.53202e-07
0.000127306
-9.38557e-07
0.000127237
-9.24275e-07
-9.10358e-07
0.00013245
-3.03169e-06
0.00013221
-2.95331e-06
0.000131976
-2.87803e-06
0.000131748
-2.80569e-06
0.000131525
-2.73612e-06
0.000131307
-2.66917e-06
0.000131095
-2.6047e-06
0.000130887
-2.54257e-06
0.000130685
-2.48266e-06
0.000130486
-2.42486e-06
0.000130293
-2.36906e-06
0.000130103
-2.31517e-06
0.000129918
-2.26309e-06
0.000129737
-2.21273e-06
0.000129559
-2.16402e-06
0.000129386
-2.11687e-06
0.000129216
-2.07122e-06
0.00012905
-2.027e-06
0.000128887
-1.98414e-06
0.000128727
-1.94259e-06
0.000128571
-1.90228e-06
0.000128418
-1.86318e-06
0.000128268
-1.82521e-06
0.000128121
-1.78835e-06
0.000127977
-1.75254e-06
0.000127835
-1.71774e-06
0.000127697
-1.68392e-06
0.000127561
-1.65103e-06
0.000127427
-1.61903e-06
0.000127297
-1.5879e-06
0.000127168
-1.5576e-06
0.000127042
-1.5281e-06
0.000126919
-1.49937e-06
0.000126797
-1.47138e-06
0.000126678
-1.44411e-06
0.000126561
-1.41753e-06
0.000126446
-1.39162e-06
0.000126334
-1.36635e-06
0.000126223
-1.3417e-06
0.000126114
-1.31765e-06
0.000126007
-1.29418e-06
0.000125902
-1.27127e-06
0.000125799
-1.2489e-06
0.000125697
-1.22706e-06
0.000125598
-1.20573e-06
0.0001255
-1.1849e-06
0.000125403
-1.16454e-06
0.000125309
-1.14464e-06
0.000125216
-1.12519e-06
0.000125124
-1.10618e-06
0.000125034
-1.0876e-06
0.000124946
-1.06943e-06
0.000124859
-1.05166e-06
0.000124773
-1.03428e-06
0.000124689
-1.01729e-06
0.000124606
-1.00067e-06
0.000124525
-9.84409e-07
0.000124445
-9.6851e-07
0.000124366
-9.52962e-07
0.000124288
-9.37759e-07
0.000124212
-9.22898e-07
0.000124136
-9.08373e-07
0.000124062
-8.94183e-07
0.00012399
-8.80327e-07
0.000123918
-8.66805e-07
0.000123847
-8.53619e-07
-8.40773e-07
0.00012882
-2.78102e-06
0.000128576
-2.70899e-06
0.000128337
-2.63982e-06
0.000128105
-2.57336e-06
0.000127878
-2.50944e-06
0.000127657
-2.44794e-06
0.000127441
-2.38872e-06
0.00012723
-2.33165e-06
0.000127024
-2.27663e-06
0.000126823
-2.22355e-06
0.000126626
-2.17231e-06
0.000126434
-2.12283e-06
0.000126246
-2.07501e-06
0.000126062
-2.02877e-06
0.000125882
-1.98405e-06
0.000125706
-1.94077e-06
0.000125533
-1.89887e-06
0.000125365
-1.85828e-06
0.000125199
-1.81894e-06
0.000125038
-1.7808e-06
0.000124879
-1.74381e-06
0.000124724
-1.70792e-06
0.000124572
-1.67309e-06
0.000124423
-1.63926e-06
0.000124277
-1.60641e-06
0.000124133
-1.57448e-06
0.000123993
-1.54345e-06
0.000123855
-1.51327e-06
0.00012372
-1.48392e-06
0.000123587
-1.45536e-06
0.000123457
-1.42756e-06
0.00012333
-1.4005e-06
0.000123205
-1.37415e-06
0.000123082
-1.34848e-06
0.000122961
-1.32347e-06
0.000122843
-1.29909e-06
0.000122726
-1.27533e-06
0.000122612
-1.25215e-06
0.0001225
-1.22955e-06
0.00012239
-1.20749e-06
0.000122282
-1.18597e-06
0.000122175
-1.16497e-06
0.000122071
-1.14446e-06
0.000121968
-1.12443e-06
0.000121867
-1.10488e-06
0.000121768
0.000121671
0.000121575
0.000121481
0.000121388
0.000121297
0.000121208
0.00012112
0.000121033
0.000120948
0.000120864
0.000120782
0.000120701
0.000120621
0.000120542
0.000120465
0.000120389
0.000120314
0.000120241
0.000120168
0.000120097
0.000124751
0.000124505
0.000124265
0.00012403
0.000123802
0.000123579
0.000123361
0.000123149
0.000122941
0.000122738
0.00012254
0.000122347
0.000122157
0.000121972
0.000121791
0.000121614
0.00012144
0.00012127
0.000121104
0.000120941
0.000120782
0.000120626
0.000120473
0.000120323
0.000120176
0.000120032
0.000119891
0.000119752
0.000119616
0.000119483
0.000119353
0.000119224
0.000119099
0.000118975
0.000118854
0.000118735
0.000118618
0.000118503
0.000118391
0.00011828
0.000118171
0.000118065
0.00011796
0.000117857
)
;

boundaryField
{
    inlet
    {
        type            calculated;
        value           nonuniform 0();
    }
    outlet
    {
        type            calculated;
        value           nonuniform 0();
    }
    wall
    {
        type            calculated;
        value           nonuniform 0();
    }
    wedge1
    {
        type            wedge;
        value           nonuniform List<scalar> 
344
(
-1.36109e-16
3.34575e-16
-1.14019e-16
-5.37203e-16
1.66847e-16
-1.32573e-16
3.25998e-16
-1.11012e-16
-5.23219e-16
1.62576e-16
-1.29152e-16
3.17776e-16
-1.08117e-16
-5.09783e-16
1.58483e-16
-1.25958e-16
3.09755e-16
-1.05439e-16
-4.96993e-16
1.54445e-16
-1.2279e-16
3.02165e-16
-1.02761e-16
-4.8458e-16
1.50656e-16
-1.19881e-16
2.94689e-16
-1.00335e-16
-4.72793e-16
1.46877e-16
-1.16963e-16
2.8764e-16
-9.78627e-17
-4.61292e-16
1.43369e-16
-1.14226e-16
2.8074e-16
-9.55679e-17
-4.50311e-16
1.39909e-16
-1.11482e-16
2.74215e-16
-9.32473e-17
-4.39612e-16
1.36658e-16
-1.08976e-16
2.6775e-16
-9.11625e-17
-4.29449e-16
1.33388e-16
-1.06446e-16
2.61652e-16
-8.90202e-17
-4.19497e-16
1.30358e-16
-1.0407e-16
2.5566e-16
-8.70334e-17
-4.0998e-16
1.27353e-16
-1.01672e-16
2.49995e-16
-8.50075e-17
-4.00675e-16
1.24533e-16
-9.94987e-17
2.44348e-16
-8.32047e-17
-3.91839e-16
1.21672e-16
-9.73013e-17
2.39004e-16
-8.13542e-17
-3.8318e-16
1.18995e-16
-9.52349e-17
2.33751e-16
-7.96288e-17
-3.7487e-16
1.16354e-16
-9.32409e-17
2.28662e-16
-7.79702e-17
-3.6683e-16
1.13788e-16
-9.1308e-17
2.23733e-16
-7.6358e-17
-3.5904e-16
1.11302e-16
-8.94329e-17
2.18959e-16
-7.47976e-17
-3.51492e-16
1.0889e-16
-8.76096e-17
2.14334e-16
-7.32778e-17
-3.44166e-16
1.06559e-16
-8.58418e-17
2.09849e-16
-7.18029e-17
-3.37063e-16
1.04297e-16
-8.41241e-17
2.05498e-16
-7.03688e-17
-3.30167e-16
1.02106e-16
-8.24552e-17
2.01277e-16
-6.89749e-17
-3.23469e-16
9.99846e-17
-8.08359e-17
1.97175e-16
-6.76236e-17
-3.16971e-16
9.79192e-17
-7.92617e-17
1.93192e-16
-6.63109e-17
-3.10657e-16
9.5915e-17
-7.77304e-17
1.89323e-16
-6.50276e-17
-3.04513e-16
9.39764e-17
-7.61606e-17
1.85661e-16
-6.36812e-17
-2.98438e-16
9.2187e-17
-7.46065e-17
1.82113e-16
-6.23689e-17
-2.92529e-16
9.0448e-17
-7.31974e-17
1.78543e-16
-6.11944e-17
-2.86894e-16
8.86621e-17
-7.17304e-17
1.75189e-16
-5.99514e-17
-2.81307e-16
8.70064e-17
-7.044e-17
1.71762e-16
-5.88898e-17
-2.76019e-16
8.52699e-17
-6.90749e-17
1.68564e-16
-5.773e-17
-2.70731e-16
8.37014e-17
-6.78143e-17
1.65347e-16
-5.66832e-17
-2.6568e-16
8.20924e-17
-6.65291e-17
1.62298e-16
-5.55965e-17
-2.60682e-16
8.0582e-17
-6.52447e-17
1.59355e-16
-5.45007e-17
-2.55775e-16
7.91566e-17
-6.40259e-17
1.56443e-16
-5.34755e-17
-2.51039e-16
7.77224e-17
-6.80993e-17
-6.28081e-17
1.53642e-16
-5.24397e-17
-2.46384e-16
7.63606e-17
-6.68476e-17
-6.16362e-17
1.50885e-16
-5.14533e-17
-2.41878e-16
7.49984e-17
-6.55948e-17
-6.04834e-17
1.48218e-16
-5.0473e-17
-2.37455e-16
7.37006e-17
-6.44168e-17
-5.9387e-17
1.45575e-16
-4.95549e-17
-2.33177e-16
7.23975e-17
-6.32173e-17
-5.82817e-17
1.43038e-16
-4.86165e-17
-2.28966e-16
7.11593e-17
-6.20827e-17
-5.72178e-17
1.40535e-16
-4.77278e-17
-2.24888e-16
6.99167e-17
-6.09426e-17
-5.6172e-17
1.38114e-16
-4.68421e-17
-2.20877e-16
6.87359e-17
-5.98792e-17
-5.5183e-17
1.35705e-16
-4.60143e-17
-2.16999e-16
6.75485e-17
-5.87961e-17
-5.41868e-17
1.33391e-16
-4.5168e-17
-2.13178e-16
6.64192e-17
-5.77768e-17
-5.32421e-17
1.3109e-16
-4.43811e-17
-2.0949e-16
-5.678e-17
-5.23117e-17
1.28857e-16
-4.36053e-17
-2.05877e-16
-5.57672e-17
-5.1384e-17
1.26698e-16
-4.28189e-17
-2.02312e-16
-5.48177e-17
-5.05019e-17
1.24555e-16
-4.20821e-17
-1.98861e-16
-5.3848e-17
-4.96095e-17
1.22496e-16
-4.13246e-17
-1.95452e-16
-5.29342e-17
-4.87533e-17
1.20457e-16
-4.06111e-17
-1.92154e-16
-5.20055e-17
-4.79043e-17
1.18487e-16
-3.98943e-17
-1.88899e-16
-5.11417e-17
-4.71005e-17
1.16523e-16
-3.92262e-17
-1.85753e-16
-5.02537e-17
-4.62858e-17
1.14639e-16
-3.85366e-17
-1.82642e-16
-4.94258e-17
-4.55082e-17
1.12768e-16
-3.78884e-17
-1.79627e-16
-4.85775e-17
-4.47335e-17
1.10963e-16
-3.72335e-17
-1.76653e-16
-4.77899e-17
-4.40036e-17
1.09161e-16
-3.66292e-17
-1.73779e-16
-4.69787e-17
-4.32593e-17
1.07433e-16
-3.59999e-17
-1.70934e-16
-4.62169e-17
-4.2545e-17
1.05726e-16
-3.54042e-17
-1.68175e-16
-4.54404e-17
-4.18362e-17
1.04075e-16
-3.48036e-17
-1.65453e-16
-4.47231e-17
-4.11717e-17
1.02422e-16
-3.42548e-17
-1.62829e-16
-4.39803e-17
-4.04893e-17
1.00845e-16
-3.3679e-17
-1.60229e-16
-4.32843e-17
-3.98372e-17
9.92843e-17
-3.31368e-17
-1.57715e-16
-4.25733e-17
-3.91881e-17
9.77816e-17
-3.25891e-17
-1.55234e-16
-4.19233e-17
-3.85859e-17
9.62725e-17
-3.20917e-17
-1.52849e-16
-4.12479e-17
-3.79674e-17
9.48411e-17
-3.15674e-17
-1.50488e-16
-4.06192e-17
-3.7377e-17
9.34229e-17
-3.10797e-17
-1.48214e-16
)
;
    }
    wedge2
    {
        type            wedge;
        value           nonuniform List<scalar> 
344
(
-1.33651e-16
3.37068e-16
-1.11534e-16
-5.34752e-16
1.69218e-16
-1.3025e-16
3.28321e-16
-1.08708e-16
-5.20961e-16
1.64769e-16
-1.27007e-16
3.19903e-16
-1.06002e-16
-5.07727e-16
1.60489e-16
-1.23794e-16
3.11931e-16
-1.03297e-16
-4.9489e-16
1.56481e-16
-1.20799e-16
3.04139e-16
-1.00798e-16
-4.82659e-16
1.52535e-16
-1.17776e-16
2.9681e-16
-9.82423e-17
-4.70733e-16
1.4887e-16
-1.1498e-16
2.89599e-16
-9.59175e-17
-4.59399e-16
1.45211e-16
-1.12209e-16
2.82757e-16
-9.35893e-17
-4.48378e-16
1.41766e-16
-1.09641e-16
2.7603e-16
-9.14523e-17
-4.37864e-16
1.3836e-16
-1.07021e-16
2.69709e-16
-8.92365e-17
-4.27562e-16
1.35207e-16
-1.04602e-16
2.63462e-16
-8.72273e-17
-4.17761e-16
1.32039e-16
-1.02196e-16
2.5753e-16
-8.52042e-17
-4.082e-16
1.29058e-16
-9.9972e-17
2.5167e-16
-8.33551e-17
-3.9907e-16
1.26094e-16
-9.76761e-17
2.46174e-16
-8.1411e-17
-3.90082e-16
1.23363e-16
-9.5549e-17
2.40736e-16
-7.96371e-17
-3.81501e-16
1.20631e-16
-9.34294e-17
2.35555e-16
-7.78546e-17
-3.73126e-16
1.18038e-16
-9.13694e-17
2.30539e-16
-7.61167e-17
-3.65012e-16
1.15537e-16
-8.93744e-17
2.25679e-16
-7.44386e-17
-3.57154e-16
1.13114e-16
-8.74424e-17
2.20964e-16
-7.28103e-17
-3.49537e-16
1.10769e-16
-8.55738e-17
2.1639e-16
-7.12384e-17
-3.42162e-16
1.08489e-16
-8.37602e-17
2.11952e-16
-6.97147e-17
-3.35006e-16
1.0628e-16
-8.20021e-17
2.07643e-16
-6.82391e-17
-3.28068e-16
1.04132e-16
-8.02968e-17
2.03457e-16
-6.68086e-17
-3.21337e-16
1.02042e-16
-7.8639e-17
1.99396e-16
-6.54172e-17
-3.14796e-16
1.00018e-16
-7.70293e-17
1.95449e-16
-6.40658e-17
-3.08445e-16
9.80509e-17
-7.54663e-17
1.9161e-16
-6.27601e-17
-3.02281e-16
9.61305e-17
-7.40277e-17
1.87781e-16
-6.15899e-17
-2.96394e-16
9.41689e-17
-7.26562e-17
1.84042e-16
-6.0455e-17
-2.90671e-16
9.22607e-17
-7.12191e-17
1.80525e-16
-5.92491e-17
-2.84992e-16
9.04993e-17
-6.99163e-17
1.76983e-16
-5.81759e-17
-2.7957e-16
8.87038e-17
-6.85105e-17
1.73697e-16
-5.69832e-17
-2.74145e-16
8.70814e-17
-6.72503e-17
1.70359e-16
-5.59482e-17
-2.69002e-16
8.538e-17
-6.59538e-17
1.6721e-16
-5.48575e-17
-2.63896e-16
8.38046e-17
-6.47478e-17
1.64057e-16
-5.38618e-17
-2.58999e-16
8.22133e-17
-6.36044e-17
1.60957e-16
-5.29287e-17
-2.54264e-16
8.06165e-17
-6.24566e-17
1.57979e-16
-5.19763e-17
-2.49603e-16
7.91053e-17
-6.66387e-17
-6.13669e-17
1.55037e-16
-5.1084e-17
-2.45098e-16
7.75957e-17
-6.54519e-17
-6.02883e-17
1.52193e-16
-5.01902e-17
-2.40671e-16
7.61579e-17
-6.43257e-17
-5.92457e-17
1.49397e-16
-4.93365e-17
-2.3638e-16
7.47249e-17
-6.31822e-17
-5.82e-17
1.46709e-16
-4.84652e-17
-2.32158e-16
7.33637e-17
-6.21159e-17
-5.72146e-17
1.44043e-16
-4.76575e-17
-2.28074e-16
7.20022e-17
-6.10385e-17
-5.62376e-17
1.41468e-16
-4.68418e-17
-2.24055e-16
7.07073e-17
-6.00187e-17
-5.52906e-17
1.38931e-16
-4.60635e-17
-2.20162e-16
6.9411e-17
-5.89726e-17
-5.43336e-17
1.36498e-16
-4.52664e-17
-2.16321e-16
6.81796e-17
-5.79951e-17
-5.34289e-17
1.34083e-16
-4.45256e-17
-2.12603e-16
6.69467e-17
-5.70011e-17
-5.25166e-17
1.31765e-16
-4.37621e-17
-2.08927e-16
-5.60305e-17
-5.16322e-17
1.29483e-16
-4.30231e-17
-2.05346e-16
-5.51204e-17
-5.07864e-17
1.27231e-16
-4.23293e-17
-2.0188e-16
-5.41902e-17
-4.9935e-17
1.25062e-16
-4.16192e-17
-1.9846e-16
-5.33222e-17
-4.91325e-17
1.22906e-16
-4.09624e-17
-1.95153e-16
-5.24391e-17
-4.83317e-17
1.20824e-16
-4.02931e-17
-1.91883e-16
-5.16106e-17
-4.75602e-17
1.18763e-16
-3.96579e-17
-1.88718e-16
-5.07558e-17
-4.67793e-17
1.16787e-16
-3.90038e-17
-1.85585e-16
-4.99628e-17
-4.60441e-17
1.14816e-16
-3.84005e-17
-1.82557e-16
-4.91464e-17
-4.53057e-17
1.12918e-16
-3.77841e-17
-1.79567e-16
-4.83862e-17
-4.45976e-17
1.11035e-16
-3.72021e-17
-1.76669e-16
-4.76005e-17
-4.38769e-17
1.09231e-16
-3.65967e-17
-1.738e-16
-4.68725e-17
-4.32024e-17
1.07431e-16
-3.60429e-17
-1.71028e-16
-4.61288e-17
-4.2529e-17
1.05689e-16
-3.54816e-17
-1.68294e-16
-4.54331e-17
-4.18808e-17
1.03966e-16
-3.49507e-17
-1.65645e-16
-4.47106e-17
-4.12184e-17
1.02321e-16
-3.43935e-17
-1.63018e-16
-4.40459e-17
-4.06037e-17
1.00673e-16
-3.38882e-17
-1.60488e-16
-4.33664e-17
-3.99884e-17
9.9084e-17
-3.33742e-17
-1.57989e-16
-4.27337e-17
-3.93994e-17
9.75099e-17
-3.28904e-17
-1.55575e-16
-4.20719e-17
-3.87929e-17
9.60158e-17
-3.2381e-17
-1.53182e-16
-4.14673e-17
-3.82325e-17
9.45179e-17
-3.19235e-17
-1.50885e-16
-4.08484e-17
-3.76736e-17
9.30814e-17
-3.14544e-17
-1.4862e-16
)
;
    }
    axis
    {
        type            empty;
        value           nonuniform 0();
    }
    procBoundary25to19
    {
        type            processor;
        value           nonuniform List<scalar> 
68
(
1.83383e-06
1.80068e-06
1.76834e-06
1.73679e-06
1.70599e-06
1.67592e-06
1.64655e-06
1.61787e-06
1.58985e-06
1.56248e-06
1.53573e-06
1.50958e-06
1.48402e-06
1.45902e-06
1.43459e-06
1.41069e-06
1.38731e-06
1.36445e-06
1.34208e-06
1.3202e-06
1.2988e-06
1.27786e-06
1.25738e-06
1.23735e-06
1.21777e-06
1.19862e-06
1.17991e-06
1.16163e-06
1.14378e-06
1.12637e-06
1.1094e-06
3.74876e-06
3.65264e-06
3.5603e-06
3.47151e-06
3.38609e-06
3.30385e-06
3.22462e-06
3.14824e-06
3.07458e-06
3.00348e-06
2.93482e-06
2.86848e-06
2.80435e-06
2.74233e-06
2.68232e-06
2.62422e-06
2.56794e-06
2.51342e-06
2.46056e-06
2.4093e-06
2.35957e-06
2.3113e-06
2.26444e-06
2.21892e-06
2.1747e-06
2.13171e-06
2.08992e-06
2.04927e-06
2.00973e-06
1.97124e-06
1.93377e-06
1.89729e-06
1.86175e-06
1.82713e-06
1.79338e-06
-0.000135461
1.76049e-06
)
;
    }
    procBoundary25to24
    {
        type            processor;
        value           nonuniform List<scalar> 4(-0.000138666 -0.000135892 -0.000132697 -0.000129071);
    }
    procBoundary25to26
    {
        type            processor;
        value           nonuniform List<scalar> 5(0.000132898 0.000130206 0.000127168 0.000123778 0.000120026);
    }
    procBoundary25to30
    {
        type            processor;
        value           uniform -0.000125004;
    }
    procBoundary25to31
    {
        type            processor;
        value           nonuniform List<scalar> 
68
(
-1.08577e-06
-1.06711e-06
-1.04887e-06
-1.03104e-06
-1.01362e-06
-9.9658e-07
-9.79923e-07
-9.63636e-07
-9.47708e-07
-9.32132e-07
-9.16898e-07
-9.01999e-07
-8.87429e-07
-8.73181e-07
-8.5925e-07
-8.45633e-07
-8.32326e-07
-8.19326e-07
-8.06633e-07
-7.94247e-07
-7.82171e-07
-7.70408e-07
-2.5281e-06
-2.46253e-06
-2.39958e-06
-2.33908e-06
-2.28092e-06
-2.22495e-06
-2.17105e-06
-2.11913e-06
-2.06907e-06
-2.02077e-06
-1.97416e-06
-1.92914e-06
-1.88564e-06
-1.84358e-06
-1.80291e-06
-1.76354e-06
-1.72543e-06
-1.68851e-06
-1.65273e-06
-1.61805e-06
-1.58441e-06
-1.55178e-06
-1.5201e-06
-1.48935e-06
-1.45947e-06
-1.43044e-06
-1.40223e-06
-1.37479e-06
-1.34811e-06
-1.32215e-06
-1.29688e-06
-1.27228e-06
-1.24833e-06
-1.22499e-06
-1.20226e-06
-1.1801e-06
-1.1585e-06
-1.13744e-06
-1.11689e-06
-1.09685e-06
-1.07729e-06
-1.0582e-06
-1.03957e-06
-1.02137e-06
0.000117755
-1.0036e-06
)
;
    }
}


// ************************************************************************* //
