/*--------------------------------*- C++ -*----------------------------------*\
  =========                 |
  \\      /  F ield         | OpenFOAM: The Open Source CFD Toolbox
   \\    /   O peration     | Website:  https://openfoam.org
    \\  /    A nd           | Version:  7
     \\/     M anipulation  |
\*---------------------------------------------------------------------------*/
FoamFile
{
    version     2.0;
    format      ascii;
    class       surfaceScalarField;
    location    "9";
    object      phi;
}
// * * * * * * * * * * * * * * * * * * * * * * * * * * * * * * * * * * * * * //

dimensions      [0 3 -1 0 0 0 0];

internalField   nonuniform List<scalar> 
616
(
6.02663e-06
8.44527e-06
7.33344e-06
8.34927e-06
8.62302e-06
8.24547e-06
9.89466e-06
8.13511e-06
1.11478e-05
8.01929e-06
1.23819e-05
7.89899e-06
1.35966e-05
7.77508e-06
1.47917e-05
7.64833e-06
1.59669e-05
7.51944e-06
1.71221e-05
7.389e-06
1.82573e-05
7.25755e-06
1.93724e-05
7.12556e-06
2.04675e-05
6.99344e-06
2.15426e-05
6.86157e-06
2.2598e-05
6.73025e-06
2.36336e-05
6.59976e-06
2.46498e-05
6.47035e-06
2.56468e-05
6.34222e-06
2.66247e-05
6.21555e-06
2.75838e-05
6.0905e-06
2.85244e-05
5.96719e-06
2.94468e-05
5.84572e-06
3.03511e-05
5.7262e-06
3.12379e-05
5.60869e-06
3.21072e-05
5.49326e-06
3.29595e-05
5.37994e-06
3.37951e-05
5.26877e-06
3.46143e-05
5.15978e-06
3.54173e-05
5.05298e-06
4.94837e-06
-2.35033e-06
-1.06043e-05
-6.39405e-06
-2.30854e-05
-1.07539e-05
-2.76227e-05
-1.47102e-05
-2.71082e-05
-1.80367e-05
-2.41282e-05
-2.06941e-05
-2.02491e-05
-2.27307e-05
-1.63292e-05
-2.42211e-05
-1.27367e-05
-2.52434e-05
-9.59078e-06
-2.58693e-05
-6.89256e-06
-2.6161e-05
-4.59798e-06
-2.61715e-05
-2.65141e-06
-2.59448e-05
-9.99548e-07
-2.55183e-05
4.03851e-07
-2.4923e-05
1.5976e-06
-2.41852e-05
2.61364e-06
-2.33271e-05
3.47826e-06
-2.23677e-05
4.21315e-06
-2.13232e-05
4.83635e-06
-2.02077e-05
5.36298e-06
-1.90333e-05
5.80577e-06
-1.78104e-05
6.17557e-06
-1.65483e-05
6.48165e-06
-1.52549e-05
6.73199e-06
-1.39372e-05
6.93351e-06
-1.26013e-05
7.09222e-06
-1.12525e-05
7.21338e-06
-9.89556e-06
7.3016e-06
-8.53455e-06
7.36093e-06
-7.17308e-06
7.39494e-06
-5.81426e-06
7.40679e-06
-4.46084e-06
7.39927e-06
-3.11521e-06
7.37486e-06
-1.77943e-06
7.33576e-06
-4.55281e-07
7.28392e-06
8.55686e-07
7.22109e-06
2.15215e-06
7.1488e-06
3.433e-06
7.06843e-06
4.69728e-06
6.98119e-06
5.9442e-06
6.88819e-06
7.17311e-06
6.79038e-06
8.38348e-06
6.68862e-06
9.57489e-06
6.58367e-06
1.0747e-05
6.47621e-06
1.18996e-05
6.36683e-06
1.30325e-05
6.25607e-06
1.41457e-05
6.14439e-06
1.52391e-05
6.0322e-06
1.63126e-05
5.91987e-06
1.73665e-05
5.80771e-06
1.84007e-05
5.69599e-06
1.94155e-05
5.58497e-06
2.0411e-05
5.47485e-06
2.13874e-05
5.36581e-06
2.2345e-05
5.25801e-06
2.32839e-05
5.15158e-06
2.42045e-05
5.04663e-06
2.51069e-05
4.94326e-06
2.59916e-05
4.84154e-06
2.68588e-05
4.74154e-06
2.77087e-05
4.64331e-06
2.85417e-05
4.5469e-06
2.93582e-05
4.45232e-06
3.01584e-05
4.3596e-06
3.09426e-05
4.26875e-06
4.17978e-06
-2.19353e-06
-8.41073e-06
-6.15241e-06
-1.91265e-05
-1.05557e-05
-2.32195e-05
-1.4663e-05
-2.30008e-05
-1.81948e-05
-2.05964e-05
-2.10738e-05
-1.737e-05
-2.33273e-05
-1.40757e-05
-2.50211e-05
-1.10429e-05
-2.62304e-05
-8.3814e-06
-2.70274e-05
-6.09562e-06
-2.74755e-05
-4.14982e-06
-2.76293e-05
-2.49763e-06
-2.75346e-05
-1.09429e-06
-2.72298e-05
9.9104e-08
-2.67474e-05
1.11519e-06
-2.61146e-05
1.98086e-06
-2.53546e-05
2.71826e-06
-2.44872e-05
3.3457e-06
-2.35292e-05
3.87839e-06
-2.24953e-05
4.3291e-06
-2.13982e-05
4.70861e-06
-2.02487e-05
5.0261e-06
-1.90565e-05
5.28943e-06
-1.78299e-05
5.50536e-06
-1.65761e-05
5.67976e-06
-1.53016e-05
5.81774e-06
-1.4012e-05
5.92377e-06
-1.27122e-05
6.00176e-06
-1.14064e-05
6.05514e-06
-1.00984e-05
6.08698e-06
-8.79157e-06
6.09993e-06
-7.4887e-06
6.09639e-06
-6.1923e-06
6.07846e-06
-4.90456e-06
6.04802e-06
-3.62735e-06
6.00671e-06
-2.36229e-06
5.95603e-06
-1.11079e-06
5.89729e-06
1.25992e-07
5.83165e-06
1.34703e-06
5.76015e-06
2.5515e-06
5.68372e-06
3.73869e-06
5.60319e-06
4.90805e-06
5.51927e-06
6.0591e-06
5.43261e-06
7.19152e-06
5.3438e-06
8.30502e-06
5.25333e-06
9.39943e-06
5.16166e-06
1.04746e-05
5.06918e-06
1.15306e-05
4.97625e-06
1.25673e-05
4.88317e-06
1.35848e-05
4.79021e-06
1.45832e-05
4.6976e-06
1.55626e-05
4.60555e-06
1.65232e-05
4.51424e-06
1.74652e-05
4.42381e-06
1.83888e-05
4.33442e-06
1.92942e-05
4.24615e-06
2.01817e-05
4.15912e-06
2.10516e-05
4.0734e-06
2.19041e-05
3.98906e-06
2.27395e-05
3.90615e-06
2.35581e-05
3.82471e-06
2.43602e-05
3.74478e-06
2.51461e-05
3.66638e-06
2.59162e-05
3.58953e-06
2.66707e-05
3.51424e-06
3.44052e-06
-2.00842e-06
-6.40231e-06
-5.79936e-06
-1.53356e-05
-1.01329e-05
-1.88859e-05
-1.42684e-05
-1.88653e-05
-1.78873e-05
-1.69775e-05
-2.08826e-05
-1.43747e-05
-2.32634e-05
-1.16949e-05
-2.50864e-05
-9.22001e-06
-2.64229e-05
-7.04488e-06
-2.73434e-05
-5.17511e-06
-2.79111e-05
-3.58214e-06
-2.81803e-05
-2.22837e-06
-2.81972e-05
-1.07745e-06
-2.80003e-05
-9.77664e-08
-2.76223e-05
7.37179e-07
-2.70907e-05
1.44923e-06
-2.64288e-05
2.05638e-06
-2.56566e-05
2.57352e-06
-2.47913e-05
3.01306e-06
-2.38476e-05
3.38539e-06
-2.28383e-05
3.69932e-06
-2.17745e-05
3.96235e-06
-2.0666e-05
4.1809e-06
-1.95212e-05
4.36053e-06
-1.83474e-05
4.50603e-06
-1.71513e-05
4.6216e-06
-1.59384e-05
4.7109e-06
-1.47138e-05
4.77714e-06
-1.34818e-05
4.82315e-06
-1.22463e-05
4.85143e-06
-1.10105e-05
4.86418e-06
-9.77749e-06
4.86336e-06
-8.54972e-06
4.8507e-06
-7.32943e-06
4.82773e-06
-6.11854e-06
4.79582e-06
-4.91871e-06
4.7562e-06
-3.73135e-06
4.70993e-06
-2.55768e-06
4.65798e-06
-1.39873e-06
4.6012e-06
-2.55366e-07
4.54036e-06
8.71697e-07
4.47612e-06
1.98187e-06
4.40909e-06
3.07468e-06
4.3398e-06
4.14976e-06
4.26872e-06
5.20683e-06
4.19626e-06
6.24569e-06
4.1228e-06
7.26622e-06
4.04866e-06
8.26834e-06
3.97412e-06
9.25206e-06
3.89945e-06
1.02174e-05
3.82485e-06
1.11645e-05
3.75053e-06
1.20934e-05
3.67665e-06
1.30043e-05
3.60335e-06
1.38973e-05
3.53077e-06
1.47727e-05
3.45901e-06
1.56307e-05
3.38815e-06
1.64715e-05
3.31829e-06
1.72955e-05
3.24948e-06
1.81027e-05
3.18179e-06
1.88936e-05
3.11524e-06
1.96685e-05
3.04989e-06
2.04275e-05
2.98575e-06
2.1171e-05
2.92284e-06
2.18994e-05
2.86119e-06
2.26128e-05
2.8008e-06
2.74167e-06
-1.79074e-06
-4.61157e-06
-5.33401e-06
-1.17923e-05
-9.48809e-06
-1.47319e-05
-1.35288e-05
-1.48247e-05
-1.71141e-05
-1.33922e-05
-2.01159e-05
-1.13729e-05
-2.25291e-05
-9.28164e-06
-2.4402e-05
-7.34714e-06
-2.5801e-05
-5.64587e-06
-2.67934e-05
-4.18274e-06
-2.744e-05
-2.93547e-06
-2.77938e-05
-1.87464e-06
-2.78993e-05
-9.71947e-07
-2.77942e-05
-2.02811e-07
-2.75104e-05
4.53352e-07
-2.70747e-05
1.01349e-06
-2.65099e-05
1.49159e-06
-2.58356e-05
1.89923e-06
-2.50686e-05
2.24605e-06
-2.42233e-05
2.54017e-06
-2.33125e-05
2.78846e-06
-2.23469e-05
2.99678e-06
-2.13362e-05
3.17015e-06
-2.02886e-05
3.31294e-06
-1.92114e-05
3.42889e-06
-1.81111e-05
3.52131e-06
-1.69933e-05
3.59305e-06
-1.58628e-05
3.64665e-06
-1.4724e-05
3.68434e-06
-1.35806e-05
3.70806e-06
-1.2436e-05
3.71956e-06
-1.1293e-05
3.72037e-06
-1.01542e-05
3.71186e-06
-9.02168e-06
3.69523e-06
-7.89742e-06
3.67157e-06
-6.78305e-06
3.64182e-06
-5.67996e-06
3.60684e-06
-4.58936e-06
3.56738e-06
-3.51227e-06
3.52412e-06
-2.44956e-06
3.47764e-06
-1.40193e-06
3.42849e-06
-3.6997e-07
3.37714e-06
6.45839e-07
3.32399e-06
1.64513e-06
3.26943e-06
2.62762e-06
3.21377e-06
3.5931e-06
3.15732e-06
4.54144e-06
3.10032e-06
5.47256e-06
3.043e-06
6.38645e-06
2.98556e-06
7.28314e-06
2.92817e-06
8.1627e-06
9.02522e-06
9.87086e-06
1.06998e-05
1.15122e-05
1.23082e-05
1.30882e-05
1.38523e-05
1.46008e-05
1.53339e-05
1.6052e-05
1.67553e-05
1.74441e-05
1.81186e-05
1.87791e-05
-1.53761e-06
-4.75606e-06
-8.62219e-06
-1.24438e-05
-1.5871e-05
-1.87649e-05
-2.11109e-05
-2.29499e-05
-2.43426e-05
-2.53515e-05
-2.60335e-05
-2.6438e-05
-2.66069e-05
-2.65758e-05
-2.63744e-05
-2.60282e-05
-2.55586e-05
-2.49842e-05
-2.43208e-05
-2.35823e-05
-2.27805e-05
-2.19257e-05
-2.10272e-05
-2.00928e-05
-1.91294e-05
-1.81431e-05
-1.71392e-05
-1.61226e-05
-1.50971e-05
-1.40666e-05
-1.3034e-05
-1.20021e-05
-1.09735e-05
-9.95005e-06
-8.93368e-06
-7.92594e-06
-6.92817e-06
-5.94152e-06
-4.96696e-06
-4.00533e-06
-3.05732e-06
-2.12347e-06
-1.20426e-06
-3.00034e-07
5.8892e-07
1.46241e-06
2.32029e-06
3.16249e-06
3.98899e-06
)
;

boundaryField
{
    inlet
    {
        type            calculated;
        value           nonuniform 0();
    }
    outlet
    {
        type            calculated;
        value           nonuniform 0();
    }
    wall
    {
        type            calculated;
        value           uniform 0;
    }
    wedge1
    {
        type            wedge;
        value           nonuniform List<scalar> 
344
(
6.45921e-16
5.15465e-16
3.97834e-16
8.88914e-16
-1.37947e-15
1.40466e-15
1.16292e-15
9.35513e-16
2.19474e-15
-3.61824e-15
1.67806e-15
1.40953e-15
1.15017e-15
2.73688e-15
-4.57712e-15
1.64331e-15
1.39376e-15
1.1473e-15
2.75147e-15
-4.63305e-15
1.45964e-15
1.24614e-15
1.03152e-15
2.48509e-15
-4.19867e-15
1.22233e-15
1.04916e-15
8.72357e-16
2.10911e-15
-3.57264e-15
9.83016e-16
8.48249e-16
7.08437e-16
1.71896e-15
-2.9199e-15
7.63872e-16
6.6333e-16
5.56965e-16
1.35748e-15
-2.31445e-15
5.72032e-16
5.01039e-16
4.23775e-16
1.03926e-15
-1.78124e-15
4.07525e-16
3.61669e-16
3.09267e-16
7.6547e-16
-1.32226e-15
2.67655e-16
2.43046e-16
2.11719e-16
5.3209e-16
-9.30778e-16
1.49028e-16
1.42347e-16
1.28838e-16
3.33692e-16
-5.97814e-16
4.84076e-17
5.68537e-17
5.84096e-17
1.65022e-16
-3.14636e-16
-3.71054e-17
-1.58294e-17
-1.50037e-18
2.15486e-17
-7.38509e-17
-1.09866e-16
-7.77513e-17
-5.25902e-17
-1.01161e-16
1.3225e-16
-1.71751e-16
-1.30472e-16
-9.6136e-17
-2.05877e-16
3.08672e-16
-2.24378e-16
-1.75353e-16
-1.33244e-16
-2.95177e-16
4.59212e-16
-2.69077e-16
-2.13512e-16
-1.64827e-16
-3.71253e-16
5.87582e-16
-3.06956e-16
-2.45888e-16
-1.91653e-16
-4.35936e-16
6.96828e-16
-3.38945e-16
-2.73265e-16
-2.14366e-16
-4.90753e-16
7.89501e-16
-3.65818e-16
-2.96298e-16
-2.33502e-16
-5.36992e-16
8.67762e-16
-3.88237e-16
-3.15549e-16
-2.4952e-16
-5.75755e-16
9.33451e-16
-4.06766e-16
-3.31493e-16
-2.62812e-16
-6.0798e-16
9.88153e-16
-4.21895e-16
-3.44547e-16
-2.73721e-16
-6.34484e-16
1.03323e-15
-4.34049e-16
-3.55073e-16
-2.82545e-16
-6.55975e-16
1.06986e-15
-4.43592e-16
-3.63377e-16
-2.89536e-16
-6.73066e-16
1.09908e-15
-4.50842e-16
-3.69731e-16
-2.94917e-16
-6.86291e-16
1.1218e-15
-4.56083e-16
-3.74375e-16
-2.98887e-16
-6.96126e-16
1.13881e-15
-4.59564e-16
-3.77523e-16
-3.01622e-16
-7.02987e-16
1.1508e-15
-4.61501e-16
-3.79356e-16
-3.03271e-16
-7.0724e-16
1.1584e-15
-4.62083e-16
-3.80036e-16
-3.03968e-16
-7.09206e-16
1.16215e-15
-4.61485e-16
-3.79711e-16
-3.03833e-16
-7.09176e-16
1.16254e-15
-4.59859e-16
-3.7851e-16
-3.02977e-16
-7.07404e-16
1.15999e-15
-4.57336e-16
-3.76547e-16
-3.0149e-16
-7.04117e-16
1.15488e-15
-4.54035e-16
-3.7392e-16
-2.99454e-16
-6.99512e-16
1.14755e-15
-4.50064e-16
-3.70721e-16
-2.96946e-16
-6.93771e-16
1.13831e-15
-1.59793e-15
-4.45517e-16
-3.67032e-16
-2.94033e-16
-6.87053e-16
1.12742e-15
-1.57965e-15
-4.40478e-16
-3.62924e-16
-2.90773e-16
-6.79498e-16
1.11512e-15
-1.55993e-15
-4.3502e-16
-3.58457e-16
-2.87216e-16
-6.71232e-16
1.10162e-15
-1.539e-15
-4.2921e-16
-3.5369e-16
-2.8341e-16
-6.62367e-16
1.08711e-15
-1.51706e-15
-4.23109e-16
-3.48674e-16
-2.79398e-16
-6.53002e-16
1.07175e-15
-1.49429e-15
-4.16767e-16
-3.43452e-16
-2.75215e-16
-6.43226e-16
1.0557e-15
-1.47086e-15
-4.1023e-16
-3.38063e-16
-2.70893e-16
-6.33115e-16
1.03908e-15
-1.44691e-15
-4.03541e-16
-3.32543e-16
-2.66462e-16
-6.2274e-16
1.02202e-15
-1.42256e-15
-3.96737e-16
-3.26923e-16
-2.61948e-16
-6.12162e-16
1.00461e-15
-1.39793e-15
-3.89849e-16
-3.21231e-16
-2.57373e-16
-6.01436e-16
9.86948e-16
-1.37312e-15
-3.82906e-16
-3.1549e-16
-2.52757e-16
-5.90609e-16
9.69113e-16
-1.34821e-15
-3.75933e-16
-3.09722e-16
-2.48117e-16
-5.79723e-16
9.51177e-16
-1.32328e-15
-3.68953e-16
-3.03945e-16
-2.4347e-16
-5.68815e-16
9.33201e-16
-1.2984e-15
-3.61984e-16
-2.98177e-16
-2.38827e-16
-5.57918e-16
9.15239e-16
-1.27364e-15
-3.55044e-16
-2.92432e-16
-2.34203e-16
-5.47061e-16
-1.24903e-15
-3.48147e-16
-2.86721e-16
-2.29605e-16
-5.36267e-16
-1.22462e-15
-3.41307e-16
-2.81057e-16
-2.25045e-16
-5.25559e-16
-1.20046e-15
-3.34533e-16
-2.75448e-16
-2.20529e-16
-5.14954e-16
-1.17657e-15
-3.27837e-16
-2.69902e-16
-2.16063e-16
-5.04469e-16
-1.15299e-15
-3.21226e-16
-2.64428e-16
-2.11655e-16
-4.94118e-16
-1.12973e-15
-3.14708e-16
-2.59029e-16
-2.07309e-16
-4.83911e-16
-1.10683e-15
-3.08286e-16
-2.53711e-16
-2.03027e-16
-4.73858e-16
-1.08429e-15
-3.01968e-16
-2.48478e-16
-1.98814e-16
-4.63967e-16
-1.06212e-15
-2.95756e-16
-2.43335e-16
-1.94673e-16
-4.54245e-16
-1.04035e-15
-2.89654e-16
-2.38282e-16
-1.90606e-16
-4.44697e-16
-1.01898e-15
-2.83663e-16
-2.33322e-16
-1.86613e-16
-4.35327e-16
-9.98007e-16
-2.77786e-16
-2.28457e-16
-1.82697e-16
-4.26137e-16
-9.77446e-16
-2.72024e-16
-2.23687e-16
-1.7886e-16
-4.17131e-16
-9.57296e-16
-2.66379e-16
-2.19015e-16
-1.75099e-16
-4.08309e-16
-9.3756e-16
-2.6085e-16
-2.14439e-16
-1.71418e-16
-3.99672e-16
)
;
    }
    wedge2
    {
        type            wedge;
        value           nonuniform List<scalar> 
344
(
6.45919e-16
5.15466e-16
3.97836e-16
8.88917e-16
-1.37947e-15
1.40465e-15
1.16291e-15
9.35503e-16
2.19473e-15
-3.61825e-15
1.67803e-15
1.40951e-15
1.15015e-15
2.73686e-15
-4.57714e-15
1.64328e-15
1.39373e-15
1.14727e-15
2.75145e-15
-4.63307e-15
1.4596e-15
1.24611e-15
1.0315e-15
2.48507e-15
-4.19869e-15
1.22228e-15
1.04912e-15
8.72316e-16
2.10907e-15
-3.57267e-15
9.82951e-16
8.4819e-16
7.08384e-16
1.71892e-15
-2.91994e-15
7.63806e-16
6.63272e-16
5.56915e-16
1.35744e-15
-2.31448e-15
5.71963e-16
5.00981e-16
4.23725e-16
1.03921e-15
-1.78128e-15
4.07444e-16
3.61597e-16
3.09205e-16
7.65416e-16
-1.32231e-15
2.67563e-16
2.42964e-16
2.11646e-16
5.32029e-16
-9.30829e-16
1.48938e-16
1.42267e-16
1.28768e-16
3.33632e-16
-5.97865e-16
4.8315e-17
5.67734e-17
5.83399e-17
1.64963e-16
-3.14686e-16
-3.72061e-17
-1.59192e-17
-1.57903e-18
2.14811e-17
-7.39078e-17
-1.09976e-16
-7.78495e-17
-5.2677e-17
-1.01235e-16
1.32189e-16
-1.71859e-16
-1.30569e-16
-9.62205e-17
-2.0595e-16
3.0861e-16
-2.24487e-16
-1.75448e-16
-1.33327e-16
-2.95247e-16
4.59152e-16
-2.69192e-16
-2.13615e-16
-1.64917e-16
-3.71331e-16
5.87517e-16
-3.0708e-16
-2.45998e-16
-1.91751e-16
-4.36018e-16
6.96759e-16
-3.39067e-16
-2.73373e-16
-2.14461e-16
-4.90834e-16
7.89432e-16
-3.65939e-16
-2.96405e-16
-2.33595e-16
-5.37073e-16
8.67694e-16
-3.88357e-16
-3.15654e-16
-2.49611e-16
-5.75833e-16
9.33385e-16
-4.06889e-16
-3.31602e-16
-2.62908e-16
-6.08062e-16
9.88084e-16
-4.22023e-16
-3.4466e-16
-2.73821e-16
-6.34569e-16
1.03316e-15
-4.34174e-16
-3.55183e-16
-2.82642e-16
-6.56058e-16
1.06979e-15
-4.43715e-16
-3.63485e-16
-2.89631e-16
-6.73146e-16
1.09901e-15
-4.50968e-16
-3.69843e-16
-2.95015e-16
-6.86375e-16
1.12173e-15
-4.56211e-16
-3.74489e-16
-2.98987e-16
-6.96211e-16
1.13874e-15
-4.59689e-16
-3.77634e-16
-3.01719e-16
-7.03071e-16
1.15073e-15
-4.61624e-16
-3.79465e-16
-3.03366e-16
-7.07321e-16
1.15833e-15
-4.62209e-16
-3.80147e-16
-3.04065e-16
-7.0929e-16
1.16208e-15
-4.61612e-16
-3.79824e-16
-3.03933e-16
-7.09261e-16
1.16247e-15
-4.59983e-16
-3.78621e-16
-3.03074e-16
-7.07487e-16
1.15992e-15
-4.57459e-16
-3.76655e-16
-3.01585e-16
-7.04198e-16
1.15481e-15
-4.54158e-16
-3.74029e-16
-2.9955e-16
-6.99594e-16
1.14748e-15
-4.50188e-16
-3.70831e-16
-2.97043e-16
-6.93854e-16
1.13824e-15
-1.59807e-15
-4.45639e-16
-3.67141e-16
-2.94128e-16
-6.87134e-16
1.12735e-15
-1.57979e-15
-4.40598e-16
-3.6303e-16
-2.90866e-16
-6.79578e-16
1.11505e-15
-1.56006e-15
-4.35139e-16
-3.58563e-16
-2.87309e-16
-6.71312e-16
1.10155e-15
-1.53913e-15
-4.2933e-16
-3.53796e-16
-2.83503e-16
-6.62447e-16
1.08704e-15
-1.51719e-15
-4.23226e-16
-3.48778e-16
-2.79489e-16
-6.53081e-16
1.07168e-15
-1.49442e-15
-4.16882e-16
-3.43554e-16
-2.75305e-16
-6.43303e-16
1.05563e-15
-1.47099e-15
-4.10345e-16
-3.38165e-16
-2.70983e-16
-6.33192e-16
1.03902e-15
-1.44703e-15
-4.03656e-16
-3.32644e-16
-2.66552e-16
-6.22817e-16
1.02195e-15
-1.42268e-15
-3.9685e-16
-3.27023e-16
-2.62036e-16
-6.12238e-16
1.00455e-15
-1.39805e-15
-3.89961e-16
-3.21329e-16
-2.5746e-16
-6.01511e-16
9.86885e-16
-1.37324e-15
-3.83016e-16
-3.15587e-16
-2.52843e-16
-5.90682e-16
9.69051e-16
-1.34833e-15
-3.76042e-16
-3.09818e-16
-2.48202e-16
-5.79796e-16
9.51116e-16
-1.3234e-15
-3.6906e-16
-3.04041e-16
-2.43553e-16
-5.68887e-16
9.3314e-16
-1.29852e-15
-3.6209e-16
-2.98271e-16
-2.3891e-16
-5.5799e-16
9.15179e-16
-1.27375e-15
-3.55148e-16
-2.92524e-16
-2.34284e-16
-5.47131e-16
-1.24914e-15
-3.48249e-16
-2.86813e-16
-2.29685e-16
-5.36336e-16
-1.22473e-15
-3.41407e-16
-2.81147e-16
-2.25124e-16
-5.25627e-16
-1.20057e-15
-3.34633e-16
-2.75537e-16
-2.20607e-16
-5.15021e-16
-1.17668e-15
-3.27936e-16
-2.6999e-16
-2.1614e-16
-5.04536e-16
-1.15309e-15
-3.21323e-16
-2.64514e-16
-2.11731e-16
-4.94183e-16
-1.12984e-15
-3.14802e-16
-2.59113e-16
-2.07382e-16
-4.83974e-16
-1.10693e-15
-3.0838e-16
-2.53794e-16
-2.031e-16
-4.73921e-16
-1.08439e-15
-3.0206e-16
-2.48561e-16
-1.98886e-16
-4.64029e-16
-1.06222e-15
-2.95846e-16
-2.43415e-16
-1.94744e-16
-4.54306e-16
-1.04045e-15
-2.89742e-16
-2.38361e-16
-1.90675e-16
-4.44757e-16
-1.01907e-15
-2.8375e-16
-2.334e-16
-1.86682e-16
-4.35386e-16
-9.98103e-16
-2.77873e-16
-2.28534e-16
-1.82766e-16
-4.26196e-16
-9.77541e-16
-2.7211e-16
-2.23764e-16
-1.78927e-16
-4.17189e-16
-9.5739e-16
-2.66463e-16
-2.19091e-16
-1.75166e-16
-4.08366e-16
-9.37651e-16
-2.60933e-16
-2.14513e-16
-1.71484e-16
-3.99728e-16
)
;
    }
    axis
    {
        type            empty;
        value           nonuniform 0();
    }
    procBoundary39to33
    {
        type            processor;
        value           nonuniform List<scalar> 
67
(
-9.76844e-06
-9.65608e-06
-9.53506e-06
-9.40675e-06
-9.2724e-06
-9.13309e-06
-8.9898e-06
-8.8434e-06
-8.69464e-06
-8.54422e-06
-8.39272e-06
-8.24067e-06
-8.08853e-06
-7.93672e-06
-7.78559e-06
-7.63545e-06
-7.48656e-06
-7.33916e-06
-7.19346e-06
-7.04962e-06
-6.90778e-06
-6.76807e-06
-6.63059e-06
-6.49542e-06
-6.36262e-06
-6.23225e-06
-6.10435e-06
-5.97893e-06
-5.85602e-06
-5.73562e-06
1.29546e-05
2.71291e-05
3.19826e-05
3.10645e-05
2.74547e-05
2.29065e-05
1.83657e-05
1.4227e-05
1.06131e-05
7.51846e-06
4.88973e-06
2.66183e-06
7.72937e-07
-8.30372e-07
-2.1929e-06
-3.35147e-06
-4.33636e-06
-5.17255e-06
-5.88081e-06
-6.47848e-06
-6.98021e-06
-7.39843e-06
-7.74377e-06
-8.0254e-06
-8.25123e-06
-8.42814e-06
-8.56215e-06
-8.65854e-06
-8.72193e-06
-8.75642e-06
-8.7656e-06
-8.75268e-06
-8.72049e-06
-8.67154e-06
-8.60807e-06
-4.70346e-06
-8.53205e-06
)
;
    }
    procBoundary39to34
    {
        type            processor;
        value           uniform 3.62046e-05;
    }
    procBoundary39to40
    {
        type            processor;
        value           nonuniform List<scalar> 4(3.17112e-05 2.741e-05 2.33116e-05 1.94261e-05);
    }
    procBoundary39to45
    {
        type            processor;
        value           nonuniform List<scalar> 
67
(
2.87098e-06
2.81412e-06
2.75771e-06
2.70185e-06
2.64662e-06
2.59209e-06
2.53833e-06
2.48538e-06
2.43329e-06
2.38209e-06
2.33181e-06
2.28247e-06
2.23409e-06
2.18667e-06
2.14023e-06
2.09476e-06
-3.07396e-06
-8.57383e-06
-1.08657e-05
-1.10031e-05
-9.96496e-06
-8.47896e-06
-6.93565e-06
-5.50813e-06
-4.25315e-06
-3.17388e-06
-2.2535e-06
-1.47016e-06
-8.02982e-07
-2.33953e-07
2.51989e-07
6.67239e-07
1.02202e-06
1.32482e-06
1.58269e-06
1.80161e-06
1.98663e-06
2.14206e-06
2.27161e-06
2.37849e-06
2.46549e-06
2.53502e-06
2.58923e-06
2.62997e-06
2.65891e-06
2.67748e-06
2.68698e-06
2.68855e-06
2.68319e-06
2.67181e-06
2.6552e-06
2.63408e-06
2.60907e-06
2.58073e-06
2.54956e-06
2.51601e-06
2.48047e-06
2.44329e-06
2.40478e-06
2.3652e-06
2.32482e-06
2.28383e-06
2.24244e-06
2.2008e-06
2.15906e-06
4.79981e-06
2.11735e-06
)
;
    }
}


// ************************************************************************* //
