/*--------------------------------*- C++ -*----------------------------------*\
  =========                 |
  \\      /  F ield         | OpenFOAM: The Open Source CFD Toolbox
   \\    /   O peration     | Website:  https://openfoam.org
    \\  /    A nd           | Version:  7
     \\/     M anipulation  |
\*---------------------------------------------------------------------------*/
FoamFile
{
    version     2.0;
    format      ascii;
    class       volVectorField;
    location    "16";
    object      U;
}
// * * * * * * * * * * * * * * * * * * * * * * * * * * * * * * * * * * * * * //

dimensions      [0 1 -1 0 0 0 0];

internalField   nonuniform List<vector> 
433
(
(-0.0353229 0.000946931 5.5552e-21)
(-0.0364087 0.000872454 -6.8735e-21)
(-0.0374272 0.000805009 2.31082e-21)
(-0.038385 0.000746498 1.94385e-22)
(-0.0392893 0.000698566 1.27101e-22)
(-0.040148 0.000663177 -2.88409e-21)
(-0.0410043 0.00064275 5.58831e-21)
(-0.0239005 0.0046289 -5.85028e-21)
(-0.0253568 0.00444042 3.26798e-21)
(-0.0267757 0.00423154 -6.2201e-21)
(-0.0281469 0.00400585 -6.02902e-21)
(-0.029461 0.0037675 -1.67619e-21)
(-0.0307098 0.00352117 -5.64589e-21)
(-0.0318867 0.00327207 3.37044e-21)
(-0.0329871 0.00302588 -8.97865e-22)
(-0.0340088 0.00278868 7.06768e-21)
(-0.0349525 0.00256676 -1.60524e-20)
(-0.0358222 0.00236642 1.21419e-20)
(-0.0366252 0.00219348 -4.40094e-21)
(-0.0373683 0.00205308 1.38963e-21)
(-0.038057 0.00195149 2.57085e-21)
(-0.0387438 0.00189575 -1.46022e-20)
(-0.0230113 0.00753525 1.29649e-21)
(-0.0242986 0.00721989 1.5657e-20)
(-0.0255346 0.00687102 -1.6629e-20)
(-0.0267089 0.00649466 1.22328e-20)
(-0.0278116 0.00609775 6.22044e-21)
(-0.0288344 0.00568817 9.7001e-21)
(-0.0297706 0.00527472 -1.61804e-21)
(-0.0306156 0.00486699 -1.72219e-20)
(-0.0313673 0.00447529 -1.03132e-20)
(-0.0320269 0.00411038 9.58552e-21)
(-0.0325991 0.00378305 7.89364e-21)
(-0.0330927 0.00350336 3.09853e-20)
(-0.0335137 0.00328052 -2.41529e-20)
(-0.0338624 0.00312627 4.41936e-20)
(-0.0342102 0.00305188 -3.89065e-20)
(-0.0226762 0.00973291 -2.07938e-20)
(-0.023638 0.009243 -2.47591e-20)
(-0.0245168 0.00871567 -1.99298e-20)
(-0.0253026 0.00816072 2.96657e-20)
(-0.0259866 0.00758932 -5.35111e-20)
(-0.026562 0.00701397 4.46837e-20)
(-0.0270241 0.00644842 -2.35713e-20)
(-0.0273714 0.00590748 1.00721e-20)
(-0.0276051 0.00540673 1.03202e-20)
(-0.0277316 0.0049619 -3.90585e-21)
(-0.0277614 0.00458782 4.067e-20)
(-0.0277001 0.00429863 -1.46072e-20)
(-0.0275392 0.0041134 -5.44564e-20)
(-0.0273777 0.00404759 4.92367e-20)
(-0.0204473 0.0118825 7.20174e-21)
(-0.0210432 0.0112502 -4.41013e-20)
(-0.0215283 0.0105716 9.19991e-21)
(-0.0218917 0.00985932 4.60936e-21)
(-0.0221244 0.009128 -1.07102e-20)
(-0.0222191 0.00839403 2.25173e-21)
(-0.0221715 0.00767557 9.07463e-21)
(-0.0219798 0.00699234 1.32059e-21)
(-0.0216465 0.00636526 3.58071e-20)
(-0.0211793 0.00581556 -2.04767e-20)
(-0.020592 0.00536343 -2.7855e-20)
(-0.0198892 0.00502889 1.4375e-20)
(-0.0190497 0.0048405 1.219e-20)
(-0.0182036 0.00481722 -3.35206e-20)
(-0.0175548 0.0135813 -3.27285e-20)
(-0.0176933 0.0128053 5.31429e-20)
(-0.0176861 0.0119751 -3.50898e-20)
(-0.017522 0.0111065 7.89419e-21)
(-0.017191 0.0102177 4.57973e-20)
(-0.0166857 0.00932902 -2.9882e-20)
(-0.0160014 0.00846356 5.83588e-20)
(-0.0151371 0.00764645 -1.81775e-20)
(-0.0140958 0.00690464 -3.04385e-20)
(-0.0128878 0.00626578 -7.31959e-21)
(-0.0115309 0.0057563 1.20927e-20)
(-0.0100305 0.00540379 -7.57203e-20)
(-0.00834963 0.00525032 -1.40806e-20)
(-0.00664799 0.00531439 1.32746e-20)
(-0.0135158 0.0138338 -9.89642e-21)
(-0.0129181 0.0128522 8.41385e-21)
(-0.0121212 0.0118287 -1.4391e-20)
(-0.0111146 0.010785 4.30848e-21)
(-0.00989002 0.00974614 -1.22906e-20)
(-0.00844275 0.00874018 3.99199e-20)
(-0.00677186 0.00779838 -3.64761e-20)
(-0.00488163 0.00695471 -3.3878e-20)
(-0.00278471 0.00624441 7.07264e-20)
(-0.000503878 0.00570158 -6.81358e-20)
(0.00195554 0.00536428 6.09202e-20)
(0.00464515 0.00529295 1.73774e-20)
(0.00734888 0.00549614 3.6982e-20)
(-0.00842294 0.0142772 5.60873e-20)
(-0.00713627 0.0131451 -4.03554e-20)
(-0.00560181 0.0119688 -7.10938e-20)
(-0.00380789 0.0107737 5.89407e-21)
(-0.00174554 0.0095894 1.29494e-19)
(0.000590571 0.00844954 -6.97575e-20)
(0.00320123 0.00739216 4.9529e-20)
(0.00608112 0.00645929 2.39026e-20)
(0.00921447 0.00569518 -9.35913e-20)
(0.0125732 0.00514358 5.23587e-20)
(0.0161523 0.00485635 9.51543e-21)
(0.0200171 0.00491683 -8.19598e-20)
(0.023874 0.00532015 4.95437e-20)
(-0.000236969 0.0128162 6.54435e-20)
(0.00213966 0.0114906 -1.64803e-19)
(0.0048318 0.0101486 5.94967e-20)
(0.00784963 0.00882424 1.11124e-22)
(0.0111993 0.00755716 4.40732e-20)
(0.0148819 0.00639278 1.24984e-20)
(0.0188911 0.00538238 7.0219e-20)
(0.0232079 0.00458102 2.70487e-20)
(0.0277978 0.00404477 -5.23684e-20)
(0.0326548 0.00384345 1.08154e-20)
(0.0378589 0.00409117 -5.31597e-20)
(0.0430314 0.00477198 4.07932e-20)
(0.0112229 0.0103825 4.02171e-20)
(0.0149233 0.0089001 -1.11523e-20)
(0.019013 0.00744253 -2.92362e-20)
(0.0234994 0.0060553 2.74389e-20)
(0.0283842 0.00479179 -1.06758e-19)
(0.033661 0.00371363 -2.7371e-20)
(0.0393073 0.00288873 -4.93197e-20)
(0.0452816 0.00238849 3.95674e-20)
(0.0515759 0.0023065 -7.95824e-20)
(0.0582863 0.00279917 7.1156e-21)
(0.0649387 0.00384086 2.69905e-20)
(0.0217841 0.00866156 -2.50976e-20)
(0.0266018 0.00704889 7.09689e-20)
(0.0318778 0.00546762 7.7339e-21)
(0.0376217 0.00396875 6.09933e-20)
(0.0438367 0.00261357 -5.51986e-20)
(0.0505166 0.00147487 8.25444e-20)
(0.0576367 0.000635209 -6.42472e-20)
(0.0651481 0.000184669 1.81292e-20)
(0.0730406 0.000247618 9.30467e-20)
(0.0814283 0.00103682 -1.17054e-19)
(0.0897281 0.00251927 1.31196e-20)
(0.0400189 0.00464955 -1.18421e-20)
(0.0465934 0.00295947 -8.4337e-20)
(0.0537122 0.00136107 1.10144e-19)
(0.0613811 -7.72022e-05 -2.92523e-20)
(0.0695959 -0.00127148 8.94627e-21)
(0.0783305 -0.00212339 -2.14187e-20)
(0.0875296 -0.00252106 -1.30737e-19)
(0.0971819 -0.00230147 9.20573e-20)
(0.107422 -0.00117833 8.6032e-21)
(0.117543 0.000812799 -5.8182e-20)
(0.0633252 1.8684e-05 3.20251e-20)
(0.0719321 -0.00165953 -9.42062e-20)
(0.0811731 -0.0031677 1.11291e-19)
(0.0910475 -0.00441249 1.62525e-22)
(0.101531 -0.00528014 -6.47972e-20)
(0.112564 -0.00563512 2.93411e-20)
(0.124136 -0.00526781 1.19433e-19)
(0.136406 -0.00379924 -1.10558e-19)
(0.148532 -0.00126241 -8.42273e-20)
(0.0924582 -0.0049361 -3.66478e-20)
(0.103382 -0.00648969 -8.09208e-21)
(0.115031 -0.00777375 -6.14313e-21)
(0.127387 -0.00866244 8.22861e-20)
(0.140389 -0.00899736 -3.97246e-20)
(0.154035 -0.00851578 -9.15993e-20)
(0.168507 -0.00672445 1.2386e-19)
(0.182816 -0.00363799 -1.14961e-19)
(0.128194 -0.00981613 -2.94468e-19)
(0.141723 -0.0111106 9.15835e-20)
(0.15606 -0.0120171 8.4092e-20)
(0.171154 -0.012361 -1.24605e-19)
(0.187017 -0.0118237 6.5421e-20)
(0.203874 -0.00977139 -1.179e-19)
(0.220576 -0.00616539 4.59558e-20)
(0.171318 -0.0141062 -1.12614e-19)
(0.187728 -0.0149989 -6.11105e-20)
(0.205012 -0.0153716 -2.92088e-20)
(0.22322 -0.0148616 -2.4462e-20)
(0.222609 -0.0171672 2.11936e-20)
(-0.0428692 0.000618034 1.02631e-21)
(-0.0448302 8.98558e-05 -6.79579e-22)
(-0.04407 -0.000376258 6.01995e-22)
(-0.0413674 -0.000873951 -8.08257e-23)
(-0.0362335 -0.00133161 -1.50583e-21)
(-0.0288443 -0.00173158 1.24168e-21)
(-0.0193375 -0.00206482 3.27287e-23)
(-0.00792172 -0.00233011 -9.50668e-22)
(0.00517705 -0.00253209 3.98246e-22)
(0.0197366 -0.0026779 4.85424e-22)
(0.035548 -0.00277561 -3.37154e-23)
(0.0524223 -0.00283307 -3.11834e-22)
(0.0701912 -0.00285739 3.37171e-22)
(0.0887064 -0.00285473 -2.95336e-22)
(0.107838 -0.00283033 -1.4008e-23)
(0.127471 -0.00278851 2.34256e-22)
(0.147506 -0.00273291 -5.29387e-22)
(-0.04038 0.00182876 4.2976e-21)
(-0.0422667 0.000237567 -3.31641e-21)
(-0.0412821 -0.0011529 -2.3425e-21)
(-0.0384222 -0.00263982 2.9602e-21)
(-0.0331508 -0.00400612 -4.33133e-21)
(-0.0256614 -0.0051995 -1.40075e-22)
(-0.0160924 -0.00619335 3.28466e-21)
(-0.00465016 -0.00698435 -4.91346e-22)
(0.00844328 -0.00758643 -7.68672e-22)
(0.0229709 -0.00802111 3.87589e-22)
(0.0387291 -0.00831236 1.8259e-21)
(0.0555337 -0.0084836 -2.38327e-21)
(0.0732204 -0.00855599 2.21783e-21)
(0.0916445 -0.0085479 -4.63636e-22)
(0.110679 -0.00847485 1.04337e-21)
(0.13021 -0.00834982 -2.39368e-22)
(0.150141 -0.00818354 1.13031e-21)
(-0.0353919 0.00296543 1.12412e-20)
(-0.0371327 0.000292292 -5.56001e-21)
(-0.0357015 -0.00199996 5.86815e-21)
(-0.0325307 -0.00445873 -9.99645e-21)
(-0.0269882 -0.00671372 4.76151e-21)
(-0.0193022 -0.00868091 -3.5098e-21)
(-0.00961257 -0.0103178 6.48314e-21)
(0.00187913 -0.0116198 -6.56722e-21)
(0.0149591 -0.0126106 7.14478e-22)
(0.0294208 -0.0133259 -7.10521e-22)
(0.045071 -0.0138051 2.69901e-21)
(0.061735 -0.0140867 -6.00324e-21)
(0.079257 -0.0142055 4.21408e-21)
(0.0974987 -0.0141915 -1.1961e-21)
(0.116338 -0.0140704 -1.96452e-21)
(0.135668 -0.0138633 -1.8045e-22)
(0.155392 -0.013588 2.96691e-22)
(-0.0278832 0.00398518 -8.36712e-21)
(-0.0294134 0.000227253 -9.42529e-21)
(-0.0273192 -0.00295773 1.02598e-21)
(-0.0236906 -0.00636399 6.85151e-21)
(-0.017751 -0.00947452 3.45157e-21)
(-0.00978001 -0.0121829 -1.4572e-21)
(8.10441e-05 -0.0144338 -4.16518e-21)
(0.0116385 -0.0162227 7.1823e-21)
(0.0246913 -0.0175836 3.15194e-21)
(0.0390486 -0.0185659 -3.93226e-21)
(0.054533 -0.019224 2.40137e-21)
(0.0709838 -0.0196105 -4.80908e-22)
(0.0882572 -0.0197731 -5.06711e-21)
(0.106225 -0.0197528 4.18247e-21)
(0.124773 -0.0195845 -4.03057e-21)
(0.1438 -0.0192975 1.26982e-21)
(0.163214 -0.018916 2.69541e-21)
(-0.017806 0.00482742 9.99664e-21)
(-0.0190853 -6.36734e-05 -1.9067e-21)
(-0.0161345 -0.00407851 1.01928e-20)
(-0.0118991 -0.00838548 -4.60838e-22)
(-0.00544653 -0.0123053 1.50536e-20)
(0.00288583 -0.0157094 -2.15065e-20)
(0.0129574 -0.0185342 8.71188e-21)
(0.0245866 -0.0207771 7.72521e-22)
(0.0375901 -0.0224829 -7.18499e-21)
(0.0517984 -0.023714 3.79837e-21)
(0.0670546 -0.0245389 1.05909e-21)
(0.0832166 -0.0250232 -1.67904e-21)
(0.100156 -0.0252262 4.35978e-21)
(0.117758 -0.025199 -4.94463e-21)
(0.135917 -0.0249852 6.98928e-22)
(0.154542 -0.0246212 -2.1877e-21)
(0.173547 -0.0241375 5.46578e-22)
(-0.00514363 0.005394 2.23864e-20)
(-0.00611121 -0.00058758 -2.16726e-20)
(-0.00210229 -0.00540624 1.22381e-20)
(0.00285576 -0.0105432 -1.95715e-20)
(0.00991663 -0.0152172 1.09727e-20)
(0.01867 -0.0192602 -1.76354e-21)
(0.0289752 -0.0226086 1.42005e-21)
(0.0406685 -0.0252645 -8.63951e-21)
(0.0535897 -0.0272838 1.57716e-20)
(0.067596 -0.0287416 -3.71367e-21)
(0.0825558 -0.0297187 1.79663e-21)
(0.0983496 -0.0302925 -1.13343e-21)
(0.114868 -0.0305322 -1.85122e-21)
(0.13201 -0.030498 -2.25957e-21)
(0.149686 -0.030241 4.87944e-22)
(0.16781 -0.0298042 3.98457e-21)
(0.186306 -0.0292235 -1.30751e-21)
(0.0101609 0.0056618 -6.29015e-21)
(0.00957708 -0.001336 -9.72525e-21)
(0.014778 -0.00696047 -6.57613e-21)
(0.02059 -0.0128596 1.40985e-20)
(0.0283275 -0.0182173 1.12172e-20)
(0.037541 -0.02283 -1.33232e-20)
(0.048083 -0.0266421 4.27244e-21)
(0.0598155 -0.0296627 1.02304e-21)
(0.0726077 -0.0319593 -1.08047e-20)
(0.0863488 -0.0336185 1.00097e-20)
(0.100937 -0.0347318 -8.11134e-21)
(0.116279 -0.035386 1.13949e-21)
(0.132287 -0.0356589 2.74802e-21)
(0.148877 -0.0356181 4.82791e-21)
(0.165973 -0.0353212 -1.0246e-21)
(0.183501 -0.0348168 1.28098e-21)
(0.201392 -0.0341458 -4.18727e-22)
(0.0281794 0.00567823 1.12086e-20)
(0.0280493 -0.00243917 -1.75089e-20)
(0.0345495 -0.00875711 9.03816e-21)
(0.041318 -0.0153516 -5.24756e-22)
(0.0497783 -0.0213046 5.64424e-21)
(0.0594619 -0.0264064 8.28704e-21)
(0.0702189 -0.0306139 -1.23964e-20)
(0.0819451 -0.0339453 1.7163e-21)
(0.0945456 -0.0364796 -2.92821e-22)
(0.107947 -0.038313 -3.95586e-21)
(0.122081 -0.0395455 8.08288e-21)
(0.136883 -0.0402712 -8.67754e-21)
(0.152288 -0.0405744 7.40965e-21)
(0.168233 -0.0405284 -9.71817e-21)
(0.184655 -0.0401961 1.69495e-21)
(0.201492 -0.0396308 -2.14179e-21)
(0.218685 -0.0388774 4.16242e-21)
(0.0490025 0.00544059 -4.20975e-21)
(0.0493761 -0.00391306 3.24696e-23)
(0.0572809 -0.010815 -5.49474e-21)
(0.0650642 -0.0180163 -7.01699e-21)
(0.0742595 -0.0244675 -6.87062e-21)
(0.0843891 -0.0299687 2.07565e-20)
(0.0953097 -0.0344967 -1.00883e-20)
(0.10696 -0.0380812 3.77942e-21)
(0.119288 -0.0408115 3.7012e-22)
(0.132263 -0.0427914 -3.66272e-21)
(0.145851 -0.0441264 4.39639e-21)
(0.16002 -0.0449154 -4.89176e-21)
(0.174729 -0.0452471 5.66843e-21)
(0.189935 -0.0451988 -5.31366e-21)
(0.205591 -0.0448371 5.90303e-21)
(0.221646 -0.044219 1.2338e-22)
(0.238052 -0.043393 -6.03717e-22)
(0.07274 0.00491256 -1.72701e-20)
(0.0736564 -0.00573155 3.77598e-20)
(0.0830407 -0.0131369 -8.97651e-21)
(0.0918597 -0.0208423 -3.36728e-20)
(0.101759 -0.0276839 2.94949e-20)
(0.11227 -0.033487 5.47907e-21)
(0.123269 -0.0382562 -1.46876e-20)
(0.134748 -0.0420341 1.44157e-20)
(0.146704 -0.0449187 1.91355e-21)
(0.159151 -0.0470181 -3.29431e-21)
(0.172095 -0.0484404 6.27869e-21)
(0.185533 -0.0492864 -8.39313e-21)
(0.199451 -0.0496465 1.88527e-21)
(0.213825 -0.0496004 -5.95096e-21)
(0.228624 -0.0492171 7.61605e-21)
(0.24381 -0.0485562 -3.67372e-21)
(0.259344 -0.0476686 3.31987e-22)
(0.099519 0.00407047 2.33228e-20)
(0.101018 -0.00788473 -2.89756e-20)
(0.111911 -0.0157113 4.53112e-20)
(0.121741 -0.0238048 -2.23489e-20)
(0.132262 -0.0309185 -1.0758e-20)
(0.143043 -0.0369204 -4.22655e-21)
(0.153997 -0.0418498 9.73082e-21)
(0.16518 -0.0457624 -2.5205e-20)
(0.176644 -0.0487615 1.34113e-20)
(0.188449 -0.0509561 -1.26066e-21)
(0.200641 -0.0524531 -2.62882e-22)
(0.213247 -0.0533521 8.21567e-21)
(0.226278 -0.0537431 -9.40251e-21)
(0.239729 -0.0537059 5.51448e-21)
(0.253584 -0.0533108 2.76188e-22)
(0.267818 -0.0526186 5.31119e-22)
(0.282399 -0.0516823 -1.68415e-22)
(0.297292 -0.0505478 9.75674e-22)
(0.129485 0.00288659 1.87923e-20)
(0.131618 -0.0103557 1.59837e-20)
(0.143987 -0.0185116 -2.15143e-20)
(0.154745 -0.0268631 1.13583e-20)
(0.165743 -0.0341215 1.51641e-20)
(0.176628 -0.0402166 -1.17377e-20)
(0.187373 -0.045227 -7.19145e-21)
(0.198108 -0.0492191 -6.88684e-21)
(0.20894 -0.0522975 -7.91367e-21)
(0.219978 -0.0545672 8.59315e-22)
(0.231303 -0.0561301 8.06778e-21)
(0.242973 -0.0570816 -3.9606e-21)
(0.25502 -0.0575086 3.89034e-21)
(0.267459 -0.0574897 -4.60895e-21)
(0.280288 -0.0570946 7.62056e-21)
(0.29349 -0.0563848 -7.39613e-21)
(0.307045 -0.0554144 1.58158e-21)
(0.320924 -0.0542307 6.55323e-21)
(0.162802 0.00128426 -2.46443e-22)
(0.165656 -0.0131219 -8.89561e-21)
(0.179382 -0.0214935 6.08929e-20)
(0.190906 -0.0299567 -2.23845e-20)
(0.202162 -0.0372264 1.12032e-20)
(0.212927 -0.043311 -3.83668e-20)
(0.223258 -0.0483291 1.00176e-20)
(0.233361 -0.0523529 1.2619e-20)
(0.243405 -0.055482 -9.57947e-21)
(0.253539 -0.0578127 1.26973e-20)
(0.263879 -0.0594377 9.28456e-21)
(0.274507 -0.0604452 -2.45926e-21)
(0.285478 -0.060917 6.92207e-22)
(0.296819 -0.0609284 1.44953e-21)
(0.308542 -0.0605475 -2.73535e-20)
(0.320642 -0.0598356 1.13349e-20)
(0.333103 -0.0588473 -3.06302e-21)
(0.345903 -0.0576308 2.93811e-21)
(0.199642 -0.000684161 -6.48242e-21)
(0.203386 -0.0161149 4.10314e-20)
(0.218222 -0.0245865 1.40116e-21)
(0.230245 -0.0330027 5.33254e-21)
(0.241455 -0.0401491 -2.035e-20)
(0.251814 -0.0461274 2.61547e-20)
(0.261483 -0.0510906 5.86144e-21)
(0.270749 -0.0551088 -1.19942e-20)
(0.279832 -0.0582694 -2.41314e-20)
(0.288919 -0.0606544 1.51818e-20)
(0.298153 -0.0623439 2.65859e-21)
(0.307635 -0.0634156 1.43231e-20)
(0.317438 -0.0639446 -1.75949e-20)
(0.327601 -0.0640013 2.88594e-21)
(0.338146 -0.0636514 2.68863e-21)
(0.349077 -0.0629549 -9.17949e-22)
(0.360385 -0.0619664 6.37128e-21)
(0.372051 -0.060735 -8.27929e-22)
(0.293126 -0.048578 1.15811e-20)
(0.301851 -0.0534401 7.56899e-21)
(0.310054 -0.0574298 -1.21429e-20)
(0.317995 -0.0606141 1.36368e-22)
(0.325888 -0.0630558 -6.30094e-21)
(0.333894 -0.0648186 1.04639e-21)
(0.342131 -0.0659682 2.71385e-20)
(0.350679 -0.0665707 -2.43804e-20)
(0.35959 -0.0666908 5.98206e-21)
(0.368893 -0.0663909 4.57503e-21)
(0.378597 -0.0657293 -1.72341e-21)
(0.388699 -0.06476 4.76952e-21)
(0.399185 -0.0635326 -1.01936e-20)
)
;

boundaryField
{
    inlet
    {
        type            uniformFixedValue;
        uniformValue    constant (1 0 0);
        value           nonuniform 0();
    }
    outlet
    {
        type            pressureInletOutletVelocity;
        value           nonuniform 0();
    }
    cylinder
    {
        type            fixedValue;
        value           nonuniform 0();
    }
    top
    {
        type            symmetryPlane;
    }
    bottom
    {
        type            symmetryPlane;
    }
    defaultFaces
    {
        type            empty;
    }
    procBoundary22to16
    {
        type            processor;
        value           nonuniform List<vector> 
33
(
(-0.0243381 0.00156105 2.40675e-21)
(-0.0258789 0.00149835 -2.26926e-21)
(-0.0273892 0.0014288 -3.00709e-21)
(-0.028859 0.0013536 -1.12894e-21)
(-0.0302788 0.00127411 3.18424e-21)
(-0.0316407 0.0011919 1.37947e-21)
(-0.032938 0.00110869 -4.87868e-21)
(-0.0341661 0.00102637 2.81599e-21)
(-0.0341661 0.00102637 2.81599e-21)
(-0.0353229 -0.000946939 -3.25071e-21)
(-0.0364087 -0.000872462 8.58543e-21)
(-0.0374272 -0.000805015 1.45571e-21)
(-0.038385 -0.000746503 -2.46749e-21)
(-0.0392893 -0.00069857 -6.96648e-22)
(-0.040148 -0.00066318 -1.34054e-21)
(-0.0410043 -0.000642752 3.15556e-21)
(-0.0428692 -0.000618034 -1.05952e-21)
(-0.0448302 -8.98487e-05 4.88401e-22)
(-0.04407 0.000376274 -6.86219e-22)
(-0.0413674 0.00087398 -2.42814e-22)
(-0.0362335 0.00133166 1.91808e-21)
(-0.0288443 0.00173164 -1.14492e-21)
(-0.0193375 0.0020649 -3.50841e-22)
(-0.00792172 0.00233022 7.94371e-22)
(0.00517706 0.00253221 -1.55303e-22)
(0.0197366 0.00267805 -3.08142e-22)
(0.035548 0.00277578 9.62111e-23)
(0.0524223 0.00283326 8.21086e-22)
(0.0701912 0.0028576 -5.05534e-22)
(0.0887064 0.00285496 -9.22505e-23)
(0.107838 0.00283056 -3.47389e-24)
(0.127471 0.00278876 -2.24029e-22)
(0.147506 0.00273315 2.83507e-22)
)
;
    }
    procBoundary22to21
    {
        type            processor;
        value           nonuniform List<vector> 
16
(
(-0.0224176 0.0047939 -1.2318e-20)
(-0.021684 0.00781198 -7.51684e-21)
(-0.0216426 0.0101769 -2.32872e-20)
(-0.0216426 0.0101769 -2.32872e-20)
(-0.0197521 0.0124575 -1.76761e-20)
(-0.0172833 0.0142898 -5.92281e-20)
(-0.0139266 0.0147547 -2.0861e-20)
(-0.0139266 0.0147547 -2.0861e-20)
(-0.00947546 0.0153434 -2.20944e-20)
(-0.00231117 0.0140963 3.14444e-20)
(-0.00231117 0.0140963 3.14444e-20)
(0.00789988 0.0118514 3.72577e-20)
(0.00789988 0.0118514 3.72577e-20)
(0.017411 0.0102634 1.19893e-20)
(0.0339764 0.0063759 -4.73298e-20)
(0.0339764 0.0063759 -4.73298e-20)
)
;
    }
    procBoundary22to23
    {
        type            processor;
        value           nonuniform List<vector> 
16
(
(0.167853 -0.00266649 -1.35348e-23)
(0.170384 -0.00798494 8.70828e-22)
(0.175425 -0.0132592 5.08869e-22)
(0.182936 -0.0184602 1.48934e-21)
(0.192856 -0.0235594 -1.48018e-21)
(0.205104 -0.028529 2.72669e-22)
(0.219583 -0.0333424 -2.27732e-21)
(0.236178 -0.0379742 -2.05357e-21)
(0.254759 -0.0424002 6.49919e-23)
(0.275182 -0.0465982 1.02263e-21)
(0.275182 -0.0465982 1.02263e-21)
(0.31246 -0.0492546 3.82368e-22)
(0.335093 -0.052875 -1.19454e-21)
(0.359014 -0.056229 4.84488e-21)
(0.384052 -0.0593045 -3.31189e-22)
(0.410032 -0.0620918 -1.32886e-20)
)
;
    }
    procBoundary22to27
    {
        type            processor;
        value           nonuniform List<vector> 
11
(
(0.0553428 0.0017934 -2.8297e-20)
(0.0553428 0.0017934 -2.8297e-20)
(0.0822551 -0.00321185 -1.67375e-20)
(0.0822551 -0.00321185 -1.67375e-20)
(0.115485 -0.00826372 -2.29216e-19)
(0.115485 -0.00826372 -2.29216e-19)
(0.155819 -0.0128668 -2.15977e-19)
(0.155819 -0.0128668 -2.15977e-19)
(0.204051 -0.016386 -5.04111e-21)
(0.204051 -0.016386 -5.04111e-21)
(0.261 -0.0180252 -1.38185e-19)
)
;
    }
    procBoundary22to28
    {
        type            processor;
        value           nonuniform List<vector> 
26
(
(0.242647 -0.0126764 -2.05127e-20)
(0.262 -0.00868689 -4.3607e-21)
(0.240231 -0.00292274 -5.14162e-21)
(0.242156 -0.017539 1.07705e-19)
(0.242647 -0.0126764 -2.05127e-20)
(0.262798 -0.017137 -1.26009e-19)
(0.242156 -0.017539 1.07705e-19)
(0.240231 -0.00292274 -5.14162e-21)
(0.245054 -0.0192654 -1.58046e-20)
(0.260631 -0.0276913 1.0564e-20)
(0.272753 -0.0358905 -1.91058e-20)
(0.28352 -0.0427865 3.28497e-20)
(0.28352 -0.0427865 3.28497e-20)
(0.336657 -0.0505632 5.38828e-21)
(0.344129 -0.0553001 -1.50114e-20)
(0.351031 -0.0592559 2.24306e-21)
(0.357646 -0.0624694 3.36733e-21)
(0.3642 -0.0649798 2.7604e-20)
(0.370862 -0.0668323 -1.88394e-21)
(0.377758 -0.0680785 -2.13881e-20)
(0.384973 -0.0687749 3.76694e-21)
(0.392567 -0.0689798 3.83431e-21)
(0.40057 -0.0687513 -8.32356e-21)
(0.408999 -0.0681459 4.16861e-21)
(0.417852 -0.0672167 -2.46627e-21)
(0.427118 -0.0660134 6.44314e-21)
)
;
    }
}


// ************************************************************************* //
