/*--------------------------------*- C++ -*----------------------------------*\
  =========                 |
  \\      /  F ield         | OpenFOAM: The Open Source CFD Toolbox
   \\    /   O peration     | Website:  https://openfoam.org
    \\  /    A nd           | Version:  7
     \\/     M anipulation  |
\*---------------------------------------------------------------------------*/
FoamFile
{
    version     2.0;
    format      ascii;
    class       surfaceScalarField;
    location    "22";
    object      phi;
}
// * * * * * * * * * * * * * * * * * * * * * * * * * * * * * * * * * * * * * //

dimensions      [0 3 -1 0 0 0 0];

internalField   nonuniform List<scalar> 
804
(
0.00124123
0.00158045
0.00175276
0.000816203
0.000925858
0.000906981
0.00104448
0.00100496
0.001174
0.00111017
0.00131503
0.00122249
0.00146812
0.00134161
0.00163365
0.00181283
0.000510554
0.000493946
0.000569559
0.000568896
0.000636198
0.00065171
0.000710507
0.000743094
0.000792567
0.000843798
0.000882464
0.000954586
0.000980242
0.00107622
0.00108586
0.00120941
0.00119917
0.00135482
0.00131983
0.00151298
0.00144729
0.00168537
0.00187335
0.000360256
0.000250542
0.000380122
0.000290646
0.000408954
0.000336367
0.000446831
0.000388344
0.0004936
0.000447176
0.000549037
0.00051346
0.000612953
0.000587794
0.000685242
0.000670805
0.000765874
0.000763166
0.000854861
0.000865598
0.000952217
0.000978862
0.0010579
0.00110373
0.00117175
0.00124096
0.00129348
0.00139125
0.00142253
0.00155633
0.00173765
0.000171541
0.000102194
0.00020487
0.000124137
0.000233939
0.000155018
0.000261991
0.000187224
0.000292041
0.000220492
0.000325777
0.000256911
0.000364444
0.0002977
0.000408872
0.000343916
0.000459648
0.000396401
0.00051724
0.000455868
0.000582062
0.000522971
0.000654495
0.000598372
0.000734886
0.000682776
0.000823532
0.000776952
0.000920657
0.000881737
0.00102637
0.000998021
0.00114062
0.00112671
0.00126316
0.00126871
0.00139345
0.00142605
0.00160024
0.00153087
9.54568e-05
0.000552188
6.75669e-06
0.000297062
-2.40376e-05
0.000154813
-1.83524e-05
9.07846e-05
9.48737e-06
7.43543e-05
4.95042e-05
8.412e-05
9.97738e-05
0.000104749
0.000152551
0.000134447
0.000204781
0.000168262
0.000256472
0.000205219
0.000308554
0.000245618
0.000362316
0.000290153
0.00041912
0.000339597
0.000480253
0.000394735
0.000546867
0.000456357
0.000619957
0.000525282
0.000700358
0.000602374
0.000788746
0.000688564
0.00088563
0.000784854
0.000991327
0.000892323
0.00110593
0.00101212
0.00122923
0.0011454
0.00136066
0.00129462
0.00146134
0.00149956
-0.000438515
0.00157739
5.75824e-05
0.00148197
0.000290751
0.00120756
0.000365005
0.000870712
0.000340399
0.000576795
0.000278323
0.000359137
0.000216353
0.000216783
0.00017191
0.000135228
0.000149368
9.68959e-05
0.000146694
8.6794e-05
0.000157603
9.38406e-05
0.000181728
0.000110322
0.000213464
0.000136526
0.000250954
0.000167729
0.000293305
0.000203267
0.00034041
0.000243049
0.000392578
0.000287429
0.000450351
0.000336962
0.000514393
0.000392316
0.000585415
0.000454259
0.000664129
0.00052366
0.000751201
0.000601493
0.000847201
0.000688853
0.000952547
0.000786977
0.00106741
0.000897253
0.0011916
0.00102121
0.00132436
0.00116186
0.00132091
0.00146478
-0.00806386
-0.00268308
-0.00693047
-0.00216195
-0.00527446
-0.00127388
-0.00357711
-0.000426703
-0.00217031
0.000170592
-0.00117264
0.000484293
-0.000533758
0.000568687
-0.00016956
0.000506515
2.02115e-05
0.000387023
0.000111628
0.000267721
0.000154489
0.000173921
0.000174606
0.000115111
0.000185167
8.6335e-05
0.000193183
7.87781e-05
0.00020225
8.4773e-05
0.000213563
9.90087e-05
0.00023107
0.000119019
0.000255214
0.000143585
0.000286333
0.000172149
0.000324457
0.000204925
0.000369601
0.000242285
0.000421891
0.000284673
0.000481588
0.000332619
0.000549096
0.000386751
0.000624942
0.000447815
0.000709738
0.000516698
0.000804119
0.000594472
0.000908647
0.000682448
0.00102367
0.000782232
0.00114907
0.000895808
0.00128381
0.00102712
0.00117844
0.00142629
0.00599939
0.00161011
0.00639389
0.00133544
0.00616783
0.00056594
0.00521744
-0.000305818
0.00374939
-0.000939542
0.00223725
-0.00117093
0.00103352
-0.000958229
0.000227052
-0.000467411
-0.000258119
5.84674e-05
-0.000518673
0.000431147
-0.000610069
0.000575689
-0.000563996
0.000522614
-0.000449556
0.000392074
-0.000306333
0.0002438
-0.000167513
0.000128901
-5.42362e-05
6.06445e-05
2.87581e-05
3.21163e-05
8.57808e-05
2.93124e-05
0.000124631
3.99286e-05
0.000151832
5.75712e-05
0.000174664
7.61773e-05
0.000198837
9.48457e-05
0.000225513
0.000116909
0.000256965
0.000140696
0.000294059
0.00016783
0.000337258
0.000199086
0.000386977
0.000234954
0.000443692
0.000275904
0.00050799
0.000322453
0.000580586
0.000375219
0.000662315
0.000434969
0.000754105
0.000502682
0.00085691
0.000579644
0.000971557
0.000667585
0.00109842
0.000768949
0.00123641
0.000889129
0.00103256
0.00138229
-0.000853523
-0.000337372
-0.00138518
-0.000320711
-0.000342231
-0.000249438
0.00202985
-0.000761969
0.00492948
-0.00156419
0.00753642
-0.002041
0.00919637
-0.00196577
0.00960524
-0.00134841
0.00881367
-0.000379361
0.00721146
0.000643981
0.00528302
0.00146103
0.00345238
0.00188911
0.00198723
0.00189629
0.00097262
0.0015903
0.000350253
0.00114498
3.08088e-05
0.000711518
-9.56541e-05
0.000370262
-0.000123631
0.000156878
-0.000105037
4.20508e-05
-6.9981e-05
-2.94019e-06
-2.92089e-05
-1.14598e-05
1.22215e-05
-1.50203e-06
5.38219e-05
1.59706e-05
9.41897e-05
3.58096e-05
0.00013265
5.63857e-05
0.000171886
7.76729e-05
0.000211512
0.00010107
0.00025308
0.000126263
0.000297773
0.000154393
0.000346731
0.000185996
0.000401054
0.000221581
0.000461831
0.000261676
0.00053018
0.000306869
0.000607302
0.000357847
0.000694525
0.00041546
0.000793346
0.000480823
0.000905418
0.000555513
0.00103231
0.000642053
0.00117397
0.000747476
0.000879419
0.00132711
-0.00188962
0.00155224
-0.0043218
0.00211147
-0.00548561
0.000914375
-0.00552464
-0.000722943
-0.00495529
-0.00213354
-0.0038365
-0.00315979
-0.00228186
-0.00352041
-0.000644341
-0.00298593
0.000662074
-0.00168578
0.00135087
-4.48193e-05
0.00148542
0.00132649
0.00131108
0.00206344
0.00104664
0.00216073
0.000792801
0.00184414
0.000558999
0.00137878
0.000367878
0.00090264
0.000214003
0.000524138
0.00010559
0.00026529
3.91964e-05
0.000108445
1.04844e-05
2.57719e-05
8.25655e-06
-9.23196e-06
2.34412e-05
-1.66867e-05
4.9453e-05
-1.00408e-05
8.12542e-05
4.0084e-06
0.000115443
2.21966e-05
0.000150381
4.27353e-05
0.000186633
6.48176e-05
0.000224625
8.82702e-05
0.000265139
0.000113879
0.000309295
0.00014184
0.000358192
0.000172684
0.000412911
0.000206957
0.000474547
0.000245233
0.000544266
0.000288129
0.000623393
0.000336333
0.00071354
0.000390676
0.000816783
0.00045227
0.000935935
0.000522901
0.00107656
0.00060685
0.00124669
0.00012268
-0.000162192
-0.00138697
-0.00347653
-0.00588468
-0.00790876
-0.00113571
-0.00892783
-0.00250133
-0.00870329
-0.00321048
-0.00752129
-0.00286777
-0.00579697
-0.00176914
-0.00394485
-0.000525632
-0.00228224
0.000400831
-0.00100356
0.000882046
-0.000164256
0.00100484
0.000295732
0.000918795
0.000473656
0.000724716
0.000490717
0.000507076
0.000434663
0.000321345
0.000362425
0.000180682
0.000296061
9.21352e-05
0.000244404
4.24253e-05
0.000208656
1.90613e-05
0.000186522
1.20931e-05
0.000175609
1.49217e-05
0.00017438
2.34248e-05
0.000181623
3.54929e-05
0.000196232
5.02093e-05
0.000217291
6.72102e-05
0.000244616
8.65544e-05
0.000277991
0.000108466
0.000317477
0.000133198
0.000363305
0.000161129
0.000415858
0.000192681
0.000475651
0.000228336
0.000543343
0.000268642
0.000619765
0.000314254
0.000706034
0.000365999
0.000803864
0.000425072
-0.00124107
-0.00314929
-0.00455419
-0.00510605
-0.0047844
-0.00209079
-0.00387995
-0.00143008
-0.00279395
-0.000685168
-0.00182643
-8.5474e-05
-0.00109553
0.00027394
-0.000574795
0.000398059
-0.000229353
0.000379273
-1.295e-05
0.000290673
0.000118143
0.000190252
0.000186879
0.000111946
0.00021485
6.41639e-05
0.00021868
3.85952e-05
0.00020951
2.82314e-05
0.000195764
2.58393e-05
0.000183394
2.72915e-05
0.000175895
3.09242e-05
0.000174907
3.64806e-05
0.000181026
4.40905e-05
0.000194273
5.39623e-05
0.000214267
6.65601e-05
0.000240703
8.20291e-05
0.00027333
0.000100572
0.000312073
0.000122386
0.000356999
0.000147755
0.000408345
0.000176989
0.000466508
0.000210479
0.00053208
0.000248683
0.000605981
0.00497641
0.00330759
0.00194003
0.000937731
0.000299749
0.000911922
-3.35918e-05
0.0007314
-0.000146907
0.000492589
-0.000142718
0.000286485
-9.15374e-05
0.000139072
-3.34842e-05
5.38931e-05
1.52967e-05
1.53827e-05
4.98427e-05
4.04914e-06
7.02812e-05
7.79294e-06
8.26593e-05
1.34614e-05
9.20968e-05
1.78544e-05
0.000101716
2.13048e-05
0.000113385
2.48112e-05
0.00012814
2.93361e-05
0.000146327
3.57754e-05
0.000168359
4.45276e-05
0.000194456
5.59321e-05
0.000224861
7.01669e-05
0.000259834
8.74134e-05
0.000299725
0.000107864
0.000344968
0.000131746
0.000396122
0.000159325
0.00111821
0.000514766
0.000150905
-4.89331e-05
-0.000142838
0.000232977
-0.000172751
8.38059e-05
-0.000166659
9.29107e-06
-0.000142213
-2.03969e-05
-0.000106781
-2.76394e-05
-6.80633e-05
-2.52558e-05
-3.07254e-05
-1.94834e-05
3.65567e-06
-1.30764e-05
3.49821e-05
-6.51547e-06
6.38652e-05
4.52773e-07
9.14591e-05
8.18155e-06
0.000118856
1.71305e-05
0.000147125
2.76636e-05
0.000177217
4.00751e-05
0.00020999
5.46408e-05
0.000246229
7.16253e-05
0.000286691
9.12845e-05
0.000124374
4.66413e-05
-6.68751e-06
-3.49277e-05
7.84351e-06
-4.12895e-05
-2.12773e-05
-3.35783e-05
-3.2967e-05
-1.8115e-05
-3.49472e-05
1.0605e-06
-3.22521e-05
2.18932e-05
-2.7348e-05
4.35382e-05
-2.1192e-05
6.57199e-05
-1.40001e-05
8.8695e-05
-5.84443e-06
0.000112939
3.41914e-06
0.000139028
1.39865e-05
0.000167579
2.60904e-05
0.00019923
3.99742e-05
7.84017e-05
6.12657e-05
4.84087e-05
4.10252e-05
3.89875e-05
-3.02142e-05
4.16723e-05
-3.00327e-05
4.84382e-05
-2.79581e-05
5.88368e-05
-2.43988e-05
7.25018e-05
-1.95095e-05
8.92434e-05
-1.33228e-05
0.000109015
-5.78573e-06
0.000131914
3.19179e-06
3.16049e-05
3.27682e-05
3.63923e-05
4.29381e-05
-3.09445e-05
5.24963e-05
-2.90679e-05
6.50284e-05
-2.58555e-05
8.04989e-05
-2.12564e-05
1.37938e-05
2.51516e-05
3.75182e-05
-0.00179912
0.00467666
-0.00169213
0.00440763
-0.00164922
0.00413553
-0.00159076
-0.00150877
0.00463627
0.00437486
0.00411068
0.00384483
0.00357791
0.00331425
)
;

boundaryField
{
    inlet
    {
        type            calculated;
        value           nonuniform 0();
    }
    outlet
    {
        type            calculated;
        value           nonuniform 0();
    }
    cylinder
    {
        type            calculated;
        value           uniform 0;
    }
    top
    {
        type            symmetryPlane;
        value           nonuniform 0();
    }
    bottom
    {
        type            symmetryPlane;
        value           nonuniform 0();
    }
    defaultFaces
    {
        type            empty;
        value           nonuniform 0();
    }
    procBoundary9to3
    {
        type            processor;
        value           nonuniform List<scalar> 
16
(
0.00135806
-0.00193813
0.00146691
-0.00200688
0.00158081
0.00155823
0.0020865
0.00195799
0.00191825
-0.00497322
0.00186286
0.00178763
0.00176097
-0.00494251
0.00172896
-0.00489303
)
;
    }
    procBoundary9to8
    {
        type            processor;
        value           nonuniform List<scalar> 
17
(
-0.00169104
-0.0018696
-0.00100965
-0.00113526
-0.00127197
-0.00113063
-0.00142025
-0.000545267
-0.000627901
-0.000718348
-0.000732413
-0.000817402
-0.000262172
-0.000310512
-0.000365199
-0.000459232
-0.000426222
)
;
    }
    procBoundary9to10
    {
        type            processor;
        value           nonuniform List<scalar> 
12
(
0.000709292
0.000914352
0.000496363
0.000292098
0.000689934
0.000341119
0.000453934
0.000190869
0.000332167
0.00468585
0.00384517
0.00305217
)
;
    }
    procBoundary9to14
    {
        type            processor;
        value           nonuniform List<scalar> 
30
(
-0.000143556
-0.000157466
-0.000184088
-0.000348627
-0.000215276
-0.000372678
-0.000208362
-0.000124019
-0.000130178
-9.64697e-05
-0.00237052
-0.00197806
-0.00144073
-0.000274966
-0.000944967
0.00251178
0.00102856
-0.000382128
0.00123164
-0.00127065
-0.00242418
-0.00172994
-0.000339886
0.00125621
0.00823517
0.00240759
0.00119089
0.000852365
-0.00518531
-0.000793509
)
;
    }
    procBoundary9to15
    {
        type            processor;
        value           nonuniform List<scalar> 
37
(
0.00142957
0.00239635
0.00213916
0.00136661
0.000274603
-0.000834151
0.000939506
-0.000593108
-0.00180558
-0.00231591
-0.00678955
-0.000277653
0.000238737
0.000682395
0.000916827
-0.0020348
0.00182851
0.00133484
0.00085645
0.000486323
-0.000216494
0.000325097
0.000161538
6.26197e-05
-9.70074e-05
2.64487e-05
-4.14113e-06
-2.011e-05
-2.75637e-05
-3.17457e-05
-3.00737e-05
-3.11963e-05
-3.15823e-05
-2.93013e-06
-4.18089e-05
-4.04253e-05
-3.82222e-05
)
;
    }
    procBoundary9to16
    {
        type            processor;
        value           nonuniform List<scalar> 9(0.000113847 0.000234635 5.58765e-05 0.000158166 1.37193e-05 9.89455e-05 -1.52544e-05 5.13389e-05 -3.50756e-05);
    }
}


// ************************************************************************* //
