/*--------------------------------*- C++ -*----------------------------------*\
  =========                 |
  \\      /  F ield         | OpenFOAM: The Open Source CFD Toolbox
   \\    /   O peration     | Website:  https://openfoam.org
    \\  /    A nd           | Version:  7
     \\/     M anipulation  |
\*---------------------------------------------------------------------------*/
FoamFile
{
    version     2.0;
    format      ascii;
    class       volScalarField;
    location    "17";
    object      p;
}
// * * * * * * * * * * * * * * * * * * * * * * * * * * * * * * * * * * * * * //

dimensions      [0 2 -2 0 0 0 0];

internalField   nonuniform List<scalar> 
433
(
-373.754
-340.859
-305.707
-270.985
-238.214
-207.239
140.764
133.624
129.329
125.338
119.309
110.858
98.9934
84.5574
69.8401
520.802
496.576
476.207
450.276
414.069
371.307
324.923
278.967
237.349
198.463
194.576
189.507
176.719
156.223
131.327
105.616
82.5133
64.3631
52.1514
-433.736
-405.507
-380.565
-357.123
-331.316
-304.511
-276.812
-248.548
-219.389
-189.351
-465.505
-440.532
-416.612
-389.451
-356.225
-320.478
-284.987
-251.405
-219.665
-189.175
-159.993
117.229
111.457
108.384
105.916
102.214
96.7434
87.8871
75.7436
62.2602
49.9262
39.5136
30.4532
517.487
493.969
474.505
449.753
415.134
374.056
328.854
283.022
240.483
203.062
170.552
141.319
209.593
204.642
198.415
184.334
162.532
136.435
109.369
84.5783
64.4946
50.535
41.9515
36.4489
31.7007
-428.718
-401.901
-378.723
-357.31
-333.741
-309.122
-283.5
-257.11
-229.349
-200.007
-169.752
-139.961
-112.248
-87.9048
-473.824
-448.792
-424.774
-397.003
-362.431
-324.968
-288.055
-253.823
-222.141
-192.056
-163.3
-136.323
-111.72
-89.8989
-71.0949
-55.3855
123.278
118.601
117.056
116.756
116.375
114.904
109.479
98.6655
83.9836
68.3214
53.7977
40.8486
29.3403
19.3755
11.2348
5.0865
0.653697
524.824
502.809
484.536
460.151
425.703
384.916
339.89
293.584
249.178
208.886
173.452
142.119
113.756
88.0342
65.3371
46.2043
30.9135
19.2514
162.786
159.393
153.334
138.626
116.717
91.6545
66.7123
44.5535
27.3258
16.5227
11.6588
10.6047
10.7911
10.3935
8.79208
6.35012
3.62139
1.02212
-1.13083
-463.055
-436.181
-412.986
-390.527
-364.631
-336.822
-308.316
-279.993
-250.941
-220.261
-187.99
-155.474
-124.556
-96.9031
-73.5674
-54.9046
-40.5137
-29.7742
-21.9857
-16.4404
-12.5718
-415.083
-392.419
-369.49
-341.101
-304.454
-264.195
-225.649
-192.919
-166.332
-143.812
-123.383
-104.23
-86.3653
-70.0771
-55.6885
-43.5228
-33.594
-25.7433
-19.7046
-15.1621
-11.8234
-9.41861
233.282
225.615
222.074
219.418
216.243
212.059
203.426
187.596
164.816
138.04
110.747
85.3571
63.1464
44.6839
30.0672
19.0525
10.9832
5.27305
1.39281
-1.13231
-2.68224
-3.55287
-3.97037
-4.10079
519.079
498.323
479.686
452.742
414.626
370.778
324.535
278.797
235.447
195.755
160.575
129.817
102.889
79.3674
59.1648
42.3685
29.0506
18.8827
11.3841
6.03957
2.39222
0.0203745
-1.43768
-2.27015
-2.68775
23.6183
25.9615
24.1794
14.1557
-0.899836
-16.7554
-30.7104
-41.4045
-47.8653
-48.7895
-44.3629
-36.2875
-26.9409
-18.3881
-11.7627
-7.23366
-4.4903
-2.9957
-2.29699
-2.04615
-2.01976
-2.08201
-2.15578
-2.20327
-2.21093
-514.412
-485.085
-458.465
-430.289
-396.2
-358.451
-319.609
-282.91
-248.844
-216.249
-183.893
-151.748
-120.894
-92.9162
-69.0218
-49.7334
-34.9514
-24.0367
-16.2283
-10.8115
-7.18137
-4.83177
-3.36121
-289.358
-270.559
-250.532
-225.219
-192.132
-154.394
-116.938
-85.2553
-62.5182
-48.3754
-40.1024
-34.5587
-29.6934
-24.8398
-20.058
-15.703
-11.906
-8.81745
-6.39667
-4.5427
-3.17507
385.905
372.271
362.349
349.457
331.256
310.572
287.155
259.889
228.326
193.8
158.932
126.333
97.5356
73.3146
53.7337
38.421
26.781
18.1821
12.0302
479.612
458.47
437.909
408.049
366.222
319.125
272.231
228.859
190.23
156.431
127.156
102.236
81.2873
63.756
49.1158
37.0043
27.2283
-92.9084
-87.4191
-85.3786
-88.959
-95.1837
-99.8838
-100.518
-97.5144
-92.1045
-84.9466
-75.4628
-63.6196
-50.4022
-37.3792
-533.47
-502.517
-473.727
-442.58
-405.005
-362.851
-318.266
-274.481
-234.252
-197.981
-165.099
-134.785
-178.428
-165.303
-152.337
-137.234
-117.471
-92.9546
-65.4721
-38.2602
-15.3846
0.221189
446.311
429.358
415.067
395.344
367.382
336.445
304.689
272.567
420.089
400.284
380.613
352.434
312.802
268.39
224.863
-166.16
-158.158
-152.727
-151.004
-151.094
-539.742
-508.918
-480.701
-67.4793
)
;

boundaryField
{
    inlet
    {
        type            zeroGradient;
    }
    outlet
    {
        type            fixedValue;
        value           nonuniform 0();
    }
    cylinder
    {
        type            zeroGradient;
    }
    top
    {
        type            symmetryPlane;
    }
    bottom
    {
        type            symmetryPlane;
    }
    defaultFaces
    {
        type            empty;
    }
    procBoundary13to6
    {
        type            processor;
        value           nonuniform List<scalar> 8(-9.92316 -9.92316 -7.70834 -7.70834 -6.50553 -4.05783 -4.05783 -2.84427);
    }
    procBoundary13to7
    {
        type            processor;
        value           nonuniform List<scalar> 
38
(
-2.46847
-2.17901
-1.93858
-2.20672
-2.46847
-1.54943
7.7518
-2.20672
4.87556
19.6039
7.7518
13.8356
-25.9193
-16.759
19.6039
-10.0225
-106.771
-25.9193
-81.4945
8.20728
-106.771
10.3544
239.755
8.20728
206.401
239.755
185.433
-150.184
185.433
-145.739
-450.423
-150.184
-414.232
-59.2434
-450.423
-52.2029
-59.2434
510.835
)
;
    }
    procBoundary13to12
    {
        type            processor;
        value           nonuniform List<scalar> 
26
(
-177.549
56.9962
201.271
201.271
44.6297
-159.158
-159.158
-132.721
-132.721
22.1836
114.133
114.133
26.4013
26.4013
-67.5976
-67.5976
-51.3716
-42.679
-42.679
-2.37524
-2.37524
10.706
10.706
-2.77846
-2.77846
-3.95627
)
;
    }
    procBoundary13to19
    {
        type            processor;
        value           nonuniform List<scalar> 10(-364.319 -337.055 -308.533 -279.085 -249.15 -218.556 -448.762 -424.391 -400.756 -400.756);
    }
}


// ************************************************************************* //
