/*--------------------------------*- C++ -*----------------------------------*\
  =========                 |
  \\      /  F ield         | OpenFOAM: The Open Source CFD Toolbox
   \\    /   O peration     | Website:  https://openfoam.org
    \\  /    A nd           | Version:  7
     \\/     M anipulation  |
\*---------------------------------------------------------------------------*/
FoamFile
{
    version     2.0;
    format      ascii;
    class       surfaceScalarField;
    location    "7";
    object      phi;
}
// * * * * * * * * * * * * * * * * * * * * * * * * * * * * * * * * * * * * * //

dimensions      [0 3 -1 0 0 0 0];

internalField   nonuniform List<scalar> 
810
(
-0.000584924
-0.000392371
-0.000556894
-0.000459717
-0.00054454
-0.000521878
-0.000545024
-0.000584646
-0.000555537
-0.000650656
-0.000720261
-0.000600443
-0.000268955
-0.000618015
-0.000374798
-0.000623956
-0.000453776
-0.000625468
-0.000520366
-0.000627164
-0.00058295
-0.000632317
-0.000645503
-0.000643234
-0.000709343
-0.000661421
-0.000774504
-0.000687711
-0.000840587
-0.000907163
-0.000175048
5.40788e-05
-0.000314327
-0.000129677
-0.000419221
-0.000269904
-0.000493977
-0.00037902
-0.000545945
-0.000468397
-0.000583334
-0.000545562
-0.000613376
-0.000615461
-0.00064164
-0.000681079
-0.000672027
-0.000744117
-0.000707055
-0.000805559
-0.000748175
-0.000866042
-0.000796125
-0.000925958
-0.000851174
-0.000985548
-0.000913321
-0.00104493
-0.00110412
-0.000561367
0.000374259
-0.000516189
0.000234384
-0.000518116
5.6006e-05
-0.000535452
-0.000112341
-0.000552285
-0.000253071
-0.000566247
-0.000365058
-0.000580076
-0.000454568
-0.000596693
-0.000528945
-0.000618082
-0.000594072
-0.00064531
-0.000653852
-0.000678839
-0.000710588
-0.000718818
-0.000765581
-0.000765301
-0.000819559
-0.000818284
-0.000872975
-0.000877742
-0.000926089
-0.000943639
-0.000979034
-0.00101592
-0.00103184
-0.00109452
-0.00108446
-0.00117936
-0.00113683
-0.00118885
-0.00160725
0.000444503
-0.00150266
0.000269667
-0.00131954
5.12694e-05
-0.00111614
-0.000147394
-0.000941366
-0.000287118
-0.000809538
-0.000384899
-0.000720398
-0.000454198
-0.000668622
-0.000506344
-0.0006468
-0.000550767
-0.000647656
-0.000593216
-0.000665299
-0.000636209
-0.000695502
-0.000680385
-0.000735521
-0.000725562
-0.000783681
-0.0007714
-0.00083903
-0.000817626
-0.000901054
-0.000864065
-0.000969482
-0.000910605
-0.00104417
-0.000957152
-0.00112503
-0.0010036
-0.00121199
-0.00104986
-0.00130502
-0.00109583
-0.00140405
-0.00114148
-0.00150903
-0.00118696
-0.00161992
-0.00123326
-0.00127464
0.000958245
0.00188986
6.31061e-05
0.00133964
-0.000424191
0.000756963
-0.000633144
0.000260223
-0.000696888
-8.36502e-05
-0.000694851
-0.000289155
-0.000669779
-0.000409971
-0.000646814
-0.000477163
-0.000635138
-0.00051802
-0.00063669
-0.000549214
-0.000650544
-0.000579362
-0.000675055
-0.000611698
-0.000708834
-0.000646606
-0.000750868
-0.000683528
-0.000800471
-0.000721797
-0.000857181
-0.000760915
-0.000920678
-0.000800568
-0.00099073
-0.000840553
-0.00106716
-0.000880719
-0.00114984
-0.000920924
-0.00123867
-0.000961035
-0.00133355
-0.00100094
-0.00143443
-0.0010406
-0.00154123
-0.00108015
-0.00165392
-0.00112058
-0.00177202
-0.00115654
-0.00118952
-0.00189601
0.00192013
0.00309275
0.00125057
0.00255941
0.00075964
0.00183058
0.000385851
0.00113075
0.000101091
0.000544982
-0.000114583
0.000132024
-0.000262961
-0.000140778
-0.000370305
-0.000302627
-0.000450487
-0.000396982
-0.000512668
-0.000455839
-0.000564259
-0.000497623
-0.000610272
-0.000533348
-0.000654845
-0.000567125
-0.000701014
-0.000600437
-0.000750815
-0.000633726
-0.000805529
-0.000667083
-0.000865881
-0.000700563
-0.000932228
-0.00073422
-0.00100471
-0.000768072
-0.00108334
-0.000802084
-0.0011681
-0.000836171
-0.00125891
-0.000870219
-0.00135573
-0.000904123
-0.00145851
-0.000937832
-0.00156718
-0.00097148
-0.00168172
-0.00100604
-0.00180162
-0.00103664
-0.00106379
-0.00192735
-0.00120283
0.0019653
-0.000402186
0.00175877
5.27011e-05
0.00137569
0.000244915
0.000938539
0.000243385
0.000546512
0.000137201
0.000238208
-1.084e-05
7.26315e-06
-0.000156676
-0.000156791
-0.000283514
-0.000270143
-0.000387938
-0.000351415
-0.000473058
-0.000412504
-0.000545553
-0.000460852
-0.000610279
-0.0005024
-0.000671575
-0.000539141
-0.000732702
-0.000572599
-0.000795898
-0.000603887
-0.000862643
-0.000633818
-0.000933883
-0.00066298
-0.0010102
-0.000691752
-0.00109195
-0.000720333
-0.00117934
-0.000748782
-0.00127248
-0.000777079
-0.00137143
-0.000805175
-0.00147621
-0.000833054
-0.00158682
-0.000860871
-0.00170326
-0.000889598
-0.00182502
-0.000914883
-0.000936255
-0.00195255
-0.00455267
0.000120606
-0.00314436
0.000556987
-0.00211291
0.000727319
-0.00142274
0.000685515
-0.000997314
0.000513117
-0.000752749
0.000301948
-0.000618251
0.000103709
-0.000548382
-6.26055e-05
-0.000517853
-0.00018732
-0.000511749
-0.000276247
-0.000523126
-0.000340038
-0.000547438
-0.000388192
-0.00058144
-0.00042685
-0.000623983
-0.000459857
-0.000673854
-0.00048927
-0.000730149
-0.000516304
-0.000792281
-0.000541755
-0.000859921
-0.000566177
-0.000932951
-0.00058995
-0.00101139
-0.000613317
-0.00109531
-0.000636409
-0.00118482
-0.000659268
-0.00128002
-0.000681885
-0.00138096
-0.000704237
-0.00148768
-0.000726334
-0.00160019
-0.000748353
-0.00171853
-0.000771263
-0.00184218
-0.000791237
-0.000806889
-0.00197154
-0.000174334
0.000501721
-0.000960617
0.000906888
-0.00149004
0.00108641
-0.00177096
0.00100823
-0.00181992
0.000734482
-0.00169714
0.000390337
-0.0014781
8.28988e-05
-0.00122859
-0.000145795
-0.00100251
-0.00028869
-0.000825043
-0.000364784
-0.000706435
-0.000394855
-0.000639953
-0.00040652
-0.000613334
-0.000414811
-0.000616108
-0.000424076
-0.000639796
-0.000436169
-0.000678824
-0.000450241
-0.000729334
-0.000465794
-0.00078876
-0.000482329
-0.000855571
-0.000499366
-0.000928903
-0.000516619
-0.00100831
-0.00053391
-0.0010936
-0.000551118
-0.00118471
-0.000568157
-0.00128164
-0.000584961
-0.00138438
-0.000601495
-0.00149294
-0.000617773
-0.00160732
-0.000633974
-0.00172752
-0.000651055
-0.00185306
-0.000665707
-0.000675683
-0.00198426
0.00748633
0.00283724
0.00513885
0.00325437
0.00312938
0.00309588
0.00162389
0.00251372
0.000618696
0.00173968
2.0231e-05
0.000988802
-0.000283821
0.000386951
-0.000419066
-1.05505e-05
-0.000470485
-0.000237271
-0.000492597
-0.000342672
-0.00050405
-0.000383402
-0.000516739
-0.000393831
-0.000537473
-0.000394077
-0.000568039
-0.00039351
-0.000608087
-0.000396121
-0.000656423
-0.000401905
-0.000712197
-0.00041002
-0.000774536
-0.00041999
-0.000843225
-0.000430677
-0.000918038
-0.000441805
-0.000998863
-0.000453085
-0.00108565
-0.000464329
-0.00117838
-0.000475431
-0.00127702
-0.00048632
-0.00138155
-0.000496963
-0.00149195
-0.000507377
-0.00160818
-0.000517742
-0.00173025
-0.000528985
-0.00185766
-0.000538298
-0.000542647
-0.00199069
0.00432406
0.0017177
0.00386841
0.00329288
0.00316208
0.00396071
0.00245471
0.00380325
0.00185297
0.00311547
0.00136269
0.00222995
0.000948612
0.00140288
0.000599339
0.000736224
0.000315226
0.000273563
8.77258e-05
-9.77135e-06
-8.72332e-05
-0.000167713
-0.000220561
-0.000250073
-0.000324606
-0.000289786
-0.000409108
-0.000309576
-0.000481164
-0.000321453
-0.000547401
-0.000329884
-0.000612036
-0.000337269
-0.000677749
-0.000344308
-0.000746646
-0.000351093
-0.000819747
-0.000357576
-0.000897798
-0.000363754
-0.000981228
-0.000369655
-0.00107031
-0.000375248
-0.00116516
-0.00038058
-0.00126584
-0.000385641
-0.00137236
-0.000390446
-0.00148469
-0.000395039
-0.00160283
-0.000399605
-0.00172677
-0.000405045
-0.00185605
-0.000409025
-0.000407814
-0.00199088
-0.00634584
-0.00464228
-0.00298533
0.00230376
-0.00157802
0.00239594
-0.000547386
0.00208483
7.63923e-05
0.00160617
0.000371906
0.00110737
0.000432191
0.00067594
0.000353702
0.000352051
0.000214936
0.000128994
6.33006e-05
-1.60775e-05
-7.88739e-05
-0.000107899
-0.000202607
-0.000166053
-0.000308516
-0.000203666
-0.000398426
-0.000231544
-0.000479133
-0.000249178
-0.000555347
-0.000261055
-0.000630378
-0.000269277
-0.000706542
-0.000274929
-0.000785419
-0.000278699
-0.000868092
-0.000281081
-0.000955314
-0.000282434
-0.00104755
-0.000283014
-0.00114512
-0.000283005
-0.00124823
-0.000282538
-0.00135696
-0.000281715
-0.00147136
-0.000280636
-0.00159145
-0.000279517
-0.00171725
-0.00027924
-0.00184835
-0.000277927
-0.000271247
-0.00198492
-0.00517668
-0.00354407
-0.00232032
-0.0014846
-0.00095566
-0.000643795
-0.000469239
-0.000376832
-0.000334179
-0.000323948
-0.000336674
-0.000366268
-0.000411443
-0.000466861
-0.000529674
-0.000598553
-0.000672794
-0.000752081
-0.000836343
-0.000925656
-0.00102016
-0.00111999
-0.00122526
-0.00133607
-0.00145244
-0.0015744
-0.00170198
-0.00183483
-0.00197304
0.00358517
2.3249e-05
0.00358849
0.000103246
0.00355061
0.000167579
0.00347106
0.000229189
0.00335033
0.000293063
0.0031826
0.000370727
0.00296495
0.00046445
0.00269303
0.000580163
0.00235667
0.00072738
0.000880509
0.00358405
-2.52669e-05
0.0035864
0.000100891
0.00354772
0.000206265
0.00346761
0.000309299
0.00334661
0.00041406
0.00317907
0.000538269
0.00296256
0.000680963
0.00269288
0.000849844
0.00236116
0.00105909
0.00125675
0.0035818
-7.15313e-05
0.00358218
0.000100513
0.00354179
0.000246651
0.00346033
0.000390761
0.00333836
0.000536031
0.00317034
0.000706281
0.00295434
0.000896964
0.00268667
0.00111752
0.00235932
0.00138644
0.00162519
0.00357842
-0.000114412
0.00357581
0.000103113
0.00353284
0.00028963
0.00344922
0.000474375
0.00332559
0.000659667
0.00315644
0.000875425
0.00294057
0.00111284
0.00267411
0.00138398
0.00235104
0.00170951
0.00198554
0.00357391
-0.000152785
0.00356733
0.000109687
0.00352086
0.000336103
0.00343435
0.000560889
0.0033083
0.000785708
0.00313739
0.00104634
0.00292109
0.00132914
0.0026553
0.00164977
0.00233629
0.00202851
0.00233757
0.00356828
-0.000185531
0.00355675
0.000121218
0.00350591
0.000386945
0.0034157
0.000651093
0.00328655
0.000914861
0.00311322
0.00121968
0.00289595
0.0015464
0.0026303
0.00191543
0.00231514
0.00234367
0.00268117
0.00356154
-0.000211539
0.00354408
0.000138681
0.003488
0.00044303
0.00339334
0.000745748
0.00326037
0.00104783
0.00308399
0.00139605
0.00286522
0.00176517
0.00259914
0.00218151
0.00228766
0.00265515
0.00301628
0.00355371
-0.000229715
0.00352933
0.000163057
0.00346719
0.000505177
0.00336731
0.000845622
0.00322982
0.00118532
0.0030498
0.00157608
0.00282895
0.00198602
0.00256191
0.00244855
0.00225401
0.00296306
0.00334294
0.0035448
-0.000238977
0.00351257
0.000195286
0.00344348
0.000574262
0.00333768
0.000951428
0.00319498
0.00301072
0.00278723
0.00251873
0.00221436
0.00353482
0.0034938
0.00341695
)
;

boundaryField
{
    inlet
    {
        type            calculated;
        value           nonuniform List<scalar> 10(-0.00353553 -0.00353553 -0.00353553 -0.00353553 -0.00353553 -0.00353553 -0.00353553 -0.00353553 -0.00353553 -0.00353553);
    }
    outlet
    {
        type            calculated;
        value           nonuniform 0();
    }
    cylinder
    {
        type            calculated;
        value           nonuniform 0();
    }
    top
    {
        type            symmetryPlane;
        value           nonuniform 0();
    }
    bottom
    {
        type            symmetryPlane;
        value           nonuniform 0();
    }
    defaultFaces
    {
        type            empty;
        value           nonuniform 0();
    }
    procBoundary18to12
    {
        type            processor;
        value           nonuniform List<scalar> 
42
(
0.000204124
0.00158933
0.00707487
0.000405573
0.000763321
0.000861089
0.000770451
0.000578428
0.000364075
0.000177495
3.65868e-05
-5.87302e-05
-0.000118129
-0.000153328
-0.000174072
-0.000186368
-0.00019376
-0.000198241
-0.000200398
-0.000200688
-0.000199414
-0.000196819
-0.000193121
-0.000188514
-0.000183175
-0.00017726
-0.000170911
-0.000164266
-0.00015756
-0.000151658
-0.000145079
-0.000133037
-7.28605e-05
-0.000106573
-0.0001297
-0.000149645
-0.000172331
-0.000202998
-0.000246809
-0.000308245
-0.000391016
-0.000496875
)
;
    }
    procBoundary18to19
    {
        type            processor;
        value           nonuniform List<scalar> 
25
(
0.000348544
0.000431687
0.000628751
0.000311734
0.000557665
0.000113961
-0.000524194
7.00794e-06
-0.000279562
0.000711303
-0.000416153
0.0015789
-0.000486337
-0.00236176
-0.00223458
-0.0027783
0.00233028
-0.00177648
0.00620855
0.000570507
-0.000897892
-0.00982185
-0.00185128
-0.00419047
0.00785941
)
;
    }
    procBoundary18to24
    {
        type            processor;
        value           nonuniform List<scalar> 
35
(
0.000509525
0.00058513
0.000661168
0.000738891
-0.000574168
0.000792691
0.000866876
0.000941868
-0.000722416
0.000973907
0.0010406
0.00110708
0.00117323
-0.000982429
0.00116306
0.00122167
0.00127987
-0.00127038
0.00124051
0.00129195
0.00134415
0.001391
-0.00173628
0.00131351
0.00132802
0.00176034
0.0022095
0.00271705
0.00326743
0.00366129
-0.000238249
0.000236307
0.000651109
0.0033045
0.00106388
)
;
    }
}


// ************************************************************************* //
