/*--------------------------------*- C++ -*----------------------------------*\
  =========                 |
  \\      /  F ield         | OpenFOAM: The Open Source CFD Toolbox
   \\    /   O peration     | Website:  https://openfoam.org
    \\  /    A nd           | Version:  7
     \\/     M anipulation  |
\*---------------------------------------------------------------------------*/
FoamFile
{
    version     2.0;
    format      ascii;
    class       surfaceScalarField;
    location    "2";
    object      phi;
}
// * * * * * * * * * * * * * * * * * * * * * * * * * * * * * * * * * * * * * //

dimensions      [0 3 -1 0 0 0 0];

internalField   nonuniform List<scalar> 
823
(
0.002953
0.000485164
0.00300071
0.000398987
0.0030451
0.000327593
0.0030868
0.000268174
0.00312637
0.000218582
0.00316426
0.000176839
0.00320088
0.000141734
0.00323653
0.000111802
0.00327153
8.67797e-05
0.00330607
6.48292e-05
0.00334044
4.73133e-05
0.00337468
3.06324e-05
0.00340919
1.95898e-05
0.00344373
5.66791e-06
0.00347905
1.0457e-06
-1.20137e-05
0.00262083
0.00139958
0.00270361
0.00116919
0.00277813
0.000969058
0.00284502
0.000798317
0.00290509
0.000654735
0.00295925
0.000535114
0.0030084
0.00043602
0.00305335
0.00035403
0.00309487
0.000286081
0.00313358
0.000229464
0.00317003
0.000182133
0.00320467
0.000142192
0.00323791
0.000108495
0.00327005
7.96644e-05
0.00330139
5.54398e-05
0.00333212
3.4097e-05
0.00336253
1.69029e-05
0.00339266
4.99837e-07
0.0034229
-1.06451e-05
0.003453
-2.4435e-05
0.00348373
-2.96825e-05
-4.24986e-05
0.0026867
0.00130952
0.00276783
0.00108806
0.00284043
0.000896456
0.0029052
0.000733545
0.002963
0.000596932
0.00301477
0.000483351
0.0030614
0.00038939
0.00310372
0.000311701
0.0031425
0.000247309
0.00317835
0.00019361
0.00321182
0.000148662
0.00324337
0.000110646
0.00327338
7.84849e-05
0.00330215
5.08898e-05
0.00332999
2.76013e-05
0.00335708
7.01037e-06
0.00338371
-9.72382e-06
0.00340991
-2.57035e-05
0.00343605
-3.67877e-05
0.00346191
-5.02936e-05
0.00348823
-5.59994e-05
-6.84109e-05
0.00274912
0.00122049
0.00282883
0.00100835
0.00289971
0.000825579
0.00296253
0.000670723
0.00301821
0.000541253
0.00306771
0.00043385
0.00311195
0.000345146
0.00315178
0.000271871
0.00318794
0.000211149
0.00322108
0.000160479
0.00325171
0.000118032
0.00328029
8.20578e-05
0.00330722
5.15551e-05
0.00333278
2.53291e-05
0.00335727
3.1143e-06
0.00338091
-1.66308e-05
0.00340391
-3.27252e-05
0.00342636
-4.81537e-05
0.00344861
-5.90311e-05
0.00347042
-7.21057e-05
0.00349253
-7.81101e-05
-8.99639e-05
0.00280784
0.00113216
0.00288638
0.000929808
0.00295575
0.000756208
0.00301681
0.000609664
0.00307053
0.000487533
0.00311792
0.000386462
0.00315992
0.000303143
0.00319739
0.0002344
0.00323108
0.00017746
0.00326163
0.000129929
0.00328957
9.00944e-05
0.00331535
5.6276e-05
0.00333935
2.75569e-05
0.00336185
2.82673e-06
0.00338321
-1.82403e-05
0.00340353
-3.6952e-05
0.0034231
-5.23006e-05
0.00344199
-6.70404e-05
0.00346053
-7.75731e-05
0.0034785
-9.00766e-05
0.00349662
-9.62277e-05
-0.000107378
0.00286291
0.00104428
0.00294051
0.000852207
0.00300856
0.000688156
0.00306802
0.000550205
0.00311993
0.000435622
0.00316535
0.000341044
0.00320525
0.000263245
0.0032405
0.00019915
0.00327185
0.000146102
0.00329997
0.000101814
0.00332537
6.46969e-05
0.00334848
3.31591e-05
0.0033697
6.33708e-06
0.00338937
-1.6841e-05
0.0034077
-3.65729e-05
0.00342491
-5.41557e-05
0.00344125
-6.86379e-05
0.00345676
-8.25596e-05
0.00347181
-9.26169e-05
0.00348615
-0.000104417
0.00350049
-0.000110571
-0.00012088
0.00291432
0.000956589
0.00299118
0.000775345
0.00305809
0.000621248
0.0031161
0.000492188
0.00316635
0.000385376
0.00320994
0.000297458
0.00324787
0.000225313
0.00328103
0.000165984
0.0033102
0.000116933
0.00333603
7.59847e-05
0.00335903
4.16993e-05
0.00337963
1.25564e-05
0.0033983
-1.23279e-05
0.00341523
-3.37772e-05
0.00343075
-5.20864e-05
0.00344502
-6.84299e-05
0.00345831
-8.19281e-05
0.00347066
-9.49124e-05
0.00348242
-0.000104371
0.00349334
-0.000115344
0.00350414
-0.000121365
-0.000130703
0.00296203
0.000868878
0.00303835
0.000699031
0.00310428
0.000555317
0.003161
0.000435462
0.00320973
0.000336651
0.00325162
0.000255566
0.00328772
0.000189209
0.00331895
0.000134762
0.00334607
8.9809e-05
0.00336976
5.22953e-05
0.00339048
2.09806e-05
0.00340882
-5.7891e-06
0.00342502
-2.85249e-05
0.00343942
-4.81797e-05
0.0034523
-6.49658e-05
0.00346384
-7.99636e-05
0.00347428
-9.23686e-05
0.00348367
-0.000104304
0.00349235
-0.000113048
0.00350008
-0.000123078
0.00350755
-0.00012884
-0.000137086
0.00300603
0.000780941
0.00308197
0.000623091
0.00314708
0.000490205
0.00320266
0.000379883
0.00325
0.00028931
0.00329034
0.000215229
0.00332475
0.000154795
0.00335418
0.00010534
0.0033794
6.45812e-05
0.00340107
3.06306e-05
0.00341977
2.27497e-06
0.00343592
-2.19303e-05
0.00344986
-4.24662e-05
0.00346191
-6.02281e-05
0.00347234
-7.53963e-05
0.00348132
-8.89508e-05
0.00348912
-0.000100162
0.00349576
-0.000110945
0.00350158
-0.000118868
0.00350634
-0.000127846
0.00351073
-0.000133231
-0.000140273
0.00304631
0.000692604
0.00312203
0.000547371
0.00318646
0.000425772
0.00324103
0.000325314
0.00328713
0.000243216
0.00332604
0.000176312
0.00335891
0.000121932
0.00338668
7.7566e-05
0.00341013
4.11298e-05
0.00342998
1.07873e-05
0.00344678
-1.45327e-05
0.00346091
-3.60549e-05
0.00347277
-5.43241e-05
0.00348264
-7.01062e-05
0.00349082
-8.35683e-05
0.00349746
-9.55899e-05
0.00350281
-0.000105513
0.00350691
-0.000115049
0.00351009
-0.000122051
0.00351213
-0.000129879
0.00351368
-0.000134778
-0.000140511
0.002994
0.000759657
0.00308287
0.000603732
0.0031585
0.000471741
0.00322239
0.000361888
0.00327607
0.000271627
0.00332105
0.000198241
0.00335868
0.000138681
0.00339013
9.04776e-05
0.00341639
5.13119e-05
0.00343821
1.93035e-05
0.00345644
-7.43886e-06
0.00347146
-2.95564e-05
0.00348376
-4.83552e-05
0.00349371
-6.42743e-05
0.00350161
-7.80003e-05
0.00350772
-8.9676e-05
0.00351221
-0.000100083
0.00351533
-0.000108634
0.00351711
-0.000116836
0.00351789
-0.000122825
0.00351742
-0.000129413
0.00351637
-0.000133727
-0.000138055
0.00302621
0.000654814
0.00311573
0.000514221
0.00319137
0.000396096
0.00325482
0.000298442
0.00330774
0.000218707
0.00335172
0.000154257
0.0033882
0.000102202
0.00341837
6.03027e-05
0.00344319
2.64936e-05
0.00346372
-1.22221e-06
0.00348035
-2.40722e-05
0.0034938
-4.30011e-05
0.00350444
-5.89992e-05
0.00351267
-7.25008e-05
0.00351877
-8.41001e-05
0.00352301
-9.3917e-05
0.00352556
-0.000102635
0.00352666
-0.000109736
0.00352635
-0.000116525
0.00352495
-0.000121421
0.00352222
-0.000126686
0.00351882
-0.000130325
-0.000133163
0.00305467
0.000548469
0.00314488
0.000424012
0.00322062
0.000320357
0.00328373
0.000235338
0.00333599
0.000166445
0.0033791
0.000111141
0.00341455
6.67574e-05
0.00344353
3.13181e-05
0.00346727
2.75716e-06
0.00348641
-2.03641e-05
0.00350172
-3.93761e-05
0.00351374
-5.50238e-05
0.00352291
-6.81661e-05
0.00352959
-7.9189e-05
0.00353409
-8.85983e-05
0.00353667
-9.64917e-05
0.00353749
-0.000103455
0.00353679
-0.000109038
0.00353461
-0.000114344
0.00353126
-0.000118072
0.00352651
-0.000121941
0.00352101
-0.000124824
-0.000126095
0.00307944
0.000440638
0.00317037
0.000333083
0.00324625
0.000244475
0.00330909
0.000172496
0.0033608
0.000114732
0.00340315
6.87948e-05
0.00343765
3.22594e-05
0.00346576
3.20918e-06
0.00348835
-1.98332e-05
0.00350637
-3.83854e-05
0.00352048
-5.34913e-05
0.00353126
-6.58006e-05
0.00353913
-7.60365e-05
0.00354447
-8.45264e-05
0.00354756
-9.16903e-05
0.00354867
-9.76037e-05
0.00354797
-0.000102754
0.00354569
-0.000106758
0.00354187
-0.000110521
0.00353681
-0.000113016
0.0035303
-0.000115425
0.00352295
-0.000117481
-0.000117117
0.00310056
0.000331398
0.00319219
0.000241452
0.00326825
0.00016842
0.00333088
0.000109867
0.00338214
6.34664e-05
0.00342376
2.71735e-05
0.00345765
-1.62331e-06
0.0034848
-2.39495e-05
0.00350649
-4.15214e-05
0.00352354
-5.54314e-05
0.00353663
-6.65804e-05
0.00354633
-7.55069e-05
0.00355309
-8.27921e-05
0.00355727
-8.87029e-05
0.00355915
-9.35741e-05
0.003559
-9.74587e-05
0.003557
-0.000100746
0.00355336
-0.00010312
0.00354812
-0.000105285
0.0035416
-0.000106492
0.00353356
-0.000107386
0.00352463
-0.000108554
-0.000106495
0.00311811
0.000220879
0.00321038
0.000149185
0.00328661
9.21874e-05
0.00334907
4.74097e-05
0.0033999
1.2636e-05
0.00344116
-1.40914e-05
0.00347426
-3.47258e-05
0.00350074
-5.043e-05
0.00352166
-6.24354e-05
0.00353789
-7.16595e-05
0.00355012
-7.88149e-05
0.00355893
-8.43193e-05
0.00356476
-8.86172e-05
0.00356797
-9.19107e-05
0.00356884
-9.44497e-05
0.00356765
-9.62649e-05
0.00356455
-9.76479e-05
0.00355978
-9.83479e-05
0.00355336
-9.88714e-05
0.00354561
-9.87426e-05
0.0035363
-9.80754e-05
0.00352605
-9.83031e-05
-9.45007e-05
0.00313213
0.000109248
0.00322493
5.63808e-05
0.00330131
1.581e-05
0.00336368
-1.49603e-05
0.00341423
-3.79133e-05
0.003455
-5.48641e-05
0.00348762
-6.73428e-05
0.00351352
-7.63329e-05
0.00353382
-8.27283e-05
0.00354939
-8.7233e-05
0.00356094
-9.03656e-05
0.00356904
-9.24164e-05
0.00357412
-9.36981e-05
0.00357655
-9.43436e-05
0.00357662
-9.45189e-05
0.00357459
-9.42322e-05
0.00357062
-9.36774e-05
0.00356494
-9.26682e-05
0.00355758
-9.15142e-05
0.00354885
-9.00121e-05
0.00353852
-8.77458e-05
0.00352721
-8.69918e-05
-8.1406e-05
0.00314266
-3.27605e-06
0.00323591
-3.68678e-05
0.00331241
-6.06964e-05
0.00337466
-7.72102e-05
0.00342499
-8.824e-05
0.00346541
-9.52859e-05
0.00349766
-9.95862e-05
0.00352312
-0.000101798
0.00354295
-0.000102555
0.00355803
-0.000102316
0.00356907
-0.000101404
0.00357663
-9.99783e-05
0.00358115
-9.82223e-05
0.00358301
-9.61971e-05
0.00358247
-9.39852e-05
0.00357981
-9.1572e-05
0.00357519
-8.90543e-05
0.00356883
-8.63091e-05
0.00356077
-8.34506e-05
0.0035513
-8.05461e-05
0.00354021
-7.66524e-05
0.0035281
-7.48846e-05
-6.74851e-05
0.00314973
-0.000116293
0.00324327
-0.000130407
0.00331985
-0.000137276
0.00338202
-0.000139381
0.00343218
-0.000138397
0.00347237
-0.00013548
0.00350434
-0.00013156
0.00352952
-0.00012697
0.00354903
-0.000122071
0.00356379
-0.000117072
0.00357449
-0.000112102
0.0035817
-0.000107186
0.00358585
0.00358732
0.00358639
0.00358332
0.00357826
0.00357145
0.00356292
0.00355296
0.00354136
0.00352873
0.00315338
0.00324704
0.00332363
0.00338574
0.00343579
0.00347585
0.00350768
0.0035327
0.00355206
0.00356666
0.00357719
)
;

boundaryField
{
    inlet
    {
        type            calculated;
        value           nonuniform 0();
    }
    outlet
    {
        type            calculated;
        value           nonuniform List<scalar> 
19
(
0.00351433
0.00351421
0.00351414
0.00351408
0.00351404
0.00351399
0.00351396
0.00351394
0.00351392
0.00351391
0.00351392
0.00351393
0.00351395
0.00351397
0.00351401
0.00351406
0.00351411
0.00351418
0.00351425
)
;
    }
    cylinder
    {
        type            calculated;
        value           nonuniform 0();
    }
    top
    {
        type            symmetryPlane;
        value           nonuniform 0();
    }
    bottom
    {
        type            symmetryPlane;
        value           nonuniform 0();
    }
    defaultFaces
    {
        type            empty;
        value           nonuniform 0();
    }
    procBoundary17to10
    {
        type            processor;
        value           nonuniform List<scalar> 5(-0.00252949 -0.00259664 -0.00266009 -0.00271951 -0.00277502);
    }
    procBoundary17to11
    {
        type            processor;
        value           nonuniform List<scalar> 
23
(
-0.000536951
-0.000446702
-0.000371979
-0.000309878
-0.00025815
-0.000214732
-0.000178353
-0.000147456
-0.000121777
-9.93712e-05
-8.16787e-05
-6.48807e-05
-5.40901e-05
-4.02141e-05
-3.63619e-05
-2.32632e-05
-0.00149092
-0.00125197
-0.00104358
-0.000865204
-0.000714807
-0.00290121
-0.000589276
)
;
    }
    procBoundary17to16
    {
        type            processor;
        value           nonuniform List<scalar> 
15
(
-0.00282663
-0.00287432
-0.00291809
-0.00295797
-0.000863041
-0.00289061
-0.00292137
-0.00294833
-0.00297161
-0.00299132
-0.00300759
-0.0030205
-0.00303013
-0.00303671
-0.00304001
)
;
    }
    procBoundary17to23
    {
        type            processor;
        value           nonuniform List<scalar> 
24
(
-0.000229666
-0.000224059
-0.000213867
-0.000201493
-0.000188445
-0.000175547
-0.000163388
-0.000151991
-0.00014143
-0.000131666
-0.000122634
-0.000114223
-0.000102377
-9.76717e-05
-9.30485e-05
-8.84998e-05
-8.39943e-05
-7.95078e-05
-7.49307e-05
-7.05961e-05
-6.50527e-05
-6.22481e-05
-5.30126e-05
0.00358423
)
;
    }
}


// ************************************************************************* //
