/*--------------------------------*- C++ -*----------------------------------*\
  =========                 |
  \\      /  F ield         | OpenFOAM: The Open Source CFD Toolbox
   \\    /   O peration     | Website:  https://openfoam.org
    \\  /    A nd           | Version:  7
     \\/     M anipulation  |
\*---------------------------------------------------------------------------*/
FoamFile
{
    version     2.0;
    format      ascii;
    class       surfaceScalarField;
    location    "13";
    object      phi;
}
// * * * * * * * * * * * * * * * * * * * * * * * * * * * * * * * * * * * * * //

dimensions      [0 3 -1 0 0 0 0];

internalField   nonuniform List<scalar> 
30910
(
0.00205249
-0.00177647
-0.00027602
0.0044769
-0.00285563
0.000431228
0.0051921
-0.00254759
0.00183239
0.00445702
-0.00211334
0.00284841
0.00324325
-0.00176377
0.00297754
0.00210252
-0.00113638
0.00227712
0.00117662
-0.000124674
0.00105057
0.000433587
0.00111701
-0.000373979
-0.000141225
0.00230303
-0.00172821
-0.000502738
0.00310894
-0.00274743
-0.000584865
0.0032858
-0.00320367
-0.000433443
0.00288379
-0.00303521
-0.000173426
0.00214363
-0.00240365
7.10862e-05
0.00135056
-0.00159507
0.000232989
0.000701337
-0.00086324
0.000306675
0.000266749
-0.000340435
0.000315705
3.20948e-05
-4.11248e-05
0.000280949
-5.2465e-05
8.72206e-05
0.000229386
-6.42194e-05
0.000115783
0.000176563
-4.78303e-05
0.000100653
0.000125815
-2.85584e-05
7.93053e-05
8.17721e-05
-1.58323e-05
5.9875e-05
4.40891e-05
-1.01383e-05
4.78212e-05
1.24267e-05
-1.07648e-05
4.24268e-05
-1.34188e-05
-1.5467e-05
4.13124e-05
-3.44301e-05
-2.16839e-05
4.26954e-05
-5.17845e-05
-2.80114e-05
4.53657e-05
-6.66186e-05
-3.38536e-05
4.86877e-05
-7.98867e-05
-3.90878e-05
5.23557e-05
-9.23346e-05
-4.37905e-05
5.62384e-05
-0.000104504
-4.81067e-05
6.02761e-05
-0.000116772
-5.21758e-05
6.44438e-05
-0.000129387
-5.61105e-05
6.8727e-05
-0.000142503
-5.99915e-05
7.31076e-05
-0.00015621
-6.38689e-05
7.75761e-05
-0.000170557
-6.77649e-05
8.21116e-05
-0.000185568
-7.16835e-05
8.6695e-05
-0.000201258
-7.56836e-05
9.13742e-05
-0.000217634
-8.05237e-05
9.68995e-05
-8.67967e-05
0.00010387
-0.000234706
-0.00010994
-0.00166653
3.043e-05
-0.002996
0.00041941
-0.00293657
0.000615046
-0.00230898
0.00025491
-0.00140363
-0.000690806
-0.000190662
-0.00193406
0.00111858
-0.00304163
0.00222459
-0.00362896
0.00289035
-0.00353487
0.00301486
-0.00292293
0.00267385
-0.00208279
0.00204366
-0.00129035
0.00135119
-0.00070161
0.000761818
-0.000344691
0.000344418
-0.000172524
9.45823e-05
-0.000111471
-2.8958e-05
-9.75427e-05
-6.63934e-05
-9.93499e-05
-6.2412e-05
-0.00010078
-4.63999e-05
-9.79792e-05
-3.13595e-05
-9.20603e-05
-2.17512e-05
-8.53097e-05
-1.68886e-05
-7.93803e-05
-1.6694e-05
-7.56858e-05
-1.91621e-05
-7.47245e-05
-2.26448e-05
-7.65098e-05
-2.62258e-05
-8.07606e-05
-2.96025e-05
-8.70965e-05
-3.27514e-05
-9.51492e-05
-3.57376e-05
-0.000104609
-3.8647e-05
-0.000115233
-4.15521e-05
-0.00012684
-4.45037e-05
-0.000139301
-4.75301e-05
-0.000152531
-5.06392e-05
-0.000166474
-5.38216e-05
-0.0001811
-5.70577e-05
-0.000196395
-6.03894e-05
-0.000212354
-6.45648e-05
-7.016e-05
-0.00022899
-0.00190188
0.000235346
-0.00419087
-0.000707014
-0.00491074
-0.0022167
-0.0044335
-0.00278621
-0.00378756
-0.00204958
-0.00337202
-0.000606199
-0.00307589
0.000822449
-0.0026488
0.00179749
-0.00202682
0.00226838
-0.0013371
0.00232513
-0.000754886
0.00209164
-0.000402001
0.00169077
-0.000260376
0.00120956
-0.000241312
0.000742754
-0.000264216
0.000367322
-0.000285973
0.000116339
-0.000294898
-2.0033e-05
-0.000287294
-7.39971e-05
-0.000269012
-8.06939e-05
-0.000240266
-7.51462e-05
-0.000207574
-6.40513e-05
-0.000175283
-5.40421e-05
-0.000145443
-4.67288e-05
-0.00011969
-4.24463e-05
-0.000101029
-3.78229e-05
-8.94317e-05
-3.42411e-05
-8.38892e-05
-3.17683e-05
-8.32165e-05
-3.02753e-05
-8.63116e-05
-2.96564e-05
-9.22406e-05
-2.98085e-05
-0.000100269
-3.06179e-05
-0.000109853
-3.19682e-05
-0.000120608
-3.37486e-05
-0.000132277
-3.58611e-05
-0.000144696
-3.82196e-05
-0.00015777
-4.07481e-05
-0.000171446
-4.3382e-05
-0.000185702
-4.61333e-05
-0.000200537
-4.97299e-05
-5.47243e-05
-0.000215972
-0.000746895
0.000982241
-0.00172682
0.000272914
-0.00208089
-0.00186262
-0.00163516
-0.00323195
-0.00056086
-0.00312388
0.000889282
-0.00205634
0.00235214
-0.000640406
0.00342314
0.000726488
0.00383515
0.00185637
0.00360126
0.00255902
0.00287586
0.00281704
0.00197672
0.00258991
0.00116878
0.0020175
0.000584218
0.00132731
0.000236042
0.000715498
6.89656e-05
0.000283415
1.071e-05
3.82228e-05
2.06134e-06
-6.53483e-05
8.0556e-06
-8.66881e-05
1.33681e-05
-8.04589e-05
1.24169e-05
-6.31001e-05
5.96012e-06
-4.75854e-05
-2.12884e-06
-3.86397e-05
-1.33081e-05
-3.12669e-05
-2.49738e-05
-2.6157e-05
-3.6309e-05
-2.29059e-05
-4.71931e-05
-2.08833e-05
-5.77197e-05
-1.97487e-05
-6.8049e-05
-1.93271e-05
-7.83398e-05
-1.95178e-05
-8.87221e-05
-2.02356e-05
-9.92899e-05
-2.14005e-05
-0.000110112
-2.29263e-05
-0.000121232
-2.47409e-05
-0.000132682
-2.67704e-05
-0.000144483
-2.89465e-05
-0.000156657
-3.12081e-05
-0.000169224
-3.35668e-05
-0.000182209
-3.67443e-05
-4.12708e-05
-0.000195663
0.00154782
-0.000565578
0.00320518
-0.00138444
0.00338331
-0.00204075
0.00263653
-0.00248517
0.00202425
-0.0025116
0.00190941
-0.0019415
0.00212662
-0.000857624
0.00235271
0.000500399
0.00229675
0.00191233
0.00189739
0.00295838
0.00134673
0.00336771
0.000836191
0.00310045
0.000477983
0.00237571
0.000284975
0.00152032
0.000210831
0.000789642
0.000199162
0.000295084
0.000207362
3.00233e-05
0.000214683
-7.26687e-05
0.000216219
-8.82248e-05
0.00019847
-6.27099e-05
0.000166927
-3.1557e-05
0.000129941
-1.05991e-05
9.07209e-05
5.80123e-07
5.47543e-05
4.69972e-06
2.39251e-05
4.67177e-06
-1.64369e-06
2.66316e-06
-2.25637e-05
3.6337e-08
-3.97397e-05
-2.5727e-06
-5.41118e-05
-4.95498e-06
-6.64965e-05
-7.13297e-06
-7.75826e-05
-9.14926e-06
-8.7888e-05
-1.10951e-05
-9.77774e-05
-1.30368e-05
-0.000107499
-1.50188e-05
-0.000117211
-1.70585e-05
-0.00012701
-1.91481e-05
-0.000136954
-2.12637e-05
-0.000147084
-2.34371e-05
-0.000157438
-2.63911e-05
-3.06218e-05
-0.000168087
0.00153982
-0.00210539
0.00354745
-0.00339208
0.00445507
-0.00294837
0.00418811
-0.0022182
0.00325077
-0.00157426
0.0019996
-0.000690332
0.000676493
0.000465483
-0.00052271
0.0016996
-0.00131994
0.00270956
-0.00159624
0.00323468
-0.00141199
0.00318346
-0.000957626
0.00264608
-0.000462028
0.00188011
-7.78158e-05
0.00113611
0.000147707
0.000564119
0.000243029
0.000199762
0.000248933
2.41194e-05
0.000210356
-3.40919e-05
0.000156524
-3.43931e-05
0.000108142
-1.43277e-05
7.08154e-05
5.76938e-06
4.19868e-05
1.82295e-05
1.79059e-05
2.46615e-05
-1.51817e-06
2.41241e-05
-1.68959e-05
2.00493e-05
-2.92801e-05
1.50472e-05
-3.9564e-05
1.03206e-05
-4.84382e-05
6.30151e-06
-5.63814e-05
2.98841e-06
-6.37775e-05
2.633e-07
-7.08689e-05
-2.05779e-06
-7.78165e-05
-4.14751e-06
-8.47207e-05
-6.13252e-06
-9.16256e-05
-8.11391e-06
-9.85461e-05
-1.01381e-05
-0.000105478
-1.2216e-05
-0.000112411
-1.43307e-05
-0.000119336
-1.65124e-05
-0.00012626
-1.94669e-05
-2.36336e-05
-0.000133249
-0.00108026
-0.00102513
-0.00214074
-0.0023316
-0.00215567
-0.00293344
-0.00165721
-0.00271666
-0.00152663
-0.00170484
-0.00205725
-0.000159708
-0.00300199
0.00141022
-0.00384194
0.00253956
-0.00415594
0.00302355
-0.00384569
0.00292444
-0.00308004
0.00241781
-0.00218999
0.00175603
-0.00142617
0.00111629
-0.000893201
0.000603146
-0.000580416
0.000251335
-0.000428371
4.77168e-05
-0.000358574
-4.5678e-05
-0.000321361
-7.13044e-05
-0.000292025
-6.37291e-05
-0.000260155
-4.61979e-05
-0.000224519
-2.98673e-05
-0.000188912
-1.73768e-05
-0.000154405
-9.84578e-06
-0.000124729
-5.55191e-06
-0.000101515
-3.16482e-06
-8.46834e-05
-1.78459e-06
-7.34366e-05
-9.24878e-07
-6.67148e-05
-4.20193e-07
-6.34784e-05
-2.47992e-07
-6.27923e-05
-4.22771e-07
-6.38896e-05
-9.60528e-07
-6.61706e-05
-1.86631e-06
-6.9174e-05
-3.12919e-06
-7.25638e-05
-4.72422e-06
-7.60921e-05
-6.60974e-06
-7.95807e-05
-8.72741e-06
-8.29039e-05
-1.10075e-05
-8.59755e-05
-1.34408e-05
-8.87478e-05
-1.66944e-05
-2.1105e-05
-9.12762e-05
-0.00175427
0.00072914
-0.00393141
-0.000154468
-0.00467691
-0.00218794
-0.00414054
-0.00325303
-0.00313982
-0.00270557
-0.00209635
-0.00120318
-0.00109501
0.000408885
-0.000156739
0.00160129
0.000585714
0.0022811
0.000995881
0.00251427
0.00103185
0.00238184
0.000768191
0.00201968
0.000386514
0.00149797
4.16087e-05
0.000948052
-0.000192426
0.00048537
-0.000312297
0.000167588
-0.000348502
-9.4741e-06
-0.000337587
-8.22193e-05
-0.000305879
-9.54372e-05
-0.000263528
-8.85484e-05
-0.000220279
-7.31164e-05
-0.000180014
-5.76418e-05
-0.000144434
-4.54258e-05
-0.000114035
-3.59516e-05
-9.07573e-05
-2.64428e-05
-7.38789e-05
-1.86629e-05
-6.22887e-05
-1.25152e-05
-5.48341e-05
-7.87447e-06
-5.04648e-05
-4.61724e-06
-4.82717e-05
-2.61595e-06
-4.7514e-05
-1.71825e-06
-4.76059e-05
-1.77443e-06
-4.80949e-05
-2.64028e-06
-4.86363e-05
-4.18296e-06
-4.8971e-05
-6.27533e-06
-4.89043e-05
-8.79439e-06
-4.82926e-05
-1.16195e-05
-4.70333e-05
-1.47003e-05
-4.50518e-05
-1.8676e-05
-2.39243e-05
-4.22325e-05
8.06777e-05
0.000648462
-4.48052e-05
-2.89853e-05
-0.000441066
-0.00179168
-0.000678086
-0.00301601
-0.000281026
-0.00310263
0.000792103
-0.00227631
0.00217223
-0.000971247
0.00333031
0.00044321
0.00387876
0.00173264
0.00371707
0.00267597
0.00299626
0.00310265
0.00207345
0.00294249
0.00123241
0.00233901
0.000619816
0.00156065
0.000254182
0.000851003
8.22284e-05
0.000339542
2.80961e-05
4.46586e-05
2.96757e-05
-8.37988e-05
4.47767e-05
-0.000110538
5.35503e-05
-9.73217e-05
5.31551e-05
-7.27209e-05
4.72661e-05
-5.17526e-05
3.58527e-05
-3.40129e-05
2.17784e-05
-2.18775e-05
9.1362e-06
-1.38005e-05
-1.15552e-06
-8.37082e-06
-9.01621e-06
-4.65434e-06
-1.47256e-05
-2.16557e-06
-1.8631e-05
-7.12614e-07
-2.10786e-05
-1.68389e-07
-2.23277e-05
-4.6924e-07
-2.25408e-05
-1.56142e-06
-2.17936e-05
-3.38742e-06
-2.00929e-05
-5.88345e-06
-1.74002e-05
-8.96779e-06
-1.36519e-05
-1.25426e-05
-8.78061e-06
-1.64908e-05
-2.73734e-06
-2.07436e-05
4.4078e-06
-2.58211e-05
-3.17825e-05
1.2266e-05
0.00204066
-0.0013922
0.00437837
-0.00236669
0.0049175
-0.00233082
0.00407091
-0.00216941
0.00293973
-0.00197145
0.00207092
-0.0014075
0.00153559
-0.000435919
0.00113166
0.000847147
0.000720124
0.00214418
0.000309811
0.00308628
3.10981e-05
0.00338137
-5.77616e-05
0.00303135
5.48809e-06
0.00227576
0.00013334
0.0014328
0.000250319
0.000734025
0.000321245
0.000268615
0.000348746
1.71577e-05
0.000339098
-7.41506e-05
0.000307297
-7.87364e-05
0.000263111
-5.31359e-05
0.000215319
-2.49286e-05
0.000165587
-2.02005e-06
0.000121811
9.76289e-06
8.58993e-05
1.40343e-05
5.79096e-05
1.41894e-05
3.70121e-05
1.25264e-05
2.20881e-05
1.02699e-05
1.20614e-05
7.86167e-06
5.88305e-06
5.4653e-06
2.73949e-06
2.97564e-06
2.02178e-06
2.4826e-07
3.31684e-06
-2.85674e-06
6.37745e-06
-6.44825e-06
1.109e-05
-1.05961e-05
1.74392e-05
-1.5317e-05
2.54707e-05
-2.05744e-05
3.52618e-05
-2.62823e-05
4.68926e-05
-3.23747e-05
6.0451e-05
-3.93796e-05
-4.74593e-05
7.61278e-05
0.000564967
-0.00195717
0.00150224
-0.00330396
0.00216916
-0.00299774
0.00223443
-0.00223468
0.00165186
-0.00138888
0.000539851
-0.000295497
-0.000841461
0.000945394
-0.00208142
0.00208711
-0.00280979
0.00287254
-0.00286311
0.0031396
-0.00237847
0.00289672
-0.0016397
0.00229258
-0.000921121
0.00155718
-0.000384019
0.000895694
-6.23779e-05
0.000412384
8.85258e-05
0.000117711
0.000125923
-2.02398e-05
0.000110655
-5.88822e-05
8.25394e-05
-5.06207e-05
5.69885e-05
-2.75852e-05
3.83068e-05
-6.24727e-06
2.74629e-05
8.82352e-06
2.01039e-05
1.71221e-05
1.56213e-05
1.85171e-05
1.305e-05
1.67604e-05
1.18242e-05
1.37523e-05
1.17153e-05
1.03788e-05
1.2608e-05
6.9692e-06
1.45452e-05
3.52683e-06
1.76081e-05
-8.7783e-08
2.19146e-05
-4.05819e-06
2.76032e-05
-8.54514e-06
3.48439e-05
-1.36888e-05
4.38188e-05
-1.95709e-05
5.47218e-05
-2.622e-05
6.77478e-05
-3.36004e-05
8.3078e-05
-4.16125e-05
0.000100864
-5.01609e-05
0.000121212
-5.97277e-05
-7.033e-05
0.000144083
-0.00173834
-0.000218824
-0.00374875
-0.00129355
-0.00428151
-0.00246498
-0.00380792
-0.00270827
-0.00338977
-0.00180704
-0.00339259
-0.000292669
-0.00362175
0.00117455
-0.00366915
0.00213451
-0.0033192
0.0025226
-0.00262819
0.00244859
-0.00182728
0.00209581
-0.00114335
0.00160866
-0.00068566
0.00109948
-0.000433802
0.000643837
-0.000318117
0.000296699
-0.00027562
7.52137e-05
-0.000259303
-3.65564e-05
-0.000244892
-7.32938e-05
-0.000225798
-6.97141e-05
-0.000199981
-5.34021e-05
-0.000168062
-3.81665e-05
-0.000133012
-2.62269e-05
-9.66357e-05
-1.92541e-05
-6.49251e-05
-1.31938e-05
-3.8925e-05
-9.23939e-06
-1.82701e-05
-6.90215e-06
-1.99824e-06
-5.89262e-06
1.1072e-05
-6.10099e-06
2.21203e-05
-7.52171e-06
3.22036e-05
-1.0171e-05
4.22163e-05
-1.40716e-05
5.29043e-05
-1.92331e-05
6.48708e-05
-2.56553e-05
7.86205e-05
-3.33206e-05
9.45822e-05
-4.21818e-05
0.000113125
-5.21434e-05
0.00013456
-6.30475e-05
0.000159126
-7.47267e-05
0.000186954
-8.7556e-05
-0.000101317
0.000217942
-0.00123415
0.00101533
-0.00279103
0.000263329
-0.00332188
-0.00193413
-0.00275424
-0.00327591
-0.00154696
-0.00301432
-6.41005e-05
-0.00177552
0.00139413
-0.000283682
0.00251929
0.00100935
0.00307964
0.00196224
0.00304622
0.00248202
0.00252813
0.0026139
0.00177663
0.00236015
0.00104962
0.00182649
0.000495179
0.00119828
0.000149428
0.00064245
-2.49304e-05
0.000249572
-8.86762e-05
2.71894e-05
-9.69458e-05
-6.50241e-05
-8.38141e-05
-8.2846e-05
-6.20045e-05
-7.52117e-05
-4.20372e-05
-5.81336e-05
-2.60604e-05
-4.22036e-05
-1.18617e-05
-3.34533e-05
9.79494e-08
-2.51537e-05
1.03719e-05
-1.95129e-05
1.96918e-05
-1.62214e-05
2.86401e-05
-1.48408e-05
3.76661e-05
-1.5127e-05
4.71908e-05
-1.70466e-05
5.76337e-05
-2.06138e-05
6.93925e-05
-2.58304e-05
8.28618e-05
-3.27024e-05
9.84357e-05
-4.12293e-05
0.000116511
-5.13963e-05
0.00013749
-6.316e-05
0.000161767
-7.64201e-05
0.000189713
-9.09944e-05
0.000221639
-0.000106653
0.000257726
-0.000123643
-0.000141433
0.000297841
0.00103184
-1.65088e-05
0.00201102
-0.000715858
0.00188595
-0.00180905
0.00123981
-0.00262977
0.00100249
-0.002777
0.00141824
-0.00219127
0.00220164
-0.00106708
0.00289109
0.000319904
0.00315525
0.00169808
0.00287276
0.00276451
0.00223294
0.00325372
0.00150164
0.00309145
0.000881976
0.00244616
0.000461415
0.00161884
0.000229916
0.000873949
0.000132951
0.000346537
0.000111278
4.88633e-05
0.000120768
-7.45145e-05
0.000136162
-9.82407e-05
0.000140709
-7.97586e-05
0.000134402
-5.18272e-05
0.000121621
-2.94218e-05
0.000104065
-1.58967e-05
8.84476e-05
-9.53746e-06
7.69918e-05
-8.0572e-06
7.03394e-05
-9.56883e-06
6.83942e-05
-1.28954e-05
7.07671e-05
-1.74997e-05
7.69921e-05
-2.32713e-05
8.66596e-05
-3.02815e-05
9.95099e-05
-3.86808e-05
0.000115457
-4.86501e-05
0.000134573
-6.03449e-05
0.000157066
-7.38897e-05
0.000183262
-8.93558e-05
0.000213566
-0.000106724
0.000248422
-0.000125851
0.000288248
-0.000146479
0.000333337
-0.000168731
-0.000191667
0.000383572
0.00194145
-0.00195796
0.00433951
-0.00311391
0.00523925
-0.0027088
0.00474918
-0.00213969
0.00365877
-0.0016866
0.00244454
-0.000977044
0.00130299
7.4475e-05
0.000306131
0.00131676
-0.000445916
0.00245013
-0.000862734
0.00318132
-0.000905655
0.00329664
-0.000667976
0.00285377
-0.000320884
0.00209906
-1.26443e-05
0.0013106
0.000187167
0.000674138
0.000281015
0.000252689
0.000297742
3.2136e-05
0.000269596
-4.63686e-05
0.000226126
-5.47701e-05
0.000182639
-3.62718e-05
0.000146193
-1.53807e-05
0.000118427
-1.65579e-06
9.72735e-05
5.25661e-06
8.30887e-05
4.64771e-06
7.56635e-05
-6.31568e-07
7.40844e-05
-7.98972e-06
7.73567e-05
-1.61679e-05
8.47721e-05
-2.4915e-05
9.57851e-05
-3.4284e-05
0.00011006
-4.45571e-05
0.000127481
-5.61013e-05
0.000148076
-6.9246e-05
0.00017209
-8.43589e-05
0.000199847
-0.000101647
0.000231819
-0.000121328
0.00026856
-0.000143464
0.000310709
-0.000168
0.000358906
-0.000194676
0.000413682
-0.000223508
-0.000253043
0.000475058
-0.000509433
-0.00144852
-0.000806693
-0.00281665
-0.00046858
-0.00304691
-1.27109e-05
-0.00259556
-6.43272e-05
-0.00163498
-0.000810088
-0.000231284
-0.00201376
0.00127815
-0.00317108
0.00247408
-0.00382925
0.0031083
-0.00377683
0.0031289
-0.00316975
0.00268957
-0.0023151
0.00199912
-0.00150199
0.00128595
-0.000891382
0.000699994
-0.000512699
0.000295453
-0.000318756
5.87469e-05
-0.000234314
-5.23063e-05
-0.000194558
-8.61251e-05
-0.000166919
-8.2409e-05
-0.000140087
-6.31032e-05
-0.000110221
-4.52472e-05
-7.82524e-05
-3.36243e-05
-4.57793e-05
-2.72166e-05
-1.46333e-05
-2.64984e-05
1.39035e-05
-2.91683e-05
3.97001e-05
-3.37861e-05
6.3433e-05
-3.99005e-05
8.59487e-05
-4.74306e-05
0.000108215
-5.65501e-05
0.000131144
-6.74858e-05
0.000155616
-8.05733e-05
0.000182409
-9.60399e-05
0.000212227
-0.000114177
0.00024581
-0.00013523
0.0002839
-0.000159417
0.00032732
-0.000186884
0.000376965
-0.000217646
0.000433805
-0.000251516
0.000498763
-0.000288468
-0.000326525
0.000572246
-0.00190004
0.000451511
-0.00422787
-0.000488818
-0.00500238
-0.0022724
-0.00450948
-0.00308846
-0.00372061
-0.00242385
-0.00306174
-0.000890156
-0.00247789
0.000694299
-0.00180736
0.00180355
-0.00106469
0.00236562
-0.000407657
0.00247187
2.35775e-05
0.00225833
0.000166297
0.0018564
0.000104181
0.00134807
-3.42445e-05
0.000838419
-0.00015756
0.000418768
-0.000231576
0.000132763
-0.00025731
-2.6572e-05
-0.0002503
-9.3136e-05
-0.000227572
-0.000105136
-0.000189975
-0.000100701
-0.000145619
-8.96025e-05
-0.000100232
-7.90113e-05
-5.60269e-05
-7.1422e-05
-1.54998e-05
-6.70254e-05
2.12412e-05
-6.59096e-05
5.35996e-05
-6.61442e-05
8.26041e-05
-6.89048e-05
0.000109618
-7.44451e-05
0.000136019
-8.29505e-05
0.000163027
-9.4495e-05
0.000191696
-0.000109242
0.000222993
-0.000127336
0.00025775
-0.000148934
0.000296765
-0.000174245
0.000340855
-0.000203506
0.00039093
-0.000236959
0.000448069
-0.000274784
0.000513569
-0.000317015
0.000588903
-0.000363802
-0.000412269
0.000674647
-0.000449975
0.000901487
-0.00116717
0.000228374
-0.00165163
-0.00178795
-0.00159675
-0.00314334
-0.000870898
-0.00314971
0.000436135
-0.00219719
0.00196515
-0.000834713
0.00322737
0.000541324
0.00384624
0.00174675
0.00376078
0.00255733
0.00310101
0.0029181
0.00220758
0.00274983
0.00137436
0.00218129
0.000756867
0.00145591
0.000380652
0.000794983
0.000195452
0.000317963
0.000128231
4.06495e-05
0.000117912
-8.28164e-05
0.00012459
-0.000111814
0.000131166
-0.000107277
0.000133059
-9.14959e-05
0.000131324
-7.72764e-05
0.000129552
-6.965e-05
0.000129567
-6.70408e-05
0.000131716
-6.80582e-05
0.000137911
-7.23384e-05
0.000148529
-7.95236e-05
0.000163825
-8.97406e-05
0.000183616
-0.000102741
0.000207925
-0.000118804
0.000236821
-0.000138139
0.000270477
-0.000160991
0.000309186
-0.000187643
0.000353362
-0.000218421
0.000403568
-0.000253713
0.000460574
-0.000293965
0.000525467
-0.000339676
0.000599837
-0.000391386
0.000686099
-0.000450064
-0.000512473
0.000786302
0.00181038
-0.000908897
0.00380531
-0.00176655
0.00411653
-0.00209917
0.00325829
-0.0022851
0.0023571
-0.00224851
0.00188948
-0.00172957
0.00179205
-0.000737286
0.00178457
0.000548812
0.00161579
0.00191553
0.001216
0.00295713
0.000771961
0.00336214
0.00043454
0.00308725
0.000262457
0.00235337
0.000225253
0.00149312
0.000257158
0.000763077
0.000303472
0.000271648
0.000336443
7.67866e-06
0.000350915
-9.72883e-05
0.000349292
-0.000110191
0.000328675
-8.66603e-05
0.000298307
-6.11281e-05
0.000265603
-4.45726e-05
0.000235169
-3.9216e-05
0.000211586
-4.34581e-05
0.00019682
-5.32921e-05
0.00019085
-6.63691e-05
0.000193951
-8.26242e-05
0.000205157
-0.000100947
0.000223791
-0.000121375
0.000249228
-0.00014424
0.000281064
-0.000169975
0.000319124
-0.000199051
0.000363445
-0.000231963
0.000414256
-0.000269232
0.000471977
-0.000311434
0.000537254
-0.000359242
0.000611093
-0.000413515
0.000695279
-0.000475571
0.000793701
-0.000548487
-0.000628802
0.000910031
0.00119537
-0.00210426
0.00287202
-0.0034432
0.00380207
-0.00302923
0.00377935
-0.00226237
0.00305568
-0.00152484
0.00187021
-0.000544104
0.000471113
0.000661815
-0.000855613
0.00187554
-0.00174848
0.0028084
-0.00202529
0.00323394
-0.00176768
0.00310452
-0.00121342
0.00253299
-0.000623063
0.00176301
-0.000164485
0.00103454
0.00011382
0.000484773
0.000244124
0.000141344
0.000275117
-2.33144e-05
0.00025314
-7.53118e-05
0.000216805
-7.38555e-05
0.000185566
-5.54215e-05
0.000163631
-3.91929e-05
0.000151696
-3.26379e-05
0.000148244
-3.57634e-05
0.000151189
-4.6403e-05
0.000158845
-6.09482e-05
0.00017253
-8.00544e-05
0.000191467
-0.000101561
0.000215551
-0.00012503
0.000244806
-0.000150631
0.000279404
-0.000178838
0.000319626
-0.000210197
0.000365862
-0.000245287
0.000418602
-0.000284704
0.000478443
-0.000329074
0.000546099
-0.00037909
0.000622466
-0.000435609
0.000708736
-0.000499785
0.000806455
-0.00057329
0.000917329
-0.000659361
-0.000764802
0.00105333
-0.00138946
-0.000714804
-0.00286305
-0.00196961
-0.00304244
-0.00284984
-0.00247658
-0.00282823
-0.00218736
-0.00181406
-0.00252646
-0.000205009
-0.00326125
0.00139661
-0.0038731
0.00248739
-0.00397187
0.00290717
-0.00351941
0.00278148
-0.00270982
0.00229493
-0.00184985
0.00167302
-0.00115971
0.00107288
-0.00070365
0.000578473
-0.000447274
0.000228397
-0.00032455
1.8621e-05
-0.000266828
-8.10367e-05
-0.000230813
-0.000111327
-0.000196504
-0.000108164
-0.000156155
-9.57711e-05
-0.000109145
-8.62032e-05
-5.87924e-05
-8.29905e-05
-8.06838e-06
-8.64878e-05
4.08437e-05
-9.53152e-05
8.79829e-05
-0.000108087
0.000132297
-0.000124368
0.000174761
-0.000144025
0.000216873
-0.000167143
0.00026023
-0.000193987
0.000306317
-0.000224925
0.000356502
-0.000260383
0.000412053
-0.000300838
0.000474186
-0.000346837
0.000544137
-0.000399025
0.000623257
-0.000458211
0.00071312
-0.000525473
0.000815704
-0.000602369
0.000933858
-0.000691444
0.00107301
-0.000798512
-0.000931202
0.00123941
-0.0015891
0.000874295
-0.00358145
2.27406e-05
-0.00428813
-0.00214316
-0.00375181
-0.00336455
-0.00264773
-0.00291814
-0.00138359
-0.00146915
-0.000130202
0.000143217
0.000967469
0.00138972
0.00170665
0.00216799
0.00199184
0.00249629
0.00182396
0.00246281
0.00135141
0.00214558
0.000802406
0.00162188
0.000341709
0.00103917
3.677e-05
0.000533337
-0.000122258
0.000177649
-0.000177555
-2.57392e-05
-0.000173835
-0.000115047
-0.000144699
-0.0001373
-0.000101987
-0.000138483
-5.5608e-05
-0.000132583
-9.47607e-06
-0.000129122
3.48939e-05
-0.000130858
7.85895e-05
-0.000139011
0.000121194
-0.000150691
0.00016282
-0.000165995
0.000204595
-0.000185799
0.000247796
-0.000210344
0.000293692
-0.000239883
0.000343509
-0.000274742
0.000398427
-0.0003153
0.000459598
-0.000362009
0.000528186
-0.000415425
0.000605405
-0.000476244
0.000692563
-0.000545369
0.000791094
-0.000624003
0.000902532
-0.000713807
0.00102831
-0.000817222
0.00116852
-0.000938727
-0.0010823
0.00131963
0.000452774
0.000421522
0.000724861
-0.000249347
0.000343518
-0.00176182
-0.000153537
-0.0028675
-4.78052e-05
-0.00302387
0.00080653
-0.00232348
0.00205516
-0.00110541
0.003154
0.000290869
0.00370557
0.00161642
0.00356811
0.00263375
0.00290838
0.00312254
0.002053
0.00300096
0.00126833
0.00240655
0.000693717
0.00161378
0.000348432
0.000878621
0.000184571
0.00034151
0.000133663
2.51688e-05
0.000137309
-0.000118693
0.000160048
-0.000160039
0.000177423
-0.000155858
0.000187858
-0.000143017
0.000193986
-0.00013525
0.000200279
-0.000137151
0.000207684
-0.000146415
0.000219819
-0.000162826
0.000238721
-0.000184896
0.000264831
-0.00021191
0.000298204
-0.000243716
0.000338832
-0.000280511
0.000386799
-0.000322709
0.000442345
-0.000370846
0.000505887
-0.000425551
0.000578007
-0.000487546
0.000659433
-0.00055767
0.000750992
-0.000636927
0.000853532
-0.000726543
0.000967771
-0.000828046
0.00109397
-0.000943418
0.0012311
-0.00107586
-0.00122718
0.00137598
0.00208885
-0.00166733
0.00453761
-0.00269811
0.00522465
-0.00244886
0.00445322
-0.00209606
0.00324587
-0.00181652
0.00217265
-0.00125026
0.00135729
-0.000290048
0.000709987
0.000938172
0.000174968
0.00215144
-0.000218794
0.00302751
-0.000375091
0.00327884
-0.00029984
0.00292571
-9.03946e-05
0.00219711
0.000135512
0.00138787
0.000302146
0.000711988
0.000390635
0.000253021
0.000422075
-6.27159e-06
0.000407681
-0.000104299
0.000373796
-0.000126154
0.000336892
-0.000118955
0.000303865
-0.00010999
0.000278677
-0.000110062
0.000260942
-0.000119415
0.000253527
-0.000139
0.000257618
-0.000166916
0.000272294
-0.000199573
0.000296634
-0.00023625
0.000329883
-0.000276965
0.000371546
-0.000322175
0.000421388
-0.000372551
0.000479413
-0.000428871
0.00054583
-0.00049197
0.000621018
-0.000562733
0.000705458
-0.00064211
0.000799673
-0.000731142
0.000904119
-0.00083099
0.00101904
-0.000942971
0.00114426
-0.00106863
0.00127878
-0.00121038
-0.00136935
0.00142095
0.000102115
-0.00176944
0.000516661
-0.00311266
0.00104488
-0.00297708
0.00126188
-0.00231307
0.00088092
-0.00143555
-0.00010187
-0.000267473
-0.00140813
0.00101622
-0.00260581
0.00213585
-0.00330363
0.00284926
-0.00330996
0.00303384
-0.00276701
0.00273589
-0.00196083
0.00211953
-0.00117354
0.00140981
-0.000574164
0.000788495
-0.000201522
0.000339345
-1.34555e-05
6.49548e-05
5.59647e-05
-7.56918e-05
7.58688e-05
-0.000124204
8.02996e-05
-0.000130585
8.67729e-05
-0.000125429
0.000100912
-0.000124129
0.00012114
-0.00013029
0.000147255
-0.000145531
0.000178708
-0.000170453
0.000213243
-0.000201452
0.000250944
-0.000237273
0.000292281
-0.000277587
0.000337943
-0.000322627
0.00038869
-0.000372921
0.000445291
-0.000429152
0.0005085
-0.00049208
0.000579037
-0.000562506
0.000657572
-0.000641268
0.000744707
-0.000729245
0.000840938
-0.000827373
0.000946607
-0.000936658
0.00106181
-0.00105818
0.00118631
-0.00119313
0.00131938
-0.00134345
-0.00151006
0.00146008
-0.00187133
0.000101892
-0.00409562
-0.000888367
-0.00475709
-0.00231562
-0.00426349
-0.00280667
-0.00367332
-0.00202572
-0.0033818
-0.000558993
-0.0032516
0.00088602
-0.00297217
0.00185642
-0.00242558
0.00230266
-0.00171175
0.00232002
-0.00103172
0.00205586
-0.000547128
0.00163494
-0.00028639
0.00114908
-0.000182956
0.000685061
-0.000156874
0.000313264
-0.000155011
6.30905e-05
-0.000154215
-7.64878e-05
-0.000140183
-0.000138236
-0.000112384
-0.000158384
-7.30407e-05
-0.000164773
-2.53407e-05
-0.000171829
2.85684e-05
-0.000184199
8.50132e-05
-0.000201975
0.000139955
-0.000225395
0.000192965
-0.000254462
0.000244852
-0.00028916
0.000296923
-0.000329659
0.00035065
-0.000376354
0.000407492
-0.000429763
0.000468795
-0.000490454
0.000535737
-0.000559023
0.00060932
-0.00063609
0.000690366
-0.000722313
0.00077952
-0.000818399
0.000877251
-0.000925104
0.00098383
-0.00104324
0.00109929
-0.00117364
0.00122341
-0.00131724
0.00135563
-0.00147567
-0.00164972
0.00149529
-0.000898927
0.00100082
-0.00205324
0.000265949
-0.00245265
-0.00191621
-0.00195096
-0.00330836
-0.000810868
-0.00316581
0.000679711
-0.00204957
0.00217511
-0.000609381
0.00329364
0.00073789
0.00377749
0.00181881
0.00362432
0.00247319
0.00297252
0.00270766
0.00211923
0.00248823
0.00132883
0.00193948
0.000741847
0.00127205
0.000382418
0.000672692
0.000203761
0.000241748
0.000138748
-1.14755e-05
0.000130608
-0.000130095
0.000142922
-0.000170698
0.000160056
-0.000181907
0.000177227
-0.000188999
0.000196292
-0.000203264
0.000217547
-0.00022323
0.000241783
-0.000249631
0.000270242
-0.000282921
0.000303817
-0.000322735
0.000343116
-0.000368958
0.00038858
-0.000421819
0.000440592
-0.000481775
0.000499522
-0.000549385
0.000565745
-0.000625245
0.000639626
-0.00070997
0.000721502
-0.00080419
0.000811658
-0.000908555
0.00091029
-0.00102374
0.00101747
-0.00115042
0.00113313
-0.00128929
0.00125697
-0.00144108
0.00138849
-0.00160719
-0.00178832
0.00152709
0.00139778
-0.000396961
0.00285201
-0.00118828
0.00293306
-0.00199726
0.0022042
-0.0025795
0.00170229
-0.00266391
0.00175881
-0.00210609
0.00217072
-0.00102129
0.00257527
0.00033334
0.00265524
0.00173884
0.00232776
0.00280067
0.00177823
0.00325719
0.00121428
0.00305218
0.000775951
0.0023778
0.000504469
0.00154353
0.000371446
0.000805714
0.000326243
0.000286952
0.000322732
-7.96411e-06
0.000332316
-0.000139679
0.0003414
-0.000179782
0.000343407
-0.000183914
0.000338062
-0.000183655
0.000328183
-0.000193385
0.000321064
-0.000216111
0.000321486
-0.000250053
0.000331347
-0.000292782
0.000351224
-0.000342612
0.000381053
-0.000398786
0.000420484
-0.00046125
0.000469103
-0.000530393
0.000526545
-0.000606827
0.000592553
-0.000691253
0.000666981
-0.000784398
0.00074977
-0.000886979
0.000840906
-0.00099969
0.000940365
-0.0011232
0.00104807
-0.00125812
0.00116382
-0.00140505
0.00128729
-0.00156455
0.00141797
-0.00173786
-0.00192557
0.00155521
0.00167334
-0.0020703
0.00379866
-0.0033136
0.00467108
-0.00286968
0.00427952
-0.00218793
0.00324505
-0.00162944
0.00198149
-0.00084254
0.000726358
0.000233847
-0.000372893
0.00143259
-0.00109748
0.00246343
-0.00136515
0.00306834
-0.0012051
0.00309714
-0.000783184
0.00263026
-0.000309918
0.00190454
6.52255e-05
0.00116838
0.000291004
0.000579936
0.000389813
0.000188143
0.000403253
-2.14038e-05
0.00037369
-0.000110117
0.000334244
-0.000140336
0.000301439
-0.000151109
0.000281738
-0.000163953
0.000271324
-0.000182971
0.000272449
-0.000217236
0.000285026
-0.00026263
0.000307575
-0.000315331
0.000338978
-0.000374016
0.000378503
-0.000438311
0.000425736
-0.000508482
0.000480473
-0.000585132
0.000542662
-0.000669015
0.000612334
-0.000760925
0.000689578
-0.000861643
0.000774495
-0.000971896
0.000867165
-0.00109236
0.000967607
-0.00122364
0.00107575
-0.00136627
0.0011914
-0.0015207
0.0013142
-0.00168735
0.00144362
-0.00186728
-0.00206095
0.001579
-0.000916516
-0.00115379
-0.00176826
-0.00246185
-0.00171602
-0.00292193
-0.00127195
-0.002632
-0.00121738
-0.001684
-0.00180153
-0.000258387
-0.0027837
0.00121601
-0.00367745
0.00232635
-0.00407323
0.00285921
-0.00382928
0.00282438
-0.00310772
0.00237558
-0.00221564
0.00173818
-0.00141242
0.00110132
-0.000826163
0.00058213
-0.000467118
0.000220891
-0.000281691
2.71645e-06
-0.000192823
-0.000110272
-0.000142894
-0.000160046
-0.000101946
-0.000181284
-5.6785e-05
-0.00019627
-4.81063e-06
-0.000215928
5.55495e-05
-0.000243331
0.000117922
-0.000279609
0.000179259
-0.000323966
0.000239322
-0.000375394
0.000298789
-0.000433484
0.000358829