/*--------------------------------*- C++ -*----------------------------------*\
  =========                 |
  \\      /  F ield         | OpenFOAM: The Open Source CFD Toolbox
   \\    /   O peration     | Website:  https://openfoam.org
    \\  /    A nd           | Version:  7
     \\/     M anipulation  |
\*---------------------------------------------------------------------------*/
FoamFile
{
    version     2.0;
    format      ascii;
    class       volVectorField;
    location    "13";
    object      U;
}
// * * * * * * * * * * * * * * * * * * * * * * * * * * * * * * * * * * * * * //

dimensions      [0 1 -1 0 0 0 0];

internalField   nonuniform List<vector> 
15600
(
(0.825081 -1.09289 -1.68945e-18)
(1.9525 -2.09854 6.04187e-18)
(2.69226 -2.55525 -1.66286e-18)
(2.63985 -3.167 -4.88159e-19)
(2.03294 -3.50707 -2.28367e-18)
(1.41679 -2.87121 1.52145e-18)
(0.888896 -1.25507 -3.4961e-18)
(0.442499 0.97794 3.28133e-18)
(0.0602657 3.28391 -8.2976e-19)
(-0.229725 5.04015 -1.36988e-18)
(-0.371182 5.77521 1.48995e-18)
(-0.348265 5.41403 -2.78451e-19)
(-0.216593 4.30129 -9.30489e-19)
(-0.0627887 2.95385 4.60201e-19)
(0.0514354 1.77681 1.14868e-19)
(0.110066 0.946498 -2.24948e-19)
(0.126048 0.453445 4.71391e-19)
(0.117159 0.202265 -1.50221e-19)
(0.0969012 0.0910411 -1.23621e-19)
(0.0743944 0.0464096 6.43982e-20)
(0.05355 0.0274952 1.40868e-20)
(0.0353679 0.0160629 -3.03237e-20)
(0.0202519 0.00608896 -4.3575e-21)
(0.00798284 -0.00318617 5.98095e-21)
(-0.00185231 -0.0111538 -2.29792e-22)
(-0.0095779 -0.017463 -7.33325e-22)
(-0.0156039 -0.0221791 2.68561e-21)
(-0.0204341 -0.025591 4.93359e-21)
(-0.0244658 -0.0280367 2.71396e-21)
(-0.0279999 -0.0298086 -4.31821e-21)
(-0.0312371 -0.0311268 -2.06678e-21)
(-0.0343115 -0.0321433 6.05515e-21)
(-0.0373059 -0.0329564 -3.71519e-21)
(-0.0402659 -0.033625 -7.74889e-21)
(-0.0432123 -0.0341814 9.03516e-21)
(-0.0461509 -0.0346411 -4.2858e-21)
(-0.0490792 -0.0350108 3.09485e-22)
(-0.0519872 -0.0353201 -4.38326e-23)
(-0.0548555 -0.0358685 4.16484e-21)
(-0.0577026 -0.0368416 -9.67579e-21)
(0.147121 -3.53482 -3.65039e-19)
(0.242349 -5.18858 1.56211e-18)
(0.275895 -2.74901 1.12179e-19)
(0.231966 0.103906 -2.48993e-18)
(0.127959 2.04632 5.41477e-19)
(-0.283677 3.8349 7.26142e-19)
(-0.937637 5.65663 -2.11039e-18)
(-1.63175 7.25165 1.71065e-18)
(-2.12511 8.14074 6.97935e-19)
(-2.24406 7.97958 -1.23515e-18)
(-1.98554 6.84889 -7.75748e-19)
(-1.50202 5.20385 2.51337e-18)
(-0.983619 3.56159 5.46883e-20)
(-0.563524 2.24308 -1.40789e-18)
(-0.28811 1.33187 -1.97254e-19)
(-0.139573 0.768429 -2.31899e-19)
(-0.0748892 0.448055 8.19692e-19)
(-0.0524689 0.274802 -6.92772e-20)
(-0.0461548 0.180505 -1.66283e-20)
(-0.043812 0.124311 1.05821e-19)
(-0.0410587 0.085662 6.28682e-20)
(-0.0373606 0.0561139 -4.92104e-20)
(-0.0333855 0.0326266 1.59766e-20)
(-0.0298231 0.0143433 -6.82616e-20)
(-0.0271488 0.000799523 4.37695e-20)
(-0.0255908 -0.00880459 1.39149e-20)
(-0.025109 -0.01538 -6.15195e-21)
(-0.0255577 -0.0197844 1.5114e-20)
(-0.0267497 -0.0227293 1.45451e-20)
(-0.0284983 -0.0247337 5.39242e-21)
(-0.0306462 -0.0261543 1.18045e-20)
(-0.0330709 -0.0272211 -7.31958e-21)
(-0.0356798 -0.0280736 2.66354e-21)
(-0.0384049 -0.0287911 -2.05216e-20)
(-0.0411969 -0.0294144 3.98753e-20)
(-0.044021 -0.0299601 -2.96385e-20)
(-0.0468524 -0.0304327 1.43806e-20)
(-0.049671 -0.0308585 -3.1354e-21)
(-0.0524153 -0.0315325 -4.40353e-21)
(-0.055176 -0.0326401 3.83409e-20)
(-0.532787 -1.91692 9.2085e-18)
(-1.26004 -4.64117 4.49762e-18)
(-1.82645 -6.16132 -1.58051e-17)
(-1.96437 -5.93422 8.033e-18)
(-1.72411 -4.10968 -8.63149e-18)
(-1.67631 -1.55552 2.2089e-17)
(-1.7212 0.706814 -5.43437e-18)
(-1.66 2.02952 -2.92202e-19)
(-1.40514 2.38538 -4.41372e-19)
(-1.02537 2.11718 6.86032e-18)
(-0.650479 1.58387 -1.03206e-17)
(-0.370177 1.0081 3.79597e-20)
(-0.206732 0.504986 -5.62833e-19)
(-0.133037 0.13102 4.13565e-18)
(-0.108276 -0.0991942 -2.18107e-18)
(-0.10268 -0.20509 -5.11786e-19)
(-0.101647 -0.224602 1.26887e-18)
(-0.0992827 -0.197651 -5.91397e-19)
(-0.0939861 -0.154964 5.85288e-19)
(-0.0853983 -0.114028 -1.82996e-19)
(-0.0741264 -0.0818414 -1.93508e-19)
(-0.0623391 -0.0593635 -1.42718e-19)
(-0.0515347 -0.0447582 2.79546e-19)
(-0.0421026 -0.0354875 -8.90775e-20)
(-0.0347592 -0.0297433 5.97047e-20)
(-0.0298269 -0.026268 -9.51382e-21)
(-0.0269677 -0.0242104 -5.42239e-20)
(-0.0258273 -0.0230741 5.59296e-20)
(-0.0259933 -0.022557 -4.25872e-20)
(-0.0270867 -0.0224638 -2.26752e-20)
(-0.0288094 -0.022661 -3.1707e-20)
(-0.0309393 -0.0230516 5.0782e-21)
(-0.0333195 -0.023563 6.11163e-20)
(-0.0358423 -0.0241404 3.714e-20)
(-0.0384365 -0.0247418 -3.60319e-20)
(-0.0410565 -0.0253335 -2.59697e-20)
(-0.0436735 -0.0258905 -1.06963e-19)
(-0.0462674 -0.0264215 8.25585e-20)
(-0.0487379 -0.0272067 -1.64239e-19)
(-0.0512572 -0.0284345 1.52477e-19)
(-0.373101 0.99017 -8.42148e-19)
(-0.447881 -1.46349 -7.52513e-18)
(-0.151783 -6.33876 5.03107e-18)
(0.0857037 -8.60542 -3.1163e-18)
(0.307082 -7.21054 4.30972e-18)
(0.600877 -4.23137 -1.22966e-18)
(1.00447 -1.40982 -4.07312e-19)
(1.39146 0.493654 8.10592e-19)
(1.59552 1.53489 -4.51489e-19)
(1.54098 1.95056 -1.85888e-19)
(1.27752 1.87703 -1.37995e-18)
(0.922841 1.43242 1.46373e-18)
(0.592527 0.805238 -1.99059e-18)
(0.347929 0.204316 9.83347e-19)
(0.196009 -0.228249 -8.08949e-20)
(0.115342 -0.452185 6.25947e-20)
(0.0773926 -0.503941 -6.85851e-20)
(0.0597275 -0.451495 -1.31701e-19)
(0.0487587 -0.357189 -5.18013e-20)
(0.039088 -0.26101 -8.07798e-22)
(0.0294529 -0.181664 3.22616e-20)
(0.0201121 -0.123598 1.35779e-20)
(0.0118467 -0.0838698 -8.58743e-20)
(0.00472017 -0.0578874 5.65109e-20)
(-0.00159031 -0.0414707 -7.85931e-20)
(-0.00697615 -0.031246 1.01834e-19)
(-0.0114969 -0.0250052 9.45423e-20)
(-0.0153722 -0.0213379 1.11537e-19)
(-0.0187837 -0.0193368 9.10635e-20)
(-0.0218663 -0.0184148 -1.34707e-19)
(-0.0247192 -0.0181844 2.39143e-19)
(-0.02741 -0.0183876 -1.98e-19)
(-0.0299835 -0.0188517 1.04789e-19)
(-0.0324675 -0.0194608 -3.90156e-20)
(-0.0348783 -0.0201361 -5.25067e-20)
(-0.0372255 -0.020823 1.06173e-20)
(-0.0395144 -0.021484 -1.88939e-19)
(-0.0417448 -0.0221209 6.45289e-20)
(-0.0437869 -0.0230011 2.60552e-19)
(-0.0459046 -0.0243244 -2.42994e-19)
(0.615111 0.31148 4.69674e-18)
(1.81694 -1.9116 1.94964e-17)
(2.88669 -5.76788 2.14122e-17)
(3.10677 -8.33582 -2.43726e-17)
(2.67701 -8.52507 -6.7288e-18)
(2.19562 -6.8096 2.12345e-17)
(1.77644 -4.05946 -4.65373e-18)
(1.37721 -1.0682 -1.89242e-18)
(0.934951 1.57426 -2.7638e-18)
(0.461281 3.40062 -1.55893e-18)
(0.0619897 4.13487 -6.73107e-18)
(-0.161906 3.84558 1.26931e-17)
(-0.206529 2.91948 6.72963e-18)
(-0.140853 1.83196 -7.04823e-18)
(-0.0434224 0.92328 4.18728e-18)
(0.0366028 0.325855 -6.0917e-18)
(0.0833213 0.0167609 1.38987e-18)
(0.101164 -0.0958227 6.12163e-19)
(0.101068 -0.105965 -2.58392e-19)
(0.0910979 -0.0791475 3.09118e-19)
(0.0755138 -0.0490836 -3.39127e-19)
(0.0578229 -0.0273594 9.26775e-20)
(0.0407715 -0.0148675 5.0404e-20)
(0.0257174 -0.00920385 -5.93988e-20)
(0.0133341 -0.007398 9.99993e-21)
(0.00354957 -0.00740909 8.09363e-20)
(-0.00409811 -0.00814577 -3.79318e-20)
(-0.010064 -0.00911146 2.38867e-19)
(-0.0147581 -0.0101144 -4.54102e-20)
(-0.018523 -0.0111016 -2.63948e-20)
(-0.0216306 -0.0120675 5.64003e-20)
(-0.0242854 -0.0130169 -6.34441e-21)
(-0.0266306 -0.0139507 -4.99028e-20)
(-0.0287622 -0.0148642 -4.26703e-22)
(-0.0307414 -0.0157473 -2.11291e-19)
(-0.0326063 -0.0165855 1.03413e-19)
(-0.0343796 -0.0173636 1.62419e-19)
(-0.0360696 -0.0180948 -8.46284e-20)
(-0.0375077 -0.0190381 -7.70991e-20)
(-0.0390521 -0.0204141 2.00493e-19)
(1.03613 -2.01721 2.14474e-17)
(2.03489 -2.57516 -2.42848e-17)
(2.40659 -0.899433 6.55847e-18)
(2.27732 0.294926 2.09707e-17)
(1.81255 0.668222 -2.13505e-17)
(1.10431 1.28956 9.66966e-19)
(0.186211 2.50186 6.32932e-18)
(-0.818495 4.16041 6.41524e-18)
(-1.70039 5.7979 -5.19103e-18)
(-2.22191 6.82893 2.16357e-18)
(-2.26411 6.86263 1.95153e-18)
(-1.89933 5.94838 -3.63716e-18)
(-1.33349 4.50945 1.44153e-19)
(-0.784129 3.0411 -3.11453e-19)
(-0.377564 1.8615 1.93449e-18)
(-0.134383 1.06263 -9.25251e-19)
(-0.0167214 0.589862 8.20867e-19)
(0.0244877 0.338309 2.12524e-19)
(0.0283832 0.212092 1.11937e-19)
(0.0196105 0.14659 -1.00777e-19)
(0.0100338 0.107237 -3.93571e-20)
(0.00294638 0.0789478 -1.539e-20)
(-0.00224561 0.0562694 -1.59888e-19)
(-0.006331 0.0380069 1.95423e-19)
(-0.00952558 0.0239168 -2.54132e-19)
(-0.0120564 0.0135087 3.37605e-19)
(-0.0141438 0.0060951 2.05136e-19)
(-0.0159844 0.000924802 -3.31954e-19)
(-0.0176678 -0.00267048 2.20144e-19)
(-0.019244 -0.00522204 -4.90559e-20)
(-0.0207362 -0.00711417 -2.96321e-19)
(-0.0221548 -0.00860471 1.93607e-19)
(-0.023504 -0.00985559 -3.87341e-19)
(-0.0247836 -0.0109601 1.33409e-19)
(-0.0259903 -0.0119649 2.02964e-19)
(-0.0271214 -0.0128865 5.01166e-20)
(-0.0281751 -0.0137248 -8.58155e-20)
(-0.0291426 -0.0144982 5.20921e-19)
(-0.0297982 -0.0154482 8.7199e-20)
(-0.0305935 -0.016818 -9.34429e-20)
(0.489712 -3.55875 1.06799e-17)
(0.618523 -6.11553 -4.37994e-17)
(0.104821 -4.99082 3.69664e-17)
(-0.399872 -2.71727 2.53034e-19)
(-0.708576 -0.437491 -1.27141e-19)
(-1.39268 1.94802 -3.06982e-17)
(-2.35143 4.14105 5.75845e-18)
(-3.22743 5.64438 4.91473e-18)
(-3.65238 6.09265 -8.41155e-19)
(-3.48273 5.51845 7.90551e-18)
(-2.85827 4.32486 -1.36766e-17)
(-2.06088 3.00201 2.46495e-17)
(-1.33629 1.88109 -1.82906e-17)
(-0.80293 1.08167 -2.3864e-18)
(-0.4689 0.580747 1.56764e-18)
(-0.28857 0.298894 3.99586e-18)
(-0.202149 0.155541 -2.49315e-18)
(-0.161358 0.0895387 -9.41601e-19)
(-0.138402 0.0606291 3.07172e-18)
(-0.12021 0.0462959 -4.6261e-19)
(-0.1023 0.0363686 6.94013e-19)
(-0.0845475 0.027276 -4.66627e-19)
(-0.0679201 0.0187824 -4.30218e-19)
(-0.053406 0.0116782 8.50107e-19)
(-0.041841 0.0062355 -2.96474e-19)
(-0.0333267 0.00233451 -1.83296e-19)
(-0.0274269 -0.000352796 1.57275e-19)
(-0.0235869 -0.00219521 7.37079e-20)
(-0.0212774 -0.00352105 -6.60324e-20)
(-0.0200442 -0.00456913 9.57754e-20)
(-0.0195253 -0.0054921 -3.52746e-20)
(-0.0194498 -0.00637598 8.78145e-20)
(-0.0196223 -0.00725949 -3.03318e-19)
(-0.0199077 -0.00815023 2.80935e-19)
(-0.0202154 -0.00903633 2.70188e-19)
(-0.0204889 -0.0098943 -5.4508e-19)
(-0.0206954 -0.010697 5.23498e-19)
(-0.0208043 -0.0114427 -5.02408e-19)
(-0.0205261 -0.0123353 -1.41889e-19)
(-0.0204074 -0.0136342 -3.04283e-19)
(-0.44169 -0.765436 5.38712e-18)
(-0.550761 -3.62464 -1.73057e-17)
(-0.28713 -6.94717 3.01273e-17)
(-0.123265 -7.93851 1.69868e-17)
(-0.187763 -6.03924 -1.66748e-17)
(-0.553195 -2.89966 -5.0463e-18)
(-0.8297 -0.117521 -2.36116e-17)
(-0.789172 1.48322 8.16093e-18)
(-0.495433 1.98654 1.99427e-17)
(-0.15622 1.84192 1.57841e-17)
(0.0768931 1.40369 -1.65678e-17)
(0.168218 0.859653 4.91473e-18)
(0.159107 0.331227 6.05058e-18)
(0.107649 -0.0871702 -1.1828e-18)
(0.0531599 -0.346341 -1.17646e-17)
(0.011316 -0.452202 4.37576e-18)
(-0.0167552 -0.446849 -8.33133e-19)
(-0.0340995 -0.381785 1.79717e-18)
(-0.0443374 -0.297902 -1.0535e-18)
(-0.0484591 -0.219017 1.6054e-18)
(-0.0475926 -0.155037 -6.95868e-19)
(-0.0437162 -0.107333 -9.18728e-21)
(-0.0381866 -0.0731599 2.12071e-19)
(-0.0322181 -0.0493167 5.33957e-19)
(-0.0268651 -0.0330656 -6.24145e-19)
(-0.0225868 -0.0221602 9.53774e-20)
(-0.0194336 -0.0149523 1.85955e-19)
(-0.0172627 -0.0103246 -4.44523e-19)
(-0.0158502 -0.00750612 3.1301e-19)
(-0.0149663 -0.00595269 5.66725e-19)
(-0.0144137 -0.0052761 -5.86976e-20)
(-0.0140364 -0.00519802 -1.08782e-18)
(-0.0137174 -0.00551657 6.09715e-19)
(-0.0133727 -0.00608332 -4.3238e-19)
(-0.012945 -0.00678621 -2.04929e-19)
(-0.0124001 -0.0075378 8.34266e-19)
(-0.0117228 -0.00827035 -4.83634e-19)
(-0.0108894 -0.00895443 -9.50267e-20)
(-0.00955368 -0.00974745 7.44221e-19)
(-0.00834712 -0.0109203 -4.95806e-19)
(-0.253582 1.07834 7.03644e-18)
(0.598378 -1.41044 8.28112e-19)
(2.15595 -6.48954 -9.5619e-19)
(2.83764 -9.2792 8.53929e-18)
(2.56059 -8.46638 -1.16735e-17)
(2.02681 -5.64026 -1.24604e-17)
(1.63697 -2.43415 1.59236e-17)
(1.43266 0.166042 1.16148e-17)
(1.25481 1.90595 -1.01791e-17)
(0.987517 2.81631 3.26967e-19)
(0.662415 2.95998 -1.47983e-17)
(0.381987 2.48257 1.98423e-17)
(0.212228 1.66408 -1.04713e-17)
(0.145022 0.818677 -8.62458e-19)
(0.134979 0.165582 6.93024e-18)
(0.142216 -0.219929 -6.87584e-18)
(0.144905 -0.373657 1.30941e-18)
(0.136608 -0.378075 2.30592e-18)
(0.119172 -0.312372 -4.67932e-19)
(0.0966592 -0.23032 -4.35603e-19)
(0.073712 -0.158252 1.34722e-19)
(0.0535697 -0.103911 4.84002e-20)
(0.0371532 -0.0664757 2.45767e-19)
(0.0239775 -0.0421319 -1.53908e-19)
(0.0137701 -0.0266819 -2.1593e-19)
(0.0063104 -0.0168921 3.38452e-19)
(0.00110117 -0.0107078 -5.74496e-19)
(-0.0024114 -0.00687771 -2.77053e-19)
(-0.00464568 -0.00463278 -5.83413e-19)
(-0.0059243 -0.00346429 1.50929e-18)
(-0.00648549 -0.00303736 -5.65209e-19)
(-0.00649872 -0.00311843 -5.46591e-21)
(-0.00607572 -0.00353824 -4.20135e-19)
(-0.0052894 -0.00416832 -1.29124e-19)
(-0.00418677 -0.00490653 -7.06246e-19)
(-0.00280282 -0.00566767 -2.64981e-19)
(-0.00117113 -0.00638135 5.12757e-19)
(0.000699736 -0.00700892 -1.26263e-19)
(0.00319369 -0.00764713 5.5123e-19)
(0.00565321 -0.00857077 -4.6282e-19)
(0.977754 -0.250444 -9.07583e-18)
(2.5535 -1.29443 5.67426e-17)
(3.83604 -2.79134 -6.84262e-17)
(4.23658 -4.23652 8.33606e-17)
(3.80182 -4.86057 -6.38521e-17)
(2.98843 -4.18138 3.11517e-17)
(1.9637 -2.44249 -2.77638e-17)
(0.832485 -0.141903 -2.13063e-17)
(-0.296778 2.16955 4.0101e-17)
(-1.2312 3.93024 -1.05189e-18)
(-1.74952 4.72997 -2.83731e-17)
(-1.76687 4.51335 2.87374e-17)
(-1.40789 3.59822 -1.21841e-17)
(-0.905814 2.45356 -2.73871e-19)
(-0.455416 1.44694 -1.02409e-18)
(-0.145447 0.740962 4.89732e-18)
(0.0252754 0.331244 1.63998e-18)
(0.0970309 0.134245 -3.14537e-18)
(0.111962 0.0576198 5.24687e-19)
(0.101156 0.0351919 -8.15106e-19)
(0.0820868 0.0306287 -2.60565e-19)
(0.0621191 0.028352 -5.10903e-20)
(0.0443722 0.0243029 6.07641e-22)
(0.0303592 0.0191633 -3.16995e-20)
(0.0199355 0.0141944 3.63175e-19)
(0.0123971 0.0100735 1.31943e-19)
(0.00713674 0.00693782 -1.28894e-18)
(0.00364335 0.00464062 1.43229e-18)
(0.00153291 0.00294148 -3.80348e-19)
(0.00052994 0.00161973 -3.97252e-19)
(0.000393484 0.000496742 1.20826e-19)
(0.000952594 -0.000538188 3.05308e-19)
(0.00208555 -0.00154116 -2.93762e-19)
(0.00371 -0.00252499 1.13e-18)
(0.00576839 -0.00347172 2.93307e-19)
(0.00821514 -0.00434234 5.51366e-19)
(0.0110063 -0.00508792 -4.48773e-19)
(0.0141417 -0.00566676 8.82967e-19)
(0.0180495 -0.00612439 -8.46535e-20)
(0.0218722 -0.00681904 -3.48269e-19)
(1.45325 -2.8335 2.6225e-18)
(2.25441 -3.79049 8.42816e-18)
(1.63902 -1.30367 -1.368e-17)
(0.766161 1.09694 9.00386e-18)
(0.0589962 2.40058 -1.65449e-18)
(-0.874812 3.49538 -3.3341e-18)
(-2.09014 4.72813 2.89308e-18)
(-3.37156 6.01155 -1.78488e-18)
(-4.34456 6.96441 4.12036e-18)
(-4.66465 7.17429 -4.11767e-18)
(-4.25202 6.5036 2.89674e-18)
(-3.33599 5.20419 -8.68792e-19)
(-2.28025 3.72536 -8.17733e-18)
(-1.37383 2.43281 7.64421e-18)
(-0.738145 1.48432 -2.19464e-18)
(-0.359253 0.872648 -1.23265e-18)
(-0.16509 0.515024 -1.74188e-18)
(-0.0799049 0.318587 1.81216e-18)
(-0.0469862 0.212376 -2.23131e-18)
(-0.0341366 0.151421 5.72146e-19)
(-0.0270871 0.111525 6.53225e-19)
(-0.0210073 0.0820261 8.74569e-19)
(-0.0152369 0.0591418 -7.51626e-19)
(-0.0103553 0.0416494 -5.19109e-20)
(-0.00649231 0.028771 -7.40691e-19)
(-0.00351388 0.0196302 1.09042e-18)
(-0.00122366 0.0133219 9.09715e-20)
(0.000642333 0.00901119 -1.34164e-19)
(0.00232665 0.00602898 -1.27409e-19)
(0.00403919 0.00386585 2.77086e-19)
(0.00593199 0.00217882 -7.87809e-19)
(0.00810941 0.000752852 -9.63318e-20)
(0.0106411 -0.000528269 -7.12327e-19)
(0.0135702 -0.00171211 6.37876e-19)
(0.0169188 -0.00279757 -9.72743e-19)
(0.0206874 -0.00375109 7.75866e-19)
(0.0248553 -0.00452154 -2.03821e-19)
(0.029436 -0.00505666 -1.147e-18)
(0.0349162 -0.00535692 1.46985e-18)
(0.0402935 -0.00585356 -2.17756e-19)
(0.565309 -2.68637 3.10975e-17)
(0.937019 -5.49558 -3.92528e-18)
(0.574512 -6.08925 -5.1233e-17)
(0.0252335 -5.09729 2.19426e-17)
(-0.538693 -3.08843 -4.40492e-17)
(-1.5329 -0.717827 5.67099e-17)
(-2.59558 1.31107 -3.93209e-17)
(-3.25679 2.49217 2.34536e-18)
(-3.28337 2.76167 4.66252e-17)
(-2.7853 2.41109 -3.59978e-17)
(-2.05193 1.80324 -1.58588e-18)
(-1.33782 1.18221 7.49408e-18)
(-0.780516 0.661964 3.49213e-18)
(-0.411982 0.282268 1.511e-17)
(-0.202379 0.0440112 -6.67115e-18)
(-0.102403 -0.076704 -7.98897e-18)
(-0.0656599 -0.116222 1.27759e-17)
(-0.0579169 -0.11021 -1.72887e-18)
(-0.0587495 -0.0861164 -2.74463e-18)
(-0.0585577 -0.0601896 -1.07189e-18)
(-0.0541944 -0.0390328 3.3771e-18)
(-0.046349 -0.0240074 -2.28459e-18)
(-0.0363689 -0.0140193 -1.10836e-19)
(-0.0258507 -0.00736797 4.59423e-20)
(-0.016583 -0.00310006 -4.03276e-19)
(-0.00907682 -0.000480938 1.2071e-18)
(-0.00310457 0.00104449 -7.79569e-19)
(0.00169983 0.00179118 3.46589e-19)
(0.00574098 0.00195169 -2.95493e-19)
(0.00938428 0.00166387 5.76153e-19)
(0.0129249 0.00103667 1.39349e-19)
(0.0165849 0.000166813 1.03263e-18)
(0.0205233 -0.000856167 -1.38753e-18)
(0.024847 -0.0019458 3.58107e-19)
(0.0296216 -0.00301359 -1.27199e-19)
(0.0348741 -0.00396726 2.85848e-19)
(0.0405956 -0.0047128 1.75161e-18)
(0.0468031 -0.00515888 -1.23895e-18)
(0.0540331 -0.00522186 -8.39546e-20)
(0.0611593 -0.00537184 7.80167e-19)
(-0.663868 0.329258 1.47506e-17)
(-0.0956721 -2.14087 -1.14394e-17)
(1.49388 -6.26376 4.91307e-17)
(2.28476 -7.9218 -3.40518e-17)
(1.97118 -6.26267 2.60859e-18)
(1.20184 -3.2562 -1.52193e-17)
(0.645795 -0.544863 1.36464e-17)
(0.490831 1.1413 8.44319e-18)
(0.544158 1.89921 -8.21806e-18)
(0.579899 2.04598 5.59696e-18)
(0.529429 1.79046 2.21875e-18)
(0.435809 1.27255 -9.94408e-19)
(0.356104 0.656782 -1.79103e-18)
(0.308527 0.109477 -9.142e-19)
(0.279649 -0.264376 1.1247e-18)
(0.251332 -0.444429 -5.8751e-19)
(0.214587 -0.472193 -3.51792e-19)
(0.171208 -0.411772 2.19082e-19)
(0.127346 -0.319305 -2.5983e-19)
(0.0894238 -0.228704 7.5757e-19)
(0.0605801 -0.15494 -1.38367e-18)
(0.0401862 -0.100857 6.59818e-19)
(0.026783 -0.0634055 -4.54309e-19)
(0.0189469 -0.0385478 -1.09176e-19)
(0.0148636 -0.0225695 5.09432e-19)
(0.0132233 -0.0125032 7.32265e-20)
(0.0132767 -0.00632784 -9.70056e-20)
(0.0145383 -0.00272036 7.37866e-19)
(0.0167214 -0.000845596 9.02044e-19)
(0.0196709 -0.000145737 -1.53374e-19)
(0.023304 -0.000235754 3.8824e-19)
(0.0275847 -0.000841582 -4.23699e-19)
(0.0325017 -0.00176112 1.26332e-18)
(0.0380561 -0.00283432 -1.53199e-18)
(0.0442504 -0.00392222 -1.2917e-20)
(0.0510743 -0.00489362 9.3704e-19)
(0.0584943 -0.00561909 -4.09353e-19)
(0.0665113 -0.00596366 -1.7632e-18)
(0.0757073 -0.00573374 1.6767e-18)
(0.0848137 -0.00541333 1.25832e-18)
(0.0714926 0.823657 -2.72665e-17)
(1.81971 -1.18164 7.72593e-17)
(4.3805 -5.28713 -1.44981e-17)
(5.61151 -7.97465 6.79821e-18)
(5.25818 -7.99058 -5.94553e-17)
(4.19448 -6.03512 5.15819e-17)
(2.95441 -3.21369 -2.00981e-17)
(1.78103 -0.431649 -2.03811e-18)
(0.731517 1.79304 3.61695e-17)
(-0.133133 3.1765 -4.6796e-17)
(-0.692963 3.60835 1.34689e-17)
(-0.874782 3.22066 5.77418e-19)
(-0.745417 2.35475 8.1978e-18)
(-0.465202 1.39753 4.79788e-18)
(-0.184991 0.6207 -1.0981e-17)
(0.0144435 0.126712 -1.45927e-18)
(0.119214 -0.110835 8.044e-18)
(0.152412 -0.177039 -4.66387e-18)
(0.145263 -0.157176 -2.51679e-19)
(0.121388 -0.110286 3.85433e-19)
(0.09478 -0.0663597 -9.31266e-19)
(0.0720674 -0.034787 2.74092e-20)
(0.0542833 -0.0155659 4.32655e-19)
(0.0412304 -0.00539525 4.26428e-20)
(0.0326796 -0.000526483 1.03407e-19)
(0.027767 0.00152484 -6.88177e-19)
(0.0256554 0.00213313 -4.98846e-19)
(0.0257094 0.002016 5.40365e-19)
(0.0274357 0.00146762 -1.06324e-18)
(0.0305263 0.000638861 -7.94306e-19)
(0.0347627 -0.000388771 1.02764e-18)
(0.039993 -0.0015628 2.57111e-19)
(0.0461232 -0.00283004 5.39232e-19)
(0.0530984 -0.00412235 1.08722e-19)
(0.0608872 -0.0053517 8.6246e-20)
(0.0694596 -0.00640651 -1.23832e-18)
(0.0787682 -0.00715231 6.08156e-19)
(0.0888066 -0.0074177 1.40234e-18)
(0.100215 -0.00687825 -1.96567e-18)
(0.111568 -0.00601364 1.88694e-18)
(1.41437 -0.826274 2.74399e-17)
(2.69147 -0.851466 -2.21563e-17)
(3.09222 -0.0101174 1.78065e-18)
(3.09016 0.101213 -1.76424e-18)
(2.74906 -0.30398 6.45645e-17)
(1.97753 -0.204179 -4.14979e-17)
(0.761435 0.626986 -1.99523e-17)
(-0.741886 2.00561 4.12707e-17)
(-2.2407 3.52252 -6.00682e-18)
(-3.35203 4.67903 8.30393e-18)
(-3.76995 5.09012 6.27443e-18)
(-3.45681 4.68737 -1.82977e-17)
(-2.66244 3.73099 1.62224e-17)
(-1.74864 2.61341 -4.32921e-18)
(-0.984578 1.64036 2.01602e-18)
(-0.470056 0.944562 -5.46878e-18)
(-0.181091 0.518501 -2.64389e-18)
(-0.0460393 0.288219 2.03014e-18)
(0.0039623 0.174006 1.37605e-19)
(0.0161758 0.117846 -2.41173e-19)
(0.0160897 0.0867772 -1.00663e-19)
(0.0144971 0.0654531 3.39543e-19)
(0.0142573 0.0483257 -4.02001e-19)
(0.015341 0.0342897 9.55225e-19)
(0.0175835 0.0232934 -1.13717e-18)
(0.0207199 0.0151548 -3.43262e-19)
(0.0245578 0.00939868 8.05385e-19)
(0.0290254 0.00538654 -3.34817e-19)
(0.0340766 0.00251627 7.16496e-19)
(0.0397706 0.000349326 6.829e-19)
(0.0461696 -0.00142764 -7.61316e-19)
(0.0533196 -0.00301429 -7.77987e-19)
(0.0612666 -0.00451039 3.50825e-18)
(0.0700543 -0.00594009 4.58534e-18)
(0.0797151 -0.00726444 -1.44209e-18)
(0.0902615 -0.00839024 -1.37803e-18)
(0.101672 -0.00917406 2.05721e-18)
(0.113962 -0.00939758 -1.09278e-18)
(0.127859 -0.00856916 2.00488e-18)
(0.141775 -0.00712805 -8.08583e-19)
(1.92938 -3.14401 -1.90153e-17)
(2.95214 -4.9701 8.44773e-18)
(1.85743 -3.29372 -1.34375e-17)
(0.435403 -0.952544 2.55132e-17)
(-0.646084 0.921863 -9.73771e-18)
(-2.01687 2.59407 -9.21106e-18)
(-3.64819 4.0841 1.31229e-18)
(-5.15094 5.17839 -2.3279e-17)
(-6.02176 5.60349 2.27471e-17)
(-5.95897 5.25264 -2.42944e-17)
(-5.07287 4.3124 6.44457e-18)
(-3.77988 3.14644 1.59385e-17)
(-2.51165 2.08003 -1.06682e-17)
(-1.52095 1.27317 1.55217e-17)
(-0.86458 0.736668 -1.94854e-17)
(-0.4839 0.411148 -1.18611e-17)
(-0.286063 0.227104 1.08071e-17)
(-0.188938 0.129598 -7.02813e-18)
(-0.138307 0.0796873 -3.35074e-20)
(-0.105836 0.0527976 3.74944e-18)
(-0.0798613 0.0360462 -2.89554e-18)
(-0.0564365 0.023945 1.00983e-18)
(-0.0349825 0.0147913 2.51652e-18)
(-0.0162159 0.00808614 -7.69986e-19)
(-0.000435399 0.00346918 -1.55101e-18)
(0.0127333 0.000584699 1.3996e-18)
(0.0238078 -0.00114694 2.26042e-19)
(0.033458 -0.00225119 -5.84578e-19)
(0.042321 -0.00308699 -4.94448e-19)
(0.0509282 -0.00388277 1.38673e-18)
(0.059692 -0.00476718 -2.59967e-18)
(0.0689163 -0.00579078 1.42908e-18)
(0.0788122 -0.00695006 -1.34183e-18)
(0.0895328 -0.0081993 3.57517e-18)
(0.10119 -0.00945042 1.91277e-18)
(0.11385 -0.0105766 1.04585e-18)
(0.127532 -0.0114023 5.51892e-19)
(0.142284 -0.011649 4.78095e-19)
(0.158966 -0.0106138 3.75272e-19)
(0.175808 -0.00867479 1.07987e-19)
(0.27985 -1.5452 1.5254e-17)
(1.16219 -4.37141 8.41683e-18)
(1.98246 -6.68496 -5.75539e-17)
(2.09762 -7.06049 5.57088e-17)
(1.34112 -5.32064 -2.51474e-17)
(-0.114078 -2.73382 -2.71713e-17)
(-1.46627 -0.412384 9.07909e-17)
(-2.13342 1.01282 -3.26012e-17)
(-2.0706 1.54905 -2.90438e-17)
(-1.59028 1.51521 3.08013e-19)
(-1.02011 1.20238 1.70466e-17)
(-0.540567 0.781004 -7.74704e-18)
(-0.205994 0.357663 -3.86275e-17)
(-0.005978 0.0122792 2.14052e-17)
(0.092041 -0.211309 -7.71338e-18)
(0.122361 -0.314124 -9.61894e-19)
(0.113456 -0.327031 9.43178e-18)
(0.0875231 -0.289174 1.03874e-18)
(0.0588063 -0.233245 -7.30441e-20)
(0.0363454 -0.177911 -1.57629e-18)
(0.0232071 -0.131027 -1.41593e-18)
(0.018084 -0.0946585 9.92995e-19)
(0.0189196 -0.0675347 2.84851e-18)
(0.0233697 -0.0477437 -2.65515e-18)
(0.0295818 -0.0335089 7.40089e-19)
(0.0366145 -0.0235103 -2.07589e-19)
(0.0439976 -0.0167602 4.78852e-19)
(0.051681 -0.0124248 3.1983e-20)
(0.0597911 -0.00985633 9.98073e-19)
(0.0685035 -0.00857025 1.59313e-19)
(0.0779759 -0.00820656 -3.8298e-19)
(0.0883424 -0.00849343 -8.99924e-19)
(0.0997121 -0.00922238 3.64013e-18)
(0.11217 -0.010226 -1.66229e-18)
(0.125791 -0.0113556 9.18334e-20)
(0.140628 -0.0124594 -3.88447e-19)
(0.156707 -0.0133541 -2.05995e-18)
(0.174116 -0.0137279 2.41047e-18)
(0.193866 -0.0126594 -4.5836e-19)
(0.213998 -0.0103716 1.03148e-18)
(-0.803715 0.819069 -2.72429e-18)
(0.568583 -1.29368 4.0227e-18)
(3.57633 -5.50374 9.05066e-19)
(5.06039 -7.65501 -3.44514e-18)
(4.4739 -6.63257 2.11346e-19)
(3.03452 -3.97739 -1.37283e-18)
(1.74229 -1.17983 -6.44424e-18)
(0.950521 0.918064 3.17861e-18)
(0.503187 2.16728 4.60035e-18)
(0.190367 2.68394 -3.84909e-18)
(-0.0263949 2.59172 -8.46518e-18)
(-0.09992 2.04934 8.68934e-18)
(-0.0280111 1.29731 -2.37199e-18)
(0.120033 0.579926 5.60998e-18)
(0.259546 0.0533711 -2.87889e-18)
(0.341494 -0.240885 -2.90016e-18)
(0.35837 -0.344253 4.42462e-18)
(0.328485 -0.330053 -2.35654e-19)
(0.275842 -0.264611 -8.7607e-19)
(0.219274 -0.190739 8.67942e-19)
(0.17014 -0.128719 -2.81762e-19)
(0.132419 -0.08366 -4.43434e-19)
(0.105953 -0.053459 1.34766e-18)
(0.0889019 -0.0342158 -8.49789e-19)
(0.0789452 -0.0224466 4.32116e-19)
(0.0743142 -0.0155384 -1.1101e-18)
(0.0738775 -0.0116053 7.44592e-19)
(0.0767623 -0.00949441 -1.93972e-19)
(0.0823025 -0.00854865 3.20322e-20)
(0.0900296 -0.00837549 2.14987e-19)
(0.0996305 -0.00871643 6.52206e-20)
(0.110897 -0.00939863 1.43186e-18)
(0.123701 -0.0103027 -1.78631e-18)
(0.137977 -0.0113387 4.85435e-19)
(0.153706 -0.0124295 -1.59116e-18)
(0.170902 -0.013498 2.67412e-18)
(0.18959 -0.0144441 -1.2277e-18)
(0.209926 -0.0150168 3.33368e-18)
(0.233236 -0.0140991 -9.93961e-19)
(0.257433 -0.0116007 3.04157e-19)
(0.611012 0.442907 2.09974e-17)
(2.65808 -0.443254 1.70202e-17)
(5.12142 -2.46148 9.36393e-18)
(6.42574 -4.27045 4.34391e-17)
(6.24254 -4.92705 -4.22601e-18)
(5.11974 -4.18163 1.17659e-17)
(3.46966 -2.47265 -9.93423e-18)
(1.60948 -0.379572 5.40085e-18)
(-0.206787 1.58357 -1.96589e-17)
(-1.67736 2.98357 2.5309e-17)
(-2.49874 3.55542 3.37135e-18)
(-2.56574 3.32526 1.1085e-17)
(-2.06881 2.58507 1.07247e-17)
(-1.34927 1.7068 -4.81686e-17)
(-0.692177 0.961293 1.80799e-17)
(-0.232557 0.456956 -3.98998e-18)
(0.0230978 0.179919 3.0367e-18)
(0.13136 0.0612872 -4.20344e-18)
(0.157437 0.0280972 6.97854e-19)
(0.147583 0.0277459 -2.84902e-19)
(0.127147 0.0325048 -2.87665e-19)
(0.108172 0.0332441 -5.13885e-19)
(0.0944311 0.0293458 -2.64146e-19)
(0.0860437 0.0227275 -8.38397e-19)
(0.0822788 0.0154696 1.77337e-18)
(0.0822884 0.00884661 -6.75987e-19)
(0.0853984 0.00342092 6.90815e-19)
(0.0911497 -0.000755699 1.10447e-18)
(0.0991818 -0.00390928 -2.0223e-18)
(0.109233 -0.00629562 2.88791e-18)
(0.121115 -0.00813465 -2.32343e-18)
(0.134695 -0.00959394 1.88448e-18)
(0.14989 -0.0107874 -3.58552e-18)
(0.16666 -0.0117889 -1.66137e-19)
(0.185006 -0.0126443 1.21108e-18)
(0.20496 -0.0133894 7.66829e-19)
(0.226588 -0.0140671 2.56385e-18)
(0.250149 -0.0145919 -1.82447e-18)
(0.277611 -0.0136979 2.347e-19)
(0.306894 -0.0112766 -1.38898e-18)
(2.13105 -1.58168 2.35973e-18)
(3.20581 -1.71502 -3.91974e-18)
(2.20657 0.281448 -1.88569e-17)
(1.06947 1.75705 -1.38305e-17)
(0.300788 2.2255 1.84243e-17)
(-0.697074 2.56569 -6.41619e-18)
(-2.12271 3.12316 1.05971e-17)
(-3.80877 3.89652 -1.40263e-17)
(-5.31658 4.64488 1.05016e-17)
(-6.12251 5.03317 4.53798e-19)
(-5.94933 4.83326 4.15653e-18)
(-4.9493 4.09158 -7.02761e-19)
(-3.57147 3.08332 -1.95829e-18)
(-2.2657 2.10605 2.07392e-18)
(-1.28016 1.33437 -8.02495e-19)
(-0.652765 0.808527 1.13374e-18)
(-0.306331 0.488054 9.26173e-19)
(-0.138042 0.306165 -2.10768e-18)
(-0.0634257 0.204705 1.36141e-18)
(-0.028888 0.145083 5.47321e-19)
(-0.00807741 0.105925 1.61445e-19)
(0.00926569 0.0768711 6.1923e-19)
(0.0259655 0.0539845 -3.59924e-19)
(0.042021 0.03582 1.47512e-18)
(0.0570545 0.021625 -1.0545e-18)
(0.0711717 0.0109815 3.85657e-19)
(0.0848556 0.00338206 -9.44966e-19)
(0.0985284 -0.00194282 8.02932e-19)
(0.112592 -0.00564893 -1.19034e-18)
(0.127404 -0.00821333 -1.98133e-18)
(0.143239 -0.00997781 -4.22292e-19)
(0.160301 -0.0111678 -1.73608e-18)
(0.178742 -0.0119216 1.99137e-18)
(0.198684 -0.0123185 -9.2905e-19)
(0.220244 -0.0124019 -2.62666e-18)
(0.243539 -0.0122241 -1.13558e-18)
(0.268724 -0.0118726 4.12235e-18)
(0.296156 -0.0114147 1.10509e-18)
(0.328369 -0.00956523 -5.4856e-18)
(0.363249 -0.00673613 -3.55814e-18)
(2.02057 -2.68978 -3.74591e-18)
(3.49772 -5.06821 4.59929e-18)
(2.87061 -4.96179 3.48099e-17)
(1.57384 -3.63655 2.58047e-17)
(0.189845 -1.81744 -3.59349e-17)
(-1.69689 0.03826 -3.94114e-17)
(-3.67744 1.55591 7.05227e-18)
(-5.10698 2.43199 1.06187e-17)
(-5.53684 2.59669 4.70528e-17)
(-4.99492 2.23748 -1.51301e-17)
(-3.88291 1.65024 -3.35332e-17)
(-2.65727 1.07344 4.22502e-17)
(-1.62294 0.616776 -1.43533e-17)
(-0.895377 0.2983 -8.1805e-18)
(-0.45354 0.100766 -9.34095e-19)
(-0.220792 -0.00587483 -6.22557e-18)
(-0.11531 -0.0523812 7.22048e-18)
(-0.0734918 -0.0638315 -3.49865e-18)
(-0.0557764 -0.0586757 7.89012e-19)
(-0.0422698 -0.0483206 -4.13979e-18)
(-0.0261388 -0.0386161 4.10814e-18)
(-0.00673343 -0.0313137 -2.62623e-18)
(0.0148401 -0.0260028 3.70003e-18)
(0.0367553 -0.0222934 2.01818e-18)
(0.0578546 -0.0196479 -4.5597e-18)
(0.0776657 -0.0176475 3.37568e-18)
(0.096292 -0.0163088 -1.05989e-18)
(0.114228 -0.0155196 -5.81319e-19)
(0.132071 -0.0150956 4.11006e-19)
(0.150337 -0.0148814 -1.60232e-18)
(0.169441 -0.0147437 -6.66213e-20)
(0.189714 -0.0145613 2.4542e-18)
(0.211422 -0.0142256 -6.26056e-19)
(0.234795 -0.0136407 -2.35175e-19)
(0.260064 -0.0127303 -1.87205e-18)
(0.287516 -0.0114491 -5.34615e-19)
(0.317586 -0.00979724 4.8305e-18)
(0.351054 -0.00789628 -2.78919e-18)
(0.388975 -0.00729423 -9.158e-19)
(0.435614 -0.00855599 2.29055e-18)
(-0.308088 -0.493529 2.49562e-17)
(1.11327 -2.89802 -1.88497e-17)
(3.53959 -5.94851 -1.36799e-17)
(4.48658 -6.96481 -1.05327e-17)
(3.44103 -5.36894 7.52078e-19)
(1.45962 -2.7378 3.0873e-17)
(-0.190296 -0.37248 -2.71582e-17)
(-0.930508 1.09267 -4.61313e-18)
(-0.942507 1.71235 1.0672e-17)
(-0.655661 1.77768 -1.82246e-17)
(-0.340672 1.50772 1.25341e-17)
(-0.0775611 1.04168 3.8478e-18)
(0.130059 0.517949 -3.04973e-17)
(0.278422 0.0672471 8.01102e-18)
(0.358782 -0.233494 2.93001e-18)
(0.373733 -0.376048 -3.36199e-20)
(0.340222 -0.39858 5.31465e-18)
(0.282604 -0.353111 -7.91038e-18)
(0.221499 -0.283403 3.60534e-18)
(0.170232 -0.214664 -4.44695e-19)
(0.134408 -0.15748 1.1653e-18)