/*--------------------------------*- C++ -*----------------------------------*\
  =========                 |
  \\      /  F ield         | OpenFOAM: The Open Source CFD Toolbox
   \\    /   O peration     | Website:  https://openfoam.org
    \\  /    A nd           | Version:  7
     \\/     M anipulation  |
\*---------------------------------------------------------------------------*/
FoamFile
{
    version     2.0;
    format      ascii;
    class       volVectorField;
    location    "22";
    object      U;
}
// * * * * * * * * * * * * * * * * * * * * * * * * * * * * * * * * * * * * * //

dimensions      [0 1 -1 0 0 0 0];

internalField   nonuniform List<vector> 
5600
(
(-0.00375839 0.00127624 -1.45016e-20)
(-0.0140983 0.00190329 -2.20893e-20)
(-0.0265502 0.00168941 1.14232e-21)
(-0.0345866 0.00102606 1.97879e-20)
(-0.0379731 0.000146384 1.02112e-21)
(-0.0358822 -0.000834487 1.50293e-20)
(-0.0285536 -0.00184269 -1.46234e-20)
(-0.0157867 -0.00282395 -1.90724e-21)
(0.000411833 -0.00359899 -2.96872e-20)
(0.0221002 -0.00427094 -8.6231e-21)
(-0.00390482 0.0037984 5.42034e-20)
(-0.014104 0.00565501 -2.54509e-20)
(-0.0260957 0.00500879 8.65997e-20)
(-0.0335163 0.00302321 -2.24228e-20)
(-0.0361591 0.000395105 -1.35106e-20)
(-0.0332307 -0.00253246 1.775e-21)
(-0.024991 -0.00553921 3.18916e-21)
(-0.0112116 -0.00846079 2.17372e-20)
(0.00594958 -0.0107774 4.13658e-20)
(0.0290981 -0.0127511 7.6246e-21)
(-0.00419016 0.00623032 -1.67311e-20)
(-0.0141021 0.0092434 3.84558e-20)
(-0.0251731 0.00815118 -9.98749e-20)
(-0.0313637 0.00485678 -3.61998e-20)
(-0.0325223 0.000512948 1.13293e-19)
(-0.0279234 -0.00431644 -4.17666e-20)
(-0.017867 -0.00927029 -8.30533e-20)
(-0.00207415 -0.0140684 -2.02341e-20)
(0.0169987 -0.0178911 -3.65819e-20)
(0.0430516 -0.0210422 2.81509e-20)
(-0.00459962 0.00851439 5.91899e-21)
(-0.0140666 0.0125637 -6.67113e-20)
(-0.0237553 0.0110031 4.45436e-20)
(-0.0281049 0.0064222 2.23587e-20)
(-0.0270453 0.000416945 -2.13583e-19)
(-0.0199525 -0.00624018 1.66967e-20)
(-0.00718542 -0.0130607 1.41093e-19)
(0.0116033 -0.0196266 1.20918e-19)
(0.0335088 -0.0248877 9.84345e-20)
(0.0638719 -0.0290096 8.03289e-20)
(-0.00511143 0.0105967 -1.03973e-20)
(-0.0139586 0.0155175 -2.01781e-20)
(-0.0218019 0.0134577 8.65659e-20)
(-0.0237037 0.00762159 -1.38133e-20)
(-0.0197014 3.06673e-05 1.01898e-20)
(-0.00930703 -0.00835019 5.79651e-20)
(0.00704668 -0.0169164 2.83889e-20)
(0.0297902 -0.0251135 -1.80054e-19)
(0.0554046 -0.0317156 -3.35428e-20)
(0.0914185 -0.0365113 -1.59467e-19)
(-0.00569741 0.0124283 -6.23967e-21)
(-0.0137275 0.0180144 1.38586e-19)
(-0.0192593 0.0154176 -1.33259e-19)
(-0.0181116 0.00836653 2.67419e-20)
(-0.0104542 -0.00071306 -1.27065e-19)
(0.00403205 -0.0106834 2.09015e-19)
(0.0248166 -0.0208338 -5.882e-20)
(0.0524365 -0.030494 9.24382e-20)
(0.0825881 -0.0383185 -4.40036e-20)
(0.125496 -0.0433957 -9.1505e-20)
(-0.00632363 0.0139663 6.65305e-20)
(-0.013311 0.0199749 -1.36466e-19)
(-0.0160612 0.0167971 1.76936e-20)
(-0.011268 0.0085807 1.46706e-19)
(0.000742226 -0.00186946 1.19831e-19)
(0.0200878 -0.013266 -9.08748e-20)
(0.046113 -0.0248095 1.38318e-19)
(0.0794769 -0.0357101 8.48901e-21)
(0.114931 -0.044627 1.52387e-19)
(0.165843 -0.0495009 6.22844e-20)
(-0.00695115 0.015175 -1.42854e-19)
(-0.0126368 0.0213315 1.09473e-19)
(-0.0121289 0.0175247 -3.99264e-20)
(-0.00310021 0.00820269 -4.1551e-20)
(0.0139436 -0.00347878 -9.41138e-20)
(0.0388876 -0.0161091 -1.88464e-19)
(0.0709216 -0.028821 1.78019e-20)
(0.110829 -0.0406917 -1.69225e-20)
(0.152274 -0.0505572 -1.13033e-19)
(0.212122 -0.0546556 4.81755e-20)
(-0.0075369 0.0160263 7.86009e-20)
(-0.0116227 0.0220306 -2.70249e-19)
(-0.00737209 0.0175452 3.16928e-19)
(0.00647632 0.00718866 -6.84153e-20)
(0.0292151 -0.00556337 1.7829e-19)
(0.0604626 -0.0192055 1.41965e-19)
(0.0992232 -0.0328261 -2.60294e-19)
(0.14639 -0.0453515 3.01699e-19)
(0.194424 -0.0560076 3.43695e-20)
(0.263906 -0.0586822 1.44155e-19)
(-0.00803432 0.0164997 1.51337e-19)
(-0.0101788 0.0220341 4.87295e-19)
(-0.00168973 0.0168221 -3.379e-19)
(0.0175568 0.00551478 -5.51721e-22)
(0.04663 -0.0081248 7.35355e-20)
(0.0848464 -0.0225273 1.24007e-19)
(0.130991 -0.0367616 1.11537e-19)
(0.186029 -0.0495818 -4.76624e-19)
(0.24115 -0.060854 -1.68362e-19)
(0.320666 -0.061402 4.92966e-21)
(-0.00839337 0.0165814 -2.30049e-19)
(-0.0082086 0.0213216 -1.75326e-19)
(0.00502828 0.0153386 2.27496e-19)
(0.0302461 0.00317968 1.80976e-19)
(0.0662686 -0.0111411 -1.52065e-19)
(0.112072 -0.0260232 1.80361e-19)
(0.166188 -0.0405413 -5.6024e-20)
(0.229581 -0.0532546 -5.38267e-20)
(0.292173 -0.0649461 -9.75384e-20)
(0.381759 -0.0626412 -1.43713e-20)
(-0.0085626 0.0162691 -3.42664e-20)
(-0.00560825 0.0198874 -4.96813e-19)
(0.0128994 0.0130998 -1.13854e-19)
(0.044656 0.000206456 -1.69918e-19)
(0.0882145 -0.0145643 8.68209e-20)
(0.142169 -0.0296164 -6.19486e-20)
(0.204758 -0.0440545 -2.50907e-19)
(0.276838 -0.0562237 2.10764e-19)
(0.347161 -0.0681043 2.38115e-19)
(0.446416 -0.0622404 -1.41937e-19)
(-0.00849134 0.0155687 3.61118e-20)
(-0.00227065 0.0177415 7.67932e-19)
(0.0220474 0.0101333 -1.8444e-19)
(0.0609035 -0.00335568 2.83788e-19)
(0.112551 -0.018319 9.7596e-20)
(0.175154 -0.0332032 1.80613e-19)
(0.246618 -0.0471662 -5.24421e-20)
(0.327542 -0.0583304 -1.44938e-19)
(0.405717 -0.0701204 -1.47506e-19)
(0.513743 -0.0600654 1.91195e-19)
(-0.00812691 0.014491 6.40164e-19)
(0.00191278 0.0149141 -7.6973e-19)
(0.0325991 0.00649023 -2.24022e-19)
(0.0791058 -0.00743038 -2.62022e-21)
(0.139356 -0.022301 1.2898e-19)
(0.211028 -0.0366534 -3.72086e-20)
(0.291653 -0.049718 4.83922e-19)
(0.381374 -0.0594102 4.49352e-19)
(0.467368 -0.0707615 2.16493e-19)
(0.58272 -0.0560225 1.63364e-19)
(-0.00741666 0.0130544 -7.58433e-20)
(0.00705156 0.0114522 1.2754e-19)
(0.0446811 0.00224533 5.91713e-19)
(0.0993769 -0.0119139 -1.0606e-19)
(0.168696 -0.0263775 -5.488e-19)
(0.249765 -0.039811 -5.46423e-19)
(0.339696 -0.0515328 -1.64036e-20)
(0.437948 -0.0593036 -5.97688e-19)
(0.531554 -0.0697801 -2.0763e-19)
(0.652224 -0.0500849 -3.54255e-19)
(-0.00630877 0.0112847 -4.98742e-19)
(0.0132541 0.00741917 2.53162e-19)
(0.0584167 -0.00250359 -3.7215e-19)
(0.121821 -0.0166753 -2.99276e-19)
(0.200615 -0.0303887 6.82167e-19)
(0.291304 -0.0424974 4.09231e-20)
(0.390526 -0.05242 -2.89926e-19)
(0.496809 -0.0578665 1.07989e-19)
(0.597623 -0.0669283 1.27087e-19)
(0.721049 -0.0423189 1.33415e-19)
(-0.00475256 0.00921363 -9.68385e-20)
(0.0206253 0.0028945 -1.83113e-19)
(0.0739217 -0.00763621 -1.38203e-19)
(0.146529 -0.0215582 7.7984e-20)
(0.23513 -0.0341503 -7.94557e-19)
(0.335537 -0.0445162 1.3164e-19)
(0.44385 -0.0521847 1.75867e-19)
(0.55743 -0.0549818 3.84725e-19)
(0.664821 -0.0619604 2.03882e-20)
(0.787911 -0.0328535 8.08213e-20)
(-0.00269892 0.0068788 1.84579e-19)
(0.0292647 -0.00202713 1.8628e-19)
(0.0913005 -0.0130112 3.49935e-19)
(0.173567 -0.0263832 1.35334e-19)
(0.272222 -0.0374578 5.20792e-19)
(0.382301 -0.0456597 -1.90762e-19)
(0.4993 -0.050641 -2.20536e-19)
(0.619234 -0.0505693 -1.1145e-20)
(0.732294 -0.0546066 9.84914e-20)
(0.851417 -0.0218124 -1.59921e-19)
(-0.000100821 0.00432306 2.18402e-19)
(0.0392635 -0.00723678 4.93691e-19)
(0.110641 -0.0184681 2.89064e-19)
(0.202974 -0.0309508 -2.29786e-20)
(0.311824 -0.0400925 3.47955e-19)
(0.431369 -0.0457181 6.99861e-19)
(0.556429 -0.0476295 2.59928e-19)
(0.681623 -0.0445899 -2.52263e-19)
(0.79917 -0.0445987 -3.88335e-19)
(0.910424 -0.00980898 -1.61051e-19)
(0.00308609 0.00159423 1.88777e-19)
(0.0507027 -0.0126125 -5.43052e-19)
(0.132011 -0.0238298 -4.45022e-19)
(0.234753 -0.0350464 -1.95949e-19)
(0.353816 -0.0418278 -5.57396e-19)
(0.482441 -0.0444881 -1.75909e-19)
(0.614709 -0.043031 -2.34549e-19)
(0.743972 -0.0370335 9.32713e-20)
(0.864645 -0.031994 1.05361e-20)
(0.965368 0.000273448 -4.23675e-20)
(0.00690289 -0.00125527 -2.71782e-19)
(0.0636502 -0.0180208 1.68726e-19)
(0.155451 -0.0289058 3.41885e-19)
(0.268867 -0.038445 3.46622e-19)
(0.398019 -0.0424373 5.22553e-19)
(0.535146 -0.0417822 1.77154e-19)
(0.673529 -0.0367667 -2.55521e-19)
(0.805533 -0.0279137 -9.446e-20)
(0.927579 -0.0177696 4.99966e-19)
(1.02005 0.0043378 4.84055e-19)
(0.0113866 -0.00416861 -1.28862e-19)
(0.0781583 -0.0233182 -8.89911e-20)
(0.180973 -0.0334953 -7.90095e-19)
(0.30523 -0.0409175 -5.53636e-20)
(0.44419 -0.0417024 -1.0035e-18)
(0.589039 -0.037436 -5.65525e-19)
(0.732224 -0.0287866 1.10908e-19)
(0.865403 -0.0172895 3.23022e-20)
(0.985793 -0.00359873 -2.95953e-19)
(1.0747 0.0082189 -3.31616e-19)
(0.0165693 -0.00708485 3.17798e-19)
(0.0942612 -0.0283527 -4.79536e-20)
(0.208557 -0.0373917 2.81186e-20)
(0.343707 -0.0422369 -1.62839e-19)
(0.492028 -0.0394213 9.05111e-19)
(0.643622 -0.0313169 1.46463e-19)
(0.790115 -0.0190711 -1.66161e-19)
(0.922774 -0.00516387 1.48942e-21)
(1.03887 0.0108597 -7.09997e-19)
(1.12304 0.0173819 2.96106e-19)
(0.0224774 -0.00993917 -5.73612e-19)
(0.111972 -0.0329664 1.31667e-19)
(0.238143 -0.0403866 1.82792e-19)
(0.384112 -0.0421859 -7.33302e-20)
(0.541172 -0.0354176 2.25451e-19)
(0.698351 -0.023334 4.99591e-19)
(0.846542 -0.00764144 1.18856e-19)
(0.97695 0.00839459 3.12592e-20)
(1.0868 0.0257696 4.89028e-19)
(1.16455 0.0298916 -4.75917e-19)
(0.0291302 -0.0126632 7.26503e-19)
(0.131282 -0.036997 1.69939e-19)
(0.269633 -0.0422745 6.06359e-19)
(0.426206 -0.0405628 -1.15619e-19)
(0.591211 -0.0295481 -6.81594e-19)
(0.752661 -0.0134444 -6.92704e-19)
(0.900881 0.00543157 3.16052e-19)
(1.02736 0.0232229 2.4023e-19)
(1.12953 0.0410765 -2.95548e-20)
(1.19967 0.0439847 9.90374e-20)
(0.0365392 -0.0151854 1.69536e-19)
(0.152157 -0.0402808 -6.67252e-19)
(0.302892 -0.0428575 -8.43367e-19)
(0.469702 -0.0371892 1.56216e-19)
(0.641693 -0.0217093 6.01196e-19)
(0.805979 -0.0016563 6.61447e-19)
(0.952562 0.0200296 -3.94884e-19)
(1.07359 0.0391062 1.53771e-19)
(1.16704 0.0566776 1.89051e-19)
(1.22878 0.0587621 4.51797e-19)
(0.0447068 -0.0174318 -8.37149e-19)
(0.174537 -0.042655 3.00483e-19)
(0.337739 -0.0419504 3.4869e-19)
(0.514269 -0.031915 -4.63207e-20)
(0.692137 -0.0118413 -5.00874e-19)
(0.857747 0.0119722 -5.77207e-19)
(1.00109 0.0359946 1.7601e-20)
(1.11533 0.0558094 -4.60007e-19)
(1.19941 0.0724423 -2.80691e-19)
(1.25236 0.0736833 -7.55662e-20)
(0.0536252 -0.0193264 -6.31066e-20)
(0.198332 -0.0439606 -4.67536e-19)
(0.37396 -0.0393849 3.23618e-19)
(0.559535 -0.0246237 1.02579e-19)
(0.742048 7.00162e-05 1.62833e-19)
(0.907439 0.0273374 -2.00987e-19)
(1.04606 0.0531391 5.26511e-19)
(1.15242 0.0730962 -1.50518e-19)
(1.22679 0.0882243 -1.02344e-19)
(1.27092 0.0884001 -1.96569e-20)
(0.0632756 -0.0207924 3.85065e-19)
(0.223428 -0.0440453 8.02084e-19)
(0.411299 -0.0350143 -4.93854e-19)
(0.605101 -0.0152359 -2.47297e-19)
(0.790931 0.0139933 -1.02996e-19)
(0.954579 0.0442971 6.75781e-19)
(1.08715 0.0712566 2.19909e-19)
(1.18482 0.090741 1.77039e-19)
(1.24941 0.10388 3.20243e-20)
(1.28502 0.102698 -5.12513e-20)
(0.0736269 -0.0217528 -4.37844e-19)
(0.24968 -0.0427671 3.71957e-19)
(0.449469 -0.0287174 6.95349e-19)
(0.650546 -0.00371179 2.14346e-19)
(0.838303 0.0298541 3.01027e-19)
(0.99875 0.0626777 -3.55833e-19)
(1.12415 0.0901325 -3.53344e-19)
(1.21259 0.108539 3.98995e-19)
(1.26757 0.11928 2.58572e-19)
(1.29518 0.116456 -6.55228e-20)
(0.0846359 -0.0221325 1.32236e-19)
(0.276916 -0.0399967 -4.29345e-19)
(0.488157 -0.0204017 -3.64953e-20)
(0.695441 0.00994797 2.99316e-20)
(0.883712 0.0475389 -1.32277e-19)
(1.03961 0.0822836 -1.35963e-19)
(1.15693 0.109553 -9.26859e-20)
(1.23586 0.126309 -2.16086e-19)
(1.28163 0.134321 -2.15382e-20)
(1.30189 0.129613 1.64345e-19)
(0.0962459 -0.0218587 2.9891e-19)
(0.304939 -0.0356217 7.34505e-20)
(0.527023 -0.0100066 -4.66579e-19)
(0.739353 0.0257026 1.45408e-19)
(0.926742 0.0669003 1.2576e-19)
(1.07688 0.102905 1.26495e-19)
(1.18546 0.129313 2.57016e-19)
(1.25485 0.143897 -2.87005e-19)
(1.29194 0.148921 -1.42617e-20)
(1.30562 0.14215 -1.19885e-19)
(0.108387 -0.0208633 -1.73198e-19)
(0.333529 -0.0295485 -2.07045e-19)
(0.565713 0.00249491 3.46068e-19)
(0.781862 0.043473 1.14357e-19)
(0.967026 0.0877632 -2.93919e-19)
(1.11038 0.124327 -3.56299e-20)
(1.20978 0.149221 -2.18683e-20)
(1.2698 0.161175 1.85816e-19)
(1.29888 0.163021 7.7569e-20)
(1.30677 0.154072 -3.61212e-20)
(0.120977 -0.0190841 -1.52162e-19)
(0.362443 -0.021706 2.55676e-19)
(0.603864 0.0170949 -3.6147e-20)
(0.822567 0.0631444 -2.86985e-19)
(1.00425 0.109931 2.75768e-19)
(1.13997 0.146333 -1.71544e-19)
(1.22997 0.169103 -1.45938e-19)
(1.28099 0.178039 -1.12275e-20)
(1.30279 0.176582 -1.03886e-19)
(1.3057 0.165399 -1.43313e-20)
(0.133921 -0.0164665 4.67932e-20)
(0.391423 -0.0120478 2.68099e-20)
(0.641111 0.0337503 -4.79054e-20)
(0.861095 0.0845696 4.0801e-21)
(1.03815 0.133191 -5.28124e-21)
(1.1656 0.168712 -2.23072e-19)
(1.2462 0.188802 6.27267e-20)
(1.28872 0.194405 3.45187e-20)
(1.30402 0.189577 5.29276e-20)
(1.30272 0.176154 1.02825e-19)
(0.147112 -0.0129653 -1.55495e-19)
(0.420197 -0.000554175 -1.12797e-19)
(0.677091 0.0523835 -1.51094e-19)
(0.897106 0.107574 2.28689e-19)
(1.06853 0.157323 1.01656e-20)
(1.18728 0.191263 1.90434e-19)
(1.25864 0.208179 1.31847e-20)
(1.29327 0.210208 -1.15006e-20)
(1.30288 0.201994 2.05756e-20)
(1.29811 0.186364 -2.10465e-20)
(0.160432 -0.00854629 1.81291e-19)
(0.448483 0.0127663 -1.81429e-20)
(0.711457 0.0728832 -7.44423e-20)
(0.930299 0.131959 -2.82703e-19)
(1.09525 0.1821 7.92138e-20)
(1.20504 0.213795 -5.65223e-21)
(1.2675 0.227114 -1.03693e-19)
(1.29492 0.225397 2.49754e-20)
(1.29964 0.213823 -7.07549e-20)
(1.29208 0.196049 1.61175e-20)
(0.173755 -0.00318744 -7.71974e-20)
(0.475996 0.0278756 -6.87418e-20)
(0.743875 0.0951069 3.44712e-20)
(0.960418 0.157506 3.48052e-20)
(1.11821 0.207294 -1.77519e-19)
(1.21898 0.236131 6.06672e-20)
(1.273 0.245502 7.17797e-20)
(1.29396 0.239929 2.87143e-20)
(1.29456 0.225061 2.8548e-20)
(1.28482 0.205226 -2.33192e-20)
(0.186948 0.00311952 -4.05208e-21)
(0.502452 0.0447061 7.20061e-20)
(0.774038 0.118884 2.8351e-20)
(0.987248 0.183985 2.68327e-20)
(1.13738 0.232683 -8.18661e-22)
(1.22923 0.258106 7.97969e-21)
(1.27537 0.263251 1.60394e-20)
(1.29064 0.25377 1.50512e-20)
(1.28787 0.235703 -9.05048e-21)
(1.2765 0.213904 -1.13665e-21)
(0.199873 0.0103682 3.34923e-20)
(0.527572 0.0631607 -7.90793e-21)
(0.801665 0.144016 -6.6818e-22)
(1.01062 0.211153 -3.13558e-20)
(1.15274 0.258047 1.97801e-21)
(1.23594 0.279568 -2.02955e-20)
(1.27485 0.280281 -4.66085e-21)
(1.28519 0.266894 -2.0679e-20)
(1.27973 0.245745 -3.29832e-21)
(1.26725 0.222089 2.58963e-21)
(0.212388 0.0185369 2.79118e-20)
(0.551087 0.0831137 -5.0899e-21)
(0.826509 0.170286 -1.51626e-21)
(1.03042 0.238761 -2.13877e-20)
(1.16435 0.283176 -3.62547e-21)
(1.23926 0.300378 -1.26527e-20)
(1.27165 0.29652 -8.66209e-21)
(1.27783 0.279272 -1.69655e-20)
(1.27033 0.255178 -9.76596e-23)
(1.25716 0.229776 1.12392e-21)
(0.22435 0.0275879 8.22574e-21)
(0.572746 0.104412 7.35515e-20)
(0.848356 0.197454 1.51512e-20)
(1.04655 0.266558 2.14427e-20)
(1.17228 0.307869 1.31866e-20)
(1.2394 0.320409 4.62418e-21)
(1.26599 0.311906 8.95282e-21)
(1.26875 0.290882 1.00497e-20)
(1.25981 0.263994 -3.51024e-21)
(1.24634 0.236957 -2.55893e-22)
(0.235618 0.0374674 -6.44707e-20)
(0.592313 0.126879 -5.87651e-20)
(0.867029 0.225269 1.05445e-20)
(1.05899 0.294292 4.16551e-20)
(1.17663 0.331934 -1.16805e-19)
(1.23653 0.339545 4.02478e-20)
(1.25809 0.326382 3.99811e-20)
(1.25812 0.301699 7.09436e-21)
(1.24829 0.272176 8.85714e-21)
(1.23487 0.243617 2.52123e-23)
(0.246057 0.048106 1.71995e-19)
(0.609577 0.150312 -3.58343e-20)
(0.882391 0.253466 -8.70759e-20)
(1.06773 0.321716 -1.64062e-19)
(1.17753 0.355189 5.13069e-20)
(1.23084 0.357679 -6.55087e-21)
(1.24813 0.339896 -7.27645e-20)
(1.24611 0.311697 4.822e-21)
(1.23587 0.279707 -9.74142e-21)
(1.22281 0.249736 8.30891e-22)
(0.255538 0.0594187 -1.62627e-19)
(0.624354 0.174492 -1.3028e-19)
(0.894341 0.281775 -5.80944e-20)
(1.07281 0.348587 1.77953e-19)
(1.17512 0.377464 -1.84634e-20)
(1.22254 0.374713 9.14704e-20)
(1.23629 0.352397 -5.36489e-21)
(1.23285 0.320853 1.5596e-21)
(1.22264 0.286568 6.97446e-21)
(1.2102 0.255293 3.18257e-21)
(0.263938 0.0713063 5.10817e-20)
(0.636488 0.199182 7.94317e-20)
(0.902818 0.30992 -3.03231e-20)
(1.07429 0.374669 -6.32696e-20)
(1.16956 0.398599 -1.07411e-20)
(1.21181 0.390557 -7.8125e-20)
(1.22276 0.363841 1.29841e-20)
(1.21848 0.329137 5.31234e-21)
(1.2087 0.292739 2.30511e-21)
(1.19709 0.260264 -4.19489e-20)
(0.271148 0.0836559 -7.26023e-20)
(0.645854 0.224131 1.62198e-19)
(0.907799 0.337626 -4.30277e-21)
(1.07227 0.399735 -1.11597e-19)
(1.16104 0.418446 9.48468e-20)
(1.19886 0.405128 -5.31346e-20)
(1.2077 0.374183 -2.01604e-20)
(1.2031 0.336521 -1.10292e-20)
(1.19412 0.298199 2.52623e-20)
(1.18356 0.264613 5.73653e-21)
(0.277072 0.0963429 -9.88668e-20)
(0.652358 0.249078 -1.49999e-19)
(0.909296 0.36462 2.42298e-19)
(1.06687 0.423571 7.09521e-20)
(1.14973 0.436867 -1.28785e-19)
(1.18385 0.41835 1.38326e-20)
(1.19125 0.383383 1.04744e-20)
(1.18683 0.342975 -3.3739e-20)
(1.17896 0.302911 -8.05927e-21)
(1.16967 0.268324 2.13225e-22)
(0.281629 0.109233 2.1346e-19)
(0.655942 0.273757 4.84838e-20)
(0.907357 0.390634 -3.07178e-19)
(1.05824 0.445971 7.86563e-20)
(1.13583 0.453736 5.56568e-20)
(1.16699 0.430154 3.0895e-20)
(1.17357 0.391398 5.38739e-21)
(1.16978 0.348473 2.48142e-20)
(1.16328 0.306848 3.66324e-20)
(1.15545 0.271365 5.89181e-20)
(0.284752 0.122181 7.89792e-20)
(0.65658 0.297899 -2.15081e-19)
(0.902062 0.415409 1.93227e-20)
(1.04655 0.466744 -2.25756e-20)
(1.11954 0.468936 -1.10128e-20)
(1.14846 0.440475 -4.82191e-21)
(1.1548 0.398192 8.42601e-21)
(1.15202 0.352985 5.3822e-20)
(1.14714 0.309982 5.34886e-20)
(1.14093 0.273702 -1.10917e-19)
(0.286394 0.135039 -2.19901e-19)
(0.654279 0.321236 1.52734e-19)
(0.893521 0.438696 3.4004e-19)
(1.03198 0.485711 5.37952e-20)
(1.10105 0.482362 3.10633e-20)
(1.12842 0.449256 3.15967e-20)
(1.13506 0.403728 8.59702e-20)
(1.13365 0.356483 -1.35764e-19)
(1.13059 0.312285 -1.78155e-19)
(1.12616 0.275307 1.09575e-19)
(0.286525 0.147653 2.21514e-19)
(0.649081 0.343502 2.61802e-19)
(0.881876 0.460259 -1.4345e-19)
(1.01473 0.502709 -6.24921e-20)
(1.08059 0.493919 -2.77113e-21)
(1.10706 0.456444 -6.67089e-20)
(1.1145 0.407973 -4.71859e-20)
(1.11476 0.358939 -6.24712e-20)
(1.11369 0.313731 -5.5584e-20)
(1.11117 0.276147 3.78425e-20)
(0.285136 0.159866 -3.77884e-20)
(0.641059 0.36444 -1.72042e-19)
(0.867299 0.479882 3.87946e-20)
(0.995 0.517587 1.06881e-20)
(1.05834 0.503523 -1.15266e-20)
(1.08455 0.461993 -6.46416e-21)
(1.09322 0.410897 -1.98084e-19)
(1.09543 0.36033 1.02214e-19)
(1.09649 0.314297 2.7819e-20)
(1.09601 0.276193 5.99299e-20)
(0.282236 0.171522 -2.27086e-19)
(0.630318 0.383804 8.03223e-20)
(0.849964 0.497354 2.80338e-21)
(0.973029 0.530217 -1.04264e-22)
(1.03454 0.511098 8.52431e-20)
(1.06105 0.465863 1.53064e-19)
(1.07136 0.412472 -5.10928e-21)
(1.07574 0.360632 3.24321e-19)
(1.07904 0.313961 1.58052e-19)
(1.08072 0.275415 1.78647e-19)
(0.277852 0.182468 9.8912e-20)
(0.616991 0.401362 -1.51288e-19)
(0.830074 0.512484 -4.14565e-20)
(0.949056 0.540483 -1.23732e-20)
(1.00937 0.516584 -1.66249e-19)
(1.03673 0.46802 -2.36849e-19)
(1.04903 0.412677 2.35794e-19)
(1.05578 0.359829 -1.65302e-19)
(1.06138 0.312704 -2.30804e-19)
(1.06532 0.273781 -3.63307e-19)
(0.272026 0.192549 7.52895e-20)
(0.601239 0.416901 2.0746e-20)
(0.807867 0.525109 -1.43254e-20)
(0.923313 0.548278 2.52073e-20)
(0.983061 0.51993 2.71156e-19)
(1.01176 0.468436 3.30647e-19)
(1.02636 0.411491 -1.68185e-19)
(1.03564 0.357905 -2.27832e-19)
(1.04357 0.310514 1.19846e-19)
(1.04985 0.271256 -2.99405e-19)
(0.264825 0.20162 3.58209e-20)
(0.583241 0.430215 -2.99955e-20)
(0.783588 0.535086 -4.24789e-20)
(0.896044 0.553518 1.54996e-20)
(0.955813 0.521096 -4.5064e-20)
(0.986282 0.46709 -2.37116e-19)
(1.00346 0.4089 -2.29514e-19)
(1.0154 0.354852 2.50077e-20)
(1.02566 0.307377 -5.75903e-19)
(1.03434 0.267805 5.31308e-19)
(0.256341 0.209555 -4.10367e-20)
(0.563199 0.441121 1.3814e-20)
(0.757491 0.542287 -9.50407e-20)
(0.867499 0.556137 9.74937e-20)
(0.927832 0.52005 -5.10131e-19)
(0.960469 0.463969 -1.57119e-19)
(0.980461 0.404895 1.63807e-19)
(0.99515 0.350663 -2.38264e-20)
(1.0077 0.303281 7.86614e-19)
(1.01888 0.263379 -3.2225e-19)
(0.24667 0.216229 8.50389e-20)
(0.541338 0.449465 -2.67828e-20)
(0.729843 0.546605 3.29441e-19)
(0.837929 0.556083 7.59364e-21)
(0.899326 0.516776 7.15256e-19)
(0.934472 0.459064 6.18318e-19)
(0.957471 0.399472 -1.99928e-19)
(0.974981 0.345338 9.81063e-20)
(0.989769 0.298218 2.33153e-19)
(1.00357 0.257964 3.4124e-19)
(0.235922 0.221529 1.58378e-19)
(0.517903 0.455115 -4.89767e-20)
(0.700918 0.54796 -2.2824e-19)
(0.807587 0.553324 -1.23615e-19)
(0.870495 0.511265 -4.54628e-19)
(0.908443 0.452376 -6.67756e-20)
(0.934608 0.392632 8.16739e-20)
(0.954987 0.338881 1.61202e-19)
(0.972042 0.292209 -7.07538e-19)
(0.988422 0.251714 -7.34749e-19)
(0.224226 0.225358 -1.12072e-19)
(0.493147 0.457959 4.30479e-19)
(0.670997 0.546294 2.57813e-19)
(0.776722 0.547842 2.96637e-19)
(0.841538 0.503522 5.08693e-19)
(0.882531 0.443914 1.53284e-19)
(0.911981 0.384382 3.51676e-19)
(0.93528 0.331293 -2.92061e-19)
(0.954805 0.285329 1.13119e-19)
(0.973297 0.2443 9.43309e-20)
(0.21172 0.227632 -7.17795e-20)
(0.467338 0.457916 -4.2274e-19)
(0.640364 0.541569 -2.13706e-19)
(0.745586 0.539639 -3.08478e-20)
(0.812652 0.493562 -3.20835e-19)
(0.856883 0.433694 -6.41275e-19)
(0.889698 0.37473 -4.23472e-19)
(0.915979 0.322549 5.40193e-19)
(0.938183 0.277613 3.87028e-19)
(0.959098 0.23763 1.2799e-19)
(0.198553 0.228284 -3.02731e-19)
(0.440749 0.454925 -5.74765e-20)
(0.609303 0.533774 -3.75293e-19)
(0.714424 0.528732 -2.08875e-19)
(0.784026 0.481414 -5.55462e-19)
(0.831639 0.421739 1.72045e-19)
(0.867861 0.363696 3.77384e-19)
(0.89713 0.312671 2.36526e-20)
(0.92193 0.268928 -3.70338e-19)
(0.944822 0.230305 5.07657e-19)
(0.184882 0.227264 1.20441e-19)
(0.413661 0.448957 6.44002e-20)
(0.578099 0.522919 9.675e-20)
(0.683477 0.515155 -1.96407e-20)
(0.755846 0.467114 1.12364e-18)
(0.806939 0.408084 -9.15671e-20)
(0.846577 0.351306 -4.78214e-19)
(0.878812 0.30169 -4.95908e-19)
(0.906134 0.259319 -8.61143e-20)
(0.930865 0.222213 7.66875e-21)
(0.170869 0.224541 7.0004e-19)
(0.386354 0.440006 -4.24451e-19)
(0.547033 0.509038 6.76486e-19)
(0.652981 0.498958 3.31424e-19)
(0.728294 0.450715 -8.29281e-19)
(0.782918 0.392769 -1.90601e-19)
(0.82595 0.33759 3.93814e-19)
(0.861109 0.28963 -1.22242e-19)
(0.89089 0.248819 -5.70798e-20)
(0.917409 0.213337 -6.29583e-19)
(0.156681 0.220098 2.88629e-19)
(0.359111 0.428094 -1.13879e-19)
(0.516379 0.492184 -1.00738e-18)
(0.623166 0.480209 1.71701e-19)
(0.701543 0.432275 9.05039e-19)
(0.759706 0.375842 9.97072e-19)
(0.806081 0.322585 1.02437e-19)
(0.844101 0.276519 8.82184e-19)
(0.876269 0.237447 4.83474e-19)
(0.904534 0.203689 8.09738e-19)
(0.142488 0.213941 -9.52696e-19)
(0.332209 0.41327 1.18024e-18)
(0.486408 0.472437 3.36557e-19)
(0.594252 0.45899 -2.24603e-20)
(0.67576 0.411868 -1.87791e-19)
(0.73743 0.35736 1.37136e-19)
(0.787067 0.306333 -8.42958e-19)
(0.827863 0.262387 -8.31106e-19)
(0.862335 0.225225 -5.70658e-19)
(0.892302 0.193293 -1.36653e-19)
(0.128456 0.20609 -9.38969e-20)
(0.305922 0.395606 -1.34673e-18)
(0.457378 0.449893 3.43436e-19)
(0.566449 0.435398 -5.49556e-19)
(0.651106 0.389576 -2.21976e-19)
(0.716209 0.337389 -1.85821e-19)
(0.769001 0.288885 1.0491e-19)
(0.812468 0.247273 2.71672e-19)
(0.849148 0.212182 4.46665e-19)
(0.880763 0.18217 -5.97148e-19)
(0.114753 0.196587 3.81815e-20)
(0.280514 0.375202 9.99431e-19)
(0.429538 0.424671 9.41683e-20)
(0.539959 0.409545 3.17738e-19)
(0.62773 0.365492 -1.69775e-19)
(0.696156 0.316001 2.02909e-19)
(0.751968 0.270298 4.0206e-19)
(0.797983 0.231223 -4.23116e-19)
(0.83676 0.198354 -4.25811e-19)
(0.869963 0.170352 3.27237e-19)
(0.10154 0.18549 4.8942e-19)
(0.25624 0.35218 5.41546e-19)
(0.403125 0.396909 -6.16627e-19)
(0.514972 0.381557 -2.78712e-19)
(0.605776 0.339718 4.33457e-19)
(0.677378 0.293278 -6.2005e-19)
(0.736051 0.250635 1.68761e-19)
(0.784471 0.214288 1.3519e-19)
(0.825222 0.18378 3.51939e-20)
(0.859936 0.157876 2.88339e-19)
(0.088973 0.172872 -3.79676e-19)
(0.233339 0.326686 -1.11857e-18)
(0.378362 0.366763 9.20988e-19)
(0.491664 0.351573 -4.7672e-20)
(0.585377 0.312367 -2.25051e-19)
(0.659976 0.269308 -2.51432e-19)
(0.721327 0.229966 -1.91989e-19)
(0.771992 0.196523 9.74967e-19)
(0.814581 0.168509 5.51451e-19)
(0.850717 0.144786 1.99646e-21)
(0.0772005 0.158825 -1.00637e-19)
(0.212039 0.298886 6.05978e-19)
(0.355454 0.334405 -8.03029e-19)
(0.470201 0.319743 2.52225e-19)
(0.566654 0.283561 -4.36585e-19)
(0.64404 0.244185 -2.4008e-19)
(0.707866 0.208368 4.97947e-19)
(0.760598 0.177991 -6.01574e-19)
(0.804878 0.152591 -1.80775e-19)
(0.842334 0.131129 -3.0654e-19)
(0.0663605 0.143455 3.64059e-19)
(0.192549 0.268967 -3.93919e-19)
(0.334593 0.300024 9.81665e-20)
(0.450731 0.286231 3.62664e-19)
(0.549721 0.253428 -4.78241e-20)
(0.629656 0.218014 6.42687e-19)
(0.695732 0.185922 -9.21002e-20)
(0.750341 0.15876 7.66496e-20)
(0.796151 0.136082 2.48492e-19)
(0.834814 0.116954 -8.35329e-20)
(0.0565803 0.126884 -1.981e-19)
(0.17506 0.237133 4.15492e-19)
(0.315951 0.263824 -6.55772e-20)
(0.433391 0.251208 -5.15495e-19)
(0.534678 0.222108 -1.76743e-19)
(0.616899 0.190901 2.27881e-19)
(0.684984 0.162715 -3.37287e-19)
(0.741265 0.1389 -4.15251e-20)
(0.788437 0.119043 -3.1327e-19)
(0.828179 0.102318 -7.87534e-20)
(0.0479745 0.109243 1.58363e-19)
(0.159741 0.203605 -5.67256e-19)
(0.29968 0.226019 4.80551e-19)
(0.418301 0.214858 -1.00765e-19)
(0.521614 0.189742 3.09034e-19)
(0.605837 0.162962 -4.16354e-19)
(0.675673 0.138839 1.62452e-19)
(0.73341 0.118488 -2.12499e-19)
(0.781765 0.101537 1.02647e-19)
(0.822452 0.0872754 1.42961e-19)
(0.0406438 0.0906772 9.29095e-20)
(0.146743 0.168619 5.75102e-20)
(0.285913 0.186837 -1.71916e-19)
(0.405564 0.17737 -3.63655e-21)
(0.510608 0.156482 -2.80199e-20)
(0.596528 0.134314 -1.72315e-19)
(0.667845 0.11439 4.41074e-20)
(0.72681 0.0976013 3.64185e-19)
(0.776163 0.0836307 1.65503e-20)
(0.81765 0.0718861 5.03883e-19)
(0.0346738 0.0713414 -4.86048e-20)
(0.13619 0.132423 3.00382e-19)
(0.274764 0.146515 -2.01683e-19)
(0.395268 0.138941 -3.15754e-20)
(0.501723 0.122483 4.98168e-19)
(0.589021 0.10508 1.52383e-20)
(0.661536 0.0894672 -3.27704e-19)
(0.721495 0.0763231 -3.71997e-19)
(0.771653 0.0653934 -2.74886e-19)
(0.81379 0.0562108 -1.08126e-19)
(0.0301343 0.0513979 4.91039e-20)
(0.128186 0.0952749 -1.23265e-19)
(0.266321 0.105299 3.32863e-19)
(0.387485 0.0997744 7.0828e-20)
(0.495014 0.0879046 -3.488e-19)
(0.583356 0.0753875 1.09504e-19)
(0.656777 0.0641726 2.03982e-19)
(0.717487 0.0547376 1.02817e-19)
(0.768255 0.0468964 1.34193e-19)
(0.810883 0.0403114 -1.2883e-19)
(0.0270783 0.0310155 -1.67836e-19)
(0.122806 0.0574409 4.2348e-20)
(0.260655 0.063438 -2.14014e-19)
(0.382266 0.0600776 5.77291e-20)
(0.490519 0.0529099 -2.56144e-21)
(0.579563 0.045365 4.09817e-20)
(0.653592 0.0386109 -2.92994e-20)
(0.714806 0.0329313 -3.6647e-20)
(0.765981 0.0282128 -1.43555e-19)
(0.80894 0.0242514 8.93284e-21)
(0.0255413 0.0103681 5.93873e-20)
(0.120103 0.0191931 6.23511e-20)
(0.25781 0.0211892 -1.10612e-21)
(0.379647 0.0200614 -6.00071e-20)
(0.488265 0.0176646 -1.65523e-21)
(0.577661 0.0151438 -5.71073e-20)
(0.651996 0.0128882 4.01223e-20)
(0.713462 0.0109919 2.44369e-20)
(0.764842 0.00941679 6.98077e-20)
(0.807966 0.00809456 2.25152e-20)
(0.0255413 -0.0103681 5.11381e-20)
(0.120103 -0.0191931 6.68886e-20)
(0.25781 -0.0211892 -3.27371e-21)
(0.379647 -0.0200614 -5.53754e-20)
(0.488265 -0.0176646 -2.76064e-21)
(0.577661 -0.0151438 -3.9776e-20)
(0.651996 -0.0128882 3.79057e-20)
(0.713462 -0.0109919 4.90429e-21)
(0.764842 -0.00941679 7.65248e-20)
(0.807966 -0.00809456 2.28951e-20)
(0.0270783 -0.0310155 -1.87827e-19)
(0.122806 -0.0574409 7.57452e-20)
(0.260655 -0.063438 -2.5229e-19)
(0.382266 -0.0600776 6.31594e-20)
(0.490519 -0.0529099 3.64922e-20)
(0.579563 -0.045365 -4.51765e-21)
(0.653592 -0.0386109 -8.34478e-21)
(0.714806 -0.0329313 -5.59936e-20)
(0.765981 -0.0282128 -1.06207e-19)
(0.80894 -0.0242514 -2.00851e-20)
(0.0301343 -0.0513979 6.00713e-20)
(0.128186 -0.0952749 -1.13836e-19)
(0.266321 -0.105299 2.90539e-19)
(0.387485 -0.0997744 9.99748e-20)
(0.495014 -0.0879046 -3.01878e-19)
(0.583356 -0.0753875 1.08063e-19)
(0.656777 -0.0641726 2.11838e-19)
(0.717487 -0.0547376 5.16958e-20)
(0.768255 -0.0468964 9.27774e-20)
(0.810883 -0.0403114 -7.50903e-20)
(0.0346738 -0.0713414 -1.92539e-20)
(0.13619 -0.132423 1.87758e-19)
(0.274764 -0.146515 -1.26036e-19)
(0.395268 -0.138941 -6.21245e-20)
(0.501723 -0.122483 5.64741e-19)
(0.589021 -0.10508 -4.48031e-20)
(0.661536 -0.0894672 -3.58568e-19)
(0.721495 -0.0763231 -3.04559e-19)
(0.771653 -0.0653934 -2.46916e-19)
(0.81379 -0.0562108 -2.10899e-19)
(0.0406438 -0.0906772 3.51832e-20)
(0.146743 -0.168619 4.67626e-20)
(0.285913 -0.186837 -2.33359e-19)
(0.405564 -0.17737 3.5879e-20)
(0.510608 -0.156482 -3.04962e-20)
(0.596528 -0.134314 -1.46702e-19)
(0.667845 -0.11439 -6.86763e-20)
(0.72681 -0.0976013 4.50799e-19)
(0.776163 -0.0836307 8.72216e-20)
(0.81765 -0.0718861 4.21641e-19)
(0.0479745 -0.109243 2.09918e-20)
(0.159741 -0.203605 -3.76162e-19)
(0.29968 -0.226019 3.5882e-19)
(0.418301 -0.214858 -6.9478e-20)
(0.521614 -0.189742 3.11192e-19)
(0.605837 -0.162962 -5.09331e-19)
(0.675673 -0.138839 1.45564e-19)
(0.73341 -0.118488 -2.26674e-19)
(0.781765 -0.101537 1.08373e-19)
(0.822452 -0.0872754 2.36803e-19)
(0.0565803 -0.126884 -1.94643e-19)
(0.17506 -0.237133 3.5255e-19)
(0.315951 -0.263824 -4.94851e-20)
(0.433391 -0.251208 -3.56782e-19)
(0.534678 -0.222108 -3.05616e-19)
(0.616899 -0.190901 2.30037e-19)
(0.684984 -0.162715 -3.25063e-19)
(0.741265 -0.1389 -1.76299e-20)
(0.788437 -0.119043 -3.59451e-19)
(0.828179 -0.102318 -1.62226e-19)
(0.0663605 -0.143455 3.95773e-19)
(0.192549 -0.268967 -2.72426e-19)
(0.334593 -0.300024 9.16452e-20)
(0.450731 -0.286231 1.13865e-19)
(0.549721 -0.253428 2.12131e-19)
(0.629656 -0.218014 4.39116e-19)
(0.695732 -0.185922 -2.98831e-20)
(0.750341 -0.15876 4.2358e-20)
(0.796151 -0.136082 2.69345e-19)
(0.834814 -0.116954 -1.24929e-19)
(0.0772005 -0.158825 -2.1477e-19)
(0.212039 -0.298886 6.1944e-19)
(0.355454 -0.334405 -7.27886e-19)