/*--------------------------------*- C++ -*----------------------------------*\
  =========                 |
  \\      /  F ield         | OpenFOAM: The Open Source CFD Toolbox
   \\    /   O peration     | Website:  https://openfoam.org
    \\  /    A nd           | Version:  7
     \\/     M anipulation  |
\*---------------------------------------------------------------------------*/
FoamFile
{
    version     2.0;
    format      ascii;
    class       volVectorField;
    location    "2";
    object      U;
}
// * * * * * * * * * * * * * * * * * * * * * * * * * * * * * * * * * * * * * //

dimensions      [0 1 -1 0 0 0 0];

internalField   nonuniform List<vector> 
433
(
(0.995679 0.0125036 0)
(0.995874 0.0106 0)
(0.996114 0.00890069 0)
(0.996351 0.00747158 0)
(0.996631 0.00608923 0)
(0.996812 0.00518377 0)
(0.997161 0.0037789 0)
(1.01657 0.0687159 0)
(1.01148 0.0637033 0)
(1.00718 0.0585448 0)
(1.00362 0.0533609 0)
(1.00077 0.0482571 0)
(0.99854 0.0433211 0)
(0.996864 0.0386211 0)
(0.995661 0.0342064 0)
(0.994854 0.0301085 0)
(0.994371 0.0263443 0)
(0.994145 0.022918 0)
(0.994117 0.0198247 0)
(0.994237 0.0170516 0)
(0.994461 0.0145836 0)
(0.994758 0.0123954 0)
(0.995091 0.0104789 0)
(0.995453 0.00877553 0)
(0.995791 0.00735093 0)
(0.99617 0.00597678 0)
(0.99641 0.00508237 0)
(0.996858 0.00369705 0)
(1.01282 0.0726705 0)
(1.00773 0.0669357 0)
(1.00352 0.0611246 0)
(1.00014 0.0553656 0)
(0.997513 0.0497675 0)
(0.995544 0.0444173 0)
(0.994144 0.0393789 0)
(0.993222 0.0346946 0)
(0.99269 0.0303878 0)
(0.992469 0.0264664 0)
(0.992487 0.0229258 0)
(0.992682 0.0197532 0)
(0.993004 0.0169281 0)
(0.993408 0.0144297 0)
(0.993863 0.0122266 0)
(0.994333 0.0103078 0)
(0.994818 0.00860921 0)
(0.995254 0.00719678 0)
(0.99573 0.00583733 0)
(0.996028 0.00495879 0)
(0.996571 0.00359905 0)
(1.00865 0.0765018 0)
(1.00363 0.0700002 0)
(0.999596 0.0635082 0)
(0.99645 0.0571603 0)
(0.994099 0.0510661 0)
(0.992436 0.0453088 0)
(0.991353 0.0399453 0)
(0.990743 0.0350089 0)
(0.990511 0.0305125 0)
(0.99057 0.0264537 0)
(0.990844 0.0228179 0)
(0.99127 0.0195835 0)
(0.991799 0.0167223 0)
(0.992383 0.0142074 0)
(0.992998 0.0120015 0)
(0.993604 0.0100906 0)
(0.994209 0.00840539 0)
(0.994742 0.00701242 0)
(0.995312 0.00567367 0)
(0.995666 0.00481551 0)
(0.996301 0.00348676 0)
(1.00406 0.0801658 0)
(0.999199 0.0728585 0)
(0.9954 0.0656642 0)
(0.992556 0.0587206 0)
(0.990544 0.052135 0)
(0.989237 0.0459837 0)
(0.988509 0.0403138 0)
(0.988242 0.0351466 0)
(0.988332 0.030483 0)
(0.988686 0.0263086 0)
(0.989227 0.022598 0)
(0.98989 0.0193203 0)
(0.990627 0.0164391 0)
(0.991393 0.0139216 0)
(0.992166 0.0117245 0)
(0.992906 0.00983165 0)
(0.99363 0.00816778 0)
(0.994256 0.00680109 0)
(0.994917 0.00548855 0)
(0.995324 0.00465489 0)
(0.996049 0.00336197 0)
(0.999059 0.0836167 0)
(0.994434 0.0754722 0)
(0.990955 0.0675621 0)
(0.988483 0.0600238 0)
(0.98687 0.0529586 0)
(0.985966 0.0464326 0)
(0.985631 0.0404797 0)
(0.985736 0.0351071 0)
(0.986167 0.0303013 0)
(0.986829 0.026035 0)
(0.987644 0.0222709 0)
(0.988549 0.0189687 0)
(0.989495 0.0160836 0)
(0.990442 0.0135774 0)
(0.991371 0.0114004 0)
(0.992242 0.009535 0)
(0.99308 0.00790006 0)
(0.993797 0.00656598 0)
(0.994547 0.00528463 0)
(0.995004 0.00447924 0)
(0.995813 0.00322637 0)
(0.993649 0.0868073 0)
(0.989357 0.0778032 0)
(0.986282 0.0691728 0)
(0.984255 0.0610492 0)
(0.9831 0.0535237 0)
(0.982648 0.0466484 0)
(0.982741 0.0404409 0)
(0.983242 0.0348916 0)
(0.984031 0.0299711 0)
(0.985011 0.0256378 0)
(0.986106 0.0218424 0)
(0.987252 0.0185347 0)
(0.988408 0.0156618 0)
(0.989534 0.01318 0)
(0.990615 0.0110339 0)
(0.991613 0.00920491 0)
(0.992563 0.00760585 0)
(0.993366 0.0063102 0)
(0.9942 0.00506448 0)
(0.994705 0.00429074 0)
(0.995595 0.0030816 0)
(0.987848 0.0896899 0)
(0.983991 0.0798142 0)
(0.98141 0.070469 0)
(0.979902 0.0617786 0)
(0.979264 0.0538199 0)
(0.979307 0.0466269 0)
(0.979861 0.0401976 0)
(0.980778 0.0345035 0)
(0.981938 0.0294977 0)
(0.983244 0.0251234 0)
(0.98462 0.021319 0)
(0.986008 0.0180247 0)
(0.987371 0.0151794 0)
(0.98867 0.012735 0)
(0.9899 0.0106299 0)
(0.991021 0.00884554 0)
(0.992077 0.00728871 0)
(0.992963 0.00603673 0)
(0.993877 0.00483056 0)
(0.994427 0.00409148 0)
(0.995393 0.00292918 0)
(0.981679 0.0922167 0)
(0.978368 0.0814697 0)
(0.976372 0.0714264 0)
(0.975456 0.0621974 0)
(0.975392 0.0538402 0)
(0.975971 0.0463668 0)
(0.977012 0.0397527 0)
(0.978363 0.0339483 0)
(0.979903 0.0288878 0)
(0.981538 0.0244992 0)
(0.983195 0.0207081 0)
(0.984822 0.0174456 0)
(0.986387 0.0146429 0)
(0.987855 0.0122477 0)
(0.989228 0.0101931 0)
(0.990466 0.00846097 0)
(0.991624 0.00695206 0)
(0.992587 0.00574844 0)
(0.993579 0.00458522 0)
(0.994171 0.00388339 0)
(0.995208 0.00277057 0)
(0.975177 0.0943407 0)
(0.972526 0.0827366 0)
(0.971209 0.0720241 0)
(0.970957 0.0622943 0)
(0.971518 0.0535809 0)
(0.972668 0.0458699 0)
(0.974219 0.0391116 0)
(0.976016 0.0332333 0)
(0.977941 0.0281499 0)
(0.979904 0.0237736 0)
(0.981839 0.0200177 0)
(0.983699 0.0168047 0)
(0.985459 0.0140586 0)
(0.987091 0.0117238 0)
(0.988601 0.00972831 0)
(0.98995 0.00805517 0)
(0.991205 0.00659922 0)
(0.99224 0.00544803 0)
(0.993304 0.00433066 0)
(0.993935 0.00366832 0)
(0.995039 0.00260708 0)
(0.968385 0.0960168 0)
(0.966515 0.0835853 0)
(0.965969 0.072245 0)
(0.966448 0.0620624 0)
(0.967679 0.0530425 0)
(0.969429 0.0451416 0)
(0.971505 0.0382824 0)
(0.973755 0.032368 0)
(0.976065 0.0272934 0)
(0.978351 0.0229557 0)
(0.980558 0.0192561 0)
(0.982644 0.0161094 0)
(0.984592 0.013433 0)
(0.986378 0.0111688 0)
(0.988018 0.00924004 0)
(0.989472 0.00763195 0)
(0.990818 0.00623334 0)
(0.991921 0.00513805 0)
(0.993053 0.00406898 0)
(0.993718 0.00344794 0)
(0.994885 0.00243997 0)
(0.961363 0.0972031 0)
(0.960393 0.0839905 0)
(0.960704 0.0720772 0)
(0.961974 0.0614997 0)
(0.963915 0.0522294 0)
(0.966286 0.0441903 0)
(0.968896 0.0372755 0)
(0.971599 0.0313635 0)
(0.974288 0.0263294 0)
(0.97689 0.0220555 0)
(0.979359 0.0184321 0)
(0.981661 0.0153673 0)
(0.983788 0.0127725 0)
(0.98572 0.010588 0)
(0.987482 0.00873282 0)
(0.989033 0.00719496 0)
(0.990464 0.00585739 0)
(0.991629 0.00482091 0)
(0.992825 0.00380209 0)
(0.993522 0.00322382 0)
(0.994746 0.00227037 0)
(0.954182 0.0978626 0)
(0.954226 0.0839331 0)
(0.955476 0.0715148 0)
(0.957587 0.0606091 0)
(0.960265 0.0511505 0)
(0.963269 0.043028 0)
(0.966413 0.0361041 0)
(0.969562 0.0302326 0)
(0.972621 0.0252695 0)
(0.975528 0.0210835 0)
(0.978246 0.017555 0)
(0.980753 0.0145861 0)
(0.983047 0.0120835 0)
(0.985116 0.0099867 0)
(0.986991 0.00821089 0)
(0.988632 0.00674765 0)
(0.990142 0.0054742 0)
(0.991363 0.00449882 0)
(0.992618 0.0035318 0)
(0.993344 0.00299739 0)
(0.994622 0.00209931 0)
(0.946923 0.0979653 0)
(0.948089 0.0834009 0)
(0.950345 0.0705584 0)
(0.953335 0.0593996 0)
(0.956767 0.0498192 0)
(0.960405 0.0416697 0)
(0.964077 0.0347833 0)
(0.967659 0.0289895 0)
(0.971074 0.0241265 0)
(0.974269 0.0200506 0)
(0.977223 0.0166337 0)
(0.979921 0.0137733 0)
(0.982372 0.0113721 0)
(0.984566 0.00936989 0)
(0.986546 0.00767833 0)
(0.98827 0.00629324 0)
(0.989852 0.00508636 0)
(0.991124 0.00417381 0)
(0.992433 0.00325976 0)
(0.993185 0.00276993 0)
(0.994511 0.00192773 0)
(0.939683 0.0974915 0)
(0.942061 0.0823913 0)
(0.945374 0.0692167 0)
(0.949267 0.0578862 0)
(0.953455 0.0482532 0)
(0.957719 0.0401338 0)
(0.961903 0.0333301 0)
(0.965901 0.0276494 0)
(0.969652 0.0229132 0)
(0.973119 0.0189676 0)
(0.976292 0.0156772 0)
(0.979166 0.0129363 0)
(0.98176 0.0106444 0)
(0.98407 0.00874229 0)
(0.986146 0.00713889 0)
(0.987944 0.00583471 0)
(0.989592 0.00469626 0)
(0.99091 0.00384773 0)
(0.992269 0.00298744 0)
(0.993042 0.0025426 0)
(0.994412 0.00175648 0)
(0.93256 0.0964338 0)
(0.936221 0.0809121 0)
(0.940622 0.067506 0)
(0.945424 0.0560896 0)
(0.950359 0.0464742 0)
(0.955229 0.0384406 0)
(0.959902 0.0317629 0)
(0.964293 0.0262278 0)
(0.968358 0.0216429 0)
(0.972076 0.0178453 0)
(0.975451 0.0146942 0)
(0.978486 0.0120819 0)
(0.981212 0.00990569 0)
(0.983625 0.00810826 0)
(0.985787 0.00659605 0)
(0.987652 0.00537476 0)
(0.98936 0.00430605 0)
(0.990719 0.00352222 0)
(0.992123 0.00271617 0)
(0.992916 0.00231642 0)
(0.994325 0.00158628 0)
(0.925655 0.0947929 0)
(0.930639 0.0789766 0)
(0.936139 0.0654467 0)
(0.941838 0.0540324 0)
(0.947497 0.0445045 0)
(0.952947 0.0366105 0)
(0.95808 0.0300992 0)
(0.962836 0.0247397 0)
(0.967191 0.0203275 0)
(0.971139 0.0166935 0)
(0.974698 0.0136926 0)
(0.977879 0.0112163 0)
(0.980722 0.00916096 0)
(0.98323 0.0074716 0)
(0.98547 0.00605279 0)
(0.987394 0.00491571 0)
(0.989155 0.0039176 0)
(0.99055 0.00319868 0)
(0.991995 0.00244712 0)
(0.992804 0.00209225 0)
(0.994249 0.00141778 0)
(0.919061 0.0925732 0)
(0.92538 0.0766007 0)
(0.931964 0.0630601 0)
(0.938532 0.0517374 0)
(0.94488 0.0423656 0)
(0.950874 0.0346626 0)
(0.956435 0.0283553 0)
(0.961528 0.0231983 0)
(0.966147 0.0189779 0)
(0.970304 0.0155207 0)
(0.974027 0.0126789 0)
(0.97734 0.0103449 0)
(0.980289 0.00841436 0)
(0.982879 0.00683558 0)
(0.985189 0.00551171 0)
(0.987166 0.00445953 0)
(0.988975 0.00353252 0)
(0.9904 0.00287829 0)
(0.991883 0.00218125 0)
(0.992705 0.00187082 0)
(0.994183 0.00125152 0)
(0.912858 0.0898404 0)
(0.920489 0.073847 0)
(0.928119 0.0604021 0)
(0.935513 0.049252 0)
(0.942508 0.0400965 0)
(0.949006 0.032628 0)
(0.95496 0.0265556 0)
(0.960359 0.0216226 0)
(0.965217 0.0176086 0)
(0.969561 0.0143379 0)
(0.973433 0.0116617 0)
(0.976863 0.00947385 0)
(0.979906 0.00767058 0)
(0.98257 0.0062037 0)
(0.984941 0.00497537 0)
(0.986964 0.00400816 0)
(0.988817 0.00315225 0)
(0.990269 0.0025622 0)
(0.991785 0.0019193 0)
(0.992619 0.00165288 0)
(0.994126 0.00108784 0)
(0.907094 0.0868925 0)
(0.915983 0.0709563 0)
(0.924605 0.0576634 0)
(0.932771 0.0467255 0)
(0.940365 0.0378125 0)
(0.947326 0.0305954 0)
(0.953638 0.024768 0)
(0.959313 0.0200644 0)
(0.964387 0.0162593 0)
(0.9689 0.0131757 0)
(0.972905 0.0106642 0)
(0.976439 0.00862109 0)
(0.979566 0.0069433 0)
(0.982296 0.00558644 0)
(0.984722 0.00445167 0)
(0.986786 0.00356764 0)
(0.988677 0.00278076 0)
(0.990152 0.00225357 0)
(0.991699 0.00166337 0)
(0.992542 0.00144009 0)
(0.994075 0.000927199 0)
(0.9017 0.0837033 0)
(0.911782 0.0678874 0)
(0.921338 0.054796 0)
(0.930229 0.0441076 0)
(0.938381 0.0354648 0)
(0.945773 0.028519 0)
(0.952416 0.0229505 0)
(0.958347 0.0184861 0)
(0.96362 0.0148964 0)
(0.968288 0.0120044 0)
(0.972414 0.00966086 0)
(0.976045 0.00776452 0)
(0.979249 0.00621375 0)
(0.982039 0.00496799 0)
(0.984516 0.00392821 0)
(0.986618 0.00312743 0)
(0.988544 0.00241028 0)
(0.99004 0.0019456 0)
(0.991616 0.00140954 0)
(0.992467 0.0012288 0)
(0.994024 0.00076992 0)
(0.886426 0.0952461 -5.40152e-19)
(0.897911 0.0773317 3.60457e-19)
(0.908848 0.062351 -1.23618e-19)
(0.91907 0.0500346 -9.95844e-20)
(0.928476 0.0400469 6.19361e-20)
(0.937023 0.0320235 4.36319e-21)
)
;

boundaryField
{
    inlet
    {
        type            uniformFixedValue;
        uniformValue    constant (1 0 0);
        value           nonuniform 0();
    }
    outlet
    {
        type            pressureInletOutletVelocity;
        value           nonuniform List<vector> 
21
(
(0.997161 0.0037789 0)
(0.996858 0.00369705 0)
(0.996571 0.00359905 0)
(0.996301 0.00348676 0)
(0.996049 0.00336197 0)
(0.995813 0.00322637 0)
(0.995595 0.0030816 0)
(0.995393 0.00292918 0)
(0.995208 0.00277057 0)
(0.995039 0.00260708 0)
(0.994885 0.00243997 0)
(0.994746 0.00227037 0)
(0.994622 0.00209931 0)
(0.994511 0.00192773 0)
(0.994412 0.00175648 0)
(0.994325 0.00158628 0)
(0.994249 0.00141778 0)
(0.994183 0.00125152 0)
(0.994126 0.00108784 0)
(0.994075 0.000927199 0)
(0.994024 0.00076992 0)
)
;
    }
    cylinder
    {
        type            fixedValue;
        value           nonuniform 0();
    }
    top
    {
        type            symmetryPlane;
    }
    bottom
    {
        type            symmetryPlane;
    }
    defaultFaces
    {
        type            empty;
    }
    procBoundary11to4
    {
        type            processor;
        value           nonuniform List<vector> 3((1.02247 0.0734516 0) (1.01882 0.0781847 0) (1.0147 0.0828571 0));
    }
    procBoundary11to5
    {
        type            processor;
        value           nonuniform List<vector> 
22
(
(0.996622 0.0125471 0)
(0.99668 0.0106671 0)
(0.996797 0.0089811 0)
(0.996932 0.00755548 0)
(0.997113 0.00617189 0)
(0.997232 0.00526051 0)
(0.997481 0.00384273 0)
(1.01992 0.0646796 0)
(1.01488 0.06034 0)
(1.01054 0.0558006 0)
(1.00687 0.051172 0)
(1.00385 0.0465543 0)
(1.00141 0.0420338 0)
(0.999496 0.0376807 0)
(0.998045 0.0335488 0)
(0.99699 0.029676 0)
(0.996264 0.0260863 0)
(0.995808 0.0227916 0)
(0.995567 0.0197943 0)
(0.995491 0.0170885 0)
(0.99554 0.0146648 0)
(0.99554 0.0146648 0)
)
;
    }
    procBoundary11to10
    {
        type            processor;
        value           nonuniform List<vector> 
19
(
(1.01008 0.0874205 0)
(1.00495 0.0918231 0)
(0.999313 0.0960095 0)
(0.993172 0.0999216 0)
(0.986538 0.103499 0)
(0.979432 0.106679 0)
(0.97189 0.1094 0)
(0.963963 0.111598 0)
(0.955719 0.113216 0)
(0.947245 0.114199 0)
(0.938648 0.114503 0)
(0.930047 0.114101 0)
(0.921575 0.112971 0)
(0.913365 0.111098 0)
(0.905541 0.108547 0)
(0.898198 0.105676 0)
(0.891298 0.102487 0)
(0.891298 0.102487 0)
(0.874636 0.116236 -6.21708e-19)
)
;
    }
    procBoundary11to17
    {
        type            processor;
        value           nonuniform List<vector> 
23
(
(0.944716 0.0256168 -7.42455e-21)
(0.95159 0.0205121 -1.93591e-20)
(0.957699 0.0164432 -6.53134e-21)
(0.963108 0.0131885 3.0471e-20)
(0.967882 0.01058 1.41888e-20)
(0.972091 0.00847535 -1.77348e-20)
(0.975787 0.00677997 2.93327e-20)
(0.979043 0.00539872 -2.06809e-20)
(0.981874 0.0042954 1.96276e-20)
(0.984384 0.00337601 -2.32619e-20)
(0.986511 0.00267317 4.65133e-21)
(0.988462 0.00204308 2.35185e-21)
(0.989972 0.00164618 -4.00799e-21)
(0.991568 0.00117376 2.65049e-21)
(0.992424 0.00103294 -2.41185e-22)
(0.993997 0.000642422 1.01206e-22)
(0.882539 0.0904115 -2.90417e-19)
(0.894902 0.0731908 6.93302e-20)
(0.906527 0.0588499 9.52032e-20)
(0.917279 0.0471034 -2.27981e-19)
(0.927092 0.0376096 3.25786e-19)
(0.944716 0.0256168 -7.42455e-21)
(0.935949 0.030005 -2.16108e-19)
)
;
    }
}


// ************************************************************************* //
