/*--------------------------------*- C++ -*----------------------------------*\
  =========                 |
  \\      /  F ield         | OpenFOAM: The Open Source CFD Toolbox
   \\    /   O peration     | Website:  https://openfoam.org
    \\  /    A nd           | Version:  7
     \\/     M anipulation  |
\*---------------------------------------------------------------------------*/
FoamFile
{
    version     2.0;
    format      ascii;
    class       volVectorField;
    location    "4.2";
    object      U;
}
// * * * * * * * * * * * * * * * * * * * * * * * * * * * * * * * * * * * * * //

dimensions      [0 1 -1 0 0 0 0];

internalField   nonuniform List<vector> 
344
(
(0.648251 -0.00467551 5.57831e-15)
(0.646117 -0.00452288 5.6111e-15)
(0.644052 -0.00437827 5.43931e-15)
(0.642052 -0.00424108 5.47469e-15)
(0.640115 -0.00411077 5.58043e-15)
(0.638237 -0.00398685 5.67275e-15)
(0.636415 -0.00386887 5.7682e-15)
(0.634647 -0.00375643 5.8613e-15)
(0.63293 -0.00364914 5.94494e-15)
(0.631262 -0.00354668 6.04608e-15)
(0.629641 -0.00344873 6.12248e-15)
(0.628064 -0.00335501 6.16477e-15)
(0.626529 -0.00326524 6.2469e-15)
(1.02032 -0.0933186 -6.0101e-19)
(1.10307 -0.186413 4.54545e-18)
(1.16162 -0.226136 8.86201e-17)
(1.18901 -0.22591 2.97112e-16)
(1.18594 -0.207112 4.95098e-16)
(1.16361 -0.182402 6.42371e-16)
(1.13099 -0.157677 6.88604e-16)
(1.094 -0.135392 4.95818e-16)
(1.05628 -0.116212 5.47162e-16)
(1.01979 -0.100043 6.96819e-16)
(0.985507 -0.0865191 7.3417e-16)
(0.953816 -0.0752212 9.89716e-16)
(0.924793 -0.0657598 1.07189e-15)
(0.898341 -0.0578026 1.19727e-15)
(0.874287 -0.0510759 1.06516e-15)
(0.852427 -0.0453584 1.1748e-15)
(0.83255 -0.0404721 1.32403e-15)
(0.814456 -0.036274 1.14879e-15)
(0.797958 -0.0326488 1.31312e-15)
(0.782887 -0.0295033 1.49292e-15)
(0.769091 -0.0267618 1.30378e-15)
(0.756435 -0.0243623 1.50948e-15)
(0.744799 -0.0222537 1.75736e-15)
(0.734076 -0.0203937 1.99161e-15)
(0.724173 -0.0187473 2.20803e-15)
(0.715006 -0.017285 2.41115e-15)
(0.706502 -0.0159821 2.56837e-15)
(0.698596 -0.0148176 2.69262e-15)
(0.691231 -0.0137738 2.40204e-15)
(0.684355 -0.0128356 2.56704e-15)
(0.677922 -0.01199 2.78521e-15)
(0.671892 -0.0112258 2.98505e-15)
(0.66623 -0.0105336 3.16902e-15)
(0.660902 -0.00990486 3.29859e-15)
(0.655879 -0.00933254 3.20534e-15)
(0.651137 -0.00881032 3.36528e-15)
(0.646652 -0.00833274 3.53311e-15)
(0.642402 -0.00789503 3.69968e-15)
(0.63837 -0.00749297 3.84858e-15)
(0.634538 -0.00712289 3.90369e-15)
(0.63089 -0.00678155 3.79524e-15)
(0.627414 -0.00646606 3.90097e-15)
(0.624097 -0.0061739 4.03478e-15)
(0.620927 -0.00590283 4.16136e-15)
(0.617894 -0.00565083 4.30354e-15)
(0.614988 -0.00541614 4.34702e-15)
(0.612202 -0.00519718 4.10541e-15)
(0.609527 -0.00499253 4.30524e-15)
(0.606956 -0.00480093 4.45886e-15)
(0.604483 -0.00462125 4.59163e-15)
(0.602101 -0.00445248 4.71936e-15)
(0.599806 -0.0042937 4.85178e-15)
(0.597592 -0.0041441 4.96288e-15)
(0.595455 -0.00400294 5.05496e-15)
(0.59339 -0.00386956 5.1501e-15)
(0.591393 -0.00374334 5.16792e-15)
(0.589461 -0.00362376 4.98615e-15)
(0.587591 -0.00351031 5.02448e-15)
(0.585779 -0.00340254 5.15301e-15)
(0.584022 -0.00330006 5.22663e-15)
(0.582318 -0.00320249 5.33607e-15)
(0.580665 -0.0031095 5.41862e-15)
(0.579059 -0.00302077 5.50722e-15)
(0.577499 -0.00293602 5.57904e-15)
(0.575982 -0.002855 5.66244e-15)
(0.574507 -0.00277748 5.70091e-15)
(0.573072 -0.00270322 5.76306e-15)
(1.0282 -0.116457 -1.97426e-18)
(1.12458 -0.207781 -3.66591e-18)
(1.1723 -0.235818 1.84381e-16)
(1.18194 -0.223556 2.59918e-16)
(1.16038 -0.196596 4.30983e-16)
(1.12264 -0.167616 4.83321e-16)
(1.07857 -0.141299 6.60865e-16)
(1.03359 -0.118992 5.2751e-16)
(0.990557 -0.100604 5.10728e-16)
(0.950708 -0.085587 6.95254e-16)
(0.914427 -0.0733264 6.9224e-16)
(0.881681 -0.0632733 8.79104e-16)
(0.852238 -0.0549777 1.05263e-15)
(0.825793 -0.0480829 1.18278e-15)
(0.802029 -0.0423103 1.00849e-15)
(0.780641 -0.0374426 1.15033e-15)
(0.76135 -0.03331 1.29443e-15)
(0.743908 -0.0297792 1.04219e-15)
(0.728096 -0.0267449 1.28219e-15)
(0.713722 -0.0241229 1.43644e-15)
(0.700621 -0.0218458 1.18348e-15)
(0.688646 -0.0198589 1.44446e-15)
(0.677671 -0.0181177 1.68139e-15)
(0.667587 -0.0165856 1.94526e-15)
(0.658295 -0.0152324 2.11662e-15)
(0.649713 -0.0140328 2.30962e-15)
(0.641767 -0.0129658 2.44809e-15)
(0.634393 -0.0120138 2.5173e-15)
(0.627532 -0.0111616 2.09127e-15)
(0.621135 -0.0103965 2.35709e-15)
(0.615157 -0.00970783 2.58669e-15)
(0.609559 -0.00908611 2.77573e-15)
(0.604307 -0.00852341 2.95495e-15)
(0.599369 -0.00801282 3.06083e-15)
(0.594718 -0.00754836 2.90078e-15)
(0.590328 -0.00712486 3.09352e-15)
(0.586178 -0.00673779 3.27834e-15)
(0.582248 -0.00638323 3.42748e-15)
(0.57852 -0.00605771 3.56174e-15)
(0.574979 -0.0057582 3.60514e-15)
(0.571609 -0.00548206 3.4179e-15)
(0.568398 -0.00522692 3.58066e-15)
(0.565335 -0.00499071 3.73106e-15)
(0.562408 -0.00477159 3.85282e-15)
(0.559608 -0.00456795 3.97277e-15)
(0.556926 -0.00437832 4.01905e-15)
(0.554354 -0.00420142 3.77332e-15)
(0.551885 -0.00403611 3.9379e-15)
(0.549512 -0.00388135 4.11113e-15)
(0.54723 -0.00373623 4.24085e-15)
(0.545033 -0.00359992 4.36939e-15)
(0.542915 -0.00347169 4.48789e-15)
(0.540872 -0.00335088 4.59383e-15)
(0.5389 -0.00323688 4.66951e-15)
(0.536995 -0.00312915 4.74854e-15)
(0.535152 -0.00302722 4.7497e-15)
(0.53337 -0.00293064 4.49763e-15)
(0.531644 -0.002839 4.62272e-15)
(0.529972 -0.00275196 4.73668e-15)
(0.528352 -0.00266918 4.81447e-15)
(0.526779 -0.00259036 4.91909e-15)
(0.525254 -0.00251524 5.00066e-15)
(0.523772 -0.00244355 5.04778e-15)
(0.522332 -0.00237508 5.13416e-15)
(0.520933 -0.00230962 5.20588e-15)
(0.519572 -0.00224697 5.26083e-15)
(0.518248 -0.00218697 5.29301e-15)
(1.03781 -0.145187 5.42064e-18)
(1.14551 -0.227798 6.44511e-18)
(1.1732 -0.239465 1.11809e-16)
(1.1594 -0.214198 2.75675e-16)
(1.11721 -0.180131 4.1553e-16)
(1.06435 -0.148488 3.99391e-16)
(1.01027 -0.122043 6.65782e-16)
(0.959119 -0.100835 5.34703e-16)
(0.912574 -0.084027 4.8189e-16)
(0.870968 -0.0706924 7.1529e-16)
(0.834063 -0.0600405 6.77037e-16)
(0.801407 -0.0514521 8.07012e-16)
(0.772496 -0.0444582 1.05976e-15)
(0.746848 -0.0387064 1.19377e-15)
(0.724028 -0.0339317 8.97945e-16)
(0.703658 -0.0299337 1.14913e-15)
(0.68541 -0.0265593 1.29692e-15)
(0.669005 -0.0236906 1.05815e-15)
(0.654206 -0.0212356 1.2702e-15)
(0.640809 -0.0191219 1.41645e-15)
(0.628642 -0.017292 1.19137e-15)
(0.617555 -0.0156998 1.43674e-15)
(0.607422 -0.0143078 1.66479e-15)
(0.598132 -0.0130857 1.935e-15)
(0.589591 -0.0120083 2.0736e-15)
(0.581716 -0.0110548 2.23463e-15)
(0.574436 -0.0102081 2.35382e-15)
(0.567689 -0.00945366 2.36892e-15)
(0.561419 -0.00877918 1.84838e-15)
(0.555579 -0.00817439 2.20656e-15)
(0.550128 -0.00763047 2.4248e-15)
(0.545027 -0.00713993 2.61632e-15)
(0.540243 -0.00669631 2.7797e-15)
(0.535749 -0.00629407 2.85853e-15)
(0.531518 -0.00592843 2.54518e-15)
(0.527526 -0.00559522 2.88383e-15)
(0.523754 -0.00529084 3.05761e-15)
(0.520183 -0.00501215 3.19535e-15)
(0.516796 -0.0047564 3.31482e-15)
(0.51358 -0.00452117 3.332e-15)
(0.51052 -0.00430435 3.01208e-15)
(0.507605 -0.00410407 3.28921e-15)
(0.504824 -0.0039187 3.45756e-15)
(0.502167 -0.00374678 3.58207e-15)
(0.499625 -0.00358701 3.68517e-15)
(0.497191 -0.00343827 3.68637e-15)
(0.494856 -0.00329952 3.39669e-15)
(0.492615 -0.00316986 3.60662e-15)
(0.490462 -0.00304849 3.77585e-15)
(0.488391 -0.00293469 3.92199e-15)
(0.486396 -0.00282779 4.03395e-15)
(0.484474 -0.00272723 4.1339e-15)
(0.48262 -0.00263248 4.24022e-15)
(0.48083 -0.00254307 4.29284e-15)
(0.4791 -0.00245858 4.36446e-15)
(0.477428 -0.00237863 4.34952e-15)
(0.47581 -0.00230286 3.96708e-15)
(0.474244 -0.00223098 4.21409e-15)
(0.472726 -0.0021627 4.34627e-15)
(0.471255 -0.00209775 4.42275e-15)
(0.469827 -0.0020359 4.5017e-15)
(0.468442 -0.00197695 4.58761e-15)
(0.467096 -0.00192069 4.64887e-15)
(0.465789 -0.00186695 4.72231e-15)
(0.464519 -0.00181557 4.76533e-15)
(0.463283 -0.0017664 4.82122e-15)
(0.462081 -0.00171929 4.83955e-15)
(1.04813 -0.179567 -3.7255e-18)
(1.16124 -0.243639 -3.83809e-18)
(1.1577 -0.234537 1.00767e-16)
(1.11568 -0.196728 1.24183e-16)
(1.05258 -0.157736 2.41782e-16)
(0.986521 -0.125606 3.00221e-16)
(0.925048 -0.100679 5.55721e-16)
(0.870275 -0.0816738 4.89716e-16)
(0.822423 -0.0671419 4.32691e-16)
(0.780881 -0.0559101 6.07834e-16)
(0.744823 -0.0471113 6.03889e-16)
(0.713442 -0.0401221 7.64587e-16)
(0.686016 -0.0344962 9.44289e-16)
(0.661936 -0.029912 1.05861e-15)
(0.640689 -0.026135 8.91394e-16)
(0.621852 -0.0229917 1.0285e-15)
(0.605074 -0.0203523 1.12853e-15)
(0.590064 -0.0181181 1.03983e-15)
(0.576577 -0.0162131 1.14634e-15)
(0.564412 -0.0145781 1.244e-15)
(0.553396 -0.0131666 1.15144e-15)
(0.543384 -0.0119413 1.28896e-15)
(0.534253 -0.0108725 1.4984e-15)
(0.525899 -0.00993582 1.77685e-15)
(0.518232 -0.00911148 1.88061e-15)
(0.511173 -0.0083831 1.99765e-15)
(0.504655 -0.00773713 2.0715e-15)
(0.498621 -0.00716222 2.07539e-15)
(0.493019 -0.00664885 1.70426e-15)
(0.487807 -0.00618897 1.9183e-15)
(0.482943 -0.00577576 2.12393e-15)
(0.478396 -0.00540339 2.31282e-15)
(0.474134 -0.00506688 2.45355e-15)
(0.470131 -0.00476196 2.5077e-15)
(0.466364 -0.00448494 2.30587e-15)
(0.462811 -0.00423263 2.52566e-15)
(0.459454 -0.00400225 2.67921e-15)
(0.456277 -0.00379139 2.81394e-15)
(0.453265 -0.00359795 2.90816e-15)
(0.450404 -0.00342009 2.91918e-15)
(0.447683 -0.00325619 2.7004e-15)
(0.445091 -0.00310482 2.88875e-15)
(0.442618 -0.00296475 3.04534e-15)
(0.440255 -0.00283485 3.13791e-15)
(0.437995 -0.00271415 3.21985e-15)
(0.43583 -0.00260179 3.21862e-15)
(0.433754 -0.00249698 2.96309e-15)
(0.431762 -0.00239904 3.13541e-15)
(0.429847 -0.00230736 3.30237e-15)
(0.428004 -0.00222139 3.4366e-15)
(0.426231 -0.00214065 3.54804e-15)
(0.424521 -0.00206468 3.62009e-15)
(0.422871 -0.0019931 3.73044e-15)
(0.421279 -0.00192555 3.77552e-15)
(0.419741 -0.00186171 3.82099e-15)
(0.418253 -0.00180129 3.81556e-15)
(0.416813 -0.00174404 3.53268e-15)
(0.415419 -0.00168971 3.68534e-15)
(0.414069 -0.00163809 3.80468e-15)
(0.412759 -0.001589 3.87647e-15)
(0.411489 -0.00154224 3.95597e-15)
(0.410256 -0.00149767 4.0458e-15)
(0.409058 -0.00145513 4.0865e-15)
(0.407895 -0.00141449 4.13816e-15)
(0.406764 -0.00137562 4.1838e-15)
(0.405664 -0.00133843 4.22454e-15)
(0.404593 -0.00130279 4.22115e-15)
(0.403552 -0.00126863 4.19671e-15)
(1.05612 -0.218412 8.48056e-18)
(1.16395 -0.251359 -9.84928e-18)
(1.11719 -0.218566 9.66254e-17)
(1.04463 -0.170722 2.02747e-16)
(0.963044 -0.130145 2.93807e-16)
(0.88765 -0.100073 3.93035e-16)
(0.822536 -0.0782902 5.17984e-16)
(0.767275 -0.0624317 4.29239e-16)
(0.720597 -0.0506906 3.98458e-16)
(0.681042 -0.0418235 5.61207e-16)
(0.647323 -0.0349947 5.34271e-16)
(0.618375 -0.0296401 7.33342e-16)
(0.593346 -0.0253731 8.5937e-16)
(0.571557 -0.0219237 9.41432e-16)
(0.552463 -0.0190999 8.63122e-16)
(0.535632 -0.0167622 9.2824e-16)
(0.520711 -0.0148079 1.01146e-15)
(0.507414 -0.0131597 9.80209e-16)
(0.495508 -0.0117589 1.03518e-15)
(0.484799 -0.0105599 1.11198e-15)
(0.475126 -0.00952718 1.07006e-15)
(0.466353 -0.00863265 1.15079e-15)
(0.458367 -0.00785375 1.32799e-15)
(0.451072 -0.00717229 1.66174e-15)
(0.444385 -0.00657344 1.68903e-15)
(0.438237 -0.006045 1.78383e-15)
(0.432566 -0.00557691 1.82552e-15)
(0.42732 -0.00516075 1.80948e-15)
(0.422454 -0.0047895 1.45455e-15)
(0.417928 -0.00445722 1.67458e-15)
(0.413709 -0.00415889 1.87546e-15)
(0.409764 -0.00389024 2.01721e-15)
(0.406069 -0.00364761 2.14625e-15)
(0.4026 -0.00342789 2.20381e-15)
(0.399336 -0.00322836 2.01308e-15)
(0.396258 -0.0030467 2.19629e-15)
(0.39335 -0.0028809 2.33218e-15)
(0.390599 -0.0027292 2.45958e-15)
(0.38799 -0.00259007 2.54304e-15)
(0.385512 -0.00246217 2.54623e-15)
(0.383156 -0.00234433 2.33819e-15)
(0.380911 -0.00223552 2.50503e-15)
(0.378769 -0.00213484 2.64161e-15)
(0.376722 -0.00204148 2.71818e-15)
(0.374765 -0.00195474 2.80033e-15)
(0.372889 -0.00187399 2.76538e-15)
(0.371091 -0.00179867 2.47226e-15)
(0.369365 -0.00172829 2.70329e-15)
(0.367705 -0.00166241 2.85653e-15)
(0.366109 -0.00160062 2.97207e-15)
(0.364572 -0.00154258 3.07859e-15)
(0.36309 -0.00148797 3.148e-15)
(0.36166 -0.00143652 3.2315e-15)
(0.36028 -0.00138795 3.27139e-15)
(0.358946 -0.00134205 3.31538e-15)
(0.357656 -0.0012986 3.29531e-15)
(0.356408 -0.00125742 3.05534e-15)
(0.355199 -0.00121835 3.19166e-15)
(0.354028 -0.00118122 3.2886e-15)
(0.352892 -0.00114589 3.37153e-15)
(0.35179 -0.00111225 3.41847e-15)
(0.350721 -0.00108018 3.48823e-15)
)
;

boundaryField
{
    inlet
    {
        type            uniformFixedValue;
        uniformValue    constant (1 0 0);
        value           uniform (1 0 0);
    }
    outlet
    {
        type            pressureInletOutletVelocity;
        value           nonuniform 0();
    }
    wall
    {
        type            fixedValue;
        value           nonuniform 0();
    }
    wedge1
    {
        type            wedge;
    }
    wedge2
    {
        type            wedge;
    }
    axis
    {
        type            empty;
    }
    procBoundary36to30
    {
        type            processor;
        value           nonuniform List<vector> 
68
(
(0.701543 -0.00554231 6.04865e-15)
(0.699289 -0.00536133 6.08268e-15)
(0.697108 -0.00518984 5.90839e-15)
(0.694996 -0.00502716 5.95134e-15)
(0.69295 -0.00487263 6.0512e-15)
(0.690966 -0.00472568 6.13343e-15)
(0.689041 -0.00458577 6.2316e-15)
(0.687173 -0.00445243 6.34064e-15)
(0.685359 -0.00432521 6.41927e-15)
(0.683596 -0.00420371 6.52031e-15)
(0.681883 -0.00408756 6.59947e-15)
(0.680216 -0.00397642 6.67029e-15)
(0.678595 -0.00386998 6.76139e-15)
(1.01432 -0.075125 -5.50465e-18)
(1.08338 -0.165525 2.00647e-18)
(1.14594 -0.212678 -1.09832e-17)
(1.18548 -0.222688 3.8269e-16)
(1.19777 -0.212167 6.50288e-16)
(1.18987 -0.192708 6.45688e-16)
(1.1691 -0.17073 7.51184e-16)
(1.14117 -0.149486 6.07187e-16)
(1.11005 -0.13031 5.90673e-16)
(1.07822 -0.113572 7.37118e-16)
(1.04713 -0.0991991 8.04263e-16)
(1.01754 -0.0869426 9.71343e-16)
(0.989845 -0.0765101 1.1169e-15)
(0.964158 -0.0676205 1.25057e-15)
(0.94047 -0.0600249 1.11884e-15)
(0.918694 -0.0535114 1.22707e-15)
(0.898705 -0.0479035 1.40086e-15)
(0.880363 -0.0430552 1.21136e-15)
(0.863526 -0.0388461 1.38778e-15)
(0.848055 -0.0351772 1.60104e-15)
(0.833822 -0.0319666 1.40219e-15)
(0.820709 -0.0291466 1.61362e-15)
(0.808606 -0.0266609 1.88015e-15)
(0.797417 -0.0244623 2.09863e-15)
(0.787053 -0.0225114 2.32862e-15)
(0.777436 -0.0207749 2.55094e-15)
(0.768494 -0.0192245 2.76417e-15)
(0.760164 -0.0178365 2.91438e-15)
(0.75239 -0.0165904 2.65097e-15)
(0.745121 -0.0154687 2.8014e-15)
(0.738311 -0.0144564 3.01238e-15)
(0.731921 -0.0135405 3.23139e-15)
(0.725913 -0.0127099 3.42969e-15)
(0.720255 -0.0119549 3.57064e-15)
(0.714917 -0.0112669 3.51414e-15)
(0.709872 -0.0106387 3.63711e-15)
(0.705098 -0.0100638 3.81145e-15)
(0.700573 -0.00953657 3.98998e-15)
(0.696276 -0.009052 4.14403e-15)
(0.692191 -0.00860576 4.22895e-15)
(0.688301 -0.00819397 4.14761e-15)
(0.684593 -0.00781323 4.23622e-15)
(0.681053 -0.00746052 4.36814e-15)
(0.677669 -0.00713316 4.50529e-15)
(0.674431 -0.00682876 4.64485e-15)
(0.671329 -0.00654521 4.73342e-15)
(0.668353 -0.00628061 4.59042e-15)
(0.665495 -0.00603326 4.71734e-15)
(0.662749 -0.00580165 4.84982e-15)
(0.660106 -0.00558443 4.9948e-15)
(0.657561 -0.00538038 5.122e-15)
(0.655109 -0.0051884 5.25831e-15)
(0.652742 -0.0050075 5.37217e-15)
(0.650458 -0.00483681 5.48243e-15)
(0.650458 -0.00483681 5.48243e-15)
)
;
    }
    procBoundary36to31
    {
        type            processor;
        value           uniform (0.625036 -0.0031792 6.24437e-15);
    }
    procBoundary36to37
    {
        type            processor;
        value           nonuniform List<vector> 5((0.571675 -0.00263205 5.75637e-15) (0.516959 -0.00212944 5.28937e-15) (0.46091 -0.00167413 4.82073e-15) (0.46091 -0.00167413 4.82073e-15) (0.402537 -0.00123584 3.93665e-15));
    }
    procBoundary36to42
    {
        type            processor;
        value           nonuniform List<vector> 
69
(
(0.349682 -0.00104956 3.53933e-15)
(0.348673 -0.00102031 3.57078e-15)
(0.347691 -0.00099233 3.62058e-15)
(0.346737 -0.000965549 3.6397e-15)
(0.345808 -0.000939891 3.64566e-15)
(0.344904 -0.000915286 3.60312e-15)
(1.05494 -0.258423 4.51332e-18)
(1.14137 -0.245968 1.92504e-19)
(1.04121 -0.18973 1.1354e-16)
(0.940323 -0.136882 2.87171e-16)
(0.84613 -0.0989634 3.62804e-16)
(0.767217 -0.0735087 3.27337e-16)
(0.70313 -0.0562117 5.10846e-16)
(0.650882 -0.0441342 3.73084e-16)
(0.607955 -0.0354425 3.32879e-16)
(0.572293 -0.0290081 5.49572e-16)
(0.542334 -0.0241245 4.56321e-16)
(0.516899 -0.0203369 5.79509e-16)
(0.495099 -0.017344 7.86456e-16)
(0.476251 -0.0149408 8.73602e-16)
(0.459828 -0.012984 6.17838e-16)
(0.445417 -0.0113714 8.45067e-16)
(0.432691 -0.0100282 9.22368e-16)
(0.421387 -0.00889893 7.26338e-16)
(0.411293 -0.00794172 9.17571e-16)
(0.402234 -0.00712436 9.92594e-16)
(0.394068 -0.0064218 7.97986e-16)
(0.386675 -0.00581433 1.03616e-15)
(0.379956 -0.00528622 1.2092e-15)
(0.373825 -0.00482484 1.44326e-15)
(0.368212 -0.0044199 1.50657e-15)
(0.363055 -0.00406299 1.58385e-15)
(0.358302 -0.00374715 1.61268e-15)
(0.353909 -0.00346663 1.57408e-15)
(0.349836 -0.00321658 1.17141e-15)
(0.34605 -0.00299295 1.46998e-15)
(0.342521 -0.0027923 1.6324e-15)
(0.339224 -0.00261173 1.76918e-15)
(0.336135 -0.00244873 1.86804e-15)
(0.333236 -0.00230119 1.91371e-15)
(0.330508 -0.00216726 1.67622e-15)
(0.327937 -0.00204538 1.91153e-15)
(0.325508 -0.00193417 2.01527e-15)
(0.323209 -0.00183244 2.10828e-15)
(0.321029 -0.00173916 2.17845e-15)
(0.318959 -0.00165343 2.18125e-15)
(0.31699 -0.00157445 1.95085e-15)
(0.315114 -0.00150153 2.16019e-15)
(0.313324 -0.00143406 2.26602e-15)
(0.311613 -0.0013715 2.3388e-15)
(0.309977 -0.00131338 2.38537e-15)
(0.30841 -0.00125927 2.36092e-15)
(0.306906 -0.00120879 2.08992e-15)
(0.305463 -0.00116163 2.30736e-15)
(0.304075 -0.00111747 2.43362e-15)
(0.30274 -0.00107606 2.52522e-15)
(0.301454 -0.00103715 2.60521e-15)
(0.300214 -0.00100054 2.68348e-15)
(0.299018 -0.000966041 2.74039e-15)
(0.297863 -0.000933475 2.79217e-15)
(0.296746 -0.00090269 2.82261e-15)
(0.295667 -0.000873549 2.78141e-15)
(0.294622 -0.000845926 2.53986e-15)
(0.29361 -0.000819708 2.71966e-15)
(0.292629 -0.000794792 2.78464e-15)
(0.291678 -0.000771085 2.85273e-15)
(0.290755 -0.000748504 2.90149e-15)
(0.349682 -0.00104956 3.53933e-15)
(0.28986 -0.00072697 2.95688e-15)
)
;
    }
}


// ************************************************************************* //
