/*--------------------------------*- C++ -*----------------------------------*\
  =========                 |
  \\      /  F ield         | OpenFOAM: The Open Source CFD Toolbox
   \\    /   O peration     | Website:  https://openfoam.org
    \\  /    A nd           | Version:  7
     \\/     M anipulation  |
\*---------------------------------------------------------------------------*/
FoamFile
{
    version     2.0;
    format      ascii;
    class       volVectorField;
    location    "3";
    object      U;
}
// * * * * * * * * * * * * * * * * * * * * * * * * * * * * * * * * * * * * * //

dimensions      [0 1 -1 0 0 0 0];

internalField   nonuniform List<vector> 
344
(
(0.262169 1.03425 -1.95462e-14)
(-0.177003 1.1482 -1.62725e-14)
(-0.475975 1.02886 -2.12041e-14)
(-0.650206 0.773239 -1.90615e-14)
(-0.755236 0.482169 -1.41875e-14)
(-0.782955 0.179956 -2.91634e-15)
(-0.747253 -0.119772 -6.0104e-15)
(-0.6496 -0.39052 -1.34842e-15)
(-0.501265 -0.62564 -6.73832e-15)
(-0.342214 -0.82352 4.37691e-15)
(-0.159987 -0.988581 -1.0662e-14)
(0.0437827 -1.09288 3.76203e-15)
(0.262332 -1.13169 -8.00695e-15)
(0.478665 -1.12979 -3.1775e-15)
(0.660905 -1.10872 -4.72372e-15)
(0.826977 -1.07717 -4.73579e-15)
(0.981281 -1.09904 -5.1122e-15)
(1.16487 -1.13945 -8.60485e-16)
(1.37306 -1.1397 -6.4001e-15)
(1.56934 -1.10512 1.82621e-15)
(1.73193 -1.07632 -6.74588e-15)
(1.884 -1.06741 2.51764e-15)
(2.0586 -1.06846 -7.04605e-15)
(2.25185 -1.06904 1.07167e-15)
(2.44607 -1.0647 -7.92411e-15)
(2.63472 -1.05654 -2.53835e-15)
(2.8283 -1.02831 -1.04005e-14)
(3.0249 -0.97869 -5.96626e-15)
(3.21054 -0.925729 -1.23549e-14)
(3.37868 -0.859474 -1.02755e-14)
(3.52126 -0.764396 -1.39768e-14)
(3.63505 -0.673597 -1.05635e-14)
(3.7287 -0.601497 -1.30378e-14)
(3.79563 -0.523968 -1.08059e-14)
(3.84438 -0.459917 -1.05889e-14)
(3.90047 -0.415596 -7.14545e-15)
(3.95021 -0.352043 -5.16833e-15)
(3.98921 -0.283183 -4.95179e-15)
(4.03397 -0.221279 -4.51835e-15)
(4.062 -0.127246 -2.9833e-15)
(4.06765 -0.020469 -2.64432e-15)
(4.07189 0.0722844 -1.93357e-15)
(4.04858 0.187673 -1.0836e-15)
(3.98433 0.313833 1.18791e-15)
(3.91151 0.408359 -1.65694e-15)
(3.82655 0.516019 -5.20744e-15)
(3.71642 0.641673 -7.9294e-15)
(3.61166 0.718044 -1.16748e-14)
(3.50351 0.797284 -1.61643e-14)
(1.88836 1.0425 -2.34923e-15)
(1.79505 0.831962 -1.49162e-15)
(1.64716 0.801126 -3.16122e-15)
(1.49212 0.800557 -2.40295e-17)
(1.43179 0.672655 -6.18971e-15)
(1.34456 0.504572 -3.40771e-17)
(1.25137 0.401056 6.89571e-18)
(1.20394 0.327526 7.14967e-15)
(1.21096 0.27225 7.53478e-15)
(1.21016 0.23975 8.75634e-15)
(1.20438 0.199004 6.82903e-15)
(1.16651 0.170794 -2.09494e-15)
(1.16634 0.286609 6.79046e-15)
(1.13582 0.468471 9.9326e-15)
(1.08637 0.622284 -1.02314e-15)
(1.01612 0.730663 -6.00006e-15)
(0.852964 0.855071 -9.61574e-15)
(0.577317 1.07309 -1.0579e-14)
(0.109577 1.33346 -1.68567e-14)
(-0.316936 1.37632 -1.26578e-14)
(-0.551998 1.14195 -1.19641e-14)
(-0.690601 0.844513 1.86576e-15)
(-0.787179 0.5101 -4.92847e-15)
(-0.809732 0.163077 -2.05282e-15)
(-0.756235 -0.178049 -3.06274e-15)
(-0.637014 -0.486635 -1.02114e-14)
(-0.47164 -0.729885 -3.29079e-15)
(-0.299416 -0.920372 -1.70525e-14)
(-0.131077 -1.0859 -7.81183e-15)
(0.0427038 -1.19851 -1.95549e-14)
(0.227704 -1.23708 -1.95799e-14)
(0.417624 -1.21381 -2.19236e-14)
(0.556486 -1.15618 -2.11643e-14)
(0.684712 -1.10809 -2.32133e-14)
(0.815712 -1.1699 -1.30711e-14)
(1.00071 -1.2401 -1.90009e-14)
(1.21386 -1.22181 -1.474e-14)
(1.39515 -1.16135 -1.85113e-14)
(1.52684 -1.13276 -1.56088e-14)
(1.66473 -1.13599 -1.50306e-14)
(1.83521 -1.15178 -1.79547e-14)
(2.01076 -1.16708 -1.82948e-14)
(2.19174 -1.16116 -2.54889e-14)
(2.37955 -1.14597 -2.35131e-14)
(2.5739 -1.12571 -3.02745e-14)
(2.76562 -1.08507 -2.83948e-14)
(2.94708 -1.01395 -3.41354e-14)
(3.11022 -0.923592 -2.98598e-14)
(3.2519 -0.816307 -3.46737e-14)
(3.35847 -0.70544 -3.3117e-14)
(3.42046 -0.609258 -3.70789e-14)
(3.45982 -0.523587 -3.31344e-14)
(3.49447 -0.459554 -2.98782e-14)
(3.52699 -0.41655 -2.59138e-14)
(3.56119 -0.361225 -2.29773e-14)
(3.5935 -0.293825 -2.07265e-14)
(3.62069 -0.222787 -1.59548e-14)
(3.64369 -0.132237 -1.32301e-14)
(3.64839 -0.0288611 -9.37555e-15)
(3.62198 0.0900851 -3.55759e-15)
(3.57756 0.231479 3.05507e-15)
(3.54548 0.338903 7.68843e-15)
(3.51841 0.404293 6.73342e-15)
(3.43662 0.516052 2.8395e-15)
(3.30839 0.658906 -3.54363e-15)
(3.19808 0.762852 -8.41712e-15)
(3.06838 0.895296 -1.44003e-14)
(2.89136 1.03102 -1.81817e-14)
(1.79499 1.08648 -6.17488e-15)
(1.62663 0.912836 1.6123e-15)
(1.50065 0.897552 -5.077e-15)
(1.44653 0.84666 1.83035e-16)
(1.38132 0.719809 -4.07672e-15)
(1.24762 0.542348 2.14069e-15)
(1.20324 0.302299 -4.64098e-15)
(1.22012 0.121722 -3.13329e-15)
(1.28095 0.0323797 -1.07812e-14)
(1.28963 0.0154013 -1.60514e-14)
(1.2688 0.0808209 -1.05121e-14)
(1.17605 0.15173 -1.78386e-14)
(1.11706 0.250202 -1.80962e-14)
(1.09914 0.389334 -1.11289e-14)
(1.06074 0.554824 -1.02481e-14)
(0.950577 0.779663 -9.72255e-15)
(0.719237 1.03406 -1.18881e-14)
(0.377901 1.36994 -1.26167e-14)
(-0.0954241 1.63855 -1.4991e-14)
(-0.357672 1.53356 -1.38901e-14)
(-0.49495 1.22241 -5.7417e-15)
(-0.660481 0.908809 -6.41249e-15)
(-0.780193 0.545525 -7.32848e-15)
(-0.807136 0.147826 -6.19708e-15)
(-0.737637 -0.248273 -8.34306e-15)
(-0.593175 -0.592264 -2.73003e-15)
(-0.41575 -0.841766 -1.24705e-14)
(-0.209754 -1.01592 8.98634e-16)
(-0.0342585 -1.15208 -6.03958e-15)
(0.111744 -1.26154 -3.67598e-15)
(0.250548 -1.30567 -3.017e-15)
(0.395359 -1.26184 -2.71225e-15)
(0.481536 -1.16539 -6.88004e-15)
(0.590249 -1.12369 3.55929e-15)
(0.726142 -1.24752 3.52076e-15)
(0.907882 -1.34096 7.37668e-15)
(1.10257 -1.28927 4.56029e-15)
(1.24841 -1.2005 7.31083e-15)
(1.33478 -1.17693 6.72269e-15)
(1.44588 -1.19532 5.96096e-15)
(1.60339 -1.21904 1.4095e-15)
(1.76333 -1.24077 -2.43349e-15)
(1.93275 -1.24868 -5.68744e-15)
(2.10321 -1.24793 -7.50783e-15)
(2.28706 -1.21988 -8.76544e-15)
(2.46845 -1.17299 -9.0401e-15)
(2.64781 -1.10097 -1.07238e-14)
(2.8155 -0.993341 -1.02563e-14)
(2.94794 -0.863316 -1.45936e-14)
(3.03497 -0.726608 -1.60327e-14)
(3.07307 -0.599403 -1.83178e-14)
(3.08384 -0.504648 -1.64717e-14)
(3.09604 -0.449565 -1.73421e-14)
(3.10335 -0.404951 -1.50907e-14)
(3.11592 -0.348471 -1.76486e-14)
(3.15246 -0.295878 -1.37375e-14)
(3.17077 -0.231388 -1.5512e-14)
(3.15667 -0.122429 -1.48628e-14)
(3.15494 0.000940459 -1.5192e-14)
(3.14701 0.114251 -6.19443e-15)
(3.08843 0.240685 2.5218e-16)
(3.01696 0.373738 6.00811e-15)
(2.9558 0.502242 5.10091e-15)
(2.88292 0.629472 3.64668e-15)
(2.82227 0.721536 -6.74662e-16)
(2.75701 0.805285 -6.19097e-15)
(2.61116 0.947509 -1.47345e-14)
(2.44387 1.05151 -1.76836e-14)
(1.64519 1.18665 -4.02516e-15)
(1.4797 1.02369 -1.98133e-16)
(1.42503 0.888208 -4.26663e-15)
(1.41913 0.788472 1.05723e-15)
(1.33626 0.719062 -4.69331e-15)
(1.28299 0.574199 1.72672e-15)
(1.27824 0.357355 -3.01991e-15)
(1.26585 0.200703 -2.10267e-16)
(1.22153 0.175238 -1.54348e-15)
(1.13192 0.214029 -5.63807e-15)
(1.04577 0.254375 -6.0936e-15)
(0.985861 0.263256 -2.57062e-15)
(0.944589 0.291486 -1.12209e-14)
(0.959058 0.423408 -1.18766e-14)
(0.930389 0.621286 -1.25677e-14)
(0.846894 0.889981 -1.06135e-14)
(0.644563 1.22472 -1.23468e-14)
(0.283116 1.6335 -1.27381e-14)
(-0.0820546 1.81747 -1.35013e-14)
(-0.228341 1.57476 -3.65931e-15)
(-0.437937 1.2977 -3.70067e-15)
(-0.636998 0.996627 -9.24933e-16)
(-0.750452 0.580373 -2.6886e-15)
(-0.751714 0.106399 -4.36943e-15)
(-0.648869 -0.37269 -5.58863e-15)
(-0.481559 -0.749161 -1.29881e-14)
(-0.291161 -1.00694 -7.75384e-15)
(-0.077568 -1.15771 -1.12509e-14)
(0.122 -1.22934 -9.3544e-15)
(0.259526 -1.2904 -7.84427e-15)
(0.358896 -1.32147 -1.05657e-14)
(0.444148 -1.25264 -1.87895e-14)
(0.482452 -1.13663 -1.05936e-14)
(0.588362 -1.15034 -7.60317e-15)
(0.716414 -1.33448 1.75565e-16)
(0.852963 -1.41441 -5.90661e-15)
(0.975461 -1.30494 -1.07604e-14)
(1.05292 -1.19143 -1.11869e-14)
(1.10944 -1.18663 -1.31363e-14)
(1.21925 -1.2269 -1.15892e-14)
(1.35478 -1.27017 -1.96031e-14)
(1.47405 -1.30267 -1.89282e-14)
(1.6219 -1.31243 -2.36523e-14)
(1.7659 -1.32529 -1.95163e-14)
(1.94547 -1.30794 -2.46317e-14)
(2.12788 -1.26169 -2.10099e-14)
(2.29919 -1.18291 -2.43521e-14)
(2.4526 -1.05599 -1.9594e-14)
(2.57317 -0.886354 -2.15968e-14)
(2.65285 -0.711664 -1.9741e-14)
(2.68108 -0.572898 -2.38404e-14)
(2.6642 -0.477274 -2.03853e-14)
(2.64087 -0.411833 -1.88075e-14)
(2.63704 -0.376076 -1.56492e-14)
(2.6421 -0.34976 -1.56747e-14)
(2.64297 -0.284534 -1.543e-14)
(2.64771 -0.187997 -1.55711e-14)
(2.65686 -0.105258 -1.28615e-14)
(2.64626 -0.00842568 -1.04101e-14)
(2.61099 0.140553 -7.70143e-15)
(2.59416 0.275356 -6.00221e-15)
(2.59632 0.350183 -3.89207e-15)
(2.54806 0.439356 -4.7411e-15)
(2.44429 0.578458 -5.74442e-15)
(2.32754 0.731537 -8.75305e-15)
(2.17865 0.909237 -1.29924e-14)
(2.02092 1.07202 -1.53783e-14)
(1.95937 1.09776 -1.2978e-14)
(1.46834 1.27792 -2.52744e-15)
(1.39792 1.01379 -7.54607e-16)
(1.41976 0.822197 -9.8662e-16)
(1.38032 0.802266 -1.88623e-15)
(1.26569 0.768764 -1.00476e-15)
(1.221 0.558196 2.58631e-15)
(1.20004 0.306409 7.35444e-16)
(1.13908 0.176899 -5.48715e-15)
(1.04921 0.17185 -6.1452e-15)
(0.952514 0.208437 -3.63752e-15)
(0.879574 0.234931 -9.32052e-15)
(0.820653 0.248808 -6.25787e-15)
(0.747305 0.286982 -1.08668e-14)
(0.742202 0.416222 -1.16398e-14)
(0.729888 0.642667 -1.17384e-14)
(0.70344 0.968357 -1.09584e-14)
(0.55329 1.40113 -1.27336e-14)
(0.233429 1.83367 -1.27864e-14)
(0.0207907 1.88542 -9.2258e-15)
(-0.116154 1.63677 -2.15589e-15)
(-0.335637 1.3862 -7.36772e-15)
(-0.460715 1.03591 -7.48622e-15)
(-0.513025 0.567158 -7.25194e-15)
(-0.497352 0.0376586 -5.55546e-15)
(-0.376127 -0.50192 -5.49304e-15)
(-0.195734 -0.892457 -3.61747e-15)
(0.000180425 -1.13489 -7.6542e-15)
(0.161424 -1.2776 -9.85712e-15)
(0.330898 -1.30896 -4.98792e-15)
(0.464647 -1.297 -2.60794e-15)
(0.539515 -1.28733 -9.29352e-15)
(0.547701 -1.19944 -5.27167e-15)
(0.550942 -1.09533 -2.19581e-15)
(0.630452 -1.17831 3.12496e-15)
(0.680649 -1.37399 3.52684e-15)
(0.757118 -1.40608 -5.00289e-16)
(0.78896 -1.25335 -6.85398e-15)
(0.805936 -1.16642 -1.11909e-14)
(0.863233 -1.20372 -7.18295e-15)
(0.961682 -1.23904 -1.04252e-14)
(1.0405 -1.27992 -1.04218e-14)
(1.10816 -1.32333 -1.55097e-14)
(1.24664 -1.35718 -1.19364e-14)
(1.365 -1.39638 -1.53065e-14)
(1.53634 -1.38924 -1.42207e-14)
(1.69955 -1.34472 -1.73675e-14)
(1.85817 -1.25344 -1.72194e-14)
(2.01116 -1.1096 -1.72563e-14)
(2.13164 -0.917493 -1.77409e-14)
(2.20016 -0.70338 -1.91817e-14)
(2.21272 -0.522586 -2.11563e-14)
(2.18913 -0.416802 -1.90146e-14)
(2.15535 -0.37536 -1.88623e-14)
(2.12764 -0.349792 -1.77364e-14)
(2.1097 -0.316615 -2.00393e-14)
(2.09906 -0.276402 -1.77067e-14)
(2.08699 -0.20838 -1.86439e-14)
(2.06577 -0.0967106 -1.46294e-14)
(2.03949 0.0263351 -1.41124e-14)
(2.01648 0.129554 -1.08433e-14)
(1.98246 0.243333 -1.24387e-14)
(1.90988 0.40174 -1.09534e-14)
(1.8132 0.576683 -1.23339e-14)
(1.73518 0.722558 -9.21168e-15)
(1.67734 0.847343 -1.1305e-14)
(1.63065 0.956236 -1.18411e-14)
(1.64096 0.985826 -1.37724e-14)
(1.69839 0.942932 -1.3086e-14)
(1.28465 1.23304 -1.18172e-15)
(1.31396 0.94822 2.75758e-17)
(1.31452 0.822718 -2.50846e-15)
(1.21887 0.834465 -3.35322e-15)
(1.15287 0.749855 -3.49013e-16)
(1.1539 0.536509 1.20577e-15)
(1.12422 0.36211 -1.28099e-15)
(1.02558 0.304816 -3.77423e-15)
(0.917939 0.309117 -6.06507e-15)
(0.830785 0.318233 -7.66766e-16)
(0.769196 0.317378 -6.09568e-15)
(0.71246 0.322848 -7.1017e-15)
(0.647274 0.328349 -8.78615e-15)
(0.619842 0.394063 -9.2152e-15)
(0.627672 0.600402 -1.13103e-14)
(0.646219 0.979088 -1.12626e-14)
(0.530376 1.50156 -1.08177e-14)
(0.308824 1.91629 -1.20742e-14)
(0.212567 1.88499 -5.31909e-15)
(0.101978 1.6687 -2.37942e-15)
(-0.0199222 1.41636 -8.82619e-15)
(-0.0812346 1.02397 -4.43425e-16)
(-0.0861281 0.558103 1.81602e-15)
)
;

boundaryField
{
    inlet
    {
        type            uniformFixedValue;
        uniformValue    constant (1 0 0);
        value           nonuniform 0();
    }
    outlet
    {
        type            pressureInletOutletVelocity;
        value           nonuniform 0();
    }
    wall
    {
        type            fixedValue;
        value           nonuniform 0();
    }
    wedge1
    {
        type            wedge;
    }
    wedge2
    {
        type            wedge;
    }
    axis
    {
        type            empty;
    }
    procBoundary16to10
    {
        type            processor;
        value           nonuniform List<vector> 
68
(
(0.481093 0.732739 -7.83846e-15)
(0.0751036 0.879633 -1.50016e-14)
(-0.286895 0.869596 -1.89595e-14)
(-0.518799 0.696895 -1.35956e-14)
(-0.64221 0.458928 -1.73995e-14)
(-0.689633 0.193137 -1.89176e-14)
(-0.661974 -0.0686227 -1.73739e-14)
(-0.584263 -0.313751 -1.54639e-14)
(-0.454097 -0.532605 -2.35895e-14)
(-0.296401 -0.717778 -1.9973e-14)
(-0.101809 -0.862771 -1.82324e-14)
(0.117585 -0.95199 -2.88982e-14)
(0.346791 -0.991513 -1.6485e-14)
(0.569565 -1.0062 -3.43962e-14)
(0.774585 -1.01171 -2.44655e-14)
(0.96823 -1.00396 -3.42023e-14)
(1.14905 -1.0167 -3.21827e-14)
(1.34032 -1.0401 -3.13984e-14)
(1.55036 -1.0404 -3.60032e-14)
(1.76158 -1.01838 -3.28815e-14)
(1.94991 -1.00041 -3.92389e-14)
(2.12057 -0.993454 -3.37722e-14)
(2.30059 -0.987095 -3.95559e-14)
(2.49283 -0.979105 -3.57489e-14)
(2.68589 -0.964085 -4.23248e-14)
(2.88377 -0.945107 -3.80723e-14)
(3.08488 -0.927365 -4.31005e-14)
(3.26871 -0.8898 -4.00129e-14)
(3.44438 -0.832562 -4.41565e-14)
(3.62811 -0.777805 -3.9801e-14)
(3.78078 -0.709285 -4.40962e-14)
(3.89095 -0.6324 -4.09281e-14)
(4.005 -0.569848 -4.13622e-14)
(4.10115 -0.50184 -3.62746e-14)
(4.15609 -0.438092 -3.74161e-14)
(4.2291 -0.392058 -3.16144e-14)
(4.30361 -0.33071 -3.09713e-14)
(4.33969 -0.261797 -2.54403e-14)
(4.39064 -0.201948 -2.48838e-14)
(4.43676 -0.115744 -1.85051e-14)
(4.43456 -0.0143582 -1.81214e-14)
(4.43682 0.0656939 -1.05089e-14)
(4.41811 0.172424 -9.83719e-15)
(4.34045 0.300872 -4.13942e-15)
(4.27451 0.367724 -4.36304e-15)
(4.21643 0.434375 -3.68294e-15)
(4.1065 0.55911 -8.53178e-15)
(3.97654 0.644501 -9.87801e-15)
(3.84671 0.725726 -1.68167e-14)
(2.01945 1.00713 1.15279e-15)
(1.85348 0.835927 -4.8635e-15)
(1.78292 0.748324 1.44743e-16)
(1.61818 0.745309 -6.66547e-15)
(1.436 0.64466 7.31234e-16)
(1.32685 0.396365 -8.69841e-16)
(1.27808 0.190501 4.61828e-15)
(1.23834 0.0939339 1.19366e-15)
(1.18921 0.0628498 -2.93427e-15)
(1.20695 0.035261 -5.00059e-15)
(1.19014 0.0406793 -9.03554e-15)
(1.24013 0.125515 -2.30294e-15)
(1.32545 0.218909 3.03722e-15)
(1.34021 0.333381 -4.03831e-15)
(1.25293 0.484773 -6.74944e-15)
(1.14017 0.606533 -3.97712e-15)
(0.941541 0.696888 -3.14746e-15)
(0.661733 0.824193 -1.03368e-14)
(0.661733 0.824193 -1.03368e-14)
)
;
    }
    procBoundary16to11
    {
        type            processor;
        value           uniform (3.33443 0.927438 -1.91448e-14);
    }
    procBoundary16to15
    {
        type            processor;
        value           nonuniform List<vector> 3((2.06001 1.22027 -2.91926e-15) (1.96075 1.3447 1.48312e-15) (1.8038 1.41438 1.69749e-15));
    }
    procBoundary16to17
    {
        type            processor;
        value           nonuniform List<vector> 4((2.76053 1.00536 -1.71621e-14) (2.3516 1.03076 -1.35011e-14) (1.9648 1.03026 -1.40661e-14) (1.65122 1.00351 -1.92599e-14));
    }
    procBoundary16to21
    {
        type            processor;
        value           nonuniform List<vector> 2((1.61614 1.50602 7.12858e-16) (1.35209 1.49155 -1.05786e-15));
    }
    procBoundary16to22
    {
        type            processor;
        value           nonuniform List<vector> 
69
(
(-0.0528635 0.00562475 5.4791e-15)
(0.067465 -0.582468 7.25701e-15)
(0.261777 -0.99833 3.60104e-15)
(0.460701 -1.1843 -3.62052e-16)
(0.573227 -1.29894 -7.01091e-15)
(0.63735 -1.35018 -6.23796e-15)
(0.722097 -1.30407 -7.35264e-15)
(0.775043 -1.22988 -5.1057e-15)
(0.715502 -1.11966 -6.13175e-15)
(0.685773 -1.03426 1.41526e-15)
(0.662888 -1.12481 1.57338e-15)
(0.577103 -1.30945 -2.08121e-15)
(0.618819 -1.28943 -1.62887e-15)
(0.597437 -1.11647 -1.15743e-14)
(0.629181 -1.13291 -8.64608e-15)
(0.702223 -1.20824 -7.63316e-15)
(0.734748 -1.20947 -7.13298e-15)
(0.732901 -1.25567 -1.27895e-14)
(0.762327 -1.3257 -8.23764e-15)
(0.867672 -1.3796 -1.05356e-14)
(0.921942 -1.43729 -1.12552e-14)
(1.07056 -1.44791 -1.45469e-14)
(1.20309 -1.4132 -1.42209e-14)
(1.35186 -1.31106 -1.86307e-14)
(1.48937 -1.14781 -1.66751e-14)
(1.59486 -0.938755 -1.47609e-14)
(1.68209 -0.698557 -1.49117e-14)
(1.70522 -0.486231 -1.63411e-14)
(1.66724 -0.348199 -1.5374e-14)
(1.61619 -0.288372 -1.37877e-14)
(1.57117 -0.270262 -1.16721e-14)
(1.52439 -0.249417 -9.74553e-15)
(1.47526 -0.198599 -8.01678e-15)
(1.42877 -0.124572 -9.34831e-15)
(1.38643 -0.0388771 -9.71217e-15)
(1.33996 0.068178 -1.10616e-14)
(1.28461 0.201437 -1.10324e-14)
(1.22856 0.341877 -1.24162e-14)
(1.1893 0.464983 -9.37492e-15)
(1.17724 0.568246 -1.15554e-14)
(1.18289 0.665481 -1.0533e-14)
(1.19506 0.76082 -1.33661e-14)
(1.22294 0.831252 -1.23636e-14)
(1.25608 0.876337 -1.63581e-14)
(1.21247 0.976661 -1.68782e-14)
(1.15663 1.17594 -1.11145e-15)
(1.21558 0.912993 4.68279e-16)
(1.19536 0.825638 -4.82453e-15)
(1.10704 0.833061 -3.56048e-15)
(1.0894 0.730323 -1.97048e-15)
(1.09566 0.537885 1.20984e-16)
(1.04831 0.398352 -1.6639e-15)
(0.935696 0.352934 -2.53745e-15)
(0.833417 0.348909 -5.686e-15)
(0.759128 0.339469 -3.15109e-15)
(0.709426 0.328798 -3.19974e-15)
(0.670024 0.329971 -7.76362e-15)
(0.62472 0.332193 -8.47756e-15)
(0.584228 0.379107 -8.32299e-15)
(0.605064 0.552705 -1.01919e-14)
(0.652318 0.932349 -1.15865e-14)
(0.577734 1.49176 -1.10983e-14)
(0.431786 1.88829 -1.05063e-14)
(0.413515 1.86224 -5.71032e-15)
(0.325691 1.67087 -1.89846e-15)
(0.264013 1.40503 -8.14643e-15)
(0.254026 1.01507 9.09496e-16)
(-0.0528635 0.00562475 5.4791e-15)
(0.285278 0.519281 -2.8933e-16)
)
;
    }
}


// ************************************************************************* //
