/*--------------------------------*- C++ -*----------------------------------*\
  =========                 |
  \\      /  F ield         | OpenFOAM: The Open Source CFD Toolbox
   \\    /   O peration     | Website:  https://openfoam.org
    \\  /    A nd           | Version:  7
     \\/     M anipulation  |
\*---------------------------------------------------------------------------*/
FoamFile
{
    version     2.0;
    format      ascii;
    class       volScalarField;
    location    "107.000516";
    object      p;
}
// * * * * * * * * * * * * * * * * * * * * * * * * * * * * * * * * * * * * * //

dimensions      [0 2 -2 0 0 0 0];

internalField   nonuniform List<scalar> 
5800
(
-0.31868
-0.320595
-0.321702
-0.322534
-0.323273
-0.323984
-0.324736
-0.325574
-0.326514
-0.327553
0.650917
0.633696
0.623128
0.611877
0.597533
0.580047
0.559845
0.537559
0.513831
0.489222
0.464205
0.649629
0.632423
0.621904
0.61072
0.596449
0.579032
0.558892
0.536663
0.512985
0.488421
0.463444
0.438443
0.413737
0.389578
0.366165
0.343646
0.322127
0.301697
0.282436
0.264374
0.643469
0.62642
0.616176
0.605363
0.591502
0.574491
0.554733
0.532856
0.509502
0.485234
0.460525
0.43577
0.411286
0.387329
0.3641
0.341747
0.320375
0.300067
0.280921
0.263033
0.632475
0.615726
0.60598
0.595838
0.582722
0.56645
0.547391
0.52616
0.5034
0.479675
0.455463
0.43116
0.407086
0.383502
0.36061
0.338564
0.317463
0.297379
0.278448
0.260872
0.616728
0.600416
0.591387
0.582209
0.570164
0.55496
0.536909
0.516614
0.494713
0.471777
0.448285
0.424638
0.401161
0.378116
0.355714
0.334112
0.313403
0.293647
0.275024
0.257891
0.596348
0.580606
0.572503
0.56457
0.553915
0.540095
0.523356
0.504277
0.483497
0.461587
0.439034
0.416241
0.393541
0.371201
0.349437
0.328414
0.308217
0.28889
0.270666
0.254094
0.571492
0.556448
0.549467
0.543048
0.534085
0.521956
0.506821
0.48923
0.469821
0.449168
0.427764
0.406019
0.384271
0.362794
0.341813
0.321499
0.301931
0.283133
0.265396
0.249491
0.542357
0.52813
0.522454
0.517798
0.510813
0.500666
0.487413
0.471571
0.453772
0.434597
0.414544
0.394032
0.373404
0.352942
0.332882
0.313403
0.294577
0.276407
0.259237
0.244097
0.509175
0.495876
0.49167
0.489007
0.484265
0.476372
0.465263
0.451415
0.435453
0.417965
0.399455
0.38035
0.361002
0.341702
0.322694
0.30417
0.286196
0.268746
0.252221
0.237927
0.472211
0.459942
0.457351
0.456885
0.454629
0.449242
0.44052
0.428895
0.414983
0.399377
0.38259
0.365057
0.34714
0.329137
0.311305
0.293849
0.27683
0.260192
0.244381
0.231003
0.431764
0.420615
0.419763
0.421673
0.422119
0.419465
0.413354
0.404161
0.392495
0.378951
0.364052
0.348244
0.331896
0.315318
0.298778
0.282495
0.266528
0.250789
0.235756
0.223351
0.388162
0.378212
0.379199
0.383634
0.386967
0.387249
0.383948
0.377378
0.368134
0.356816
0.343957
0.330012
0.315361
0.300323
0.285182
0.270169
0.255346
0.240585
0.226385
0.214999
0.341761
0.333076
0.335976
0.343052
0.349429
0.352818
0.352503
0.348723
0.342058
0.333112
0.322427
0.310469
0.29763
0.284239
0.270591
0.256937
0.24334
0.229634
0.216316
0.205979
0.292939
0.285573
0.290435
0.300235
0.309775
0.316414
0.319232
0.318386
0.314435
0.307987
0.299594
0.289733
0.278806
0.267154
0.255085
0.242868
0.230574
0.217991
0.205598
0.196324
0.242097
0.23609
0.242935
0.255506
0.268294
0.278292
0.284363
0.286568
0.285444
0.2816
0.275599
0.267926
0.258998
0.249165
0.238748
0.228038
0.217115
0.205719
0.194281
0.186072
0.189653
0.185032
0.193853
0.209205
0.225287
0.23872
0.248131
0.253479
0.25527
0.254115
0.250585
0.245177
0.238319
0.230371
0.221668
0.212523
0.203032
0.192882
0.182425
0.17526
0.13604
0.132817
0.143579
0.161685
0.181068
0.197973
0.210781
0.219335
0.224106
0.225703
0.224703
0.221618
0.216885
0.210876
0.203935
0.196401
0.188398
0.179552
0.170091
0.163926
0.0816978
0.0798728
0.0925146
0.113309
0.135959
0.156337
0.172565
0.18436
0.192149
0.196536
0.198107
0.197385
0.194817
0.190784
0.185641
0.179754
0.173285
0.16581
0.157359
0.152105
0.0270757
0.0266338
0.041068
0.0644464
0.0902877
0.1141
0.133739
0.148779
0.159598
0.166792
0.170954
0.172614
0.172234
0.170205
0.166883
0.162659
0.157762
0.151739
0.144325
0.139808
-0.0273772
-0.0264657
-0.0103495
0.015471
0.0443862
0.0715558
0.0945607
0.112821
0.126655
0.136649
0.143399
0.147445
0.149259
0.149244
0.147755
0.145196
0.141881
0.137421
0.131177
0.127078
-0.0812128
-0.0789948
-0.0613269
-0.0332429
-0.00141284
0.0289967
0.0552868
0.0767113
0.0935212
0.106285
0.1156
0.122015
0.126014
0.128008
0.128356
0.127453
0.125695
0.122898
0.118145
0.113836
-0.133988
-0.130529
-0.111459
-0.0813246
-0.046779
-0.0132868
0.0161728
0.0406763
0.0603946
0.0758736
0.0877108
0.0964605
0.102616
0.106602
0.108779
0.109517
0.109241
0.108077
0.1054
0.100548
-0.18529
-0.180635
-0.160354
-0.128411
-0.0913872
-0.0550095
-0.0225312
0.00493593
0.02747
0.0455879
0.0598836
0.0709155
0.0791841
0.0851265
0.0891114
0.0914815
0.0926388
0.0929475
0.0923123
0.0892901
-0.234848
-0.228825
-0.207658
-0.174152
-0.134921
-0.0958937
-0.060582
-0.0302959
-0.00506406
0.0155941
0.0322653
0.0455095
0.0558325
0.0636817
0.0694381
0.0734297
0.0760114
0.077667
0.0787855
0.0779094
-0.282218
-0.274732
-0.253071
-0.218219
-0.177077
-0.135673
-0.0977461
-0.0648139
-0.0370261
-0.0139475
0.00499713
0.0203673
0.0326715
0.0423644
0.0498403
0.0554259
0.0594323
0.0623645
0.0648932
0.0657377
-0.326883
-0.318112
-0.296164
-0.26036
-0.217568
-0.174093
-0.133802
-0.0984227
-0.068244
-0.0428849
-0.0217865
-0.00439258
0.00980585
0.0212674
0.0303971
0.0375276
0.0429405
0.0471158
0.0508566
0.0530827
-0.368539
-0.358713
-0.336307
-0.30041
-0.256141
-0.210916
-0.16854
-0.130939
-0.0985559
-0.071075
-0.0479591
-0.0286586
-0.0126661
0.000477879
0.0111849
0.0197958
0.0265762
0.0319702
0.036839
0.0403061
-0.40695
-0.396243
-0.37355
-0.337427
-0.292808
-0.245918
-0.201767
-0.162192
-0.127812
-0.0983856
-0.0734033
-0.0523269
-0.0346528
-0.0199229
-0.00772324
0.00229446
0.0103885
0.0169676
0.0229137
0.0275525
-0.44193
-0.430422
-0.407708
-0.371652
-0.326721
-0.279018
-0.233306
-0.192022
-0.155877
-0.124695
-0.0980116
-0.0753024
-0.0560699
-0.0398602
-0.0262597
-0.0149151
-0.00557067
0.00214638
0.00911566
0.0148636
-0.473302
-0.461051
-0.438541
-0.402935
-0.358
-0.309782
-0.262991
-0.220286
-0.182626
-0.149895
-0.121687
-0.0974991
-0.0768412
-0.0592659
-0.0443634
-0.0317774
-0.0212526
-0.0124543
-0.00452139
0.00227334
-0.500923
-0.487991
-0.465872
-0.431047
-0.386538
-0.338149
-0.290658
-0.246852
-0.207954
-0.173888
-0.144344
-0.118841
-0.096899
-0.0780794
-0.06198
-0.0482432
-0.0366133
-0.0267947
-0.0179587
-0.0101766
-0.524701
-0.511161
-0.48959
-0.455831
-0.412165
-0.364028
-0.316214
-0.271685
-0.231726
-0.19659
-0.165908
-0.139263
-0.116185
-0.0962475
-0.0790621
-0.0642694
-0.051613
-0.040838
-0.0311591
-0.0224465
-0.544604
-0.530533
-0.509644
-0.477202
-0.434765
-0.38731
-0.339559
-0.29463
-0.253968
-0.217936
-0.186317
-0.158709
-0.13465
-0.113724
-0.0955698
-0.0798188
-0.0662176
-0.0545523
-0.0440928
-0.0345028
-0.560655
-0.546136
-0.526035
-0.495128
-0.454271
-0.407915
-0.360623
-0.315629
-0.274565
-0.237915
-0.205558
-0.177128
-0.152255
-0.130469
-0.111471
-0.0948596
-0.0803986
-0.0679101
-0.0567386
-0.0463193
-0.572934
-0.558054
-0.538819
-0.509622
-0.47066
-0.425799
-0.379364
-0.33465
-0.293469
-0.256456
-0.223584
-0.194543
-0.168965
-0.146454
-0.126739
-0.109365
-0.0941351
-0.0808859
-0.0690822
-0.0578766
-0.581577
-0.566427
-0.548108
-0.520751
-0.483951
-0.44095
-0.395759
-0.351676
-0.310669
-0.273535
-0.240357
-0.21089
-0.184792
-0.161713
-0.141336
-0.123317
-0.107415
-0.0934585
-0.0811027
-0.069173
-0.58677
-0.571445
-0.554067
-0.528627
-0.494202
-0.453388
-0.40981
-0.366703
-0.326165
-0.289153
-0.255872
-0.226155
-0.199701
-0.176185
-0.155292
-0.136733
-0.120232
-0.105623
-0.0927487
-0.0802423
-0.588746
-0.573346
-0.55691
-0.533416
-0.501517
-0.463168
-0.421543
-0.379747
-0.339969
-0.303323
-0.270143
-0.240348
-0.213688
-0.189865
-0.168587
-0.149584
-0.132585
-0.117414
-0.103927
-0.0911694
-0.587776
-0.572407
-0.556893
-0.535327
-0.506039
-0.470375
-0.431008
-0.39084
-0.352108
-0.316069
-0.283192
-0.25349
-0.226769
-0.202767
-0.181219
-0.161868
-0.144462
-0.128814
-0.114798
-0.101738
-0.584166
-0.568937
-0.554313
-0.534613
-0.507953
-0.475129
-0.438278
-0.400033
-0.362622
-0.327425
-0.295048
-0.265605
-0.238967
-0.214913
-0.193201
-0.173596
-0.155865
-0.139822
-0.125361
-0.111884
-0.578247
-0.563267
-0.549492
-0.531559
-0.507483
-0.477583
-0.443453
-0.407393
-0.371563
-0.337436
-0.30575
-0.276728
-0.250313
-0.226326
-0.204555
-0.184787
-0.166809
-0.150441
-0.135592
-0.12169
-0.570364
-0.555743
-0.542773
-0.526481
-0.504885
-0.477917
-0.446652
-0.413003
-0.378995
-0.346156
-0.315346
-0.2869
-0.260839
-0.237036
-0.215308
-0.195467
-0.177316
-0.160685
-0.145502
-0.131235
-0.560866
-0.546713
-0.534504
-0.519711
-0.50044
-0.476345
-0.448019
-0.416958
-0.384989
-0.353645
-0.323889
-0.296169
-0.27059
-0.24708
-0.225493
-0.205661
-0.187411
-0.170577
-0.155115
-0.140557
-0.550103
-0.53652
-0.525034
-0.511588
-0.494452
-0.473102
-0.447718
-0.419369
-0.389626
-0.35997
-0.33144
-0.304589
-0.279614
-0.256502
-0.235146
-0.215404
-0.197124
-0.180146
-0.164452
-0.149664
-0.538407
-0.525488
-0.514696
-0.502448
-0.487233
-0.468442
-0.445933
-0.42036
-0.392991
-0.365199
-0.338059
-0.312217
-0.287962
-0.265349
-0.24431
-0.224734
-0.206489
-0.189425
-0.173535
-0.158559
-0.526094
-0.513922
-0.5038
-0.492613
-0.479095
-0.462635
-0.442864
-0.420066
-0.395178
-0.369404
-0.343808
-0.319113
-0.295693
-0.273673
-0.253034
-0.233694
-0.215545
-0.198448
-0.182394
-0.167263
-0.51345
-0.502095
-0.492629
-0.48238
-0.470337
-0.455953
-0.438726
-0.418636
-0.396284
-0.372655
-0.34875
-0.325335
-0.302862
-0.281529
-0.26137
-0.242332
-0.224335
-0.207254
-0.191065
-0.175805
-0.500729
-0.490245
-0.481428
-0.472014
-0.46124
-0.448664
-0.433742
-0.416229
-0.396414
-0.375023
-0.352942
-0.330938
-0.309527
-0.288975
-0.269372
-0.2507
-0.232907
-0.215886
-0.199589
-0.184219
-0.488152
-0.478575
-0.470403
-0.461742
-0.452052
-0.441023
-0.428137
-0.413015
-0.395677
-0.376579
-0.356438
-0.335975
-0.315742
-0.296068
-0.277098
-0.258854
-0.241312
-0.224395
-0.208011
-0.192546
-0.475901
-0.467251
-0.459721
-0.451748
-0.442985
-0.43326
-0.422132
-0.40917
-0.394193
-0.377396
-0.359287
-0.34049
-0.321557
-0.302862
-0.284606
-0.266855
-0.24961
-0.232834
-0.216382
-0.200828
-0.464124
-0.456401
-0.449511
-0.442176
-0.434211
-0.425573
-0.415932
-0.40487
-0.392086
-0.377548
-0.361533
-0.34452
-0.327013
-0.309409
-0.291955
-0.274762
-0.25786
-0.241261
-0.224756
-0.209116
-0.452934
-0.446123
-0.439864
-0.433129
-0.425859
-0.418124
-0.409719
-0.400291
-0.38949
-0.377115
-0.363219
-0.348093
-0.332144
-0.315754
-0.299202
-0.282642
-0.26613
-0.249742
-0.233193
-0.217462
-0.442409
-0.436483
-0.430841
-0.424675
-0.41802
-0.411039
-0.403648
-0.395594
-0.386542
-0.376188
-0.36439
-0.351231
-0.33697
-0.321932
-0.306396
-0.290555
-0.274488
-0.258345
-0.241761
-0.225929
-0.432619
-0.427528
-0.42248
-0.416851
-0.41075
-0.404404
-0.397842
-0.390926
-0.38338
-0.374864
-0.365095
-0.353949
-0.341502
-0.327963
-0.31358
-0.298564
-0.283008
-0.267149
-0.250534
-0.234583
-0.423597
-0.419282
-0.414796
-0.409676
-0.404078
-0.398276
-0.392396
-0.38641
-0.380135
-0.373252
-0.365393
-0.356265
-0.345735
-0.333855
-0.32078
-0.306721
-0.29176
-0.276234
-0.259596
-0.243501
-0.415368
-0.411756
-0.407794
-0.403149
-0.398013
-0.392688
-0.387374
-0.382149
-0.376931
-0.371463
-0.36536
-0.358201
-0.349662
-0.339593
-0.328007
-0.315067
-0.300814
-0.285688
-0.269034
-0.252773
-0.407943
-0.404952
-0.401467
-0.397263
-0.392552
-0.387654
-0.382824
-0.378225
-0.373878
-0.369615
-0.365081
-0.359795
-0.353269
-0.345148
-0.335244
-0.32362
-0.310227
-0.295599
-0.278957
-0.262484
-0.40132
-0.398859
-0.395799
-0.392
-0.387685
-0.383179
-0.378774
-0.374702
-0.371075
-0.367821
-0.364656
-0.361098
-0.356554
-0.350477
-0.342447
-0.332369
-0.320038
-0.306052
-0.289458
-0.272786
-0.395483
-0.393455
-0.390768
-0.387339
-0.383394
-0.379258
-0.375242
-0.371629
-0.368604
-0.36619
-0.364193
-0.362181
-0.359523
-0.355531
-0.349544
-0.341264
-0.330242
-0.317123
-0.300676
-0.283736
-0.3904
-0.388707
-0.38634
-0.383251
-0.37966
-0.375877
-0.372233
-0.369038
-0.366532
-0.364819
-0.363802
-0.363133
-0.362209
-0.360266
-0.356439
-0.350202
-0.340802
-0.328818
-0.312727
-0.29573
-0.386019
-0.384568
-0.382472
-0.379694
-0.37644
-0.37301
-0.369736
-0.366942
-0.364903
-0.363787
-0.363584
-0.364052
-0.364663
-0.364655
-0.363029
-0.359042
-0.351582
-0.34117
-0.325731
-0.308533
-0.382269
-0.380976
-0.379105
-0.376615
-0.37369
-0.370618
-0.367721
-0.365328
-0.363734
-0.363144
-0.363624
-0.365034
-0.366957
-0.368699
-0.36922
-0.367594
-0.362434
-0.353798
-0.34052
-0.322996
-0.379061
-0.377853
-0.376171
-0.373949
-0.371349
-0.368642
-0.366138
-0.364159
-0.363004
-0.362902
-0.363971
-0.366159
-0.369171
-0.372426
-0.374947
-0.375659
-0.373144
-0.366492
-0.35628
-0.337928
-0.376289
-0.375112
-0.373589
-0.371621
-0.369342
-0.367009
-0.364914
-0.363368
-0.36266
-0.363029
-0.364627
-0.367468
-0.371371
-0.375885
-0.380181
-0.383075
-0.383381
-0.378829
-0.37158
-0.353225
-0.37384
-0.372659
-0.371274
-0.369545
-0.367585
-0.365632
-0.36396
-0.362862
-0.362615
-0.363451
-0.365542
-0.368951
-0.373587
-0.379124
-0.384926
-0.389746
-0.392823
-0.390436
-0.386177
-0.36862
-0.371595
-0.370396
-0.369135
-0.367637
-0.36599
-0.364417
-0.363175
-0.362534
-0.362754
-0.36406
-0.366619
-0.370539
-0.375793
-0.382156
-0.389195
-0.395641
-0.401271
-0.401014
-0.400105
-0.383767
-0.369441
-0.368228
-0.367088
-0.365811
-0.364469
-0.36327
-0.362453
-0.362267
-0.362951
-0.364716
-0.367736
-0.372115
-0.377903
-0.384945
-0.392979
-0.400757
-0.408632
-0.410329
-0.413166
-0.398155
-0.367274
-0.366068
-0.36505
-0.363987
-0.362939
-0.362101
-0.361693
-0.361945
-0.363075
-0.36528
-0.368728
-0.373548
-0.379787
-0.387394
-0.396223
-0.405083
-0.414831
-0.418243
-0.424936
-0.411195
-0.365004
-0.36384
-0.36295
-0.362095
-0.361326
-0.360827
-0.360801
-0.361459
-0.363002
-0.36561
-0.369446
-0.374644
-0.381292
-0.389357
-0.398807
-0.408553
-0.41976
-0.424711
-0.434887
-0.422418
-0.362559
-0.361478
-0.360728
-0.360075
-0.359566
-0.359377
-0.359697
-0.360717
-0.362621
-0.365578
-0.369743
-0.375257
-0.382224
-0.390671
-0.400573
-0.41104
-0.423273
-0.429695
-0.442526
-0.43157
-0.359885
-0.358936
-0.358337
-0.357878
-0.357609
-0.357696
-0.358314
-0.35964
-0.361843
-0.365078
-0.369497
-0.375242
-0.382434
-0.391136
-0.401348
-0.412363
-0.42521
-0.433057
-0.447493
-0.438501
-0.356951
-0.35618
-0.355744
-0.355471
-0.355418
-0.355741
-0.356606
-0.358175
-0.360602
-0.364033
-0.368613
-0.374488
-0.38179
-0.390608
-0.400951
-0.412321
-0.42541
-0.434543
-0.449593
-0.442988
-0.353745
-0.353194
-0.352932
-0.352835
-0.352971
-0.353491
-0.354547
-0.35629
-0.358861
-0.362396
-0.367036
-0.372924
-0.380201
-0.388971
-0.399253
-0.410716
-0.423729
-0.433846
-0.448741
-0.444686
-0.350275
-0.349981
-0.349898
-0.349966
-0.350265
-0.350937
-0.352128
-0.353976
-0.356609
-0.360155
-0.364745
-0.370521
-0.377622
-0.386162
-0.396168
-0.407424
-0.420063
-0.430712
-0.44492
-0.443214
-0.346566
-0.346557
-0.346656
-0.346874
-0.347309
-0.348094
-0.349365
-0.351249
-0.353865
-0.357327
-0.361758
-0.367292
-0.374061
-0.382181
-0.391679
-0.402403
-0.414386
-0.424992
-0.43819
-0.438292
-0.342658
-0.342955
-0.343232
-0.343587
-0.344131
-0.344989
-0.346289
-0.348147
-0.35067
-0.353961
-0.358129
-0.363294
-0.369579
-0.377086
-0.38584
-0.395719
-0.406728
-0.416711
-0.428654
-0.429861
-0.33861
-0.339216
-0.339668
-0.340144
-0.340771
-0.341666
-0.342949
-0.344726
-0.34709
-0.350129
-0.353938
-0.35862
-0.364278
-0.370995
-0.378793
-0.387585
-0.397176
-0.40626
-0.416264
-0.334486
-0.335398
-0.336013
-0.336593
-0.33728
-0.338181
-0.339408
-0.341057
-0.343204
-0.345925
-0.349294
-0.353391
-0.358297
-0.364071
-0.370717
-0.378154
-0.386112
-0.393808
-0.401451
-0.330357
-0.331561
-0.332326
-0.332993
-0.333718
-0.3346
-0.335739
-0.33722
-0.339106
-0.341453
-0.344316
-0.347749
-0.351803
-0.356508
-0.361847
-0.367721
-0.373863
-0.37974
-0.385071
-0.326298
-0.327771
-0.328669
-0.329407
-0.330152
-0.330992
-0.332019
-0.333303
-0.334893
-0.336827
-0.339135
-0.341844
-0.344974
-0.348521
-0.35244
-0.356615
-0.360797
-0.36459
-0.367552
-0.322382
-0.324094
-0.325107
-0.3259
-0.326649
-0.32743
-0.328326
-0.329393
-0.330665
-0.332158
-0.33388
-0.335828
-0.337989
-0.340325
-0.342762
-0.345164
-0.347304
-0.348872
-0.349395
0.111601
0.11395
0.120165
0.125194
0.132053
0.135726
0.139305
0.137059
0.134239
0.121877
0.112814
0.115241
0.121747
0.127128
0.134618
0.139177
0.144084
0.143493
0.142995
0.133398
0.11402
0.11647
0.123268
0.128965
0.137094
0.142468
0.148657
0.149595
0.151222
0.144272
0.115187
0.117664
0.124763
0.130771
0.139523
0.145682
0.153089
0.155526
0.159056
0.154679
0.116315
0.118816
0.126213
0.132513
0.141862
0.148776
0.157324
0.16124
0.166503
0.164622
0.117401
0.11992
0.127612
0.13419
0.144108
0.151749
0.161356
0.166719
0.173573
0.174078
0.118442
0.120985
0.12896
0.1358
0.146254
0.154596
0.165176
0.171942
0.180265
0.183032
0.119435
0.121949
0.130247
0.137337
0.148291
0.157309
0.168777
0.176888
0.186574
0.191465
0.120381
0.122915
0.13147
0.138797
0.150213
0.15988
0.172153
0.181539
0.192489
0.199359
0.121275
0.123799
0.132621
0.14018
0.152015
0.162301
0.1753
0.185879
0.197997
0.206694
0.122114
0.124628
0.13366
0.141475
0.15369
0.164563
0.178214
0.189894
0.203085
0.213451
0.122894
0.125401
0.134673
0.142675
0.155234
0.166656
0.180888
0.193572
0.207739
0.219615
0.123612
0.126112
0.135581
0.143776
0.156642
0.168572
0.18332
0.196903
0.211948
0.22517
0.124265
0.12676
0.13641
0.144778
0.157911
0.170303
0.185502
0.19988
0.215699
0.230102
0.124851
0.127342
0.137151
0.145675
0.159039
0.171841
0.18743
0.202495
0.218985
0.234404
0.125368
0.127857
0.137795
0.146463
0.160022
0.173179
0.1891
0.204743
0.221798
0.238066
0.125812
0.128301
0.138377
0.147142
0.160859
0.174312
0.190505
0.206619
0.224134
0.241087
0.126183
0.128673
0.138786
0.147706
0.161547
0.175234
0.191641
0.208119
0.225988
0.243465
0.12648
0.128969
0.13918
0.14815
0.162083
0.175942
0.192505
0.20924
0.227358
0.245198
0.126701
0.129206
0.139457
0.148478
0.162476
0.176444
0.193104
0.209991
0.22826
0.246307
0.0212219
0.0203043
0.018806
0.0170523
0.0152454
0.0135198
0.0119347
0.010519
0.00927237
0.00818763
0.0213116
0.0203897
0.0188814
0.0171169
0.0152983
0.0135621
0.0119666
0.0105417
0.00928639
0.00819374
0.021486
0.0205551
0.0190285
0.017243
0.0154022
0.0136449
0.0120292
0.0105861
0.00931392
0.00820649
0.0217407
0.0207969
0.019244
0.0174279
0.0155547
0.0137663
0.012121
0.0106511
0.00935451
0.00822553
0.0220721
0.0211118
0.019525
0.0176694
0.0157539
0.013925
0.0122411
0.0107362
0.00940771
0.00825055
0.022477
0.021497
0.0198692
0.0179654
0.0159984
0.01412
0.0123887
0.0108409
0.00947319
0.00828138
0.0229527
0.0219499
0.0202745
0.0183144
0.016287
0.0143503
0.0125632
0.0109648
0.00955074
0.00831798
0.0234966
0.0224685
0.0207389
0.0187149
0.0166187
0.0146154
0.0127643
0.0111077
0.0096403
0.00836034
0.0241065
0.0230509
0.0212611
0.019166
0.0169928
0.0149149
0.0129918
0.0112696
0.0097419
0.00840856
0.0247805
0.0236954
0.0218398
0.0196669
0.017409
0.0152487
0.0132457
0.0114506
0.00985569
0.00846279
0.0255167
0.0244007
0.0224738
0.0202168
0.0178668
0.0156167
0.0135262
0.0116509
0.00998192
0.00852329
0.0263135
0.0251654
0.0231622
0.0208153
0.0183663
0.0160192
0.0138335
0.0118709
0.010121
0.00859042
0.0271691
0.0259885
0.0239042
0.0214621
0.0189075
0.0164565
0.0141681
0.0121111
0.0102733
0.00866461
0.0280822
0.0268687
0.024699
0.022157
0.0194906
0.0169291
0.0145306
0.0123721
0.0104395
0.00874642
0.0290511
0.0278051
0.0255459
0.0228998
0.020116
0.0174375
0.0149217
0.0126547
0.0106204
0.0088365
0.0300745
0.0287966
0.0264443
0.0236907
0.020784
0.0179826
0.0153422
0.0129598
0.0108167
0.00893564
0.0311509
0.0298422
0.0273936
0.0245296
0.0214952
0.0185652
0.0157932
0.0132884
0.0110294
0.00904474
0.0322788
0.0309408
0.0283931
0.0254168
0.0222504
0.0191862
0.0162757
0.0136417
0.0112596
0.00916482
0.0334567
0.0320914
0.0294422
0.0263526
0.0230502
0.0198468
0.016791
0.0140209
0.0115087
0.00929707
0.0346831
0.0332928
0.0305403
0.0273371
0.0238953
0.0205481
0.0173403
0.0144275
0.0117779
0.00944279
0.0359564
0.0345438
0.0316867
0.0283708
0.0247868
0.0212913
0.0179252
0.0148631
0.0120688
0.00960343
0.0372749
0.035843
0.0328809
0.029454
0.0257254
0.0220779
0.0185472
0.0153294
0.0123832
0.00978062
0.0386369
0.0371891
0.034122
0.0305871
0.0267122
0.0229092
0.019208
0.0158282
0.0127228
0.00997611
0.0400407
0.0385805
0.0354093
0.0317705
0.0277479
0.0237867
0.0199095
0.0163617
0.0130896
0.0101918
0.0414844
0.0400155
0.0367421
0.0330046
0.0288336
0.0247121
0.0206537
0.0169319
0.0134858
0.0104299
0.042966
0.0414925
0.0381197
0.0342896
0.0299701
0.0256869
0.0214425
0.0175412
0.0139137
0.0106925
0.0444836
0.0430094
0.039541
0.0356259
0.0311584
0.0267129
0.0222782
0.018192
0.0143758
0.0109821
0.0460351
0.0445643
0.0410054
0.0370138
0.0323994
0.0277919
0.023163
0.018887
0.0148747
0.0113014
0.0476183
0.0461552
0.0425119
0.0384532
0.0336938
0.0289257
0.0240995
0.0196288
0.0154132
0.0116531
0.0492309
0.0477797
0.0440596
0.0399443
0.0350425
0.0301162
0.02509
0.0204204
0.0159942
0.0120401
0.0508707
0.0494355
0.0456474
0.0414869
0.0364462
0.0313653
0.0261371
0.0212647
0.016621
0.0124657
0.0525352
0.0511202
0.0472744
0.0430808
0.0379057
0.0326751
0.0272435
0.0221648
0.0172966
0.0129332
0.0542221
0.0528314
0.0489394
0.0447255
0.0394215
0.0340474
0.0284119
0.023124
0.0180247
0.0134462
0.0559287
0.0545664
0.0506413
0.0464203
0.0409943
0.0354844
0.0296449
0.0241457
0.0188088
0.0140083
0.0576526
0.0563227
0.0523788
0.0481646
0.0426247
0.0369879
0.0309454
0.0252332
0.0196527
0.0146236
0.0593911
0.0580976
0.0541506
0.0499572
0.0443131
0.0385598
0.0323161
0.0263902
0.0205604
0.015296
0.0611415
0.0598884
0.0559553
0.0517971
0.0460599
0.0402021
0.0337598
0.0276203
0.0215359
0.01603
0.0629013
0.0616924
0.0577913
0.0536827
0.0478657
0.0419165
0.0352793
0.0289272
0.0225835
0.0168299
0.0646676
0.0635069
0.0596571
0.0556125
0.0497306
0.0437045
0.0368772
0.0303148
0.0237076
0.0177004
0.0664378
0.0653293
0.0615507
0.0575847
0.0516548
0.0455675
0.0385563
0.031787
0.0249129
0.0186465
0.0682092
0.0671568
0.0634704
0.0595974
0.0536385
0.0475069
0.0403192
0.0333478
0.0262039
0.019673
0.0699792
0.0689869
0.0654141
0.0616484
0.0556816
0.0495236
0.0421684
0.0350013
0.0275854
0.0207852
0.0717449
0.0708169
0.0673795
0.0637353
0.057784
0.0516184
0.0441067
0.0367514
0.0290624
0.0219883
0.0735039
0.0726443
0.0693645
0.0658559
0.0599453
0.0537917
0.0461363
0.0386022
0.0306398
0.023288
0.0752536
0.0744666
0.0713665
0.0680074
0.062165
0.0560438
0.0482597
0.0405578
0.0323227
0.0246898
0.0769914
0.0762815
0.073383
0.0701872
0.0644423
0.0583745
0.0504792
0.0426222
0.0341162
0.0261995
0.0787149
0.0780864
0.0754112
0.0723925
0.0667763
0.0607834
0.0527969
0.0447993
0.0360254
0.027823
0.0804218
0.0798792
0.0774484
0.0746205
0.0691657
0.0632697
0.0552148
0.0470929
0.0380555
0.0295665
0.0821098
0.0816577
0.0794915
0.076868
0.0716089
0.0658322
0.057735
0.0495067
0.0402116
0.0314361
0.0837767
0.0834197
0.0815377
0.0791322
0.0741041
0.0684695
0.0603591
0.052044
0.0424988
0.0334382
0.0854204
0.0851632
0.0835838
0.08141
0.0766492
0.0711798
0.0630886
0.0547082
0.0449222
0.0355793
0.0870392
0.0868862
0.0856267
0.0836982
0.0792415
0.0739609
0.0659249
0.0575021
0.0474869
0.037866
0.088631
0.0885868
0.0876632
0.0859937
0.0818783
0.0768103
0.0688691
0.0604284
0.0501978
0.0403051
0.0901943
0.0902633
0.0896902
0.0882934
0.0845563
0.0797252
0.0719219
0.0634892
0.0530598
0.0429035
0.0917275
0.091914
0.0917045
0.0905941
0.0872719
0.0827025
0.0750839
0.0666864
0.0560779
0.0456682
0.0932292
0.0935372
0.093703
0.0928926
0.0900211
0.0857387
0.0783549
0.070021
0.0592571
0.0486064
0.0946981
0.0951314
0.0956825
0.0951857
0.0927997
0.08883
0.0817348
0.073494
0.0626024
0.0517254
0.096133
0.0966953
0.0976402
0.0974703
0.0956029
0.0919727
0.0852226
0.0771053
0.0661191
0.0550325
0.097533
0.0982275
0.099573
0.0997433
0.0984258
0.0951624
0.088817
0.0808547
0.0698128
0.058535
0.0988972
0.0997268
0.101478
0.102001
0.101263
0.0983948
0.0925158
0.0847409
0.0736895
0.0622401
0.100225
0.101192
0.103353
0.104242
0.104109
0.101665
0.0963163
0.0887623
0.0777561
0.0661546
0.101515
0.102622
0.105195
0.106461
0.106958
0.104969
0.100215
0.0929169
0.0820203
0.070284
0.102768
0.104017
0.107002
0.108657
0.109804
0.108301
0.104207
0.0972021
0.0864913
0.0746322
0.103983
0.105374
0.108772
0.110825
0.112642
0.111656
0.108286
0.101615
0.0911816
0.0792031
0.105159
0.106694
0.110502
0.112964
0.115463
0.115029
0.112446
0.106154
0.0961078
0.0840081
0.106297
0.107975
0.112192
0.11507
0.118264
0.118415
0.116681
0.110817
0.101285
0.0890614
0.107397
0.109219
0.11384
0.117143
0.121041
0.121812
0.12098
0.115599
0.106713
0.0943186
0.108458
0.110423
0.115444
0.119178
0.123783
0.125206
0.125316
0.120476
0.11237
0.0995719
0.10948
0.111584
0.116993
0.121156
0.126458
0.128553
0.129637
0.125428
0.118346
0.104684
0.110467
0.112694
0.118477
0.123048
0.129051
0.131845
0.134011
0.130617
0.12521
0.110845
0.00748003
0.00707509
0.00666963
0.00626534
0.00586225
0.00546014
0.00505911
0.00465955
0.00426192
0.00386664
0.00347409
0.00308459
0.00269847
0.00231607
0.00193768
0.00156362
0.00119419
0.00082968
0.000470374
0.000116552
0.00748133
0.00707489
0.0066682
0.00626294
0.0058589
0.0054557
0.00505339
0.00465237
0.0042531
0.00385601
0.00346146
0.0030698
0.00268135
0.00229645
0.00191545
0.00153866
0.0011664
0.000798964
0.000436614
7.96003e-05
0.00748522
0.00707488
0.00666439
0.00625537
0.00584748
0.00544025
0.00503376
0.00462841
0.00422471
0.0038231
0.00342396
0.00302764
0.0026345
0.00224488
0.00185914
0.00147761
0.00110063
0.000728509
0.000361572
1.30341e-07
0.00749069
0.00707365
0.00665672
0.00624145
0.00582732
0.00541377
0.00500086
0.00458905
0.00417886
0.00377076
0.00336512
0.00296231
0.00256268
0.00216659
0.00177442
0.0013865
0.00100318
0.000624793
0.000251648
-0.000115954
0.00749758
0.00707122
0.00664545
0.0062217
0.00579918
0.00537717
0.00495573
0.00453538
0.00411667
0.00370007
0.00328597
0.00287473
0.00246672
0.00206232
0.00166188
0.00126578
0.000874357
0.000487958
0.000106906
-0.000268482
0.00750593
0.0070677
0.00663076
0.00619636
0.00576331
0.00533073
0.00489868
0.00446773
0.00403849
0.00361144
0.00318696
0.00276543
0.00234721
0.00193269
0.00152225
0.00111625
0.000715054
0.000319009
-7.15488e-05
-0.000456298
0.00751574
0.00706315
0.00661276
0.00616557
0.00571992
0.00527472
0.00483003
0.0043865
0.00394478
0.00350536
0.00306865
0.002635
0.00220478
0.0017784
0.00135623
0.000938648
0.000526026
0.000118713
-0.000282948
-0.00067863
0.00752705
0.00705764
0.00659156
0.00612951
0.00566924
0.00520941
0.00475008
0.004292
0.00383587
0.00338222
0.00293143
0.00248385
0.00203986
0.00159987
0.00116426
0.000733426
0.000307728
-0.000112473
-0.000526829
-0.000935007
0.00753996
0.00705126
0.0065673
0.00608835
0.00561148
0.00513501
0.00465907
0.00418448
0.00371205
0.00324229
0.00277558
0.00231227
0.00185274
0.0013974
0.00094665
0.000500877
6.04541e-05
-0.000374255
-0.0008029
-0.00122514
0.00755463
0.00704419
0.00654015
0.00604228
0.00554682
0.00505175
0.0045572
0.00406416
0.00357351
0.00308577
0.0026013
0.00212045
0.00164361
0.00117117
0.000703563
0.000241164
-0.000215643
-0.000666494
-0.00111104
-0.00154893
0.00757129
0.00703664
0.00651032
0.00599151
0.00547549
0.00495981
0.00444467
0.00393123
0.00342043
0.00291282
0.00240874
0.00190853
0.00141257
0.000921277
0.000435066
-4.56661e-05
-0.000520541
-0.000989189
-0.00145126
-0.0019064
0.00759026
0.00702887
0.00647805
0.00593628
0.0053977
0.0048594
0.00432167
0.00378583
0.00325294
0.00272355
0.00219799
0.00167656
0.00115966
0.000647715
0.00014114
-0.000359665
-0.000854318
-0.00134245
-0.0018237
-0.00229773
0.00761192
0.00702122
0.00644365
0.00587686
0.0053137
0.00475076
0.00418838
0.00362813
0.00307117
0.00251806
0.00196909
0.00142456
0.000884865
0.000350433
-0.000178311
-0.000700965
-0.00121715
-0.00172648
-0.00222862
-0.0027232
0.00763677
0.00701413
0.00640748
0.00581358
0.00522381
0.00463413
0.00404501
0.00345829
0.00287524
0.00229642
0.00172208
0.00115252
0.00058812
2.93244e-05
-0.000523438
-0.00106976
-0.00160927
-0.00214158
-0.00266634
-0.0031832
0.0076654
0.00700811
0.00636999
0.00574684
0.00512834
0.00450979
0.0038918
0.00327649
0.00266526
0.00205869
0.00145698
0.000860396
0.000269336
-0.000315755
-0.000894439
-0.00146631
-0.00203099
-0.0025881
-0.00313729
-0.0036782
0.00769851
0.00700376
0.00633171
0.00567708
0.0050277
0.00437809
0.00372902
0.00308293
0.0024414
0.00180497
0.0011738
0.000548148
-7.15968e-05
-0.000684977
-0.00129155
-0.00189091
-0.00248267
-0.00306647
-0.00364194
-0.00420872
0.00773691
0.00700182
0.00629324
0.00560484
0.00492234
0.00423941
0.00355698
0.00287786
0.00220381
0.00153534
0.000872569
0.000215725
-0.000434798
-0.00107853
-0.00171503
-0.00234389
-0.00296471
-0.00357715
-0.00418083
-0.00477539
0.00778157
0.00700312
0.00625531
0.00553074
0.00481279
0.0040942
0.00337605
0.00266157
0.00195268
0.00124992
0.00055332
-0.000136917
-0.000820392
-0.00149663
-0.00216516
-0.0028256
-0.00347755
-0.00412066
-0.00475455
-0.00537886
0.00783356
0.00700863
0.00621873
0.00545547
0.00469968
0.00394298
0.00318665
0.00243437
0.00168827
0.000948861
0.000216114
-0.000509807
-0.0012285
-0.00193946
-0.00264224
-0.00333643
-0.00402165
-0.00469754
-0.00536373
-0.00601984
0.0078941
0.00701942
0.00618442
0.00537984
0.00458369
0.00378634
0.00298927
0.00219666
0.00141086
0.000632353
-0.000138962
-0.000902955
-0.00165922
-0.00240724
-0.00314656
-0.00387676
-0.00459749
-0.00530836
-0.00600902
-0.00669908
0.00796457
0.00703674
0.00615346
0.00530476
0.0044656
0.00362496
0.00278449
0.0019489
0.00112079
0.000300625
-0.000511784
-0.00131634
-0.00211264
-0.00290015
-0.00367841
-0.004447
-0.00520556
-0.00595373
-0.00669114
-0.00741738
0.0080465
0.00706197
0.006127
0.00523124
0.00434633
0.00345962
0.00257295
0.00169161
0.000818468
-4.60405e-05
-0.000902188
-0.00174993
-0.00258883
-0.00341838
-0.00423808
-0.00504754
-0.00584638
-0.00663426
-0.00741079