/*--------------------------------*- C++ -*----------------------------------*\
  =========                 |
  \\      /  F ield         | OpenFOAM: The Open Source CFD Toolbox
   \\    /   O peration     | Website:  https://openfoam.org
    \\  /    A nd           | Version:  7
     \\/     M anipulation  |
\*---------------------------------------------------------------------------*/
FoamFile
{
    version     2.0;
    format      ascii;
    class       surfaceScalarField;
    location    "42";
    object      phi;
}
// * * * * * * * * * * * * * * * * * * * * * * * * * * * * * * * * * * * * * //

dimensions      [0 3 -1 0 0 0 0];

internalField   nonuniform List<scalar> 
24510
(
-4.06322e-06
4.06985e-06
-6.629e-09
-1.52488e-05
1.12e-05
-1.4359e-08
-3.31766e-05
1.79451e-05
-1.72982e-08
-5.74555e-05
2.42944e-05
-1.54917e-08
-8.76869e-05
3.02406e-05
-9.20739e-09
-0.000123489
3.58012e-05
1.19128e-09
-0.000164522
4.10168e-05
1.54154e-08
-0.000210502
4.59467e-05
3.34516e-08
-0.000261219
5.06614e-05
5.57489e-08
-0.000316532
5.52295e-05
8.33457e-08
-0.000376352
5.9702e-05
1.17913e-07
-0.000440608
6.40946e-05
1.6172e-07
-0.000509197
6.83719e-05
2.17556e-07
-0.000581924
7.24383e-05
2.88627e-07
-0.000658447
7.61442e-05
3.78419e-07
-0.00073826
7.93222e-05
4.90474e-07
-0.000820784
8.18963e-05
6.28042e-07
-0.000905744
8.41665e-05
7.9343e-07
-0.000993494
8.67628e-05
9.86905e-07
9.13788e-05
1.20742e-06
-0.00108608
-3.98425e-06
8.05409e-06
-1.49653e-05
2.2181e-05
-3.25753e-05
3.55551e-05
-5.64287e-05
4.81478e-05
-8.61259e-05
5.99378e-05
-0.000121277
7.09528e-05
-0.000161527
8.12664e-05
-0.00020657
9.09896e-05
-0.000256165
0.000100256
-0.000310131
0.000109196
-0.000368334
0.000117905
-0.000430648
0.000126408
-0.000496906
0.00013463
-0.000566836
0.000142369
-0.00064
0.000149309
-0.000715756
0.000155078
-0.00079329
0.000159431
-0.000871983
0.00016286
-0.000951855
0.000166635
0.000172869
-0.00103335
-3.83004e-06
1.18841e-05
-1.44106e-05
3.27615e-05
-3.13968e-05
5.25413e-05
-5.4413e-05
7.1164e-05
-8.30566e-05
8.85814e-05
-0.000116922
0.000104818
-0.000155621
0.000119966
-0.000198805
0.000134173
-0.000246169
0.00014762
-0.000297457
0.000160483
-0.000352437
0.000172886
-0.000410874
0.000184845
-0.000472471
0.000196226
-0.000536802
0.000206699
-0.000603236
0.000215743
-0.000670868
0.000222709
-0.000738442
0.000227005
-0.000804645
0.000229063
-0.000869031
0.000231021
0.000232282
-0.000928445
-3.60796e-06
1.54921e-05
-1.36091e-05
4.27627e-05
-2.96893e-05
6.86215e-05
-5.14845e-05
9.29592e-05
-7.85855e-05
0.000115682
-0.000110561
0.000136793
-0.000146975
0.000156381
-0.00018741
0.000174608
-0.000231469
0.000191679
-0.000278777
0.000207791
-0.000328959
0.000223068
-0.000381607
0.000237493
-0.000436223
0.000250843
-0.000492148
0.000262624
-0.000548459
0.000272054
-0.000603875
0.000278125
-0.000656542
0.000279672
-0.000704061
0.000276582
-0.000745814
0.000272774
0.000258928
-0.00077246
-3.32856e-06
1.88207e-05
-1.25961e-05
5.20302e-05
-2.75222e-05
8.35477e-05
-4.77529e-05
0.00011319
-7.28663e-05
0.000140796
-0.000102393
0.00016632
-0.000135835
0.000189823
-0.00017268
0.000211453
-0.000212406
0.000231406
-0.000254479
0.000249864
-0.000298327
0.000266916
-0.000343307
0.000282473
-0.000388641
0.000296177
-0.000433339
0.000307322
-0.000476084
0.000314799
-0.000515111
0.000317152
-0.000547875
0.000312436
-0.000570359
0.000299067
-0.000582717
0.000285132
0.000242548
-0.000566337
-3.00502e-06
2.18257e-05
-1.14155e-05
6.04407e-05
-2.49824e-05
9.71146e-05
-4.33558e-05
0.000131563
-6.60921e-05
0.000163532
-9.26711e-05
0.000192899
-0.000122512
0.000219664
-0.000154985
0.000243925
-0.00018941
0.000265831
-0.000225052
0.000285505
-0.000261085
0.000302949
-0.000296557
0.000317945
-0.000330321
0.000329941
-0.000360949
0.00033795
-0.000386599
0.00034045
-0.000404888
0.000335441
-0.0004126
0.000320148
-0.000403227
0.000289693
-0.000379125
0.00026103
0.000173837
-0.000310414
-2.65235e-06
2.4478e-05
-1.01174e-05
6.79057e-05
-2.21692e-05
0.000109166
-3.84514e-05
0.000147846
-5.84854e-05
0.000183566
-8.16845e-05
0.000216098
-0.000107365
0.000245345
-0.000134754
0.000271314
-0.000162979
0.000294057
-0.000191056
0.000313582
-0.000217848
0.000329741
-0.000242012
0.00034211
-0.00026193
0.000349858
-0.000275603
0.000351624
-0.000280501
0.000345348
-0.000273406
0.000328345
-0.000250674
0.000297416
-0.00020244
0.000241459
-0.000130665
0.000189255
5.54156e-05
-1.22432e-05
-2.28655e-06
2.67646e-05
-8.75544e-06
7.43746e-05
-1.91891e-05
0.0001196
-3.32089e-05
0.000161865
-5.02847e-05
0.000200642
-6.97441e-05
0.000235557
-9.07791e-05
0.00026638
-0.000112443
0.000292978
-0.000133637
0.000315251
-0.000153079
0.000333023
-0.000169251
0.000345914
-0.000180336
0.000353194
-0.000184117
0.000353639
-0.00017787
0.000345376
-0.000158186
0.000325665
-0.000120645
0.000290804
-6.06037e-05
0.000237374
3.0041e-05
0.000150814
0.000159543
5.9753e-05
-0.000141649
0.000356608
-1.92362e-06
2.86882e-05
-7.38322e-06
7.98342e-05
-1.61485e-05
0.000128365
-2.7798e-05
0.000173515
-4.17286e-05
0.000214573
-5.71602e-05
0.000250989
-7.31341e-05
0.000282354
-8.85005e-05
0.000308344
-0.000101891
0.000328641
-0.00011167
0.000342802
-0.000115869
0.000350113
-0.000112089
0.000349414
-9.73793e-05
0.000338929
-6.80978e-05
0.000316095
-1.97261e-05
0.000277293
5.34762e-05
0.000217602
0.000157623
0.000133228
0.000307341
1.09572e-06
0.000494468
-0.000127374
-0.000427877
0.000780696
-1.57853e-06
3.02667e-05
-6.05066e-06
8.43063e-05
-1.31464e-05
0.000135461
-2.23756e-05
0.000182744
-3.30371e-05
0.000225234
-4.42162e-05
0.000262168
-5.47734e-05
0.000292911
-6.33188e-05
0.000316889
-6.81663e-05
0.000333489
-6.72655e-05
0.000341902
-5.81058e-05
0.000340953
-3.75905e-05
0.000328899
-1.87662e-06
0.000303216
5.38172e-05
0.000260401
0.000135387
0.000195723
0.000250548
0.000102441
0.000406306
-2.25301e-05
0.000622292
-0.000214891
0.000884631
-0.000389713
-0.000814644
0.0012714
-1.26411e-06
3.15308e-05
-4.80019e-06
8.78424e-05
-1.02663e-05
0.000140927
-1.70733e-05
0.000189551
-2.43915e-05
0.000232552
-3.11398e-05
0.000268916
-3.59618e-05
0.000297733
-3.71821e-05
0.00031811
-3.27386e-05
0.000329045
-2.00863e-05
0.000329249
3.93244e-06
0.000316934
4.32547e-05
0.000289577
0.000102803
0.000243667
0.000188722
0.000174482
0.00030855
7.58944e-05
0.000472091
-6.10997e-05
0.000688542
-0.000238981
0.00098013
-0.000506479
0.00133169
-0.000741271
-0.00131391
0.00183095
-9.90002e-07
3.25208e-05
-3.66301e-06
9.05154e-05
-7.56821e-06
0.000144832
-1.19824e-05
0.000193965
-1.59123e-05
0.000236482
-1.80719e-05
0.000271076
-1.68426e-05
0.000296503
-1.02065e-05
0.000311474
4.34916e-06
0.000314489
2.99638e-05
0.000303635
7.05738e-05
0.000276324
0.000131124
0.000229026
0.000217823
0.000156969
0.000338424
5.38805e-05
0.000502352
-8.80334e-05
0.000721332
-0.000280079
0.00100794
-0.000525586
0.00138323
-0.000881773
0.00183573
-0.00119377
-0.00193094
0.00245277
-7.61676e-07
3.32825e-05
-2.65544e-06
9.24092e-05
-5.08079e-06
0.000147258
-7.14121e-06
0.000196026
-7.6389e-06
0.00023698
-5.03535e-06
0.000268472
2.60607e-06
0.000288862
1.77189e-05
0.000296361
4.33631e-05
0.000288845
8.3398e-05
0.0002636
0.000142699
0.000217023
0.000227416
0.000144309
0.000345251
3.91337e-05
0.000505757
-0.000106625
0.000720419
-0.000302695
0.00100221
-0.000561872
0.00136763
-0.00089101
0.00183204
-0.00134618
0.00239181
-0.00175355
-0.00265644
0.00311731
-5.79589e-07
3.38621e-05
-1.77602e-06
9.36056e-05
-2.79516e-06
0.000148277
-2.52298e-06
0.000195753
4.92e-07
0.000233965
8.09118e-06
0.000260873
2.26078e-05
0.000274345
4.69825e-05
0.000271986
8.49422e-05
0.000250886
0.00014122
0.000207322
0.000221815
0.000136427
0.000334281
3.18434e-05
0.000487985
-0.000114571
0.000694301
-0.000312941
0.000966647
-0.000575041
0.00131828
-0.000913506
0.0017679
-0.00134063
0.00232172
-0.00189999
0.00298571
-0.00241754
-0.0034614
0.00379067
-4.38617e-07
3.43007e-05
-1.00339e-06
9.41704e-05
-6.59014e-07
0.000147932
1.97019e-06
0.000193124
8.6456e-06
0.00022729
2.15919e-05
0.000247927
4.36157e-05
0.000252322
7.82814e-05
0.00023732
0.000130129
0.000199038
0.000204939
0.000132513
0.000310021
3.13455e-05
0.000454486
-0.000112621
0.000649398
-0.000309483
0.000907664
-0.000571207
0.0012438
-0.000911179
0.0016703
-0.00134001
0.00220329
-0.00187362
0.0028383
-0.002535
0.00358942
-0.00316867
-0.00429992
0.00442794
-3.27863e-07
3.46286e-05
-2.94864e-07
9.41374e-05
1.419e-06
0.000146219
6.5124e-06
0.000188031
1.71194e-05
0.000216682
3.59227e-05
0.000229124
6.63156e-05
0.000221929
0.00011262
0.000191016
0.000180348
0.00013131
0.0002765
3.6361e-05
0.000409836
-0.000101991
0.000591044
-0.00029383
0.000832631
-0.00055107
0.00114827
-0.000886841
0.00155169
-0.00131461
0.00205316
-0.00184147
0.00265988
-0.00248034
0.00335693
-0.00323204
0.00416084
-0.00397258
-0.00511985
0.00498077
-2.3121e-07
3.48598e-05
4.08299e-07
9.34979e-05
3.57748e-06
0.000143049
1.13515e-05
0.000180257
2.63116e-05
0.000201722
5.16958e-05
0.000203739
9.16045e-05
0.00018202
0.000151262
0.000131359
0.000237311
4.52608e-05
0.000358097
-8.44255e-05
0.00052385
-0.000267743
0.000746593
-0.000516572
0.00103955
-0.000844024
0.00141571
-0.001263
0.0018853
-0.0017842
0.00245363
-0.0024098
0.00311425
-0.00314095
0.00384366
-0.00396145
0.0046518
-0.00478072
-0.00587585
0.0054078
-1.27748e-07
3.49875e-05
1.18562e-06
9.21845e-05
5.98826e-06
0.000138247
1.67939e-05
0.000169451
3.67144e-05
0.000181802
6.96487e-05
0.000170805
0.000120533
0.000131136
0.000195633
5.6259e-05
0.000302839
-6.1945e-05
0.000451864
-0.000233451
0.000654197
-0.000470077
0.000922552
-0.000784927
0.00126951
-0.00119099
0.0017052
-0.00169869
0.00223332
-0.00231232
0.00285057
-0.00302705
0.00353599
-0.00382638
0.0042614
-0.00468685
0.00502268
-0.00554201
-0.0065399
0.00568674
1.06126e-08
3.49769e-05
2.12879e-06
9.00663e-05
8.84784e-06
0.000131528
2.31877e-05
0.000155111
4.88784e-05
0.000156111
9.05892e-05
0.000129094
0.000154213
6.75119e-05
0.000247165
-3.66929e-05
0.000378608
-0.000193388
0.000559455
-0.000414298
0.000801906
-0.000712528
0.0011182
-0.00110122
0.0015183
-0.00159108
0.00200669
-0.00218708
0.0025781
-0.00288374
0.00321787
-0.00366682
0.00389443
-0.00450294
0.00457929
-0.00537172
0.00525444
-0.00621716
-0.00710429
0.00581883
2.03306e-07
3.47736e-05
3.33152e-06
8.69381e-05
1.23636e-05
0.000122496
3.08969e-05
0.000136578
6.33689e-05
0.000123639
0.000115323
7.71408e-05
0.000193702
-1.0867e-05
0.000307102
-0.000150094
0.000465837
-0.000352122
0.000681572
-0.000630034
0.000966239
-0.000997195
0.00132989
-0.00146487
0.00177747
-0.00203867
0.00230523
-0.00271484
0.00289781
-0.00347632
0.00352978
-0.00429879
0.00416638
-0.00513953
0.00478182
-0.00598716
0.00534991
-0.00678525
-0.00758565
0.00583127
4.82139e-07
3.42915e-05
4.88884e-06
8.25314e-05
1.67383e-05
0.000110646
4.02715e-05
0.000113045
8.07159e-05
8.31947e-05
0.000144568
1.3289e-05
0.00023986
-0.000106159
0.000376286
-0.000286519
0.000564961
-0.000540797
0.000817515
-0.000882588
0.00114417
-0.00132385
0.00155071
-0.00187141
0.00203475
-0.00252271
0.00258291
-0.00326299
0.00317083
-0.00406423
0.00376692
-0.00489488
0.004341
-0.00571361
0.00487275
-0.00651891
0.00534261
-0.0072551
-0.00801656
0.00577352
8.68761e-07
3.34227e-05
6.88629e-06
7.65139e-05
2.21543e-05
9.53783e-05
5.16187e-05
8.35804e-05
0.000101362
3.34515e-05
0.000178872
-6.42216e-05
0.000293221
-0.000220508
0.000454946
-0.000448244
0.000675349
-0.000761201
0.000964854
-0.00117209
0.0013302
-0.0016892
0.00177078
-0.002312
0.00227549
-0.00302742
0.00282201
-0.00380951
0.00338057
-0.00462279
0.00392033
-0.00543465
0.00442036
-0.00621364
0.00486725
-0.0069658
0.00527001
-0.00765786
-0.00838923
0.00564267
1.38321e-06
3.20395e-05
9.3954e-06
6.85017e-05
2.87603e-05
7.60134e-05
6.51768e-05
4.71638e-05
0.000125617
-2.69888e-05
0.000218537
-0.000157141
0.000353869
-0.00035584
0.000542537
-0.000636912
0.00079511
-0.00101377
0.00111932
-0.0014963
0.00151656
-0.00208643
0.00197838
-0.00277382
0.00248514
-0.00353418
0.00300859
-0.00433296
0.00351886
-0.00513306
0.00399185
-0.00590763
0.00441699
-0.00663878
0.00479333
-0.00734215
0.0051361
-0.00800063
-0.008708
0.00545487
2.04087e-06
2.99986e-05
1.24698e-05
5.80727e-05
3.66615e-05
5.18218e-05
8.10948e-05
2.73048e-06
0.000153622
-9.95163e-05
0.000263552
-0.000267071
0.000421353
-0.000513641
0.000637632
-0.000853191
0.000921036
-0.00129718
0.00127499
-0.00185026
0.00169404
-0.00250548
0.00216167
-0.00324145
0.00265188
-0.00402438
0.00313504
-0.00481612
0.00358629
-0.00558432
0.00399123
-0.00631257
0.00434966
-0.00699721
0.0046684
-0.0076609
0.00496528
-0.00829751
-0.00899324
0.00525052
2.85227e-06
2.71464e-05
1.61435e-05
4.47815e-05
4.59138e-05
2.20515e-05
9.94199e-05
-5.07756e-05
0.000185324
-0.00018542
0.000313563
-0.00039531
0.000494632
-0.00069471
0.000737902
-0.00109646
0.00104873
-0.00160801
0.0014248
-0.00222633
0.0018532
-0.00293388
0.0023107
-0.00369896
0.00276863
-0.00448231
0.00320067
-0.00524816
0.00359014
-0.00597379
0.00393258
-0.00665501
0.00423529
-0.00729992
0.00450926
-0.00793487
0.00477212
-0.00856036
-0.00925141
0.00503028
3.82339e-06
2.3323e-05
2.04302e-05
2.81747e-05
5.65218e-05
-1.40401e-05
0.00012009
-0.000114343
0.000220459
-0.00028579
0.000367843
-0.000542693
0.000572075
-0.000898943
0.000840191
-0.00136458
0.00117294
-0.00194076
0.00156136
-0.00261475
0.00198572
-0.00335824
0.00241891
-0.00413214
0.00283368
-0.00489708
0.00321037
-0.00562485
0.00354136
-0.00630477
0.00383013
-0.00694378
0.0040883
-0.00755809
0.00432792
-0.00817449
0.00456418
-0.00879662
-0.00948764
0.00480041
4.95614e-06
1.83668e-05
2.53245e-05
7.80639e-06
6.84375e-05
-5.71532e-05
0.000142928
-0.000188834
0.00025855
-0.000401411
0.000425299
-0.000709442
0.000651503
-0.00112515
0.000940709
-0.00165378
0.00128803
-0.00228808
0.00167788
-0.0030046
0.00208564
-0.003766
0.00248376
-0.00453027
0.00284988
-0.0052632
0.00317241
-0.00594738
0.00345163
-0.00658399
0.00369628
-0.00718844
0.00391943
-0.00778123
0.00413219
-0.00838724
0.00434679
-0.00901123
-0.00970492
0.00456407
6.2488e-06
1.2118e-05
3.08018e-05
-1.67466e-05
8.15602e-05
-0.000107912
0.000167645
-0.000274919
0.000298902
-0.000532668
0.00048449
-0.000895031
0.000730288
-0.00137094
0.00103533
-0.00195882
0.00138864
-0.00264139
0.00176911
-0.00338506
0.00214994
-0.00414683
0.00250649
-0.00488682
0.00282318
-0.00557988
0.00309618
-0.00622038
0.00333159
-0.0068194
0.00354074
-0.0073976
0.00373618
-0.00797667
0.00392714
-0.0085782
0.00412295
-0.00920704
-0.00990456
0.0043226
7.69595e-06
4.42208e-06
3.68184e-05
-4.58691e-05
9.57347e-05
-0.000166828
0.000193833
-0.000373017
0.000340616
-0.000679451
0.000543681
-0.0010981
0.000805527
-0.00163279
0.00111996
-0.00227326
0.00147031
-0.00299174
0.00183182
-0.00374658
0.00217855
-0.00449355
0.00249102
-0.0051993
0.0027609
-0.00584976
0.00299068
-0.00645016
0.00318995
-0.00701868
0.0033706
-0.00757824
0.00354351
-0.00814958
0.00371584
-0.00875053
0.00389441
-0.00938561
-0.0100873
0.00407717
9.28808e-06
-4.866e-06
4.33095e-05
-7.98905e-05
0.00011075
-0.000234268
0.000220972
-0.000483239
0.000382608
-0.000841087
0.000600927
-0.00131641
0.000874256
-0.00190612
0.00119101
-0.00259001
0.0015299
-0.00333063
0.00186504
-0.00408172
0.00217374
-0.00480225
0.00244284
-0.0054684
0.0026705
-0.00607742
0.00286365
-0.0066433
0.00303338
-0.00718842
0.00319076
-0.00773562
0.00334462
-0.00830344
0.00350019
-0.00890609
0.00366231
-0.00954774
-0.0102534
0.00382842
1.10108e-05
-1.58768e-05
5.01879e-05
-0.000119068
0.000126338
-0.000310419
0.000248434
-0.000605335
0.000423652
-0.00101631
0.00065419
-0.00154695
0.000933712
-0.00218564
0.00124565
-0.00290195
0.00156589
-0.00365087
0.00186971
-0.00438554
0.00213933
-0.00507187
0.0023679
-0.00569697
0.00255873
-0.00626824
0.00272129
-0.00680587
0.00286672
-0.00733385
0.00300454
-0.00787344
0.00314153
-0.00844043
0.00328135
-0.00904591
0.00342737
-0.00969376
-0.010403
0.00357691
1.28442e-05
-2.87211e-05
5.73426e-05
-0.000163566
0.000142176
-0.000395252
0.000275505
-0.000738665
0.000462437
-0.00120324
0.000701491
-0.00178601
0.000981574
-0.00246573
0.00128215
-0.00320253
0.00157825
-0.00394697
0.00184823
-0.00465552
0.00207989
-0.00530353
0.00227194
-0.00588902
0.00243124
-0.00642754
0.00256832
-0.00694294
0.00269336
-0.00745889
0.0028141
-0.00799418
0.00293553
-0.00856186
0.00306012
-0.0091705
0.00319017
-0.00982381
-0.0105359
0.0033231
1.47619e-05
-4.3483e-05
6.46387e-05
-0.000213443
0.000157891
-0.000488504
0.000301407
-0.000882181
0.000497646
-0.00139948
0.000741061
-0.00202942
0.00101616
-0.00274083
0.00129985
-0.00348622
0.00156819
-0.00421531
0.00180385
-0.00489118
0.00200009
-0.00549978
0.00216001
-0.00604893
0.00229257
-0.0065601
0.00240818
-0.00705855
0.00251561
-0.00756633
0.00262087
-0.00809944
0.00272748
-0.00866847
0.00283706
-0.00928008
0.00295115
-0.0099379
-0.0106522
0.00306741
1.67312e-05
-6.02142e-05
7.19199e-05
-0.000268631
0.000173077
-0.000589661
0.000325343
-0.00103445
0.000528046
-0.00160218
0.000771478
-0.00227285
0.00103652
-0.00300587
0.00129911
-0.00374881
0.00153784
-0.00445403
0.0017402
-0.00509353
0.0019043
-0.00566388
0.00203634
-0.00618097
0.00214616
-0.00666993
0.00224334
-0.00715573
0.00233507
-0.00765806
0.00242582
-0.00819019
0.00251799
-0.00876064
0.00261263
-0.00937472
0.00271074
-0.010036
-0.0107517
0.00281025
1.87133e-05
-7.89275e-05
7.9013e-05
-0.000328931
0.000187306
-0.000697954
0.000346536
-0.00119368
0.000552572
-0.00180822
0.000791765
-0.00251205
0.00104245
-0.00325655
0.00128108
-0.00398744
0.00148981
-0.00466276
0.00166088
-0.00526461
0.00179633
-0.00579933
0.0019043
-0.00628894
0.00199459
-0.00676021
0.00207554
-0.00723668
0.0021528
-0.00773532
0.0022296
-0.00826699
0.00230753
-0.00883857
0.00238724
-0.00945443
0.00246933
-0.0101181
-0.0108343
0.00255201
2.06647e-05
-9.95921e-05
8.57341e-05
-0.000394001
0.000200153
-0.000812372
0.000364283
-0.00135781
0.000570396
-0.00201433
0.000801426
-0.00274308
0.00103436
-0.00348949
0.00124746
-0.00420054
0.00142688
-0.00484218
0.00156922
-0.00540694
0.00167941
-0.00590953
0.00176653
-0.00637606
0.00183974
-0.00683342
0.00190598
-0.00730292
0.00196957
-0.00779891
0.00203274
-0.00833017
0.00209651
-0.00890235
0.00216126
-0.00951918
0.0022273
-0.0101841
-0.0109001
0.00229308
2.25384e-05
-0.000122131
9.18975e-05
-0.00046336
0.000211219
-0.000931694
0.000377992
-0.00152458
0.000580975
-0.00221731
0.000800435
-0.00296254
0.00101322
-0.00370227
0.00120025
-0.00438757
0.00135183
-0.00499376
0.00146815
-0.00552327
0.00155615
-0.00599752
0.00162503
-0.00644495
0.00168296
-0.00689135
0.00173554
-0.0073555
0.00178593
-0.0078493
0.00183564
-0.00837987
0.00188528
-0.00895198
0.00193504
-0.00956895
0.00198502
-0.0102341
-0.010949
0.00203387
2.42861e-05
-0.000146417
9.73237e-05
-0.000536397
0.000220151
-0.00105452
0.000387218
-0.00169165
0.000584065
-0.00241416
0.000789172
-0.00316764
0.000980292
-0.00389339
0.00114158
-0.00454885
0.00126718
-0.00511936
0.00136016
-0.00561626
0.00142859
-0.00606595
0.00148129
-0.00649765
0.00152526
-0.00693531
0.00156485
-0.0073951
0.00160233
-0.00788677
0.00163866
-0.0084162
0.00167416
-0.00898749
0.00170893
-0.00960371
0.00174286
-0.010268
-0.0109809
0.00177477
2.58603e-05
-0.000172277
0.000101849
-0.000612386
0.00022666
-0.00117933
0.000391682
-0.00185667
0.000579703
-0.00260218
0.00076834
-0.00335628
0.000937081
-0.00406213
0.00107351
-0.00468528
0.00117519
-0.00522104
0.0012473
-0.00568837
0.00129835
-0.00611699
0.00133643
-0.00653573
0.00136734
-0.00696622
0.00139439
-0.00742215
0.00141912
-0.00791151
0.00144211
-0.00843919
0.0014635
-0.00900888
0.00148326
-0.00962348
0.00150116
-0.0102859
-0.0109959
0.00151616
2.72162e-05
-0.000199493
0.000105333
-0.000690502
0.000230536
-0.00130454
0.000391273
-0.00201741
0.000568177
-0.00277908
0.000738864
-0.00352697
0.000885144
-0.00420841
0.000997985
-0.00479812
0.00107782
-0.00530087
0.00113122
-0.00574177
0.00116665
-0.00615242
0.00119127
-0.00656035
0.00120975
-0.00698471
0.00122453
-0.00743693
0.00123662
-0.00792359
0.0012463
-0.00844888
0.00125358
-0.00901616
0.00125837
-0.00962826
0.00126029
-0.0102879
-0.010994
0.00125843
2.83136e-05
-0.000227807
0.000107663
-0.000769851
0.000231654
-0.00142853
0.000386042
-0.00217179
0.000549969
-0.00294301
0.000701803
-0.0036788
0.000826019
-0.00433263
0.000916742
-0.00488885
0.000976676
-0.00536081
0.00101322
-0.00577832
0.00103442
-0.00617362
0.00104643
-0.00657236
0.00105292
-0.0069912
0.00105561
-0.00743961
0.00105511
-0.00792309
0.00105152
-0.00844528
0.00104472
-0.00900937
0.00103456
-0.0096181
0.00102061
-0.0102739
-0.0109754
0.00100198
2.91188e-05
-0.000256926
0.000108761
-0.000849493
0.000229973
-0.00154974
0.00037618
-0.002318
0.000525705
-0.00309254
0.00065827
-0.00381136
0.000761155
-0.00443551
0.000831295
-0.00495899
0.000873113
-0.00540262
0.00089435
-0.00579956
0.000902391
-0.00618166
0.000902402
-0.00657237
0.000897189
-0.00698599
0.000887906
-0.00743033
0.000874876
-0.00791006
0.00085803
-0.00842843
0.000837193
-0.00898853
0.000812152
-0.00959306
0.000782446
-0.0102442
-0.0109401
0.000747162
2.96054e-05
-0.000286531
0.000108582
-0.00092847
0.000225534
-0.00166669
0.000361988
-0.00245446
0.000496095
-0.00322664
0.00060937
-0.00392464
0.00069187
-0.00451801
0.00074294
-0.00501006
0.000768212
-0.0054279
0.000775399
-0.00580674
0.000771103
-0.00617736
0.000759556
-0.00656082
0.000742839
-0.00696927
0.000721672
-0.00740916
0.000696161
-0.00788455
0.00066612
-0.00839839
0.000631294
-0.0089537
0.000591425
-0.00955319
0.000546052
-0.0101988
-0.0108884
0.00049437
2.97552e-05
-0.000316286
0.000107118
-0.00100583
0.000218445
-0.00177802
0.000343856
-0.00257987
0.000461894
-0.00334468
0.000556155
-0.0040189
0.000619334
-0.00458119
0.000652763
-0.00504348
0.000662847
-0.00543798
0.000656997
-0.00580089
0.000640985
-0.00616135
0.000618196
-0.00653803
0.000590122
-0.00694119
0.00055715
-0.00737619
0.000519213
-0.00784662
0.000476052
-0.00835523
0.000427331
-0.00890498
0.000372734
-0.00949859
0.00031159
-0.0101377
-0.0108207
0.000243844
2.95585e-05
-0.000345845
0.000104391
-0.00108067
0.000208875
-0.0018825
0.000322225
-0.00269322
0.000423856
-0.00344631
0.000499599
-0.00409464
0.000544563
-0.00462616
0.000561662
-0.00506058
0.000557708
-0.00543403
0.000539631
-0.00578282
0.000512373
-0.00613409
0.000478579
-0.00650424
0.000439257
-0.00690187
0.000394566
-0.0073315
0.000344284
-0.00779633
0.000288066
-0.00829901
0.00022558
-0.0088425
0.000156417
-0.00942943
7.99576e-05
-0.0100612
-0.0107335
-7.27243e-06
2.90138e-05
-0.000374859
0.000100451
-0.0011521
0.000197036
-0.00197909
0.000297566
-0.00279375
0.00038271
-0.00353146
0.000440578
-0.00415251
0.000468426
-0.004654
0.000470372
-0.00506253
0.000453348
-0.005417
0.000423685
-0.00575315
0.000385537
-0.00609595
0.000340924
-0.00645963
0.000290463
-0.00685141
0.000234109
-0.00727515
0.000171641
-0.00773387
0.000102355
-0.00822973
2.60189e-05
-0.00876616
-5.74773e-05
-0.00934593
-0.000149129
-0.00996958
-0.0106328
-0.000249752
2.81271e-05
-0.000402986
9.53724e-05
-0.00121935
0.00018317
-0.00206689
0.000270355
-0.00288093
0.00033914
-0.00360024
0.000379867
-0.00419324
0.000391653
-0.00466579
0.000379489
-0.00505036
0.000350199
-0.00538771
0.000309464
-0.00571242
0.000260704
-0.00604719
0.000205408
-0.00640433
0.000143988
-0.00678999
7.59052e-05
-0.00720706
8.46097e-07
-0.00765881
-8.07666e-05
-0.00814812
-0.000170297
-0.00867663
-0.000268163
-0.00924807
-0.000375147
-0.0098626
-0.0105168
-0.000491184
2.69113e-05
-0.000429897
8.92484e-05
-0.00128168
0.000167536
-0.00214517
0.000241061
-0.00295446
0.00029377
-0.00365295
0.000318137
-0.0042176
0.000314853
-0.00466251
0.000289491
-0.005025
0.000248609
-0.00534683
0.000197216
-0.00566103
0.000138086
-0.00598806
7.21502e-05
-0.00633839
-6.63349e-07
-0.00671718
-7.96631e-05
-0.00712806
-0.000166142
-0.00757233
-0.000260872
-0.00805339
-0.000363856
-0.00857365
-0.000475875
-0.00913605
-0.000597602
-0.00974087
-0.0103851
-0.00072929
2.53849e-05
-0.000455282
8.21845e-05
-0.00133848
0.000150401
-0.00221339
0.000210125
-0.00301418
0.000247161
-0.00368998
0.000255966
-0.00422641
0.000238528
-0.00464507
0.000200764
-0.00498724
0.00014885
-0.00529492
8.71287e-05
-0.00559931
1.77182e-05
-0.00591864
-5.84785e-05
-0.0062622
-0.000141556
-0.0066341
-0.000232333
-0.00703729
-0.000330858
-0.0074738
-0.000438004
-0.00794624
-0.000554231
-0.00845742
-0.000680181
-0.0090101
-0.000816457
-0.00960459
-0.0102381
-0.00096345
2.35711e-05
-0.000478853
7.42951e-05
-0.00138921
0.000132027
-0.00227112
0.000177962
-0.00306012
0.00019981
-0.00371183
0.000193842
-0.00422044
0.000163089
-0.00461432
0.000113616
-0.00493776
5.11227e-05
-0.00523242
-2.06705e-05
-0.00552751
-9.99118e-05
-0.0058394
-0.000186411
-0.0061757
-0.000280294
-0.00654022
-0.000382165
-0.00693542
-0.000492482
-0.00736349
-0.000611919
-0.0078268
-0.000741144
-0.00832819
-0.000880817
-0.00887042
-0.00103148
-0.00945393
-0.0100761
-0.00119346
2.1497e-05
-0.00050035
6.5699e-05
-0.00143341
0.000112671
-0.00231809
0.000144948
-0.00309239
0.000152152
-0.00371904
0.000132174
-0.00420046
8.88686e-05
-0.00457101
2.82798e-05
-0.00487718
-4.43439e-05
-0.0051598
-0.000125822
-0.00544603
-0.000214974
-0.00575025
-0.000311611
-0.00607906
-0.000416083
-0.00643574
-0.000528946
-0.00682255
-0.000650817
-0.00724162
-0.000782379
-0.00769524
-0.000924379
-0.00818619
-0.00107755
-0.00871725
-0.00124238
-0.00928911
-0.00989949
-0.00141902
1.9193e-05
-0.000519543
5.65165e-05
-0.00147073
9.2574e-05
-0.00235415
0.000111428
-0.00311125
0.000104558
-0.00371217
7.13001e-05
-0.0041672
1.61485e-05
-0.00451586
-5.49986e-05
-0.00480603
-0.0001374
-0.0050774
-0.000228459
-0.00535498
-0.000327282
-0.00565143
-0.000433907
-0.00597244
-0.000548777
-0.00632087
-0.000672486
-0.00669884
-0.000805708
-0.00710839
-0.000949178
-0.00755177
-0.00110371
-0.00803166
-0.00127014
-0.00855082
-0.0014489
-0.00911034
-0.00970852
-0.00163988
1.66931e-05
-0.000536236
4.68674e-05
-0.00150091
7.19676e-05
-0.00237925
7.77062e-05
-0.00311699
5.73452e-05
-0.00369181
1.15832e-05
-0.00412144
-5.4847e-05
-0.00444943
-0.000136101
-0.00472477
-0.00022799
-0.00498551
-0.000328389
-0.00525458
-0.000436711
-0.00554311
-0.000553158
-0.00585599
-0.000678249
-0.00619578
-0.000812618
-0.00656447
-0.000956983
-0.00696403
-0.00111213
-0.00739663
-0.00127893
-0.00786486
-0.00145835
-0.0083714
-0.0016508
-0.00891789
-0.00950354
-0.00185578
1.40366e-05
-0.000550272
3.68699e-05
-0.00152374
5.10651e-05
-0.00239345
4.40559e-05
-0.00310998
1.09997e-05
-0.00365875
-4.69094e-05
-0.00406353
-0.000123987
-0.00437235
-0.000214912
-0.00463385
-0.000315988
-0.00488443
-0.000425511
-0.00514505
-0.000543152
-0.00542547
-0.000669243
-0.0057299
-0.000804363
-0.00606066
-0.000949192
-0.00641965
-0.00110448
-0.00680874
-0.00127104
-0.00723006
-0.00144985
-0.00768605
-0.00164198
-0.00817927
-0.00184785
-0.00871203
-0.00928492
-0.00206646
1.12718e-05
-0.000561544
2.66423e-05
-0.00153911
3.00608e-05
-0.00239686
1.09382e-05
-0.00309085
-3.48291e-05
-0.00361298
-0.000103924
-0.00399444
-0.000191115
-0.00428516
-0.00029132
-0.00453365
-0.000401303
-0.00477445
-0.000519736
-0.00502662
-0.000646504
-0.0052987
-0.000782045
-0.00559436
-0.000926991
-0.00591572
-0.00108206
-0.00626458
-0.00124804
-0.00664277
-0.00142577
-0.00705233
-0.00161629
-0.00749553
-0.00182085
-0.00797471
-0.00203985
-0.00849303
-0.00905314
-0.00227163
8.40629e-06
-0.000569951
1.62845e-05
-0.00154699
9.25065e-06
-0.00238983
-2.2187e-05
-0.00305942
-7.95247e-05
-0.00355564
-0.0001593
-0.00391466
-0.000256116
-0.00418835
-0.000365234
-0.00442453
-0.000483856
-0.00465583
-0.00061098
-0.0048995
-0.000746672
-0.005163
-0.000891454
-0.00544958
-0.00104601
-0.00576116
-0.00121109
-0.00609949
-0.0013875
-0.00646636
-0.00157612
-0.00686371
-0.00177806
-0.00729359
-0.00199473
-0.00775804
-0.00222656
-0.0082612
-0.00880869
-0.00247101
5.45679e-06
-0.000575407
5.8302e-06
-0.00154736
-1.17015e-05
-0.0023723
-5.46279e-05
-0.00301649
-0.00012301
-0.00348726
-0.000212909
-0.00382476
-0.000318894
-0.00408236
-0.000436581
-0.00430684
-0.000563578
-0.00452883
-0.000699168
-0.00476391
-0.000843565
-0.00501861
-0.000997365
-0.00529578
-0.00116129
-0.00559723
-0.00133614
-0.00592465
-0.00152274
-0.00627977
-0.00172197
-0.00666448
-0.001935
-0.00708056
-0.00216337
-0.00752967
-0.00240768
-0.00801689
-0.00855153
-0.00266483
2.33783e-06
-0.000577745
-4.64538e-06
-0.00154038
-3.25097e-05
-0.00234443
-8.62392e-05
-0.00296276
-0.000165147
-0.00340835
-0.000264649
-0.00372526
-0.000379372
-0.00396764
-0.000505298
-0.00418091
-0.000640406
-0.00439372
-0.000784225
-0.00462009
-0.000937095
-0.00486574
-0.00109967
-0.0051332
-0.00127273
-0.00542417
-0.00145709
-0.00574029
-0.0016536
-0.00608325
-0.00186319
-0.00645489
-0.00208705
-0.00685671
-0.00232669
-0.00729002
-0.00258305
-0.00776053
-0.00828132
-0.00285326
-9.97701e-07
-0.000576747
-1.52422e-05
-0.00152614
-5.27465e-05
-0.00230693
-0.000116929
-0.00289858
-0.00020583
-0.00331945
-0.000314434
-0.00361666
-0.000437487
-0.00384458
-0.000571331
-0.00404707
-0.000714282
-0.00425077
-0.000866082
-0.00446829
-0.00102718
-0.00470464
-0.00119828
-0.00496209
-0.0013802
-0.00524226
-0.00157379
-0.0055467
-0.00177995
-0.00587709
-0.00199968
-0.00623516
-0.00223422
-0.00662217
-0.00248495
-0.00703929
-0.00275211
-0.00749337
-0.00799989
-0.00303354
-3.85779e-06
-0.00057289
-2.55172e-05
-0.00150448
-7.24518e-05
-0.00226
-0.000146602
-0.00282443
-0.000244971
-0.00322108
-0.000362197
-0.00349943
-0.000493187
-0.00371359
-0.000634632
-0.00390563
-0.000785153
-0.00410025
-0.000944675
-0.00430877
-0.00111373
-0.00453559
-0.00129309
-0.00478274
-0.00148358
-0.00505176
-0.00168611
-0.00534417
-0.00190163
-0.00566158
-0.00213124
-0.00600554
-0.00237626
-0.00637716
-0.00263799
-0.00677756
-0.00291848
-0.00721288
-0.00771788
-0.00320049
-6.8862e-06
-0.000566003
-3.55651e-05
-0.0014758
-9.15598e-05
-0.002204
-0.000175184
-0.0027408
-0.000282501
-0.00311377
-0.000407885
-0.00337405
-0.00054643
-0.00357505
-0.00069516
-0.0037569
-0.000852969
-0.00394244
-0.00101994
-0.0041418
-0.00119668
-0.00435884
-0.001384
-0.00459542
-0.00158277
-0.00485299
-0.00179392
-0.00513301
-0.00201847
-0.00543702
-0.00225762
-0.00576639
-0.00251258