/*--------------------------------*- C++ -*----------------------------------*\
  =========                 |
  \\      /  F ield         | OpenFOAM: The Open Source CFD Toolbox
   \\    /   O peration     | Website:  https://openfoam.org
    \\  /    A nd           | Version:  7
     \\/     M anipulation  |
\*---------------------------------------------------------------------------*/
FoamFile
{
    version     2.0;
    format      ascii;
    class       volVectorField;
    location    "2";
    object      U;
}
// * * * * * * * * * * * * * * * * * * * * * * * * * * * * * * * * * * * * * //

dimensions      [0 1 -1 0 0 0 0];

internalField   nonuniform List<vector> 
197568
(
(3 -5.3364e-17 0)
(3 -1.12979e-16 0)
(3 6.86901e-17 0)
(3 2.81458e-16 0)
(3 2.46956e-16 0)
(3 2.18575e-16 0)
(3 4.68814e-17 0)
(3 2.21813e-16 0)
(3 1.56314e-16 0)
(3 -3.66778e-16 0)
(3 -5.76954e-16 0)
(3 -7.13284e-16 0)
(3 -5.27809e-16 0)
(3 -5.25297e-17 0)
(3 3.65425e-16 0)
(3 -6.14945e-17 0)
(3 -8.42958e-16 0)
(3 -2.33464e-16 0)
(3 1.01476e-16 0)
(3 5.36525e-17 0)
(3 -4.32335e-16 0)
(3 -1.32077e-15 0)
(3 -7.32019e-16 0)
(3 9.99793e-17 0)
(3 5.81276e-16 0)
(3 7.87722e-16 0)
(3 -3.40451e-16 0)
(3 -8.50031e-16 0)
(3 -1.46871e-15 0)
(3 -1.74578e-15 0)
(3 -2.05833e-15 0)
(3 -2.62139e-16 0)
(3 7.88679e-16 0)
(3 1.76975e-15 0)
(3 1.96328e-15 0)
(3 1.64812e-15 0)
(3 1.1137e-15 0)
(3 1.10495e-15 0)
(3 7.78847e-16 0)
(3 -1.07841e-15 0)
(3 -9.00309e-16 0)
(3 -1.3134e-16 0)
(3 1.37181e-15 0)
(3 8.0476e-16 0)
(3 1.01701e-15 0)
(3 2.28735e-15 0)
(3 1.70221e-15 0)
(3 1.29201e-15 0)
(3 1.07233e-15 0)
(3 4.05154e-16 0)
(3 6.14646e-17 0)
(3 -9.51644e-18 0)
(3 5.08706e-16 0)
(3 9.9406e-16 0)
(3 6.72542e-16 0)
(3 3.35393e-16 0)
(3 5.86683e-16 0)
(3 1.23794e-15 0)
(3 1.74669e-15 0)
(3 2.19442e-16 0)
(3 -7.91129e-16 0)
(3 -9.02559e-16 0)
(3 -8.98368e-17 0)
(3 4.83663e-16 0)
(3 3.03701e-16 0)
(3 1.30557e-17 0)
(3 1.1304e-16 0)
(3 2.1607e-16 0)
(3 1.30747e-17 0)
(3 3.34573e-16 0)
(3 -3.35369e-17 0)
(3 1.51636e-16 0)
(3 6.4979e-16 0)
(3 1.61697e-16 0)
(3 -2.52886e-16 0)
(3 -9.12739e-16 0)
(3 -1.06727e-15 0)
(3 -8.25719e-16 0)
(3 -6.15113e-16 0)
(3 1.44698e-16 0)
(3 2.17946e-16 0)
(3 1.65675e-16 0)
(3 3.09675e-16 0)
(3 9.7476e-16 0)
(3 1.20983e-15 0)
(3 9.29822e-16 0)
(3 1.72466e-16 0)
(2.93784 0.000138567 0)
(1.02819 0.00222359 0)
(0.759817 0.00473876 0)
(0.742906 0.00629038 0)
(0.72986 0.0037621 0)
(0.720635 0.00232069 0)
(0.71509 0.0022689 0)
(0.710991 0.00272577 0)
(0.706188 0.00335507 0)
(0.699225 0.00400844 0)
(0.689668 0.00447016 0)
(0.678373 0.00448908 0)
(0.666942 0.00396753 0)
(0.657151 0.00304314 0)
(0.649802 0.00242256 0)
(0.64406 0.00244451 0)
(0.638481 0.00278284 0)
(0.631713 0.00338423 0)
(0.622909 0.00416783 0)
(0.611905 0.00500139 0)
(0.599127 0.00536485 0)
(0.586606 0.00479711 0)
(0.576379 0.00355357 0)
(0.568836 0.00273442 0)
(0.562731 0.00283516 0)
(0.556817 0.00342327 0)
(0.549759 0.00420283 0)
(0.540721 0.00489682 0)
(0.529876 0.00512738 0)
(0.518371 0.00474089 0)
(0.507512 0.00416064 0)
(0.497959 0.00386182 0)
(0.48967 0.00385891 0)
(0.482211 0.00391892 0)
(0.475023 0.0039915 0)
(0.467112 0.00413564 0)
(0.457554 0.00427499 0)
(0.446465 0.00427778 0)
(0.434991 0.0041907 0)
(0.42404 0.00426491 0)
(0.413677 0.00456945 0)
(0.403664 0.00490639 0)
(0.393709 0.00494812 0)
(0.383789 0.00470358 0)
(0.373768 0.00442349 0)
(0.363834 0.00430765 0)
(0.354397 0.00440311 0)
(0.34584 0.00463116 0)
(0.338213 0.00477185 0)
(0.331071 0.0047247 0)
(0.323479 0.00450169 0)
(0.314536 0.00431962 0)
(0.304077 0.00422305 0)
(0.292855 0.00425378 0)
(0.281652 0.00438495 0)
(0.27119 0.00462086 0)
(0.261469 0.00490044 0)
(0.252438 0.00509788 0)
(0.243213 0.00517246 0)
(0.233093 0.00511533 0)
(0.22232 0.00501394 0)
(0.211652 0.00493256 0)
(0.201636 0.00490819 0)
(0.192673 0.0049417 0)
(0.183989 0.00500901 0)
(0.17472 0.00508587 0)
(0.164221 0.00519117 0)
(0.152544 0.00523096 0)
(0.14051 0.00523613 0)
(0.128852 0.00522516 0)
(0.117569 0.00516283 0)
(0.106555 0.00516808 0)
(0.0956805 0.00528916 0)
(0.0850819 0.00552309 0)
(0.0754128 0.00574525 0)
(0.0663303 0.00589095 0)
(0.056719 0.00592381 0)
(0.0460796 0.00590644 0)
(0.0339845 0.00588908 0)
(0.0209439 0.00586798 0)
(0.00704706 0.00595035 0)
(3 9.11491e-17 0)
(3 7.29925e-18 0)
(3 -3.6854e-16 0)
(3 -2.74357e-16 0)
(3 -5.0593e-16 0)
(3 -8.09249e-16 0)
(3 -1.44032e-15 0)
(3 -1.47243e-15 0)
(3 -8.77662e-16 0)
(3 -1.22861e-15 0)
(3 -1.62928e-15 0)
(3 -6.07075e-16 0)
(3 3.79876e-16 0)
(3 1.01406e-15 0)
(3 1.12016e-15 0)
(3 8.04751e-16 0)
(3 4.00221e-16 0)
(3 9.25071e-16 0)
(3 1.18598e-15 0)
(3 1.03636e-15 0)
(3 6.77817e-16 0)
(3 -1.23258e-15 0)
(3 -1.57194e-15 0)
(3 -1.29962e-15 0)
(3 -7.91182e-16 0)
(3 -5.56342e-16 0)
(3 -1.73568e-15 0)
(3 -1.64754e-15 0)
(3 -1.28973e-15 0)
(3 -1.99447e-15 0)
(3 -2.3398e-15 0)
(3 -1.18466e-15 0)
(3 7.21966e-16 0)
(3 1.70718e-15 0)
(3 2.2331e-15 0)
(3 2.71544e-15 0)
(3 3.01359e-15 0)
(3 2.91481e-15 0)
(3 2.12667e-15 0)
(3 -1.85056e-16 0)
(3 -4.86697e-16 0)
(3 -5.13685e-16 0)
(3 6.96798e-16 0)
(3 8.41242e-16 0)
(3 1.05191e-16 0)
(3 9.04032e-16 0)
(3 2.52193e-15 0)
(3 2.02811e-15 0)
(3 1.15731e-15 0)
(3 9.94965e-16 0)
(3 6.53685e-16 0)
(3 1.10056e-15 0)
(3 1.72301e-15 0)
(3 1.44585e-15 0)
(3 5.1113e-16 0)
(3 2.09694e-17 0)
(3 3.59567e-16 0)
(3 6.31534e-16 0)
(3 7.19984e-16 0)
(3 4.65893e-16 0)
(3 -1.12165e-15 0)
(3 -2.12807e-15 0)
(3 -1.21151e-15 0)
(3 4.27998e-16 0)
(3 5.22085e-16 0)
(3 3.7873e-16 0)
(3 5.33364e-16 0)
(3 1.66273e-16 0)
(3 -4.11163e-16 0)
(3 1.35807e-16 0)
(3 4.96405e-16 0)
(3 7.55096e-16 0)
(3 7.64473e-16 0)
(3 3.50678e-16 0)
(3 -6.96165e-16 0)
(3 -7.89183e-16 0)
(3 -1.04718e-15 0)
(3 -6.17892e-16 0)
(3 2.98687e-16 0)
(3 9.72997e-16 0)
(3 3.14263e-16 0)
(3 -4.5591e-16 0)
(3 -4.02981e-16 0)
(3 4.81529e-16 0)
(3 9.12207e-16 0)
(3 9.43028e-16 0)
(3 -2.62045e-17 0)
(2.93886 0.00161416 0)
(1.0289 0.0118737 0)
(0.754199 0.0164828 0)
(0.737147 0.0130976 0)
(0.727094 0.00861353 0)
(0.719427 0.00631149 0)
(0.714138 0.00655721 0)
(0.709866 0.0080024 0)
(0.704768 0.00988185 0)
(0.697849 0.0117425 0)
(0.688816 0.0129439 0)
(0.67824 0.013021 0)
(0.667131 0.0119059 0)
(0.65686 0.00981263 0)
(0.648557 0.00781706 0)
(0.642 0.00721728 0)
(0.636123 0.00797763 0)
(0.629566 0.00966044 0)
(0.621433 0.0118176 0)
(0.611432 0.0139672 0)
(0.599745 0.0148839 0)
(0.587961 0.01361 0)
(0.577712 0.0107942 0)
(0.56933 0.00878827 0)
(0.562217 0.00887241 0)
(0.555689 0.0104157 0)
(0.548423 0.0126115 0)
(0.539571 0.0145331 0)
(0.52942 0.0150075 0)
(0.518963 0.0137418 0)
(0.508876 0.0120909 0)
(0.499457 0.0114034 0)
(0.490835 0.0116661 0)
(0.482764 0.0121211 0)
(0.474908 0.0124991 0)
(0.466488 0.0129573 0)
(0.456635 0.013313 0)
(0.445411 0.0132474 0)
(0.433806 0.0129315 0)
(0.422632 0.0130343 0)
(0.412031 0.0137421 0)
(0.401906 0.014517 0)
(0.392017 0.0145034 0)
(0.382339 0.0137651 0)
(0.37263 0.0129964 0)
(0.362983 0.0127535 0)
(0.353765 0.0131015 0)
(0.345362 0.0138182 0)
(0.337796 0.014292 0)
(0.330649 0.0142392 0)
(0.323054 0.0136775 0)
(0.314129 0.0131893 0)
(0.303702 0.0128866 0)
(0.292499 0.0129097 0)
(0.28127 0.0132491 0)
(0.270627 0.0138952 0)
(0.260708 0.0146827 0)
(0.251467 0.0152524 0)
(0.242099 0.0154753 0)
(0.231942 0.0153519 0)
(0.22121 0.0151061 0)
(0.210613 0.0149019 0)
(0.200711 0.0148414 0)
(0.191811 0.0148718 0)
(0.183234 0.0149275 0)
(0.174037 0.0150892 0)
(0.163496 0.0153984 0)
(0.151776 0.0156882 0)
(0.139517 0.0158828 0)
(0.127721 0.0159093 0)
(0.116516 0.0157263 0)
(0.105779 0.0156474 0)
(0.0953029 0.0159007 0)
(0.0849043 0.0165844 0)
(0.0752367 0.0172832 0)
(0.0658943 0.0176616 0)
(0.0561553 0.0177645 0)
(0.0456171 0.0177157 0)
(0.0337963 0.0177019 0)
(0.0209933 0.0176986 0)
(0.00705671 0.0179808 0)
(3 1.22266e-16 0)
(3 -9.06293e-17 0)
(3 -7.83787e-16 0)
(3 -7.02388e-16 0)
(3 -1.21619e-15 0)
(3 -1.64975e-15 0)
(3 -1.99944e-15 0)
(3 -2.98942e-15 0)
(3 -3.31526e-15 0)
(3 -2.41369e-15 0)
(3 -1.63655e-15 0)
(3 -3.72217e-16 0)
(3 -1.38619e-16 0)
(3 -8.66976e-16 0)
(3 -3.14713e-17 0)
(3 2.57825e-16 0)
(3 8.6841e-16 0)
(3 1.07751e-15 0)
(3 1.51089e-15 0)
(3 2.00388e-15 0)
(3 1.97713e-15 0)
(3 1.43445e-15 0)
(3 6.94326e-16 0)
(3 2.21214e-16 0)
(3 -2.30029e-16 0)
(3 -5.99123e-16 0)
(3 -7.88036e-16 0)
(3 -4.81236e-16 0)
(3 4.68475e-16 0)
(3 -8.13029e-17 0)
(3 -3.30305e-17 0)
(3 -5.52316e-16 0)
(3 -7.01312e-16 0)
(3 -1.80548e-16 0)
(3 2.16586e-16 0)
(3 1.04035e-15 0)
(3 1.55489e-15 0)
(3 1.30244e-15 0)
(3 9.61547e-16 0)
(3 2.91509e-16 0)
(3 -4.08596e-16 0)
(3 -8.8592e-16 0)
(3 -9.00569e-16 0)
(3 -5.15291e-16 0)
(3 -2.81506e-16 0)
(3 9.31518e-17 0)
(3 1.27356e-15 0)
(3 1.75237e-15 0)
(3 1.81618e-15 0)
(3 1.6229e-15 0)
(3 2.1222e-15 0)
(3 3.35534e-15 0)
(3 4.5103e-15 0)
(3 4.02087e-15 0)
(3 2.79187e-15 0)
(3 1.57376e-15 0)
(3 1.36403e-15 0)
(3 1.6039e-15 0)
(3 1.76485e-15 0)
(3 1.16704e-15 0)
(3 2.99969e-16 0)
(3 -5.9839e-16 0)
(3 -1.05341e-15 0)
(3 -9.48582e-16 0)
(3 -7.80954e-16 0)
(3 -5.98732e-16 0)
(3 -9.73119e-17 0)
(3 -3.04534e-16 0)
(3 -4.08699e-16 0)
(3 3.87286e-16 0)
(3 9.29463e-16 0)
(3 1.22385e-15 0)
(3 4.9545e-16 0)
(3 -1.72339e-16 0)
(3 -2.93154e-16 0)
(3 -2.62834e-16 0)
(3 -1.09687e-15 0)
(3 -1.50867e-15 0)
(3 -6.64004e-16 0)
(3 4.51408e-16 0)
(3 5.70534e-16 0)
(3 -2.93343e-16 0)
(3 -7.40903e-17 0)
(3 5.88484e-16 0)
(3 1.04347e-15 0)
(3 5.36729e-16 0)
(3 6.72183e-16 0)
(2.94181 0.00489527 0)
(1.03283 0.025927 0)
(0.750465 0.0278754 0)
(0.736554 0.0192039 0)
(0.728896 0.013082 0)
(0.721361 0.0106812 0)
(0.715517 0.0115777 0)
(0.710373 0.0140716 0)
(0.704493 0.0170058 0)
(0.697367 0.019649 0)
(0.688765 0.0212899 0)
(0.678959 0.0213402 0)
(0.668407 0.0198731 0)
(0.65795 0.017137 0)
(0.648629 0.0142432 0)
(0.640765 0.0129415 0)
(0.633969 0.01373 0)
(0.627226 0.0160967 0)
(0.61952 0.0192365 0)
(0.610356 0.0223546 0)
(0.599666 0.0236827 0)
(0.588647 0.02222 0)
(0.578579 0.0186536 0)
(0.569762 0.0157204 0)
(0.561763 0.0155231 0)
(0.554492 0.0175433 0)
(0.546927 0.0207279 0)
(0.538084 0.0234898 0)
(0.528311 0.0241246 0)
(0.518582 0.0224118 0)
(0.509093 0.020285 0)
(0.499854 0.0194938 0)
(0.491033 0.0199797 0)
(0.482452 0.0205981 0)
(0.473958 0.0210748 0)
(0.46509 0.0217645 0)
(0.455087 0.0223776 0)
(0.443943 0.0223606 0)
(0.43242 0.0219241 0)
(0.421171 0.0220739 0)
(0.410367 0.0231003 0)
(0.400074 0.0241649 0)
(0.390148 0.0239767 0)
(0.380656 0.0227152 0)
(0.371235 0.021461 0)
(0.361869 0.0210945 0)
(0.352886 0.0216617 0)
(0.34464 0.0227845 0)
(0.337082 0.0234996 0)
(0.32985 0.0234141 0)
(0.322175 0.0226243 0)
(0.313231 0.0219721 0)
(0.302887 0.0216292 0)
(0.291797 0.0217823 0)
(0.280668 0.0223859 0)
(0.269928 0.0234428 0)
(0.25986 0.0246445 0)
(0.250366 0.0254403 0)
(0.240777 0.0256636 0)
(0.230526 0.0253898 0)
(0.219801 0.0249809 0)
(0.209223 0.0246921 0)
(0.199379 0.0246808 0)
(0.190528 0.0248434 0)
(0.182068 0.0249926 0)
(0.173007 0.02523 0)
(0.162541 0.0255906 0)
(0.150759 0.0259448 0)
(0.138249 0.0262433 0)
(0.126222 0.026306 0)
(0.115051 0.0261686 0)
(0.10462 0.0261617 0)
(0.0946279 0.0265874 0)
(0.0845698 0.0275508 0)
(0.0748302 0.02856 0)
(0.0651832 0.0291466 0)
(0.0553222 0.0293997 0)
(0.0449158 0.0294509 0)
(0.0334264 0.0295133 0)
(0.0209749 0.0294913 0)
(0.00708023 0.0298208 0)
(3 -1.93583e-16 0)
(3 -1.01612e-15 0)
(3 -8.99338e-16 0)
(3 -1.10256e-15 0)
(3 -1.09623e-15 0)
(3 -1.29009e-15 0)
(3 -1.16873e-15 0)
(3 -1.49618e-15 0)
(3 -1.63639e-15 0)
(3 -5.08593e-16 0)
(3 7.09833e-16 0)
(3 1.94578e-16 0)
(3 -6.09608e-16 0)
(3 -1.52199e-15 0)
(3 -1.80919e-15 0)
(3 -1.35775e-15 0)
(3 -2.01158e-16 0)
(3 8.25533e-16 0)
(3 1.52013e-15 0)
(3 2.23057e-15 0)
(3 2.80042e-15 0)
(3 3.21879e-15 0)
(3 2.93026e-15 0)
(3 1.37406e-15 0)
(3 1.26732e-15 0)
(3 1.48342e-15 0)
(3 1.82626e-15 0)
(3 2.05979e-15 0)
(3 1.5746e-15 0)
(3 4.28175e-16 0)
(3 -2.01821e-16 0)
(3 -1.40583e-15 0)
(3 -1.29868e-15 0)
(3 -1.76581e-15 0)
(3 -1.26097e-15 0)
(3 -4.76683e-16 0)
(3 -4.07518e-16 0)
(3 -3.1977e-16 0)
(3 -1.01046e-15 0)
(3 -1.33892e-15 0)
(3 -2.38496e-15 0)
(3 -1.8446e-15 0)
(3 -1.65968e-15 0)
(3 -1.08708e-15 0)
(3 5.58531e-16 0)
(3 2.36972e-15 0)
(3 2.52668e-15 0)
(3 2.66937e-15 0)
(3 3.64834e-15 0)
(3 3.73726e-15 0)
(3 3.64248e-15 0)
(3 3.423e-15 0)
(3 2.92468e-15 0)
(3 3.0658e-15 0)
(3 3.58177e-15 0)
(3 3.09987e-15 0)
(3 2.86222e-15 0)
(3 2.82255e-15 0)
(3 1.93703e-15 0)
(3 5.07449e-16 0)
(3 3.87174e-16 0)
(3 5.13454e-16 0)
(3 -8.18375e-16 0)
(3 -1.4448e-15 0)
(3 -1.37019e-15 0)
(3 -1.38395e-15 0)
(3 -1.22176e-15 0)
(3 -5.24112e-16 0)
(3 2.95439e-16 0)
(3 7.1507e-16 0)
(3 1.02251e-15 0)
(3 6.66107e-16 0)
(3 -4.48501e-17 0)
(3 -1.02294e-16 0)
(3 -7.66501e-16 0)
(3 -5.40905e-16 0)
(3 -5.41583e-16 0)
(3 1.77343e-19 0)
(3 6.27053e-16 0)
(3 6.17443e-16 0)
(3 -4.46594e-16 0)
(3 -1.15335e-15 0)
(3 -1.00957e-15 0)
(3 -3.61094e-16 0)
(3 -7.68003e-16 0)
(3 -2.82242e-16 0)
(3 2.54364e-16 0)
(2.949 0.0110982 0)
(1.03937 0.040973 0)
(0.749987 0.0354694 0)
(0.741348 0.0227083 0)
(0.733747 0.0165219 0)
(0.725432 0.015583 0)
(0.718356 0.017644 0)
(0.711817 0.0209963 0)
(0.705096 0.0244389 0)
(0.697919 0.0273809 0)
(0.689869 0.0292475 0)
(0.680749 0.0294206 0)
(0.670568 0.0280664 0)
(0.659883 0.02525 0)
(0.649675 0.0218233 0)
(0.640582 0.019719 0)
(0.63273 0.0201714 0)
(0.625654 0.0228228 0)
(0.618344 0.0265389 0)
(0.610041 0.0302087 0)
(0.600363 0.0317046 0)
(0.590162 0.0302807 0)
(0.580272 0.0266296 0)
(0.571032 0.0232794 0)
(0.562092 0.0228164 0)
(0.553928 0.025065 0)
(0.54592 0.0288777 0)
(0.537071 0.0321329 0)
(0.527653 0.0327642 0)
(0.518616 0.0307621 0)
(0.509708 0.0284839 0)
(0.500736 0.0278427 0)
(0.49184 0.0285812 0)
(0.482901 0.0293651 0)
(0.47392 0.0298901 0)
(0.46475 0.0307277 0)
(0.454739 0.0315568 0)
(0.443774 0.0316215 0)
(0.432379 0.0311628 0)
(0.421046 0.0314329 0)
(0.410024 0.0327481 0)
(0.399458 0.0339658 0)
(0.389391 0.033504 0)
(0.380002 0.0316945 0)
(0.370827 0.0299392 0)
(0.361703 0.0294344 0)
(0.352882 0.0301768 0)
(0.344636 0.0316394 0)
(0.336855 0.0325452 0)
(0.329297 0.0324631 0)
(0.321372 0.031569 0)
(0.312386 0.0308228 0)
(0.302216 0.0305047 0)
(0.291353 0.0308485 0)
(0.280335 0.0317667 0)
(0.269528 0.0332166 0)
(0.259259 0.0347641 0)
(0.249422 0.0356961 0)
(0.239541 0.0358306 0)
(0.229177 0.035347 0)
(0.218478 0.03476 0)
(0.207928 0.034408 0)
(0.198094 0.0344907 0)
(0.189337 0.0348691 0)
(0.180966 0.0352035 0)
(0.17199 0.0354588 0)
(0.161544 0.035769 0)
(0.14953 0.0360946 0)
(0.136823 0.0364319 0)
(0.124538 0.0365637 0)
(0.11339 0.0365604 0)
(0.103336 0.0366743 0)
(0.0939609 0.0373143 0)
(0.0842482 0.0384783 0)
(0.0743336 0.0396263 0)
(0.0643448 0.0404301 0)
(0.0543321 0.04089 0)
(0.0440624 0.041085 0)
(0.0329472 0.0412605 0)
(0.0209079 0.0412354 0)
(0.00710084 0.0415453 0)
(3 -1.52213e-16 0)
(3 -2.84116e-16 0)
(3 -1.17284e-15 0)
(3 -1.60441e-15 0)
(3 -1.03443e-15 0)
(3 -5.78022e-16 0)
(3 -7.71324e-16 0)
(3 -3.46752e-16 0)
(3 1.58306e-15 0)
(3 1.62338e-15 0)
(3 1.51739e-15 0)
(3 7.65949e-16 0)
(3 -5.20855e-16 0)
(3 -1.036e-15 0)
(3 -1.10225e-15 0)
(3 2.44929e-16 0)
(3 1.1211e-15 0)
(3 1.91001e-15 0)
(3 2.33394e-15 0)
(3 2.28729e-15 0)
(3 3.10885e-15 0)
(3 2.96648e-15 0)
(3 3.22107e-15 0)
(3 2.37031e-15 0)
(3 1.53885e-15 0)
(3 1.0012e-15 0)
(3 1.65992e-15 0)
(3 1.968e-15 0)
(3 1.97007e-15 0)
(3 1.76532e-15 0)
(3 6.13361e-16 0)
(3 -9.46688e-16 0)
(3 -1.69346e-15 0)
(3 -2.55408e-15 0)
(3 -2.52286e-15 0)
(3 -2.11557e-15 0)
(3 -7.84799e-16 0)
(3 -4.20005e-16 0)
(3 -1.20893e-15 0)
(3 -1.04175e-15 0)
(3 -1.21821e-15 0)
(3 -1.4025e-15 0)
(3 -1.60525e-15 0)
(3 -9.65634e-16 0)
(3 1.00599e-15 0)
(3 2.32701e-15 0)
(3 3.42818e-15 0)
(3 3.70447e-15 0)
(3 3.18085e-15 0)
(3 2.18963e-15 0)
(3 1.02553e-15 0)
(3 2.656e-16 0)
(3 2.2829e-17 0)
(3 2.73862e-16 0)
(3 1.77272e-15 0)
(3 2.77508e-15 0)
(3 2.94763e-15 0)
(3 2.4251e-15 0)
(3 2.12854e-15 0)
(3 1.38718e-15 0)
(3 1.19255e-15 0)
(3 5.26891e-16 0)
(3 2.06702e-16 0)
(3 -3.47908e-16 0)
(3 -6.21071e-17 0)
(3 1.66051e-16 0)
(3 5.45569e-16 0)
(3 1.83949e-15 0)
(3 1.65617e-15 0)
(3 1.77013e-15 0)
(3 1.64028e-15 0)
(3 9.24922e-16 0)
(3 8.55259e-16 0)
(3 6.73112e-16 0)
(3 -5.24634e-16 0)
(3 -5.51298e-16 0)
(3 -7.41854e-17 0)
(3 1.15552e-15 0)
(3 1.38045e-15 0)
(3 9.09247e-16 0)
(3 -5.09409e-16 0)
(3 -1.47387e-15 0)
(3 -2.032e-15 0)
(3 -1.46329e-15 0)
(3 1.12603e-16 0)
(3 3.13791e-16 0)
(3 -2.54388e-16 0)
(2.95662 -0.000815261 0)
(1.0521 0.0516234 0)
(0.756101 0.038677 0)
(0.74727 0.0265959 0)
(0.737329 0.0239357 0)
(0.727192 0.023745 0)
(0.718508 0.0252996 0)
(0.711203 0.0281055 0)
(0.704594 0.0313161 0)
(0.697973 0.0344255 0)
(0.690593 0.0367293 0)
(0.681912 0.0375554 0)
(0.671842 0.0368884 0)
(0.660989 0.03442 0)
(0.650331 0.0306588 0)
(0.640532 0.0275784 0)
(0.631916 0.0271622 0)
(0.624497 0.0296029 0)
(0.61748 0.0335557 0)
(0.609892 0.0375078 0)
(0.601073 0.0392893 0)
(0.591538 0.0382007 0)
(0.581891 0.0348007 0)
(0.572438 0.0312932 0)
(0.56286 0.0305474 0)
(0.553984 0.0328233 0)
(0.54556 0.037016 0)
(0.53677 0.0405267 0)
(0.527651 0.0410618 0)
(0.519073 0.0389354 0)
(0.510542 0.0367177 0)
(0.501773 0.0362943 0)
(0.492824 0.0373257 0)
(0.483605 0.0382278 0)
(0.474221 0.038736 0)
(0.464804 0.0396578 0)
(0.454842 0.0406904 0)
(0.444109 0.0409036 0)
(0.432908 0.0405276 0)
(0.421572 0.0409725 0)
(0.410445 0.0425223 0)
(0.399645 0.0437742 0)
(0.389479 0.0430034 0)
(0.380207 0.0407088 0)
(0.371303 0.0385049 0)
(0.362449 0.0378389 0)
(0.353783 0.0386859 0)
(0.345435 0.040385 0)
(0.337271 0.0414223 0)
(0.329191 0.041373 0)
(0.320861 0.0405071 0)
(0.31181 0.0398094 0)
(0.301889 0.0396043 0)
(0.291312 0.0401741 0)
(0.28044 0.0414018 0)
(0.269629 0.043192 0)
(0.259115 0.0449915 0)
(0.248887 0.0459735 0)
(0.238681 0.0459644 0)
(0.228195 0.0452545 0)
(0.217536 0.0444889 0)
(0.207041 0.0440925 0)
(0.19725 0.0443337 0)
(0.188508 0.044999 0)
(0.180147 0.0455504 0)
(0.171131 0.0458004 0)
(0.160602 0.045941 0)
(0.148332 0.046135 0)
(0.135519 0.0464859 0)
(0.122991 0.0467222 0)
(0.111817 0.0469447 0)
(0.102073 0.0472761 0)
(0.0931756 0.048084 0)
(0.0837562 0.0493499 0)
(0.0735803 0.0504615 0)
(0.0633022 0.0514428 0)
(0.0531511 0.0521581 0)
(0.043016 0.0525946 0)
(0.0322573 0.0529433 0)
(0.0206527 0.0528969 0)
(0.00705797 0.0531226 0)
(3 -6.19237e-19 0)
(3 8.72114e-17 0)
(3 -2.95205e-16 0)
(3 -1.15122e-16 0)
(3 1.10937e-16 0)
(3 5.04906e-16 0)
(3 1.62695e-16 0)
(3 1.16143e-15 0)
(3 2.63678e-15 0)
(3 2.32613e-15 0)
(3 1.1939e-15 0)
(3 1.05679e-15 0)
(3 7.61135e-16 0)
(3 3.27584e-16 0)
(3 6.94962e-16 0)
(3 5.78604e-16 0)
(3 3.05513e-16 0)
(3 1.02976e-15 0)
(3 1.93929e-15 0)
(3 2.07303e-15 0)
(3 2.22175e-15 0)
(3 2.62567e-15 0)
(3 2.37602e-15 0)
(3 1.93881e-15 0)
(3 1.22469e-15 0)
(3 8.43517e-16 0)
(3 9.73701e-16 0)
(3 8.30988e-16 0)
(3 8.12115e-16 0)
(3 1.21883e-15 0)
(3 9.78606e-16 0)
(3 3.00122e-17 0)
(3 -9.43144e-16 0)
(3 -1.27075e-15 0)
(3 -1.74539e-15 0)
(3 -1.56267e-15 0)
(3 -1.3718e-15 0)
(3 -1.36394e-15 0)
(3 -8.64678e-16 0)
(3 -5.78789e-16 0)
(3 -5.54116e-16 0)
(3 -3.76274e-17 0)
(3 2.32495e-15 0)
(3 1.94913e-15 0)
(3 2.27653e-15 0)
(3 1.6975e-15 0)
(3 1.61362e-15 0)
(3 1.59554e-15 0)
(3 6.27535e-16 0)
(3 -3.48217e-18 0)
(3 2.09565e-16 0)
(3 -4.76794e-16 0)
(3 1.76983e-16 0)
(3 3.44231e-16 0)
(3 3.08235e-16 0)
(3 7.54672e-16 0)
(3 3.90459e-16 0)
(3 5.49607e-16 0)
(3 6.44035e-16 0)
(3 1.38507e-15 0)
(3 1.24232e-15 0)
(3 9.42543e-16 0)
(3 1.22672e-15 0)
(3 1.4398e-15 0)
(3 2.0147e-15 0)
(3 2.57907e-15 0)
(3 2.16676e-15 0)
(3 2.60286e-15 0)
(3 2.61312e-15 0)
(3 2.30206e-15 0)
(3 1.94884e-15 0)
(3 1.83466e-15 0)
(3 1.68858e-15 0)
(3 1.14314e-15 0)
(3 9.29526e-16 0)
(3 1.07125e-16 0)
(3 1.48179e-16 0)
(3 7.65764e-16 0)
(3 4.58069e-17 0)
(3 6.26503e-16 0)
(3 6.08567e-16 0)
(3 -1.00132e-16 0)
(3 -5.59535e-16 0)
(3 5.28291e-16 0)
(3 1.24914e-15 0)
(3 8.4686e-16 0)
(3 5.33314e-16 0)
(2.96647 0.00355698 0)
(1.07539 0.0532761 0)
(0.762842 0.0407222 0)
(0.75048 0.0350265 0)
(0.739093 0.0338382 0)
(0.728478 0.0328865 0)
(0.719051 0.0329892 0)
(0.710943 0.0345493 0)
(0.704024 0.0372022 0)
(0.697592 0.0405759 0)
(0.690524 0.0436529 0)
(0.682017 0.0454923 0)
(0.672021 0.0458524 0)
(0.661284 0.0440649 0)
(0.650848 0.0402399 0)
(0.641123 0.0362739 0)
(0.632211 0.0346981 0)
(0.624361 0.0364789 0)
(0.61718 0.0403223 0)
(0.609763 0.0445101 0)
(0.601303 0.0467185 0)
(0.592091 0.0462071 0)
(0.582674 0.0431911 0)
(0.573244 0.0396139 0)
(0.563313 0.0385376 0)
(0.553985 0.040695 0)
(0.545228 0.0450737 0)
(0.536445 0.0486926 0)
(0.527464 0.0491478 0)
(0.519074 0.0470401 0)
(0.510668 0.0450312 0)
(0.501978 0.0449354 0)
(0.492997 0.0462237 0)
(0.483616 0.047184 0)
(0.473989 0.0475918 0)
(0.464427 0.0485077 0)
(0.454605 0.0497266 0)
(0.444205 0.0501696 0)
(0.433332 0.0499661 0)
(0.422175 0.0506055 0)
(0.4111 0.0523078 0)
(0.400234 0.0534783 0)
(0.390073 0.0524053 0)
(0.380958 0.0497391 0)
(0.37236 0.0471797 0)
(0.363804 0.0463248 0)
(0.355286 0.0471948 0)
(0.346761 0.0490325 0)
(0.338113 0.0501624 0)
(0.329434 0.0501903 0)
(0.320631 0.0494665 0)
(0.311483 0.0489693 0)
(0.301817 0.0489637 0)
(0.291593 0.0497678 0)
(0.280939 0.0512411 0)
(0.270112 0.0532966 0)
(0.259335 0.0552644 0)
(0.248719 0.056269 0)
(0.238203 0.0560893 0)
(0.227622 0.0551664 0)
(0.21704 0.0542302 0)
(0.206661 0.0538015 0)
(0.196975 0.0542312 0)
(0.188221 0.0552234 0)
(0.179733 0.05597 0)
(0.170527 0.0561397 0)
(0.159819 0.0561012 0)
(0.147429 0.0562141 0)
(0.134497 0.0565135 0)
(0.121932 0.0568775 0)
(0.110798 0.0573721 0)
(0.101271 0.0580306 0)
(0.0926187 0.0589165 0)
(0.0833055 0.0601201 0)
(0.072907 0.0611764 0)
(0.0624135 0.0622641 0)
(0.0521555 0.0632633 0)
(0.0420883 0.0639911 0)
(0.0315483 0.0645363 0)
(0.0202725 0.0644344 0)
(0.00696813 0.0645553 0)
(3 -2.8856e-17 0)
(3 4.20882e-16 0)
(3 1.34343e-15 0)
(3 1.30379e-15 0)
(3 2.57004e-16 0)
(3 -1.60305e-16 0)
(3 7.83673e-16 0)
(3 1.54509e-15 0)
(3 1.25709e-15 0)
(3 7.86606e-16 0)
(3 2.22031e-16 0)
(3 2.39452e-16 0)
(3 2.79949e-16 0)
(3 1.36463e-15 0)
(3 2.08962e-15 0)
(3 1.04161e-15 0)
(3 -3.74363e-16 0)
(3 -6.24158e-16 0)
(3 -7.13435e-16 0)
(3 1.96324e-16 0)
(3 4.8029e-16 0)
(3 1.16644e-15 0)
(3 6.74358e-16 0)
(3 5.60967e-16 0)
(3 1.18395e-15 0)
(3 1.3537e-15 0)
(3 2.85949e-16 0)
(3 1.24338e-15 0)
(3 1.15608e-15 0)
(3 1.36043e-15 0)
(3 2.16753e-16 0)
(3 -5.79788e-16 0)
(3 -4.50984e-16 0)
(3 3.57361e-17 0)
(3 1.83545e-16 0)
(3 1.32822e-16 0)
(3 -1.21309e-15 0)
(3 -2.37267e-15 0)
(3 -2.00836e-15 0)
(3 -1.52253e-15 0)
(3 -8.46501e-16 0)
(3 1.42395e-15 0)
(3 2.96522e-15 0)
(3 2.86497e-15 0)
(3 1.97716e-15 0)
(3 1.07561e-15 0)
(3 6.64002e-16 0)
(3 1.28492e-16 0)
(3 3.93429e-16 0)
(3 6.63252e-16 0)
(3 7.77023e-16 0)
(3 3.80088e-16 0)
(3 1.10643e-15 0)
(3 1.00717e-15 0)
(3 5.3819e-16 0)
(3 -2.36444e-16 0)
(3 -7.26489e-17 0)
(3 2.15349e-16 0)
(3 -7.50819e-16 0)
(3 -2.03003e-16 0)
(3 6.45086e-17 0)
(3 -5.37876e-17 0)
(3 1.66677e-16 0)
(3 1.71252e-15 0)
(3 2.4562e-15 0)
(3 2.63748e-15 0)
(3 2.19394e-15 0)
(3 1.73471e-15 0)
(3 1.97629e-15 0)
(3 1.61212e-15 0)
(3 1.91032e-15 0)
(3 1.7282e-15 0)
(3 1.13446e-15 0)
(3 8.68762e-16 0)
(3 9.81165e-16 0)
(3 8.45347e-16 0)
(3 8.36311e-16 0)
(3 3.28674e-16 0)
(3 1.04329e-16 0)
(3 4.23837e-16 0)
(3 1.46031e-15 0)
(3 1.92276e-15 0)
(3 1.61761e-15 0)
(3 8.64728e-16 0)
(3 5.85845e-16 0)
(3 2.53186e-16 0)
(3 5.77303e-16 0)
(2.99729 0.00181645 0)
(1.09999 0.0534857 0)
(0.765657 0.044881 0)
(0.751526 0.0461381 0)
(0.740097 0.0441472 0)
(0.729668 0.0418894 0)
(0.72006 0.0405537 0)
(0.711401 0.0408996 0)
(0.703854 0.0428971 0)
(0.697033 0.0461258 0)
(0.689951 0.0498768 0)
(0.681445 0.0529516 0)
(0.671456 0.0545049 0)
(0.660873 0.0535586 0)
(0.650904 0.0499191 0)
(0.641799 0.0453197 0)
(0.633091 0.0426109 0)
(0.624945 0.0435304 0)
(0.617285 0.0470677 0)
(0.60949 0.0515094 0)
(0.600841 0.0543992 0)
(0.591679 0.0543077 0)
(0.582666 0.0515281 0)
(0.573708 0.0479361 0)
(0.563892 0.0465822 0)
(0.554474 0.0485895 0)
(0.545445 0.0530308 0)
(0.536544 0.0567311 0)
(0.527473 0.0571897 0)
(0.519058 0.055175 0)
(0.51066 0.0533935 0)
(0.502026 0.0535947 0)
(0.493065 0.0550942 0)
(0.483626 0.0560508 0)
(0.473818 0.0563165 0)
(0.464111 0.0571831 0)
(0.454418 0.0586043 0)
(0.444296 0.0593747 0)
(0.433726 0.0594256 0)
(0.422797 0.0602526 0)
(0.411822 0.0620063 0)
(0.400996 0.0629979 0)
(0.390877 0.0616453 0)
(0.381914 0.0587572 0)
(0.37361 0.0559892 0)
(0.365345 0.0549318 0)
(0.356922 0.0557261 0)
(0.348183 0.0575757 0)
(0.339048 0.0587473 0)
(0.329817 0.0589183 0)
(0.32061 0.0584655 0)
(0.311382 0.0582979 0)
(0.301961 0.0585818 0)
(0.292101 0.0596374 0)
(0.281688 0.0613366 0)
(0.270868 0.063551 0)
(0.259889 0.0655871 0)
(0.248959 0.0665404 0)
(0.238186 0.0662049 0)
(0.227541 0.0651087 0)
(0.217064 0.0640297 0)
(0.206842 0.0636035 0)
(0.19727 0.0642383 0)
(0.188456 0.0655341 0)
(0.179684 0.0664651 0)
(0.170122 0.0666077 0)
(0.159129 0.0663912 0)
(0.146621 0.0663196 0)
(0.133687 0.0665826 0)
(0.121241 0.0670871 0)
(0.110206 0.0678463 0)
(0.100768 0.068831 0)
(0.0921149 0.0697557 0)
(0.082708 0.0708064 0)
(0.0721659 0.0717917 0)
(0.0615697 0.0729622 0)
(0.0512607 0.0742279 0)
(0.0412092 0.0752565 0)
(0.0307773 0.0760053 0)
(0.0197227 0.0758567 0)
(0.00680749 0.075913 0)
(3 -1.26188e-16 0)
(3 3.79116e-16 0)
(3 4.16317e-16 0)
(3 4.71277e-16 0)
(3 -5.99279e-16 0)
(3 -7.29005e-16 0)
(3 -1.44908e-16 0)
(3 3.48675e-16 0)
(3 -2.00832e-16 0)
(3 4.16737e-16 0)
(3 3.89682e-16 0)
(3 2.97987e-16 0)
(3 2.49898e-16 0)
(3 5.44861e-16 0)
(3 9.73769e-16 0)
(3 1.08455e-15 0)
(3 4.49632e-16 0)
(3 -6.44857e-16 0)
(3 -1.51796e-15 0)
(3 -1.01844e-15 0)
(3 -8.069e-16 0)
(3 1.18669e-16 0)
(3 7.48574e-16 0)
(3 1.42778e-15 0)
(3 1.48093e-15 0)
(3 9.23546e-16 0)
(3 6.18846e-16 0)
(3 -4.49314e-17 0)
(3 3.07457e-16 0)
(3 1.52064e-16 0)
(3 -1.73151e-15 0)
(3 -2.05873e-15 0)
(3 -1.50857e-15 0)
(3 -8.9644e-16 0)
(3 -4.87113e-16 0)
(3 -4.1488e-16 0)
(3 -1.10348e-16 0)
(3 -4.43041e-16 0)
(3 -4.45808e-16 0)
(3 -6.52899e-17 0)
(3 4.27614e-16 0)
(3 2.21674e-15 0)
(3 1.55521e-15 0)
(3 1.25916e-15 0)
(3 1.16345e-16 0)
(3 -5.41447e-17 0)
(3 -3.42337e-16 0)
(3 -5.1024e-16 0)
(3 2.34564e-16 0)
(3 1.40713e-15 0)
(3 1.77322e-15 0)
(3 1.96748e-15 0)
(3 5.01611e-16 0)
(3 2.26745e-16 0)
(3 3.65106e-16 0)
(3 3.10218e-17 0)
(3 -1.27173e-15 0)
(3 -1.29066e-15 0)
(3 -1.66426e-15 0)
(3 -1.93733e-15 0)
(3 -1.60078e-15 0)
(3 -3.61911e-16 0)
(3 8.59975e-16 0)
(3 1.80261e-15 0)
(3 1.48757e-15 0)
(3 2.0636e-15 0)
(3 2.04301e-15 0)
(3 1.57166e-15 0)
(3 1.25973e-15 0)
(3 1.21922e-15 0)
(3 1.12609e-15 0)
(3 1.42605e-15 0)
(3 1.09157e-15 0)
(3 7.67674e-16 0)
(3 8.65264e-16 0)
(3 1.54747e-15 0)
(3 1.29918e-15 0)
(3 2.54743e-16 0)
(3 1.21236e-15 0)
(3 1.11973e-15 0)
(3 9.70528e-16 0)
(3 2.40894e-15 0)
(3 1.59232e-15 0)
(3 5.07326e-16 0)
(3 -4.16249e-17 0)
(3 3.36445e-16 0)
(3 1.09666e-15 0)
(3 1.14714e-05 0)
(1.12839 0.0599203 0)
(0.766155 0.0492916 0)
(0.752057 0.0560755 0)
(0.741382 0.0533318 0)
(0.730927 0.050267 0)
(0.721336 0.0479607 0)
(0.712501 0.0472987 0)
(0.704559 0.0485985 0)
(0.697132 0.0516485 0)
(0.689573 0.0557941 0)
(0.680812 0.0599714 0)
(0.670572 0.0626606 0)
(0.659925 0.0625506 0)
(0.650327 0.0592052 0)
(0.642069 0.0542673 0)
(0.633933 0.0507294 0)
(0.625782 0.050848 0)
(0.617691 0.054005 0)
(0.609267 0.0586151 0)
(0.60012 0.0621686 0)
(0.590736 0.062517 0)
(0.582158 0.0599039 0)
(0.573951 0.0561949 0)
(0.564641 0.0545969 0)
(0.555336 0.0564445 0)
(0.54607 0.0608842 0)
(0.536837 0.064719 0)
(0.527454 0.0652919 0)
(0.518815 0.063439 0)
(0.510368 0.0618811 0)
(0.501838 0.0623077 0)
(0.492999 0.0638946 0)
(0.483624 0.0647377 0)
(0.473732 0.0648014 0)
(0.463906 0.0656169 0)
(0.454263 0.067311 0)
(0.44435 0.0685509 0)
(0.434025 0.0689626 0)
(0.423345 0.0699552 0)
(0.412554 0.0716307 0)
(0.401876 0.0723292 0)
(0.391919 0.0706998 0)
(0.383141 0.0676887 0)
(0.375094 0.0648101 0)
(0.367029 0.0636167 0)
(0.358639 0.0642278 0)
(0.349674 0.0659944 0)
(0.340105 0.0672009 0)
(0.330431 0.0675788 0)
(0.320945 0.0674955 0)
(0.311699 0.0677369 0)
(0.302483 0.0683714 0)
(0.292919 0.0697219 0)
(0.282736 0.0716178 0)
(0.271982 0.0739186 0)
(0.260898 0.0759215 0)
(0.249756 0.0767793 0)
(0.238791 0.0763067 0)
(0.228096 0.0750869 0)
(0.217702 0.0739216 0)
(0.207637 0.073553 0)
(0.198162 0.0743895 0)
(0.189197 0.075921 0)
(0.180004 0.0770156 0)
(0.169961 0.0771392 0)
(0.158617 0.0767399 0)
(0.146027 0.0765362 0)
(0.133274 0.0768158 0)
(0.121097 0.0774494 0)
(0.110197 0.0784167 0)
(0.100723 0.0796276 0)
(0.0918331 0.0805744 0)
(0.0821479 0.0814536 0)
(0.0715407 0.0823671 0)
(0.0609192 0.0835977 0)
(0.0505773 0.0850856 0)
(0.0404663 0.0863747 0)
(0.0300278 0.0873154 0)
(0.0190688 0.0871676 0)
(0.00658603 0.0872139 0)
(3 5.88385e-17 0)
(3 -2.86072e-17 0)
(3 -4.34445e-16 0)
(3 -2.52885e-16 0)
(3 -1.95383e-16 0)
(3 7.88416e-17 0)
(3 -4.55539e-16 0)
(3 -6.79167e-16 0)
(3 -1.08316e-15 0)
(3 -1.2834e-15 0)
(3 -9.23934e-16 0)
(3 -1.0443e-15 0)
(3 -1.01992e-15 0)
(3 -1.94176e-15 0)
(3 -2.66884e-15 0)
(3 -1.87082e-15 0)
(3 -1.73267e-15 0)
(3 -1.50663e-15 0)
(3 -1.61373e-15 0)
(3 -1.75327e-15 0)
(3 -8.49468e-16 0)
(3 -3.85842e-16 0)
(3 -1.92063e-16 0)
(3 3.46871e-16 0)
(3 7.30609e-16 0)
(3 6.2691e-16 0)
(3 5.3766e-18 0)
(3 -1.04133e-15 0)
(3 -1.34093e-15 0)
(3 -1.36872e-15 0)
(3 -1.03585e-15 0)
(3 -1.09753e-15 0)
(3 -1.10164e-15 0)
(3 -8.54951e-16 0)
(3 -1.08501e-15 0)
(3 -6.5411e-16 0)
(3 1.10225e-18 0)
(3 6.51258e-17 0)
(3 6.0292e-16 0)
(3 7.17025e-16 0)
(3 2.65342e-15 0)
(3 2.67636e-15 0)
(3 2.53827e-15 0)
(3 1.36247e-15 0)
(3 1.03159e-15 0)
(3 8.15088e-16 0)
(3 1.20741e-15 0)
(3 1.52804e-15 0)
(3 8.11423e-16 0)
(3 1.23467e-15 0)
(3 2.18366e-15 0)
(3 2.27322e-15 0)
(3 1.428e-15 0)
(3 -4.36882e-18 0)
(3 -4.8191e-16 0)
(3 -8.26575e-16 0)
(3 -9.01626e-16 0)
(3 -9.1104e-16 0)
(3 -8.8562e-16 0)
(3 -1.19592e-15 0)
(3 -7.96619e-16 0)
(3 8.43614e-16 0)
(3 2.46247e-15 0)
(3 2.29603e-15 0)
(3 1.39244e-15 0)
(3 1.63865e-15 0)
(3 1.51573e-15 0)
(3 1.14005e-15 0)
(3 7.47464e-16 0)
(3 6.53932e-16 0)
(3 4.96908e-16 0)
(3 1.03468e-15 0)
(3 2.12262e-15 0)
(3 1.99578e-15 0)
(3 1.62459e-15 0)
(3 1.54118e-15 0)
(3 1.25773e-15 0)
(3 9.2571e-16 0)
(3 1.86013e-16 0)
(3 -1.71409e-16 0)
(3 3.92034e-16 0)
(3 3.05261e-16 0)
(3 3.52596e-16 0)
(3 1.06979e-15 0)
(3 8.85949e-16 0)
(3 1.72193e-15 0)
(3 9.44481e-16 0)
(3 1.37968e-08 0)
(1.1647 0.0663342 0)
(0.767575 0.0539133 0)