/*--------------------------------*- C++ -*----------------------------------*\
  =========                 |
  \\      /  F ield         | OpenFOAM: The Open Source CFD Toolbox
   \\    /   O peration     | Website:  https://openfoam.org
    \\  /    A nd           | Version:  7
     \\/     M anipulation  |
\*---------------------------------------------------------------------------*/
FoamFile
{
    version     2.0;
    format      ascii;
    class       volScalarField;
    location    "11";
    object      p;
}
// * * * * * * * * * * * * * * * * * * * * * * * * * * * * * * * * * * * * * //

dimensions      [0 2 -2 0 0 0 0];

internalField   nonuniform List<scalar> 
433
(
-4.34974
-4.34485
-4.33969
-4.33425
-4.32855
-4.32256
-4.31629
-4.30974
-4.3029
-4.29578
-4.28837
-4.28068
-4.36122
-4.35641
-4.35132
-4.34595
-4.34029
-4.33434
-4.3281
-4.32157
-4.31475
-4.30763
-4.30021
-4.29249
-4.38313
-4.37845
-4.37347
-4.3682
-4.36263
-4.35675
-4.35057
-4.34408
-4.33728
-4.33016
-4.32274
-4.315
-4.41475
-4.41024
-4.40542
-4.40029
-4.39483
-4.38904
-4.38293
-4.37649
-4.36972
-4.36261
-4.35518
-4.34741
-4.45566
-4.45136
-4.44672
-4.44175
-4.43643
-4.43076
-4.42473
-4.41836
-4.41163
-4.40455
-4.39711
-4.38932
-4.50148
-4.49706
-4.49228
-4.48712
-4.48158
-4.47567
-4.46937
-4.46269
-4.45563
-4.44819
-4.44037
-4.56046
-4.55629
-4.55172
-4.54675
-4.54136
-4.53557
-4.52936
-4.52273
-4.5157
-4.50825
-4.50039
-4.62827
-4.62438
-4.62005
-4.61527
-4.61005
-4.60438
-4.59826
-4.59169
-4.58467
-4.5772
-4.56929
-4.70498
-4.70139
-4.69731
-4.69275
-4.68771
-4.68217
-4.67614
-4.66962
-4.6626
-4.65509
-4.6471
-4.79072
-4.78745
-4.78365
-4.77933
-4.77446
-4.76905
-4.7631
-4.75662
-4.74959
-4.74202
-4.73392
-4.88572
-4.8828
-4.87929
-4.8752
-4.87052
-4.86524
-4.85936
-4.85289
-4.84582
-4.83816
-4.82992
-4.99027
-4.98771
-4.98451
-4.98066
-4.97616
-4.97099
-4.96517
-4.95868
-4.95154
-4.94375
-4.93532
-5.1047
-5.10254
-5.09966
-5.09605
-5.09171
-5.08664
-5.08084
-5.07431
-5.06705
-5.05907
-5.05038
-5.22944
-5.22769
-5.22513
-5.22175
-5.21757
-5.21257
-5.20676
-5.20013
-5.1927
-5.18447
-5.17545
-5.36496
-5.36362
-5.36139
-5.35825
-5.35419
-5.34923
-5.34335
-5.33657
-5.3289
-5.32033
-5.31089
-5.51176
-5.51087
-5.50896
-5.50603
-5.50208
-5.4971
-5.49111
-5.4841
-5.4761
-5.4671
-5.45713
-5.67042
-5.66999
-5.66841
-5.66568
-5.66178
-5.65674
-5.65055
-5.64323
-5.63478
-5.62523
-5.61458
-5.84159
-5.84165
-5.8404
-5.83783
-5.83395
-5.82878
-5.82232
-5.81458
-5.80557
-5.79533
-5.78388
-6.02596
-6.02652
-6.02559
-6.02317
-6.01926
-6.01388
-6.00704
-5.99876
-5.98906
-5.97798
-5.96553
-6.22426
-6.22538
-6.22477
-6.22246
-6.21846
-6.21278
-6.20545
-6.19649
-6.18593
-6.17381
-6.16016
-6.43731
-6.43903
-6.43876
-6.43653
-6.43237
-6.42629
-6.41834
-6.40854
-6.39693
-6.38357
-6.36848
-6.66599
-6.66836
-6.66844
-6.66627
-6.66187
-6.65529
-6.64657
-6.63575
-6.6229
-6.60805
-6.59127
-6.91123
-6.91434
-6.9148
-6.91265
-6.90795
-6.90074
-6.89109
-6.87906
-6.86471
-6.84811
-6.82933
-7.17402
-7.17798
-7.17886
-7.17673
-7.17165
-7.16369
-7.15294
-7.13947
-7.12335
-7.10467
-7.0835
-7.45541
-7.46038
-7.46176
-7.45964
-7.45412
-7.4453
-7.43328
-7.41816
-7.40004
-7.37902
-7.35517
-7.75651
-7.76268
-7.76466
-7.76257
-7.75657
-7.74678
-7.73333
-7.71635
-7.69595
-7.67226
-7.64533
-8.07843
-8.08605
-8.08878
-8.0868
-8.0803
-8.06945
-8.05442
-8.03536
-8.01244
-7.98581
-7.95532
-8.42232
-8.43171
-8.43539
-8.43362
-8.42664
-8.41468
-8.39794
-8.37659
-8.3508
-8.32068
-8.2865
-8.7893
-8.80086
-8.80579
-8.80442
-8.79709
-8.78408
-8.76562
-8.74192
-8.71313
-8.67934
-8.64093
-9.18038
-9.19464
-9.2012
-9.20056
-9.19313
-9.17927
-9.15925
-9.1333
-9.10157
-9.06386
-9.02078
-9.59644
-9.61402
-9.62278
-9.62335
-9.61626
-9.60194
-9.58073
-9.55295
-9.51898
-9.47669
-9.42854
-10.038
-10.0598
-10.0715
-10.0741
-10.0681
-10.0539
-10.0317
-10.0016
-9.96311
-9.9189
-9.86651
-10.5052
-10.5324
-10.5484
-10.5544
-10.5509
-10.5384
-10.5169
-10.4865
-10.4464
-10.3978
-10.34
-10.9973
-11.0316
-11.054
-11.0656
-11.0669
-11.0582
-11.0391
-11.0093
-10.9682
-10.9164
-10.8534
-11.5123
-11.5567
-11.5889
-11.6099
-11.6197
-11.618
-11.604
-11.5759
-11.5355
-11.4812
-11.4126
-12.0469
-12.1067
-12.1547
-12.191
-12.2148
-12.2247
-12.2193
-12.1959
-12.1564
-12.0994
-12.0245
-12.5973
-12.6824
-12.7562
-12.8168
-12.8619
-12.8893
-12.8923
-12.8776
-12.8406
-12.7807
-12.698
-13.1629
-13.2904
-13.4045
-13.5008
-13.5752
-13.6217
-13.6433
-13.6368
-13.6009
-13.5357
-13.4416
-14.372
-14.4435
-14.481
-14.481
-14.4436
-14.3692
-14.2591
-15.3663
-15.2758
-15.143
)
;

boundaryField
{
    inlet
    {
        type            zeroGradient;
    }
    outlet
    {
        type            fixedValue;
        value           nonuniform 0();
    }
    cylinder
    {
        type            zeroGradient;
    }
    top
    {
        type            symmetryPlane;
    }
    bottom
    {
        type            symmetryPlane;
    }
    defaultFaces
    {
        type            empty;
    }
    procBoundary1to0
    {
        type            processor;
        value           nonuniform List<scalar> 
31
(
-4.35438
-4.36576
-4.38752
-4.41895
-4.45962
-4.50553
-4.50553
-4.56424
-4.63174
-4.7081
-4.79347
-4.88807
-4.99218
-5.10616
-5.23041
-5.36541
-5.51165
-5.66972
-5.84025
-6.02391
-6.22145
-6.43365
-6.66136
-6.90548
-7.16697
-7.44684
-7.7461
-8.06583
-8.40707
-8.77085
-9.15806
)
;
    }
    procBoundary1to2
    {
        type            processor;
        value           nonuniform List<scalar> 
33
(
-4.2727
-4.28448
-4.30695
-4.33932
-4.38118
-4.43217
-4.49212
-4.56093
-4.63863
-4.7253
-4.8211
-4.92624
-5.04099
-5.16565
-5.30059
-5.44622
-5.60287
-5.77124
-5.95175
-6.14502
-6.35172
-6.57258
-6.8084
-7.06002
-7.32865
-7.61535
-7.92141
-8.24828
-8.59787
-8.97236
-9.37425
-9.80626
-10.273
)
;
    }
    procBoundary1to6
    {
        type            processor;
        value           nonuniform List<scalar> 8(-9.56944 -10.0054 -10.4658 -10.9496 -11.4541 -11.9742 -12.5018 -13.0272);
    }
    procBoundary1to7
    {
        type            processor;
        value           nonuniform List<scalar> 
13
(
-16.0646
-15.9583
-15.8064
-13.756
-13.9491
-14.1199
-14.2623
-14.2623
-15.2711
-15.3657
-15.4126
-15.4125
-15.4125
)
;
    }
    procBoundary1to8
    {
        type            processor;
        value           nonuniform List<scalar> 7(-10.7789 -11.3296 -11.9317 -12.5925 -13.3195 -14.115 -14.9704);
    }
}


// ************************************************************************* //
