/*--------------------------------*- C++ -*----------------------------------*\
  =========                 |
  \\      /  F ield         | OpenFOAM: The Open Source CFD Toolbox
   \\    /   O peration     | Website:  https://openfoam.org
    \\  /    A nd           | Version:  7
     \\/     M anipulation  |
\*---------------------------------------------------------------------------*/
FoamFile
{
    version     2.0;
    format      ascii;
    class       volScalarField;
    location    "11";
    object      p;
}
// * * * * * * * * * * * * * * * * * * * * * * * * * * * * * * * * * * * * * //

dimensions      [0 2 -2 0 0 0 0];

internalField   nonuniform List<scalar> 
435
(
8.86724
8.7974
8.72035
8.52783
8.46464
8.39539
8.32035
8.23986
8.15431
8.06413
7.96979
7.87179
8.20889
8.15179
8.08958
8.02251
7.95085
7.87493
7.79508
7.71169
7.62513
7.9087
7.85711
7.80121
7.74121
7.67732
7.6098
7.53893
7.465
7.3883
7.62568
7.57906
7.52878
7.47501
7.41793
7.35774
7.29466
7.22891
7.16071
7.35845
7.3163
7.27101
7.22274
7.17161
7.1178
7.06147
7.0028
6.94198
7.10584
7.06768
7.02682
6.98338
6.93747
6.88922
6.83877
6.78626
6.73183
6.86683
6.83224
6.79531
6.75613
6.71478
6.67139
6.62607
6.57892
6.53006
6.64058
6.60917
6.57572
6.54028
6.50295
6.46381
6.42296
6.38049
6.3365
6.42635
6.39778
6.3674
6.33526
6.30145
6.26604
6.22911
6.19073
6.151
6.22355
6.19748
6.16981
6.14058
6.10987
6.07772
6.04422
6.00944
5.97343
6.03163
6.00778
5.98249
5.95582
5.92782
5.89855
5.86806
5.83642
5.80369
5.85012
5.82822
5.80504
5.78061
5.755
5.72824
5.70039
5.67151
5.64165
5.67861
5.65842
5.63708
5.61463
5.59111
5.56656
5.54103
5.51456
5.48722
5.51671
5.49803
5.47831
5.45758
5.43589
5.41328
5.38978
5.36544
5.34031
5.36411
5.34673
5.32842
5.30921
5.28913
5.26821
5.24649
5.22402
5.20083
5.22048
5.20425
5.18718
5.16928
5.1506
5.13117
5.11102
5.09018
5.06869
5.08556
5.07032
5.05432
5.03758
5.02013
5.00199
4.9832
4.9638
4.94381
4.95909
4.94472
4.92965
4.91391
4.89752
4.88052
4.86293
4.84477
4.82609
4.84085
4.82721
4.81295
4.79808
4.78262
4.76661
4.75006
4.733
4.71546
4.7306
4.71761
4.70404
4.68992
4.67528
4.66012
4.64448
4.62838
4.61185
4.62815
4.61571
4.60275
4.58929
4.57535
4.56094
4.5461
4.53083
4.51517
4.53335
4.52139
4.50895
4.49606
4.48272
4.46897
4.45481
4.44027
4.42537
4.44606
4.4345
4.42251
4.41011
4.3973
4.38411
4.37055
4.35664
4.3424
4.36615
4.35495
4.34335
4.33137
4.31901
4.30631
4.29327
4.2799
4.26624
4.29356
4.28266
4.27139
4.25977
4.24781
4.23552
4.22293
4.21004
4.19686
4.22824
4.21759
4.20661
4.1953
4.18368
4.17175
4.15954
4.14705
4.1343
4.17019
4.15976
4.14902
4.13798
4.12665
4.11504
4.10315
4.09101
4.07863
4.11948
4.10924
4.09871
4.0879
4.07682
4.06547
4.05387
4.04202
4.02994
4.07625
4.06617
4.05582
4.04521
4.03434
4.02321
4.01184
4.00025
3.98842
4.04071
4.03077
4.02058
4.01013
3.99943
3.98849
3.97732
3.96593
3.95432
4.01318
4.00336
3.9933
3.98299
3.97244
3.96166
3.95065
3.93942
3.92798
3.99412
3.9844
3.97444
3.96424
3.95381
3.94315
3.93226
3.92116
3.90985
3.98415
3.97451
3.96462
3.9545
3.94416
3.93358
3.92278
3.91176
3.90053
9.03167
8.98448
8.92965
8.71709
8.67939
8.63529
8.58475
8.38382
8.34821
8.30719
8.26073
8.06984
8.03645
7.99845
7.95585
7.77372
7.74259
7.70752
7.66853
7.4941
7.46525
7.433
7.39738
7.22994
7.20331
7.17372
7.14121
6.98034
6.9558
6.92867
6.89899
6.7444
6.72181
6.69695
6.66986
6.52139
6.50061
6.47782
6.45305
6.3107
6.29156
6.27063
6.24794
6.11176
6.09409
6.07482
6.05399
5.9241
5.90772
5.8899
5.87069
5.74713
5.7319
5.71538
5.69761
5.58045
5.56622
5.55084
5.53433
5.42369
5.41033
5.39593
5.38051
5.27647
5.26385
5.25031
5.23584
5.13843
5.12646
5.11365
5.10001
5.00929
4.99786
4.98568
4.97276
4.88878
4.87783
4.86618
4.85384
4.77657
4.76601
4.75482
4.74301
4.67245
4.66222
4.65142
4.64006
4.57623
4.56628
4.55581
4.54483
4.48774
4.47802
4.46783
4.45717
4.40682
4.39729
4.38734
4.37695
4.33336
4.324
4.31424
4.30409
4.2673
4.25808
4.24849
4.23854
4.20863
4.19952
4.19008
4.18029
4.15737
4.14837
4.13905
4.12942
4.11368
4.10476
4.09555
4.08604
4.07774
4.06889
4.05977
4.05037
4.04986
4.04109
4.03205
4.02274
4.0305
4.02179
4.01282
4.00359
4.02031
4.01164
4.00272
3.99356
)
;

boundaryField
{
    inlet
    {
        type            zeroGradient;
    }
    outlet
    {
        type            fixedValue;
        value           nonuniform 0();
    }
    cylinder
    {
        type            zeroGradient;
    }
    top
    {
        type            symmetryPlane;
    }
    bottom
    {
        type            symmetryPlane;
    }
    defaultFaces
    {
        type            empty;
    }
    procBoundary32to26
    {
        type            processor;
        value           nonuniform List<scalar> 
15
(
9.22899
9.15195
9.06638
8.6364
8.6364
8.54596
8.44947
8.34746
8.2405
8.12921
9.4069
9.35657
9.29725
9.07129
9.07129
)
;
    }
    procBoundary32to31
    {
        type            processor;
        value           nonuniform List<scalar> 
33
(
8.74852
8.41409
8.09867
7.80093
7.51953
7.25359
7.00227
6.76466
6.54012
6.32801
6.12781
5.93902
5.76106
5.59351
5.436
5.28813
5.14954
5.01993
4.89903
4.78649
4.6821
4.58566
4.49697
4.4159
4.34232
4.27615
4.21739
4.16606
4.1223
4.0863
4.05837
4.03897
4.02874
)
;
    }
    procBoundary32to33
    {
        type            processor;
        value           nonuniform List<scalar> 
33
(
7.77061
7.53578
7.30911
7.09029
6.87915
6.67561
6.47961
6.29108
6.10999
5.93629
5.76993
5.61087
5.45905
5.31444
5.17697
5.0466
4.92327
4.80691
4.69747
4.5949
4.49913
4.41013
4.32785
4.25228
4.18342
4.1213
4.06601
4.01764
3.97639
3.9425
3.91634
3.89833
3.88909
)
;
    }
}


// ************************************************************************* //
