/*--------------------------------*- C++ -*----------------------------------*\
  =========                 |
  \\      /  F ield         | OpenFOAM: The Open Source CFD Toolbox
   \\    /   O peration     | Website:  https://openfoam.org
    \\  /    A nd           | Version:  7
     \\/     M anipulation  |
\*---------------------------------------------------------------------------*/
FoamFile
{
    version     2.0;
    format      ascii;
    class       surfaceScalarField;
    location    "20";
    object      phi;
}
// * * * * * * * * * * * * * * * * * * * * * * * * * * * * * * * * * * * * * //

dimensions      [0 3 -1 0 0 0 0];

internalField   nonuniform List<scalar> 
29690
(
-6.5227e-08
6.55485e-08
-3.21465e-10
-2.6683e-07
2.02614e-07
-1.01044e-09
-6.17118e-07
3.52069e-07
-1.78095e-09
-1.12885e-06
5.14369e-07
-2.63922e-09
-1.81517e-06
6.89913e-07
-3.59155e-09
-2.68957e-06
8.79046e-07
-4.64433e-09
-3.76581e-06
1.08204e-06
-5.80434e-09
-5.05784e-06
1.29911e-06
-7.07829e-09
-6.57971e-06
1.53035e-06
-8.47297e-09
-8.3455e-06
1.77578e-06
-9.99579e-09
-1.03692e-05
2.03533e-06
-1.16533e-08
-1.26645e-05
2.30879e-06
-1.34526e-08
-1.5245e-05
2.59586e-06
-1.54001e-08
-1.81236e-05
2.89613e-06
-1.75021e-08
-2.13129e-05
3.20907e-06
-1.97646e-08
-2.48248e-05
3.53407e-06
-2.21935e-08
-2.86704e-05
3.87044e-06
-2.47943e-08
-3.28603e-05
4.21743e-06
-2.75721e-08
-3.74041e-05
4.57431e-06
-3.0532e-08
-4.23108e-05
4.94038e-06
-3.3679e-08
-4.75888e-05
5.31508e-06
-3.70182e-08
-5.32463e-05
5.69803e-06
-4.05554e-08
-5.92912e-05
6.08921e-06
-4.42969e-08
-6.5732e-05
6.48906e-06
-4.82505e-08
-7.25783e-05
6.89866e-06
-5.2426e-08
-7.98414e-05
7.31995e-06
-5.68346e-08
-8.75358e-05
7.75595e-06
-6.14913e-08
-9.56805e-05
8.21107e-06
-6.64138e-08
-0.0001043
8.6914e-06
-7.16259e-08
-0.000113428
9.20505e-06
-7.71597e-08
-0.000123108
9.7625e-06
-8.30533e-08
-0.000133395
1.03769e-05
-8.93543e-08
-0.000144363
1.10644e-05
-9.61206e-08
-0.000156104
1.1844e-05
-1.03423e-07
-0.000168731
1.2738e-05
-1.1135e-07
-0.000182382
1.37711e-05
-1.20009e-07
-0.000197222
1.49699e-05
-1.29529e-07
-0.000213443
1.63613e-05
-1.40069e-07
-0.000231262
1.79709e-05
-1.51815e-07
1.98292e-05
-1.64996e-07
-0.000250927
-6.49755e-08
1.30524e-07
-2.65807e-07
4.03445e-07
-6.14759e-07
7.01021e-07
-1.12454e-06
1.02415e-06
-1.80825e-06
1.37362e-06
-2.67931e-06
1.75011e-06
-3.75143e-06
2.15416e-06
-5.03847e-06
2.58615e-06
-6.55441e-06
3.04629e-06
-8.31323e-06
3.5346e-06
-1.03288e-05
4.0509e-06
-1.26148e-05
4.59477e-06
-1.51845e-05
5.16558e-06
-1.80508e-05
5.76247e-06
-2.12261e-05
6.38437e-06
-2.47221e-05
7.03001e-06
-2.85496e-05
7.69797e-06
-3.27189e-05
8.38674e-06
-3.72394e-05
9.09477e-06
-4.21196e-05
9.82062e-06
-4.73676e-05
1.05631e-05
-5.29909e-05
1.13213e-05
-5.89969e-05
1.20952e-05
-6.53933e-05
1.28855e-05
-7.21888e-05
1.36942e-05
-7.93939e-05
1.45251e-05
-8.70219e-05
1.5384e-05
-9.50904e-05
1.62795e-05
-0.000103623
1.72237e-05
-0.00011265
1.82325e-05
-0.000122214
1.93268e-05
-0.00013237
2.05326e-05
-0.000143188
2.18821e-05
-0.000154757
2.34135e-05
-0.00016719
2.51711e-05
-0.000180624
2.72048e-05
-0.000195223
2.95683e-05
-0.000211177
3.23154e-05
-0.000228704
3.54985e-05
3.91787e-05
-0.000248054
-6.44832e-08
1.95007e-07
-2.63803e-07
6.02765e-07
-6.10137e-07
1.04735e-06
-1.1161e-06
1.53011e-06
-1.79468e-06
2.0522e-06
-2.65919e-06
2.61462e-06
-3.7232e-06
3.21817e-06
-5.00044e-06
3.86339e-06
-6.50472e-06
4.55057e-06
-8.24984e-06
5.27972e-06
-1.02495e-05
6.05052e-06
-1.2517e-05
6.86232e-06
-1.50656e-05
7.71412e-06
-1.79077e-05
8.60458e-06
-2.10553e-05
9.53203e-06
-2.45198e-05
1.04945e-05
-2.83116e-05
1.14898e-05
-3.24404e-05
1.25155e-05
-3.69148e-05
1.35692e-05
-4.17427e-05
1.46486e-05
-4.69313e-05
1.57517e-05
-5.2487e-05
1.6877e-05
-5.84161e-05
1.80242e-05
-6.47247e-05
1.91941e-05
-7.142e-05
2.03895e-05
-7.85103e-05
2.16154e-05
-8.60068e-05
2.28805e-05
-9.39244e-05
2.4197e-05
-0.000102283
2.55827e-05
-0.000111112
2.70611e-05
-0.000120448
2.86628e-05
-0.000130342
3.04267e-05
-0.000140861
3.24009e-05
-0.00015209
3.46428e-05
-0.000164138
3.72192e-05
-0.000177139
4.02059e-05
-0.000191255
4.36843e-05
-0.000206677
4.77373e-05
-0.000223624
5.2445e-05
5.79011e-05
-0.000242346
-6.3764e-08
2.58771e-07
-2.60873e-07
7.99874e-07
-6.03374e-07
1.38986e-06
-1.10374e-06
2.03047e-06
-1.7748e-06
2.72326e-06
-2.6297e-06
3.46952e-06
-3.68181e-06
4.27027e-06
-4.94464e-06
5.12622e-06
-6.43178e-06
6.03771e-06
-8.15674e-06
7.00468e-06
-1.01329e-05
8.02667e-06
-1.23733e-05
9.10273e-06
-1.48906e-05
1.02315e-05
-1.7697e-05
1.1411e-05
-2.08039e-05
1.26389e-05
-2.4222e-05
1.39126e-05
-2.7961e-05
1.52288e-05
-3.20299e-05
1.65843e-05
-3.64363e-05
1.79756e-05
-4.1187e-05
1.93993e-05
-4.62879e-05
2.08525e-05
-5.17438e-05
2.2333e-05
-5.75592e-05
2.38396e-05
-6.37383e-05
2.53731e-05
-7.02854e-05
2.69366e-05
-7.72062e-05
2.85362e-05
-8.45083e-05
3.01826e-05
-9.22027e-05
3.18914e-05
-0.000100305
3.36854e-05
-0.000108839
3.55949e-05
-0.000117837
3.76603e-05
-0.000127343
3.99327e-05
-0.000137418
4.24757e-05
-0.000148141
4.53661e-05
-0.000159616
4.8694e-05
-0.000171971
5.25614e-05
-0.000185367
5.708e-05
-0.000199993
6.23633e-05
-0.00021607
6.85221e-05
7.56854e-05
-0.000233854
-6.28374e-08
3.21609e-07
-2.57093e-07
9.9413e-07
-5.94643e-07
1.72741e-06
-1.08777e-06
2.5236e-06
-1.7491e-06
3.38459e-06
-2.59154e-06
4.31196e-06
-3.62821e-06
5.30694e-06
-4.87234e-06
6.37035e-06
-6.33719e-06
7.50256e-06
-8.03592e-06
8.70342e-06
-9.9815e-06
9.97224e-06
-1.21865e-05
1.13078e-05
-1.46632e-05
1.27081e-05
-1.74229e-05
1.41707e-05
-2.04766e-05
1.56926e-05
-2.38341e-05
1.72701e-05
-2.75043e-05
1.8899e-05
-3.14949e-05
2.05749e-05
-3.58125e-05
2.22932e-05
-4.04624e-05
2.40492e-05
-4.54487e-05
2.58388e-05
-5.07743e-05
2.76586e-05
-5.64412e-05
2.95066e-05
-6.24508e-05
3.13828e-05
-6.88044e-05
3.32901e-05
-7.55035e-05
3.52354e-05
-8.25515e-05
3.72305e-05
-8.9954e-05
3.92939e-05
-9.77211e-05
4.14524e-05
-0.000105869
4.37428e-05
-0.000114423
4.6214e-05
-0.000123419
4.89289e-05
-0.000132909
5.19664e-05
-0.000142966
5.54226e-05
-0.000153683
5.94113e-05
-0.000165185
6.40629e-05
-0.000177625
6.95206e-05
-0.000191194
7.59325e-05
-0.000206116
8.34438e-05
9.22227e-05
-0.000222653
-6.17273e-08
3.83336e-07
-2.52559e-07
1.18496e-06
-5.84158e-07
2.059e-06
-1.06857e-06
3.00801e-06
-1.71816e-06
4.03419e-06
-2.54556e-06
5.13937e-06
-3.56357e-06
6.32495e-06
-4.78507e-06
7.59185e-06
-6.22291e-06
8.9404e-06
-7.88983e-06
1.03703e-05
-9.79829e-06
1.18807e-05
-1.19603e-05
1.34698e-05
-1.43875e-05
1.51352e-05
-1.70905e-05
1.68738e-05
-2.00794e-05
1.86815e-05
-2.33631e-05
2.05538e-05
-2.69494e-05
2.24852e-05
-3.08446e-05
2.44702e-05
-3.50539e-05
2.65025e-05
-3.95808e-05
2.85761e-05
-4.44274e-05
3.06853e-05
-4.95941e-05
3.28253e-05
-5.508e-05
3.49925e-05
-6.08833e-05
3.7186e-05
-6.70009e-05
3.94078e-05
-7.34299e-05
4.16644e-05
-8.0168e-05
4.39686e-05
-8.72144e-05
4.63404e-05
-9.45717e-05
4.88098e-05
-0.000102248
5.14189e-05
-0.000110258
5.42242e-05
-0.000118629
5.72998e-05
-0.000127402
6.07392e-05
-0.000136637
6.46578e-05
-0.000146419
6.91937e-05
-0.000156863
7.45069e-05
-0.000168119
8.0776e-05
-0.000180374
8.81873e-05
-0.000193856
9.69262e-05
0.000107207
-0.00020884
-6.04611e-08
4.43797e-07
-2.47378e-07
1.37188e-06
-5.72157e-07
2.38378e-06
-1.04657e-06
3.48242e-06
-1.68267e-06
4.67029e-06
-2.49275e-06
5.94944e-06
-3.48922e-06
7.32143e-06
-4.68456e-06
8.78719e-06
-6.09116e-06
1.0347e-05
-7.72122e-06
1.20004e-05
-9.58661e-06
1.37461e-05
-1.16987e-05
1.55819e-05
-1.40683e-05
1.75049e-05
-1.67054e-05
1.95109e-05
-1.96189e-05
2.1595e-05
-2.28166e-05
2.37515e-05
-2.6305e-05
2.59737e-05
-3.00891e-05
2.82543e-05
-3.41722e-05
3.05856e-05
-3.85558e-05
3.29597e-05
-4.32395e-05
3.53691e-05
-4.82211e-05
3.78068e-05
-5.34963e-05
4.02677e-05
-5.90591e-05
4.27488e-05
-6.4902e-05
4.52507e-05
-7.10165e-05
4.77789e-05
-7.73936e-05
5.03457e-05
-8.40251e-05
5.29718e-05
-9.09046e-05
5.56893e-05
-9.80297e-05
5.8544e-05
-0.000105405
6.15991e-05
-0.000113043
6.49383e-05
-0.000120973
6.8669e-05
-0.000129241
7.29256e-05
-0.000137918
7.78712e-05
-0.000147109
8.36976e-05
-0.000156955
9.06219e-05
-0.000167642
9.88745e-05
-0.000179404
0.000108688
0.000120332
-0.00019253
-5.90673e-08
5.02864e-07
-2.41661e-07
1.55447e-06
-5.58894e-07
2.70102e-06
-1.02221e-06
3.94574e-06
-1.64331e-06
5.29139e-06
-2.43409e-06
6.74022e-06
-3.40654e-06
8.29387e-06
-4.57263e-06
9.95328e-06
-5.94422e-06
1.17186e-05
-7.53292e-06
1.35891e-05
-9.34992e-06
1.55631e-05
-1.14059e-05
1.76379e-05
-1.37107e-05
1.98097e-05
-1.62733e-05
2.20735e-05
-1.91017e-05
2.44234e-05
-2.22023e-05
2.68521e-05
-2.55803e-05
2.93516e-05
-2.92388e-05
3.19128e-05
-3.31793e-05
3.45261e-05
-3.74011e-05
3.71814e-05
-4.1901e-05
3.9869e-05
-4.66736e-05
4.25794e-05
-5.17109e-05
4.5305e-05
-5.70026e-05
4.80404e-05
-6.25358e-05
5.07839e-05
-6.82957e-05
5.35389e-05
-7.42661e-05
5.6316e-05
-8.04297e-05
5.91354e-05
-8.67701e-05
6.20296e-05
-9.32729e-05
6.50469e-05
-9.99289e-05
6.82551e-05
-0.000106737
7.17461e-05
-0.000113708
7.56401e-05
-0.000120872
8.00898e-05
-0.000128285
8.52839e-05
-0.000136035
9.14478e-05
-0.000144254
9.88413e-05
-0.000153126
0.000107746
-0.00016289
0.000118452
0.000131296
-0.000173853
-5.75739e-08
5.60438e-07
-2.35519e-07
1.73242e-06
-5.44614e-07
3.01011e-06
-9.95934e-07
4.39706e-06
-1.60078e-06
5.89623e-06
-2.37059e-06
7.51003e-06
-3.31685e-06
9.24014e-06
-4.45101e-06
1.10874e-05
-5.78431e-06
1.30519e-05
-7.32768e-06
1.51325e-05
-9.09155e-06
1.7327e-05
-1.10857e-05
1.96321e-05
-1.33192e-05
2.20431e-05
-1.57998e-05
2.45541e-05
-1.85343e-05
2.71578e-05
-2.15277e-05
2.98456e-05
-2.47837e-05
3.26075e-05
-2.83036e-05
3.54327e-05
-3.20866e-05
3.83092e-05
-3.61296e-05
4.12245e-05
-4.04266e-05
4.4166e-05
-4.49687e-05
4.71215e-05
-4.9744e-05
5.00802e-05
-5.4737e-05
5.30335e-05
-5.99293e-05
5.59762e-05
-6.52993e-05
5.89088e-05
-7.08222e-05
6.18389e-05
-7.64712e-05
6.47845e-05
-8.22184e-05
6.77768e-05
-8.80359e-05
7.08644e-05
-9.38988e-05
7.4118e-05
-9.97883e-05
7.76356e-05
-0.000105697
8.15483e-05
-0.000111633
8.60263e-05
-0.000117633
9.12835e-05
-0.000123766
9.75813e-05
-0.000130152
0.000105227
-0.000136967
0.000114561
-0.000144457
0.000125943
0.000139794
-0.000152955
-5.60065e-08
6.16445e-07
-2.29051e-07
1.90546e-06
-5.29539e-07
3.3106e-06
-9.68132e-07
4.83565e-06
-1.55567e-06
6.48377e-06
-2.3031e-06
8.25746e-06
-3.22136e-06
1.01584e-05
-4.32126e-06
1.21873e-05
-5.61338e-06
1.4344e-05
-7.10789e-06
1.6627e-05
-8.8144e-06
1.90335e-05
-1.07418e-05
2.15594e-05
-1.28979e-05
2.41992e-05
-1.52896e-05
2.69458e-05
-1.79221e-05
2.97903e-05
-2.07992e-05
3.27227e-05
-2.39225e-05
3.57309e-05
-2.72917e-05
3.88018e-05
-3.09036e-05
4.19211e-05
-3.47524e-05
4.50733e-05
-3.88291e-05
4.82427e-05
-4.31212e-05
5.14136e-05
-4.76123e-05
5.45714e-05
-5.22821e-05
5.77032e-05
-5.71058e-05
6.07999e-05
-6.20543e-05
6.38573e-05
-6.70943e-05
6.68789e-05
-7.21881e-05
6.98783e-05
-7.72951e-05
7.28838e-05
-8.23725e-05
7.59418e-05
-8.73779e-05
7.91234e-05
-9.22724e-05
8.25301e-05
-9.70257e-05
8.63016e-05
-0.000101623
9.06236e-05
-0.000106075
9.57352e-05
-0.000110428
0.000101935
-0.000114784
0.000109583
-0.000119311
0.000119088
-0.000124259
0.000130891
0.00014552
-0.000129985
-5.43865e-08
6.70831e-07
-2.22341e-07
2.07342e-06
-5.13854e-07
3.60211e-06
-9.39128e-07
5.26092e-06
-1.5085e-06
7.05315e-06
-2.23235e-06
8.98132e-06
-3.12101e-06
1.10471e-05
-4.18461e-06
1.32509e-05
-5.43298e-06
1.55924e-05
-6.87545e-06
1.80694e-05
-8.52073e-06
2.06787e-05
-1.03766e-05
2.34153e-05
-1.245e-05
2.62726e-05
-1.47462e-05
2.9242e-05
-1.72692e-05
3.23134e-05
-2.00212e-05
3.54746e-05
-2.30019e-05
3.87116e-05
-2.6209e-05
4.20089e-05
-2.96369e-05
4.5349e-05
-3.3277e-05
4.87135e-05
-3.71172e-05
5.20829e-05
-4.11411e-05
5.54375e-05
-4.53279e-05
5.87582e-05
-4.96518e-05
6.20272e-05
-5.40818e-05
6.52299e-05
-5.85809e-05
6.83565e-05
-6.31065e-05
7.14044e-05
-6.76096e-05
7.43815e-05
-7.20359e-05
7.73101e-05
-7.63265e-05
8.02324e-05
-8.04194e-05
8.32163e-05
-8.42532e-05
8.63639e-05
-8.77719e-05
8.98203e-05
-9.09326e-05
9.37843e-05
-9.37161e-05
9.85187e-05
-9.61416e-05
0.00010436
-9.82858e-05
0.000111727
-0.000100305
0.000121107
-0.000102452
0.000133038
0.000148169
-0.000105101
-5.27294e-08
7.23561e-07
-2.15449e-07
2.23613e-06
-4.97689e-07
3.88435e-06
-9.09146e-07
5.67238e-06
-1.4596e-06
7.6036e-06
-2.15882e-06
9.68053e-06
-3.01644e-06
1.19047e-05
-4.04186e-06
1.42764e-05
-5.24408e-06
1.67946e-05
-6.63152e-06
1.94569e-05
-8.21187e-06
2.22591e-05
-9.99185e-06
2.51953e-05
-1.1977e-05
2.82578e-05
-1.41715e-05
3.14365e-05
-1.65777e-05
3.47196e-05
-1.9196e-05
3.80929e-05
-2.20243e-05
4.154e-05
-2.5058e-05
4.50426e-05
-2.82892e-05
4.85802e-05
-3.17064e-05
5.21307e-05
-3.52942e-05
5.56706e-05
-3.90322e-05
5.91755e-05
-4.28951e-05
6.26211e-05
-4.68517e-05
6.59838e-05
-5.08643e-05
6.92425e-05
-5.48881e-05
7.23803e-05
-5.88706e-05
7.53869e-05
-6.27514e-05
7.82622e-05
-6.64616e-05
8.10203e-05
-6.99248e-05
8.36956e-05
-7.30582e-05
8.63497e-05
-7.57756e-05
8.90812e-05
-7.7992e-05
9.20367e-05
-7.9632e-05
9.54243e-05
-8.06418e-05
9.95285e-05
-8.10063e-05
0.000104725
-8.07735e-05
0.000111494
-8.00845e-05
0.000120418
-7.91879e-05
0.000132142
0.000147442
-7.84617e-05
-5.10436e-08
7.74604e-07
-2.08404e-07
2.39349e-06
-4.81108e-07
4.15706e-06
-8.78296e-07
6.06957e-06
-1.40913e-06
8.13444e-06
-2.0827e-06
1.03541e-05
-2.9079e-06
1.27299e-05
-3.8933e-06
1.52618e-05
-5.04698e-06
1.79483e-05
-6.37638e-06
2.07863e-05
-7.88808e-06
2.37708e-05
-9.5876e-06
2.68949e-05
-1.14792e-05
3.01493e-05
-1.35654e-05
3.35227e-05
-1.58471e-05
3.70013e-05
-1.83228e-05
4.05686e-05
-2.09885e-05
4.42057e-05
-2.38372e-05
4.78913e-05
-2.68585e-05
5.16014e-05
-3.00379e-05
5.53101e-05
-3.33565e-05
5.89892e-05
-3.67903e-05
6.26093e-05
-4.03092e-05
6.61399e-05
-4.38764e-05
6.9551e-05
-4.74477e-05
7.28138e-05
-5.09704e-05
7.59029e-05
-5.43821e-05
7.87986e-05
-5.76102e-05
8.14904e-05
-6.05714e-05
8.39815e-05
-6.31709e-05
8.6295e-05
-6.53036e-05
8.84825e-05
-6.68564e-05
9.0634e-05
-6.77122e-05
9.28926e-05
-6.77589e-05
9.5471e-05
-6.69023e-05
9.86719e-05
-6.50869e-05
0.00010291
-6.23259e-05
0.000108733
-5.87472e-05
0.00011684
-5.461e-05
0.000128004
0.000143064
-5.02317e-05
-4.93296e-08
8.23934e-07
-2.01206e-07
2.54537e-06
-4.64104e-07
4.41996e-06
-8.46553e-07
6.45202e-06
-1.35704e-06
8.64492e-06
-2.0039e-06
1.1001e-05
-2.79521e-06
1.35212e-05
-3.73863e-06
1.62052e-05
-4.84123e-06
1.90509e-05
-6.10937e-06
2.20544e-05
-7.54841e-06
2.52098e-05
-9.16256e-06
2.8509e-05
-1.09546e-05
3.19413e-05
-1.29255e-05
3.54937e-05
-1.50743e-05
3.91501e-05
-1.73977e-05
4.28919e-05
-1.98895e-05
4.66975e-05
-2.25403e-05
5.0542e-05
-2.53369e-05
5.43981e-05
-2.82619e-05
5.82351e-05
-3.1293e-05
6.20203e-05
-3.4402e-05
6.57183e-05
-3.75544e-05
6.92923e-05
-4.07078e-05
7.27045e-05
-4.38115e-05
7.59176e-05
-4.68048e-05
7.88962e-05
-4.96156e-05
8.16094e-05
-5.21594e-05
8.40342e-05
-5.43378e-05
8.61598e-05
-5.60374e-05
8.79947e-05
-5.71301e-05
8.95751e-05
-5.74738e-05
9.09776e-05
-5.69165e-05
9.23353e-05
-5.53044e-05
9.38589e-05
-5.24964e-05
9.58639e-05
-4.83879e-05
9.8801e-05
-4.29471e-05
0.000103292
-3.62858e-05
0.000110178
-2.88099e-05
0.000120528
0.000134912
-2.06575e-05
-4.75798e-08
8.71513e-07
-1.93822e-07
2.69161e-06
-4.46598e-07
4.67273e-06
-8.13763e-07
6.81918e-06
-1.30306e-06
9.13422e-06
-1.922e-06
1.16199e-05
-2.67775e-06
1.42769e-05
-3.57695e-06
1.71044e-05
-4.62559e-06
2.00995e-05
-5.8288e-06
2.32576e-05
-7.19061e-06
2.65717e-05
-8.71378e-06
3.00322e-05
-1.03995e-05
3.3627e-05
-1.22469e-05
3.73412e-05
-1.42533e-05
4.11565e-05
-1.64131e-05
4.50518e-05
-1.87179e-05
4.90022e-05
-2.11556e-05
5.29798e-05
-2.37104e-05
5.69529e-05
-2.63617e-05
6.08864e-05
-2.90834e-05
6.47421e-05
-3.18436e-05
6.84784e-05
-3.46027e-05
7.20514e-05
-3.73132e-05
7.5415e-05
-3.99177e-05
7.85221e-05
-4.23478e-05
8.13263e-05
-4.4522e-05
8.37836e-05
-4.63439e-05
8.58561e-05
-4.77004e-05
8.75164e-05
-4.84596e-05
8.87539e-05
-4.84696e-05
8.95851e-05
-4.75582e-05
9.00663e-05
-4.55359e-05
9.0313e-05
-4.22021e-05
9.05252e-05
-3.73598e-05
9.10216e-05
-3.08423e-05
9.22835e-05
-2.25523e-05
9.50022e-05
-1.24796e-05
0.000100106
-7.54261e-07
0.000108803
0.0001235
1.06574e-05
-4.57794e-08
9.17293e-07
-1.8619e-07
2.83202e-06
-4.2844e-07
4.91498e-06
-7.79647e-07
7.17039e-06
-1.24673e-06
9.6013e-06
-1.83628e-06
1.22095e-05
-2.55446e-06
1.49951e-05
-3.4068e-06
1.79567e-05
-4.39804e-06
2.10908e-05
-5.53198e-06
2.43915e-05
-6.81116e-06
2.78508e-05
-8.23672e-06
3.14577e-05
-9.80805e-06
3.51983e-05
-1.15225e-05
3.90556e-05
-1.3375e-05
4.30091e-05
-1.53579e-05
4.70346e-05
-1.74601e-05
5.11044e-05
-1.96668e-05
5.51865e-05
-2.19591e-05
5.92452e-05
-2.43131e-05
6.32403e-05
-2.66989e-05
6.71279e-05
-2.90803e-05
7.08598e-05
-3.1413e-05
7.43842e-05
-3.36441e-05
7.7646e-05
-3.57096e-05
8.05877e-05
-3.75336e-05
8.31502e-05
-3.90254e-05
8.52753e-05
-4.00772e-05
8.6908e-05
-4.05617e-05
8.80009e-05
-4.03289e-05
8.85211e-05
-3.92034e-05
8.84596e-05
-3.6983e-05
8.78459e-05
-3.34386e-05
8.67686e-05
-2.83194e-05
8.54059e-05
-2.13653e-05
8.40675e-05
-1.23336e-05
8.32519e-05
-1.04671e-06
8.37153e-05
1.25223e-05
8.65366e-05
2.80443e-05
9.32811e-05
0.000106203
4.53416e-05
-4.39087e-08
9.61202e-07
-1.78223e-07
2.96634e-06
-4.0942e-07
5.14618e-06
-7.43797e-07
7.50477e-06
-1.18736e-06
1.00449e-05
-1.74571e-06
1.27678e-05
-2.42385e-06
1.56733e-05
-3.22609e-06
1.8759e-05
-4.15581e-06
2.20205e-05
-5.21527e-06
2.5451e-05
-6.40538e-06
2.9041e-05
-7.72544e-06
3.27778e-05
-9.17286e-06
3.66458e-05
-1.07428e-05
4.06256e-05
-1.24279e-05
4.46941e-05
-1.42178e-05
4.88245e-05
-1.60985e-05
5.29851e-05
-1.80524e-05
5.71404e-05
-2.0057e-05
6.12498e-05
-2.20846e-05
6.5268e-05
-2.41015e-05
6.91448e-05
-2.60667e-05
7.2825e-05
-2.79313e-05
7.62487e-05
-2.96362e-05
7.93509e-05
-3.11113e-05
8.20628e-05
-3.2273e-05
8.43119e-05
-3.30216e-05
8.6024e-05
-3.32387e-05
8.7125e-05
-3.27834e-05
8.75455e-05
-3.14884e-05
8.72261e-05
-2.91563e-05
8.61275e-05
-2.55552e-05
8.42448e-05
-2.04169e-05
8.16303e-05
-1.34383e-05
7.84273e-05
-4.29061e-06
7.49198e-05
7.35627e-06
7.1605e-05
2.1784e-05
6.92876e-05
3.91256e-05
6.9195e-05
5.92458e-05
7.3161e-05
8.38775e-05
8.1571e-05
-4.19364e-08
1.00314e-06
-1.69797e-07
3.0942e-06
-3.89255e-07
5.36564e-06
-7.05705e-07
7.82122e-06
-1.12415e-06
1.04633e-05
-1.64904e-06
1.32927e-05
-2.28417e-06
1.63084e-05
-3.03243e-06
1.95072e-05
-3.89566e-06
2.28837e-05
-4.87442e-06
2.64298e-05
-5.96775e-06
3.01343e-05
-7.17289e-06
3.39829e-05
-8.48497e-06
3.79578e-05
-9.8967e-06
4.20373e-05
-1.1398e-05
4.61954e-05
-1.29754e-05
5.04019e-05
-1.4612e-05
5.46217e-05
-1.62864e-05
5.88148e-05
-1.79724e-05
6.29357e-05
-1.96381e-05
6.69337e-05
-2.12451e-05
7.07518e-05
-2.27477e-05
7.43276e-05
-2.4091e-05
7.75921e-05
-2.52103e-05
8.04702e-05
-2.60285e-05
8.2881e-05
-2.64542e-05
8.47376e-05
-2.6379e-05
8.59488e-05
-2.56739e-05
8.642e-05
-2.41855e-05
8.60571e-05
-2.17306e-05
8.47713e-05
-1.80914e-05
8.24883e-05
-1.30089e-05
7.91622e-05
-6.17777e-06
7.47992e-05
2.75581e-06
6.94937e-05
1.41901e-05
6.34856e-05
2.85479e-05
5.72471e-05
4.62266e-05
5.16089e-05
6.7494e-05
4.79276e-05
9.23135e-05
4.83415e-05
5.61863e-05
0.000120005
-3.98324e-08
1.04297e-06
-1.6079e-07
3.21516e-06
-3.6766e-07
5.57251e-06
-6.64842e-07
8.1184e-06
-1.05621e-06
1.08547e-05
-1.54498e-06
1.37815e-05
-2.1335e-06
1.68969e-05
-2.82313e-06
2.01968e-05
-3.61395e-06
2.36746e-05
-4.50461e-06
2.73204e-05
-5.49201e-06
3.11217e-05
-6.57101e-06
3.50619e-05
-7.73418e-06
3.9121e-05
-8.97137e-06
4.32745e-05
-1.02693e-05
4.74934e-05
-1.16113e-05
5.17439e-05
-1.29765e-05
5.59869e-05
-1.43395e-05
6.01778e-05
-1.56695e-05
6.42658e-05
-1.693e-05
6.81941e-05
-1.80771e-05
7.1899e-05
-1.90593e-05
7.53098e-05
-1.98157e-05
7.83484e-05
-2.02743e-05
8.09289e-05
-2.03507e-05
8.29574e-05
-1.99453e-05
8.43322e-05
-1.89404e-05
8.49438e-05
-1.71967e-05
8.46762e-05
-1.45485e-05
8.34089e-05
-1.07984e-05
8.10213e-05
-5.71045e-06
7.74003e-05
9.9815e-07
7.24536e-05
9.66497e-06
6.61324e-05
2.06897e-05
5.84689e-05
3.4536e-05
4.96393e-05
5.17188e-05
4.00644e-05
7.27593e-05
3.05684e-05
9.8077e-05
2.26099e-05
0.000127771
1.86477e-05
2.27993e-05
0.000161158
-3.75685e-08
1.08054e-06
-1.51078e-07
3.32867e-06
-3.44337e-07
5.76577e-06
-6.20639e-07
8.3947e-06
-9.82609e-07
1.12166e-05
-1.43205e-06
1.42309e-05
-1.96974e-06
1.74346e-05
-2.59526e-06
2.08224e-05
-3.30674e-06
2.4386e-05
-4.10061e-06
2.81143e-05
-4.97134e-06
3.19924e-05
-5.91112e-06
3.60017e-05
-6.90949e-06
4.01194e-05
-7.95302e-06
4.4318e-05
-9.02483e-06
4.85652e-05
-1.01042e-05
5.28232e-05
-1.11658e-05
5.70485e-05
-1.21795e-05
6.11915e-05
-1.31093e-05
6.51956e-05
-1.39127e-05
6.89975e-05
-1.45397e-05
7.2526e-05
-1.49318e-05
7.57019e-05
-1.50206e-05
7.84372e-05
-1.47261e-05
8.06344e-05
-1.39552e-05
8.21865e-05
-1.25986e-05
8.29757e-05
-1.05285e-05
8.28738e-05
-7.59461e-06
8.17423e-05
-3.61919e-06
7.94334e-05
1.60873e-06
7.57933e-05
8.34105e-06
7.0668e-05
1.68801e-05
6.39146e-05
2.75895e-05
5.54229e-05
4.09065e-05
4.5152e-05
5.73503e-05
3.31954e-05
7.75206e-05
1.98941e-05
0.000102063
6.02582e-06
0.000131567
-6.89384e-06
0.000166318
-1.61039e-05
-1.66015e-05
0.000205719
-3.51123e-08
1.11565e-06
-1.40526e-07
3.43408e-06
-3.18969e-07
5.94421e-06
-5.72504e-07
8.64823e-06
-9.02362e-07
1.15465e-05
-1.30876e-06
1.46373e-05
-1.79072e-06
1.79166e-05
-2.34582e-06
2.13775e-05
-2.96994e-06
2.50102e-05
-3.65703e-06
2.88014e-05
-4.39877e-06
3.27341e-05
-5.18423e-06
3.67872e-05
-5.99952e-06
4.09347e-05
-6.82737e-06
4.51459e-05
-7.64666e-06
4.93845e-05
-8.43193e-06
5.36085e-05
-9.15278e-06
5.77694e-05
-9.77324e-06
6.18119e-05
-1.0251e-05
6.56734e-05
-1.05367e-05
6.92831e-05
-1.05726e-05
7.25619e-05
-1.02918e-05
7.54212e-05
-9.61691e-06
7.77622e-05
-8.45807e-06
7.94756e-05
-6.71133e-06
8.04397e-05
-4.2562e-06
8.05205e-05
-9.52725e-07
7.95703e-05
3.36217e-06
7.74274e-05
8.87935e-06
7.39163e-05
1.58235e-05
6.88492e-05
2.44609e-05
6.20306e-05
3.51097e-05
5.32658e-05
4.81528e-05
4.23799e-05
6.40534e-05
2.92513e-05
8.33719e-05
1.38769e-05
0.000106776
-3.50963e-06
0.000135023
-2.22218e-05
0.00016888
-4.07505e-05
0.000208868
-5.60923e-05
-6.23108e-05
0.000254578
-3.24361e-08
1.14809e-06
-1.29014e-07
3.53066e-06
-2.91262e-07
6.10646e-06
-5.19874e-07
8.87684e-06
-8.14527e-07
1.18412e-05
-1.17368e-06
1.49965e-05
-1.59434e-06
1.83372e-05
-2.07183e-06
2.1855e-05
-2.59953e-06
2.55378e-05
-3.16852e-06
2.93704e-05
-3.76729e-06
3.33329e-05
-4.38135e-06
3.74012e-05
-4.99284e-06
4.15462e-05
-5.58004e-06
4.5733e-05
-6.11689e-06
4.99213e-05
-6.5724e-06
5.4064e-05
-6.91004e-06
5.8107e-05
-7.08704e-06
6.19889e-05
-7.05354e-06
6.56399e-05
-6.75168e-06
6.89813e-05
-6.11461e-06
7.19248e-05
-5.0652e-06
7.43718e-05
-3.51468e-06
7.62117e-05
-1.36101e-06
7.73219e-05
1.51306e-06
7.75656e-05
5.24229e-06
7.67913e-05
9.98169e-06
7.48309e-05
1.591e-05
7.14991e-05
2.32339e-05
6.65924e-05
3.21936e-05
5.98895e-05
4.30702e-05
5.1154e-05
5.61951e-05
4.01408e-05
7.19642e-05
2.66108e-05
9.08546e-05
1.03609e-05
0.000113448
-8.71629e-06
0.000140452
-3.05142e-05
0.000172712
-5.44811e-05
0.000211151
-7.91902e-05
0.000256562
-0.000101503
-0.000114585
0.000308836
-2.95163e-08
1.1776e-06
-1.16436e-07
3.61758e-06
-2.60952e-07
6.25098e-06
-4.62235e-07
9.07813e-06
-7.18223e-07
1.20971e-05
-1.0254e-06
1.53036e-05
-1.37854e-06
1.86904e-05
-1.77043e-06
2.22468e-05
-2.19156e-06
2.5959e-05
-2.62981e-06
2.98086e-05
-3.07002e-06
3.37731e-05
-3.49363e-06
3.78248e-05
-3.8782e-06
4.19307e-05
-4.19687e-06
4.60517e-05
-4.41783e-06
5.01423e-05
-4.50367e-06
5.41498e-05
-4.41064e-06
5.8014e-05
-4.0879e-06
6.16662e-05
-3.47657e-06
6.50285e-05
-2.50876e-06
6.80135e-05
-1.10637e-06
7.05224e-05
8.20218e-07
7.24452e-05
3.37358e-06
7.36584e-05
6.67101e-06
7.40245e-05
1.08464e-05
7.33902e-05
1.60526e-05
7.15851e-05
2.24639e-05
6.84197e-05
3.0279e-05
6.3684e-05
3.97249e-05
5.71464e-05
5.10615e-05
4.8553e-05
6.45872e-05
3.76283e-05
8.06477e-05
2.40803e-05
9.96473e-05
7.61124e-06
0.000122066
-1.20579e-05
0.000148485
-3.5135e-05
0.000179618
-6.16473e-05
0.000216345
-9.12084e-05
0.000259707
-0.000122552
0.000310754
-0.00015255
-0.000173632
0.000369801
-2.63283e-08
1.20393e-06
-1.02686e-07
3.69393e-06
-2.27783e-07
6.37607e-06
-3.99092e-07
9.24944e-06
-6.12611e-07
1.23107e-05
-8.62612e-07
1.55536e-05
-1.14136e-06
1.89691e-05
-1.43879e-06
2.25443e-05
-1.74218e-06
2.62624e-05
-2.03574e-06
3.01022e-05
-2.3002e-06
3.40376e-05
-2.51235e-06
3.8037e-05
-2.64452e-06
4.20629e-05
-2.66395e-06
4.60712e-05
-2.53221e-06
5.00106e-05
-2.20441e-06
5.3822e-05
-1.6284e-06
5.7438e-05
-7.43886e-07
6.07817e-05
5.18642e-07
6.3766e-05
2.23905e-06
6.62931e-05
4.50888e-06
6.82526e-05
7.43279e-06
6.95213e-05
1.11302e-05
6.9961e-05
1.57371e-05
6.94175e-05
2.14083e-05
6.77191e-05
2.8319e-05
6.46743e-05
3.66682e-05
6.00704e-05
4.66806e-05
5.36716e-05
5.86098e-05
4.52173e-05
7.27416e-05
3.44211e-05
8.93985e-05
2.09715e-05
0.000108944
4.53468e-06
0.000131792
-1.52367e-05
0.000158418
-3.8684e-05
0.000189382
-6.60993e-05
0.000225365
-9.76299e-05
0.000267217
-0.00013306
0.000316006
-0.00017134
0.000372977
-0.000209521
-0.000239609
0.000438954
-2.28478e-08
1.22678e-06
-8.76532e-08
3.75874e-06
-1.91485e-07
6.47991e-06
-3.29927e-07
9.38788e-06
-4.96815e-07
1.24776e-05
-6.83954e-07
1.57408e-05
-8.80795e-07
1.91659e-05
-1.07409e-06
2.27376e-05
-1.24749e-06
2.64358e-05
-1.38111e-06
3.02358e-05
-1.45103e-06
3.41075e-05
-1.4288e-06
3.80148e-05
-1.28078e-06
4.19149e-05
-9.67515e-07
4.57579e-05
-4.42979e-07
4.9486e-05
3.46293e-07
5.30328e-05
1.46213e-06
5.63222e-05
2.97581e-06
5.9268e-05
4.96923e-06
6.17726e-05
7.53628e-06
6.3726e-05
1.07843e-05
6.50045e-05
1.4836e-05
6.54696e-05
1.98307e-05
6.49662e-05
2.59272e-05
6.3321e-05
3.33054e-05
6.03409e-05
4.21687e-05
5.5811e-05
5.27466e-05
4.94926e-05
6.52968e-05
4.11214e-05
8.01077e-05
3.04064e-05
9.75003e-05
1.70285e-05
0.00011783
6.41896e-07
0.000141488
-1.91231e-05
0.000168903
-4.26521e-05
0.000200548
-7.03292e-05
0.00023695
-0.000102501
0.000278719
-0.000139398
0.000326599
-0.000180941
0.00038156
-0.000226301
0.00044489
-0.000272851
-0.00031262
0.000517901
-1.9049e-08
1.24583e-06
-7.12222e-08
3.81091e-06
-1.51767e-07
6.56045e-06
-2.54174e-07
9.49029e-06
-3.69879e-07
1.25933e-05
-4.87941e-07
1.58588e-05
-5.94685e-07
1.92727e-05
-6.73296e-07
2.28162e-05
-7.03381e-07
2.64659e-05
-6.60466e-07
3.01929e-05
-5.15439e-07
3.39625e-05
-2.33933e-07
3.77333e-05
2.24367e-07
4.14566e-05
9.065e-07
4.50758e-05
1.8671e-06
4.85254e-05
3.16936e-06
5.17305e-05
4.88619e-06
5.46053e-05
7.10138e-06
5.70528e-05
9.91109e-06
5.89629e-05
1.34254e-05
6.02117e-05
1.777e-05
6.06599e-05
2.30883e-05
6.01513e-05
2.95435e-05
5.8511e-05
3.73209e-05
5.55436e-05
4.66304e-05
5.10314e-05
5.77091e-05
4.47324e-05
7.08236e-05
3.63781e-05
8.62726e-05
2.56724e-05
0.000104388
1.22905e-05
0.000125538
-4.12099e-06
0.000150122
-2.3942e-05
0.000178572
-4.75737e-05
0.000211349
-7.54289e-05
0.000248932
-0.000107912
0.000291818
-0.000145387
0.000340522
-0.000188103
0.000395618
-0.000236037
0.000457825
-0.000288508
0.0005282
-0.000343226
-0.000392705
0.000608285
-1.49009e-08
1.26073e-06
-5.32546e-08
3.84927e-06
-1.08291e-07
6.61549e-06
-1.7118e-07
9.55317e-06
-2.30702e-07
1.26528e-05
-2.72875e-07
1.5901e-05
-2.80554e-07
1.92804e-05
-2.32974e-07
2.27686e-05
-1.05245e-07
2.63381e-05
1.32216e-07
2.99554e-05
5.14314e-07
3.35804e-05
1.082e-06
3.71656e-05
1.88305e-06
4.06555e-05
2.97299e-06
4.39858e-05
4.41609e-06
4.70823e-05
6.2865e-06
4.98601e-05
8.66957e-06
5.22223e-05
1.16633e-05
5.40591e-05
1.53799e-05
5.52463e-05
1.99478e-05
5.56438e-05
2.55136e-05
5.50941e-05
3.22446e-05
5.34204e-05
4.03308e-05
5.04248e-05
4.99883e-05
4.58862e-05
6.14616e-05
3.95581e-05
7.50269e-05
3.11671e-05
9.09947e-05
2.04103e-05
0.000109712
6.9548e-06
0.000131565
-9.56247e-06
0.000156978
-2.95335e-05
0.00018641
-5.33745e-05
0.000220354
-8.15175e-05
0.00025932
-0.000114394
0.000303819
-0.000152412
0.000354339
-0.000195907
0.000411311
-0.000245075
0.000475095
-0.00029982
0.000546022
-0.000359435
0.00062454
-0.000421745
-0.000479895
0.00071173
-1.03622e-08
1.27109e-06
-3.35732e-08
3.87248e-06
-6.06311e-08
6.64254e-06
-8.01443e-08
9.57269e-06
-7.79549e-08
1.26506e-05
-3.67275e-08
1.58598e-05
6.45137e-08
1.91791e-05
2.50897e-07
2.25822e-05
5.52279e-07
2.60367e-05
1.00389e-06
2.95038e-05
1.64705e-06
3.29372e-05
2.52999e-06
3.62826e-05
3.70879e-06
3.94767e-05
5.24835e-06
4.24463e-05
7.22366e-06
4.5107e-05
9.72103e-06
4.73627e-05
1.28397e-05
4.91037e-05
1.66933e-05
5.02055e-05
2.14122e-05
5.05274e-05
2.71452e-05
4.99108e-05
3.40623e-05
4.8177e-05
4.23571e-05
4.51256e-05
5.225e-05
4.05318e-05
6.39913e-05
3.41448e-05
7.78645e-05
2.5685e-05
9.41896e-05
1.4842e-05
0.000113327
1.27327e-06
0.000135678
-1.53967e-05
0.000161692
-3.55759e-05
0.000191859
-5.97009e-05
0.000226715
-8.82303e-05
0.000266828
-0.000121631
0.000312788
-0.000160354
0.000365175
-0.000204799
0.000424516
-0.000255248
0.000491203
-0.000311762
0.000565399
-0.000374016
0.000646949
-0.000440984
0.000735275
-0.000510071
-0.000574682
0.000830061
-5.37798e-09
1.27647e-06
-1.195e-08
3.87905e-06
-8.2492e-09
6.63884e-06
1.99395e-08
9.5445e-06
9.00051e-08
1.25805e-05
2.22977e-07
1.57268e-05
4.44043e-07
1.89581e-05
7.83124e-07
2.22431e-05
1.27554e-06
2.55443e-05
1.96271e-06
2.88166e-05
2.89303e-06
3.20069e-05
4.12274e-06
3.50529e-05
5.717e-06
3.78825e-05
7.7511e-06
4.04122e-05
1.03118e-05
4.25464e-05
1.34987e-05
4.41758e-05
1.74263e-05
4.5176e-05
2.22257e-05
4.54061e-05
2.80468e-05
4.47063e-05
3.5061e-05
4.28966e-05
4.34637e-05
3.97743e-05
5.34775e-05
3.51117e-05
6.53559e-05
2.86535e-05
7.93863e-05
2.01145e-05
9.58942e-05
9.17701e-06
0.000115247
-4.51117e-06
0.000137859
-2.13385e-05
0.000164192
-4.17298e-05
0.000194761
-6.61448e-05
0.000230133
-9.50733e-05
0.000270929
-0.000129025
0.000317811
-0.000168514
0.000371479
-0.000214022
0.000432634
-0.000265954
0.000501931
-0.000324545
0.000579872
-0.000389702
0.0006666
-0.000460744
0.000761499
-0.000535883
0.000862229
-0.000610801
-0.000678255
0.000965802
1.16704e-10
1.27635e-06
1.19054e-08
3.86726e-06
4.9534e-08
6.60121e-06
1.30321e-07
9.46371e-06
2.75203e-07
1.24356e-05
5.09257e-07
1.54928e-05
8.62282e-07
1.8605e-05
1.36945e-06
2.1736e-05
2.07204e-06
2.48417e-05