/*--------------------------------*- C++ -*----------------------------------*\
  =========                 |
  \\      /  F ield         | OpenFOAM: The Open Source CFD Toolbox
   \\    /   O peration     | Website:  https://openfoam.org
    \\  /    A nd           | Version:  7
     \\/     M anipulation  |
\*---------------------------------------------------------------------------*/
FoamFile
{
    version     2.0;
    format      ascii;
    class       surfaceScalarField;
    location    "17";
    object      phi;
}
// * * * * * * * * * * * * * * * * * * * * * * * * * * * * * * * * * * * * * //

dimensions      [0 3 -1 0 0 0 0];

internalField   nonuniform List<scalar> 
10970
(
-1.85473e-05
1.85473e-05
5.15189e-12
-5.08405e-05
3.22932e-05
1.78159e-11
-8.61245e-05
3.5284e-05
3.27912e-11
-0.000115363
2.92381e-05
5.30645e-11
-0.00013159
1.62272e-05
7.81863e-11
-0.000128301
-3.28873e-06
1.09569e-10
-9.94073e-05
-2.88941e-05
1.44294e-10
-3.89286e-05
-6.04788e-05
1.82574e-10
5.44927e-05
-9.34215e-05
2.20415e-10
-0.000131371
2.54554e-10
0.000185863
-1.81664e-05
3.67137e-05
-4.95126e-05
6.36395e-05
-8.32741e-05
6.90454e-05
-0.000110364
5.63284e-05
-0.000123729
2.9592e-05
-0.000116747
-1.02713e-05
-8.31801e-05
-6.24607e-05
-1.69054e-05
-0.000126754
8.39108e-05
-0.000194238
-0.000271816
0.000224356
-1.74111e-05
5.41248e-05
-4.68756e-05
9.3104e-05
-7.76096e-05
9.97794e-05
-0.000100428
7.91466e-05
-0.000108098
3.72625e-05
-9.37673e-05
-2.46023e-05
-5.09072e-05
-0.000105321
2.70458e-05
-0.000204707
0.000142396
-0.000309588
-0.000430167
0.000300747
-1.62939e-05
7.04187e-05
-4.29661e-05
0.000119776
-6.92019e-05
0.000126015
-8.56693e-05
9.5614e-05
-8.4876e-05
3.64692e-05
-5.9623e-05
-4.98552e-05
-2.79463e-06
-0.000162149
9.2355e-05
-0.000299856
0.000229153
-0.000446386
-0.000614854
0.00041384
-1.48329e-05
8.52516e-05
-3.78368e-05
0.00014278
-5.81541e-05
0.000146333
-6.62595e-05
0.000103719
-5.43225e-05
2.45322e-05
-1.47181e-05
-8.94596e-05
6.00781e-05
-0.000236946
0.000178032
-0.00041781
0.000342977
-0.000611331
-0.000833724
0.000561848
-1.30507e-05
9.83022e-05
-3.15546e-05
0.000161284
-4.45972e-05
0.000159375
-4.24158e-05
0.000101538
-1.6772e-05
-1.11162e-06
4.04693e-05
-0.000146701
0.000137483
-0.000333959
0.000283061
-0.000563388
0.000482288
-0.000810558
-0.00109383
0.000742396
-1.09736e-05
0.000109276
-2.41978e-05
0.000174508
-2.86851e-05
0.000163863
-1.43956e-05
8.72484e-05
2.73755e-05
-4.28827e-05
0.000105339
-0.000224664
0.00022837
-0.000456991
0.000406109
-0.000741126
0.000645128
-0.00104958
-0.00140123
0.000952529
-8.63028e-06
0.000117906
-1.58522e-05
0.00018173
-1.05895e-05
0.0001586
1.75105e-05
5.91484e-05
7.76673e-05
-0.000103039
0.000179201
-0.000326198
0.00033171
-0.000609499
0.000545604
-0.000955021
0.000829171
-0.00133314
-0.00176078
0.00118872
-6.05071e-06
0.000123957
-6.60827e-06
0.000182288
9.50697e-06
0.000142485
5.299e-05
1.56653e-05
0.000133607
-0.000183656
0.000261294
-0.000453885
0.000446345
-0.000794551
0.000699769
-0.00120844
0.00103173
-0.0016651
-0.00217591
0.00144686
-3.26623e-06
0.000127223
3.44042e-06
0.000175581
3.14156e-05
0.000114509
9.17152e-05
-4.46343e-05
0.000194664
-0.000286605
0.000350792
-0.000610013
0.000571007
-0.00101477
0.000866627
-0.00150406
0.00124976
-0.00204824
-0.00264843
0.00172228
-2.66349e-07
0.000127489
1.42079e-05
0.000161107
5.49481e-05
7.37692e-05
0.000133351
-0.000123037
0.000260286
-0.00041354
0.000446814
-0.000796542
0.000704317
-0.00127227
0.00104402
-0.00184377
0.00147992
-0.00248413
-0.00317831
0.00200979
2.83579e-06
0.000124654
2.56055e-05
0.000138337
7.99207e-05
1.94541e-05
0.00017756
-0.000220676
0.000329902
-0.000565882
0.000548433
-0.00101507
0.000844797
-0.00156863
0.00122964
-0.00222862
0.00171852
-0.00297301
-0.00376351
0.00230372
6.08994e-06
0.000118564
3.75572e-05
0.00010687
0.000106157
-4.9146e-05
0.00022401
-0.000338529
0.000402929
-0.000744801
0.000654672
-0.00126682
0.000990863
-0.00190482
0.001421
-0.00265876
0.00196165
-0.00351366
-0.0043999
0.00259804
9.46058e-06
0.000109103
4.99929e-05
6.63375e-05
0.000133492
-0.000132645
0.00027237
-0.000477407
0.000478768
-0.000951198
0.000764506
-0.00155255
0.00114082
-0.00228114
0.00161548
-0.00313342
0.00220512
-0.0041033
-0.00508124
0.00288647
1.29324e-05
9.61707e-05
6.28508e-05
1.64191e-05
0.000161767
-0.000231561
0.000322315
-0.000637955
0.000556802
-0.00118569
0.000876847
-0.0018726
0.00129285
-0.00269714
0.00181031
-0.00365088
0.00244461
-0.00473759
-0.00579932
0.00316269
1.64953e-05
7.96753e-05
7.60772e-05
-4.31627e-05
0.000190835
-0.000346319
0.000373515
-0.000820635
0.000636389
-0.00144856
0.000990542
-0.00222675
0.00144502
-0.00315162
0.0020026
-0.00420847
0.00267564
-0.00541063
-0.00654442
0.00342074
2.01426e-05
5.95328e-05
8.96244e-05
-0.000112645
0.00022055
-0.000477245
0.000425634
-0.00102572
0.000716849
-0.00173977
0.00110436
-0.00261426
0.00159525
-0.00364251
0.00218936
-0.00480258
0.00289366
-0.00611493
-0.00730633
0.00365557
2.38702e-05
3.56626e-05
0.000103449
-0.000192223
0.000250765
-0.000624561
0.000478315
-0.00125327
0.000797453
-0.00205891
0.00121696
-0.00303377
0.0017414
-0.00416694
0.00236761
-0.00542879
0.00309417
-0.00684149
-0.00807553
0.00386337
2.76758e-05
7.98675e-06
0.000117507
-0.000282054
0.000281327
-0.000788382
0.000531179
-0.00150312
0.000877415
-0.00240515
0.00132694
-0.0034833
0.00188123
-0.00472123
0.00253448
-0.00608204
0.00327339
-0.0075804
-0.00884701
0.00404487
3.15575e-05
-2.35707e-05
0.000131752
-0.000382249
0.000312069
-0.000968699
0.000583807
-0.00177486
0.000955878
-0.00277722
0.00143275
-0.00396017
0.00201237
-0.00530085
0.00268667
-0.00675634
0.00343098
-0.00832472
-0.00963
0.00421397
3.55121e-05
-5.90828e-05
0.000146133
-0.00049287
0.000342803
-0.00116537
0.000635741
-0.0020678
0.00103192
-0.0031734
0.00153278
-0.00446103
0.00213223
-0.00590031
0.00281917
-0.00744328
0.00356844
-0.00907399
-0.0105757
0.00451411
3.95344e-05
-9.86172e-05
0.000160586
-0.000613921
0.000373318
-0.0013781
0.000686477
-0.00238096
0.00110457
-0.0035915
0.00162542
-0.00498187
0.00223841
-0.0065133
0.00292853
-0.0081334
0.00366512
-0.00981058
-0.0114266
0.00451609
4.36157e-05
-0.000142233
0.000175036
-0.000745341
0.000403373
-0.00160644
0.000735472
-0.00271305
0.00117283
-0.00402886
0.00170911
-0.00551815
0.00232893
-0.00713312
0.00301257
-0.00881703
0.00372652
-0.0105245
-0.0122
0.00449994
4.77426e-05
-0.000189976
0.000189393
-0.000886991
0.000432699
-0.00184975
0.000782142
-0.0030625
0.00123569
-0.00448241
0.00178245
-0.0060649
0.00240227
-0.00775295
0.00307102
-0.00948578
0.00375524
-0.0112088
-0.012904
0.00445914
5.18968e-05
-0.000241872
0.00020355
-0.00103864
0.000460998
-0.00210719
0.000825878
-0.00342738
0.00129217
-0.0049487
0.00184416
-0.00661689
0.00245729
-0.00836607
0.00310385
-0.0101323
0.00375205
-0.011857
-0.0135442
0.00439229
5.6054e-05
-0.000297926
0.000217386
-0.00119998
0.000487944
-0.00237775
0.000866054
-0.00380549
0.00134131
-0.00542395
0.00189317
-0.00716875
0.0024932
-0.0089661
0.00311137
-0.0107505
0.00371853
-0.0124641
-0.0141249
0.00429926
6.01839e-05
-0.00035811
0.000230761
-0.00137055
0.000513194
-0.00266018
0.000902045
-0.00419434
0.00138225
-0.00590416
0.00192863
-0.00771513
0.00250964
-0.00954712
0.00309429
-0.0113352
0.00365685
-0.0130267
-0.0146493
0.00418121
6.42507e-05
-0.000422361
0.000243522
-0.00154982
0.000536388
-0.00295305
0.000933246
-0.00459119
0.00141424
-0.00638516
0.00194994
-0.00825083
0.00250665
-0.0101038
0.00305373
-0.0118822
0.00356947
-0.0135424
-0.01512
0.00404016
6.82131e-05
-0.000490574
0.000255507
-0.00173712
0.000557166
-0.00325471
0.000959091
-0.00499312
0.00143667
-0.00686274
0.00195678
-0.00877094
0.0024846
-0.0106316
0.00299111
-0.0123887
0.00345901
-0.0140103
-0.0155395
0.00387854
7.20251e-05
-0.000562599
0.000266545
-0.00193164
0.000575172
-0.00356334
0.000979075
-0.00539702
0.00144907
-0.00733273
0.00194908
-0.00927096
0.00244424
-0.0111268
0.00290813
-0.0128526
0.0033281
-0.0144303
-0.0159104
0.00369895
7.56373e-05
-0.000638237
0.000276462
-0.00213246
0.00059007
-0.00387695
0.000992767
-0.00579972
0.00145114
-0.0077911
0.00192704
-0.00974686
0.00238654
-0.0115863
0.00280666
-0.0132728
0.00317936
-0.014803
-0.0162349
0.00350395
7.89974e-05
-0.000717234
0.000285084
-0.00233855
0.000601548
-0.00419341
0.000999827
-0.006198
0.00144278
-0.00823405
0.00189109
-0.0101952
0.0023127
-0.0120079
0.00268863
-0.0136487
0.00301527
-0.0151296
-0.0165156
0.00329597
8.20518e-05
-0.000799286
0.000292247
-0.00254875
0.000609335
-0.0045105
0.00100001
-0.00658868
0.00142403
-0.00865807
0.00184185
-0.010613
0.00222408
-0.0123901
0.00255602
-0.0139806
0.00283816
-0.0154118
-0.0167547
0.00307726
8.47468e-05
-0.000884033
0.000297793
-0.00276179
0.000613204
-0.00482591
0.000993189
-0.00696866
0.00139512
-0.00906
0.00178012
-0.010998
0.00212211
-0.0127321
0.00241074
-0.0142693
0.00265018
-0.0156512
-0.0169544
0.00284981
8.70296e-05
-0.000971062
0.00030158
-0.00297634
0.000612978
-0.00513731
0.000979326
-0.00733501
0.00135639
-0.00943706
0.00170682
-0.0113484
0.00200826
-0.0130336
0.00225463
-0.0145156
0.00245325
-0.0158498
-0.0171165
0.00261539
8.88498e-05
-0.00105991
0.000303487
-0.00319098
0.000608539
-0.00544236
0.000958494
-0.00768496
0.00130834
-0.00978691
0.00162294
-0.011663
0.00188398
-0.0132946
0.0020894
-0.014721
0.00224911
-0.0160095
-0.017243
0.00237557
9.01606e-05
-0.00115007
0.000303412
-0.00340423
0.000599825
-0.00573877
0.000930862
-0.008016
0.00125153
-0.0101076
0.00152955
-0.011941
0.00175071
-0.0135158
0.00191665
-0.014887
0.00203928
-0.0161322
-0.0173353
0.00213166
9.09197e-05
-0.00124099
0.000301275
-0.00361459
0.00058683
-0.00602433
0.00089668
-0.00832585
0.00118663
-0.0103975
0.0014277
-0.0121821
0.0016098
-0.0136979
0.0017378
-0.015015
0.00182509
-0.0162195
-0.0173951
0.00188484
9.109e-05
-0.00133208
0.000297026
-0.00382052
0.000569608
-0.00629691
0.000856276
-0.00861252
0.00111434
-0.0106556
0.00131847
-0.0123862
0.00146253
-0.0138419
0.00155415
-0.0151066
0.00160772
-0.016273
-0.0174235
0.00163609
9.06407e-05
-0.00142272
0.000290637
-0.00402052
0.000548261
-0.00655453
0.000810036
-0.00887429
0.0010354
-0.0108809
0.00120289
-0.0125537
0.00131007
-0.0139491
0.00136686
-0.0151634
0.00138817
-0.0162944
-0.0174216
0.00138628
8.95481e-05
-0.00151227
0.000282109
-0.00421308
0.000522942
-0.00679536
0.000758395
-0.00910975
0.000950579
-0.0110731
0.00108197
-0.0126851
0.00115351
-0.0140206
0.00117695
-0.0151868
0.00116735
-0.0162847
-0.0173904
0.00113616
8.77955e-05
-0.00160007
0.000271466
-0.00439675
0.000493845
-0.00701774
0.000701825
-0.00931773
0.000860625
-0.0112319
0.000956643
-0.0127811
0.000993843
-0.0140578
0.000985343
-0.0151783
0.000946009
-0.0162454
-0.0173308
0.000886386
8.53739e-05
-0.00168544
0.000258759
-0.00457013
0.000461199
-0.00722018
0.000640821
-0.00949735
0.000766286
-0.0113574
0.000827803
-0.0128427
0.000831966
-0.014062
0.000792834
-0.0151392
0.000724833
-0.0161774
-0.0172434
0.000637513
8.22817e-05
-0.00176772
0.000244059
-0.00473191
0.000425265
-0.00740139
0.000575892
-0.00964798
0.000668282
-0.0114498
0.000696273
-0.0128707
0.000668688
-0.0140344
0.00060014
-0.0150707
0.000504414
-0.0160817
-0.0171291
0.000390036
7.85253e-05
-0.00184625
0.000227461
-0.00488085
0.000386325
-0.00756025
0.000507551
-0.0097692
0.000567306
-0.0115095
0.000562817
-0.0128662
0.000504738
-0.0139763
0.000407903
-0.0149738
0.000285287
-0.0159591
-0.016988
0.00014424
7.41184e-05
-0.00192037
0.000209075
-0.0050158
0.000344679
-0.00769586
0.000436307
-0.00986083
0.000464013
-0.0115372
0.000428136
-0.0128303
0.000340769
-0.013889
0.000216695
-0.0148497
6.80432e-05
-0.0158104
-0.0168207
-9.92514e-05
6.90816e-05
-0.00198945
0.000189028
-0.00513575
0.000300637
-0.00780747
0.000362661
-0.00992286
0.000359023
-0.0115336
0.00029287
-0.0127641
0.00017737
-0.0137735
2.68824e-05
-0.0146993
-0.00014711
-0.0156364
-0.0166285
-0.000339322
6.34424e-05
-0.00205289
0.000167459
-0.00523977
0.000254519
-0.00789453
0.000287097
-0.00995543
0.000252913
-0.0114994
0.000157604
-0.0126688
1.50637e-05
-0.0136309
-0.000160695
-0.0145235
-0.000359634
-0.0154375
-0.0164115
-0.000576673
5.72342e-05
-0.00211012
0.00014452
-0.00532705
0.000206643
-0.00795665
0.00021008
-0.00995887
0.000146221
-0.0114356
2.28645e-05
-0.0125455
-0.00014561
-0.0134625
-0.000345969
-0.0143231
-0.000569142
-0.0152143
-0.01617
-0.000810654
5.0496e-05
-0.00216062
0.000120368
-0.00539693
0.000157326
-0.00799361
0.000132053
-0.0099336
3.94455e-05
-0.011343
-0.000110844
-0.0123952
-0.000304284
-0.013269
-0.000528452
-0.014099
-0.000775314
-0.0149675
-0.0159044
-0.00104092
4.32719e-05
-0.00220389
9.5166e-05
-0.00544882
0.00010688
-0.00800532
5.34394e-05
-0.00988016
-6.69564e-05
-0.0112226
-0.000243105
-0.012219
-0.000460539
-0.0130516
-0.000707773
-0.0138517
-0.000977815
-0.0146974
-0.015615
-0.00126714
3.56095e-05
-0.0022395
6.90833e-05
-0.00548229
5.56074e-05
-0.00799185
-2.53633e-05
-0.00979918
-0.000172564
-0.0110754
-0.000373514
-0.0120181
-0.000614011
-0.0128111
-0.000883585
-0.0135822
-0.00117632
-0.0144047
-0.0153023
-0.00148903
2.75602e-05
-0.00226706
4.22926e-05
-0.00549703
3.96201e-06
-0.00795351
-0.000103998
-0.00969122
-0.000276995
-0.0109024
-0.000501709
-0.0117934
-0.000764367
-0.0125484
-0.00105556
-0.013291
-0.00137049
-0.0140898
-0.0149665
-0.0017063
1.91808e-05
-0.00228624
1.49695e-05
-0.00549281
-4.82725e-05
-0.00789027
-0.000182124
-0.00955737
-0.000379897
-0.0107046
-0.000627365
-0.0115459
-0.0009113
-0.0122645
-0.00122339
-0.0129789
-0.00156002
-0.0137531
-0.0146079
-0.00191864
1.05236e-05
-0.00229677
-1.27242e-05
-0.00546957
-0.000100328
-0.00780267
-0.000259412
-0.00939829
-0.00048095
-0.0104831
-0.000750185
-0.0112767
-0.00105453
-0.0119602
-0.00138678
-0.0126466
-0.00174456
-0.0133953
-0.0142267
-0.00212576
1.51546e-06
-0.00229828
-4.07205e-05
-0.00542733
-0.000152119
-0.00769127
-0.000335567
-0.00921484
-0.000579863
-0.0102388
-0.000869905
-0.0109866
-0.00119381
-0.0116362
-0.00154543
-0.012295
-0.00192378
-0.013017
-0.0138231
-0.00232735
-7.48381e-06
-0.0022908
-6.87411e-05
-0.00536607
-0.000203408
-0.0075566
-0.000410322
-0.00900793
-0.000676374
-0.00997271
-0.000986285
-0.0106767
-0.00132891
-0.0112936
-0.00169911
-0.0119248
-0.00209739
-0.0126187
-0.0133973
-0.00252322
-1.66322e-05
-0.00227417
-9.66706e-05
-0.00528604
-0.000253973
-0.0073993
-0.000483428
-0.00877847
-0.000770244
-0.00968589
-0.00109911
-0.0103478
-0.00145962
-0.0109331
-0.00184759
-0.0115368
-0.00226501
-0.0122013
-0.0129497
-0.00271264
-2.58453e-05
-0.00224832
-0.000124368
-0.00518751
-0.000303607
-0.00722006
-0.000554657
-0.00852742
-0.000861259
-0.00937929
-0.00120819
-0.0100009
-0.00158577
-0.0105555
-0.00199068
-0.0111319
-0.00242597
-0.011766
-0.0124809
-0.00289478
-3.50559e-05
-0.00221326
-0.000151694
-0.00507087
-0.000352116
-0.00701964
-0.000623801
-0.00825574
-0.000949222
-0.00905387
-0.00131335
-0.00963678
-0.00170723
-0.0101616
-0.00212824
-0.0107109
-0.00258022
-0.011314
-0.0119902
-0.00307091
-4.42071e-05
-0.00216906
-0.000178519
-0.00493656
-0.000399322
-0.00679884
-0.000690671
-0.00796439
-0.00103396
-0.00871058
-0.00141443
-0.00925631
-0.00182389
-0.00975218
-0.00226013
-0.0102747
-0.00272203
-0.0108521
-0.0114971
-0.0032151
-5.32448e-05
-0.00211581
-0.00020472
-0.00478509
-0.000445058
-0.0065585
-0.000755094
-0.00765435
-0.0011153
-0.00835038
-0.00151129
-0.00886033
-0.00193562
-0.00932785
-0.00238658
-0.00982372
-0.0028643
-0.0103744
-0.0109891
-0.00337227
-6.21173e-05
-0.00205369
-0.000230179
-0.00461703
-0.000489172
-0.00629951
-0.000816912
-0.00732661
-0.00119311
-0.00797418
-0.00160378
-0.00844966
-0.00204223
-0.0088894
-0.00250724
-0.0093587
-0.00299971
-0.00988194
-0.0104662
-0.00352262
-7.07752e-05
-0.00198292
-0.000254788
-0.00443301
-0.000531524
-0.00602277
-0.000875982
-0.00698216
-0.00126725
-0.00758291
-0.00169179
-0.00802512
-0.00214361
-0.00843758
-0.00262194
-0.00888037
-0.00312815
-0.00937573
-0.00992896
-0.00366541
-7.91713e-05
-0.00190375
-0.000278445
-0.00423374
-0.000571984
-0.00572923
-0.000932174
-0.00662197
-0.0013376
-0.00717748
-0.0017752
-0.00758752
-0.00223965
-0.00797314
-0.0027306
-0.00838942
-0.0032498
-0.00885653
-0.00937828
-0.00380048
-8.72611e-05
-0.00181649
-0.000301057
-0.00401994
-0.000610435
-0.00541985
-0.000985372
-0.00624703
-0.00140406
-0.0067588
-0.00185392
-0.00713766
-0.00233026
-0.00749679
-0.00283317
-0.00788651
-0.00336468
-0.00832502
-0.00881493
-0.00392804
-9.50026e-05
-0.00172148
-0.000322536
-0.00379241
-0.00064677
-0.00509562
-0.00103547
-0.00585833
-0.00146652
-0.00632775
-0.00192784
-0.00667633
-0.00241537
-0.00700926
-0.00292955
-0.00737233
-0.00347271
-0.00778186
-0.00823951
-0.00404812
-0.000102356
-0.00161913
-0.000342803
-0.00355196
-0.00068089
-0.00475753
-0.00108237
-0.00545685
-0.00152489
-0.00588522
-0.0019969
-0.00620433
-0.00249487
-0.00651129
-0.00301964
-0.00684756
-0.00357378
-0.00722771
-0.00765268
-0.00416061
-0.000109286
-0.00150984
-0.000361782
-0.00329947
-0.000712708
-0.00440661
-0.00112598
-0.00504358
-0.0015791
-0.0054321
-0.00206099
-0.00572244
-0.00256867
-0.00600361
-0.00310333
-0.0063129
-0.00366778
-0.00666326
-0.00705509
-0.00426537
-0.000115757
-0.00139409
-0.000379408
-0.00303582
-0.000742143
-0.00404387
-0.00116623
-0.0046195
-0.00162906
-0.00496926
-0.00212005
-0.00523146
-0.0026367
-0.00548696
-0.00318053
-0.00576908
-0.00375456
-0.00608923
-0.00644742
-0.00436223
-0.000121739
-0.00127235
-0.00039562
-0.00276193
-0.000769123
-0.00367037
-0.00120304
-0.00418558
-0.00167471
-0.00449759
-0.00217399
-0.00473218
-0.00269886
-0.00496209
-0.00325111
-0.00521682
-0.00383399
-0.00550636
-0.00583041
-0.004451
-0.000127203
-0.00114514
-0.000410363
-0.00247877
-0.000793583
-0.00328715
-0.00123635
-0.00374282
-0.00171598
-0.00401795
-0.00222275
-0.00422541
-0.00275506
-0.00442978
-0.00331499
-0.0046569
-0.00390593
-0.00491542
-0.00520485
-0.00453148
-0.000132125
-0.00101302
-0.000423589
-0.00218731
-0.000815466
-0.00289527
-0.0012661
-0.00329218
-0.00175282
-0.00353123
-0.00226627
-0.00371196
-0.00280524
-0.00389081
-0.00337204
-0.0040901
-0.00397024
-0.00431722
-0.00457157
-0.00460352
-0.000136481
-0.000876538
-0.000435253
-0.00188854
-0.000834722
-0.0024958
-0.00129224
-0.00283467
-0.00178516
-0.00303831
-0.00230448
-0.00319264
-0.00284931
-0.00334597
-0.00342218
-0.00351723
-0.0040268
-0.0037126
-0.00393145
-0.00466692
-0.000140251
-0.000736287
-0.00044532
-0.00158347
-0.000851306
-0.00208982
-0.00131473
-0.00237125
-0.00181297
-0.00254007
-0.00233734
-0.00266827
-0.00288722
-0.00279609
-0.00346533
-0.00293912
-0.00407551
-0.00310243
-0.00328541
-0.00472155
-0.000143419
-0.000592868
-0.000453757
-0.00127313
-0.000865183
-0.00167839
-0.00133352
-0.0019029
-0.00183621
-0.00203739
-0.00236479
-0.00213969
-0.0029189
-0.00224197
-0.00350141
-0.00235661
-0.00411625
-0.00248759
-0.00263437
-0.00476728
-0.00014597
-0.000446898
-0.000460539
-0.000958561
-0.00087632
-0.00126261
-0.0013486
-0.00143062
-0.00185484
-0.00153115
-0.00238679
-0.00160773
-0.00294431
-0.00168446
-0.00353035
-0.00177057
-0.00414894
-0.001869
-0.00197932
-0.00480399
-0.000147893
-0.000299005
-0.000465643
-0.000640811
-0.000884695
-0.000843559
-0.00135993
-0.00095539
-0.00186883
-0.00102225
-0.00240333
-0.00107324
-0.00296339
-0.0011244
-0.0035521
-0.00118186
-0.00417352
-0.00124758
-0.00132124
-0.0048316
-0.00014918
-0.000149825
-0.000469054
-0.000320937
-0.000890288
-0.000422325
-0.00136749
-0.000478187
-0.00187817
-0.00051157
-0.00241437
-0.000537042
-0.00297614
-0.000562627
-0.00356662
-0.000591376
-0.00418994
-0.000624263
-0.000661127
-0.00485005
-0.000149825
1.72076e-11
-0.000470762
3.9337e-11
-0.000893088
5.38953e-11
-0.00137128
6.25167e-11
-0.00188285
6.73018e-11
-0.00241989
6.96691e-11
-0.00298251
7.04644e-11
-0.00357389
7.01325e-11
-0.00419815
6.90161e-11
6.72017e-11
-0.00485928
-0.000149825
0.000149825
-0.000470762
0.000320937
-0.000893088
0.000422325
-0.00137128
0.000478188
-0.00188285
0.00051157
-0.00241989
0.000537042
-0.00298251
0.000562627
-0.00357389
0.000591377
-0.00419815
0.000624263
0.000661127
-0.00485928
-0.00014918
0.000299005
-0.000469054
0.000640812
-0.000890288
0.000843559
-0.00136749
0.00095539
-0.00187817
0.00102225
-0.00241437
0.00107324
-0.00297614
0.0011244
-0.00356662
0.00118186
-0.00418994
0.00124758
0.00132124
-0.00485005
-0.000147893
0.000446898
-0.000465643
0.000958561
-0.000884695
0.00126261
-0.00135993
0.00143062
-0.00186883
0.00153115
-0.00240333
0.00160773
-0.00296339
0.00168446
-0.0035521
0.00177057
-0.00417352
0.001869
0.00197932
-0.0048316
-0.00014597
0.000592868
-0.000460539
0.00127313
-0.00087632
0.00167839
-0.0013486
0.0019029
-0.00185484
0.00203739
-0.00238679
0.00213969
-0.00294431
0.00224197
-0.00353035
0.00235661
-0.00414894
0.00248759
0.00263437
-0.00480399
-0.000143419
0.000736287
-0.000453757
0.00158347
-0.000865183
0.00208982
-0.00133352
0.00237125
-0.00183621
0.00254007
-0.00236479
0.00266827
-0.0029189
0.00279609
-0.00350141
0.00293912
-0.00411625
0.00310243
0.00328541
-0.00476728
-0.000140251
0.000876538
-0.00044532
0.00188854
-0.000851306
0.0024958
-0.00131473
0.00283467
-0.00181297
0.00303831
-0.00233734
0.00319264
-0.00288722
0.00334597
-0.00346533
0.00351723
-0.00407551
0.0037126
0.00393145
-0.00472155
-0.000136481
0.00101302
-0.000435253
0.00218731
-0.000834722
0.00289527
-0.00129224
0.00329218
-0.00178516
0.00353123
-0.00230448
0.00371196
-0.00284931
0.00389081
-0.00342218
0.0040901
-0.0040268
0.00431722
0.00457157
-0.00466692
-0.000132125
0.00114514
-0.000423589
0.00247877
-0.000815466
0.00328715
-0.0012661
0.00374282
-0.00175282
0.00401795
-0.00226627
0.00422541
-0.00280524
0.00442978
-0.00337204
0.0046569
-0.00397024
0.00491542
0.00520485
-0.00460352
-0.000127203
0.00127235
-0.000410363
0.00276193
-0.000793583
0.00367037
-0.00123635
0.00418558
-0.00171598
0.00449759
-0.00222275
0.00473218
-0.00275506
0.00496209
-0.00331499
0.00521682
-0.00390593
0.00550636
0.00583041
-0.00453148
-0.000121739
0.00139409
-0.00039562
0.00303582
-0.000769123
0.00404387
-0.00120304
0.0046195
-0.00167471
0.00496926
-0.00217399
0.00523146
-0.00269886
0.00548696
-0.00325111
0.00576908
-0.00383399
0.00608923
0.00644742
-0.004451
-0.000115757
0.00150984
-0.000379408
0.00329947
-0.000742143
0.00440661
-0.00116623
0.00504358
-0.00162906
0.0054321
-0.00212005
0.00572244
-0.0026367
0.00600361
-0.00318053
0.0063129
-0.00375456
0.00666326
0.00705509
-0.00436223
-0.000109286
0.00161913
-0.000361782
0.00355196
-0.000712708
0.00475753
-0.00112598
0.00545685
-0.0015791
0.00588522
-0.00206099
0.00620433
-0.00256867
0.00651129
-0.00310333
0.00684756
-0.00366778
0.00722771
0.00765268
-0.00426537
-0.000102356
0.00172148
-0.000342803
0.00379241
-0.00068089
0.00509562
-0.00108237
0.00585833
-0.00152489
0.00632775
-0.0019969
0.00667633
-0.00249487
0.00700927
-0.00301964
0.00737233
-0.00357378
0.00778186
0.00823951
-0.00416061
-9.50026e-05
0.00181649
-0.000322536
0.00401994
-0.00064677
0.00541985
-0.00103547
0.00624703
-0.00146652
0.0067588
-0.00192784
0.00713766
-0.00241537
0.00749679
-0.00292955
0.00788651
-0.00347271
0.00832502
0.00881493
-0.00404812
-8.72611e-05
0.00190375
-0.000301057
0.00423374
-0.000610435
0.00572923
-0.000985372
0.00662197
-0.00140406
0.00717748
-0.00185392
0.00758752
-0.00233026
0.00797314
-0.00283317
0.00838942
-0.00336468
0.00885653
0.00937828
-0.00392804
-7.91713e-05
0.00198292
-0.000278445
0.00443301
-0.000571984
0.00602277
-0.000932174
0.00698216
-0.0013376
0.00758291
-0.0017752
0.00802512
-0.00223965
0.00843758
-0.0027306
0.00888037
-0.0032498
0.00937573
0.00992896
-0.00380048
-7.07752e-05
0.0020537
-0.000254788
0.00461703
-0.000531524
0.00629951
-0.000875982
0.00732661
-0.00126725
0.00797418
-0.00169179
0.00844966
-0.00214361
0.0088894
-0.00262194
0.0093587
-0.00312815
0.00988194
0.0104662
-0.00366541
-6.21173e-05
0.00211581
-0.000230179
0.00478509
-0.000489172
0.0065585
-0.000816912
0.00765435
-0.00119311
0.00835038
-0.00160378
0.00886033
-0.00204223
0.00932785
-0.00250724
0.00982372
-0.00299971
0.0103744
0.0109891
-0.00352262
-5.32448e-05
0.00216906
-0.00020472
0.00493656
-0.000445058
0.00679884
-0.000755094
0.00796439
-0.0011153
0.00871058
-0.00151129
0.00925631
-0.00193562
0.00975218
-0.00238658
0.0102747
-0.0028643
0.0108521
0.0114971
-0.00337227
-4.42071e-05
0.00221326
-0.000178519
0.00507087
-0.000399322
0.00701964
-0.000690671
0.00825574
-0.00103396
0.00905387
-0.00141443
0.00963678
-0.00182389
0.0101616
-0.00226013
0.0107109
-0.00272203
0.011314
0.0119902
-0.0032151
-3.50559e-05
0.00224832
-0.000151694
0.00518751
-0.000352116
0.00722006
-0.000623801
0.00852742
-0.000949222
0.00937929
-0.00131335
0.0100009
-0.00170723
0.0105555
-0.00212824
0.0111319
-0.00258022
0.011766
0.0124809
-0.00307091
-2.58453e-05
0.00227417
-0.000124368
0.00528604
-0.000303607
0.0073993
-0.000554657
0.00877847
-0.000861259
0.00968589
-0.00120819
0.0103478
-0.00158577
0.0109331
-0.00199068
0.0115368
-0.00242597
0.0122013
0.0129497
-0.00289478
-1.66322e-05
0.0022908
-9.66706e-05
0.00536607
-0.000253973
0.0075566
-0.000483428
0.00900793
-0.000770244
0.00997271
-0.00109911
0.0106767
-0.00145962
0.0112936
-0.00184759
0.0119248
-0.00226501
0.0126187
0.0133973
-0.00271264
-7.48381e-06
0.00229828
-6.87411e-05
0.00542733
-0.000203408
0.00769127
-0.000410322
0.00921484
-0.000676374
0.0102388
-0.000986285
0.0109866
-0.00132891
0.0116362
-0.00169911
0.012295
-0.00209739
0.013017
0.0138231
-0.00252322
1.51546e-06
0.00229677
-4.07205e-05
0.00546957
-0.000152119
0.00780267
-0.000335567
0.00939829
-0.000579863
0.0104831
-0.000869905
0.0112767
-0.00119381
0.0119602
-0.00154543
0.0126466
-0.00192378
0.0133953
0.0142267
-0.00232735
1.05236e-05
0.00228624
-1.27242e-05
0.00549281
-0.000100328
0.00789027
-0.000259412
0.00955737
-0.00048095
0.0107046
-0.000750185
0.0115459
-0.00105453
0.0122645
-0.00138678
0.0129789
-0.00174456
0.0137531
0.0146079
-0.00212576
1.91808e-05
0.00226706
1.49695e-05
0.00549703
-4.82725e-05
0.00795351
-0.000182124
0.00969123
-0.000379897
0.0109024
-0.000627365
0.0117934
-0.0009113
0.0125484
-0.00122339
0.013291
-0.00156002
0.0140898
0.0149665
-0.00191864
2.75602e-05
0.0022395
4.22926e-05
0.00548229
3.96201e-06
0.00799185
-0.000103998
0.00979918
-0.000276995
0.0110754
-0.000501709
0.0120181
-0.000764367
0.0128111
-0.00105556
0.0135822
-0.00137049
0.0144047
0.0153023
-0.0017063
3.56095e-05
0.00220389
6.90833e-05
0.00544882
5.56074e-05
0.00800532
-2.53633e-05
0.00988016
-0.000172564
0.0112226
-0.000373514
0.012219
-0.000614011
0.0130516
-0.000883585
0.0138517
-0.00117632
0.0146974
0.015615
-0.00148903
4.32719e-05
0.00216062
9.5166e-05
0.00539693
0.00010688
0.00799361
5.34394e-05
0.0099336
-6.69563e-05
0.011343
-0.000243105
0.0123952
-0.000460539
0.013269
-0.000707773
0.014099
-0.000977815
0.0149675
0.0159044
-0.00126714
5.0496e-05
0.00211012
0.000120368
0.00532705
0.000157326
0.00795665
0.000132053
0.00995887
3.94455e-05
0.0114356
-0.000110844
0.0125455
-0.000304284
0.0134625
-0.000528452
0.0143231
-0.000775314
0.0152143
0.01617
-0.00104092
5.72342e-05
0.00205289
0.00014452
0.00523977
0.000206643
0.00789453
0.00021008
0.00995543
0.000146221
0.0114994
2.28645e-05
0.0126688
-0.00014561
0.0136309
-0.000345969
0.0145235
-0.000569142
0.0154375
0.0164115
-0.000810654
6.34424e-05
0.00198945
0.000167459
0.00513575
0.000254519
0.00780747
0.000287097
0.00992286
0.000252913
0.0115336
0.000157604
0.0127641
1.50637e-05
0.0137735
-0.000160695
0.0146993
-0.000359634
0.0156364
0.0166285
-0.000576673
6.90816e-05
0.00192037
0.000189028
0.0050158
0.000300637
0.00769586
0.000362661
0.00986083
0.000359023
0.0115373
0.00029287
0.0128303
0.00017737
0.013889
2.68824e-05
0.0148497
-0.00014711
0.0158104
0.0168207
-0.000339322
7.41184e-05
0.00184625
0.000209075
0.00488085
0.000344679
0.00756025
0.000436307
0.0097692
0.000464013
0.0115095
0.000428136
0.0128662
0.000340769
0.0139763
0.000216695
0.0149738
6.80432e-05
0.0159591
0.016988
-9.92513e-05
7.85253e-05
0.00176772
0.000227461
0.00473191
0.000386325
0.00740139
0.000507551
0.00964798
0.000567306
0.0114498
0.000562817
0.0128707
0.000504738
0.0140344
0.000407903
0.0150707
0.000285287
0.0160817
0.0171291
0.00014424
8.22817e-05
0.00168544
0.000244059
0.00457013
0.000425265
0.00722018
0.000575892
0.00949735
0.000668282
0.0113574
0.000696273
0.0128427
0.000668688
0.014062
0.00060014
0.0151392
0.000504414
0.0161774
0.0172434
0.000390036
8.53739e-05
0.00160007
0.000258759
0.00439675
0.000461199
0.00701774
0.000640821
0.00931773
0.000766286
0.0112319
0.000827803
0.0127811
0.000831966
0.0140578
0.000792834
0.0151783
0.000724833
0.0162454
0.0173308
0.000637513
8.77955e-05
0.00151227
0.000271466
0.00421308
0.000493845
0.00679536
0.000701825
0.00910975
0.000860625
0.0110731
0.000956643
0.0126851
0.000993843
0.0140206
0.000985343
0.0151868
0.000946009
0.0162847
0.0173904
0.000886386
8.95481e-05
0.00142272
0.000282109
0.00402052
0.000522942
0.00655453
0.000758395
0.00887429
0.000950579
0.0108809
0.00108197
0.0125537
0.00115351
0.0139491
0.00117695
0.0151634
0.00116735
0.0162944
0.0174216
0.00113617
9.06407e-05
0.00133208
0.000290637
0.00382052
0.000548261
0.00629691
0.000810036
0.00861252
0.0010354
0.0106556
0.00120289
0.0123862
0.00131007
0.0138419
0.00136686
0.0151066
0.00138817
0.016273
0.0174235
0.00138628
9.109e-05
0.00124099
0.000297026
0.00361459
0.000569608
0.00602433
0.000856276
0.00832585
0.00111434
0.0103975
0.00131847
0.0121821
0.00146253
0.0136979
0.00155415
0.015015
0.00160772
0.0162195
0.0173951
0.00163609
9.09197e-05
0.00115007
0.000301275
0.00340423
0.00058683
0.00573877
0.00089668
0.008016
0.00118663
0.0101076
0.0014277
0.011941
0.0016098
0.0135158
0.0017378
0.014887
0.00182509
0.0161322
0.0173353
0.00188484
9.01606e-05
0.00105991
0.000303412
0.00319098
0.000599825
0.00544236
0.000930862
0.00768496
0.00125153
0.00978691
0.00152955
0.011663
0.00175071
0.0132946
0.00191665
0.014721
0.00203928
0.0160095
0.017243
0.00213166
8.88498e-05
0.000971062
0.000303487
0.00297634
0.000608539
0.00513731
0.000958494
0.00733501
0.00130834
0.00943706
0.00162294
0.0113484
0.00188398
0.0130336
0.0020894
0.0145156
0.00224911
0.0158498
0.0171165
0.00237557
8.70296e-05
0.000884033
0.00030158