/*--------------------------------*- C++ -*----------------------------------*\
  =========                 |
  \\      /  F ield         | OpenFOAM: The Open Source CFD Toolbox
   \\    /   O peration     | Website:  https://openfoam.org
    \\  /    A nd           | Version:  7
     \\/     M anipulation  |
\*---------------------------------------------------------------------------*/
FoamFile
{
    version     2.0;
    format      ascii;
    class       volVectorField;
    location    "2.2";
    object      U;
}
// * * * * * * * * * * * * * * * * * * * * * * * * * * * * * * * * * * * * * //

dimensions      [0 1 -1 0 0 0 0];

internalField   nonuniform List<vector> 
344
(
(0.82074 -0.00250086 2.13433e-15)
(0.820067 -0.00245117 2.04531e-15)
(0.819407 -0.00240164 1.59162e-15)
(0.818762 -0.0023522 1.59228e-15)
(0.81813 -0.00230279 1.18513e-15)
(0.817512 -0.00225335 1.15671e-15)
(0.816909 -0.00220383 7.42789e-16)
(0.816319 -0.00215417 7.56344e-16)
(0.815743 -0.00210436 3.85757e-16)
(0.815181 -0.00205435 4.09844e-16)
(0.814633 -0.00200413 6.15935e-17)
(0.814099 -0.00195369 8.12015e-17)
(0.813579 -0.00190303 -2.51786e-16)
(0.813073 -0.00185216 -2.33154e-16)
(0.812582 -0.0018011 -5.83122e-16)
(0.812105 -0.00174987 -5.14851e-16)
(0.811642 -0.00169852 -8.30441e-16)
(0.811194 -0.00164709 -7.62498e-16)
(0.81076 -0.00159563 -1.09928e-15)
(0.81034 -0.00154421 -1.01557e-15)
(0.809934 -0.00149291 -1.32621e-15)
(0.809543 -0.0014418 -1.24164e-15)
(0.82444 -0.0057509 8.15968e-15)
(0.82273 -0.00560167 7.6072e-15)
(0.821064 -0.00545839 7.02084e-15)
(0.819439 -0.00532072 7.07888e-15)
(0.817856 -0.00518836 6.549e-15)
(0.81631 -0.005061 6.91088e-15)
(0.814803 -0.00493837 6.40898e-15)
(0.813331 -0.00482023 6.46857e-15)
(0.811894 -0.00470635 5.97845e-15)
(0.810491 -0.0045965 6.33592e-15)
(0.80912 -0.00449048 5.86338e-15)
(0.80778 -0.0043881 5.94135e-15)
(0.80647 -0.0042892 5.52197e-15)
(0.80519 -0.0041936 5.94012e-15)
(0.803938 -0.00410115 5.76857e-15)
(0.802713 -0.0040117 5.91569e-15)
(0.801514 -0.00392513 6.11036e-15)
(0.800341 -0.0038413 6.32163e-15)
(0.799193 -0.0037601 6.50729e-15)
(0.798069 -0.00368141 6.68493e-15)
(0.796968 -0.00360513 6.86277e-15)
(0.79589 -0.00353115 7.03307e-15)
(0.794834 -0.00345938 7.17501e-15)
(0.7938 -0.00338973 7.30451e-15)
(0.792786 -0.00332209 7.42293e-15)
(0.791792 -0.0032564 7.51113e-15)
(0.790818 -0.00319256 6.9937e-15)
(0.789863 -0.0031305 6.44697e-15)
(0.788926 -0.00307012 6.50932e-15)
(0.788008 -0.00301135 6.07267e-15)
(0.787107 -0.00295412 6.4233e-15)
(0.786224 -0.00289833 5.95632e-15)
(0.785357 -0.0028439 6.0318e-15)
(0.784507 -0.00279077 5.75337e-15)
(0.783673 -0.00273884 5.18317e-15)
(0.782854 -0.00268803 4.91301e-15)
(0.782052 -0.00263825 4.43053e-15)
(0.781264 -0.00258943 4.17181e-15)
(0.780491 -0.00254148 3.67987e-15)
(0.779733 -0.0024943 3.4981e-15)
(0.77899 -0.00244783 3.06798e-15)
(0.77826 -0.00240196 2.87111e-15)
(0.777545 -0.00235663 2.50111e-15)
(0.776844 -0.00231174 2.37748e-15)
(0.776157 -0.00226722 2.02526e-15)
(0.775483 -0.00222299 1.96833e-15)
(0.774823 -0.00217897 1.89535e-15)
(0.774177 -0.0021351 1.5421e-15)
(0.773545 -0.00209131 1.46391e-15)
(0.772926 -0.00204755 1.13606e-15)
(0.772321 -0.00200376 1.03456e-15)
(0.771729 -0.00195988 6.96445e-16)
(0.771151 -0.0019159 6.48777e-16)
(0.770587 -0.00187176 3.47549e-16)
(0.770036 -0.00182745 3.40088e-16)
(0.769499 -0.00178295 5.11976e-17)
(0.768976 -0.00173825 2.0604e-17)
(0.768467 -0.00169336 -2.73561e-16)
(0.767972 -0.00164827 -2.93059e-16)
(0.76749 -0.00160301 -5.62629e-16)
(0.767023 -0.0015576 -5.78687e-16)
(0.76657 -0.00151207 -8.16761e-16)
(0.76613 -0.00146647 -8.00603e-16)
(0.765705 -0.00142084 -1.06858e-15)
(0.765294 -0.00137524 -1.05802e-15)
(0.764897 -0.00132974 -1.30702e-15)
(0.764514 -0.00128441 -1.24805e-15)
(0.776743 -0.00505735 7.74967e-15)
(0.775077 -0.00492603 7.30801e-15)
(0.773455 -0.00479995 6.75545e-15)
(0.771873 -0.00467881 6.73437e-15)
(0.770331 -0.00456234 6.31053e-15)
(0.768827 -0.00445028 6.55371e-15)
(0.767359 -0.00434239 6.11964e-15)
(0.765927 -0.00423845 6.13909e-15)
(0.764528 -0.00413825 5.73241e-15)
(0.763163 -0.00404161 6.01028e-15)
(0.761829 -0.00394834 5.56648e-15)
(0.760525 -0.00385828 5.60871e-15)
(0.759251 -0.00377128 5.26663e-15)
(0.758005 -0.00368718 5.61587e-15)
(0.756787 -0.00360587 5.47051e-15)
(0.755596 -0.00352719 5.59382e-15)
(0.75443 -0.00345105 5.77005e-15)
(0.75329 -0.00337733 5.96916e-15)
(0.752173 -0.00330592 6.16568e-15)
(0.75108 -0.00323672 6.32558e-15)
(0.75001 -0.00316965 6.48569e-15)
(0.748962 -0.0031046 6.66447e-15)
(0.747935 -0.0030415 6.78272e-15)
(0.746929 -0.00298027 6.9255e-15)
(0.745944 -0.00292082 7.03821e-15)
(0.744977 -0.00286308 7.09779e-15)
(0.74403 -0.00280699 6.68607e-15)
(0.743102 -0.00275245 6.20903e-15)
(0.742192 -0.00269941 6.20646e-15)
(0.741299 -0.00264778 5.82444e-15)
(0.740424 -0.00259751 6.08763e-15)
(0.739565 -0.00254852 5.66214e-15)
(0.738722 -0.00250074 5.67958e-15)
(0.737896 -0.0024541 5.47669e-15)
(0.737085 -0.00240852 4.92991e-15)
(0.73629 -0.00236394 4.63375e-15)
(0.735509 -0.00232027 4.1709e-15)
(0.734744 -0.00227744 3.94099e-15)
(0.733992 -0.00223539 3.47377e-15)
(0.733255 -0.00219402 3.27513e-15)
(0.732533 -0.00215327 2.86507e-15)
(0.731823 -0.00211307 2.70153e-15)
(0.731128 -0.00207333 2.32764e-15)
(0.730446 -0.00203399 2.18758e-15)
(0.729778 -0.00199497 1.84509e-15)
(0.729123 -0.00195621 1.79372e-15)
(0.728482 -0.00191764 1.73941e-15)
(0.727853 -0.0018792 1.41588e-15)
(0.727238 -0.00184083 1.31973e-15)
(0.726636 -0.00180249 9.81847e-16)
(0.726048 -0.00176411 9.29445e-16)
(0.725472 -0.00172567 6.18575e-16)
(0.72491 -0.00168712 5.32385e-16)
(0.724361 -0.00164844 2.66044e-16)
(0.723826 -0.00160961 2.58828e-16)
(0.723303 -0.0015706 -8.75192e-18)
(0.722795 -0.00153142 -7.14513e-17)
(0.722299 -0.00149206 -3.23548e-16)
(0.721818 -0.00145252 -3.69047e-16)
(0.72135 -0.00141283 -6.09288e-16)
(0.720895 -0.00137301 -6.24024e-16)
(0.720454 -0.00133308 -8.59801e-16)
(0.720027 -0.00129307 -8.53591e-16)
(0.719613 -0.00125304 -1.07648e-15)
(0.719213 -0.00121304 -1.09549e-15)
(0.718827 -0.00117311 -1.30511e-15)
(0.718454 -0.00113333 -1.26261e-15)
(0.718095 -0.00109376 -1.44641e-15)
(0.727594 -0.00439517 7.36406e-15)
(0.725986 -0.00428101 6.92104e-15)
(0.72442 -0.00417141 6.38789e-15)
(0.722894 -0.0040661 6.43537e-15)
(0.721405 -0.00396486 5.97488e-15)
(0.719954 -0.00386745 6.29143e-15)
(0.718538 -0.00377367 5.72519e-15)
(0.717156 -0.00368332 5.80653e-15)
(0.715807 -0.00359623 5.39565e-15)
(0.71449 -0.00351222 5.75536e-15)
(0.713203 -0.00343115 5.19988e-15)
(0.711946 -0.00335288 5.29869e-15)
(0.710717 -0.00327726 4.9424e-15)
(0.709516 -0.00320417 5.37367e-15)
(0.708341 -0.00313349 5.14165e-15)
(0.707192 -0.00306512 5.30733e-15)
(0.706068 -0.00299894 5.48548e-15)
(0.704968 -0.00293488 5.6585e-15)
(0.703892 -0.00287282 5.83753e-15)
(0.702838 -0.00281269 5.99798e-15)
(0.701806 -0.00275441 6.16407e-15)
(0.700796 -0.0026979 6.32424e-15)
(0.699806 -0.00264308 6.46158e-15)
(0.698837 -0.00258989 6.58604e-15)
(0.697886 -0.00253825 6.69482e-15)
(0.696955 -0.00248811 6.73426e-15)
(0.696042 -0.00243939 6.32643e-15)
(0.695147 -0.00239204 5.85785e-15)
(0.69427 -0.00234599 5.91313e-15)
(0.693409 -0.00230118 5.48954e-15)
(0.692565 -0.00225755 5.83841e-15)
(0.691738 -0.00221504 5.29831e-15)
(0.690926 -0.00217359 5.38086e-15)
(0.690129 -0.00213313 5.1334e-15)
(0.689347 -0.0020936 4.57764e-15)
(0.68858 -0.00205495 4.31997e-15)
(0.687828 -0.00201709 3.82323e-15)
(0.68709 -0.00197997 3.66643e-15)
(0.686365 -0.00194353 3.17863e-15)
(0.685655 -0.00190769 3.00103e-15)
(0.684958 -0.00187239 2.5737e-15)
(0.684274 -0.00183757 2.48187e-15)
(0.683603 -0.00180316 2.09394e-15)
(0.682946 -0.00176909 1.97194e-15)
(0.682301 -0.00173531 1.62477e-15)
(0.68167 -0.00170176 1.61707e-15)
(0.681051 -0.00166837 1.56135e-15)
(0.680445 -0.0016351 1.20632e-15)
(0.679851 -0.0016019 1.12873e-15)
(0.679271 -0.00156871 7.94871e-16)
(0.678703 -0.00153549 7.85837e-16)
(0.678147 -0.00150222 4.68478e-16)
(0.677605 -0.00146885 4.13906e-16)
(0.677075 -0.00143537 1.11892e-16)
(0.676558 -0.00140175 1.71903e-16)
(0.676054 -0.00136798 -1.27438e-16)
(0.675563 -0.00133405 -1.64341e-16)
(0.675085 -0.00129997 -4.32868e-16)
(0.67462 -0.00126573 -4.19532e-16)
(0.674168 -0.00123135 -6.96218e-16)
(0.673729 -0.00119684 -6.89889e-16)
(0.673303 -0.00116224 -9.42443e-16)
(0.672891 -0.00112758 -8.67079e-16)
(0.672491 -0.00109288 -1.14059e-15)
(0.672105 -0.0010582 -1.12628e-15)
(0.671732 -0.00102359 -1.35393e-15)
(0.671372 -0.0009891 -1.25135e-15)
(0.671025 -0.000954783 -1.49651e-15)
(0.677017 -0.00376799 6.83515e-15)
(0.67548 -0.00367013 6.62236e-15)
(0.673983 -0.00357618 6.09122e-15)
(0.672523 -0.00348591 5.99187e-15)
(0.671101 -0.00339912 5.70407e-15)
(0.669714 -0.00331561 5.76795e-15)
(0.66836 -0.00323522 5.38722e-15)
(0.667039 -0.00315777 5.35985e-15)
(0.66575 -0.00308311 5.14712e-15)
(0.664491 -0.00301109 5.26166e-15)
(0.663261 -0.0029416 4.88979e-15)
(0.66206 -0.00287449 4.86557e-15)
(0.660886 -0.00280967 4.71124e-15)
(0.659738 -0.00274701 4.89505e-15)
(0.658616 -0.00268643 4.78167e-15)
(0.657518 -0.00262782 4.89659e-15)
(0.656444 -0.0025711 5.05861e-15)
(0.655393 -0.00251618 5.23342e-15)
(0.654365 -0.00246299 5.3967e-15)
(0.653358 -0.00241145 5.54131e-15)
(0.652373 -0.0023615 5.70295e-15)
(0.651408 -0.00231307 5.84988e-15)
(0.650462 -0.0022661 5.98256e-15)
(0.649536 -0.00222052 6.10181e-15)
(0.648628 -0.00217628 6.19581e-15)
(0.647738 -0.00213332 6.23793e-15)
(0.646866 -0.00209159 6.05695e-15)
(0.646012 -0.00205103 5.58255e-15)
(0.645173 -0.0020116 5.50186e-15)
(0.644351 -0.00197323 5.24198e-15)
(0.643545 -0.00193588 5.3466e-15)
(0.642754 -0.0018995 4.98922e-15)
(0.641979 -0.00186402 4.97166e-15)
(0.641217 -0.00182941 4.80313e-15)
(0.640471 -0.0017956 4.30422e-15)
(0.639738 -0.00176253 3.97644e-15)
(0.639019 -0.00173017 3.57492e-15)
(0.638314 -0.00169844 3.39744e-15)
(0.637621 -0.00166729 2.95779e-15)
(0.636942 -0.00163666 2.72253e-15)
(0.636276 -0.00160651 2.38607e-15)
(0.635622 -0.00157677 2.2686e-15)
(0.634981 -0.00154738 1.92614e-15)
(0.634353 -0.0015183 1.76853e-15)
(0.633737 -0.00148946 1.48338e-15)
(0.633133 -0.00146082 1.42613e-15)
(0.632541 -0.00143233 1.40685e-15)
(0.631961 -0.00140393 1.11825e-15)
(0.631393 -0.00137559 9.66951e-16)
(0.630838 -0.00134727 7.12752e-16)
(0.630295 -0.00131893 6.78929e-16)
(0.629763 -0.00129053 3.97337e-16)
(0.629244 -0.00126206 2.94036e-16)
(0.628737 -0.00123349 6.18126e-17)
(0.628243 -0.00120479 9.1811e-17)
(0.62776 -0.00117596 -1.3764e-16)
(0.62729 -0.001147 -2.38877e-16)
(0.626832 -0.0011179 -4.50757e-16)
(0.626387 -0.00108866 -4.39796e-16)
(0.625954 -0.00105929 -6.7329e-16)
(0.625534 -0.00102982 -7.47619e-16)
(0.625126 -0.00100026 -9.27871e-16)
(0.624731 -0.000970642 -8.67526e-16)
(0.624348 -0.000940991 -1.08403e-15)
(0.623978 -0.000911348 -1.15341e-15)
(0.62362 -0.000881756 -1.27363e-15)
(0.623275 -0.000852263 -1.21033e-15)
(0.622942 -0.000822913 -1.42621e-15)
(0.625036 -0.00317924 6.31274e-15)
(0.623582 -0.0030967 6.1472e-15)
(0.622165 -0.00301746 5.69199e-15)
(0.620785 -0.00294132 5.53332e-15)
(0.619439 -0.00286812 5.37082e-15)
(0.618126 -0.00279769 5.2758e-15)
(0.616846 -0.00272988 4.98164e-15)
(0.615596 -0.00266455 4.90694e-15)
(0.614377 -0.00260157 4.8399e-15)
(0.613186 -0.00254083 4.78551e-15)
(0.612023 -0.0024822 4.51909e-15)
(0.610886 -0.0024256 4.45555e-15)
(0.609776 -0.00237091 4.43897e-15)
(0.60869 -0.00231806 4.47005e-15)
(0.607629 -0.00226695 4.39093e-15)
(0.60659 -0.00221751 4.49831e-15)
(0.605575 -0.00216967 4.66215e-15)
(0.604581 -0.00212334 4.83199e-15)
(0.603608 -0.00207848 4.98239e-15)
(0.602656 -0.00203501 5.1098e-15)
(0.601724 -0.00199288 5.2691e-15)
(0.600811 -0.00195203 5.41789e-15)
(0.599917 -0.00191242 5.54203e-15)
(0.599041 -0.00187398 5.64241e-15)
(0.598183 -0.00183668 5.7265e-15)
(0.597341 -0.00180046 5.75444e-15)
(0.596517 -0.00176528 5.62456e-15)
(0.595708 -0.0017311 5.22241e-15)
(0.594915 -0.00169786 5.06336e-15)
(0.594138 -0.00166553 4.95577e-15)
(0.593375 -0.00163407 4.89731e-15)
(0.592627 -0.00160342 4.60744e-15)
(0.591893 -0.00157354 4.53823e-15)
(0.591173 -0.0015444 4.4322e-15)
(0.590467 -0.00151594 3.93653e-15)
(0.589774 -0.00148811 3.60647e-15)
(0.589093 -0.00146088 3.23436e-15)
(0.588426 -0.00143419 3.1097e-15)
(0.587771 -0.001408 2.6743e-15)
(0.587128 -0.00138225 2.41064e-15)
(0.586498 -0.0013569 2.13427e-15)
(0.585879 -0.00133191 2.08084e-15)
(0.585272 -0.00130722 1.71172e-15)
(0.584677 -0.00128279 1.51999e-15)
(0.584093 -0.00125857 1.2877e-15)
(0.583521 -0.00123452 1.21616e-15)
(0.582961 -0.0012106 1.27731e-15)
(0.582412 -0.00118676 9.44966e-16)
(0.581874 -0.00116298 7.90868e-16)
(0.581348 -0.0011392 5.74013e-16)
(0.580833 -0.00111542 5.7934e-16)
)
;

boundaryField
{
    inlet
    {
        type            uniformFixedValue;
        uniformValue    constant (1 0 0);
        value           nonuniform 0();
    }
    outlet
    {
        type            pressureInletOutletVelocity;
        value           nonuniform 0();
    }
    wall
    {
        type            fixedValue;
        value           nonuniform 0();
    }
    wedge1
    {
        type            wedge;
    }
    wedge2
    {
        type            wedge;
    }
    axis
    {
        type            empty;
    }
    procBoundary31to25
    {
        type            processor;
        value           nonuniform List<vector> 
68
(
(0.864885 -0.00278857 2.32674e-15)
(0.864203 -0.00273299 2.16837e-15)
(0.863535 -0.00267761 1.73287e-15)
(0.86288 -0.00262233 1.73447e-15)
(0.862241 -0.00256708 1.34486e-15)
(0.861615 -0.0025118 1.27187e-15)
(0.861003 -0.00245642 8.71622e-16)
(0.860405 -0.00240091 8.66569e-16)
(0.859821 -0.00234522 5.16954e-16)
(0.859252 -0.00228932 5.14146e-16)
(0.858696 -0.00223318 1.70419e-16)
(0.858155 -0.00217681 2.03085e-16)
(0.857628 -0.0021202 -1.5862e-16)
(0.857116 -0.00206335 -1.69726e-16)
(0.856617 -0.0020063 -5.01706e-16)
(0.856133 -0.00194906 -4.30545e-16)
(0.855664 -0.00189169 -7.55575e-16)
(0.855209 -0.00183424 -7.34371e-16)
(0.854769 -0.00177676 -1.04658e-15)
(0.854343 -0.00171932 -9.6144e-16)
(0.853931 -0.00166201 -1.27369e-15)
(0.853534 -0.00160492 -1.22367e-15)
(0.870662 -0.00647195 8.59293e-15)
(0.868922 -0.00630419 7.80635e-15)
(0.867226 -0.00614311 7.14824e-15)
(0.865572 -0.00598834 7.4124e-15)
(0.863959 -0.00583951 6.68209e-15)
(0.862385 -0.00569631 7.35013e-15)
(0.860849 -0.00555843 6.59035e-15)
(0.85935 -0.00542558 6.8248e-15)
(0.857886 -0.0052975 6.12506e-15)
(0.856456 -0.00517396 6.77901e-15)
(0.855058 -0.00505472 6.04437e-15)
(0.853693 -0.00493958 6.32122e-15)
(0.852358 -0.00482833 5.6513e-15)
(0.851052 -0.00472079 6.35822e-15)
(0.849775 -0.00461679 6.00454e-15)
(0.848526 -0.00451617 6.26874e-15)
(0.847304 -0.00441877 6.47667e-15)
(0.846108 -0.00432446 6.71616e-15)
(0.844937 -0.00423309 6.92836e-15)
(0.84379 -0.00414454 7.09203e-15)
(0.842667 -0.00405869 7.26766e-15)
(0.841567 -0.00397543 7.4408e-15)
(0.84049 -0.00389465 7.58263e-15)
(0.839434 -0.00381624 7.7226e-15)
(0.838399 -0.00374009 7.84218e-15)
(0.837385 -0.00366613 7.9328e-15)
(0.836391 -0.00359424 7.16989e-15)
(0.835416 -0.00352434 6.56743e-15)
(0.834461 -0.00345633 6.87494e-15)
(0.833523 -0.00339012 6.20165e-15)
(0.832604 -0.00332563 6.83687e-15)
(0.831702 -0.00326276 6.13163e-15)
(0.830818 -0.00320142 6.39274e-15)
(0.82995 -0.00314152 6.01271e-15)
(0.829099 -0.00308296 5.33543e-15)
(0.828264 -0.00302566 5.14667e-15)
(0.827444 -0.00296953 4.56021e-15)
(0.82664 -0.00291445 4.36522e-15)
(0.825851 -0.00286035 3.8089e-15)
(0.825078 -0.00280712 3.70015e-15)
(0.824319 -0.00275467 3.17351e-15)
(0.823574 -0.00270291 3.0583e-15)
(0.822844 -0.00265174 2.59671e-15)
(0.822129 -0.00260106 2.55875e-15)
(0.821427 -0.0025508 2.11541e-15)
(0.821427 -0.0025508 2.11541e-15)
)
;
    }
    procBoundary31to26
    {
        type            processor;
        value           uniform (0.809166 -0.00139096 -1.53687e-15);
    }
    procBoundary31to30
    {
        type            processor;
        value           nonuniform List<vector> 4((0.826195 -0.00590646 8.12045e-15) (0.778452 -0.00519425 7.71281e-15) (0.729244 -0.00451418 7.3261e-15) (0.678595 -0.00387001 6.79995e-15));
    }
    procBoundary31to32
    {
        type            processor;
        value           nonuniform List<vector> 5((0.764144 -0.00123932 -1.47432e-15) (0.764144 -0.00123932 -1.47432e-15) (0.717749 -0.00105448 -1.45889e-15) (0.67069 -0.000920719 -1.45317e-15) (0.622621 -0.000793773 -1.44335e-15));
    }
    procBoundary31to36
    {
        type            processor;
        value           uniform (0.626529 -0.00326527 6.3082e-15);
    }
    procBoundary31to37
    {
        type            processor;
        value           nonuniform List<vector> 
69
(
(0.580329 -0.00109158 3.06222e-16)
(0.579837 -0.00106768 1.69927e-16)
(0.579357 -0.0010437 -1.58568e-17)
(0.578888 -0.00101961 4.39745e-17)
(0.57843 -0.000995406 -2.10476e-16)
(0.577984 -0.000971085 -3.3036e-16)
(0.57755 -0.000946644 -4.95424e-16)
(0.577128 -0.000922086 -4.26868e-16)
(0.576717 -0.000897419 -7.00388e-16)
(0.576318 -0.000872656 -7.88205e-16)
(0.575931 -0.000847814 -9.52881e-16)
(0.575555 -0.000822914 -8.36986e-16)
(0.575192 -0.000797985 -1.07762e-15)
(0.57484 -0.000773058 -1.15574e-15)
(0.5745 -0.000748167 -1.26058e-15)
(0.574172 -0.000723356 -1.1748e-15)
(0.573855 -0.000698658 -1.38353e-15)
(0.571675 -0.00263208 5.80959e-15)
(0.570315 -0.0025638 5.68469e-15)
(0.568991 -0.00249824 5.21955e-15)
(0.5677 -0.00243525 5.05156e-15)
(0.566441 -0.00237468 4.85628e-15)
(0.565214 -0.00231641 4.80813e-15)
(0.564016 -0.0022603 4.52161e-15)
(0.562848 -0.00220624 4.46896e-15)
(0.561707 -0.00215413 4.34255e-15)
(0.560594 -0.00210386 4.32922e-15)
(0.559506 -0.00205535 4.10146e-15)
(0.558443 -0.0020085 4.04173e-15)
(0.557405 -0.00196325 3.98533e-15)
(0.55639 -0.00191951 4.06653e-15)
(0.555397 -0.00187721 3.99076e-15)
(0.554426 -0.00183629 4.12587e-15)
(0.553476 -0.00179669 4.28243e-15)
(0.552547 -0.00175836 4.44942e-15)
(0.551638 -0.00172123 4.59044e-15)
(0.550748 -0.00168526 4.7285e-15)
(0.549876 -0.00165039 4.8696e-15)
(0.549022 -0.00161659 4.98215e-15)
(0.548186 -0.00158381 5.11201e-15)
(0.547367 -0.00155201 5.19301e-15)
(0.546564 -0.00152115 5.27326e-15)
(0.545777 -0.00149119 5.28743e-15)
(0.545006 -0.00146209 5.1934e-15)
(0.54425 -0.00143382 4.78158e-15)
(0.543509 -0.00140634 4.64052e-15)
(0.542781 -0.00137961 4.47131e-15)
(0.542068 -0.0013536 4.44834e-15)
(0.541369 -0.00132827 4.18027e-15)
(0.540682 -0.00130359 4.11269e-15)
(0.540009 -0.00127951 3.93529e-15)
(0.539348 -0.001256 3.50725e-15)
(0.538699 -0.00123303 3.18064e-15)
(0.538063 -0.00121055 2.85345e-15)
(0.537438 -0.00118853 2.67673e-15)
(0.536825 -0.00116692 2.31924e-15)
(0.536224 -0.00114569 2.07411e-15)
(0.535633 -0.00112479 1.81196e-15)
(0.535054 -0.00110419 1.71642e-15)
(0.534486 -0.00108384 1.43097e-15)
(0.533929 -0.00106371 1.25831e-15)
(0.533382 -0.00104377 1.04964e-15)
(0.532846 -0.00102396 1.00864e-15)
(0.532321 -0.00100427 1.01086e-15)
(0.531807 -0.000984643 7.57503e-16)
(0.531303 -0.000965062 5.88859e-16)
(0.53081 -0.000945496 3.97097e-16)
(0.580329 -0.00109158 3.06222e-16)
(0.530327 -0.000925918 3.52814e-16)
)
;
    }
}


// ************************************************************************* //
