/*--------------------------------*- C++ -*----------------------------------*\
  =========                 |
  \\      /  F ield         | OpenFOAM: The Open Source CFD Toolbox
   \\    /   O peration     | Website:  https://openfoam.org
    \\  /    A nd           | Version:  7
     \\/     M anipulation  |
\*---------------------------------------------------------------------------*/
FoamFile
{
    version     2.0;
    format      ascii;
    class       volScalarField;
    location    "62.00019";
    object      p;
}
// * * * * * * * * * * * * * * * * * * * * * * * * * * * * * * * * * * * * * //

dimensions      [0 2 -2 0 0 0 0];

internalField   nonuniform List<scalar> 
23200
(
-0.287761
-0.291951
-0.294402
-0.295753
-0.296313
-0.296051
-0.294977
-0.293116
-0.290483
-0.287094
-0.282961
-0.278102
-0.272541
-0.266313
-0.259471
-0.252087
-0.244262
-0.236158
-0.227917
-0.219375
-0.288585
-0.292682
-0.295064
-0.296357
-0.296862
-0.296551
-0.295433
-0.293532
-0.290864
-0.287443
-0.283281
-0.278395
-0.272808
-0.266553
-0.259682
-0.252264
-0.244396
-0.236252
-0.227953
-0.219191
-0.290224
-0.294138
-0.296382
-0.297558
-0.297955
-0.297546
-0.296339
-0.294359
-0.291621
-0.288136
-0.283916
-0.278977
-0.273338
-0.26703
-0.2601
-0.252613
-0.244661
-0.236435
-0.228026
-0.218822
-0.292662
-0.296304
-0.298343
-0.299345
-0.29958
-0.299024
-0.297686
-0.295588
-0.292743
-0.289162
-0.284856
-0.279836
-0.274119
-0.267732
-0.260716
-0.253128
-0.245051
-0.236704
-0.228136
-0.218269
-0.295875
-0.29916
-0.30093
-0.301701
-0.301723
-0.300972
-0.299458
-0.297202
-0.294215
-0.290507
-0.286085
-0.280958
-0.275138
-0.268646
-0.261516
-0.253796
-0.245558
-0.23705
-0.228283
-0.217531
-0.299832
-0.30268
-0.304119
-0.304606
-0.304362
-0.303369
-0.301637
-0.299184
-0.29602
-0.292152
-0.287586
-0.282325
-0.276377
-0.269756
-0.262487
-0.254606
-0.24617
-0.237465
-0.228467
-0.216611
-0.304498
-0.306834
-0.307884
-0.308033
-0.307474
-0.306194
-0.3042
-0.301511
-0.298135
-0.294076
-0.289335
-0.283914
-0.277814
-0.27104
-0.263608
-0.25554
-0.246875
-0.237938
-0.228689
-0.215513
-0.309833
-0.311588
-0.312193
-0.311956
-0.311034
-0.30942
-0.307124
-0.30416
-0.300536
-0.296254
-0.291312
-0.285704
-0.279428
-0.272478
-0.264861
-0.256583
-0.247661
-0.23846
-0.228949
-0.214246
-0.315794
-0.316906
-0.317015
-0.316344
-0.315013
-0.313022
-0.310382
-0.307106
-0.3032
-0.298663
-0.29349
-0.287671
-0.281195
-0.274048
-0.266225
-0.257718
-0.248516
-0.239019
-0.229247
-0.212822
-0.322337
-0.322749
-0.322315
-0.321166
-0.319383
-0.316973
-0.31395
-0.310325
-0.306102
-0.30128
-0.295848
-0.289792
-0.283093
-0.27573
-0.267683
-0.258929
-0.249427
-0.239606
-0.229582
-0.21126
-0.329418
-0.329081
-0.328059
-0.326392
-0.324115
-0.321247
-0.317802
-0.313792
-0.309221
-0.304082
-0.298364
-0.292046
-0.285103
-0.277503
-0.269215
-0.260199
-0.250383
-0.240213
-0.22995
-0.209587
-0.336994
-0.335862
-0.334216
-0.331991
-0.329182
-0.325817
-0.321915
-0.317487
-0.312534
-0.30705
-0.301019
-0.294416
-0.287208
-0.279352
-0.270807
-0.261517
-0.251374
-0.240832
-0.230343
-0.207836
-0.345023
-0.343057
-0.34075
-0.337933
-0.334556
-0.33066
-0.326268
-0.321388
-0.316024
-0.310167
-0.303798
-0.296887
-0.289392
-0.281264
-0.272446
-0.26287
-0.252393
-0.241458
-0.230749
-0.206048
-0.353467
-0.350633
-0.347633
-0.344192
-0.340215
-0.335756
-0.330841
-0.325481
-0.319678
-0.313421
-0.30669
-0.299447
-0.291647
-0.283228
-0.274124
-0.26425
-0.253434
-0.242088
-0.231145
-0.20427
-0.362289
-0.358555
-0.354835
-0.350742
-0.346135
-0.341084
-0.335618
-0.329751
-0.323483
-0.316803
-0.309686
-0.302091
-0.293965
-0.285239
-0.275833
-0.265651
-0.25449
-0.242726
-0.231508
-0.202569
-0.371455
-0.366795
-0.362329
-0.357558
-0.352297
-0.346627
-0.340587
-0.334188
-0.327432
-0.320306
-0.312781
-0.304814
-0.296343
-0.287291
-0.277569
-0.267068
-0.255561
-0.243381
-0.231812
-0.201041
-0.380934
-0.375322
-0.370088
-0.364619
-0.35868
-0.352371
-0.345735
-0.338783
-0.331519
-0.323926
-0.315975
-0.307614
-0.298778
-0.289382
-0.279329
-0.268497
-0.256643
-0.24406
-0.23197
-0.199716
-0.390696
-0.384109
-0.378088
-0.371901
-0.365268
-0.358302
-0.351052
-0.34353
-0.335739
-0.327662
-0.319263
-0.310489
-0.301267
-0.291508
-0.281108
-0.269939
-0.257753
-0.24479
-0.231764
-0.198385
-0.40071
-0.393127
-0.386302
-0.379384
-0.372042
-0.364406
-0.356528
-0.348422
-0.340089
-0.33151
-0.322645
-0.313435
-0.303804
-0.29366
-0.282899
-0.271397
-0.258942
-0.2457
-0.231275
-0.197719
-0.410945
-0.402346
-0.394704
-0.387045
-0.378984
-0.370667
-0.362152
-0.353451
-0.344563
-0.335465
-0.326113
-0.316444
-0.306376
-0.29582
-0.284679
-0.272852
-0.260229
-0.246957
-0.231865
-0.204755
-0.421366
-0.411734
-0.403265
-0.394856
-0.386072
-0.377069
-0.367911
-0.358607
-0.349151
-0.339517
-0.329657
-0.3195
-0.308963
-0.297957
-0.2864
-0.274229
-0.261448
-0.248296
-0.234768
-0.226667
-0.431933
-0.421253
-0.41195
-0.402791
-0.393281
-0.383592
-0.373788
-0.363873
-0.353839
-0.343652
-0.333257
-0.322578
-0.311531
-0.300027
-0.287997
-0.27541
-0.262351
-0.249077
-0.23559
-0.231112
-0.442602
-0.430861
-0.420722
-0.410814
-0.400582
-0.39021
-0.379759
-0.369229
-0.358604
-0.347844
-0.336885
-0.325646
-0.314037
-0.301976
-0.289401
-0.276303
-0.262804
-0.249128
-0.235018
-0.230144
-0.45332
-0.44051
-0.429536
-0.418886
-0.40794
-0.39689
-0.385795
-0.374646
-0.363417
-0.35206
-0.340503
-0.328657
-0.31643
-0.303741
-0.290539
-0.276832
-0.262748
-0.248477
-0.233668
-0.227211
-0.464022
-0.450142
-0.43834
-0.426959
-0.415311
-0.403592
-0.391857
-0.380083
-0.368236
-0.356255
-0.344059
-0.331553
-0.318643
-0.305252
-0.29134
-0.276925
-0.26214
-0.247138
-0.231575
-0.223107
-0.474637
-0.459689
-0.447071
-0.434976
-0.422642
-0.410267
-0.397895
-0.385492
-0.373008
-0.360372
-0.347491
-0.334266
-0.320604
-0.306433
-0.291728
-0.27652
-0.260943
-0.245125
-0.228786
-0.218297
-0.485079
-0.469074
-0.45566
-0.442872
-0.429872
-0.416854
-0.403852
-0.390811
-0.377669
-0.36434
-0.350723
-0.336716
-0.322228
-0.307202
-0.291627
-0.275555
-0.259127
-0.242461
-0.225367
-0.213056
-0.49525
-0.478209
-0.464024
-0.45057
-0.436927
-0.423284
-0.409654
-0.395966
-0.38214
-0.368076
-0.353668
-0.338812
-0.323427
-0.307473
-0.290963
-0.273975
-0.256666
-0.239156
-0.221361
-0.207502
-0.505043
-0.486994
-0.472071
-0.457984
-0.443725
-0.429472
-0.415219
-0.400871
-0.38633
-0.371486
-0.356227
-0.340455
-0.324104
-0.307159
-0.289664
-0.271729
-0.253534
-0.235217
-0.216792
-0.201665
-0.514333
-0.495319
-0.479698
-0.465014
-0.45017
-0.435325
-0.42045
-0.405426
-0.390137
-0.374464
-0.358294
-0.341541
-0.324161
-0.306173
-0.28766
-0.268769
-0.249708
-0.230641
-0.211669
-0.195532
-0.522987
-0.50306
-0.486789
-0.471552
-0.456155
-0.440736
-0.425239
-0.409521
-0.393447
-0.376894
-0.359754
-0.341959
-0.3235
-0.304432
-0.284886
-0.265051
-0.245167
-0.225422
-0.20599
-0.189068
-0.530861
-0.510085
-0.493221
-0.477477
-0.461562
-0.445587
-0.429467
-0.413033
-0.396137
-0.378653
-0.360488
-0.3416
-0.322021
-0.301856
-0.281283
-0.260537
-0.239888
-0.219551
-0.199749
-0.182236
-0.537798
-0.516252
-0.498858
-0.482659
-0.466263
-0.44975
-0.433004
-0.415832
-0.398075
-0.379613
-0.360374
-0.340354
-0.319633
-0.29837
-0.276796
-0.255192
-0.233855
-0.213017
-0.192936
-0.174997
-0.543635
-0.521409
-0.503557
-0.486958
-0.47012
-0.453087
-0.435712
-0.417779
-0.399126
-0.379644
-0.359292
-0.338114
-0.316246
-0.293906
-0.27138
-0.248988
-0.22705
-0.205811
-0.185543
-0.167317
-0.548201
-0.525398
-0.507166
-0.490227
-0.472988
-0.455454
-0.437446
-0.418731
-0.399149
-0.378613
-0.357123
-0.33478
-0.31178
-0.288406
-0.264995
-0.241902
-0.219463
-0.197925
-0.177561
-0.159171
-0.551322
-0.528057
-0.509531
-0.492314
-0.474716
-0.456699
-0.438056
-0.418541
-0.398005
-0.376393
-0.353756
-0.330257
-0.306163
-0.281819
-0.257608
-0.233916
-0.211082
-0.189352
-0.168984
-0.150538
-0.55282
-0.529218
-0.51049
-0.493061
-0.475147
-0.456669
-0.437391
-0.417064
-0.395558
-0.372861
-0.349084
-0.324463
-0.299334
-0.274102
-0.249195
-0.225016
-0.201903
-0.180089
-0.159807
-0.141404
-0.552518
-0.528717
-0.509881
-0.49231
-0.474125
-0.455208
-0.4353
-0.414156
-0.391676
-0.367902
-0.343014
-0.317324
-0.29124
-0.265225
-0.239738
-0.215196
-0.191922
-0.170135
-0.150027
-0.13176
-0.550243
-0.526386
-0.507545
-0.489901
-0.471494
-0.452163
-0.431635
-0.40968
-0.386236
-0.361411
-0.335461
-0.308779
-0.281842
-0.255162
-0.229227
-0.204451
-0.181142
-0.159491
-0.139646
-0.121601
-0.545825
-0.522067
-0.503325
-0.485679
-0.4671
-0.447386
-0.426257
-0.403507
-0.379127
-0.353296
-0.326356
-0.29878
-0.27111
-0.243902
-0.217659
-0.192786
-0.169565
-0.14816
-0.128667
-0.11093
-0.539107
-0.515606
-0.497069
-0.479497
-0.460799
-0.440737
-0.419034
-0.395519
-0.370247
-0.343479
-0.315643
-0.287291
-0.259026
-0.231438
-0.205035
-0.180206
-0.1572
-0.136151
-0.117096
-0.0997492
-0.529941
-0.506859
-0.488637
-0.471214
-0.452453
-0.432085
-0.409848
-0.385614
-0.359514
-0.331896
-0.303279
-0.27429
-0.245585
-0.217775
-0.191367
-0.166724
-0.144059
-0.123473
-0.104943
-0.0880669
-0.518193
-0.495697
-0.477899
-0.460703
-0.441938
-0.421316
-0.398594
-0.373705
-0.346861
-0.318503
-0.28924
-0.259768
-0.230789
-0.202925
-0.176671
-0.152357
-0.130157
-0.110141
-0.0922219
-0.0759
-0.503749
-0.482005
-0.464741
-0.44785
-0.429147
-0.408329
-0.385187
-0.359722
-0.332237
-0.30327
-0.273515
-0.243732
-0.214654
-0.186909
-0.160968
-0.137126
-0.115514
-0.0961704
-0.0789487
-0.063266
-0.486514
-0.465688
-0.449067
-0.432561
-0.41399
-0.393044
-0.369559
-0.343616
-0.315614
-0.286187
-0.25611
-0.226198
-0.197207
-0.169756
-0.144289
-0.121058
-0.100154
-0.081583
-0.0651401
-0.0501389
-0.466414
-0.446671
-0.4308
-0.41476
-0.396395
-0.375399
-0.351664
-0.325359
-0.296982
-0.267261
-0.237047
-0.207198
-0.178482
-0.151502
-0.126667
-0.104186
-0.0841054
-0.0664046
-0.0508222
-0.0364629
-0.443403
-0.424901
-0.409886
-0.394394
-0.376316
-0.35536
-0.331481
-0.304945
-0.27635
-0.246517
-0.216361
-0.186775
-0.158526
-0.132193
-0.108145
-0.0865453
-0.0674006
-0.0506596
-0.0360218
-0.0225077
-0.417459
-0.400352
-0.386296
-0.371435
-0.35373
-0.332912
-0.30901
-0.28239
-0.253751
-0.223999
-0.194105
-0.164984
-0.137393
-0.111881
-0.0887705
-0.0681793
-0.0500814
-0.0344026
-0.0207258
-0.00818928
-0.388591
-0.373025
-0.360026
-0.34588
-0.328639
-0.308067
-0.284276
-0.257732
-0.229236
-0.199768
-0.170345
-0.141893
-0.11515
-0.0906258
-0.0685978
-0.0491392
-0.0321868
-0.0176488
-0.00501721
0.00649305
-0.356833
-0.342947
-0.3311
-0.317753
-0.301073
-0.280865
-0.257328
-0.231034
-0.202875
-0.1739
-0.14516
-0.117579
-0.0918683
-0.0684952
-0.0476876
-0.0294757
-0.0137655
-0.000444224
0.0110697
0.0215026
-0.322254
-0.310176
-0.29957
-0.287108
-0.271089
-0.25137
-0.228241
-0.202378
-0.174759
-0.14649
-0.118643
-0.0921312
-0.0676316
-0.045563
-0.0261061
-0.00924882
0.00513001
0.0171628
0.0274966
0.0367982
-0.284951
-0.274799
-0.265519
-0.254024
-0.238772
-0.219673
-0.197114
-0.17187
-0.144996
-0.117646
-0.0908983
-0.0656481
-0.0425292
-0.0219109
-0.00392607
0.0114765
0.0244422
0.0351209
0.0442188
0.0523352
-0.245051
-0.236931
-0.229056
-0.218612
-0.204232
-0.185891
-0.164068
-0.139636
-0.11371
-0.0874886
-0.0620431
-0.038237
-0.016659
0.00237335
0.0187738
0.0326302
0.0441083
0.0533744
0.0611862
0.0680644
-0.202714
-0.196717
-0.190321
-0.181008
-0.167609
-0.150164
-0.129246
-0.105812
-0.0810473
-0.0561557
-0.0322031
-0.0100139
0.00987416
0.0271958
0.0419096
0.0541368
0.0640607
0.0718634
0.0783435
0.0839299
-0.158127
-0.154329
-0.149478
-0.141376
-0.129067
-0.112653
-0.0928107
-0.0705704
-0.0471599
-0.0237935
-0.00151459
0.0188976
0.0369593
0.052457
0.0653923
0.0759162
0.0842271
0.0905231
0.0956297
0.0998687
-0.111495
-0.10997
-0.106723
-0.0999045
-0.0887883
-0.0735528
-0.054949
-0.034084
-0.0122172
0.00944048
0.0298781
0.0483673
0.0644796
0.0780527
0.0891285
0.097884
0.104531
0.109285
0.112981
0.115811
-0.0630109
-0.0639084
-0.0622736
-0.0568083
-0.0469898
-0.0330642
-0.0158601
0.00345445
0.0235994
0.0433791
0.0618234
0.0782588
0.0923135
0.103875
0.113021
0.119952
0.124892
0.128085
0.13034
0.131657
-0.0130728
-0.0163028
-0.0163682
-0.0123253
-0.00390105
0.00858731
0.0242397
0.0418396
0.060099
0.0778475
0.0941632
0.108431
0.120335
0.129811
0.13697
0.14203
0.145231
0.146867
0.147643
0.147207
0.0381245
0.0325187
0.0307235
0.0332887
0.040229
0.0511604
0.0651202
0.0808557
0.097082
0.112664
0.126735
0.138739
0.148417
0.155747
0.160873
0.164023
0.165467
0.165556
0.164721
0.162224
0.090272
0.0822665
0.078722
0.0797603
0.0851351
0.0944004
0.10654
0.120278
0.134342
0.147643
0.159371
0.169033
0.176426
0.181568
0.184627
0.185842
0.185518
0.184017
0.181208
0.176657
0.143041
0.132637
0.127331
0.126801
0.130538
0.138041
0.14825
0.159874
0.171668
0.182592
0.191901
0.199165
0.20423
0.207156
0.20813
0.207404
0.205313
0.202136
0.196881
0.19075
0.196094
0.183309
0.176238
0.174109
0.17615
0.181809
0.189992
0.199407
0.208844
0.21732
0.224155
0.228981
0.231696
0.232393
0.231282
0.228625
0.22478
0.219985
0.213211
0.206637
0.249086
0.23395
0.225124
0.221373
0.221672
0.225422
0.231505
0.238638
0.245653
0.251631
0.255959
0.258329
0.258687
0.25716
0.253973
0.249403
0.243809
0.237397
0.229293
0.222019
0.301663
0.284223
0.273658
0.268278
0.266802
0.268595
0.272525
0.277326
0.281879
0.285332
0.287141
0.287057
0.285071
0.281337
0.276099
0.26964
0.262315
0.254304
0.244882
0.236671
0.35347
0.333784
0.321509
0.314502
0.311236
0.311043
0.312788
0.315229
0.317304
0.31823
0.31753
0.315014
0.310712
0.304807
0.297554
0.289241
0.280217
0.270642
0.25992
0.250614
0.404149
0.382289
0.368344
0.359726
0.354669
0.352483
0.352033
0.352111
0.351717
0.350137
0.346961
0.342052
0.335482
0.327454
0.318234
0.308116
0.297434
0.286339
0.274345
0.26387
0.453346
0.429396
0.413832
0.403631
0.396801
0.392633
0.390002
0.38774
0.384909
0.380866
0.375267
0.368027
0.359252
0.349165
0.338042
0.326176
0.313889
0.301325
0.288094
0.27643
0.500714
0.474769
0.457648
0.445907
0.437337
0.431219
0.426445
0.421888
0.416678
0.41024
0.402293
0.3928
0.381899
0.369833
0.356881
0.343337
0.32951
0.315536
0.301115
0.288268
0.545913
0.518081
0.499475
0.486249
0.475992
0.467978
0.461119
0.454338
0.446828
0.438084
0.427884
0.416236
0.403306
0.389352
0.37466
0.359519
0.344226
0.328914
0.313357
0.299356
0.588619
0.559018
0.539009
0.524366
0.512491
0.502654
0.493794
0.484882
0.475175
0.464236
0.451897
0.438207
0.42336
0.407624
0.391291
0.374646
0.357972
0.341401
0.324774
0.309663
0.628521
0.597279
0.575959
0.559981
0.546573
0.535007
0.52425
0.513322
0.501544
0.488539
0.474193
0.458592
0.441953
0.424556
0.406693
0.388645
0.370684
0.352943
0.335319
0.319157
0.665327
0.632581
0.610052
0.592833
0.577993
0.564811
0.552282
0.539474
0.52577
0.51085
0.494646
0.47728
0.458988
0.440059
0.420787
0.40145
0.382305
0.363489
0.344948
0.327808
0.698767
0.664662
0.641035
0.62268
0.606526
0.591858
0.577701
0.56317
0.547703
0.531034
0.513137
0.494166
0.474372
0.454053
0.433504
0.412998
0.392781
0.372992
0.353622
0.335585
0.728594
0.693283
0.668676
0.649302
0.631964
0.615957
0.600334
0.584254
0.567206
0.54897
0.529561
0.509155
0.488022
0.466465
0.444779
0.423232
0.402061
0.381408
0.361301
0.342459
0.754586
0.718229
0.692768
0.6725
0.654123
0.636939
0.620029
0.60259
0.584156
0.564551
0.54382
0.522164
0.499865
0.47723
0.454554
0.432102
0.410101
0.388698
0.367951
0.348403
0.776551
0.739312
0.713129
0.692103
0.672842
0.654656
0.636651
0.618057
0.598448
0.577682
0.555833
0.53312
0.509835
0.48629
0.462779
0.439563
0.416862
0.394827
0.373542
0.353395
0.794323
0.756373
0.729606
0.707965
0.687984
0.668982
0.650086
0.630554
0.609991
0.588283
0.565529
0.54196
0.517878
0.493597
0.469411
0.445578
0.422312
0.399767
0.378046
0.357413
0.80777
0.769283
0.742074
0.719966
0.699438
0.679817
0.660244
0.639999
0.618712
0.596292
0.572851
0.548635
0.523949
0.499112
0.474415
0.450116
0.426423
0.403493
0.381444
0.360442
0.816791
0.777945
0.750439
0.728017
0.707121
0.687083
0.667055
0.646331
0.624557
0.601658
0.577757
0.553106
0.528016
0.502805
0.477766
0.453154
0.429175
0.405987
0.383718
0.362468
0.821318
0.782293
0.754638
0.732057
0.710977
0.690729
0.670472
0.649507
0.627489
0.604349
0.580216
0.555348
0.530055
0.504656
0.479446
0.454677
0.430554
0.407237
0.384858
0.363483
0.821318
0.782293
0.754638
0.732057
0.710977
0.690729
0.670472
0.649507
0.627489
0.604349
0.580216
0.555348
0.530055
0.504656
0.479446
0.454677
0.430554
0.407237
0.384858
0.363483
0.816791
0.777945
0.750439
0.728017
0.707121
0.687083
0.667055
0.646331
0.624557
0.601658
0.577757
0.553106
0.528016
0.502805
0.477766
0.453154
0.429175
0.405987
0.383718
0.362468
0.80777
0.769283
0.742074
0.719966
0.699438
0.679817
0.660244
0.639999
0.618712
0.596292
0.572851
0.548635
0.523949
0.499112
0.474415
0.450116
0.426423
0.403493
0.381444
0.360442
0.794323
0.756373
0.729606
0.707965
0.687984
0.668982
0.650086
0.630554
0.609991
0.588283
0.565529
0.54196
0.517878
0.493597
0.469411
0.445578
0.422312
0.399767
0.378046
0.357413
0.776551
0.739312
0.713129
0.692103
0.672842
0.654656
0.636651
0.618057
0.598448
0.577682
0.555833
0.53312
0.509835
0.48629
0.462779
0.439563
0.416862
0.394827
0.373542
0.353395
0.754586
0.718229
0.692768
0.6725
0.654123
0.636939
0.620029
0.60259
0.584156
0.564551
0.54382
0.522164
0.499865
0.47723
0.454554
0.432102
0.410101
0.388698
0.367951
0.348403
0.728594
0.693283
0.668676
0.649302
0.631964
0.615957
0.600334
0.584254
0.567206
0.54897
0.529561
0.509155
0.488022
0.466465
0.444779
0.423232
0.402061
0.381408
0.361301
0.342459
0.698767
0.664662
0.641035
0.62268
0.606526
0.591858
0.577701
0.56317
0.547703
0.531034
0.513137
0.494166
0.474372
0.454053
0.433504
0.412998
0.392781
0.372992
0.353622
0.335585
0.665327
0.632581
0.610052
0.592833
0.577993
0.564811
0.552282
0.539474
0.52577
0.51085
0.494646
0.47728
0.458988
0.440059
0.420787
0.40145
0.382305
0.363489
0.344948
0.327808
0.628521
0.597279
0.575959
0.559981
0.546573
0.535007
0.52425
0.513322
0.501544
0.488539
0.474193
0.458592
0.441953
0.424556
0.406693
0.388645
0.370684
0.352943
0.335319
0.319157
0.588619
0.559018
0.539009
0.524366
0.512491
0.502654
0.493794
0.484882
0.475175
0.464236
0.451897
0.438207
0.42336
0.407624
0.391291
0.374646
0.357972
0.341401
0.324774
0.309663
0.545913
0.518081
0.499475
0.486249
0.475992
0.467978
0.461119
0.454338
0.446828
0.438084
0.427884
0.416236
0.403306
0.389352
0.37466
0.359519
0.344226
0.328914
0.313357
0.299356
0.500714
0.474769
0.457648
0.445907
0.437337
0.431219
0.426445
0.421888
0.416678
0.41024
0.402293
0.3928
0.381899
0.369833
0.356881
0.343337
0.32951
0.315536
0.301115
0.288268
0.453346
0.429396
0.413832
0.403631
0.396801
0.392633
0.390002
0.38774
0.384909
0.380866
0.375267
0.368027
0.359252
0.349165
0.338042
0.326176
0.313889
0.301325
0.288094
0.27643
0.404149
0.382289
0.368344
0.359726
0.354669
0.352483
0.352033
0.352111
0.351717
0.350137
0.346961
0.342052
0.335482
0.327454
0.318234
0.308116
0.297434
0.286339
0.274345
0.26387
0.35347
0.333784
0.321509
0.314502
0.311236
0.311043
0.312788
0.315229
0.317304
0.31823
0.31753
0.315014
0.310712
0.304807
0.297554
0.289241
0.280217
0.270642
0.25992
0.250614
0.301663
0.284223
0.273658
0.268278
0.266802
0.268595
0.272525
0.277326
0.281879
0.285332
0.287141
0.287057
0.285071
0.281337
0.276099
0.26964
0.262315
0.254304
0.244882
0.236671
0.249086
0.23395
0.225124
0.221373
0.221672
0.225422
0.231505
0.238638
0.245653
0.251631
0.255959
0.258329
0.258687
0.25716
0.253973
0.249403
0.243809
0.237397
0.229293
0.222019
0.196094
0.183309
0.176238
0.174109
0.17615
0.181809
0.189992
0.199407
0.208844
0.21732
0.224155
0.228981
0.231696
0.232393
0.231282
0.228625
0.22478
0.219985
0.213211
0.206637
0.143041
0.132637
0.127331
0.126801
0.130538
0.138041
0.14825
0.159874
0.171668
0.182592
0.191901
0.199165
0.20423
0.207156
0.20813
0.207404
0.205313
0.202136
0.196881
0.19075
0.090272
0.0822666
0.078722
0.0797603
0.0851351
0.0944004
0.10654
0.120278
0.134342
0.147643
0.159371
0.169033
0.176426
0.181568
0.184627
0.185842
0.185518
0.184017
0.181208
0.176657
0.0381246
0.0325187
0.0307235
0.0332887
0.040229
0.0511604
0.0651202
0.0808557
0.097082
0.112664
0.126735
0.138739
0.148417
0.155747
0.160873
0.164023
0.165467
0.165556
0.164721
0.162224
-0.0130728
-0.0163028
-0.0163682
-0.0123253
-0.00390104
0.00858731
0.0242397
0.0418396
0.060099
0.0778475
0.0941632
0.108431
0.120335
0.129811
0.13697
0.14203
0.145231
0.146867
0.147643
0.147207
-0.0630109
-0.0639084
-0.0622736
-0.0568083
-0.0469898
-0.0330642
-0.0158601
0.00345445
0.0235994
0.0433791
0.0618234
0.0782588
0.0923135
0.103875
0.113021
0.119952
0.124892
0.128085
0.13034
0.131657
-0.111495
-0.10997
-0.106723
-0.0999045
-0.0887883
-0.0735528
-0.054949
-0.034084
-0.0122172
0.00944049
0.0298781
0.0483673
0.0644796
0.0780527
0.0891285
0.097884
0.104531
0.109285
0.112981
0.115811
-0.158127
-0.154329
-0.149478
-0.141376
-0.129067
-0.112653
-0.0928107
-0.0705703
-0.0471599
-0.0237935
-0.00151459
0.0188977
0.0369593
0.052457
0.0653923
0.0759162
0.0842271
0.0905231
0.0956298
0.0998687
-0.202714
-0.196717
-0.190321
-0.181008
-0.167609
-0.150164
-0.129246
-0.105812
-0.0810473
-0.0561557
-0.0322031
-0.0100139
0.00987417
0.0271958
0.0419097
0.0541368
0.0640607
0.0718635
0.0783435
0.0839299
-0.245051
-0.236931
-0.229056
-0.218612
-0.204232
-0.185891
-0.164068
-0.139636
-0.11371
-0.0874886
-0.0620431
-0.038237
-0.016659
0.00237336
0.0187739
0.0326302
0.0441083
0.0533745
0.0611862
0.0680644
-0.284951
-0.274799
-0.265519
-0.254024
-0.238772
-0.219673
-0.197114
-0.17187
-0.144996
-0.117646
-0.0908983
-0.0656481
-0.0425292
-0.0219109
-0.00392606
0.0114766
0.0244422
0.0351209
0.0442189
0.0523352
-0.322254
-0.310176
-0.29957
-0.287108
-0.271089
-0.25137
-0.228241
-0.202378
-0.174759
-0.14649
-0.118643
-0.0921312
-0.0676316
-0.045563
-0.026106
-0.00924881
0.00513002
0.0171628
0.0274966
0.0367982
-0.356833
-0.342947
-0.3311
-0.317753
-0.301073
-0.280865
-0.257328
-0.231034
-0.202875
-0.1739
-0.14516
-0.117579
-0.0918683
-0.0684952
-0.0476876
-0.0294757
-0.0137655
-0.000444214
0.0110697
0.0215026
-0.388591
-0.373025
-0.360026
-0.34588
-0.328639
-0.308067
-0.284276
-0.257732
-0.229236
-0.199768
-0.170345
-0.141893
-0.11515
-0.0906258
-0.0685978
-0.0491392
-0.0321868
-0.0176488
-0.00501719
0.00649306
-0.417459
-0.400352
-0.386296
-0.371435
-0.35373
-0.332911
-0.30901
-0.28239
-0.253751
-0.223999
-0.194105
-0.164984
-0.137393
-0.111881
-0.0887705
-0.0681793
-0.0500814
-0.0344026
-0.0207258
-0.00818927
-0.443403
-0.424901
-0.409886
-0.394394
-0.376316
-0.35536
-0.331481
-0.304945
-0.27635
-0.246517
-0.216361
-0.186775
-0.158526
-0.132193
-0.108145
-0.0865453
-0.0674006
-0.0506595
-0.0360218
-0.0225077
-0.466414
-0.446671
-0.4308
-0.41476
-0.396395
-0.375399
-0.351664
-0.325359
-0.296981
-0.267261
-0.237047
-0.207198
-0.178482
-0.151502
-0.126667
-0.104186
-0.0841054
-0.0664046
-0.0508222
-0.0364629
-0.486514
-0.465688
-0.449067
-0.432561
-0.41399
-0.393044
-0.369559
-0.343616
-0.315614
-0.286187
-0.25611
-0.226198
-0.197207
-0.169756
-0.144289
-0.121058
-0.100154
-0.081583
-0.0651401
-0.0501389
-0.503749
-0.482005
-0.464741
-0.44785
-0.429147
-0.408329
-0.385187
-0.359722
-0.332237
-0.30327
-0.273515
-0.243732
-0.214654
-0.186909
-0.160968
-0.137126
-0.115514
-0.0961704
-0.0789487
-0.0632659
-0.518193
-0.495697
-0.477899
-0.460703
-0.441938
-0.421316
-0.398594
-0.373705
-0.346861
-0.318503
-0.28924
-0.259768
-0.230789
-0.202925
-0.176671
-0.152357
-0.130157
-0.110141
-0.0922219
-0.0759
-0.529941
-0.506859
-0.488637
-0.471214
-0.452453
-0.432085
-0.409848
-0.385614
-0.359514
-0.331896
-0.303279
-0.27429
-0.245584
-0.217775
-0.191367
-0.166724
-0.144059
-0.123473
-0.104943
-0.0880669
-0.539107
-0.515606
-0.497069
-0.479497
-0.460799
-0.440737
-0.419034
-0.395519
-0.370247
-0.343479
-0.315643
-0.287291
-0.259026
-0.231438
-0.205035
-0.180206
-0.1572
-0.136151
-0.117096
-0.0997492
-0.545825
-0.522067
-0.503325
-0.485679
-0.4671
-0.447386
-0.426257
-0.403507
-0.379127
-0.353296
-0.326356
-0.29878
-0.27111
-0.243902
-0.217659
-0.192786
-0.169565
-0.14816
-0.128667
-0.11093
-0.550243
-0.526386
-0.507545
-0.489901
-0.471494
-0.452163
-0.431635
-0.40968
-0.386236
-0.361411
-0.335461
-0.308779
-0.281842
-0.255162
-0.229227
-0.204451
-0.181142
-0.159491
-0.139646
-0.121601
-0.552518
-0.528717
-0.509881
-0.49231
-0.474125
-0.455208
-0.4353
-0.414156
-0.391676
-0.367902
-0.343014
-0.317324
-0.29124
-0.265225
-0.239738
-0.215196
-0.191922
-0.170135
-0.150027
-0.13176
-0.55282
-0.529218
-0.51049
-0.493061
-0.475147
-0.456669
-0.437391
-0.417064
-0.395558
-0.372861
-0.349084
-0.324463
-0.299334
-0.274102
-0.249195
-0.225016
-0.201903
-0.180089
-0.159807
-0.141404
-0.551322
-0.528057
-0.509531
-0.492314
-0.474716
-0.456699
-0.438056
-0.418541
-0.398005
-0.376393
-0.353756
-0.330257
-0.306163
-0.281819
-0.257608
-0.233916
-0.211082
-0.189352
-0.168984
-0.150538
-0.548201
-0.525398
-0.507166
-0.490227
-0.472988
-0.455454
-0.437446
-0.418731
-0.399149
-0.378613
-0.357123
-0.33478
-0.31178
-0.288406
-0.264995
-0.241902
-0.219463
-0.197925
-0.177561
-0.159171
-0.543635
-0.521409
-0.503557
-0.486958
-0.47012
-0.453087
-0.435712
-0.417779
-0.399126
-0.379644
-0.359292
-0.338114
-0.316246
-0.293906
-0.27138
-0.248988
-0.22705
-0.205811
-0.185543
-0.167317
-0.537798
-0.516252
-0.498858
-0.482659
-0.466263
-0.44975
-0.433004
-0.415832
-0.398075
-0.379613
-0.360374
-0.340354
-0.319633
-0.29837
-0.276796
-0.255192
-0.233855
-0.213017
-0.192936
-0.174997
-0.530861
-0.510085
-0.493221
-0.477477
-0.461562
-0.445587
-0.429467
-0.413033
-0.396137
-0.378653
-0.360488
-0.3416
-0.322021
-0.301856
-0.281283
-0.260537
-0.239888
-0.219551
-0.199748
-0.182236
-0.522987
-0.50306
-0.486789
-0.471552
-0.456155
-0.440736
-0.425239
-0.409521
-0.393447
-0.376894
-0.359754
-0.341959
-0.3235
-0.304432
-0.284886
-0.265051
-0.245167
-0.225422
-0.20599
-0.189068
-0.514333
-0.495319
-0.479698
-0.465014
-0.45017
-0.435325
-0.42045
-0.405426
-0.390137
-0.374464
-0.358294
-0.341541
-0.324161
-0.306173
-0.28766
-0.268769
-0.249708
-0.230641
-0.211669
-0.195532
-0.505043
-0.486994
-0.472071
-0.457984
-0.443725
-0.429472
-0.415219
-0.400871
-0.38633
-0.371486
-0.356227
-0.340455
-0.324104
-0.307159
-0.289664
-0.271729
-0.253534
-0.235217
-0.216792
-0.201665
-0.49525
-0.478209
-0.464024
-0.45057
-0.436927
-0.423284
-0.409654
-0.395966
-0.38214
-0.368076
-0.353668
-0.338812
-0.323427
-0.307473
-0.290963
-0.273975
-0.256666
-0.239156
-0.221361
-0.207502
-0.485079
-0.469074
-0.45566
-0.442872
-0.429872
-0.416854
-0.403852
-0.390811
-0.377669
-0.36434
-0.350723
-0.336716
-0.322228
-0.307202
-0.291627
-0.275555
-0.259127
-0.242461
-0.225367
-0.213056
-0.474637
-0.459689
-0.447071
-0.434976
-0.422642
-0.410267
-0.397895
-0.385492
-0.373008
-0.360372
-0.347491
-0.334266
-0.320604
-0.306433
-0.291728
-0.27652
-0.260943
-0.245125
-0.228786
-0.218297
-0.464022
-0.450142
-0.43834
-0.426959
-0.415311
-0.403592
-0.391857
-0.380083
-0.368236
-0.356255
-0.344059
-0.331553
-0.318643
-0.305252
-0.29134
-0.276925
-0.26214
-0.247138
-0.231575
-0.223107
-0.45332
-0.44051
-0.429536
-0.418886
-0.40794
-0.39689
-0.385795
-0.374646
-0.363417
-0.35206
-0.340503
-0.328657
-0.31643
-0.303741
-0.290539
-0.276832
-0.262748
-0.248477
-0.233668
-0.227211
-0.442602
-0.430861
-0.420722
-0.410814
-0.400582
-0.39021
-0.379759
-0.369229
-0.358604
-0.347844
-0.336885
-0.325646
-0.314037
-0.301976
-0.289401
-0.276303
-0.262804
-0.249128
-0.235018
-0.230144
-0.431933
-0.421253
-0.41195
-0.402791
-0.393281
-0.383592
-0.373788
-0.363873
-0.353839
-0.343652
-0.333257
-0.322578
-0.311531
-0.300027
-0.287997
-0.27541
-0.262351
-0.249077
-0.23559
-0.231112
-0.421366
-0.411734
-0.403265
-0.394856
-0.386072
-0.377069
-0.367911
-0.358607
-0.349151
-0.339517
-0.329657
-0.3195
-0.308963
-0.297957
-0.2864
-0.274229
-0.261448
-0.248296
-0.234768
-0.226667
-0.410945
-0.402346
-0.394704
-0.387045
-0.378984
-0.370667
-0.362152
-0.353451
-0.344563
-0.335465
-0.326113
-0.316444
-0.306376
-0.29582
-0.284679
-0.272852
-0.260229
-0.246957
-0.231865
-0.204755
-0.40071
-0.393127
-0.386302
-0.379384
-0.372042
-0.364406
-0.356528
-0.348422
-0.340089
-0.33151
-0.322645
-0.313435
-0.303804
-0.29366
-0.282899
-0.271397
-0.258942
-0.2457
-0.231275
-0.197719
-0.390696
-0.384109
-0.378088
-0.371901
-0.365268
-0.358302
-0.351052
-0.34353
-0.335739
-0.327662
-0.319263
-0.310489
-0.301267
-0.291508
-0.281108
-0.269939
-0.257753
-0.24479
-0.231764
-0.198385
-0.380934
-0.375322
-0.370088
-0.364619
-0.35868
-0.352371
-0.345735
-0.338783
-0.331519
-0.323926
-0.315975
-0.307614
-0.298778
-0.289382
-0.279329
-0.268497
-0.256643
-0.24406
-0.23197
-0.199716
-0.371455
-0.366795
-0.362329
-0.357558
-0.352297
-0.346627
-0.340587
-0.334188
-0.327432
-0.320306
-0.312781
-0.304814
-0.296343
-0.287291
-0.277569
-0.267068
-0.255561
-0.243381
-0.231812
-0.201041
-0.362289
-0.358555
-0.354835
-0.350742
-0.346135
-0.341084
-0.335618
-0.329751
-0.323483
-0.316803
-0.309686
-0.302091
-0.293965
-0.285239
-0.275833
-0.265651
-0.25449
-0.242726
-0.231508
-0.202569
-0.353467
-0.350633
-0.347633
-0.344192
-0.340215
-0.335756
-0.330841
-0.325481
-0.319678
-0.313421
-0.30669
-0.299447
-0.291647
-0.283228
-0.274124
-0.26425
-0.253434
-0.242088
-0.231145
-0.20427
-0.345023
-0.343057
-0.34075
-0.337933
-0.334556
-0.33066
-0.326268
-0.321388
-0.316024
-0.310167
-0.303798
-0.296887
-0.289392
-0.281264
-0.272446
-0.26287
-0.252393
-0.241458
-0.230749
-0.206048
-0.336994
-0.335862
-0.334216
-0.331991
-0.329182
-0.325817
-0.321915
-0.317487
-0.312534
-0.30705
-0.301019
-0.294416
-0.287208
-0.279352
-0.270807
-0.261517
-0.251374
-0.240832
-0.230343
-0.207836
-0.329418
-0.329081
-0.328059
-0.326392
-0.324115
-0.321247
-0.317802
-0.313792
-0.309221
-0.304082
-0.298364
-0.292046
-0.285103
-0.277503
-0.269215
-0.260199
-0.250383
-0.240213
-0.22995
-0.209587
-0.322337
-0.322749
-0.322315
-0.321166
-0.319383
-0.316973
-0.31395
-0.310325
-0.306102
-0.30128
-0.295848
-0.289792
-0.283093
-0.27573
-0.267683
-0.258929
-0.249427
-0.239606
-0.229582
-0.21126
-0.315794
-0.316906
-0.317015
-0.316344
-0.315013
-0.313022
-0.310382
-0.307106
-0.3032
-0.298663
-0.29349
-0.287671
-0.281195
-0.274048
-0.266225
-0.257718
-0.248516