/*--------------------------------*- C++ -*----------------------------------*\
  =========                 |
  \\      /  F ield         | OpenFOAM: The Open Source CFD Toolbox
   \\    /   O peration     | Website:  https://openfoam.org
    \\  /    A nd           | Version:  7
     \\/     M anipulation  |
\*---------------------------------------------------------------------------*/
FoamFile
{
    version     2.0;
    format      ascii;
    class       volScalarField;
    location    "1";
    object      p;
}
// * * * * * * * * * * * * * * * * * * * * * * * * * * * * * * * * * * * * * //

dimensions      [0 2 -2 0 0 0 0];

internalField   nonuniform List<scalar> 
344
(
0.0332718
0.0327783
0.0322848
0.0317914
0.0312981
0.0308049
0.0303117
0.0298186
0.0293255
0.0288325
0.0283395
0.0278465
0.0273535
0.0268606
0.0263676
0.0258747
0.0253818
0.0248889
0.024396
0.0239031
0.0234102
0.0229173
0.0224244
0.0219315
0.0214386
0.0209457
0.0204528
0.0199599
0.019467
0.0189741
0.0184812
0.0179883
0.0174955
0.0170026
0.0165097
0.0160168
0.015524
0.0150311
0.0145383
0.0140455
0.0135526
0.0130598
0.012567
0.0120741
0.0115813
0.0110885
0.0105957
0.0101028
0.00961001
0.00911719
0.00862438
0.00813156
0.00763874
0.00714592
0.00665311
0.00616029
0.00566747
0.00517465
0.00468184
0.00418902
0.0036962
0.00320338
0.00271056
0.00221774
0.00172491
0.00123208
0.000739251
0.000246417
0.0332718
0.0327782
0.0322847
0.0317914
0.0312981
0.0308049
0.0303117
0.0298186
0.0293255
0.0288325
0.0283395
0.0278465
0.0273535
0.0268606
0.0263676
0.0258747
0.0253818
0.0248889
0.024396
0.0239031
0.0234102
0.0229173
0.0224244
0.0219315
0.0214386
0.0209457
0.0204528
0.0199599
0.019467
0.0189741
0.0184812
0.0179883
0.0174954
0.0170026
0.0165097
0.0160168
0.015524
0.0150311
0.0145383
0.0140454
0.0135526
0.0130598
0.012567
0.0120741
0.0115813
0.0110885
0.0105957
0.0101028
0.00961001
0.00911719
0.00862437
0.00813156
0.00763874
0.00714592
0.00665311
0.00616029
0.00566747
0.00517465
0.00468184
0.00418902
0.0036962
0.00320338
0.00271056
0.00221774
0.00172491
0.00123208
0.000739251
0.000246417
0.0332716
0.0327781
0.0322846
0.0317913
0.031298
0.0308048
0.0303117
0.0298186
0.0293255
0.0288325
0.0283394
0.0278465
0.0273535
0.0268606
0.0263676
0.0258747
0.0253818
0.0248889
0.024396
0.0239031
0.0234102
0.0229173
0.0224244
0.0219315
0.0214386
0.0209457
0.0204528
0.0199599
0.019467
0.0189741
0.0184812
0.0179883
0.0174954
0.0170026
0.0165097
0.0160168
0.015524
0.0150311
0.0145383
0.0140454
0.0135526
0.0130598
0.0125669
0.0120741
0.0115813
0.0110885
0.0105957
0.0101028
0.00961001
0.00911719
0.00862437
0.00813156
0.00763874
0.00714592
0.00665311
0.00616029
0.00566747
0.00517465
0.00468183
0.00418902
0.0036962
0.00320338
0.00271056
0.00221774
0.00172491
0.00123208
0.000739251
0.000246417
0.0332714
0.0327779
0.0322845
0.0317912
0.0312979
0.0308047
0.0303116
0.0298185
0.0293254
0.0288324
0.0283394
0.0278464
0.0273535
0.0268605
0.0263676
0.0258747
0.0253818
0.0248889
0.024396
0.0239031
0.0234102
0.0229173
0.0224244
0.0219315
0.0214386
0.0209457
0.0204528
0.0199599
0.019467
0.0189741
0.0184812
0.0179883
0.0174954
0.0170026
0.0165097
0.0160168
0.015524
0.0150311
0.0145383
0.0140454
0.0135526
0.0130598
0.0125669
0.0120741
0.0115813
0.0110885
0.0105957
0.0101028
0.00961001
0.00911719
0.00862437
0.00813155
0.00763874
0.00714592
0.0066531
0.00616029
0.00566747
0.00517465
0.00468183
0.00418902
0.0036962
0.00320338
0.00271056
0.00221774
0.00172491
0.00123208
0.000739251
0.000246417
0.0332711
0.0327777
0.0322843
0.031791
0.0312978
0.0308046
0.0303115
0.0298184
0.0293254
0.0288324
0.0283394
0.0278464
0.0273534
0.0268605
0.0263676
0.0258747
0.0253818
0.0248889
0.024396
0.0239031
0.0234102
0.0229173
0.0224244
0.0219315
0.0214386
0.0209457
0.0204528
0.0199599
0.019467
0.0189741
0.0184812
0.0179883
0.0174954
0.0170026
0.0165097
0.0160168
0.015524
0.0150311
0.0145383
0.0140454
0.0135526
0.0130598
0.0125669
0.0120741
0.0115813
0.0110885
0.0105957
0.0101028
0.00961001
0.00911719
0.00862437
0.00813155
0.00763874
0.00714592
0.0066531
0.00616028
0.00566747
0.00517465
0.00468183
0.00418902
0.0036962
0.00320338
0.00271057
0.00221774
0.00172492
0.00123208
0.000739252
0.000246417
0.0332708
0.0327774
0.0322841
0.0317908
)
;

boundaryField
{
    inlet
    {
        type            zeroGradient;
    }
    outlet
    {
        type            fixedValue;
        value           uniform 0;
    }
    wall
    {
        type            zeroGradient;
    }
    wedge1
    {
        type            wedge;
    }
    wedge2
    {
        type            wedge;
    }
    axis
    {
        type            empty;
    }
    procBoundary5to4
    {
        type            processor;
        value           nonuniform List<scalar> 5(0.0337655 0.0337655 0.0337653 0.033765 0.0337647);
    }
    procBoundary5to10
    {
        type            processor;
        value           uniform 0.0337643;
    }
    procBoundary5to11
    {
        type            processor;
        value           nonuniform List<scalar> 
69
(
0.0312976
0.0308045
0.0303114
0.0298183
0.0293253
0.0288323
0.0283393
0.0278463
0.0273534
0.0268605
0.0263676
0.0258747
0.0253818
0.0248888
0.0243959
0.023903
0.0234102
0.0229173
0.0224244
0.0219315
0.0214386
0.0209457
0.0204528
0.0199599
0.019467
0.0189741
0.0184812
0.0179883
0.0174954
0.0170026
0.0165097
0.0160168
0.015524
0.0150311
0.0145383
0.0140454
0.0135526
0.0130598
0.0125669
0.0120741
0.0115813
0.0110885
0.0105956
0.0101028
0.00961
0.00911718
0.00862437
0.00813155
0.00763873
0.00714592
0.0066531
0.00616028
0.00566746
0.00517465
0.00468183
0.00418902
0.0036962
0.00320338
0.00271056
0.00221774
0.00172491
0.00123208
0.000739251
0.000246417
0.0332704
0.0327771
0.0322838
0.0312976
0.0317906
)
;
    }
}


// ************************************************************************* //
