/*--------------------------------*- C++ -*----------------------------------*\
  =========                 |
  \\      /  F ield         | OpenFOAM: The Open Source CFD Toolbox
   \\    /   O peration     | Website:  https://openfoam.org
    \\  /    A nd           | Version:  7
     \\/     M anipulation  |
\*---------------------------------------------------------------------------*/
FoamFile
{
    version     2.0;
    format      ascii;
    class       volScalarField;
    location    "38.999394";
    object      p;
}
// * * * * * * * * * * * * * * * * * * * * * * * * * * * * * * * * * * * * * //

dimensions      [0 2 -2 0 0 0 0];

internalField   nonuniform List<scalar> 
5800
(
-0.287829
-0.292019
-0.29447
-0.295821
-0.296381
-0.296119
-0.295045
-0.293183
-0.290551
-0.287161
0.821266
0.78224
0.754585
0.732005
0.710924
0.690676
0.670418
0.649454
0.627436
0.604295
0.580162
0.821266
0.78224
0.754585
0.732005
0.710924
0.690676
0.670418
0.649454
0.627436
0.604295
0.580162
0.555293
0.53
0.504602
0.479392
0.454622
0.4305
0.407182
0.384803
0.363428
0.816738
0.777893
0.750387
0.727964
0.707068
0.68703
0.667001
0.646278
0.624504
0.601604
0.577703
0.553052
0.527961
0.50275
0.477712
0.453099
0.42912
0.405932
0.383663
0.362413
0.807717
0.769231
0.742022
0.719913
0.699385
0.679764
0.660191
0.639946
0.618659
0.596238
0.572797
0.548581
0.523895
0.499057
0.474361
0.450061
0.426368
0.403438
0.381389
0.360387
0.79427
0.75632
0.729553
0.707912
0.68793
0.668929
0.650033
0.630501
0.609937
0.588229
0.565475
0.541906
0.517824
0.493542
0.469356
0.445523
0.422257
0.399712
0.377991
0.357358
0.776498
0.739259
0.713076
0.69205
0.672788
0.654602
0.636597
0.618003
0.598394
0.577628
0.555779
0.533066
0.509781
0.486235
0.462724
0.439508
0.416807
0.394772
0.373487
0.35334
0.754534
0.718176
0.692714
0.672447
0.65407
0.636885
0.619975
0.602536
0.584102
0.564497
0.543766
0.52211
0.499811
0.477175
0.454499
0.432047
0.410046
0.388643
0.367896
0.348348
0.728541
0.69323
0.668623
0.649248
0.63191
0.615903
0.600281
0.5842
0.567152
0.548916
0.529506
0.509101
0.487968
0.466411
0.444724
0.423177
0.402006
0.381353
0.361246
0.342404
0.698714
0.664609
0.640981
0.622627
0.606472
0.591804
0.577647
0.563116
0.547649
0.530979
0.513083
0.494111
0.474317
0.453998
0.433449
0.412943
0.392726
0.372937
0.353567
0.33553
0.665274
0.632527
0.609998
0.592779
0.577939
0.564757
0.552228
0.53942
0.525716
0.510795
0.494591
0.477225
0.458933
0.440004
0.420732
0.401395
0.38225
0.363434
0.344893
0.327753
0.628467
0.597225
0.575905
0.559927
0.546518
0.534952
0.524195
0.513267
0.501489
0.488485
0.474138
0.458537
0.441898
0.424501
0.406637
0.38859
0.370629
0.352888
0.335263
0.319102
0.588565
0.558964
0.538954
0.524312
0.512436
0.502599
0.493739
0.484827
0.47512
0.464181
0.451841
0.438152
0.423304
0.407569
0.391236
0.374591
0.357916
0.341346
0.324718
0.309608
0.545859
0.518026
0.49942
0.486194
0.475937
0.467922
0.461064
0.454283
0.446773
0.438029
0.427829
0.41618
0.403251
0.389297
0.374605
0.359464
0.34417
0.328859
0.313302
0.299301
0.500659
0.474713
0.457593
0.445851
0.437282
0.431164
0.426389
0.421833
0.416622
0.410184
0.402237
0.392744
0.381844
0.369777
0.356826
0.343282
0.329454
0.315481
0.30106
0.288213
0.453291
0.42934
0.413776
0.403575
0.396745
0.392577
0.389946
0.387684
0.384853
0.380811
0.375212
0.367971
0.359196
0.349109
0.337987
0.32612
0.313834
0.301269
0.288039
0.276374
0.404093
0.382232
0.368288
0.359669
0.354612
0.352426
0.351977
0.352055
0.351661
0.350081
0.346905
0.341996
0.335426
0.327398
0.318179
0.30806
0.297379
0.286283
0.274289
0.263814
0.353414
0.333727
0.321452
0.314445
0.311179
0.310987
0.312732
0.315172
0.317248
0.318174
0.317474
0.314957
0.310656
0.304751
0.297498
0.289185
0.280161
0.270586
0.259865
0.250559
0.301606
0.284166
0.273601
0.26822
0.266744
0.268538
0.272468
0.277269
0.281822
0.285275
0.287084
0.287
0.285014
0.281281
0.276043
0.269584
0.262259
0.254248
0.244827
0.236616
0.249028
0.233892
0.225066
0.221315
0.221614
0.225364
0.231448
0.238581
0.245596
0.251574
0.255902
0.258272
0.258631
0.257104
0.253917
0.249346
0.243753
0.237341
0.229237
0.221963
0.196036
0.18325
0.17618
0.17405
0.176091
0.18175
0.189934
0.199349
0.208786
0.217262
0.224097
0.228924
0.231639
0.232337
0.231225
0.228568
0.224723
0.219929
0.213155
0.206582
0.142982
0.132577
0.127271
0.126741
0.130479
0.137982
0.148191
0.159815
0.17161
0.182534
0.191844
0.199107
0.204173
0.207099
0.208074
0.207347
0.205257
0.202079
0.196825
0.190695
0.0902123
0.0822065
0.0786619
0.0797002
0.0850751
0.0943407
0.106481
0.120219
0.134283
0.147584
0.159313
0.168976
0.176368
0.181511
0.18457
0.185786
0.185461
0.183961
0.181152
0.176601
0.0380641
0.032458
0.0306627
0.0332279
0.0401684
0.0511001
0.0650602
0.0807961
0.0970228
0.112605
0.126676
0.138681
0.148359
0.15569
0.160816
0.163966
0.16541
0.165499
0.164665
0.162168
-0.013134
-0.0163642
-0.0164298
-0.0123867
-0.00396234
0.00852632
0.0241791
0.0417795
0.0600393
0.0777882
0.0941044
0.108373
0.120277
0.129753
0.136913
0.141973
0.145174
0.14681
0.147586
0.147151
-0.0630729
-0.0639705
-0.0623359
-0.0568705
-0.0470518
-0.0331258
-0.0159213
0.0033937
0.0235392
0.0433193
0.0617641
0.0781999
0.0922551
0.103817
0.112964
0.119895
0.124835
0.128028
0.130284
0.1316
-0.111558
-0.110033
-0.106786
-0.0999674
-0.088851
-0.0736151
-0.0550109
-0.0341453
-0.012278
0.00938023
0.0298184
0.048308
0.0644208
0.0779943
0.0890705
0.0978263
0.104473
0.109228
0.112925
0.115755
-0.15819
-0.154392
-0.149542
-0.14144
-0.129131
-0.112716
-0.0928733
-0.0706323
-0.0472213
-0.0238542
-0.00157478
0.018838
0.0369001
0.0523983
0.0653341
0.0758583
0.0841696
0.090466
0.095573
0.0998124
-0.202778
-0.196781
-0.190385
-0.181072
-0.167673
-0.150228
-0.129309
-0.105875
-0.0811093
-0.0562171
-0.0322638
-0.010074
0.00981462
0.0271367
0.0418511
0.0540786
0.064003
0.0718061
0.0782865
0.0838734
-0.245116
-0.236996
-0.229122
-0.218677
-0.204297
-0.185956
-0.164132
-0.139699
-0.113773
-0.0875505
-0.0621042
-0.0382975
-0.016719
0.00231398
0.018715
0.0325718
0.0440503
0.0533169
0.0611291
0.0680078
-0.285017
-0.274865
-0.265585
-0.25409
-0.238837
-0.219739
-0.197179
-0.171934
-0.14506
-0.117708
-0.0909599
-0.0657091
-0.0425896
-0.0219706
-0.00398524
0.0114179
0.024384
0.0350632
0.0441616
0.0522784
-0.322321
-0.310243
-0.299637
-0.287175
-0.271156
-0.251436
-0.228307
-0.202443
-0.174823
-0.146553
-0.118705
-0.0921927
-0.0676923
-0.0456231
-0.0261656
-0.00930775
0.0050716
0.0171049
0.0274392
0.0367413
-0.3569
-0.343015
-0.331167
-0.317821
-0.30114
-0.280932
-0.257394
-0.231099
-0.20294
-0.173964
-0.145223
-0.117641
-0.0919295
-0.0685557
-0.0477474
-0.0295349
-0.0138242
-0.000502343
0.0110121
0.0214456
-0.388659
-0.373093
-0.360094
-0.345948
-0.328707
-0.308134
-0.284342
-0.257798
-0.229301
-0.199832
-0.170408
-0.141955
-0.115211
-0.0906867
-0.0686579
-0.0491987
-0.0322457
-0.0177071
-0.00507498
0.00643588
-0.417528
-0.400421
-0.386364
-0.371504
-0.353798
-0.332979
-0.309077
-0.282456
-0.253817
-0.224064
-0.194169
-0.165047
-0.137456
-0.111942
-0.088831
-0.0682391
-0.0501406
-0.0344612
-0.0207837
-0.00824658
-0.443472
-0.42497
-0.409955
-0.394463
-0.376385
-0.355428
-0.331549
-0.305012
-0.276416
-0.246582
-0.216425
-0.186838
-0.158588
-0.132255
-0.108206
-0.0866054
-0.0674601
-0.0507183
-0.03608
-0.0225651
-0.466484
-0.446741
-0.43087
-0.41483
-0.396464
-0.375469
-0.351733
-0.325427
-0.297048
-0.267327
-0.237111
-0.207262
-0.178545
-0.151564
-0.126728
-0.104246
-0.0841651
-0.0664637
-0.0508806
-0.0365203
-0.486584
-0.465759
-0.449138
-0.432632
-0.41406
-0.393113
-0.369628
-0.343684
-0.315681
-0.286253
-0.256176
-0.226262
-0.19727
-0.169818
-0.14435
-0.121119
-0.100214
-0.0816423
-0.0651987
-0.0501965
-0.50382
-0.482076
-0.464812
-0.447921
-0.429218
-0.408399
-0.385256
-0.359791
-0.332305
-0.303337
-0.273581
-0.243797
-0.214718
-0.186972
-0.16103
-0.137187
-0.115575
-0.09623
-0.0790076
-0.0633239
-0.518265
-0.495769
-0.47797
-0.460774
-0.442009
-0.421387
-0.398664
-0.373774
-0.346929
-0.318571
-0.289306
-0.259834
-0.230853
-0.202989
-0.176733
-0.152419
-0.130218
-0.110201
-0.092281
-0.0759582
-0.530013
-0.506931
-0.488709
-0.471286
-0.452524
-0.432156
-0.409918
-0.385684
-0.359583
-0.331964
-0.303346
-0.274356
-0.245649
-0.217839
-0.19143
-0.166786
-0.14412
-0.123533
-0.105003
-0.0881254
-0.53918
-0.515678
-0.497141
-0.479569
-0.460871
-0.440808
-0.419105
-0.395589
-0.370317
-0.343547
-0.31571
-0.287357
-0.259092
-0.231502
-0.205098
-0.180268
-0.157261
-0.136211
-0.117156
-0.0998079
-0.545899
-0.52214
-0.503397
-0.485752
-0.467173
-0.447458
-0.426329
-0.403577
-0.379196
-0.353365
-0.326424
-0.298846
-0.271176
-0.243966
-0.217722
-0.192848
-0.169626
-0.148221
-0.128727
-0.110989
-0.550316
-0.52646
-0.507618
-0.489973
-0.471567
-0.452235
-0.431707
-0.409751
-0.386307
-0.36148
-0.33553
-0.308846
-0.281908
-0.255227
-0.229291
-0.204514
-0.181203
-0.159551
-0.139706
-0.121661
-0.552592
-0.52879
-0.509955
-0.492383
-0.474198
-0.45528
-0.435372
-0.414227
-0.391747
-0.367971
-0.343083
-0.317391
-0.291307
-0.26529
-0.239803
-0.215259
-0.191985
-0.170196
-0.150087
-0.131819
-0.552894
-0.529292
-0.510563
-0.493135
-0.47522
-0.456741
-0.437463
-0.417136
-0.395629
-0.372931
-0.349153
-0.324531
-0.299401
-0.274168
-0.24926
-0.22508
-0.201966
-0.180151
-0.159867
-0.141463
-0.551396
-0.52813
-0.509604
-0.492388
-0.474789
-0.456772
-0.438128
-0.418613
-0.398076
-0.376463
-0.353825
-0.330325
-0.306231
-0.281885
-0.257674
-0.23398
-0.211145
-0.189414
-0.169045
-0.150598
-0.548275
-0.525472
-0.50724
-0.490301
-0.473061
-0.455527
-0.437518
-0.418803
-0.39922
-0.378683
-0.357193
-0.334848
-0.311848
-0.288473
-0.265061
-0.241967
-0.219526
-0.197987
-0.177622
-0.159231
-0.543709
-0.521483
-0.50363
-0.487031
-0.470193
-0.45316
-0.435785
-0.417851
-0.399197
-0.379714
-0.359362
-0.338183
-0.316314
-0.293973
-0.271446
-0.249053
-0.227114
-0.205873
-0.185605
-0.167378
-0.537872
-0.516326
-0.498932
-0.482732
-0.466336
-0.449823
-0.433077
-0.415904
-0.398147
-0.379684
-0.360444
-0.340423
-0.319701
-0.298437
-0.276863
-0.255257
-0.233919
-0.21308
-0.192998
-0.175057
-0.530935
-0.510159
-0.493295
-0.47755
-0.461635
-0.44566
-0.42954
-0.413105
-0.396209
-0.378724
-0.360558
-0.34167
-0.32209
-0.301924
-0.281349
-0.260602
-0.239953
-0.219614
-0.199811
-0.182297
-0.523062
-0.503134
-0.486863
-0.471625
-0.456228
-0.440809
-0.425312
-0.409593
-0.393519
-0.376965
-0.359824
-0.342029
-0.323568
-0.3045
-0.284953
-0.265117
-0.245231
-0.225486
-0.206052
-0.18913
-0.514407
-0.495393
-0.479771
-0.465088
-0.450243
-0.435398
-0.420522
-0.405498
-0.390209
-0.374535
-0.358364
-0.34161
-0.32423
-0.306241
-0.287727
-0.268835
-0.249773
-0.230705
-0.211732
-0.195593
-0.505117
-0.487068
-0.472144
-0.458057
-0.443798
-0.429545
-0.415291
-0.400943
-0.386401
-0.371557
-0.356298
-0.340525
-0.324173
-0.307227
-0.289731
-0.271795
-0.253599
-0.235281
-0.216855
-0.201727
-0.495324
-0.478283
-0.464097
-0.450643
-0.437
-0.423356
-0.409726
-0.396038
-0.382211
-0.368147
-0.353738
-0.338882
-0.323496
-0.307541
-0.291031
-0.274042
-0.256731
-0.239221
-0.221425
-0.207564
-0.485152
-0.469147
-0.455733
-0.442945
-0.429944
-0.416927
-0.403924
-0.390883
-0.37774
-0.364411
-0.350794
-0.336786
-0.322298
-0.307271
-0.291695
-0.275622
-0.259193
-0.242525
-0.225431
-0.213119
-0.47471
-0.459762
-0.447144
-0.435049
-0.422714
-0.410339
-0.397967
-0.385564
-0.373079
-0.360443
-0.347562
-0.334336
-0.320673
-0.306502
-0.291796
-0.276587
-0.26101
-0.245191
-0.22885
-0.21836
-0.464096
-0.450215
-0.438413
-0.427031
-0.415383
-0.403664
-0.391928
-0.380154
-0.368307
-0.356326
-0.344129
-0.331623
-0.318712
-0.305321
-0.291408
-0.276993
-0.262207
-0.247203
-0.231639
-0.22317
-0.453393
-0.440583
-0.429609
-0.418958
-0.408012
-0.396962
-0.385866
-0.374717
-0.363488
-0.352131
-0.340573
-0.328726
-0.316499
-0.303809
-0.290608
-0.276899
-0.262815
-0.248543
-0.233732
-0.227274
-0.442675
-0.430934
-0.420795
-0.410886
-0.400654
-0.390281
-0.379831
-0.3693
-0.358675
-0.347914
-0.336955
-0.325716
-0.314107
-0.302044
-0.289469
-0.276371
-0.26287
-0.249194
-0.235083
-0.230207
-0.432006
-0.421325
-0.412022
-0.402863
-0.393353
-0.383664
-0.373859
-0.363944
-0.353909
-0.343722
-0.333327
-0.322648
-0.3116
-0.300096
-0.288065
-0.275478
-0.262418
-0.249143
-0.235655
-0.231176
-0.421438
-0.411806
-0.403337
-0.394928
-0.386143
-0.377141
-0.367982
-0.358677
-0.349221
-0.339587
-0.329726
-0.319569
-0.309032
-0.298026
-0.286468
-0.274296
-0.261515
-0.248362
-0.234834
-0.226731
-0.411017
-0.402418
-0.394776
-0.387116
-0.379055
-0.370738
-0.362223
-0.353522
-0.344633
-0.335535
-0.326183
-0.316513
-0.306445
-0.295888
-0.284747
-0.272919
-0.260296
-0.247024
-0.23193
-0.20482
-0.400782
-0.393199
-0.386374
-0.379456
-0.372113
-0.364476
-0.356598
-0.348493
-0.340159
-0.33158
-0.322714
-0.313504
-0.303873
-0.293728
-0.282967
-0.271464
-0.259009
-0.245767
-0.23134
-0.197784
-0.390768
-0.384181
-0.378159
-0.371972
-0.365339
-0.358373
-0.351122
-0.3436
-0.335809
-0.327731
-0.319333
-0.310558
-0.301336
-0.291576
-0.281176
-0.270006
-0.25782
-0.244857
-0.23183
-0.19845
-0.381006
-0.375393
-0.370159
-0.364689
-0.358751
-0.352442
-0.345805
-0.338853
-0.331588
-0.323996
-0.316044
-0.307683
-0.298846
-0.28945
-0.279397
-0.268565
-0.25671
-0.244126
-0.232035
-0.199781
-0.371526
-0.366866
-0.3624
-0.357629
-0.352367
-0.346697
-0.340657
-0.334257
-0.327501
-0.320375
-0.31285
-0.304883
-0.296412
-0.287359
-0.277637
-0.267135
-0.255627
-0.243447
-0.231877
-0.201105
-0.362359
-0.358626
-0.354906
-0.350812
-0.346205
-0.341153
-0.335688
-0.32982
-0.323552
-0.316872
-0.309754
-0.30216
-0.294034
-0.285307
-0.2759
-0.265718
-0.254557
-0.242792
-0.231574
-0.202633
-0.353537
-0.350703
-0.347703
-0.344262
-0.340285
-0.335825
-0.33091
-0.32555
-0.319747
-0.31349
-0.306758
-0.299516
-0.291715
-0.283296
-0.274191
-0.264317
-0.2535
-0.242154
-0.23121
-0.204334
-0.345093
-0.343127
-0.34082
-0.338003
-0.334626
-0.33073
-0.326337
-0.321457
-0.316093
-0.310236
-0.303866
-0.296955
-0.28946
-0.281332
-0.272513
-0.262936
-0.25246
-0.241524
-0.230814
-0.206112
-0.337064
-0.335932
-0.334285
-0.33206
-0.329251
-0.325886
-0.321984
-0.317556
-0.312602
-0.307118
-0.301087
-0.294484
-0.287275
-0.27942
-0.270874
-0.261583
-0.25144
-0.240897
-0.230408
-0.2079
-0.329488
-0.32915
-0.328129
-0.326461
-0.324184
-0.321316
-0.317871
-0.313861
-0.309289
-0.30415
-0.298432
-0.292114
-0.285171
-0.27757
-0.269282
-0.260265
-0.250448
-0.240278
-0.230014
-0.209651
-0.322406
-0.322819
-0.322384
-0.321235
-0.319452
-0.317042
-0.314019
-0.310394
-0.306171
-0.301348
-0.295916
-0.28986
-0.283161
-0.275797
-0.267749
-0.258995
-0.249492
-0.239671
-0.229646
-0.211324
-0.315863
-0.316975
-0.317084
-0.316413
-0.315082
-0.313091
-0.310451
-0.307175
-0.303268
-0.298731
-0.293558
-0.287739
-0.281262
-0.274115
-0.266292
-0.257784
-0.248581
-0.239084
-0.229311
-0.212885
-0.309902
-0.311657
-0.312262
-0.312025
-0.311103
-0.309489
-0.307192
-0.304228
-0.300604
-0.296322
-0.291379
-0.285772
-0.279495
-0.272545
-0.264927
-0.256649
-0.247727
-0.238524
-0.229013
-0.214309
-0.304567
-0.306903
-0.307952
-0.308102
-0.307543
-0.306262
-0.304269
-0.301579
-0.298203
-0.294143
-0.289403
-0.283982
-0.277881
-0.271106
-0.263674
-0.255606
-0.24694
-0.238003
-0.228752
-0.215576
-0.2999
-0.302748
-0.304188
-0.304674
-0.30443
-0.303438
-0.301705
-0.299252
-0.296088
-0.29222
-0.287653
-0.282392
-0.276444
-0.269822
-0.262553
-0.254671
-0.246235
-0.237529
-0.22853
-0.216673
-0.295943
-0.299228
-0.300999
-0.30177
-0.301791
-0.30104
-0.299526
-0.29727
-0.294283
-0.290575
-0.286153
-0.281025
-0.275205
-0.268713
-0.261582
-0.253862
-0.245623
-0.237114
-0.228346
-0.29273
-0.296372
-0.298412
-0.299413
-0.299649
-0.299092
-0.297754
-0.295656
-0.292811
-0.28923
-0.284923
-0.279903
-0.274186
-0.267798
-0.260781
-0.253193
-0.245116
-0.236768
-0.228199
-0.290292
-0.294206
-0.29645
-0.297626
-0.298023
-0.297614
-0.296407
-0.294427
-0.291689
-0.288203
-0.283983
-0.279044
-0.273404
-0.267096
-0.260166
-0.252678
-0.244726
-0.236499
-0.228089
-0.288653
-0.29275
-0.295132
-0.296425
-0.29693
-0.296619
-0.295501
-0.2936
-0.290932
-0.28751
-0.283348
-0.278462
-0.272874
-0.26662
-0.259748
-0.252329
-0.244461
-0.236316
-0.228016
-0.287829
-0.292019
-0.29447
-0.295821
-0.296381
-0.296119
-0.295045
-0.293183
-0.290551
-0.287161
-0.283028
-0.278169
-0.272607
-0.266379
-0.259536
-0.252152
-0.244326
-0.236222
-0.22798
0.176864
0.180951
0.188544
0.197165
0.206309
0.213521
0.219013
0.218924
0.21711
0.203652
0.178397
0.182591
0.190495
0.199606
0.209499
0.21777
0.224692
0.226567
0.226869
0.217364
0.179826
0.184068
0.192162
0.201606
0.212063
0.221184
0.229335
0.232961
0.235259
0.229135
0.181224
0.185506
0.193806
0.203606
0.214659
0.224677
0.234094
0.239527
0.243846
0.240884
0.182561
0.1869
0.195413
0.205575
0.217218
0.228124
0.23876
0.245951
0.252191
0.252125
0.183831
0.188241
0.19695
0.207456
0.219658
0.231407
0.243183
0.252038
0.260094
0.262718
0.185032
0.189518
0.19841
0.209242
0.221969
0.234519
0.247362
0.257791
0.26758
0.27271
0.186161
0.190643
0.19979
0.210931
0.224151
0.237459
0.251303
0.263214
0.274647
0.282109
0.187218
0.191784
0.201084
0.212518
0.226197
0.240219
0.254994
0.268286
0.28127
0.290894
0.188198
0.192831
0.202286
0.213995
0.2281
0.242786
0.258423
0.272993
0.287425
0.299048
0.189099
0.193787
0.203394
0.215359
0.229853
0.245152
0.261579
0.277318
0.293092
0.30655
0.189917
0.194658
0.204403
0.216603
0.23145
0.247307
0.264453
0.281251
0.298251
0.313377
0.190651
0.19544
0.205309
0.217722
0.232885
0.249244
0.267034
0.284779
0.302884
0.319508
0.191298
0.19613
0.206113
0.218713
0.234153
0.250955
0.269313
0.287891
0.306974
0.324921
0.191856
0.196726
0.206816
0.219572
0.235249
0.252434
0.271282
0.290578
0.310508
0.329598
0.192323
0.197226
0.207333
0.220293
0.23617
0.253676
0.272935
0.29283
0.313472
0.333522
0.192699
0.197629
0.207834
0.220874
0.23691
0.254674
0.274265
0.294641
0.315855
0.336678
0.192982
0.197933
0.208188
0.22131
0.237468
0.255427
0.275267
0.296004
0.317651
0.339055
0.193171
0.198136
0.208424
0.221601
0.237841
0.25593
0.275937
0.296916
0.318851
0.340645
0.193266
0.198238
0.208543
0.221747
0.238028
0.256182
0.276272
0.297373
0.319453
0.341441
0.0531767
0.0518574
0.0495862
0.0468758
0.0440544
0.0413061
0.038733
0.0363882
0.0342877
0.0324325
0.0533153
0.051992
0.0497099
0.0469878
0.044154
0.0413931
0.0388079
0.0364519
0.0343413
0.0324774
0.0535856
0.0522527
0.0499509
0.0472062
0.044348
0.0415625
0.0389537
0.0365762
0.0344457
0.0325649
0.0539803
0.0526331
0.0503032
0.0475256
0.0446317
0.0418103
0.039167
0.036758
0.0345983
0.0326928
0.0544934
0.0531275
0.0507616
0.0479412
0.0450009
0.0421329
0.0394447
0.0369946
0.034797
0.0328593
0.0551192
0.0537306
0.0513213
0.0484489
0.0454522
0.0425272
0.0397841
0.0372838
0.0350396
0.0330626
0.0558527
0.0544379
0.0519782
0.0490452
0.0459823
0.0429905
0.040183
0.0376236
0.0353246
0.0333013
0.0566893
0.0552449
0.0527285
0.0497268
0.0465886
0.0435207
0.0406395
0.0380123
0.0356504
0.033574
0.0576249
0.0561478
0.0535688
0.050491
0.0472688
0.0441158
0.0411518
0.0384486
0.0360157
0.0338797
0.0586555
0.0571431
0.0544963
0.0513353
0.0480209
0.0447741
0.0417187
0.0389313
0.0364195
0.0342175
0.0597775
0.0582274
0.055508
0.0522575
0.0488431
0.0454943
0.042339
0.0394594
0.036861
0.0345865
0.0609875
0.0593978
0.0566015
0.0532557
0.049734
0.0462753
0.0430117
0.0400322
0.0373393
0.0349861
0.0622822
0.0606512
0.0577745
0.0543281
0.0506924
0.0471161
0.0437364
0.0406491
0.0378542
0.035416
0.0636586
0.061985
0.059025
0.0554733
0.0517172
0.0480162
0.0445124
0.0413099
0.0384051
0.0358758
0.0651135
0.0633965
0.0603508
0.05669
0.0528076
0.0489751
0.0453395
0.0420144
0.038992
0.0363653
0.066644
0.0648832
0.0617502
0.0579768
0.0539629
0.0499925
0.0462177
0.0427625
0.0396149
0.0368847
0.0682472
0.0664426
0.0632213
0.0593327
0.0551826
0.0510682
0.0471471
0.0435547
0.0402739
0.0374339
0.0699203
0.0680722
0.0647625
0.0607568
0.0564664
0.0522024
0.0481279
0.0443911
0.0409695
0.0380135
0.0716602
0.0697696
0.0663721
0.0622481
0.057814
0.0533953
0.0491606
0.0452724
0.0417021
0.0386237
0.0734641
0.0715323
0.0680485
0.0638059
0.0592253
0.0546472
0.0502459
0.0461994
0.0424724
0.0392653
0.0753291
0.0733578
0.06979
0.0654294
0.0607002
0.0559586
0.0513845
0.0471729
0.0432813
0.039939
0.0772521
0.0752437
0.0715951
0.0671177
0.0622389
0.0573303
0.0525774
0.0481941
0.0441298
0.0406458
0.0792302
0.0771875
0.0734621
0.0688703
0.0638415
0.0587629
0.0538257
0.0492643
0.0450193
0.0413868
0.0812602
0.0791865
0.0753894
0.0706865
0.0655082
0.0602573
0.0551307
0.0503848
0.045951
0.0421633
0.083339
0.0812382
0.0773752
0.0725655
0.0672393
0.0618145
0.0564938
0.0515573
0.0469267
0.0429767
0.0854634
0.0833397
0.079418
0.0745067
0.0690352
0.0634356
0.0579166
0.0527836
0.047948
0.0438286
0.0876301
0.0854884
0.0815158
0.0765093
0.0708962
0.0651219
0.0594009
0.0540658
0.0490171
0.0447209
0.0898358
0.0876814
0.0836668
0.0785726
0.0728227
0.0668744
0.0609485
0.0554058
0.0501361
0.0456556
0.0920771
0.0899159
0.085869
0.0806957
0.0748152
0.0686947
0.0625615
0.0568062
0.0513075
0.0466348
0.0943505
0.0921888
0.0881205
0.0828779
0.076874
0.070584
0.064242
0.0582693
0.0525339
0.047661
0.0966526
0.0944971
0.0904192
0.0851181
0.0789996
0.0725439
0.0659924
0.0597979
0.0538181
0.0487368
0.0989798
0.0968378
0.0927629
0.0874154
0.0811923
0.0745757
0.067815
0.0613947
0.0551633
0.049865
0.101329
0.0992076
0.0951492
0.0897686
0.0834525
0.0766809
0.0697125
0.0630629
0.0565728
0.0510485
0.103695
0.101603
0.0975758
0.0921766
0.0857804
0.0788612
0.0716875
0.0648055
0.0580502
0.0522907
0.106077
0.104022
0.10004
0.094638
0.0881761
0.0811178
0.0737427
0.0666259
0.0595993
0.0535949
0.108468
0.10646
0.10254
0.0971514
0.0906397
0.0834524
0.0758809
0.0685276
0.0612241
0.0549649
0.110868
0.108914
0.105072
0.0997152
0.0931713
0.0858662
0.0781052
0.070514
0.062929
0.0564047
0.11327
0.11138
0.107634
0.102328
0.0957705
0.0883606
0.0804184
0.072589
0.0647186
0.0579183
0.115673
0.113856
0.110223
0.104987
0.0984371
0.0909368
0.0828235
0.0747563
0.0665977
0.0595102
0.118072
0.116338
0.112835
0.107691
0.101171
0.093596
0.0853236
0.0770199
0.0685714
0.061185
0.120465
0.118823
0.115468
0.110438
0.10397
0.0963392
0.0879215
0.0793837
0.0706451
0.0629477
0.122846
0.121306
0.118119
0.113225
0.106835
0.0991671
0.0906202
0.0818518
0.0728244
0.0648033
0.125215
0.123785
0.120785
0.11605
0.109764
0.10208
0.0934226
0.0844284
0.0751151
0.0667573
0.127566
0.126257
0.123461
0.11891
0.112755
0.10508
0.0963313
0.0871175
0.0775234
0.0688154
0.129898
0.128718
0.126145
0.121803
0.115808
0.108165
0.0993489
0.0899232
0.0800555
0.0709833
0.132206
0.131165
0.128833
0.124724
0.118919
0.111336
0.102478
0.0928497
0.0827181
0.0732673
0.134489
0.133594
0.131522
0.127672
0.122088
0.114594
0.10572
0.095901
0.0855177
0.0756737
0.136743
0.136004
0.134209
0.130643
0.12531
0.117936
0.109077
0.0990811
0.0884611
0.0782092
0.138966
0.13839
0.136889
0.133633
0.128584
0.121362
0.112552
0.102394
0.0915554
0.0808804
0.141155
0.14075
0.13956
0.136638
0.131907
0.124871
0.116144
0.105843
0.0948075
0.0836944
0.143308
0.14308
0.142217
0.139655
0.135275
0.128462
0.119855
0.109432
0.0982243
0.0866585
0.145422
0.145379
0.144858
0.142681
0.138684
0.132131
0.123684
0.113164
0.101813
0.08978
0.147496
0.147644
0.147479
0.14571
0.14213
0.135877
0.127633
0.117042
0.105579
0.0930663
0.149528
0.149872
0.150076
0.148739
0.14561
0.139696
0.131699
0.12107
0.109531
0.0965251
0.151516
0.152061
0.152646
0.151763
0.149117
0.143586
0.135882
0.125248
0.113674
0.100164
0.153459
0.154209
0.155187
0.154779
0.152649
0.147542
0.14018
0.129581
0.118014
0.103991
0.155354
0.156314
0.157694
0.157782
0.156199
0.15156
0.14459
0.134069
0.122555
0.108014
0.157202
0.158374
0.160166
0.160767
0.159763
0.155635
0.149109
0.138714
0.127304
0.112241
0.159
0.160387
0.162598
0.163731
0.163335
0.159763
0.153732
0.143516
0.132263
0.116679
0.160749
0.162352
0.164988
0.166669
0.166909
0.163938
0.158456
0.148475
0.137436
0.121336
0.162446
0.164267
0.167334
0.169578
0.170479
0.168154
0.163276
0.153593
0.142825
0.126221
0.164093
0.166132
0.169633
0.172452
0.174041
0.172404
0.168184
0.158867
0.148431
0.131341
0.165687
0.167944
0.171883
0.175287
0.177586
0.176681
0.173174
0.164296
0.154253
0.136702
0.16723
0.169704
0.174081
0.17808
0.181111
0.180979
0.178238
0.169878
0.160289
0.142309
0.16872
0.171411
0.176226
0.180828
0.184609
0.185291
0.183372
0.175617
0.166547
0.148182
0.170158
0.173064
0.178317
0.183529
0.188079
0.189616
0.188575
0.181522
0.173044
0.15436
0.171544
0.174663
0.180353
0.186178
0.191511
0.193941
0.193826
0.187568
0.179736
0.160787
0.172876
0.176201
0.182318
0.18875
0.194861
0.198188
0.199005
0.193587
0.186351
0.167028
0.174153
0.177672
0.184195
0.19121
0.198073
0.202283
0.204022
0.199487
0.192808
0.172887
0.175395
0.179127
0.186073
0.19371
0.201427
0.206716
0.209731
0.206621
0.201324
0.182062
0.0312024
0.0304983
0.0297909
0.0290794
0.0283634
0.0276433
0.0269196
0.0261929
0.0254635
0.0247318
0.0239983
0.0232634
0.0225274
0.0217908
0.0210539
0.0203173
0.0195813
0.0188462
0.0181125
0.0173806
0.031242
0.0305374
0.0298297
0.0291176
0.0284007
0.0276793
0.0269539
0.026225
0.025493
0.0247584
0.0240215
0.0232829
0.0225429
0.0218019
0.0210606
0.0203192
0.0195782
0.018838
0.0180991
0.0173619
0.0313168
0.0306073
0.029895
0.0291783
0.0284565
0.0277298
0.0269989
0.0262642
0.0255263
0.0247854
0.0240422
0.023297
0.0225503
0.0218025
0.0210542
0.0203058
0.0195577
0.0188104
0.0180644
0.0173202
0.0314255
0.0307072
0.029987
0.0292628
0.0285331
0.0277982
0.0270589
0.0263156
0.0255689
0.0248191
0.0240668
0.0233123
0.0225563
0.0217991
0.0210412
0.0202832
0.0195254
0.0187685
0.0180129
0.017259
0.0315662
0.0308356
0.0301043
0.0293693
0.0286288
0.0278828
0.0271322
0.0263775
0.0256192
0.0248577
0.0240936
0.0233272
0.0225592
0.02179
0.0210201
0.02025
0.0194802
0.0187113
0.0179436
0.0171778
0.0317375
0.0309909
0.0302454
0.029497
0.0287427
0.0279827
0.027218
0.0264491
0.0256766
0.0249008
0.0241223
0.0233416
0.0225591
0.0217755
0.0209911
0.0202066
0.0194224
0.018639
0.0178571
0.0170771
0.031938
0.031172
0.0304093
0.0296446
0.0288738
0.0280971
0.0273157
0.02653
0.0257406
0.024948
0.0241526
0.023355
0.0225557
0.0217551
0.020954
0.0201526
0.0193517
0.0185518
0.0177533
0.0169568
0.0321664
0.0313777
0.030595
0.0298112
0.0290213
0.0282253
0.0274244
0.0266194
0.0258106
0.0249987
0.024184
0.023367
0.0225484
0.0217287
0.0209083
0.020088
0.0192681
0.0184492
0.017632
0.0168169
0.0324218
0.031607
0.0308014
0.0299961
0.0291844
0.0283664
0.0275436
0.0267166
0.025886
0.0250522
0.0242158
0.0233771
0.0225369
0.0216956
0.0208539
0.0200121
0.019171
0.0183311
0.0174929
0.016657
0.0327033
0.0318591
0.0310279
0.0301984
0.0293624
0.0285199
0.0276725
0.0268211
0.0259662
0.0251082
0.0242475
0.0233849
0.0225207
0.0216556
0.0207901
0.0199247
0.0190602
0.0181969
0.0173356
0.0164767
0.03301
0.0321333
0.0312737
0.0304175
0.0295546
0.028685
0.0278105
0.0269323
0.0260506
0.0251659
0.0242787
0.0233896
0.0224992
0.0216079
0.0207164
0.0198252
0.0189349
0.0180462
0.0171595
0.0162754
0.0333414
0.0324288
0.0315382
0.0306528
0.0297604
0.0288611
0.0279572
0.0270495
0.0261386
0.0252249
0.0243088
0.0233909
0.0224718
0.0215521
0.0206323
0.019713
0.0187948
0.0178783
0.0169641
0.0160527
0.033697
0.0327452
0.0318209
0.0309037
0.0299794
0.029048
0.0281119
0.0271724
0.0262298
0.0252846
0.0243371
0.0233881
0.022438
0.0214875
0.0205371
0.0195874
0.0186391
0.0176926
0.0167486
0.0158077
0.0340765
0.0330822
0.0321214
0.03117
0.0302112
0.0292449
0.0282743
0.0273004
0.0263237
0.0253444
0.0243632
0.0233806
0.0223972
0.0214136
0.0204303
0.0194479
0.0184671
0.0174884
0.0165124
0.0155397
0.0344797
0.0334395
0.0324396
0.0314513
0.0304554
0.0294517
0.0284439
0.0274331
0.0264197
0.025404
0.0243866
0.023368
0.0223488
0.0213297
0.0203111
0.0192937
0.0182781
0.0172649
0.0162546
0.0152479
0.0349065
0.033817
0.0327751
0.0317475
0.0307118
0.0296681
0.0286204
0.0275701
0.0265175
0.0254628
0.0244067
0.0233496
0.0222922
0.0212351
0.0201789
0.0191241
0.0180714
0.0170213
0.0159744
0.0149314
0.0353571
0.0342148
0.0331281
0.0320584
0.0309802
0.0298937
0.0288036
0.0277112
0.0266167
0.0255205
0.024423
0.0233249
0.0222269
0.0211294
0.020033
0.0189384
0.0178461
0.0167567
0.0156709
0.0145892
0.0358317
0.034633
0.0334985
0.0323841
0.0312606
0.0301286
0.0289932
0.0278559
0.026717
0.0255765
0.0244352
0.0232935
0.0221522
0.0210117
0.0198727
0.0187357
0.0176014
0.0164703
0.0153432
0.0142204
0.0363307
0.0350718
0.0338866
0.0327246
0.031553
0.0303726
0.0291891
0.0280043
0.026818
0.0256306
0.0244427
0.0232548
0.0220675
0.0208815
0.0196972
0.0185154
0.0173365
0.0161612
0.0149902
0.0138238
0.0368548
0.0355319
0.0342928
0.0330803
0.0318576
0.0306258
0.0293914
0.028156
0.0269196
0.0256825
0.0244452
0.0232083
0.0219724
0.0207381
0.0195059
0.0182766
0.0170506
0.0158285
0.014611
0.0133985
0.0374045
0.0360138
0.0347175
0.0334514
0.0321746
0.0308884
0.0295999
0.0283111
0.0270216
0.0257318
0.0244423
0.0231535
0.0218662
0.0205809
0.0192981
0.0180185
0.0167426
0.015471
0.0142045
0.0129433
0.0379809
0.0365182
0.0351613
0.0338385
0.0325043
0.0311605
0.0298149
0.0284694
0.0271239
0.0257784
0.0244336
0.0230901
0.0217484
0.0204092
0.019073
0.0177403
0.0164118
0.015088
0.0137696
0.012457
0.038585
0.0370461
0.0356251
0.0342422
0.0328473
0.0314425
0.0300365
0.0286312
0.0272264
0.0258221
0.024419
0.0230176
0.0216186
0.0202225
0.0188298
0.0174412
0.0160572
0.0146783
0.0133053
0.0119384
0.0392181
0.0375985
0.0361095
0.0346632
0.0332041
0.0317348
0.0302649
0.0287965
0.0273291
0.0258627
0.024398
0.0229357
0.0214762
0.0200201
0.0185679
0.0171203
0.0156778
0.0142408
0.0128103
0.0113862
0.0398817
0.0381768
0.0366159
0.0351023
0.0335753
0.0320379
0.0305006
0.0289655
0.027432
0.0259002
0.0243706
0.0228439
0.0213207
0.0198014
0.0182866
0.0167768
0.0152727
0.0137746
0.0122835
0.0107993
0.0405773
0.0387824
0.0371452
0.0355606
0.0339618
0.0323525
0.030744
0.0291386
0.0275354
0.0259345
0.0243365
0.022742
0.0211516
0.0195658
0.017985
0.0164099
0.0148408
0.0132784
0.0117237
0.0101762
0.0413068
0.0394168
0.037699
0.0360392
0.0343646
0.0326793
0.0309956
0.029316
0.0276393
0.0259657
0.0242956
0.0226297
0.0209686
0.0193127
0.0176625