/*--------------------------------*- C++ -*----------------------------------*\
  =========                 |
  \\      /  F ield         | OpenFOAM: The Open Source CFD Toolbox
   \\    /   O peration     | Website:  https://openfoam.org
    \\  /    A nd           | Version:  7
     \\/     M anipulation  |
\*---------------------------------------------------------------------------*/
FoamFile
{
    version     2.0;
    format      ascii;
    class       surfaceScalarField;
    location    "1.6";
    object      phi;
}
// * * * * * * * * * * * * * * * * * * * * * * * * * * * * * * * * * * * * * //

dimensions      [0 3 -1 0 0 0 0];

internalField   nonuniform List<scalar> 
627
(
5.48034e-05
1.08898e-10
5.48035e-05
9.11237e-11
5.48035e-05
7.60184e-11
5.48035e-05
6.32693e-11
5.48035e-05
5.26015e-11
5.48035e-05
4.36543e-11
5.48035e-05
3.61712e-11
5.48036e-05
2.99262e-11
5.48036e-05
2.46691e-11
5.48036e-05
2.02466e-11
5.48036e-05
1.65534e-11
5.48036e-05
1.34051e-11
5.48036e-05
1.07724e-11
5.48036e-05
8.5391e-12
7.3254e-12
4.28127e-05
9.77624e-07
4.32205e-05
8.82784e-07
4.35845e-05
7.91811e-07
4.39073e-05
7.05638e-07
4.4192e-05
6.24942e-07
4.44416e-05
5.50175e-07
4.46592e-05
4.81587e-07
4.4848e-05
4.19249e-07
4.50108e-05
3.63082e-07
4.51507e-05
3.12884e-07
4.52703e-05
2.6836e-07
4.53721e-05
2.29149e-07
4.54584e-05
1.94847e-07
4.55313e-05
1.65024e-07
4.55927e-05
1.39246e-07
4.56441e-05
1.17084e-07
4.56872e-05
9.81292e-08
4.57231e-05
8.19925e-08
4.57529e-05
6.83153e-08
4.57776e-05
5.67702e-08
4.57981e-05
4.70618e-08
4.5815e-05
3.89265e-08
4.5829e-05
3.21317e-08
4.58405e-05
2.64735e-08
4.58499e-05
2.17749e-08
4.58576e-05
1.7883e-08
4.5864e-05
1.46669e-08
4.58691e-05
1.20146e-08
4.58734e-05
9.83156e-09
4.58768e-05
8.03788e-09
4.58797e-05
6.56634e-09
4.5882e-05
5.36083e-09
4.58839e-05
4.37448e-09
4.58854e-05
3.56837e-09
4.58866e-05
2.91021e-09
4.58877e-05
2.37287e-09
4.58885e-05
1.93445e-09
4.58892e-05
1.57705e-09
4.58897e-05
1.28575e-09
4.58902e-05
1.04839e-09
4.58905e-05
8.54967e-10
4.58908e-05
6.973e-10
4.58911e-05
5.69049e-10
4.58913e-05
4.64815e-10
4.58915e-05
3.79766e-10
4.58916e-05
3.10352e-10
4.58917e-05
2.53954e-10
4.58918e-05
2.08125e-10
4.58919e-05
1.70675e-10
4.58919e-05
1.39918e-10
4.5892e-05
1.14421e-10
4.5892e-05
9.23959e-11
4.5892e-05
7.54964e-11
4.58921e-05
6.33592e-11
4.58921e-05
5.29266e-11
4.58921e-05
4.40714e-11
4.58921e-05
3.66408e-11
4.58921e-05
3.04188e-11
4.58922e-05
2.52043e-11
4.58922e-05
2.0829e-11
4.58922e-05
1.71606e-11
4.58922e-05
1.40902e-11
4.58922e-05
1.15184e-11
4.58922e-05
9.3165e-12
4.58922e-05
7.52586e-12
4.58922e-05
6.05763e-12
5.46835e-12
3.3845e-05
5.88985e-07
3.4195e-05
5.3279e-07
3.45081e-05
4.78686e-07
3.47865e-05
4.27269e-07
3.50325e-05
3.78977e-07
3.52485e-05
3.34112e-07
3.54373e-05
2.92854e-07
3.56012e-05
2.55271e-07
3.5743e-05
2.21338e-07
3.58649e-05
1.90953e-07
3.59693e-05
1.63955e-07
3.60583e-05
1.4014e-07
3.61339e-05
1.19274e-07
3.61978e-05
1.01108e-07
3.62517e-05
8.5385e-08
3.62969e-05
7.18519e-08
3.63348e-05
6.02633e-08
3.63664e-05
5.03875e-08
3.63927e-05
4.2009e-08
3.64145e-05
3.49301e-08
3.64326e-05
2.89723e-08
3.64476e-05
2.39761e-08
3.64599e-05
1.98001e-08
3.64701e-05
1.63204e-08
3.64784e-05
1.3429e-08
3.64853e-05
1.10327e-08
3.64909e-05
9.05142e-09
3.64955e-05
7.41674e-09
3.64992e-05
6.07063e-09
3.65023e-05
4.96422e-09
3.65048e-05
4.05617e-09
3.65069e-05
3.31205e-09
3.65085e-05
2.70304e-09
3.65099e-05
2.20517e-09
3.6511e-05
1.7986e-09
3.65119e-05
1.46662e-09
3.65127e-05
1.19569e-09
3.65133e-05
9.74802e-10
3.65137e-05
7.94742e-10
3.65141e-05
6.48002e-10
3.65145e-05
5.28427e-10
3.65147e-05
4.30969e-10
3.6515e-05
3.51737e-10
3.65151e-05
2.87327e-10
3.65153e-05
2.34719e-10
3.65154e-05
1.91777e-10
3.65155e-05
1.56878e-10
3.65156e-05
1.28536e-10
3.65156e-05
1.05385e-10
3.65157e-05
8.63293e-11
3.65157e-05
7.04844e-11
3.65158e-05
5.6707e-11
3.65158e-05
4.6377e-11
3.65158e-05
3.90622e-11
3.65158e-05
3.25867e-11
3.65159e-05
2.71325e-11
3.65159e-05
2.25519e-11
3.65159e-05
1.87338e-11
3.65159e-05
1.55224e-11
3.65159e-05
1.28062e-11
3.65159e-05
1.05445e-11
3.65159e-05
8.66867e-12
3.65159e-05
7.08205e-12
3.65159e-05
5.7098e-12
3.65159e-05
4.64627e-12
3.65159e-05
3.76758e-12
3.66582e-12
2.45352e-05
2.82218e-07
2.48122e-05
2.5582e-07
2.50606e-05
2.30289e-07
2.52819e-05
2.05931e-07
2.54779e-05
1.82973e-07
2.56504e-05
1.61576e-07
2.58014e-05
1.41843e-07
2.59329e-05
1.23819e-07
2.60467e-05
1.07507e-07
2.61448e-05
9.28682e-08
2.62289e-05
7.98345e-08
2.63008e-05
6.83157e-08
2.63618e-05
5.82059e-08
2.64135e-05
4.93899e-08
2.64572e-05
4.17484e-08
2.64939e-05
3.51621e-08
2.65246e-05
2.9515e-08
2.65503e-05
2.46968e-08
2.65717e-05
2.06047e-08
2.65895e-05
1.71438e-08
2.66042e-05
1.42283e-08
2.66164e-05
1.17812e-08
2.66265e-05
9.73428e-09
2.66348e-05
8.02732e-09
2.66416e-05
6.60801e-09
2.66472e-05
5.43099e-09
2.66518e-05
4.45725e-09
2.66556e-05
3.65342e-09
2.66587e-05
2.99117e-09
2.66612e-05
2.44662e-09
2.66632e-05
1.99951e-09
2.66649e-05
1.63298e-09
2.66663e-05
1.33294e-09
2.66674e-05
1.08755e-09
2.66683e-05
8.87122e-10
2.66691e-05
7.23446e-10
2.66697e-05
5.89829e-10
2.66702e-05
4.80876e-10
2.66706e-05
3.92059e-10
2.66709e-05
3.19664e-10
2.66712e-05
2.60658e-10
2.66714e-05
2.12574e-10
2.66716e-05
1.73513e-10
2.66717e-05
1.4175e-10
2.66718e-05
1.15779e-10
2.66719e-05
9.45825e-11
2.6672e-05
7.7342e-11
2.66721e-05
6.3348e-11
2.66721e-05
5.1939e-11
2.66722e-05
4.25309e-11
2.66722e-05
3.4667e-11
2.66722e-05
2.79513e-11
2.66722e-05
2.29266e-11
2.66723e-05
1.92441e-11
2.66723e-05
1.60195e-11
2.66723e-05
1.33343e-11
2.66723e-05
1.10794e-11
2.66723e-05
9.20604e-12
2.66723e-05
7.62602e-12
2.66723e-05
6.27867e-12
2.66723e-05
5.16681e-12
2.66723e-05
4.25597e-12
2.66723e-05
3.47422e-12
2.66723e-05
2.78475e-12
2.66723e-05
2.29035e-12
2.66723e-05
1.84244e-12
2.03728e-12
1.49126e-05
7.76564e-08
1.50978e-05
7.05937e-08
1.52644e-05
6.37179e-08
1.54132e-05
5.71222e-08
1.55453e-05
5.08743e-08
1.56618e-05
4.50254e-08
1.5764e-05
3.96093e-08
1.58532e-05
3.46445e-08
1.59306e-05
3.01359e-08
1.59974e-05
2.60775e-08
1.60548e-05
2.2454e-08
1.61038e-05
1.92435e-08
1.61456e-05
1.6419e-08
1.61811e-05
1.39506e-08
1.6211e-05
1.18068e-08
1.62362e-05
9.95565e-09
1.62574e-05
8.36573e-09
1.62751e-05
7.00709e-09
1.62898e-05
5.85149e-09
1.63021e-05
4.87283e-09
1.63123e-05
4.04737e-09
1.63207e-05
3.35376e-09
1.63276e-05
2.77291e-09
1.63334e-05
2.28807e-09
1.63381e-05
1.88457e-09
1.6342e-05
1.5497e-09
1.63452e-05
1.27244e-09
1.63478e-05
1.04339e-09
1.63499e-05
8.54575e-10
1.63517e-05
6.99228e-10
1.63531e-05
5.71604e-10
1.63543e-05
4.66927e-10
1.63552e-05
3.81222e-10
1.6356e-05
3.11099e-10
1.63566e-05
2.53789e-10
1.63571e-05
2.06995e-10
1.63576e-05
1.68776e-10
1.63579e-05
1.37594e-10
1.63582e-05
1.12187e-10
1.63584e-05
9.14741e-11
1.63586e-05
7.45812e-11
1.63588e-05
6.08161e-11
1.63589e-05
4.96504e-11
1.6359e-05
4.05655e-11
1.63591e-05
3.31258e-11
1.63591e-05
2.70636e-11
1.63592e-05
2.2117e-11
1.63592e-05
1.80995e-11
1.63593e-05
1.48524e-11
1.63593e-05
1.21681e-11
1.63593e-05
9.89205e-12
1.63593e-05
7.98264e-12
1.63594e-05
6.57637e-12
1.63594e-05
5.50029e-12
1.63594e-05
4.5567e-12
1.63594e-05
3.79942e-12
1.63594e-05
3.16258e-12
1.63594e-05
2.62213e-12
1.63594e-05
2.16826e-12
1.63594e-05
1.78484e-12
1.63594e-05
1.46635e-12
1.63594e-05
1.20877e-12
1.63594e-05
9.89701e-13
1.63594e-05
7.85761e-13
1.63594e-05
6.52737e-13
1.63594e-05
5.00817e-13
7.16626e-13
5.01493e-06
5.08553e-06
5.14925e-06
5.20637e-06
5.25724e-06
5.30227e-06
5.34188e-06
5.37652e-06
5.40666e-06
5.43274e-06
5.45519e-06
5.47443e-06
5.49085e-06
5.5048e-06
5.51661e-06
5.52656e-06
5.53493e-06
5.54194e-06
5.54779e-06
5.55266e-06
5.55671e-06
5.56006e-06
5.56284e-06
5.56512e-06
5.56701e-06
5.56856e-06
5.56983e-06
5.57087e-06
5.57173e-06
5.57243e-06
5.573e-06
5.57347e-06
5.57385e-06
5.57416e-06
5.57441e-06
5.57462e-06
5.57479e-06
5.57493e-06
5.57504e-06
5.57513e-06
5.5752e-06
5.57527e-06
5.57531e-06
5.57536e-06
5.57539e-06
5.57542e-06
5.57544e-06
5.57546e-06
5.57547e-06
5.57548e-06
5.57549e-06
5.5755e-06
5.57551e-06
5.57551e-06
5.57552e-06
5.57552e-06
5.57552e-06
5.57553e-06
5.57553e-06
5.57553e-06
5.57553e-06
5.57553e-06
5.57553e-06
5.57554e-06
5.57554e-06
5.57554e-06
)
;

boundaryField
{
    inlet
    {
        type            calculated;
        value           nonuniform 0();
    }
    outlet
    {
        type            calculated;
        value           nonuniform List<scalar> 6(5.48036e-05 4.58922e-05 3.65159e-05 2.66723e-05 1.63594e-05 5.57554e-06);
    }
    wall
    {
        type            calculated;
        value           uniform 0;
    }
    wedge1
    {
        type            wedge;
        value           nonuniform List<scalar> 
350
(
-6.33461e-17
-4.08764e-17
-6.88785e-17
-1.03937e-17
1.55407e-17
-5.70754e-17
-3.6887e-17
-6.22871e-17
-9.4209e-18
1.41556e-17
-5.10872e-17
-3.30651e-17
-5.59444e-17
-8.48045e-18
1.28016e-17
-4.54368e-17
-2.9449e-17
-4.99195e-17
-7.58359e-18
1.14977e-17
-4.01644e-17
-2.60662e-17
-4.42639e-17
-6.73865e-18
1.02576e-17
-3.52956e-17
-2.29352e-17
-3.90101e-17
-5.95009e-18
9.09338e-18
-3.08436e-17
-2.00658e-17
-3.41824e-17
-5.22371e-18
8.01099e-18
-2.68086e-17
-1.74605e-17
-2.97848e-17
-4.5594e-18
7.01644e-18
-2.31832e-17
-1.51152e-17
-2.58179e-17
-3.95913e-18
6.10995e-18
-1.99513e-17
-1.30211e-17
-2.22658e-17
-3.41965e-18
5.29259e-18
-1.70919e-17
-1.11654e-17
-1.91118e-17
-2.93973e-18
4.56091e-18
-1.45787e-17
-9.53225e-18
-1.63311e-17
-2.5159e-18
3.91122e-18
-1.23842e-17
-8.10447e-18
-1.3896e-17
-2.14413e-18
3.33868e-18
-1.04799e-17
-6.86393e-18
-1.17778e-17
-1.8205e-18
2.83721e-18
-8.83635e-18
-5.79219e-18
-9.94373e-18
-1.53915e-18
2.40189e-18
-7.42615e-18
-4.87137e-18
-8.3674e-18
-1.29749e-18
2.02499e-18
-6.22146e-18
-4.08427e-18
-7.01666e-18
-1.08964e-18
1.70173e-18
-5.19785e-18
-3.41462e-18
-5.86775e-18
-9.13132e-19
1.42465e-18
-4.33118e-18
-2.84735e-18
-4.89192e-18
-7.62509e-19
1.18957e-18
-3.60105e-18
-2.36892e-18
-4.06854e-18
-6.35538e-19
9.90145e-19
-2.98726e-18
-1.96662e-18
-3.37598e-18
-5.28757e-19
8.21834e-19
-2.47341e-18
-1.62956e-18
-2.79619e-18
-4.39572e-19
6.80063e-19
-2.04458e-18
-1.34812e-18
-2.31025e-18
-3.64158e-19
5.62024e-19
-1.68811e-18
-1.1138e-18
-1.90599e-18
-3.01481e-19
4.63273e-19
-1.39204e-18
-9.19333e-19
-1.5704e-18
-2.49629e-19
3.80992e-19
-1.14682e-18
-7.58061e-19
-1.29288e-18
-2.06862e-19
3.12497e-19
-9.44387e-19
-6.2494e-19
-1.06227e-18
-1.70842e-19
2.56309e-19
-7.77904e-19
-5.15247e-19
-8.72605e-19
-1.41356e-19
2.09711e-19
-6.40541e-19
-4.24923e-19
-7.16545e-19
-1.17201e-19
1.71233e-19
-5.27695e-19
-3.50624e-19
-5.88907e-19
-9.76781e-20
1.39314e-19
-4.3475e-19
-2.89452e-19
-4.82801e-19
-8.08393e-20
1.13631e-19
-3.58893e-19
-2.39292e-19
-3.96912e-19
-6.75942e-20
9.21496e-20
-2.96659e-19
-1.9832e-19
-3.25649e-19
-5.62899e-20
7.49834e-20
-2.46095e-19
-1.64894e-19
-2.68387e-19
-4.75014e-20
6.05407e-20
-2.0466e-19
-1.37546e-19
-2.206e-19
-3.98089e-20
4.91533e-20
-1.71239e-19
-1.15403e-19
-1.82087e-19
-3.36783e-20
3.9675e-20
-1.43674e-19
-9.71814e-20
-1.50605e-19
-2.87468e-20
3.1938e-20
-1.21017e-19
-8.22975e-20
-1.2502e-19
-2.48122e-20
2.55674e-20
-1.0251e-19
-7.00932e-20
-1.04596e-19
-2.18252e-20
2.01971e-20
-8.72223e-20
-6.00538e-20
-8.69826e-20
-1.88639e-20
1.62087e-20
-7.49018e-20
-5.18198e-20
-7.33951e-20
-1.68115e-20
1.2633e-20
-6.46433e-20
-4.50707e-20
-6.15288e-20
-1.47611e-20
1.00407e-20
-5.65311e-20
-3.96319e-20
-5.26357e-20
-1.3446e-20
7.64044e-21
-4.9829e-20
-3.52055e-20
-4.46493e-20
-1.19808e-20
6.0006e-21
-4.45838e-20
-3.16494e-20
-3.84527e-20
-1.09376e-20
4.52675e-21
-4.00998e-20
-2.87302e-20
-3.3485e-20
-1.01681e-20
3.28521e-21
-3.64031e-20
-2.62841e-20
-2.97518e-20
-9.73016e-21
2.12438e-21
-3.32342e-20
-2.41841e-20
-2.59521e-20
-8.9336e-21
1.49496e-21
-3.0858e-20
-2.25213e-20
-2.31325e-20
-8.3813e-21
8.78976e-22
-2.87186e-20
-2.11054e-20
-2.0855e-20
-8.01254e-21
3.38297e-22
-2.68315e-20
-1.98505e-20
-1.91728e-20
-7.81907e-21
-2.22993e-22
-2.5159e-20
-1.87168e-20
-1.71325e-20
-7.32277e-21
-4.4962e-22
2.07314e-20
-2.39734e-20
-1.78601e-20
-1.57972e-20
-7.03153e-21
-6.9675e-22
1.36533e-20
-2.29804e-20
-1.7215e-20
-1.48531e-20
-6.84924e-21
-9.02315e-22
8.02526e-21
-2.20918e-20
-1.66251e-20
-1.4231e-20
-6.80199e-21
-1.17501e-21
3.05848e-21
-2.11816e-20
-1.60312e-20
-1.32503e-20
-6.5215e-21
-1.22185e-21
-8.84999e-22
-2.05108e-20
-1.55257e-20
-1.27339e-20
-6.43024e-21
-1.38687e-21
-4.3811e-21
-1.98351e-20
-1.50549e-20
-1.1946e-20
-6.15606e-21
-1.38206e-21
-7.25213e-21
-1.93598e-20
-1.47145e-20
-1.14822e-20
-6.04029e-21
-1.45628e-21
-9.55444e-21
-1.90341e-20
-1.45584e-20
-1.13323e-20
-6.13397e-21
-1.61005e-21
-1.15537e-20
-1.85517e-20
-1.41615e-20
-1.07601e-20
-5.85911e-21
-1.56857e-21
-1.31298e-20
-1.81601e-20
-1.38325e-20
-1.03677e-20
-5.70425e-21
-1.57779e-21
-1.43918e-20
-1.77784e-20
-1.35469e-20
-1.00466e-20
-5.59299e-21
-1.59763e-21
-1.53923e-20
-1.73885e-20
-1.3255e-20
-9.74302e-21
-5.47953e-21
-1.60804e-21
-1.60562e-20
-1.69364e-20
-1.28948e-20
-9.42629e-21
-5.33618e-21
-1.59476e-21
-1.68269e-20
-1.67165e-20
-1.277e-20
-9.27463e-21
-5.30312e-21
-1.61359e-21
-1.7269e-20
-1.65822e-20
-1.26912e-20
-9.23055e-21
-5.2873e-21
-1.57964e-21
)
;
    }
    wedge2
    {
        type            wedge;
        value           nonuniform List<scalar> 
350
(
-6.32854e-17
-4.08293e-17
-6.88427e-17
-1.03722e-17
1.55483e-17
-5.70158e-17
-3.68407e-17
-6.2254e-17
-9.40102e-18
1.41622e-17
-5.10274e-17
-3.30192e-17
-5.59119e-17
-8.46119e-18
1.2808e-17
-4.53777e-17
-2.94033e-17
-4.98869e-17
-7.56408e-18
1.15041e-17
-4.01064e-17
-2.60212e-17
-4.42297e-17
-6.71808e-18
1.02649e-17
-3.52392e-17
-2.2891e-17
-3.89782e-17
-5.9307e-18
9.09984e-18
-3.07877e-17
-2.00224e-17
-3.41491e-17
-5.20366e-18
8.01811e-18
-2.67539e-17
-1.74176e-17
-2.97539e-17
-4.5406e-18
7.02267e-18
-2.31287e-17
-1.50728e-17
-2.57855e-17
-3.93966e-18
6.11688e-18
-1.98968e-17
-1.29788e-17
-2.22354e-17
-3.40134e-18
5.29871e-18
-1.70366e-17
-1.11229e-17
-1.90817e-17
-2.92187e-18
4.5668e-18
-1.45235e-17
-9.48983e-18
-1.63011e-17
-2.49807e-18
3.91712e-18
-1.23297e-17
-8.06233e-18
-1.3866e-17
-2.12616e-18
3.34459e-18
-1.0426e-17
-6.82218e-18
-1.17461e-17
-1.80153e-18
2.84393e-18
-8.78377e-18
-5.75108e-18
-9.91412e-18
-1.52121e-18
2.40786e-18
-7.37388e-18
-4.83085e-18
-8.33647e-18
-1.27899e-18
2.03161e-18
-6.17012e-18
-4.04413e-18
-6.9878e-18
-1.07215e-18
1.70753e-18
-5.14629e-18
-3.37467e-18
-5.83738e-18
-8.95013e-19
1.43112e-18
-4.27991e-18
-2.80753e-18
-4.86339e-18
-7.45426e-19
1.19524e-18
-3.54896e-18
-2.32883e-18
-4.04017e-18
-6.18626e-19
9.95719e-19
-2.9355e-18
-1.92662e-18
-3.34754e-18
-5.11731e-19
8.2748e-19
-2.42209e-18
-1.58981e-18
-2.76619e-18
-4.21657e-19
6.86438e-19
-1.99376e-18
-1.30862e-18
-2.282e-18
-3.4719e-19
5.67652e-19
-1.63712e-18
-1.0746e-18
-1.8782e-18
-2.84937e-19
4.68736e-19
-1.34153e-18
-8.80279e-19
-1.5426e-18
-2.3296e-19
3.86536e-19
-1.09706e-18
-7.19614e-19
-1.26404e-18
-1.89655e-19
3.18534e-19
-8.95113e-19
-5.86768e-19
-1.03503e-18
-1.54497e-19
2.61735e-19
-7.28339e-19
-4.77181e-19
-8.45594e-19
-1.25248e-19
2.15016e-19
-5.91573e-19
-3.87063e-19
-6.89568e-19
-1.01029e-19
1.76579e-19
-4.79305e-19
-3.13134e-19
-5.60751e-19
-8.07871e-20
1.4523e-19
-3.87663e-19
-2.52725e-19
-4.56428e-19
-6.49856e-20
1.18945e-19
-3.12372e-19
-2.03302e-19
-3.6992e-19
-5.14823e-20
9.7816e-20
-2.5099e-19
-1.62812e-19
-3.00122e-19
-4.08947e-20
8.00938e-20
-2.00566e-19
-1.29672e-19
-2.42087e-19
-3.17853e-20
6.60005e-20
-1.59564e-19
-1.02675e-19
-1.95732e-19
-2.48619e-20
5.40791e-20
-1.25708e-19
-8.04557e-20
-1.5738e-19
-1.90558e-20
4.45136e-20
-9.83937e-20
-6.24843e-20
-1.26138e-19
-1.42446e-20
3.67002e-20
-7.6315e-20
-4.78623e-20
-1.00584e-19
-1.02357e-20
3.03908e-20
-5.83682e-20
-3.60203e-20
-7.9327e-20
-6.74709e-21
2.54219e-20
-4.39575e-20
-2.64679e-20
-6.29786e-20
-4.43209e-21
2.0986e-20
-3.20749e-20
-1.8736e-20
-4.88901e-20
-2.18471e-21
1.76966e-20
-2.26092e-20
-1.2476e-20
-3.82092e-20
-7.32231e-22
1.46949e-20
-1.46774e-20
-7.33846e-21
-2.87797e-20
7.97803e-22
1.25549e-20
-8.33758e-21
-3.16473e-21
-2.18624e-20
1.64746e-21
1.04991e-20
-2.94196e-21
3.02725e-22
-1.58778e-20
2.49776e-21
8.94663e-21
1.25308e-21
3.11462e-21
-1.09025e-20
3.27397e-21
7.71932e-21
4.60935e-21
5.32598e-21
-6.55372e-21
4.09306e-21
6.86999e-21
7.17681e-21
7.01086e-21
-3.79124e-21
4.31639e-21
5.86932e-21
9.48046e-21
8.43672e-21
-1.25537e-21
4.59611e-21
5.15851e-21
1.11824e-20
9.56129e-21
8.80771e-22
4.91444e-21
4.5999e-21
1.24897e-20
1.04284e-20
2.89387e-21
5.29702e-21
4.23764e-21
1.35576e-20
1.11222e-20
4.02415e-21
5.2864e-21
3.70255e-21
6.85585e-20
1.44891e-20
1.16502e-20
5.05825e-21
5.35813e-21
3.37977e-21
6.08477e-20
1.50336e-20
1.19955e-20
5.8208e-21
5.44662e-21
3.14066e-21
5.41356e-20
1.54479e-20
1.22603e-20
6.69034e-21
5.63377e-21
3.03298e-21
4.8702e-20
1.56441e-20
1.23921e-20
6.96415e-21
5.54794e-21
2.76989e-21
4.39167e-20
1.59051e-20
1.24983e-20
7.50428e-21
5.62044e-21
2.67417e-21
4.01083e-20
1.60112e-20
1.25416e-20
7.60414e-21
5.4837e-21
2.45069e-21
3.68763e-20
1.61897e-20
1.26313e-20
7.88497e-21
5.4836e-21
2.33974e-21
3.40744e-20
1.6411e-20
1.28355e-20
8.35971e-21
5.67447e-21
2.33769e-21
3.17976e-20
1.63874e-20
1.27407e-20
8.30897e-21
5.48012e-21
2.1693e-21
2.97784e-20
1.63812e-20
1.26652e-20
8.3536e-21
5.39264e-21
2.07259e-21
2.80061e-20
1.63236e-20
1.25925e-20
8.40109e-21
5.33877e-21
2.00016e-21
2.64118e-20
1.62109e-20
1.24825e-20
8.41266e-21
5.27442e-21
1.931e-21
2.48978e-20
1.59879e-20
1.22695e-20
8.34253e-21
5.16786e-21
1.86342e-21
2.38197e-20
1.5956e-20
1.22621e-20
8.38701e-21
5.16459e-21
1.83062e-21
2.31371e-20
1.59193e-20
1.22255e-20
8.35877e-21
5.13882e-21
1.85132e-21
)
;
    }
    axis
    {
        type            empty;
        value           nonuniform 0();
    }
    procBoundary47to41
    {
        type            processor;
        value           nonuniform List<scalar> 
68
(
-1.45859e-10
-1.21427e-10
-1.01088e-10
-8.40716e-11
-6.98379e-11
-5.795e-11
-4.80415e-11
-3.97579e-11
-3.28127e-11
-2.69718e-11
-2.20369e-11
-1.78136e-11
-1.42623e-11
-1.1176e-11
-9.22829e-12
-1.43146e-06
-1.29053e-06
-1.15578e-06
-1.02851e-06
-9.09643e-07
-7.9977e-07
-6.992e-07
-6.0798e-07
-5.25944e-07
-4.52753e-07
-3.87941e-07
-3.30948e-07
-2.81158e-07
-2.37926e-07
-2.00604e-07
-1.68554e-07
-1.41169e-07
-1.17879e-07
-9.8157e-08
-8.15234e-08
-6.7547e-08
-5.58439e-08
-4.60758e-08
-3.79468e-08
-3.12004e-08
-2.56153e-08
-2.10021e-08
-1.71996e-08
-1.40711e-08
-1.15014e-08
-9.39406e-09
-7.66825e-09
-6.25658e-09
-5.10315e-09
-4.16146e-09
-3.39292e-09
-2.76598e-09
-2.25487e-09
-1.8384e-09
-1.49908e-09
-1.22253e-09
-9.97107e-10
-8.1364e-10
-6.64548e-10
-5.43001e-10
-4.4389e-10
-3.63351e-10
-2.97797e-10
-2.44325e-10
-2.00496e-10
-1.64232e-10
-5.48034e-05
-1.33165e-10
)
;
    }
    procBoundary47to46
    {
        type            processor;
        value           nonuniform List<scalar> 5(-4.23589e-05 -3.34564e-05 -2.42284e-05 -1.4708e-05 -4.93728e-06);
    }
}


// ************************************************************************* //
