/*--------------------------------*- C++ -*----------------------------------*\
  =========                 |
  \\      /  F ield         | OpenFOAM: The Open Source CFD Toolbox
   \\    /   O peration     | Website:  https://openfoam.org
    \\  /    A nd           | Version:  7
     \\/     M anipulation  |
\*---------------------------------------------------------------------------*/
FoamFile
{
    version     2.0;
    format      ascii;
    class       volVectorField;
    location    "22";
    object      U;
}
// * * * * * * * * * * * * * * * * * * * * * * * * * * * * * * * * * * * * * //

dimensions      [0 1 -1 0 0 0 0];

internalField   nonuniform List<vector> 
433
(
(1.13302 0.0248854 0)
(1.1294 0.0248693 0)
(1.12533 0.0247688 0)
(1.12218 0.02468 0)
(1.1175 0.024637 0)
(1.11551 0.0245291 0)
(1.109 0.0248533 0)
(1.18879 0.00797639 0)
(1.18503 0.0112126 0)
(1.18109 0.0141089 0)
(1.177 0.0166666 0)
(1.17279 0.0188919 0)
(1.16849 0.0207952 0)
(1.16413 0.0223903 0)
(1.15974 0.0236955 0)
(1.15532 0.0247296 0)
(1.15092 0.0255192 0)
(1.14653 0.0260823 0)
(1.14219 0.0264589 0)
(1.13786 0.026653 0)
(1.13365 0.0267363 0)
(1.12936 0.0266683 0)
(1.12539 0.0265908 0)
(1.121 0.0263782 0)
(1.11755 0.0262651 0)
(1.11257 0.0260874 0)
(1.11038 0.0259952 0)
(1.10356 0.0261993 0)
(1.19054 0.0108119 0)
(1.18608 0.0140845 0)
(1.18144 0.0169878 0)
(1.17668 0.0195269 0)
(1.17181 0.0217115 0)
(1.16689 0.0235555 0)
(1.16192 0.0250762 0)
(1.15695 0.0262955 0)
(1.152 0.0272346 0)
(1.14708 0.0279241 0)
(1.1422 0.0283819 0)
(1.1374 0.0286556 0)
(1.13265 0.0287401 0)
(1.12804 0.0287288 0)
(1.12339 0.0285456 0)
(1.11907 0.0283977 0)
(1.11437 0.0280515 0)
(1.11064 0.0279153 0)
(1.10541 0.027568 0)
(1.10303 0.0275073 0)
(1.09598 0.0275426 0)
(1.18995 0.0140738 0)
(1.18469 0.0173519 0)
(1.17929 0.0202309 0)
(1.17378 0.0227202 0)
(1.16821 0.0248334 0)
(1.16261 0.0265886 0)
(1.15702 0.0280067 0)
(1.15145 0.0291134 0)
(1.14594 0.0299325 0)
(1.1405 0.0304988 0)
(1.13515 0.0308298 0)
(1.12991 0.0309808 0)
(1.12476 0.0309371 0)
(1.11977 0.0308153 0)
(1.1148 0.0304992 0)
(1.11017 0.0302706 0)
(1.10522 0.0297689 0)
(1.10124 0.0296101 0)
(1.09584 0.0290573 0)
(1.09329 0.0290458 0)
(1.08613 0.0288603 0)
(1.18635 0.0177886 0)
(1.18022 0.0210323 0)
(1.174 0.0238476 0)
(1.16772 0.0262485 0)
(1.16142 0.0282533 0)
(1.15514 0.0298846 0)
(1.14892 0.0311672 0)
(1.14277 0.0321307 0)
(1.13673 0.0328017 0)
(1.13081 0.0332191 0)
(1.12502 0.0333998 0)
(1.11939 0.0334072 0)
(1.11389 0.0332156 0)
(1.10859 0.0329669 0)
(1.10336 0.0325 0)
(1.09849 0.0321798 0)
(1.09338 0.0315018 0)
(1.0892 0.0313206 0)
(1.08375 0.0305276 0)
(1.08106 0.0305842 0)
(1.07396 0.0301255 0)
(1.17902 0.0219605 0)
(1.172 0.02512 0)
(1.16494 0.0278235 0)
(1.15789 0.0300905 0)
(1.15089 0.0319441 0)
(1.14397 0.0334118 0)
(1.13717 0.0345224 0)
(1.1305 0.0353098 0)
(1.124 0.0358027 0)
(1.11768 0.0360446 0)
(1.11154 0.036051 0)
(1.1056 0.0358938 0)
(1.09985 0.0355351 0)
(1.09433 0.0351435 0)
(1.08895 0.0345095 0)
(1.08392 0.0340873 0)
(1.07877 0.0332146 0)
(1.07448 0.0330111 0)
(1.0691 0.0319465 0)
(1.06634 0.0320908 0)
(1.05948 0.0313088 0)
(1.16729 0.0265619 0)
(1.1594 0.0295786 0)
(1.15156 0.0321153 0)
(1.1438 0.0341972 0)
(1.13617 0.035853 0)
(1.1287 0.0371148 0)
(1.12142 0.0380156 0)
(1.11435 0.0385932 0)
(1.1075 0.0388786 0)
(1.10089 0.0389191 0)
(1.09452 0.0387287 0)
(1.08841 0.0383876 0)
(1.08253 0.0378449 0)
(1.07693 0.0372963 0)
(1.07152 0.0364814 0)
(1.06646 0.0359486 0)
(1.0614 0.0348664 0)
(1.05711 0.0346413 0)
(1.05196 0.0332791 0)
(1.04918 0.0335304 0)
(1.04277 0.0323802 0)
(1.15056 0.0315274 0)
(1.14191 0.0343365 0)
(1.1334 0.0366472 0)
(1.12507 0.0384908 0)
(1.11695 0.0399012 0)
(1.10908 0.0409155 0)
(1.10147 0.0415701 0)
(1.09414 0.0419066 0)
(1.08711 0.0419576 0)
(1.08037 0.0417741 0)
(1.07394 0.0413679 0)
(1.0678 0.040827 0)
(1.06196 0.0400869 0)
(1.05641 0.0393707 0)
(1.05114 0.0383652 0)
(1.0462 0.0377156 0)
(1.04138 0.0364142 0)
(1.03721 0.0361688 0)
(1.03246 0.0344897 0)
(1.02975 0.0348668 0)
(1.024 0.0333109 0)
(1.12843 0.036753 0)
(1.11919 0.0392879 0)
(1.11019 0.0413138 0)
(1.10148 0.0428676 0)
(1.09307 0.0439883 0)
(1.08499 0.0447172 0)
(1.07726 0.0450939 0)
(1.06988 0.045163 0)
(1.06285 0.0449581 0)
(1.05618 0.0445333 0)
(1.04987 0.0438973 0)
(1.04389 0.043146 0)
(1.03827 0.0422 0)
(1.03296 0.04131 0)
(1.02798 0.040109 0)
(1.02332 0.0393398 0)
(1.0189 0.0378151 0)
(1.01499 0.0375518 0)
(1.01081 0.0355449 0)
(1.00825 0.0360642 0)
(1.00339 0.0340751 0)
(1.10072 0.0421001 0)
(1.09113 0.0442982 0)
(1.08189 0.0459856 0)
(1.07304 0.0472047 0)
(1.06459 0.0479984 0)
(1.05655 0.0484116 0)
(1.04893 0.0484863 0)
(1.04172 0.0482691 0)
(1.03493 0.047794 0)
(1.02854 0.0471175 0)
(1.02255 0.0462446 0)
(1.01694 0.0452783 0)
(1.01172 0.0441238 0)
(1.00682 0.0430593 0)
(1.00232 0.0416632 0)
(0.998088 0.0407755 0)
(0.99424 0.0390292 0)
(0.990735 0.0387516 0)
(0.987297 0.0364144 0)
(0.984966 0.0370899 0)
(0.981207 0.0346514 0)
(1.06748 0.0474054 0)
(1.05785 0.0492137 0)
(1.04867 0.0505196 0)
(1.03997 0.0513694 0)
(1.03176 0.0518095 0)
(1.02402 0.051887 0)
(1.01676 0.0516452 0)
(1.00998 0.0511323 0)
(1.00365 0.0503814 0)
(0.997768 0.0494509 0)
(0.992323 0.0483412 0)
(0.987269 0.0471621 0)
(0.982646 0.0458029 0)
(0.978342 0.0445685 0)
(0.974493 0.0429831 0)
(0.97086 0.0419823 0)
(0.967742 0.0400217 0)
(0.964771 0.0397348 0)
(0.962235 0.0370734 0)
(0.960227 0.0379156 0)
(0.957762 0.0350236 0)
(1.02907 0.0524947 0)
(1.01973 0.0538748 0)
(1.01094 0.0547702 0)
(1.00269 0.0552301 0)
(0.995003 0.0553027 0)
(0.98785 0.0550365 0)
(0.981225 0.0544751 0)
(0.975106 0.0536672 0)
(0.969483 0.052644 0)
(0.964322 0.0514656 0)
(0.959624 0.0501266 0)
(0.955327 0.0487439 0)
(0.951483 0.0471895 0)
(0.947947 0.0457954 0)
(0.944911 0.0440316 0)
(0.942027 0.0429268 0)
(0.939786 0.0407647 0)
(0.937474 0.0404745 0)
(0.935985 0.0375032 0)
(0.93438 0.0385186 0)
(0.933383 0.035181 0)
(0.986058 0.0571975 0)
(0.977355 0.058129 0)
(0.969272 0.0586016 0)
(0.961798 0.0586661 0)
(0.954921 0.0583714 0)
(0.94862 0.0577661 0)
(0.942876 0.0568931 0)
(0.937661 0.0558007 0)
(0.932957 0.0545179 0)
(0.928724 0.0531054 0)
(0.924964 0.0515517 0)
(0.921602 0.0499805 0)
(0.918704 0.0482461 0)
(0.916092 0.0467072 0)
(0.914014 0.0447804 0)
(0.912013 0.0435841 0)
(0.910779 0.0412377 0)
(0.909237 0.0409513 0)
(0.90892 0.0376914 0)
(0.90779 0.0388826 0)
(0.908405 0.0351189 0)
(0.939222 0.0613614 0)
(0.931491 0.0618428 0)
(0.924426 0.0618974 0)
(0.918006 0.0615763 0)
(0.912207 0.0609278 0)
(0.907003 0.0599998 0)
(0.902366 0.0588335 0)
(0.898262 0.0574764 0)
(0.894672 0.0559542 0)
(0.891547 0.0543286 0)
(0.888891 0.0525807 0)
(0.886618 0.0508414 0)
(0.88481 0.0489467 0)
(0.883253 0.0472818 0)
(0.882258 0.045211 0)
(0.881254 0.0439385 0)
(0.881136 0.0414286 0)
(0.880458 0.0411535 0)
(0.881412 0.0376323 0)
(0.880821 0.0389978 0)
(0.883159 0.0348376 0)
(0.889474 0.0648628 0)
(0.883012 0.0649107 0)
(0.877237 0.0645679 0)
(0.872118 0.0638846 0)
(0.867625 0.0629075 0)
(0.863724 0.0616833 0)
(0.860385 0.0602507 0)
(0.857568 0.0586561 0)
(0.855252 0.0569211 0)
(0.853381 0.0551085 0)
(0.851967 0.0531916 0)
(0.850907 0.0513086 0)
(0.850305 0.0492767 0)
(0.849911 0.0475074 0)
(0.850097 0.0453143 0)
(0.850179 0.0439829 0)
(0.851261 0.041333 0)
(0.851522 0.0410771 0)
(0.853822 0.0373265 0)
(0.853819 0.038861 0)
(0.857962 0.0343427 0)
(0.837797 0.0676139 0)
(0.832848 0.0672604 0)
(0.828582 0.0665538 0)
(0.824962 0.0655426 0)
(0.821955 0.0642716 0)
(0.819522 0.0627853 0)
(0.817629 0.0611198 0)
(0.816234 0.0593201 0)
(0.815314 0.0574037 0)
(0.814811 0.055434 0)
(0.814739 0.0533763 0)
(0.814987 0.0513765 0)
(0.815677 0.0492327 0)
(0.816523 0.0473826 0)
(0.817963 0.0450906 0)
(0.819196 0.0437185 0)
(0.821539 0.0409538 0)
(0.822791 0.0407248 0)
(0.826489 0.0367803 0)
(0.827111 0.0384747 0)
(0.833106 0.0336438 0)
(0.785183 0.0695662 0)
(0.781927 0.0688547 0)
(0.77933 0.0678271 0)
(0.777354 0.06653 0)
(0.775961 0.0650055 0)
(0.77511 0.0632965 0)
(0.774766 0.0614356 0)
(0.774885 0.0594666 0)
(0.775446 0.0574024 0)
(0.776386 0.0553076 0)
(0.777726 0.053139 0)
(0.779344 0.0510507 0)
(0.781381 0.0488213 0)
(0.783517 0.0469146 0)
(0.786257 0.0445479 0)
(0.788682 0.0431536 0)
(0.792321 0.0403005 0)
(0.794596 0.0401053 0)
(0.799719 0.0360048 0)
(0.800989 0.0378468 0)
(0.808854 0.0327542 0)
(0.732577 0.0707049 0)
(0.731129 0.0696858 0)
(0.730302 0.0683857 0)
(0.730056 0.066849 0)
(0.730354 0.0651154 0)
(0.731152 0.0632254 0)
(0.732416 0.0612086 0)
(0.734101 0.0591075 0)
(0.736188 0.0569302 0)
(0.738611 0.054743 0)
(0.741398 0.052494 0)
(0.744415 0.0503454 0)
(0.747828 0.0480571 0)
(0.751278 0.0461179 0)
(0.755338 0.0437009 0)
(0.758971 0.0423024 0)
(0.763921 0.0393875 0)
(0.76723 0.0392323 0)
(0.773783 0.0350146 0)
(0.775711 0.0369894 0)
(0.785435 0.0316894 0)
(0.680841 0.0710351 0)
(0.681252 0.0697641 0)
(0.682237 0.068244 0)
(0.683756 0.0665172 0)
(0.685771 0.0646207 0)
(0.688239 0.0625931 0)
(0.691129 0.0604607 0)
(0.694393 0.0582652 0)
(0.698016 0.0560099 0)
(0.701929 0.0537628 0)
(0.706168 0.0514633 0)
(0.710588 0.0492827 0)
(0.715377 0.0469614 0)
(0.720138 0.0450133 0)
(0.725516 0.0425694 0)
(0.730353 0.0411849 0)
(0.736605 0.038233 0)
(0.740943 0.0381247 0)
(0.74891 0.0338259 0)
(0.751496 0.0359212 0)
(0.763042 0.0304655 0)
(0.630731 0.0705963 0)
(0.632993 0.0691327 0)
(0.635779 0.0674472 0)
(0.639048 0.0655806 0)
(0.642763 0.0635675 0)
(0.646884 0.061445 0)
(0.651379 0.0592363 0)
(0.656201 0.0569825 0)
(0.661338 0.0546822 0)
(0.666719 0.0524061 0)
(0.672388 0.0500839 0)
(0.678187 0.0478973 0)
(0.68433 0.0455664 0)
(0.69038 0.0436316 0)
(0.697053 0.0411811 0)
(0.703068 0.0398283 0)
(0.710599 0.0368603 0)
(0.715943 0.0368074 0)
(0.725292 0.0324575 0)
(0.728522 0.034665 0)
(0.741832 0.0291003 0)
(0.582877 0.0695765 0)
(0.586935 0.0679614 0)
(0.591464 0.0661481 0)
(0.596427 0.0641759 0)
(0.601789 0.0620776 0)
(0.607508 0.0598892 0)
(0.613557 0.057631 0)
(0.619887 0.0553438 0)
(0.62649 0.0530215 0)
(0.633291 0.0507378 0)
(0.640345 0.0484132 0)
(0.64748 0.046239 0)
(0.654934 0.0439172 0)
(0.662231 0.0420106 0)
(0.670157 0.0395729 0)
(0.677312 0.0382601 0)
(0.686081 0.035302 0)
(0.692393 0.0352978 0)
(0.703079 0.030943 0)
(0.706931 0.0332251 0)
(0.721926 0.027624 0)
(0.542772 0.0700944 1.37246e-20)
(0.547676 0.0685589 -9.12849e-21)
(0.553048 0.0668092 3.12394e-21)
(0.558854 0.0648848 2.47995e-21)
(0.565057 0.0628233 -1.54002e-21)
(0.571623 0.0606554 -1.06789e-22)
)
;

boundaryField
{
    inlet
    {
        type            uniformFixedValue;
        uniformValue    constant (1 0 0);
        value           nonuniform 0();
    }
    outlet
    {
        type            pressureInletOutletVelocity;
        value           nonuniform List<vector> 
21
(
(1.109 0.0248533 0)
(1.10356 0.0261993 0)
(1.09598 0.0275426 0)
(1.08613 0.0288603 0)
(1.07396 0.0301255 0)
(1.05948 0.0313088 0)
(1.04277 0.0323802 0)
(1.024 0.0333109 0)
(1.00339 0.0340751 0)
(0.981207 0.0346514 0)
(0.957762 0.0350236 0)
(0.933383 0.035181 0)
(0.908405 0.0351189 0)
(0.883159 0.0348376 0)
(0.857962 0.0343427 0)
(0.833106 0.0336438 0)
(0.808854 0.0327542 0)
(0.785435 0.0316894 0)
(0.763042 0.0304655 0)
(0.741832 0.0291003 0)
(0.721926 0.027624 0)
)
;
    }
    cylinder
    {
        type            fixedValue;
        value           nonuniform 0();
    }
    top
    {
        type            symmetryPlane;
    }
    bottom
    {
        type            symmetryPlane;
    }
    defaultFaces
    {
        type            empty;
    }
    procBoundary11to4
    {
        type            processor;
        value           nonuniform List<vector> 3((1.19233 0.00440333 0) (1.1948 0.00716996 0) (1.19503 0.0103927 0));
    }
    procBoundary11to5
    {
        type            processor;
        value           nonuniform List<vector> 
22
(
(1.13468 0.0232048 0)
(1.13141 0.0232428 0)
(1.12767 0.0232346 0)
(1.12481 0.0231715 0)
(1.12045 0.0232312 0)
(1.11864 0.023121 0)
(1.11249 0.0235223 0)
(1.1853 0.00552765 0)
(1.18216 0.00870404 0)
(1.17882 0.0115688 0)
(1.17533 0.0141205 0)
(1.1717 0.016362 0)
(1.16797 0.0183005 0)
(1.16416 0.0199466 0)
(1.16029 0.0213153 0)
(1.15639 0.0224232 0)
(1.15247 0.0232928 0)
(1.14855 0.0239422 0)
(1.14465 0.0244046 0)
(1.14074 0.0246912 0)
(1.13693 0.0248552 0)
(1.13693 0.0248552 0)
)
;
    }
    procBoundary11to10
    {
        type            processor;
        value           nonuniform List<vector> 
19
(
(1.19233 0.0141079 0)
(1.18595 0.018331 0)
(1.17516 0.023045 0)
(1.1593 0.0281931 0)
(1.13787 0.0336754 0)
(1.11063 0.0393515 0)
(1.07755 0.0450496 0)
(1.03895 0.0505809 0)
(0.995386 0.055756 0)
(0.947634 0.0604014 0)
(0.896646 0.0643728 0)
(0.84346 0.0675643 0)
(0.789133 0.0699137 0)
(0.734683 0.0713971 0)
(0.681042 0.0720131 0)
(0.629027 0.0717959 0)
(0.579327 0.0709523 0)
(0.579327 0.0709523 0)
(0.538367 0.0713719 1.58151e-20)
)
;
    }
    procBoundary11to17
    {
        type            processor;
        value           nonuniform List<vector> 
23
(
(0.578512 0.0584152 1.76449e-22)
(0.585695 0.0561209 4.44079e-22)
(0.593127 0.0538116 1.29065e-22)
(0.6008 0.0514792 -6.9845e-22)
(0.608638 0.0491954 -3.12217e-22)
(0.6167 0.04688 3.63614e-22)
(0.624807 0.0447205 -5.86969e-22)
(0.633215 0.0424226 3.97136e-22)
(0.641417 0.0405371 -3.43361e-22)
(0.650253 0.0381372 3.91247e-22)
(0.65823 0.036839 -7.63048e-23)
(0.667898 0.0339404 -3.29235e-23)
(0.6749 0.0339221 4.35221e-23)
(0.68656 0.029664 -1.71997e-23)
(0.690839 0.0318846 -5.85719e-24)
(0.707063 0.0263923 -7.76494e-25)
(0.514758 0.0688074 7.43009e-21)
(0.520855 0.0672069 -1.77397e-21)
(0.527377 0.0654101 -2.41243e-21)
(0.534293 0.0634546 5.72487e-21)
(0.541565 0.061376 -8.11131e-21)
(0.578512 0.0584152 1.76449e-22)
(0.54916 0.0592031 5.32954e-21)
)
;
    }
}


// ************************************************************************* //
