/*--------------------------------*- C++ -*----------------------------------*\
  =========                 |
  \\      /  F ield         | OpenFOAM: The Open Source CFD Toolbox
   \\    /   O peration     | Website:  https://openfoam.org
    \\  /    A nd           | Version:  7
     \\/     M anipulation  |
\*---------------------------------------------------------------------------*/
FoamFile
{
    version     2.0;
    format      ascii;
    class       surfaceScalarField;
    location    "51.999192";
    object      phi;
}
// * * * * * * * * * * * * * * * * * * * * * * * * * * * * * * * * * * * * * //

dimensions      [0 3 -1 0 0 0 0];

internalField   nonuniform List<scalar> 
11438
(
8.66501e-05
-0.00103195
0.000164536
-0.000986982
0.000223635
-0.000897336
0.000254839
-0.000763521
-0.000585847
-0.00104837
1.60522e-05
-0.00106514
1.63846e-05
-0.00108149
1.59588e-05
-0.00109719
1.53143e-05
-0.00111216
1.4575e-05
-0.00112634
1.37951e-05
-0.00113971
1.30059e-05
-0.00115228
1.22217e-05
-0.00116404
1.14487e-05
-0.00117499
1.06889e-05
-0.00118514
9.94251e-06
-0.00119449
9.20814e-06
-0.00120303
8.48334e-06
-0.00121074
7.76479e-06
-0.00121762
7.04845e-06
-0.00122363
6.32972e-06
-0.00122876
5.60376e-06
-0.00123297
4.86592e-06
-0.00123623
4.11256e-06
-0.0012385
3.34067e-06
-0.00123974
2.5414e-06
-0.00123995
1.6984e-06
-0.0012391
8.48252e-07
-0.0012371
-8.10928e-08
-0.00123395
-9.72015e-07
-0.00122956
-1.97466e-06
-0.00122384
-3.07436e-06
-0.00121669
-4.28236e-06
-0.00120803
-5.6154e-06
-0.00119775
-7.09278e-06
-0.00118574
-8.73538e-06
-0.00117187
-1.05649e-05
-0.00115601
-1.26032e-05
-0.00113801
-1.48722e-05
-0.00111773
-1.73874e-05
-0.001095
-2.01711e-05
-0.00106965
-2.3242e-05
-0.00104151
-2.66131e-05
-0.00101041
-3.02922e-05
-0.000976144
-3.4281e-05
-0.000938541
-3.85727e-05
-0.000897418
-4.31506e-05
-0.000852597
-4.79975e-05
-0.000803938
-5.3036e-05
-0.000751289
-5.825e-05
-0.000694525
-6.35694e-05
-0.000633543
-6.89214e-05
-0.000568256
-7.42367e-05
-0.00049865
-7.93838e-05
-0.000424716
-8.42963e-05
1.03628e-05
-0.000346484
-8.88813e-05
1.06483e-05
-0.000264037
-9.30319e-05
1.05852e-05
-0.000177494
-9.66761e-05
1.01337e-05
-8.70215e-05
-9.97368e-05
9.26383e-06
7.18976e-06
-0.000102184
7.97267e-06
0.000104869
-0.000103948
6.26889e-06
0.000205778
-0.000105105
4.19642e-06
0.000309581
-0.000105604
1.80036e-06
0.000415998
-0.000105607
-8.10507e-07
0.000524637
-0.000105068
-3.56992e-06
0.000635267
-0.00010434
-6.29046e-06
0.000747354
-0.000103153
-8.93346e-06
0.000861036
-0.00010247
-1.12124e-05
0.000975137
-0.000100934
-1.31674e-05
0.00109122
-0.000101629
-1.44555e-05
0.00120589
-9.96014e-05
-1.50688e-05
0.00132474
-0.000103794
-1.50544e-05
0.0014391
-0.000101041
-1.33202e-05
0.00156203
-0.000110534
-1.23966e-05
-0.000113539
-5.5945e-06
-0.00100269
3.17559e-05
-0.00101882
3.25233e-05
-0.00103461
3.17407e-05
-0.0010498
3.05076e-05
-0.00106429
2.90632e-05
-0.00107801
2.75195e-05
-0.00109095
2.59437e-05
-0.00110309
2.43658e-05
-0.00111444
2.27975e-05
-0.001125
2.12426e-05
-0.00113475
1.96999e-05
-0.00114371
1.81654e-05
-0.00115186
1.66329e-05
-0.00115919
1.50943e-05
-0.00116568
1.35403e-05
-0.00117131
1.19609e-05
-0.00117606
1.03458e-05
-0.00117988
8.68565e-06
-0.00118274
6.97346e-06
-0.0011846
5.20419e-06
-0.00118543
3.37461e-06
-0.00118521
1.4794e-06
-0.00118387
-4.91525e-07
-0.00118152
-2.43833e-06
-0.00117793
-4.55596e-06
-0.00117308
-6.82664e-06
-0.00116689
-9.26913e-06
-0.00115926
-1.1906e-05
-0.00115012
-1.4763e-05
-0.00113934
-1.78687e-05
-0.00112682
-2.12537e-05
-0.00111244
-2.49493e-05
-0.00109605
-2.8987e-05
-0.00107753
-3.33989e-05
-0.00105671
-3.82028e-05
-0.00103345
-4.34312e-05
-0.00100758
-4.91138e-05
-0.000978923
-5.52687e-05
-0.000947307
-6.19084e-05
-0.000912552
-6.90365e-05
-0.000874478
-7.66467e-05
-0.000832912
-8.47163e-05
-0.000787677
-9.3233e-05
-0.000738644
-0.000102068
-0.000685671
-0.000111224
-0.000628636
-0.000120604
-0.000567446
-0.000130112
-0.000502017
-0.000139666
-0.000432344
-0.000149057
-0.000358426
-0.000158215
-0.000280294
-0.000167014
-0.000198037
-0.000175288
-0.000111776
-0.000182937
-2.1674e-05
-0.000189839
7.20619e-05
-0.00019592
0.000169189
-0.000201076
0.000269461
-0.000205376
0.000372547
-0.00020869
0.000478183
-0.000211243
0.00058597
-0.000212856
0.000695713
-0.000214083
0.000806848
-0.000214288
0.000919573
-0.000215195
0.00103266
-0.000214021
0.00114774
-0.000216704
0.00126139
-0.000213256
0.00137912
-0.000221528
0.00149257
-0.000214486
0.0016141
-0.000232061
-0.000231577
-0.000911692
4.61113e-05
-0.000926616
4.74474e-05
-0.000941288
4.6413e-05
-0.000955477
4.46967e-05
-0.000969036
4.26221e-05
-0.000981884
4.03667e-05
-0.000993983
3.80435e-05
-0.00100532
3.57026e-05
-0.00101589
3.33637e-05
-0.00102568
3.10331e-05
-0.00103469
2.87095e-05
-0.00104291
2.63865e-05
-0.00105033
2.40545e-05
-0.00105694
2.17013e-05
-0.00106271
1.93124e-05
-0.00106762
1.6872e-05
-0.00107164
1.43643e-05
-0.00107473
1.17751e-05
-0.00107685
9.09323e-06
-0.00107796
6.31295e-06
-0.00107802
3.43825e-06
-0.00107695
4.06815e-07
-0.00107493
-2.50602e-06
-0.00107173
-5.63795e-06
-0.00106732
-8.96964e-06
-0.00106162
-1.25257e-05
-0.00105456
-1.63317e-05
-0.00104605
-2.04177e-05
-0.00103599
-2.48179e-05
-0.00102429
-2.95699e-05
-0.00101083
-3.47134e-05
-0.00099549
-4.02894e-05
-0.000978138
-4.63385e-05
-0.000958633
-5.29043e-05
-0.000936834
-6.00019e-05
-0.000912591
-6.7674e-05
-0.000885743
-7.59622e-05
-0.000856123
-8.48886e-05
-0.000823562
-9.44689e-05
-0.000787891
-0.000104708
-0.00074894
-0.000115598
-0.000706547
-0.000127109
-0.000660534
-0.000139246
-0.000610798
-0.000151804
-0.000557204
-0.000164818
-0.000499644
-0.000178163
-0.000438038
-0.000191718
-0.00037231
-0.000205394
-0.00030247
-0.000218896
-0.00022853
-0.000232155
-0.000150528
-0.000245016
-6.8559e-05
-0.000257257
1.72522e-05
-0.000268748
0.000106696
-0.000279283
0.000199626
-0.00028885
0.000295771
-0.000297221
0.000394896
-0.000304501
0.000496667
-0.000310461
0.000600846
-0.000315422
0.000707018
-0.000319028
0.000815045
-0.00032211
0.000924309
-0.000323552
0.00103512
-0.000326004
0.00114614
-0.000325048
0.00125913
-0.000329691
0.00137066
-0.000324781
0.00148605
-0.000336917
0.00159751
-0.000325951
0.00171615
-0.000350698
-0.000347349
-0.000776101
5.86913e-05
-0.000789314
6.06604e-05
-0.000802386
5.94848e-05
-0.00081513
5.74406e-05
-0.000827361
5.48529e-05
-0.000838967
5.19723e-05
-0.000849892
4.89686e-05
-0.000860106
4.59173e-05
-0.000869592
4.28496e-05
-0.000878336
3.97765e-05
-0.000886324
3.66976e-05
-0.000893543
3.36055e-05
-0.000899976
3.04882e-05
-0.000905605
2.73296e-05
-0.000910403
2.41105e-05
-0.00091434
2.08095e-05
-0.00091738
1.7404e-05
-0.000919478
1.38731e-05
-0.000920585
1.02004e-05
-0.000920659
6.38648e-06
-0.00091966
2.43936e-06
-0.000917667
-1.58626e-06
-0.00091455
-5.62239e-06
-0.000910259
-9.92889e-06
-0.000904725
-1.45036e-05
-0.000897877
-1.93737e-05
-0.000889638
-2.45708e-05
-0.000879923
-3.01329e-05
-0.000868639
-3.61024e-05
-0.000855683
-4.25251e-05
-0.000840947
-4.94493e-05
-0.000824312
-5.6925e-05
-0.00080565
-6.50007e-05
-0.000784818
-7.37364e-05
-0.000761685
-8.31347e-05
-0.000736111
-9.32482e-05
-0.00070794
-0.000104133
-0.000677015
-0.000115813
-0.000643178
-0.000128306
-0.000606271
-0.000141615
-0.000566139
-0.00015573
-0.000522634
-0.000170614
-0.000475581
-0.000186298
-0.000424903
-0.000202482
-0.000370481
-0.000219239
-0.000312229
-0.000236416
-0.000250081
-0.000253866
-0.000183967
-0.000271508
-0.00011392
-0.000288943
-3.99605e-05
-0.000306114
3.78219e-05
-0.000322798
0.00011932
-0.000338755
0.000204438
-0.000353866
0.000292982
-0.000367827
0.000384757
-0.000380625
0.000479498
-0.000391962
0.000576983
-0.000401986
0.00067687
-0.000410348
0.000778958
-0.00041751
0.000882802
-0.000422872
0.000988348
-0.000427656
0.0010949
-0.000430102
0.00120291
-0.000434016
0.00131092
-0.000433062
0.00142084
-0.000439603
0.00152922
-0.00043317
0.00164115
-0.000448846
0.00174966
-0.000434453
0.00186411
-0.000465151
-0.000459772
-0.000596625
6.94694e-05
-0.000607737
7.17726e-05
-0.000618819
7.05664e-05
-0.000629769
6.83903e-05
-0.000640365
6.54492e-05
-0.000650465
6.20723e-05
-0.000659986
5.849e-05
-0.000668877
5.48083e-05
-0.000677102
5.10746e-05
-0.000684634
4.7308e-05
-0.000691447
4.35114e-05
-0.00069752
3.96785e-05
-0.000702828
3.57961e-05
-0.000707345
3.1846e-05
-0.000711039
2.7805e-05
-0.000713876
2.36463e-05
-0.000715813
1.9341e-05
-0.0007168
1.48603e-05
-0.000716784
1.01837e-05
-0.000715726
5.32891e-06
-0.000713417
1.30688e-07
-0.000710318
-4.68614e-06
-0.000706015
-9.92511e-06
-0.000700486
-1.54576e-05
-0.000693674
-2.13155e-05
-0.000685513
-2.75351e-05
-0.000675926
-3.4158e-05
-0.000664828
-4.12304e-05
-0.000652129
-4.88019e-05
-0.000637728
-5.69257e-05
-0.00062152
-6.56577e-05
-0.000603389
-7.50557e-05
-0.000583215
-8.51749e-05
-0.000560851
-9.61005e-05
-0.000536176
-0.000107809
-0.000509064
-0.00012036
-0.000479367
-0.00013383
-0.000446939
-0.000148241
-0.000411634
-0.000163611
-0.000373309
-0.00017994
-0.000331829
-0.00019721
-0.000287063
-0.000215381
-0.000238837
-0.000234524
-0.000187103
-0.000254217
-0.000131763
-0.000274579
-7.27385e-05
-0.00029544
-9.93706e-06
-0.000316667
5.64276e-05
-0.000337872
0.000126556
-0.000359072
0.000200365
-0.000379923
0.000277772
-0.000400205
0.000358647
-0.00041963
0.000442841
-0.000438061
0.00053016
-0.000455145
0.000620412
-0.000470878
0.000713324
-0.000484873
0.00080869
-0.000497353
0.000906156
-0.000507814
0.00100557
-0.000516921
0.00110644
-0.000523741
0.00120882
-0.000530035
0.0013119
-0.000533191
0.00141634
-0.000538456
0.00152053
-0.000537244
0.0016265
-0.000545578
0.0017309
-0.000537565
0.00183841
-0.000556356
0.00194309
-0.000539132
0.00205232
-0.000574384
-0.000567889
-0.000373414
7.86953e-05
-0.000382156
8.05143e-05
-0.000391105
7.95154e-05
-0.000400097
7.7383e-05
-0.000408919
7.42704e-05
-0.000417417
7.05704e-05
-0.000425474
6.65474e-05
-0.000433008
6.23425e-05
-0.000439961
5.80269e-05
-0.000446285
5.36317e-05
-0.00045194
4.91666e-05
-0.00045689
4.46287e-05
-0.0004611
4.00066e-05
-0.000464535
3.52811e-05
-0.000467157
3.04265e-05
-0.000468921
2.54109e-05
-0.000469777
2.01965e-05
-0.000469658
1.47409e-05
-0.00046849
9.01601e-06
-0.000466201
3.04027e-06
-0.0004631
-2.97098e-06
-0.000458738
-9.04791e-06
-0.0004532
-1.54627e-05
-0.000446418
-2.22397e-05
-0.000438322
-2.94116e-05
-0.000428839
-3.70178e-05
-0.000417892
-4.51056e-05
-0.000405395
-5.37274e-05
-0.000391258
-6.2939e-05
-0.000375384
-7.27996e-05
-0.00035767
-8.33712e-05
-0.000338009
-9.47168e-05
-0.000316283
-0.000106901
-0.000292348
-0.000120036
-0.00026609
-0.000134067
-0.000237397
-0.000149054
-0.000206132
-0.000165095
-0.000172161
-0.000182213
-0.000135349
-0.000200422
-9.55659e-05
-0.000219723
-5.26805e-05
-0.000240096
-6.51646e-06
-0.000261545
4.26929e-05
-0.000283734
9.53459e-05
-0.00030687
0.000151471
-0.000330703
0.000211093
-0.000355063
0.00027422
-0.000379794
0.000340878
-0.00040453
0.000410996
-0.00042919
0.000484498
-0.000453425
0.000561294
-0.000477002
0.000641243
-0.000499578
0.000724189
-0.000521008
0.000809923
-0.000540879
0.000898257
-0.000559212
0.000988904
-0.00057552
0.00108168
-0.000590132
0.00117622
-0.000602349
0.00127241
-0.000613115
0.00136973
-0.000621058
0.00146834
-0.000628646
0.00156734
-0.000632187
0.00166754
-0.000638663
0.00176722
-0.000636919
0.00186854
-0.000646899
0.00196825
-0.000637277
0.00207057
-0.000658673
0.00217071
-0.000639272
0.00227396
-0.000677639
-0.000670906
-0.00010392
8.31239e-05
-0.000111382
8.79763e-05
-0.000118763
8.68966e-05
-0.000125986
8.46063e-05
-0.000133205
8.14887e-05
-0.000140294
7.76597e-05
-0.000147093
7.33463e-05
-0.000153488
6.87373e-05
-0.000159395
6.39347e-05
-0.000164748
5.8984e-05
-0.000169485
5.39041e-05
-0.000173556
4.86995e-05
-0.000176912
4.33628e-05
-0.000179508
3.78769e-05
-0.000181298
3.22158e-05
-0.000182231
2.63443e-05
-0.000182251
2.02168e-05
-0.00018129
1.37794e-05
-0.000179277
7.00347e-06
-0.000175974
-2.62897e-07
-0.00017191
-7.03469e-06
-0.000166631
-1.43274e-05
-0.000160103
-2.19906e-05
-0.000152272
-3.0071e-05
-0.000143076
-3.86075e-05
-0.000132445
-4.76487e-05
-0.000120301
-5.72497e-05
-0.000106559
-6.74692e-05
-9.11291e-05
-7.83687e-05
-7.3915e-05
-9.00138e-05
-5.48133e-05
-0.000102473
-3.37142e-05
-0.000115816
-1.0488e-05
-0.000130127
1.48444e-05
-0.000145368
4.2444e-05
-0.000161666
7.25081e-05
-0.000179118
0.000105143
-0.000197729
0.00014046
-0.00021753
0.00017857
-0.000238532
0.000219579
-0.000260732
0.000263582
-0.000284099
0.000310655
-0.000308618
0.00036094
-0.000334018
0.000414447
-0.000360377
0.000471217
-0.000387473
0.000531268
-0.000415115
0.00059459
-0.000443115
0.000661175
-0.000471115
0.000730945
-0.00049896
0.000803801
-0.000526281
0.000879636
-0.000552837
0.000958285
-0.000578228
0.00103959
-0.000602313
0.00112332
-0.000624612
0.00120931
-0.000645193
0.00129724
-0.00066345
0.00138696
-0.000679855
0.00147808
-0.000693466
0.00157056
-0.000705596
0.00166381
-0.00071431
0.00175813
-0.000722965
0.0018525
-0.00072656
0.00194793
-0.000734093
0.00204258
-0.000731564
0.00213867
-0.00074299
0.00223318
-0.000731789
0.00232972
-0.000755215
0.00242476
-0.000734315
0.00252155
-0.000774428
-0.000768214
0.000213628
8.82198e-05
0.000206687
9.49173e-05
0.000200124
9.34597e-05
0.000193852
9.08791e-05
0.000187539
8.78016e-05
0.000181231
8.39673e-05
0.000175097
7.94804e-05
0.00016927
7.45646e-05
0.00016385
6.93545e-05
0.000158925
6.39093e-05
0.000154571
5.82577e-05
0.000150857
5.24133e-05
0.000147844
4.63757e-05
0.000145589
4.0132e-05
0.000144148
3.36574e-05
0.000143578
2.69144e-05
0.000143947
1.98472e-05
0.000145349
1.23777e-05
0.000147941
4.41096e-06
0.000151316
-3.63706e-06
0.000155988
-1.17074e-05
0.000161866
-2.0205e-05
0.000169021
-2.9146e-05
0.000177519
-3.85691e-05
0.000187429
-4.85169e-05
0.000198823
-5.9043e-05
0.000211781
-7.02078e-05
0.000226386
-8.20743e-05
0.000242725
-9.4708e-05
0.00026089
-0.000108178
0.000280973
-0.000122556
0.000303071
-0.000137914
0.00032728
-0.000154336
0.000353731
-0.000171819
0.000382526
-0.000190462
0.000413754
-0.000210346
0.000447519
-0.000231494
0.000483923
-0.000253933
0.000523062
-0.000277672
0.000565025
-0.000302696
0.000609888
-0.000328962
0.000657706
-0.000356436
0.000708581
-0.000384893
0.000762514
-0.00041431
0.000819522
-0.000444482
0.000879597
-0.000475189
0.000942701
-0.000506219
0.0010088
-0.00053721
0.00107779
-0.000567952
0.00114956
-0.000598049
0.00122397
-0.000627256
0.00130086
-0.000655117
0.00138006
-0.000681509
0.00146132
-0.000705872
0.00154447
-0.000728347
0.00162921
-0.000748183
0.0017154
-0.000766048
0.00180263
-0.000780693
0.00189093
-0.000793899
0.00197966
-0.000803042
0.00206924
-0.000812544
0.00215857
-0.000815888
0.00224878
-0.000824305
0.00233801
-0.000820795
0.00242845
-0.000833424
0.00251741
-0.000820751
0.00260778
-0.000845589
0.00269733
-0.000823864
0.00278742
-0.000864514
-0.000859404
0.000585181
0.000576729
0.00010337
0.000569162
0.000101026
0.000562182
9.78598e-05
0.000555328
9.46555e-05
0.000548537
9.07577e-05
0.000541924
8.60933e-05
0.000535605
8.08842e-05
0.000529676
7.52834e-05
0.00052423
6.93553e-05
0.000519353
6.31342e-05
0.000515125
5.66419e-05
0.000511615
4.98857e-05
0.000508888
4.28583e-05
0.000507007
3.55387e-05
0.000506031
2.78901e-05
0.000506027
1.98518e-05
0.000507079
1.13253e-05
0.000509394
2.09647e-06
0.000512666
-6.90958e-06
0.000517179
-1.62198e-05
0.00052298
-2.60067e-05
0.000530134
-3.62996e-05
0.000538701
-4.71363e-05
0.000548748
-5.85643e-05
0.000560348
-7.0643e-05
0.000573579
-8.34382e-05
0.000588521
-9.70168e-05
0.00060526
-0.000111447
0.000623882
-0.0001268
0.000644476
-0.00014315
0.000667131
-0.000160569
0.000691933
-0.000179138
0.000718999
-0.000198884
0.000748419
-0.000219882
0.000780273
-0.0002422
0.000814651
-0.000265871
0.000851634
-0.000290917
0.0008913
-0.000317337
0.000933716
-0.000345111
0.000978937
-0.000374183
0.00102699
-0.000404494
0.00107795
-0.000435849
0.00113179
-0.000468154
0.00118852
-0.000501206
0.00124809
-0.000534756
0.00131044
-0.000568571
0.0013755
-0.000602274
0.00144317
-0.000635621
0.0015133
-0.000668183
0.00158576
-0.000699715
0.00166035
-0.000729704
0.0017369
-0.000758059
0.00181516
-0.00078413
0.00189497
-0.00080816
0.00197601
-0.000829221
0.00205819
-0.000848232
0.00214107
-0.000863574
0.00222476
-0.000877591
0.00230858
-0.000886856
0.00239303
-0.000897
0.00247699
-0.000899839
0.00256165
-0.000908965
0.00264521
-0.000904356
0.00272969
-0.00091791
0.0028129
-0.000903955
0.0028969
-0.000929589
0.00298071
-0.000907677
0.00306407
-0.000947871
-0.000944265
0.0010035
0.000115999
0.000992273
0.000112254
0.000982167
0.000107965
0.000972611
0.000104211
0.00096339
9.99791e-05
0.000954531
9.49524e-05
0.0009461
8.93151e-05
0.000938163
8.32202e-05
0.000930795
7.67232e-05
0.000924076
6.98535e-05
0.000918082
6.26358e-05
0.000912885
5.50826e-05
0.000908552
4.71913e-05
0.000905146
3.89447e-05
0.000902728
3.03086e-05
0.000901357
2.12225e-05
0.000901105
1.15771e-05
0.000902172
1.02971e-06
0.000904341
-9.07828e-06
0.000907864
-1.97432e-05
0.000912774
-3.09163e-05
0.000919124
-4.26496e-05
0.000926976
-5.49887e-05
0.000936397
-6.7985e-05
0.000947456
-8.17022e-05
0.00096023
-9.6212e-05
0.000974798
-0.000111585
0.000991239
-0.000127888
0.00100964
-0.000145196
0.00103007
-0.000163583
0.00105262
-0.000183121
0.00107737
-0.000203886
0.00110441
-0.000225922
0.00113382
-0.000249291
0.00116567
-0.000274051
0.00120003
-0.000300233
0.00123696
-0.000327852
0.00127653
-0.000356903
0.00131877
-0.000387351
0.00136372
-0.00041913
0.00141138
-0.000452157
0.00146178
-0.000486253
0.0015149
-0.000521271
0.0015707
-0.000557003
0.00162911
-0.000593171
0.00169006
-0.000629523
0.00175346
-0.000665665
0.00181916
-0.000701329
0.00188703
-0.000736049
0.0019569
-0.00076959
0.00202858
-0.000801379
0.00210189
-0.000831373
0.00217659
-0.000858821
0.00225252
-0.000884092
0.00232936
-0.000906059
0.00240706
-0.000925937
0.00248517
-0.000941681
0.00256386
-0.000956281
0.00264242
-0.000965414
0.00272144
-0.000976021
0.00279978
-0.000978178
0.00287865
-0.000987839
0.0029564
-0.00098211
0.00303479
-0.000996296
0.00311217
-0.000981331
0.00318976
-0.00100718
0.00326775
-0.000985665
0.00334453
-0.00102465
-0.00102278
0.00148976
0.0001356
0.00147194
0.000130078
0.00145581
0.00012409
0.00144082
0.000119206
0.00142664
0.000114158
0.00141321
0.00010838
0.00140053
0.000101998
0.0013886
9.51469e-05
0.00137747
8.78567e-05
0.00136718
8.01403e-05
0.0013578
7.20166e-05
0.00134939
6.34976e-05
0.001342
5.45817e-05
0.00133569
4.52538e-05
0.00133051
3.54824e-05
0.00132653
2.52097e-05
0.00132378
1.43212e-05
0.00132233
2.48128e-06
0.00132239
-9.13758e-06
0.00132386
-2.1218e-05
0.00132685
-3.39043e-05
0.00133141
-4.72089e-05
0.0013376
-6.11752e-05
0.00134547
-7.58585e-05
0.0013551
-9.13275e-05
0.00136655
-0.000107661
0.00137989
-0.000124932
0.00139521
-0.000143207
0.00141258
-0.00016256
0.00143206
-0.000183065
0.00145373
-0.000204793
0.00147766
-0.000227814
0.00150392
-0.000252181
0.00153257
-0.000277945
0.00156368
-0.000305157
0.00159728
-0.000333841
0.00163344
-0.000364006
0.00167217
-0.000395634
0.0017135
-0.000428681
0.00175744
-0.000463068
0.00180397
-0.00049869
0.00185309
-0.000535371
0.00190474
-0.000572927
0.00195888
-0.000611139
0.00201541
-0.000649702
0.00207424
-0.00068835
0.00213524
-0.000726665
0.00219828
-0.00076437
0.00226319
-0.000800958
0.00232981
-0.000836214
0.00239794
-0.000869502
0.00246741
-0.000900842
0.00253796
-0.00092937
0.00260947
-0.000955612
0.00268163
-0.00097821
0.00275441
-0.000998724
0.00282737
-0.00101463
0.00290072
-0.00102964
0.00297376
-0.00103846
0.00304712
-0.00104938
0.00311971
-0.00105077
0.00319268
-0.00106081
0.00326461
-0.00105404
0.00333688
-0.00106857
0.00340848
-0.00105293
0.0034798
-0.0010785
0.00355202
-0.00105789
0.00362252
-0.00109515
-0.00109513
0.00203379
0.00200645
0.000157419
0.00198133
0.00014921
0.00195798
0.000142551
0.00193609
0.00013605
0.00191551
0.000128962
0.00189615
0.000121354
0.00187797
0.000113325
0.00186096
0.000104869
0.00184513
9.59737e-05
0.0018305
8.66434e-05
0.00181712
7.68819e-05
0.00180501
6.66837e-05
0.00179423
5.60321e-05
0.00178482
4.48965e-05
0.00177681
3.32231e-05
0.00177022
2.09114e-05
0.001765
7.70218e-06
0.00176166
-5.80322e-06
0.0017599
-1.94534e-05
0.00175984
-3.38464e-05
0.00176153
-4.88976e-05
0.00176501
-6.46549e-05
0.00177033
-8.11799e-05
0.00177755
-9.85463e-05
0.00178673
-0.000116842
0.00179794
-0.000136142
0.00181124
-0.00015651
0.0018267
-0.000178019
0.00184438
-0.00020074
0.00186433
-0.000224743
0.0018866
-0.000250092
0.00191126
-0.00027684
0.00193835
-0.000305035
0.00196791
-0.000334713
0.00199996
-0.000365895
0.00203453
-0.000398577
0.00207163
-0.000432733
0.00211126
-0.000468304
0.00215339
-0.0005052
0.00219799
-0.000543294
0.00224503
-0.000582409
0.00229443
-0.000622331
0.00234612
-0.000662827
0.00239999
-0.000703571
0.00245592
-0.000744284
0.00251378
-0.000784525
0.00257343
-0.000824015
0.00263468
-0.000862206
0.00269738
-0.000898915
0.00276131
-0.000933437
0.00282634
-0.000965873
0.00289221
-0.000995234
0.00295882
-0.00102223
0.00302586
-0.00104524
0.00309335
-0.00106622
0.00316085
-0.00108213
0.00322862
-0.00109741
0.00329599
-0.00110582
0.00336357
-0.00111697
0.00343039
-0.00111759
0.00349746
-0.00112787
0.00356366
-0.00112024
0.00362996
-0.00113487
0.00369597
-0.00111894
0.00376129
-0.00114382
0.00382796
-0.00112455
0.00389261
-0.0011598
-0.00116165
0.00258636
0.00254985
0.000185724
0.00251571
0.000176684
0.00248372
0.000168048
0.00245366
0.000159017
0.00242541
0.000149609
0.00239886
0.000139875
0.00237396
0.000129771
0.00235067
0.000119257
0.002329
0.000108318
0.00230894
9.69418e-05
0.00229051
8.51148e-05
0.00227372
7.28147e-05
0.00225861
6.00102e-05
0.00224518
4.66544e-05
0.00223341
3.26798e-05
0.0022232
1.79126e-05
0.00221535
2.04715e-06
0.00220916
-1.32657e-05
0.0022049
-2.95797e-05
0.00220263
-4.66307e-05
0.00220237
-6.44004e-05
0.00220416
-8.29621e-05
0.00220801
-0.000102403
0.002214
-0.000122827
0.00222217
-0.000144312
0.00223257
-0.000166917
0.00224526
-0.000190709
0.00226029
-0.000215761
0.00227768
-0.000242136
0.00229748
-0.000269893
0.00231972
-0.000299084
0.00234443
-0.000329746
0.00237163
-0.00036191
0.00240132
-0.000395584
0.0024335
-0.000430756
0.00246816
-0.000467388
0.00250526
-0.000505408
0.00254477
-0.000544713
0.00258664
-0.000585159
0.00263079
-0.000626561
0.00267714
-0.000668679
0.00272559
-0.000711275
0.00277601
-0.000753998
0.0028283
-0.000796565
0.00288228
-0.000838508
0.00293782
-0.000879558
0.00299474
-0.000919125
0.00305289
-0.000957067
0.00311206
-0.000992607
0.00317213
-0.00102594
0.00323285
-0.00105595
0.00329417
-0.00108354
0.00335576
-0.00110684
0.0034177
-0.00112817
0.00347956
-0.00114399
0.00354164
-0.00115948
0.00360329
-0.00116748
0.00366512
-0.00117879
0.00372629
-0.00117876
0.00378761
-0.00118919
0.00384833
-0.00118096
0.00390894
-0.00119548
0.00396967
-0.00117968
0.00402943
-0.00120357
0.00409089
-0.00118601
0.00415024
-0.00121916
-0.00122283
0.00314267
0.000234612
0.0030966
0.000222754
0.00305323
0.000211418
0.00301236
0.000199888
0.00297383
0.000188142
0.00293753
0.000176178
0.00290337
0.000163926
0.0028713
0.000151325
0.00284128
0.000138337
0.00281329
0.000124933
0.00278732
0.000111086
0.00276337
9.67669e-05
0.00274144
8.19394e-05
0.00272154
6.65559e-05
0.00270366
5.05588e-05
0.00268774
3.38359e-05
0.00267351
1.62789e-05
0.00266252
-2.28296e-06
0.00265316
-2.02218e-05
0.00264604
-3.95059e-05
0.00264119
-5.95526e-05
0.00263861
-8.03815e-05
0.0026383
-0.000102096
0.00264031
-0.000124833
0.00264467
-0.000148673
0.00265142
-0.000173666
0.00266059
-0.000199879
0.00267221
-0.00022738
0.0026863
-0.000256228
0.00270288
-0.000286474
0.00272196
-0.000318165
0.00274355
-0.000351332
0.00276763
-0.000385994
0.0027942
-0.000422152
0.00282323
-0.000459782
0.00285468
-0.000498835
0.00288849
-0.000539226
0.00292462
-0.00058084
0.00296298
-0.000623515
0.00300348
-0.000667063
0.00304602
-0.000711223
0.0030905
-0.000755749
0.00313677
-0.000800269
0.0031847
-0.000844503
0.00323415
-0.000887958
0.00328498
-0.000930382
0.003337
-0.000971144
0.00339008
-0.00101015
0.00344403
-0.00104656
0.00349875
-0.00108066
0.00355399
-0.0011112
0.00360975
-0.0011393
0.00366572
-0.00116281
0.00372201
-0.00118446
0.00377822
-0.0012002
0.00383464
-0.0012159
0.00389072
-0.00122356
0.00394698
-0.00123505
0.00400276
-0.00123455
0.00405866
-0.00124509
0.00411426
-0.00123656
0.00416963
-0.00125085
0.00422554
-0.00123558
0.00428031
-0.00125834
0.00433707
-0.00124276
0.00439177
-0.00127386
-0.00127931
0.00373066
0.00367351
0.000279914
0.00361931
0.000265609
0.00356792
0.000251278
0.00351922
0.000236843
0.00347314
0.000222264
0.00342959
0.000207474
0.00338851
0.000192401
0.00334986
0.000176987
0.00331361
0.000161188
0.00327973
0.000144967
0.00324821
0.000128286
0.00321904
0.000111104
0.00319223
9.33717e-05
0.00316775
7.50351e-05
0.00314557
5.60115e-05
0.00312567
3.61832e-05
0.00310788
1.55034e-05
0.00309354
-5.87768e-06
0.00308113
-2.70983e-05
0.00307119
-4.96095e-05
0.00306375
-7.29399e-05
0.00305878
-9.71281e-05
0.0030563
-0.000122358
0.00305634
-0.000148714
0.00305892
-0.000176237
0.00306403
-0.000204995
0.0030717
-0.000235051
0.00308193
-0.000266455
0.00309471
-0.000299255
0.00311003
-0.000333488
0.00312788
-0.000369181
0.00314823
-0.000406341
0.00317104
-0.000444961
0.00319626
-0.000485004
0.00322384
-0.000526414
0.0032537
-0.00056909
0.00328577
-0.000612912
0.00331996
-0.000657701
0.00335616
-0.000703263
0.00339426
-0.000749322
0.00343414
-0.000795629
0.00347566
-0.000841794
0.00351871
-0.000887544
0.00356311
-0.000932363
0.00360875
-0.000976025
0.00365547
-0.00101786
0.00370314
-0.00105783
0.00375159
-0.001095
0.00380074
-0.00112981
0.00385039
-0.00116085
0.00390054
-0.00118944
0.00395092
-0.00121319
0.00400164
-0.00123518
0.00405238
-0.00125093
0.00410338
-0.0012669
0.0041542
-0.00127439
0.00420526
-0.0012861
0.0042561
-0.00128539
0.00430706
-0.00129604
0.00435809
-0.00128759
0.00440882
-0.00130158
0.00446048
-0.00128724
0.00451096
-0.00130883
0.00456365
-0.00129545
0.00461446
-0.00132467
-0.00133183
0.00421211
0.000345081
0.00414976
0.000327961
0.00409015
0.000310888
0.00403327
0.000293716
0.00397913
0.000276407
0.00392768
0.000258925
0.00387888
0.000241198
0.00383271
0.000223155
0.00378915
0.000204748
0.00374819
0.000185933
0.00370981
0.000166666
0.00367401
0.000146903
0.00364079
0.000126596
0.00361013
0.000105691
0.00358201
8.41259e-05
0.00355638
6.18162e-05
0.00353322
3.86694e-05
0.00351277
1.45717e-05
0.00349563
-9.95929e-06
0.0034807
-3.46837e-05
0.00346839
-6.06248e-05
0.00345869
-8.74289e-05
0.00345162
-0.000115288
0.00344718
-0.000144279
0.00344538
-0.000174432
0.0034462
-0.000205818
0.00344965
-0.000238496
0.0034557
-0.000272506
0.00346433
-0.000307888
0.00347552
-0.000344674
0.00348922
-0.000382882
0.00350539
-0.000422512
0.00352397
-0.000463548
0.00354491
-0.000505943
0.00356813
-0.000549631
0.00359354
-0.000594503
0.00362106
-0.00064043
0.00365058
-0.000687221
0.003682
-0.00073468
0.00371519
-0.000782517
0.00375005
-0.000830486
0.00378644
-0.000878181
0.00382423
-0.000925341
0.0038633
-0.000971428
0.00390352
-0.00101625
0.00394475
-0.00105909
0.0039869
-0.00109998
0.00402982
-0.00113792
0.00407344
-0.00117344
0.00411761
-0.00120501
0.00416232
-0.00123416
0.00420737
-0.00125823
0.00425285
-0.00128067
0.00429851
-0.00129658
0.00434454
-0.00131293
0.00439063
-0.00132048
0.00443704
-0.00133252
0.00448356
-0.00133191
0.00453023
-0.00134272
0.00457736
-0.00133472
0.00462419
-0.00134842
0.00467232
-0.00133537
0.00471932
-0.00135583
0.00476869
-0.00134482
0.00481642
-0.0013724
-0.00138122
0.00467698
0.00461096
0.00039398
0.00454728
0.000374577
0.00448603
0.000354957
0.0044273
0.000335141
0.0043711
0.000315127
0.00431745
0.000294849
0.00426636
0.000274242
0.00421785
0.000253259
0.00417193
0.000231855
0.00412861
0.000209986
0.0040879
0.000187607
0.00404982
0.000164674
0.00401438
0.000141137
0.00398156
0.00011694
0.00395136
9.20171e-05
0.00392374
6.62964e-05
0.00389859
3.97141e-05
0.00387661
1.20277e-05
0.00385754
-1.56206e-05
0.00384088
-4.39592e-05
0.00382686
-7.34107e-05
0.00381553
-0.000103957
0.00380687
-0.000135618
0.00380086
-0.000168423
0.00379749
-0.000202449
0.00379674
-0.000237748
0.00379859
-0.00027435
0.00380299
-0.000312288
0.0038099
-0.000351588
0.00381928
-0.00039226
0.00383106
-0.000434297
0.00384519
-0.000477674
0.00386158
-0.000522337
0.00388017
-0.000568214
0.00390085
-0.000615185
0.00392354
-0.000663118
0.00394813
-0.000711812
0.00397452
-0.000761072
0.0040026
-0.000810597
0.00403226
-0.000860144
0.00406338
-0.000909298
0.00409585
-0.000957813
0.00412955
-0.00100513
0.0041644
-0.00105109
0.00420025
-0.00109494
0.00423706
-0.00113678
0.00427468
-0.00117554
0.0043131
-0.00121186
0.00435215
-0.00124407
0.00439188
-0.00127389
0.0044321
-0.00129845
0.00447292
-0.00132148
0.00451411
-0.00133777
0.00455584
-0.00135466
0.00459789
-0.00136254
0.00464041
-0.00137504
0.00468336
-0.00137485
0.00472656
-0.00138592
0.00477058
-0.00137873
0.00481438
-0.00139222
0.00485978
-0.00138077
0.0049042
-0.00140025
0.00495109
-0.0013917
0.00499663
-0.00141794
-0.00142838
0.0049758
0.00491328
0.000437092
0.0048526
0.000415638
0.00479388
0.000393863
0.00473721
0.000371794
0.00468268
0.000349381
0.00463035
0.000326575
0.00458027
0.000303337
0.0045325
0.000279625
0.00448709
0.000255399
0.00444408
0.000230618
0.00440351
0.000205242
0.00436541
0.000179229
0.00432982
0.000152532
0.00429674
0.000125101
0.00426616
9.68787e-05
0.00423805
6.78239e-05
0.00421226
3.78111e-05
0.00419033
6.3158e-06
0.00417045
-2.408e-05
0.00415288
-5.58474e-05
0.00413794
-8.901e-05
0.0041256
-0.000123283
0.00411585
-0.000158671
0.00410866
-0.000195266
0.00410402
-0.000233108
0.00410189
-0.000272219
0.00410223
-0.000312626
0.00410499
-0.000354347
0.00411012
-0.000397387
0.00411755
-0.000441732
0.00412723
-0.000487352
0.00413908
-0.000534185
0.00415302
-0.000582153
0.00416896
-0.000631131
0.00418683
-0.000680983
0.00420652
-0.000731503
0.00422794
-0.000782496
0.004251
-0.000833654
0.0042756
-0.000884744
0.00430164
-0.000935337
0.00432903
-0.000985207
0.00435768
-0.00103378
0.00438751
-0.00108092
0.00441842