/*--------------------------------*- C++ -*----------------------------------*\
  =========                 |
  \\      /  F ield         | OpenFOAM: The Open Source CFD Toolbox
   \\    /   O peration     | Website:  https://openfoam.org
    \\  /    A nd           | Version:  7
     \\/     M anipulation  |
\*---------------------------------------------------------------------------*/
FoamFile
{
    version     2.0;
    format      ascii;
    class       volScalarField;
    location    "2";
    object      p;
}
// * * * * * * * * * * * * * * * * * * * * * * * * * * * * * * * * * * * * * //

dimensions      [0 2 -2 0 0 0 0];

internalField   nonuniform List<scalar> 
433
(
-0.455031
-0.414598
-0.412663
-0.371491
-0.369965
-0.368493
-0.367146
-0.325894
-0.324791
-0.323739
-0.32278
-0.321809
-0.32077
-0.278
-0.277333
-0.276713
-0.276155
-0.275579
-0.274936
-0.274185
-0.273286
-0.228035
-0.227816
-0.227636
-0.227488
-0.227316
-0.227077
-0.226729
-0.22623
-0.225529
-0.224579
-0.176245
-0.176482
-0.176752
-0.17702
-0.177258
-0.17743
-0.177493
-0.1774
-0.177104
-0.176556
-0.175703
-0.174497
-0.122898
-0.123597
-0.124323
-0.125012
-0.125666
-0.126255
-0.126733
-0.127053
-0.127169
-0.127031
-0.126589
-0.125793
-0.124595
-0.122949
-0.0682806
-0.069446
-0.0706314
-0.0717446
-0.0728167
-0.0738251
-0.0747228
-0.075462
-0.0759954
-0.0762752
-0.0762525
-0.0758793
-0.0751087
-0.073897
-0.0722034
-0.0699934
-0.0126958
-0.014329
-0.0159748
-0.0175133
-0.0190048
-0.0204344
-0.0217538
-0.0229146
-0.0238704
-0.0245743
-0.0249791
-0.0250384
-0.0247078
-0.0239458
-0.0227149
-0.0209835
-0.0187255
-0.0159232
0.0435384
0.0414379
0.0393329
0.0373703
0.0354605
0.0336102
0.031869
0.0302855
0.0289049
0.0277727
0.0269344
0.0264341
0.026314
0.0266128
0.0273646
0.0285981
0.0303356
0.0325913
0.0353711
0.0386715
0.042479
0.100091
0.0975262
0.0949654
0.092582
0.090257
0.0879889
0.085828
0.0838228
0.0820173
0.080455
0.0791793
0.0782321
0.0776529
0.0774774
0.0777366
0.0784559
0.0796536
0.0813406
0.083519
0.0861821
0.0893131
0.0928861
0.0968652
0.15662
0.153597
0.150586
0.147788
0.145053
0.142372
0.139796
0.137372
0.135144
0.133152
0.131437
0.13004
0.128996
0.128339
0.128095
0.128287
0.12893
0.13003
0.131588
0.133592
0.136024
0.138855
0.142047
0.145553
0.149322
0.212776
0.209304
0.205852
0.202646
0.199509
0.196422
0.193437
0.190601
0.187954
0.185535
0.183384
0.181536
0.180025
0.178881
0.178128
0.177784
0.177861
0.178363
0.179285
0.180615
0.182331
0.184402
0.186789
0.189446
0.192319
0.268208
0.264297
0.260414
0.256811
0.253282
0.249799
0.246414
0.243173
0.240114
0.237275
0.234691
0.232395
0.230418
0.228787
0.227522
0.226637
0.226143
0.226038
0.226316
0.226962
0.227951
0.229252
0.230824
0.232622
0.32256
0.318224
0.313925
0.309938
0.306028
0.302161
0.298387
0.294751
0.291291
0.288039
0.285029
0.282291
0.279853
0.277737
0.27596
0.274536
0.273468
0.272755
0.272386
0.272343
0.272602
0.273129
0.375484
0.370739
0.366039
0.361682
0.357406
0.353169
0.349019
0.345002
0.341151
0.337498
0.334072
0.3309
0.328008
0.325414
0.323133
0.321172
0.319535
0.318216
0.317202
0.316474
0.316004
0.426635
0.4215
0.416417
0.411707
0.407082
0.402489
0.39798
0.393596
0.389369
0.385328
0.381498
0.377906
0.37457
0.371509
0.368732
0.366245
0.364046
0.362129
0.360479
0.47568
0.470175
0.46473
0.459685
0.454729
0.4498
0.444948
0.440214
0.435628
0.431214
0.426997
0.422998
0.419234
0.415719
0.41246
0.409459
0.406714
0.404213
0.522298
0.516447
0.510661
0.505302
0.500033
0.494787
0.489612
0.484548
0.479622
0.474854
0.470267
0.46588
0.461705
0.457754
0.454031
0.450535
0.447261
0.566185
0.56001
0.553908
0.548256
0.542697
0.537155
0.531678
0.526305
0.521058
0.515957
0.511022
0.506266
0.501702
0.497337
0.493171
0.607053
0.600581
0.594186
0.588265
0.582437
0.576622
0.570866
0.565206
0.559662
0.554251
0.54899
0.54389
0.538961
0.534205
0.644635
0.637892
0.631232
0.625065
0.618993
0.612928
0.606917
0.600993
0.595177
0.589481
0.58392
0.578502
0.573234
0.678686
0.671699
0.664801
0.658413
0.652121
0.645832
0.63959
0.63343
0.627367
0.621413
0.615579
0.609872
0.708983
0.701782
0.694672
0.688089
0.681604
0.675116
0.668671
0.6623
0.656018
0.649834
0.643757
0.637792
0.735329
0.727942
0.720651
0.7139
0.707246
0.700587
0.693965
0.687412
0.680939
0.674555
0.668266
0.757552
0.750009
0.742565
0.735673
0.728878
0.722075
0.715305
0.708598
0.701964
0.695412
0.775506
0.767839
0.760272
0.753266
0.746358
0.739439
0.732549
0.725718
0.718955
0.712266
0.789076
0.781314
0.773655
0.766563
0.75957
0.752563
0.745583
0.738658
0.731798
0.798172
0.790347
0.782626
0.775477
0.768427
0.761361
0.754321
0.747334
0.740408
0.802735
0.794878
0.787127
0.779949
0.77287
0.765775
0.758704
0.751686
0.744727
0.802735
0.794878
0.787126
)
;

boundaryField
{
    inlet
    {
        type            zeroGradient;
    }
    outlet
    {
        type            fixedValue;
        value           nonuniform 0();
    }
    cylinder
    {
        type            zeroGradient;
    }
    top
    {
        type            symmetryPlane;
    }
    bottom
    {
        type            symmetryPlane;
    }
    defaultFaces
    {
        type            empty;
    }
    procBoundary19to12
    {
        type            processor;
        value           uniform 0.737831;
    }
    procBoundary19to13
    {
        type            processor;
        value           nonuniform List<scalar> 10(0.779949 0.77287 0.765775 0.758704 0.751686 0.744727 0.798172 0.790347 0.779949 0.782626);
    }
    procBoundary19to18
    {
        type            processor;
        value           nonuniform List<scalar> 
25
(
0.359073
0.357884
0.359073
0.401939
0.401939
0.444195
0.489203
0.444195
0.485423
0.489203
0.529624
0.529624
0.568118
0.568118
0.604296
0.604296
0.63194
0.662076
0.662076
0.688944
0.688944
0.705654
0.725006
0.725006
0.733547
)
;
    }
    procBoundary19to24
    {
        type            processor;
        value           nonuniform List<scalar> 8(0.195349 0.234592 0.273883 0.234592 0.27482 0.273883 0.315759 0.315759);
    }
    procBoundary19to25
    {
        type            processor;
        value           nonuniform List<scalar> 
38
(
-0.492645
-0.452709
-0.452709
-0.410789
-0.410789
-0.409066
-0.365792
-0.365792
-0.36437
-0.319627
-0.319627
-0.31834
-0.272191
-0.272191
-0.270852
-0.223328
-0.223328
-0.221726
-0.172887
-0.172887
-0.170825
-0.120813
-0.120813
-0.118148
-0.0672382
-0.0672382
-0.0639162
-0.0125672
-0.0125672
-0.00865754
-0.00420424
0.0467702
0.0467702
0.0515117
0.101205
0.101205
0.105853
0.153291
)
;
    }
}


// ************************************************************************* //
