/*--------------------------------*- C++ -*----------------------------------*\
  =========                 |
  \\      /  F ield         | OpenFOAM: The Open Source CFD Toolbox
   \\    /   O peration     | Website:  https://openfoam.org
    \\  /    A nd           | Version:  7
     \\/     M anipulation  |
\*---------------------------------------------------------------------------*/
FoamFile
{
    version     2.0;
    format      ascii;
    class       surfaceScalarField;
    location    "3.4";
    object      phi;
}
// * * * * * * * * * * * * * * * * * * * * * * * * * * * * * * * * * * * * * //

dimensions      [0 3 -1 0 0 0 0];

internalField   nonuniform List<scalar> 
614
(
0.000273511
1.8106e-06
0.000272999
1.79684e-06
0.000272491
1.78311e-06
0.000271988
1.76942e-06
0.00027149
1.75577e-06
0.000270996
1.74216e-06
0.000270507
1.72859e-06
0.000270022
1.71505e-06
0.000269542
1.70155e-06
0.000269066
1.6881e-06
0.000268594
1.67468e-06
0.000268127
1.66131e-06
0.000267664
1.64797e-06
0.000267206
1.63468e-06
0.000266752
1.62143e-06
0.000266302
1.60822e-06
0.000265856
1.59506e-06
0.000265414
1.58195e-06
0.000264977
1.56888e-06
0.000264544
1.55586e-06
0.000264114
1.54289e-06
0.000263689
1.52998e-06
0.000263268
1.51711e-06
0.000262851
1.5043e-06
0.000262438
1.49155e-06
0.000262029
1.47886e-06
0.000261623
1.46623e-06
0.000261222
1.45366e-06
0.000260824
1.44116e-06
0.00026043
1.42872e-06
0.00026004
1.41636e-06
0.000259654
1.40406e-06
0.000259271
1.39184e-06
0.000258892
1.3797e-06
0.000258517
1.36763e-06
0.000258145
1.35564e-06
0.000257777
1.34373e-06
0.000257412
1.3319e-06
0.000257051
1.32015e-06
0.000256694
1.30847e-06
0.000256339
1.29687e-06
0.000255988
1.28535e-06
0.000255641
1.2739e-06
0.000255297
1.26251e-06
0.000254956
1.25119e-06
0.000254618
1.23992e-06
0.000254284
1.22869e-06
0.000253953
1.21749e-06
0.000253625
1.20631e-06
0.0002533
1.19513e-06
0.000252979
1.18393e-06
0.00025266
1.17268e-06
0.000252345
1.16136e-06
0.000252033
1.14992e-06
0.000251725
1.13834e-06
0.00025142
1.12652e-06
0.000251118
1.11451e-06
0.00025082
1.10201e-06
0.000250525
1.08945e-06
0.000250235
1.07564e-06
0.000249948
1.06281e-06
0.000249665
1.0461e-06
0.000249386
1.03498e-06
1.01176e-06
0.000313425
2.45366e-06
0.000312844
2.43368e-06
0.000312268
2.41381e-06
0.000311698
2.39404e-06
0.000311135
2.37437e-06
0.000310577
2.3548e-06
0.000310024
2.33533e-06
0.000309478
2.31595e-06
0.000308937
2.29667e-06
0.000308402
2.27749e-06
0.000307872
2.2584e-06
0.000307348
2.23941e-06
0.000306829
2.22051e-06
0.000306315
2.20171e-06
0.000305807
2.183e-06
0.000305304
2.16439e-06
0.000304806
2.14587e-06
0.000304313
2.12744e-06
0.000303825
2.10911e-06
0.000303343
2.09087e-06
0.000302865
2.07273e-06
0.000302392
2.05468e-06
0.000301924
2.03673e-06
0.000301461
2.01888e-06
0.000301003
2.00112e-06
0.00030055
1.98347e-06
0.000300101
1.96591e-06
0.000299657
1.94846e-06
0.000299217
1.93112e-06
0.000298782
1.91388e-06
0.000298351
1.89676e-06
0.000297925
1.87974e-06
0.000297504
1.86284e-06
0.000297086
1.84605e-06
0.000296673
1.82939e-06
0.000296265
1.81284e-06
0.00029586
1.79642e-06
0.00029546
1.78012e-06
0.000295063
1.76395e-06
0.000294671
1.7479e-06
0.000294283
1.73198e-06
0.000293898
1.71619e-06
0.000293518
1.70053e-06
0.000293142
1.68499e-06
0.000292769
1.66957e-06
0.0002924
1.65427e-06
0.000292035
1.63909e-06
0.000291673
1.62401e-06
0.000291315
1.60903e-06
0.000290961
1.59414e-06
0.000290611
1.57932e-06
0.000290263
1.56457e-06
0.00028992
1.54985e-06
0.00028958
1.53514e-06
0.000289243
1.52043e-06
0.00028891
1.50567e-06
0.000288581
1.49082e-06
0.000288255
1.47584e-06
0.000287933
1.46068e-06
0.000287614
1.44523e-06
0.000287299
1.42952e-06
0.000286988
1.41321e-06
0.000286681
1.39675e-06
0.000286377
1.37879e-06
0.000286078
1.36184e-06
0.000285784
1.34019e-06
0.000285494
1.32529e-06
1.29494e-06
0.000345528
3.06467e-06
0.000344924
3.03756e-06
0.000344328
3.01065e-06
0.000343738
2.98393e-06
0.000343155
2.95741e-06
0.000342578
2.93107e-06
0.000342009
2.90493e-06
0.000341446
2.87897e-06
0.000340889
2.85319e-06
0.000340339
2.82759e-06
0.000339795
2.80218e-06
0.000339258
2.77693e-06
0.000338727
2.75187e-06
0.000338201
2.72697e-06
0.000337682
2.70225e-06
0.000337169
2.6777e-06
0.000336661
2.65331e-06
0.00033616
2.6291e-06
0.000335664
2.60504e-06
0.000335173
2.58116e-06
0.000334689
2.55744e-06
0.000334209
2.53388e-06
0.000333736
2.51049e-06
0.000333267
2.48726e-06
0.000332804
2.4642e-06
0.000332346
2.4413e-06
0.000331894
2.41858e-06
0.000331446
2.39602e-06
0.000331004
2.37363e-06
0.000330566
2.35142e-06
0.000330134
2.32938e-06
0.000329706
2.30751e-06
0.000329283
2.28583e-06
0.000328865
2.26432e-06
0.000328451
2.243e-06
0.000328042
2.22186e-06
0.000327637
2.20091e-06
0.000327237
2.18015e-06
0.000326842
2.15957e-06
0.00032645
2.13919e-06
0.000326063
2.11899e-06
0.000325681
2.09899e-06
0.000325302
2.07917e-06
0.000324927
2.05954e-06
0.000324557
2.04008e-06
0.00032419
2.0208e-06
0.000323828
2.00169e-06
0.000323469
1.98274e-06
0.000323114
1.96393e-06
0.000322763
1.94526e-06
0.000322416
1.9267e-06
0.000322072
1.90823e-06
0.000321732
1.88984e-06
0.000321396
1.87148e-06
0.000321063
1.85313e-06
0.000320734
1.83474e-06
0.000320408
1.81626e-06
0.000320087
1.79762e-06
0.000319769
1.77878e-06
0.000319454
1.7596e-06
0.000319144
1.74009e-06
0.000318837
1.71988e-06
0.000318534
1.69939e-06
0.000318236
1.67722e-06
0.000317942
1.65595e-06
0.000317653
1.62932e-06
0.000317368
1.61031e-06
1.57259e-06
0.000371418
3.66588e-06
0.000370824
3.63087e-06
0.000370239
3.59618e-06
0.000369661
3.56181e-06
0.000369091
3.52775e-06
0.000368528
3.49401e-06
0.000367972
3.46057e-06
0.000367424
3.42742e-06
0.000366882
3.39457e-06
0.000366348
3.36202e-06
0.00036582
3.32974e-06
0.000365299
3.29775e-06
0.000364785
3.26603e-06
0.000364278
3.23459e-06
0.000363777
3.20342e-06
0.000363282
3.17251e-06
0.000362793
3.14186e-06
0.000362311
3.11147e-06
0.000361835
3.08134e-06
0.000361364
3.05147e-06
0.0003609
3.02185e-06
0.000360441
2.99248e-06
0.000359988
2.96336e-06
0.000359541
2.93448e-06
0.000359099
2.90586e-06
0.000358663
2.87749e-06
0.000358232
2.84936e-06
0.000357807
2.82149e-06
0.000357387
2.79387e-06
0.000356972
2.7665e-06
0.000356562
2.73938e-06
0.000356157
2.71252e-06
0.000355757
2.68591e-06
0.000355361
2.65956e-06
0.000354971
2.63348e-06
0.000354585
2.60765e-06
0.000354204
2.58209e-06
0.000353827
2.5568e-06
0.000353455
2.53176e-06
0.000353087
2.507e-06
0.000352724
2.48249e-06
0.000352364
2.45825e-06
0.000352009
2.43426e-06
0.000351658
2.41053e-06
0.000351311
2.38705e-06
0.000350968
2.36381e-06
0.000350629
2.34079e-06
0.000350294
2.318e-06
0.000349963
2.2954e-06
0.000349635
2.27299e-06
0.000349311
2.25075e-06
0.00034899
2.22864e-06
0.000348674
2.20663e-06
0.00034836
2.1847e-06
0.000348051
2.16279e-06
0.000347745
2.14085e-06
0.000347442
2.11882e-06
0.000347143
2.09664e-06
0.000346848
2.07421e-06
0.000346556
2.05142e-06
0.000346268
2.02821e-06
0.000345983
2.00424e-06
0.000345703
1.97982e-06
0.000345426
1.95361e-06
0.000345154
1.92805e-06
0.000344887
1.89669e-06
0.000344624
1.87339e-06
1.8285e-06
0.000390769
4.22081e-06
0.000390223
4.1776e-06
0.000389684
4.13487e-06
0.000389153
4.0926e-06
0.00038863
4.05079e-06
0.000388115
4.00942e-06
0.000387607
3.9685e-06
0.000387106
3.92801e-06
0.000386613
0.000386126
0.000385647
0.000385175
0.000384709
0.00038425
0.000383797
0.000383351
0.000382911
0.000382477
0.000382049
0.000381628
0.000381212
0.000380802
0.000380397
0.000379998
0.000379605
0.000379217
0.000378834
0.000378456
0.000378084
0.000377716
0.000377354
0.000376996
0.000376643
0.000376295
0.000375951
0.000375612
0.000375277
0.000374947
0.00037462
0.000374298
0.00037398
0.000373666
0.000373356
0.00037305
0.000372747
0.000372448
0.000372153
0.000371862
0.000371573
0.000371289
0.000371007
0.00037073
0.000370455
0.000370184
0.000369916
0.000369651
0.000369389
0.000369131
0.000368876
0.000368624
0.000368375
0.00036813
0.000367889
0.000367651
0.000367417
0.000367188
0.000366962
0.000403442
0.000402979
0.000402523
0.000402074
0.000401633
0.0004012
0.000400773
)
;

boundaryField
{
    inlet
    {
        type            calculated;
        value           nonuniform 0();
    }
    outlet
    {
        type            calculated;
        value           nonuniform List<scalar> 5(0.000249114 0.000285211 0.00031709 0.000344368 0.000366743);
    }
    wall
    {
        type            calculated;
        value           nonuniform 0();
    }
    wedge1
    {
        type            wedge;
        value           nonuniform List<scalar> 
344
(
-3.66366e-16
-5.86261e-17
-4.37604e-16
-6.62032e-17
-4.69682e-16
-3.63507e-16
-5.81206e-17
-4.33569e-16
-6.55413e-17
-4.64705e-16
-3.60655e-16
-5.76247e-17
-4.29563e-16
-6.48928e-17
-4.59786e-16
-3.57824e-16
-5.71235e-17
-4.25602e-16
-6.42425e-17
-4.54929e-16
-4.48424e-17
-3.54969e-16
-5.66447e-17
-4.21646e-16
-6.36154e-17
-4.50114e-16
-4.45173e-17
-3.52156e-16
-5.61556e-17
-4.17745e-16
-6.2985e-17
-4.45367e-16
-4.41922e-17
-3.49362e-16
-5.56772e-17
-4.13881e-16
-6.23648e-17
-4.40681e-16
-4.38685e-17
-3.4657e-16
-5.51929e-17
-4.10041e-16
-6.17427e-17
-4.36038e-16
-4.35445e-17
-3.4378e-16
-5.47174e-17
-4.06226e-16
-6.11346e-17
-4.32175e-17
-3.41011e-16
-5.42395e-17
-4.0245e-16
-6.05263e-17
-4.28931e-17
-3.38242e-16
-5.37665e-17
-3.98694e-16
-5.99262e-17
-4.25662e-17
-3.35499e-16
-5.32946e-17
-3.94982e-16
-5.93299e-17
-4.22432e-17
-3.32751e-16
-5.28404e-17
-3.91286e-16
-5.87508e-17
-4.19185e-17
-3.30029e-16
-5.23783e-17
-3.8763e-16
-5.81697e-17
-4.15991e-17
-3.27313e-16
-5.19178e-17
-3.84e-16
-5.75925e-17
-4.12792e-17
-3.24615e-16
-5.14644e-17
-3.80402e-16
-5.70249e-17
-4.09591e-17
-3.21924e-16
-5.10072e-17
-3.76828e-16
-5.64574e-17
-4.06395e-17
-3.19236e-16
-5.0559e-17
-3.73277e-16
-5.58984e-17
-4.03216e-17
-3.16569e-16
-5.0106e-17
-3.69759e-16
-5.5341e-17
-4.00032e-17
-3.13902e-16
-4.9659e-17
-3.66259e-16
-5.47888e-17
-3.96845e-17
-3.11262e-16
-4.92129e-17
-3.62801e-16
-5.42403e-17
-3.93678e-17
-3.0862e-16
-4.87846e-17
-3.59359e-16
-5.37097e-17
-3.90528e-17
-3.05999e-16
-4.83472e-17
-3.55951e-16
-5.31741e-17
-3.87402e-17
-3.03397e-16
-4.7914e-17
-3.52573e-16
-5.2647e-17
-3.84221e-17
-3.00802e-16
-4.74736e-17
-3.4922e-16
-5.21166e-17
-3.81077e-17
-2.98199e-16
-4.70545e-17
-3.45877e-16
-5.1604e-17
-3.77962e-17
-2.95629e-16
-4.66216e-17
-3.42576e-16
-5.10832e-17
-3.74859e-17
-2.93067e-16
-4.61966e-17
-3.39298e-16
-5.0573e-17
-3.71724e-17
-2.90526e-16
-4.57697e-17
-3.36054e-16
-5.00631e-17
-3.68613e-17
-2.87975e-16
-4.53595e-17
-3.32821e-16
-4.95686e-17
-3.65551e-17
-2.85461e-16
-4.49419e-17
-3.2963e-16
-4.9072e-17
-3.62508e-17
-2.82965e-16
-4.45331e-17
-3.2647e-16
-4.85846e-17
-3.59482e-17
-2.80479e-16
-4.41216e-17
-3.23333e-16
-4.80971e-17
-3.56458e-17
-2.78001e-16
-4.37178e-17
-3.20221e-16
-4.76183e-17
-3.53441e-17
-2.75547e-16
-4.33132e-17
-3.17143e-16
-4.71408e-17
-3.50455e-17
-2.73101e-16
-4.29132e-17
-3.14087e-16
-4.66702e-17
-3.47458e-17
-2.7068e-16
-4.25149e-17
-3.11071e-16
-4.62039e-17
-3.44485e-17
-2.68266e-16
-4.21298e-17
-3.08074e-16
-4.57502e-17
-3.41516e-17
-2.65878e-16
-4.17406e-17
-3.05114e-16
-4.52966e-17
-3.38594e-17
-2.63506e-16
-4.13541e-17
-3.02183e-16
-4.48474e-17
-3.35687e-17
-2.61154e-16
-4.09744e-17
-2.99283e-16
-4.44056e-17
-3.32796e-17
-2.58817e-16
-4.05938e-17
-2.9641e-16
-4.39651e-17
-3.29913e-17
-2.56492e-16
-4.02192e-17
-2.93563e-16
-4.35321e-17
-3.27055e-17
-2.5419e-16
-3.98454e-17
-2.90748e-16
-4.31014e-17
-3.24217e-17
-2.51901e-16
-3.94757e-17
-2.87957e-16
-4.26768e-17
-3.21383e-17
-2.49635e-16
-3.91077e-17
-2.85201e-16
-4.22556e-17
-3.18553e-17
-2.47377e-16
-3.87501e-17
-2.82465e-16
-4.18446e-17
-3.15756e-17
-2.4514e-16
-3.83889e-17
-2.79758e-16
-4.14335e-17
-3.12991e-17
-2.42922e-16
-3.80323e-17
-2.77077e-16
-4.10275e-17
-3.10202e-17
-2.40714e-16
-3.76744e-17
-2.74416e-16
-4.06218e-17
-3.07438e-17
-2.38507e-16
-3.73264e-17
-2.71769e-16
-4.02261e-17
-3.04684e-17
-2.3632e-16
-3.6973e-17
-2.69144e-16
-3.98272e-17
-3.01955e-17
-2.34138e-16
-3.66237e-17
-2.66531e-16
-3.9433e-17
-2.99202e-17
-2.31963e-16
-3.6273e-17
-2.63932e-16
-3.90383e-17
-2.96449e-17
-2.29779e-16
-3.5928e-17
-2.6133e-16
-3.86494e-17
-2.93705e-17
-2.276e-16
-3.55793e-17
-2.58735e-16
-3.82578e-17
-2.90943e-17
-2.25413e-16
-3.52306e-17
-2.56134e-16
-3.78664e-17
-2.88164e-17
-2.23209e-16
-3.48786e-17
-2.53518e-16
-3.74725e-17
-2.8535e-17
-2.20982e-16
-3.45244e-17
-2.50879e-16
-3.70759e-17
-2.82508e-17
-2.18725e-16
-3.4166e-17
-2.48207e-16
-3.66749e-17
-2.79607e-17
-2.16436e-16
-3.38014e-17
-2.45496e-16
-3.62673e-17
-2.7659e-17
-2.14071e-16
-3.34266e-17
-2.42708e-16
-3.58495e-17
-2.73586e-17
-2.11687e-16
-3.3047e-17
-2.39877e-16
-3.54242e-17
-2.70341e-17
-2.09126e-16
-3.26424e-17
-2.36872e-16
-3.49753e-17
-2.6725e-17
-2.0666e-16
-3.22483e-17
-2.33912e-16
-3.4528e-17
-2.63467e-17
-2.03675e-16
-3.17795e-17
-2.30426e-16
-3.40105e-17
-2.60458e-17
-2.01289e-16
-3.1393e-17
-2.27524e-16
-3.35652e-17
-2.55033e-17
-1.97014e-16
-3.07186e-17
-2.22523e-16
-3.28215e-17
)
;
    }
    wedge2
    {
        type            wedge;
        value           nonuniform List<scalar> 
344
(
-3.66031e-16
-5.82793e-17
-4.37318e-16
-6.59485e-17
-4.69498e-16
-3.63162e-16
-5.77882e-17
-4.33276e-16
-6.52979e-17
-4.64517e-16
-3.60311e-16
-5.72941e-17
-4.29273e-16
-6.46476e-17
-4.59596e-16
-3.5746e-16
-5.68115e-17
-4.25293e-16
-6.40118e-17
-4.54728e-16
-4.45215e-17
-3.54658e-16
-5.63135e-17
-4.21373e-16
-6.33664e-17
-4.49932e-16
-4.4193e-17
-3.51835e-16
-5.58307e-17
-4.17464e-16
-6.27369e-17
-4.4518e-16
-4.38654e-17
-3.49018e-16
-5.53442e-17
-4.13582e-16
-6.21099e-17
-4.40475e-16
-4.35376e-17
-3.4622e-16
-5.4869e-17
-4.0974e-16
-6.1497e-17
-4.35834e-16
-4.32113e-17
-3.43443e-16
-5.43912e-17
-4.05935e-16
-6.08823e-17
-4.2889e-17
-3.40668e-16
-5.39218e-17
-4.02153e-16
-6.02796e-17
-4.25656e-17
-3.37916e-16
-5.34529e-17
-3.98411e-16
-5.96804e-17
-4.22456e-17
-3.3516e-16
-5.29892e-17
-3.94684e-16
-5.90887e-17
-4.1923e-17
-3.32431e-16
-5.25132e-17
-3.91001e-16
-5.84917e-17
-4.16035e-17
-3.29699e-16
-5.20512e-17
-3.87337e-16
-5.79076e-17
-4.12801e-17
-3.26983e-16
-5.15926e-17
-3.83703e-16
-5.73304e-17
-4.09584e-17
-3.24273e-16
-5.11329e-17
-3.80094e-16
-5.6755e-17
-4.06384e-17
-3.21577e-16
-5.06824e-17
-3.76517e-16
-5.61899e-17
-4.03194e-17
-3.18901e-16
-5.02285e-17
-3.72973e-16
-5.56264e-17
-4e-17
-3.16228e-16
-4.97847e-17
-3.69451e-16
-5.50721e-17
-3.9683e-17
-3.13577e-16
-4.93407e-17
-3.65965e-16
-5.45228e-17
-3.93677e-17
-3.10924e-16
-4.89009e-17
-3.62493e-16
-5.39803e-17
-3.9052e-17
-3.08295e-16
-4.84492e-17
-3.59058e-16
-5.34297e-17
-3.87365e-17
-3.05669e-16
-4.8012e-17
-3.55643e-16
-5.28942e-17
-3.84206e-17
-3.03049e-16
-4.75758e-17
-3.52251e-16
-5.23602e-17
-3.81119e-17
-3.00447e-16
-4.71526e-17
-3.4889e-16
-5.18395e-17
-3.78015e-17
-2.97878e-16
-4.6714e-17
-3.45571e-16
-5.13108e-17
-3.74902e-17
-2.95302e-16
-4.62944e-17
-3.42265e-16
-5.08006e-17
-3.71801e-17
-2.92744e-16
-4.58729e-17
-3.3899e-16
-5.02894e-17
-3.68755e-17
-2.90193e-16
-4.54591e-17
-3.35735e-16
-4.97878e-17
-3.65709e-17
-2.87679e-16
-4.50345e-17
-3.32526e-16
-4.9281e-17
-3.62637e-17
-2.85157e-16
-4.46232e-17
-3.29329e-16
-4.87862e-17
-3.59574e-17
-2.82646e-16
-4.4209e-17
-3.26158e-16
-4.82921e-17
-3.56521e-17
-2.80156e-16
-4.38038e-17
-3.23019e-16
-4.78085e-17
-3.53495e-17
-2.77688e-16
-4.33974e-17
-3.19913e-16
-4.73261e-17
-3.50493e-17
-2.75228e-16
-4.29977e-17
-3.16831e-16
-4.68527e-17
-3.47489e-17
-2.72792e-16
-4.26003e-17
-3.13785e-16
-4.63827e-17
-3.44528e-17
-2.70363e-16
-4.22075e-17
-3.10758e-16
-4.59188e-17
-3.41578e-17
-2.67961e-16
-4.18084e-17
-3.07769e-16
-4.54524e-17
-3.38657e-17
-2.65569e-16
-4.14196e-17
-3.04804e-16
-4.49963e-17
-3.35723e-17
-2.63195e-16
-4.10351e-17
-3.01869e-16
-4.45462e-17
-3.32811e-17
-2.60836e-16
-4.06506e-17
-2.98962e-16
-4.40987e-17
-3.29917e-17
-2.58497e-16
-4.02737e-17
-2.96087e-16
-4.36603e-17
-3.2705e-17
-2.5618e-16
-3.98976e-17
-2.93245e-16
-4.32245e-17
-3.24197e-17
-2.53876e-16
-3.95272e-17
-2.90428e-16
-4.27962e-17
-3.21358e-17
-2.51594e-16
-3.91594e-17
-2.87644e-16
-4.23716e-17
-3.1855e-17
-2.49322e-16
-3.87961e-17
-2.84881e-16
-4.19527e-17
-3.15772e-17
-2.47075e-16
-3.84285e-17
-2.8215e-16
-4.15327e-17
-3.12993e-17
-2.44838e-16
-3.80707e-17
-2.79441e-16
-4.11217e-17
-3.1021e-17
-2.42612e-16
-3.77136e-17
-2.76754e-16
-4.07137e-17
-3.07479e-17
-2.40401e-16
-3.73628e-17
-2.7409e-16
-4.03124e-17
-3.04746e-17
-2.38212e-16
-3.70067e-17
-2.71452e-16
-3.99084e-17
-3.02022e-17
-2.36023e-16
-3.66598e-17
-2.68825e-16
-3.95133e-17
-2.99283e-17
-2.33843e-16
-3.63119e-17
-2.66214e-16
-3.91184e-17
-2.96573e-17
-2.31664e-16
-3.59674e-17
-2.6361e-16
-3.87274e-17
-2.9386e-17
-2.29495e-16
-3.56179e-17
-2.61019e-16
-3.83332e-17
-2.91125e-17
-2.27314e-16
-3.52719e-17
-2.58422e-16
-3.79422e-17
-2.88382e-17
-2.25124e-16
-3.49237e-17
-2.55818e-16
-3.75496e-17
-2.85613e-17
-2.22921e-16
-3.45746e-17
-2.53202e-16
-3.71563e-17
-2.82826e-17
-2.20701e-16
-3.42218e-17
-2.50566e-16
-3.67594e-17
-2.79977e-17
-2.18441e-16
-3.3863e-17
-2.47893e-16
-3.63569e-17
-2.77111e-17
-2.16152e-16
-3.35006e-17
-2.4518e-16
-3.59493e-17
-2.74165e-17
-2.13793e-16
-3.31272e-17
-2.42395e-16
-3.55311e-17
-2.71179e-17
-2.11411e-16
-3.27488e-17
-2.39564e-16
-3.51049e-17
-2.67954e-17
-2.08852e-16
-3.23455e-17
-2.36559e-16
-3.46554e-17
-2.64873e-17
-2.06386e-16
-3.19519e-17
-2.33599e-16
-3.42072e-17
-2.61125e-17
-2.03404e-16
-3.14845e-17
-2.30114e-16
-3.36896e-17
-2.58153e-17
-2.01022e-16
-3.10999e-17
-2.27214e-16
-3.32445e-17
-2.5275e-17
-1.96749e-16
-3.04278e-17
-2.22214e-16
-3.2501e-17
)
;
    }
    axis
    {
        type            empty;
        value           nonuniform 0();
    }
    procBoundary11to5
    {
        type            processor;
        value           nonuniform List<scalar> 
69
(
-1.2936e-06
-1.28454e-06
-1.27548e-06
-1.26643e-06
-1.25738e-06
-1.24834e-06
-1.2393e-06
-1.23026e-06
-1.22123e-06
-1.21221e-06
-1.20319e-06
-1.19419e-06
-1.18519e-06
-1.17621e-06
-1.16723e-06
-1.15827e-06
-1.14932e-06
-1.14039e-06
-1.13147e-06
-1.12257e-06
-1.11369e-06
-1.10483e-06
-1.09599e-06
-1.08718e-06
-1.07839e-06
-1.06963e-06
-1.0609e-06
-1.05219e-06
-1.04353e-06
-1.03489e-06
-1.02629e-06
-1.01773e-06
-1.00921e-06
-1.00073e-06
-9.92287e-07
-9.83891e-07
-9.7554e-07
-9.67233e-07
-9.58971e-07
-9.50753e-07
-9.4258e-07
-9.34448e-07
-9.26357e-07
-9.18304e-07
-9.10283e-07
-9.0229e-07
-8.9432e-07
-8.86362e-07
-8.78408e-07
-8.70445e-07
-8.62459e-07
-8.54431e-07
-8.46343e-07
-8.38161e-07
-8.29876e-07
-8.21407e-07
-8.12813e-07
-8.03833e-07
-7.94866e-07
-7.84909e-07
-7.75821e-07
-7.63722e-07
-7.55976e-07
-7.39263e-07
-1.86602e-06
-1.85211e-06
-1.83823e-06
-0.000274028
-1.8244e-06
)
;
    }
    procBoundary11to10
    {
        type            processor;
        value           nonuniform List<scalar> 4(-0.000314013 -0.000346139 -0.000372019 -0.000391324);
    }
    procBoundary11to16
    {
        type            processor;
        value           nonuniform List<scalar> 2(-0.000403914 4.69235e-06);
    }
    procBoundary11to17
    {
        type            processor;
        value           nonuniform List<scalar> 
68
(
3.88794e-06
3.84829e-06
3.80905e-06
3.77021e-06
3.73177e-06
3.69372e-06
3.65605e-06
3.61875e-06
3.58183e-06
3.54528e-06
3.50908e-06
3.47324e-06
3.43776e-06
3.40263e-06
3.36784e-06
3.3334e-06
3.2993e-06
3.26555e-06
3.23214e-06
3.19907e-06
3.16634e-06
3.13396e-06
3.10191e-06
3.07022e-06
3.03886e-06
3.00785e-06
2.97719e-06
2.94688e-06
2.91692e-06
2.8873e-06
2.85804e-06
2.82912e-06
2.80054e-06
2.7723e-06
2.7444e-06
2.71683e-06
2.68958e-06
2.66264e-06
2.636e-06
2.60964e-06
2.58353e-06
2.55767e-06
2.53202e-06
2.50656e-06
2.48124e-06
2.45601e-06
2.43084e-06
2.40566e-06
2.3804e-06
2.35498e-06
2.3293e-06
2.30322e-06
2.27666e-06
2.24928e-06
2.2213e-06
2.19145e-06
2.1619e-06
2.12639e-06
2.09885e-06
2.04744e-06
4.64125e-06
4.59078e-06
4.54093e-06
4.49169e-06
4.44305e-06
4.395e-06
0.000400354
4.34753e-06
)
;
    }
}


// ************************************************************************* //
