/*--------------------------------*- C++ -*----------------------------------*\
  =========                 |
  \\      /  F ield         | OpenFOAM: The Open Source CFD Toolbox
   \\    /   O peration     | Website:  https://openfoam.org
    \\  /    A nd           | Version:  7
     \\/     M anipulation  |
\*---------------------------------------------------------------------------*/
FoamFile
{
    version     2.0;
    format      ascii;
    class       surfaceScalarField;
    location    "1";
    object      phi;
}
// * * * * * * * * * * * * * * * * * * * * * * * * * * * * * * * * * * * * * //

dimensions      [0 3 -1 0 0 0 0];

internalField   nonuniform List<scalar> 
615
(
1.07976e-05
-7.22821e-10
1.07997e-05
-2.14802e-09
1.08033e-05
-3.55014e-09
1.08082e-05
-4.90138e-09
1.08143e-05
-6.16646e-09
1.08217e-05
-7.33226e-09
1.08301e-05
-8.40204e-09
1.08394e-05
-9.356e-09
1.08496e-05
-1.01454e-08
1.08603e-05
-1.07669e-08
1.08716e-05
-1.12577e-08
1.08832e-05
-1.16304e-08
1.08951e-05
-1.18551e-08
1.0907e-05
-1.19162e-08
1.09189e-05
-1.18552e-08
1.09306e-05
-1.17343e-08
1.09422e-05
-1.15689e-08
1.09535e-05
-1.13202e-08
1.09644e-05
-1.09645e-08
1.0975e-05
-1.05474e-08
1.09851e-05
-1.0144e-08
1.09949e-05
-9.77873e-09
1.10043e-05
-9.40796e-09
1.10133e-05
-8.97839e-09
1.10218e-05
-8.49178e-09
1.10298e-05
-8.0142e-09
1.10374e-05
-7.62136e-09
1.10448e-05
-7.32695e-09
1.10518e-05
-7.06632e-09
1.10586e-05
-6.75817e-09
1.1065e-05
-6.38211e-09
1.1071e-05
-5.99693e-09
1.10766e-05
-5.6938e-09
1.10822e-05
-5.53144e-09
1.10877e-05
-5.49824e-09
1.10932e-05
-5.51884e-09
1.10987e-05
-5.49864e-09
1.11041e-05
-5.38007e-09
1.11093e-05
-5.17739e-09
1.11142e-05
-4.97119e-09
1.11191e-05
-4.87039e-09
1.11241e-05
-4.9657e-09
1.11294e-05
-5.29624e-09
1.11352e-05
-5.8394e-09
1.11417e-05
-6.52204e-09
1.1149e-05
-7.24441e-09
1.11569e-05
-7.90641e-09
1.11653e-05
-8.42794e-09
1.11741e-05
-8.75943e-09
1.11829e-05
-8.88306e-09
1.11917e-05
-8.80748e-09
1.12003e-05
-8.55937e-09
1.12085e-05
-8.17481e-09
1.12162e-05
-7.69218e-09
1.12233e-05
-7.14727e-09
1.12299e-05
-6.57053e-09
1.12359e-05
-5.98616e-09
1.12413e-05
-5.4122e-09
1.12462e-05
-4.86134e-09
1.12505e-05
-4.3419e-09
1.12544e-05
-3.85881e-09
1.12578e-05
-3.41449e-09
1.12608e-05
-3.00955e-09
1.12634e-05
-2.64334e-09
1.12657e-05
-2.31433e-09
1.12678e-05
-2.02044e-09
-1.75927e-09
3.23927e-05
-2.91827e-09
3.23993e-05
-8.68342e-09
3.24101e-05
-1.43487e-08
3.2425e-05
-1.97955e-08
3.24437e-05
-2.48783e-08
3.24659e-05
-2.95491e-08
3.24913e-05
-3.38245e-08
3.25196e-05
-3.76145e-08
3.25502e-05
-4.07765e-08
3.25827e-05
-4.32491e-08
3.26166e-05
-4.51923e-08
3.26517e-05
-4.66617e-08
3.26873e-05
-4.75405e-08
3.27232e-05
-4.77657e-08
3.27588e-05
-4.75016e-08
3.27941e-05
-4.69996e-08
3.28289e-05
-4.63224e-08
3.28628e-05
-4.53128e-08
3.28958e-05
-4.38763e-08
3.29274e-05
-4.21962e-08
3.29578e-05
-4.05715e-08
3.29872e-05
-3.91001e-08
3.30154e-05
-3.76101e-08
3.30423e-05
-3.58872e-08
3.30677e-05
-3.39341e-08
3.30917e-05
-3.20166e-08
3.31145e-05
-3.04422e-08
3.31365e-05
-2.92636e-08
3.31576e-05
-2.82179e-08
3.31778e-05
-2.69813e-08
3.31969e-05
-2.54758e-08
3.32149e-05
-2.39342e-08
3.32319e-05
-2.27186e-08
3.32484e-05
-2.20659e-08
3.32649e-05
-2.19332e-08
3.32814e-05
-2.20188e-08
3.32978e-05
-2.19413e-08
3.33139e-05
-2.14679e-08
3.33294e-05
-2.06555e-08
3.33442e-05
-1.98274e-08
3.33588e-05
-1.94207e-08
3.33736e-05
-1.97998e-08
3.33894e-05
-2.11225e-08
3.34069e-05
-2.32992e-08
3.34264e-05
-2.60365e-08
3.34481e-05
-2.89342e-08
3.34718e-05
-3.15905e-08
3.3497e-05
-3.36834e-08
3.35233e-05
-3.50138e-08
3.35499e-05
-3.551e-08
3.35763e-05
-3.52067e-08
3.3602e-05
-3.42109e-08
3.36265e-05
-3.26678e-08
3.36495e-05
-3.07317e-08
3.36709e-05
-2.85463e-08
3.36906e-05
-2.62341e-08
3.37085e-05
-2.38922e-08
3.37247e-05
-2.15931e-08
3.37392e-05
-1.93877e-08
3.37522e-05
-1.73091e-08
3.37637e-05
-1.53771e-08
3.37739e-05
-1.36011e-08
3.37828e-05
-1.19835e-08
3.37907e-05
-1.05214e-08
3.37976e-05
-9.20861e-09
3.38036e-05
-8.03657e-09
-6.99553e-09
5.3988e-05
-6.6448e-09
5.3999e-05
-1.97735e-08
5.40174e-05
-3.26696e-08
5.40426e-05
-4.50578e-08
5.40744e-05
-5.66016e-08
5.4112e-05
-6.71895e-08
5.4155e-05
-7.68602e-08
5.42028e-05
-8.54099e-08
5.42546e-05
-9.25362e-08
5.43094e-05
-9.80834e-08
5.43666e-05
-1.02413e-07
5.44256e-05
-1.0566e-07
5.44857e-05
-1.07571e-07
5.45459e-05
-1.08004e-07
5.46057e-05
-1.07329e-07
5.46649e-05
-1.06122e-07
5.47231e-05
-1.04529e-07
5.47799e-05
-1.02188e-07
5.4835e-05
-9.88882e-08
5.48878e-05
-9.50482e-08
5.49386e-05
-9.1335e-08
5.49874e-05
-8.79708e-08
5.50344e-05
-8.458e-08
5.50792e-05
-8.06734e-08
5.51215e-05
-7.6242e-08
5.51614e-05
-7.18921e-08
5.51993e-05
-6.83303e-08
5.52357e-05
-6.56668e-08
5.52707e-05
-6.32971e-08
5.53043e-05
-6.04994e-08
5.53359e-05
-5.7105e-08
5.53656e-05
-5.36286e-08
5.53937e-05
-5.08786e-08
5.54211e-05
-4.93975e-08
5.54482e-05
-4.91002e-08
5.54755e-05
-4.9306e-08
5.55027e-05
-4.91444e-08
5.55294e-05
-4.80832e-08
5.55549e-05
-4.62489e-08
5.55795e-05
-4.43726e-08
5.56035e-05
-4.34433e-08
5.5628e-05
-4.42873e-08
5.56541e-05
-4.7266e-08
5.5683e-05
-5.21795e-08
5.57154e-05
-5.83661e-08
5.57513e-05
-6.49199e-08
5.57907e-05
-7.09304e-08
5.58327e-05
-7.56678e-08
5.58763e-05
-7.868e-08
5.59206e-05
-7.98037e-08
5.59645e-05
-7.91173e-08
5.60072e-05
-7.68638e-08
5.60479e-05
-7.33724e-08
5.60862e-05
-6.89934e-08
5.61217e-05
-6.4053e-08
5.61543e-05
-5.88292e-08
5.61839e-05
-5.35423e-08
5.62107e-05
-4.83562e-08
5.62347e-05
-4.33859e-08
5.62561e-05
-3.87061e-08
5.6275e-05
-3.43606e-08
5.62918e-05
-3.03703e-08
5.63066e-05
-2.67395e-08
5.63195e-05
-2.34612e-08
5.63308e-05
-2.05205e-08
5.63407e-05
-1.78978e-08
-1.55703e-08
7.55833e-05
-1.20027e-08
7.55992e-05
-3.5718e-08
7.56256e-05
-5.90016e-08
7.56619e-05
-8.13508e-08
7.57074e-05
-1.02149e-07
7.57614e-05
-1.21188e-07
7.58231e-05
-1.38538e-07
7.58915e-05
-1.53834e-07
7.59655e-05
-1.66537e-07
7.60438e-05
-1.76352e-07
7.61253e-05
-1.83949e-07
7.62092e-05
-1.89581e-07
7.62945e-05
-1.92817e-07
7.63799e-05
-1.93398e-07
7.64645e-05
-1.91988e-07
7.6548e-05
-1.89646e-07
7.66302e-05
-1.86634e-07
7.67103e-05
-1.8229e-07
7.67876e-05
-1.76252e-07
7.68618e-05
-1.69269e-07
7.6933e-05
-1.62512e-07
7.70014e-05
-1.56392e-07
7.70671e-05
-1.50268e-07
7.71297e-05
-1.43242e-07
7.71887e-05
-1.35265e-07
7.72443e-05
-1.27443e-07
7.7297e-05
-1.2106e-07
7.73476e-05
-1.16288e-07
7.73964e-05
-1.12029e-07
7.74429e-05
-1.07024e-07
7.74867e-05
-1.00975e-07
7.75279e-05
-9.47707e-08
7.75668e-05
-8.98388e-08
7.76046e-05
-8.71733e-08
7.76422e-05
-8.66502e-08
7.76799e-05
-8.705e-08
7.77176e-05
-8.67951e-08
7.77544e-05
-8.49186e-08
7.77898e-05
-8.16425e-08
7.78237e-05
-7.82737e-08
7.78568e-05
-7.65842e-08
7.78906e-05
-7.80609e-08
7.79267e-05
-8.33617e-08
7.79667e-05
-9.21373e-08
7.80115e-05
-1.03206e-07
7.80615e-05
-1.14944e-07
7.81163e-05
-1.25716e-07
7.81749e-05
-1.34211e-07
7.82358e-05
-1.39614e-07
7.82976e-05
-1.4163e-07
7.83589e-05
-1.404e-07
7.84184e-05
-1.3636e-07
7.84751e-05
-1.30103e-07
7.85284e-05
-1.2226e-07
7.85778e-05
-1.13418e-07
7.8623e-05
-1.04077e-07
7.86641e-05
-9.46336e-08
7.87011e-05
-8.53812e-08
7.87343e-05
-7.65253e-08
7.87638e-05
-6.81987e-08
7.87899e-05
-6.04782e-08
7.88129e-05
-5.33994e-08
7.88331e-05
-4.6968e-08
7.88508e-05
-4.11696e-08
7.88663e-05
-3.59759e-08
7.88798e-05
-3.13502e-08
-2.72509e-08
9.71788e-05
-1.91425e-08
9.72e-05
-5.69638e-08
9.72351e-05
-9.40731e-08
9.72834e-05
-1.2966e-07
9.7344e-05
-1.62723e-07
9.74157e-05
-1.92925e-07
9.74975e-05
-2.20369e-07
9.75882e-05
-2.44481e-07
9.7686e-05
-2.64383e-07
9.77893e-05
9.78966e-05
9.80068e-05
9.81185e-05
9.82301e-05
9.83405e-05
9.84492e-05
9.85559e-05
9.86597e-05
9.87597e-05
9.88555e-05
9.89472e-05
9.90352e-05
9.91195e-05
9.91997e-05
9.92752e-05
9.93461e-05
9.94134e-05
9.94779e-05
9.95398e-05
9.95989e-05
9.96546e-05
9.97068e-05
9.97561e-05
9.98038e-05
9.98512e-05
9.98989e-05
9.99466e-05
9.99932e-05
0.000100038
0.000100081
0.000100122
0.000100165
0.000100211
0.000100261
0.000100318
0.000100382
0.000100452
0.000100526
0.000100604
0.000100684
0.000100762
0.000100838
0.000100911
0.000100979
0.000101041
0.000101099
0.000101151
0.000101198
0.00010124
0.000101277
0.00010131
0.000101338
0.000101364
0.000101386
0.000101405
0.000101422
0.000118774
0.000118802
0.000118846
0.000118908
0.000118985
0.000119077
0.000119181
0.000119296
)
;

boundaryField
{
    inlet
    {
        type            calculated;
        value           nonuniform List<scalar> 6(-1.07968e-05 -3.23905e-05 -5.39842e-05 -7.55779e-05 -9.71716e-05 -0.000118765);
    }
    outlet
    {
        type            calculated;
        value           nonuniform 0();
    }
    wall
    {
        type            calculated;
        value           nonuniform 0();
    }
    wedge1
    {
        type            wedge;
        value           nonuniform List<scalar> 
344
(
-2.55866e-18
1.77454e-18
-9.63538e-19
9.95909e-19
3.3993e-19
-2.22345e-18
1.84376e-18
-2.53703e-18
6.56311e-19
2.32483e-19
9.38571e-19
1.96489e-19
-5.02762e-18
3.77443e-18
3.56408e-18
1.43381e-18
-1.3682e-18
8.98146e-19
4.97889e-18
1.59363e-19
4.79566e-18
-1.50044e-18
7.05205e-19
2.85217e-18
-3.638e-18
-3.09261e-18
7.89138e-18
-2.42231e-18
-2.07479e-18
2.9166e-18
6.49703e-18
1.43216e-18
1.61083e-17
-2.02463e-19
-5.80853e-19
6.18415e-18
-4.63894e-18
-1.0745e-17
1.50348e-17
-6.97266e-18
-4.96542e-18
7.79251e-18
4.98711e-18
3.5349e-18
1.76558e-17
2.13634e-19
-1.96286e-18
9.04542e-18
-1.23531e-18
-6.08943e-18
1.86627e-17
-3.90729e-18
-5.15866e-18
9.36942e-18
3.52622e-18
5.66087e-20
2.38684e-17
-2.5376e-18
-2.16061e-18
-4.83063e-18
-6.90154e-18
2.22778e-17
-4.9124e-18
-7.13931e-18
7.90553e-18
3.05718e-18
2.54608e-17
-4.20086e-19
-4.13411e-18
-5.87787e-19
-8.30511e-18
2.55019e-17
-7.81846e-18
-6.68624e-18
5.89433e-18
2.75261e-18
2.5575e-17
-3.73637e-18
-5.07288e-18
-2.33059e-18
-3.36638e-18
2.3284e-17
-3.8808e-18
-5.92994e-18
1.01918e-17
5.00925e-18
3.04569e-17
-2.57675e-18
-6.67409e-18
-3.68776e-18
-1.95567e-18
2.70097e-17
-3.56513e-18
-8.73678e-18
7.32364e-18
1.31811e-17
2.62825e-17
1.86828e-18
-6.73007e-18
-2.78259e-18
-4.32056e-18
2.77212e-17
-4.56271e-18
-8.20698e-18
8.92308e-18
1.13246e-17
2.80592e-17
-2.20851e-19
-5.47332e-18
-4.5381e-18
5.89665e-19
2.33872e-17
-1.16195e-19
-7.22731e-18
1.26698e-17
1.52771e-17
3.18397e-17
1.93077e-18
-5.54623e-18
-2.8619e-18
1.77002e-18
2.58191e-17
2.16198e-18
-6.45979e-18
7.24641e-18
1.75396e-17
2.72452e-17
1.98505e-18
-6.65458e-18
6.85701e-18
4.496e-19
2.19885e-17
1.58805e-18
-3.84594e-18
9.08079e-18
1.58017e-17
2.43268e-17
1.51317e-18
-4.46409e-18
7.10199e-18
5.50282e-18
2.2049e-17
4.6872e-18
-4.08755e-18
1.0146e-17
2.77089e-17
2.65235e-17
5.29923e-18
-3.53058e-18
4.68394e-18
1.44849e-17
2.36893e-17
9.45259e-18
-3.62866e-18
7.68748e-18
2.59739e-17
2.05375e-17
5.10196e-18
-3.76228e-18
9.36922e-18
1.34693e-17
1.94019e-17
8.6522e-18
-3.61426e-18
9.6696e-18
3.03473e-17
1.98414e-17
6.21064e-18
-3.28304e-18
6.99146e-18
1.60278e-17
1.9679e-17
1.10729e-17
-1.74415e-18
9.39746e-18
3.58712e-17
1.94152e-17
9.07601e-18
-1.76867e-18
5.07021e-18
2.76393e-17
2.07525e-17
1.55273e-17
-2.2571e-18
1.31969e-17
3.88543e-17
1.97109e-17
1.02822e-17
-2.48903e-18
8.453e-18
2.4709e-17
1.94899e-17
1.503e-17
-1.94755e-18
1.2849e-17
4.1885e-17
1.99524e-17
1.23349e-17
-1.83242e-18
6.80347e-18
2.74727e-17
1.8172e-17
1.69022e-17
-1.60901e-18
1.50686e-17
4.70423e-17
2.10101e-17
1.51872e-17
2.63388e-19
1.17748e-17
3.78814e-17
1.98028e-17
2.17947e-17
-2.64737e-19
1.14986e-17
4.60332e-17
2.12042e-17
1.26867e-17
-6.05292e-19
1.37884e-17
3.94814e-17
2.03526e-17
2.05621e-17
-1.59479e-18
1.85878e-17
5.19482e-17
2.28674e-17
1.48132e-17
-1.97807e-18
1.15317e-17
4.35539e-17
2.23297e-17
2.23697e-17
-2.30267e-18
1.39161e-17
5.45582e-17
2.37196e-17
1.56153e-17
-2.30141e-18
1.72573e-17
4.6273e-17
2.4335e-17
2.31296e-17
-1.31862e-18
1.15962e-17
5.36292e-17
2.54031e-17
1.56475e-17
-1.04286e-18
1.02272e-17
4.58478e-17
2.65005e-17
2.3218e-17
-2.79464e-18
1.66867e-17
6.20719e-17
2.98783e-17
1.84252e-17
-2.64922e-18
1.13646e-17
4.96094e-17
2.86977e-17
2.74988e-17
-3.04801e-18
1.64808e-17
6.65817e-17
3.02935e-17
1.95018e-17
-1.94121e-18
1.20406e-17
4.83717e-17
2.53402e-17
2.79107e-17
-1.52279e-18
2.20427e-17
6.81103e-17
2.65705e-17
1.8854e-17
4.10584e-19
1.30298e-17
5.1858e-17
2.50321e-17
3.19944e-17
-6.65512e-19
1.96384e-17
7.69374e-17
2.78826e-17
2.29006e-17
9.79236e-19
1.89935e-17
6.17904e-17
2.61825e-17
3.76058e-17
2.30745e-18
1.75796e-17
7.21527e-17
1.88545e-17
2.07268e-17
-1.32212e-18
1.65297e-17
5.86713e-17
2.13821e-17
3.65805e-17
1.67558e-18
2.4789e-17
7.7755e-17
2.0745e-17
2.46008e-17
-1.62583e-19
2.27588e-17
6.7224e-17
2.30539e-17
3.87343e-17
1.38206e-18
2.54809e-17
8.66974e-17
2.1438e-17
2.78728e-17
1.47105e-18
1.87018e-17
7.1122e-17
2.25655e-17
4.09677e-17
2.85983e-18
2.32813e-17
8.53795e-17
2.04932e-17
2.94098e-17
1.02498e-18
1.65554e-17
7.07946e-17
1.82182e-17
4.03207e-17
2.87617e-18
1.6739e-17
8.31562e-17
1.53551e-17
2.89944e-17
2.53869e-18
1.55799e-17
7.50889e-17
1.86347e-17
4.16704e-17
4.12849e-18
)
;
    }
    wedge2
    {
        type            wedge;
        value           nonuniform List<scalar> 
344
(
1.79609e-18
-2.4582e-18
-1.82409e-18
-4.65388e-20
1.18626e-18
2.88806e-19
-3.37526e-18
9.83113e-19
7.80698e-19
1.4534e-18
6.91808e-19
-1.3518e-18
4.38933e-18
-2.73647e-18
3.92941e-18
-2.54419e-18
6.9245e-19
5.33571e-19
-5.00192e-18
1.45921e-18
8.96257e-18
1.30391e-18
-2.70681e-18
1.36629e-18
4.33164e-18
3.43396e-18
1.16495e-17
-4.95923e-19
-1.6461e-18
3.81456e-18
-5.09532e-18
1.26705e-18
8.5219e-18
-3.52832e-18
-4.75762e-18
2.91873e-18
6.80502e-18
1.39757e-17
1.45854e-17
2.43606e-18
-1.90132e-18
3.32462e-18
-2.233e-18
1.25542e-19
1.64949e-17
-5.45467e-18
-6.31114e-18
4.07859e-18
4.60379e-18
8.61472e-18
1.93862e-17
-3.62091e-19
-4.35381e-18
5.49629e-18
3.47833e-19
4.31135e-18
1.74398e-17
-3.7836e-18
-8.42426e-18
9.72713e-18
1.0312e-17
2.18098e-17
-5.43616e-19
-4.39296e-18
-2.89263e-18
8.49913e-19
2.09976e-17
-5.57585e-18
-8.25543e-18
6.00976e-18
1.32727e-17
2.28236e-17
5.00991e-19
-6.46356e-18
-6.70384e-22
2.24213e-18
2.42538e-17
-3.66302e-18
-8.86638e-18
8.43234e-18
8.42607e-18
2.81027e-17
-3.75765e-18
-8.57809e-18
-3.78961e-18
-5.75297e-20
2.25759e-17
-4.82768e-18
-8.81813e-18
1.00028e-17
6.93078e-18
2.59325e-17
-3.7896e-18
-6.82377e-18
-8.12527e-19
-7.56021e-18
2.37055e-17
-1.01158e-17
-8.7043e-18
9.25255e-18
9.07616e-18
2.33094e-17
-2.49249e-18
-6.91389e-18
-2.74508e-18
-6.80388e-18
2.13625e-17
-6.5534e-18
-9.21592e-18
1.06296e-17
4.71321e-18
2.20531e-17
-7.60145e-18
-7.01572e-18
-6.73829e-18
-1.10642e-17
1.44575e-17
-8.24631e-18
-8.26451e-18
8.54502e-18
2.3442e-18
1.88952e-17
-8.25333e-18
-6.89953e-18
-2.64537e-18
-1.29757e-17
1.5603e-17
-8.99921e-18
-4.70787e-18
-1.72148e-18
3.27995e-18
1.87108e-17
-7.08869e-18
-8.3431e-18
-4.12146e-18
-1.23227e-17
1.42287e-17
-6.71799e-18
-7.09419e-18
-2.40313e-18
-2.19887e-18
1.47219e-17
-9.63405e-18
-6.94269e-18
-5.6485e-18
-2.45239e-17
8.87381e-18
-1.00536e-17
-7.08874e-18
-4.79003e-19
-1.05535e-17
8.26483e-18
-1.50874e-17
-6.61343e-18
-3.3867e-18
-2.30373e-17
1.21832e-17
-9.47135e-18
-6.03518e-18
-5.67857e-18
-1.06982e-17
1.1561e-17
-1.27833e-17
-5.65262e-18
-6.14853e-18
-2.77407e-17
9.3072e-18
-1.00753e-17
-5.44252e-18
-3.51482e-18
-1.35617e-17
8.02031e-18
-1.4737e-17
-6.53646e-18
-6.03709e-18
-3.34754e-17
7.44376e-18
-1.26241e-17
-6.23091e-18
-1.94048e-18
-2.46219e-17
5.82925e-18
-1.98731e-17
-5.63209e-18
-9.89962e-18
-3.64721e-17
6.8198e-18
-1.3796e-17
-5.34879e-18
-5.29444e-18
-2.23434e-17
6.81894e-18
-1.85235e-17
-5.79711e-18
-9.61698e-18
-3.95731e-17
5.71107e-18
-1.57461e-17
-5.68839e-18
-3.76223e-18
-2.52537e-17
6.45243e-18
-2.01782e-17
-5.60108e-18
-1.22285e-17
-4.49109e-17
2.62305e-18
-1.83218e-17
-7.14053e-18
-9.00523e-18
-3.55201e-17
3.27237e-18
-2.54093e-17
-6.41243e-18
-8.72926e-18
-4.39131e-17
2.15531e-18
-1.57943e-17
-6.13402e-18
-1.09979e-17
-3.72294e-17
4.3364e-18
-2.3869e-17
-5.48413e-18
-1.55032e-17
-4.94681e-17
4.05712e-18
-1.84508e-17
-5.69381e-18
-8.02091e-18
-4.07918e-17
7.45272e-18
-2.64281e-17
-6.1504e-18
-1.00303e-17
-5.14937e-17
9.08826e-18
-2.0118e-17
-6.92263e-18
-1.30784e-17
-4.2935e-17
1.12512e-17
-2.80428e-17
-8.70604e-18
-7.11247e-18
-5.00733e-17
1.23053e-17
-2.08839e-17
-9.52917e-18
-5.62044e-18
-4.21539e-17
1.25972e-17
-2.86579e-17
-8.02708e-18
-1.20529e-17
-5.83269e-17
9.66675e-18
-2.39399e-17
-8.44487e-18
-6.76937e-18
-4.58971e-17
1.01834e-17
-3.29636e-17
-7.90431e-18
-1.20266e-17
-6.29732e-17
7.65882e-18
-2.48081e-17
-8.63165e-18
-7.787e-18
-4.49273e-17
1.08789e-17
-3.29746e-17
-8.57391e-18
-1.80396e-17
-6.48684e-17
7.39742e-18
-2.36131e-17
-9.86829e-18
-9.32558e-18
-4.88475e-17
6.48863e-18
-3.64113e-17
-8.11288e-18
-1.62387e-17
-7.41685e-17
1.08062e-18
-2.69539e-17
-9.0336e-18
-1.59022e-17
-5.92023e-17
-2.03663e-19
-4.14032e-17
-9.43954e-18
-1.47991e-17
-6.98721e-17
5.0648e-18
-2.40576e-17
-5.20311e-18
-1.40052e-17
-5.6623e-17
8.16659e-20
-3.95688e-17
-7.54261e-18
-2.25376e-17
-7.59253e-17
-1.59523e-18
-2.72656e-17
-5.05227e-18
-2.07561e-17
-6.55983e-17
-6.05034e-18
-4.10991e-17
-6.03578e-18
-2.37159e-17
-8.52585e-17
-6.40117e-18
-2.99628e-17
-5.58041e-18
-1.71517e-17
-6.98543e-17
-9.35576e-18
-4.28074e-17
-6.46217e-18
-2.19181e-17
-8.42658e-17
-8.84855e-18
-3.10235e-17
-4.18351e-18
-1.53567e-17
-6.98195e-17
-8.02529e-18
-4.17321e-17
-5.64922e-18
-1.56938e-17
-8.23046e-17
-6.43397e-18
-3.02246e-17
-4.92842e-18
-1.46616e-17
-7.43475e-17
-1.0943e-17
-4.27408e-17
-6.22286e-18
)
;
    }
    axis
    {
        type            empty;
        value           nonuniform 0();
    }
    procBoundary0to1
    {
        type            processor;
        value           nonuniform List<scalar> 5(1.12695e-05 3.38089e-05 5.63493e-05 7.88914e-05 0.000101436);
    }
    procBoundary0to6
    {
        type            processor;
        value           nonuniform List<scalar> 
68
(
-2.79618e-07
-2.91275e-07
-2.99788e-07
-3.04512e-07
-3.05026e-07
-3.02393e-07
-2.98334e-07
-2.93251e-07
-2.8609e-07
-2.76313e-07
-2.65079e-07
-2.54187e-07
-2.44345e-07
-2.34593e-07
-2.23443e-07
-2.10775e-07
-1.98386e-07
-1.88312e-07
-1.80759e-07
-1.74008e-07
-1.66139e-07
-1.56668e-07
-1.46917e-07
-1.39115e-07
-1.34886e-07
-1.34085e-07
-1.34779e-07
-1.34445e-07
-1.31534e-07
-1.26386e-07
-1.21054e-07
-1.18335e-07
-1.20591e-07
-1.28882e-07
-1.42676e-07
-1.60114e-07
-1.78632e-07
-1.95642e-07
-2.09064e-07
-2.17603e-07
-2.20791e-07
-2.18847e-07
-2.12466e-07
-2.02587e-07
-1.90212e-07
-1.76275e-07
-1.61571e-07
-1.46725e-07
-1.32203e-07
-1.18327e-07
-1.05306e-07
-9.32549e-08
-8.22275e-08
-7.22285e-08
-6.32311e-08
-5.51874e-08
-4.80366e-08
-4.17106e-08
-2.82722e-08
-8.41271e-08
-1.3889e-07
-1.91344e-07
-2.39975e-07
-2.84288e-07
-3.24401e-07
-3.59524e-07
0.00011942
-3.88228e-07
)
;
    }
}


// ************************************************************************* //
