/*--------------------------------*- C++ -*----------------------------------*\
  =========                 |
  \\      /  F ield         | OpenFOAM: The Open Source CFD Toolbox
   \\    /   O peration     | Website:  https://openfoam.org
    \\  /    A nd           | Version:  7
     \\/     M anipulation  |
\*---------------------------------------------------------------------------*/
FoamFile
{
    version     2.0;
    format      ascii;
    class       volVectorField;
    location    "4";
    object      U;
}
// * * * * * * * * * * * * * * * * * * * * * * * * * * * * * * * * * * * * * //

dimensions      [0 1 -1 0 0 0 0];

internalField   nonuniform List<vector> 
344
(
(1.76567 0.0183287 4.57416e-16)
(1.76387 0.0181393 4.35988e-16)
(1.76211 0.0179521 4.53686e-16)
(1.76037 0.017767 4.38487e-16)
(1.75866 0.017584 4.60714e-16)
(1.75698 0.017403 4.79023e-16)
(1.75532 0.0172241 4.81218e-16)
(1.7537 0.0170471 5.00631e-16)
(1.75209 0.0168721 4.73966e-16)
(1.75051 0.0166989 4.90919e-16)
(1.74896 0.0165276 4.67761e-16)
(1.74743 0.0163581 4.84146e-16)
(1.74592 0.0161905 4.6962e-16)
(1.74444 0.0160246 4.86084e-16)
(1.74298 0.0158604 4.88368e-16)
(1.74154 0.0156979 5.04389e-16)
(1.74012 0.0155371 4.68306e-16)
(1.73873 0.0153779 4.93981e-16)
(1.73736 0.0152204 4.70324e-16)
(1.736 0.0150644 4.89136e-16)
(1.73467 0.01491 4.60216e-16)
(1.73336 0.0147571 4.81041e-16)
(1.73206 0.0146057 4.82605e-16)
(1.73079 0.0144559 4.95625e-16)
(1.72953 0.0143074 4.73253e-16)
(1.72829 0.0141605 4.85881e-16)
(1.72707 0.0140149 4.68143e-16)
(1.72587 0.0138707 4.76646e-16)
(1.72469 0.0137279 4.66315e-16)
(1.72352 0.0135865 4.7459e-16)
(1.72237 0.0134463 4.83305e-16)
(1.72124 0.0133075 4.82167e-16)
(1.72012 0.0131699 4.88575e-16)
(1.71902 0.0130336 4.6883e-16)
(1.71793 0.0128986 4.76457e-16)
(1.71686 0.0127647 4.59906e-16)
(1.71581 0.012632 4.64948e-16)
(1.71476 0.0125004 4.54831e-16)
(1.71374 0.0123699 4.6226e-16)
(1.71273 0.0122405 4.58736e-16)
(1.71173 0.0121122 4.63278e-16)
(1.71075 0.0119848 4.42587e-16)
(1.70978 0.0118583 4.49671e-16)
(1.70882 0.0117326 4.38685e-16)
(1.70788 0.0116077 4.42569e-16)
(1.70695 0.0114835 4.26264e-16)
(1.70603 0.0113597 4.29762e-16)
(1.70512 0.0112364 4.266e-16)
(1.70423 0.0111132 4.26214e-16)
(1.70335 0.0109899 4.15495e-16)
(1.70248 0.0108663 4.14176e-16)
(1.70163 0.0107417 4.12352e-16)
(1.70078 0.010616 4.03895e-16)
(1.69995 0.0104878 4.01217e-16)
(1.69913 0.0103578 3.97747e-16)
(1.69831 0.0102211 3.93347e-16)
(1.69753 0.0100862 3.89319e-16)
(1.6967 0.00992678 3.80707e-16)
(1.69607 0.00980195 3.76132e-16)
(1.69485 0.00957304 3.69263e-16)
(1.64855 0.0196673 3.29311e-16)
(1.64717 0.0194494 3.64094e-16)
(1.64583 0.0192345 3.50892e-16)
(1.64451 0.0190224 3.80948e-16)
(1.64322 0.0188132 3.46637e-16)
(1.64195 0.0186068 3.86719e-16)
(1.6407 0.018403 3.44887e-16)
(1.63948 0.0182019 3.85755e-16)
(1.63829 0.0180034 3.4971e-16)
(1.63711 0.0178074 3.78052e-16)
(1.63596 0.0176139 3.72568e-16)
(1.63483 0.0174229 3.94395e-16)
(1.63372 0.0172342 4.20136e-16)
(1.63263 0.0170479 3.84876e-16)
(1.63156 0.0168638 4.23054e-16)
(1.63051 0.016682 3.85488e-16)
(1.62948 0.0165024 4.15346e-16)
(1.62847 0.0163249 3.83446e-16)
(1.62748 0.0161496 4.10669e-16)
(1.62651 0.0159763 4.03041e-16)
(1.62555 0.0158051 4.25679e-16)
(1.62461 0.0156358 3.9687e-16)
(1.62369 0.0154685 4.25845e-16)
(1.62278 0.0153031 4.14976e-16)
(1.62189 0.0151396 4.38929e-16)
(1.62102 0.0149779 4.05027e-16)
(1.62016 0.0148181 4.25209e-16)
(1.61931 0.01466 4.15709e-16)
(1.61849 0.0145037 4.36592e-16)
(1.61767 0.0143491 4.07238e-16)
(1.61687 0.0141961 4.31585e-16)
(1.61609 0.0140449 4.03356e-16)
(1.61531 0.0138952 4.2485e-16)
(1.61455 0.0137472 3.99087e-16)
(1.61381 0.0136007 4.15851e-16)
(1.61307 0.0134557 4.11026e-16)
(1.61235 0.0133123 4.21617e-16)
(1.61164 0.0131703 4.3419e-16)
(1.61094 0.0130298 4.11643e-16)
(1.61026 0.0128908 4.29372e-16)
(1.60958 0.0127531 4.06044e-16)
(1.60892 0.0126168 4.19646e-16)
(1.60827 0.0124818 3.99276e-16)
(1.60763 0.0123482 4.09521e-16)
(1.60699 0.0122158 4.04029e-16)
(1.60637 0.0120846 4.1543e-16)
(1.60576 0.0119547 3.97094e-16)
(1.60516 0.0118259 4.07882e-16)
(1.60457 0.0116982 4.01396e-16)
(1.60399 0.0115715 4.07933e-16)
(1.60342 0.0114458 3.90954e-16)
(1.60285 0.0113209 3.9714e-16)
(1.6023 0.0111969 3.89601e-16)
(1.60175 0.0110736 3.93684e-16)
(1.60122 0.0109507 3.80385e-16)
(1.60069 0.0108283 3.84794e-16)
(1.60017 0.0107059 3.73436e-16)
(1.59965 0.0105834 3.75797e-16)
(1.59915 0.0104603 3.76424e-16)
(1.59865 0.0103362 3.69657e-16)
(1.59816 0.0102102 3.67588e-16)
(1.59768 0.0100823 3.65209e-16)
(1.5972 0.00994864 3.61844e-16)
(1.59674 0.00981527 3.59167e-16)
(1.59625 0.00966089 3.51913e-16)
(1.59587 0.00953475 3.48256e-16)
(1.59516 0.00931039 3.42959e-16)
(1.51501 0.0191267 2.78116e-16)
(1.51428 0.0189035 2.80554e-16)
(1.51357 0.0186836 3.01134e-16)
(1.51288 0.0184668 3.04781e-16)
(1.5122 0.0182533 2.98693e-16)
(1.51155 0.0180427 3.07628e-16)
(1.51091 0.0178352 2.96643e-16)
(1.51028 0.0176307 3.06708e-16)
(1.50968 0.017429 2.96179e-16)
(1.50908 0.0172301 2.94574e-16)
(1.50851 0.0170339 3.21046e-16)
(1.50795 0.0168405 3.22144e-16)
(1.5074 0.0166496 3.32658e-16)
(1.50686 0.0164614 3.29226e-16)
(1.50634 0.0162757 3.39494e-16)
(1.50584 0.0160924 3.29368e-16)
(1.50534 0.0159116 3.36225e-16)
(1.50486 0.0157331 3.26794e-16)
(1.50439 0.0155569 3.29113e-16)
(1.50394 0.015383 3.48458e-16)
(1.50349 0.0152113 3.50633e-16)
(1.50306 0.0150418 3.46923e-16)
(1.50263 0.0148744 3.48185e-16)
(1.50222 0.0147091 3.62619e-16)
(1.50182 0.0145459 3.65686e-16)
(1.50143 0.0143847 3.55343e-16)
(1.50104 0.0142254 3.55317e-16)
(1.50067 0.0140681 3.68746e-16)
(1.50031 0.0139126 3.69977e-16)
(1.49995 0.013759 3.61318e-16)
(1.49961 0.0136073 3.64468e-16)
(1.49927 0.0134573 3.56491e-16)
(1.49894 0.013309 3.59454e-16)
(1.49862 0.0131625 3.51217e-16)
(1.49831 0.0130177 3.48736e-16)
(1.498 0.0128745 3.61881e-16)
(1.4977 0.012733 3.59748e-16)
(1.49741 0.012593 3.63256e-16)
(1.49713 0.0124546 3.60427e-16)
(1.49685 0.0123177 3.62428e-16)
(1.49658 0.0121823 3.57022e-16)
(1.49632 0.0120484 3.56892e-16)
(1.49606 0.0119159 3.51404e-16)
(1.49581 0.0117848 3.48522e-16)
(1.49557 0.011655 3.58612e-16)
(1.49533 0.0115266 3.56849e-16)
(1.4951 0.0113994 3.53189e-16)
(1.49487 0.0112734 3.5152e-16)
(1.49465 0.0111487 3.58256e-16)
(1.49443 0.0110251 3.56877e-16)
(1.49422 0.0109025 3.49393e-16)
(1.49401 0.0107809 3.46503e-16)
(1.49381 0.0106602 3.49391e-16)
(1.49361 0.0105404 3.46238e-16)
(1.49342 0.0104212 3.41734e-16)
(1.49323 0.0103025 3.40453e-16)
(1.49305 0.0101842 3.35939e-16)
(1.49286 0.010066 3.33281e-16)
(1.49269 0.0099475 3.32355e-16)
(1.49251 0.00982837 3.28559e-16)
(1.49234 0.00970773 3.25794e-16)
(1.49217 0.00958553 3.2404e-16)
(1.492 0.00945863 3.2177e-16)
(1.49184 0.00933107 3.19875e-16)
(1.49167 0.00918573 3.16904e-16)
(1.49153 0.00906259 3.14052e-16)
(1.49128 0.00884827 3.10634e-16)
(1.38019 0.0181209 2.12247e-16)
(1.38007 0.0178996 2.26675e-16)
(1.37997 0.0176817 2.22474e-16)
(1.37988 0.0174673 2.42667e-16)
(1.37979 0.0172562 2.52419e-16)
(1.37971 0.0170483 2.62377e-16)
(1.37965 0.0168436 2.42404e-16)
(1.37959 0.016642 2.57167e-16)
(1.37954 0.0164434 2.36977e-16)
(1.3795 0.0162478 2.46745e-16)
(1.37947 0.0160551 2.64147e-16)
(1.37944 0.0158652 2.73354e-16)
(1.37942 0.0156781 2.80542e-16)
(1.37941 0.0154937 2.8403e-16)
(1.3794 0.0153119 2.91485e-16)
(1.37941 0.0151328 2.7148e-16)
(1.37941 0.0149561 2.81585e-16)
(1.37943 0.014782 2.64463e-16)
(1.37945 0.0146102 2.75101e-16)
(1.37947 0.0144408 2.87028e-16)
(1.3795 0.0142738 2.95347e-16)
(1.37954 0.014109 2.99451e-16)
(1.37958 0.0139464 3.02057e-16)
(1.37962 0.013786 2.94544e-16)
(1.37967 0.0136277 3.05703e-16)
(1.37972 0.0134715 2.93828e-16)
(1.37978 0.0133174 3.02788e-16)
(1.37984 0.0131653 2.97229e-16)
(1.37991 0.0130151 3.11047e-16)
(1.37998 0.0128668 3.14172e-16)
(1.38005 0.0127204 3.16182e-16)
(1.38012 0.0125759 3.02331e-16)
(1.3802 0.0124332 3.0841e-16)
(1.38029 0.0122922 2.95749e-16)
(1.38037 0.012153 2.99127e-16)
(1.38046 0.0120155 3.09341e-16)
(1.38055 0.0118796 3.13321e-16)
(1.38064 0.0117454 3.1497e-16)
(1.38073 0.0116128 3.14996e-16)
(1.38083 0.0114817 3.17287e-16)
(1.38093 0.0113521 3.05135e-16)
(1.38103 0.0112241 3.0857e-16)
(1.38113 0.0110975 2.9865e-16)
(1.38124 0.0109723 3.0177e-16)
(1.38134 0.0108485 3.08e-16)
(1.38145 0.0107261 3.10372e-16)
(1.38156 0.010605 3.10616e-16)
(1.38167 0.0104851 3.10702e-16)
(1.38178 0.0103664 3.04966e-16)
(1.3819 0.010249 3.09294e-16)
(1.38201 0.0101326 3.0243e-16)
(1.38212 0.0100173 3.03368e-16)
(1.38224 0.00990294 2.99428e-16)
(1.38236 0.00978951 3.01788e-16)
(1.38247 0.0096769 3.01842e-16)
(1.38259 0.00956498 3.01134e-16)
(1.38271 0.0094536 2.94838e-16)
(1.38282 0.00934258 2.94863e-16)
(1.38294 0.00923163 2.94537e-16)
(1.38306 0.0091205 2.86281e-16)
(1.38317 0.00900843 2.86601e-16)
(1.38328 0.00889539 2.85906e-16)
(1.38339 0.00877858 2.84664e-16)
(1.3835 0.00866147 2.83537e-16)
(1.38361 0.00852833 2.80522e-16)
(1.38369 0.00841464 2.79047e-16)
(1.38384 0.00821249 2.7693e-16)
(1.24555 0.0166964 1.29811e-16)
(1.24599 0.0164842 1.28626e-16)
(1.24644 0.0162756 1.54092e-16)
(1.24688 0.0160704 1.54024e-16)
(1.24733 0.0158685 1.56856e-16)
(1.24778 0.01567 1.58391e-16)
(1.24823 0.0154746 1.55718e-16)
(1.24869 0.0152824 1.58759e-16)
(1.24914 0.0150932 1.56053e-16)
(1.24959 0.014907 1.52559e-16)
(1.25005 0.0147237 1.82919e-16)
(1.2505 0.0145433 1.79317e-16)
(1.25096 0.0143656 1.82613e-16)
(1.25141 0.0141907 1.84638e-16)
(1.25187 0.0140184 1.87201e-16)
(1.25232 0.0138487 1.82785e-16)
(1.25278 0.0136816 1.86073e-16)
(1.25323 0.0135169 1.83352e-16)
(1.25369 0.0133546 1.83127e-16)
(1.25414 0.0131948 2.06612e-16)
(1.25459 0.0130372 2.04873e-16)
(1.25504 0.0128819 2.06535e-16)
(1.25549 0.0127288 2.07321e-16)
(1.25594 0.0125779 2.26582e-16)
(1.25639 0.0124291 2.24793e-16)
(1.25684 0.0122824 2.19196e-16)
(1.25728 0.0121377 2.15314e-16)
(1.25773 0.011995 2.34304e-16)
(1.25817 0.0118542 2.31981e-16)
(1.25861 0.0117153 2.3051e-16)
(1.25905 0.0115783 2.32567e-16)
(1.25949 0.0114432 2.29749e-16)
(1.25992 0.0113098 2.29419e-16)
(1.26036 0.0111782 2.25558e-16)
(1.26079 0.0110482 2.23231e-16)
(1.26122 0.01092 2.40766e-16)
(1.26165 0.0107934 2.37756e-16)
(1.26207 0.0106684 2.36781e-16)
(1.2625 0.010545 2.36834e-16)
(1.26292 0.0104231 2.378e-16)
(1.26334 0.0103027 2.35668e-16)
(1.26376 0.0101837 2.36142e-16)
(1.26417 0.0100662 2.3489e-16)
(1.26458 0.00995013 2.33545e-16)
(1.26499 0.00983539 2.45987e-16)
(1.2654 0.00972196 2.44479e-16)
(1.26581 0.00960983 2.4481e-16)
(1.26621 0.00949893 2.4485e-16)
(1.26661 0.00938925 2.52471e-16)
(1.26701 0.00928072 2.5162e-16)
(1.2674 0.00917332 2.47877e-16)
(1.2678 0.00906699 2.46211e-16)
(1.26818 0.00896168 2.51782e-16)
(1.26857 0.00885733 2.49457e-16)
(1.26895 0.00875388 2.48597e-16)
(1.26934 0.00865127 2.48441e-16)
(1.26971 0.00854939 2.47291e-16)
(1.27009 0.00844815 2.46142e-16)
(1.27046 0.00834734 2.4639e-16)
(1.27082 0.00824688 2.44501e-16)
(1.27118 0.00814605 2.43862e-16)
(1.27153 0.0080454 2.43196e-16)
(1.27188 0.00794138 2.43226e-16)
(1.27222 0.00784028 2.4311e-16)
(1.27256 0.00772015 2.42645e-16)
(1.27284 0.0076312 2.42334e-16)
(1.27333 0.00743032 2.42057e-16)
(1.11223 0.0149206 4.96526e-17)
(1.11315 0.0147243 4.65152e-17)
(1.11407 0.0145315 7.59632e-17)
(1.11498 0.014342 7.14762e-17)
(1.11589 0.0141558 7.21607e-17)
(1.11679 0.0139727 7.32084e-17)
(1.11768 0.0137927 7.67388e-17)
(1.11857 0.0136157 7.62025e-17)
(1.11945 0.0134417 8.04812e-17)
(1.12032 0.0132705 7.6038e-17)
(1.12119 0.0131022 1.01606e-16)
(1.12205 0.0129365 9.82353e-17)
(1.12291 0.0127736 1.0064e-16)
(1.12376 0.0126133 1.03201e-16)
(1.1246 0.0124555 1.0392e-16)
(1.12544 0.0123002 1.05116e-16)
)
;

boundaryField
{
    inlet
    {
        type            uniformFixedValue;
        uniformValue    constant (1 0 0);
        value           nonuniform 0();
    }
    outlet
    {
        type            pressureInletOutletVelocity;
        value           nonuniform List<vector> 5((1.69485 0.00957304 3.69263e-16) (1.59516 0.00931039 3.42959e-16) (1.49128 0.00884827 3.10634e-16) (1.38384 0.00821249 2.7693e-16) (1.27333 0.00743032 2.42057e-16));
    }
    wall
    {
        type            fixedValue;
        value           nonuniform 0();
    }
    wedge1
    {
        type            wedge;
    }
    wedge2
    {
        type            wedge;
    }
    axis
    {
        type            empty;
    }
    procBoundary17to11
    {
        type            processor;
        value           nonuniform List<vector> 
68
(
(1.88715 0.0180062 4.86177e-16)
(1.88477 0.0178311 4.81549e-16)
(1.88244 0.0176576 4.81464e-16)
(1.88013 0.0174859 5.04326e-16)
(1.87786 0.0173159 5.02765e-16)
(1.87561 0.0171475 5.04272e-16)
(1.8734 0.0169807 5.0956e-16)
(1.87122 0.0168156 5.20603e-16)
(1.86907 0.016652 5.15557e-16)
(1.86695 0.0164899 5.21214e-16)
(1.86486 0.0163293 5.12464e-16)
(1.8628 0.0161703 5.14497e-16)
(1.86077 0.0160127 5.31712e-16)
(1.85876 0.0158565 5.26364e-16)
(1.85679 0.0157018 5.23305e-16)
(1.85483 0.0155484 5.30177e-16)
(1.85291 0.0153965 5.39262e-16)
(1.85101 0.0152458 5.35051e-16)
(1.84914 0.0150965 5.19648e-16)
(1.84729 0.0149486 5.20183e-16)
(1.84546 0.0148019 5.29315e-16)
(1.84366 0.0146565 5.20523e-16)
(1.84189 0.0145123 5.18449e-16)
(1.84014 0.0143694 5.20329e-16)
(1.83841 0.0142277 5.12331e-16)
(1.8367 0.0140872 5.14225e-16)
(1.83502 0.0139479 5.08156e-16)
(1.83336 0.0138098 5.04281e-16)
(1.83171 0.0136729 5.14835e-16)
(1.8301 0.013537 5.11306e-16)
(1.8285 0.0134023 5.09004e-16)
(1.82692 0.0132687 5.09264e-16)
(1.82536 0.0131362 5.10873e-16)
(1.82383 0.0130048 5.04006e-16)
(1.82231 0.0128744 5.04801e-16)
(1.82081 0.012745 4.97781e-16)
(1.81933 0.0126166 4.92879e-16)
(1.81787 0.0124892 4.99131e-16)
(1.81643 0.0123627 4.92863e-16)
(1.81501 0.0122372 4.89868e-16)
(1.81361 0.0121125 4.87604e-16)
(1.81222 0.0119886 4.88237e-16)
(1.81085 0.0118655 4.82376e-16)
(1.8095 0.0117431 4.72316e-16)
(1.80816 0.0116212 4.67031e-16)
(1.80685 0.0114999 4.66005e-16)
(1.80555 0.0113789 4.57964e-16)
(1.80426 0.0112581 4.52271e-16)
(1.80299 0.0111373 4.47875e-16)
(1.80174 0.0110162 4.41899e-16)
(1.80051 0.0108946 4.36215e-16)
(1.79929 0.0107718 4.33016e-16)
(1.79808 0.0106477 4.27328e-16)
(1.7969 0.0105208 4.22266e-16)
(1.79573 0.0103924 4.17198e-16)
(1.79456 0.0102562 4.11616e-16)
(1.79345 0.0101237 4.07125e-16)
(1.79225 0.0099637 4.00736e-16)
(1.79136 0.00984357 3.95018e-16)
(1.78962 0.00961628 3.86992e-16)
(1.77909 0.0197191 4.07835e-16)
(1.77707 0.0195132 4.39674e-16)
(1.77509 0.0193098 3.95386e-16)
(1.77314 0.0191089 4.26814e-16)
(1.77123 0.0189104 4.38557e-16)
(1.76934 0.0187142 4.59847e-16)
(1.76749 0.0185203 4.31641e-16)
(1.76749 0.0185203 4.31641e-16)
)
;
    }
    procBoundary17to16
    {
        type            processor;
        value           nonuniform List<vector> 4((1.64995 0.0198881 3.69999e-16) (1.51576 0.0193533 2.87882e-16) (1.38032 0.0183458 2.30339e-16) (1.24511 0.0169121 1.34555e-16));
    }
    procBoundary17to22
    {
        type            processor;
        value           uniform (1.1113 0.0151203 5.00347e-17);
    }
    procBoundary17to23
    {
        type            processor;
        value           nonuniform List<vector> 
68
(
(1.12627 0.0121473 1.05958e-16)
(1.12709 0.0119968 1.083e-16)
(1.12791 0.0118486 1.0678e-16)
(1.12872 0.0117027 1.30159e-16)
(1.12953 0.011559 1.27536e-16)
(1.13033 0.0114175 1.29152e-16)
(1.13112 0.0112781 1.2852e-16)
(1.13191 0.0111407 1.48473e-16)
(1.13269 0.0110054 1.46999e-16)
(1.13346 0.010872 1.4569e-16)
(1.13423 0.0107406 1.43884e-16)
(1.13499 0.0106111 1.62579e-16)
(1.13575 0.0104834 1.58334e-16)
(1.1365 0.0103575 1.5831e-16)
(1.13724 0.0102334 1.5912e-16)
(1.13798 0.0101111 1.60147e-16)
(1.13871 0.00999039 1.59307e-16)
(1.13943 0.00987138 1.59352e-16)
(1.14015 0.00975398 1.58505e-16)
(1.14086 0.00963817 1.7339e-16)
(1.14157 0.00952391 1.70215e-16)
(1.14227 0.00941116 1.70397e-16)
(1.14297 0.00929989 1.70562e-16)
(1.14366 0.00919008 1.72104e-16)
(1.14434 0.00908167 1.73859e-16)
(1.14501 0.00897465 1.74083e-16)
(1.14569 0.00886898 1.75058e-16)
(1.14635 0.00876462 1.75951e-16)
(1.14701 0.00866154 1.87342e-16)
(1.14766 0.0085597 1.85995e-16)
(1.14831 0.00845908 1.87245e-16)
(1.14895 0.00835964 1.87247e-16)
(1.14959 0.00826135 1.97263e-16)
(1.15022 0.00816416 1.959e-16)
(1.15084 0.00806805 1.95445e-16)
(1.15146 0.00797299 1.9467e-16)
(1.15207 0.00787894 2.02e-16)
(1.15268 0.00778587 2.00239e-16)
(1.15328 0.00769375 2.00207e-16)
(1.15387 0.00760256 2.00998e-16)
(1.15446 0.00751227 2.01807e-16)
(1.15504 0.00742289 2.02075e-16)
(1.15561 0.00733426 2.02989e-16)
(1.15618 0.00724666 2.03579e-16)
(1.15674 0.0071591 2.04097e-16)
(1.15729 0.00707371 2.04545e-16)
(1.15783 0.00698389 2.055e-16)
(1.15835 0.00690561 2.063e-16)
(1.15889 0.00679424 2.07158e-16)
(1.15931 0.00676383 2.08004e-16)
(1.16007 0.00652958 2.09141e-16)
(1.02464 0.0135747 5.71153e-18)
(1.02581 0.0133927 1.88954e-18)
(1.02698 0.013214 1.40182e-17)
(1.02814 0.0130384 1.84781e-17)
(1.02928 0.0128659 2.87204e-17)
(1.03042 0.0126964 2.61245e-17)
(1.03154 0.0125299 3.40081e-17)
(1.03266 0.0123662 3.10152e-17)
(1.03376 0.0122053 3.83944e-17)
(1.03485 0.0120471 3.35874e-17)
(1.03594 0.0118916 4.58396e-17)
(1.03701 0.0117387 4.87591e-17)
(1.03808 0.0115883 5.13347e-17)
(1.03913 0.0114403 6.00146e-17)
(1.04018 0.0112948 5.78652e-17)
(1.12627 0.0121473 1.05958e-16)
(1.04121 0.0111516 6.45966e-17)
)
;
    }
}


// ************************************************************************* //
