/*--------------------------------*- C++ -*----------------------------------*\
  =========                 |
  \\      /  F ield         | OpenFOAM: The Open Source CFD Toolbox
   \\    /   O peration     | Website:  https://openfoam.org
    \\  /    A nd           | Version:  7
     \\/     M anipulation  |
\*---------------------------------------------------------------------------*/
FoamFile
{
    version     2.0;
    format      ascii;
    class       surfaceScalarField;
    location    "8";
    object      phi;
}
// * * * * * * * * * * * * * * * * * * * * * * * * * * * * * * * * * * * * * //

dimensions      [0 3 -1 0 0 0 0];

internalField   nonuniform List<scalar> 
618
(
5.90358e-05
-4.27681e-07
5.88676e-05
-4.15772e-07
5.87039e-05
-4.04382e-07
5.85447e-05
-3.93478e-07
5.83898e-05
-3.8303e-07
-3.73011e-07
0.000191484
-0.000135658
0.000186104
-0.00011581
0.000170171
-8.35491e-05
0.000153224
-5.79843e-05
0.000138401
-4.0981e-05
0.000126159
-3.00362e-05
0.000116183
-2.27829e-05
0.000108021
-1.77937e-05
0.00010128
-1.42377e-05
9.56508e-05
-1.16226e-05
9.08983e-05
-9.64692e-06
8.68456e-05
-8.12e-06
8.33577e-05
-6.9167e-06
8.03312e-05
-5.95253e-06
7.76854e-05
-5.16882e-06
7.53567e-05
-4.52384e-06
7.32946e-05
-3.98726e-06
7.14584e-05
-3.53661e-06
6.98148e-05
-3.15494e-06
6.83367e-05
-2.82927e-06
6.70015e-05
-2.54953e-06
6.57905e-05
-2.30779e-06
6.46877e-05
-2.09774e-06
6.36799e-05
-1.91431e-06
6.27556e-05
-1.75339e-06
6.19052e-05
-1.61162e-06
6.11204e-05
-1.4862e-06
6.03938e-05
-1.37483e-06
5.97194e-05
-1.2756e-06
5.90917e-05
-1.18686e-06
5.85058e-05
-1.10727e-06
5.79578e-05
-1.03565e-06
5.7444e-05
-9.71017e-07
5.69611e-05
-9.12519e-07
5.65063e-05
-8.59428e-07
5.60772e-05
-8.11115e-07
5.56714e-05
-7.67036e-07
5.52871e-05
-7.2672e-07
5.49224e-05
-6.89754e-07
5.45758e-05
-6.5578e-07
5.42458e-05
-6.24485e-07
5.39312e-05
-5.95591e-07
5.36308e-05
-5.68857e-07
5.33436e-05
-5.44068e-07
5.30686e-05
-5.21037e-07
5.28051e-05
-4.99595e-07
5.25522e-05
-4.79595e-07
5.23092e-05
-4.60904e-07
5.20755e-05
-4.43404e-07
5.18506e-05
-4.26992e-07
5.16338e-05
-4.11573e-07
5.14248e-05
-3.97063e-07
5.1223e-05
-3.83387e-07
5.10281e-05
-3.70478e-07
5.08396e-05
-3.58275e-07
5.06573e-05
-3.46722e-07
5.04808e-05
-3.35771e-07
5.03098e-05
-3.25375e-07
5.0144e-05
-3.15496e-07
4.99832e-05
-3.06096e-07
4.98272e-05
-2.97141e-07
4.96756e-05
-2.88601e-07
4.95284e-05
-2.80448e-07
4.93853e-05
-2.72657e-07
4.92461e-05
-2.65204e-07
4.91107e-05
-2.58069e-07
4.89789e-05
-2.51231e-07
-2.44673e-07
0.000187783
-0.000149241
0.000171788
-9.98145e-05
0.000149584
-6.13457e-05
0.000130443
-3.88427e-05
0.000115498
-2.60356e-05
0.000103961
-1.85e-05
9.4952e-05
-1.37736e-05
8.77854e-05
-1.06271e-05
8.19796e-05
-8.43188e-06
7.71981e-05
-6.84104e-06
7.32031e-05
-5.65197e-06
6.98234e-05
-4.74028e-06
6.6933e-05
-4.02628e-06
6.44374e-05
-3.45699e-06
6.22647e-05
-2.99611e-06
6.03589e-05
-2.61808e-06
5.86761e-05
-2.30446e-06
5.71812e-05
-2.04169e-06
5.58459e-05
-1.8196e-06
5.46471e-05
-1.63044e-06
5.35658e-05
-1.46822e-06
5.25862e-05
-1.32822e-06
5.16952e-05
-1.20674e-06
5.08816e-05
-1.10077e-06
5.01362e-05
-1.0079e-06
4.94507e-05
-9.26148e-07
4.88184e-05
-8.53891e-07
4.82333e-05
-7.89779e-07
4.76904e-05
-7.32687e-07
4.71852e-05
-6.8167e-07
4.67139e-05
-6.35931e-07
4.6273e-05
-5.94795e-07
4.58597e-05
-5.57686e-07
4.54713e-05
-5.24113e-07
4.51055e-05
-4.93652e-07
4.47603e-05
-4.6594e-07
4.4434e-05
-4.40663e-07
4.41248e-05
-4.17547e-07
4.38314e-05
-3.96355e-07
4.35525e-05
-3.7688e-07
4.32869e-05
-3.58942e-07
4.30337e-05
-3.42381e-07
4.27919e-05
-3.27058e-07
4.25607e-05
-3.12851e-07
4.23393e-05
-2.99649e-07
4.21271e-05
-2.87358e-07
4.19234e-05
-2.75892e-07
4.17277e-05
-2.65176e-07
4.15394e-05
-2.55142e-07
4.13581e-05
-2.4573e-07
4.11835e-05
-2.36886e-07
4.1015e-05
-2.28563e-07
4.08523e-05
-2.20717e-07
4.06951e-05
-2.13309e-07
4.05431e-05
-2.06305e-07
4.03961e-05
-1.99674e-07
4.02537e-05
-1.93386e-07
4.01158e-05
-1.87418e-07
3.9982e-05
-1.81744e-07
3.98523e-05
-1.76344e-07
3.97263e-05
-1.712e-07
3.9604e-05
-1.66293e-07
3.94852e-05
-1.61607e-07
3.93696e-05
-1.57129e-07
3.92573e-05
-1.52845e-07
3.91479e-05
-1.48743e-07
3.90415e-05
-1.44811e-07
-1.41039e-07
0.000173854
-0.000146331
0.000145527
-7.14872e-05
0.000119589
-3.5408e-05
0.000100938
-2.01913e-05
8.77561e-05
-1.28537e-05
7.81409e-05
-8.88472e-06
7.08827e-05
-6.51533e-06
6.52334e-05
-4.97788e-06
6.07244e-05
-3.92283e-06
5.70503e-05
-3.16694e-06
5.40049e-05
-2.60659e-06
5.14443e-05
-2.17966e-06
4.9265e-05
-1.84695e-06
4.73907e-05
-1.58272e-06
4.57641e-05
-1.36951e-06
4.43411e-05
-1.1951e-06
4.30874e-05
-1.05075e-06
4.19758e-05
-9.30038e-07
4.09843e-05
-8.28196e-07
4.00955e-05
-7.41587e-07
3.92947e-05
-6.67412e-07
3.85699e-05
-6.0348e-07
3.79113e-05
-5.48061e-07
3.73103e-05
-4.99768e-07
3.67598e-05
-4.57482e-07
3.6254e-05
-4.2029e-07
3.57875e-05
-3.87442e-07
3.53561e-05
-3.58315e-07
3.49558e-05
-3.32393e-07
3.45834e-05
-3.09242e-07
3.42359e-05
-2.88496e-07
3.3911e-05
-2.69846e-07
3.36063e-05
-2.53028e-07
3.332e-05
-2.37816e-07
3.30504e-05
-2.24019e-07
3.27959e-05
-2.1147e-07
3.25553e-05
-2.00025e-07
3.23273e-05
-1.8956e-07
3.21109e-05
-1.79967e-07
3.19052e-05
-1.71152e-07
3.17093e-05
-1.63032e-07
3.15224e-05
-1.55536e-07
3.1344e-05
-1.48601e-07
3.11733e-05
-1.42169e-07
3.10098e-05
-1.36193e-07
3.08531e-05
-1.30628e-07
3.07026e-05
-1.25436e-07
3.0558e-05
-1.20583e-07
3.04189e-05
-1.16038e-07
3.0285e-05
-1.11774e-07
3.01559e-05
-1.07767e-07
3.00313e-05
-1.03995e-07
2.9911e-05
-1.00438e-07
2.97948e-05
-9.70799e-08
2.96824e-05
-9.39041e-08
2.95736e-05
-9.08965e-08
2.94683e-05
-8.80444e-08
2.93662e-05
-8.53362e-08
2.92672e-05
-8.27614e-08
2.91712e-05
-8.03105e-08
2.90779e-05
-7.7975e-08
2.89874e-05
-7.57469e-08
2.88994e-05
-7.36191e-08
2.88139e-05
-7.1585e-08
2.87307e-05
-6.96387e-08
2.86497e-05
-6.77746e-08
2.85709e-05
-6.59878e-08
-6.42735e-08
0.000141644
-0.000108646
0.000102929
-3.27721e-05
7.92141e-05
-1.16933e-05
6.4845e-05
-5.82219e-06
5.55254e-05
-3.5341e-06
4.90248e-05
-2.38413e-06
4.42373e-05
-1.72784e-06
4.0569e-05
-1.30957e-06
3.76723e-05
-1.02611e-06
3.53301e-05
-8.24828e-07
3.34002e-05
-6.76599e-07
3.17847e-05
-5.64253e-07
3.04149e-05
-4.77069e-07
2.92402e-05
-4.08071e-07
2.82233e-05
-3.52558e-07
2.73354e-05
-3.07261e-07
2.65545e-05
-2.69851e-07
2.58631e-05
-2.38628e-07
2.52473e-05
-2.1233e-07
2.46957e-05
-1.89998e-07
2.41992e-05
-1.70898e-07
2.37501e-05
-1.54457e-07
2.33423e-05
-1.4022e-07
2.29703e-05
-1.27826e-07
2.26299e-05
-1.16985e-07
2.2317e-05
-1.07457e-07
2.20286e-05
-9.90483e-08
2.17619e-05
-9.15978e-08
2.15145e-05
-8.49711e-08
2.12843e-05
-7.90561e-08
2.10696e-05
-7.37582e-08
2.08687e-05
-6.89975e-08
2.06804e-05
-6.4706e-08
2.05034e-05
-6.08258e-08
2.03367e-05
-5.73072e-08
2.01793e-05
-5.41075e-08
2.00305e-05
-5.11898e-08
1.98895e-05
-4.85223e-08
1.97556e-05
-4.60772e-08
1.96282e-05
-4.38304e-08
1.9507e-05
-4.17609e-08
1.93913e-05
-3.98502e-08
1.92808e-05
-3.8082e-08
1.9175e-05
-3.64423e-08
1.90738e-05
-3.49183e-08
1.89766e-05
-3.3499e-08
1.88834e-05
-3.21747e-08
1.87937e-05
-3.09364e-08
1.87075e-05
-2.97765e-08
1.86244e-05
-2.86881e-08
1.85443e-05
-2.7665e-08
1.8467e-05
-2.67017e-08
1.83923e-05
-2.57932e-08
1.83202e-05
-2.49351e-08
1.82504e-05
-2.41233e-08
1.81829e-05
-2.33544e-08
1.81175e-05
-2.2625e-08
1.80541e-05
-2.19323e-08
1.79926e-05
-2.12734e-08
1.79329e-05
-2.06462e-08
1.7875e-05
-2.00483e-08
1.78187e-05
-1.94777e-08
1.7764e-05
-1.89327e-08
1.77108e-05
-1.84116e-08
1.76591e-05
-1.79128e-08
1.76088e-05
-1.74351e-08
1.75598e-05
-1.6977e-08
-1.65374e-08
7.32478e-05
4.04757e-05
2.87824e-05
2.29602e-05
1.94261e-05
1.7042e-05
1.53141e-05
1.40046e-05
1.29785e-05
1.21536e-05
1.1477e-05
1.09128e-05
1.04357e-05
1.00276e-05
9.67508e-06
9.36782e-06
9.09797e-06
8.85934e-06
8.64701e-06
8.45701e-06
8.28611e-06
8.13166e-06
7.99144e-06
7.86361e-06
7.74663e-06
7.63917e-06
7.54012e-06
7.44852e-06
7.36355e-06
7.2845e-06
7.21074e-06
7.14174e-06
7.07703e-06
7.01621e-06
6.9589e-06
6.90479e-06
6.8536e-06
6.80508e-06
6.759e-06
6.71517e-06
6.67341e-06
6.63356e-06
6.59548e-06
6.55904e-06
6.52412e-06
6.49062e-06
6.45845e-06
6.42751e-06
6.39773e-06
6.36904e-06
6.34138e-06
6.31468e-06
6.28888e-06
6.26395e-06
6.23983e-06
6.21647e-06
6.19385e-06
6.17191e-06
6.15064e-06
6.12999e-06
6.10995e-06
6.09047e-06
6.07154e-06
6.05312e-06
6.03521e-06
6.01778e-06
6.0008e-06
)
;

boundaryField
{
    inlet
    {
        type            calculated;
        value           nonuniform List<scalar> 5(-0.000171636 -0.0001742 -0.000176765 -0.000179329 -0.000181894);
    }
    outlet
    {
        type            calculated;
        value           nonuniform 0();
    }
    wall
    {
        type            calculated;
        value           uniform 0;
    }
    wedge1
    {
        type            wedge;
        value           nonuniform List<scalar> 
346
(
5.8496e-15
6.55216e-15
2.02276e-14
5.49121e-15
-1.53575e-14
6.18626e-15
5.62081e-15
1.36543e-14
2.91002e-15
-6.24199e-15
4.86699e-15
3.83918e-15
7.79739e-15
1.30551e-15
-2.12147e-15
3.57445e-15
2.58445e-15
4.73931e-15
7.04518e-16
-9.89774e-16
2.60948e-15
1.78941e-15
3.11022e-15
4.41226e-16
-5.89116e-16
1.94839e-15
1.29382e-15
2.18325e-15
3.03981e-16
-3.97618e-16
1.49491e-15
9.73126e-16
1.6144e-15
2.23437e-16
-2.90607e-16
1.17638e-15
7.55879e-16
1.24054e-15
1.71521e-16
-2.22775e-16
9.46227e-16
6.02587e-16
9.81808e-16
1.35924e-16
-1.76753e-16
7.75367e-16
4.90627e-16
7.95331e-16
1.10378e-16
-1.43911e-16
6.45443e-16
4.06489e-16
6.56499e-16
9.13863e-17
-1.19549e-16
5.44507e-16
3.41688e-16
5.50342e-16
7.68498e-17
-1.00925e-16
4.64648e-16
2.9075e-16
4.67364e-16
6.5461e-17
-8.63357e-17
4.00465e-16
2.5003e-16
4.01309e-16
5.63769e-17
-7.46685e-17
3.48189e-16
2.17013e-16
3.47906e-16
4.90181e-17
-6.51787e-17
3.05046e-16
1.8984e-16
3.04115e-16
4.29518e-17
-5.73641e-17
2.69092e-16
1.67266e-16
2.6781e-16
3.79127e-17
-5.08372e-17
2.38877e-16
1.48351e-16
2.37427e-16
3.36978e-17
-4.53247e-17
2.13216e-16
1.32296e-16
2.11704e-16
3.00908e-17
-4.06536e-17
1.91302e-16
1.18616e-16
1.89809e-16
2.70208e-17
-3.66432e-17
1.7248e-16
1.06898e-16
1.71059e-16
2.4404e-17
-3.31693e-17
1.56164e-16
9.67288e-17
1.54824e-16
2.21014e-17
-3.01722e-17
1.41967e-16
8.7893e-17
1.40735e-16
2.01039e-17
-2.75517e-17
1.29548e-16
8.01753e-17
1.2844e-16
1.83614e-17
-2.52494e-17
1.18667e-16
7.3417e-17
1.17666e-16
1.68267e-17
-2.32245e-17
1.09072e-16
6.74646e-17
1.08179e-16
1.54778e-17
-2.14299e-17
1.00576e-16
6.21975e-17
9.97888e-17
1.42832e-17
-1.98359e-17
9.30424e-17
5.7532e-17
9.23469e-17
1.32237e-17
-1.84146e-17
8.63557e-17
5.34033e-17
8.57343e-17
1.229e-17
-1.71381e-17
8.03228e-17
4.96624e-17
7.9794e-17
1.14391e-17
-1.59985e-17
7.49057e-17
4.63083e-17
7.44631e-17
1.06735e-17
-1.49727e-17
7.00319e-17
4.32912e-17
6.96655e-17
9.98297e-18
-1.40478e-17
6.56323e-17
4.05699e-17
6.53361e-17
9.36063e-18
-1.32094e-17
6.16548e-17
3.81092e-17
6.14187e-17
8.79646e-18
-1.24483e-17
5.80632e-17
3.58945e-17
5.78633e-17
8.28519e-18
-1.17579e-17
5.47709e-17
3.38561e-17
5.46338e-17
7.82356e-18
-1.11217e-17
5.1757e-17
3.19925e-17
5.16744e-17
7.39559e-18
-1.0544e-17
4.90047e-17
3.02904e-17
4.89671e-17
7.00421e-18
-1.00141e-17
4.64861e-17
2.87355e-17
4.64896e-17
6.64816e-18
-9.52541e-18
4.41773e-17
2.73078e-17
4.42094e-17
6.31733e-18
-9.07688e-18
4.20647e-17
2.60075e-17
4.21079e-17
6.01386e-18
-8.66474e-18
4.00898e-17
2.47827e-17
4.01736e-17
5.73731e-18
-8.277e-18
3.82561e-17
2.365e-17
3.83733e-17
5.47691e-18
-7.92129e-18
3.65636e-17
2.26045e-17
3.67065e-17
5.23581e-18
-7.59072e-18
3.49911e-17
2.16315e-17
3.51543e-17
5.00913e-18
-7.28371e-18
3.35392e-17
2.07359e-17
3.3718e-17
4.80376e-18
-6.99447e-18
3.22076e-17
1.99179e-17
3.23825e-17
4.61246e-18
-6.72542e-18
3.09228e-17
1.91213e-17
3.11226e-17
4.43215e-18
-6.47273e-18
2.97163e-17
1.83733e-17
2.99353e-17
4.25735e-18
-6.23759e-18
2.85874e-17
1.76733e-17
2.88231e-17
4.09472e-18
-6.01633e-18
2.75256e-17
1.70154e-17
2.77768e-17
3.94014e-18
-5.80937e-18
2.65321e-17
1.63994e-17
2.67953e-17
3.79562e-18
-5.61259e-18
2.55914e-17
1.58155e-17
2.58674e-17
3.65987e-18
-5.42675e-18
2.47089e-17
1.52692e-17
2.49928e-17
3.53211e-18
-5.25185e-18
2.38774e-17
1.47528e-17
2.4166e-17
3.41102e-18
-5.086e-18
2.30958e-17
1.42705e-17
2.33866e-17
3.29808e-18
-4.92834e-18
2.23714e-17
1.38276e-17
2.26463e-17
3.18938e-18
-4.78107e-18
2.16606e-17
1.33833e-17
2.19505e-17
3.09195e-18
-4.6347e-18
2.09786e-17
1.29611e-17
2.12795e-17
2.99468e-18
-4.49881e-18
2.03344e-17
1.25622e-17
2.06406e-17
2.90137e-18
-4.36995e-18
1.97152e-17
1.2176e-17
2.00276e-17
2.80876e-18
-4.24762e-18
1.91303e-17
1.18127e-17
1.94464e-17
2.72369e-18
-4.13025e-18
-1.87532e-16
1.85704e-17
1.14648e-17
1.88905e-17
2.64098e-18
-4.01825e-18
-1.82321e-16
1.80386e-17
1.11368e-17
1.83629e-17
2.56494e-18
-3.91009e-18
-1.77339e-16
1.75277e-17
1.08164e-17
1.78527e-17
2.48777e-18
-3.80851e-18
-1.72567e-16
1.70419e-17
1.05162e-17
1.73678e-17
2.41736e-18
-3.70955e-18
-1.67994e-16
1.65767e-17
1.02278e-17
1.69039e-17
2.3497e-18
-3.61462e-18
-1.63602e-16
1.61403e-17
9.96005e-18
1.64667e-17
2.29008e-18
-3.52141e-18
)
;
    }
    wedge2
    {
        type            wedge;
        value           nonuniform List<scalar> 
346
(
5.8496e-15
6.55216e-15
2.02276e-14
5.49121e-15
-1.53575e-14
6.18625e-15
5.62081e-15
1.36543e-14
2.91002e-15
-6.242e-15
4.86702e-15
3.83919e-15
7.79741e-15
1.30553e-15
-2.12146e-15
3.5745e-15
2.58451e-15
4.73934e-15
7.04543e-16
-9.89765e-16
2.60955e-15
1.78948e-15
3.11027e-15
4.41255e-16
-5.89105e-16
1.94847e-15
1.29388e-15
2.18329e-15
3.04007e-16
-3.9761e-16
1.49503e-15
9.73219e-16
1.61446e-15
2.23474e-16
-2.90596e-16
1.17648e-15
7.55955e-16
1.24059e-15
1.71544e-16
-2.22776e-16
9.46326e-16
6.02666e-16
9.81864e-16
1.35957e-16
-1.76741e-16
7.75504e-16
4.9074e-16
7.9541e-16
1.10424e-16
-1.43896e-16
6.45577e-16
4.06594e-16
6.56572e-16
9.14286e-17
-1.19534e-16
5.44673e-16
3.41814e-16
5.5043e-16
7.69009e-17
-1.00908e-16
4.64854e-16
2.90919e-16
4.67483e-16
6.55316e-17
-8.63113e-17
4.00696e-16
2.50217e-16
4.01438e-16
5.64503e-17
-7.46455e-17
3.48387e-16
2.1716e-16
3.48012e-16
4.90747e-17
-6.51659e-17
3.05275e-16
1.90024e-16
3.04243e-16
4.30257e-17
-5.73394e-17
2.6934e-16
1.67461e-16
2.67942e-16
3.79864e-17
-5.08139e-17
2.39085e-16
1.48495e-16
2.37506e-16
3.37323e-17
-4.53218e-17
2.13461e-16
1.32486e-16
2.11831e-16
3.01605e-17
-4.0632e-17
1.91562e-16
1.1882e-16
1.89947e-16
2.7098e-17
-3.66179e-17
1.72708e-16
1.07056e-16
1.71143e-16
2.44404e-17
-3.31659e-17
1.56434e-16
9.69387e-17
1.54964e-16
2.21792e-17
-3.01491e-17
1.42289e-16
8.81508e-17
1.40912e-16
2.02057e-17
-2.75193e-17
1.29937e-16
8.04808e-17
1.2865e-16
1.84757e-17
-2.52155e-17
1.1907e-16
7.37407e-17
1.17894e-16
1.69601e-17
-2.31814e-17
1.0949e-16
6.7801e-17
1.08417e-16
1.56181e-17
-2.13843e-17
1.01014e-16
6.25488e-17
1.00038e-16
1.44293e-17
-1.97878e-17
9.34681e-17
5.78738e-17
9.25914e-17
1.33701e-17
-1.83651e-17
8.67104e-17
5.36792e-17
8.59384e-17
1.24136e-17
-1.70976e-17
8.07165e-17
4.99779e-17
8.00177e-17
1.15726e-17
-1.59544e-17
7.53407e-17
4.66561e-17
7.47084e-17
1.08191e-17
-1.49253e-17
7.04993e-17
4.36661e-17
6.99308e-17
1.01411e-17
-1.39951e-17
6.6128e-17
4.09658e-17
6.56174e-17
9.52733e-18
-1.31541e-17
6.2165e-17
3.85195e-17
6.17108e-17
8.97163e-18
-1.23905e-17
5.85481e-17
3.62805e-17
5.81636e-17
8.46558e-18
-1.16932e-17
5.52793e-17
3.42659e-17
5.49278e-17
8.00061e-18
-1.1063e-17
5.2306e-17
3.24316e-17
5.19867e-17
7.58242e-18
-1.04821e-17
4.95811e-17
3.07511e-17
4.92951e-17
7.19916e-18
-9.94942e-18
4.70772e-17
2.92045e-17
4.68207e-17
6.84432e-18
-9.46141e-18
4.47696e-17
2.77815e-17
4.45479e-17
6.52122e-18
-9.01001e-18
4.26293e-17
2.64558e-17
4.24535e-17
6.22176e-18
-8.59114e-18
4.06777e-17
2.52559e-17
4.05124e-17
5.94118e-18
-8.20982e-18
3.88783e-17
2.4145e-17
3.87252e-17
5.68564e-18
-7.8523e-18
3.7202e-17
2.31101e-17
3.70643e-17
5.44793e-18
-7.52004e-18
3.56446e-17
2.215e-17
3.55231e-17
5.22936e-18
-7.20984e-18
3.41828e-17
2.1246e-17
3.40781e-17
5.01984e-18
-6.92322e-18
3.27966e-17
2.03851e-17
3.27247e-17
4.8238e-18
-6.65397e-18
3.15419e-17
1.96126e-17
3.14706e-17
4.64183e-18
-6.40256e-18
3.03708e-17
1.88916e-17
3.03031e-17
4.47716e-18
-6.16478e-18
2.927e-17
1.82137e-17
2.92056e-17
4.32114e-18
-5.94162e-18
2.82374e-17
1.7577e-17
2.8175e-17
4.1761e-18
-5.73025e-18
2.72601e-17
1.69747e-17
2.72012e-17
4.03845e-18
-5.53264e-18
2.63436e-17
1.64103e-17
2.62853e-17
3.90803e-18
-5.34607e-18
2.54732e-17
1.58726e-17
2.54186e-17
3.78435e-18
-5.1688e-18
2.46478e-17
1.53642e-17
2.45986e-17
3.66756e-18
-5.00116e-18
2.3861e-17
1.48763e-17
2.38183e-17
3.55513e-18
-4.84257e-18
2.30988e-17
1.43994e-17
2.30793e-17
3.45003e-18
-4.68955e-18
2.23987e-17
1.39707e-17
2.23705e-17
3.34438e-18
-4.55045e-18
2.174e-17
1.3563e-17
2.17059e-17
3.2485e-18
-4.41461e-18
2.11087e-17
1.31722e-17
2.10736e-17
3.15791e-18
-4.28452e-18
2.0513e-17
1.28062e-17
2.0475e-17
3.07523e-18
-4.15982e-18
1.99394e-17
1.24521e-17
1.99004e-17
2.99301e-18
-4.04127e-18
-1.86538e-16
1.93935e-17
1.21152e-17
1.93524e-17
2.91591e-18
-3.92774e-18
-1.81317e-16
1.88686e-17
1.17886e-17
1.88246e-17
2.83914e-18
-3.82011e-18
-1.76322e-16
1.83689e-17
1.14828e-17
1.83251e-17
2.77006e-18
-3.715e-18
-1.71545e-16
1.78871e-17
1.11835e-17
1.78428e-17
2.70036e-18
-3.61584e-18
-1.66969e-16
1.74253e-17
1.08973e-17
1.73796e-17
2.63369e-18
-3.52069e-18
-1.62588e-16
1.69727e-17
1.06141e-17
1.69273e-17
2.56441e-18
-3.43138e-18
)
;
    }
    axis
    {
        type            empty;
        value           nonuniform 0();
    }
    procBoundary42to36
    {
        type            processor;
        value           nonuniform List<scalar> 
69
(
6.00828e-07
5.84062e-07
5.68029e-07
5.52682e-07
5.37978e-07
5.2388e-07
0.00011581
0.00012119
9.94827e-05
7.49307e-05
5.58042e-05
4.22781e-05
3.27592e-05
2.59552e-05
2.09787e-05
1.7252e-05
1.43994e-05
1.21728e-05
1.04045e-05
8.97905e-06
7.81467e-06
6.85251e-06
6.04934e-06
5.37285e-06
4.79849e-06
4.30737e-06
3.88471e-06
3.51886e-06
3.20051e-06
2.92214e-06
2.67765e-06
2.462e-06
2.27106e-06
2.10136e-06
1.95003e-06
1.81462e-06
1.69309e-06
1.58367e-06
1.48487e-06
1.39541e-06
1.31419e-06
1.24026e-06
1.17278e-06
1.11105e-06
1.05444e-06
1.00241e-06
9.54471e-07
9.10208e-07
8.69251e-07
8.31275e-07
7.95991e-07
7.63142e-07
7.32503e-07
7.03872e-07
6.77069e-07
6.51933e-07
6.28321e-07
6.06104e-07
5.85166e-07
5.65405e-07
5.46727e-07
5.29047e-07
5.1229e-07
4.96386e-07
4.81274e-07
4.66897e-07
4.53203e-07
-5.9209e-05
4.40145e-07
)
;
    }
    procBoundary42to37
    {
        type            processor;
        value           uniform 5.82389e-05;
    }
    procBoundary42to43
    {
        type            processor;
        value           nonuniform List<scalar> 5(4.88505e-05 3.89379e-05 2.84941e-05 1.7512e-05 5.98426e-06);
    }
}


// ************************************************************************* //
