/*--------------------------------*- C++ -*----------------------------------*\
  =========                 |
  \\      /  F ield         | OpenFOAM: The Open Source CFD Toolbox
   \\    /   O peration     | Website:  https://openfoam.org
    \\  /    A nd           | Version:  7
     \\/     M anipulation  |
\*---------------------------------------------------------------------------*/
FoamFile
{
    version     2.0;
    format      ascii;
    class       surfaceScalarField;
    location    "3";
    object      phi;
}
// * * * * * * * * * * * * * * * * * * * * * * * * * * * * * * * * * * * * * //

dimensions      [0 3 -1 0 0 0 0];

internalField   nonuniform List<scalar> 
615
(
0.00017434
-0.00036345
0.000149551
-0.000272132
0.000117351
-0.000212813
8.33621e-05
-0.000237535
5.09512e-05
-0.000334309
3.94397e-05
-0.00041805
3.78817e-05
-0.000389483
2.9595e-05
-0.000369856
2.82786e-05
-0.000369766
3.18588e-05
-0.000383864
3.44936e-05
-0.000432879
2.97593e-05
-0.000443868
2.7638e-05
-0.000472379
2.78102e-05
-0.000510296
2.60656e-05
-0.000517535
2.69701e-05
-0.000520781
3.18478e-05
-0.000505237
4.04991e-05
-0.000451584
5.04053e-05
-0.000367713
5.83646e-05
-0.000267643
6.30239e-05
-0.000178693
6.43057e-05
-0.000111705
6.22368e-05
-7.20469e-05
5.60577e-05
-4.812e-05
4.69454e-05
-3.20327e-05
3.67159e-05
-1.37751e-05
2.85539e-05
7.24222e-06
2.41581e-05
2.92416e-05
2.20273e-05
5.24284e-05
1.89615e-05
7.94437e-05
1.38034e-05
0.000111668
8.19394e-06
0.00014717
3.98149e-06
0.000182026
1.13841e-06
0.000215313
-2.58019e-06
0.000251431
-9.85357e-06
0.000296953
-1.89003e-05
0.000354751
0.000417002
0.000110724
0.000314015
0.000112878
0.000302543
0.000119193
0.000281374
0.00012139
0.000240994
0.000114183
0.000212061
0.000101855
0.000198559
9.10247e-05
0.000186974
8.42616e-05
0.000167507
7.48453e-05
0.000158934
7.15509e-05
0.000132569
7.71766e-05
0.000114036
8.05701e-05
0.000126917
8.25239e-05
0.000135616
9.29743e-05
0.000155206
0.000107607
0.000284335
0.000118558
0.000514409
0.000127166
0.000656094
0.000135799
0.00064018
0.000147068
0.00057695
0.000153668
0.000477767
0.000170574
0.000296416
0.000186684
0.000106357
0.000196062
-6.43702e-05
0.000210198
-0.000294754
0.000217878
-0.000452709
0.000213848
-0.000463227
0.000211602
-0.000451697
0.000214853
-0.000465339
0.000210883
-0.000431509
0.000193172
-0.000345739
0.000163751
-0.000242711
0.000124731
-0.000173793
8.56862e-05
-0.000198489
5.07516e-05
-0.000299375
3.2067e-05
-0.000399365
2.70891e-05
-0.000384505
2.10192e-05
-0.000363786
2.29132e-05
-0.000371661
2.68625e-05
-0.000387814
2.5937e-05
-0.000431953
1.85442e-05
-0.000436476
1.33646e-05
-0.0004672
1.01892e-05
-0.00050712
5.39381e-06
-0.000512739
3.45221e-06
-0.00051884
5.22281e-06
-0.000507007
1.01253e-05
-0.000456486
1.95816e-05
-0.000377169
2.94858e-05
-0.000277547
3.60779e-05
-0.000185285
3.901e-05
-0.000114637
3.7845e-05
-7.08819e-05
3.19405e-05
-4.22156e-05
2.34587e-05
-2.35509e-05
1.48323e-05
-5.1487e-06
8.5115e-06
1.3563e-05
3.8082e-06
3.39449e-05
-2.02959e-06
5.82662e-05
-1.01908e-05
8.76049e-05
-1.92219e-05
0.000120699
-2.62799e-05
0.000154228
-3.00657e-05
0.000185812
-3.26481e-05
0.000217895
-3.6706e-05
0.000255488
-4.23855e-05
0.000302632
-4.59147e-05
0.000358281
0.000411108
0.000104659
0.000310757
0.000110336
0.000296865
0.000117623
0.000274088
0.000118367
0.00024025
0.000110546
0.000219883
9.81487e-05
0.000210956
8.71729e-05
0.000197949
8.18324e-05
0.000172848
7.11533e-05
0.000169613
6.51206e-05
0.000138602
7.27114e-05
0.000106445
7.90493e-05
0.000120579
8.36011e-05
0.000131064
9.83268e-05
0.00014048
0.000117313
0.000265349
0.000132066
0.000499657
0.000144357
0.000643803
0.000156832
0.000627705
0.000172568
0.000561215
0.000181604
0.00046873
0.000201767
0.000276253
0.000217303
9.08207e-05
0.000227344
-7.44115e-05
0.000241329
-0.000308738
0.000245374
-0.000456754
0.000238169
-0.000456022
0.000236387
-0.000449914
0.000242026
-0.000470978
0.000237247
-0.00042673
0.000215272
-0.000323764
0.000179573
-0.000207012
0.000136025
-0.000130245
9.0761e-05
-0.000153226
4.55311e-05
-0.000254145
1.67718e-05
-0.000370606
8.82957e-06
-0.000376563
5.73745e-06
-0.000360694
1.26005e-05
-0.000378524
1.83621e-05
-0.000393575
1.53554e-05
-0.000428947
7.48899e-06
-0.000428609
-1.11399e-07
-0.000459599
-6.739e-06
-0.000500493
-1.61537e-05
-0.000503325
-2.01194e-05
-0.000514874
-2.06901e-05
-0.000506437
-1.93186e-05
-0.000457858
-1.20563e-05
-0.000384431
-1.84938e-06
-0.000287754
5.40769e-06
-0.000192542
9.85733e-06
-0.000119086
9.54231e-06
-7.05669e-05
4.8326e-06
-3.75059e-05
-1.85277e-06
-1.68655e-05
-8.77932e-06
1.77784e-06
-1.57378e-05
2.05215e-05
-2.42613e-05
4.24684e-05
-3.52679e-05
6.92728e-05
-4.73014e-05
9.96385e-05
-5.73269e-05
0.000130725
-6.28714e-05
0.000159773
-6.50012e-05
0.000187942
-6.67872e-05
0.000219681
-6.92109e-05
0.000257912
-7.05941e-05
0.000304016
-6.65856e-05
0.000354272
0.000396297
0.000100257
0.000304523
0.000109476
0.000287646
0.000117404
0.000266161
0.000115822
0.000241832
0.00010672
0.000228984
9.48713e-05
0.000222805
8.31609e-05
0.00020966
7.81143e-05
0.000177894
6.68901e-05
0.000180837
5.84154e-05
0.000147076
6.60638e-05
9.87968e-05
7.30235e-05
0.000113619
8.12397e-05
0.000122848
0.000102296
0.000119425
0.000126754
0.000240891
0.000146641
0.00047977
0.000163095
0.000627348
0.000180203
0.000610597
0.000198523
0.000542895
0.000211103
0.00045615
0.000234417
0.000252939
0.000247531
7.77061e-05
0.000259272
-8.61524e-05
0.00027226
-0.000321726
0.000270055
-0.000454548
0.000259619
-0.000445586
0.000260558
-0.000450854
0.000269893
-0.000480312
0.000264608
-0.000421445
0.000236838
-0.000295994
0.000195536
-0.00016571
0.000145897
-8.06067e-05
9.21661e-05
-9.94945e-05
4.2734e-05
-0.000204713
7.18216e-06
-0.000335054
-2.22551e-06
-0.000367155
-4.29036e-07
-0.00036249
8.94417e-06
-0.000387897
1.34273e-05
-0.000398058
6.19688e-06
-0.000421716
-3.48285e-06
-0.000418929
-1.23611e-05
-0.000450721
-2.22798e-05
-0.000490574
-3.54027e-05
-0.000490202
-4.32731e-05
-0.000507003
-4.88805e-05
-0.000500829
-5.1025e-05
-0.000455713
-4.60664e-05
-0.00038939
-3.80269e-05
-0.000295794
-3.02547e-05
-0.000200314
-2.43996e-05
-0.000124941
-2.30593e-05
-7.19071e-05
-2.59182e-05
-3.4647e-05
-3.09007e-05
-1.1883e-05
-3.86096e-05
9.48675e-06
-4.88188e-05
3.07306e-05
-6.19664e-05
5.5616e-05
-7.64066e-05
8.3713e-05
-8.88168e-05
0.000112049
-9.57233e-05
0.000137631
-9.75344e-05
0.000161584
-9.7816e-05
0.000188223
-9.77081e-05
0.000219573
-9.65316e-05
0.000256736
-9.19919e-05
0.000299476
-8.04513e-05
0.000342732
0.00037541
9.73839e-05
0.000295267
0.000107411
0.000277619
0.000113979
0.000259593
0.000111903
0.000243908
0.000102949
0.000237937
9.12693e-05
0.000234485
7.83354e-05
0.000222594
7.35017e-05
0.000182728
6.23613e-05
0.000191978
5.18275e-05
0.00015761
5.80332e-05
9.25911e-05
6.45315e-05
0.000107121
7.67336e-05
0.000110646
0.00010471
9.1448e-05
0.000134793
0.000210807
0.000159339
0.000455224
0.000179402
0.000607285
0.000203907
0.000586092
0.000224689
0.000522112
0.000241088
0.000439752
0.000265304
0.000228723
0.000275658
6.73528e-05
0.000290162
-0.000100657
0.000301072
-0.000332636
0.000293176
-0.000446653
0.000283842
-0.000436251
0.000289686
-0.000456698
0.000301709
-0.000492335
0.000294989
-0.000414725
0.000261825
-0.00026283
0.000212843
-0.000116728
0.000156385
-2.41481e-05
9.93099e-05
-4.24197e-05
4.52822e-05
-0.000150685
2.28093e-06
-0.000292053
-8.12984e-06
-0.000356745
-3.94498e-06
-0.000366675
4.70128e-06
-0.000396543
7.87918e-06
-1.47192e-06
-1.26123e-05
-2.33168e-05
-3.76132e-05
-5.38621e-05
-6.48026e-05
-7.60304e-05
-8.30643e-05
-8.07599e-05
-7.52162e-05
-6.83678e-05
-6.20553e-05
-5.94791e-05
-6.16026e-05
-6.72248e-05
-7.76942e-05
-9.16663e-05
-0.000107197
-0.000120636
-0.000127753
-0.000128814
-0.000127812
-0.000126185
-0.000122765
-0.00011693
-0.000106564
-8.95918e-05
9.48279e-05
0.000106838
0.000111761
0.000106918
9.80946e-05
8.84578e-05
7.46178e-05
6.9653e-05
5.73853e-05
4.38664e-05
5.03452e-05
5.64042e-05
6.74393e-05
0.000100703
0.000141476
0.000173365
0.000195623
0.000226771
0.000248625
0.000270432
0.000294339
0.000301661
0.000320949
0.000327758
0.000311979
0.000305638
0.000318313
0.000332516
0.000322925
0.000283582
0.000228554
0.000168987
0.000105873
4.30723e-05
-3.65351e-06
-1.59482e-05
-9.02696e-06
)
;

boundaryField
{
    inlet
    {
        type            calculated;
        value           nonuniform 0();
    }
    outlet
    {
        type            calculated;
        value           nonuniform 0();
    }
    wall
    {
        type            calculated;
        value           nonuniform 0();
    }
    wedge1
    {
        type            wedge;
        value           nonuniform List<scalar> 
344
(
1.18938e-14
-3.14433e-14
1.11434e-14
5.64399e-14
-1.86491e-14
1.14225e-14
-3.00797e-14
1.05838e-14
5.31975e-14
-1.74803e-14
1.04641e-14
-2.75455e-14
9.7103e-15
4.93008e-14
-1.63632e-14
8.83619e-15
-2.37124e-14
8.64009e-15
4.5559e-14
-1.56621e-14
7.635e-15
-2.1237e-14
7.98279e-15
4.32891e-14
-1.54276e-14
7.09103e-15
-2.00681e-14
7.69315e-15
4.1698e-14
-1.50836e-14
6.71832e-15
-1.88486e-14
7.20196e-15
3.88646e-14
-1.4265e-14
6.06474e-15
-1.66636e-14
6.18605e-15
3.25725e-14
-1.15491e-14
5.67826e-15
-1.59262e-14
6.12924e-15
3.3389e-14
-1.21128e-14
4.85309e-15
-1.31347e-14
4.97603e-15
2.68117e-14
-9.82062e-15
4.50038e-15
-1.11734e-14
3.70022e-15
1.72685e-14
-5.43638e-15
5.01178e-15
-1.27174e-14
4.32799e-15
2.04253e-14
-6.47748e-15
5.36921e-15
-1.39075e-14
4.81077e-15
2.21161e-14
-6.35186e-15
6.41798e-15
-1.57641e-14
5.08579e-15
2.08638e-14
-5.11784e-15
1.16348e-14
-2.92225e-14
9.6979e-15
4.44007e-14
-1.29373e-14
2.04016e-14
-5.32055e-14
1.85072e-14
9.16813e-14
-2.93392e-14
2.58721e-14
-6.80903e-14
2.40373e-14
1.21163e-13
-3.99568e-14
2.54266e-14
-6.68448e-14
2.37342e-14
1.1924e-13
-3.91008e-14
2.31085e-14
-6.06191e-14
2.13595e-14
1.07649e-13
-3.54991e-14
1.91203e-14
-5.05173e-14
1.81454e-14
9.218e-14
-3.03661e-14
1.23984e-14
-3.17136e-14
1.08119e-14
5.14755e-14
-1.60958e-14
5.07376e-15
-1.16803e-14
3.86501e-15
1.74017e-14
-5.33909e-15
-1.67943e-15
5.0693e-15
-2.05669e-15
-1.29721e-14
5.07573e-15
-9.55624e-15
2.62374e-14
-9.90363e-15
-5.2654e-14
1.83716e-14
-1.54478e-14
4.14997e-14
-1.49982e-14
-7.59182e-14
2.54253e-14
-1.63755e-14
4.27841e-14
-1.52366e-14
-7.60054e-14
2.59431e-14
-1.65397e-14
4.38408e-14
-1.61325e-14
-8.347e-14
2.97977e-14
-1.71715e-14
4.68633e-14
-1.74817e-14
-9.26583e-14
3.3106e-14
-1.57473e-14
4.23077e-14
-1.56176e-14
-8.11332e-14
2.7882e-14
-1.34057e-14
-1.26541e-14
3.2422e-14
-1.13381e-14
-5.50154e-14
1.68873e-14
-1.01694e-14
-9.05347e-15
2.15083e-14
-6.78329e-15
-2.85026e-14
6.44142e-15
-8.09154e-15
-6.79029e-15
1.41428e-14
-3.91372e-15
-1.11215e-14
-2.15623e-16
-9.1578e-15
-7.65503e-15
1.67295e-14
-4.78191e-15
-1.44549e-14
1.04441e-15
-1.2745e-14
-1.14747e-14
2.73073e-14
-8.56134e-15
-3.55878e-14
8.52631e-15
-1.58527e-14
-1.5405e-14
3.90244e-14
-1.30512e-14
-6.16189e-14
1.83212e-14
-1.50052e-14
-1.47889e-14
3.88215e-14
-1.38068e-14
-7.05224e-14
2.35497e-14
-1.44791e-14
-1.40229e-14
3.65527e-14
-1.33295e-14
-6.96118e-14
2.45473e-14
-1.42004e-14
-1.39649e-14
3.7641e-14
-1.39967e-14
-7.32228e-14
2.58849e-14
-1.44325e-14
-1.41871e-14
3.83159e-14
-1.4123e-14
-7.29555e-14
-1.61474e-14
-1.57353e-14
4.16507e-14
-1.48918e-14
-7.48108e-14
-1.64558e-14
-1.58405e-14
4.12955e-14
-1.46115e-14
-7.32506e-14
-1.72347e-14
-1.6675e-14
4.36592e-14
-1.5514e-14
-7.83709e-14
-1.84793e-14
-1.80113e-14
4.72395e-14
-1.67779e-14
-8.41826e-14
-1.8609e-14
-1.81099e-14
4.71232e-14
-1.6637e-14
-8.3099e-14
-1.85214e-14
-1.81411e-14
4.77307e-14
-1.69698e-14
-8.6123e-14
-1.79478e-14
-1.75648e-14
4.66433e-14
-1.6577e-14
-8.42938e-14
-1.59846e-14
-1.56835e-14
4.18607e-14
-1.49077e-14
-7.61165e-14
-1.29303e-14
-1.28502e-14
3.4764e-14
-1.25568e-14
-6.50719e-14
-9.33524e-15
-9.35686e-15
2.56918e-14
-9.41545e-15
-4.9268e-14
-6.20123e-15
-6.20334e-15
1.70409e-14
-6.28629e-15
-3.32846e-14
-3.86416e-15
-3.81083e-15
1.03931e-14
-3.85406e-15
-2.06323e-14
-2.4972e-15
-2.36282e-15
6.14911e-15
-2.1898e-15
-1.15286e-14
-1.70188e-15
-1.43976e-15
3.30031e-15
-1.03315e-15
-5.03453e-15
-1.1586e-15
-8.14426e-16
1.50128e-15
-3.43432e-16
-1.16624e-15
-5.18087e-16
-1.86746e-16
-8.15691e-17
3.63799e-16
3.70751e-15
3.6043e-16
6.38493e-16
-2.19311e-15
1.18092e-15
8.8362e-15
1.41544e-15
1.48294e-15
-4.53641e-15
2.17022e-15
1.45085e-14
2.39668e-15
2.42807e-15
-7.50411e-15
3.33862e-15
2.04344e-14
3.44956e-15
3.61183e-15
-1.09934e-14
4.55466e-15
2.57813e-14
4.72737e-15
5.00376e-15
-1.46154e-14
5.68629e-15
3.0048e-14
6.19043e-15
6.43404e-15
-1.7996e-14
6.67629e-15
3.43482e-14
7.63991e-15
7.75804e-15
-2.10851e-14
7.6849e-15
3.95519e-14
8.98989e-15
9.0252e-15
-2.43858e-14
8.88906e-15
4.55883e-14
1.03925e-14
1.04793e-14
-2.84181e-14
1.03309e-14
5.2569e-14
1.21607e-14
1.23505e-14
-3.33815e-14
1.20028e-14
6.0262e-14
1.45074e-14
1.46253e-14
-3.88645e-14
1.36958e-14
6.75176e-14
1.71396e-14
1.68237e-14
-4.34194e-14
1.49239e-14
7.23144e-14
)
;
    }
    wedge2
    {
        type            wedge;
        value           nonuniform List<scalar> 
344
(
1.18924e-14
-3.14452e-14
1.11411e-14
5.64372e-14
-1.86519e-14
1.14204e-14
-3.00815e-14
1.05822e-14
5.3196e-14
-1.74816e-14
1.04631e-14
-2.75468e-14
9.70897e-15
4.92995e-14
-1.63643e-14
8.83544e-15
-2.37133e-14
8.63913e-15
4.55579e-14
-1.56633e-14
7.63408e-15
-2.1238e-14
7.98177e-15
4.32881e-14
-1.54285e-14
7.08978e-15
-2.00692e-14
7.69221e-15
4.16973e-14
-1.5084e-14
6.71863e-15
-1.8848e-14
7.20218e-15
3.88648e-14
-1.42652e-14
6.06461e-15
-1.66637e-14
6.18625e-15
3.25727e-14
-1.15491e-14
5.67698e-15
-1.59279e-14
6.12757e-15
3.33876e-14
-1.21145e-14
4.8545e-15
-1.31337e-14
4.97617e-15
2.68108e-14
-9.82247e-15
4.50137e-15
-1.11728e-14
3.7e-15
1.72672e-14
-5.43781e-15
5.011e-15
-1.27183e-14
4.32679e-15
2.04238e-14
-6.47931e-15
5.368e-15
-1.39086e-14
4.80976e-15
2.2115e-14
-6.35356e-15
6.41587e-15
-1.5766e-14
5.08351e-15
2.08613e-14
-5.11988e-15
1.16323e-14
-2.92248e-14
9.69594e-15
4.43991e-14
-1.29388e-14
2.03983e-14
-5.32088e-14
1.85038e-14
9.1678e-14
-2.93424e-14
2.58699e-14
-6.80925e-14
2.40353e-14
1.2116e-13
-3.99592e-14
2.54253e-14
-6.68462e-14
2.37332e-14
1.19238e-13
-3.91019e-14
2.31072e-14
-6.06206e-14
2.13581e-14
1.07648e-13
-3.55003e-14
1.91192e-14
-5.05187e-14
1.81443e-14
9.21789e-14
-3.03666e-14
1.23978e-14
-3.1714e-14
1.08114e-14
5.14752e-14
-1.60962e-14
5.07293e-15
-1.16817e-14
3.86366e-15
1.73999e-14
-5.34028e-15
-1.68033e-15
5.06847e-15
-2.05759e-15
-1.29725e-14
5.07536e-15
-9.5562e-15
2.62372e-14
-9.90346e-15
-5.26543e-14
1.83714e-14
-1.54484e-14
4.14991e-14
-1.49992e-14
-7.59191e-14
2.5424e-14
-1.63766e-14
4.27822e-14
-1.52383e-14
-7.60073e-14
2.59412e-14
-1.65413e-14
4.38393e-14
-1.61338e-14
-8.34713e-14
2.97965e-14
-1.71732e-14
4.68612e-14
-1.74832e-14
-9.26597e-14
3.31049e-14
-1.57483e-14
4.23063e-14
-1.56183e-14
-8.11345e-14
2.78813e-14
-1.34069e-14
-1.26549e-14
3.24211e-14
-1.13385e-14
-5.5016e-14
1.68868e-14
-1.01714e-14
-9.05459e-15
2.15066e-14
-6.78429e-15
-2.8504e-14
6.44067e-15
-8.09251e-15
-6.79115e-15
1.41416e-14
-3.91438e-15
-1.11229e-14
-2.15782e-16
-9.15835e-15
-7.65473e-15
1.67294e-14
-4.78185e-15
-1.44552e-14
1.04503e-15
-1.27454e-14
-1.14745e-14
2.73068e-14
-8.56132e-15
-3.5588e-14
8.52611e-15
-1.58535e-14
-1.54052e-14
3.90231e-14
-1.30514e-14
-6.16198e-14
1.83206e-14
-1.50062e-14
-1.47898e-14
3.88195e-14
-1.38085e-14
-7.05238e-14
2.35485e-14
-1.44822e-14
-1.40252e-14
3.65491e-14
-1.33319e-14
-6.96147e-14
2.45454e-14
-1.42035e-14
-1.3968e-14
3.76376e-14
-1.39995e-14
-7.32257e-14
2.58827e-14
-1.44356e-14
-1.41895e-14
3.83136e-14
-1.41247e-14
-7.29576e-14
-1.61494e-14
-1.57374e-14
4.16488e-14
-1.48933e-14
-7.48124e-14
-1.64578e-14
-1.58425e-14
4.12934e-14
-1.46136e-14
-7.32531e-14
-1.72376e-14
-1.66778e-14
4.36565e-14
-1.55163e-14
-7.83731e-14
-1.84815e-14
-1.8013e-14
4.72376e-14
-1.67794e-14
-8.41843e-14
-1.8612e-14
-1.81125e-14
4.71202e-14
-1.66395e-14
-8.31014e-14
-1.85248e-14
-1.81442e-14
4.77274e-14
-1.69723e-14
-8.61259e-14
-1.79516e-14
-1.75686e-14
4.66401e-14
-1.65803e-14
-8.42963e-14
-1.59893e-14
-1.56874e-14
4.18565e-14
-1.49116e-14
-7.61201e-14
-1.29349e-14
-1.28541e-14
3.47596e-14
-1.25608e-14
-6.50758e-14
-9.33904e-15
-9.36113e-15
2.56885e-14
-9.4198e-15
-4.92724e-14
-6.20575e-15
-6.20788e-15
1.70367e-14
-6.29047e-15
-3.32885e-14
-3.86745e-15
-3.81519e-15
1.03892e-14
-3.85726e-15
-2.06363e-14
-2.50125e-15
-2.36742e-15
6.14474e-15
-2.19407e-15
-1.15324e-14
-1.70597e-15
-1.44318e-15
3.29649e-15
-1.03696e-15
-5.03768e-15
-1.16291e-15
-8.18567e-16
1.49732e-15
-3.47182e-16
-1.16982e-15
-5.21762e-16
-1.90273e-16
-8.74849e-17
3.5904e-16
3.70269e-15
3.55574e-16
6.33807e-16
-2.198e-15
1.17652e-15
8.83114e-15
1.41136e-15
1.47882e-15
-4.54086e-15
2.16543e-15
1.45035e-14
2.39247e-15
2.42366e-15
-7.50922e-15
3.33372e-15
2.04298e-14
3.44571e-15
3.60734e-15
-1.09983e-14
4.54989e-15
2.57774e-14
4.72266e-15
4.99874e-15
-1.46206e-14
5.68212e-15
3.00449e-14
6.18592e-15
6.42933e-15
-1.80002e-14
6.67283e-15
3.43458e-14
7.63473e-15
7.75324e-15
-2.10892e-14
7.68139e-15
3.95497e-14
8.98549e-15
9.02115e-15
-2.43896e-14
8.88591e-15
4.55862e-14
1.03877e-14
1.0475e-14
-2.84221e-14
1.03274e-14
5.25666e-14
1.21568e-14
1.23472e-14
-3.33845e-14
1.20002e-14
6.02601e-14
1.45027e-14
1.46216e-14
-3.88676e-14
1.36933e-14
6.7516e-14
1.71358e-14
1.6821e-14
-4.34211e-14
1.49229e-14
7.23139e-14
)
;
    }
    axis
    {
        type            empty;
        value           nonuniform 0();
    }
    procBoundary28to22
    {
        type            processor;
        value           nonuniform List<scalar> 
68
(
0.000377258
0.000296921
0.000245014
0.000271523
0.00036672
0.000429561
0.000391041
0.000378143
0.000371083
0.000380284
0.000430244
0.000448603
0.000474501
0.000510123
0.000519279
0.000519877
0.000500359
0.000442933
0.000357807
0.000259684
0.000174033
0.000110423
7.41159e-05
5.42991e-05
4.1145e-05
2.40046e-05
9.19807e-07
-2.48458e-05
-5.02976e-05
-7.6378e-05
-0.00010651
-0.000141561
-0.000177814
-0.000212469
-0.000247712
-0.000289679
-0.000345705
-0.00041356
-0.000314833
-0.000304697
-0.00028769
-0.000243191
-0.000204855
-0.000186231
-0.000176143
-0.000160744
-0.000149517
-0.000129274
-0.000119662
-0.00013031
-0.000137569
-0.000165656
-0.000298968
-0.00052536
-0.000664702
-0.000648813
-0.000588219
-0.000484367
-0.000313322
-0.000122467
5.49928e-05
0.000280618
0.000445029
0.000467256
0.000453944
0.000462087
-0.000188148
0.000435479
)
;
    }
    procBoundary28to23
    {
        type            processor;
        value           uniform -2.23424e-05;
    }
    procBoundary28to27
    {
        type            processor;
        value           nonuniform List<scalar> 4(-0.000109907 -0.0001014 -9.40231e-05 -8.81277e-05);
    }
    procBoundary28to29
    {
        type            processor;
        value           nonuniform List<scalar> 4(-4.00213e-05 -5.17739e-05 -5.95644e-05 -6.60843e-05);
    }
    procBoundary28to33
    {
        type            processor;
        value           uniform -8.22558e-05;
    }
    procBoundary28to34
    {
        type            processor;
        value           nonuniform List<scalar> 
68
(
-0.000401236
-0.000412365
-0.000407789
-0.000440016
-0.000476278
-0.000473953
-0.000496063
-0.000489602
-0.00044868
-0.000391694
-0.000301337
-0.000207162
-0.000131254
-7.44833e-05
-3.25234e-05
-6.26085e-06
1.99561e-05
4.47028e-05
7.11469e-05
9.71518e-05
0.000119166
0.000138692
0.000160581
0.000186597
0.000216153
0.000250901
0.00028911
0.000325759
0.000351902
0.000282695
0.000265608
0.00025467
0.000248752
0.00024676
0.000244122
0.000236434
0.000187693
0.000204245
0.000171129
8.61122e-05
0.000101062
9.96105e-05
5.81844e-05
0.000170034
0.000423335
0.000585027
0.000554944
0.000500258
0.000417945
0.000204816
6.00307e-05
-0.000119945
-0.000339446
-0.000430874
-0.00042991
-0.000469373
-0.000506539
-0.000405134
-0.000223487
-6.17002e-05
3.54191e-05
2.06942e-05
-8.78843e-05
-0.000245327
-0.00034445
-0.000373597
2.02371e-07
-0.000405772
)
;
    }
}


// ************************************************************************* //
