/*--------------------------------*- C++ -*----------------------------------*\
  =========                 |
  \\      /  F ield         | OpenFOAM: The Open Source CFD Toolbox
   \\    /   O peration     | Website:  https://openfoam.org
    \\  /    A nd           | Version:  7
     \\/     M anipulation  |
\*---------------------------------------------------------------------------*/
FoamFile
{
    version     2.0;
    format      ascii;
    class       volVectorField;
    location    "0.4";
    object      U;
}
// * * * * * * * * * * * * * * * * * * * * * * * * * * * * * * * * * * * * * //

dimensions      [0 1 -1 0 0 0 0];

internalField   nonuniform List<vector> 
30686
(
(1 -8.38612e-06 2.02019e-16)
(1.00005 -2.50438e-05 -7.81825e-16)
(1.00015 -4.14703e-05 6.57774e-16)
(1.0003 -5.76539e-05 7.20907e-15)
(1.0005 -7.35589e-05 6.72585e-15)
(1.00075 -8.90946e-05 6.57807e-15)
(1.00104 -0.00010418 3.72165e-15)
(1.00138 -0.000118777 2.23407e-15)
(1.00176 -0.000132839 3.01379e-15)
(1.00218 -0.000146278 2.66746e-15)
(1.00265 -0.000159023 2.98665e-15)
(1.00315 -0.000171086 1.90922e-15)
(1.00369 -0.000182518 1.21727e-15)
(1.00426 -0.0001933 7.65864e-16)
(1.00486 -0.000203336 9.49007e-16)
(1.00549 -0.000212572 -8.09278e-17)
(1.00615 -0.000221093 -1.48727e-15)
(1.00684 -0.000229059 -5.20658e-16)
(1.00754 -0.000236539 1.06332e-15)
(1.00827 -0.00024344 -1.29446e-16)
(1.00902 -0.000249626 1.61603e-15)
(1.00979 -0.000255116 -9.93842e-17)
(1.01057 -0.000260156 2.28901e-15)
(1.01137 -0.000265085 -1.95703e-16)
(1.01218 -0.000270091 2.08816e-15)
(1.01301 -0.000275072 -1.91324e-15)
(1.01385 -0.000279724 2.80736e-15)
(1.01471 -0.000283797 -2.53238e-15)
(1.01558 -0.000287367 3.74493e-15)
(1.01645 -0.000290916 2.3849e-15)
(1.01734 -0.000295188 4.37079e-15)
(1.01825 -0.000300884 2.23602e-15)
(1.01917 -0.000308356 3.60907e-15)
(1.02012 -0.000317429 1.78077e-15)
(1.0211 -0.000327421 2.36661e-15)
(1.02211 -0.000337306 3.60362e-15)
(1.02315 -0.000345972 2.01779e-15)
(1.02421 -0.000352451 2.49069e-15)
(1.02529 -0.000356076 2.41941e-15)
(1.02637 -0.000356545 4.0699e-16)
(1.02745 -0.000353893 3.18607e-15)
(1.02852 -0.00034841 2.83314e-15)
(1.02957 -0.000340541 1.64341e-15)
(1.03059 -0.000330794 1.55491e-15)
(1.03158 -0.000319664 1.91001e-15)
(1.03253 -0.000307595 1.62756e-16)
(1.03345 -0.000294952 2.20356e-15)
(1.03432 -0.000282023 2.18577e-15)
(1.03516 -0.000269023 9.95232e-16)
(1.03596 -0.000256108 2.43747e-15)
(1.03671 -0.000243391 5.4652e-16)
(1.03743 -0.000230948 2.46437e-15)
(1.03812 -0.000218834 8.39391e-16)
(1.03876 -0.000207085 2.87233e-15)
(1.03937 -0.000195726 -1.58908e-15)
(1.03995 -0.000184775 4.40343e-15)
(1.04049 -0.000174241 -3.46836e-15)
(1.04101 -0.000164132 -1.73574e-15)
(1.04149 -0.00015445 -1.66603e-15)
(1.04195 -0.000145196 -1.87818e-15)
(1.04237 -0.000136366 -3.74278e-16)
(1.04277 -0.000127955 -1.0403e-15)
(1.04315 -0.000119958 -1.56495e-15)
(1.0435 -0.000112366 -2.59573e-15)
(1.04383 -0.00010517 -1.90217e-15)
(1.04414 -9.8358e-05 -1.73028e-15)
(1.04443 -9.19197e-05 7.19116e-16)
(1.0447 -8.58422e-05 -1.74362e-15)
(1.04495 -8.01127e-05 -5.25322e-16)
(1.04518 -7.47177e-05 -8.9282e-16)
(1.0454 -6.96435e-05 -9.17079e-16)
(1.04561 -6.48763e-05 -1.48893e-15)
(1.0458 -6.0402e-05 -8.10557e-16)
(1.04597 -5.62069e-05 -1.90604e-15)
(1.04614 -5.22772e-05 4.10668e-17)
(1.04629 -4.85994e-05 -1.29021e-15)
(1.04643 -4.51602e-05 4.97774e-16)
(1.04657 -4.19466e-05 -1.20866e-15)
(1.04669 -3.89462e-05 2.1011e-15)
(1.0468 -3.61467e-05 -1.34604e-15)
(1.04691 -3.35366e-05 3.41831e-15)
(1.04701 -3.11044e-05 -3.25004e-15)
(1.0471 -2.88395e-05 -2.57957e-15)
(1.04718 -2.67315e-05 -7.65013e-16)
(1.04726 -2.47706e-05 -2.07205e-15)
(1.04733 -2.29475e-05 -1.68643e-15)
(1.0474 -2.12532e-05 -2.42695e-15)
(1.04746 -1.96795e-05 -1.60953e-15)
(1.04752 -1.82182e-05 -2.79753e-15)
(1.04757 -1.6862e-05 -1.30517e-15)
(1.04762 -1.56037e-05 -1.99275e-15)
(1.04766 -1.44367e-05 -8.69924e-16)
(1.04771 -1.33547e-05 -1.3542e-15)
(1.04775 -1.23519e-05 -2.17566e-16)
(1.04778 -1.14226e-05 -6.18768e-16)
(1.04782 -1.05619e-05 7.08289e-16)
(1.04785 -9.76473e-06 -1.07108e-15)
(1.04787 -9.02672e-06 -9.03682e-16)
(1.0479 -8.34361e-06 -1.05917e-15)
(1.04793 -7.71144e-06 -3.15146e-16)
(1.04795 -7.12655e-06 -6.42233e-17)
(1.04797 -6.58551e-06 -2.02623e-17)
(1.04799 -6.08514e-06 1.87906e-15)
(1.04801 -5.62247e-06 7.13552e-16)
(1.04802 -5.19473e-06 3.32015e-16)
(1.04804 -4.79936e-06 1.21903e-15)
(1.04805 -4.43396e-06 1.24053e-15)
(1.04806 -4.09631e-06 8.19213e-16)
(1.04808 -3.78438e-06 3.78704e-16)
(1.04809 -3.49629e-06 1.30309e-15)
(1.0481 -3.23025e-06 8.64029e-17)
(1.04811 -2.98461e-06 6.92056e-16)
(1.04811 -2.75787e-06 4.20788e-16)
(1.04812 -2.54859e-06 5.83249e-16)
(1.04813 -2.35548e-06 8.22103e-17)
(1.04814 -2.17733e-06 -1.95679e-16)
(1.04814 -2.01304e-06 6.96441e-16)
(1.04815 -1.86157e-06 1.45371e-16)
(1.04815 -1.72198e-06 5.10111e-16)
(1.04816 -1.59338e-06 3.66353e-16)
(1.04816 -1.47495e-06 8.69277e-16)
(1.04817 -1.36594e-06 1.31752e-15)
(1.04817 -1.26566e-06 2.66082e-16)
(1.04818 -1.17348e-06 1.21989e-15)
(1.04818 -1.08881e-06 4.96844e-16)
(1.04818 -1.01109e-06 4.55645e-16)
(1.04819 -9.39843e-07 5.30597e-16)
(1.04819 -8.746e-07 2.88603e-16)
(1.04819 -8.1495e-07 1.51351e-15)
(1.04819 -7.60546e-07 1.7881e-15)
(1.0482 -7.11004e-07 1.39471e-15)
(1.0482 -6.65988e-07 8.61767e-16)
(1.0482 -6.25217e-07 1.83023e-15)
(1.0482 -5.8843e-07 2.39015e-15)
(1.0482 -5.55377e-07 3.40061e-15)
(1.04821 -5.25849e-07 2.91346e-15)
(1.04821 -4.9965e-07 2.26397e-15)
(1.04821 -4.76601e-07 1.58889e-15)
(1.04821 -4.56552e-07 3.05757e-15)
(1.04821 -4.39356e-07 1.46358e-15)
(1.04821 -4.24895e-07 1.87565e-15)
(1.04821 -4.13062e-07 1.62522e-15)
(1.04821 -4.03771e-07 2.22621e-15)
(1.04822 -3.96954e-07 2.53895e-15)
(1.04822 -3.92567e-07 2.53141e-15)
(1.04822 -3.90582e-07 2.44064e-15)
(1.04822 -3.90949e-07 1.57846e-15)
(1.04822 -3.93677e-07 1.90746e-15)
(1.04822 -3.98783e-07 3.04679e-16)
(1.04822 -4.06254e-07 2.35487e-15)
(1.04822 -4.1615e-07 2.19353e-15)
(1.04823 -4.28525e-07 3.18562e-15)
(1.04823 -4.43398e-07 2.04765e-15)
(1.04823 -4.60844e-07 2.6964e-15)
(1.04823 -4.80958e-07 3.29834e-15)
(1.04823 -5.0385e-07 2.84852e-15)
(1.04823 -5.29652e-07 3.00743e-15)
(1.04823 -5.58499e-07 2.62838e-15)
(1.04824 -5.90538e-07 1.57827e-15)
(1.04824 -6.25951e-07 3.98625e-15)
(1.04824 -6.64934e-07 2.99523e-15)
(1.04824 -7.07703e-07 4.38702e-15)
(1.04824 -7.54501e-07 3.1401e-15)
(1.04825 -8.05587e-07 2.86964e-15)
(1.04825 -8.61228e-07 2.45211e-15)
(1.04825 -9.21742e-07 2.82371e-15)
(1.04825 -9.87477e-07 1.18371e-15)
(1.04826 -1.05878e-06 1.29421e-15)
(1.04826 -1.13604e-06 2.91485e-15)
(1.04826 -1.2197e-06 1.83152e-15)
(1.04827 -1.31023e-06 2.14179e-15)
(1.04827 -1.40812e-06 3.08506e-15)
(1.04828 -1.51393e-06 3.85663e-15)
(1.04828 -1.62826e-06 2.47334e-15)
(1.04829 -1.7517e-06 2.17263e-15)
(1.04829 -1.88494e-06 2.23443e-15)
(1.0483 -2.02876e-06 4.00625e-15)
(1.04831 -2.18401e-06 2.85019e-15)
(1.04831 -2.35154e-06 4.01373e-15)
(1.04832 -2.53226e-06 3.6549e-15)
(1.04833 -2.72715e-06 2.47804e-15)
(1.04834 -2.93728e-06 1.68174e-15)
(1.04835 -3.16384e-06 3.9195e-15)
(1.04836 -3.40812e-06 3.70344e-15)
(1.04837 -3.67149e-06 4.5394e-15)
(1.04838 -3.95538e-06 3.1182e-15)
(1.04839 -4.26134e-06 3.16495e-15)
(1.0484 -4.59111e-06 3.31518e-15)
(1.04842 -4.94653e-06 1.56395e-15)
(1.04843 -5.32958e-06 2.83753e-15)
(1.04845 -5.74236e-06 3.31165e-15)
(1.04847 -6.18715e-06 3.68502e-15)
(1.04849 -6.66644e-06 2.35832e-15)
(1.04851 -7.18288e-06 3.50723e-15)
(1.04853 -7.73934e-06 2.59368e-15)
(1.04856 -8.33883e-06 2.61945e-15)
(1.04858 -8.98472e-06 1.56106e-15)
(1.04861 -9.6806e-06 2.79913e-15)
(1.04864 -1.04303e-05 2.07236e-15)
(1.04867 -1.12378e-05 4.49415e-15)
(1.04871 -1.21077e-05 2.23282e-15)
(1.04875 -1.30447e-05 2.48778e-15)
(1.04879 -1.40539e-05 1.48963e-15)
(1.04883 -1.51409e-05 2.11118e-15)
(1.04888 -1.63116e-05 3.02706e-16)
(1.04893 -1.75724e-05 2.11533e-15)
(1.04899 -1.89302e-05 7.73701e-16)
(1.04905 -2.03923e-05 3.66615e-15)
(1.04911 -2.19667e-05 2.16459e-15)
(1.04918 -2.36618e-05 2.2693e-15)
(1.04925 -2.54868e-05 1.31522e-15)
(1.04933 -2.74515e-05 1.62234e-15)
(1.04942 -2.95666e-05 1.77383e-15)
(1.04951 -3.18433e-05 4.5286e-16)
(1.04961 -3.42939e-05 -4.34437e-17)
(1.04972 -3.69313e-05 2.15643e-15)
(1.04984 -3.97696e-05 1.52966e-15)
(1.04996 -4.28236e-05 1.55937e-15)
(1.0501 -4.61096e-05 1.29845e-15)
(1.05024 -4.96448e-05 4.70244e-16)
(1.0504 -5.34476e-05 1.093e-15)
(1.05057 -5.75379e-05 7.41344e-17)
(1.05075 -6.19367e-05 1.54125e-15)
(1.05094 -6.66668e-05 -2.62192e-16)
(1.05115 -7.17525e-05 3.00007e-16)
(1.05138 -7.72197e-05 -1.56298e-15)
(1.05162 -8.30959e-05 4.35861e-17)
(1.05188 -8.94109e-05 -1.82437e-15)
(1.05217 -9.6196e-05 2.71264e-16)
(1.05247 -0.000103485 -2.08463e-15)
(1.05279 -0.000111314 -6.34718e-16)
(1.05314 -0.00011972 -1.92387e-15)
(1.05352 -0.000128745 -1.17594e-15)
(1.05393 -0.000138432 -2.41226e-15)
(1.05436 -0.000148827 -6.98946e-16)
(1.05483 -0.000159978 -2.48988e-15)
(1.05533 -0.000171937 -1.80616e-15)
(1.05587 -0.000184758 -2.70757e-15)
(1.05645 -0.000198501 -2.59062e-15)
(1.05708 -0.000213225 -4.16121e-15)
(1.05775 -0.000228995 -3.70559e-15)
(1.05847 -0.000245879 -3.87581e-15)
(1.05924 -0.000263949 -3.45106e-15)
(1.06007 -0.000283279 -4.17758e-15)
(1.06096 -0.000303947 -3.85464e-15)
(1.06192 -0.000326037 -3.56617e-15)
(1.06294 -0.000349632 -4.83162e-15)
(1.06404 -0.000374823 -3.5588e-15)
(1.06522 -0.000401701 -4.12236e-15)
(1.06648 -0.000430361 -2.4754e-15)
(1.06783 -0.000460902 -4.96279e-15)
(1.06927 -0.000493424 -2.0562e-15)
(1.07082 -0.00052803 -4.4419e-15)
(1.07248 -0.000564823 -2.7874e-15)
(1.07425 -0.00060391 -4.32251e-15)
(1.07614 -0.000645396 -3.36362e-15)
(1.07817 -0.000689385 -4.13335e-15)
(1.08033 -0.000735981 -3.53979e-15)
(1.08264 -0.000785285 -4.5633e-15)
(1.0851 -0.000837392 -3.82497e-15)
(1.08772 -0.000892396 -4.47109e-15)
(1.09051 -0.000950377 -3.02579e-15)
(1.09349 -0.00101141 -4.21081e-15)
(1.09665 -0.00107556 -3.36669e-15)
(1.10001 -0.00114288 -3.68702e-15)
(1.10359 -0.0012134 -3.94299e-15)
(1.10738 -0.00128713 -4.33447e-15)
(1.1114 -0.00136407 -4.34846e-15)
(1.11566 -0.00144417 -2.97282e-15)
(1.12016 -0.00152739 -4.22002e-15)
(1.12492 -0.00161362 -3.56283e-15)
(1.12995 -0.00170273 -3.87771e-15)
(1.13526 -0.00179455 -3.76098e-15)
(1.14084 -0.00188886 -3.78493e-15)
(1.14672 -0.0019854 -3.63646e-15)
(1.15289 -0.00208384 -4.11523e-15)
(1.15936 -0.00218382 -3.59716e-15)
(1.16614 -0.00228488 -4.68284e-15)
(1.17322 -0.00238655 -3.62429e-15)
(1.18062 -0.00248823 -4.03041e-15)
(1.18832 -0.00258931 -3.96698e-15)
(1.19633 -0.00268909 -4.09057e-15)
(1.20464 -0.00278677 -3.49126e-15)
(1.21324 -0.00288154 -4.09917e-15)
(1.22212 -0.00297246 -4.0798e-15)
(1.23127 -0.00305858 -4.84396e-15)
(1.24068 -0.00313887 -4.20144e-15)
(1.25032 -0.00321223 -4.25752e-15)
(1.26017 -0.00327755 -3.88637e-15)
(1.2702 -0.00333367 -4.45413e-15)
(1.2804 -0.00337942 -4.37937e-15)
(1.29071 -0.00341361 -4.60604e-15)
(1.30112 -0.00343508 -4.54585e-15)
(1.31156 -0.00344269 -4.54035e-15)
(1.32201 -0.00343533 -4.20894e-15)
(1.33242 -0.00341199 -4.06484e-15)
(1.34273 -0.00337173 -4.47382e-15)
(1.3529 -0.00331372 -3.78564e-15)
(1.36286 -0.00323728 -4.00672e-15)
(1.37257 -0.00314187 -3.76776e-15)
(1 -1.95473e-05 6.91717e-16)
(1.00005 -5.84051e-05 -9.06188e-16)
(1.00015 -9.68053e-05 1.28783e-15)
(1.0003 -0.000134651 -1.49796e-15)
(1.0005 -0.000171816 -8.63087e-16)
(1.00075 -0.000208086 -3.61337e-15)
(1.00104 -0.000243289 -2.68986e-15)
(1.00138 -0.000277349 -3.28289e-15)
(1.00176 -0.000310164 -2.37433e-15)
(1.00219 -0.000341527 -3.0056e-15)
(1.00265 -0.00037127 -2.05039e-15)
(1.00316 -0.000399421 -2.77291e-15)
(1.00369 -0.000426095 -1.60076e-15)
(1.00427 -0.000451251 -3.12349e-15)
(1.00487 -0.000474662 -5.86216e-16)
(1.0055 -0.000496204 3.3522e-16)
(1.00616 -0.000516075 -7.20096e-16)
(1.00685 -0.000534648 -1.48537e-16)
(1.00755 -0.000552084 2.28703e-15)
(1.00828 -0.000568169 -7.7552e-16)
(1.00904 -0.000582588 2.63522e-15)
(1.0098 -0.000595381 1.67553e-15)
(1.01059 -0.000607124 2.73593e-15)
(1.01138 -0.000618606 1.29444e-15)
(1.0122 -0.000630268 2.86826e-15)
(1.01303 -0.000641875 3.66656e-16)
(1.01387 -0.000652712 2.97639e-15)
(1.01473 -0.000662202 -2.59488e-16)
(1.01559 -0.000670517 3.66345e-15)
(1.01647 -0.000678785 2.14191e-15)
(1.01736 -0.00068874 3.36178e-15)
(1.01827 -0.000702021 1.16898e-15)
(1.01919 -0.000719448 3.4128e-15)
(1.02014 -0.000740616 5.97838e-16)
(1.02112 -0.000763928 3.06736e-15)
(1.02213 -0.000786995 2.80069e-15)
(1.02317 -0.000807217 3.78295e-15)
(1.02423 -0.000822334 1.7241e-15)
(1.02531 -0.000830792 3.10079e-15)
(1.02639 -0.000831885 8.39505e-16)
(1.02747 -0.000825692 3.24364e-15)
(1.02854 -0.000812891 2.61174e-15)
(1.02959 -0.000794522 2.67323e-15)
(1.03061 -0.000771769 2.29802e-15)
(1.0316 -0.000745791 2.21409e-15)
(1.03255 -0.000717619 1.54849e-15)
(1.03346 -0.000688109 9.2413e-16)
(1.03434 -0.000657931 1.41986e-15)
(1.03518 -0.000627588 1.27014e-15)
(1.03597 -0.000597447 1.66889e-15)
(1.03673 -0.000567766 1.08144e-15)
(1.03745 -0.000538728 1.24675e-15)
(1.03813 -0.000510457 5.82452e-16)
(1.03878 -0.000483039 7.10142e-16)
(1.03939 -0.000456532 3.63429e-16)
(1.03996 -0.000430977 3.863e-16)
(1.04051 -0.000406398 5.10681e-16)
(1.04102 -0.000382811 -2.44923e-17)
(1.0415 -0.000360221 1.18543e-16)
(1.04196 -0.000338629 -7.96099e-16)
(1.04238 -0.000318028 3.83365e-17)
(1.04278 -0.000298406 -9.01118e-16)
(1.04316 -0.00027975 2.44848e-17)
(1.04351 -0.000262039 -2.07511e-15)
(1.04384 -0.000245252 -7.26367e-16)
(1.04415 -0.000229363 -1.74574e-15)
(1.04444 -0.000214345 2.28225e-16)
(1.04471 -0.000200169 -2.0441e-15)
(1.04496 -0.000186805 -2.25771e-16)
(1.04519 -0.000174222 -8.08864e-16)
(1.04541 -0.000162388 -7.22337e-16)
(1.04561 -0.00015127 -1.86457e-15)
(1.0458 -0.000140835 -7.47182e-16)
(1.04598 -0.000131052 -8.81608e-16)
(1.04614 -0.000121887 -8.92335e-16)
(1.0463 -0.000113311 -1.05213e-15)
(1.04644 -0.000105291 -9.32105e-16)
(1.04657 -9.77972e-05 -1.34331e-15)
(1.04669 -9.08007e-05 -4.07271e-16)
(1.04681 -8.42731e-05 -3.65646e-16)
(1.04691 -7.81869e-05 -7.93539e-16)
(1.04701 -7.25158e-05 -9.80493e-16)
(1.0471 -6.72348e-05 -3.42035e-16)
(1.04718 -6.23198e-05 -5.393e-16)
(1.04726 -5.77479e-05 -1.48685e-15)
(1.04733 -5.34972e-05 -1.61126e-16)
(1.0474 -4.9547e-05 -9.80347e-16)
(1.04746 -4.58778e-05 -6.52924e-16)
(1.04752 -4.2471e-05 -1.34288e-15)
(1.04757 -3.93091e-05 -5.00824e-16)
(1.04762 -3.63755e-05 -1.98879e-15)
(1.04767 -3.36548e-05 -1.29088e-16)
(1.04771 -3.11323e-05 -1.91364e-15)
(1.04775 -2.87944e-05 1.65943e-16)
(1.04778 -2.6628e-05 3.55432e-16)
(1.04782 -2.46213e-05 5.3788e-16)
(1.04785 -2.2763e-05 1.05622e-16)
(1.04788 -2.10425e-05 3.32158e-16)
(1.0479 -1.945e-05 4.5181e-16)
(1.04793 -1.79763e-05 2.30176e-17)
(1.04795 -1.66128e-05 5.35964e-17)
(1.04797 -1.53516e-05 6.11172e-17)
(1.04799 -1.41851e-05 -6.55408e-17)
(1.04801 -1.31066e-05 1.2998e-15)
(1.04802 -1.21094e-05 4.94967e-16)
(1.04804 -1.11878e-05 1.37936e-15)
(1.04805 -1.0336e-05 5.32227e-16)
(1.04806 -9.54892e-06 2.30205e-15)
(1.04808 -8.82179e-06 7.99885e-16)
(1.04809 -8.15019e-06 2.73826e-15)
(1.0481 -7.52998e-06 5.25382e-16)
(1.04811 -6.95737e-06 3.52197e-15)
(1.04812 -6.42881e-06 1.68678e-16)
(1.04812 -5.94095e-06 1.59096e-15)
(1.04813 -5.49077e-06 3.07325e-16)
(1.04814 -5.0755e-06 1.21615e-15)
(1.04814 -4.69252e-06 1.34678e-15)
(1.04815 -4.33942e-06 8.12531e-16)
(1.04816 -4.01398e-06 6.37244e-16)
(1.04816 -3.71417e-06 1.09827e-15)
(1.04816 -3.4381e-06 1.43317e-15)
(1.04817 -3.18399e-06 1.14317e-15)
(1.04817 -2.95023e-06 1.24008e-15)
(1.04818 -2.73536e-06 1.47417e-15)
(1.04818 -2.53799e-06 1.37011e-15)
(1.04818 -2.35684e-06 1.65176e-15)
(1.04819 -2.1908e-06 2.2769e-15)
(1.04819 -2.03875e-06 2.28336e-15)
(1.04819 -1.89967e-06 2.71075e-15)
(1.04819 -1.77281e-06 2.81306e-15)
(1.0482 -1.65732e-06 3.71577e-15)
(1.0482 -1.55237e-06 3.65992e-15)
(1.0482 -1.45731e-06 5.14956e-15)
(1.0482 -1.37155e-06 4.2814e-15)
(1.0482 -1.29449e-06 5.85502e-15)
(1.04821 -1.22565e-06 4.19084e-15)
(1.04821 -1.16456e-06 6.8504e-15)
(1.04821 -1.1108e-06 4.47728e-15)
(1.04821 -1.06403e-06 4.84785e-15)
(1.04821 -1.02391e-06 4.63698e-15)
(1.04821 -9.90191e-07 5.11192e-15)
(1.04821 -9.62606e-07 5.58772e-15)
(1.04821 -9.40948e-07 5.70401e-15)
(1.04822 -9.25056e-07 6.24191e-15)
(1.04822 -9.1481e-07 6.03226e-15)
(1.04822 -9.10163e-07 5.91421e-15)
(1.04822 -9.11026e-07 5.69831e-15)
(1.04822 -9.17364e-07 5.63814e-15)
(1.04822 -9.29253e-07 5.2121e-15)
(1.04822 -9.46648e-07 5.61213e-15)
(1.04822 -9.69618e-07 5.14829e-15)
(1.04823 -9.98366e-07 6.09281e-15)
(1.04823 -1.03301e-06 5.85552e-15)
(1.04823 -1.07365e-06 7.32451e-15)
(1.04823 -1.12052e-06 7.12236e-15)
(1.04823 -1.17386e-06 7.61282e-15)
(1.04823 -1.23393e-06 6.16659e-15)
(1.04823 -1.30109e-06 8.41696e-15)
(1.04824 -1.37572e-06 6.84019e-15)
(1.04824 -1.45821e-06 8.13105e-15)
(1.04824 -1.54902e-06 5.78839e-15)
(1.04824 -1.64864e-06 8.33768e-15)
(1.04824 -1.75765e-06 5.90428e-15)
(1.04825 -1.87667e-06 5.97512e-15)
(1.04825 -2.0063e-06 5.1794e-15)
(1.04825 -2.14727e-06 5.69791e-15)
(1.04825 -2.30036e-06 5.71498e-15)
(1.04826 -2.46643e-06 6.01706e-15)
(1.04826 -2.64639e-06 5.96305e-15)
(1.04826 -2.84128e-06 6.48536e-15)
(1.04827 -3.05218e-06 6.14238e-15)
(1.04827 -3.2802e-06 6.23086e-15)
(1.04828 -3.52662e-06 6.44856e-15)
(1.04828 -3.79293e-06 6.67291e-15)
(1.04829 -4.08054e-06 6.25588e-15)
(1.04829 -4.39096e-06 6.37366e-15)
(1.0483 -4.72602e-06 6.90749e-15)
(1.0483 -5.08762e-06 6.8682e-15)
(1.04831 -5.47783e-06 6.97044e-15)
(1.04832 -5.89878e-06 7.31567e-15)
(1.04833 -6.35277e-06 7.32203e-15)
(1.04834 -6.8423e-06 6.98861e-15)
(1.04834 -7.3701e-06 8.66185e-15)
(1.04835 -7.93916e-06 8.14964e-15)
(1.04837 -8.55264e-06 8.70685e-15)
(1.04838 -9.21394e-06 7.92601e-15)
(1.04839 -9.92671e-06 8.55471e-15)
(1.0484 -1.06949e-05 7.51455e-15)
(1.04842 -1.15229e-05 6.06702e-15)
(1.04843 -1.24151e-05 7.21807e-15)
(1.04845 -1.33767e-05 6.12607e-15)
(1.04847 -1.44129e-05 7.02095e-15)
(1.04849 -1.55294e-05 5.02113e-15)
(1.04851 -1.67325e-05 7.68517e-15)
(1.04853 -1.80288e-05 5.38217e-15)
(1.04855 -1.94253e-05 7.93243e-15)
(1.04858 -2.09299e-05 4.1034e-15)
(1.04861 -2.2551e-05 8.37395e-15)
(1.04864 -2.42973e-05 3.6593e-15)
(1.04867 -2.61786e-05 9.82194e-15)
(1.04871 -2.8205e-05 3.13308e-15)
(1.04875 -3.03878e-05 8.74687e-15)
(1.04879 -3.27388e-05 -1.51769e-16)
(1.04883 -3.52711e-05 8.47464e-15)
(1.04888 -3.79983e-05 9.15817e-16)
(1.04893 -4.09355e-05 7.60119e-15)
(1.04898 -4.40985e-05 -8.57809e-17)
(1.04904 -4.75047e-05 7.04291e-15)
(1.04911 -5.11723e-05 1.23223e-15)
(1.04918 -5.51213e-05 6.02811e-15)
(1.04925 -5.9373e-05 -1.90324e-15)
(1.04933 -6.39502e-05 5.4063e-15)
(1.04942 -6.88775e-05 -5.36459e-16)
(1.04951 -7.41815e-05 4.81719e-15)
(1.04961 -7.98905e-05 -1.03165e-15)
(1.04972 -8.60348e-05 3.73141e-15)
(1.04983 -9.26471e-05 2.34493e-16)
(1.04996 -9.97622e-05 2.44635e-15)
(1.05009 -0.000107418 -3.09913e-15)
(1.05024 -0.000115654 9.60467e-16)
(1.05039 -0.000124513 -9.05627e-16)
(1.05056 -0.000134043 -4.63622e-16)
(1.05074 -0.000144291 -1.10302e-15)
(1.05094 -0.000155312 -2.85443e-15)
(1.05115 -0.00016716 9.0964e-16)
(1.05137 -0.000179898 -5.94929e-15)
(1.05161 -0.000193589 -1.11608e-16)
(1.05188 -0.000208302 -9.04002e-15)
(1.05216 -0.000224111 -7.19131e-16)
(1.05246 -0.000241094 -7.40336e-15)
(1.05278 -0.000259334 -9.86648e-16)
(1.05313 -0.000278922 -7.35861e-15)
(1.05351 -0.000299951 -6.61033e-16)
(1.05391 -0.000322522 -6.72634e-15)
(1.05435 -0.000346742 -1.98534e-15)
(1.05481 -0.000372726 -9.9388e-15)
(1.05532 -0.000400592 -3.20714e-15)
(1.05586 -0.00043047 -9.29065e-15)
(1.05644 -0.000462493 -4.74669e-15)
(1.05706 -0.000496805 -1.06489e-14)
(1.05773 -0.000533555 -5.50445e-15)
(1.05845 -0.000572903 -9.05393e-15)
(1.05922 -0.000615013 -6.75725e-15)
(1.06004 -0.000660062 -1.13454e-14)
(1.06093 -0.000708233 -7.72938e-15)
(1.06189 -0.000759715 -9.21701e-15)
(1.06291 -0.00081471 -8.93237e-15)
(1.064 -0.000873425 -9.08394e-15)
(1.06518 -0.000936074 -9.95683e-15)
(1.06644 -0.00100288 -6.4116e-15)
(1.06779 -0.00107407 -1.22754e-14)
(1.06923 -0.00114989 -6.77553e-15)
(1.07078 -0.00123056 -1.41136e-14)
(1.07243 -0.00131634 -6.13742e-15)
(1.0742 -0.00140747 -1.20397e-14)
(1.07609 -0.00150419 -6.0715e-15)
(1.07811 -0.00160676 -1.25105e-14)
(1.08027 -0.00171541 -6.4232e-15)
(1.08257 -0.00183039 -1.095e-14)
(1.08502 -0.00195191 -6.54501e-15)
(1.08764 -0.00208019 -1.24209e-14)
(1.09043 -0.00221543 -6.446e-15)
(1.0934 -0.0023578 -1.09216e-14)
(1.09656 -0.00250745 -6.75554e-15)
(1.09992 -0.0026645 -1.09822e-14)
(1.10349 -0.00282902 -7.35143e-15)
(1.10728 -0.00300106 -9.10712e-15)
(1.11129 -0.0031806 -8.05981e-15)
(1.11555 -0.00336755 -9.71634e-15)
(1.12005 -0.00356178 -8.3811e-15)
(1.12481 -0.00376307 -9.38909e-15)
(1.12983 -0.00397111 -9.06931e-15)
(1.13513 -0.0041855 -8.92844e-15)
(1.14072 -0.00440573 -9.96526e-15)
(1.14659 -0.00463119 -8.12615e-15)
(1.15276 -0.00486113 -1.1031e-14)
(1.15923 -0.00509468 -8.40278e-15)
(1.166 -0.00533082 -1.18292e-14)
(1.17309 -0.00556839 -8.26927e-15)
(1.18048 -0.00580606 -1.1656e-14)
(1.18819 -0.00604236 -8.63866e-15)
(1.1962 -0.00627564 -1.16073e-14)
(1.20451 -0.0065041 -8.72742e-15)
(1.21311 -0.00672576 -1.09625e-14)
(1.222 -0.00693852 -8.12069e-15)
(1.23116 -0.00714008 -1.11938e-14)
(1.24057 -0.00732804 -7.8173e-15)
(1.25022 -0.00749988 -9.804e-15)
(1.26009 -0.00765295 -8.07087e-15)
(1.27014 -0.00778455 -1.01276e-14)
(1.28034 -0.00789194 -8.61791e-15)
(1.29067 -0.00797233 -9.21103e-15)
(1.30109 -0.008023 -8.74565e-15)
(1.31156 -0.00804126 -9.33705e-15)
(1.32203 -0.00802455 -8.51474e-15)
(1.33246 -0.00797047 -8.70366e-15)
(1.3428 -0.0078768 -8.38237e-15)
(1.35299 -0.00774165 -8.15119e-15)
(1.36297 -0.00756335 -8.34408e-15)
(1.37271 -0.00734066 -7.87924e-15)
(1 -3.18726e-05 -1.29561e-15)
(1.00005 -9.52558e-05 1.68008e-15)
(1.00015 -0.000157962 2.13038e-16)
(1.0003 -0.000219778 7.04854e-17)
(1.0005 -0.000280452 3.54253e-16)
(1.00075 -0.00033963 -1.08066e-16)
(1.00105 -0.000397043 1.02139e-17)
(1.00139 -0.000452583 -4.68078e-16)
(1.00177 -0.000506091 -2.20612e-16)
(1.0022 -0.000557227 -2.59948e-16)
(1.00266 -0.000605715 -5.13308e-16)
(1.00317 -0.000651599 -8.16088e-17)
(1.00371 -0.000695067 -3.77368e-16)
(1.00428 -0.000736046 -1.46259e-16)
(1.00489 -0.000774172 -3.37176e-16)
(1.00552 -0.000809242 -9.00627e-17)
(1.00619 -0.000841578 -3.23097e-16)
(1.00687 -0.000871787 -2.18315e-16)
(1.00758 -0.000900136 -9.06613e-16)
(1.00831 -0.000926281 9.78487e-17)
(1.00907 -0.000949704 -8.32607e-16)
(1.00984 -0.000970473 -1.06757e-16)
(1.01062 -0.000989524 -1.54996e-15)
(1.01142 -0.00100815 4.86411e-16)
(1.01223 -0.00102706 -1.40025e-17)
(1.01306 -0.00104589 2.30334e-16)
(1.01391 -0.00106346 -5.70849e-16)
(1.01477 -0.00107884 6.83671e-16)
(1.01564 -0.00109231 -1.26777e-15)
(1.01651 -0.0011057 -1.11292e-15)
(1.0174 -0.00112184 -1.78059e-15)
(1.01831 -0.00114341 -1.03795e-15)
(1.01923 -0.00117174 -2.1281e-15)
(1.02018 -0.00120618 -3.95911e-16)
(1.02116 -0.00124412 -2.28065e-15)
(1.02217 -0.00128167 -1.90927e-15)
(1.02321 -0.00131459 -2.17826e-15)
(1.02427 -0.00133919 -1.97137e-15)
(1.02535 -0.00135295 -2.63067e-15)
(1.02643 -0.0013547 -2.13918e-15)
(1.02752 -0.00134458 -3.4129e-15)
(1.02858 -0.00132369 -3.72651e-15)
(1.02963 -0.00129373 -3.42247e-15)
(1.03065 -0.00125662 -3.81313e-15)
(1.03164 -0.00121425 -3.71393e-15)
(1.03259 -0.00116832 -3.40544e-15)
(1.0335 -0.0011202 -3.72953e-15)
(1.03438 -0.001071 -3.87783e-15)
(1.03521 -0.00102154 -3.84162e-15)
(1.03601 -0.000972405 -3.64018e-15)
(1.03677 -0.00092403 -3.48058e-15)
(1.03749 -0.000876706 -3.5073e-15)
(1.03817 -0.000830637 -3.94262e-15)
(1.03881 -0.000785963 -4.07079e-15)
(1.03942 -0.000742779 -4.04236e-15)
(1.04 -0.000701149 -4.14907e-15)
(1.04054 -0.000661113 -3.94666e-15)
(1.04105 -0.000622697 -4.44552e-15)
(1.04153 -0.00058591 -3.77885e-15)
(1.04198 -0.00055075 -3.95468e-15)
(1.04241 -0.000517209 -3.96483e-15)
(1.04281 -0.000485266 -4.17497e-15)
(1.04318 -0.000454897 -4.02192e-15)
(1.04353 -0.000426071 -4.55951e-15)
(1.04386 -0.000398749 -4.03908e-15)
(1.04417 -0.000372893 -4.72421e-15)
(1.04446 -0.000348457 -4.48772e-15)
(1.04472 -0.000325393 -5.1445e-15)
(1.04497 -0.000303652 -4.52674e-15)
(1.04521 -0.000283184 -4.97755e-15)
(1.04542 -0.000263934 -4.09755e-15)
(1.04563 -0.000245851 -5.4325e-15)
(1.04582 -0.000228882 -3.26287e-15)
(1.04599 -0.000212972 -3.8895e-15)
(1.04615 -0.000198071 -2.29229e-15)
(1.04631 -0.000184126 -3.98153e-15)
(1.04645 -0.000171087 -2.58622e-15)
(1.04658 -0.000158905 -3.06654e-15)
(1.0467 -0.000147531 -1.68006e-15)
(1.04681 -0.000136921 -3.02019e-15)
(1.04692 -0.000127028 -1.11769e-15)
(1.04702 -0.000117811 -1.40148e-15)
(1.04711 -0.000109228 -7.17914e-16)
(1.04719 -0.00010124 -1.5928e-15)
(1.04727 -9.38108e-05 -1.04836e-15)
(1.04734 -8.69034e-05 -8.48824e-16)
(1.0474 -8.04847e-05 -1.18984e-15)
(1.04747 -7.45229e-05 -1.34213e-15)
(1.04752 -6.89874e-05 -8.03992e-16)
(1.04758 -6.38501e-05 -1.02997e-15)
(1.04762 -5.9084e-05 -1.08477e-15)
(1.04767 -5.46638e-05 -1.70207e-15)
(1.04771 -5.05658e-05 -1.37417e-15)
(1.04775 -4.67676e-05 -2.33308e-15)
(1.04779 -4.32485e-05 -1.1861e-15)
(1.04782 -3.99888e-05 -2.40541e-15)
(1.04785 -3.69701e-05 -1.3401e-15)
(1.04788 -3.41754e-05 -1.80859e-15)
(1.0479 -3.15887e-05 5.49031e-16)
(1.04793 -2.91949e-05 -1.77964e-15)
(1.04795 -2.69802e-05 1.1165e-15)
(1.04797 -2.49317e-05 -1.07286e-15)
(1.04799 -2.30371e-05 1.9106e-15)
(1.04801 -2.12852e-05 8.83694e-16)
(1.04802 -1.96657e-05 2.52004e-15)
(1.04804 -1.81688e-05 1.85594e-15)
(1.04805 -1.67854e-05 2.94265e-15)
(1.04807 -1.55072e-05 3.28081e-15)
(1.04808 -1.43264e-05 3.30121e-15)
(1.04809 -1.32357e-05 4.77817e-15)
(1.0481 -1.22284e-05 2.99896e-15)
(1.04811 -1.12984e-05 6.55163e-15)
(1.04812 -1.04401e-05 2.76149e-15)
(1.04812 -9.64782e-06 6.88988e-15)
(1.04813 -8.91668e-06 2.96238e-15)
(1.04814 -8.24228e-06 7.60377e-15)
(1.04814 -7.62032e-06 3.1231e-15)
(1.04815 -7.04689e-06 7.51589e-15)
(1.04816 -6.51838e-06 3.45447e-15)
(1.04816 -6.03147e-06 7.5157e-15)
(1.04817 -5.58309e-06 3.86689e-15)
(1.04817 -5.17038e-06 8.0155e-15)
(1.04817 -4.79073e-06 4.4605e-15)
(1.04818 -4.44176e-06 8.29738e-15)
(1.04818 -4.1212e-06 5.5534e-15)
(1.04818 -3.82704e-06 8.99863e-15)
(1.04819 -3.55741e-06 6.20899e-15)
(1.04819 -3.31058e-06 8.98325e-15)
(1.04819 -3.08483e-06 6.99596e-15)
(1.04819 -2.8788e-06 9.69632e-15)
(1.0482 -2.69131e-06 8.17923e-15)
(1.0482 -2.52089e-06 9.99996e-15)
(1.0482 -2.36651e-06 9.8039e-15)
(1.0482 -2.22726e-06 1.05944e-14)
(1.0482 -2.10214e-06 1.16234e-14)
(1.04821 -1.99037e-06 1.11172e-14)
(1.04821 -1.89116e-06 1.30209e-14)
(1.04821 -1.80384e-06 1.048e-14)
(1.04821 -1.72784e-06 1.31603e-14)
(1.04821 -1.66265e-06 1.12229e-14)
(1.04821 -1.60782e-06 1.50904e-14)
(1.04821 -1.56296e-06 1.20381e-14)
(1.04821 -1.52777e-06 1.50464e-14)
(1.04822 -1.50197e-06 1.23457e-14)
(1.04822 -1.48537e-06 1.50596e-14)
(1.04822 -1.47785e-06 1.2267e-14)
(1.04822 -1.47929e-06 1.41202e-14)
(1.04822 -1.48966e-06 1.1984e-14)
(1.04822 -1.50898e-06 1.45134e-14)
(1.04822 -1.53727e-06 1.1818e-14)
(1.04822 -1.57464e-06 1.40498e-14)
(1.04823 -1.62125e-06 1.2035e-14)
(1.04823 -1.67741e-06 1.40952e-14)
(1.04823 -1.74331e-06 1.33315e-14)
(1.04823 -1.81934e-06 1.42103e-14)
(1.04823 -1.90605e-06 1.42159e-14)
(1.04823 -2.0036e-06 1.52058e-14)
(1.04823 -2.11259e-06 1.4947e-14)
(1.04824 -2.23378e-06 1.4462e-14)
(1.04824 -2.36774e-06 1.53252e-14)
(1.04824 -2.51522e-06 1.38551e-14)
(1.04824 -2.67701e-06 1.55355e-14)
(1.04824 -2.85406e-06 1.25544e-14)
(1.04825 -3.04733e-06 1.48557e-14)
(1.04825 -3.25782e-06 1.26909e-14)
(1.04825 -3.48675e-06 1.58906e-14)
(1.04825 -3.73534e-06 1.21115e-14)
(1.04826 -4.00499e-06 1.56463e-14)
(1.04826 -4.29723e-06 1.24968e-14)
(1.04826 -4.61368e-06 1.55151e-14)
(1.04827 -4.95615e-06 1.28005e-14)
(1.04827 -5.32635e-06 1.51478e-14)
(1.04828 -5.72648e-06 1.30507e-14)
(1.04828 -6.15896e-06 1.58548e-14)
(1.04829 -6.62589e-06 1.28758e-14)
(1.04829 -7.12994e-06 1.5408e-14)
(1.0483 -7.67412e-06 1.35149e-14)
(1.0483 -8.26138e-06 1.54168e-14)
(1.04831 -8.89497e-06 1.36552e-14)
(1.04832 -9.57843e-06 1.52098e-14)
(1.04833 -1.03156e-05 1.43213e-14)
(1.04833 -1.11105e-05 1.60404e-14)
(1.04834 -1.19676e-05 1.52545e-14)
(1.04835 -1.28917e-05 1.63978e-14)
(1.04836 -1.38879e-05 1.58905e-14)
(1.04838 -1.49617e-05 1.56478e-14)
(1.04839 -1.61191e-05 1.61063e-14)
(1.0484 -1.73665e-05 1.40936e-14)
(1.04842 -1.8711e-05 1.48746e-14)
(1.04843 -2.01599e-05 1.36604e-14)
(1.04845 -2.17213e-05 1.56484e-14)
(1.04847 -2.34039e-05 1.38593e-14)
(1.04849 -2.52169e-05 1.50203e-14)
(1.04851 -2.71706e-05 1.39886e-14)
(1.04853 -2.92756e-05 1.42887e-14)
(1.04855 -3.15435e-05 1.43271e-14)
(1.04858 -3.39868e-05 1.34029e-14)
(1.04861 -3.66191e-05 1.43776e-14)
(1.04864 -3.9455e-05 1.38584e-14)
(1.04867 -4.25098e-05 1.53134e-14)
(1.04871 -4.58004e-05 1.33072e-14)
(1.04874 -4.9345e-05 1.44151e-14)
(1.04878 -5.3163e-05 1.22416e-14)
(1.04883 -5.72753e-05 1.32513e-14)
(1.04887 -6.17041e-05 1.13888e-14)
(1.04893 -6.64739e-05 1.21966e-14)
(1.04898 -7.16105e-05 1.0528e-14)
(1.04904 -7.71418e-05 1.15061e-14)
(1.0491 -8.30978e-05 1.01479e-14)
(1.04917 -8.95108e-05 1.06139e-14)
(1.04925 -9.64154e-05 9.32688e-15)
(1.04933 -0.000103849 9.56956e-15)
(1.04941 -0.000111851 8.50766e-15)
(1.0495 -0.000120465 8.69117e-15)
(1.0496 -0.000129736 8.11577e-15)
(1.04971 -0.000139715 7.84611e-15)
(1.04983 -0.000150454 7.40334e-15)
(1.04995 -0.000162009 6.69991e-15)
(1.05008 -0.000174442 6.40997e-15)
(1.05023 -0.000187819 5.50065e-15)
(1.05038 -0.000202208 5.51176e-15)
(1.05055 -0.000217685 4.11235e-15)
(1.05073 -0.00023433 4.80974e-15)
(1.05092 -0.00025223 2.96455e-15)
(1.05113 -0.000271475 4.10891e-15)
(1.05136 -0.000292164 1.9594e-15)
(1.0516 -0.000314402 3.41441e-15)
(1.05186 -0.0003383 1.50086e-15)
(1.05214 -0.000363979 2.72671e-15)
(1.05244 -0.000391566 1.04269e-15)
(1.05276 -0.000421196 2.00521e-15)
(1.05311 -0.000453014 1.0875e-15)
(1.05348 -0.000487175 1.86607e-15)
(1.05388 -0.000523843 6.73992e-16)
(1.05432 -0.00056319 9.59392e-16)
(1.05478 -0.000605403 -8.06532e-16)
(1.05528 -0.000650677 -8.15302e-16)
(1.05582 -0.00069922 -1.91264e-15)