/*--------------------------------*- C++ -*----------------------------------*\
  =========                 |
  \\      /  F ield         | OpenFOAM: The Open Source CFD Toolbox
   \\    /   O peration     | Website:  https://openfoam.org
    \\  /    A nd           | Version:  7
     \\/     M anipulation  |
\*---------------------------------------------------------------------------*/
FoamFile
{
    version     2.0;
    format      ascii;
    class       volScalarField;
    location    "29.000062";
    object      p;
}
// * * * * * * * * * * * * * * * * * * * * * * * * * * * * * * * * * * * * * //

dimensions      [0 2 -2 0 0 0 0];

internalField   nonuniform List<scalar> 
5800
(
-0.247196
-0.247185
-0.247141
-0.247017
-0.246738
-0.24661
-0.246103
-0.245534
-0.244912
-0.244233
-0.243493
-0.242692
-0.241828
-0.240897
-0.239898
-0.23883
-0.237688
-0.23647
-0.235174
-0.233796
-0.232331
-0.230777
-0.229128
-0.22738
-0.225529
-0.223569
-0.221494
-0.219298
-0.216979
-0.214529
-0.211939
-0.209201
-0.206306
-0.203246
-0.200009
-0.196587
-0.19297
-0.189146
-0.185105
-0.180836
-0.17633
-0.171577
-0.166568
-0.161295
-0.155753
-0.14994
-0.143856
-0.137503
-0.130889
-0.124027
-0.116933
-0.109632
-0.102153
-0.0945298
-0.0868071
-0.0790303
-0.0712555
-0.0635388
-0.0559438
-0.0485315
-0.0413711
-0.0345253
-0.0280535
-0.0220301
-0.0164686
-0.0115081
-0.00701122
-0.00335012
3.34902e-05
0.00211093
0.00448333
0.00452551
0.00619709
0.00330214
0.00482478
-0.246731
-0.246218
-0.24564
-0.245015
-0.244334
-0.243593
-0.24279
-0.241923
-0.240991
-0.239992
-0.238922
-0.23778
-0.236562
-0.235266
-0.233888
-0.232424
-0.23087
-0.229222
-0.227475
-0.225624
-0.223665
-0.22159
-0.219395
-0.21708
-0.214633
-0.212045
-0.209309
-0.206417
-0.203359
-0.200125
-0.196705
-0.19309
-0.189269
-0.185231
-0.180965
-0.176462
-0.171712
-0.166705
-0.161435
-0.155895
-0.150084
-0.144001
-0.137649
-0.131037
-0.124175
-0.117081
-0.10978
-0.1023
-0.0946758
-0.0869516
-0.079173
-0.0713969
-0.0636752
-0.0560785
-0.0486631
-0.0414994
-0.03465
-0.0281747
-0.0221474
-0.0165822
-0.0116174
-0.00711675
-0.00345082
-6.37894e-05
0.0020202
0.0043944
0.00444857
0.00611662
0.00325501
0.00475302
-0.246966
-0.24644
-0.245842
-0.245213
-0.244528
-0.243783
-0.242976
-0.242107
-0.241173
-0.240171
-0.2391
-0.237957
-0.236739
-0.235443
-0.234065
-0.232602
-0.23105
-0.229403
-0.227658
-0.225808
-0.22385
-0.221778
-0.219593
-0.21728
-0.214835
-0.212251
-0.209519
-0.206631
-0.203577
-0.200348
-0.196934
-0.193324
-0.189508
-0.185476
-0.181215
-0.176718
-0.171972
-0.16697
-0.161705
-0.156169
-0.150362
-0.144282
-0.137934
-0.131323
-0.124462
-0.117369
-0.110068
-0.102587
-0.0949609
-0.0872345
-0.0794516
-0.07167
-0.0639458
-0.0563431
-0.0489217
-0.0417519
-0.0348957
-0.0284137
-0.0223789
-0.0168064
-0.0118335
-0.00732538
-0.00365014
-0.000256137
0.00184063
0.00421877
0.00429678
0.00595817
0.00316317
0.00461305
-0.247305
-0.246754
-0.246124
-0.245488
-0.244797
-0.244047
-0.243236
-0.242363
-0.241426
-0.240423
-0.23935
-0.238207
-0.236989
-0.235694
-0.234317
-0.232856
-0.231305
-0.229661
-0.227918
-0.226073
-0.224118
-0.222048
-0.219868
-0.217561
-0.215122
-0.212544
-0.209819
-0.206937
-0.20389
-0.200668
-0.197261
-0.193658
-0.18985
-0.185825
-0.181573
-0.177082
-0.172344
-0.167349
-0.16209
-0.156561
-0.150759
-0.144684
-0.138339
-0.131732
-0.124874
-0.117782
-0.110481
-0.103
-0.0953674
-0.087639
-0.079853
-0.072067
-0.064336
-0.0567266
-0.0492975
-0.0421198
-0.0352545
-0.0287634
-0.0227186
-0.0171359
-0.012152
-0.00763291
-0.00394461
-0.000539986
0.00157523
0.00395995
0.00407351
0.00572589
0.0030306
0.00441148
-0.247762
-0.247141
-0.246464
-0.245817
-0.245119
-0.244362
-0.243547
-0.24267
-0.241731
-0.240726
-0.239653
-0.23851
-0.237293
-0.236
-0.234626
-0.233167
-0.23162
-0.229979
-0.22824
-0.226395
-0.224435
-0.222391
-0.220215
-0.217913
-0.215481
-0.21291
-0.210193
-0.207319
-0.20428
-0.201067
-0.197668
-0.194075
-0.190276
-0.186261
-0.182017
-0.177536
-0.172807
-0.167821
-0.16257
-0.157049
-0.151255
-0.145186
-0.138846
-0.132244
-0.125388
-0.118294
-0.110995
-0.103513
-0.0958829
-0.0881506
-0.08036
-0.0725689
-0.0648314
-0.0572151
-0.0497777
-0.0425914
-0.0357161
-0.0292147
-0.0231583
-0.0175637
-0.0125666
-0.0080337
-0.00432943
-0.000910539
0.00122829
0.00362266
0.00378356
0.00542539
0.00286243
0.00415746
-0.248413
-0.247569
-0.246832
-0.246175
-0.245466
-0.2447
-0.24388
-0.243001
-0.242061
-0.241056
-0.239985
-0.238843
-0.237629
-0.236339
-0.23497
-0.233516
-0.231973
-0.230337
-0.228601
-0.226762
-0.224838
-0.22278
-0.220608
-0.218314
-0.215891
-0.213328
-0.21062
-0.207755
-0.204727
-0.201524
-0.198137
-0.194554
-0.190766
-0.186761
-0.182528
-0.178058
-0.17334
-0.168364
-0.163126
-0.157606
-0.151819
-0.145759
-0.139426
-0.132828
-0.125977
-0.11889
-0.111592
-0.10411
-0.0964796
-0.0887456
-0.0809522
-0.0731574
-0.0654147
-0.0577926
-0.0503478
-0.0431537
-0.0362688
-0.0297572
-0.0236892
-0.0180814
-0.0130703
-0.00852126
-0.00479886
-0.00136218
0.000805148
0.00321246
0.00343282
0.00506332
0.00266414
0.00386188
-0.249438
-0.247974
-0.24719
-0.246529
-0.245806
-0.24503
-0.244206
-0.243326
-0.242387
-0.241385
-0.240317
-0.239181
-0.237972
-0.236688
-0.235325
-0.233878
-0.232344
-0.230715
-0.228987
-0.227164
-0.225232
-0.223187
-0.221027
-0.218744
-0.21633
-0.213779
-0.211081
-0.208228
-0.205212
-0.202019
-0.198635
-0.195067
-0.191291
-0.187298
-0.183078
-0.178619
-0.173911
-0.168946
-0.163715
-0.158212
-0.152435
-0.146382
-0.140057
-0.133466
-0.12662
-0.119538
-0.112244
-0.104765
-0.0971363
-0.0894032
-0.0816096
-0.0738137
-0.0660685
-0.058443
-0.0509932
-0.0437934
-0.0369008
-0.0303803
-0.0243016
-0.0186807
-0.0136556
-0.0090886
-0.00534645
-0.00188878
0.000311992
0.00273547
0.00302792
0.00464702
0.002441
0.00353642
-0.249919
-0.24856
-0.247565
-0.246837
-0.246105
-0.245322
-0.244492
-0.243613
-0.242678
-0.241682
-0.240621
-0.239492
-0.238292
-0.237017
-0.235663
-0.234225
-0.232699
-0.231074
-0.229351
-0.227552
-0.22563
-0.223596
-0.221447
-0.219174
-0.216772
-0.214231
-0.211545
-0.208703
-0.205698
-0.202519
-0.199155
-0.195596
-0.191832
-0.187851
-0.183643
-0.179196
-0.1745
-0.169547
-0.164327
-0.158835
-0.153068
-0.147025
-0.140709
-0.134127
-0.12729
-0.120216
-0.112928
-0.105455
-0.0978316
-0.090103
-0.0823129
-0.0745199
-0.0667759
-0.0591511
-0.0517
-0.0444978
-0.0376006
-0.0310734
-0.0249863
-0.019353
-0.0143145
-0.00972848
-0.0059652
-0.00248382
-0.000244323
0.00219825
0.00257586
0.00418424
0.0021976
0.00319253
-0.250116
-0.249165
-0.247894
-0.247064
-0.246326
-0.24554
-0.244706
-0.243829
-0.242901
-0.241914
-0.240864
-0.239747
-0.238559
-0.237296
-0.235955
-0.234531
-0.23302
-0.231414
-0.229729
-0.227913
-0.225998
-0.223977
-0.221841
-0.219581
-0.217192
-0.214664
-0.211991
-0.209163
-0.206171
-0.203004
-0.199653
-0.196108
-0.192357
-0.188389
-0.184194
-0.17976
-0.175077
-0.170136
-0.16493
-0.15945
-0.153695
-0.147664
-0.141359
-0.134788
-0.127962
-0.120899
-0.113621
-0.106159
-0.0985452
-0.0908258
-0.0830442
-0.0752591
-0.0675217
-0.0599024
-0.052455
-0.0452547
-0.0383573
-0.0318264
-0.0257339
-0.0200895
-0.0150389
-0.0104334
-0.00664755
-0.00314039
-0.000856407
0.00160774
0.00208374
0.00368301
0.00193779
0.00284068
-0.249668
-0.248136
-0.247177
-0.246434
-0.245649
-0.244811
-0.243937
-0.243018
-0.242045
-0.24101
-0.239908
-0.238737
-0.23749
-0.236165
-0.234755
-0.233253
-0.231649
-0.229975
-0.228191
-0.2263
-0.224297
-0.222177
-0.219933
-0.217558
-0.215046
-0.212387
-0.209574
-0.206596
-0.203444
-0.200107
-0.196576
-0.192839
-0.188886
-0.184704
-0.180284
-0.175616
-0.170689
-0.165496
-0.16003
-0.154289
-0.148273
-0.141983
-0.135426
-0.128615
-0.121567
-0.114304
-0.106857
-0.0992587
-0.0915544
-0.0837873
-0.0760164
-0.0682917
-0.0606841
-0.0532462
-0.0460531
-0.0391604
-0.0326298
-0.0265353
-0.0208818
-0.0158205
-0.0111955
-0.00738548
-0.00385115
-0.00151646
0.000971295
0.00155856
0.00315149
0.00166476
0.00248975
-0.249962
-0.248242
-0.247133
-0.246382
-0.245606
-0.244768
-0.243897
-0.24299
-0.242034
-0.241018
-0.239938
-0.238788
-0.237563
-0.23626
-0.234875
-0.233405
-0.231842
-0.230161
-0.228386
-0.226511
-0.224526
-0.222424
-0.220197
-0.21784
-0.215345
-0.212703
-0.209906
-0.206944
-0.203808
-0.200487
-0.196971
-0.19325
-0.189312
-0.185146
-0.180741
-0.176088
-0.171177
-0.166001
-0.160552
-0.154828
-0.148829
-0.142557
-0.136019
-0.129228
-0.1222
-0.114958
-0.107532
-0.0999557
-0.0922735
-0.084528
-0.0767783
-0.0690735
-0.0614843
-0.0540627
-0.0468825
-0.04
-0.0334739
-0.0273814
-0.0217212
-0.0166506
-0.0120068
-0.0081705
-0.0046083
-0.00221641
0.000296689
0.00100707
0.00259777
0.00138124
0.00214682
-0.249858
-0.248105
-0.246865
-0.246106
-0.245351
-0.24452
-0.243658
-0.242768
-0.241833
-0.240842
-0.239788
-0.238665
-0.237468
-0.236191
-0.234826
-0.233362
-0.231779
-0.230148
-0.22842
-0.226578
-0.22462
-0.222542
-0.220338
-0.218002
-0.215526
-0.212904
-0.210125
-0.207182
-0.204064
-0.200761
-0.197263
-0.193559
-0.189639
-0.185491
-0.181104
-0.176469
-0.171577
-0.166419
-0.160991
-0.155288
-0.14931
-0.143061
-0.136548
-0.129782
-0.122781
-0.115566
-0.108169
-0.100622
-0.0929696
-0.0852536
-0.0775329
-0.069856
-0.0622924
-0.0548941
-0.0477331
-0.0408666
-0.0343496
-0.0282628
-0.0225988
-0.01752
-0.0128585
-0.00899381
-0.00540356
-0.00294807
-0.000408033
0.00043572
0.00202965
0.00108972
0.00181711
-0.24755
-0.246273
-0.245525
-0.244804
-0.243997
-0.243154
-0.242289
-0.241384
-0.240425
-0.239404
-0.238316
-0.237155
-0.235915
-0.234591
-0.23318
-0.23167
-0.229996
-0.228279
-0.22647
-0.224543
-0.222493
-0.220317
-0.218006
-0.215554
-0.212955
-0.210199
-0.207277
-0.204181
-0.200899
-0.197422
-0.193739
-0.189839
-0.185712
-0.181346
-0.176733
-0.171863
-0.166729
-0.161326
-0.155649
-0.149699
-0.143478
-0.136996
-0.130262
-0.123294
-0.116115
-0.108755
-0.101245
-0.0936313
-0.0859534
-0.0782701
-0.0706291
-0.0630988
-0.0557312
-0.0485956
-0.0417511
-0.0352478
-0.0291705
-0.0235056
-0.0184197
-0.013742
-0.00984648
-0.0062284
-0.00370335
-0.00113473
-0.000149439
0.00145448
0.000792562
0.00150421
-0.245215
-0.244528
-0.243863
-0.243105
-0.242305
-0.24148
-0.240616
-0.2397
-0.238724
-0.237681
-0.236564
-0.235367
-0.234081
-0.232694
-0.231192
-0.229552
-0.22789
-0.226129
-0.224245
-0.222233
-0.220092
-0.217812
-0.21539
-0.21282
-0.210091
-0.207197
-0.204126
-0.20087
-0.197418
-0.19376
-0.189885
-0.185783
-0.181444
-0.176858
-0.172016
-0.166911
-0.161538
-0.155893
-0.149977
-0.143793
-0.137348
-0.130654
-0.123729
-0.116594
-0.109279
-0.101816
-0.0942494
-0.0866185
-0.0789812
-0.0713845
-0.0638953
-0.0565655
-0.0494618
-0.0426447
-0.0361599
-0.0300956
-0.0244329
-0.0193406
-0.0146484
-0.0107197
-0.00707423
-0.0044744
-0.00187539
-0.000742753
0.00087888
0.000492077
0.00121027
-0.243553
-0.242988
-0.242416
-0.241745
-0.24102
-0.24026
-0.239456
-0.2386
-0.237682
-0.236697
-0.235638
-0.234498
-0.233271
-0.23195
-0.230525
-0.228965
-0.227207
-0.225501
-0.223685
-0.221727
-0.219629
-0.217388
-0.215002
-0.212466
-0.209772
-0.206909
-0.203871
-0.200646
-0.197226
-0.193599
-0.189755
-0.185685
-0.181378
-0.176825
-0.172017
-0.166948
-0.161613
-0.156008
-0.150134
-0.143993
-0.137595
-0.13095
-0.124077
-0.116994
-0.109735
-0.102328
-0.0948174
-0.0872426
-0.0796599
-0.0721157
-0.064675
-0.0573899
-0.0503241
-0.0435395
-0.0370778
-0.0310293
-0.0253719
-0.0202737
-0.0155688
-0.0116048
-0.00793246
-0.00525372
-0.00262231
-0.00133897
0.000308701
0.000190553
0.000936357
-0.240795
-0.240361
-0.239826
-0.239216
-0.238551
-0.237835
-0.23706
-0.236221
-0.235311
-0.234325
-0.233256
-0.232096
-0.230837
-0.22947
-0.227982
-0.226361
-0.224546
-0.22278
-0.220905
-0.218877
-0.216691
-0.214353
-0.211863
-0.209211
-0.206391
-0.203392
-0.200207
-0.196825
-0.193237
-0.189432
-0.185401
-0.181133
-0.176621
-0.171856
-0.166831
-0.161542
-0.155985
-0.150162
-0.144075
-0.137732
-0.131146
-0.124333
-0.117313
-0.110118
-0.102776
-0.0953307
-0.0878207
-0.0803007
-0.0728166
-0.0654313
-0.0581972
-0.0511749
-0.0444273
-0.0379929
-0.0319628
-0.0263137
-0.02121
-0.0164943
-0.0124934
-0.00879478
-0.00603426
-0.00336831
-0.00193333
-0.000251138
-0.000109808
0.000682711
-0.237888
-0.237641
-0.237286
-0.236828
-0.236293
-0.235695
-0.235029
-0.234291
-0.233478
-0.232585
-0.231606
-0.230534
-0.229363
-0.228084
-0.226685
-0.225146
-0.223455
-0.221631
-0.219801
-0.217848
-0.215724
-0.21344
-0.211
-0.208398
-0.205626
-0.202676
-0.199538
-0.196203
-0.192662
-0.188904
-0.18492
-0.180701
-0.176239
-0.171525
-0.166553
-0.161319
-0.15582
-0.150057
-0.144032
-0.137756
-0.131237
-0.124494
-0.117546
-0.110424
-0.103156
-0.095785
-0.088348
-0.0808984
-0.0734815
-0.0661583
-0.0589809
-0.0520074
-0.0453011
-0.038898
-0.0328888
-0.027251
-0.0221425
-0.0174179
-0.0133791
-0.00965467
-0.00681065
-0.00410785
-0.00252215
-0.000797138
-0.000407178
0.000448901
-0.234286
-0.234144
-0.233864
-0.233487
-0.233029
-0.23249
-0.23187
-0.231167
-0.230379
-0.229499
-0.228523
-0.227443
-0.22625
-0.224934
-0.223479
-0.221864
-0.220071
-0.218279
-0.216421
-0.214392
-0.212193
-0.209831
-0.207299
-0.204592
-0.201705
-0.198628
-0.195353
-0.19187
-0.188171
-0.184245
-0.180086
-0.175683
-0.171031
-0.166122
-0.160954
-0.155522
-0.14983
-0.143878
-0.137677
-0.131236
-0.124573
-0.117707
-0.110667
-0.103482
-0.0961932
-0.0888366
-0.0814645
-0.0741213
-0.0668657
-0.0597497
-0.0528292
-0.046167
-0.0397981
-0.0338109
-0.028186
-0.0230721
-0.0183393
-0.0142607
-0.0105099
-0.00758073
-0.00483809
-0.00310342
-0.00132757
-0.000700486
0.00023388
-0.230484
-0.230433
-0.230265
-0.229993
-0.229618
-0.229147
-0.228582
-0.227923
-0.227166
-0.226309
-0.225345
-0.224269
-0.223073
-0.221749
-0.220278
-0.218622
-0.216674
-0.214882
-0.212927
-0.210797
-0.2085
-0.20603
-0.203386
-0.200562
-0.197549
-0.194338
-0.190921
-0.187287
-0.183429
-0.179337
-0.175004
-0.170423
-0.165588
-0.160495
-0.155142
-0.149529
-0.14366
-0.137544
-0.131189
-0.124614
-0.117837
-0.110887
-0.10379
-0.0965876
-0.0893151
-0.0820234
-0.0747557
-0.0675693
-0.0605151
-0.0536476
-0.0470287
-0.0406933
-0.0347262
-0.0291135
-0.023992
-0.0192504
-0.0151302
-0.0113521
-0.00833749
-0.00555247
-0.00367289
-0.0018393
-0.000988475
3.66041e-05
-0.225691
-0.225814
-0.225836
-0.225753
-0.225564
-0.225271
-0.224876
-0.224377
-0.223775
-0.223065
-0.222243
-0.221305
-0.220241
-0.219043
-0.217703
-0.216217
-0.214572
-0.212577
-0.210722
-0.208753
-0.206596
-0.204247
-0.201711
-0.198986
-0.196068
-0.192948
-0.189617
-0.186069
-0.182294
-0.178286
-0.174036
-0.169538
-0.164787
-0.159779
-0.154512
-0.148987
-0.143208
-0.137182
-0.13092
-0.124439
-0.117756
-0.1109
-0.103897
-0.0967876
-0.0896055
-0.0824009
-0.0752159
-0.0681068
-0.0611232
-0.054319
-0.0477534
-0.0414631
-0.0355273
-0.029939
-0.0248215
-0.0200827
-0.0159327
-0.0121364
-0.00904875
-0.00622526
-0.0042156
-0.00232091
-0.00126701
-0.00014263
-0.222533
-0.222667
-0.222695
-0.222616
-0.222429
-0.222135
-0.221734
-0.221226
-0.220608
-0.219876
-0.219026
-0.218054
-0.216955
-0.215725
-0.214361
-0.212844
-0.211136
-0.209086
-0.207058
-0.20492
-0.202604
-0.200107
-0.197425
-0.194552
-0.191477
-0.188194
-0.184695
-0.180971
-0.177014
-0.172818
-0.168376
-0.163684
-0.158737
-0.153535
-0.14808
-0.142373
-0.136424
-0.130243
-0.123847
-0.117253
-0.110489
-0.103581
-0.096568
-0.0894832
-0.0823762
-0.0752867
-0.0682709
-0.0613752
-0.0546539
-0.0481622
-0.0419387
-0.0360565
-0.0305141
-0.0254234
-0.0207067
-0.0165505
-0.0127511
-0.00961674
-0.00676492
-0.00465841
-0.00270877
-0.00149712
-0.000283703
-0.218623
-0.218854
-0.218982
-0.219003
-0.218912
-0.218712
-0.2184
-0.217976
-0.217438
-0.216781
-0.216001
-0.215092
-0.214047
-0.212855
-0.211501
-0.209956
-0.208203
-0.206458
-0.204571
-0.202518
-0.200283
-0.197862
-0.195253
-0.192449
-0.189442
-0.186227
-0.182794
-0.179137
-0.175248
-0.171122
-0.166752
-0.162134
-0.157265
-0.152144
-0.146773
-0.141156
-0.1353
-0.129216
-0.122921
-0.116431
-0.109776
-0.102978
-0.096077
-0.0891047
-0.0821091
-0.075129
-0.0682189
-0.0614234
-0.0547962
-0.0483893
-0.0422426
-0.0364233
-0.0309361
-0.0258809
-0.0211953
-0.0170415
-0.0132487
-0.010078
-0.00720856
-0.00502022
-0.00302826
-0.00168294
-0.000397946
-0.214354
-0.214681
-0.214907
-0.215027
-0.215036
-0.214931
-0.214713
-0.21438
-0.213929
-0.213357
-0.212658
-0.211827
-0.210858
-0.20974
-0.208463
-0.207018
-0.20543
-0.203732
-0.201889
-0.199886
-0.19771
-0.195353
-0.192809
-0.19007
-0.187131
-0.183982
-0.180618
-0.177031
-0.173214
-0.169162
-0.16487
-0.160333
-0.155548
-0.150516
-0.145238
-0.139717
-0.133964
-0.127986
-0.121802
-0.115428
-0.10889
-0.102214
-0.0954354
-0.0885861
-0.0817128
-0.0748528
-0.068059
-0.0613741
-0.0548511
-0.0485387
-0.0424783
-0.0367308
-0.0313074
-0.0262951
-0.021648
-0.0175026
-0.0137224
-0.0105196
-0.00763691
-0.00536978
-0.00333793
-0.00186184
-0.000507389
-0.209993
-0.21041
-0.21073
-0.210945
-0.211048
-0.211037
-0.21091
-0.210666
-0.210302
-0.209814
-0.209199
-0.208449
-0.20756
-0.206524
-0.205335
-0.203992
-0.2025
-0.200862
-0.199077
-0.197137
-0.195027
-0.192738
-0.190261
-0.187591
-0.184721
-0.181643
-0.178351
-0.174838
-0.171097
-0.167124
-0.162913
-0.158461
-0.153765
-0.148825
-0.143645
-0.138226
-0.132579
-0.126712
-0.120642
-0.114387
-0.107971
-0.101419
-0.0947656
-0.0880421
-0.0812934
-0.0745554
-0.0678798
-0.0613072
-0.0548898
-0.0486732
-0.0427002
-0.0370255
-0.0316668
-0.0266982
-0.0220904
-0.017954
-0.0141866
-0.0109527
-0.00805607
-0.00571215
-0.00363909
-0.00203606
-0.000611646
-0.205562
-0.206064
-0.206471
-0.206775
-0.206967
-0.207044
-0.207003
-0.206844
-0.206564
-0.206159
-0.205624
-0.204954
-0.204145
-0.20319
-0.202084
-0.200826
-0.199411
-0.197847
-0.196137
-0.194268
-0.19223
-0.190012
-0.187608
-0.18501
-0.182214
-0.179211
-0.175995
-0.17256
-0.1689
-0.16501
-0.160885
-0.156523
-0.15192
-0.147078
-0.141999
-0.136686
-0.131149
-0.125397
-0.119446
-0.113313
-0.107022
-0.100597
-0.0940717
-0.0874762
-0.0808543
-0.0742402
-0.0676844
-0.0612253
-0.0549149
-0.0487949
-0.0429103
-0.0373088
-0.0320154
-0.027091
-0.0225226
-0.0183959
-0.0146408
-0.011377
-0.0084655
-0.00604697
-0.00393123
-0.00220564
-0.000710259
-0.20107
-0.201653
-0.202142
-0.202528
-0.202803
-0.202962
-0.203004
-0.202926
-0.202726
-0.2024
-0.201943
-0.201352
-0.200621
-0.199745
-0.198719
-0.19754
-0.196206
-0.194721
-0.193087
-0.191291
-0.189326
-0.187182
-0.184852
-0.18233
-0.17961
-0.176685
-0.173549
-0.170196
-0.166621
-0.162818
-0.158783
-0.154514
-0.15001
-0.145269
-0.140295
-0.135093
-0.12967
-0.124036
-0.118207
-0.112199
-0.106037
-0.0997412
-0.093347
-0.086882
-0.080389
-0.0739008
-0.0674667
-0.0611226
-0.0549206
-0.0488984
-0.0431033
-0.0375763
-0.0323491
-0.0274697
-0.0229414
-0.0188254
-0.0150828
-0.0117905
-0.00886361
-0.0063731
-0.00421361
-0.00237031
-0.000802977
-0.19654
-0.1972
-0.197765
-0.19823
-0.198583
-0.19882
-0.198939
-0.198939
-0.198815
-0.198565
-0.198185
-0.197669
-0.197014
-0.196215
-0.195267
-0.194168
-0.192914
-0.191508
-0.189948
-0.188227
-0.186335
-0.184266
-0.182012
-0.179568
-0.176926
-0.174082
-0.171028
-0.16776
-0.164271
-0.160559
-0.156618
-0.152445
-0.148041
-0.143406
-0.138541
-0.133451
-0.128146
-0.122633
-0.11693
-0.11105
-0.105017
-0.0988542
-0.0925929
-0.0862603
-0.079898
-0.0735372
-0.0672261
-0.0609984
-0.0549059
-0.0489826
-0.0432781
-0.0378263
-0.0326662
-0.0278329
-0.0233451
-0.019241
-0.0155111
-0.0121921
-0.00924939
-0.00668988
-0.00448573
-0.00252993
-0.000889726
-0.19199
-0.192725
-0.193363
-0.193901
-0.194329
-0.19464
-0.194833
-0.194906
-0.194856
-0.19468
-0.194372
-0.193931
-0.19335
-0.192626
-0.191754
-0.190732
-0.189556
-0.188227
-0.186741
-0.185094
-0.183277
-0.181283
-0.179106
-0.17674
-0.174179
-0.171416
-0.168447
-0.165265
-0.161866
-0.158245
-0.1544
-0.150327
-0.146026
-0.141498
-0.136744
-0.131771
-0.126585
-0.121196
-0.115619
-0.109869
-0.103969
-0.0979397
-0.0918127
-0.0856138
-0.0793834
-0.0731509
-0.0669638
-0.0608532
-0.0548711
-0.0490474
-0.0434342
-0.0380584
-0.0329659
-0.0281796
-0.0237329
-0.0196419
-0.0159248
-0.0125811
-0.00962213
-0.00699684
-0.00474726
-0.00268443
-0.000970548
-0.187433
-0.18824
-0.188949
-0.189558
-0.190056
-0.190439
-0.190702
-0.190846
-0.190867
-0.190761
-0.190524
-0.190154
-0.189645
-0.188993
-0.188196
-0.187249
-0.186149
-0.184895
-0.183484
-0.181911
-0.180168
-0.17825
-0.17615
-0.173863
-0.171382
-0.168703
-0.165818
-0.162724
-0.159416
-0.155889
-0.152141
-0.14817
-0.143974
-0.139554
-0.134914
-0.130057
-0.124993
-0.119729
-0.11428
-0.108662
-0.102895
-0.0970008
-0.091009
-0.0849445
-0.0788467
-0.0727431
-0.0666806
-0.0606876
-0.0548163
-0.0490927
-0.0435711
-0.038272
-0.0332477
-0.0285092
-0.0241038
-0.0200273
-0.0163231
-0.0129566
-0.00998119
-0.00729352
-0.00499793
-0.00283371
-0.00104557
-0.18288
-0.183757
-0.184533
-0.18521
-0.185776
-0.186226
-0.186558
-0.18677
-0.186859
-0.186821
-0.186653
-0.186352
-0.185913
-0.185333
-0.184607
-0.183733
-0.182707
-0.181527
-0.180189
-0.178689
-0.177021
-0.175179
-0.173157
-0.170948
-0.168549
-0.165952
-0.163154
-0.160148
-0.156932
-0.1535
-0.149851
-0.145981
-0.141891
-0.137582
-0.133056
-0.128318
-0.123375
-0.118237
-0.112918
-0.107432
-0.101799
-0.0960401
-0.090184
-0.0842542
-0.0782892
-0.0723147
-0.0663769
-0.0605017
-0.0547414
-0.0491182
-0.0436886
-0.0384666
-0.0335106
-0.0288208
-0.0244571
-0.0203964
-0.0167051
-0.0133182
-0.010326
-0.00757953
-0.00523754
-0.00297766
-0.001115
-0.178339
-0.179282
-0.180124
-0.180865
-0.181497
-0.182013
-0.18241
-0.182687
-0.182842
-0.182871
-0.18277
-0.182536
-0.182165
-0.181653
-0.180998
-0.180195
-0.179241
-0.178133
-0.176868
-0.175442
-0.173848
-0.172081
-0.170136
-0.168006
-0.165688
-0.163175
-0.160463
-0.157547
-0.154422
-0.151086
-0.147536
-0.143769
-0.139786
-0.135587
-0.131176
-0.126557
-0.121737
-0.116726
-0.111536
-0.106182
-0.100684
-0.09506
-0.0893395
-0.0835444
-0.0777121
-0.0718666
-0.0660534
-0.0602958
-0.0546465
-0.0491237
-0.0437861
-0.0386416
-0.0337542
-0.0291139
-0.024792
-0.0207485
-0.0170703
-0.0136651
-0.0106562
-0.00785453
-0.00546598
-0.00311617
-0.00117909
-0.173816
-0.174824
-0.175727
-0.17653
-0.177225
-0.177804
-0.178265
-0.178605
-0.178824
-0.178917
-0.178881
-0.178712
-0.178408
-0.177964
-0.177377
-0.176643
-0.17576
-0.174724
-0.17353
-0.172176
-0.170656
-0.168964
-0.167096
-0.165045
-0.162808
-0.160379
-0.157753
-0.154926
-0.151894
-0.148653
-0.145202
-0.141539
-0.137663
-0.133576
-0.12928
-0.12478
-0.120083
-0.115198
-0.110138
-0.104915
-0.0995512
-0.0940625
-0.0884773
-0.0828164
-0.0771163
-0.0713994
-0.0657104
-0.0600702
-0.0545315
-0.0491091
-0.0438635
-0.0387967
-0.033978
-0.0293878
-0.0251079
-0.0210831
-0.017418
-0.013997
-0.0109714
-0.00811822
-0.0056832
-0.00324914
-0.00123814
-0.169319
-0.170387
-0.17135
-0.172213
-0.172967
-0.173606
-0.174128
-0.17453
-0.17481
-0.174965
-0.174992
-0.174888
-0.174648
-0.17427
-0.17375
-0.173085
-0.172271
-0.171304
-0.170182
-0.168899
-0.167452
-0.165835
-0.164043
-0.162072
-0.159915
-0.157569
-0.15503
-0.152292
-0.149352
-0.146208
-0.142856
-0.139296
-0.135527
-0.131551
-0.12737
-0.122989
-0.118415
-0.113656
-0.108725
-0.103634
-0.0984035
-0.0930492
-0.0875987
-0.0820714
-0.0765029
-0.0709138
-0.0653484
-0.059825
-0.0543966
-0.0490743
-0.0439203
-0.0389315
-0.0341814
-0.0296422
-0.0254044
-0.0213996
-0.017748
-0.0143134
-0.0112713
-0.00837034
-0.00588924
-0.00337646
-0.00129247
-0.164854
-0.165979
-0.166998
-0.167917
-0.168728
-0.169425
-0.170005
-0.170466
-0.170806
-0.171021
-0.17111
-0.171067
-0.170891
-0.170577
-0.170123
-0.169524
-0.168778
-0.167881
-0.166828
-0.165617
-0.164242
-0.1627
-0.160984
-0.15909
-0.157015
-0.154752
-0.152298
-0.149649
-0.146802
-0.143753
-0.140501
-0.137044
-0.133382
-0.129517
-0.125451
-0.121188
-0.116736
-0.112102
-0.1073
-0.10234
-0.0972423
-0.0920216
-0.0867049
-0.0813102
-0.0758723
-0.0704104
-0.0649677
-0.0595605
-0.0542417
-0.0490192
-0.0439565
-0.0390458
-0.0343642
-0.0298766
-0.0256811
-0.0216978
-0.0180597
-0.014614
-0.0115558
-0.00861069
-0.00608413
-0.00349804
-0.0013424
-0.160427
-0.161606
-0.162677
-0.163649
-0.164514
-0.165266
-0.165901
-0.166419
-0.166816
-0.16709
-0.167237
-0.167256
-0.167141
-0.16689
-0.1665
-0.165966
-0.165287
-0.164457
-0.163474
-0.162333
-0.16103
-0.159561
-0.157921
-0.156105
-0.15411
-0.15193
-0.149562
-0.147002
-0.144247
-0.141293
-0.13814
-0.134786
-0.131231
-0.127475
-0.123524
-0.119379
-0.115048
-0.11054
-0.105865
-0.101035
-0.0960689
-0.0909808
-0.0857967
-0.0805336
-0.0752253
-0.0698894
-0.0645686
-0.0592768
-0.0540668
-0.0489437
-0.0439719
-0.0391393
-0.0345261
-0.0300908
-0.0259376
-0.0219771
-0.018353
-0.0148985
-0.0118247
-0.0088391
-0.006268
-0.00361381
-0.00138825
-0.156045
-0.157272
-0.158393
-0.159413
-0.160329
-0.161133
-0.161821
-0.162393
-0.162845
-0.163175
-0.16338
-0.163456
-0.163401
-0.163212
-0.162884
-0.162414
-0.1618
-0.161037
-0.160122
-0.15905
-0.157819
-0.156423
-0.154858
-0.15312
-0.151204
-0.149107
-0.146824
-0.144352
-0.141689
-0.13883
-0.135776
-0.132524
-0.129075
-0.125429
-0.121591
-0.117564
-0.113354
-0.108969
-0.104421
-0.0997199
-0.0948843
-0.0899276
-0.0848749
-0.0797422
-0.0745624
-0.0693514
-0.0641513
-0.0589741
-0.0538721
-0.0488479
-0.0439664
-0.0392118
-0.0346668
-0.0302844
-0.0261737
-0.0222374
-0.0186277
-0.0151667
-0.012078
-0.00905543
-0.00644098
-0.00372369
-0.00143031
-0.151712
-0.152984
-0.154149
-0.155216
-0.156179
-0.157031
-0.15777
-0.158392
-0.158897
-0.159281
-0.159541
-0.159674
-0.159677
-0.159546
-0.159279
-0.158872
-0.158322
-0.157624
-0.156776
-0.155773
-0.154612
-0.153288
-0.151798
-0.150136
-0.1483
-0.146285
-0.144087
-0.141703
-0.139131
-0.136367
-0.13341
-0.13026
-0.126916
-0.12338
-0.119655
-0.115744
-0.111654
-0.107392
-0.102969
-0.0983958
-0.0936894
-0.0888628
-0.0839403
-0.0789366
-0.0738839
-0.0687967
-0.0637161
-0.0586525
-0.0536576
-0.0487316
-0.0439399
-0.0392634
-0.0347863
-0.0304573
-0.0263892
-0.0224785
-0.0188836
-0.0154184
-0.0123157
-0.00925957
-0.00660321
-0.00382765
-0.00146886
-0.147435
-0.148747
-0.149953
-0.151061
-0.152068
-0.152965
-0.15375
-0.154421
-0.154976
-0.155411
-0.155724
-0.155911
-0.15597
-0.155897
-0.155689
-0.155343
-0.154855
-0.154221
-0.153439
-0.152504
-0.151412
-0.15016
-0.148743
-0.147158
-0.1454
-0.143466
-0.141353
-0.139056
-0.136575
-0.133905
-0.131046
-0.127996
-0.124757
-0.121329
-0.117716
-0.11392
-0.109949
-0.105809
-0.10151
-0.0970634
-0.092485
-0.0877871
-0.0829932
-0.0781172
-0.0731902
-0.0682255
-0.0632632
-0.0583121
-0.0534234
-0.048595
-0.0438923
-0.0392937
-0.0348844
-0.0306094
-0.026584
-0.0227001
-0.0191206
-0.0156534
-0.0125377
-0.00945146
-0.00675486
-0.00392565
-0.00150414
-0.143217
-0.144564
-0.145807
-0.146953
-0.147999
-0.148939
-0.149768
-0.150484
-0.151085
-0.151569
-0.151932
-0.152172
-0.152285
-0.152267
-0.152117
-0.151829
-0.151402
-0.150831
-0.150113
-0.149245
-0.148222
-0.14704
-0.145696
-0.144186
-0.142507
-0.140653
-0.138624
-0.136414
-0.134022
-0.131445
-0.128683
-0.125734
-0.122599
-0.119278
-0.115776
-0.112094
-0.108241
-0.104221
-0.100045
-0.0957236
-0.0912716
-0.086701
-0.0820343
-0.0772844
-0.0724817
-0.0676381
-0.0627928
-0.0579532
-0.0531695
-0.0484381
-0.0438238
-0.039303
-0.034961
-0.0307405
-0.0267581
-0.0229023
-0.0193388
-0.0158718
-0.0127442
-0.00963107
-0.00689612
-0.00401768
-0.00153639
-0.139063
-0.140441
-0.141716
-0.142896
-0.143979
-0.144956
-0.145826
-0.146584
-0.147229
-0.147759
-0.14817
-0.14846
-0.148624
-0.14866
-0.148565
-0.148335
-0.147967
-0.147457
-0.146803
-0.145999
-0.145043
-0.143931
-0.142659
-0.141224
-0.139621
-0.137848
-0.135901
-0.133777
-0.131475
-0.128991
-0.126324
-0.123474
-0.120442
-0.117228
-0.113835
-0.110267
-0.10653
-0.102629
-0.0985751
-0.0943769
-0.09005
-0.085605
-0.0810639
-0.0764387
-0.0717587
-0.0670348
-0.0623052
-0.0575759
-0.0528962
-0.0482609
-0.0437344
-0.039291
-0.0350162
-0.0308506
-0.0269113
-0.0230848
-0.0195381
-0.0160734
-0.0129353
-0.00979837
-0.00702718
-0.00410373
-0.00156579
-0.134976
-0.136381
-0.137684
-0.138894
-0.140009
-0.141021
-0.141927
-0.142725
-0.143412
-0.143985
-0.144441
-0.144777
-0.144991
-0.145079
-0.145037
-0.144862
-0.144552
-0.144102
-0.143509
-0.142769
-0.141879
-0.140836
-0.139635
-0.138273
-0.136747
-0.135052
-0.133187
-0.131149
-0.128934
-0.126542
-0.12397
-0.121219
-0.118288
-0.11518
-0.111896
-0.108439
-0.104817
-0.101034
-0.0971003
-0.0930241
-0.0888205
-0.0844997
-0.0800826
-0.0755804
-0.0710216
-0.0664159
-0.0618006
-0.0571803
-0.0526035
-0.0480636
-0.0436241
-0.0392579
-0.0350501
-0.0309397
-0.0270438
-0.0232478
-0.0197186
-0.0162582
-0.0131111
-0.00995339
-0.00714822
-0.00418384
-0.00159251
-0.130961
-0.132387
-0.133714
-0.13495
-0.136093
-0.137137
-0.138076
-0.13891
-0.139635
-0.140248
-0.140747
-0.141129
-0.141389
-0.141526
-0.141535
-0.141414
-0.14116
-0.140767
-0.140235
-0.139557
-0.138732
-0.137756
-0.136625
-0.135335
-0.133884
-0.132268
-0.130484
-0.128529
-0.126402
-0.1241
-0.121622
-0.118968
-0.116139
-0.113134
-0.109958
-0.106612
-0.103103
-0.0994364
-0.0956214
-0.0916658
-0.0875839
-0.0833855
-0.0790907
-0.07471
-0.0702707
-0.0657818
-0.0612792
-0.0567668
-0.0522917
-0.0478464
-0.0434931
-0.0392039
-0.0350627
-0.0310078
-0.0271557
-0.0233911
-0.0198803
-0.0164263
-0.0132716
-0.0100962
-0.00725943
-0.00425804
-0.0016167
-0.12702
-0.128464
-0.12981
-0.131068
-0.132236
-0.133307
-0.134276
-0.135143
-0.135903
-0.136553
-0.137092
-0.137516
-0.137821
-0.138005
-0.138063
-0.137994
-0.137793
-0.137457
-0.136982
-0.136366
-0.135604
-0.134694
-0.133631
-0.132413
-0.131035
-0.129496
-0.127792
-0.12592
-0.123879
-0.121667
-0.119282
-0.116724
-0.113994
-0.111093
-0.108022
-0.104786
-0.101389
-0.0978373
-0.0941393
-0.0903025
-0.0863408
-0.082263
-0.0780889
-0.0738279
-0.0695064
-0.0651327
-0.0607415
-0.0563357
-0.0519611
-0.0476094
-0.0433415
-0.0391289
-0.0350541
-0.0310552
-0.0272469
-0.023515
-0.0200235
-0.0165777
-0.0134172
-0.0102268
-0.00736101
-0.00432638
-0.00163848
-0.123157
-0.124613
-0.125975
-0.127251
-0.128439
-0.129534
-0.130531
-0.131426
-0.132218
-0.132903
-0.133479
-0.133943
-0.13429
-0.134518
-0.134623
-0.134603
-0.134454
-0.134172
-0.133755
-0.133198
-0.132498
-0.131652
-0.130656
-0.129507
-0.128203
-0.126739
-0.125114
-0.123324
-0.121368
-0.119244