/*--------------------------------*- C++ -*----------------------------------*\
  =========                 |
  \\      /  F ield         | OpenFOAM: The Open Source CFD Toolbox
   \\    /   O peration     | Website:  https://openfoam.org
    \\  /    A nd           | Version:  7
     \\/     M anipulation  |
\*---------------------------------------------------------------------------*/
FoamFile
{
    version     2.0;
    format      ascii;
    class       volVectorField;
    location    "29.000062";
    object      U;
}
// * * * * * * * * * * * * * * * * * * * * * * * * * * * * * * * * * * * * * //

dimensions      [0 1 -1 0 0 0 0];

internalField   nonuniform List<vector> 
5800
(
(-0.17585 0.0015281 -5.00733e-22)
(-0.16887 0.00446314 -1.52687e-20)
(-0.154868 0.00703911 2.28239e-20)
(-0.133718 0.00904875 7.5081e-21)
(-0.105131 0.0103646 -1.91541e-20)
(-0.17975 0.00182603 2.96874e-21)
(-0.182893 0.00182691 2.83754e-21)
(-0.186008 0.0017526 -5.27973e-21)
(-0.189019 0.00166006 2.5414e-21)
(-0.191923 0.00156192 -1.49701e-21)
(-0.194708 0.00146334 -5.3449e-22)
(-0.197368 0.00136699 3.03272e-21)
(-0.199903 0.00127388 -4.44566e-21)
(-0.202313 0.00118424 1.94416e-21)
(-0.204598 0.00109795 1.85148e-21)
(-0.206758 0.00101472 -3.8742e-21)
(-0.208792 0.00093416 -1.11157e-22)
(-0.210699 0.000855809 3.21004e-21)
(-0.212477 0.000779201 -2.47958e-22)
(-0.214123 0.000703882 -1.38389e-21)
(-0.215632 0.000629445 1.2206e-21)
(-0.217 0.000555565 -5.95489e-22)
(-0.218219 0.000482017 8.14278e-22)
(-0.219283 0.000408645 -6.05778e-22)
(-0.220186 0.000335234 -4.19217e-22)
(-0.220918 0.000261498 1.82544e-21)
(-0.22147 0.000187527 -5.28123e-22)
(-0.22183 0.000113586 -1.24177e-21)
(-0.221994 3.64346e-05 8.29023e-22)
(-0.221953 -4.45327e-05 2.80597e-22)
(-0.221687 -0.000128989 -1.05204e-21)
(-0.221175 -0.000217012 1.23495e-21)
(-0.220395 -0.000308926 -1.02226e-21)
(-0.219326 -0.000405155 -7.38073e-22)
(-0.21794 -0.000506154 2.12013e-21)
(-0.216211 -0.000612275 -1.49136e-21)
(-0.214106 -0.000723947 -2.72178e-22)
(-0.211592 -0.000841724 3.05599e-22)
(-0.208633 -0.000965952 5.27973e-24)
(-0.205187 -0.00109694 8.33117e-22)
(-0.201212 -0.0012349 -1.11352e-21)
(-0.196661 -0.00137997 9.36788e-22)
(-0.191486 -0.00153214 -1.08072e-23)
(-0.185635 -0.00169118 -6.08363e-23)
(-0.179055 -0.00185686 -1.09884e-22)
(-0.171694 -0.00202783 6.74149e-22)
(-0.163498 -0.00220419 -1.87787e-23)
(-0.154412 -0.00238506 -2.78778e-22)
(-0.144384 -0.00256933 -1.2939e-22)
(-0.133361 -0.0027558 7.31304e-23)
(-0.121295 -0.00294269 -3.82461e-22)
(-0.108147 -0.00312784 4.79517e-22)
(-0.0938836 -0.00331017 -1.23103e-22)
(-0.0784679 -0.00348839 2.55684e-22)
(-0.0618862 -0.0036579 -8.36691e-23)
(-0.0441307 -0.00381923 7.45144e-24)
(-0.0252047 -0.00396856 3.0665e-23)
(-0.0051154 -0.00410745 -1.3848e-22)
(0.016107 -0.00422788 1.50528e-22)
(0.0384202 -0.00433421 -1.26035e-22)
(0.0617772 -0.00442113 1.09797e-23)
(0.0861001 -0.00449228 6.87584e-23)
(0.111369 -0.00454001 -3.30917e-24)
(0.137355 -0.00457576 -2.21928e-23)
(0.164315 -0.0045808 -1.01065e-23)
(0.191417 -0.0045884 -3.95103e-24)
(0.220053 -0.00454559 7.85056e-24)
(0.24732 -0.00454327 -4.19599e-24)
(0.278209 -0.00444329 -1.1581e-24)
(0.303897 -0.00446225 -2.17644e-24)
(0.338847 -0.00429406 7.53299e-24)
(0.359836 -0.00437329 -3.71332e-24)
(0.402735 -0.00414968 4.07239e-24)
(0.414017 -0.0043012 -1.47366e-24)
(0.471766 -0.00419988 -1.0115e-24)
(-0.172148 0.00538405 -1.10966e-21)
(-0.175208 0.00539482 -1.98075e-21)
(-0.178202 0.00517898 -1.89141e-21)
(-0.181081 0.00490689 2.72987e-22)
(-0.18386 0.00461587 -1.36751e-21)
(-0.186524 0.00432222 1.10527e-20)
(-0.189065 0.00403456 -8.05616e-21)
(-0.191484 0.00375614 6.02333e-21)
(-0.193778 0.00348779 -4.57084e-21)
(-0.195948 0.00322922 -3.09849e-21)
(-0.197992 0.00297958 3.19422e-21)
(-0.199912 0.00273772 3.2177e-21)
(-0.201703 0.0025023 -7.12702e-21)
(-0.203364 0.00227194 1.64026e-21)
(-0.204892 0.00204529 -3.01287e-21)
(-0.206281 0.00182115 3.10866e-21)
(-0.207525 0.00159856 -7.72182e-22)
(-0.208618 0.00137687 5.93238e-21)
(-0.209554 0.00115566 -2.44362e-21)
(-0.210324 0.000934395 8.86482e-22)
(-0.21092 0.00071283 1.41581e-21)
(-0.211331 0.000492538 -4.28056e-21)
(-0.211547 0.000273036 5.34564e-22)
(-0.211566 3.6817e-05 -6.93796e-22)
(-0.211374 -0.000208445 -1.34738e-23)
(-0.21095 -0.000462475 5.19723e-22)
(-0.210276 -0.000726365 2.18281e-21)
(-0.209329 -0.00100143 -7.42258e-22)
(-0.208086 -0.00128904 -1.69758e-21)
(-0.206523 -0.00159056 3.22208e-21)
(-0.20461 -0.00190701 -5.43978e-21)
(-0.202317 -0.0022396 1.34284e-21)
(-0.199611 -0.00259009 4.69873e-21)
(-0.196456 -0.00295949 -3.14291e-21)
(-0.19281 -0.00334875 -1.28507e-21)
(-0.188633 -0.00375854 1.95054e-21)
(-0.183878 -0.0041893 -3.30329e-21)
(-0.178498 -0.00464109 4.72531e-21)
(-0.172443 -0.00511332 -2.00166e-21)
(-0.165659 -0.00560554 -5.85562e-22)
(-0.158097 -0.00611346 4.39558e-22)
(-0.149704 -0.00663769 -1.17253e-23)
(-0.140429 -0.0071757 2.24451e-22)
(-0.130219 -0.0077243 -8.21014e-23)
(-0.119025 -0.00827994 5.32822e-22)
(-0.106801 -0.00883744 -3.18797e-22)
(-0.0935086 -0.0093902 5.70335e-22)
(-0.079119 -0.00993513 -7.87278e-22)
(-0.0635967 -0.0104692 -1.79469e-22)
(-0.0469304 -0.0109771 -2.69269e-22)
(-0.0291146 -0.0114616 7.48694e-22)
(-0.0101561 -0.0119127 -8.61503e-22)
(0.00993815 -0.012323 -2.14464e-22)
(0.0311354 -0.0126882 2.39257e-22)
(0.0533914 -0.0130082 -4.35307e-23)
(0.0766579 -0.013269 -5.91057e-23)
(0.100857 -0.0134823 -2.55618e-23)
(0.12597 -0.0136242 2.13765e-23)
(0.151764 -0.0137299 -1.03653e-22)
(0.178506 -0.0137417 6.79433e-23)
(0.205348 -0.0137612 6.38925e-24)
(0.233709 -0.0136277 -2.67844e-24)
(0.260658 -0.0136152 7.02582e-24)
(0.29122 -0.0133099 -3.26541e-24)
(0.316554 -0.0133582 8.91979e-25)
(0.35111 -0.012851 1.59695e-24)
(0.371769 -0.0130752 -1.26829e-24)
(0.414141 -0.0124079 5.36389e-24)
(0.425237 -0.0128424 -4.06927e-24)
(0.482167 -0.0125385 7.85065e-24)
(-0.156944 0.00867004 4.87825e-23)
(-0.159852 0.00870939 6.12256e-21)
(-0.162613 0.008373 1.2762e-21)
(-0.165233 0.00793948 -1.21432e-20)
(-0.167769 0.00746772 -7.5906e-21)
(-0.170199 0.00698735 6.7928e-21)
(-0.172511 0.00651472 1.60721e-20)
(-0.174704 0.00605606 -8.90415e-21)
(-0.176776 0.00561311 -3.35991e-21)
(-0.178725 0.00518561 1.90894e-21)
(-0.18055 0.00477227 4.27291e-21)
(-0.182249 0.00437124 -5.80416e-21)
(-0.183819 0.00398037 6.54697e-21)
(-0.185257 0.00359738 -5.67262e-21)
(-0.186558 0.00322007 1.13759e-20)
(-0.187717 0.00284644 -1.07937e-20)
(-0.188727 0.00247494 1.9023e-21)
(-0.189581 0.00210464 -1.49193e-20)
(-0.190271 0.00173515 5.41694e-21)
(-0.190788 0.00136581 -4.1157e-21)
(-0.191123 0.000996008 1.6524e-21)
(-0.191263 0.000627664 1.43518e-20)
(-0.191212 0.000252801 -7.75535e-21)
(-0.190958 -0.000144549 2.60305e-21)
(-0.190476 -0.000554639 -7.13605e-21)
(-0.189752 -0.000979027 6.05472e-21)
(-0.188768 -0.00141976 -8.48129e-21)
(-0.187502 -0.00187901 3.48779e-21)
(-0.185931 -0.00235893 -1.1281e-21)
(-0.184029 -0.00286182 2.67813e-21)
(-0.181768 -0.00338916 2.67972e-21)
(-0.179119 -0.0039427 3.61223e-21)
(-0.176049 -0.00452557 -3.13257e-21)
(-0.172521 -0.00513933 6.17002e-22)
(-0.168498 -0.00578548 -1.65045e-21)
(-0.163938 -0.00646506 3.17559e-21)
(-0.158796 -0.00717875 -1.74534e-21)
(-0.153029 -0.00792663 8.25681e-22)
(-0.146587 -0.00870773 -3.73375e-21)
(-0.139419 -0.00952153 8.23995e-22)
(-0.131478 -0.0103601 1.41673e-21)
(-0.122717 -0.0112249 -2.63488e-21)
(-0.113085 -0.0121117 1.9916e-21)
(-0.102535 -0.0130152 2.21038e-21)
(-0.091022 -0.0139297 -1.44987e-21)
(-0.0785025 -0.0148468 -4.06953e-22)
(-0.0649438 -0.0157542 -1.27232e-21)
(-0.0503235 -0.0166478 2.80547e-22)
(-0.0346081 -0.0175251 3.9822e-22)
(-0.0177907 -0.0183568 8.25515e-22)
(0.000127735 -0.0191469 -8.96529e-22)
(0.0191393 -0.0198822 5.61707e-22)
(0.0392308 -0.0205477 3.52628e-22)
(0.0603637 -0.0211415 -3.75697e-22)
(0.0824981 -0.0216586 2.43127e-23)
(0.105578 -0.0220766 2.62551e-22)
(0.129528 -0.0224167 -9.38505e-23)
(0.154327 -0.0226367 8.0045e-24)
(0.179741 -0.0227994 1.16659e-22)
(0.206051 -0.0228035 5.64364e-25)
(0.232383 -0.0228246 8.79903e-23)
(0.260207 -0.0225888 -5.90785e-23)
(0.286533 -0.0225578 -8.5111e-24)
(0.316457 -0.0220416 7.89547e-24)
(0.341105 -0.0221086 8.85243e-24)
(0.37489 -0.0212688 -1.90769e-23)
(0.394912 -0.0216169 -1.70973e-23)
(0.436256 -0.0205319 -2.20296e-23)
(0.446992 -0.021208 1.98917e-23)
(0.502333 -0.0207235 -1.33824e-23)
(-0.134107 0.0115522 2.22236e-22)
(-0.136826 0.0116208 -2.29823e-20)
(-0.139259 0.0111926 -5.13455e-21)
(-0.141507 0.0106279 2.61371e-20)
(-0.143695 0.00999642 -1.86195e-20)
(-0.145792 0.00934446 3.19329e-21)
(-0.147781 0.00869853 1.14627e-20)
(-0.149657 0.0080689 -9.57586e-21)
(-0.151417 0.00745881 -9.17245e-21)
(-0.153058 0.00686841 1.52105e-20)
(-0.154576 0.00629618 4.94821e-21)
(-0.155969 0.00573978 -5.67129e-21)
(-0.157233 0.00519634 -5.78818e-21)
(-0.158362 0.00466282 3.99186e-22)
(-0.15935 0.00413617 1.31611e-20)
(-0.160192 0.00361364 -6.56649e-21)
(-0.160878 0.00309315 -6.39389e-22)
(-0.1614 0.00257356 -7.19329e-21)
(-0.161751 0.00205422 -4.86447e-22)
(-0.16192 0.0015337 2.93876e-21)
(-0.161896 0.00101351 7.25956e-21)
(-0.161671 0.000501177 -7.98382e-21)
(-0.161249 -4.34416e-05 6.821e-21)
(-0.16061 -0.000603426 -3.83871e-21)
(-0.159729 -0.00118004 -1.80651e-21)
(-0.158594 -0.00177666 -8.60135e-22)
(-0.157184 -0.00239604 4.74836e-21)
(-0.155479 -0.00304111 5.23812e-21)
(-0.153457 -0.00371485 -9.96069e-21)
(-0.15109 -0.00442046 -2.12561e-21)
(-0.148351 -0.00515954 9.43816e-21)
(-0.145212 -0.00593384 -3.18473e-21)
(-0.141641 -0.00674838 -5.79223e-21)
(-0.137603 -0.00760503 2.4549e-21)
(-0.133062 -0.00850568 -3.44562e-21)
(-0.127977 -0.00945162 3.39058e-21)
(-0.122307 -0.0104436 -2.04963e-21)
(-0.11601 -0.0114817 7.54e-21)
(-0.109042 -0.0125642 9.02747e-22)
(-0.101353 -0.0136918 -4.14096e-22)
(-0.0928981 -0.014851 -2.45666e-21)
(-0.0836382 -0.0160444 -3.83511e-21)
(-0.0735266 -0.0172664 -9.77705e-22)
(-0.0625222 -0.0185093 4.23291e-21)
(-0.0505853 -0.0197668 4.90541e-22)
(-0.0376762 -0.0210274 -1.68194e-21)
(-0.0237688 -0.0222699 3.87796e-22)
(-0.00885247 -0.0234939 2.36181e-22)
(0.00710435 -0.0246807 1.4596e-21)
(0.024106 -0.0258152 -8.04716e-22)
(0.0421393 -0.0268868 -4.97356e-22)
(0.0611917 -0.0278786 8.65643e-23)
(0.081247 -0.0287793 1.32288e-21)
(0.102259 -0.0295729 -7.11151e-22)
(0.12419 -0.0302609 -7.19282e-22)
(0.146976 -0.03081 2.34157e-22)
(0.170542 -0.0312529 7.17833e-23)
(0.194873 -0.0315263 9.95476e-24)
(0.21972 -0.0317258 -3.12287e-22)
(0.245396 -0.0316998 1.25905e-22)
(0.270984 -0.0317069 -3.34534e-23)
(0.298027 -0.0313512 1.13391e-23)
(0.323456 -0.0312887 -3.33616e-23)
(0.352458 -0.0305534 -4.47409e-24)
(0.376125 -0.0306228 -7.6505e-24)
(0.408797 -0.0294608 1.21572e-23)
(0.427919 -0.0298999 1.72831e-23)
(0.467779 -0.0284371 2.62457e-23)
(0.478013 -0.0292928 -1.23626e-23)
(0.531082 -0.0286589 2.0792e-23)
(-0.103504 0.0139793 2.39792e-20)
(-0.106071 0.0140029 -8.58833e-21)
(-0.108092 0.0135146 5.97324e-21)
(-0.109877 0.0128616 -3.85107e-20)
(-0.111636 0.0121014 1.82e-20)
(-0.113326 0.0113014 -2.40111e-20)
(-0.114921 0.0105006 2.68265e-20)
(-0.116415 0.00971451 -2.51713e-20)
(-0.117801 0.00894882 -6.36393e-21)
(-0.119075 0.00820469 5.1441e-20)
(-0.12023 0.00748083 -2.83773e-20)
(-0.12126 0.00677472 2.44097e-20)
(-0.122161 0.00608306 -5.08827e-21)
(-0.122925 0.00540218 -4.89385e-23)
(-0.123544 0.0047283 -1.48302e-20)
(-0.124011 0.00405795 -6.41089e-21)
(-0.124316 0.00338849 -3.07036e-21)
(-0.124448 0.00271858 7.89222e-21)
(-0.124399 0.00204872 -1.95406e-20)
(-0.124158 0.0013831 9.51746e-21)
(-0.123702 0.000728191 -5.53612e-21)
(-0.123054 3.86783e-05 2.49471e-21)
(-0.122203 -0.000677309 5.43369e-21)
(-0.121107 -0.00140449 1.09435e-20)
(-0.119756 -0.00215151 -7.08131e-21)
(-0.118134 -0.00292325 -6.14024e-21)
(-0.116222 -0.00372363 4.73355e-21)
(-0.114001 -0.00455654 7.25612e-22)
(-0.111446 -0.00542553 5.01702e-21)
(-0.108533 -0.00633489 -4.12547e-21)
(-0.105231 -0.00728637 -5.43692e-21)
(-0.101516 -0.00828075 8.75954e-21)
(-0.097357 -0.00932575 -7.55223e-21)
(-0.0927205 -0.010423 5.14416e-21)
(-0.0875713 -0.0115746 1.97393e-21)
(-0.0818726 -0.012782 -3.22671e-21)
(-0.0755861 -0.0140456 -1.9167e-21)
(-0.0686719 -0.015365 2.64794e-21)
(-0.061093 -0.0167385 -4.50967e-21)
(-0.0528005 -0.018172 1.2256e-21)
(-0.0437542 -0.0196394 -1.5615e-21)
(-0.0339225 -0.0211454 5.68581e-22)
(-0.0232643 -0.0226855 -5.38846e-22)
(-0.0117465 -0.0242498 2.51668e-21)
(0.000662762 -0.025826 -2.37048e-21)
(0.0140004 -0.0273974 1.56999e-21)
(0.0282849 -0.0289524 -3.00091e-21)
(0.0435171 -0.0304796 1.01805e-21)
(0.0597167 -0.0319467 2.74196e-21)
(0.0768826 -0.0333528 -2.12433e-21)
(0.0950006 -0.0346753 -1.32105e-21)
(0.114045 -0.0358918 1.64161e-21)
(0.133998 -0.0369929 -1.16408e-21)
(0.154803 -0.0379524 5.75256e-22)
(0.176426 -0.0387786 8.21146e-23)
(0.198794 -0.0394256 1.1609e-22)
(0.221835 -0.0399413 -6.29919e-22)
(0.245536 -0.040237 2.03168e-22)
(0.269637 -0.040448 7.65537e-25)
(0.294486 -0.0403644 1.93416e-22)
(0.319117 -0.0403379 -2.55221e-22)
(0.345157 -0.0398412 8.57981e-23)
(0.369451 -0.0397305 1.33756e-23)
(0.397277 -0.0387675 8.03704e-25)
(0.419722 -0.0388176 6.18283e-24)
(0.450978 -0.0373482 -5.02926e-24)
(0.468992 -0.0378372 -2.83684e-23)
(0.506973 -0.0360457 2.42244e-23)
(0.516596 -0.0370073 2.33889e-23)
(0.566826 -0.0362584 -4.79534e-23)
(-0.064819 0.0159289 -1.08809e-20)
(-0.0673919 0.0157521 9.89352e-21)
(-0.0689026 0.015252 6.90085e-21)
(-0.0701718 0.0145603 -4.45405e-20)
(-0.0714653 0.0137121 4.61295e-20)
(-0.072713 0.0127981 -1.51605e-22)
(-0.0738838 0.011869 -3.14264e-20)
(-0.0749688 0.010947 1.9685e-20)
(-0.0759584 0.0100418 5.97482e-21)
(-0.0768433 0.00915648 6.32968e-21)
(-0.0776149 0.00829075 -2.38964e-20)
(-0.0782649 0.00744246 -2.1267e-20)
(-0.0787851 0.00660832 7.17263e-21)
(-0.0791667 0.00578436 1.96666e-20)
(-0.0794004 0.00496628 -1.21316e-20)
(-0.0794756 0.00415001 3.27926e-20)
(-0.0793806 0.00333244 -3.59794e-20)
(-0.0791025 0.00251257 3.9681e-20)
(-0.0786271 0.00169495 -1.08557e-20)
(-0.0779402 0.000887844 -2.8162e-20)
(-0.0770628 6.16613e-05 2.42959e-20)
(-0.0759846 -0.000809732 -2.35651e-21)
(-0.0746589 -0.00168634 -3.85801e-21)
(-0.0730785 -0.00258007 1.18831e-20)
(-0.0712297 -0.00349917 -8.25458e-21)
(-0.0690944 -0.00444816 -1.97503e-20)
(-0.0666534 -0.00543146 1.61113e-20)
(-0.0638853 -0.00645347 -3.82522e-21)
(-0.0607686 -0.0075185 -3.45837e-21)
(-0.0572775 -0.00863465 6.90831e-21)
(-0.0533813 -0.00980292 1.36851e-20)
(-0.0490569 -0.0110158 -3.83235e-21)
(-0.0442777 -0.0122887 -2.50711e-20)
(-0.0390098 -0.0136232 1.88324e-20)
(-0.033221 -0.0150213 -9.43807e-21)
(-0.0268773 -0.0164841 2.99735e-21)
(-0.0199441 -0.0180121 7.38662e-21)
(-0.0123851 -0.0196045 -2.82044e-21)
(-0.00417353 -0.0212611 -5.6701e-23)
(0.00473938 -0.0229719 1.96793e-21)
(0.0143953 -0.0247296 -5.8069e-21)
(0.0248097 -0.0265322 -2.74933e-21)
(0.0360176 -0.0283703 6.5838e-21)
(0.0480473 -0.0302326 1.6564e-21)
(0.0609221 -0.0321011 -4.30571e-21)
(0.0746654 -0.0339551 1.60228e-21)
(0.0892919 -0.0357912 -1.15098e-21)
(0.104798 -0.0375848 -2.82483e-21)
(0.121188 -0.0393082 -2.47398e-22)
(0.138454 -0.0409471 3.24105e-21)
(0.156578 -0.0424819 1.39166e-21)
(0.175522 -0.0438845 1.37343e-21)
(0.195268 -0.0451471 -7.52805e-22)
(0.215748 -0.0462341 1.26324e-21)
(0.236932 -0.0471614 -1.635e-21)
(0.258738 -0.0478688 7.94083e-22)
(0.281098 -0.0484236 -6.6872e-22)
(0.304003 -0.048707 4.50065e-23)
(0.32718 -0.0489016 3.52835e-22)
(0.351018 -0.0487305 -3.001e-22)
(0.374496 -0.0486487 1.23997e-22)
(0.399333 -0.0479891 -8.92899e-23)
(0.42229 -0.0478115 -9.39493e-23)
(0.44872 -0.0466138 -1.43143e-23)
(0.469751 -0.0466197 -1.66337e-24)
(0.499334 -0.044862 5.41615e-24)
(0.516091 -0.0453542 2.14694e-23)
(0.551863 -0.0432883 1.70747e-23)
(0.560803 -0.0442793 -1.50351e-23)
(0.607749 -0.0434472 2.41342e-23)
(-0.0174286 0.0169297 3.63935e-20)
(-0.0202428 0.0168834 -2.79495e-20)
(-0.0211936 0.0164348 4.62367e-20)
(-0.0219806 0.0157065 -1.73824e-20)
(-0.0228399 0.0148105 1.42744e-20)
(-0.0236752 0.0138249 -3.68025e-20)
(-0.0244512 0.0128 5.70559e-21)
(-0.0251563 0.011767 -1.57423e-21)
(-0.0257786 0.0107417 8.37042e-21)
(-0.0263055 0.00973027 2.35102e-20)
(-0.0267249 0.00873411 -1.90985e-20)
(-0.0270255 0.00775225 1.36492e-20)
(-0.0271965 0.00678199 8.31776e-21)
(-0.0272267 0.00581949 3.36846e-21)
(-0.0271044 0.00486016 -2.41492e-20)
(-0.0268172 0.00389918 1.40152e-20)
(-0.0263508 0.00293226 -2.04553e-20)
(-0.0256879 0.00195853 2.47479e-21)
(-0.0248114 0.000990125 -5.76071e-22)
(-0.0237312 2.41693e-05 2.71654e-20)
(-0.0224526 -0.000991708 -2.32482e-20)
(-0.0209409 -0.00201549 -3.2164e-21)
(-0.0191721 -0.00305539 -5.62145e-21)
(-0.0171346 -0.00412048 2.46307e-20)
(-0.0148117 -0.00521556 -8.87155e-21)
(-0.0121852 -0.0063455 -8.64011e-21)
(-0.00923592 -0.00751536 -5.3892e-21)
(-0.00594271 -0.0087301 2.06822e-20)
(-0.00228725 -0.00999532 -7.40364e-21)
(0.00175518 -0.011314 -1.00757e-20)
(0.00622444 -0.0126865 -8.52525e-21)
(0.0111385 -0.0141197 2.38389e-20)
(0.0165146 -0.01562 -6.4023e-21)
(0.0223889 -0.0171888 -2.18061e-21)
(0.0287908 -0.0188282 -5.17071e-21)
(0.0357508 -0.0205395 -4.33967e-21)
(0.0432994 -0.0223226 4.39653e-21)
(0.0514682 -0.0241765 4.22622e-21)
(0.0602835 -0.0261011 -4.60413e-21)
(0.0697784 -0.0280726 -7.37986e-21)
(0.0799889 -0.0301025 9.61011e-21)
(0.0909321 -0.03218 -1.53033e-21)
(0.102632 -0.0342911 5.82781e-24)
(0.115108 -0.0364222 -2.11713e-21)
(0.128376 -0.0385557 3.56534e-21)
(0.142446 -0.040669 -4.37261e-21)
(0.157327 -0.0427494 5.17871e-21)
(0.173007 -0.0447725 -1.12307e-22)
(0.189482 -0.0467118 -4.35308e-22)
(0.206731 -0.0485442 -1.39755e-21)
(0.224736 -0.0502512 -1.67484e-21)
(0.243445 -0.0517986 5.85519e-22)
(0.262841 -0.0531818 1.36134e-21)
(0.282843 -0.0543552 -3.05088e-21)
(0.303429 -0.0553449 2.07977e-21)
(0.324509 -0.0560735 -1.08365e-21)
(0.346015 -0.056633 3.74475e-22)
(0.367952 -0.0568688 1.88947e-22)
(0.390025 -0.0570186 -3.26701e-22)
(0.412673 -0.0567306 -5.32166e-23)
(0.434821 -0.0565715 1.5004e-22)
(0.458271 -0.0557295 -4.58133e-23)
(0.479724 -0.0554651 4.60975e-23)
(0.504563 -0.0540298 5.34792e-23)
(0.52404 -0.0539648 4.75953e-24)
(0.551731 -0.0519424 -1.01796e-23)
(0.567134 -0.0523905 -6.09245e-23)
(0.600434 -0.0501046 -4.76639e-24)
(0.608647 -0.0510543 9.6894e-25)
(0.651993 -0.0501641 3.70852e-25)
(0.0398425 0.0173666 1.92351e-20)
(0.0369981 0.0176622 3.9944e-20)
(0.0359001 0.0171496 -4.69406e-20)
(0.0353926 0.0163729 -1.34275e-21)
(0.0348642 0.0154649 1.04891e-20)
(0.0343198 0.0144456 -9.62782e-21)
(0.0338205 0.0133558 -2.00856e-20)
(0.0333872 0.0122366 -2.88992e-21)
(0.0330304 0.0111106 4.89333e-20)
(0.0327633 0.00998782 -1.5784e-21)
(0.0326006 0.00887213 -4.1014e-21)
(0.0325564 0.00776449 -7.74486e-21)
(0.0326439 0.00666356 7.23443e-21)
(0.0328764 0.00556622 -5.4532e-21)
(0.0332673 0.0044681 7.79066e-21)
(0.0338309 0.00336409 -2.09212e-20)
(0.0345834 0.00224938 -1.76459e-20)
(0.0355515 0.00112705 2.50158e-20)
(0.0367511 1.7205e-05 1.70981e-21)
(0.0381468 -0.00114303 -1.24053e-20)
(0.039754 -0.00232846 2.85019e-20)
(0.0416208 -0.00352072 -4.13813e-21)
(0.0437582 -0.00473348 -2.00523e-21)
(0.0461801 -0.00597422 -2.53966e-20)
(0.0489039 -0.00724887 1.73809e-21)
(0.0519481 -0.00856316 2.24931e-20)
(0.0553321 -0.00992253 -9.20842e-21)
(0.0590767 -0.0113323 -1.51382e-20)
(0.0632023 -0.0127985 9.68705e-21)
(0.0677312 -0.014319 -2.84928e-21)
(0.0726933 -0.0158962 3.00849e-21)
(0.0781124 -0.0175491 9.99986e-21)
(0.0840089 -0.0192733 -2.69873e-21)
(0.0904109 -0.0210714 -1.37103e-20)
(0.0973448 -0.0229454 1.46623e-20)
(0.104837 -0.024896 2.94056e-21)
(0.112915 -0.0269226 4.01998e-21)
(0.121603 -0.0290229 -1.63259e-21)
(0.130924 -0.0311955 -1.81524e-20)
(0.140903 -0.0334239 8.72471e-21)
(0.151567 -0.0357068 1.45088e-21)
(0.16293 -0.0380335 -5.34232e-22)
(0.175006 -0.0403905 1.85388e-21)
(0.187807 -0.0427617 6.22231e-22)
(0.201338 -0.0451277 -1.26226e-21)
(0.2156 -0.0474644 6.11979e-22)
(0.230593 -0.0497538 9.83079e-22)
(0.246298 -0.051969 -1.64871e-21)
(0.262702 -0.0540839 8.81444e-22)
(0.279771 -0.0560691 1.20553e-21)
(0.297488 -0.0579071 -1.40793e-21)
(0.315786 -0.0595574 -1.18341e-21)
(0.334654 -0.06102 5.07839e-22)
(0.353997 -0.0622387 2.60722e-22)
(0.3738 -0.0632522 8.45506e-23)
(0.393968 -0.063964 5.72037e-22)
(0.414435 -0.0644946 -2.44276e-22)
(0.43522 -0.0646498 -1.38077e-21)
(0.456011 -0.0647279 -1.9454e-22)
(0.477293 -0.0642974 -1.2276e-22)
(0.497946 -0.0640399 1.5656e-22)
(0.519838 -0.0630009 9.06986e-23)
(0.53965 -0.0626307 -1.08187e-22)
(0.562727 -0.0609604 -2.81007e-25)
(0.580551 -0.060798 -4.43453e-24)
(0.606168 -0.0585387 3.40375e-23)
(0.620163 -0.0588981 -1.97438e-23)
(0.65079 -0.056444 3.51684e-23)
(0.658258 -0.0572931 -1.09191e-23)
(0.697799 -0.0563621 8.55974e-24)
(0.108093 0.0181405 -3.77904e-20)
(0.105391 0.0183678 4.66575e-20)
(0.103637 0.0176486 6.16485e-20)
(0.103025 0.0167991 -7.09609e-20)
(0.102558 0.015877 -4.53848e-20)
(0.102058 0.0148333 3.21118e-20)
(0.101604 0.0136928 3.06228e-20)
(0.101231 0.012501 4.44781e-20)
(0.100944 0.011286 -5.19928e-20)
(0.100753 0.0100604 -3.62016e-22)
(0.100672 0.00883075 -4.14479e-20)
(0.100717 0.00760047 1.13005e-20)
(0.100901 0.00636998 3.28523e-20)
(0.101241 0.00513735 -2.53516e-21)
(0.10175 0.00389863 -1.94573e-20)
(0.102445 0.00264781 5.16198e-21)
(0.103344 0.00137831 1.12291e-20)
(0.104489 9.41749e-05 -2.03265e-20)
(0.105844 -0.00119495 4.32778e-20)
(0.107408 -0.00253515 -2.03772e-20)
(0.109236 -0.00388034 -1.15231e-20)
(0.111335 -0.00524184 2.67941e-20)
(0.113716 -0.00663006 -2.62282e-20)
(0.116398 -0.00805054 8.85343e-21)
(0.1194 -0.00950909 3.48686e-21)
(0.122739 -0.0110115 1.126e-20)
(0.126436 -0.0125632 -8.58529e-21)
(0.13051 -0.0141694 -1.34168e-20)
(0.134981 -0.0158361 3.592e-21)
(0.139871 -0.0175652 -6.57042e-21)
(0.145206 -0.0193589 2.9472e-20)
(0.151008 -0.0212266 -1.15812e-20)
(0.157298 -0.02317 -1.93451e-20)
(0.164098 -0.0251916 2.59823e-20)
(0.171433 -0.0272927 -1.62293e-20)
(0.179324 -0.0294734 -3.74219e-21)
(0.187792 -0.0317323 8.64046e-21)
(0.196859 -0.0340659 -3.40443e-21)
(0.206542 -0.0364709 7.23222e-21)
(0.216855 -0.0389334 -2.97448e-21)
(0.227819 -0.041447 5.81595e-21)
(0.239442 -0.0439995 -1.29477e-20)
(0.251729 -0.0465759 8.48126e-21)
(0.264682 -0.0491577 4.93244e-21)
(0.2783 -0.0517242 -9.39174e-21)
(0.292572 -0.054249 -1.40196e-22)
(0.307489 -0.0567111 5.91156e-21)
(0.323024 -0.0590804 -7.46449e-21)
(0.339158 -0.0613312 8.0635e-21)
(0.355846 -0.0634285 -2.11698e-21)
(0.373068 -0.0653567 3.82271e-22)
(0.390749 -0.0670689 -3.45839e-22)
(0.408879 -0.0685712 6.54069e-23)
(0.427355 -0.0697962 -1.32373e-21)
(0.446169 -0.0707975 1.57003e-21)
(0.465225 -0.0714573 5.0443e-22)
(0.484457 -0.0719289 2.12821e-22)
(0.503901 -0.0719745 -2.80712e-23)
(0.523233 -0.0719573 9.31155e-22)
(0.542976 -0.0713642 -6.0128e-22)
(0.561985 -0.0709903 4.45019e-22)
(0.582162 -0.0697463 -4.86569e-23)
(0.600221 -0.0692535 1.47842e-22)
(0.621388 -0.0673574 -2.62227e-23)
(0.637493 -0.0670738 -1.76947e-24)
(0.66089 -0.0646088 -1.54463e-23)
(0.673456 -0.0648412 2.24041e-23)
(0.701269 -0.062266 -3.78462e-23)
(0.707988 -0.0629701 -1.89873e-23)
(0.74362 -0.0620079 1.405e-23)
(0.186088 0.0194502 -4.8384e-21)
(0.183333 0.0184058 -1.01497e-19)
(0.182118 0.0173943 1.11696e-19)
(0.181288 0.0163987 -5.67935e-20)
(0.180458 0.0152952 -4.92463e-21)
(0.179696 0.0140843 4.70878e-20)
(0.179056 0.0128084 -5.03642e-20)
(0.178537 0.0114962 -7.69633e-21)
(0.17814 0.0101607 3.87207e-20)
(0.177875 0.00881006 -8.43179e-21)
(0.177756 0.00744938 -4.11925e-20)
(0.177798 0.00608103 7.24357e-20)
(0.178014 0.00470454 -1.91982e-20)
(0.178418 0.003317 -3.17617e-20)
(0.179025 0.00191314 3.75861e-20)
(0.179855 0.00048725 5.10738e-21)
(0.180961 -0.000961125 -1.69059e-20)
(0.182301 -0.00246381 -2.03076e-20)
(0.183877 -0.00397604 -2.48232e-20)
(0.18573 -0.00549808 1.32235e-20)
(0.187873 -0.00704282 9.31145e-21)
(0.19032 -0.00861687 1.61826e-20)
(0.193089 -0.0102258 -2.3314e-20)
(0.196196 -0.0118762 1.40998e-20)
(0.199661 -0.0135739 -1.86994e-21)
(0.203503 -0.0153244 -1.26941e-20)
(0.207739 -0.0171327 8.77991e-21)
(0.212391 -0.0190044 1.01287e-21)
(0.217476 -0.0209425 -1.93624e-20)
(0.223017 -0.0229498 5.804e-21)
(0.229035 -0.0250326 1.25161e-20)
(0.235548 -0.0271937 -7.89833e-21)
(0.242577 -0.0294348 3.96757e-21)
(0.250139 -0.0317568 9.06848e-21)
(0.258252 -0.0341589 -1.4501e-20)
(0.266932 -0.036639 7.21378e-21)
(0.276194 -0.0391922 8.35642e-21)
(0.286049 -0.0418138 -7.16721e-21)
(0.296506 -0.0444905 1.18807e-21)
(0.307574 -0.0472129 -1.01264e-20)
(0.319255 -0.0499668 5.57737e-21)
(0.331546 -0.0527355 3.36881e-21)
(0.34444 -0.0554983 1.41815e-21)
(0.357928 -0.0582332 -5.71943e-21)
(0.371987 -0.0609118 -1.39155e-21)
(0.386604 -0.0635107 1.10682e-20)
(0.401739 -0.0659967 -8.72746e-22)
(0.417372 -0.0683449 -5.83408e-21)
(0.433444 -0.0705154 7.17713e-23)
(0.449938 -0.0724953 -9.67809e-22)
(0.466769 -0.0742311 9.0526e-22)
(0.483932 -0.0757367 4.55412e-22)
(0.501318 -0.0769326 8.64143e-22)
(0.518925 -0.0778899 -8.91702e-22)
(0.536658 -0.0784677 -7.9232e-23)
(0.554458 -0.0788546 -8.12837e-22)
(0.572374 -0.078768 1.99579e-23)
(0.590076 -0.0786366 -7.48587e-23)
(0.608116 -0.077868 1.25623e-22)
(0.625349 -0.0773639 -2.63703e-22)
(0.643669 -0.0759146 -2.379e-22)
(0.65989 -0.075286 5.99149e-23)
(0.679023 -0.0731802 -9.98721e-23)
(0.693373 -0.0727563 5.1548e-23)
(0.71444 -0.0701195 -6.78842e-24)
(0.72558 -0.0701956 7.80568e-24)
(0.750496 -0.0675404 2.53705e-23)
(0.756474 -0.0680711 -5.12376e-24)
(0.788176 -0.0670817 -7.90367e-24)
(0.280151 0.0214762 -5.59571e-20)
(0.276039 0.0199848 2.52003e-20)
(0.273651 0.0186857 -1.71413e-20)
(0.271926 0.0175126 -1.59164e-20)
(0.270283 0.0162674 3.67088e-21)
(0.268758 0.0149227 -2.54467e-21)
(0.267421 0.0135144 7.55495e-21)
(0.266269 0.0120664 4.24394e-20)
(0.26529 0.0105887 -6.67989e-20)
(0.264489 0.00908841 5.06042e-20)
(0.263874 0.00757137 1.59936e-20)
(0.263458 0.00604104 -8.00658e-20)
(0.263251 0.00449806 7.59798e-20)
(0.263265 0.00294042 -3.00617e-20)
(0.263517 0.00136274 1.38857e-21)
(0.264021 -0.000246376 1.97693e-20)
(0.264806 -0.00190557 -3.09822e-20)
(0.265858 -0.00360302 1.42829e-20)
(0.26721 -0.00530418 -3.08912e-20)
(0.268866 -0.00701929 -1.24615e-20)
(0.270833 -0.00876013 4.78889e-20)
(0.273129 -0.0105326 -7.32414e-21)
(0.27577 -0.0123422 5.70956e-21)
(0.278772 -0.0141958 1.54405e-20)
(0.282154 -0.0160993 -2.86417e-21)
(0.285935 -0.0180577 -1.29775e-20)
(0.29013 -0.020076 -1.75334e-20)
(0.294758 -0.0221594 1.98962e-20)
(0.299835 -0.0243113 4.36352e-22)
(0.305382 -0.0265346 -1.24653e-20)
(0.311414 -0.0288339 4.55234e-21)
(0.317948 -0.0312115 1.41815e-20)
(0.324999 -0.033669 -2.80136e-20)
(0.332581 -0.0362063 6.62399e-21)
(0.340706 -0.0388218 9.55541e-21)
(0.349385 -0.0415124 3.08533e-21)
(0.358626 -0.0442722 -1.23856e-20)
(0.368433 -0.0470946 -1.05749e-22)
(0.378808 -0.0499666 -1.87863e-21)
(0.389751 -0.0528762 1.27502e-20)
(0.401255 -0.0558073 -8.16295e-21)
(0.413311 -0.0587418 -6.7074e-22)
(0.425903 -0.0616569 5.83467e-21)
(0.439012 -0.0645293 2.11077e-23)
(0.452609 -0.0673285 -6.56136e-21)
(0.466672 -0.07003 9.3655e-21)
(0.481152 -0.0725974 -1.36855e-21)
(0.496029 -0.0750074 -5.91391e-21)
(0.511232 -0.0772153 3.72258e-21)
(0.526749 -0.079212 -1.45474e-21)
(0.542485 -0.0809374 -6.60304e-22)
(0.558442 -0.0824145 -5.4408e-22)
(0.574507 -0.0835516 1.30343e-21)
(0.590688 -0.0844386 -2.27826e-21)
(0.606894 -0.0849108 4.95073e-22)
(0.623071 -0.0851935 -2.71049e-22)
(0.63928 -0.0849597 9.52357e-22)
(0.655201 -0.0847011 5.26908e-22)
(0.67139 -0.0837526 -4.60162e-22)
(0.68674 -0.0831096 2.13367e-22)
(0.703084 -0.0814633 2.84467e-22)
(0.71741 -0.0806906 -1.36374e-22)
(0.734415 -0.0783976 7.7324e-23)
(0.747001 -0.0778203 2.94905e-24)
(0.765669 -0.0750472 -1.51838e-25)
(0.775405 -0.0749481 -6.83177e-24)
(0.797396 -0.0722483 -1.54689e-23)
(0.802646 -0.0725918 5.10662e-25)
(0.830471 -0.0715766 -3.86066e-24)
(0.387698 0.0250711 3.17325e-20)
(0.381946 0.0229958 -3.11994e-20)
(0.377848 0.0212701 1.0242e-20)
(0.374657 0.0197858 2.74836e-20)
(0.371677 0.0182751 -5.23157e-20)
(0.36889 0.0166901 1.51842e-20)
(0.366375 0.0150609 7.81896e-20)
(0.364133 0.0134027 -2.4571e-20)
(0.362141 0.0117185 -4.82793e-20)
(0.360395 0.0100122 4.19644e-20)
(0.358898 0.0082886 -1.25306e-20)
(0.357656 0.00655069 3.45207e-20)
(0.356675 0.00479931 -4.44578e-20)
(0.355963 0.00303288 -5.11658e-20)
(0.355527 0.00124686 8.45701e-20)
(0.355371 -0.000570293 -8.05249e-20)
(0.355565 -0.00241482 4.77084e-20)
(0.356082 -0.00434607 4.10169e-20)
(0.356929 -0.00628518 -8.01093e-20)
(0.35811 -0.00822885 6.29085e-20)
(0.359639 -0.0101931 -3.12624e-20)
(0.36153 -0.0121868 -2.56124e-20)
(0.363796 -0.0142169 5.35314e-21)
(0.366453 -0.0162914 5.25305e-20)
(0.369516 -0.0184166 -6.50561e-20)
(0.373003 -0.020597 6.08916e-20)
(0.376927 -0.0228373 1.54358e-20)
(0.381304 -0.0251424 -1.08461e-20)
(0.386148 -0.0275158 -4.52174e-20)
(0.391474 -0.0299604 1.18359e-20)
(0.397295 -0.0324793 1.94893e-20)
(0.403623 -0.0350746 -1.9663e-20)
(0.410468 -0.0377469 1.47321e-20)
(0.41784 -0.0404953 -8.30451e-21)
(0.425744 -0.0433175 5.1776e-21)
(0.434185 -0.0462092 -5.24629e-21)
(0.443163 -0.0491634 3.23141e-21)
(0.452678 -0.0521718 1.09074e-21)
(0.462722 -0.0552212 -2.9643e-21)
(0.473287 -0.0582975 7.78824e-21)
(0.484358 -0.0613829 -9.63585e-21)
(0.495919 -0.0644581 -3.64662e-21)
(0.507943 -0.0674981 1.15527e-21)
(0.520408 -0.070479 2.21794e-23)
(0.533273 -0.0733683 -3.09898e-21)
(0.546513 -0.076141 9.19526e-21)
(0.560072 -0.0787581 -1.99347e-21)
(0.573927 -0.081198 -3.26026e-21)
(0.588002 -0.0834121 -3.71774e-21)
(0.602287 -0.0853958 6.80299e-21)
(0.616683 -0.0870827 -2.61752e-22)
(0.6312 -0.0885059 3.25249e-21)
(0.645724 -0.0895611 -6.30554e-21)
(0.660273 -0.0903585 3.61008e-21)
(0.674762 -0.0907096 5.03693e-22)
(0.689146 -0.0908756 -5.89049e-22)
(0.703496 -0.0904883 8.23697e-22)
(0.717509 -0.0900962 -1.11455e-21)
(0.73173 -0.0889721 1.90164e-23)
(0.745121 -0.0881878 -4.49332e-23)
(0.759403 -0.0863605 -3.65482e-22)
(0.771808 -0.0854414 7.28053e-23)
(0.786628 -0.0829892 -4.80708e-23)
(0.797468 -0.0822527 3.21274e-23)