/*--------------------------------*- C++ -*----------------------------------*\
  =========                 |
  \\      /  F ield         | OpenFOAM: The Open Source CFD Toolbox
   \\    /   O peration     | Website:  https://openfoam.org
    \\  /    A nd           | Version:  7
     \\/     M anipulation  |
\*---------------------------------------------------------------------------*/
FoamFile
{
    version     2.0;
    format      ascii;
    class       volScalarField;
    location    "198";
    object      p;
}
// * * * * * * * * * * * * * * * * * * * * * * * * * * * * * * * * * * * * * //

dimensions      [0 2 -2 0 0 0 0];

internalField   nonuniform List<scalar> 
12400
(
-0.381765
-0.382707
-0.383255
-0.383703
-0.384399
-0.385648
-0.387718
-0.390816
-0.395103
-0.400733
-0.407871
-0.416684
-0.427303
-0.439732
-0.453715
-0.468558
-0.482906
-0.494529
-0.500898
-0.496525
-0.387718
-0.38803
-0.388228
-0.388473
-0.389064
-0.390324
-0.392546
-0.395969
-0.400796
-0.407226
-0.41548
-0.425792
-0.438357
-0.453236
-0.470192
-0.488487
-0.506637
-0.521943
-0.53208
-0.529303
-0.393392
-0.393075
-0.392916
-0.392938
-0.393389
-0.394612
-0.396919
-0.40058
-0.405831
-0.412913
-0.42209
-0.433644
-0.447819
-0.464707
-0.484073
-0.505141
-0.526342
-0.54452
-0.557458
-0.55554
-0.398642
-0.397725
-0.397205
-0.396984
-0.397259
-0.398382
-0.40069
-0.404478
-0.410014
-0.41757
-0.427443
-0.439945
-0.455348
-0.473761
-0.494944
-0.518038
-0.541455
-0.561594
-0.576629
-0.574746
-0.403354
-0.401885
-0.401013
-0.40053
-0.400585
-0.40154
-0.40375
-0.407537
-0.413197
-0.421028
-0.431346
-0.444482
-0.460715
-0.480151
-0.50253
-0.526911
-0.551774
-0.57293
-0.589379
-0.586744
-0.407444
-0.405493
-0.404288
-0.403529
-0.40332
-0.404031
-0.406035
-0.40968
-0.41529
-0.423183
-0.433691
-0.447145
-0.463818
-0.483796
-0.506798
-0.531776
-0.557372
-0.578681
-0.595824
-0.59174
-0.410868
-0.40852
-0.407013
-0.405968
-0.405454
-0.405843
-0.407529
-0.410886
-0.416267
-0.424011
-0.434455
-0.447927
-0.464682
-0.484773
-0.507901
-0.532887
-0.55858
-0.579318
-0.596389
-0.590258
-0.413616
-0.410972
-0.409202
-0.407869
-0.407013
-0.407009
-0.408267
-0.411194
-0.416171
-0.423561
-0.433708
-0.44693
-0.463458
-0.483303
-0.506153
-0.530676
-0.555916
-0.575524
-0.591686
-0.583017
-0.415715
-0.412884
-0.410896
-0.409282
-0.408057
-0.407596
-0.408329
-0.410693
-0.415108
-0.42196
-0.431606
-0.444353
-0.460406
-0.479728
-0.501993
-0.525703
-0.55005
-0.568073
-0.582408
-0.570815
-0.417224
-0.414317
-0.412165
-0.410283
-0.408671
-0.407704
-0.407831
-0.409523
-0.413241
-0.419404
-0.428383
-0.440481
-0.455878
-0.474484
-0.495941
-0.518593
-0.54163
-0.557678
-0.569239
-0.554423
-0.418233
-0.41536
-0.413096
-0.410964
-0.40896
-0.407456
-0.40692
-0.40786
-0.41078
-0.416141
-0.424336
-0.435666
-0.45029
-0.46806
-0.488542
-0.509943
-0.531264
-0.544903
-0.552812
-0.534559
-0.418858
-0.416118
-0.413792
-0.411433
-0.409041
-0.406989
-0.405761
-0.405903
-0.407969
-0.412461
-0.419803
-0.430301
-0.444087
-0.46094
-0.480339
-0.500262
-0.519424
-0.530119
-0.533715
-0.511952
-0.419239
-0.416713
-0.414367
-0.411804
-0.409041
-0.406447
-0.404528
-0.403867
-0.405064
-0.408671
-0.415142
-0.42479
-0.43771
-0.453601
-0.471749
-0.489908
-0.506402
-0.513566
-0.512526
-0.487432
-0.419538
-0.417282
-0.414947
-0.412202
-0.409088
-0.40598
-0.4034
-0.401967
-0.402327
-0.405077
-0.410704
-0.419515
-0.431555
-0.446395
-0.463069
-0.479071
-0.492328
-0.495469
-0.489866
-0.461939
-0.419931
-0.417972
-0.415663
-0.412753
-0.409318
-0.405737
-0.402551
-0.400411
-0.400004
-0.401965
-0.4068
-0.414801
-0.425919
-0.439554
-0.454425
-0.46779
-0.477251
-0.476148
-0.466432
-0.43642
-0.420606
-0.418937
-0.416654
-0.413591
-0.409866
-0.405867
-0.40215
-0.399395
-0.398316
-0.399577
-0.403684
-0.410879
-0.420976
-0.433159
-0.445785
-0.456017
-0.461246
-0.45605
-0.442929
-0.41168
-0.421752
-0.420329
-0.418054
-0.414845
-0.410864
-0.406509
-0.402351
-0.399085
-0.397444
-0.398094
-0.401516
-0.407859
-0.416752
-0.427131
-0.437025
-0.443699
-0.444493
-0.435679
-0.419882
-0.388213
-0.423548
-0.422295
-0.419994
-0.416638
-0.412433
-0.407787
-0.403279
-0.399609
-0.397506
-0.397614
-0.400346
-0.405717
-0.413136
-0.421293
-0.428018
-0.43087
-0.427317
-0.415498
-0.397425
-0.366161
-0.426145
-0.424964
-0.422588
-0.419078
-0.414675
-0.409797
-0.405022
-0.401038
-0.398548
-0.398138
-0.400112
-0.40431
-0.409918
-0.415445
-0.418708
-0.417689
-0.410181
-0.395902
-0.375407
-0.345483
-0.429676
-0.428434
-0.425924
-0.422244
-0.417661
-0.412596
-0.407618
-0.403382
-0.400537
-0.399574
-0.40065
-0.403412
-0.406857
-0.409425
-0.409123
-0.40441
-0.393597
-0.377305
-0.354221
-0.326219
-0.434225
-0.432772
-0.430063
-0.426187
-0.421424
-0.416199
-0.411053
-0.40659
-0.40337
-0.401757
-0.401734
-0.402764
-0.403733
-0.403147
-0.39936
-0.391311
-0.377913
-0.360072
-0.335678
-0.308683
-0.439818
-0.438025
-0.435039
-0.430927
-0.425971
-0.420586
-0.415274
-0.410564
-0.406898
-0.40448
-0.403115
-0.402123
-0.400383
-0.396598
-0.389554
-0.378633
-0.363243
-0.344209
-0.320086
-0.294486
-0.446465
-0.444202
-0.440858
-0.436464
-0.431282
-0.425715
-0.420207
-0.415187
-0.41095
-0.407525
-0.404557
-0.401291
-0.396711
-0.389818
-0.379843
-0.36653
-0.349608
-0.329879
-0.306142
-0.281605
-0.454147
-0.451294
-0.447517
-0.442784
-0.437332
-0.431538
-0.425772
-0.420335
-0.415355
-0.410688
-0.405856
-0.400124
-0.392678
-0.382874
-0.370338
-0.355067
-0.336998
-0.316806
-0.293564
-0.270149
-0.462828
-0.459282
-0.455002
-0.449876
-0.444099
-0.438014
-0.431895
-0.425891
-0.419954
-0.413784
-0.406851
-0.398531
-0.388292
-0.375839
-0.361107
-0.344249
-0.325302
-0.304831
-0.282067
-0.259489
-0.472468
-0.468146
-0.463302
-0.457728
-0.451568
-0.44511
-0.43851
-0.431747
-0.424598
-0.416656
-0.407422
-0.396469
-0.383581
-0.368768
-0.352176
-0.334025
-0.314402
-0.293739
-0.271403
-0.249548
-0.483026
-0.477862
-0.472407
-0.466338
-0.459729
-0.452795
-0.445548
-0.437788
-0.429146
-0.41917
-0.407485
-0.393928
-0.378585
-0.361697
-0.343532
-0.324321
-0.304158
-0.283359
-0.261405
-0.240127
-0.494463
-0.488406
-0.482304
-0.4757
-0.468569
-0.46103
-0.452929
-0.443896
-0.433459
-0.421214
-0.40699
-0.390917
-0.373335
-0.354634
-0.335134
-0.31504
-0.294435
-0.273531
-0.251909
-0.231119
-0.50673
-0.499746
-0.492974
-0.485796
-0.478059
-0.469753
-0.46055
-0.449934
-0.437405
-0.422697
-0.405909
-0.38745
-0.367847
-0.347566
-0.326922
-0.306083
-0.285107
-0.264118
-0.242792
-0.22241
-0.519768
-0.511835
-0.50438
-0.496588
-0.48814
-0.478869
-0.468278
-0.455751
-0.440853
-0.423547
-0.404227
-0.383537
-0.36212
-0.340457
-0.318826
-0.297348
-0.276055
-0.254999
-0.233938
-0.213909
-0.533493
-0.524604
-0.516459
-0.508006
-0.498716
-0.488244
-0.475946
-0.461182
-0.443681
-0.423702
-0.401928
-0.379176
-0.356136
-0.333258
-0.310768
-0.288738
-0.267174
-0.246067
-0.225252
-0.205532
-0.54779
-0.537952
-0.529115
-0.51994
-0.509645
-0.497702
-0.483361
-0.466056
-0.445775
-0.42311
-0.398995
-0.374351
-0.349859
-0.32591
-0.302668
-0.280161
-0.258365
-0.23723
-0.216649
-0.197207
-0.562508
-0.551744
-0.542212
-0.532235
-0.52074
-0.507026
-0.490308
-0.470199
-0.447027
-0.42172
-0.395402
-0.369033
-0.343243
-0.318347
-0.294447
-0.27153
-0.249544
-0.228404
-0.208053
-0.188868
-0.577457
-0.565805
-0.555572
-0.54469
-0.53177
-0.51597
-0.496561
-0.473443
-0.447338
-0.419477
-0.391111
-0.363179
-0.336231
-0.3105
-0.286028
-0.262764
-0.24063
-0.219516
-0.199398
-0.18046
-0.592407
-0.57992
-0.568973
-0.557059
-0.542465
-0.524261
-0.501887
-0.475626
-0.446612
-0.416325
-0.386075
-0.356736
-0.32876
-0.302298
-0.277337
-0.253791
-0.231555
-0.210502
-0.190626
-0.171933
-0.607087
-0.593833
-0.58215
-0.569055
-0.552522
-0.531614
-0.506059
-0.476596
-0.444754
-0.4122
-0.380237
-0.349644
-0.320765
-0.293675
-0.268306
-0.244544
-0.222256
-0.201303
-0.181684
-0.163243
-0.621193
-0.607251
-0.5948
-0.580356
-0.561617
-0.537742
-0.50886
-0.47621
-0.441674
-0.407034
-0.373535
-0.341838
-0.312181
-0.284562
-0.25887
-0.234961
-0.212676
-0.191869
-0.172528
-0.154353
-0.63439
-0.619848
-0.606589
-0.590616
-0.569416
-0.542364
-0.510086
-0.474334
-0.437283
-0.400757
-0.365903
-0.333252
-0.30294
-0.274897
-0.24897
-0.224988
-0.202767
-0.182156
-0.163117
-0.145231
-0.646319
-0.631274
-0.617156
-0.599472
-0.575586
-0.545212
-0.509551
-0.470847
-0.431494
-0.393297
-0.357273
-0.323823
-0.292983
-0.264624
-0.238555
-0.214577
-0.192485
-0.172123
-0.153418
-0.135855
-0.656609
-0.641161
-0.626128
-0.606558
-0.579805
-0.546041
-0.507088
-0.465637
-0.424225
-0.384583
-0.347581
-0.313487
-0.282252
-0.25369
-0.227576
-0.203686
-0.181793
-0.161736
-0.143402
-0.12621
-0.664883
-0.649132
-0.633127
-0.611515
-0.581771
-0.544629
-0.502549
-0.458603
-0.415399
-0.374548
-0.336763
-0.302189
-0.270696
-0.242049
-0.215994
-0.19228
-0.17066
-0.150966
-0.133048
-0.116282
-0.670766
-0.654813
-0.637783
-0.614006
-0.581212
-0.540785
-0.495808
-0.449661
-0.404946
-0.36313
-0.324764
-0.289878
-0.258271
-0.229665
-0.203776
-0.18033
-0.15906
-0.139799
-0.122343
-0.106031
-0.673901
-0.657845
-0.639744
-0.613719
-0.577888
-0.534348
-0.486762
-0.438735
-0.392808
-0.350277
-0.311538
-0.276513
-0.24494
-0.216505
-0.190893
-0.16781
-0.146976
-0.128224
-0.11129
-0.0954034
-0.673954
-0.657889
-0.638687
-0.61038
-0.571601
-0.525189
-0.475329
-0.425769
-0.378937
-0.335948
-0.297046
-0.26206
-0.230676
-0.202544
-0.177325
-0.154702
-0.13439
-0.116237
-0.0998827
-0.0843942
-0.670624
-0.654641
-0.63433
-0.60376
-0.562192
-0.513213
-0.461452
-0.410721
-0.363298
-0.320112
-0.281264
-0.246493
-0.215455
-0.187765
-0.163062
-0.141003
-0.121299
-0.103832
-0.0880389
-0.0731614
-0.66365
-0.647836
-0.626432
-0.593676
-0.549547
-0.498358
-0.445096
-0.393567
-0.34587
-0.302748
-0.26417
-0.229801
-0.199269
-0.172168
-0.148105
-0.126726
-0.107734
-0.0909759
-0.0758008
-0.0616432
-0.652819
-0.637259
-0.614806
-0.579995
-0.533596
-0.480595
-0.426251
-0.374302
-0.326645
-0.283842
-0.245747
-0.211995
-0.182133
-0.155776
-0.132466
-0.11186
-0.0936724
-0.077691
-0.0632017
-0.0498204
-0.63797
-0.622747
-0.59932
-0.56264
-0.514309
-0.459927
-0.404933
-0.352941
-0.305634
-0.263403
-0.226008
-0.193106
-0.164077
-0.138571
-0.116145
-0.0964216
-0.0791248
-0.0639951
-0.0502575
-0.037703
-0.618999
-0.604192
-0.579896
-0.541581
-0.491702
-0.436391
-0.381181
-0.329516
-0.282866
-0.241479
-0.205049
-0.173102
-0.14509
-0.120588
-0.0991644
-0.0804307
-0.0641116
-0.0499075
-0.0369832
-0.0253117
-0.595859
-0.581546
-0.556517
-0.516842
-0.465831
-0.410056
-0.355059
-0.304082
-0.258405
-0.218122
-0.182843
-0.152049
-0.125209
-0.101856
-0.0815545
-0.0639143
-0.0486594
-0.035451
-0.0233998
-0.0126716
-0.568563
-0.55482
-0.529219
-0.488496
-0.436796
-0.381022
-0.32665
-0.276723
-0.232309
-0.193369
-0.159449
-0.129997
-0.104481
-0.0824145
-0.0633523
-0.0469062
-0.0327997
-0.020654
-0.0095361
0.000187665
-0.537182
-0.524081
-0.498095
-0.456673
-0.40474
-0.349401
-0.296056
-0.247528
-0.204656
-0.167294
-0.134935
-0.107005
-0.0829621
-0.0623115
-0.0446017
-0.0294469
-0.0165693
-0.00555151
0.0045713
0.0132299
-0.501841
-0.489449
-0.463299
-0.421561
-0.369813
-0.3153
-0.263422
-0.216611
-0.175548
-0.139988
-0.109382
-0.0831415
-0.0607156
-0.0416043
-0.0253539
-0.0115824
-9.99607e-06
0.00981664
0.0188791
0.0264114
-0.462706
-0.45111
-0.425044
-0.383346
-0.332089
-0.278969
-0.228899
-0.184106
-0.145101
-0.111554
-0.0828835
-0.0584885
-0.0378141
-0.0203578
-0.00566672
0.00663529
0.0168322
0.0254089
0.0333445
0.0396872
-0.419985
-0.409311
-0.383577
-0.3421
-0.291913
-0.240592
-0.192664
-0.150167
-0.113449
-0.0821101
-0.055542
-0.0331372
-0.0143387
0.00135609
0.0143952
0.0251476
0.0339067
0.0411852
0.0479332
0.0530228
-0.373924
-0.364352
-0.33906
-0.298103
-0.249593
-0.200389
-0.154911
-0.11496
-0.0807393
-0.0517849
-0.0274719
-0.00718866
0.00962166
0.0234584
0.0347605
0.0438904
0.0511603
0.0571055
0.0626069
0.0663795
-0.324779
-0.316586
-0.291565
-0.251976
-0.205356
-0.158599
-0.115849
-0.0786695
-0.0471306
-0.0207194
0.00120271
0.0192481
0.033971
0.0458641
0.0553533
0.0627983
0.0685435
0.0731252
0.0772747
0.0796013
-0.272869
-0.266153
-0.241974
-0.203879
-0.159482
-0.115476
-0.0756996
-0.0414878
-0.012794
0.0109359
0.0303491
0.0460561
0.0586064
0.0684823
0.0760949
0.0818114
0.086019
0.0891897
0.0917424
0.0922589
-0.218982
-0.213393
-0.190438
-0.15413
-0.112271
-0.0712856
-0.0346958
-0.0036205
0.0220897
0.0430216
0.0598266
0.0731118
0.0834188
0.0912168
0.0969052
0.100874
0.103549
0.105217
0.105773
0.10399
-0.163268
-0.15882
-0.137307
-0.103079
-0.0640394
-0.0263069
0.00691817
0.0347179
0.0573313
0.0753706
0.0894883
0.100285
0.108293
0.113967
0.117701
0.11992
0.121052
0.121061
0.119322
0.115775
-0.106098
-0.102899
-0.0829852
-0.0510941
-0.0151162
0.0191724
0.0488898
0.0733051
0.0927348
0.10781
0.119182
0.127442
0.133112
0.136631
0.138397
0.138859
0.138383
0.136554
0.132565
0.130344
-0.0479301
-0.0460609
-0.0278915
0.00144611
0.0341627
0.0648573
0.0909603
0.111913
0.128099
0.140162
0.14875
0.154444
0.157753
0.159104
0.158899
0.157587
0.155417
0.151771
0.146349
0.14469
0.0107726
0.0112575
0.0275507
0.0541566
0.0834569
0.110449
0.132867
0.150311
0.163219
0.172247
0.178034
0.181151
0.182093
0.181279
0.17911
0.176012
0.172129
0.166829
0.160333
0.158287
0.0695458
0.0686113
0.0829169
0.106652
0.132425
0.155647
0.174345
0.188264
0.19789
0.203882
0.206872
0.207421
0.206009
0.203046
0.198927
0.194044
0.188472
0.181667
0.174188
0.171289
0.127926
0.125553
0.137784
0.158548
0.180727
0.200152
0.215132
0.22554
0.231904
0.234884
0.235105
0.233112
0.229375
0.224294
0.218251
0.211604
0.204395
0.196179
0.18769
0.183713
0.185452
0.181637
0.191735
0.209466
0.228028
0.243669
0.254965
0.261908
0.265057
0.265074
0.262572
0.258084
0.252068
0.244911
0.236984
0.228613
0.219824
0.210263
0.20074
0.195579
0.241673
0.236426
0.24436
0.259039
0.274
0.285909
0.29359
0.297141
0.297149
0.294274
0.289116
0.282199
0.273965
0.264792
0.255032
0.244989
0.234682
0.223829
0.213265
0.206869
0.296146
0.289494
0.295261
0.306906
0.318325
0.326589
0.330756
0.331018
0.327984
0.32231
0.314586
0.305321
0.294947
0.283829
0.272304
0.260651
0.248893
0.236803
0.225208
0.21756
0.348447
0.340428
0.344056
0.352722
0.360698
0.36544
0.366225
0.363327
0.357374
0.349016
0.338832
0.327321
0.314899
0.301922
0.28871
0.275522
0.262383
0.249118
0.23652
0.227624
0.398169
0.388835
0.390379
0.396161
0.400826
0.402203
0.399766
0.393863
0.385137
0.374231
0.361714
0.348072
0.333711
0.318973
0.304164
0.289526
0.275086
0.260712
0.24715
0.23703
0.444925
0.434344
0.433885
0.436911
0.438434
0.436634
0.431162
0.422434
0.411102
0.397804
0.383098
0.367458
0.351279
0.334892
0.318587
0.302591
0.286936
0.27153
0.257054
0.24575
0.488355
0.476606
0.474253
0.474684
0.473267
0.468504
0.460212
0.44886
0.43511
0.419593
0.402858
0.385367
0.367505
0.349591
0.331903
0.314651
0.297876
0.28152
0.266188
0.253755
0.528128
0.515301
0.511187
0.509213
0.505086
0.497604
0.486727
0.472974
0.457013
0.439468
0.420878
0.401697
0.382298
0.362992
0.344041
0.325644
0.30785
0.290631
0.274512
0.26102
0.563939
0.550139
0.544417
0.540257
0.533678
0.523742
0.510538
0.494625
0.476676
0.457309
0.437054
0.416355
0.395577
0.375021
0.354937
0.335514
0.316809
0.298821
0.281989
0.267523
0.59552
0.580858
0.573705
0.567601
0.55885
0.546748
0.531493
0.513678
0.49398
0.473009
0.45129
0.429256
0.407267
0.385614
0.364536
0.344211
0.324708
0.306048
0.288585
0.273243
0.622635
0.607233
0.598839
0.591057
0.580436
0.566473
0.54946
0.530015
0.508818
0.486476
0.463503
0.44033
0.417305
0.394714
0.372786
0.351691
0.331509
0.312277
0.294272
0.278165
0.645084
0.629072
0.619645
0.610466
0.598295
0.582793
0.564325
0.543536
0.521103
0.49763
0.473625
0.449512
0.425635
0.402272
0.379645
0.357918
0.337178
0.317479
0.299025
0.282274
0.662706
0.646219
0.635979
0.625701
0.612312
0.595603
0.575999
0.554159
0.530762
0.506406
0.481598
0.456753
0.432214
0.40825
0.38508
0.36286
0.341688
0.321626
0.302821
0.285558
0.675376
0.658556
0.647732
0.636662
0.622399
0.604827
0.584412
0.561822
0.537739
0.512757
0.487378
0.462015
0.437005
0.412618
0.389062
0.366494
0.345016
0.3247
0.305646
0.288015
0.683012
0.666003
0.654829
0.643284
0.628498
0.610412
0.589515
0.566484
0.541997
0.516648
0.490935
0.465271
0.439988
0.415353
0.391574
0.368805
0.34715
0.326689
0.307498
0.289659
0.68557
0.668518
0.657233
0.645533
0.630578
0.61233
0.591286
0.568122
0.543517
0.518062
0.492255
0.466506
0.441147
0.416445
0.392606
0.369782
0.34808
0.327586
0.308376
0.290491
0.683046
0.666097
0.654941
0.643405
0.628637
0.610579
0.58972
0.566734
0.542295
0.516996
0.491334
0.465718
0.440483
0.415893
0.392156
0.369424
0.347805
0.327384
0.308252
0.290461
0.675478
0.658778
0.647986
0.636931
0.622701
0.605183
0.584841
0.562338
0.538349
0.513465
0.488185
0.46292
0.438004
0.413704
0.390231
0.367737
0.346328
0.326084
0.307111
0.289558
0.662944
0.646633
0.636436
0.626172
0.612824
0.59619
0.576689
0.554973
0.531712
0.507499
0.482835
0.458133
0.43373
0.409896
0.386845
0.364734
0.343662
0.323701
0.30499
0.287792
0.64556
0.629777
0.620395
0.611221
0.59909
0.583674
0.565332
0.544696
0.522435
0.499143
0.475323
0.451392
0.427692
0.404496
0.382023
0.360436
0.339827
0.320256
0.301916
0.285227
0.623482
0.608357
0.600002
0.592202
0.581609
0.567732
0.550856
0.531586
0.510588
0.488458
0.465703
0.442746
0.419931
0.39754
0.375797
0.35487
0.334845
0.315768
0.297898
0.281855
0.596903
0.582561
0.575428
0.56927
0.560517
0.548487
0.533369
0.515738
0.496255
0.475518
0.454041
0.432252
0.4105
0.389073
0.368205
0.348071
0.328748
0.310265
0.292954
0.277677
0.566052
0.552609
0.546876
0.542606
0.535977
0.526082
0.513
0.497267
0.479538
0.460415
0.440418
0.41998
0.399459
0.379149
0.359295
0.340081
0.321573
0.30378
0.287113
0.272708
0.531194
0.518754
0.514581
0.512421
0.508177
0.500685
0.489897
0.476304
0.460553
0.443251
0.424923
0.40601
0.386879
0.367831
0.349122
0.330947
0.313362
0.296353
0.280407
0.266967
0.492623
0.481282
0.478806
0.478952
0.477326
0.472482
0.464225
0.452997
0.439432
0.424142
0.407659
0.390433
0.372839
0.355188
0.337746
0.320721
0.304163
0.288025
0.272872
0.260475
0.450666
0.440506
0.439842
0.44246
0.443658
0.44168
0.43617
0.427508
0.416318
0.403215
0.388739
0.373348
0.357427
0.341296
0.325235
0.309465
0.294027
0.278844
0.264546
0.253255
0.405676
0.396769
0.398004
0.40323
0.407423
0.408501
0.405928
0.400014
0.391369
0.380609
0.368285
0.354863
0.340738
0.32624
0.311663
0.297241
0.283012
0.268861
0.255471
0.245335
0.358032
0.350435
0.353632
0.361565
0.368893
0.373187
0.373713
0.370704
0.364751
0.356473
0.346428
0.335094
0.322874
0.31011
0.297108
0.28412
0.27118
0.258129
0.245692
0.236742
0.308133
0.301889
0.307085
0.317788
0.328354
0.33599
0.33975
0.339779
0.336643
0.330963
0.323307
0.314162
0.303942
0.292999
0.281653
0.270174
0.258597
0.246708
0.235255
0.227507
0.256396
0.251538
0.258737
0.272239
0.286108
0.297178
0.304276
0.307446
0.307228
0.304244
0.299067
0.292196
0.284055
0.275007
0.265385
0.255481
0.245333
0.234663
0.224211
0.21766
0.203256
0.199798
0.208981
0.22527
0.242467
0.257027
0.267535
0.273924
0.276701
0.276485
0.273857
0.269328
0.263331
0.256237
0.248394
0.240121
0.231462
0.222064
0.212614
0.207225
0.149153
0.147099
0.158217
0.177244
0.197752
0.215822
0.229779
0.239436
0.245258
0.247861
0.247832
0.245693
0.241888
0.236796
0.230774
0.224171
0.217061
0.208998
0.20053
0.196221
0.0945396
0.0938765
0.106854
0.128531
0.152294
0.173852
0.191264
0.204207
0.213099
0.218549
0.22115
0.221431
0.21985
0.216792
0.21262
0.207714
0.202201
0.195559
0.188049
0.184632
0.039867
0.0405686
0.0553057
0.0795064
0.106424
0.131411
0.152249
0.168467
0.180428
0.188729
0.193967
0.196681
0.197339
0.196334
0.19403
0.190826
0.186941
0.181851
0.175366
0.172432
-0.0144129
-0.0123904
0.0039861
0.0305477
0.0604778
0.0887939
0.112994
0.132446
0.147447
0.15858
0.166443
0.171583
0.174478
0.175531
0.175104
0.173597
0.171328
0.167938
0.162777
0.159451
-0.0678511
-0.0645754
-0.0466944
-0.0179706
0.0147873
0.0462927
0.0737551
0.0963696
0.114357
0.128279
0.138734
0.146275
0.151388
0.15449
0.155939
0.156115
0.155391
0.153732
0.150616
0.146124
-0.120002
-0.115571
-0.0963317
-0.0656799
-0.0303197
0.00419552
0.0347867
0.0604619
0.0813556
0.0980011
0.110995
0.120893
0.12819
0.133314
0.136628
0.138484
0.139253
0.139182
0.138176
0.135236
-0.170488
-0.164943
-0.144536
-0.112224
-0.0745237
-0.0372168
-0.00366525
0.0249401
0.0486341
0.067916
0.0833756
0.0955707
0.105001
0.112106
0.117258
0.120789
0.123043
0.124424
0.12528
0.124391
-0.219178
-0.21218
-0.190965
-0.157261
-0.117517
-0.0776736
-0.0413631
-0.00998661
0.0163779
0.0381873
0.0560206
0.0704354
0.0819352
0.0909657
0.0979122
0.1031
0.106838
0.109585
0.111953
0.112725
-0.265335
-0.257013
-0.235429
-0.200482
-0.15901
-0.116917
-0.0780801
-0.0441185
-0.0152365
0.00897117
0.0290683
0.0456098
0.0591
0.0699892
0.0786721
0.085476
0.0906816
0.0947496
0.0984145
0.100546
-0.30865
-0.299251
-0.277174
-0.241734
-0.198733
-0.154703
-0.113602
-0.0772673
-0.0460429
-0.0195851
0.00264908
0.0212091
0.0365981
0.0492673
0.0596175
0.0679804
0.0746205
0.0799794
0.0848495
0.088233
-0.348884
-0.338569
-0.316129
-0.280419
-0.23648
-0.190803
-0.147729
-0.109257
-0.0758862
-0.0473442
-0.0231154
-0.00265879
0.0145254
0.028886
0.0408258
0.0506813
0.0587086
0.0653251
0.0713468
0.0759281
-0.385816
-0.374691
-0.352118
-0.316341
-0.271917
-0.225013
-0.180275
-0.139927
-0.104624
-0.0741798
-0.0481138
-0.0258944
-0.0070291
0.00892496
0.0223697
0.033645
0.0430024
0.0508315
0.0579493
0.0636737
-0.419258
-0.407398
-0.384911
-0.349396
-0.304801
-0.257134
-0.211072
-0.169131
-0.132127
-0.0999774
-0.072246
-0.0484077
-0.0279839
-0.0105423
0.00431573
0.0169321
0.0275554
0.0365431
0.0446971
0.0515083
-0.449059
-0.436532
-0.414323
-0.379405
-0.335027
-0.286974
-0.239975
-0.196742
-0.158284
-0.124632
-0.0954273
-0.0701184
-0.0482655
-0.0294495
-0.0132756
0.000598048
0.0124174
0.0225058
0.0316365
0.0394792
-0.475112
-0.461995
-0.440228
-0.406209
-0.362455
-0.314421
-0.266861
-0.222658
-0.182997
-0.148048
-0.117589
-0.090954
-0.0678087
-0.0477377
-0.0303502
-0.0153075
-0.00236544
0.00876363
0.0188144
0.0276324
-0.497369
-0.483742
-0.462558
-0.429706
-0.386964
-0.339371
-0.291632
-0.246791
-0.206212
-0.17013
-0.138685
-0.110848
-0.0865577
-0.0653556
-0.0468606
-0.03074
-0.0167516
-0.00464348
0.00627142
0.0160077
-0.515836
-0.501783
-0.481297
-0.449846
-0.408478
-0.36174
-0.314213
-0.26907
-0.227875
-0.191037
-0.158486
-0.129737
-0.104466
-0.0822597
-0.0627655
-0.045661
-0.0307045
-0.0176804
-0.00595867
0.00463949
-0.530575
-0.516182
-0.496485
-0.466627
-0.426959
-0.381474
-0.334552
-0.289444
-0.247899
-0.210491
-0.177171
-0.147627
-0.121495
-0.0984157
-0.0780308
-0.060038
-0.0441927
-0.0303154
-0.0178492
-0.00644155
-0.541704
-0.52706
-0.508216
-0.480099
-0.442413
-0.398553
-0.352619
-0.307886
-0.266268
-0.228507
-0.194663
-0.164487
-0.137645
-0.113799
-0.0926273
-0.0738452
-0.0571917
-0.0425183
-0.0293767
-0.0172102
-0.549391
-0.534589
-0.516637
-0.490359
-0.454887
-0.412989
-0.368409
-0.32439
-0.282985
-0.245104
-0.210931
-0.180286
-0.15288
-0.1284
-0.106553
-0.0870628
-0.0696833
-0.0542695
-0.0405082
-0.0276557
-0.553851
-0.538987
-0.521943
-0.497554
-0.46447
-0.424825
-0.381945
-0.338969
-0.298061
-0.260292
-0.225977
-0.195024
-0.167192
-0.142201
-0.119782
-0.0996783
-0.0816614
-0.0655844
-0.0511763
-0.0377967
-0.555341
-0.540514
-0.524374
-0.501878
-0.471293
-0.434141
-0.393272
-0.351655
-0.311518
-0.27409
-0.239821
-0.208714
-0.180588
-0.1552
-0.132307
-0.111677
-0.0930959
-0.0764204
-0.0614274
-0.0476021
-0.554152
-0.539462
-0.524211
-0.503566
-0.475526
-0.441045
-0.402459
-0.362494
-0.323397
-0.286531
-0.252488
-0.221378
-0.193083
-0.167405
-0.144131
-0.123054
-0.103976
-0.0867655
-0.0712548
-0.0569526
-0.550599
-0.536151
-0.521759
-0.502887
-0.477378
-0.445681
-0.409599
-0.371555
-0.333751
-0.297661
-0.264017
-0.233045
-0.2047
-0.178833
-0.155264
-0.133814
-0.114306
-0.0966169
-0.0806318
-0.0658654
-0.545015
-0.530912
-0.517347
-0.500141
-0.477089
-0.44822
-0.41481
-0.378918
-0.342643
-0.307533
-0.274455
-0.243753
-0.215468
-0.189504
-0.16572
-0.143966
-0.124088
-0.105974
-0.0895512
-0.0743725
-0.537742
-0.524084
-0.511313
-0.495647
-0.474929
-0.448863
-0.418228
-0.384681
-0.35015
-0.316214
-0.283858
-0.25355
-0.225423
-0.199445
-0.175517
-0.153521
-0.133329
-0.114838
-0.0980144
-0.0824778
-0.529118
-0.516001
-0.503993
-0.489731
-0.471187
-0.447834
-0.420013
-0.388955
-0.356356
-0.323773
-0.292287
-0.262488
-0.234611
-0.208692
-0.18468
-0.162494
-0.142035
-0.123212
-0.10602
-0.0901682
-0.519471
-0.506984
-0.495715
-0.48272
-0.466161
-0.445377
-0.420342
-0.391864
-0.361354
-0.330287
-0.29981
-0.270627
-0.243078
-0.21728
-0.193237
-0.170905
-0.150218
-0.1311
-0.113567
-0.0974314
-0.509113
-0.497333
-0.486783
-0.474926
-0.460152
-0.441749
-0.41941
-0.393546
-0.365243
-0.335837
-0.306497
-0.278026
-0.250877
-0.225253
-0.201218
-0.178773
-0.15789
-0.138508
-0.120655
-0.10426
-0.498327
-0.487321
-0.477476
-0.466642
-0.453453
-0.437214
-0.417424
-0.394149
-0.36813
-0.340505
-0.312418
-0.284751
-0.258064
-0.232654
-0.208658
-0.186124
-0.165063
-0.145441
-0.127284
-0.110648
-0.48737
-0.477186
-0.468038
-0.458128
-0.446334
-0.432029
-0.4146
-0.393831
-0.370124
-0.344375
-0.317645
-0.290864
-0.264693
-0.239531
-0.215591
-0.192981
-0.171753
-0.151907
-0.133457
-0.116591
-0.476461
-0.467132
-0.458677
-0.44961
-0.439043
-0.426442
-0.411156
-0.39276
-0.371344
-0.347529
-0.322245
-0.296426
-0.27082
-0.245928
-0.222054
-0.199368
-0.177973
-0.157909
-0.139173
-0.122083
-0.465788
-0.457329
-0.449562
-0.441276
-0.43179
-0.420679
-0.407305
-0.391107
-0.37191
-0.350053
-0.326282
-0.301493
-0.276494
-0.25189
-0.22808
-0.205311
-0.183737
-0.163452
-0.144428
-0.127112
-0.455497
-0.447905
-0.440822
-0.43327
-0.424747
-0.414934
-0.403244
-0.389043
-0.371949
-0.35203
-0.329816
-0.306113
-0.281761
-0.257456
-0.233702
-0.21083
-0.189055
-0.168535
-0.149219
-0.131669
-0.445701
-0.438957
-0.432551
-0.425701
-0.418048
-0.409371
-0.39915
-0.386731
-0.371587
-0.353545
-0.332901
-0.310329
-0.286658
-0.262661
-0.238947
-0.215943
-0.193934
-0.173156
-0.153533
-0.135735
-0.436474
-0.430545
-0.424807
-0.418636
-0.411787
-0.404114
-0.395171
-0.384321
-0.370945
-0.354679
-0.335587
-0.314172
-0.291212
-0.267528
-0.243833
-0.220663
-0.198377
-0.177307
-0.157357
-0.13929
-0.427856
-0.4227
-0.417617
-0.412111
-0.406017
-0.399246
-0.391419
-0.381937
-0.370138
-0.355513
-0.337917
-0.317664
-0.295435
-0.272071
-0.248372
-0.224993
-0.20238
-0.18097
-0.160666
-0.142305
-0.419851
-0.415422
-0.410978
-0.406126
-0.400757
-0.394812
-0.38797
-0.379676
-0.36926
-0.356118
-0.33993
-0.320817
-0.299329
-0.276288
-0.252563
-0.228929
-0.205929
-0.184123
-0.163429
-0.144739
-0.412434
-0.408685
-0.404863
-0.400658
-0.395992
-0.390818
-0.384856
-0.377596
-0.368382
-0.356554
-0.341659
-0.323635
-0.302882
-0.280164
-0.256391
-0.232454
-0.209001
-0.186731
-0.165601
-0.146545
-0.405554
-0.402441
-0.399225
-0.395657
-0.391676
-0.387234
-0.38207
-0.375716
-0.36754
-0.35686
-0.343125
-0.326116
-0.306073
-0.283671
-0.259827
-0.235538
-0.211561
-0.188748
-0.167124
-0.147653
-0.399138
-0.396627
-0.393998
-0.391055
-0.387742
-0.383997
-0.37957
-0.374018
-0.36674
-0.357051
-0.344336
-0.32825
-0.308875
-0.286773
-0.262834
-0.238142
-0.213566
-0.190116
-0.16792
-0.14799
-0.393106
-0.391173
-0.389112
-0.386774
-0.384106
-0.381025
-0.377279
-0.372446
-0.365949
-0.357113
-0.345286
-0.330022
-0.311259
-0.289429
-0.26537
-0.240222
-0.214966
-0.190776
-0.167905
-0.147433
-0.387375
-0.386008
-0.384493
-0.382734
-0.380678
-0.378221
-0.375105
-0.370918
-0.365106
-0.357007
-0.345949
-0.331409
-0.313196
-0.291607
-0.267399
-0.24174
-0.21572
-0.190662
-0.166994
-0.145907
-0.381877
-0.381071
-0.38008
-0.378863
-0.377376
-0.375492
-0.372949
-0.369342
-0.364133
-0.356676
-0.346286
-0.332383
-0.314663
-0.293284
-0.268904
-0.24268
-0.215807
-0.189763
-0.165128
-0.143255
-0.376561
-0.376318
-0.375824
-0.375106
-0.374132
-0.372761
-0.370727
-0.367633
-0.362954
-0.356057
-0.346256
-0.33292
-0.315648
-0.294461
-0.269898
-0.243064
-0.215267
-0.188042
-0.162621
-0.139476
-0.371407
-0.37173
-0.371703
-0.371432
-0.370909
-0.369981
-0.368384
-0.365731
-0.361513
-0.355107
-0.345826
-0.333005
-0.316155
-0.29516
-0.270431
-0.242963
-0.214218
-0.185578
-0.159446
-0.134819
-0.366426
-0.367315
-0.36772
-0.367841
-0.367699
-0.36714
-0.365906
-0.363622
-0.359794
-0.353816
-0.345
-0.332656
-0.316217
-0.295439
-0.270596
-0.242508
-0.21285
-0.182507
-0.155685
-0.129258
-0.361663
-0.363107
-0.363909
-0.364363
-0.364534
-0.36427
-0.363324
-0.361338
-0.357836
-0.352228
-0.343831
-0.331936
-0.315915
-0.295404
-0.270534
-0.241896
-0.211437
-0.179075
-0.151717
-0.122662
-0.357191
-0.359171
-0.360327
-0.361058
-0.361476
-0.361439
-0.360715
-0.358966
-0.355733
-0.350448
-0.342435
-0.330975
-0.315392
-0.29522
-0.270445
-0.241404
-0.210321
-0.175702
-0.148126
-0.115389
-0.353107
-0.355589
-0.357055
-0.358009
-0.358616
-0.358748
-0.358192
-0.356631
-0.353629
-0.348635
-0.34099
-0.329969
-0.314865
-0.295127
-0.270599
-0.241389
-0.209879
-0.173045
-0.145525
-0.10812
-0.34952
-0.352459
-0.354188
-0.355316
-0.356063
-0.356317
-0.355891
-0.354489
-0.351699
-0.34699
-0.33972
-0.329171
-0.314614
-0.295437
-0.27134
-0.24228
-0.210536
-0.171961
-0.144416
-0.101861
-0.346547
-0.349883
-0.351828
-0.353086
-0.353931
-0.354276
-0.353957
-0.352705
-0.350131
-0.345726
-0.338873
-0.328863
-0.31496
-0.296511
-0.273077
-0.244534
-0.212827
-0.173315
-0.145321
-0.0984799
-0.344298
-0.347962
-0.350074
-0.351422
-0.352334
-0.352749
-0.35253
-0.351435
-0.349102
-0.345049
-0.338684
-0.329319
-0.316219
-0.298699
-0.276232
-0.248606
-0.217439
-0.177711
-0.148934
-0.0994019
-0.34287
-0.346783
-0.349012
-0.350417
-0.351372
-0.351845
-0.35173
-0.350815
-0.348766
-0.345133
-0.339355
-0.330772
-0.318665
-0.302327
-0.281153
-0.254949
-0.225024
-0.185461
-0.156153
-0.105557
-0.342341
-0.346416
-0.348714
-0.350143
-0.351122
-0.35165
-0.351653
-0.35095
-0.34924
-0.346109
-0.341035
-0.333395
-0.322496
-0.307625
-0.288132
-0.263706
-0.234674
-0.198371
-0.167654
-0.117294
-0.342758
-0.346906
-0.349223
-0.350648
-0.351638