/*--------------------------------*- C++ -*----------------------------------*\
  =========                 |
  \\      /  F ield         | OpenFOAM: The Open Source CFD Toolbox
   \\    /   O peration     | Website:  https://openfoam.org
    \\  /    A nd           | Version:  7
     \\/     M anipulation  |
\*---------------------------------------------------------------------------*/
FoamFile
{
    version     2.0;
    format      ascii;
    class       surfaceScalarField;
    location    "18";
    object      phi;
}
// * * * * * * * * * * * * * * * * * * * * * * * * * * * * * * * * * * * * * //

dimensions      [0 3 -1 0 0 0 0];

internalField   nonuniform List<scalar> 
825
(
-0.00138845
0.00978171
-0.00183135
-0.00978457
0.00978022
-0.00172893
0.00978031
-0.00162051
0.00978219
-0.00150806
-0.00139225
0.0101588
-0.00182223
-0.0101679
0.0101513
-0.00172142
0.0101456
-0.00161483
0.010142
-0.00150442
-0.00139077
0.0105419
-0.00180723
-0.0105569
0.0105287
-0.00170825
0.0105176
-0.00160375
0.0105088
-0.0014956
-0.00138434
0.0109315
-0.00178669
-0.010952
0.010913
-0.00168976
0.0108968
-0.00158757
0.0108831
-0.00148189
-0.00137322
0.0113282
-0.00176091
-0.0113539
0.0113047
-0.00166625
0.0112837
-0.00156658
0.0112654
-0.00146358
-0.00135769
0.0117325
-0.00173019
-0.0117632
0.0117043
-0.001638
0.0116787
-0.00154104
0.0116561
-0.0014409
-0.00133798
0.0121451
-0.00169481
-0.0121805
0.0121124
-0.00160526
0.0120825
-0.0015112
0.0120557
-0.00141409
-0.00131429
0.0125666
-0.00165499
-0.0126064
0.0125296
-0.00156826
0.0124957
-0.00147726
0.0124649
-0.00138334
-0.00128682
0.0129977
-0.00161097
-0.0130417
0.0129566
-0.00152721
0.0129188
-0.00143942
0.0128843
-0.00134883
-0.00125574
0.013439
-0.00156293
-0.0134871
0.0133941
-0.00148229
0.0133525
-0.00139785
0.0133144
-0.00131074
-0.00122121
0.0138915
-0.00151105
-0.0139433
0.0138428
-0.00143367
0.0137977
-0.00135271
0.0137562
-0.00126919
-0.00118336
0.0143558
-0.00145549
-0.0144114
0.0143036
-0.00138149
0.0142551
-0.00130414
0.0142102
-0.00122433
-0.0011423
0.014833
-0.00139637
-0.0148921
0.0147774
-0.00132588
0.0147255
-0.00125223
0.0146774
-0.00117626
-0.00109816
0.015324
-0.0013338
-0.0153866
0.015265
-0.00126693
0.0152099
-0.0011971
0.0151587
-0.00112507
-0.001051
0.0158298
-0.00126788
-0.0158957
0.0157676
-0.00120473
0.0157093
-0.00113883
0.0156551
-0.00107084
-0.00100091
0.0163516
-0.00119867
-0.0164208
0.0162862
-0.00113934
0.0162248
-0.00107747
0.0161676
-0.00101362
-0.000947937
0.0168905
-0.00112622
-0.0169629
0.0168219
-0.00107082
0.0167575
-0.00101306
0.0166974
-0.000953457
-0.000892129
0.0174477
-0.00105056
-0.0175234
0.0173761
-0.000999184
0.0173087
-0.000945645
0.0172456
-0.000890384
-0.000833511
0.0180247
-0.000971702
-0.0181035
0.0179499
-0.000924452
0.0178795
-0.000875226
0.0178135
-0.00082441
-0.000772098
0.0186227
-0.000889643
-0.0187047
0.0185448
-0.000846617
0.0184714
-0.000801805
0.0184025
-0.000755535
-0.000707891
0.0192433
-0.000804361
-0.0193286
0.0191623
-0.000765662
0.0190859
-0.000725363
0.0190141
-0.000683746
-0.000640882
0.0198881
-0.000715822
-0.0199766
0.019804
-0.000681554
0.0197245
-0.000645874
0.0196498
-0.000609018
-0.000571049
0.0205588
-0.00062398
-0.0206506
0.0204715
-0.00059425
0.0203889
-0.000563298
0.0203112
-0.000531318
-0.000498363
0.0212571
-0.000528777
-0.0213523
0.0211666
-0.000503698
0.0210809
-0.000477587
0.0210001
-0.000450602
-0.000422788
0.0219852
-0.000430151
-0.0220838
0.0218913
-0.000409837
0.0218024
-0.000388686
0.0217186
-0.000366823
-0.00034428
0.022745
-0.000328029
-0.0228472
0.0226478
-0.000312603
0.0225556
-0.000296538
0.0224688
-0.000279927
-0.000262795
0.0235391
-0.000222342
-0.0236448
0.0234384
-0.000211927
0.023343
-0.000201079
0.0232529
-0.000189859
-0.000178283
0.0243699
-0.000113015
-0.0244792
0.0242657
-0.000107744
0.0241669
-0.000102251
0.0240736
-9.65668e-05
-9.07006e-05
0.0252406
-0.0253536
0.0251328
0.0250306
0.024934
0.00897563
0.00158729
0.00896077
0.00232748
0.00896546
0.00288813
0.00900448
0.00331522
0.00908525
0.00357654
0.0092139
0.00368454
0.00937985
0.00364268
0.00957343
0.00343848
0.00323275
0.00932365
0.000629889
0.00931096
0.00159998
0.00930677
0.00233167
0.00932447
0.00287043
0.00937777
0.00326192
0.00947112
0.0034832
0.00960804
0.00354762
0.009777
0.00347372
0.00996617
0.0032493
0.00303098
0.00966406
0.000633622
0.0096584
0.00160564
0.00966493
0.00232514
0.00969534
0.00284002
0.00976189
0.00319538
0.00986642
0.00337866
0.0100098
0.00340423
0.0101802
0.00330329
0.0103645
0.00306505
0.00283858
0.0100168
0.000634487
0.0100183
0.00160412
0.0100354
0.00230797
0.0100781
0.00279733
0.0101568
0.00311672
0.0102711
0.00326439
0.0104193
0.003256
0.0105898
0.00313275
0.0107688
0.00288608
0.00265536
0.0103822
0.000632436
0.0103909
0.00159534
0.0104185
0.0022804
0.0104729
0.00274296
0.0105625
0.00302713
0.0106851
0.00314182
0.0108367
0.00310437
0.0110062
0.00296326
0.0111796
0.00271264
0.00248102
0.0107607
0.00062746
0.0107767
0.00157932
0.0108144
0.00224274
0.0108798
0.00267758
0.010979
0.00292785
0.0111085
0.00301238
0.0112622
0.00295063
0.0114297
0.0027958
0.0115974
0.00254493
0.00231518
0.0111528
0.000619582
0.011176
0.00155614
0.0112233
0.00219545
0.0112988
0.002602
0.0114066
0.00282011
0.0115415
0.00287747
0.0116962
0.00279588
0.0118609
0.00263115
0.0120228
0.00238304
0.00215747
0.0115589
0.000608862
0.0115891
0.00152597
0.0116455
0.00213906
0.0117304
0.00251711
0.0118454
0.00270512
0.0119844
0.00273838
0.0121392
0.00264112
0.0123004
0.00246992
0.0124564
0.00222702
0.00200749
0.0119796
0.000595389
0.0120165
0.00148907
0.0120813
0.0020742
0.0121746
0.00242386
0.0122956
0.00258408
0.0124377
0.00259634
0.0125916
0.00248718
0.0127489
0.0023126
0.0128991
0.00207688
0.00186485
0.0124152
0.000579284
0.0124585
0.00144576
0.0125311
0.00200156
0.0126318
0.00232324
0.0127577
0.00245813
0.0129016
0.00245243
0.013054
0.0023348
0.0132071
0.00215953
0.0133514
0.00193255
0.00172918
0.0128663
0.000560695
0.0129156
0.00139645
0.0129953
0.00192186
0.0131023
0.00221626
0.0132321
0.00232833
0.0133769
0.00230766
0.0135271
0.00218459
0.0136757
0.00201097
0.0138143
0.00179395
0.00160012
0.0133335
0.000539789
0.0133884
0.00134158
0.0134744
0.00183588
0.0135867
0.00210394
0.0137193
0.0021957
0.0138641
0.00216289
0.0140117
0.00203704
0.0141556
0.00186707
0.0142886
0.00166095
0.0014773
0.0138174
0.000516755
0.0138773
0.00128166
0.0139688
0.00174442
0.0140855
0.00198725
0.01422
0.00206117
0.014364
0.00201887
0.0145085
0.00189257
0.0146476
0.00172792
0.0147752
0.00153339
0.00136039
0.0143185
0.000491792
0.0143829
0.00121722
0.0144791
0.00164827
0.0145992
0.00186713
0.0147348
0.00192557
0.0148774
0.00187622
0.0150185
0.00175148
0.0151529
0.00159353
0.0152752
0.00141108
0.00124905
0.0148374
0.00046511
0.0149058
0.00114883
0.0150059
0.00154819
0.0151285
0.00174447
0.0152645
0.00178965
0.0154052
0.00173548
0.0155427
0.00161399
0.0156724
0.00146387
0.0157896
0.00129382
0.00114293
0.0153749
0.00043692
0.0154467
0.00107703
0.0155499
0.00144495
0.0156743
0.00162005
0.0158099
0.00165405
0.0159484
0.00159704
0.0160821
0.00148023
0.0162071
0.00133884
0.0163196
0.00118137
0.00104172
0.0159315
0.00040743
0.0160061
0.00100237
0.0161119
0.00133922
0.0162373
0.00149459
0.0163721
0.00151931
0.0165079
0.00146122
0.0166379
0.00135027
0.0167584
0.0012183
0.0168663
0.00107348
0.000945073
0.016508
0.000376842
0.016585
0.000925372
0.0166926
0.00123164
0.0168185
0.00136869
0.0169519
0.00138586
0.017085
0.00132819
0.0172111
0.00122408
0.0173274
0.00110207
0.017431
0.000969887
0.000852662
0.0171051
0.000345342
0.017184
0.000846496
0.0172929
0.00112275
0.0174187
0.00124286
0.0175506
0.00125399
0.0176807
0.00119808
0.0178032
0.00110158
0.0179154
0.000989917
0.018015
0.000870279
0.000764143
0.0177237
0.000313096
0.017804
0.000766161
0.0179138
0.00101302
0.0180392
0.00111746
0.0181692
0.00112392
0.0182965
0.00107085
0.0184154
0.000982599
0.0185238
0.000881552
0.0186198
0.000774334
0.000679161
0.0183645
0.000280246
0.0184459
0.000684707
0.0185562
0.000902793
0.0186809
0.000992751
0.0188091
0.000995717
0.0189335
0.000946421
0.0190492
0.000866892
0.0191541
0.000776652
0.0192468
0.000681695
0.000597346
0.0190283
0.000246901
0.0191106
0.000602391
0.0192211
0.000792301
0.019345
0.000868839
0.0194714
0.000869321
0.0195933
0.000824568
0.019706
0.000754141
0.0198079
0.000674831
0.0198976
0.000591968
0.000518303
0.0197161
0.000213134
0.0197991
0.000519372
0.0199097
0.000681646
0.0200329
0.000745693
0.0201577
0.000744549
0.0202773
0.000704971
0.0203875
0.000643941
0.0204866
0.000575643
0.0205739
0.000504715
0.000441606
0.0204287
0.000178977
0.0205123
0.000435701
0.0206232
0.000570784
0.0207458
0.000623128
0.0208692
0.000621075
0.020987
0.000587192
0.0210952
0.000535796
0.0211922
0.000478574
0.0212775
0.000419445
0.00036679
0.0211671
0.000144413
0.0212515
0.000351306
0.0213627
0.000459518
0.0214851
0.000500792
0.0216077
0.000498416
0.0217243
0.000470659
0.0218309
0.000429103
0.0219265
0.000383022
0.0220103
0.0003356
0.000293334
0.0219322
0.000109376
0.0220175
0.000265985
0.0221296
0.000347476
0.0222522
0.000378153
0.0223747
0.000375924
0.0224907
0.000354658
0.0225967
0.000323135
0.0226914
0.000288288
0.0227745
0.000252541
0.000220663
0.0227252
7.37415e-05
0.0228118
0.000179389
0.0229251
0.000234101
0.0230488
0.000254479
0.023172
0.000252761
0.0232883
0.000238304
0.0233945
0.000217024
0.0234892
0.000193553
0.0235722
0.000169526
0.000148083
0.023547
3.73202e-05
0.0236354
9.10243e-05
0.0237508
0.000118627
0.0238765
0.000128817
0.0240014
0.000127873
0.0241192
0.000120514
0.0242265
0.000109723
0.0243222
9.78402e-05
0.024406
8.56901e-05
7.48673e-05
0.0243986
0.0244897
0.0246083
0.0247371
0.024865
0.0249855
0.0250952
0.025193
0.0252787
)
;

boundaryField
{
    inlet
    {
        type            calculated;
        value           nonuniform List<scalar> 
28
(
-0.00933018
-0.00966779
-0.0100176
-0.0103801
-0.0107557
-0.0111449
-0.0115482
-0.0119661
-0.0123991
-0.0128477
-0.0133126
-0.0137944
-0.0142935
-0.0148107
-0.0153467
-0.015902
-0.0164774
-0.0170736
-0.0176915
-0.0183316
-0.018995
-0.0196823
-0.0203945
-0.0211325
-0.0218972
-0.0226895
-0.0235106
-0.0243613
)
;
    }
    outlet
    {
        type            calculated;
        value           nonuniform 0();
    }
    cylinder
    {
        type            calculated;
        value           nonuniform 0();
    }
    top
    {
        type            symmetryPlane;
        value           uniform 0;
    }
    bottom
    {
        type            symmetryPlane;
        value           nonuniform 0();
    }
    defaultFaces
    {
        type            empty;
        value           nonuniform 0();
    }
    procBoundary30to24
    {
        type            processor;
        value           nonuniform List<scalar> 
17
(
0.00137901
0.00183421
0.00173042
0.00162041
-0.00942882
0.00150619
-0.00156777
-0.00231262
-0.00289282
-0.00335423
-0.00365732
-0.00381319
-0.00380862
-0.00363205
-0.00344388
-0.00899515
-0.000623367
)
;
    }
    procBoundary30to31
    {
        type            processor;
        value           nonuniform List<scalar> 
30
(
0.00943826
0.00978599
0.0101405
0.0105024
0.010872
0.0112498
0.0116363
0.012032
0.0124375
0.0128532
0.0132799
0.0137183
0.0141691
0.0146333
0.0151116
0.015605
0.0161146
0.0166416
0.017187
0.0177521
0.0183383
0.0189471
0.0195799
0.0202385
0.0209246
0.0216401
0.0223873
0.0231684
0.023986
0.0248433
)
;
    }
}


// ************************************************************************* //
