/*--------------------------------*- C++ -*----------------------------------*\
  =========                 |
  \\      /  F ield         | OpenFOAM: The Open Source CFD Toolbox
   \\    /   O peration     | Website:  https://openfoam.org
    \\  /    A nd           | Version:  7
     \\/     M anipulation  |
\*---------------------------------------------------------------------------*/
FoamFile
{
    version     2.0;
    format      ascii;
    class       volVectorField;
    location    "10";
    object      U;
}
// * * * * * * * * * * * * * * * * * * * * * * * * * * * * * * * * * * * * * //

dimensions      [0 1 -1 0 0 0 0];

internalField   nonuniform List<vector> 
433
(
(0.000648484 -0.000495202 2.96632e-20)
(0.0174466 -0.0053415 -2.31619e-21)
(0.0521957 -0.0161332 1.40227e-20)
(0.0875663 -0.0274387 -2.6744e-20)
(0.123535 -0.0392509 -1.7372e-20)
(0.160077 -0.0515586 1.50394e-20)
(0.0170247 -0.00449492 -1.63387e-20)
(0.0509739 -0.0136221 2.71434e-20)
(0.0855752 -0.0232689 -1.77666e-20)
(0.12081 -0.033432 -7.44926e-22)
(0.156657 -0.0441036 -3.32583e-20)
(0.193085 -0.0552867 1.28084e-20)
(0.23006 -0.0669831 2.85341e-20)
(0.267542 -0.0791897 -5.46642e-21)
(0.305485 -0.0918984 -9.00251e-22)
(0.343839 -0.105096 -1.53086e-20)
(0.382545 -0.118764 3.94967e-20)
(0.421541 -0.132876 -8.10457e-20)
(0.460754 -0.147401 6.63626e-20)
(0.500106 -0.1623 9.43061e-21)
(0.539508 -0.177523 -6.67012e-20)
(0.578865 -0.193015 4.03793e-20)
(0.0165187 -0.00367949 -1.79924e-20)
(0.0495009 -0.0111996 3.06036e-20)
(0.0831647 -0.0192398 -2.68232e-20)
(0.117496 -0.0277998 3.27686e-20)
(0.152478 -0.0368755 -3.59486e-20)
(0.188084 -0.0464746 3.35289e-20)
(0.224287 -0.0566045 -2.62716e-20)
(0.261052 -0.0672678 -1.82215e-20)
(0.298339 -0.0784626 5.77907e-20)
(0.336103 -0.0901825 -3.34159e-20)
(0.374294 -0.102416 -2.10305e-20)
(0.412852 -0.115144 1.31049e-20)
(0.451713 -0.128344 -1.65613e-21)
(0.490803 -0.141984 -2.57704e-20)
(0.530041 -0.156025 4.01148e-20)
(0.569336 -0.170418 -1.17879e-20)
(0.60859 -0.185109 -1.61578e-20)
(0.647693 -0.200032 -8.94605e-21)
(0.015936 -0.00290335 5.37758e-21)
(0.0477983 -0.00888976 5.64344e-20)
(0.0803697 -0.0153915 -4.61023e-20)
(0.11364 -0.0224111 1.11269e-20)
(0.147598 -0.0299473 -1.18032e-20)
(0.182223 -0.0380123 2.76592e-20)
(0.217492 -0.0466182 -6.78592e-21)
(0.253376 -0.055773 -4.62156e-21)
(0.289843 -0.0654807 -5.17103e-21)
(0.326853 -0.0757407 -4.54967e-22)
(0.364363 -0.0865479 -2.02299e-20)
(0.40232 -0.0978919 3.19797e-20)
(0.440665 -0.109756 3.12168e-20)
(0.479333 -0.122116 -1.86572e-20)
(0.518248 -0.134943 2.20906e-20)
(0.557325 -0.148196 -5.69048e-21)
(0.596473 -0.16183 -2.77641e-20)
(0.0152849 -0.00217363 2.59751e-21)
(0.0458904 -0.00671414 3.74953e-21)
(0.0772297 -0.0117601 -2.23213e-22)
(0.109298 -0.0173163 -2.54101e-21)
(0.142086 -0.0233842 1.48754e-21)
(0.175581 -0.0299796 4.61928e-21)
(0.209766 -0.0371192 -1.20054e-20)
(0.244617 -0.0448155 3.80821e-20)
(0.280109 -0.0530776 -3.05786e-20)
(0.31621 -0.0619106 2.14633e-20)
(0.35288 -0.0713155 -2.5615e-20)
(0.390077 -0.0812884 2.05075e-20)
(0.427748 -0.0918198 -1.30619e-20)
(0.465834 -0.102894 1.0961e-20)
(0.504267 -0.114488 -9.25497e-21)
(0.542971 -0.126571 -5.46593e-21)
(0.581858 -0.139106 2.79927e-20)
(0.0145746 -0.00149645 -9.52036e-21)
(0.0438033 -0.00469106 -3.32765e-21)
(0.0737874 -0.00837641 1.65612e-20)
(0.104526 -0.0125591 -2.6813e-20)
(0.136015 -0.0172429 1.05718e-20)
(0.168248 -0.0224469 1.23648e-20)
(0.201212 -0.0281912 -1.23359e-20)
(0.23489 -0.0344927 -1.44967e-21)
(0.269264 -0.0413648 8.99457e-22)
(0.304308 -0.0488176 4.76441e-21)
(0.339992 -0.0568578 4.32531e-21)
(0.376277 -0.0654874 4.21221e-21)
(0.41312 -0.0747033 -1.47315e-20)
(0.450469 -0.084497 1.57915e-20)
(0.488265 -0.0948534 -3.87013e-21)
(0.526437 -0.10575 -1.29965e-20)
(0.564908 -0.117158 7.20518e-21)
(0.0138143 -0.00087675 -4.61268e-21)
(0.0415647 -0.00283559 1.9395e-21)
(0.070088 -0.00526598 -1.25009e-21)
(0.0993878 -0.00817602 1.55135e-21)
(0.129465 -0.0115713 -1.31422e-20)
(0.160317 -0.0154735 3.75578e-21)
(0.191938 -0.0199058 1.27203e-20)
(0.224318 -0.0248884 -8.43485e-21)
(0.257444 -0.0304387 -3.79827e-21)
(0.291298 -0.0365713 6.26749e-21)
(0.325855 -0.0432974 -6.40835e-21)
(0.361087 -0.0506246 -6.89066e-21)
(0.396956 -0.0585559 -2.97808e-21)
(0.43342 -0.067089 8.1961e-21)
(0.470427 -0.0762162 6.52291e-21)
(0.507915 -0.0859229 -1.26135e-20)
(0.545814 -0.0961877 1.78465e-21)
(0.0130139 -0.000318353 -1.7505e-21)
(0.039203 -0.00115945 6.80647e-21)
(0.0661786 -0.00244892 -1.81458e-21)
(0.0939481 -0.00419598 4.08618e-22)
(0.122517 -0.00640764 -2.94142e-21)
(0.151888 -0.00910748 2.44552e-21)
(0.18206 -0.0123212 -5.62237e-21)
(0.213031 -0.0160719 6.49391e-21)
(0.244793 -0.0203799 -7.21834e-21)
(0.277335 -0.0252637 6.69989e-21)
(0.310641 -0.0307386 -5.16197e-21)
(0.344688 -0.0368169 3.78643e-22)
(0.379448 -0.0435069 5.71901e-21)
(0.414885 -0.0508124 -2.81921e-21)
(0.450958 -0.0587319 5.94918e-21)
(0.487612 -0.067258 -8.40384e-21)
(0.0121831 0.000176097 1.86724e-21)
(0.036747 0.000329063 -6.57524e-21)
(0.0621065 6.02667e-05 1.65142e-21)
(0.0882727 -0.000640226 7.58633e-22)
(0.115255 -0.00178045 2.82848e-21)
(0.143061 -0.0033854 -2.27615e-21)
(0.171696 -0.00548262 5.99378e-21)
(0.201163 -0.00809721 -6.1391e-21)
(0.231461 -0.0112522 6.60477e-21)
(0.262585 -0.014969 -6.5637e-21)
(0.294526 -0.0192664 5.85614e-21)
(0.327269 -0.0241608 1.55651e-21)
(0.360795 -0.029665 -4.89671e-21)
(0.395076 -0.0357879 2.65002e-21)
(0.430077 -0.042534 -6.37074e-21)
(0.465756 -0.0499022 9.36768e-21)
(0.0113316 0.000605096 5.32748e-21)
(0.0342257 0.001625 -1.15229e-21)
(0.0579194 0.0022526 2.78461e-22)
(0.0824275 0.00247759 -3.86754e-21)
(0.107763 0.00229131 1.36451e-20)
(0.133939 0.00166786 -1.42931e-20)
(0.160965 0.000578528 -3.27136e-21)
(0.18885 -0.0010033 8.28168e-21)
(0.217599 -0.0031026 4.11288e-21)
(0.247214 -0.00574294 -6.30602e-21)
(0.277693 -0.00894614 2.48657e-21)
(0.309028 -0.0127317 4.75492e-22)
(0.341207 -0.0171163 1.81905e-21)
(0.374211 -0.0221134 -1.1917e-20)
(0.408015 -0.0277323 -4.03317e-21)
(0.442584 -0.0339779 9.50745e-21)
(0.477877 -0.04085 8.5511e-22)
(0.010469 0.000968236 8.45005e-21)
(0.0316668 0.00272664 4.56453e-21)
(0.0536637 0.00412442 -1.78446e-20)
(0.0764773 0.00515121 2.90277e-20)
(0.100124 0.00579807 -1.20683e-20)
(0.124622 0.00603873 -1.4901e-20)
(0.149985 0.00584387 1.734e-20)
(0.176227 0.00518596 -2.3492e-21)
(0.20336 0.00403876 -2.19105e-20)
(0.231392 0.00237703 1.93311e-20)
(0.260325 0.000176868 -6.22092e-21)
(0.290162 -0.00258381 1.4614e-21)
(0.320896 -0.00592478 1.50546e-20)
(0.352517 -0.00986308 -2.38561e-20)
(0.385009 -0.0144124 7.12695e-21)
(0.418346 -0.0195826 1.82196e-20)
(0.452495 -0.0253789 -3.86124e-21)
(0.00960416 0.00126614 -2.65667e-21)
(0.0290974 0.00363531 -6.84887e-21)
(0.049384 0.00567711 7.39816e-22)
(0.0704845 0.0073814 -1.14974e-21)
(0.0924186 0.00873926 4.12603e-21)
(0.115207 0.00972454 -9.04403e-22)
(0.138871 0.0103079 9.47994e-21)
(0.163428 0.0104613 -3.39408e-20)
(0.188894 0.010158 3.85527e-20)
(0.215283 0.00937162 -2.55886e-20)
(0.242605 0.0080769 3.96621e-20)
(0.270868 0.00624986 -2.0968e-20)
(0.300074 0.00386836 8.73563e-21)
(0.33022 0.000912494 -7.54428e-21)
(0.361298 -0.00263493 1.31476e-20)
(0.393291 -0.00678784 2.69172e-21)
(0.426178 -0.0115564 -3.72131e-20)
(0.00874571 0.00150035 -4.75093e-21)
(0.0265426 0.00435514 -5.9297e-20)
(0.0451225 0.00691671 5.19337e-20)
(0.0645083 0.00917542 -5.54032e-21)
(0.0847223 0.0111226 8.19755e-21)
(0.105789 0.0127328 -3.17082e-20)
(0.127734 0.0139769 7.23307e-21)
(0.150578 0.0148272 1.44757e-21)
(0.174343 0.0152568 9.36714e-21)
(0.199049 0.0152388 6.80559e-21)
(0.22471 0.0147472 2.38296e-20)
(0.251342 0.0137568 -3.57035e-20)
(0.278951 0.0122438 -2.64566e-20)
(0.307545 0.0101862 3.78301e-20)
(0.337121 0.00756416 -4.13374e-20)
(0.367674 0.00436034 1.74584e-20)
(0.399189 0.000560729 2.94969e-20)
(0.00790144 0.00167327 1.9491e-20)
(0.0240261 0.00489275 -4.26981e-20)
(0.0409186 0.00785343 3.32165e-20)
(0.058604 0.0105464 -4.28863e-20)
(0.0771069 0.0129636 4.25409e-20)
(0.0964553 0.0150803 -4.01449e-20)
(0.116677 0.0168686 2.55551e-20)
(0.137799 0.0183011 1.63889e-20)
(0.159846 0.0193514 -6.80196e-20)
(0.182843 0.0199927 7.12779e-20)
(0.20681 0.0201988 -6.46461e-20)
(0.231767 0.019944 3.42899e-20)
(0.257729 0.0192034 -2.65113e-22)
(0.284709 0.0179538 2.00806e-20)
(0.312712 0.0161731 -5.42001e-20)
(0.341741 0.0138417 1.45725e-21)
(0.371791 0.0109423 2.12179e-20)
(0.402848 0.00746103 1.0556e-20)
(0.00707841 0.001788 1.81138e-20)
(0.0215689 0.00525692 -2.86732e-20)
(0.0368079 0.00850116 1.97684e-20)
(0.052822 0.0115127 3.04378e-21)
(0.0696378 0.0142842 4.3172e-20)
(0.087286 0.0167924 -1.76761e-20)
(0.105798 0.0190103 -2.91819e-20)
(0.125203 0.0209118 1.17362e-20)
(0.145531 0.0224712 -7.93581e-21)
(0.16681 0.0236625 2.27363e-20)
(0.189065 0.0244596 -5.37859e-20)
(0.212322 0.0248369 9.00434e-20)
(0.236601 0.0247692 -8.17944e-20)
(0.261921 0.0242324 -1.16387e-20)
(0.288295 0.0232033 9.72358e-20)
(0.315733 0.0216605 -4.66721e-20)
(0.344239 0.0195846 2.39328e-20)
(0.373808 0.0169585 -1.27729e-19)
(0.404431 0.0137681 7.8273e-20)
(0.00628286 0.00184824 6.30122e-21)
(0.01919 0.00545828 -2.04889e-20)
(0.0328223 0.00887687 3.6403e-20)
(0.0472076 0.0120971 2.21343e-20)
(0.0623741 0.0151125 -2.15846e-20)
(0.0783547 0.0179014 -3.89759e-21)
(0.0951831 0.0204383 3.45533e-20)
(0.112892 0.0226987 -8.02378e-20)
(0.131515 0.024658 4.83023e-20)
(0.151082 0.026291 -2.91904e-20)
(0.171625 0.0275727 2.80136e-20)
(0.193171 0.028478 2.18861e-20)
(0.215748 0.0289817 -3.9469e-20)
(0.239379 0.0290598 8.84342e-20)
(0.264084 0.0286884 -1.27188e-19)
(0.28988 0.0278451 1.31633e-19)
(0.316778 0.0265089 -1.23548e-20)
(0.344784 0.0246607 -3.51219e-20)
(0.373896 0.0222836 3.63477e-20)
(0.00552021 0.00185819 -1.06675e-20)
(0.0169059 0.00550892 -4.66451e-20)
(0.0289898 0.00900013 -2.50989e-21)
(0.0418007 0.0123261 -2.91363e-20)
(0.0553681 0.0154814 5.15784e-20)
(0.0697264 0.0184461 4.57729e-20)
(0.0849117 0.0211967 1.73751e-20)
(0.100959 0.0237102 -1.30477e-19)
(0.117904 0.0259636 4.75167e-20)
(0.135781 0.0279332 -1.21457e-20)
(0.154624 0.0295951 -7.87336e-22)
(0.174465 0.030925 -2.49539e-20)
(0.195336 0.0318989 -1.16971e-20)
(0.217264 0.0324926 8.90891e-20)
(0.240277 0.0326826 -8.28935e-20)
(0.264396 0.0324461 2.55081e-20)
(0.28964 0.0317611 8.11245e-20)
(0.316023 0.0306072 -9.25726e-21)
(0.343552 0.0289656 -9.26942e-20)
(0.372228 0.0268196 3.91793e-20)
(0.00479501 0.00182239 1.15867e-20)
(0.0147305 0.00542211 1.54991e-20)
(0.0253342 0.00889252 -9.92946e-21)
(0.0366356 0.0122291 -9.2546e-20)
(0.0486648 0.0154278 7.37392e-20)
(0.0614578 0.0184704 -4.21464e-20)
(0.075052 0.0213356 3.70733e-20)
(0.0894846 0.0240024 4.4937e-20)
(0.104793 0.0264493 -8.06698e-20)
(0.121014 0.0286546 1.21441e-20)
(0.138185 0.0305957 8.87219e-21)
(0.15634 0.0322499 6.68004e-20)
(0.175516 0.033594 -1.20035e-19)
(0.195744 0.0346049 9.47643e-20)
(0.217056 0.0352596 2.23054e-20)
(0.239479 0.0355353 3.70029e-20)
(0.263039 0.03541 -1.27311e-19)
(0.287756 0.0348624 3.91095e-20)
(0.313645 0.0338725 4.43806e-20)
(0.340717 0.0324219 -4.70431e-20)
(0.368973 0.0304942 1.58535e-21)
(0.004111 0.00174567 -2.64865e-20)
(0.0126754 0.00521199 2.64495e-20)
(0.0218754 0.00857722 -2.31484e-20)
(0.031741 0.0118382 -1.62906e-20)
(0.0423026 0.014992 7.78819e-21)
(0.053597 0.0180226 -1.96005e-20)
(0.0656628 0.0209109 5.01652e-20)
(0.0785384 0.0236379 1.36688e-20)
(0.0922628 0.0261842 6.77088e-20)
(0.106875 0.02853 -5.73775e-20)
(0.122413 0.0306546 2.86697e-20)
(0.138916 0.0325366 -3.81425e-21)
(0.156422 0.0341546 -1.07612e-19)
(0.174967 0.0354866 1.25481e-19)
(0.194585 0.0365105 -4.96771e-20)
(0.215309 0.0372043 -3.57717e-20)
(0.23717 0.037546 -5.03007e-20)
(0.260195 0.0375144 2.10106e-20)
(0.284405 0.0370888 2.35565e-20)
(0.309818 0.0362497 -6.29344e-20)
(0.336447 0.034979 1.17548e-19)
(0.364297 0.0332605 1.61109e-20)
(0.00347118 0.00163304 -1.85926e-20)
(0.0107498 0.00489333 6.99156e-20)
(0.0186297 0.00807857 -5.32324e-20)
(0.0271405 0.0111869 -4.70025e-20)
(0.0363129 0.0142168 2.30404e-20)
(0.0461841 0.0171543 6.96887e-20)
(0.0567932 0.0199826 -6.35926e-20)
(0.0681795 0.0226849 -1.3563e-21)
(0.0803829 0.0252441 8.42598e-20)
(0.0934435 0.0276423 5.51123e-21)
(0.107402 0.0298608 -9.25754e-20)
(0.122298 0.0318802 1.13763e-20)
(0.138171 0.0336807 7.42463e-20)
(0.155062 0.0352419 -9.29789e-20)
(0.173008 0.0365428 5.0635e-20)
(0.192045 0.0375625 9.53196e-21)
(0.212208 0.0382799 -1.28429e-20)
(0.233529 0.0386738 6.89883e-20)
(0.256036 0.0387235 -5.91081e-20)
(0.279755 0.038409 -5.28338e-20)
(0.304705 0.0377111 1.99196e-20)
(0.330901 0.0366118 4.89892e-20)
(0.358351 0.0350951 9.34183e-22)
(0.00287783 0.00148963 -2.42764e-20)
(0.00896117 0.00448134 5.29024e-20)
(0.0156097 0.00742178 -6.11647e-20)
(0.0228529 0.0103104 3.14232e-21)
(0.030721 0.013147 1.6017e-20)
(0.0392514 0.0159198 2.72484e-20)
(0.0484832 0.0186143 -3.44347e-20)
(0.0584561 0.021216 -3.75568e-20)
(0.0692104 0.0237101 4.14317e-20)
(0.0807869 0.0260808 -5.60557e-20)
(0.0932269 0.0283116 1.28249e-19)
(0.106572 0.030385 -1.92881e-20)
(0.120863 0.0322832 -9.58536e-21)
(0.136142 0.0339874 -1.64481e-20)
(0.15245 0.0354782 -8.00614e-20)
(0.169824 0.036736 9.12777e-20)
(0.188304 0.0377406 9.6642e-21)
(0.207926 0.0384717 -1.33112e-19)
(0.228723 0.0389087 -2.54445e-20)
(0.250726 0.0390315 8.06052e-20)
(0.273962 0.0388202 4.09352e-20)
(0.298454 0.0382559 5.48325e-20)
(0.324218 0.0373206 -5.48481e-20)
(0.351266 0.0359981 3.38915e-21)
(0.00233262 0.00132066 3.74754e-20)
(0.00731475 0.00399157 -1.13361e-19)
(0.012825 0.00663273 1.73765e-20)
(0.0188922 0.0092449 -5.04614e-21)
(0.0255463 0.011829 8.9714e-20)
(0.0328239 0.0143756 -1.03405e-21)
(0.0407641 0.0168725 -4.06724e-20)
(0.0494064 0.0193075 -6.25489e-21)
(0.0587909 0.0216681 -7.86164e-20)
(0.0689587 0.0239406 1.11031e-19)
(0.0799513 0.0261108 -3.9902e-20)
(0.091811 0.0281634 -6.42144e-21)
(0.10458 0.0300823 -3.63232e-20)
(0.118301 0.0318507 -3.99282e-20)
(0.133015 0.0334511 -2.28615e-21)
(0.148765 0.0348651 7.50115e-20)
(0.16559 0.0360738 -2.11838e-21)
(0.183531 0.0370578 7.3372e-20)
(0.202625 0.0377973 -1.58985e-19)
(0.222906 0.0382722 5.41064e-20)
(0.00183669 0.00113142 1.88357e-20)
(0.00581428 0.0034398 -3.86503e-20)
(0.0102823 0.00573772 7.35738e-20)
(0.0152688 0.00802718 7.44826e-24)
(0.0208027 0.0103103 -1.22656e-20)
(0.0269201 0.0125798 -1.8304e-20)
(0.0336593 0.0148257 3.80135e-20)
(0.0410591 0.0170383 -6.7e-20)
(0.0491593 0.0192072 1.05105e-20)
(0.0580004 0.0213209 -9.29937e-21)
(0.067624 0.0233675 -3.45948e-20)
(0.078072 0.0253337 1.8e-20)
(0.0893872 0.0272056 -4.25793e-20)
(0.101612 0.0289683 3.38091e-20)
(0.11479 0.0306059 -5.24051e-20)
(0.128964 0.0321019 2.46418e-19)
(0.00139067 0.000927222 -3.92944e-20)
(0.00446195 0.0028419 -5.44871e-20)
(0.0079857 0.00476332 3.47933e-20)
(0.0119888 0.00669462 7.15219e-20)
(0.0164993 0.00863906 -8.55182e-20)
(0.0215521 0.0105913 -2.36761e-20)
(0.0271845 0.0125439 2.3043e-20)
(0.0334342 0.0144891 1.12099e-20)
(0.0403401 0.0164188 7.27962e-20)
(0.047942 0.0183238 -7.76325e-20)
(0.0562806 0.0201941 1.2532e-20)
(0.0653975 0.0220187 -5.61282e-21)
(0.000994712 0.000713396 1.38347e-20)
(0.00325845 0.00221381 8.02436e-21)
(0.00593666 0.00373616 -5.18827e-20)
(0.00905497 0.00528463 4.88794e-20)
(0.0126402 0.00686354 -3.25142e-20)
(0.016726 0.00846951 -3.70519e-20)
(0.0213481 0.0100972 1.18117e-19)
(0.026543 0.011741 -4.26235e-20)
(0.000648489 0.000495206 -2.90775e-20)
(0.00220299 0.00157124 6.67762e-20)
(0.00413418 0.00268251 -4.70349e-20)
)
;

boundaryField
{
    inlet
    {
        type            uniformFixedValue;
        uniformValue    constant (1 0 0);
        value           nonuniform 0();
    }
    outlet
    {
        type            pressureInletOutletVelocity;
        value           nonuniform 0();
    }
    cylinder
    {
        type            fixedValue;
        value           uniform (0 0 0);
    }
    top
    {
        type            symmetryPlane;
    }
    bottom
    {
        type            symmetryPlane;
    }
    defaultFaces
    {
        type            empty;
    }
    procBoundary14to7
    {
        type            processor;
        value           nonuniform List<vector> 
20
(
(0.0177779 -0.00621023 7.74749e-21)
(0.0531476 -0.018706 3.14983e-20)
(0.0891073 -0.0317044 6.44708e-21)
(0.12563 -0.0451946 1.96036e-20)
(0.162685 -0.0591609 -4.16587e-20)
(0.197155 -0.0643592 6.56177e-21)
(0.197155 -0.0643592 6.56177e-21)
(0.23473 -0.0776486 -2.20593e-20)
(0.272756 -0.0914174 5.44844e-20)
(0.311184 -0.105651 -3.3921e-20)
(0.349956 -0.120329 2.83053e-20)
(0.389009 -0.135425 -2.53602e-20)
(0.428275 -0.150905 -2.05401e-20)
(0.467675 -0.166731 3.8341e-20)
(0.507125 -0.182853 -6.09668e-20)
(0.546534 -0.199215 9.13743e-20)
(0.5858 -0.215752 -1.0672e-19)
(0.618073 -0.208711 -5.0973e-20)
(0.618073 -0.208711 -5.0973e-20)
(0.65702 -0.224537 8.48159e-20)
)
;
    }
    procBoundary14to8
    {
        type            processor;
        value           nonuniform List<vector> 
28
(
(0.686529 -0.215111 5.94814e-21)
(0.635587 -0.175786 -1.09248e-20)
(0.635587 -0.175786 -1.09248e-20)
(0.620832 -0.152045 -1.04984e-20)
(0.603588 -0.129039 -8.26311e-21)
(0.584044 -0.106981 -6.2884e-21)
(0.524788 -0.0763771 5.86931e-22)
(0.524788 -0.0763771 5.86931e-22)
(0.50206 -0.0578861 -5.88491e-22)
(0.50206 -0.0578861 -5.88491e-22)
(0.513841 -0.0483422 1.98252e-21)
(0.487416 -0.0318014 1.67878e-20)
(0.459925 -0.0169461 7.7016e-21)
(0.431644 -0.00384499 1.21797e-20)
(0.431644 -0.00384499 1.21797e-20)
(0.434894 0.00338727 -7.0163e-21)
(0.434894 0.00338727 -7.0163e-21)
(0.436089 0.0100029 5.90404e-20)
(0.404106 0.0193636 -1.81883e-20)
(0.404106 0.0193636 -1.81883e-20)
(0.402043 0.0241554 -3.84783e-21)
(0.402043 0.0241554 -3.84783e-21)
(0.39841 0.0280757 -2.33405e-20)
(0.39841 0.0280757 -2.33405e-20)
(0.393366 0.0310804 3.19202e-20)
(0.393366 0.0310804 3.19202e-20)
(0.387055 0.0331472 -2.99656e-20)
(0.387055 0.0331472 -2.99656e-20)
)
;
    }
    procBoundary14to9
    {
        type            processor;
        value           nonuniform List<vector> 
30
(
(0.244409 0.0384624 1.64244e-20)
(0.267162 0.0383481 3.55215e-20)
(0.29119 0.0379102 2.67026e-20)
(0.379602 0.0342744 -1.32169e-19)
(0.316514 0.0371304 -3.17646e-20)
(0.144175 0.0334386 2.23495e-19)
(0.160465 0.0345978 -5.50048e-20)
(0.177876 0.0355605 -1.34524e-19)
(0.244409 0.0384624 1.64244e-20)
(0.196444 0.036307 -6.89048e-20)
(0.0753348 0.0237858 2.68008e-20)
(0.0861352 0.0254824 3.37621e-20)
(0.0978416 0.0270946 -1.32231e-19)
(0.144175 0.0334386 2.23495e-19)
(0.110497 0.0286073 -9.78641e-20)
(0.0323482 0.0133949 4.19758e-20)
(0.0388022 0.0150519 -1.79047e-20)
(0.0459447 0.0167041 -4.09049e-20)
(0.0753348 0.0237858 2.68008e-20)
(0.0538161 0.0183427 4.85917e-20)
(0.00646633 0.00383412 -9.07607e-20)
(0.00922495 0.00503133 8.63809e-20)
(0.0124419 0.00627261 -7.76476e-20)
(0.0161514 0.00755466 5.30236e-20)
(0.0323482 0.0133949 4.19758e-20)
(0.0203883 0.00887396 1.17601e-20)
(0.000351116 0.00027776 2.47146e-20)
(0.00129311 0.000929444 -1.15417e-20)
(0.00646633 0.00383412 -9.07607e-20)
(0.00257448 0.00162783 -1.59535e-20)
)
;
    }
    procBoundary14to20
    {
        type            processor;
        value           nonuniform List<vector> 2((0.00220298 -0.00157123 2.86689e-20) (0.000994708 -0.000713393 -1.00839e-20));
    }
    procBoundary14to27
    {
        type            processor;
        value           uniform (0.000351112 -0.000277757 -2.6911e-20);
    }
}


// ************************************************************************* //
