/*--------------------------------*- C++ -*----------------------------------*\
  =========                 |
  \\      /  F ield         | OpenFOAM: The Open Source CFD Toolbox
   \\    /   O peration     | Website:  https://openfoam.org
    \\  /    A nd           | Version:  7
     \\/     M anipulation  |
\*---------------------------------------------------------------------------*/
FoamFile
{
    version     2.0;
    format      ascii;
    class       volScalarField;
    location    "42.99946";
    object      p;
}
// * * * * * * * * * * * * * * * * * * * * * * * * * * * * * * * * * * * * * //

dimensions      [0 2 -2 0 0 0 0];

internalField   nonuniform List<scalar> 
5800
(
-0.231009
-0.231278
-0.231396
-0.231437
-0.231446
-0.0273772
-0.0280134
-0.0286494
-0.0292844
-0.0299172
-0.0305468
-0.0311722
-0.0317922
-0.0324054
-0.0330106
-0.0336064
-0.0341913
-0.0347637
-0.035322
-0.0358645
-0.0363893
-0.0368947
-0.0373786
-0.037839
-0.0382739
-0.0386811
-0.0390583
-0.0394033
-0.0397138
-0.0399873
-0.0402213
-0.0404135
-0.0405613
-0.0406622
-0.0407137
-0.0407132
-0.0406582
-0.0405463
-0.0403751
-0.0401421
-0.039845
-0.0394816
-0.0390497
-0.0385472
-0.0379725
-0.0373235
-0.036599
-0.0357971
-0.0349173
-0.0339577
-0.0329187
-0.0317983
-0.0305982
-0.0293157
-0.0279547
-0.0265109
-0.0249914
-0.0233894
-0.0217162
-0.0199612
-0.0181419
-0.0162412
-0.014286
-0.0122491
-0.010171
-0.00800913
-0.00582277
-0.00354438
-0.00125399
-0.0274679
-0.0281061
-0.0287441
-0.029381
-0.0300157
-0.0306472
-0.0312745
-0.0318962
-0.0325112
-0.0331181
-0.0337155
-0.0343019
-0.0348757
-0.0354352
-0.0359789
-0.0365048
-0.0370111
-0.0374958
-0.0379568
-0.0383922
-0.0387998
-0.0391772
-0.0395222
-0.0398325
-0.0401056
-0.0403391
-0.0405306
-0.0406775
-0.0407773
-0.0408275
-0.0408255
-0.0407689
-0.0406552
-0.0404819
-0.0402467
-0.0399472
-0.0395811
-0.0391465
-0.0386411
-0.0380633
-0.0374111
-0.0366833
-0.0358778
-0.0349945
-0.0340312
-0.0329885
-0.0318641
-0.0306603
-0.0293737
-0.0280088
-0.026561
-0.0250377
-0.0234315
-0.0217547
-0.0199955
-0.0181727
-0.0162678
-0.0143094
-0.0122682
-0.0101873
-0.0080208
-0.00583242
-0.00354876
-0.00125722
-0.0276413
-0.0282838
-0.0289261
-0.0295672
-0.030206
-0.0308415
-0.0314725
-0.032098
-0.0327165
-0.0333267
-0.0339273
-0.0345167
-0.0350932
-0.0356554
-0.0362013
-0.0367293
-0.0372374
-0.0377237
-0.038186
-0.0386224
-0.0390305
-0.0394083
-0.0397533
-0.0400633
-0.0403357
-0.0405682
-0.0407583
-0.0409035
-0.0410012
-0.0410488
-0.041044
-0.0409841
-0.0408668
-0.0406895
-0.04045
-0.0401458
-0.0397747
-0.0393347
-0.0388236
-0.0382398
-0.0375813
-0.0368469
-0.0360348
-0.0351444
-0.0341739
-0.0331239
-0.0319921
-0.0307806
-0.0294864
-0.0281139
-0.0266583
-0.0251273
-0.0235134
-0.0218291
-0.0200622
-0.0182322
-0.0163198
-0.0143544
-0.0123058
-0.0102184
-0.0080444
-0.00584997
-0.00355871
-0.00126171
-0.0278963
-0.0285452
-0.0291937
-0.0298407
-0.0304853
-0.0311265
-0.0317631
-0.0323938
-0.0330174
-0.0336325
-0.0342376
-0.0348312
-0.0354118
-0.0359776
-0.0365269
-0.0370579
-0.0375686
-0.0380571
-0.0385212
-0.0389589
-0.039368
-0.0397462
-0.0400912
-0.0404006
-0.0406721
-0.040903
-0.041091
-0.0412336
-0.0413281
-0.0413721
-0.041363
-0.0412984
-0.0411757
-0.0409926
-0.0407466
-0.0404355
-0.040057
-0.0396092
-0.0390897
-0.0384972
-0.0378295
-0.0370856
-0.0362634
-0.0353629
-0.0343819
-0.0333212
-0.0321784
-0.0309559
-0.0296505
-0.0282667
-0.0267998
-0.0252577
-0.0236325
-0.0219372
-0.0201593
-0.0183186
-0.0163953
-0.0144197
-0.0123605
-0.0102633
-0.0080789
-0.00587522
-0.0035735
-0.00126763
-0.0282284
-0.0288856
-0.0295421
-0.030197
-0.0308493
-0.0314978
-0.0321415
-0.0327791
-0.0334093
-0.0340307
-0.0346418
-0.035241
-0.0358268
-0.0363973
-0.036951
-0.0374858
-0.0379998
-0.0384911
-0.0389575
-0.039397
-0.0398072
-0.0401859
-0.0405308
-0.0408395
-0.0411095
-0.0413384
-0.0415236
-0.0416627
-0.0417531
-0.0417922
-0.0417775
-0.0417066
-0.041577
-0.0413862
-0.0411318
-0.0408117
-0.0404235
-0.0399653
-0.039435
-0.038831
-0.0381513
-0.0373949
-0.0365599
-0.035646
-0.0346513
-0.0335767
-0.0324196
-0.0311828
-0.0298628
-0.0284645
-0.0269829
-0.0254262
-0.0237865
-0.0220769
-0.0202846
-0.0184301
-0.0164928
-0.014504
-0.0124311
-0.0103213
-0.00812346
-0.00590769
-0.00359263
-0.00127503
-0.0286353
-0.0293026
-0.029969
-0.0306335
-0.031295
-0.0319526
-0.032605
-0.033251
-0.0338892
-0.0345182
-0.0351365
-0.0357425
-0.0363345
-0.0369108
-0.0374696
-0.0380091
-0.0385271
-0.0390218
-0.0394909
-0.0399324
-0.0403439
-0.0407232
-0.0410678
-0.0413755
-0.0416437
-0.0418699
-0.0420517
-0.0421864
-0.0422716
-0.0423047
-0.0422831
-0.0422044
-0.0420661
-0.0418658
-0.0416011
-0.0412699
-0.0408698
-0.040399
-0.0398553
-0.0392372
-0.0385428
-0.0377711
-0.0369203
-0.0359901
-0.0349787
-0.0338869
-0.0327125
-0.0314581
-0.0301204
-0.0287043
-0.0272048
-0.0256304
-0.023973
-0.022246
-0.0204363
-0.018565
-0.0166108
-0.0146058
-0.0125164
-0.0103912
-0.00817731
-0.00594684
-0.00361575
-0.00128387
-0.0291149
-0.0297941
-0.0304721
-0.0311477
-0.0318201
-0.0324883
-0.0331509
-0.0338067
-0.0344543
-0.0350921
-0.0357188
-0.0363326
-0.0369319
-0.0375149
-0.0380797
-0.0386244
-0.0391471
-0.0396456
-0.0401177
-0.0405614
-0.0409743
-0.0413541
-0.0416984
-0.0420047
-0.0422706
-0.0424936
-0.0426711
-0.0428006
-0.0428795
-0.0429054
-0.0428755
-0.0427875
-0.042639
-0.0424274
-0.0421505
-0.0418061
-0.041392
-0.0409062
-0.0403467
-0.039712
-0.0390003
-0.0382106
-0.0373411
-0.0363917
-0.0353606
-0.0342488
-0.033054
-0.031779
-0.0304204
-0.0289835
-0.0274631
-0.0258679
-0.0241898
-0.0224425
-0.0206125
-0.0187215
-0.0167476
-0.0147238
-0.0126154
-0.0104723
-0.00823971
-0.00599214
-0.00364253
-0.00129403
-0.0296655
-0.0303583
-0.0310494
-0.0317379
-0.0324227
-0.0331028
-0.033777
-0.0344439
-0.0351021
-0.03575
-0.0363862
-0.0370088
-0.0376163
-0.0382067
-0.0387783
-0.0393289
-0.0398566
-0.0403594
-0.0408349
-0.0412809
-0.0416952
-0.0420754
-0.042419
-0.0427236
-0.0429867
-0.0432058
-0.0433783
-0.0435016
-0.0435732
-0.0435906
-0.0435511
-0.0434524
-0.0432919
-0.0430673
-0.0427763
-0.0424167
-0.0419863
-0.0414832
-0.0409055
-0.0402518
-0.0395202
-0.0387098
-0.0378189
-0.0368476
-0.0357939
-0.0346592
-0.033441
-0.0321425
-0.0307601
-0.0292994
-0.0277552
-0.0261364
-0.0244347
-0.0226643
-0.0208113
-0.0188981
-0.0169019
-0.0148568
-0.0127268
-0.0105634
-0.00830992
-0.00604305
-0.00367265
-0.00130541
-0.0302859
-0.0309938
-0.0316997
-0.0324024
-0.033101
-0.0337944
-0.0344815
-0.0351608
-0.0358308
-0.0364899
-0.0371365
-0.037769
-0.0383854
-0.0389841
-0.039563
-0.0401201
-0.0406533
-0.0411606
-0.0416396
-0.0420881
-0.0425037
-0.0428841
-0.0432268
-0.0435292
-0.0437889
-0.0440034
-0.04417
-0.0442861
-0.0443493
-0.0443569
-0.0443065
-0.0441955
-0.0440214
-0.043782
-0.0434749
-0.0430981
-0.0426493
-0.0421268
-0.0415286
-0.0408533
-0.0400992
-0.0392656
-0.0383507
-0.0373547
-0.0362757
-0.0351152
-0.0338709
-0.0325459
-0.0311369
-0.0296496
-0.0280787
-0.0264337
-0.0247057
-0.0229096
-0.021031
-0.019093
-0.0170721
-0.0150034
-0.0128496
-0.0106639
-0.00838722
-0.00609906
-0.0037058
-0.0013179
-0.0309751
-0.0316997
-0.0324218
-0.0331401
-0.0338539
-0.034562
-0.0352632
-0.0359561
-0.0366389
-0.0373102
-0.0379683
-0.0386113
-0.0392375
-0.039845
-0.0404318
-0.0409958
-0.0415349
-0.0420469
-0.0425295
-0.0429805
-0.0433973
-0.0437776
-0.0441189
-0.0444187
-0.0446744
-0.0448835
-0.0450433
-0.0451512
-0.0452048
-0.0452014
-0.0451385
-0.0450136
-0.0448243
-0.0445683
-0.0442433
-0.0438472
-0.0433779
-0.0428337
-0.0422126
-0.0415134
-0.0407344
-0.0398749
-0.0389333
-0.03791
-0.036803
-0.035614
-0.0343407
-0.0329867
-0.0315483
-0.0300318
-0.0284316
-0.0267576
-0.0250007
-0.0231764
-0.0212698
-0.0193047
-0.0172568
-0.0151624
-0.0129827
-0.0107726
-0.0084709
-0.00615965
-0.00374166
-0.00133138
-0.0317324
-0.0324752
-0.0332149
-0.0339503
-0.0346805
-0.0354045
-0.036121
-0.0368285
-0.0375252
-0.0382096
-0.0388799
-0.0395343
-0.040171
-0.0407879
-0.041383
-0.0419543
-0.0424995
-0.0430164
-0.0435026
-0.0439559
-0.0443737
-0.0447536
-0.0450931
-0.0453897
-0.0456406
-0.0458434
-0.0459955
-0.0460942
-0.0461369
-0.0461211
-0.0460443
-0.045904
-0.0456978
-0.0454233
-0.0450784
-0.044661
-0.0441691
-0.0436009
-0.0429547
-0.0422292
-0.0414228
-0.0405349
-0.0395641
-0.0385107
-0.0373731
-0.036153
-0.0348481
-0.0334623
-0.0319919
-0.0304435
-0.0288114
-0.0271059
-0.0253177
-0.0234629
-0.021526
-0.0195317
-0.0174547
-0.0153326
-0.013125
-0.0108888
-0.00856028
-0.00622433
-0.00377993
-0.00134576
-0.0325575
-0.0333199
-0.0340786
-0.0348322
-0.0355801
-0.0363212
-0.0370541
-0.0377772
-0.0384887
-0.0391871
-0.0398704
-0.0405368
-0.0411845
-0.0418113
-0.0424152
-0.0429939
-0.0435454
-0.0440672
-0.044557
-0.0450124
-0.045431
-0.0458101
-0.0461472
-0.0464398
-0.0466853
-0.0468809
-0.0470242
-0.0471124
-0.047143
-0.0471135
-0.0470212
-0.0468639
-0.0466389
-0.0463442
-0.0459775
-0.0455368
-0.04502
-0.0444257
-0.043752
-0.0429978
-0.0421615
-0.0412429
-0.0402402
-0.0391543
-0.0379834
-0.0367296
-0.0353905
-0.0339703
-0.0324654
-0.0308826
-0.0292161
-0.0274768
-0.0256549
-0.0237674
-0.021798
-0.0197724
-0.0176643
-0.0155128
-0.0132755
-0.0110117
-0.00865466
-0.00629259
-0.00382029
-0.00136093
-0.0334502
-0.0342336
-0.0350125
-0.0357857
-0.0365524
-0.0373116
-0.0380619
-0.0388015
-0.0395288
-0.0402418
-0.0409389
-0.0416179
-0.042277
-0.0429141
-0.043527
-0.0441135
-0.0446713
-0.045198
-0.0456912
-0.0461485
-0.0465673
-0.0469451
-0.0472793
-0.0475672
-0.0478063
-0.0479938
-0.0481271
-0.0482037
-0.0482209
-0.0481761
-0.0480668
-0.0478907
-0.0476453
-0.0473285
-0.0469379
-0.0464718
-0.0459281
-0.0453054
-0.0446019
-0.0438166
-0.0429481
-0.0419961
-0.0409592
-0.0398382
-0.0386315
-0.0373414
-0.0359656
-0.0345085
-0.0329665
-0.0313469
-0.0296436
-0.0278682
-0.0260105
-0.0240881
-0.0220841
-0.0200254
-0.0178844
-0.0157017
-0.0134333
-0.0111403
-0.0087534
-0.00636397
-0.00386246
-0.00137679
-0.0344106
-0.0352163
-0.0360167
-0.0368106
-0.0375972
-0.0383755
-0.0391441
-0.0399012
-0.0406449
-0.0413733
-0.0420846
-0.0427768
-0.0434478
-0.0440954
-0.0447175
-0.0453118
-0.0458758
-0.0464073
-0.0469037
-0.0473625
-0.0477811
-0.048157
-0.0484875
-0.0487699
-0.0490016
-0.0491799
-0.0493022
-0.0493658
-0.0493681
-0.0493066
-0.0491788
-0.0489822
-0.0487145
-0.0483736
-0.0479572
-0.0474636
-0.0468908
-0.0462374
-0.0455018
-0.0446832
-0.04378
-0.0427922
-0.0417185
-0.0405599
-0.0393149
-0.037986
-0.036571
-0.0350745
-0.0334931
-0.0318343
-0.030092
-0.0282782
-0.0263826
-0.0244232
-0.0223829
-0.0202892
-0.0181137
-0.0158983
-0.0135972
-0.0112738
-0.00885583
-0.00643799
-0.00390615
-0.00139323
-0.035439
-0.0362682
-0.0370913
-0.0379069
-0.0387144
-0.0395128
-0.0403006
-0.0410758
-0.0418367
-0.0425811
-0.0433072
-0.0440129
-0.044696
-0.0453545
-0.0459859
-0.0465879
-0.0471581
-0.0476941
-0.0481933
-0.0486531
-0.049071
-0.0494443
-0.0497702
-0.0500462
-0.0502696
-0.0504376
-0.0505475
-0.0505968
-0.0505828
-0.050503
-0.0503548
-0.050136
-0.0498442
-0.0494772
-0.049033
-0.0485098
-0.0479057
-0.0472195
-0.0464495
-0.045595
-0.0446547
-0.0436288
-0.0425158
-0.0413172
-0.0400314
-0.0386612
-0.0372046
-0.0356664
-0.0340432
-0.0323429
-0.0305594
-0.0287051
-0.0267694
-0.0247713
-0.0226928
-0.0205626
-0.0183509
-0.0161015
-0.0137664
-0.0114115
-0.00896133
-0.00651417
-0.00395106
-0.00141017
-0.0365357
-0.0373896
-0.0382365
-0.0390749
-0.0399042
-0.0407236
-0.0415313
-0.0423255
-0.043104
-0.043865
-0.0446063
-0.0453258
-0.0460213
-0.0466906
-0.0473313
-0.0479409
-0.0485171
-0.0490573
-0.0495588
-0.0500191
-0.0504356
-0.0508055
-0.051126
-0.0513946
-0.0516085
-0.0517649
-0.0518612
-0.0518948
-0.0518629
-0.0517631
-0.051593
-0.0513501
-0.0510322
-0.0506373
-0.0501631
-0.0496082
-0.0489706
-0.0482492
-0.0474425
-0.0465498
-0.0455701
-0.0445035
-0.0433489
-0.0421078
-0.0407787
-0.0393649
-0.0378642
-0.0362819
-0.0346146
-0.0328706
-0.0310438
-0.029147
-0.0271694
-0.0251308
-0.0230123
-0.020844
-0.0185948
-0.0163101
-0.0139399
-0.0115526
-0.00906925
-0.00659208
-0.00399693
-0.0014275
-0.0377014
-0.0385812
-0.0394528
-0.0403149
-0.041167
-0.0420081
-0.0428365
-0.0436501
-0.0444469
-0.0452248
-0.0459816
-0.0467151
-0.0474231
-0.0481033
-0.0487531
-0.0493702
-0.049952
-0.0504959
-0.0509993
-0.0514594
-0.0518737
-0.0522393
-0.0525535
-0.0528136
-0.0530168
-0.0531603
-0.0532416
-0.0532579
-0.0532065
-0.0530851
-0.0528912
-0.0526224
-0.0522766
-0.0518516
-0.0513454
-0.0507565
-0.0500832
-0.0493244
-0.0484786
-0.0475455
-0.0465238
-0.0454142
-0.0442155
-0.0429294
-0.0415548
-0.0400949
-0.0385478
-0.0369192
-0.0352055
-0.0334157
-0.0315434
-0.0296023
-0.0275809
-0.0255
-0.02334
-0.0211322
-0.0188442
-0.0165231
-0.0141168
-0.0116962
-0.009179
-0.00667127
-0.00404347
-0.00144513
-0.0389368
-0.0398435
-0.0407409
-0.0416275
-0.0425031
-0.0433666
-0.0442163
-0.0450499
-0.0458654
-0.0466605
-0.047433
-0.0481807
-0.0489012
-0.0495921
-0.0502509
-0.0508751
-0.0514621
-0.0520092
-0.0525137
-0.052973
-0.0533841
-0.0537445
-0.0540513
-0.0543017
-0.0544929
-0.0546222
-0.0546869
-0.0546844
-0.054612
-0.0544671
-0.0542476
-0.053951
-0.0535752
-0.0531181
-0.0525778
-0.0519528
-0.0512415
-0.0504429
-0.0495558
-0.0485798
-0.0475139
-0.0463588
-0.0451136
-0.0437802
-0.0423575
-0.0408492
-0.0392534
-0.0375762
-0.035814
-0.0339763
-0.0320566
-0.0300691
-0.0280022
-0.0258774
-0.0236745
-0.0214259
-0.0190979
-0.0167395
-0.0142962
-0.0118417
-0.00928998
-0.0067513
-0.00409043
-0.00146297
-0.0402426
-0.0411772
-0.0421013
-0.0430133
-0.0439131
-0.0447996
-0.0456711
-0.0465252
-0.0473597
-0.0481722
-0.0489605
-0.0497223
-0.0504552
-0.0511567
-0.0518242
-0.0524551
-0.0530467
-0.0535963
-0.0541013
-0.0545587
-0.0549659
-0.0553199
-0.0556181
-0.0558575
-0.0560354
-0.056149
-0.0561957
-0.0561727
-0.0560775
-0.0559075
-0.0556604
-0.055334
-0.0549261
-0.0544348
-0.0538582
-0.0531949
-0.0524434
-0.0516028
-0.0506719
-0.0496507
-0.0485381
-0.0473352
-0.046041
-0.044658
-0.0431849
-0.0416259
-0.0399791
-0.0382511
-0.0364382
-0.0345506
-0.0325815
-0.030546
-0.0284318
-0.0262617
-0.0240144
-0.0217239
-0.0193548
-0.0169583
-0.0144772
-0.0119883
-0.00940161
-0.00683175
-0.00413754
-0.00148092
-0.0416199
-0.0425833
-0.0435349
-0.044473
-0.0453976
-0.0463077
-0.0472014
-0.0480762
-0.0489299
-0.04976
-0.0505641
-0.05134
-0.0520851
-0.0527968
-0.0534725
-0.0541095
-0.0547051
-0.0552566
-0.0557611
-0.0562158
-0.0566179
-0.0569644
-0.0572527
-0.0574798
-0.0576429
-0.0577393
-0.0577663
-0.0577211
-0.0576012
-0.0574043
-0.0571279
-0.0567696
-0.0563276
-0.0557999
-0.0551849
-0.054481
-0.053687
-0.052802
-0.051825
-0.0507562
-0.0495946
-0.0483414
-0.046996
-0.0455608
-0.0440351
-0.042423
-0.040723
-0.038942
-0.0370765
-0.035137
-0.0331166
-0.0310313
-0.0288683
-0.0266514
-0.0243585
-0.0220249
-0.0196139
-0.0171784
-0.014659
-0.0121353
-0.00951331
-0.0069122
-0.00418455
-0.00149891
-0.0430695
-0.0440627
-0.0450425
-0.0460073
-0.0469572
-0.0478913
-0.0488076
-0.0497034
-0.0505764
-0.051424
-0.0522439
-0.0530336
-0.0537905
-0.054512
-0.0551954
-0.0558379
-0.0564368
-0.0569892
-0.0574923
-0.0579432
-0.058339
-0.0586769
-0.0589539
-0.0591673
-0.0593141
-0.0593917
-0.0593972
-0.0593281
-0.0591818
-0.0589559
-0.058648
-0.058256
-0.0577777
-0.0572116
-0.0565558
-0.0558091
-0.0549703
-0.0540386
-0.0530132
-0.0518943
-0.0506813
-0.0493755
-0.0479765
-0.0464869
-0.0449061
-0.0432388
-0.0414834
-0.0396473
-0.037727
-0.0357337
-0.0336603
-0.0315235
-0.0293102
-0.0270452
-0.0247054
-0.0223278
-0.0198739
-0.017399
-0.0148406
-0.0122819
-0.00962453
-0.00699226
-0.0042312
-0.00151684
-0.0445928
-0.0456165
-0.046625
-0.0476171
-0.0485928
-0.0495513
-0.0504903
-0.0514072
-0.0522995
-0.0531646
-0.054
-0.0548032
-0.0555715
-0.0563022
-0.0569926
-0.0576399
-0.0582411
-0.0587935
-0.0592941
-0.0597401
-0.0601284
-0.0604562
-0.0607206
-0.0609187
-0.0610476
-0.0611046
-0.061087
-0.0609921
-0.0608174
-0.0605606
-0.0602193
-0.0597913
-0.0592747
-0.0586679
-0.0579691
-0.0571774
-0.0562914
-0.0553108
-0.0542346
-0.0530633
-0.0517965
-0.0504358
-0.0489807
-0.0474344
-0.0457963
-0.0440715
-0.0422585
-0.0403652
-0.0383881
-0.0363391
-0.0342109
-0.0320211
-0.029756
-0.0274416
-0.0250538
-0.0226314
-0.0201339
-0.017619
-0.0150214
-0.0124276
-0.00973472
-0.00707151
-0.00427725
-0.00153463
-0.0461907
-0.0472456
-0.0482835
-0.0493033
-0.0503051
-0.0512881
-0.05225
-0.053188
-0.0540995
-0.0549818
-0.0558324
-0.0566486
-0.0574278
-0.0581671
-0.0588638
-0.0595149
-0.0601175
-0.0606688
-0.0611658
-0.0616055
-0.0619849
-0.0623012
-0.0625514
-0.0627326
-0.062842
-0.0628767
-0.0628341
-0.0627116
-0.0625066
-0.0622168
-0.0618399
-0.0613739
-0.0608168
-0.0601671
-0.0594232
-0.0585841
-0.0576487
-0.0566166
-0.0554873
-0.0542613
-0.0529384
-0.0515203
-0.0500068
-0.0484015
-0.0467038
-0.0449193
-0.0430466
-0.0410941
-0.0390583
-0.0369518
-0.0347671
-0.0325227
-0.0302044
-0.0278394
-0.0254027
-0.0229345
-0.0203928
-0.0178376
-0.0152006
-0.0125716
-0.00984336
-0.00714959
-0.00432247
-0.00155219
-0.0478646
-0.0489513
-0.050019
-0.0510667
-0.0520949
-0.0531026
-0.0540873
-0.0550463
-0.0559768
-0.0568759
-0.0577412
-0.0585699
-0.0593592
-0.0601064
-0.0608084
-0.0614623
-0.0620653
-0.0626143
-0.0631063
-0.0635384
-0.0639076
-0.0642108
-0.0644452
-0.0646079
-0.0646959
-0.0647066
-0.0646371
-0.064485
-0.0642476
-0.0639229
-0.0635084
-0.0630022
-0.0624024
-0.0617075
-0.0609161
-0.0600274
-0.0590402
-0.0579544
-0.0567696
-0.0554865
-0.054105
-0.0526273
-0.0510531
-0.0493865
-0.0476269
-0.0457806
-0.043846
-0.0418323
-0.0397359
-0.0375701
-0.0353273
-0.0330268
-0.030654
-0.0282374
-0.0257507
-0.0232362
-0.0206497
-0.0180538
-0.0153772
-0.0127134
-0.00994993
-0.0072261
-0.00436661
-0.00156945
-0.0496157
-0.0507346
-0.0518326
-0.0529085
-0.053963
-0.0549953
-0.0560029
-0.0569826
-0.0579316
-0.0588471
-0.0597265
-0.060567
-0.0613657
-0.0621197
-0.062826
-0.0634817
-0.0640838
-0.0646292
-0.0651149
-0.065538
-0.0658953
-0.0661839
-0.0664008
-0.0665431
-0.066608
-0.0665927
-0.0664945
-0.0663107
-0.066039
-0.0656771
-0.0652229
-0.0646743
-0.0640296
-0.0632874
-0.0624463
-0.0615055
-0.0604642
-0.0593224
-0.0580798
-0.0567373
-0.0552949
-0.0537551
-0.052118
-0.0503877
-0.0485641
-0.0466537
-0.0446553
-0.0425784
-0.0404195
-0.0381927
-0.0358902
-0.0335322
-0.0311036
-0.0286342
-0.0260968
-0.0235352
-0.0209035
-0.0182669
-0.0155507
-0.0128522
-0.0100539
-0.00730069
-0.00440946
-0.00158632
-0.0514453
-0.0525969
-0.0537252
-0.0548294
-0.0559103
-0.0569671
-0.0579971
-0.0589972
-0.0599643
-0.0608956
-0.0617884
-0.0626398
-0.0634468
-0.0642067
-0.0649162
-0.0655724
-0.0661723
-0.0667127
-0.0671907
-0.0676031
-0.0679469
-0.0682191
-0.0684168
-0.068537
-0.0685769
-0.0685337
-0.0684047
-0.0681873
-0.0678791
-0.067478
-0.0669819
-0.0663887
-0.0656969
-0.064905
-0.0640119
-0.0630168
-0.0619191
-0.060719
-0.0594161
-0.0580118
-0.0565062
-0.0549021
-0.0531997
-0.0514036
-0.0495138
-0.0475372
-0.0454728
-0.0433308
-0.0411076
-0.0388181
-0.0364543
-0.0340375
-0.031552
-0.0290288
-0.0264398
-0.0238307
-0.0211535
-0.0184759
-0.0157202
-0.0129874
-0.0101548
-0.00737298
-0.00445079
-0.00160273
-0.0533547
-0.0545392
-0.055698
-0.0568304
-0.0579376
-0.0590186
-0.0600707
-0.0610905
-0.0620751
-0.0630214
-0.0639267
-0.064788
-0.0656025
-0.0663669
-0.0670784
-0.0677338
-0.06833
-0.068864
-0.0693325
-0.0697327
-0.0700613
-0.0703154
-0.070492
-0.0705882
-0.0706011
-0.0705279
-0.0703661
-0.0701132
-0.0697664
-0.069324
-0.0687837
-0.0681438
-0.0674025
-0.0665587
-0.0656113
-0.0645597
-0.0634032
-0.0621423
-0.0607769
-0.0593085
-0.0577374
-0.0560666
-0.0542967
-0.0524325
-0.0504743
-0.0484295
-0.0462972
-0.0440881
-0.0417988
-0.039445
-0.0370184
-0.0345414
-0.0319978
-0.02942
-0.0267787
-0.0241216
-0.0213985
-0.0186801
-0.0158851
-0.0131185
-0.0102522
-0.00744264
-0.00449039
-0.0016186
-0.0553454
-0.0565629
-0.057752
-0.0589125
-0.0600456
-0.0611504
-0.062224
-0.063263
-0.0642642
-0.0652246
-0.0661414
-0.0670116
-0.0678321
-0.0686
-0.069312
-0.0699651
-0.0705561
-0.071082
-0.0715395
-0.0719256
-0.0722372
-0.0724714
-0.072625
-0.0726952
-0.0726791
-0.072574
-0.0723773
-0.0720864
-0.0716992
-0.0712133
-0.0706267
-0.0699377
-0.0691448
-0.0682469
-0.0672428
-0.0661323
-0.0649148
-0.0635909
-0.0621606
-0.0606258
-0.0589868
-0.0572472
-0.0554075
-0.053473
-0.0514443
-0.0493291
-0.0471268
-0.0448489
-0.0424918
-0.040072
-0.0375811
-0.0350427
-0.0324399
-0.0298067
-0.0271124
-0.0244069
-0.0216378
-0.0188787
-0.0160446
-0.0132449
-0.0103456
-0.00750932
-0.00452805
-0.00163386
-0.0574185
-0.058669
-0.0598883
-0.0610765
-0.062235
-0.063363
-0.0644574
-0.0655147
-0.0665316
-0.0675051
-0.0684323
-0.0693101
-0.0701354
-0.0709052
-0.0716163
-0.0722655
-0.0728497
-0.0733657
-0.0738104
-0.0741807
-0.0744735
-0.0746857
-0.0748143
-0.0748566
-0.0748095
-0.0746704
-0.0744367
-0.074106
-0.0736759
-0.0731443
-0.0725092
-0.071769
-0.0709222
-0.0699678
-0.0689049
-0.0677332
-0.0664524
-0.0650631
-0.0635657
-0.0619621
-0.060253
-0.0584422
-0.0565305
-0.0545236
-0.0524222
-0.0502347
-0.0479605
-0.0456118
-0.0431851
-0.0406978
-0.0381413
-0.0355403
-0.0328773
-0.0301878
-0.02744
-0.0246857
-0.0218705
-0.0190709
-0.0161982
-0.013366
-0.0104345
-0.00757269
-0.00456356
-0.00164843
-0.0595754
-0.0608587
-0.0621078
-0.0633232
-0.0645065
-0.065657
-0.0667714
-0.067846
-0.0688775
-0.0698629
-0.0707991
-0.0716831
-0.0725118
-0.073282
-0.0739905
-0.0746341
-0.0752097
-0.0757141
-0.0761441
-0.0764967
-0.0767686
-0.0769569
-0.0770586
-0.0770708
-0.0769907
-0.0768155
-0.0765427
-0.0761699
-0.0756948
-0.0751154
-0.0744295
-0.0736359
-0.072733
-0.0717199
-0.0705959
-0.0693607
-0.0680142
-0.0665574
-0.0649905
-0.0633159
-0.0615345
-0.0596503
-0.0576643
-0.0555829
-0.0534067
-0.0511448
-0.0487968
-0.0463756
-0.0438776
-0.0413213
-0.0386978
-0.036033
-0.0333087
-0.0305623
-0.0277604
-0.0249572
-0.0220958
-0.019256
-0.0163451
-0.0134812
-0.0105185
-0.00763244
-0.00459673
-0.00166225
-0.0618174
-0.0631331
-0.0644115
-0.0656534
-0.0668607
-0.0680327
-0.0691661
-0.0702569
-0.0713018
-0.0722976
-0.0732415
-0.0741302
-0.0749606
-0.0757295
-0.0764337
-0.0770699
-0.0776351
-0.0781259
-0.0785393
-0.0788721
-0.0791212
-0.0792836
-0.0793563
-0.0793364
-0.0792211
-0.0790077
-0.0786937
-0.0782766
-0.0777543
-0.0771248
-0.0763861
-0.0755368
-0.0745755
-0.0735016
-0.0723141
-0.0710133
-0.0695989
-0.0680721
-0.0664335
-0.0646857
-0.0628297
-0.0608699
-0.0588076
-0.0566494
-0.0543964
-0.0520582
-0.0496345
-0.0471389
-0.0445681
-0.0419413
-0.0392494
-0.0365197
-0.0337333
-0.0309292
-0.0280727
-0.0252204
-0.022313
-0.0194333
-0.0164847
-0.0135901
-0.0105972
-0.00768824
-0.00462736
-0.00167524
-0.0641456
-0.0654932
-0.0668002
-0.0680677
-0.0692981
-0.0704906
-0.0716416
-0.0727473
-0.0738042
-0.074809
-0.0757589
-0.0766506
-0.077481
-0.0782468
-0.0789448
-0.0795718
-0.0801246
-0.0805999
-0.0809946
-0.0813056
-0.0815298
-0.0816642
-0.0817057
-0.0816516
-0.081499
-0.0812453
-0.0808878
-0.0804244
-0.0798527
-0.0791709
-0.0783772
-0.07747
-0.0764482
-0.0753112
-0.0740581
-0.0726893
-0.0712048
-0.0696059
-0.0678934
-0.0660701
-0.0641373
-0.0620997
-0.0599589
-0.0577219
-0.0553901
-0.0529736
-0.0504723
-0.0479007
-0.0452553
-0.0425566
-0.039795
-0.0369993
-0.0341499
-0.0312876
-0.0283761
-0.0254746
-0.0225211
-0.0196021
-0.0166165
-0.0136922
-0.0106702
-0.0077398
-0.00465526
-0.00168733
-0.0665612
-0.06794
-0.0692746
-0.0705667
-0.071819
-0.0730307
-0.0741981
-0.0753172
-0.0763844
-0.0773966
-0.0783507
-0.0792436
-0.0800721
-0.0808329
-0.0815228
-0.0821385
-0.0826768
-0.0831346
-0.0835086
-0.0837957
-0.0839929
-0.0840971
-0.0841053
-0.0840148
-0.0838228
-0.0835265
-0.0831235
-0.0826115
-0.0819883
-0.0812522
-0.0804011
-0.079434
-0.0783495
-0.0771471
-0.0758262
-0.0743873
-0.0728305
-0.0711573
-0.0693686
-0.0674677
-0.0654559
-0.0633384
-0.0611169
-0.0587991
-0.0563864
-0.0538897
-0.051309
-0.0486596
-0.0459382
-0.0431661
-0.0403337
-0.037471
-0.0345577
-0.0316364
-0.0286697
-0.0257189
-0.0227196
-0.0197616
-0.0167398
-0.0137868
-0.010737
-0.00778682
-0.00468026
-0.00169847
-0.0690653
-0.0704743
-0.0718354
-0.0731508
-0.0744237
-0.0756531
-0.0768353
-0.0779661
-0.0790419
-0.0800597
-0.0810162
-0.0819084
-0.082733
-0.0834867
-0.0841664
-0.0847687
-0.0852904
-0.0857284
-0.0860795
-0.0863406
-0.0865086
-0.0865805
-0.0865533
-0.0864243
-0.0861906
-0.0858497
-0.0853991
-0.0848363
-0.0841595
-0.0833668
-0.0824563
-0.081427
-0.0802776
-0.0790077
-0.0776169
-0.0761057
-0.0744744
-0.0727247
-0.0708578
-0.068877
-0.0667841
-0.0645846
-0.0622804
-0.0598797
-0.0573842
-0.0548054
-0.0521436
-0.0494147
-0.0466157
-0.0437688
-0.0408643
-0.0379336
-0.0349556
-0.031975
-0.0289526
-0.0259526
-0.0229077
-0.0199114
-0.0168542
-0.0138737
-0.0107974
-0.00782902
-0.00470219
-0.00170858
-0.0716587
-0.0730968
-0.0744831
-0.0758204
-0.0771123
-0.0783578
-0.079553
-0.0806937
-0.0817762
-0.0827975
-0.0837544
-0.0846438
-0.0854624
-0.0862069
-0.0868741
-0.0874609
-0.0879638
-0.0883799
-0.0887059
-0.0889388
-0.0890754
-0.0891127
-0.089048
-0.0888782
-0.0886007
-0.0882129
-0.0877124
-0.087097
-0.0863645
-0.085513
-0.084541
-0.0834474
-0.082231
-0.0808916
-0.0794287
-0.0778431
-0.0761351
-0.0743069
-0.0723595
-0.0702969
-0.0681207
-0.0658371
-0.0634481
-0.0609626
-0.0583823
-0.0557196
-0.0529748
-0.0501649
-0.0472867
-0.0443637
-0.0413859
-0.0383863
-0.0353429
-0.0323024
-0.0292242
-0.0261749
-0.0230847
-0.0200508
-0.016959
-0.0139522
-0.0108509
-0.00786613
-0.00472087
-0.00171759
-0.0743424
-0.0758081
-0.077218
-0.0785755
-0.0798847
-0.0811444
-0.0823507
-0.0834993
-0.0845865
-0.0856092
-0.0865642
-0.0874486
-0.0882589
-0.088992
-0.0896446
-0.0902135
-0.0906954
-0.0910873
-0.0913859
-0.0915883
-0.0916913
-0.0916919
-0.0915873
-0.0913747
-0.0910513
-0.0906145
-0.0900621
-0.0893918
-0.0886014
-0.0876892
-0.0866536
-0.0854936
-0.0842082
-0.0827971
-0.0812601
-0.0795979
-0.0778113
-0.0759023
-0.0738725
-0.0717258
-0.0694644
-0.0670946
-0.0646189
-0.0620465
-0.0593796
-0.0566311
-0.0538016
-0.0509091
-0.0479502
-0.0449499
-0.0418977
-0.0388282
-0.0357187
-0.0326179
-0.0294836
-0.0263852
-0.0232501
-0.0201793
-0.0170538
-0.0140221
-0.0108971
-0.00789789
-0.00473614
-0.00172546
-0.0771168
-0.0786086
-0.0800403
-0.0814162
-0.0827406
-0.0840126
-0.0852279
-0.0863822
-0.0874717
-0.0884935
-0.0894445
-0.0903215
-0.0911212
-0.0918405
-0.0924761
-0.0930247
-0.0934833
-0.0938487
-0.0941177
-0.0942873
-0.0943544
-0.0943162
-0.0941696
-0.0939119
-0.0935404
-0.0930526
-0.0924462
-0.0917188
-0.0908685
-0.0898935
-0.0887923
-0.0875639
-0.0862074
-0.0847227
-0.0831095
-0.0813688
-0.0795014
-0.0775098
-0.0753954
-0.0731627
-0.070814
-0.068356
-0.0657916
-0.0631304
-0.060375
-0.057539
-0.0546231
-0.0516463
-0.0486054
-0.0455264
-0.0423987
-0.0392584
-0.0360822
-0.0329207
-0.0297301
-0.0265829
-0.0234032
-0.0202962
-0.0171381
-0.0140828
-0.0109359
-0.00792404
-0.00474784
-0.00173212
-0.0799827
-0.0814987
-0.0829501
-0.0843422
-0.0856798
-0.0869617
-0.0881837
-0.0893413
-0.0904308
-0.0914493
-0.0923937
-0.0932609
-0.0940476
-0.0947507
-0.0953668
-0.0958929
-0.0963257
-0.0966622
-0.0968993
-0.0970338
-0.0970629
-0.0969834
-0.0967927
-0.0964878
-0.0960662
-0.0955253
-0.0948627
-0.0940763
-0.0931641
-0.0921243
-0.0909555
-0.0896568
-0.0882272
-0.0866668
-0.0849755
-0.0831543
-0.0812042
-0.0791278
-0.0769269
-0.0746062
-0.0721682
-0.0696202
-0.0669651
-0.0642133
-0.0613675
-0.0584421
-0.0554383
-0.0523757
-0.0492513
-0.0460925
-0.0428882
-0.0396763
-0.0364327
-0.0332101
-0.0299632
-0.0267672
-0.0235435
-0.0204011
-0.0172114
-0.014134
-0.0109667
-0.00794433
-0.00475584
-0.0017375
-0.0829402
-0.0844782
-0.0859472
-0.0873531
-0.0887015
-0.0899909
-0.0912171
-0.0923755
-0.0934625
-0.0944751
-0.0954104
-0.0962652
-0.0970363
-0.0977206
-0.0983148
-0.0988158
-0.0992205
-0.0995258
-0.0997286
-0.0998258
-0.0998145
-0.0996917
-0.0994546
-0.0991005
-0.0986266
-0.0980305
-0.0973098
-0.0964624
-0.0954863
-0.0943798
-0.0931415
-0.0917705
-0.090266
-0.088628
-0.0868566
-0.084953
-0.0829182
-0.0807552
-0.0784659
-0.0760552
-0.073526
-0.0708859
-0.0681383
-0.065294
-0.0623561
-0.0593397
-0.0562462
-0.0530964
-0.0498872
-0.0466472
-0.0433654
-0.0400811
-0.0367694
-0.0334855
-0.0301821
-0.0269376
-0.0236704
-0.0204934
-0.0172733
-0.0141753
-0.0109894
-0.00795854
-0.00475997
-0.00174155
-0.0859896
-0.0875472
-0.089031
-0.0904484
-0.0918048
-0.0930992
-0.0943269
-0.0954833
-0.0965651
-0.0975692
-0.0984927
-0.0993325
-0.100085
-0.100748
-0.101318
-0.101792
-0.102166
-0.102437
-0.102603
-0.102661
-0.102607
-0.102439
-0.102153
-0.101748
-0.10122
-0.100566
-0.0997856
-0.0988753
-0.0978334
-0.0966583
-0.0953486
-0.0939035
-0.0923221
-0.0906048
-0.0887514
-0.0867635
-0.0846423
-0.0823907
-0.080011
-0.0775085
-0.0748863
-0.0721523
-0.0693103
-0.0663717
-0.0633398
-0.0602308
-0.0570461
-0.0538075
-0.0505121
-0.0471899
-0.0438295
-0.040472
-0.0370918
-0.0337462
-0.0303864
-0.0270937
-0.0237834
-0.0205728
-0.0173235
-0.0142064
-0.0110036
-0.00796644
-0.0047601
-0.00174422
-0.0891305
-0.0907051
-0.0922011
-0.093627
-0.0949888
-0.0962853
-0.0975116
-0.0986633
-0.099737
-0.10073
-0.101639
-0.102461
-0.103193
-0.103832
-0.104374
-0.104818
-0.105159
-0.105394
-0.105522
-0.105537
-0.105439
-0.105223
-0.104887
-0.104428
-0.103843
-0.103131
-0.102288
-0.101313
-0.100204
-0.098958
-0.0975752
-0.0960541
-0.0943942
-0.0925956
-0.0906585
-0.0885846
-0.086375
-0.0840331
-0.0815612
-0.0789651
-0.0762479
-0.0734182
-0.07048
-0.0674453
-0.0643179
-0.0611145
-0.057837
-0.0545082
-0.0511254
-0.0477198
-0.0442799
-0.0408485
-0.0373993
-0.0339917
-0.0305754
-0.0272348
-0.0238821
-0.0206388
-0.0173614
-0.0142268
-0.0110091
-0.0079678
-0.0047561
-0.00174545
-0.0939514
-0.0954566
-0.0968879
-0.0982521
-0.0995476
-0.10077
-0.101914
-0.102976
-0.103955
-0.104846
-0.105648
-0.106356
-0.106968
-0.107481
-0.107892
-0.108198
-0.108395
-0.108481
-0.108452
-0.108307
-0.108041
-0.107652
-0.107138
-0.106495
-0.105722
-0.104816
-0.103774
-0.102595
-0.101277
-0.0998195
-0.0982208
-0.0964806
-0.0945991
-0.0925766
-0.0904148
-0.0881152
-0.0856812
-0.0831154
-0.0804237
-0.0776099
-0.0746827
-0.0716465
-0.0685141
-0.0652894
-0.0619901
-0.0586183
-0.0551979
-0.0517264
-0.0482362
-0.0447159
-0.0412099
-0.0376911