/*--------------------------------*- C++ -*----------------------------------*\
  =========                 |
  \\      /  F ield         | OpenFOAM: The Open Source CFD Toolbox
   \\    /   O peration     | Website:  https://openfoam.org
    \\  /    A nd           | Version:  7
     \\/     M anipulation  |
\*---------------------------------------------------------------------------*/
FoamFile
{
    version     2.0;
    format      ascii;
    class       volVectorField;
    location    "24";
    object      U;
}
// * * * * * * * * * * * * * * * * * * * * * * * * * * * * * * * * * * * * * //

dimensions      [0 1 -1 0 0 0 0];

internalField   nonuniform List<vector> 
433
(
(0.795225 -0.0513739 4.01305e-18)
(0.840032 -0.0582772 -2.90534e-18)
(0.57495 -0.0119162 -1.73327e-18)
(0.617256 -0.0167137 1.88556e-18)
(0.660527 -0.0219049 -1.9109e-18)
(0.704601 -0.0274543 2.14366e-18)
(0.749284 -0.0333379 -2.37339e-18)
(0.794267 -0.0393234 -1.38606e-18)
(0.839311 -0.0445373 4.82682e-19)
(0.380613 0.00564096 4.0173e-18)
(0.41643 0.00538407 -2.18765e-18)
(0.453464 0.00403743 3.75395e-18)
(0.491813 0.00179814 -7.70655e-18)
(0.531503 -0.0011849 1.53215e-18)
(0.572499 -0.004791 2.15213e-18)
(0.614716 -0.00891119 4.02133e-19)
(0.658021 -0.0134446 -1.04864e-18)
(0.702254 -0.0183267 -1.93874e-19)
(0.747135 -0.0233038 -1.47615e-18)
(0.792401 -0.0273863 3.3239e-18)
(0.838773 -0.0322719 -9.23538e-19)
(0.254704 -0.0086081 4.02043e-18)
(0.273528 -0.000968793 -5.6641e-19)
(0.296252 0.00462415 -6.06183e-18)
(0.322236 0.00832488 3.19778e-18)
(0.351036 0.0103944 9.62715e-19)
(0.382331 0.0110988 -4.31786e-18)
(0.415869 0.0106756 1.58386e-18)
(0.451452 0.00932266 -2.3817e-19)
(0.488913 0.00720266 9.96474e-19)
(0.528105 0.00445379 -1.78236e-18)
(0.568885 0.00120239 -4.89211e-18)
(0.611101 -0.00243441 4.96293e-18)
(0.654598 -0.00637665 1.35233e-18)
(0.69911 -0.0103618 5.69691e-18)
(0.744331 -0.0132859 7.58421e-20)
(0.791122 -0.0169522 -4.1287e-18)
(0.295016 0.0977178 -4.01621e-19)
(0.262366 0.0668206 -9.14116e-19)
(0.244905 0.0474877 -7.62839e-19)
(0.239799 0.0357788 9.25012e-19)
(0.244039 0.028994 1.85982e-18)
(0.255416 0.0251232 -5.05839e-18)
(0.272361 0.0228425 5.0791e-18)
(0.293761 0.021353 -1.63816e-18)
(0.318825 0.0201599 -1.45291e-18)
(0.346983 0.0189568 1.48959e-18)
(0.377822 0.0175556 6.02123e-18)
(0.411044 0.0158486 -4.21592e-18)
(0.44643 0.0137876 9.61211e-19)
(0.483815 0.0113716 -3.75748e-19)
(0.523059 0.00864086 1.34289e-18)
(0.564031 0.00566487 2.16477e-18)
(0.606606 0.00250312 -4.76402e-18)
(0.650551 -0.000590834 -4.29665e-18)
(0.695514 -0.00240145 3.1262e-18)
(0.742484 -0.00482738 2.72825e-18)
(0.162026 0.280566 -2.23985e-17)
(0.141478 0.241599 5.41269e-18)
(0.126572 0.19981 7.37089e-18)
(0.120568 0.161273 2.2518e-18)
(0.122926 0.128722 -5.11269e-18)
(0.132226 0.101959 -1.91279e-18)
(0.146679 0.0801934 1.48274e-18)
(0.164329 0.0631205 -1.82657e-18)
(0.184117 0.050411 -2.30081e-19)
(0.205594 0.0412561 3.82083e-18)
(0.228636 0.0347523 -2.31822e-18)
(0.253296 0.0301362 8.77195e-19)
(0.279666 0.0267862 -1.75082e-19)
(0.307832 0.0242089 -8.51019e-20)
(0.337862 0.0220306 3.69997e-19)
(0.369801 0.0199839 -4.57326e-18)
(0.403677 0.0178962 2.81489e-19)
(0.439499 0.0156762 -3.13589e-19)
(0.477259 0.0133059 3.84121e-18)
(0.516928 0.0108236 -8.16896e-18)
(0.558468 0.00828185 4.43592e-18)
(0.601711 0.00593944 2.24459e-19)
(0.646267 0.00514611 -1.58302e-19)
(0.693241 0.00393265 -4.16473e-19)
(-2.19025 -0.993343 -3.28124e-18)
(-1.31414 -0.700581 -1.28304e-18)
(-0.762349 -0.483272 1.49665e-17)
(-0.445256 -0.322954 6.77404e-18)
(-0.270536 -0.208129 -3.97262e-18)
(-0.170339 -0.129177 -8.15736e-18)
(-0.104974 -0.0757424 1.26481e-18)
(-0.0541165 -0.0396443 4.56114e-19)
(-0.00931318 -0.015348 5.35742e-18)
(0.0316212 0.001082 -1.53441e-18)
(0.0688305 0.0119714 -5.00324e-19)
(0.102683 0.0184422 -2.18122e-18)
(0.133597 0.0217717 4.63189e-20)
(0.162084 0.0233879 -2.35474e-18)
(0.189114 0.0240112 2.16133e-18)
(0.215655 0.0239802 1.37433e-18)
(0.242459 0.0235252 2.82968e-19)
(0.270097 0.0227609 4.99846e-22)
(0.298984 0.0217303 -1.95684e-18)
(0.329416 0.0204427 3.08549e-18)
(0.361602 0.0189015 4.84948e-18)
(0.395692 0.0171236 -1.06e-17)
(0.431794 0.0151574 6.00502e-18)
(0.469981 0.013089 -2.53608e-18)
(0.510314 0.011016 -3.92803e-18)
(0.552719 0.0092448 4.02024e-18)
(0.596769 0.00931414 -3.58393e-18)
(0.643655 0.00923943 1.2927e-18)
(-4.26701 -2.31349 1.58299e-17)
(-5.15197 -2.92403 -6.02741e-18)
(-5.01772 -2.98544 -8.73697e-18)
(-4.12625 -2.60598 9.57669e-18)
(-2.92531 -2.00403 2.99055e-18)
(-1.8032 -1.38525 -7.92564e-18)
(-0.962468 -0.878811 -5.103e-18)
(-0.432134 -0.528662 -2.42174e-19)
(-0.145419 -0.31583 3.80543e-18)
(-0.0127838 -0.196261 2.5289e-19)
(0.0404058 -0.130277 -5.77732e-19)
(0.0613258 -0.0912798 3.97808e-19)
(0.0728977 -0.0641893 -9.54787e-19)
(0.0842514 -0.0428263 2.26224e-18)
(0.097912 -0.0252977 -4.97602e-18)
(0.113685 -0.011103 3.54892e-18)
(0.130923 -0.000128438 -1.34668e-18)
(0.149436 0.00777333 1.38554e-18)
(0.169244 0.0130982 -1.02592e-18)
(0.190411 0.0164676 -9.50566e-19)
(0.213066 0.018392 1.11515e-18)
(0.237334 0.0192581 -3.63249e-18)
(0.263334 0.0193362 8.35281e-19)
(0.291176 0.0188081 3.59457e-18)
(0.320969 0.0177986 -3.41943e-18)
(0.352828 0.0164053 5.06829e-18)
(0.386874 0.0147295 -5.67417e-18)
(0.423241 0.0128979 -4.40601e-18)
(0.462086 0.0110537 1.10051e-17)
(0.503461 0.00956687 -5.42727e-18)
(0.546937 0.010233 3.25267e-18)
(0.593789 0.0111587 2.4939e-18)
(8.47225 5.31071 -5.4302e-17)
(7.88425 4.80648 5.36972e-17)
(5.90605 2.9014 -4.12608e-17)
(3.47637 0.582342 2.7105e-17)
(1.21386 -1.414 6.16805e-18)
(-0.519392 -2.68818 -2.83654e-17)
(-1.53195 -3.12321 1.93382e-17)
(-1.81416 -2.84685 4.19642e-18)
(-1.5485 -2.143 2.69789e-17)
(-1.01745 -1.32264 -2.8409e-17)
(-0.473674 -0.617828 -7.95505e-18)
(-0.0642956 -0.137556 2.41837e-17)
(0.172319 0.115243 -1.37436e-17)
(0.267852 0.199433 -1.82978e-18)
(0.27625 0.189439 2.55608e-18)
(0.24488 0.144304 -5.2302e-19)
(0.204472 0.0975205 8.41712e-19)
(0.170427 0.0618781 -7.53398e-19)
(0.147428 0.0389227 1.02357e-18)
(0.134909 0.0260534 4.86151e-19)
(0.13086 0.0197763 -1.40283e-18)
(0.133414 0.0173183 2.3682e-18)
(0.141084 0.0168326 -1.83306e-18)
(0.152893 0.0170888 -6.56444e-19)
(0.168106 0.017463 1.98744e-18)
(0.186168 0.0177064 3.08524e-18)
(0.20671 0.0177079 -2.00581e-18)
(0.229513 0.0174087 -1.55706e-18)
(0.254466 0.016777 -1.27953e-18)
(0.28155 0.0157983 2.04511e-18)
(0.310824 0.0144778 -8.28188e-19)
(0.342414 0.0128549 3.09055e-18)
(0.376515 0.0110178 -4.00458e-18)
(0.413423 0.00909741 4.33007e-18)
(0.453404 0.00749456 -1.59576e-18)
(0.496186 0.00831024 -7.26825e-18)
(0.543301 0.00996635 1.83341e-18)
(-0.708433 -0.0208831 -1.83119e-17)
(0.474883 1.81858 1.16182e-17)
(3.02795 4.58731 1.00731e-17)
(4.37801 5.47143 9.63582e-18)
(4.08519 4.15493 -4.30768e-18)
(3.1111 2.12962 -2.13613e-17)
(2.16148 0.332125 2.94434e-17)
(1.44073 -0.86088 5.07262e-18)
(0.911163 -1.43279 -7.65048e-18)
(0.542783 -1.48606 8.99362e-18)
(0.337941 -1.16749 -8.90217e-18)
(0.27679 -0.664793 -1.38534e-18)
(0.303013 -0.163355 1.89135e-17)
(0.350521 0.211587 -6.32985e-18)
(0.373353 0.417117 -4.06674e-18)
(0.356957 0.475442 -2.80705e-18)
(0.310171 0.439202 -2.97738e-18)
(0.250637 0.360791 9.20701e-18)
(0.19452 0.275091 -5.06797e-18)
(0.150736 0.200014 -2.65314e-19)
(0.121108 0.141862 -2.84704e-18)
(0.103864 0.0998981 1.83454e-18)
(0.096497 0.0707177 2.29133e-19)
(0.0965488 0.0508769 4.97306e-19)
(0.102005 0.0375567 -2.88213e-18)
(0.111481 0.0288158 1.26943e-18)
(0.124042 0.0232521 1.82395e-18)
(0.139048 0.0198134 -4.98802e-18)
(0.156143 0.0176956 2.03016e-18)
(0.175138 0.016333 -2.1082e-18)
(0.195954 0.0153258 4.14944e-18)
(0.21859 0.0143921 8.65754e-19)
(0.243109 0.0133363 -1.93078e-18)
(0.269634 0.0120305 5.64242e-18)
(0.298356 0.0104093 -2.11103e-18)
(0.329559 0.00847433 1.17408e-18)
(0.363699 0.00628096 -1.29798e-19)
(0.401352 0.00415905 -5.80784e-19)
(0.442757 0.0044521 -5.44606e-18)
(0.490531 0.0062214 4.64641e-18)
(1.3541 2.17359 1.77415e-18)
(2.19171 4.14326 1.69668e-18)
(1.30888 4.14321 -3.51277e-17)
(-0.0577819 3.04251 -3.15774e-17)
(-1.23984 1.57135 4.28192e-17)
(-2.41576 0.287229 4.41446e-17)
(-3.26708 -0.567989 -1.45051e-17)
(-3.52949 -0.927657 -1.58852e-17)
(-3.20253 -0.910089 -4.81906e-17)
(-2.51825 -0.713358 1.66101e-17)
(-1.75885 -0.485666 3.36866e-17)
(-1.11282 -0.290225 -4.21903e-17)
(-0.64956 -0.141576 1.96995e-17)
(-0.35942 -0.0392638 9.58201e-18)
(-0.200724 0.0223034 6.80036e-18)
(-0.125764 0.0523331 7.78548e-18)
(-0.0946038 0.0612233 -1.10297e-17)
(-0.0802223 0.0580926 2.24828e-18)
(-0.06814 0.0502256 1.11098e-18)
(-0.0526331 0.0416136 5.08835e-18)
(-0.0333985 0.0340063 -4.80399e-18)
(-0.0118743 0.0279301 3.51368e-18)
(0.0104613 0.02302 -3.3315e-18)
(0.03223 0.0192063 -1.76118e-18)
(0.0527822 0.0163452 4.27946e-18)
(0.0721643 0.0142495 -3.73708e-18)
(0.0905965 0.0128428 1.52733e-18)
(0.108504 0.0120435 8.78455e-19)
(0.126426 0.0116621 -2.40379e-18)
(0.144848 0.0114809 1.76538e-18)
(0.164143 0.0113212 6.54808e-19)
(0.184604 0.0110379 -2.61466e-18)
(0.206468 0.0105142 7.05393e-19)
(0.229952 0.00965724 1.41131e-18)
(0.25528 0.00840111 4.06575e-18)
(0.282739 0.00671757 -5.85126e-19)
(0.312786 0.00461188 -6.28794e-18)
(0.346222 0.00226009 2.60605e-18)
(0.384039 0.00163934 5.76291e-18)
(0.431496 0.00224503 -2.66248e-18)
(2.20287 1.9409 -1.44284e-18)
(3.20524 2.49071 1.16008e-18)
(1.75689 0.683161 7.90071e-18)
(0.0136563 -0.844785 6.03759e-18)
(-1.32425 -1.48428 -9.32794e-18)
(-2.7525 -2.03597 -9.92816e-19)
(-4.29824 -2.76201 -9.78345e-18)
(-5.63686 -3.55153 3.57319e-18)
(-6.33251 -4.10709 1.33527e-18)
(-6.14183 -4.18418 -5.8317e-20)
(-5.18676 -3.76456 7.046e-18)
(-3.85346 -3.03989 -9.21325e-18)
(-2.54911 -2.25264 1.67231e-18)
(-1.5218 -1.56799 3.18928e-18)
(-0.833882 -1.05137 -4.48827e-19)
(-0.431591 -0.69829 3.4074e-18)
(-0.223586 -0.469782 -2.07467e-18)
(-0.124681 -0.324884 4.34399e-18)
(-0.0760754 -0.231927 -3.92447e-18)
(-0.0471426 -0.168852 3.18517e-19)
(-0.0246623 -0.122804 1.20099e-18)
(-0.00403237 -0.0876997 6.03042e-19)
(0.015208 -0.0607639 -1.10838e-18)
(0.0327757 -0.0403742 -1.98202e-18)
(0.0487525 -0.0252763 2.69618e-18)
(0.0635371 -0.0143042 -1.92037e-18)
(0.0776097 -0.00649591 1.50663e-18)
(0.0915881 -0.00108985 -2.61284e-18)
(0.105969 0.00258902 7.6551e-19)
(0.121095 0.00506102 9.91554e-19)
(0.137224 0.00667262 7.80439e-20)
(0.154545 0.00764513 1.48265e-18)
(0.1732 0.00811439 -5.35486e-18)
(0.193304 0.00816055 2.87036e-19)
(0.214971 0.0078314 2.58987e-18)
(0.238322 0.00718442 -1.49328e-18)
(0.263551 0.0062805 -2.39504e-18)
(0.29087 0.00537541 -4.26227e-18)
(0.323713 0.00287866 7.14982e-18)
(4.09149 3.24692 1.34313e-17)
(1.95384 1.3204 1.74174e-17)
(-0.243146 -0.818744 -1.0358e-17)
(-2.05479 -2.58671 1.82162e-17)
(-3.12313 -3.58213 -2.71559e-17)
(-3.31768 -3.71298 -3.0878e-18)
(-2.81713 -3.18402 3.28677e-17)
(-1.98152 -2.34363 -2.05698e-17)
(-1.14722 -1.50642 4.66499e-18)
(-0.509612 -0.854335 -1.74602e-17)
(-0.114924 -0.435789 1.84451e-18)
(0.0818275 -0.213203 -2.12632e-18)
(0.153124 -0.115916 3.25844e-18)
(0.15943 -0.0806715 -1.5597e-19)
(0.140394 -0.0682284 2.91183e-19)
(0.117313 -0.0604637 -6.29675e-19)
(0.0978601 -0.0511381 9.645e-19)
(0.0839836 -0.0400378 1.33768e-18)
(0.0757123 -0.0290414 3.24075e-20)
(0.0723142 -0.0196216 -2.41745e-18)
(0.0728522 -0.0121755 1.56278e-18)
(0.0764574 -0.0064338 -1.70038e-18)
(0.0826902 -0.00216148 -1.99941e-18)
(0.0912142 0.000929431 5.56865e-18)
(0.101745 0.00315093 -3.83558e-18)
(0.114072 0.00475005 1.69515e-18)
(0.128048 0.00590382 -4.5841e-18)
(0.143581 0.00673201 7.49985e-18)
(0.160623 0.00731253 -1.86757e-18)
(0.179176 0.00769498 -1.97519e-18)
(0.19927 0.00791842 4.5285e-19)
(0.221003 0.00799511 2.56992e-18)
(0.244489 0.00793311 -1.39301e-18)
(0.016215 -2.83847 -1.51641e-17)
(-0.299458 -2.52678 1.41005e-17)
(-0.316862 -1.81479 -1.90155e-17)
(-0.154839 -1.00104 6.08891e-18)
(0.0536024 -0.314974 -1.77337e-18)
(0.218559 0.134426 1.22549e-17)
(0.306164 0.349036 -2.57452e-18)
(0.323455 0.393024 -4.93978e-18)
(0.294636 0.344044 7.61936e-19)
(0.24474 0.263306 1.07346e-18)
(0.192794 0.185366 -1.13346e-18)
(0.148469 0.123613 1.97073e-19)
(0.114705 0.0795287 1.30196e-18)
(0.090998 0.0501258 -2.81839e-18)
(0.0754012 0.0316043 2.04684e-18)
(0.0663718 0.0202866 -1.15105e-18)
(0.062612 0.0133218 4.62291e-19)
(0.0629716 0.00911662 4.9682e-21)
(0.0665879 0.00669787 2.48805e-18)
(0.0728234 0.00543874 -3.30818e-18)
(0.0812168 0.00493484 1.93966e-18)
(0.0914377 0.00492277 3.25629e-19)
(0.103264 0.00522226 -1.75491e-18)
(0.116558 0.00570595 8.29608e-19)
(0.131246 0.00628168 -4.63342e-19)
(0.147308 0.00687087 2.34025e-18)
(0.164757 0.0073956 -3.02745e-18)
(0.1053 0.236101 1.99894e-17)
(0.116921 0.387155 7.068e-18)
(0.1055 0.428572 1.81547e-18)
(0.0810631 0.397668 -7.80536e-18)
(0.0528431 0.333146 -1.71221e-18)
(0.0286204 0.261715 1.34259e-18)
(0.0123502 0.197103 1.78536e-18)
(0.00397795 0.144419 1.84965e-18)
(0.00182011 0.103762 -1.98854e-18)
(0.00418466 0.0730611 -3.58773e-18)
(0.00948125 0.0502827 3.59436e-18)
(0.016304 0.0338524 -5.57353e-19)
(0.0237985 0.0223374 5.35319e-19)
(0.0317346 0.0144809 -9.324e-19)
(0.0401022 0.00931983 -4.72146e-19)
(0.0489848 0.00612164 1.43866e-18)
(0.0584943 0.00433497 -1.4006e-18)
(0.0687425 0.0035363 4.00096e-18)
(0.0798282 0.00341031 3.53334e-19)
(0.0918376 0.00371831 -2.40418e-18)
(0.104847 0.00427503 1.20564e-19)
(0.118925 0.00492368 1.54108e-20)
(-0.172849 -0.0923975 2.52838e-18)
(-0.14723 -0.057817 -1.36671e-18)
(-0.124441 -0.0375083 -5.71228e-18)
(-0.101125 -0.0243912 3.61834e-18)
(-0.0776141 -0.0153223 -1.00187e-18)
(-0.0551382 -0.00936725 -2.97192e-18)
(-0.0350085 -0.00581702 3.74755e-19)
(-0.0178181 -0.00391646 1.0379e-18)
(-0.00331451 -0.0030284 -3.17358e-19)
(0.00908616 -0.00267062 -9.41442e-19)
(0.0200294 -0.0024945 9.7198e-19)
(0.0301212 -0.00229409 -7.82066e-19)
(0.0398735 -0.00194166 -1.78933e-18)
(0.0496647 -0.00139988 9.57928e-19)
(0.0597889 -0.000685621 -1.55639e-19)
(0.0704631 0.000156479 2.83472e-18)
(0.0818473 0.0010529 -5.49664e-18)
(-0.0137894 -0.101772 1.40649e-18)
(-0.012177 -0.0783585 -1.05132e-18)
(-0.00948293 -0.0592306 1.29768e-19)
(-0.00568735 -0.0440718 -5.79339e-19)
(-0.00103921 -0.0325826 3.16941e-18)
(0.00413515 -0.0241948 -9.03475e-19)
(0.00968208 -0.0182134 -4.73792e-19)
(0.0155816 -0.0139684 -7.19455e-20)
(0.0219208 -0.0109168 1.39073e-19)
(0.0287746 -0.00863067 -1.45518e-19)
(0.0361791 -0.00679243 1.46346e-18)
(0.0442107 -0.00522594 2.64417e-20)
(0.05293 -0.00383741 -4.74915e-18)
(0.0193294 -0.015879 -9.88807e-20)
(0.0151897 -0.0158296 1.6385e-18)
(0.0137633 -0.0149543 -5.222e-20)
(0.0144681 -0.0137371 -1.67123e-18)
(0.0168862 -0.0123959 -2.40382e-19)
(0.0206784 -0.0110284 9.6519e-19)
(0.025597 -0.00965587 -2.2546e-18)
(0.0314837 -0.00830017 7.09741e-19)
(0.00567764 -0.00946095 -3.14795e-19)
(0.00795961 -0.0108726 -4.49954e-19)
(0.0111532 -0.0112268 -4.67095e-19)
(0.0151369 -0.0109116 8.09682e-19)
(0.74342 -0.00571974 -8.95248e-19)
(0.789978 -0.0172174 -2.04973e-18)
(0.742889 -0.0107656 -1.25927e-18)
(0.693836 -0.00543775 1.70448e-18)
(0.636718 0.00148901 4.78503e-19)
(0.825072 -0.0257517 -6.40466e-19)
(0.777611 -0.0154536 1.20318e-18)
(0.729512 -0.00831083 1.60169e-19)
(0.68115 -0.0042344 1.18978e-18)
(0.633461 -0.00289521 6.85666e-19)
(0.585493 -0.00345036 -2.50248e-18)
(0.530628 0.00102603 -9.3427e-19)
)
;

boundaryField
{
    inlet
    {
        type            uniformFixedValue;
        uniformValue    constant (1 0 0);
        value           nonuniform 0();
    }
    outlet
    {
        type            pressureInletOutletVelocity;
        value           nonuniform 0();
    }
    cylinder
    {
        type            fixedValue;
        value           uniform (0 0 0);
    }
    top
    {
        type            symmetryPlane;
    }
    bottom
    {
        type            symmetryPlane;
    }
    defaultFaces
    {
        type            empty;
    }
    procBoundary9to3
    {
        type            processor;
        value           nonuniform List<vector> 
16
(
(0.884575 -0.0645168 -5.25304e-18)
(0.884575 -0.0645168 -5.25304e-18)
(0.884988 -0.0505608 -2.94623e-18)
(0.884988 -0.0505608 -2.94623e-18)
(0.916657 -0.0553435 -1.56789e-18)
(0.871558 -0.0391152 3.42756e-18)
(0.848883 -0.0190351 -2.07283e-18)
(0.890917 -0.03101 1.67716e-18)
(0.845978 -0.0211835 -4.11103e-18)
(0.798477 -0.0129633 -1.09822e-19)
(0.798477 -0.0129633 -1.09822e-19)
(0.928465 -0.0505918 2.19604e-19)
(0.883533 -0.036951 4.65674e-19)
(0.837189 -0.0258357 2.73269e-18)
(0.837189 -0.0258357 2.73269e-18)
(0.871558 -0.0391152 3.42756e-18)
)
;
    }
    procBoundary9to8
    {
        type            processor;
        value           nonuniform List<vector> 
17
(
(0.839482 -0.0722058 -1.11561e-18)
(0.883882 -0.0798921 2.2388e-18)
(0.618889 -0.0263783 5.35658e-18)
(0.661966 -0.0320588 1.5517e-19)
(0.705883 -0.0381361 -5.1325e-18)
(0.75039 -0.0445817 9.27754e-19)
(0.75039 -0.0445817 9.27754e-19)
(0.416657 0.00387652 -3.76428e-18)
(0.454625 0.000268476 -2.5698e-18)
(0.493615 -0.00348523 2.4285e-18)
(0.533719 -0.0075188 -1.57991e-18)
(0.533719 -0.0075188 -1.57991e-18)
(0.244063 -0.0112356 1.5144e-18)
(0.278012 -0.003348 -3.22675e-18)
(0.311761 0.00170772 2.00909e-18)
(0.345823 0.00453843 -3.45758e-18)
(0.345823 0.00453843 -3.45758e-18)
)
;
    }
    procBoundary9to10
    {
        type            processor;
        value           nonuniform List<vector> 
12
(
(0.358304 -0.000746267 4.57377e-18)
(0.358304 -0.000746267 4.57377e-18)
(0.272239 0.00637037 -2.09037e-19)
(0.183647 0.00772878 -3.61461e-19)
(0.272239 0.00637037 -2.09037e-19)
(0.203996 0.00769286 -3.55581e-18)
(0.183647 0.00772878 -3.61461e-19)
(0.134128 0.00550667 3.58953e-19)
(0.134128 0.00550667 3.58953e-19)
(0.694433 0.00298457 0)
(0.586273 0.0179002 0)
(0.479807 0.0317026 0)
)
;
    }
    procBoundary9to14
    {
        type            processor;
        value           nonuniform List<vector> 
30
(
(0.243068 -0.0445237 -3.35963e-19)
(0.233308 -0.0385612 -1.06287e-18)
(0.232976 -0.0287473 1.51385e-18)
(0.24071 -0.0181182 -2.49587e-20)
(0.24071 -0.0181182 -2.49587e-20)
(0.54499 0.340653 -5.60691e-19)
(0.485258 0.278698 -1.72341e-18)
(0.41116 0.206279 3.4831e-18)
(0.344865 0.143904 -1.35941e-18)
(0.344865 0.143904 -1.35941e-18)
(0.032593 0.135378 9.3518e-18)
(0.13005 0.24491 -8.03218e-18)
(0.173408 0.300421 5.87155e-18)
(0.178082 0.306007 -2.87127e-17)
(0.178082 0.306007 -2.87127e-17)
(-7.08094 -2.43195 -2.47312e-17)
(-6.26922 -2.21988 2.27563e-17)
(-4.89403 -1.81643 -6.52405e-18)
(-3.42304 -1.37386 2.92565e-19)
(-3.42304 -1.37386 2.92565e-19)
(4.07504 0.569966 4.499e-17)
(3.38047 0.973974 -2.33459e-17)
(1.87551 0.744138 -1.98555e-17)
(-0.237469 -0.10636 7.25761e-17)
(-2.47759 -1.26339 -2.29638e-17)
(-2.47759 -1.26339 -2.29638e-17)
(-0.140995 -0.6584 -1.9158e-17)
(2.44228 0.774889 4.32205e-17)
(6.44559 3.70499 -2.83454e-17)
(6.44559 3.70499 -2.83454e-17)
)
;
    }
    procBoundary9to15
    {
        type            processor;
        value           nonuniform List<vector> 
37
(
(1.09521 0.104395 -2.08971e-17)
(3.36491 1.1911 -1.38029e-17)
(5.4878 2.83958 -1.29627e-17)
(6.34588 4.1233 5.62681e-17)
(5.70534 4.34081 4.29747e-18)
(5.70534 4.34081 4.29747e-18)
(4.38709 3.29913 -7.21885e-19)
(2.91651 0.683395 2.86543e-17)
(1.65489 -1.31605 -1.55347e-17)
(0.675708 -2.48451 -1.49636e-17)
(0.675708 -2.48451 -1.49636e-17)
(-0.222477 -0.890738 3.44779e-17)
(-0.113276 -0.724169 -1.63381e-17)
(-0.0109943 -0.39133 5.39004e-18)
(0.0636157 -0.0367607 7.44689e-18)
(0.0636157 -0.0367607 7.44689e-18)
(-0.825841 -0.763063 6.15876e-18)
(-0.4782 -0.453471 -1.72738e-18)
(-0.298447 -0.264128 7.84522e-18)
(-0.213745 -0.154065 -1.28446e-17)
(-0.213745 -0.154065 -1.28446e-17)
(-0.0420267 -0.262411 -8.03805e-19)
(-0.0192127 -0.178886 -2.56929e-19)
(-0.014781 -0.132174 8.51437e-19)
(-0.014781 -0.132174 8.51437e-19)
(0.0777019 0.0270322 1.67121e-19)
(0.0560082 0.00376997 5.67296e-19)
(0.0389263 -0.00857619 -1.48001e-19)
(0.0269241 -0.0140786 3.65844e-19)
(0.0269241 -0.0140786 3.65844e-19)
(0.00657782 0.00820016 -7.37263e-19)
(0.00467004 -0.000956733 -6.93469e-19)
(0.00449352 -0.00642996 -3.71117e-19)
(0.00449352 -0.00642996 -3.71117e-19)
(-0.00746318 -0.0131511 -6.13875e-19)
(-0.00299514 -0.0135614 2.82862e-19)
(0.00108763 -0.0134135 -8.5403e-19)
)
;
    }
    procBoundary9to16
    {
        type            processor;
        value           nonuniform List<vector> 9((0.0940596 0.00190501 -4.13026e-18) (0.0940596 0.00190501 -4.13026e-18) (0.0623861 -0.00259993 -6.10702e-18) (0.0623861 -0.00259993 -6.10702e-18) (0.0382339 -0.0069925 -1.02158e-18) (0.0382339 -0.0069925 -1.02158e-18) (0.0198418 -0.0101901 -4.6948e-20) (0.0198418 -0.0101901 -4.6948e-20) (0.00508932 -0.012876 -3.19944e-19));
    }
}


// ************************************************************************* //
