/*--------------------------------*- C++ -*----------------------------------*\
  =========                 |
  \\      /  F ield         | OpenFOAM: The Open Source CFD Toolbox
   \\    /   O peration     | Website:  https://openfoam.org
    \\  /    A nd           | Version:  7
     \\/     M anipulation  |
\*---------------------------------------------------------------------------*/
FoamFile
{
    version     2.0;
    format      ascii;
    class       volScalarField;
    location    "16";
    object      p;
}
// * * * * * * * * * * * * * * * * * * * * * * * * * * * * * * * * * * * * * //

dimensions      [0 2 -2 0 0 0 0];

internalField   nonuniform List<scalar> 
435
(
0.0252947
0.0523385
0.0441616
0.0371474
0.0308704
0.0246427
0.048807
0.0415393
0.0353503
0.0297701
0.0242091
0.0458465
0.0393791
0.0339026
0.0289282
0.023951
0.0433669
0.0376036
0.0327443
0.0282984
0.0238336
0.0412942
0.0361504
0.0318272
0.0278438
0.0238302
0.0395663
0.0349677
0.0311113
0.0275336
0.0239182
0.0381306
0.0340125
0.030563
0.0273419
0.0240784
0.0369421
0.0332478
0.0301536
0.0272465
0.0242945
0.0359619
0.032642
0.0298586
0.0272282
0.0245523
0.0351562
0.0321677
0.0296563
0.0272701
0.0248391
0.034496
0.031801
0.0295282
0.0273578
0.0251443
0.033956
0.0315213
0.0294582
0.0274786
0.0254585
0.0335145
0.0313111
0.0294323
0.0276217
0.0257736
0.0331527
0.0311549
0.0294386
0.0277779
0.0260829
0.0328549
0.03104
0.0294671
0.0279393
0.0263808
0.0326076
0.0309554
0.0295093
0.0280996
0.0266627
0.0323999
0.0308924
0.0295584
0.0282536
0.026925
0.0322225
0.0308436
0.029609
0.0283975
0.0271653
0.0320685
0.0308036
0.0296569
0.0285281
0.0273817
0.0319323
0.0307682
0.0296991
0.0286437
0.0275734
0.03181
0.0307344
0.0297336
0.0287431
0.0277399
0.0316989
0.0307006
0.0297597
0.0288259
0.0278817
0.0315975
0.0306659
0.0297768
0.0288924
0.0279993
0.0315058
0.0306307
0.0297858
0.0289435
0.0280942
0.0314238
0.0305953
0.0297871
0.0289798
0.0281669
0.0313538
0.0305623
0.0297833
0.0290041
0.0282205
0.0312955
0.0305308
0.029773
0.0290145
0.0282526
0.031256
0.0305084
0.0297643
0.0290192
0.0282716
0.0312287
0.0304856
0.0297448
0.0290035
0.0282606
0.163731
0.165797
0.165868
0.162621
0.15399
0.139908
0.119968
0.0961113
0.0701429
0.158934
0.159919
0.161009
0.159858
0.155299
0.145669
0.131068
0.111624
0.0889294
0.0651715
0.155485
0.155976
0.156135
0.153862
0.148155
0.13774
0.122856
0.104042
0.0825915
0.0608578
0.151897
0.151914
0.151198
0.14791
0.14122
0.130218
0.115255
0.0971692
0.0770028
0.0571208
0.148183
0.14775
0.146222
0.142029
0.134518
0.123109
0.108242
0.0909527
0.0720769
0.0538872
0.144355
0.143501
0.141229
0.136245
0.12807
0.116417
0.101789
0.0853398
0.0677355
0.0510916
0.140427
0.139185
0.136243
0.130582
0.121892
0.110136
0.0958655
0.0802791
0.0639084
0.0486756
0.136417
0.134822
0.131286
0.12506
0.115994
0.10426
0.0904382
0.0757213
0.060533
0.0465874
0.132342
0.130431
0.12638
0.119699
0.110384
0.0987772
0.0854733
0.0716195
0.0575539
0.0447816
0.128221
0.126033
0.121546
0.114513
0.105065
0.0936739
0.080937
0.0679296
0.0549219
0.0432185
0.124075
0.121649
0.116804
0.109517
0.100038
0.0889343
0.0767962
0.0646106
0.0525937
0.0418633
0.119925
0.117301
0.112173
0.104722
0.0953006
0.0845414
0.0730194
0.0616247
0.0505311
0.0406858
0.115793
0.113009
0.107671
0.100137
0.0908494
0.0804777
0.0695765
0.0589377
0.0487005
0.0396601
0.111702
0.108796
0.103315
0.0957704
0.0866786
0.0767253
0.0664398
0.0565182
0.0470726
0.0387637
0.107675
0.104683
0.0991206
0.0916277
0.0827818
0.0732669
0.0635837
0.0543387
0.0456221
0.0379771
0.103736
0.10069
0.0951015
0.087714
0.0791521
0.0700858
0.0609851
0.0523745
0.044327
0.0372843
0.0999087
0.096838
0.0912715
0.0840333
0.0757825
0.0671664
0.0586233
0.0506041
0.0431685
0.0366712
0.0962171
0.0931473
0.0876436
0.080589
0.0726665
0.0644946
0.0564802
0.0490091
0.0421309
0.0361266
0.0926849
0.089638
0.0842301
0.0773845
0.0697981
0.062058
0.0545401
0.0475738
0.0412012
0.0356411
0.0893361
0.0863299
0.0810431
0.0744231
0.0671724
0.0598459
0.0527898
0.0462852
0.0403686
0.0352074
0.0861948
0.0832428
0.0780949
0.0717088
0.0647861
0.0578498
0.0512188
0.045133
0.0396251
0.0348199
0.0832852
0.0803969
0.0753981
0.0692463
0.0626371
0.0560633
0.0498189
0.0441092
0.0389643
0.0344747
0.0806323
0.0778127
0.0729663
0.067042
0.0607255
0.0544825
0.0485844
0.0432082
0.038382
0.034169
0.0782619
0.0755121
0.0708143
0.0651035
0.0590536
0.0531058
0.0475122
0.0424267
0.037876
0.0339019
0.0762012
0.0735182
0.0689589
0.0634412
0.0576263
0.0519346
0.046602
0.0417637
0.0374457
0.0336731
0.0744795
0.0718564
0.0674193
0.062068
0.0564515
0.0509732
0.0458559
0.0412204
0.0370922
0.0334841
0.0731288
0.0705553
0.0662183
0.0610008
0.0555408
0.0502295
0.0452793
0.0408006
0.0368183
0.0333366
0.0721852
0.069647
0.0653829
0.0602606
0.0549104
0.0497152
0.0448809
0.0405103
0.0366287
0.0332346
0.0716903
0.0691691
0.0649451
0.0598741
0.0545817
0.0494472
0.0446734
0.0403592
0.0365295
0.0331794
)
;

boundaryField
{
    inlet
    {
        type            zeroGradient;
    }
    outlet
    {
        type            fixedValue;
        value           nonuniform 0();
    }
    cylinder
    {
        type            zeroGradient;
    }
    top
    {
        type            symmetryPlane;
    }
    bottom
    {
        type            symmetryPlane;
    }
    defaultFaces
    {
        type            empty;
    }
    procBoundary30to24
    {
        type            processor;
        value           nonuniform List<scalar> 
17
(
0.0262211
0.0565508
0.0473418
0.0393684
0.0322865
0.0322865
0.167397
0.170479
0.171862
0.170089
0.162682
0.149385
0.129126
0.104239
0.0758614
0.162236
0.162236
)
;
    }
    procBoundary30to31
    {
        type            processor;
        value           nonuniform List<scalar> 
30
(
0.0183048
0.0184069
0.0186328
0.0189532
0.0193448
0.0197904
0.0202753
0.020787
0.0213148
0.0218494
0.0223822
0.0229062
0.0234153
0.0239042
0.0243684
0.0248045
0.0252096
0.025582
0.0259204
0.0262241
0.0264933
0.0267283
0.0269302
0.0271001
0.0272396
0.0273497
0.0274333
0.0274879
0.0275219
0.0275167
)
;
    }
}


// ************************************************************************* //
