/*--------------------------------*- C++ -*----------------------------------*\
  =========                 |
  \\      /  F ield         | OpenFOAM: The Open Source CFD Toolbox
   \\    /   O peration     | Website:  https://openfoam.org
    \\  /    A nd           | Version:  7
     \\/     M anipulation  |
\*---------------------------------------------------------------------------*/
FoamFile
{
    version     2.0;
    format      ascii;
    class       surfaceScalarField;
    location    "41.00026";
    object      phi;
}
// * * * * * * * * * * * * * * * * * * * * * * * * * * * * * * * * * * * * * //

dimensions      [0 3 -1 0 0 0 0];

internalField   nonuniform List<scalar> 
11438
(
0.000317754
0.000450395
0.000219623
0.000319582
0.000137419
0.000219978
6.59907e-05
0.000152862
0.000119089
0.0164983
-9.55265e-06
0.0165079
-9.5548e-06
0.0165174
-9.54587e-06
0.0165269
-9.52523e-06
0.0165364
-9.49225e-06
0.0165459
-9.44633e-06
0.0165553
-9.38683e-06
0.0165646
-9.31317e-06
0.0165738
-9.22475e-06
0.0165829
-9.121e-06
0.0165919
-9.00136e-06
0.0166008
-8.86529e-06
0.0166095
-8.71231e-06
0.016618
-8.54195e-06
0.0166264
-8.35377e-06
0.0166345
-8.14741e-06
0.0166425
-7.92253e-06
0.0166501
-7.67886e-06
0.0166576
-7.41619e-06
0.0166647
-7.13438e-06
0.0166715
-6.83337e-06
0.016678
-6.51315e-06
0.0166842
-6.17384e-06
0.01669
-5.8156e-06
0.0166955
-5.43871e-06
0.0167005
-5.04354e-06
0.0167051
-4.63057e-06
0.0167093
-4.20035e-06
0.0167131
-3.75356e-06
0.0167164
-3.29097e-06
0.0167192
-2.81346e-06
0.0167215
-2.32199e-06
0.0167233
-1.81763e-06
0.0167246
-1.30155e-06
0.0167254
-7.74996e-07
0.0167257
-2.39285e-07
0.0167254
3.04179e-07
0.0167245
8.53939e-07
0.0167231
1.40848e-06
0.0167211
1.96627e-06
0.0167186
2.52571e-06
0.0167155
3.08524e-06
0.0167119
3.64325e-06
0.0167077
4.1982e-06
0.0167029
4.74856e-06
0.0166976
5.29284e-06
0.0166918
5.82964e-06
0.0166854
6.35763e-06
0.0166786
6.87559e-06
0.0166712
7.38238e-06
0.0166633
7.87701e-06
0.016655
8.35861e-06
0.0166461
8.82638e-06
0.0166368
9.27982e-06
0.0166271
9.71812e-06
0.016617
1.01416e-05
0.0166064
1.0548e-05
0.0165955
1.09419e-05
0.0165842
1.1311e-05
0.0165725
1.16824e-05
0.0165605
1.19917e-05
0.0165481
1.23733e-05
0.0165356
1.25433e-05
1.30174e-05
0.0161738
-1.89444e-05
0.0161831
-1.89471e-05
0.0161925
-1.89278e-05
0.0162019
-1.88852e-05
0.0162112
-1.88181e-05
0.0162205
-1.87254e-05
0.0162297
-1.86057e-05
0.0162389
-1.84579e-05
0.0162479
-1.82808e-05
0.0162569
-1.80734e-05
0.0162657
-1.78344e-05
0.0162744
-1.75628e-05
0.0162829
-1.72577e-05
0.0162913
-1.69182e-05
0.0162995
-1.65433e-05
0.0163075
-1.61324e-05
0.0163153
-1.56848e-05
0.0163228
-1.52e-05
0.01633
-1.46775e-05
0.016337
-1.41171e-05
0.0163437
-1.35187e-05
0.0163501
-1.28823e-05
0.0163561
-1.22081e-05
0.0163618
-1.14965e-05
0.0163671
-1.0748e-05
0.016372
-9.96337e-06
0.0163765
-9.14354e-06
0.0163806
-8.28965e-06
0.0163843
-7.40305e-06
0.0163875
-6.48527e-06
0.0163902
-5.53806e-06
0.0163924
-4.56336e-06
0.0163942
-3.56328e-06
0.0163954
-2.54015e-06
0.0163961
-1.49643e-06
0.0163963
-4.34758e-07
0.016396
6.42086e-07
0.0163951
1.73121e-06
0.0163937
2.82963e-06
0.0163917
3.93426e-06
0.0163892
5.04199e-06
0.0163861
6.14969e-06
0.0163825
7.25422e-06
0.0163784
8.35249e-06
0.0163737
9.44148e-06
0.0163685
1.05183e-05
0.0163627
1.15801e-05
0.0163564
1.26244e-05
0.0163497
1.36486e-05
0.0163424
1.46506e-05
0.0163347
1.56285e-05
0.0163264
1.65804e-05
0.0163177
1.7505e-05
0.0163086
1.84011e-05
0.0162991
1.92674e-05
0.0162891
2.01039e-05
0.0162788
2.0908e-05
0.016268
2.16841e-05
0.0162569
2.24192e-05
0.0162454
2.31409e-05
0.0162337
2.37852e-05
0.0162215
2.44784e-05
0.0162091
2.49825e-05
2.56785e-05
0.015859
-2.81966e-05
0.0158682
-2.81978e-05
0.0158775
-2.8166e-05
0.0158867
-2.80995e-05
0.0158958
-2.79964e-05
0.015905
-2.7855e-05
0.015914
-2.76733e-05
0.015923
-2.74497e-05
0.0159319
-2.71824e-05
0.0159407
-2.68698e-05
0.0159494
-2.65102e-05
0.0159579
-2.61021e-05
0.0159663
-2.5644e-05
0.0159745
-2.51345e-05
0.0159826
-2.45725e-05
0.0159904
-2.39569e-05
0.015998
-2.32867e-05
0.0160054
-2.25611e-05
0.0160125
-2.17796e-05
0.0160193
-2.09417e-05
0.0160258
-2.00474e-05
0.016032
-1.90967e-05
0.0160379
-1.80899e-05
0.0160434
-1.70276e-05
0.0160486
-1.59106e-05
0.0160534
-1.47402e-05
0.0160578
-1.35176e-05
0.0160617
-1.22447e-05
0.0160652
-1.09234e-05
0.0160683
-9.55608e-06
0.0160709
-8.14535e-06
0.016073
-6.69411e-06
0.0160747
-5.20553e-06
0.0160758
-3.68309e-06
0.0160765
-2.13046e-06
0.0160766
-5.51598e-07
0.0160762
1.04937e-06
0.0160752
2.66814e-06
0.0160738
4.30025e-06
0.0160718
5.94114e-06
0.0160692
7.58617e-06
0.0160661
9.23069e-06
0.0160625
1.08701e-05
0.0160584
1.24997e-05
0.0160537
1.41151e-05
0.0160485
1.57121e-05
0.0160428
1.72864e-05
0.0160366
1.88342e-05
0.0160299
2.03521e-05
0.0160227
2.18366e-05
0.016015
2.32851e-05
0.0160069
2.46949e-05
0.0159984
2.60639e-05
0.0159894
2.73905e-05
0.01598
2.8673e-05
0.0159702
2.99112e-05
0.01596
3.11017e-05
0.0159494
3.22499e-05
0.0159385
3.33408e-05
0.0159272
3.44046e-05
0.0159156
3.53735e-05
0.0159037
3.63774e-05
0.0158915
3.71766e-05
3.81347e-05
0.0155535
-3.73306e-05
0.0155626
-3.73274e-05
0.0155717
-3.72802e-05
0.0155808
-3.71868e-05
0.0155898
-3.70446e-05
0.0155988
-3.68514e-05
0.0156078
-3.66047e-05
0.0156166
-3.63023e-05
0.0156254
-3.59419e-05
0.015634
-3.55212e-05
0.0156426
-3.50382e-05
0.0156509
-3.44908e-05
0.0156592
-3.38772e-05
0.0156672
-3.31955e-05
0.0156751
-3.24442e-05
0.0156828
-3.16219e-05
0.0156902
-3.07273e-05
0.0156974
-2.97595e-05
0.0157044
-2.87178e-05
0.015711
-2.76017e-05
0.0157174
-2.64111e-05
0.0157234
-2.5146e-05
0.0157291
-2.3807e-05
0.0157345
-2.23948e-05
0.0157395
-2.09108e-05
0.0157441
-1.93563e-05
0.0157483
-1.77334e-05
0.0157521
-1.60443e-05
0.0157555
-1.42919e-05
0.0157584
-1.24791e-05
0.0157609
-1.06096e-05
0.0157629
-8.68718e-06
0.0157644
-6.71611e-06
0.0157654
-4.70099e-06
0.0157659
-2.64674e-06
0.0157659
-5.58594e-07
0.0157654
1.55796e-06
0.0157644
3.69721e-06
0.0157629
5.85327e-06
0.0157608
8.02008e-06
0.0157582
1.01916e-05
0.015755
1.23615e-05
0.0157514
1.45239e-05
0.0157472
1.66726e-05
0.0157425
1.88018e-05
0.0157373
2.09059e-05
0.0157316
2.29794e-05
0.0157255
2.50174e-05
0.0157188
2.70152e-05
0.0157117
2.89687e-05
0.0157041
3.0874e-05
0.015696
3.2728e-05
0.0156876
3.45279e-05
0.0156787
3.62718e-05
0.0156694
3.79574e-05
0.0156597
3.95846e-05
0.0156497
4.11496e-05
0.0156393
4.26581e-05
0.0156285
4.40942e-05
0.0156174
4.54899e-05
0.015606
4.67739e-05
0.0155943
4.80799e-05
0.0155824
4.91629e-05
5.03864e-05
0.0152568
-4.63668e-05
0.0152658
-4.63552e-05
0.0152748
-4.62886e-05
0.0152838
-4.61641e-05
0.0152927
-4.59787e-05
0.0153016
-4.57295e-05
0.0153104
-4.54136e-05
0.0153192
-4.50281e-05
0.0153278
-4.45702e-05
0.0153363
-4.40373e-05
0.0153447
-4.34266e-05
0.0153529
-4.27358e-05
0.015361
-4.19626e-05
0.0153689
-4.11047e-05
0.0153766
-4.01603e-05
0.0153841
-3.91277e-05
0.0153914
-3.80054e-05
0.0153985
-3.67923e-05
0.0154052
-3.54876e-05
0.0154117
-3.40907e-05
0.0154179
-3.26016e-05
0.0154238
-3.10204e-05
0.0154293
-2.93478e-05
0.0154345
-2.7585e-05
0.0154393
-2.57335e-05
0.0154438
-2.37953e-05
0.0154478
-2.17728e-05
0.0154514
-1.96691e-05
0.0154546
-1.74876e-05
0.0154574
-1.52322e-05
0.0154597
-1.29074e-05
0.0154615
-1.0518e-05
0.0154629
-8.06937e-06
0.0154637
-5.56727e-06
0.0154641
-3.01785e-06
0.015464
-4.27629e-07
0.0154633
2.19655e-06
0.0154622
4.8476e-06
0.0154605
7.51817e-06
0.0154583
1.02008e-05
0.0154556
1.28879e-05
0.0154524
1.55719e-05
0.0154487
1.82452e-05
0.0154445
2.09004e-05
0.0154398
2.35304e-05
0.0154345
2.61281e-05
0.0154288
2.86869e-05
0.0154226
3.12009e-05
0.015416
3.36642e-05
0.0154089
3.60718e-05
0.0154013
3.84193e-05
0.0153934
4.07028e-05
0.015385
4.29191e-05
0.0153762
4.50658e-05
0.015367
4.71405e-05
0.0153574
4.9143e-05
0.0153475
5.10693e-05
0.0153373
5.29257e-05
0.0153267
5.46951e-05
0.0153157
5.64119e-05
0.0153045
5.80004e-05
0.015293
5.96013e-05
0.0152812
6.09574e-05
6.2445e-05
0.0149686
-5.53237e-05
0.0149775
-5.52988e-05
0.0149864
-5.52078e-05
0.0149953
-5.50471e-05
0.0150041
-5.48132e-05
0.0150129
-5.45027e-05
0.0150216
-5.41121e-05
0.0150302
-5.3638e-05
0.0150387
-5.30772e-05
0.0150471
-5.24263e-05
0.0150554
-5.16825e-05
0.0150635
-5.08428e-05
0.0150714
-4.99044e-05
0.0150792
-4.8865e-05
0.0150867
-4.77222e-05
0.0150941
-4.64742e-05
0.0151012
-4.51193e-05
0.0151081
-4.36562e-05
0.0151147
-4.2084e-05
0.015121
-4.04023e-05
0.015127
-3.86109e-05
0.0151327
-3.67103e-05
0.015138
-3.47014e-05
0.015143
-3.25856e-05
0.0151477
-3.03649e-05
0.0151519
-2.80418e-05
0.0151557
-2.56193e-05
0.0151592
-2.31011e-05
0.0151622
-2.04914e-05
0.0151647
-1.7795e-05
0.0151669
-1.50172e-05
0.0151685
-1.21641e-05
0.0151697
-9.24197e-06
0.0151704
-6.25779e-06
0.0151706
-3.21896e-06
0.0151703
-1.33282e-07
0.0151695
2.99104e-06
0.0151682
6.14553e-06
0.0151664
9.32145e-06
0.0151641
1.25099e-05
0.0151613
1.57018e-05
0.0151579
1.88883e-05
0.0151541
2.20604e-05
0.0151498
2.52092e-05
0.015145
2.83263e-05
0.0151397
3.14036e-05
0.015134
3.44333e-05
0.0151278
3.74083e-05
0.0151211
4.03219e-05
0.015114
4.31683e-05
0.0151065
4.59424e-05
0.0150986
4.86398e-05
0.0150902
5.12569e-05
0.0150815
5.37911e-05
0.0150724
5.62399e-05
0.0150629
5.86031e-05
0.0150531
6.08766e-05
0.015043
6.30675e-05
0.0150325
6.51575e-05
0.0150218
6.71842e-05
0.0150107
6.90661e-05
0.0149993
7.09541e-05
0.0149877
7.25733e-05
7.43219e-05
0.0146884
-6.42175e-05
0.0146972
-6.41736e-05
0.0147061
-6.40523e-05
0.0147149
-6.38493e-05
0.0147236
-6.35608e-05
0.0147323
-6.31826e-05
0.0147409
-6.27108e-05
0.0147494
-6.21415e-05
0.0147578
-6.1471e-05
0.0147661
-6.06955e-05
0.0147742
-5.98117e-05
0.0147822
-5.88161e-05
0.01479
-5.77059e-05
0.0147976
-5.64781e-05
0.014805
-5.51303e-05
0.0148122
-5.36603e-05
0.0148191
-5.20664e-05
0.0148258
-5.03472e-05
0.0148322
-4.85018e-05
0.0148384
-4.65297e-05
0.0148442
-4.4431e-05
0.0148497
-4.22064e-05
0.0148548
-3.9857e-05
0.0148596
-3.73846e-05
0.0148641
-3.47916e-05
0.0148681
-3.20812e-05
0.0148717
-2.92569e-05
0.014875
-2.63232e-05
0.0148778
-2.32852e-05
0.0148801
-2.01484e-05
0.014882
-1.69193e-05
0.0148835
-1.36048e-05
0.0148844
-1.02125e-05
0.0148849
-6.75049e-06
0.0148849
-3.22746e-06
0.0148844
3.47488e-07
0.0148835
3.96482e-06
0.014882
7.61466e-06
0.01488
1.12869e-05
0.0148776
1.49712e-05
0.0148746
1.86572e-05
0.0148712
2.23344e-05
0.0148672
2.59927e-05
0.0148628
2.96219e-05
0.0148579
3.32123e-05
0.0148526
3.67547e-05
0.0148468
4.02401e-05
0.0148405
4.36605e-05
0.0148338
4.70086e-05
0.0148267
5.02776e-05
0.0148192
5.34619e-05
0.0148113
5.65568e-05
0.014803
5.95584e-05
0.0147943
6.24639e-05
0.0147853
6.52707e-05
0.0147759
6.79792e-05
0.0147662
7.0585e-05
0.0147562
7.30964e-05
0.0147458
7.54937e-05
0.0147352
7.78184e-05
0.0147243
7.99824e-05
0.0147131
8.21489e-05
0.0147017
8.40223e-05
8.60276e-05
0.0144159
-7.30621e-05
0.0144247
-7.29929e-05
0.0144335
-7.28346e-05
0.0144422
-7.25825e-05
0.0144509
-7.22321e-05
0.0144595
-7.17789e-05
0.014468
-7.12184e-05
0.0144764
-7.05463e-05
0.0144847
-6.97582e-05
0.0144928
-6.88502e-05
0.0145008
-6.78183e-05
0.0145087
-6.66589e-05
0.0145163
-6.53687e-05
0.0145238
-6.39446e-05
0.0145311
-6.23838e-05
0.0145381
-6.06841e-05
0.0145449
-5.88437e-05
0.0145514
-5.6861e-05
0.0145576
-5.47352e-05
0.0145635
-5.24661e-05
0.0145692
-5.00537e-05
0.0145745
-4.74992e-05
0.0145794
-4.48038e-05
0.014584
-4.197e-05
0.0145882
-3.90007e-05
0.014592
-3.58994e-05
0.0145954
-3.26707e-05
0.0145984
-2.93196e-05
0.014601
-2.58521e-05
0.0146031
-2.22748e-05
0.0146048
-1.85951e-05
0.014606
-1.4821e-05
0.0146068
-1.09612e-05
0.014607
-7.02517e-06
0.0146068
-3.02273e-06
0.0146061
1.03565e-06
0.014605
5.13909e-06
0.0146033
9.27635e-06
0.0146012
1.34359e-05
0.0145985
1.76061e-05
0.0145954
2.17752e-05
0.0145918
2.59314e-05
0.0145877
3.00631e-05
0.0145832
3.41591e-05
0.0145782
3.82084e-05
0.0145728
4.22008e-05
0.0145669
4.61263e-05
0.0145606
4.99761e-05
0.0145538
5.37419e-05
0.0145467
5.74167e-05
0.0145392
6.09941e-05
0.0145312
6.44693e-05
0.014523
6.78381e-05
0.0145143
7.1098e-05
0.0145054
7.42463e-05
0.0144961
7.72839e-05
0.0144864
8.02063e-05
0.0144765
8.30236e-05
0.0144663
8.57143e-05
0.0144558
8.83246e-05
0.014445
9.07591e-05
0.014434
9.3195e-05
0.0144227
9.53141e-05
9.75712e-05
0.0141508
-8.18696e-05
0.0141596
-8.17678e-05
0.0141683
-8.15651e-05
0.014177
-8.12561e-05
0.0141856
-8.08359e-05
0.0141941
-8.02995e-05
0.0142025
-7.96418e-05
0.0142108
-7.88581e-05
0.014219
-7.79437e-05
0.014227
-7.68941e-05
0.0142349
-7.57051e-05
0.0142426
-7.43728e-05
0.0142502
-7.28934e-05
0.0142575
-7.12638e-05
0.0142646
-6.9481e-05
0.0142714
-6.75427e-05
0.0142781
-6.54469e-05
0.0142844
-6.31922e-05
0.0142904
-6.07779e-05
0.0142962
-5.82037e-05
0.0143016
-5.54703e-05
0.0143067
-5.25788e-05
0.0143114
-4.95312e-05
0.0143157
-4.63302e-05
0.0143197
-4.29793e-05
0.0143233
-3.94829e-05
0.0143265
-3.58461e-05
0.0143292
-3.2075e-05
0.0143316
-2.81762e-05
0.0143334
-2.41576e-05
0.0143349
-2.00274e-05
0.0143359
-1.57948e-05
0.0143364
-1.14699e-05
0.0143364
-7.06319e-06
0.014336
-2.58585e-06
0.014335
1.95031e-06
0.0143337
6.53309e-06
0.0143318
1.11499e-05
0.0143294
1.57878e-05
0.0143266
2.04338e-05
0.0143233
2.50748e-05
0.0143195
2.96978e-05
0.0143153
3.42899e-05
0.0143106
3.88387e-05
0.0143055
4.33322e-05
0.0142999
4.7759e-05
0.014294
5.21085e-05
0.0142876
5.63709e-05
0.0142808
6.05373e-05
0.0142736
6.46003e-05
0.014266
6.85531e-05
0.0142581
7.23908e-05
0.0142498
7.6109e-05
0.0142412
7.97055e-05
0.0142323
8.31779e-05
0.0142231
8.65278e-05
0.0142135
8.97508e-05
0.0142037
9.28585e-05
0.0141936
9.58284e-05
0.0141832
9.87114e-05
0.0141725
0.000101405
0.0141616
0.000104101
0.0141505
0.000106457
0.000108961
0.0138928
-9.06501e-05
0.0139015
-9.05079e-05
0.0139102
-9.02525e-05
0.0139188
-8.98781e-05
0.0139274
-8.93793e-05
0.0139358
-8.87504e-05
0.0139442
-8.79862e-05
0.0139524
-8.70813e-05
0.0139605
-8.60307e-05
0.0139684
-8.48296e-05
0.0139762
-8.34734e-05
0.0139838
-8.19579e-05
0.0139912
-8.02792e-05
0.0139983
-7.84339e-05
0.0140053
-7.6419e-05
0.014012
-7.4232e-05
0.0140184
-7.1871e-05
0.0140245
-6.93347e-05
0.0140304
-6.66225e-05
0.0140359
-6.37346e-05
0.0140411
-6.06716e-05
0.014046
-5.74353e-05
0.0140505
-5.40281e-05
0.0140546
-5.04532e-05
0.0140583
-4.67149e-05
0.0140616
-4.28182e-05
0.0140646
-3.87691e-05
0.0140671
-3.45745e-05
0.0140691
-3.02421e-05
0.0140708
-2.57807e-05
0.0140719
-2.11998e-05
0.0140726
-1.65097e-05
0.0140729
-1.17216e-05
0.0140727
-6.84733e-06
0.014072
-1.89945e-06
0.0140708
3.10896e-06
0.0140692
8.16433e-06
0.0140671
1.32527e-05
0.0140645
1.83599e-05
0.0140615
2.34714e-05
0.014058
2.8573e-05
0.014054
3.36503e-05
0.0140496
3.86894e-05
0.0140448
4.36767e-05
0.0140395
4.85992e-05
0.0140339
5.34444e-05
0.0140278
5.82011e-05
0.0140213
6.28588e-05
0.0140144
6.74082e-05
0.0140072
7.18411e-05
0.0139996
7.6151e-05
0.0139916
8.03326e-05
0.0139833
8.43819e-05
0.0139748
8.82968e-05
0.0139659
9.20754e-05
0.0139567
9.57201e-05
0.0139472
9.92269e-05
0.0139374
0.000102609
0.0139274
0.000105843
0.0139171
0.000108986
0.0139066
0.000111926
0.0138959
0.000114872
0.0138849
0.000117457
0.000120204
0.0136416
-9.94122e-05
0.0136503
-9.92209e-05
0.013659
-9.89038e-05
0.0136676
-9.84547e-05
0.013676
-9.78675e-05
0.0136844
-9.71362e-05
0.0136927
-9.62551e-05
0.0137008
-9.52185e-05
0.0137088
-9.4021e-05
0.0137166
-9.26575e-05
0.0137243
-9.1123e-05
0.0137318
-8.94131e-05
0.013739
-8.75239e-05
0.013746
-8.54517e-05
0.0137528
-8.31935e-05
0.0137593
-8.07468e-05
0.0137655
-7.81098e-05
0.0137715
-7.52814e-05
0.0137771
-7.22613e-05
0.0137824
-6.90497e-05
0.0137874
-6.56479e-05
0.013792
-6.20581e-05
0.0137963
-5.82831e-05
0.0138002
-5.4327e-05
0.0138037
-5.01947e-05
0.0138067
-4.58919e-05
0.0138094
-4.14257e-05
0.0138116
-3.68037e-05
0.0138134
-3.2035e-05
0.0138148
-2.71291e-05
0.0138157
-2.20968e-05
0.0138161
-1.69498e-05
0.0138161
-1.17003e-05
0.0138156
-6.36161e-06
0.0138146
-9.47497e-07
0.0138132
4.52759e-06
0.0138113
1.00487e-05
0.013809
1.56006e-05
0.0138062
2.11677e-05
0.0138029
2.67343e-05
0.0137992
3.22848e-05
0.013795
3.78037e-05
0.0137905
4.3276e-05
0.0137854
4.8687e-05
0.01378
5.40226e-05
0.0137742
5.92699e-05
0.013768
6.44167e-05
0.0137614
6.94518e-05
0.0137544
7.43658e-05
0.0137471
7.91501e-05
0.0137395
8.37981e-05
0.0137315
8.83046e-05
0.0137232
9.26659e-05
0.0137146
9.68804e-05
0.0137058
0.000100947
0.0136966
0.000104868
0.0136872
0.000108642
0.0136775
0.000112283
0.0136676
0.000115766
0.0136574
0.000119155
0.013647
0.000122329
0.0136364
0.000125517
0.0136255
0.000128321
0.000131305
0.013397
-0.000108163
0.0134057
-0.000107913
0.0134143
-0.000107524
0.0134228
-0.00010699
0.0134313
-0.000106304
0.0134396
-0.00010546
0.0134478
-0.000104451
0.0134559
-0.000103271
0.0134638
-0.000101915
0.0134715
-0.000100377
0.013479
-9.86521e-05
0.0134863
-9.67358e-05
0.0134934
-9.46239e-05
0.0135003
-9.23127e-05
0.0135069
-8.97991e-05
0.0135132
-8.70809e-05
0.0135193
-8.41563e-05
0.013525
-8.10245e-05
0.0135304
-7.76853e-05
0.0135355
-7.41396e-05
0.0135403
-7.0389e-05
0.0135446
-6.64362e-05
0.0135486
-6.22848e-05
0.0135523
-5.79395e-05
0.0135555
-5.34059e-05
0.0135583
-4.86909e-05
0.0135606
-4.38023e-05
0.0135626
-3.87488e-05
0.0135641
-3.35405e-05
0.0135652
-2.81882e-05
0.0135658
-2.27039e-05
0.0135659
-1.71004e-05
0.0135656
-1.13913e-05
0.0135648
-5.59119e-06
0.0135636
2.84792e-07
0.0135619
6.22086e-06
0.0135598
1.22007e-05
0.0135571
1.82078e-05
0.0135541
2.42252e-05
0.0135506
3.02361e-05
0.0135467
3.62235e-05
0.0135423
4.21709e-05
0.0135375
4.80621e-05
0.0135323
5.38815e-05
0.0135267
5.96143e-05
0.0135207
6.52466e-05
0.0135144
7.07657e-05
0.0135077
7.61601e-05
0.0135006
8.14198e-05
0.0134932
8.65364e-05
0.0134855
9.15031e-05
0.0134775
9.6315e-05
0.0134692
0.000100969
0.0134606
0.000105464
0.0134518
0.000109799
0.0134427
0.000113979
0.0134333
0.000118002
0.0134237
0.000121885
0.0134139
0.000125601
0.0134038
0.000129223
0.0133935
0.000132618
0.013383
0.000136038
0.0133723
0.000139054
0.000142271
0.0131587
-0.000116907
0.0131674
-0.000116589
0.013176
-0.000116118
0.0131845
-0.000115488
0.0131929
-0.000114692
0.0132011
-0.000113722
0.0132093
-0.000112573
0.0132172
-0.000111238
0.013225
-0.000109711
0.0132326
-0.000107986
0.01324
-0.000106058
0.0132472
-0.000103922
0.0132542
-0.000101574
0.0132609
-9.90112e-05
0.0132673
-9.62295e-05
0.0132734
-9.3227e-05
0.0132793
-9.00024e-05
0.0132848
-8.6555e-05
0.01329
-8.28851e-05
0.0132949
-7.8994e-05
0.0132994
-7.48839e-05
0.0133035
-7.05582e-05
0.0133072
-6.60211e-05
0.0133106
-6.12781e-05
0.0133135
-5.63358e-05
0.013316
-5.1202e-05
0.0133181
-4.58854e-05
0.0133197
-4.0396e-05
0.0133209
-3.47448e-05
0.0133217
-2.89441e-05
0.013322
-2.30069e-05
0.0133218
-1.69474e-05
0.0133212
-1.07806e-05
0.0133202
-4.52223e-06
0.0133186
1.81106e-06
0.0133167
8.20218e-06
0.0133142
1.46336e-05
0.0133113
2.10872e-05
0.013308
2.75451e-05
0.0133043
3.3989e-05
0.0133001
4.04009e-05
0.0132955
4.67632e-05
0.0132905
5.30587e-05
0.0132851
5.92709e-05
0.0132793
6.53842e-05
0.0132732
7.13841e-05
0.0132667
7.72574e-05
0.0132599
8.29922e-05
0.0132527
8.85784e-05
0.0132453
9.40076e-05
0.0132375
9.92731e-05
0.0132294
0.00010437
0.0132211
0.000109297
0.0132125
0.000114052
0.0132037
0.000118637
0.0131946
0.000123058
0.0131853
0.000127311
0.0131758
0.000131419
0.013166
0.000135354
0.013156
0.000139194
0.0131458
0.000142798
0.0131354
0.00014644
0.0131248
0.000149659
0.000153106
0.0129265
-0.00012565
0.0129352
-0.000125252
0.0129437
-0.000124688
0.0129522
-0.00012395
0.0129605
-0.000123031
0.0129687
-0.000121924
0.0129768
-0.000120622
0.0129847
-0.000119118
0.0129924
-0.000117406
0.0129999
-0.000115481
0.0130071
-0.000113336
0.0130142
-0.000110967
0.013021
-0.00010837
0.0130275
-0.000105541
0.0130338
-0.000102477
0.0130397
-9.91768e-05
0.0130453
-9.5639e-05
0.0130507
-9.18632e-05
0.0130556
-8.78503e-05
0.0130602
-8.3602e-05
0.0130645
-7.91213e-05
0.0130683
-7.44122e-05
0.0130718
-6.94797e-05
0.0130748
-6.43303e-05
0.0130775
-5.89715e-05
0.0130797
-5.3412e-05
0.0130814
-4.76617e-05
0.0130828
-4.17318e-05
0.0130837
-3.56345e-05
0.0130841
-2.93833e-05
0.0130841
-2.29925e-05
0.0130836
-1.64776e-05
0.0130827
-9.85503e-06
0.0130813
-3.14191e-06
0.0130795
3.64387e-06
0.0130772
1.04838e-05
0.0130745
1.73591e-05
0.0130713
2.42503e-05
0.0130677
3.11383e-05
0.0130637
3.80036e-05
0.0130593
4.48272e-05
0.0130545
5.15903e-05
0.0130492
5.8275e-05
0.0130436
6.48638e-05
0.0130377
7.13406e-05
0.0130314
7.76903e-05
0.0130247
8.38991e-05
0.0130178
8.99552e-05
0.0130105
9.58483e-05
0.0130029
0.00010157
0.0129951
0.000107114
0.012987
0.000112477
0.0129786
0.000117655
0.01297
0.000122652
0.0129612
0.000127467
0.0129522
0.000132108
0.0129429
0.000136574
0.0129334
0.000140891
0.0129238
0.000145027
0.0129139
0.000149072
0.0129038
0.000152873
0.0128935
0.000156728
0.012883
0.000160141
0.000163814
0.0127002
-0.000134393
0.0127088
-0.000133904
0.0127174
-0.000133234
0.0127258
-0.000132376
0.0127341
-0.000131322
0.0127422
-0.000130064
0.0127502
-0.000128595
0.012758
-0.000126908
0.0127656
-0.000124998
0.012773
-0.000122857
0.0127801
-0.00012048
0.012787
-0.000117863
0.0127936
-0.000115002
0.0128
-0.000111893
0.012806
-0.000108533
0.0128118
-0.000104921
0.0128172
-0.000101056
0.0128223
-9.69386e-05
0.012827
-9.25698e-05
0.0128313
-8.79521e-05
0.0128353
-8.30892e-05
0.0128389
-7.79858e-05
0.0128421
-7.26481e-05
0.0128448
-6.70832e-05
0.0128471
-6.12998e-05
0.012849
-5.53077e-05
0.0128505
-4.91181e-05
0.0128515
-4.27431e-05
0.0128521
-3.61965e-05
0.0128522
-2.94928e-05
0.0128518
-2.26479e-05
0.012851
-1.56785e-05
0.0128498
-8.60248e-06
0.0128481
-1.4383e-06
0.0128459
5.79479e-06
0.0128433
1.3077e-05
0.0128403
2.0388e-05
0.0128368
2.77075e-05
0.012833
3.50147e-05
0.0128287
4.22894e-05
0.012824
4.95113e-05
0.0128189
5.66608e-05
0.0128135
6.3719e-05
0.0128077
7.06679e-05
0.0128015
7.74906e-05
0.012795
8.41717e-05
0.0127882
9.06972e-05
0.0127811
9.70549e-05
0.0127738
0.000103235
0.0127661
0.000109229
0.0127582
0.000115031
0.01275
0.000120638
0.0127416
0.000126048
0.012733
0.000131265
0.0127242
0.00013629
0.0127152
0.000141134
0.0127059
0.000145794
0.0126965
0.000150303
0.0126869
0.000154625
0.0126771
0.000158861
0.0126672
0.000162845
0.012657
0.000166904
0.0126466
0.000170502
0.000174399
0.0124795
-0.000143137
0.0124881
-0.000142544
0.0124967
-0.000141756
0.012505
-0.000140765
0.0125133
-0.000139561
0.0125214
-0.000138138
0.0125293
-0.000136488
0.0125369
-0.000134604
0.0125444
-0.000132479
0.0125517
-0.000130108
0.0125587
-0.000127484
0.0125654
-0.000124604
0.0125719
-0.000121463
0.0125781
-0.000118059
0.0125839
-0.000114388
0.0125894
-0.000110449
0.0125946
-0.000106243
0.0125995
-0.00010177
0.0126039
-9.70319e-05
0.012608
-9.20322e-05
0.0126117
-8.67751e-05
0.012615
-8.12665e-05
0.0126178
-7.55133e-05
0.0126203
-6.95238e-05
0.0126223
-6.33078e-05
0.0126238
-5.68762e-05
0.012625
-5.02414e-05
0.0126256
-4.34171e-05
0.0126259
-3.6418e-05
0.0126256
-2.92602e-05
0.0126249
-2.19609e-05
0.0126238
-1.45383e-05
0.0126222
-7.01148e-06
0.0126202
5.99617e-07
0.0126177
8.27439e-06
0.0126148
1.59917e-05
0.0126114
2.373e-05
0.0126077
3.14677e-05
0.0126035
3.9183e-05
0.0125989
4.68544e-05
0.012594
5.44609e-05
0.0125887
6.19818e-05
0.012583
6.93975e-05
0.012577
7.66893e-05
0.0125706
8.384e-05
0.012564
9.08338e-05
0.012557
9.76564e-05
0.0125498
0.000104296
0.0125423
0.000110742
0.0125345
0.000116987
0.0125265
0.000123027
0.0125183
0.000128857
0.0125098
0.000134479
0.0125012
0.000139896
0.0124924
0.000145111
0.0124834
0.000150138
0.0124742
0.000154975
0.0124649
0.000159657
0.0124553
0.000164149
0.0124456
0.000168563
0.0124358
0.000172717
0.0124257
0.000176973
0.0124154
0.000180746
0.000184866
0.0122643
-0.000151883
0.0122729
-0.000151174
0.0122814
-0.000150253
0.0122897
-0.000149113
0.0122979
-0.000147746
0.0123059
-0.000146143
0.0123137
-0.000144296
0.0123213
-0.000142199
0.0123287
-0.000139844
0.0123358
-0.000137226
0.0123427
-0.00013434
0.0123493
-0.000131181
0.0123555
-0.000127744
0.0123615
-0.000124028
0.0123671
-0.00012003
0.0123724
-0.00011575
0.0123774
-0.000111188
0.012382
-0.000106345
0.0123862
-0.000101224
0.01239
-9.58293e-05
0.0123933
-9.01661e-05
0.0123963
-8.4241e-05
0.0123989
-7.80621e-05
0.012401
-7.16388e-05
0.0124027
-6.49822e-05
0.0124039
-5.81044e-05
0.0124047
-5.1019e-05
0.012405
-4.37411e-05
0.0124049
-3.62868e-05
0.0124043
-2.86736e-05
0.0124032
-2.09201e-05
0.0124017
-1.30458e-05
0.0123998
-5.07138e-06
0.0123974
2.98197e-06
0.0123946
1.10923e-05
0.0123914
1.92371e-05
0.0123877
2.73937e-05
0.0123836
3.55391e-05
0.0123792
4.36506e-05
0.0123743
5.17057e-05
0.0123691
5.96822e-05
0.0123635
6.7559e-05
0.0123576
7.53157e-05
0.0123513
8.2933e-05
0.0123448
9.03934e-05
0.0123379
9.76807e-05
0.0123308
0.000104781
0.0123234
0.000111682
0.0123158
0.000118374
0.0123079
0.00012485
0.0122999
0.000131105
0.0122916
0.000137138
0.0122831
0.000142951
0.0122745
0.000148547
0.0122656
0.000153933
0.0122566
0.000159123
0.0122475
0.000164117
0.0122382
0.000168957
0.0122288
0.000173603
0.0122191
0.000178181
0.0122094
0.000182492
0.0121994
0.000186937
0.0121893
0.000190877
0.00019522
0.0120543
-0.00016063
0.0120629
-0.000159789
0.0120714
-0.000158721
0.0120797
-0.000157419
0.0120878
-0.000155871
0.0120958
-0.000154072
0.0121035
-0.000152012
0.012111
-0.000149686
0.0121182
-0.000147085
0.0121252
-0.000144204
0.0121319
-0.000141038
0.0121383
-0.000137582
0.0121444
-0.000133834
0.0121501
-0.00012979
0.0121555
-0.000125449
0.0121606
-0.000120811
0.0121653
-0.000115878
0.0121696
-0.000110651
0.0121735
-0.000105133
0.012177
-9.93304e-05
0.0121801
-9.32487e-05
0.0121828
-8.68959e-05
0.012185
-8.02811e-05
0.0121867
-7.34151e-05
0.0121881
-6.631e-05
0.0121889
-5.89794e-05
0.0121894
-5.14382e-05
0.0121893
-4.37029e-05
0.0121888
-3.57911e-05
0.0121879
-2.77216e-05
0.0121865
-1.95145e-05
0.0121846
-1.11908e-05
0.0121823
-2.77237e-06
0.0121796
5.71803e-06
0.0121764
1.42571e-05
0.0121728
2.28212e-05
0.0121688
3.13864e-05
0.0121645
3.99285e-05
0.0121597
4.84239e-05
0.0121545
5.68489e-05
0.012149
6.51807e-05
0.0121432
7.33974e-05
0.012137
8.1478e-05
0.0121306
8.94029e-05
0.0121238
9.71541e-05
0.0121168
0.000104716
0.0121095
0.000112073
0.0121019
0.000119215
0.0120942
0.000126132
0.0120862
0.000132817
0.0120781
0.000139268
0.0120697
0.000145483
0.0120612
0.000151465
0.0120525
0.000157221
0.0120437
0.000162757
0.0120347
0.000168091
0.0120256
0.000173225
0.0120164
0.000178205
0.012007
0.000182989
0.0119975
0.000187718
0.0119878
0.000192174
0.0119779
0.0001968
0.0119679
0.000200899
0.000205466
0.0118494
-0.000169373
0.011858
-0.000168386
0.0118665
-0.000167157
0.0118747
-0.000165675
0.0118828
-0.000163932
0.0118906
-0.000161919
0.0118982
-0.00015963
0.0119056
-0.000157056
0.0119127
-0.000154191
0.0119195
-0.00015103
0.0119261
-0.000147567
0.0119323
-0.000143798
0.0119382
-0.00013972
0.0119437
-0.000135331
0.0119489
-0.000130631
0.0119537
-0.00012562
0.0119581
-0.0001203
0.0119622
-0.000114674
0.0119658
-0.000108745
0.011969
-0.000102521
0.0119717
-9.60092e-05
0.011974
-8.92175e-05
0.0119759
-8.21568e-05
0.0119773
-7.48392e-05
0.0119783
-6.72781e-05
0.0119788
-5.94885e-05
0.0119789
-5.14868e-05
0.0119785
-4.32907e-05
0.0119776
-3.49195e-05
0.0119763
-2.63934e-05
0.0119745
-1.77339e-05
0.0119722
-8.96344e-06
0.0119696
-1.05432e-07
0.0119665
8.8162e-06
0.011963
1.77767e-05
0.011959
2.67513e-05
0.0119547
3.57147e-05
0.01195
4.46419e-05
0.0119449
5.35081e-05
0.0119395
6.22888e-05
0.0119337
7.09606e-05
0.0119276
7.95007e-05
0.0119212
8.78878e-05
0.0119145
9.61019e-05
0.0119075
0.000104125
0.0119003
0.000111941
0.0118928
0.000119536
0.0118851
0.000126898
0.0118772
0.000134019
0.0118692
0.000140893
0.0118609
0.000147517
0.0118525
0.000153893
0.011844
0.000160024
0.0118353
0.000165919
0.0118264
0.000171585
0.0118175
0.000177045
0.0118084
0.000182301
0.0117992
0.000187405
0.0117899
0.000192311
0.0117804
0.000197179
0.0117708
0.000201766
0.0117611
0.000206569
0.0117511
0.000210816
0.000215612
0.0116494
-0.00017811
0.011658
-0.000176961
0.0116664
-0.000175553
0.0116746
-0.000173875
0.0116826
-0.000171919
0.0116904
-0.000169677
0.0116979
-0.000167139
0.0117051
-0.000164301
0.0117121
-0.000161154
0.0117187
-0.000157694
0.0117251
-0.000153915
0.0117311
-0.000149815
0.0117368
-0.00014539
0.0117421
-0.00014064
0.011747
-0.000135564
0.0117516
-0.000130163
0.0117557
-0.00012444
0.0117594
-0.0001184
0.0117627
-0.000112047
0.0117656
-0.000105389
0.011768
-9.84336e-05
0.01177
-9.1192e-05
0.0117715
-8.36757e-05
0.0117726
-7.58979e-05
0.0117732
-6.78737e-05
0.0117733
-5.96193e-05
0.011773
-5.11527e-05
0.0117722
-4.24931e-05
0.0117709
-3.36612e-05
0.0117692
-2.46787e-05
0.011767
-1.55687e-05
0.0117644
-6.35499e-06
0.0117614
2.9377e-06
0.0117579
1.2284e-05
0.011754
2.16579e-05
0.0117497
3.10334e-05
0.0117451
4.03842e-05
0.01174
4.96842e-05
0.0117346
5.89076e-05
0.0117289
6.80293e-05
0.0117228
7.70251e-05
0.0117165
8.58717e-05
0.0117098
9.45475e-05
0.0117029
0.000103032
0.0116957
0.000111308
0.0116883
0.000119358
0.0116806
0.00012717
0.0116728
0.000134732
0.0116648
0.000142036
0.0116566
0.000149077
0.0116483
0.000155855
0.0116398
0.000162371
0.0116312
0.00016863
0.0116225
0.000174644
0.0116136
0.000180422
0.0116047
0.000185989
0.0115956
0.000191348
0.0115865
0.000196561
0.0115772
0.000201573
0.0115678
0.000206568
0.0115583
0.000211275
0.0115486
0.00021625
0.0115388
0.000220635
0.000225666
0.0114542
-0.000186835
0.0114627
-0.000185508
0.0114711
-0.000183903
0.0114792
-0.000182012
0.0114871
-0.000179825
0.0114948
-0.000177334
0.0115022
-0.000174531
0.0115093
-0.000171408
0.0115161
-0.000167961
0.0115226
-0.000164183
0.0115287
-0.000160071
0.0115345
-0.000155621
0.01154
-0.000150831
0.011545
-0.000145702
0.0115497
-0.000140232
0.011554
-0.000134425
0.0115578
-0.000128284
0.0115612
-0.000121815
0.0115642
-0.000115023
0.0115667
-0.000107917
0.0115688
-0.000100508
0.0115704
-9.28054e-05
0.0115716
-8.4824e-05
0.0115723
-7.65781e-05
0.0115725
-6.8084e-05
0.0115722
-5.93596e-05
0.0115715
-5.04244e-05
0.0115703
-4.12991e-05
0.0115686
-3.20059e-05
0.0115665
-2.25681e-05
0.011564
-1.30101e-05
0.011561
-3.35725e-06
0.0115575
6.36441e-06
0.0115537
1.61281e-05
0.0115494
2.59067e-05
0.0115448
3.5673e-05
0.0115398