/*--------------------------------*- C++ -*----------------------------------*\
  =========                 |
  \\      /  F ield         | OpenFOAM: The Open Source CFD Toolbox
   \\    /   O peration     | Website:  https://openfoam.org
    \\  /    A nd           | Version:  7
     \\/     M anipulation  |
\*---------------------------------------------------------------------------*/
FoamFile
{
    version     2.0;
    format      ascii;
    class       surfaceScalarField;
    location    "2";
    object      phi;
}
// * * * * * * * * * * * * * * * * * * * * * * * * * * * * * * * * * * * * * //

dimensions      [0 3 -1 0 0 0 0];

internalField   nonuniform List<scalar> 
614
(
9.07839e-05
-3.80529e-07
9.07222e-05
-3.66339e-07
9.06629e-05
-3.52177e-07
9.06061e-05
-3.38064e-07
9.05519e-05
-3.24021e-07
9.05001e-05
-3.10074e-07
9.04507e-05
-2.96244e-07
9.04038e-05
-2.82558e-07
9.03592e-05
-2.6904e-07
9.0317e-05
-2.55714e-07
9.0277e-05
-2.42607e-07
9.02393e-05
-2.29746e-07
9.02038e-05
-2.17154e-07
9.01705e-05
-2.04861e-07
9.01391e-05
-1.9289e-07
9.01098e-05
-1.81271e-07
-1.70021e-07
9.06818e-05
-1.08977e-06
9.04686e-05
-1.06153e-06
9.02609e-05
-1.03442e-06
9.00584e-05
-1.00838e-06
8.9861e-05
-9.83344e-07
8.96685e-05
-9.59262e-07
8.94806e-05
-9.36081e-07
8.92972e-05
-9.13756e-07
8.91182e-05
-8.92243e-07
8.89434e-05
-8.71501e-07
8.87726e-05
-8.51492e-07
8.86057e-05
-8.3218e-07
8.84426e-05
-8.13533e-07
8.82831e-05
-7.95517e-07
8.81272e-05
-7.78102e-07
8.79746e-05
-7.6126e-07
8.78254e-05
-7.4496e-07
8.76793e-05
-7.29177e-07
8.75364e-05
-7.13881e-07
8.73965e-05
-6.99047e-07
8.72595e-05
-6.84647e-07
8.71254e-05
-6.70655e-07
8.6994e-05
-6.57043e-07
8.68654e-05
-6.43785e-07
8.67394e-05
-6.30852e-07
8.6616e-05
-6.18217e-07
8.64951e-05
-6.05852e-07
8.63768e-05
-5.9373e-07
8.62608e-05
-5.81822e-07
8.61474e-05
-5.70101e-07
8.60363e-05
-5.5854e-07
8.59276e-05
-5.47111e-07
8.58212e-05
-5.35789e-07
8.57172e-05
-5.24549e-07
8.56154e-05
-5.13367e-07
8.55161e-05
-5.02221e-07
8.5419e-05
-4.9109e-07
8.53242e-05
-4.79957e-07
8.52318e-05
-4.68804e-07
8.51417e-05
-4.57617e-07
8.50539e-05
-4.46386e-07
8.49685e-05
-4.351e-07
8.48854e-05
-4.23753e-07
8.48047e-05
-4.12341e-07
8.47264e-05
-4.00862e-07
8.46504e-05
-3.89318e-07
8.45769e-05
-3.77712e-07
8.45057e-05
-3.6605e-07
8.4437e-05
-3.54339e-07
8.43707e-05
-3.42591e-07
8.43068e-05
-3.30816e-07
8.42453e-05
-3.19028e-07
8.41862e-05
-3.07242e-07
8.41295e-05
-2.95475e-07
8.40752e-05
-2.83744e-07
8.40232e-05
-2.72067e-07
8.39736e-05
-2.60463e-07
8.39263e-05
-2.48954e-07
8.38813e-05
-2.37558e-07
8.38386e-05
-2.26298e-07
8.3798e-05
-2.15193e-07
8.37597e-05
-2.04265e-07
8.37235e-05
-1.93536e-07
8.36894e-05
-1.83029e-07
8.36573e-05
-1.72764e-07
8.36271e-05
-1.62764e-07
8.35989e-05
-1.53053e-07
-1.43644e-07
8.33246e-05
-8.84514e-07
8.31247e-05
-8.61623e-07
8.29299e-05
-8.39646e-07
8.274e-05
-8.18532e-07
8.25549e-05
-7.98235e-07
8.23744e-05
-7.78708e-07
8.21982e-05
-7.59913e-07
8.20263e-05
-7.41812e-07
8.18584e-05
-7.24368e-07
8.16944e-05
-7.0755e-07
8.15343e-05
-6.91326e-07
8.13778e-05
-6.75669e-07
8.12248e-05
-6.60551e-07
8.10752e-05
-6.45947e-07
8.09289e-05
-6.31831e-07
8.07859e-05
-6.1818e-07
8.06459e-05
-6.04972e-07
8.05089e-05
-5.92183e-07
8.03748e-05
-5.79793e-07
8.02435e-05
-5.67779e-07
8.0115e-05
-5.56119e-07
7.99891e-05
-5.44793e-07
7.98659e-05
-5.33777e-07
7.97451e-05
-5.23051e-07
7.96269e-05
-5.12592e-07
7.9511e-05
-5.02377e-07
7.93976e-05
-4.92384e-07
7.92864e-05
-4.8259e-07
7.91776e-05
-4.72973e-07
7.9071e-05
-4.6351e-07
7.89666e-05
-4.54179e-07
7.88645e-05
-4.44957e-07
7.87645e-05
-4.35824e-07
7.86667e-05
-4.26759e-07
7.85711e-05
-4.17743e-07
7.84776e-05
-4.08757e-07
7.83863e-05
-3.99784e-07
7.82972e-05
-3.90809e-07
7.82102e-05
-3.81819e-07
7.81254e-05
-3.72802e-07
7.80427e-05
-3.63747e-07
7.79623e-05
-3.54647e-07
7.7884e-05
-3.45497e-07
7.7808e-05
-3.36291e-07
7.77341e-05
-3.2703e-07
7.76625e-05
-3.17713e-07
7.75932e-05
-3.08344e-07
7.7526e-05
-2.98926e-07
7.74612e-05
-2.89465e-07
7.73985e-05
-2.7997e-07
7.73382e-05
-2.70451e-07
7.72801e-05
-2.60916e-07
7.72242e-05
-2.51379e-07
7.71706e-05
-2.41853e-07
7.71192e-05
-2.32352e-07
7.707e-05
-2.2289e-07
7.7023e-05
-2.13484e-07
7.69782e-05
-2.04149e-07
7.69356e-05
-1.94901e-07
7.6895e-05
-1.85758e-07
7.68566e-05
-1.76737e-07
7.68202e-05
-1.67856e-07
7.67858e-05
-1.59131e-07
7.67533e-05
-1.50581e-07
7.67228e-05
-1.42223e-07
7.66941e-05
-1.34077e-07
7.66672e-05
-1.26161e-07
-1.18486e-07
7.54693e-05
7.52849e-05
-6.77196e-07
7.51052e-05
-6.59948e-07
7.49301e-05
-6.43377e-07
7.47593e-05
-6.27445e-07
7.45927e-05
-6.12118e-07
7.44301e-05
-5.97364e-07
7.42715e-05
-5.83154e-07
7.41166e-05
-5.69461e-07
7.39653e-05
-5.56258e-07
7.38175e-05
-5.43523e-07
7.3673e-05
-5.31233e-07
7.35318e-05
-5.19366e-07
7.33938e-05
-5.07903e-07
7.32588e-05
-4.96825e-07
7.31267e-05
-4.86113e-07
7.29975e-05
-4.7575e-07
7.2871e-05
-4.65718e-07
7.27472e-05
-4.56e-07
7.2626e-05
-4.4658e-07
7.25074e-05
-4.3744e-07
7.23911e-05
-4.28563e-07
7.22773e-05
-4.19933e-07
7.21658e-05
-4.11533e-07
7.20565e-05
-4.03344e-07
7.19495e-05
-3.9535e-07
7.18447e-05
-3.87533e-07
7.17419e-05
-3.79874e-07
7.16413e-05
-3.72357e-07
7.15428e-05
-3.64962e-07
7.14463e-05
-3.57674e-07
7.13518e-05
-3.50473e-07
7.12593e-05
-3.43344e-07
7.11688e-05
-3.36271e-07
7.10803e-05
-3.29237e-07
7.09938e-05
-3.22227e-07
7.09092e-05
-3.1523e-07
7.08266e-05
-3.08231e-07
7.0746e-05
-3.0122e-07
7.06674e-05
-2.94188e-07
7.05908e-05
-2.87127e-07
7.05162e-05
-2.80029e-07
7.04436e-05
-2.7289e-07
7.0373e-05
-2.65707e-07
7.03045e-05
-2.58479e-07
7.02379e-05
-2.51204e-07
7.01735e-05
-2.43886e-07
7.01111e-05
-2.36527e-07
7.00508e-05
-2.29133e-07
6.99925e-05
-2.21708e-07
6.99363e-05
-2.1426e-07
6.98822e-05
-2.06797e-07
6.98301e-05
-1.99329e-07
6.97801e-05
-1.91865e-07
6.97322e-05
-1.84417e-07
6.96863e-05
-1.76996e-07
6.96424e-05
-1.69614e-07
6.96006e-05
-1.62284e-07
6.95607e-05
-1.55019e-07
6.95228e-05
-1.47831e-07
6.94868e-05
-1.40735e-07
6.94527e-05
-1.33744e-07
6.94204e-05
-1.26872e-07
6.939e-05
-1.20134e-07
6.93613e-05
-1.13543e-07
6.93343e-05
-1.07113e-07
6.9309e-05
-1.00861e-07
-9.47953e-08
6.69428e-05
-5.10421e-07
6.67803e-05
-4.97443e-07
6.66219e-05
-4.84972e-07
6.64674e-05
-4.72982e-07
6.63168e-05
-4.61446e-07
6.61698e-05
-4.50341e-07
6.60262e-05
-4.39645e-07
6.58861e-05
-4.29338e-07
6.57493e-05
-4.194e-07
6.56156e-05
-4.09814e-07
6.54849e-05
-4.00563e-07
6.53571e-05
-3.91631e-07
6.52322e-05
-3.83004e-07
6.51101e-05
-3.74667e-07
6.49906e-05
-3.66607e-07
6.48736e-05
-3.58811e-07
6.47592e-05
-3.51264e-07
6.46471e-05
-3.43956e-07
6.45374e-05
-3.36873e-07
6.443e-05
-3.30003e-07
6.43248e-05
-3.23333e-07
6.42217e-05
-3.1685e-07
6.41207e-05
-3.10542e-07
6.40217e-05
-3.04396e-07
6.39248e-05
-2.98398e-07
6.38298e-05
-2.92535e-07
6.37367e-05
-2.86794e-07
6.36455e-05
-2.81161e-07
6.35562e-05
-2.75623e-07
6.34687e-05
-2.70167e-07
6.3383e-05
-2.64779e-07
6.32991e-05
-2.59447e-07
6.3217e-05
-2.54157e-07
6.31366e-05
-2.48899e-07
6.30581e-05
-2.43661e-07
6.29813e-05
-2.38432e-07
6.29062e-05
-2.33203e-07
6.2833e-05
-2.27966e-07
6.27615e-05
-2.22712e-07
6.26918e-05
-2.17436e-07
6.26239e-05
-2.12133e-07
6.25578e-05
-2.06797e-07
6.24936e-05
-2.01428e-07
6.24311e-05
-1.96023e-07
6.23705e-05
-1.90581e-07
6.23117e-05
-1.85105e-07
6.22548e-05
-1.79596e-07
6.21997e-05
-1.74058e-07
6.21465e-05
-1.68495e-07
6.20951e-05
-1.62911e-07
6.20456e-05
-1.57313e-07
6.1998e-05
-1.51708e-07
6.19523e-05
-1.46103e-07
6.19084e-05
-1.40507e-07
6.18663e-05
-1.34927e-07
6.1826e-05
-1.29374e-07
6.17876e-05
6.1751e-05
6.17161e-05
6.1683e-05
6.16516e-05
6.16219e-05
6.15938e-05
6.15673e-05
6.15424e-05
6.1519e-05
5.80919e-05
5.79486e-05
5.7809e-05
5.76729e-05
5.75401e-05
5.74105e-05
5.7284e-05
5.71604e-05
5.70398e-05
5.69219e-05
5.68067e-05
5.6694e-05
5.65839e-05
5.64762e-05
5.63708e-05
5.62676e-05
5.61667e-05
5.60678e-05
5.5971e-05
5.58762e-05
5.57834e-05
5.56924e-05
5.56032e-05
5.55159e-05
5.54303e-05
5.53464e-05
5.52642e-05
5.51836e-05
5.51046e-05
5.50273e-05
5.49515e-05
5.48773e-05
5.48047e-05
5.47336e-05
5.4664e-05
5.4596e-05
5.45295e-05
5.44646e-05
5.44012e-05
5.43394e-05
5.42792e-05
5.42205e-05
5.41634e-05
5.41079e-05
5.4054e-05
5.40017e-05
5.3951e-05
5.39019e-05
5.38545e-05
5.38087e-05
5.37645e-05
5.3722e-05
5.36811e-05
5.36418e-05
5.36042e-05
)
;

boundaryField
{
    inlet
    {
        type            calculated;
        value           nonuniform 0();
    }
    outlet
    {
        type            calculated;
        value           nonuniform 0();
    }
    wall
    {
        type            calculated;
        value           nonuniform 0();
    }
    wedge1
    {
        type            wedge;
        value           nonuniform List<scalar> 
344
(
6.78283e-17
5.49e-17
4.32075e-17
6.60641e-17
5.34825e-17
4.20956e-17
9.77703e-17
-1.59388e-16
6.44167e-17
5.21593e-17
4.10663e-17
9.53244e-17
-1.55298e-16
6.28017e-17
5.08515e-17
4.00461e-17
9.29333e-17
-1.51404e-16
6.12482e-17
4.96047e-17
3.90615e-17
9.06492e-17
-1.47653e-16
5.97342e-17
4.83694e-17
3.80867e-17
8.84046e-17
-1.44086e-16
5.83109e-17
4.72263e-17
3.71905e-17
8.63064e-17
-1.40588e-16
5.69159e-17
4.60944e-17
3.63079e-17
8.42491e-17
-1.37252e-16
5.55757e-17
4.50195e-17
3.54574e-17
8.22843e-17
-1.34029e-16
5.42657e-17
4.39468e-17
3.461e-17
8.03433e-17
-1.30963e-16
5.30364e-17
4.29609e-17
3.38365e-17
7.85331e-17
-1.2794e-16
5.18268e-17
4.19784e-17
3.30712e-17
7.67514e-17
-1.25058e-16
5.06612e-17
4.10427e-17
3.23295e-17
7.50438e-17
-1.2227e-16
4.95131e-17
4.01006e-17
3.15824e-17
7.33461e-17
-1.19624e-16
4.84241e-17
3.92249e-17
3.08907e-17
7.17529e-17
-1.17015e-16
4.7342e-17
3.83372e-17
3.01886e-17
7.01667e-17
-1.14535e-16
4.62911e-17
3.74804e-17
2.95082e-17
6.8639e-17
-1.1213e-16
4.52738e-17
3.66533e-17
2.88533e-17
6.71646e-17
-1.09799e-16
4.42895e-17
3.58549e-17
2.82223e-17
6.57387e-17
-1.07539e-16
4.3333e-17
3.50785e-17
2.7609e-17
6.43574e-17
-1.05349e-16
4.24038e-17
3.43243e-17
2.70139e-17
6.30155e-17
-1.03224e-16
4.15034e-17
3.3595e-17
2.64394e-17
6.1716e-17
-1.01159e-16
4.06285e-17
3.28861e-17
2.58803e-17
6.04531e-17
-9.9152e-17
3.97777e-17
3.21968e-17
2.53374e-17
5.92249e-17
-9.71979e-17
3.89522e-17
3.15298e-17
2.48137e-17
5.80325e-17
-9.52896e-17
3.81504e-17
3.08846e-17
2.43093e-17
5.68773e-17
-9.34177e-17
3.73835e-17
3.02756e-17
2.38357e-17
5.57739e-17
-9.15614e-17
3.66745e-17
2.97121e-17
2.34046e-17
5.47143e-17
-8.973e-17
3.59443e-17
2.91236e-17
2.29518e-17
5.36362e-17
-8.79673e-17
3.52252e-17
2.85535e-17
2.25026e-17
5.25895e-17
-8.62258e-17
3.44953e-17
2.79561e-17
2.20324e-17
5.15136e-17
-8.4551e-17
3.38086e-17
2.74133e-17
2.16101e-17
5.05098e-17
-8.2834e-17
3.31043e-17
2.68439e-17
2.11746e-17
4.94838e-17
-8.1165e-17
3.24173e-17
2.63062e-17
2.07561e-17
4.84971e-17
-7.94885e-17
3.17683e-17
2.57919e-17
2.03679e-17
4.75302e-17
-7.77969e-17
3.11093e-17
2.52647e-17
1.99561e-17
4.65434e-17
-7.61448e-17
3.04532e-17
2.47433e-17
1.95581e-17
4.55694e-17
-7.44766e-17
2.97713e-17
2.4199e-17
1.91321e-17
4.45714e-17
-7.28405e-17
2.91145e-17
2.36736e-17
1.87289e-17
4.35904e-17
-7.11723e-17
2.84411e-17
2.31327e-17
1.83036e-17
4.25888e-17
-6.95259e-17
2.77674e-17
2.25947e-17
1.78908e-17
4.15948e-17
-6.78506e-17
2.70657e-17
2.20322e-17
1.74491e-17
4.0573e-17
-6.61983e-17
2.63873e-17
2.14882e-17
1.703e-17
3.9567e-17
-6.45035e-17
2.5693e-17
2.09295e-17
1.6589e-17
3.85364e-17
-6.28265e-17
2.4993e-17
2.0367e-17
1.61533e-17
3.75062e-17
-6.11198e-17
2.42647e-17
1.97713e-17
1.56796e-17
3.64342e-17
-5.94449e-17
2.35329e-17
1.91886e-17
1.52233e-17
3.53808e-17
-5.77322e-17
2.28288e-17
1.86241e-17
1.47898e-17
3.43434e-17
-5.59804e-17
2.21112e-17
1.80468e-17
1.43357e-17
3.3283e-17
-5.42483e-17
2.13935e-17
1.74715e-17
1.38906e-17
3.22274e-17
-5.24883e-17
2.06526e-17
1.68747e-17
1.34201e-17
3.11464e-17
-5.07534e-17
7.22823e-17
1.99381e-17
1.62986e-17
1.29732e-17
3.00847e-17
-4.8982e-17
6.95814e-17
1.92123e-17
1.57112e-17
1.25081e-17
2.90069e-17
-4.72338e-17
6.68934e-17
1.84932e-17
1.51337e-17
1.20596e-17
2.79435e-17
-4.54623e-17
6.41894e-17
1.77517e-17
1.45351e-17
1.15883e-17
2.68607e-17
-4.37242e-17
6.15279e-17
1.70428e-17
1.39627e-17
1.11419e-17
2.58023e-17
-4.19611e-17
5.88744e-17
1.63272e-17
1.33825e-17
1.0681e-17
2.47344e-17
-4.02309e-17
5.62493e-17
1.56202e-17
1.2813e-17
1.02386e-17
2.36868e-17
5.36285e-17
1.48986e-17
1.22291e-17
9.7756e-18
2.26278e-17
5.10672e-17
1.42132e-17
1.16739e-17
9.34254e-18
2.16018e-17
4.85318e-17
1.35252e-17
1.11149e-17
8.89795e-18
2.05727e-17
4.6046e-17
1.28553e-17
1.05732e-17
8.47557e-18
1.95718e-17
4.35887e-17
1.21772e-17
1.00243e-17
8.03841e-18
1.85693e-17
4.12074e-17
1.15393e-17
9.50588e-18
7.63347e-18
1.76064e-17
3.88715e-17
1.0905e-17
8.98937e-18
7.22152e-18
1.66509e-17
3.66043e-17
1.02919e-17
8.49447e-18
6.83537e-18
1.57313e-17
3.43846e-17
9.67606e-18
7.99457e-18
6.43529e-18
1.4817e-17
3.22592e-17
9.10526e-18
7.52875e-18
6.07127e-18
1.39485e-17
)
;
    }
    wedge2
    {
        type            wedge;
        value           nonuniform List<scalar> 
344
(
6.94793e-17
5.64132e-17
4.45646e-17
6.76804e-17
5.49455e-17
4.34047e-17
9.89051e-17
-1.58428e-16
6.59077e-17
5.3499e-17
4.2253e-17
9.63427e-17
-1.54442e-16
6.42372e-17
5.21461e-17
4.11779e-17
9.39221e-17
-1.50575e-16
6.26325e-17
5.08352e-17
4.01482e-17
9.15801e-17
-1.46865e-16
6.11085e-17
4.96102e-17
3.91853e-17
8.93742e-17
-1.43253e-16
5.96079e-17
4.83852e-17
3.82164e-17
8.71885e-17
-1.39841e-16
5.81869e-17
4.72365e-17
3.73027e-17
8.51198e-17
-1.36521e-16
5.68136e-17
4.61137e-17
3.64223e-17
8.31087e-17
-1.3333e-16
5.55075e-17
4.50676e-17
3.56008e-17
8.12164e-17
-1.30211e-16
5.42132e-17
4.40096e-17
3.47646e-17
7.9329e-17
-1.27269e-16
5.29871e-17
4.30197e-17
3.39765e-17
7.75423e-17
-1.24395e-16
5.18007e-17
4.20508e-17
3.32182e-17
7.58048e-17
-1.21624e-16
5.06765e-17
4.11529e-17
3.25163e-17
7.41747e-17
-1.18903e-16
4.95689e-17
4.02501e-17
3.18077e-17
7.25518e-17
-1.16324e-16
4.85264e-17
3.94179e-17
3.11556e-17
7.10285e-17
-1.13789e-16
4.75211e-17
3.86103e-17
3.05258e-17
6.95479e-17
-1.11343e-16
4.65471e-17
3.78258e-17
2.99122e-17
6.81105e-17
-1.08979e-16
4.56013e-17
3.70625e-17
2.93143e-17
6.67157e-17
-1.06692e-16
4.46858e-17
3.63244e-17
2.8736e-17
6.53629e-17
-1.04476e-16
4.37975e-17
3.56086e-17
2.81748e-17
6.40522e-17
-1.02327e-16
4.29315e-17
3.49095e-17
2.76261e-17
6.27757e-17
-1.00242e-16
4.20877e-17
3.42291e-17
2.70929e-17
6.15342e-17
-9.82166e-17
4.1264e-17
3.3565e-17
2.65722e-17
6.03248e-17
-9.62469e-17
4.04557e-17
3.2912e-17
2.60589e-17
5.91411e-17
-9.43322e-17
3.96609e-17
3.22676e-17
2.55505e-17
5.79767e-17
-9.24734e-17
3.8865e-17
3.16147e-17
2.50334e-17
5.68119e-17
-9.06832e-17
3.80413e-17
3.09411e-17
2.44934e-17
5.56493e-17
-8.89437e-17
3.72655e-17
3.03142e-17
2.39927e-17
5.45462e-17
-8.7203e-17
3.65018e-17
2.96881e-17
2.35037e-17
5.34474e-17
-8.54999e-17
3.57686e-17
2.91056e-17
2.30486e-17
5.24084e-17
-8.37806e-17
3.50087e-17
2.84819e-17
2.25567e-17
5.13229e-17
-8.21459e-17
3.42795e-17
2.78955e-17
2.20865e-17
5.028e-17
-8.04974e-17
3.35429e-17
2.72859e-17
2.16061e-17
4.92138e-17
-7.8883e-17
3.27755e-17
2.66586e-17
2.11001e-17
4.81391e-17
-7.73027e-17
3.20223e-17
2.60479e-17
2.06206e-17
4.70913e-17
-7.56951e-17
3.12679e-17
2.54328e-17
2.01287e-17
4.60339e-17
-7.4109e-17
3.05389e-17
2.48402e-17
1.96643e-17
4.49999e-17
-7.24905e-17
2.97822e-17
2.42267e-17
1.91756e-17
4.39453e-17
-7.08984e-17
2.90377e-17
2.3625e-17
1.87061e-17
4.29047e-17
-6.92738e-17
2.82878e-17
2.30158e-17
1.82204e-17
4.18478e-17
-6.76639e-17
2.75591e-17
2.24254e-17
1.77591e-17
4.0808e-17
-6.60133e-17
2.67995e-17
2.18101e-17
1.72699e-17
3.97402e-17
-6.4385e-17
2.60478e-17
2.12028e-17
1.67971e-17
3.86839e-17
-6.27172e-17
2.52935e-17
2.05924e-17
1.63135e-17
3.76137e-17
-6.10563e-17
2.45594e-17
2.00084e-17
1.58622e-17
3.65719e-17
-5.93409e-17
2.38214e-17
1.94049e-17
1.53883e-17
3.54985e-17
-5.76412e-17
2.30488e-17
1.87776e-17
1.48866e-17
3.43973e-17
-5.59599e-17
2.22842e-17
1.8158e-17
1.44013e-17
3.33083e-17
-5.42401e-17
2.15152e-17
1.75324e-17
1.39035e-17
3.22057e-17
-5.25322e-17
2.07666e-17
1.69256e-17
1.34286e-17
3.11216e-17
-5.07864e-17
7.23785e-17
1.99905e-17
1.62968e-17
1.29286e-17
3.00138e-17
-4.9068e-17
6.96368e-17
1.92264e-17
1.56794e-17
1.24466e-17
2.89203e-17
-4.73217e-17
6.68946e-17
1.84585e-17
1.5054e-17
1.19489e-17
2.78138e-17
-4.55986e-17
6.41891e-17
1.77181e-17
1.44533e-17
1.14765e-17
2.6731e-17
-4.3847e-17
6.14701e-17
1.69526e-17
1.3832e-17
1.09832e-17
2.56317e-17
-4.2131e-17
5.87812e-17
1.62038e-17
1.3226e-17
1.05097e-17
2.45533e-17
-4.03983e-17
5.61112e-17
1.54586e-17
1.26189e-17
1.00249e-17
2.34696e-17
5.34938e-17
1.47433e-17
1.20379e-17
9.56944e-18
2.24158e-17
5.08831e-17
1.40093e-17
1.14419e-17
9.09436e-18
2.13518e-17
4.83225e-17
1.32982e-17
1.08657e-17
8.64293e-18
2.03175e-17
4.57979e-17
1.25921e-17
1.02903e-17
8.1831e-18
1.92855e-17
4.33406e-17
1.19199e-17
9.7425e-18
7.75365e-18
1.82898e-17
4.09129e-17
1.12359e-17
9.18672e-18
7.30934e-18
1.72931e-17
3.85556e-17
1.05796e-17
8.65395e-18
6.89121e-18
1.6332e-17
3.62551e-17
9.93604e-18
8.12669e-18
6.46823e-18
1.53821e-17
3.40434e-17
9.33225e-18
7.63392e-18
6.08204e-18
1.44784e-17
3.18802e-17
8.72208e-18
7.13802e-18
5.6838e-18
1.3583e-17
)
;
    }
    axis
    {
        type            empty;
        value           nonuniform 0();
    }
    procBoundary37to31
    {
        type            processor;
        value           nonuniform List<scalar> 
69
(
4.44845e-07
4.28122e-07
4.11438e-07
3.94816e-07
3.78284e-07
3.61868e-07
3.45597e-07
3.29501e-07
3.13608e-07
2.97948e-07
2.8255e-07
2.67446e-07
2.52667e-07
2.38242e-07
2.24202e-07
2.10581e-07
1.97398e-07
1.30867e-06
1.27473e-06
1.24214e-06
1.21084e-06
1.18075e-06
1.15181e-06
1.12395e-06
1.09712e-06
1.07126e-06
1.04633e-06
1.02228e-06
9.99069e-07
9.76653e-07
9.54994e-07
9.34057e-07
9.13804e-07
8.94202e-07
8.75217e-07
8.56816e-07
8.38966e-07
8.21635e-07
8.0479e-07
7.88399e-07
7.72429e-07
7.56846e-07
7.41618e-07
7.26711e-07
7.12092e-07
6.97727e-07
6.83584e-07
6.69629e-07
6.55831e-07
6.42159e-07
6.28584e-07
6.15077e-07
6.01611e-07
5.88164e-07
5.74713e-07
5.61239e-07
5.47725e-07
5.34158e-07
5.20527e-07
5.06824e-07
4.93046e-07
4.7919e-07
4.65259e-07
4.51258e-07
4.37192e-07
4.23073e-07
4.08913e-07
-9.08483e-05
3.94726e-07
)
;
    }
    procBoundary37to32
    {
        type            processor;
        value           uniform 9.00825e-05;
    }
    procBoundary37to36
    {
        type            processor;
        value           nonuniform List<scalar> 5(-9.09007e-05 -8.35298e-05 -7.56587e-05 -6.95161e-07 -6.71096e-05);
    }
    procBoundary37to38
    {
        type            processor;
        value           nonuniform List<scalar> 4(8.35725e-05 7.6642e-05 6.92853e-05 6.1497e-05);
    }
    procBoundary37to42
    {
        type            processor;
        value           uniform -5.82388e-05;
    }
    procBoundary37to43
    {
        type            processor;
        value           nonuniform List<scalar> 
68
(
-1.23856e-07
-1.18383e-07
-1.12965e-07
-1.07612e-07
-1.02334e-07
-9.71432e-08
-9.20488e-08
-8.70623e-08
-8.21942e-08
-7.74565e-08
-7.28557e-08
-3.6345e-07
-3.54225e-07
-3.45361e-07
-3.36837e-07
-3.28636e-07
-3.20741e-07
-3.13136e-07
-3.05808e-07
-2.98742e-07
-2.91926e-07
-2.85348e-07
-2.78997e-07
-2.72864e-07
-2.66937e-07
-2.61208e-07
-2.55667e-07
-2.50305e-07
-2.45113e-07
-2.40082e-07
-2.35204e-07
-2.3047e-07
-2.2587e-07
-2.21396e-07
-2.17039e-07
-2.12789e-07
-2.08637e-07
-2.04573e-07
-2.00588e-07
-1.96672e-07
-1.92815e-07
-1.89009e-07
-1.85244e-07
-1.8151e-07
-1.778e-07
-1.74106e-07
-1.70418e-07
-1.66732e-07
-1.6304e-07
-1.59336e-07
-1.55617e-07
-1.51877e-07
-1.48115e-07
-1.44328e-07
-1.40514e-07
-1.36673e-07
-1.32806e-07
-1.28914e-07
-1.24999e-07
-1.21065e-07
-1.17114e-07
-1.1315e-07
-1.09179e-07
-1.05206e-07
-1.01235e-07
-9.72744e-08
5.35681e-05
-9.33295e-08
)
;
    }
}


// ************************************************************************* //
