/*--------------------------------*- C++ -*----------------------------------*\
  =========                 |
  \\      /  F ield         | OpenFOAM: The Open Source CFD Toolbox
   \\    /   O peration     | Website:  https://openfoam.org
    \\  /    A nd           | Version:  7
     \\/     M anipulation  |
\*---------------------------------------------------------------------------*/
FoamFile
{
    version     2.0;
    format      ascii;
    class       volScalarField;
    location    "29.000062";
    object      p;
}
// * * * * * * * * * * * * * * * * * * * * * * * * * * * * * * * * * * * * * //

dimensions      [0 2 -2 0 0 0 0];

internalField   nonuniform List<scalar> 
23200
(
-0.288358
-0.292549
-0.295
-0.296352
-0.296911
-0.296649
-0.295574
-0.293712
-0.291078
-0.287686
-0.283551
-0.278689
-0.273125
-0.266893
-0.260047
-0.252659
-0.244828
-0.236719
-0.228471
-0.219923
-0.289182
-0.29328
-0.295663
-0.296955
-0.297461
-0.297149
-0.29603
-0.294128
-0.291459
-0.288035
-0.283871
-0.278983
-0.273392
-0.267134
-0.260258
-0.252836
-0.244963
-0.236813
-0.228508
-0.219739
-0.290822
-0.294737
-0.296981
-0.298157
-0.298554
-0.298144
-0.296937
-0.294956
-0.292216
-0.288729
-0.284507
-0.279565
-0.273923
-0.267611
-0.260677
-0.253186
-0.245228
-0.236997
-0.228581
-0.219371
-0.293261
-0.296903
-0.298943
-0.299945
-0.30018
-0.299623
-0.298284
-0.296185
-0.293338
-0.289756
-0.285447
-0.280424
-0.274705
-0.268314
-0.261293
-0.253701
-0.245619
-0.237266
-0.228692
-0.218818
-0.296475
-0.29976
-0.301531
-0.302302
-0.302323
-0.301572
-0.300057
-0.2978
-0.294812
-0.291102
-0.286677
-0.281547
-0.275725
-0.269229
-0.262095
-0.25437
-0.246127
-0.237613
-0.22884
-0.21808
-0.300434
-0.303282
-0.304722
-0.305208
-0.304963
-0.30397
-0.302237
-0.299782
-0.296617
-0.292747
-0.288178
-0.282915
-0.276964
-0.270339
-0.263066
-0.255181
-0.24674
-0.238029
-0.229025
-0.217161
-0.305101
-0.307438
-0.308487
-0.308636
-0.308077
-0.306795
-0.304801
-0.30211
-0.298732
-0.294671
-0.289929
-0.284506
-0.278402
-0.271625
-0.264189
-0.256117
-0.247447
-0.238504
-0.229248
-0.216064
-0.310438
-0.312194
-0.312798
-0.312561
-0.311638
-0.310023
-0.307726
-0.304761
-0.301135
-0.296851
-0.291906
-0.286297
-0.280017
-0.273064
-0.265443
-0.257161
-0.248234
-0.239027
-0.22951
-0.214798
-0.316402
-0.317513
-0.317621
-0.31695
-0.315619
-0.313627
-0.310985
-0.307708
-0.3038
-0.299261
-0.294086
-0.288265
-0.281785
-0.274635
-0.266809
-0.258298
-0.24909
-0.239588
-0.22981
-0.213375
-0.322947
-0.323359
-0.322923
-0.321774
-0.31999
-0.317579
-0.314555
-0.310928
-0.306704
-0.301879
-0.296445
-0.290387
-0.283685
-0.276318
-0.268268
-0.259509
-0.250002
-0.240177
-0.230146
-0.211815
-0.33003
-0.329692
-0.32867
-0.327001
-0.324724
-0.321854
-0.318408
-0.314397
-0.309823
-0.304682
-0.298962
-0.292642
-0.285697
-0.278093
-0.269801
-0.260781
-0.25096
-0.240785
-0.230516
-0.210144
-0.337609
-0.336475
-0.334828
-0.332602
-0.329792
-0.326426
-0.322522
-0.318092
-0.313137
-0.307652
-0.301618
-0.295013
-0.287802
-0.279944
-0.271395
-0.262101
-0.251954
-0.241406
-0.230912
-0.208395
-0.34564
-0.343673
-0.341365
-0.338546
-0.335168
-0.331271
-0.326876
-0.321995
-0.316629
-0.31077
-0.304399
-0.297485
-0.289988
-0.281857
-0.273036
-0.263455
-0.252974
-0.242034
-0.231319
-0.206609
-0.354086
-0.351251
-0.34825
-0.344807
-0.340829
-0.336368
-0.331451
-0.326089
-0.320284
-0.314026
-0.307292
-0.300047
-0.292245
-0.283823
-0.274715
-0.264837
-0.254016
-0.242666
-0.231717
-0.204833
-0.362911
-0.359176
-0.355454
-0.351359
-0.346751
-0.341697
-0.33623
-0.330361
-0.324091
-0.317409
-0.310289
-0.302693
-0.294564
-0.285835
-0.276425
-0.266239
-0.255074
-0.243305
-0.232082
-0.203134
-0.37208
-0.367417
-0.36295
-0.358177
-0.352914
-0.347243
-0.3412
-0.334799
-0.328041
-0.320913
-0.313387
-0.305417
-0.296943
-0.287888
-0.278163
-0.267658
-0.256146
-0.243961
-0.232386
-0.201608
-0.381562
-0.375947
-0.370711
-0.36524
-0.359299
-0.352988
-0.34635
-0.339396
-0.33213
-0.324535
-0.316581
-0.308218
-0.299379
-0.28998
-0.279924
-0.269088
-0.257229
-0.244641
-0.232545
-0.200285
-0.391326
-0.384736
-0.378713
-0.372524
-0.365889
-0.358921
-0.351669
-0.344145
-0.336352
-0.328272
-0.319871
-0.311095
-0.30187
-0.292107
-0.281705
-0.270531
-0.25834
-0.245372
-0.23234
-0.198954
-0.401342
-0.393757
-0.386929
-0.380009
-0.372665
-0.365026
-0.357147
-0.349039
-0.340703
-0.332122
-0.323254
-0.314042
-0.304408
-0.29426
-0.283496
-0.27199
-0.25953
-0.246283
-0.231851
-0.198293
-0.411579
-0.402978
-0.395334
-0.387671
-0.379609
-0.371289
-0.362773
-0.354069
-0.345179
-0.336078
-0.326724
-0.317052
-0.306982
-0.296422
-0.285277
-0.273445
-0.260817
-0.24754
-0.232441
-0.205327
-0.422002
-0.412367
-0.403896
-0.395485
-0.386698
-0.377694
-0.368533
-0.359227
-0.349768
-0.340132
-0.330269
-0.320109
-0.309569
-0.29856
-0.286999
-0.274822
-0.262036
-0.248878
-0.235342
-0.22723
-0.432572
-0.421889
-0.412583
-0.403422
-0.393909
-0.384218
-0.374412
-0.364495
-0.354458
-0.344268
-0.33387
-0.323189
-0.312138
-0.30063
-0.288596
-0.276004
-0.262938
-0.249657
-0.236161
-0.231672
-0.443243
-0.431499
-0.421357
-0.411447
-0.401213
-0.390838
-0.380385
-0.369852
-0.359225
-0.348462
-0.3375
-0.326258
-0.314646
-0.302579
-0.29
-0.276896
-0.26339
-0.249706
-0.235588
-0.230701
-0.453963
-0.44115
-0.430173
-0.41952
-0.408572
-0.39752
-0.386422
-0.37527
-0.364039
-0.352679
-0.341119
-0.329269
-0.317038
-0.304345
-0.291138
-0.277424
-0.263333
-0.249054
-0.234235
-0.227766
-0.464667
-0.450783
-0.438979
-0.427595
-0.415945
-0.404223
-0.392485
-0.380709
-0.368859
-0.356876
-0.344676
-0.332167
-0.319252
-0.305856
-0.291938
-0.277516
-0.262724
-0.247712
-0.23214
-0.22366
-0.475284
-0.460332
-0.447712
-0.435614
-0.423277
-0.4109
-0.398526
-0.38612
-0.373633
-0.360993
-0.348109
-0.33488
-0.321213
-0.307037
-0.292325
-0.277109
-0.261525
-0.245698
-0.229349
-0.218848
-0.485727
-0.469719
-0.456302
-0.443512
-0.430509
-0.417489
-0.404484
-0.39144
-0.378295
-0.364962
-0.351342
-0.33733
-0.322837
-0.307805
-0.292222
-0.276143
-0.259706
-0.24303
-0.225926
-0.213604
-0.4959
-0.478855
-0.464668
-0.451211
-0.437566
-0.42392
-0.410287
-0.396597
-0.382767
-0.368699
-0.354287
-0.339426
-0.324035
-0.308074
-0.291557
-0.274561
-0.257242
-0.239723
-0.221918
-0.208048
-0.505694
-0.487642
-0.472716
-0.458626
-0.444365
-0.430109
-0.415853
-0.401502
-0.386958
-0.37211
-0.356846
-0.341068
-0.324711
-0.307759
-0.290256
-0.272312
-0.254108
-0.235781
-0.217346
-0.202208
-0.514985
-0.495967
-0.480343
-0.465658
-0.450811
-0.435963
-0.421085
-0.406058
-0.390765
-0.375088
-0.358913
-0.342153
-0.324767
-0.306771
-0.288249
-0.269349
-0.250279
-0.231202
-0.21222
-0.196072
-0.52364
-0.503709
-0.487436
-0.472196
-0.456796
-0.441375
-0.425875
-0.410153
-0.394076
-0.377518
-0.360372
-0.342571
-0.324104
-0.305028
-0.285473
-0.265629
-0.245735
-0.22598
-0.206538
-0.189607
-0.531514
-0.510735
-0.493868
-0.478122
-0.462204
-0.446226
-0.430103
-0.413665
-0.396765
-0.379276
-0.361104
-0.34221
-0.322623
-0.30245
-0.281867
-0.261111
-0.240453
-0.220106
-0.200294
-0.182772
-0.538451
-0.516901
-0.499505
-0.483304
-0.466905
-0.450389
-0.43364
-0.416464
-0.398703
-0.380235
-0.360989
-0.340962
-0.320232
-0.298961
-0.277378
-0.255764
-0.234417
-0.213569
-0.193478
-0.17553
-0.544287
-0.522058
-0.504204
-0.487603
-0.470762
-0.453727
-0.436348
-0.418411
-0.399752
-0.380264
-0.359905
-0.33872
-0.316843
-0.294494
-0.271959
-0.249557
-0.227609
-0.20636
-0.186083
-0.167848
-0.548853
-0.526047
-0.507813
-0.490872
-0.47363
-0.456093
-0.438081
-0.419362
-0.399774
-0.379232
-0.357735
-0.335383
-0.312374
-0.288991
-0.26557
-0.242468
-0.220018
-0.198471
-0.178098
-0.159699
-0.551972
-0.528704
-0.510177
-0.492958
-0.475357
-0.457337
-0.43869
-0.419171
-0.398628
-0.377009
-0.354365
-0.330857
-0.306754
-0.2824
-0.25818
-0.234478
-0.211635
-0.189895
-0.169518
-0.151064
-0.553469
-0.529865
-0.511134
-0.493704
-0.475787
-0.457305
-0.438023
-0.417692
-0.396179
-0.373475
-0.34969
-0.32506
-0.299922
-0.27468
-0.249764
-0.225575
-0.202452
-0.18063
-0.160338
-0.141927
-0.553165
-0.529361
-0.510524
-0.49295
-0.474764
-0.455842
-0.43593
-0.414781
-0.392295
-0.368513
-0.343617
-0.317918
-0.291824
-0.265799
-0.240303
-0.215751
-0.192469
-0.170673
-0.150556
-0.132281
-0.550887
-0.527029
-0.508186
-0.490539
-0.47213
-0.452795
-0.432264
-0.410302
-0.386852
-0.362018
-0.336061
-0.309369
-0.282422
-0.255733
-0.229789
-0.205003
-0.181685
-0.160025
-0.140173
-0.12212
-0.546467
-0.522707
-0.503963
-0.486316
-0.467734
-0.448016
-0.426883
-0.404126
-0.379739
-0.3539
-0.326952
-0.299366
-0.271687
-0.244469
-0.218216
-0.193335
-0.170105
-0.148692
-0.129192
-0.111447
-0.539745
-0.516242
-0.497704
-0.480131
-0.461429
-0.441363
-0.419656
-0.396135
-0.370856
-0.344079
-0.316234
-0.287873
-0.259599
-0.232002
-0.20559
-0.180752
-0.157737
-0.13668
-0.117619
-0.100264
-0.530575
-0.507492
-0.489268
-0.471844
-0.45308
-0.432709
-0.410466
-0.386226
-0.360119
-0.332493
-0.303867
-0.274868
-0.246153
-0.218335
-0.191918
-0.167267
-0.144593
-0.124
-0.105463
-0.0885799
-0.518823
-0.496326
-0.478527
-0.461329
-0.442562
-0.421936
-0.399208
-0.374313
-0.347461
-0.319095
-0.289823
-0.260342
-0.231353
-0.203481
-0.177218
-0.152897
-0.130689
-0.110666
-0.0927401
-0.0764109
-0.504374
-0.48263
-0.465365
-0.448472
-0.429767
-0.408944
-0.385797
-0.360325
-0.332833
-0.303858
-0.274093
-0.244301
-0.215215
-0.187461
-0.161512
-0.137663
-0.116044
-0.096693
-0.0794651
-0.0637743
-0.487134
-0.466308
-0.449686
-0.433179
-0.414604
-0.393654
-0.370164
-0.344215
-0.316205
-0.28677
-0.256684
-0.226763
-0.197763
-0.170304
-0.144829
-0.121592
-0.100681
-0.0821035
-0.0656545
-0.0506442
-0.467029
-0.447285
-0.431414
-0.415373
-0.397005
-0.376005
-0.352265
-0.325953
-0.297567
-0.267838
-0.237616
-0.207759
-0.179034
-0.152047
-0.127204
-0.104716
-0.0846296
-0.0669229
-0.0513345
-0.0369667
-0.444012
-0.42551
-0.410495
-0.395002
-0.376921
-0.35596
-0.332076
-0.305533
-0.276931
-0.24709
-0.216926
-0.187331
-0.159074
-0.132734
-0.108679
-0.087073
-0.0679223
-0.0511753
-0.0365324
-0.0230113
-0.418062
-0.400956
-0.386899
-0.372037
-0.354329
-0.333507
-0.309599
-0.282973
-0.254327
-0.224567
-0.194665
-0.165536
-0.137938
-0.112419
-0.0893015
-0.0687042
-0.0506007
-0.0349164
-0.0212345
-0.00869212
-0.389187
-0.373623
-0.360623
-0.346476
-0.329232
-0.308657
-0.284859
-0.25831
-0.229806
-0.200331
-0.1709
-0.14244
-0.11569
-0.0911599
-0.0691257
-0.0496615
-0.0327038
-0.0181606
-0.00552417
0.00599141
-0.357424
-0.343539
-0.331691
-0.318344
-0.301661
-0.281449
-0.257906
-0.231606
-0.20344
-0.174458
-0.145711
-0.118122
-0.0924051
-0.0690259
-0.0482125
-0.0299954
-0.0142802
-0.000954188
0.0105643
0.0210023
-0.322838
-0.310762
-0.300156
-0.287692
-0.271671
-0.251948
-0.228814
-0.202945
-0.175319
-0.147043
-0.119189
-0.0926704
-0.0681646
-0.0460903
-0.0266281
-0.00976593
0.00461753
0.0166547
0.0269928
0.0362991
-0.285528
-0.275377
-0.266098
-0.254602
-0.239347
-0.220245
-0.197681
-0.172431
-0.145551
-0.118193
-0.0914395
-0.0661832
-0.0430586
-0.022435
-0.00444528
0.0109619
0.0239318
0.0346145
0.0437165
0.0518373
-0.245622
-0.237503
-0.229629
-0.219183
-0.204801
-0.186456
-0.164629
-0.140191
-0.114259
-0.0880313
-0.0625798
-0.0387681
-0.0171849
0.00185239
0.0182574
0.0321179
0.0435999
0.0528698
0.0606854
0.0675677
-0.203277
-0.197282
-0.190886
-0.181573
-0.168172
-0.150723
-0.1298
-0.106362
-0.0815909
-0.0566936
-0.0327355
-0.010541
0.00935181
0.0266779
0.0413958
0.0536268
0.0635543
0.0713605
0.077844
0.0834344
-0.158683
-0.154887
-0.150037
-0.141934
-0.129623
-0.113206
-0.0933594
-0.0711141
-0.0476983
-0.0243266
-0.00204269
0.0183743
0.0364403
0.051942
0.0648811
0.0754084
0.0837226
0.0900217
0.0951316
0.0993743
-0.112045
-0.110522
-0.107276
-0.100457
-0.0893384
-0.0740997
-0.0554919
-0.0346222
-0.0127506
0.00891191
0.0293542
0.0478476
0.0639639
0.0775406
0.0886197
0.0973783
0.104028
0.108786
0.112485
0.115318
-0.0635545
-0.0644538
-0.0628199
-0.0573539
-0.0475336
-0.0336051
-0.0163973
0.00292152
0.0230709
0.042855
0.0613034
0.0777426
0.0918009
0.103365
0.112515
0.119449
0.124391
0.127587
0.129845
0.131164
-0.0136096
-0.0168418
-0.0169081
-0.0128646
-0.00443875
0.00805227
0.023708
0.0413119
0.0595752
0.0773276
0.0936471
0.107918
0.119826
0.129304
0.136466
0.141528
0.144732
0.14637
0.147148
0.146716
0.0375941
0.031986
0.03019
0.0327555
0.0396973
0.0506311
0.064594
0.0803329
0.0965628
0.112149
0.126222
0.138229
0.14791
0.155243
0.160371
0.163524
0.164969
0.16506
0.164228
0.161734
0.0897479
0.0817401
0.0781946
0.0792331
0.0846092
0.0938767
0.10602
0.11976
0.133827
0.147131
0.158862
0.168527
0.175922
0.181066
0.184127
0.185344
0.185022
0.183523
0.180716
0.176167
0.142523
0.132116
0.126809
0.126279
0.130018
0.137523
0.147734
0.159361
0.171157
0.182084
0.191396
0.198662
0.203729
0.206656
0.207632
0.206908
0.204819
0.201643
0.19639
0.190261
0.195582
0.182794
0.175723
0.173593
0.175635
0.181296
0.189481
0.198899
0.208337
0.216815
0.223652
0.22848
0.231197
0.231896
0.230786
0.22813
0.224286
0.219494
0.212721
0.206148
0.248579
0.233441
0.224613
0.220863
0.221162
0.224913
0.230999
0.238134
0.245151
0.25113
0.255459
0.257831
0.258191
0.256665
0.253479
0.248909
0.243317
0.236906
0.228804
0.221531
0.301162
0.28372
0.273153
0.267773
0.266297
0.268091
0.272023
0.276825
0.28138
0.284834
0.286644
0.286561
0.284576
0.280844
0.275606
0.269148
0.261824
0.253814
0.244393
0.236184
0.352974
0.333285
0.321009
0.314002
0.310736
0.310544
0.31229
0.314732
0.316809
0.317736
0.317037
0.314521
0.31022
0.304315
0.297063
0.288751
0.279728
0.270153
0.259432
0.250127
0.403658
0.381795
0.367849
0.35923
0.354173
0.351988
0.351539
0.351618
0.351225
0.349645
0.346469
0.341561
0.334991
0.326964
0.317745
0.307627
0.296946
0.28585
0.273857
0.263383
0.452859
0.428906
0.413341
0.40314
0.396309
0.392142
0.389512
0.38725
0.38442
0.380377
0.374779
0.367539
0.358763
0.348677
0.337554
0.325688
0.313402
0.300837
0.287608
0.275944
0.500231
0.474284
0.457161
0.44542
0.43685
0.430732
0.425958
0.421401
0.416191
0.409753
0.401806
0.392313
0.381413
0.369346
0.356394
0.34285
0.329023
0.31505
0.300629
0.287783
0.545434
0.5176
0.498993
0.485765
0.475508
0.467494
0.460635
0.453854
0.446344
0.4376
0.4274
0.415751
0.402821
0.388867
0.374174
0.359033
0.34374
0.328429
0.312872
0.298871
0.588144
0.55854
0.53853
0.523886
0.51201
0.502173
0.493313
0.4844
0.474694
0.463754
0.451414
0.437723
0.422876
0.40714
0.390807
0.374161
0.357486
0.340916
0.324289
0.309178
0.628049
0.596804
0.575483
0.559504
0.546095
0.534529
0.523771
0.512843
0.501064
0.488059
0.473712
0.45811
0.441471
0.424073
0.406209
0.388161
0.3702
0.352459
0.334834
0.318673
0.664858
0.632109
0.609579
0.592359
0.577518
0.564335
0.551806
0.538998
0.525292
0.510371
0.494166
0.476799
0.458506
0.439577
0.420304
0.400967
0.381822
0.363005
0.344464
0.327324
0.698301
0.664193
0.640565
0.622209
0.606053
0.591384
0.577227
0.562695
0.547227
0.530557
0.512659
0.493686
0.473892
0.453572
0.433022
0.412515
0.392297
0.372509
0.353138
0.335101
0.72813
0.692816
0.668208
0.648832
0.631494
0.615486
0.599862
0.583781
0.566731
0.548494
0.529084
0.508677
0.487543
0.465985
0.444298
0.42275
0.401578
0.380925
0.360818
0.341976
0.754124
0.717764
0.692301
0.672033
0.653654
0.636469
0.619558
0.602118
0.583683
0.564076
0.543344
0.521687
0.499386
0.47675
0.454073
0.43162
0.409618
0.388215
0.367468
0.34792
0.77609
0.738849
0.712664
0.691638
0.672375
0.654188
0.636181
0.617586
0.597976
0.577208
0.555358
0.532643
0.509357
0.485811
0.462298
0.439081
0.41638
0.394345
0.373059
0.352912
0.793863
0.755911
0.729143
0.7075
0.687518
0.668515
0.649618
0.630084
0.609519
0.58781
0.565054
0.541484
0.517401
0.493118
0.468931
0.445097
0.42183
0.399285
0.377564
0.356931
0.807311
0.768823
0.741612
0.719502
0.698973
0.679351
0.659776
0.63953
0.618241
0.595819
0.572377
0.548159
0.523472
0.498633
0.473936
0.449635
0.425941
0.403011
0.380962
0.35996
0.816333
0.777485
0.749978
0.727554
0.706657
0.686617
0.666588
0.645862
0.624087
0.601186
0.577283
0.55263
0.527539
0.502326
0.477287
0.452674
0.428694
0.405505
0.383236
0.361986
0.820861
0.781833
0.754176
0.731595
0.710513
0.690264
0.670005
0.649039
0.627019
0.603877
0.579743
0.554872
0.529578
0.504178
0.478967
0.454197
0.430073
0.406755
0.384376
0.363001
0.820861
0.781833
0.754176
0.731595
0.710513
0.690264
0.670005
0.649039
0.627019
0.603877
0.579743
0.554872
0.529578
0.504178
0.478967
0.454197
0.430073
0.406755
0.384376
0.363001
0.816333
0.777485
0.749978
0.727554
0.706657
0.686617
0.666588
0.645862
0.624087
0.601186
0.577283
0.55263
0.527539
0.502326
0.477287
0.452674
0.428694
0.405505
0.383236
0.361986
0.807311
0.768823
0.741612
0.719502
0.698973
0.679351
0.659776
0.63953
0.618242
0.595819
0.572377
0.548159
0.523472
0.498633
0.473936
0.449635
0.425941
0.403011
0.380962
0.35996
0.793863
0.755911
0.729143
0.7075
0.687518
0.668515
0.649618
0.630084
0.609519
0.58781
0.565054
0.541484
0.517401
0.493118
0.468931
0.445097
0.42183
0.399285
0.377564
0.356931
0.77609
0.738849
0.712664
0.691638
0.672375
0.654188
0.636181
0.617586
0.597976
0.577208
0.555358
0.532643
0.509357
0.485811
0.462298
0.439081
0.41638
0.394345
0.373059
0.352912
0.754124
0.717764
0.692301
0.672033
0.653655
0.636469
0.619558
0.602118
0.583683
0.564076
0.543344
0.521687
0.499386
0.47675
0.454073
0.43162
0.409618
0.388215
0.367468
0.34792
0.72813
0.692816
0.668208
0.648832
0.631494
0.615486
0.599862
0.583781
0.566731
0.548494
0.529084
0.508677
0.487543
0.465985
0.444298
0.42275
0.401578
0.380925
0.360818
0.341976
0.698301
0.664193
0.640565
0.622209
0.606053
0.591384
0.577227
0.562695
0.547227
0.530557
0.512659
0.493686
0.473892
0.453572
0.433022
0.412515
0.392297
0.372509
0.353138
0.335101
0.664858
0.632109
0.609579
0.592359
0.577518
0.564335
0.551806
0.538998
0.525292
0.510371
0.494166
0.476799
0.458506
0.439577
0.420304
0.400967
0.381822
0.363005
0.344464
0.327324
0.628049
0.596804
0.575483
0.559504
0.546095
0.534529
0.523772
0.512843
0.501064
0.488059
0.473712
0.45811
0.441471
0.424073
0.406209
0.388161
0.3702
0.352459
0.334834
0.318673
0.588144
0.55854
0.53853
0.523886
0.51201
0.502173
0.493313
0.4844
0.474694
0.463754
0.451414
0.437723
0.422876
0.40714
0.390807
0.374161
0.357486
0.340916
0.324289
0.309178
0.545434
0.5176
0.498993
0.485765
0.475508
0.467494
0.460635
0.453854
0.446344
0.4376
0.4274
0.415751
0.402821
0.388867
0.374174
0.359033
0.34374
0.328429
0.312872
0.298871
0.500231
0.474284
0.457161
0.44542
0.43685
0.430732
0.425958
0.421401
0.416191
0.409753
0.401806
0.392313
0.381413
0.369346
0.356394
0.34285
0.329023
0.31505
0.300629
0.287783
0.452859
0.428906
0.413342
0.40314
0.39631
0.392142
0.389512
0.38725
0.38442
0.380377
0.374779
0.367539
0.358763
0.348677
0.337554
0.325688
0.313402
0.300837
0.287608
0.275944
0.403658
0.381795
0.367849
0.35923
0.354173
0.351988
0.351539
0.351618
0.351225
0.349645
0.346469
0.341561
0.334991
0.326964
0.317745
0.307627
0.296946
0.28585
0.273857
0.263383
0.352974
0.333285
0.321009
0.314002
0.310736
0.310544
0.312291
0.314732
0.316809
0.317736
0.317037
0.314521
0.31022
0.304315
0.297063
0.288751
0.279728
0.270153
0.259432
0.250127
0.301162
0.28372
0.273153
0.267773
0.266297
0.268091
0.272023
0.276825
0.28138
0.284834
0.286644
0.286561
0.284576
0.280844
0.275606
0.269148
0.261824
0.253814
0.244393
0.236184
0.248579
0.233441
0.224613
0.220863
0.221162
0.224913
0.230999
0.238134
0.245151
0.25113
0.255459
0.257831
0.258191
0.256665
0.253479
0.248909
0.243317
0.236906
0.228804
0.221531
0.195582
0.182794
0.175723
0.173593
0.175635
0.181296
0.189481
0.198899
0.208338
0.216815
0.223653
0.22848
0.231197
0.231896
0.230786
0.22813
0.224286
0.219494
0.212721
0.206148
0.142523
0.132116
0.126809
0.126279
0.130018
0.137523
0.147734
0.159361
0.171157
0.182084
0.191396
0.198662
0.203729
0.206656
0.207632
0.206908
0.204819
0.201643
0.19639
0.190261
0.0897479
0.0817401
0.0781946
0.0792332
0.0846092
0.0938767
0.10602
0.11976
0.133827
0.147131
0.158862
0.168527
0.175922
0.181066
0.184127
0.185344
0.185022
0.183523
0.180716
0.176167
0.0375942
0.0319861
0.03019
0.0327555
0.0396973
0.0506311
0.0645941
0.080333
0.0965629
0.112149
0.126222
0.138229
0.14791
0.155243
0.160371
0.163524
0.164969
0.16506
0.164228
0.161734
-0.0136096
-0.0168417
-0.016908
-0.0128646
-0.00443872
0.00805231
0.0237081
0.0413119
0.0595752
0.0773277
0.0936471
0.107918
0.119826
0.129304
0.136466
0.141528
0.144732
0.14637
0.147148
0.146716
-0.0635544
-0.0644537
-0.0628198
-0.0573539
-0.0475336
-0.0336051
-0.0163972
0.00292155
0.0230709
0.042855
0.0613034
0.0777427
0.0918009
0.103365
0.112515
0.119449
0.124391
0.127587
0.129845
0.131164
-0.112045
-0.110522
-0.107276
-0.100456
-0.0893383
-0.0740996
-0.0554919
-0.0346222
-0.0127506
0.00891193
0.0293542
0.0478476
0.0639639
0.0775406
0.0886197
0.0973783
0.104028
0.108786
0.112485
0.115318
-0.158683
-0.154887
-0.150037
-0.141934
-0.129623
-0.113206
-0.0933593
-0.071114
-0.0476983
-0.0243266
-0.00204267
0.0183743
0.0364403
0.051942
0.0648811
0.0754084
0.0837226
0.0900217
0.0951316
0.0993743
-0.203277
-0.197282
-0.190886
-0.181573
-0.168172
-0.150723
-0.1298
-0.106362
-0.0815909
-0.0566936
-0.0327355
-0.010541
0.00935183
0.0266779
0.0413958
0.0536268
0.0635543
0.0713605
0.077844
0.0834344
-0.245621
-0.237503
-0.229629
-0.219183
-0.204801
-0.186456
-0.164629
-0.140191
-0.114259
-0.0880313
-0.0625798
-0.038768
-0.0171848
0.00185241
0.0182574
0.0321179
0.0435999
0.0528698
0.0606854
0.0675677
-0.285528
-0.275377
-0.266098
-0.254602
-0.239347
-0.220245
-0.197681
-0.172431
-0.145551
-0.118193
-0.0914394
-0.0661831
-0.0430586
-0.0224349
-0.00444527
0.0109619
0.0239318
0.0346145
0.0437165
0.0518373
-0.322838
-0.310761
-0.300156
-0.287692
-0.271671
-0.251948
-0.228814
-0.202945
-0.175319
-0.147043
-0.119189
-0.0926704
-0.0681646
-0.0460903
-0.0266281
-0.00976592
0.00461753
0.0166547
0.0269928
0.0362991
-0.357424
-0.343539
-0.331691
-0.318344
-0.301661
-0.281449
-0.257906
-0.231606
-0.20344
-0.174458
-0.145711
-0.118122
-0.0924051
-0.0690259
-0.0482125
-0.0299953
-0.0142802
-0.000954186
0.0105643
0.0210023
-0.389187
-0.373623
-0.360623
-0.346476
-0.329232
-0.308657
-0.284859
-0.25831
-0.229806
-0.20033
-0.1709
-0.14244
-0.11569
-0.0911599
-0.0691257
-0.0496615
-0.0327037
-0.0181606
-0.00552417
0.00599141
-0.418062
-0.400956
-0.386899
-0.372037
-0.354329
-0.333507
-0.309599
-0.282973
-0.254327
-0.224567
-0.194665
-0.165536
-0.137938
-0.112419
-0.0893015
-0.0687042
-0.0506007
-0.0349164
-0.0212345
-0.00869212
-0.444012
-0.42551
-0.410495
-0.395002
-0.376921
-0.35596
-0.332076
-0.305533
-0.276931
-0.24709
-0.216926
-0.187331
-0.159074
-0.132734
-0.108679
-0.087073
-0.0679223
-0.0511753
-0.0365324
-0.0230113
-0.467029
-0.447285
-0.431414
-0.415373
-0.397005
-0.376005
-0.352265
-0.325953
-0.297567
-0.267838
-0.237616
-0.207759
-0.179034
-0.152047
-0.127204
-0.104716
-0.0846296
-0.0669229
-0.0513345
-0.0369667
-0.487134
-0.466308
-0.449686
-0.433179
-0.414604
-0.393654
-0.370164
-0.344215
-0.316205
-0.286769
-0.256684
-0.226763
-0.197763
-0.170304
-0.144829
-0.121592
-0.100681
-0.0821035
-0.0656545
-0.0506442
-0.504374
-0.48263
-0.465365
-0.448472
-0.429767
-0.408944
-0.385797
-0.360325
-0.332833
-0.303857
-0.274093
-0.244301
-0.215215
-0.187461
-0.161512
-0.137663
-0.116044
-0.096693
-0.0794651
-0.0637742
-0.518823
-0.496326
-0.478527
-0.461329
-0.442562
-0.421936
-0.399208
-0.374313
-0.347461
-0.319095
-0.289823
-0.260342
-0.231353
-0.203481
-0.177218
-0.152897
-0.130689
-0.110666
-0.0927401
-0.0764109
-0.530575
-0.507492
-0.489268
-0.471844
-0.45308
-0.432709
-0.410466
-0.386226
-0.360119
-0.332493
-0.303866
-0.274868
-0.246153
-0.218335
-0.191918
-0.167267
-0.144593
-0.124
-0.105463
-0.0885799
-0.539745
-0.516242
-0.497704
-0.48013
-0.461429
-0.441363
-0.419656
-0.396135
-0.370856
-0.344079
-0.316234
-0.287873
-0.259599
-0.232002
-0.20559
-0.180752
-0.157737
-0.13668
-0.117619
-0.100264
-0.546467
-0.522707
-0.503963
-0.486316
-0.467734
-0.448016
-0.426883
-0.404126
-0.379739
-0.3539
-0.326952
-0.299366
-0.271687
-0.244469
-0.218216
-0.193335
-0.170105
-0.148692
-0.129192
-0.111447
-0.550887
-0.527029
-0.508186
-0.490539
-0.47213
-0.452795
-0.432264
-0.410302
-0.386852
-0.362018
-0.336061
-0.309369
-0.282422
-0.255733
-0.229789
-0.205003
-0.181685
-0.160025
-0.140173
-0.12212
-0.553165
-0.529361
-0.510524
-0.49295
-0.474764
-0.455842
-0.43593
-0.414781
-0.392295
-0.368513
-0.343617
-0.317917
-0.291824
-0.265799
-0.240303
-0.215751
-0.192469
-0.170673
-0.150556
-0.132281
-0.553469
-0.529865
-0.511134
-0.493704
-0.475787
-0.457305
-0.438023
-0.417692
-0.396179
-0.373475
-0.34969
-0.32506
-0.299922
-0.27468
-0.249764
-0.225575
-0.202452
-0.18063
-0.160338
-0.141927
-0.551972
-0.528704
-0.510176
-0.492958
-0.475357
-0.457337
-0.43869
-0.419171
-0.398628
-0.377009
-0.354365
-0.330857
-0.306754
-0.2824
-0.25818
-0.234478
-0.211635
-0.189895
-0.169518
-0.151064
-0.548853
-0.526047
-0.507813
-0.490872
-0.47363
-0.456093
-0.438081
-0.419362
-0.399774
-0.379232
-0.357735
-0.335383
-0.312374
-0.288991
-0.26557
-0.242468
-0.220018
-0.198471
-0.178098
-0.159699
-0.544287
-0.522058
-0.504204
-0.487603
-0.470762
-0.453727
-0.436348
-0.418411
-0.399752
-0.380264
-0.359905
-0.33872
-0.316843
-0.294494
-0.271959
-0.249557
-0.227609
-0.20636
-0.186083
-0.167848
-0.538451
-0.516901
-0.499505
-0.483303
-0.466905
-0.450389
-0.43364
-0.416464
-0.398703
-0.380235
-0.360989
-0.340962
-0.320232
-0.298961
-0.277378
-0.255764
-0.234416
-0.213569
-0.193478
-0.17553
-0.531514
-0.510735
-0.493868
-0.478122
-0.462204
-0.446226
-0.430103
-0.413665
-0.396765
-0.379276
-0.361104
-0.34221
-0.322623
-0.30245
-0.281867
-0.261111
-0.240453
-0.220106
-0.200294
-0.182772
-0.52364
-0.503709
-0.487436
-0.472196
-0.456796
-0.441375
-0.425875
-0.410153
-0.394076
-0.377517
-0.360372
-0.342571
-0.324104
-0.305028
-0.285473
-0.265629
-0.245735
-0.22598
-0.206538
-0.189607
-0.514985
-0.495967
-0.480343
-0.465658
-0.450811
-0.435963
-0.421085
-0.406058
-0.390765
-0.375088
-0.358913
-0.342153
-0.324767
-0.306771
-0.288249
-0.269349
-0.250279
-0.231202
-0.21222
-0.196072
-0.505693
-0.487642
-0.472716
-0.458626
-0.444365
-0.430109
-0.415853
-0.401502
-0.386958
-0.37211
-0.356846
-0.341068
-0.324711
-0.307759
-0.290256
-0.272312
-0.254108
-0.235781
-0.217346
-0.202208
-0.4959
-0.478855
-0.464668
-0.451211
-0.437566
-0.42392
-0.410287
-0.396597
-0.382766
-0.368699
-0.354287
-0.339426
-0.324035
-0.308074
-0.291557
-0.274561
-0.257242
-0.239723
-0.221918
-0.208048
-0.485727
-0.469719
-0.456302
-0.443512
-0.430509
-0.417489
-0.404484
-0.39144
-0.378295
-0.364962
-0.351342
-0.33733
-0.322837
-0.307804
-0.292222
-0.276143
-0.259706
-0.24303
-0.225926
-0.213604
-0.475284
-0.460332
-0.447712
-0.435614
-0.423277
-0.4109
-0.398526
-0.38612
-0.373633
-0.360993
-0.348109
-0.33488
-0.321213
-0.307037
-0.292325
-0.277109
-0.261525
-0.245698
-0.229349
-0.218848
-0.464667
-0.450783
-0.438979
-0.427595
-0.415945
-0.404223
-0.392485
-0.380709
-0.368859
-0.356876
-0.344676
-0.332167
-0.319252
-0.305856
-0.291938
-0.277516
-0.262724
-0.247712
-0.23214
-0.22366
-0.453963
-0.44115
-0.430173
-0.41952
-0.408572
-0.39752
-0.386422
-0.37527
-0.364039
-0.352679
-0.341119
-0.329269
-0.317038
-0.304345
-0.291138
-0.277424
-0.263333
-0.249054
-0.234235
-0.227766
-0.443243
-0.431499
-0.421357
-0.411447
-0.401213
-0.390838
-0.380385
-0.369852
-0.359225
-0.348462
-0.3375
-0.326258
-0.314646
-0.302579
-0.29
-0.276896
-0.26339
-0.249706
-0.235588
-0.230701
-0.432572
-0.421889
-0.412583
-0.403422
-0.393909
-0.384218
-0.374412
-0.364495
-0.354458
-0.344268
-0.33387
-0.323189
-0.312138
-0.30063
-0.288596
-0.276004
-0.262938
-0.249657
-0.236161
-0.231672
-0.422002
-0.412367
-0.403896
-0.395485
-0.386698
-0.377694
-0.368533
-0.359226
-0.349768
-0.340132
-0.330269
-0.320109
-0.309569
-0.29856
-0.286999
-0.274822
-0.262036
-0.248878
-0.235342
-0.22723
-0.411579
-0.402978
-0.395333
-0.387671
-0.379608
-0.371289
-0.362773
-0.354069
-0.345179
-0.336078
-0.326724
-0.317052
-0.306982
-0.296422
-0.285277
-0.273445
-0.260817
-0.24754
-0.232441
-0.205327
-0.401342
-0.393757
-0.386929
-0.380009
-0.372665
-0.365026
-0.357146
-0.349039
-0.340703
-0.332122
-0.323254
-0.314042
-0.304408
-0.29426
-0.283496
-0.271989
-0.25953
-0.246283
-0.231851
-0.198293
-0.391326
-0.384736
-0.378713
-0.372524
-0.365889
-0.358921
-0.351669
-0.344145
-0.336352
-0.328272
-0.319871
-0.311095
-0.30187
-0.292107
-0.281705
-0.270531
-0.25834
-0.245372
-0.23234
-0.198954
-0.381562
-0.375947
-0.370711
-0.36524
-0.359299
-0.352988
-0.34635
-0.339396
-0.33213
-0.324535
-0.316581
-0.308218
-0.299379
-0.28998
-0.279924
-0.269088
-0.257229
-0.244641
-0.232545
-0.200285
-0.37208
-0.367417
-0.36295
-0.358177
-0.352914
-0.347243
-0.3412
-0.334799
-0.328041
-0.320913
-0.313387
-0.305417
-0.296943
-0.287888
-0.278163
-0.267658
-0.256146
-0.243961
-0.232386
-0.201608
-0.362911
-0.359176
-0.355454
-0.351359
-0.346751
-0.341697
-0.33623
-0.330361
-0.324091
-0.317409
-0.310289
-0.302693
-0.294564
-0.285835
-0.276425
-0.266239
-0.255074
-0.243305
-0.232082
-0.203134
-0.354086
-0.351251
-0.34825
-0.344807
-0.340829
-0.336368
-0.331451
-0.326089
-0.320284
-0.314026
-0.307292
-0.300047
-0.292245
-0.283823
-0.274715
-0.264837
-0.254016
-0.242666
-0.231717
-0.204833
-0.34564
-0.343673
-0.341365
-0.338546
-0.335168
-0.331271
-0.326876
-0.321995
-0.316629
-0.31077
-0.304399
-0.297485
-0.289988
-0.281857
-0.273036
-0.263455
-0.252974
-0.242034
-0.231319
-0.206609
-0.337609
-0.336475
-0.334828
-0.332602
-0.329792
-0.326426
-0.322522
-0.318092
-0.313137
-0.307652
-0.301618
-0.295013
-0.287802
-0.279944
-0.271395
-0.262101
-0.251954
-0.241406
-0.230912
-0.208395
-0.33003
-0.329692
-0.32867
-0.327001
-0.324724
-0.321854
-0.318408
-0.314397
-0.309823
-0.304682
-0.298962
-0.292642
-0.285697
-0.278093
-0.269801
-0.260781
-0.25096
-0.240785
-0.230516
-0.210144
-0.322947
-0.323359
-0.322923
-0.321774
-0.31999
-0.317579
-0.314554
-0.310928
-0.306704
-0.301879
-0.296445
-0.290387
-0.283685
-0.276318
-0.268267
-0.259509
-0.250002
-0.240177
-0.230146
-0.211815
-0.316401
-0.317513
-0.317621
-0.31695
-0.315619
-0.313627
-0.310985
-0.307708
-0.3038
-0.299261
-0.294086
-0.288265
-0.281785
-0.274635
-0.266809