/*--------------------------------*- C++ -*----------------------------------*\
  =========                 |
  \\      /  F ield         | OpenFOAM: The Open Source CFD Toolbox
   \\    /   O peration     | Website:  https://openfoam.org
    \\  /    A nd           | Version:  7
     \\/     M anipulation  |
\*---------------------------------------------------------------------------*/
FoamFile
{
    version     2.0;
    format      ascii;
    class       volScalarField;
    location    "22";
    object      p;
}
// * * * * * * * * * * * * * * * * * * * * * * * * * * * * * * * * * * * * * //

dimensions      [0 2 -2 0 0 0 0];

internalField   nonuniform List<scalar> 
433
(
-0.0964549
-0.0874998
-0.0790389
-0.0710774
-0.0636137
-0.0566453
-0.0501594
-0.0441528
-0.0385949
-0.0334998
-0.0287931
-0.0245564
-0.0205896
-0.017186
-0.0137816
-0.0112815
-0.0081035
-0.00683538
-0.00314941
-0.0040906
0.00182875
-0.00387466
0.00843578
-0.0965221
-0.0875609
-0.0790943
-0.0711273
-0.0636585
-0.0566854
-0.0501951
-0.0441844
-0.0386229
-0.0335244
-0.0288148
-0.0245753
-0.0206061
-0.0172002
-0.0137942
-0.0112917
-0.00811329
-0.00684198
-0.00315795
-0.00409305
0.00181886
-0.00387066
0.00841777
-0.0966562
-0.0876829
-0.0792048
-0.071227
-0.0637481
-0.0567654
-0.0502664
-0.0442477
-0.0386788
-0.0335736
-0.028858
-0.0246129
-0.0206391
-0.0172284
-0.0138192
-0.0113121
-0.00813285
-0.00685517
-0.00317499
-0.00409795
0.0017991
-0.00386268
0.00838183
-0.0968568
-0.0878655
-0.0793702
-0.0713762
-0.063882
-0.0568853
-0.0503731
-0.0443424
-0.0387625
-0.0336472
-0.0289226
-0.0246692
-0.0206885
-0.0172706
-0.0138568
-0.0113426
-0.00816212
-0.00687491
-0.0032005
-0.0041053
0.00176956
-0.00385077
0.00832814
-0.097123
-0.0881078
-0.0795899
-0.0715744
-0.0640601
-0.0570445
-0.050515
-0.0444682
-0.0388738
-0.0337451
-0.0290086
-0.0247441
-0.0207541
-0.0173268
-0.0139067
-0.0113832
-0.00820102
-0.00690116
-0.00323438
-0.00411512
0.00173035
-0.00383501
0.00825696
-0.0974539
-0.0884093
-0.0798632
-0.0718211
-0.0642817
-0.0572428
-0.0506917
-0.044625
-0.0390123
-0.033867
-0.0291157
-0.0248374
-0.0208359
-0.0173967
-0.0139688
-0.0114337
-0.00824944
-0.00693387
-0.00327654
-0.00412739
0.0016816
-0.00381547
0.00816862
-0.0978483
-0.0887688
-0.0801893
-0.0721155
-0.0645464
-0.0574796
-0.0509026
-0.0448122
-0.0391778
-0.0340126
-0.0292435
-0.0249488
-0.0209334
-0.0174802
-0.014043
-0.011494
-0.00830726
-0.00697295
-0.00332685
-0.00414213
0.0016235
-0.00379228
0.00806354
-0.0983047
-0.0891851
-0.0805672
-0.0724568
-0.0648532
-0.0577543
-0.0511474
-0.0450293
-0.0393698
-0.0341815
-0.0293919
-0.025078
-0.0210467
-0.0175771
-0.0141291
-0.0115639
-0.0083743
-0.00701833
-0.00338515
-0.00415935
0.00155625
-0.00376556
0.0079422
-0.0988215
-0.0896569
-0.0809957
-0.0728441
-0.0652015
-0.0580661
-0.0514253
-0.045276
-0.0395878
-0.0343733
-0.0295603
-0.0252247
-0.0211752
-0.017687
-0.0142268
-0.0116434
-0.00845039
-0.0070699
-0.00345128
-0.00417905
0.0014801
-0.00373545
0.00780516
-0.0993969
-0.0901827
-0.0814735
-0.0732761
-0.0655903
-0.0584142
-0.0517357
-0.0455514
-0.0398313
-0.0345875
-0.0297484
-0.0253885
-0.0213187
-0.0178098
-0.0143359
-0.011732
-0.00853532
-0.00712754
-0.00352504
-0.00420125
0.00139532
-0.00370213
0.00765303
-0.0907607
-0.0819992
-0.0737517
-0.0660184
-0.0587977
-0.0520776
-0.0458548
-0.0400996
-0.0348236
-0.0299557
-0.0255689
-0.0214768
-0.017945
-0.014456
-0.0118297
-0.00862885
-0.00719113
-0.00360621
-0.00422594
0.0013022
-0.00366576
0.00748647
-0.0913891
-0.0825712
-0.0742695
-0.0664846
-0.0592155
-0.0524502
-0.0461856
-0.0403921
-0.0350808
-0.0301815
-0.0257656
-0.0216491
-0.0180923
-0.0145869
-0.0119362
-0.00873073
-0.00726051
-0.00369455
-0.00425313
0.00120105
-0.00362653
0.00730618
-0.092066
-0.0831879
-0.0748281
-0.0669879
-0.0596666
-0.0528526
-0.0465428
-0.0407079
-0.0353586
-0.0304255
-0.0259779
-0.0218351
-0.0182513
-0.0147282
-0.0120511
-0.00884069
-0.00733556
-0.00378981
-0.00428284
0.00109223
-0.00358464
0.00711291
-0.09279
-0.083848
-0.0754265
-0.0675273
-0.0601501
-0.053284
-0.0469258
-0.0410465
-0.0356564
-0.0306869
-0.0262054
-0.0220344
-0.0184217
-0.0148796
-0.0121743
-0.00895846
-0.0074161
-0.00389173
-0.00431508
0.000976074
-0.00354029
0.00690742
-0.0935583
-0.0845492
-0.0760624
-0.0681007
-0.0606644
-0.0537429
-0.0473332
-0.0414067
-0.0359732
-0.030965
-0.0264474
-0.0222463
-0.0186028
-0.0150405
-0.0123053
-0.00908364
-0.00750187
-0.00400002
-0.00434975
0.000852933
-0.00349358
0.00669046
-0.0943638
-0.085285
-0.0767303
-0.0687033
-0.0612051
-0.0542255
-0.0477617
-0.0417857
-0.0363064
-0.0312575
-0.0267019
-0.0224693
-0.0187934
-0.0152099
-0.0124432
-0.0092156
-0.0075924
-0.00411424
-0.00438671
0.000723201
-0.00344463
0.00646282
-0.0952035
-0.0860528
-0.0774278
-0.0693331
-0.0617704
-0.0547303
-0.04821
-0.0421822
-0.0366552
-0.0315638
-0.0269685
-0.0227029
-0.0189932
-0.0153876
-0.012588
-0.00935405
-0.00768788
-0.00423399
-0.00442647
0.000587692
-0.00339444
0.0062256
-0.0961183
-0.0868897
-0.078188
-0.0700193
-0.062386
-0.0552796
-0.0486975
-0.0426129
-0.0370336
-0.0318956
-0.0272569
-0.0229551
-0.0192087
-0.0155784
-0.0127441
-0.00950165
-0.00779131
-0.00435995
-0.00447149
0.000447528
-0.00334556
0.00598028
-0.0492536
-0.0431031
-0.037463
-0.0322707
-0.0275818
-0.0232377
-0.0194492
-0.0157897
-0.0129163
-0.00966248
-0.00790442
-0.00449455
-0.00452105
0.000300432
-0.00329484
0.00572569
-0.0205896
-0.017186
-0.0137816
-0.0112815
-0.0081035
-0.00683538
-0.00314941
-0.0040906
0.00182875
-0.00387466
0.00843578
)
;

boundaryField
{
    inlet
    {
        type            zeroGradient;
    }
    outlet
    {
        type            fixedValue;
        value           uniform 0;
    }
    cylinder
    {
        type            zeroGradient;
    }
    top
    {
        type            symmetryPlane;
    }
    bottom
    {
        type            symmetryPlane;
    }
    defaultFaces
    {
        type            empty;
    }
    procBoundary23to17
    {
        type            processor;
        value           nonuniform List<scalar> 
24
(
-0.0964549
-0.0874998
-0.0790389
-0.0710774
-0.0636137
-0.0566453
-0.0501594
-0.0441528
-0.0385949
-0.0334998
-0.0287931
-0.0245564
-0.0206061
-0.0172002
-0.0137942
-0.0112917
-0.00811329
-0.00684199
-0.00315795
-0.00409305
0.00181886
-0.00387065
0.00841777
-0.0245564
)
;
    }
    procBoundary23to22
    {
        type            processor;
        value           nonuniform List<scalar> 
16
(
-0.105894
-0.105968
-0.106115
-0.106334
-0.106625
-0.106986
-0.107417
-0.107915
-0.108478
-0.109104
-0.100029
-0.100029
-0.100715
-0.101454
-0.102243
-0.103079
)
;
    }
    procBoundary23to28
    {
        type            processor;
        value           nonuniform List<scalar> 3(-0.103955 -0.104867 -0.105859);
    }
    procBoundary23to29
    {
        type            processor;
        value           nonuniform List<scalar> 
23
(
-0.0971646
-0.0878476
-0.0790586
-0.070805
-0.0630904
-0.0559073
-0.0559073
-0.0497381
-0.0435332
-0.0378417
-0.0326041
-0.0278709
-0.0234922
-0.0196642
-0.0159837
-0.0130691
-0.00981603
-0.00799996
-0.00463312
-0.00455027
0.000134816
-0.00321382
0.00545186
)
;
    }
}


// ************************************************************************* //
