/*--------------------------------*- C++ -*----------------------------------*\
  =========                 |
  \\      /  F ield         | OpenFOAM: The Open Source CFD Toolbox
   \\    /   O peration     | Website:  https://openfoam.org
    \\  /    A nd           | Version:  7
     \\/     M anipulation  |
\*---------------------------------------------------------------------------*/
FoamFile
{
    version     2.0;
    format      ascii;
    class       volVectorField;
    location    "24";
    object      U;
}
// * * * * * * * * * * * * * * * * * * * * * * * * * * * * * * * * * * * * * //

dimensions      [0 1 -1 0 0 0 0];

internalField   nonuniform List<vector> 
433
(
(0.503698 -0.238474 -1.18951e-18)
(1.12906 2.77305 4.33617e-18)
(1.44149 7.48727 -1.17817e-18)
(1.5395 9.84512 -2.28922e-19)
(1.57884 8.98282 -1.71928e-18)
(1.77381 6.18346 1.24393e-18)
(1.9325 2.71035 -2.94768e-18)
(1.90283 -0.447948 2.92831e-18)
(1.65581 -2.63273 -7.23614e-19)
(1.26652 -3.57673 -1.47902e-18)
(0.852662 -3.43074 1.66188e-18)
(0.498126 -2.6194 -3.84272e-19)
(0.238146 -1.60642 -1.18725e-18)
(0.0747181 -0.725353 5.8093e-19)
(-0.0077853 -0.128073 1.507e-19)
(-0.0319378 0.182562 -2.91741e-19)
(-0.0230668 0.283578 6.01755e-19)
(-0.00383511 0.267869 -1.93246e-19)
(0.0119575 0.20775 -1.57265e-19)
(0.0200574 0.144412 7.90715e-20)
(0.0211841 0.0942248 1.62242e-20)
(0.0177064 0.0597532 -3.42264e-20)
(0.0114676 0.0381425 -7.30491e-21)
(0.00385206 0.0256158 9.15722e-21)
(-0.00350177 0.0188753 -4.8974e-21)
(-0.332672 -0.816254 -9.56351e-19)
(-0.881024 1.10144 3.94632e-18)
(-1.31405 4.84793 7.56154e-20)
(-0.987178 6.5257 -5.87107e-18)
(0.000163098 5.69033 1.34132e-18)
(1.08786 4.01362 1.29718e-18)
(1.93049 2.42232 -2.64974e-18)
(2.34134 1.17986 1.7879e-18)
(2.30459 0.333567 2.99538e-19)
(1.92659 -0.0829664 -5.856e-19)
(1.37154 -0.110803 -6.6927e-20)
(0.806955 0.103871 9.08919e-19)
(0.348642 0.37946 3.06114e-20)
(0.0433588 0.581218 -5.10368e-19)
(-0.11775 0.65632 -1.87799e-20)
(-0.174259 0.620196 -3.28922e-20)
(-0.172014 0.51898 2.28937e-19)
(-0.144246 0.397982 -3.97281e-21)
(-0.110331 0.28696 3.36388e-20)
(-0.0808328 0.198755 3.64633e-20)
(-0.0590283 0.134619 1.52998e-20)
(-0.0439955 0.0907043 -1.60129e-20)
(-0.0339597 0.0617956 -7.59532e-21)
(-0.0277305 0.0435207 5.53503e-21)
(-0.02449 0.0324745 -9.6062e-21)
(-0.860167 1.95771 8.27557e-18)
(-1.89647 3.46328 3.87411e-18)
(-2.51315 2.76147 -1.45429e-17)
(-2.52037 1.04334 7.39625e-18)
(-2.08562 -0.704113 -8.19995e-18)
(-1.74513 -2.08465 2.10467e-17)
(-1.49111 -2.72815 -5.21618e-18)
(-1.24252 -2.59265 -2.50363e-19)
(-0.961622 -1.95641 -4.4182e-19)
(-0.673975 -1.1948 7.05659e-18)
(-0.434218 -0.566546 -1.04058e-17)
(-0.273354 -0.163099 1.06835e-19)
(-0.184671 0.035 -4.56058e-19)
(-0.142123 0.0918879 3.86869e-18)
(-0.123642 0.0745244 -2.04586e-18)
(-0.115868 0.0325848 -5.19029e-19)
(-0.11051 -0.00629083 1.1787e-18)
(-0.10342 -0.0312629 -5.24645e-19)
(-0.0935156 -0.0415456 5.33355e-19)
(-0.0817507 -0.0407186 -1.689e-19)
(-0.0694488 -0.0332375 -1.47658e-19)
(-0.0574891 -0.0228234 -6.4768e-20)
(-0.0468842 -0.0121099 1.30125e-19)
(-0.0382969 -0.00257185 -4.90485e-21)
(-0.032107 0.00530407 1.57921e-20)
(-0.255259 2.93681 5.62407e-19)
(-0.203402 3.98069 2.54822e-18)
(0.170956 1.50645 -2.69399e-18)
(0.186369 -1.10534 3.08889e-18)
(-0.210946 -2.81444 -1.57446e-18)
(-0.719078 -4.42865 -3.97588e-19)
(-1.12284 -6.04141 5.07956e-20)
(-1.29033 -7.26439 1.51964e-18)
(-1.19741 -7.61674 -2.76081e-19)
(-0.912261 -6.95086 -2.63206e-18)
(-0.544028 -5.57858 2.42858e-18)
(-0.191416 -4.01764 -4.76996e-18)
(0.0766212 -2.666 2.89755e-18)
(0.232311 -1.67951 2.77152e-19)
(0.28804 -1.03887 -1.17868e-18)
(0.276099 -0.655597 6.06061e-19)
(0.230007 -0.436339 3.00274e-19)
(0.176283 -0.308727 2.33651e-19)
(0.128825 -0.226915 -2.70479e-19)
(0.0911175 -0.167289 4.59601e-20)
(0.0623983 -0.119628 1.75423e-20)
(0.0408804 -0.0803879 6.92893e-21)
(0.0246358 -0.0487215 1.41196e-20)
(0.0121993 -0.0241684 -4.49798e-20)
(0.00247894 -0.00589111 5.43537e-20)
(-0.00534789 0.00726782 -7.09421e-20)
(0.550121 1.1287 5.11534e-18)
(1.09657 3.50937 2.15028e-17)
(1.13237 5.83631 2.35246e-17)
(0.647321 7.00067 -2.68568e-17)
(0.0203899 6.44743 -6.78533e-18)
(-0.213847 4.35226 2.2153e-17)
(-0.137274 1.3559 -4.68944e-18)
(0.0777182 -1.72126 -1.78221e-18)
(0.283054 -4.08397 -2.51923e-18)
(0.409266 -5.2228 -1.55741e-18)
(0.462263 -5.11485 -6.54277e-18)
(0.465861 -4.16112 1.1823e-17)
(0.435186 -2.89584 6.10383e-18)
(0.381565 -1.73324 -6.62595e-18)
(0.319556 -0.876977 3.80173e-18)
(0.264539 -0.353192 -5.83411e-18)
(0.22262 -0.0880968 1.32201e-18)
(0.190353 0.0179609 5.36036e-19)
(0.161473 0.0453492 -3.58748e-19)
(0.132601 0.0434809 4.41212e-19)
(0.104634 0.0362262 -5.03667e-19)
(0.0787755 0.0315304 5.90621e-20)
(0.0554453 0.030138 -1.10014e-19)
(0.0353424 0.0308431 3.46152e-19)
(0.0188004 0.032412 -3.28633e-20)
(0.00554547 0.0341166 -7.62135e-20)
(0.337553 -0.821675 7.34448e-18)
(-0.0523207 1.93264 -8.33676e-18)
(-1.00545 6.94705 2.69729e-18)
(-1.31176 9.36164 8.18386e-18)
(-0.693636 8.32574 -1.00428e-17)
(0.425059 5.66593 -2.94643e-19)
(1.50021 2.78822 3.81887e-18)
(2.19195 0.415129 5.5629e-18)
(2.39804 -1.17916 -4.83088e-18)
(2.18195 -1.92165 3.12186e-18)
(1.69686 -1.91063 4.28011e-18)
(1.1252 -1.40718 -6.58735e-18)
(0.609959 -0.729549 1.34023e-19)
(0.231138 -0.12845 -1.63291e-18)
(0.0067909 0.271226 4.48239e-18)
(-0.0896463 0.459351 -2.71126e-18)
(-0.104434 0.489934 1.57162e-18)
(-0.0824935 0.433142 1.85117e-19)
(-0.0533455 0.345621 1.34019e-19)
(-0.0295828 0.261157 1.49429e-19)
(-0.0147073 0.19333 -8.66363e-19)
(-0.00780947 0.143677 4.86311e-19)
(-0.00639004 0.109192 3.27451e-19)
(-0.00808735 0.085914 -3.46296e-19)
(-0.0112507 0.0704477 3.12234e-19)
(-0.0149877 0.0602797 -3.60539e-19)
(-0.691206 0.146878 1.44852e-17)
(-2.03999 1.98185 -5.73549e-17)
(-3.28461 4.39541 4.72452e-17)
(-3.44356 5.25519 -1.74631e-19)
(-2.53115 4.33042 -1.29135e-18)
(-1.40516 2.70819 -3.43091e-17)
(-0.414238 1.25253 6.8556e-18)
(0.289421 0.302153 5.26043e-18)
(0.668686 -0.170777 -5.00075e-19)
(0.751829 -0.293684 6.00332e-18)
(0.609289 -0.189602 -9.88064e-18)
(0.346991 0.0228825 1.73098e-17)
(0.0751709 0.236632 -1.29518e-17)
(-0.129951 0.382205 -1.84921e-18)
(-0.243996 0.437589 1.28075e-18)
(-0.280158 0.418707 2.68494e-18)
(-0.267996 0.356832 -1.40114e-18)
(-0.233347 0.281838 -5.06135e-19)
(-0.192619 0.213175 1.84431e-18)
(-0.154382 0.158824 -2.25013e-19)
(-0.122063 0.119464 1.90508e-19)
(-0.0962052 0.0926025 -7.89505e-20)
(-0.0762326 0.0749848 1.42796e-19)
(-0.0612335 0.063707 -3.54718e-19)
(-0.0502729 0.0566298 1.71287e-19)
(-0.042661 0.0522634 1.45268e-19)
(-0.0377316 0.0496687 -1.47179e-19)
(-1.35646 2.95455 4.09046e-18)
(-2.48122 4.65111 -1.32374e-17)
(-2.37913 2.85452 2.18318e-17)
(-1.78838 0.256782 1.34399e-17)
(-1.11792 -1.86887 -1.31503e-17)
(-0.644375 -3.8291 -4.36962e-18)
(-0.348455 -5.39815 -2.38849e-17)
(-0.190686 -6.18483 6.25478e-18)
(-0.116945 -5.99072 2.15189e-17)
(-0.0712472 -5.00282 1.9112e-17)
(-0.0250346 -3.67028 -2.03182e-17)
(0.0196494 -2.4175 5.9071e-18)
(0.0506638 -1.46752 7.23035e-18)
(0.0590009 -0.848974 -1.68542e-18)
(0.0444987 -0.490452 -1.41893e-17)
(0.0155763 -0.300675 5.24916e-18)
(-0.0149103 -0.204211 -8.21051e-19)
(-0.038219 -0.151772 1.81868e-18)
(-0.0522881 -0.116824 -8.21452e-19)
(-0.0582537 -0.0876272 1.1481e-18)
(-0.0583904 -0.060583 -3.65212e-19)
(-0.0550893 -0.0357382 9.53962e-20)
(-0.0503065 -0.014105 5.40199e-20)
(-0.0453524 0.00365522 -2.9193e-19)
(-0.0408665 0.0174784 4.14225e-19)
(-0.03719 0.0277052 -4.27251e-20)
(-0.0345705 0.0349623 -1.76935e-19)
(-0.301289 2.46488 2.19873e-17)
(-0.0325427 3.87952 3.08135e-18)
(0.752024 2.89073 -4.98491e-19)
(0.978108 1.65981 1.41656e-17)
(0.658609 0.583624 -2.77497e-17)
(0.441594 -0.98418 -1.9677e-17)
(0.478174 -3.03823 2.18324e-17)
(0.722029 -5.10477 9.27406e-18)
(1.02599 -6.54666 -1.08021e-17)
(1.23471 -6.9194 -9.44661e-19)
(1.2761 -6.22592 -7.53627e-18)
(1.16854 -4.86547 1.13395e-17)
(0.972835 -3.3577 -5.0246e-18)
(0.751397 -2.07764 -1.17867e-18)
(0.549666 -1.17222 4.11405e-18)
(0.39048 -0.618642 -4.14245e-18)
(0.275015 -0.320453 7.57999e-19)
(0.193208 -0.175418 1.55293e-18)
(0.135399 -0.106808 -3.86507e-19)
(0.0940315 -0.07017 -6.28185e-19)
(0.0635409 -0.0450106 -2.7726e-20)
(0.0401948 -0.0240466 3.24048e-19)
(0.021932 -0.00587978 -3.99773e-19)
(0.00765153 0.00933071 3.26968e-19)
(-0.00338064 0.0214205 2.48682e-19)
(-0.0116429 0.0305432 -3.59246e-19)
(-0.0175347 0.0371368 6.14851e-19)
(-0.0216072 0.0417165 2.87942e-19)
(0.508803 0.44114 -7.68406e-18)
(0.231809 3.46025 4.88701e-17)
(-0.825567 7.4205 -5.69425e-17)
(-1.60119 9.37982 7.11689e-17)
(-1.60057 8.66226 -5.58808e-17)
(-0.776444 6.21598 2.76064e-17)
(0.397717 2.99884 -2.49751e-17)
(1.47044 -0.127973 -2.04122e-17)
(2.13404 -2.48325 3.8261e-17)
(2.27906 -3.68084 -6.61251e-19)
(1.99988 -3.73999 -2.89467e-17)
(1.49464 -3.02327 3.07451e-17)
(0.956307 -2.00658 -1.30799e-17)
(0.513555 -1.06391 -2.60458e-19)
(0.21945 -0.382158 -1.42339e-18)
(0.0639851 0.0113779 5.82801e-18)
(0.00639626 0.181317 2.25423e-18)
(0.00196254 0.218007 -4.27206e-18)
(0.0147401 0.194582 9.09922e-19)
(0.0250536 0.154854 -1.27503e-18)
(0.0278853 0.119089 -2.97797e-19)
(0.0243273 0.0930615 1.16507e-19)
(0.0167877 0.0759674 -7.36705e-20)
(0.0079263 0.0653927 1.0503e-20)
(-0.000569644 0.059112 -4.65195e-19)
(-0.0079099 0.0554488 -1.03184e-19)
(-0.0137771 0.0533355 1.42261e-18)
(-0.0180739 0.0521456 -1.54507e-18)
(-0.0209655 0.051448 4.0715e-19)
(0.235463 -1.01135 -7.24359e-18)
(-0.822098 0.93775 -1.02477e-17)
(-2.62787 4.98627 2.95219e-17)
(-3.04801 7.03064 -2.01715e-17)
(-1.88598 6.44244 3.4274e-18)
(-0.200597 4.80364 6.53779e-18)
(1.26699 3.08237 2.42937e-18)
(2.17514 1.61702 -4.82908e-18)
(2.47354 0.514933 -2.48429e-18)
(2.25475 -0.137768 -7.08749e-19)
(1.69763 -0.337193 -3.31564e-18)
(1.02418 -0.204825 1.16563e-18)
(0.420965 0.0724707 4.65156e-18)
(-0.00781171 0.334402 -4.32189e-18)
(-0.242371 0.494677 2.32527e-18)
(-0.321142 0.539844 6.03865e-19)
(-0.304609 0.500171 2.20299e-20)
(-0.246712 0.417886 -6.4158e-19)
(-0.181941 0.3271 1.62501e-18)
(-0.127468 0.247267 1.28055e-20)
(-0.088009 0.185271 -5.41044e-19)
(-0.0618519 0.140532 -8.97125e-19)
(-0.04555 0.109675 7.23767e-19)
(-0.035781 0.0889361 -1.2986e-20)
(-0.0301755 0.0752239 7.75104e-19)
(-0.0271409 0.0662777 -1.1674e-18)
(-0.0254468 0.0605725 -1.02785e-19)
(-0.0243931 0.0569533 1.43382e-19)
(-0.0235604 0.0545938 1.36644e-19)
(-1.24249 0.938333 3.1423e-17)
(-2.8496 2.09382 -3.69111e-18)
(-3.724 2.27867 -5.05272e-17)
(-3.50571 1.6291 2.24173e-17)
(-2.52404 0.610329 -4.43354e-17)
(-1.59479 -0.385224 5.5634e-17)
(-0.927994 -0.945486 -3.81744e-17)
(-0.506422 -1.01169 2.76204e-18)
(-0.248736 -0.781104 4.34217e-17)
(-0.105672 -0.471237 -3.30757e-17)
(-0.0647869 -0.201661 -3.98641e-19)
(-0.101327 -0.00926797 6.29087e-18)
(-0.168696 0.104473 3.69994e-18)
(-0.223617 0.151912 1.26425e-17)
(-0.246843 0.15204 -5.50553e-18)
(-0.241399 0.126422 -5.93552e-18)
(-0.21894 0.0928126 9.00473e-18)
(-0.189192 0.0634185 -1.3936e-18)
(-0.158353 0.0434354 -1.56479e-18)
(-0.129883 0.0330158 -1.07078e-19)
(-0.105398 0.0298647 6.6214e-19)
(-0.0851584 0.0312354 -1.7841e-19)
(-0.0688743 0.0347758 6.39584e-20)
(-0.0559319 0.0389279 -5.65155e-20)
(-0.0457047 0.0427392 4.39975e-19)
(-0.0379019 0.0458277 -1.12386e-18)
(-0.0321361 0.0480345 8.51348e-19)
(-0.0278171 0.0493963 -3.60486e-19)
(-0.0243828 0.0500546 3.32824e-19)
(-0.0213785 0.0501459 -6.47677e-19)
(-1.59006 2.80074 3.5361e-18)
(-2.28005 3.87165 -3.48273e-18)
(-1.13615 1.4671 1.49154e-17)
(0.0288187 -1.2968 -1.00328e-17)
(0.615284 -3.22441 -1.34246e-18)
(0.937894 -4.93884 -9.55794e-18)
(1.19685 -6.44901 7.98683e-18)
(1.41007 -7.40547 8.96913e-18)
(1.49571 -7.4542 -9.46895e-18)
(1.41336 -6.57049 7.66618e-18)
(1.21125 -5.11471 5.51072e-18)
(0.97781 -3.57869 -4.50062e-18)
(0.771175 -2.30481 -3.48742e-18)
(0.600627 -1.40624 -1.7644e-18)
(0.457388 -0.841402 4.07279e-19)
(0.335437 -0.514798 -6.87177e-19)
(0.235606 -0.333457 -5.12865e-19)
(0.158714 -0.230031 7.33613e-20)
(0.102157 -0.164213 -2.76412e-19)
(0.0615826 -0.115644 -9.86239e-20)
(0.0328805 -0.075955 4.65635e-19)
(0.0129219 -0.0428112 -2.16632e-19)
(-0.000655964 -0.0158281 5.43359e-19)
(-0.00963554 0.00517364 9.83575e-20)
(-0.0151154 0.0207406 -4.7777e-19)
(-0.0178704 0.0316866 -1.18211e-19)
(-0.0188134 0.038955 9.27606e-20)
(-0.0817667 1.59172 -3.77985e-17)
(-0.0629037 3.48686 1.0709e-16)
(-0.0897029 4.52232 -1.87594e-17)
(-0.572182 4.82442 6.53227e-18)
(-1.10298 4.18846 -7.40035e-17)
(-0.98352 2.542 6.16566e-17)
(-0.276636 0.18697 -2.27203e-17)
(0.708015 -2.30304 -1.27232e-18)
(1.6022 -4.27933 3.38699e-17)
(2.13315 -5.25723 -4.27406e-17)
(2.22682 -5.13936 1.28142e-17)
(1.9769 -4.22704 1.33549e-18)
(1.54933 -2.9965 7.46959e-18)
(1.09666 -1.84782 4.18731e-18)
(0.717489 -0.987501 -9.10388e-18)
(0.449867 -0.446376 -1.70982e-18)
(0.283934 -0.15687 8.12443e-18)
(0.187703 -0.0267939 -4.91743e-18)
(0.131407 0.0205337 -1.17591e-19)
(0.0953701 0.0335025 1.61823e-18)
(0.0685709 0.0359512 -4.18324e-18)
(0.0464968 0.0369558 2.19802e-18)
(0.0282977 0.0387889 -1.1184e-18)
(0.645156 -0.363571 1.49921e-17)
(-0.546165 2.307 -1.2539e-17)
(-3.0912 6.69626 1.75627e-18)
(-4.42275 8.90989 -3.74936e-18)
(-3.8556 8.2138 4.21617e-17)
(-2.08727 6.00843 -2.94252e-17)
(-0.0422011 3.39196 -1.81827e-17)
(1.62862 1.04089 3.40305e-17)
(2.61338 -0.695468 -6.63618e-18)
(2.85907 -1.65877 8.94099e-18)
(2.51349 -1.87259 9.24492e-18)
(1.83814 -1.5443 -2.5347e-17)
(1.09788 -0.969679 2.50226e-17)
(0.481379 -0.404161 -6.4763e-18)
(0.0722102 0.00866627 4.66297e-18)
(-0.13538 0.236594 -9.32403e-18)
(-0.197619 0.316657 -5.50747e-18)
(-0.181036 0.30754 4.15343e-18)
(-0.137177 0.259212 -4.25392e-19)
(-0.239118 -0.552684 -3.15844e-17)
(-2.01234 0.813455 1.3177e-17)
(-4.38509 3.43769 -2.34833e-17)
(-5.05267 4.71815 4.1067e-17)
(-3.7903 4.23022 -1.7609e-17)
(-1.93819 3.013 -1.49653e-17)
(-0.30388 1.87076 1.0619e-19)
(0.778707 1.06764 -2.18892e-17)
(1.29058 0.560897 1.75922e-17)
(1.32964 0.278016 -1.65296e-17)
(1.03528 0.176582 4.03696e-18)
(0.580744 0.205037 7.57695e-18)
(0.132441 0.292396 -5.19307e-18)
(-0.199691 0.371955 6.35596e-18)
(-0.380276 0.404518 -8.64957e-18)
(-2.11988 1.83048 1.30689e-17)
(-3.9563 2.96291 6.62778e-18)
(-3.83581 1.87347 -4.92915e-17)
(-2.74489 0.168925 4.77382e-17)
(-1.38707 -1.31027 -2.175e-17)
(-0.232099 -2.7615 -2.66747e-17)
(0.546835 -3.86377 8.61467e-17)
(0.891632 -4.29712 -3.13483e-17)
(0.888828 -4.00555 -2.9716e-17)
(0.709885 -3.22334 -2.55614e-19)
(0.495487 -2.29289 1.8025e-17)
(0.311344 -1.47164 -7.44396e-18)
(-1.52417 2.37353 1.28014e-17)
(-1.86974 3.51201 -2.89338e-17)
(-0.343846 2.0957 -8.09136e-18)
(0.803144 0.402767 1.50328e-17)
(1.15645 -0.903877 1.27721e-17)
(1.50103 -2.37671 -4.76132e-18)
(2.07737 -4.0608 -2.11983e-17)
(2.78651 -5.60685 8.27949e-18)
(0.107708 0.974399 2.06586e-17)
(-0.86708 3.49228 1.83634e-17)
(-2.56786 6.1229 8.48555e-18)
(0.692694 1.93031 1.43164e-18)
(1.60208 3.38458 -5.15155e-18)
(2.05326 3.27317 1.43423e-18)
)
;

boundaryField
{
    inlet
    {
        type            uniformFixedValue;
        uniformValue    constant (1 0 0);
        value           nonuniform 0();
    }
    outlet
    {
        type            pressureInletOutletVelocity;
        value           nonuniform 0();
    }
    cylinder
    {
        type            fixedValue;
        value           uniform (0 0 0);
    }
    top
    {
        type            symmetryPlane;
    }
    bottom
    {
        type            symmetryPlane;
    }
    defaultFaces
    {
        type            empty;
    }
    procBoundary21to15
    {
        type            processor;
        value           nonuniform List<vector> 
26
(
(1.78625 2.91007 -3.94034e-18)
(0.991491 2.25097 1.92265e-18)
(0.168558 0.684544 -1.21651e-18)
(-0.547811 -1.61296 2.62991e-18)
(-1.06332 -4.00336 -2.45037e-18)
(-1.31207 -5.73379 6.27547e-19)
(-1.28179 -6.32279 9.77638e-19)
(-1.02814 -5.79795 -1.08027e-18)
(-0.668998 -4.58577 1.96051e-19)
(-0.329967 -3.20012 7.12996e-19)
(-0.0864786 -2.00172 -3.54177e-19)
(0.0502131 -1.14012 -8.92422e-20)
(0.1068 -0.607639 1.78237e-19)
(0.11559 -0.320023 -3.76133e-19)
(0.101068 -0.181915 1.19793e-19)
(0.0788375 -0.119862 1.00137e-19)
(0.0570105 -0.0895604 -5.22625e-20)
(0.0383028 -0.0699033 -1.03316e-20)
(0.0230416 -0.0533469 2.14755e-20)
(0.0105954 -0.0382858 2.94374e-21)
(0.000521285 -0.0253214 -3.02751e-22)
(-0.00737157 -0.0148926 3.98302e-21)
(-0.0713486 3.29985 6.03243e-19)
(-0.337012 4.85789 -3.04951e-18)
(-0.801153 2.41872 -2.41109e-19)
(1.78625 2.91007 -3.94034e-18)
)
;
    }
    procBoundary21to16
    {
        type            processor;
        value           uniform (-0.00992857 0.0156268 1.22066e-21);
    }
    procBoundary21to22
    {
        type            processor;
        value           nonuniform List<vector> 
16
(
(-0.0233492 0.0261539 -3.95891e-21)
(-0.028294 0.0115483 3.09319e-21)
(-0.028294 0.0115483 3.09319e-21)
(-0.0118042 0.0164686 -7.15996e-20)
(-0.004962 0.0355691 1.77455e-20)
(-0.0188332 0.0536619 -1.98225e-19)
(-0.0188332 0.0536619 -1.98225e-19)
(-0.0347994 0.0481798 -7.16155e-20)
(-0.0329363 0.0399133 4.54194e-19)
(-0.0329363 0.0399133 4.54194e-19)
(-0.0243594 0.0447627 6.08862e-19)
(-0.0243594 0.0447627 6.08862e-19)
(-0.0227043 0.0509517 4.2024e-19)
(-0.0226527 0.0529529 -3.04517e-19)
(-0.0226527 0.0529529 -3.04517e-19)
(-0.0184527 0.0497851 -1.56611e-19)
)
;
    }
    procBoundary21to27
    {
        type            processor;
        value           nonuniform List<vector> 
37
(
(-0.0184865 0.0434734 -8.19059e-19)
(-0.0171489 0.0460182 -1.01288e-18)
(-0.014959 0.0471722 1.72137e-19)
(0.0138999 0.0411907 -1.44485e-19)
(0.00306034 0.0434756 -1.91164e-19)
(-0.00432561 0.0452482 8.56194e-19)
(-0.0184865 0.0434734 -8.19059e-19)
(-0.00851643 0.0464652 5.42946e-19)
(-0.0942728 0.203521 4.97108e-19)
(-0.0620805 0.155753 -3.09831e-18)
(-0.0413376 0.119951 -1.29905e-18)
(0.0138999 0.0411907 -1.44485e-19)
(-0.029326 0.0948192 9.18061e-19)
(-0.431298 0.384815 -4.40252e-18)
(-0.400304 0.329344 3.87175e-18)
(-0.333089 0.260232 -1.39865e-18)
(-0.0942728 0.203521 4.97108e-19)
(-0.259675 0.194934 5.43071e-19)
(0.174262 -0.868426 -3.85399e-17)
(0.0788362 -0.484267 2.1279e-17)
(-0.431298 0.384815 -4.40252e-18)
(0.0160292 -0.270001 -6.6153e-18)
(3.35609 -6.52381 5.76407e-19)
(3.53863 -6.50074 -1.59767e-18)
(3.27608 -5.61353 4.07356e-20)
(0.174262 -0.868426 -3.85399e-17)
(2.70843 -4.24912 -1.0505e-18)
(-3.85181 7.2993 4.28093e-17)
(-4.02229 6.66528 -4.59302e-18)
(-2.92702 4.8424 1.09052e-17)
(-1.08949 2.40807 -1.04608e-17)
(3.35609 -6.52381 5.76407e-19)
(0.876665 -0.0757276 5.36314e-18)
(0.715055 -0.73386 8.94292e-19)
(-1.05556 1.11908 -3.11684e-18)
(-3.85181 7.2993 4.28093e-17)
(-4.50243 4.73852 -3.98672e-18)
)
;
    }
}


// ************************************************************************* //
