/*--------------------------------*- C++ -*----------------------------------*\
  =========                 |
  \\      /  F ield         | OpenFOAM: The Open Source CFD Toolbox
   \\    /   O peration     | Website:  https://openfoam.org
    \\  /    A nd           | Version:  7
     \\/     M anipulation  |
\*---------------------------------------------------------------------------*/
FoamFile
{
    version     2.0;
    format      ascii;
    class       volScalarField;
    location    "4.2";
    object      p;
}
// * * * * * * * * * * * * * * * * * * * * * * * * * * * * * * * * * * * * * //

dimensions      [0 2 -2 0 0 0 0];

internalField   nonuniform List<scalar> 
346
(
0.262779
0.261278
0.259703
0.258058
0.256342
0.254557
0.252705
0.250786
0.248803
0.246755
0.244645
0.16437
0.170943
0.177256
0.183315
0.189128
0.1947
0.200037
0.205145
0.21003
0.214698
0.219154
0.223403
0.227451
0.231302
0.234961
0.238433
0.241723
0.244834
0.247772
0.25054
0.253143
0.255583
0.257866
0.259995
0.261974
0.263805
0.265493
0.267041
0.268451
0.269728
0.270873
0.271891
0.272783
0.273553
0.274203
0.274737
0.275156
0.275463
0.27566
0.27575
0.275735
0.275618
0.2754
0.275083
0.27467
0.274163
0.273563
0.272873
0.272093
0.271227
0.270276
0.269241
0.268124
0.266927
0.265651
0.264298
0.26287
0.261367
0.259791
0.258144
0.256427
0.254641
0.252787
0.250867
0.248883
0.246834
0.244723
0.164641
0.171209
0.177517
0.183571
0.189378
0.194945
0.200277
0.20538
0.210261
0.214924
0.219376
0.223621
0.227664
0.231511
0.235166
0.238634
0.24192
0.245027
0.247961
0.250726
0.253325
0.255762
0.258042
0.260167
0.262142
0.263971
0.265655
0.2672
0.268607
0.269881
0.271024
0.272039
0.272928
0.273696
0.274344
0.274875
0.275291
0.275596
0.275791
0.275879
0.275861
0.275742
0.275522
0.275203
0.274788
0.274279
0.273677
0.272984
0.272203
0.271335
0.270382
0.269346
0.268227
0.267028
0.265751
0.264396
0.262966
0.261462
0.259885
0.258236
0.256517
0.25473
0.252875
0.250954
0.248968
0.246918
0.244806
0.16494
0.171501
0.177803
0.183851
0.189653
0.195214
0.20054
0.205638
0.210514
0.215172
0.219618
0.223858
0.227897
0.231739
0.235389
0.238853
0.242134
0.245238
0.248168
0.250928
0.253523
0.255956
0.258232
0.260354
0.262326
0.264151
0.265832
0.267373
0.268777
0.270048
0.271187
0.272199
0.273086
0.273851
0.274496
0.275024
0.275438
0.275739
0.275932
0.276017
0.275998
0.275876
0.275653
0.275332
0.274915
0.274403
0.2738
0.273105
0.272322
0.271452
0.270497
0.269458
0.268338
0.267137
0.265858
0.264502
0.26307
0.261564
0.259985
0.258335
0.256615
0.254826
0.25297
0.251047
0.24906
0.247008
0.244894
0.165293
0.171847
0.178141
0.184182
0.189977
0.195531
0.200851
0.205943
0.210812
0.215464
0.219904
0.224138
0.228171
0.232007
0.235652
0.23911
0.242386
0.245485
0.24841
0.251165
0.253755
0.256184
0.258456
0.260573
0.26254
0.264361
0.266038
0.267575
0.268976
0.270242
0.271378
0.272387
0.27327
0.274031
0.274673
0.275198
0.275608
0.275907
0.276096
0.276179
0.276156
0.276031
0.275806
0.275483
0.275063
0.274549
0.273942
0.273245
0.27246
0.271587
0.27063
0.269589
0.268467
0.267264
0.265983
0.264624
0.263191
0.261683
0.260102
0.25845
0.256728
0.254937
0.253079
0.251155
0.249166
0.247113
0.244997
0.165713
0.172257
0.178543
0.184575
0.190361
0.195907
0.201219
0.206303
0.211164
0.215808
0.220241
0.224468
0.228494
0.232324
0.235962
0.239414
0.242684
0.245776
0.248695
0.251445
0.254029
0.256453
0.258718
0.260831
0.262793
0.264609
0.266281
0.267813
0.269209
0.270471
0.271603
0.272607
0.273486
0.274243
0.27488
0.275401
0.275808
0.276103
0.276289
0.276368
0.276342
0.276214
0.275985
0.275659
0.275236
0.274718
0.274109
0.273409
0.272621
0.271746
0.270786
0.269742
0.268617
0.267412
0.266128
0.264767
0.263331
0.261821
0.260238
0.258583
0.256859
0.255067
0.253206
0.25128
0.249289
0.247234
0.245117
)
;

boundaryField
{
    inlet
    {
        type            zeroGradient;
    }
    outlet
    {
        type            fixedValue;
        value           nonuniform 0();
    }
    wall
    {
        type            zeroGradient;
    }
    wedge1
    {
        type            wedge;
    }
    wedge2
    {
        type            wedge;
    }
    axis
    {
        type            empty;
    }
    procBoundary46to40
    {
        type            processor;
        value           nonuniform List<scalar> 
68
(
0.262695
0.261195
0.259622
0.257978
0.256263
0.254479
0.252628
0.250711
0.248728
0.246682
0.244573
0.164122
0.170699
0.177017
0.183081
0.188898
0.194475
0.199816
0.204929
0.209818
0.21449
0.21895
0.223203
0.227255
0.23111
0.234773
0.238248
0.241541
0.244656
0.247597
0.250369
0.252974
0.255418
0.257705
0.259836
0.261818
0.263652
0.265343
0.266893
0.268306
0.269585
0.270733
0.271753
0.272648
0.27342
0.274073
0.274609
0.27503
0.275339
0.275539
0.275631
0.275618
0.275502
0.275286
0.274972
0.27456
0.274055
0.273457
0.272768
0.271991
0.271126
0.270176
0.269143
0.268028
0.266832
0.265558
0.264206
0.264206
)
;
    }
    procBoundary46to41
    {
        type            processor;
        value           uniform 0.242473;
    }
    procBoundary46to45
    {
        type            processor;
        value           nonuniform List<scalar> 5(0.15753 0.157807 0.158112 0.158473 0.158902);
    }
    procBoundary46to47
    {
        type            processor;
        value           nonuniform List<scalar> 5(0.24255 0.242631 0.242719 0.24282 0.242938);
    }
}


// ************************************************************************* //
