/*--------------------------------*- C++ -*----------------------------------*\
  =========                 |
  \\      /  F ield         | OpenFOAM: The Open Source CFD Toolbox
   \\    /   O peration     | Website:  https://openfoam.org
    \\  /    A nd           | Version:  7
     \\/     M anipulation  |
\*---------------------------------------------------------------------------*/
FoamFile
{
    version     2.0;
    format      ascii;
    class       surfaceScalarField;
    location    "5.6";
    object      phi;
}
// * * * * * * * * * * * * * * * * * * * * * * * * * * * * * * * * * * * * * //

dimensions      [0 3 -1 0 0 0 0];

internalField   nonuniform List<scalar> 
627
(
4.34374e-05
2.04166e-07
4.35177e-05
2.01597e-07
4.3597e-05
1.99089e-07
4.36754e-05
1.96653e-07
4.37528e-05
1.94314e-07
4.38293e-05
1.92104e-07
4.3905e-05
1.90104e-07
4.398e-05
1.8839e-07
4.40544e-05
1.87306e-07
4.41286e-05
1.86971e-07
4.4203e-05
1.89139e-07
4.42782e-05
1.93161e-07
4.43553e-05
2.08599e-07
4.44354e-05
2.24081e-07
2.81009e-07
3.10205e-05
2.78016e-07
3.11612e-05
2.73722e-07
3.12999e-05
2.69517e-07
3.14364e-05
2.65397e-07
3.15708e-05
2.61361e-07
3.17033e-05
2.57407e-07
3.18338e-05
2.53532e-07
3.19623e-05
2.49735e-07
3.2089e-05
2.46013e-07
3.22138e-05
2.42365e-07
3.23368e-05
2.38788e-07
3.2458e-05
2.3528e-07
3.25774e-05
2.31841e-07
3.26951e-05
2.28467e-07
3.28111e-05
2.25159e-07
3.29255e-05
2.21913e-07
3.30383e-05
2.18728e-07
3.31494e-05
2.15603e-07
3.3259e-05
2.12536e-07
3.33671e-05
2.09526e-07
3.34736e-05
2.06572e-07
3.35787e-05
2.03671e-07
3.36823e-05
2.00823e-07
3.37845e-05
1.98027e-07
3.38852e-05
1.9528e-07
3.39846e-05
1.92582e-07
3.40827e-05
1.89933e-07
3.41794e-05
1.87329e-07
3.42748e-05
1.84771e-07
3.43689e-05
1.82257e-07
3.44618e-05
1.79787e-07
3.45534e-05
1.77359e-07
3.46437e-05
1.74971e-07
3.47329e-05
1.72624e-07
3.48209e-05
1.70317e-07
3.49078e-05
1.68047e-07
3.49935e-05
1.65815e-07
3.5078e-05
1.63619e-07
3.51615e-05
1.61459e-07
3.52439e-05
1.59333e-07
3.53252e-05
1.57242e-07
3.54054e-05
1.55183e-07
3.54846e-05
1.53156e-07
3.55628e-05
1.51161e-07
3.564e-05
1.49196e-07
3.57161e-05
1.47261e-07
3.57913e-05
1.45356e-07
3.58656e-05
1.43479e-07
3.59389e-05
1.41631e-07
3.60112e-05
1.39811e-07
3.60827e-05
1.3802e-07
3.61532e-05
1.36259e-07
3.62228e-05
1.34529e-07
3.62916e-05
1.32833e-07
3.63595e-05
1.31177e-07
3.64266e-05
1.2957e-07
3.64929e-05
1.28028e-07
3.65584e-05
1.26572e-07
3.66232e-05
1.2526e-07
3.66875e-05
1.24139e-07
3.67513e-05
1.23472e-07
3.6815e-05
1.23291e-07
3.68791e-05
1.25061e-07
3.69443e-05
1.27932e-07
3.70122e-05
1.40727e-07
3.70845e-05
1.51735e-07
2.05322e-07
2.44722e-05
1.61378e-07
2.4587e-05
1.58876e-07
2.47001e-05
1.56426e-07
2.48115e-05
1.54026e-07
2.49212e-05
1.51675e-07
2.50292e-05
1.49372e-07
2.51356e-05
1.47115e-07
2.52405e-05
1.44903e-07
2.53438e-05
1.42736e-07
2.54455e-05
1.40611e-07
2.55458e-05
1.38529e-07
2.56446e-05
1.36487e-07
2.57419e-05
1.34484e-07
2.58379e-05
1.32521e-07
2.59324e-05
1.30595e-07
2.60256e-05
1.28706e-07
2.61175e-05
1.26852e-07
2.62081e-05
1.25034e-07
2.62974e-05
1.2325e-07
2.63854e-05
1.21498e-07
2.64722e-05
1.19779e-07
2.65578e-05
1.18092e-07
2.66422e-05
1.16435e-07
2.67254e-05
1.14809e-07
2.68074e-05
1.13211e-07
2.68884e-05
1.11643e-07
2.69682e-05
1.10102e-07
2.7047e-05
1.08588e-07
2.71246e-05
1.071e-07
2.72012e-05
1.05639e-07
2.72768e-05
1.04203e-07
2.73514e-05
1.02791e-07
2.7425e-05
1.01404e-07
2.74975e-05
1.00039e-07
2.75692e-05
9.86982e-08
2.76398e-05
9.73793e-08
2.77096e-05
9.60821e-08
2.77784e-05
9.48062e-08
2.78463e-05
9.3551e-08
2.79133e-05
9.23161e-08
2.79794e-05
9.11008e-08
2.80447e-05
8.99048e-08
2.81092e-05
8.87275e-08
2.81727e-05
8.75685e-08
2.82355e-05
8.64274e-08
2.82975e-05
8.53037e-08
2.83586e-05
8.41972e-08
2.8419e-05
8.31074e-08
2.84786e-05
8.20342e-08
2.85374e-05
8.09776e-08
2.85955e-05
7.99378e-08
2.86529e-05
7.89152e-08
2.87095e-05
7.79108e-08
2.87654e-05
7.69266e-08
2.88206e-05
7.59659e-08
2.88751e-05
7.50334e-08
2.8929e-05
7.41394e-08
2.89823e-05
7.32948e-08
2.9035e-05
7.25383e-08
2.90873e-05
7.18871e-08
2.91392e-05
7.15284e-08
2.91911e-05
7.14164e-08
2.92435e-05
7.26763e-08
2.92971e-05
7.42824e-08
2.9354e-05
8.38031e-08
2.94164e-05
8.93425e-08
1.35988e-07
1.77274e-05
7.40842e-08
1.78133e-05
7.29311e-08
1.7898e-05
7.18019e-08
1.79813e-05
7.06959e-08
1.80633e-05
6.96127e-08
1.81442e-05
6.85516e-08
1.82238e-05
6.75119e-08
1.83022e-05
6.64932e-08
1.83794e-05
6.54949e-08
1.84555e-05
6.45164e-08
1.85305e-05
6.35573e-08
1.86044e-05
6.2617e-08
1.86771e-05
6.16951e-08
1.87489e-05
6.07911e-08
1.88196e-05
5.99045e-08
1.88892e-05
5.90349e-08
1.89579e-05
5.81819e-08
1.90256e-05
5.73449e-08
1.90923e-05
5.65237e-08
1.91581e-05
5.57178e-08
1.9223e-05
5.49269e-08
1.92869e-05
5.41506e-08
1.93499e-05
5.33884e-08
1.94121e-05
5.26401e-08
1.94734e-05
5.19053e-08
1.95339e-05
5.11837e-08
1.95935e-05
5.0475e-08
1.96523e-05
4.97788e-08
1.97103e-05
4.90949e-08
1.97675e-05
4.84229e-08
1.9824e-05
4.77625e-08
1.98796e-05
4.71135e-08
1.99346e-05
4.64756e-08
1.99888e-05
4.58486e-08
2.00422e-05
4.52321e-08
2.0095e-05
4.46258e-08
2.0147e-05
4.40297e-08
2.01984e-05
4.34433e-08
2.02491e-05
4.28665e-08
2.02991e-05
4.22991e-08
2.03485e-05
4.17407e-08
2.03972e-05
4.11912e-08
2.04453e-05
4.06503e-08
2.04927e-05
4.01179e-08
2.05395e-05
3.95937e-08
2.05858e-05
3.90776e-08
2.06314e-05
3.85693e-08
2.06764e-05
3.80688e-08
2.07209e-05
3.7576e-08
2.07648e-05
3.70908e-08
2.08081e-05
3.66133e-08
2.08509e-05
3.61438e-08
2.08931e-05
3.56827e-08
2.09348e-05
3.52308e-08
2.0976e-05
3.47898e-08
2.10166e-05
3.43617e-08
2.10568e-05
3.39516e-08
2.10966e-05
3.35633e-08
2.11359e-05
3.3218e-08
2.11749e-05
3.29144e-08
2.12136e-05
3.27661e-08
2.12524e-05
3.26817e-08
2.12916e-05
3.34144e-08
2.1332e-05
3.39113e-08
2.13759e-05
3.98441e-08
2.14252e-05
4.012e-08
7.52139e-08
1.07838e-05
1.92369e-08
1.08378e-05
1.8936e-08
1.08909e-05
1.86414e-08
1.09433e-05
1.8353e-08
1.09948e-05
1.80704e-08
1.10456e-05
1.77937e-08
1.10956e-05
1.75226e-08
1.11448e-05
1.7257e-08
1.11933e-05
1.69967e-08
1.12411e-05
1.67417e-08
1.12881e-05
1.64917e-08
1.13345e-05
1.62466e-08
1.13802e-05
1.60064e-08
1.14252e-05
1.57708e-08
1.14696e-05
1.55398e-08
1.15133e-05
1.53133e-08
1.15564e-05
1.50911e-08
1.15989e-05
1.48731e-08
1.16407e-05
1.46592e-08
1.1682e-05
1.44494e-08
1.17227e-05
1.42434e-08
1.17628e-05
1.40413e-08
1.18023e-05
1.38429e-08
1.18413e-05
1.36481e-08
1.18798e-05
1.34568e-08
1.19177e-05
1.3269e-08
1.19551e-05
1.30846e-08
1.1992e-05
1.29034e-08
1.20283e-05
1.27254e-08
1.20642e-05
1.25506e-08
1.20996e-05
1.23788e-08
1.21345e-05
1.221e-08
1.21689e-05
1.20441e-08
1.22029e-05
1.1881e-08
1.22364e-05
1.17206e-08
1.22695e-05
1.1563e-08
1.23021e-05
1.1408e-08
1.23343e-05
1.12555e-08
1.2366e-05
1.11056e-08
1.23974e-05
1.09581e-08
1.24283e-05
1.08129e-08
1.24588e-05
1.06701e-08
1.24889e-05
1.05295e-08
1.25187e-05
1.03912e-08
1.2548e-05
1.0255e-08
1.2577e-05
1.01208e-08
1.26055e-05
9.98879e-09
1.26338e-05
9.85876e-09
1.26616e-05
9.73073e-09
1.26891e-05
9.60468e-09
1.27162e-05
9.48065e-09
1.2743e-05
9.35869e-09
1.27694e-05
9.23893e-09
1.27956e-05
9.12156e-09
1.28213e-05
9.00703e-09
1.28468e-05
8.89575e-09
1.2872e-05
8.78933e-09
1.28968e-05
8.68789e-09
1.29215e-05
8.59898e-09
1.29459e-05
8.51622e-09
1.29701e-05
8.48548e-09
1.29944e-05
8.4366e-09
1.30191e-05
8.70353e-09
1.30444e-05
8.62967e-09
1.30733e-05
1.09705e-08
1.31043e-05
9.08941e-09
2.65497e-08
3.63931e-06
3.65824e-06
3.67688e-06
3.69524e-06
3.71331e-06
3.7311e-06
3.74862e-06
3.76588e-06
3.78288e-06
3.79962e-06
3.81611e-06
3.83236e-06
3.84836e-06
3.86413e-06
3.87967e-06
3.89499e-06
3.91008e-06
3.92495e-06
3.93961e-06
3.95406e-06
3.9683e-06
3.98234e-06
3.99619e-06
4.00983e-06
4.02329e-06
4.03656e-06
4.04965e-06
4.06255e-06
4.07527e-06
4.08782e-06
4.1002e-06
4.11241e-06
4.12446e-06
4.13634e-06
4.14806e-06
4.15962e-06
4.17103e-06
4.18229e-06
4.19339e-06
4.20435e-06
4.21516e-06
4.22583e-06
4.23636e-06
4.24675e-06
4.25701e-06
4.26713e-06
4.27712e-06
4.28698e-06
4.29671e-06
4.30631e-06
4.31579e-06
4.32515e-06
4.33439e-06
4.34351e-06
4.35252e-06
4.36141e-06
4.3702e-06
4.37889e-06
4.38749e-06
4.39601e-06
4.40449e-06
4.41293e-06
4.42163e-06
4.43026e-06
4.44123e-06
4.45032e-06
)
;

boundaryField
{
    inlet
    {
        type            calculated;
        value           nonuniform 0();
    }
    outlet
    {
        type            calculated;
        value           nonuniform List<scalar> 6(4.45161e-05 3.71602e-05 2.94858e-05 2.14859e-05 1.31529e-05 4.47687e-06);
    }
    wall
    {
        type            calculated;
        value           uniform 0;
    }
    wedge1
    {
        type            wedge;
        value           nonuniform List<scalar> 
350
(
-1.87078e-17
-1.16987e-17
-1.91062e-17
-2.7949e-18
4.0311e-18
-1.84199e-17
-1.1518e-17
-1.88105e-17
-2.75135e-18
3.96918e-18
-1.81381e-17
-1.13412e-17
-1.85214e-17
-2.70893e-18
3.90832e-18
-1.78617e-17
-1.11678e-17
-1.82383e-17
-2.66747e-18
3.84864e-18
-1.7591e-17
-1.09981e-17
-1.79615e-17
-2.62724e-18
3.78993e-18
-1.73255e-17
-1.08317e-17
-1.76891e-17
-2.58717e-18
3.73287e-18
-1.70656e-17
-1.06686e-17
-1.74233e-17
-2.54835e-18
3.67656e-18
-1.68109e-17
-1.0509e-17
-1.71617e-17
-2.50986e-18
3.62178e-18
-1.65614e-17
-1.03525e-17
-1.69065e-17
-2.47272e-18
3.5676e-18
-1.63166e-17
-1.0199e-17
-1.66551e-17
-2.43562e-18
3.515e-18
-1.60771e-17
-1.00487e-17
-1.64093e-17
-2.39954e-18
3.46321e-18
-1.58418e-17
-9.90128e-18
-1.61683e-17
-2.36428e-18
3.41238e-18
-1.56109e-17
-9.75663e-18
-1.5932e-17
-2.32977e-18
3.36248e-18
-1.53845e-17
-9.61475e-18
-1.57007e-17
-2.29616e-18
3.31334e-18
-1.51622e-17
-9.4755e-18
-1.54728e-17
-2.26261e-18
3.26558e-18
-1.49444e-17
-9.3389e-18
-1.52501e-17
-2.23013e-18
3.21834e-18
-1.47306e-17
-9.20498e-18
-1.50307e-17
-2.19785e-18
3.17238e-18
-1.4521e-17
-9.07359e-18
-1.48165e-17
-2.16666e-18
3.12688e-18
-1.43152e-17
-8.94465e-18
-1.46052e-17
-2.13551e-18
3.08263e-18
-1.41134e-17
-8.81813e-18
-1.43983e-17
-2.10516e-18
3.03902e-18
-1.3915e-17
-8.69391e-18
-1.41953e-17
-2.07551e-18
2.99614e-18
-1.37203e-17
-8.57194e-18
-1.39965e-17
-2.04664e-18
2.95386e-18
-1.35291e-17
-8.45218e-18
-1.38003e-17
-2.01773e-18
2.91276e-18
-1.33415e-17
-8.33462e-18
-1.36081e-17
-1.98955e-18
2.87222e-18
-1.3157e-17
-8.21914e-18
-1.34194e-17
-1.96197e-18
2.83237e-18
-1.29759e-17
-8.10571e-18
-1.32345e-17
-1.93513e-18
2.79304e-18
-1.27979e-17
-7.99425e-18
-1.30519e-17
-1.90822e-18
2.7548e-18
-1.26232e-17
-7.88479e-18
-1.2873e-17
-1.88197e-18
2.71707e-18
-1.24513e-17
-7.77716e-18
-1.26972e-17
-1.85626e-18
2.67995e-18
-1.22824e-17
-7.67145e-18
-1.25249e-17
-1.83125e-18
2.6433e-18
-1.21162e-17
-7.56746e-18
-1.23547e-17
-1.80621e-18
2.60762e-18
-1.19531e-17
-7.46529e-18
-1.21882e-17
-1.78197e-18
2.57223e-18
-1.17926e-17
-7.36488e-18
-1.20238e-17
-1.75781e-18
2.53774e-18
-1.1635e-17
-7.26617e-18
-1.18628e-17
-1.73433e-18
2.50358e-18
-1.148e-17
-7.16913e-18
-1.17038e-17
-1.7109e-18
2.47026e-18
-1.13278e-17
-7.0738e-18
-1.15479e-17
-1.68808e-18
2.43734e-18
-1.11778e-17
-6.97992e-18
-1.13945e-17
-1.66564e-18
2.40495e-18
-1.10301e-17
-6.88759e-18
-1.12437e-17
-1.64361e-18
2.37308e-18
-1.0885e-17
-6.79672e-18
-1.10955e-17
-1.62207e-18
2.3416e-18
-1.0742e-17
-6.70728e-18
-1.09491e-17
-1.60054e-18
2.31089e-18
-1.06013e-17
-6.61923e-18
-1.08056e-17
-1.57964e-18
2.28043e-18
-1.04629e-17
-6.53264e-18
-1.06639e-17
-1.55883e-18
2.25065e-18
-1.03268e-17
-6.44744e-18
-1.05249e-17
-1.53858e-18
2.22115e-18
-1.01927e-17
-6.36358e-18
-1.03876e-17
-1.51838e-18
2.19231e-18
-1.00608e-17
-6.28102e-18
-1.02526e-17
-1.49862e-18
2.16381e-18
-9.93074e-18
-6.19969e-18
-1.01197e-17
-1.47923e-18
2.13571e-18
-9.80264e-18
-6.11957e-18
-9.98901e-18
-1.46023e-18
2.10796e-18
-9.67646e-18
-6.04066e-18
-9.85985e-18
-1.44126e-18
2.08082e-18
-9.55228e-18
-5.96295e-18
-9.73285e-18
-1.42265e-18
2.05401e-18
-9.42989e-18
-5.88643e-18
-9.60784e-18
-1.40439e-18
2.0276e-18
-9.30941e-18
-5.81109e-18
-9.48497e-18
-1.38651e-18
2.00153e-18
-9.1909e-18
-5.73698e-18
-9.36374e-18
-1.3687e-18
1.97605e-18
8.89747e-17
-9.0746e-18
-5.66423e-18
-9.24486e-18
-1.3513e-18
1.95096e-18
8.78573e-17
-8.96047e-18
-5.5929e-18
-9.1284e-18
-1.33429e-18
1.92634e-18
8.67658e-17
-8.84903e-18
-5.52327e-18
-9.01482e-18
-1.31775e-18
1.90227e-18
8.57053e-17
-8.74077e-18
-5.45565e-18
-8.90432e-18
-1.30153e-18
1.87901e-18
8.46861e-17
-8.63691e-18
-5.39078e-18
-8.79861e-18
-1.28611e-18
1.85664e-18
8.3722e-17
-8.5388e-18
-5.32959e-18
-8.69863e-18
-1.27144e-18
1.83551e-18
8.28458e-17
-8.45011e-18
-5.27452e-18
-8.6091e-18
-1.25841e-18
1.81674e-18
8.20944e-17
-8.37458e-18
-5.22779e-18
-8.53287e-18
-1.2473e-18
1.79991e-18
8.15946e-17
-8.32675e-18
-5.19973e-18
-8.48991e-18
-1.2413e-18
1.79248e-18
8.14319e-17
-8.31501e-18
-5.19428e-18
-8.48116e-18
-1.23956e-18
1.78659e-18
8.22007e-17
-8.41296e-18
-5.26855e-18
-8.62599e-18
-1.26432e-18
1.83281e-18
8.38931e-17
-8.61151e-18
-5.40384e-18
-8.84902e-18
-1.29468e-18
1.85295e-18
8.94496e-17
-9.3093e-18
-5.94086e-18
-9.93447e-18
-1.4885e-18
2.24247e-18
9.60122e-17
-1.00894e-17
-6.4708e-18
-1.07602e-17
-1.58993e-18
2.18342e-18
1.14616e-16
-1.26952e-17
-8.76556e-18
-1.62375e-17
-2.75848e-18
5.02206e-18
)
;
    }
    wedge2
    {
        type            wedge;
        value           nonuniform List<scalar> 
350
(
-1.87101e-17
-1.17002e-17
-1.91059e-17
-2.79468e-18
4.03146e-18
-1.84219e-17
-1.15194e-17
-1.88112e-17
-2.75167e-18
3.96908e-18
-1.81394e-17
-1.13422e-17
-1.85221e-17
-2.7093e-18
3.90819e-18
-1.78631e-17
-1.11688e-17
-1.82388e-17
-2.66772e-18
3.8486e-18
-1.75923e-17
-1.09989e-17
-1.79606e-17
-2.6266e-18
3.79045e-18
-1.73272e-17
-1.08325e-17
-1.76893e-17
-2.58697e-18
3.73299e-18
-1.7067e-17
-1.06694e-17
-1.74223e-17
-2.5477e-18
3.67708e-18
-1.6812e-17
-1.05094e-17
-1.71618e-17
-2.50964e-18
3.62187e-18
-1.6562e-17
-1.03526e-17
-1.69052e-17
-2.47178e-18
3.56822e-18
-1.63169e-17
-1.0199e-17
-1.66549e-17
-2.43534e-18
3.51512e-18
-1.60763e-17
-1.00481e-17
-1.64089e-17
-2.39933e-18
3.46327e-18
-1.58406e-17
-9.90039e-18
-1.61677e-17
-2.36392e-18
3.41248e-18
-1.56097e-17
-9.75553e-18
-1.59311e-17
-2.32911e-18
3.36271e-18
-1.53832e-17
-9.61347e-18
-1.56985e-17
-2.29475e-18
3.31408e-18
-1.51611e-17
-9.47422e-18
-1.54715e-17
-2.26163e-18
3.26595e-18
-1.4943e-17
-9.33761e-18
-1.52479e-17
-2.22871e-18
3.2191e-18
-1.47292e-17
-9.20346e-18
-1.50294e-17
-2.19682e-18
3.17274e-18
-1.4519e-17
-9.07182e-18
-1.4814e-17
-2.16506e-18
3.12766e-18
-1.43129e-17
-8.94263e-18
-1.46036e-17
-2.13443e-18
3.083e-18
-1.41104e-17
-8.8158e-18
-1.43966e-17
-2.10414e-18
3.03935e-18
-1.39118e-17
-8.69133e-18
-1.41934e-17
-2.07427e-18
2.99656e-18
-1.37169e-17
-8.56916e-18
-1.39934e-17
-2.04472e-18
2.95474e-18
-1.35255e-17
-8.44921e-18
-1.3798e-17
-2.01626e-18
2.91325e-18
-1.33373e-17
-8.33138e-18
-1.36058e-17
-1.98812e-18
2.87271e-18
-1.31527e-17
-8.21568e-18
-1.34169e-17
-1.96038e-18
2.8329e-18
-1.29714e-17
-8.10206e-18
-1.32309e-17
-1.9329e-18
2.794e-18
-1.27933e-17
-7.99048e-18
-1.30491e-17
-1.90645e-18
2.75539e-18
-1.2618e-17
-7.88081e-18
-1.28701e-17
-1.88027e-18
2.71762e-18
-1.24461e-17
-7.77313e-18
-1.26942e-17
-1.85447e-18
2.68055e-18
-1.22772e-17
-7.66727e-18
-1.2521e-17
-1.82887e-18
2.64428e-18
-1.21112e-17
-7.56331e-18
-1.23515e-17
-1.80417e-18
2.60831e-18
-1.19479e-17
-7.4611e-18
-1.21842e-17
-1.77952e-18
2.57326e-18
-1.17875e-17
-7.36058e-18
-1.20204e-17
-1.75562e-18
2.5385e-18
-1.16296e-17
-7.26176e-18
-1.18588e-17
-1.73185e-18
2.50458e-18
-1.14743e-17
-7.16455e-18
-1.17005e-17
-1.70883e-18
2.47096e-18
-1.13214e-17
-7.06887e-18
-1.15444e-17
-1.68597e-18
2.43804e-18
-1.11712e-17
-6.97487e-18
-1.13909e-17
-1.66347e-18
2.40567e-18
-1.10236e-17
-6.88238e-18
-1.12399e-17
-1.64131e-18
2.37385e-18
-1.08783e-17
-6.79143e-18
-1.10911e-17
-1.61937e-18
2.34265e-18
-1.07354e-17
-6.70197e-18
-1.09452e-17
-1.59813e-18
2.31169e-18
-1.05947e-17
-6.61396e-18
-1.08012e-17
-1.57694e-18
2.28147e-18
-1.04562e-17
-6.52725e-18
-1.06599e-17
-1.55631e-18
2.25151e-18
-1.03197e-17
-6.44188e-18
-1.05203e-17
-1.53578e-18
2.22221e-18
-1.01854e-17
-6.3578e-18
-1.03834e-17
-1.51583e-18
2.19316e-18
-1.0053e-17
-6.275e-18
-1.02483e-17
-1.49606e-18
2.16466e-18
-9.92279e-18
-6.19349e-18
-1.01152e-17
-1.47654e-18
2.13661e-18
-9.79455e-18
-6.11324e-18
-9.98397e-18
-1.4572e-18
2.10908e-18
-9.66825e-18
-6.03421e-18
-9.85518e-18
-1.43842e-18
2.08176e-18
-9.54376e-18
-5.95637e-18
-9.72814e-18
-1.41985e-18
2.05494e-18
-9.4213e-18
-5.87973e-18
-9.60303e-18
-1.40151e-18
2.02856e-18
-9.30076e-18
-5.80434e-18
-9.47972e-18
-1.38336e-18
2.00266e-18
-9.18221e-18
-5.73019e-18
-9.35885e-18
-1.36575e-18
1.97703e-18
8.89858e-17
-9.06565e-18
-5.65733e-18
-9.23995e-18
-1.34836e-18
1.95192e-18
8.78684e-17
-8.95152e-18
-5.58595e-18
-9.1234e-18
-1.33128e-18
1.92735e-18
8.67767e-17
-8.84002e-18
-5.51625e-18
-9.00951e-18
-1.31455e-18
1.9034e-18
8.57163e-17
-8.73182e-18
-5.44863e-18
-8.89925e-18
-1.29846e-18
1.88003e-18
8.4697e-17
-8.62784e-18
-5.38374e-18
-8.79331e-18
-1.28294e-18
1.85775e-18
8.37333e-17
-8.52967e-18
-5.32249e-18
-8.69353e-18
-1.26838e-18
1.83652e-18
8.28573e-17
-8.44078e-18
-5.26728e-18
-8.6039e-18
-1.2553e-18
1.81778e-18
8.2106e-17
-8.365e-18
-5.22026e-18
-8.52728e-18
-1.24389e-18
1.80108e-18
8.16064e-17
-8.31716e-18
-5.19229e-18
-8.48457e-18
-1.23811e-18
1.79353e-18
8.14439e-17
-8.30535e-18
-5.18684e-18
-8.47586e-18
-1.23641e-18
1.78763e-18
8.22128e-17
-8.40326e-18
-5.26109e-18
-8.62069e-18
-1.26118e-18
1.83385e-18
8.39052e-17
-8.60181e-18
-5.39639e-18
-8.84374e-18
-1.29156e-18
1.85398e-18
8.94615e-17
-9.29974e-18
-5.93356e-18
-9.92929e-18
-1.48544e-18
2.24348e-18
9.60242e-17
-1.00797e-17
-6.46334e-18
-1.07549e-17
-1.5868e-18
2.18445e-18
1.14629e-16
-1.26854e-17
-8.75803e-18
-1.62322e-17
-2.75532e-18
5.02311e-18
)
;
    }
    axis
    {
        type            empty;
        value           nonuniform 0();
    }
    procBoundary47to41
    {
        type            processor;
        value           nonuniform List<scalar> 
68
(
-2.85475e-07
-2.81891e-07
-2.7839e-07
-2.74988e-07
-2.71717e-07
-2.68623e-07
-2.65808e-07
-2.63382e-07
-2.61762e-07
-2.61147e-07
-2.63521e-07
-2.68394e-07
-2.85655e-07
-3.0419e-07
-3.61667e-07
-4.20953e-07
-4.14477e-07
-4.08133e-07
-4.01919e-07
-3.95831e-07
-3.89865e-07
-3.84018e-07
-3.78288e-07
-3.72671e-07
-3.67164e-07
-3.61765e-07
-3.5647e-07
-3.51278e-07
-3.46185e-07
-3.41189e-07
-3.36287e-07
-3.31478e-07
-3.26758e-07
-3.22126e-07
-3.1758e-07
-3.13116e-07
-3.08734e-07
-3.04431e-07
-3.00206e-07
-2.96055e-07
-2.91979e-07
-2.87974e-07
-2.84039e-07
-2.80172e-07
-2.76372e-07
-2.72637e-07
-2.68966e-07
-2.65357e-07
-2.61808e-07
-2.58318e-07
-2.54886e-07
-2.5151e-07
-2.48188e-07
-2.44921e-07
-2.41705e-07
-2.38541e-07
-2.35426e-07
-2.3236e-07
-2.2934e-07
-2.26367e-07
-2.2344e-07
-2.20556e-07
-2.17716e-07
-2.14918e-07
-2.12164e-07
-2.09452e-07
-4.33561e-05
-2.06785e-07
)
;
    }
    procBoundary47to46
    {
        type            processor;
        value           nonuniform List<scalar> 5(-3.08775e-05 -2.43556e-05 -1.76401e-05 -1.07289e-05 -3.62007e-06);
    }
}


// ************************************************************************* //
