/*--------------------------------*- C++ -*----------------------------------*\
  =========                 |
  \\      /  F ield         | OpenFOAM: The Open Source CFD Toolbox
   \\    /   O peration     | Website:  https://openfoam.org
    \\  /    A nd           | Version:  7
     \\/     M anipulation  |
\*---------------------------------------------------------------------------*/
FoamFile
{
    version     2.0;
    format      ascii;
    class       volScalarField;
    location    "1.4";
    object      p;
}
// * * * * * * * * * * * * * * * * * * * * * * * * * * * * * * * * * * * * * //

dimensions      [0 2 -2 0 0 0 0];

internalField   nonuniform List<scalar> 
344
(
3.76117
3.75396
3.74675
3.73953
3.73231
3.72509
3.71786
3.71062
3.70338
3.69613
3.68886
3.68159
3.6743
3.667
3.65968
3.65233
3.64496
3.63756
3.63013
3.62265
3.61513
3.60755
3.5999
3.59218
3.58437
3.57645
3.56841
3.56023
3.55187
3.54332
3.53454
3.52549
3.51613
3.50639
3.49622
3.48555
3.47429
3.46233
3.44957
3.43587
3.42106
3.40496
3.38736
3.36801
3.34661
3.32283
3.29628
3.26651
3.23301
3.19519
3.15238
3.10383
3.04872
2.98611
2.91503
2.83443
2.74325
2.64045
2.52509
2.39642
2.254
2.09781
1.9284
1.74699
1.5556
1.35698
3.76117
3.75396
3.74675
3.73953
3.73231
3.72509
3.71786
3.71062
3.70338
3.69613
3.68887
3.6816
3.67431
3.66701
3.65969
3.65234
3.64498
3.63758
3.63015
3.62267
3.61515
3.60758
3.59994
3.59222
3.58442
3.57651
3.56848
3.56031
3.55197
3.54343
3.53467
3.52564
3.5163
3.50659
3.49646
3.48582
3.4746
3.4627
3.45
3.43636
3.42164
3.40563
3.38814
3.36891
3.34766
3.32404
3.29767
3.2681
3.23483
3.19725
3.15471
3.10646
3.05164
2.98933
2.91853
2.83819
2.7472
2.6445
2.52912
2.40027
2.25745
2.10063
1.93033
1.74778
1.555
1.35483
3.76117
3.75397
3.74675
3.73954
3.73232
3.7251
3.71787
3.71063
3.70339
3.69614
3.68888
3.68161
3.67432
3.66702
3.65971
3.65237
3.64501
3.63761
3.63019
3.62272
3.61521
3.60764
3.60002
3.59231
3.58452
3.57663
3.56862
3.56047
3.55216
3.54366
3.53494
3.52595
3.51667
3.50702
3.49696
3.48641
3.47529
3.4635
3.45093
3.43745
3.4229
3.4071
3.38984
3.37088
3.34994
3.32667
3.3007
3.27158
3.2388
3.20177
3.15983
3.1122
3.05804
2.9964
2.92624
2.84646
2.75592
2.65348
2.53808
2.40884
2.26517
2.10696
1.93468
1.74955
1.55367
1.35001
3.76118
3.75397
3.74676
3.73954
3.73233
3.7251
3.71788
3.71064
3.7034
3.69615
3.6889
3.68163
3.67435
3.66705
3.65974
3.65241
3.64505
3.63767
3.63025
3.62279
3.61529
3.60774
3.60013
3.59245
3.58468
3.57682
3.56884
3.56073
3.55246
3.54401
3.53534
3.52643
3.51722
3.50766
3.49771
3.48729
3.47631
3.46469
3.45232
3.43907
3.42478
3.40929
3.39239
3.37384
3.35335
3.33061
3.30524
3.2768
3.24477
3.20858
3.16754
3.12089
3.06774
3.00714
2.93798
2.85912
2.76931
2.66731
2.55194
2.42217
2.27725
2.11694
1.94159
1.75244
1.55167
1.3425
3.76118
3.75398
3.74677
3.73955
3.73234
3.72511
3.71789
3.71066
3.70342
3.69617
3.68892
3.68166
3.67438
3.66709
3.65978
3.65246
3.64511
3.63773
3.63033
3.62289
3.6154
3.60787
3.60028
3.59262
3.58489
3.57706
3.56912
3.56106
3.55284
3.54446
3.53587
3.52704
3.51794
3.5085
3.49869
3.48843
3.47765
3.46625
3.45414
3.44119
3.42725
3.41216
3.39572
3.3777
3.35783
3.3358
3.31122
3.28367
3.25265
3.21758
3.17776
3.13243
3.08068
3.0215
2.95376
2.8762
2.78748
2.6862
2.57099
2.44061
2.2941
2.13099
1.95147
1.75674
1.5491
1.3321
1.15299
0.947582
0.746602
1.14923
0.942245
0.739882
1.14074
0.930211
0.724752
0.528858
1.12743
0.911275
0.700959
0.501405
)
;

boundaryField
{
    inlet
    {
        type            zeroGradient;
    }
    outlet
    {
        type            fixedValue;
        value           nonuniform 0();
    }
    wall
    {
        type            zeroGradient;
    }
    wedge1
    {
        type            wedge;
    }
    wedge2
    {
        type            wedge;
    }
    axis
    {
        type            empty;
    }
    procBoundary2to1
    {
        type            processor;
        value           nonuniform List<scalar> 5(3.76838 3.76838 3.76838 3.76838 3.76839);
    }
    procBoundary2to3
    {
        type            processor;
        value           nonuniform List<scalar> 5(0.554171 0.546369 0.546369 0.346276 0.316568);
    }
    procBoundary2to8
    {
        type            processor;
        value           nonuniform List<scalar> 
71
(
3.76119
3.75398
3.74677
3.73956
3.73235
3.72513
3.7179
3.71067
3.70344
3.6962
3.68895
3.68169
3.67442
3.66713
3.65983
3.65252
3.64518
3.63782
3.63043
3.623
3.61554
3.60803
3.60046
3.59284
3.58513
3.57735
3.56946
3.56145
3.55331
3.545
3.5365
3.52778
3.5188
3.50952
3.49988
3.48982
3.47927
3.46814
3.45634
3.44376
3.43024
3.41565
3.39978
3.38241
3.36329
3.34212
3.31852
3.29209
3.26232
3.22864
3.19037
3.14672
3.09676
3.03945
2.97357
2.89778
2.81058
2.7104
2.59561
2.46469
2.31634
2.14978
1.96493
1.7629
1.54607
1.31849
1.10876
1.10876
0.884621
0.667496
0.462975
)
;
    }
}


// ************************************************************************* //
