/*--------------------------------*- C++ -*----------------------------------*\
  =========                 |
  \\      /  F ield         | OpenFOAM: The Open Source CFD Toolbox
   \\    /   O peration     | Website:  https://openfoam.org
    \\  /    A nd           | Version:  7
     \\/     M anipulation  |
\*---------------------------------------------------------------------------*/
FoamFile
{
    version     2.0;
    format      ascii;
    class       surfaceScalarField;
    location    "7.000532";
    object      phi;
}
// * * * * * * * * * * * * * * * * * * * * * * * * * * * * * * * * * * * * * //

dimensions      [0 3 -1 0 0 0 0];

internalField   nonuniform List<scalar> 
11438
(
-0.000695318
-0.000889571
-0.000652695
-0.00152247
-0.000504391
-0.00206448
-0.000274465
-0.00246351
-0.0026757
0.0160711
-9.98607e-07
0.0160719
-8.20079e-07
0.0160725
-6.38186e-07
0.016073
-4.54139e-07
0.0160733
-2.6923e-07
0.0160733
-8.48436e-08
0.0160732
9.7452e-08
0.016073
2.76304e-07
0.0160725
4.50295e-07
0.0160719
6.18195e-07
0.0160711
7.78781e-07
0.0160702
9.3108e-07
0.0160691
1.07436e-06
0.0160679
1.20828e-06
0.0160666
1.33294e-06
0.0160651
1.44897e-06
0.0160636
1.55753e-06
0.0160619
1.6604e-06
0.0160601
1.76002e-06
0.0160583
1.85945e-06
0.0160563
1.96233e-06
0.0160543
2.07279e-06
0.0160521
2.19534e-06
0.0160497
2.3347e-06
0.0160472
2.49554e-06
0.0160445
2.68234e-06
0.0160416
2.89904e-06
0.0160385
3.14886e-06
0.0160351
3.43399e-06
0.0160313
3.75544e-06
0.0160272
4.1129e-06
0.0160227
4.50459e-06
0.0160178
4.92735e-06
0.0160124
5.37658e-06
0.0160065
5.84666e-06
0.0160002
6.33089e-06
0.0159934
6.82255e-06
0.0159861
7.31433e-06
0.0159783
7.79996e-06
0.01597
8.2725e-06
0.0159613
8.72712e-06
0.0159521
9.15752e-06
0.0159426
9.56138e-06
0.0159326
9.93298e-06
0.0159223
1.02736e-05
0.0159118
1.05766e-05
0.0159009
1.08478e-05
0.0158898
1.10769e-05
0.0158786
1.12766e-05
0.0158671
1.14287e-05
0.0158556
1.15577e-05
0.0158439
1.16315e-05
0.0158323
1.16952e-05
0.0158206
1.16933e-05
0.0158089
1.17056e-05
0.0157972
1.16348e-05
0.0157856
1.16165e-05
0.0157741
1.14827e-05
0.0157627
1.14588e-05
0.0157514
1.12636e-05
0.0157401
1.12658e-05
0.0157291
1.10067e-05
0.015718
1.1079e-05
1.074e-05
0.0157539
-1.96945e-06
0.0157547
-1.61419e-06
0.0157553
-1.25206e-06
0.0157558
-8.85486e-07
0.015756
-5.16999e-07
0.0157561
-1.48934e-07
0.015756
2.15417e-07
0.0157557
5.71695e-07
0.0157552
9.19087e-07
0.0157546
1.25455e-06
0.0157538
1.57556e-06
0.0157528
1.88021e-06
0.0157517
2.16702e-06
0.0157505
2.43531e-06
0.0157491
2.68526e-06
0.0157477
2.91804e-06
0.0157461
3.13595e-06
0.0157444
3.34251e-06
0.0157426
3.54251e-06
0.0157407
3.742e-06
0.0157388
3.94816e-06
0.0157367
4.16917e-06
0.0157344
4.41393e-06
0.0157321
4.69175e-06
0.0157296
5.01194e-06
0.0157269
5.38332e-06
0.015724
5.81371e-06
0.0157208
6.30945e-06
0.0157174
6.87494e-06
0.0157136
7.51212e-06
0.0157095
8.22041e-06
0.015705
8.99626e-06
0.0157001
9.83344e-06
0.0156948
1.07228e-05
0.0156889
1.16532e-05
0.0156827
1.26113e-05
0.0156759
1.35839e-05
0.0156687
1.45564e-05
0.0156609
1.55164e-05
0.0156528
1.64502e-05
0.0156441
1.73482e-05
0.0156351
1.81978e-05
0.0156257
1.89948e-05
0.0156159
1.97273e-05
0.0156058
2.03985e-05
0.0155953
2.09942e-05
0.0155847
2.15275e-05
0.0155738
2.19758e-05
0.0155627
2.23676e-05
0.0155514
2.26627e-05
0.0155401
2.29156e-05
0.0155286
2.30547e-05
0.0155172
2.3181e-05
0.0155057
2.31681e-05
0.0154942
2.3196e-05
0.0154828
2.30424e-05
0.0154714
2.30148e-05
0.0154601
2.27296e-05
0.0154489
2.26998e-05
0.0154379
2.22832e-05
0.0154268
2.23183e-05
0.0154161
2.17621e-05
0.0154052
2.19476e-05
2.12364e-05
0.0154454
-2.90996e-06
0.0154462
-2.37694e-06
0.0154467
-1.83336e-06
0.0154471
-1.28284e-06
0.0154473
-7.29223e-07
0.0154474
-1.76394e-07
0.0154472
3.70975e-07
0.0154469
9.07779e-07
0.0154464
1.43109e-06
0.0154457
1.93664e-06
0.0154448
2.421e-06
0.0154438
2.88101e-06
0.0154427
3.31453e-06
0.0154414
3.72062e-06
0.01544
4.09932e-06
0.0154385
4.45236e-06
0.0154368
4.78318e-06
0.0154351
5.09686e-06
0.0154332
5.40051e-06
0.0154312
5.70304e-06
0.0154292
6.0151e-06
0.015427
6.34879e-06
0.0154247
6.7173e-06
0.0154222
7.13445e-06
0.0154196
7.61404e-06
0.0154169
8.16914e-06
0.0154139
8.81139e-06
0.0154106
9.55021e-06
0.0154071
1.03921e-05
0.0154033
1.134e-05
0.0153991
1.2393e-05
0.0153946
1.35458e-05
0.0153896
1.47891e-05
0.0153842
1.61094e-05
0.0153784
1.74901e-05
0.0153721
1.89114e-05
0.0153653
2.03534e-05
0.0153581
2.17945e-05
0.0153504
2.32163e-05
0.0153422
2.45983e-05
0.0153336
2.59266e-05
0.0153247
2.71821e-05
0.0153153
2.83588e-05
0.0153056
2.94387e-05
0.0152956
3.04271e-05
0.0152852
3.13021e-05
0.0152747
3.20844e-05
0.0152639
3.2739e-05
0.015253
3.33104e-05
0.0152419
3.37367e-05
0.0152307
3.41026e-05
0.0152195
3.42976e-05
0.0152082
3.44773e-05
0.0151969
3.44465e-05
0.0151856
3.44818e-05
0.0151744
3.42405e-05
0.0151632
3.41952e-05
0.0151522
3.37562e-05
0.0151412
3.37108e-05
0.0151304
3.30755e-05
0.0151196
3.31303e-05
0.0151091
3.22887e-05
0.0150984
3.25677e-05
3.14998e-05
0.0151451
-3.81536e-06
0.0151458
-3.10176e-06
0.0151464
-2.37369e-06
0.0151467
-1.63597e-06
0.0151469
-8.93645e-07
0.0151468
-1.51335e-07
0.0151466
5.83424e-07
0.0151462
1.30472e-06
0.0151457
2.00865e-06
0.0151449
2.68954e-06
0.015144
3.34251e-06
0.0151429
3.96351e-06
0.0151417
4.54965e-06
0.0151403
5.09938e-06
0.0151388
5.61289e-06
0.0151371
6.09228e-06
0.0151354
6.54194e-06
0.0151335
6.96857e-06
0.0151315
7.38142e-06
0.0151294
7.79219e-06
0.0151272
8.21482e-06
0.0151249
8.66522e-06
0.0151225
9.16077e-06
0.0151199
9.71967e-06
0.0151171
1.03601e-05
0.0151142
1.10993e-05
0.0151111
1.19527e-05
0.0151077
1.29326e-05
0.015104
1.40478e-05
0.0151001
1.53019e-05
0.0150958
1.66938e-05
0.0150911
1.82166e-05
0.015086
1.98581e-05
0.0150805
2.16e-05
0.0150746
2.34206e-05
0.0150682
2.52937e-05
0.0150614
2.71929e-05
0.0150541
2.90895e-05
0.0150464
3.09593e-05
0.0150382
3.2775e-05
0.0150296
3.45185e-05
0.0150206
3.61645e-05
0.0150113
3.77052e-05
0.0150016
3.91165e-05
0.0149916
4.04058e-05
0.0149814
4.15439e-05
0.0149709
4.25587e-05
0.0149602
4.34037e-05
0.0149494
4.41388e-05
0.0149384
4.46815e-05
0.0149274
4.51459e-05
0.0149163
4.53838e-05
0.0149052
4.56042e-05
0.0148941
4.55448e-05
0.014883
4.55762e-05
0.014872
4.52384e-05
0.014861
4.51648e-05
0.0148502
4.45656e-05
0.0148394
4.44947e-05
0.0148289
4.36374e-05
0.0148183
4.3703e-05
0.014808
4.25759e-05
0.0147976
4.29404e-05
4.15189e-05
0.0148527
-4.68216e-06
0.0148534
-3.78329e-06
0.0148539
-2.86569e-06
0.0148542
-1.93532e-06
0.0148543
-9.98466e-07
0.0148542
-6.05549e-08
0.0148539
8.67262e-07
0.0148534
1.78025e-06
0.0148528
2.67203e-06
0.0148519
3.53578e-06
0.0148509
4.3652e-06
0.0148497
5.15532e-06
0.0148483
5.90225e-06
0.0148468
6.60413e-06
0.0148452
7.26083e-06
0.0148434
7.87501e-06
0.0148415
8.45181e-06
0.0148395
8.99941e-06
0.0148373
9.52909e-06
0.0148351
1.00552e-05
0.0148327
1.05949e-05
0.0148302
1.11677e-05
0.0148275
1.17952e-05
0.0148248
1.24996e-05
0.0148218
1.33036e-05
0.0148187
1.42284e-05
0.0148153
1.52931e-05
0.0148118
1.6513e-05
0.0148079
1.78987e-05
0.0148038
1.9455e-05
0.0147993
2.11805e-05
0.0147944
2.30665e-05
0.0147892
2.50977e-05
0.0147835
2.72519e-05
0.0147775
2.95017e-05
0.0147709
3.18146e-05
0.014764
3.41579e-05
0.0147566
3.64959e-05
0.0147487
3.87986e-05
0.0147405
4.10321e-05
0.0147318
4.3174e-05
0.0147228
4.51931e-05
0.0147134
4.70798e-05
0.0147037
4.88042e-05
0.0146937
5.03755e-05
0.0146835
5.17578e-05
0.0146731
5.2986e-05
0.0146625
5.40026e-05
0.0146518
5.48827e-05
0.0146409
5.55239e-05
0.01463
5.60691e-05
0.014619
5.63337e-05
0.0146081
5.65788e-05
0.0145971
5.64768e-05
0.0145862
5.64898e-05
0.0145754
5.60438e-05
0.0145647
5.59288e-05
0.0145541
5.51606e-05
0.0145435
5.50526e-05
0.0145332
5.39676e-05
0.0145228
5.40339e-05
0.0145128
5.26189e-05
0.0145027
5.30612e-05
5.12862e-05
0.0145679
-5.50698e-06
0.0145685
-4.41649e-06
0.014569
-3.3026e-06
0.0145692
-2.17245e-06
0.0145692
-1.0335e-06
0.0145691
1.09172e-07
0.0145687
1.23755e-06
0.0145681
2.35125e-06
0.0145674
3.44037e-06
0.0145664
4.49668e-06
0.0145653
5.51268e-06
0.0145639
6.4822e-06
0.0145624
7.40049e-06
0.0145608
8.26508e-06
0.014559
9.07577e-06
0.014557
9.8352e-06
0.0145549
1.05495e-05
0.0145527
1.12281e-05
0.0145503
1.18842e-05
0.0145478
1.25346e-05
0.0145452
1.31996e-05
0.0145425
1.39021e-05
0.0145396
1.46677e-05
0.0145366
1.55228e-05
0.0145334
1.64941e-05
0.01453
1.76069e-05
0.0145264
1.88838e-05
0.0145226
2.0343e-05
0.0145185
2.19971e-05
0.0145141
2.38519e-05
0.0145094
2.59056e-05
0.0145043
2.81479e-05
0.0144988
3.05606e-05
0.014493
3.3117e-05
0.0144867
3.57848e-05
0.01448
3.85249e-05
0.0144728
4.12984e-05
0.0144653
4.40627e-05
0.0144573
4.67819e-05
0.0144489
4.94158e-05
0.0144401
5.19377e-05
0.014431
5.43105e-05
0.0144216
5.6523e-05
0.0144118
5.85397e-05
0.0144019
6.03719e-05
0.0143916
6.19769e-05
0.0143812
6.33969e-05
0.0143707
6.45638e-05
0.01436
6.55675e-05
0.0143492
6.62868e-05
0.0143384
6.68924e-05
0.0143276
6.71648e-05
0.0143167
6.74156e-05
0.0143059
6.72541e-05
0.0142952
6.72314e-05
0.0142846
6.66631e-05
0.014274
6.64915e-05
0.0142636
6.55431e-05
0.0142533
6.5385e-05
0.0142432
6.40645e-05
0.0142331
6.41206e-05
0.0142233
6.24132e-05
0.0142135
6.2925e-05
6.07952e-05
0.0142904
-6.28659e-06
0.014291
-4.99652e-06
0.0142914
-3.67784e-06
0.0142916
-2.33882e-06
0.0142915
-9.88027e-07
0.0142913
3.67082e-07
0.0142908
1.70853e-06
0.0142901
3.03381e-06
0.0142892
4.33166e-06
0.0142881
5.59228e-06
0.0142868
6.80698e-06
0.0142853
7.96831e-06
0.0142837
9.07068e-06
0.0142818
1.01107e-05
0.0142798
1.1088e-05
0.0142776
1.20055e-05
0.0142753
1.28696e-05
0.0142729
1.36912e-05
0.0142703
1.44851e-05
0.0142675
1.52704e-05
0.0142646
1.60704e-05
0.0142616
1.69114e-05
0.0142585
1.78226e-05
0.0142552
1.88345e-05
0.0142517
1.99778e-05
0.014248
2.12818e-05
0.0142441
2.27724e-05
0.01424
2.44708e-05
0.0142356
2.63915e-05
0.0142309
2.85411e-05
0.0142259
3.09177e-05
0.0142205
3.35092e-05
0.0142148
3.62946e-05
0.0142087
3.9243e-05
0.0142021
4.23168e-05
0.0141952
4.54707e-05
0.0141878
4.86595e-05
0.0141801
5.18337e-05
0.0141719
5.49517e-05
0.0141633
5.79669e-05
0.0141544
6.08486e-05
0.0141452
6.35541e-05
0.0141356
6.60702e-05
0.0141258
6.83564e-05
0.0141158
7.0426e-05
0.0141055
7.22299e-05
0.0140951
7.38178e-05
0.0140846
7.51111e-05
0.0140739
7.62149e-05
0.0140632
7.69892e-05
0.0140525
7.76324e-05
0.0140417
7.78912e-05
0.014031
7.81262e-05
0.0140204
7.78858e-05
0.0140098
7.78081e-05
0.0139994
7.71011e-05
0.013989
7.68559e-05
0.0139788
7.57143e-05
0.0139687
7.54915e-05
0.0139589
7.39263e-05
0.013949
7.39603e-05
0.0139395
7.19547e-05
0.0139299
7.25269e-05
7.00398e-05
0.0140201
-7.01805e-06
0.0140206
-5.51895e-06
0.0140209
-3.98544e-06
0.014021
-2.42693e-06
0.0140208
-8.53036e-07
0.0140205
7.257e-07
0.0140199
2.2929e-06
0.0140191
3.84264e-06
0.0140181
5.36261e-06
0.0140168
6.84138e-06
0.0140153
8.26894e-06
0.0140137
9.63663e-06
0.0140118
1.09376e-05
0.0140098
1.2168e-05
0.0140075
1.33267e-05
0.0140051
1.44167e-05
0.0140025
1.54449e-05
0.0139998
1.64232e-05
0.0139969
1.73679e-05
0.0139939
1.83005e-05
0.0139907
1.92467e-05
0.0139874
2.02361e-05
0.0139839
2.13016e-05
0.0139803
2.24775e-05
0.0139764
2.37984e-05
0.0139724
2.52974e-05
0.0139682
2.70038e-05
0.0139637
2.89415e-05
0.013959
3.1127e-05
0.013954
3.35679e-05
0.0139486
3.62617e-05
0.0139429
3.9195e-05
0.0139369
4.23439e-05
0.0139304
4.56733e-05
0.0139236
4.91403e-05
0.0139164
5.26936e-05
0.0139088
5.62816e-05
0.0139008
5.98482e-05
0.0138924
6.33459e-05
0.0138836
6.67219e-05
0.0138745
6.99416e-05
0.0138651
7.29566e-05
0.0138554
7.57523e-05
0.0138455
7.8283e-05
0.0138354
8.05644e-05
0.0138251
8.25415e-05
0.0138146
8.42709e-05
0.0138041
8.56647e-05
0.0137934
8.68424e-05
0.0137828
8.76467e-05
0.0137721
8.83025e-05
0.0137615
8.8524e-05
0.0137509
8.87198e-05
0.0137404
8.83793e-05
0.01373
8.82252e-05
0.0137197
8.73612e-05
0.0137095
8.70239e-05
0.0136996
8.56745e-05
0.0136897
8.53714e-05
0.0136801
8.35505e-05
0.0136705
8.35498e-05
0.0136612
8.12391e-05
0.0136519
8.18622e-05
7.90145e-05
0.0137565
-7.69857e-06
0.013757
-5.97959e-06
0.0137572
-4.21974e-06
0.0137572
-2.42958e-06
0.013757
-6.19508e-07
0.0137565
1.19616e-06
0.0137558
3.00307e-06
0.0137548
4.79205e-06
0.0137537
6.54926e-06
0.0137522
8.26197e-06
0.0137506
9.91854e-06
0.0137487
1.1509e-05
0.0137466
1.30254e-05
0.0137443
1.44627e-05
0.0137418
1.58195e-05
0.0137392
1.70984e-05
0.0137363
1.83068e-05
0.0137333
1.94573e-05
0.0137301
2.05676e-05
0.0137267
2.16611e-05
0.0137232
2.2766e-05
0.0137195
2.39152e-05
0.0137157
2.51447e-05
0.0137117
2.64926e-05
0.0137075
2.79974e-05
0.0137031
2.96957e-05
0.0136984
3.16203e-05
0.0136936
3.37976e-05
0.0136885
3.62462e-05
0.0136831
3.89744e-05
0.0136773
4.19796e-05
0.0136713
4.52468e-05
0.0136649
4.87493e-05
0.0136581
5.24477e-05
0.013651
5.62943e-05
0.0136434
6.02316e-05
0.0136355
6.42015e-05
0.0136272
6.81414e-05
0.0136185
7.19982e-05
0.0136096
7.57129e-05
0.0136003
7.9247e-05
0.0135907
8.25466e-05
0.0135808
8.55959e-05
0.0135708
8.83443e-05
0.0135605
9.08097e-05
0.0135501
9.29319e-05
0.0135396
9.47745e-05
0.013529
9.62409e-05
0.0135184
9.74645e-05
0.0135078
9.82716e-05
0.0134972
9.89131e-05
0.0134866
9.90718e-05
0.0134762
9.92033e-05
0.0134658
9.87395e-05
0.0134555
9.84862e-05
0.0134454
9.74455e-05
0.0134355
9.69961e-05
0.0134257
9.54231e-05
0.0134161
9.5023e-05
0.0134067
9.29347e-05
0.0133974
9.28856e-05
0.0133883
9.02621e-05
0.0133793
9.09261e-05
8.77138e-05
0.0134996
-8.32547e-06
0.0135
-6.37441e-06
0.0135002
-4.37526e-06
0.0135001
-2.33966e-06
0.0134997
-2.78494e-07
0.0134991
1.78849e-06
0.0134983
3.85105e-06
0.0134972
5.89566e-06
0.0134958
7.90721e-06
0.0134942
9.87143e-06
0.0134924
1.17751e-05
0.0134903
1.36066e-05
0.0134879
1.53568e-05
0.0134854
1.70198e-05
0.0134826
1.85932e-05
0.0134796
2.00794e-05
0.0134764
2.14857e-05
0.0134731
2.28254e-05
0.0134695
2.41176e-05
0.0134658
2.53871e-05
0.0134619
2.66648e-05
0.0134578
2.7986e-05
0.0134536
2.93902e-05
0.0134491
3.09191e-05
0.0134445
3.26146e-05
0.0134397
3.4517e-05
0.0134347
3.66622e-05
0.0134294
3.90795e-05
0.0134238
4.17893e-05
0.013418
4.48006e-05
0.0134119
4.81108e-05
0.0134054
5.17032e-05
0.0133986
5.55484e-05
0.0133915
5.96032e-05
0.013384
6.38145e-05
0.0133761
6.81189e-05
0.0133678
7.24522e-05
0.0133592
7.67449e-05
0.0133503
8.09385e-05
0.013341
8.49681e-05
0.0133315
8.8791e-05
0.0133217
9.23486e-05
0.0133116
9.56235e-05
0.0133014
9.85608e-05
0.0132911
0.000101181
0.0132806
0.000103418
0.01327
0.000105344
0.0132594
0.000106852
0.0132488
0.000108092
0.0132382
0.000108873
0.0132276
0.000109472
0.0132171
0.000109541
0.0132068
0.000109581
0.0131965
0.00010897
0.0131864
0.000108593
0.0131765
0.000107355
0.0131667
0.000106772
0.0131572
0.000104959
0.0131478
0.000104444
0.0131386
0.000102076
0.0131296
0.000101964
0.0131208
9.90196e-05
0.013112
9.97139e-05
9.61327e-05
0.0132491
-8.89615e-06
0.0132494
-6.69951e-06
0.0132495
-4.44689e-06
0.0132493
-2.15094e-06
0.0132489
1.79527e-07
0.0132481
2.51246e-06
0.0132471
4.8483e-06
0.0132459
7.16678e-06
0.0132443
9.4516e-06
0.0132425
1.16867e-05
0.0132404
1.38572e-05
0.0132381
1.595e-05
0.0132355
1.79546e-05
0.0132326
1.98636e-05
0.0132296
2.16739e-05
0.0132263
2.33873e-05
0.0132227
2.5011e-05
0.013219
2.65588e-05
0.0132151
2.80505e-05
0.0132109
2.95126e-05
0.0132066
3.0978e-05
0.0132021
3.24847e-05
0.0131974
3.40752e-05
0.0131926
3.57945e-05
0.0131875
3.76881e-05
0.0131822
3.97997e-05
0.0131767
4.21683e-05
0.013171
4.48258e-05
0.013165
4.77944e-05
0.0131587
5.10842e-05
0.0131521
5.46922e-05
0.0131452
5.86003e-05
0.013138
6.27765e-05
0.0131304
6.71735e-05
0.0131225
7.17334e-05
0.0131142
7.63867e-05
0.0131056
8.10631e-05
0.0130967
8.56866e-05
0.0130874
9.01931e-05
0.0130779
9.45118e-05
0.013068
9.85964e-05
0.013058
0.000102383
0.0130478
0.000105854
0.0130374
0.000108949
0.0130269
0.000111692
0.0130163
0.000114013
0.0130056
0.000115989
0.012995
0.000117509
0.0129843
0.000118733
0.0129738
0.000119457
0.0129632
0.000119983
0.0129529
0.000119934
0.0129426
0.000119855
0.0129325
0.000119071
0.0129225
0.000118546
0.0129128
0.000117088
0.0129032
0.000116351
0.0128939
0.000114279
0.0128847
0.000113631
0.0128758
0.00011097
0.012867
0.000110781
0.0128585
0.000107507
0.01285
0.000108221
0.000104266
0.0130048
-9.40792e-06
0.0130051
-6.95069e-06
0.0130051
-4.42851e-06
0.0130048
-1.85493e-06
0.0130042
7.56315e-07
0.0130033
3.37925e-06
0.0130022
6.00684e-06
0.0130007
8.61893e-06
0.012999
1.11974e-05
0.0129969
1.37244e-05
0.0129946
1.61834e-05
0.012992
1.85596e-05
0.0129891
2.08406e-05
0.012986
2.30178e-05
0.0129826
2.50871e-05
0.0129789
2.70494e-05
0.012975
2.89117e-05
0.0129709
3.06877e-05
0.0129665
3.23981e-05
0.012962
3.40706e-05
0.0129572
3.574e-05
0.0129522
3.74466e-05
0.0129471
3.92358e-05
0.0129417
4.11556e-05
0.0129361
4.32551e-05
0.0129304
4.5581e-05
0.0129244
4.81756e-05
0.0129181
5.10733e-05
0.0129116
5.4298e-05
0.0129048
5.78609e-05
0.0128978
6.17587e-05
0.0128904
6.5972e-05
0.0128827
7.04661e-05
0.0128747
7.519e-05
0.0128663
8.00808e-05
0.0128577
8.50632e-05
0.0128487
9.00609e-05
0.0128394
9.49912e-05
0.0128298
9.97848e-05
0.0128199
0.000104365
0.0128098
0.000108682
0.0127995
0.000112668
0.0127891
0.000116303
0.0127785
0.000119524
0.0127679
0.000122356
0.0127571
0.000124727
0.0127464
0.00012672
0.0127357
0.000128217
0.012725
0.000129393
0.0127145
0.000130029
0.012704
0.00013045
0.0126937
0.000130253
0.0126835
0.000130027
0.0126735
0.000129043
0.0126637
0.000128344
0.0126542
0.000126644
0.0126448
0.000125729
0.0126357
0.000123382
0.0126268
0.000122582
0.0126181
0.000119615
0.0126096
0.000119334
0.0126013
0.000115721
0.0125931
0.000116443
0.00011211
0.0127666
-9.85841e-06
0.0127668
-7.12444e-06
0.0127667
-4.31564e-06
0.0127663
-1.44641e-06
0.0127656
1.46497e-06
0.0127646
4.39719e-06
0.0127632
7.33727e-06
0.0127616
1.02646e-05
0.0127596
1.3159e-05
0.0127573
1.60009e-05
0.0127548
1.87718e-05
0.0127519
2.14549e-05
0.0127487
2.40363e-05
0.0127452
2.65059e-05
0.0127414
2.8858e-05
0.0127374
3.10925e-05
0.0127331
3.3216e-05
0.0127285
3.5242e-05
0.0127237
3.71917e-05
0.0127187
3.90937e-05
0.0127134
4.09843e-05
0.012708
4.29062e-05
0.0127023
4.49071e-05
0.0126964
4.70381e-05
0.0126903
4.93514e-05
0.012684
5.1897e-05
0.0126775
5.47201e-05
0.0126707
5.78574e-05
0.0126637
6.1335e-05
0.0126563
6.51647e-05
0.0126488
6.93433e-05
0.0126409
7.38499e-05
0.0126327
7.86475e-05
0.0126242
8.36814e-05
0.0126154
8.88839e-05
0.0126063
9.41739e-05
0.0125969
9.9469e-05
0.0125872
0.00010468
0.0125773
0.000109733
0.0125671
0.000114546
0.0125567
0.000119065
0.0125461
0.000123217
0.0125355
0.000126982
0.0125247
0.000130294
0.0125139
0.000133181
0.012503
0.000135566
0.0124922
0.000137542
0.0124814
0.000138981
0.0124708
0.000140074
0.0124602
0.000140588
0.0124498
0.000140873
0.0124395
0.000140498
0.0124295
0.000140095
0.0124196
0.000138884
0.01241
0.000137984
0.0124006
0.000136019
0.0123914
0.000134904
0.0123826
0.000132262
0.0123738
0.000131292
0.0123655
0.000128005
0.0123572
0.000127616
0.0123492
0.000123656
0.0123413
0.000124376
0.000119659
0.0125343
-1.02452e-05
0.0125344
-7.21713e-06
0.0125342
-4.10329e-06
0.0125336
-9.18556e-07
0.0125328
2.31342e-06
0.0125316
5.5758e-06
0.0125301
8.85087e-06
0.0125283
1.21165e-05
0.0125261
1.53509e-05
0.0125235
1.85322e-05
0.0125207
2.164e-05
0.0125175
2.46557e-05
0.0125139
2.75633e-05
0.0125101
3.03509e-05
0.0125059
3.30112e-05
0.0125015
3.55431e-05
0.0124968
3.7952e-05
0.0124917
4.02513e-05
0.0124865
4.24621e-05
0.012481
4.46139e-05
0.0124752
4.67441e-05
0.0124692
4.88973e-05
0.012463
5.11236e-05
0.0124565
5.34769e-05
0.0124499
5.60122e-05
0.012443
5.87827e-05
0.0124359
6.18363e-05
0.0124285
6.52124e-05
0.0124209
6.89387e-05
0.0124131
7.3028e-05
0.0124049
7.7477e-05
0.0123965
8.22638e-05
0.0123878
8.7349e-05
0.0123788
9.26742e-05
0.0123695
9.81672e-05
0.01236
0.000103741
0.0123501
0.000109308
0.01234
0.000114773
0.0123297
0.000120056
0.0123192
0.000125069
0.0123085
0.000129756
0.0122977
0.00013404
0.0122868
0.000137901
0.0122758
0.000141268
0.0122648
0.000144173
0.0122538
0.000146535
0.0122429
0.000148456
0.0122321
0.000149802
0.0122214
0.000150777
0.0122108
0.000151135
0.0122005
0.000151251
0.0121903
0.000150666
0.0121803
0.000150055
0.0121706
0.000148591
0.0121611
0.000147463
0.012152
0.000145209
0.012143
0.000143871
0.0121343
0.000140917
0.0121259
0.000139757
0.0121177
0.000136137
0.0121097
0.000135625
0.0121021
0.000131309
0.0120944
0.000132015
0.000126911
0.0123077
-1.05659e-05
0.0123077
-7.22512e-06
0.0123074
-3.78651e-06
0.0123067
-2.63972e-07
0.0123057
3.30897e-06
0.0123044
6.92453e-06
0.0123027
1.05585e-05
0.0123006
1.41874e-05
0.0122981
1.77873e-05
0.0122953
2.13344e-05
0.0122922
2.48061e-05
0.0122886
2.81815e-05
0.0122848
3.14428e-05
0.0122805
3.45757e-05
0.012276
3.75715e-05
0.0122711
4.04273e-05
0.0122659
4.31475e-05
0.0122604
4.57446e-05
0.0122546
4.82397e-05
0.0122486
5.06627e-05
0.0122423
5.30518e-05
0.0122357
5.54533e-05
0.0122289
5.79192e-05
0.0122219
6.05062e-05
0.0122146
6.32718e-05
0.0122071
6.62722e-05
0.0121994
6.9558e-05
0.0121915
7.31711e-05
0.0121833
7.7141e-05
0.0121748
8.14816e-05
0.0121661
8.61895e-05
0.0121571
9.12416e-05
0.0121479
9.65967e-05
0.0121384
0.000102193
0.0121286
0.000107953
0.0121185
0.000113786
0.0121082
0.000119597
0.0120977
0.000125285
0.012087
0.000130765
0.0120761
0.000135946
0.0120651
0.000140766
0.012054
0.000145147
0.0120429
0.000149065
0.0120317
0.000152449
0.0120205
0.000155333
0.0120094
0.000157635
0.0119984
0.000159463
0.0119875
0.000160678
0.0119768
0.000161498
0.0119663
0.000161666
0.011956
0.000161579
0.0119459
0.000160754
0.011936
0.000159904
0.0119264
0.000158158
0.0119171
0.000156776
0.0119081
0.000154211
0.0118994
0.000152627
0.011891
0.000149341
0.0118827
0.000147972
0.0118749
0.000144005
0.0118671
0.000143357
0.0118598
0.000138675
0.0118524
0.000139357
0.00013386
0.0120866
-1.08178e-05
0.0120865
-7.14428e-06
0.0120861
-3.35959e-06
0.0120853
5.20515e-07
0.0120841
4.46051e-06
0.0120826
8.45344e-06
0.0120807
1.24717e-05
0.0120784
1.649e-05
0.0120757
2.04825e-05
0.0120726
2.44234e-05
0.0120691
2.82875e-05
0.0120653
3.20518e-05
0.012061
3.56958e-05
0.0120564
3.92033e-05
0.0120514
4.25633e-05
0.012046
4.57712e-05
0.0120404
4.883e-05
0.0120344
5.1751e-05
0.012028
5.45548e-05
0.0120214
5.72714e-05
0.0120145
5.99396e-05
0.0120074
6.26069e-05
0.012
6.53273e-05
0.0119923
6.81594e-05
0.0119844
7.11636e-05
0.0119763
7.43986e-05
0.011968
7.79178e-05
0.0119594
8.17655e-05
0.0119505
8.59729e-05
0.0119415
9.05549e-05
0.0119321
9.55084e-05
0.0119226
0.000100809
0.0119128
0.000106415
0.0119027
0.000112259
0.0118924
0.000118261
0.0118818
0.000124325
0.0118711
0.00013035
0.0118601
0.00013623
0.011849
0.000141874
0.0118378
0.000147186
0.0118265
0.000152102
0.0118151
0.00015654
0.0118037
0.000160477
0.0117923
0.000163838
0.0117809
0.000166662
0.0117697
0.000168864
0.0117586
0.00017056
0.0117477
0.000171607
0.0117369
0.000172235
0.0117264
0.000172178
0.0117162
0.000171852
0.0117062
0.000170755
0.0116964
0.000169637
0.011687
0.000167581
0.0116779
0.000165917
0.0116691
0.000163018
0.0116605
0.000161164
0.0116523
0.00015753
0.0116444
0.000155934
0.0116368
0.000151607
0.0116293
0.000150806
0.0116222
0.000145752
0.0116152
0.000146398
0.000140504
0.0118709
-1.09984e-05
0.0118707
-6.97057e-06
0.0118702
-2.81698e-06
0.0118693
1.44132e-06
0.011868
5.77586e-06
0.0118662
1.01715e-05
0.0118641
1.46011e-05
0.0118616
1.9037e-05
0.0118586
2.34511e-05
0.0118552
2.78154e-05
0.0118514
3.21022e-05
0.0118472
3.62859e-05
0.0118425
4.03435e-05
0.0118375
4.42564e-05
0.011832
4.8011e-05
0.0118262
5.16008e-05
0.01182
5.50268e-05
0.0118134
5.82991e-05
0.0118066
6.14373e-05
0.0117994
6.44709e-05
0.0117919
6.74394e-05
0.0117841
7.03907e-05
0.011776
7.33806e-05
0.0117677
7.64695e-05
0.0117591
7.97203e-05
0.0117504
8.31943e-05
0.0117413
8.69474e-05
0.0117321
9.10261e-05
0.0117226
9.54636e-05
0.0117129
0.000100276
0.0117029
0.00010546
0.0116927
0.000110992
0.0116823
0.000116825
0.0116717
0.000122893
0.0116608
0.00012911
0.0116498
0.000135374
0.0116385
0.000141581
0.0116272
0.000147617
0.0116156
0.000153389
0.011604
0.000158794
0.0115924
0.000163768
0.0115807
0.000168223
0.011569
0.000172138
0.0115574
0.000175436
0.0115459
0.000178158
0.0115346
0.000180219
0.0115234
0.000181742
0.0115124
0.000182582
0.0115017
0.000182981
0.0114912
0.000182662
0.011481
0.000182065
0.0114711
0.000180663
0.0114615
0.000179246
0.0114522
0.000176853
0.0114432
0.000174881
0.0114346
0.000171624
0.0114263
0.000169479
0.0114184
0.000165478
0.0114107
0.000163636
0.0114033
0.000158938
0.0113962
0.000157969
0.0113894
0.000152534
0.0113826
0.000153134
0.000146841
0.0116605
-1.1105e-05
0.0116602
-6.70064e-06
0.0116596
-2.1543e-06
0.0116585
2.50789e-06
0.011657
7.26251e-06
0.0116551
1.20886e-05
0.0116527
1.69579e-05
0.0116499
2.1841e-05
0.0116467
2.67074e-05
0.011643
3.15263e-05
0.0116388
3.62678e-05
0.0116342
4.09033e-05
0.0116291
4.54071e-05
0.0116236
4.97577e-05
0.0116177
5.3939e-05
0.0116113
5.79419e-05
0.0116046
6.17654e-05
0.0115975
6.54176e-05
0.01159
6.89169e-05
0.0115822
7.22921e-05
0.011574
7.55825e-05
0.0115656
7.88367e-05
0.0115569
8.21114e-05
0.0115479
8.54689e-05
0.0115386
8.89741e-05
0.0115291
9.26908e-05
0.0115194
9.66773e-05
0.0115094
0.000100982
0.0114993
0.000105641
0.0114889
0.000110671
0.0114783
0.000116069
0.0114674
0.000121811
0.0114564
0.000127848
0.0114452
0.000134112
0.0114338
0.000140514
0.0114222
0.000146946
0.0114105
0.0001533
0.0113987
0.000159456
0.0113867
0.000165316
0.0113747
0.000170775
0.0113628
0.000175765
0.0113508
0.000180195
0.0113389
0.000184045
0.0113271
0.000187237
0.0113154
0.000189815
0.0113039
0.000191694
0.0112927
0.000193003
0.0112817
0.000193596
0.0112709
0.000193727
0.0112605
0.000193111
0.0112503
0.000192208
0.0112405
0.000190471
0.011231
0.000188723
0.0112219
0.000185967
0.0112131
0.00018366
0.0112047
0.000180024
0.0111967
0.000177565
0.011189
0.00017318
0.0111815
0.000171074
0.0111745
0.000165992
0.0111676
0.000164843
0.0111611
0.00015902
0.0111547
0.000159564
0.000152867
0.0114552
-1.11352e-05
0.0114548
-6.33026e-06
0.011454
-1.36538e-06
0.0114528
3.72649e-06
0.0114511
8.92851e-06
0.011449
1.42142e-05
0.0114464
1.95535e-05
0.0114434
2.4915e-05
0.0114398
3.02658e-05
0.0114357
3.55725e-05
0.0114312
4.08022e-05
0.0114262
4.59235e-05
0.0114207
5.09077e-05
0.0114147
5.57301e-05
0.0114083
6.03717e-05
0.0114014
6.48205e-05
0.0113941
6.90729e-05
0.0113864
7.31349e-05
0.0113783
7.70231e-05
0.0113698
8.07654e-05
0.011361
8.44001e-05
0.0113518
8.79763e-05
0.0113424
9.15514e-05
0.0113327
9.51892e-05
0.0113227
9.89563e-05
0.0113125
0.000102919
0.011302
0.000107137
0.0112913
0.000111663
0.0112804
0.000116533
0.0112693
0.000121765
0.0112581
0.000127358
0.0112466
0.000133287
0.0112349
0.000139503
0.0112231
0.000145933
0.0112111
0.000152487
0.011199
0.000159052
0.0111868
0.000165515
0.0111745
0.000171752
0.0111622
0.00017766
0.0111498
0.000183129
0.0111375
0.000188091
0.0111252
0.000192453
0.0111131
0.000196194
0.0111011
0.000199235
0.0110893
0.000201626
0.0110777
0.00020328
0.0110664
0.000204334
0.0110553
0.00020464
0.0110446
0.000204465
0.0110342
0.000203516
0.0110241
0.000202272
0.0110144
0.000200168
0.0110051
0.000198061
0.0109961
0.000194914
0.0109875
0.000192246
0.0109794
0.000188209
0.0109715
0.000185415
0.0109641
0.00018063
0.0109569
0.000178243
0.0109501
0.000172767
0.0109435
0.000171423
0.0109373
0.000165207
0.0109312
0.000165683
0.00015858
0.0112549
-1.10863e-05
0.0112544
-5.85628e-06
0.0112535
-4.43647e-07
0.0112521
5.10375e-06
0.0112502
1.07827e-05
0.0112479
1.65584e-05
0.011245
2.23993e-05
0.0112417
2.8272e-05
0.0112378
3.4141e-05
0.0112334
3.99701e-05
0.0112285
4.57234e-05
0.0112231
5.13663e-05
0.0112171
5.68666e-05
0.0112106
6.21965e-05
0.0112037
6.73334e-05
0.0111962
7.22623e-05
0.0111883
7.69765e-05
0.01118
8.14794e-05
0.0111712
8.57855e-05
0.0111621
8.99209e-05
0.0111525
9.39232e-05
0.0111427
9.78409e-05
0.0111325
0.000101732
0.011122
0.000105661
0.0111113
0.000109697
0.0111003
0.000113908
0.0110891
0.000118356
0.0110776
0.000123095
0.011066
0.000128164
0.0110542
0.000133582
0.0110422
0.000139349
0.01103
0.00014544
0.0110177
0.000151805
0.0110053
0.000158369
0.0109928
0.000165039
0.0109801
0.0001717
0.0109674
0.000178231
0.0109546
0.000184507
0.0109419
0.000190419
0.0109292
0.000195855
0.0109165
0.000200744
0.010904
0.000204992
0.0108916
0.000208578
0.0108794
0.000211424
0.0108674
0.000213582
0.0108557
0.000214967
0.0108444
0.000215724
0.0108333
0.000215703
0.0108226
0.000215184
0.0108122
0.000213865
0.0108022
0.000212248
0.0107927
0.000209746
0.0107835
0.000207249
0.0107747
0.000203685
0.0107663
0.000200633
0.0107584
0.000196173
0.0107507
0.000193024
0.0107436
0.000187824
0.0107367
0.00018514
0.0107302
0.000179259
0.0107239
0.000177707
0.010718
0.000171091
0.0107122
0.00017149
0.00016398
0.0110594
-1.09541e-05
0.0110588
-5.27166e-06
0.0110577
6.09674e-07
0.0110562
6.64818e-06
0.0110541
1.28337e-05
0.0110516
1.91313e-05
0.0110485
2.55072e-05
0.0110448
3.19255e-05
0.0110406
3.83481e-05
0.0110358
4.47359e-05
0.0110305
5.10496e-05
0.0110246
5.72513e-05
0.0110182
6.33052e-05
0.0110112
6.91797e-05
0.0110037
7.48487e-05
0.0109957
8.02932e-05
0.0109871
8.55033e-05
0.0109781
9.04794e-05
0.0109687
9.52332e-05
0.0109588
9.97887e-05
0.0109486
0.000104182
0.0109379
0.000108461
0.010927
0.000112684
0.0109157
0.000116916
0.0109042
0.000121227
0.0108924
0.000125687
0.0108804
0.000130361
0.0108682
0.000135304
0.0108558
0.000140558
0.0108433
0.000146144
0.0108305
0.000152061
0.0108177
0.000158286
0.0108047
0.000164768
0.0107917
0.000171432
0.0107785
0.00017818
0.0107653
0.000184894
0.0107521
0.000191452
0.0107389
0.000197722
0.0107257
0.000203592
0.0107126
0.000208948
0.0106997
0.000213717
0.0106868
0.000217803
0.0106742
0.000221187
0.0106619
0.000223791
0.0106498
0.000225672
0.010638
0.000226743
0.0106266
0.000227161
0.0106155
0.000226773
0.0106048
0.000225871
0.0105945
0.000224148
0.0105847
0.000222123
0.0105752
0.000219193
0.0105662
0.000216279
0.0105576
0.000212273
0.0105494
0.000208811
0.0105417
0.00020391
0.0105343
0.000200385
0.0105274
0.000194755
0.0105208
0.000191758
0.0105146
0.000185463
0.0105086
0.000183691
0.010503
0.000176671
0.0104975
0.000176983
0.000169065
0.0108686