/*--------------------------------*- C++ -*----------------------------------*\
  =========                 |
  \\      /  F ield         | OpenFOAM: The Open Source CFD Toolbox
   \\    /   O peration     | Website:  https://openfoam.org
    \\  /    A nd           | Version:  7
     \\/     M anipulation  |
\*---------------------------------------------------------------------------*/
FoamFile
{
    version     2.0;
    format      ascii;
    class       volVectorField;
    location    "3";
    object      U;
}
// * * * * * * * * * * * * * * * * * * * * * * * * * * * * * * * * * * * * * //

dimensions      [0 1 -1 0 0 0 0];

internalField   nonuniform List<vector> 
344
(
(0.388889 0.00482025 -1.97893e-16)
(0.39099 0.00473999 -1.93033e-16)
(0.393057 0.00466142 -1.85316e-16)
(0.395091 0.00458448 -1.80013e-16)
(0.397093 0.00450914 -1.68338e-16)
(0.399064 0.00443535 -1.53452e-16)
(0.401003 0.00436307 -1.49585e-16)
(0.402912 0.00429227 -1.44794e-16)
(0.404792 0.0042229 -1.40463e-16)
(0.406642 0.00415495 -1.35362e-16)
(0.408463 0.00408837 -1.28485e-16)
(0.410257 0.00402314 -1.21962e-16)
(0.412022 0.00395925 -1.15894e-16)
(0.413761 0.00389666 -1.05488e-16)
(0.415474 0.00383537 -9.29991e-17)
(0.41716 0.00377536 -8.93066e-17)
(0.418821 0.00371661 -8.51866e-17)
(0.420458 0.00365912 -7.74316e-17)
(0.42207 0.00360287 -6.55115e-17)
(0.423658 0.00354786 -6.21913e-17)
(0.20196 0.00986293 -4.54955e-16)
(0.206676 0.0096601 -4.45603e-16)
(0.211299 0.00946164 -4.34179e-16)
(0.215831 0.00926752 -4.32046e-16)
(0.220274 0.00907772 -4.288e-16)
(0.224629 0.00889217 -4.2768e-16)
(0.2289 0.00871082 -4.22025e-16)
(0.233086 0.00853362 -4.19468e-16)
(0.237191 0.0083605 -4.12559e-16)
(0.241217 0.0081914 -4.07778e-16)
(0.245164 0.00802624 -3.97673e-16)
(0.249035 0.00786494 -3.85823e-16)
(0.252831 0.00770745 -3.85775e-16)
(0.256555 0.00755368 -3.83719e-16)
(0.260207 0.00740356 -3.74962e-16)
(0.26379 0.00725701 -3.62562e-16)
(0.267304 0.00711395 -3.61251e-16)
(0.270752 0.00697431 -3.59847e-16)
(0.274136 0.00683801 -3.49548e-16)
(0.277456 0.00670498 -3.37206e-16)
(0.280713 0.00657514 -3.38612e-16)
(0.283911 0.00644841 -3.37965e-16)
(0.287049 0.00632472 -3.33354e-16)
(0.290129 0.00620401 -3.31048e-16)
(0.293153 0.00608619 -3.23094e-16)
(0.296122 0.00597119 -3.17225e-16)
(0.299037 0.00585895 -3.04582e-16)
(0.301899 0.0057494 -2.89273e-16)
(0.30471 0.00564246 -2.87502e-16)
(0.307471 0.00553807 -2.84626e-16)
(0.310183 0.00543617 -2.8389e-16)
(0.312846 0.00533669 -2.78451e-16)
(0.315463 0.00523956 -2.74489e-16)
(0.318034 0.00514472 -2.6649e-16)
(0.32056 0.00505211 -2.62018e-16)
(0.323042 0.00496167 -2.50374e-16)
(0.325482 0.00487334 -2.33146e-16)
(0.32788 0.00478705 -2.32217e-16)
(0.330236 0.00470276 -2.32468e-16)
(0.332553 0.00462039 -2.22649e-16)
(0.334831 0.00453989 -2.06773e-16)
(0.337071 0.00446122 -2.06593e-16)
(0.339273 0.00438431 -2.07604e-16)
(0.341438 0.00430911 -1.9855e-16)
(0.343568 0.00423557 -1.83084e-16)
(0.345662 0.00416363 -1.83918e-16)
(0.347722 0.00409326 -1.85036e-16)
(0.349749 0.00402441 -1.78479e-16)
(0.351743 0.00395702 -1.75197e-16)
(0.353704 0.00389106 -1.68519e-16)
(0.355634 0.00382649 -1.63275e-16)
(0.357532 0.00376326 -1.50802e-16)
(0.359401 0.00370134 -1.33496e-16)
(0.361239 0.0036407 -1.30971e-16)
(0.363049 0.00358129 -1.28258e-16)
(0.36483 0.00352311 -1.27211e-16)
(0.366583 0.0034661 -1.21206e-16)
(0.368308 0.00341026 -1.17517e-16)
(0.370007 0.00335556 -1.1024e-16)
(0.371679 0.00330198 -1.05981e-16)
(0.373326 0.0032495 -9.34001e-17)
(0.374947 0.00319811 -7.91809e-17)
(0.376543 0.00314779 -7.71552e-17)
(0.378115 0.00309854 -7.59476e-17)
(0.379663 0.00305034 -6.66908e-17)
(0.381188 0.00300319 -5.36567e-17)
(0.382691 0.00295708 -5.32249e-17)
(0.171975 0.00809245 -4.09106e-16)
(0.176437 0.0079249 -3.98799e-16)
(0.180809 0.007761 -3.8508e-16)
(0.185095 0.0076007 -3.85617e-16)
(0.189295 0.00744399 -3.83803e-16)
(0.193411 0.00729081 -3.84585e-16)
(0.197446 0.00714112 -3.78373e-16)
(0.201401 0.00699488 -3.7794e-16)
(0.205277 0.00685203 -3.70093e-16)
(0.209078 0.00671251 -3.6727e-16)
(0.212803 0.00657626 -3.55421e-16)
(0.216456 0.00644324 -3.40603e-16)
(0.220037 0.00631336 -3.4435e-16)
(0.223549 0.00618657 -3.45111e-16)
(0.226992 0.00606281 -3.34692e-16)
(0.23037 0.00594202 -3.18287e-16)
(0.233682 0.00582412 -3.21897e-16)
(0.23693 0.00570906 -3.23222e-16)
(0.240117 0.00559676 -3.1161e-16)
(0.243244 0.00548718 -2.96007e-16)
(0.246311 0.00538024 -3.01992e-16)
(0.24932 0.00527588 -3.04064e-16)
(0.252273 0.00517404 -2.99387e-16)
(0.255171 0.00507466 -2.98607e-16)
(0.258015 0.00497768 -2.89874e-16)
(0.260807 0.00488304 -2.86938e-16)
(0.263547 0.00479069 -2.73102e-16)
(0.266238 0.00470055 -2.5294e-16)
(0.268879 0.00461259 -2.55582e-16)
(0.271473 0.00452673 -2.53447e-16)
(0.27402 0.00444293 -2.56099e-16)
(0.276521 0.00436114 -2.48871e-16)
(0.278978 0.00428129 -2.49134e-16)
(0.281391 0.00420333 -2.40056e-16)
(0.283762 0.00412722 -2.37457e-16)
(0.286091 0.00405291 -2.21874e-16)
(0.288379 0.00398033 -2.02757e-16)
(0.290628 0.00390945 -2.04684e-16)
(0.292838 0.00384021 -2.08596e-16)
(0.29501 0.00377257 -1.98213e-16)
(0.297145 0.00370647 -1.78132e-16)
(0.299244 0.00364188 -1.82383e-16)
(0.301308 0.00357875 -1.86282e-16)
(0.303336 0.00351703 -1.75526e-16)
(0.305331 0.00345667 -1.57975e-16)
(0.307292 0.00339765 -1.62483e-16)
(0.309221 0.00333992 -1.65848e-16)
(0.311118 0.00328343 -1.58922e-16)
(0.312984 0.00322817 -1.59536e-16)
(0.314819 0.00317407 -1.51325e-16)
(0.316625 0.00312112 -1.48084e-16)
(0.318401 0.00306928 -1.335e-16)
(0.320149 0.00301852 -1.13128e-16)
(0.321868 0.0029688 -1.1438e-16)
(0.32356 0.00292011 -1.13118e-16)
(0.325225 0.00287242 -1.15106e-16)
(0.326863 0.00282571 -1.0896e-16)
(0.328476 0.00277995 -1.07878e-16)
(0.330063 0.00273513 -9.91122e-17)
(0.331625 0.00269123 -9.65865e-17)
(0.333163 0.00264823 -8.22876e-17)
(0.334677 0.00260613 -6.37156e-17)
(0.336167 0.00256491 -6.65865e-17)
(0.337635 0.00252457 -6.78124e-17)
(0.33908 0.00248509 -5.75175e-17)
(0.340504 0.00244647 -4.16762e-17)
(0.341906 0.0024087 -4.42668e-17)
(0.14414 0.00645094 -3.63962e-16)
(0.14829 0.00631651 -3.52129e-16)
(0.152356 0.00618501 -3.40748e-16)
(0.15634 0.00605643 -3.39213e-16)
(0.160243 0.00593074 -3.38282e-16)
(0.164068 0.00580791 -3.42364e-16)
(0.167816 0.00568789 -3.34221e-16)
(0.171489 0.00557065 -3.37e-16)
(0.175089 0.00545615 -3.2669e-16)
(0.178616 0.00534434 -3.28223e-16)
(0.182074 0.00523517 -3.13601e-16)
(0.185463 0.00512859 -3.01834e-16)
(0.188785 0.00502455 -3.02107e-16)
(0.192041 0.004923 -3.07674e-16)
(0.195234 0.0048239 -2.94617e-16)
(0.198364 0.00472718 -2.82997e-16)
(0.201433 0.00463279 -2.83043e-16)
(0.204443 0.00454069 -2.88533e-16)
(0.207395 0.00445083 -2.74221e-16)
(0.21029 0.00436314 -2.6289e-16)
(0.21313 0.00427758 -2.65287e-16)
(0.215916 0.0041941 -2.72744e-16)
(0.218648 0.00411265 -2.64218e-16)
(0.22133 0.00403317 -2.67555e-16)
(0.223961 0.00395563 -2.56031e-16)
(0.226542 0.00387997 -2.57242e-16)
(0.229076 0.00380615 -2.39695e-16)
(0.231563 0.00373411 -2.25151e-16)
(0.234004 0.00366382 -2.24582e-16)
(0.236401 0.00359522 -2.22263e-16)
(0.238754 0.00352828 -2.30202e-16)
(0.241064 0.00346294 -2.19812e-16)
(0.243333 0.00339917 -2.24661e-16)
(0.245561 0.00333693 -2.1131e-16)
(0.24775 0.00327616 -2.13295e-16)
(0.249899 0.00321684 -1.93853e-16)
(0.252011 0.00315891 -1.80131e-16)
(0.254086 0.00310235 -1.79459e-16)
(0.256124 0.0030471 -1.88153e-16)
(0.258127 0.00299313 -1.73788e-16)
(0.260096 0.00294041 -1.5895e-16)
(0.262031 0.00288889 -1.60263e-16)
(0.263933 0.00283855 -1.677e-16)
(0.265802 0.00278933 -1.53365e-16)
(0.26764 0.00274122 -1.40536e-16)
(0.269447 0.00269417 -1.4114e-16)
(0.271224 0.00264816 -1.50044e-16)
(0.272971 0.00260315 -1.39739e-16)
(0.274689 0.00255911 -1.45831e-16)
(0.276379 0.00251601 -1.33411e-16)
(0.278041 0.00247383 -1.34918e-16)
(0.279676 0.00243253 -1.16653e-16)
(0.281284 0.0023921 -1.00558e-16)
(0.282866 0.00235251 -1.00034e-16)
(0.284422 0.00231374 -9.77172e-17)
(0.285954 0.00227577 -1.04968e-16)
(0.28746 0.00223858 -9.59511e-17)
(0.288943 0.00220215 -9.81142e-17)
(0.290402 0.00216647 -8.66071e-17)
(0.291838 0.00213152 -8.93215e-17)
(0.293252 0.0020973 -7.22403e-17)
(0.294643 0.00206379 -5.70194e-17)
(0.296013 0.00203098 -5.73266e-17)
(0.297361 0.00199887 -6.27528e-17)
(0.298689 0.00196745 -4.9133e-17)
(0.299996 0.00193671 -3.67928e-17)
(0.301283 0.00190665 -3.70366e-17)
(0.118415 0.0049558 -3.12989e-16)
(0.122195 0.00485186 -3.03978e-16)
(0.125899 0.00475021 -2.9595e-16)
(0.129527 0.00465083 -2.93231e-16)
(0.13308 0.0045537 -2.91925e-16)
(0.136562 0.00445879 -2.94509e-16)
(0.139972 0.00436607 -2.89114e-16)
(0.143313 0.00427551 -2.8906e-16)
(0.146587 0.00418708 -2.82397e-16)
(0.149795 0.00410074 -2.81489e-16)
(0.152938 0.00401645 -2.69991e-16)
(0.156018 0.00393417 -2.6184e-16)
(0.159037 0.00385387 -2.60321e-16)
(0.161995 0.00377551 -2.63008e-16)
(0.164895 0.00369903 -2.53756e-16)
(0.167737 0.00362442 -2.44878e-16)
(0.170524 0.00355161 -2.43823e-16)
(0.173256 0.00348058 -2.4675e-16)
(0.175935 0.00341128 -2.37056e-16)
(0.178561 0.00334367 -2.27885e-16)
(0.181137 0.00327771 -2.28547e-16)
(0.183663 0.00321336 -2.3284e-16)
(0.186141 0.00315059 -2.27151e-16)
(0.188572 0.00308935 -2.29033e-16)
(0.190956 0.00302961 -2.20192e-16)
(0.193296 0.00297132 -2.19913e-16)
(0.195591 0.00291446 -2.06832e-16)
(0.197844 0.00285898 -1.94948e-16)
(0.200055 0.00280486 -1.92289e-16)
(0.202225 0.00275204 -1.91003e-16)
(0.204355 0.00270051 -1.95794e-16)
(0.206446 0.00265023 -1.8943e-16)
(0.208499 0.00260115 -1.91607e-16)
(0.210515 0.00255326 -1.82494e-16)
(0.212494 0.00250651 -1.80706e-16)
(0.214438 0.00246087 -1.67569e-16)
(0.216348 0.00241632 -1.5659e-16)
(0.218224 0.00237282 -1.55014e-16)
(0.220067 0.00233034 -1.58762e-16)
(0.221877 0.00228885 -1.49008e-16)
(0.223656 0.00224833 -1.38777e-16)
(0.225404 0.00220873 -1.37738e-16)
(0.227122 0.00217005 -1.40999e-16)
(0.228811 0.00213223 -1.31699e-16)
(0.230471 0.00209527 -1.22284e-16)
(0.232102 0.00205913 -1.20826e-16)
(0.233706 0.00202379 -1.26053e-16)
(0.235283 0.00198922 -1.19815e-16)
(0.236834 0.00195541 -1.21139e-16)
(0.238359 0.00192232 -1.13964e-16)
(0.239858 0.00188994 -1.12782e-16)
(0.241333 0.00185825 -9.88578e-17)
(0.242783 0.00182722 -8.7558e-17)
(0.24421 0.00179683 -8.51222e-17)
(0.245613 0.00176708 -8.25087e-17)
(0.246994 0.00173794 -8.79926e-17)
(0.248352 0.00170941 -8.16935e-17)
(0.249689 0.00168146 -8.18377e-17)
(0.251004 0.00165409 -7.34995e-17)
(0.252298 0.00162728 -7.45715e-17)
(0.253571 0.00160103 -6.22037e-17)
(0.254824 0.00157532 -4.97849e-17)
(0.256058 0.00155016 -4.80348e-17)
(0.257272 0.00152553 -5.04387e-17)
(0.258468 0.00150142 -4.10953e-17)
(0.259645 0.00147784 -3.12275e-17)
(0.260803 0.00145479 -3.03102e-17)
(0.0947577 0.00362426 -2.634e-16)
(0.098112 0.00354778 -2.56212e-16)
(0.101397 0.00347299 -2.49788e-16)
(0.104614 0.00339988 -2.47403e-16)
(0.107765 0.00332844 -2.46464e-16)
(0.110851 0.00325864 -2.47447e-16)
(0.113873 0.00319046 -2.43103e-16)
(0.116833 0.00312388 -2.4278e-16)
(0.119733 0.00305887 -2.37812e-16)
(0.122574 0.00299541 -2.36312e-16)
(0.125357 0.00293347 -2.26514e-16)
(0.128084 0.00287301 -2.20601e-16)
(0.130755 0.00281402 -2.19014e-16)
(0.133373 0.00275646 -2.20764e-16)
(0.135939 0.00270029 -2.1333e-16)
(0.138453 0.0026455 -2.06799e-16)
(0.140917 0.00259204 -2.05242e-16)
(0.143332 0.0025399 -2.05944e-16)
(0.1457 0.00248903 -1.98859e-16)
(0.148021 0.00243941 -1.92892e-16)
(0.150297 0.00239102 -1.92316e-16)
(0.152529 0.00234381 -1.94139e-16)
(0.154718 0.00229776 -1.9036e-16)
(0.156864 0.00225284 -1.91642e-16)
(0.158969 0.00220903 -1.85068e-16)
(0.161035 0.00216629 -1.83989e-16)
(0.163061 0.0021246 -1.7375e-16)
(0.165048 0.00208394 -1.64921e-16)
(0.166999 0.00204427 -1.6163e-16)
(0.168913 0.00200556 -1.60653e-16)
(0.170791 0.00196781 -1.62895e-16)
(0.172635 0.00193096 -1.58822e-16)
(0.174445 0.00189502 -1.59538e-16)
(0.176222 0.00185994 -1.5269e-16)
(0.177967 0.0018257 -1.51475e-16)
(0.17968 0.00179229 -1.4074e-16)
(0.181362 0.00175967 -1.32119e-16)
(0.183015 0.00172783 -1.29358e-16)
(0.184638 0.00169674 -1.31713e-16)
(0.186232 0.00166638 -1.24207e-16)
(0.187798 0.00163673 -1.17468e-16)
(0.189337 0.00160776 -1.15285e-16)
(0.19085 0.00157946 -1.16409e-16)
(0.192336 0.00155181 -1.09244e-16)
(0.193796 0.00152478 -1.02305e-16)
(0.195232 0.00149836 -1.00624e-16)
(0.196643 0.00147252 -1.03892e-16)
(0.19803 0.00144725 -9.94829e-17)
(0.199393 0.00142254 -1.00504e-16)
(0.200734 0.00139836 -9.44213e-17)
(0.202052 0.00137469 -9.38169e-17)
(0.203349 0.00135154 -8.29638e-17)
(0.204624 0.00132887 -7.42276e-17)
(0.205877 0.00130667 -7.06039e-17)
(0.207111 0.00128494 -6.86013e-17)
(0.208324 0.00126366 -7.27596e-17)
)
;

boundaryField
{
    inlet
    {
        type            uniformFixedValue;
        uniformValue    constant (1 0 0);
        value           nonuniform 0();
    }
    outlet
    {
        type            pressureInletOutletVelocity;
        value           nonuniform 0();
    }
    wall
    {
        type            fixedValue;
        value           nonuniform 0();
    }
    wedge1
    {
        type            wedge;
    }
    wedge2
    {
        type            wedge;
    }
    axis
    {
        type            empty;
    }
    procBoundary40to34
    {
        type            processor;
        value           nonuniform List<vector> 
68
(
(0.428562 0.00566504 -2.17431e-16)
(0.430749 0.00557126 -2.10569e-16)
(0.432902 0.00547944 -2.0352e-16)
(0.435022 0.00538952 -1.96888e-16)
(0.437108 0.00530146 -1.86088e-16)
(0.439161 0.0052152 -1.72043e-16)
(0.441183 0.0051307 -1.68221e-16)
(0.443173 0.00504791 -1.60576e-16)
(0.445133 0.00496679 -1.5431e-16)
(0.447062 0.00488731 -1.48688e-16)
(0.448962 0.00480944 -1.41825e-16)
(0.450834 0.00473315 -1.34475e-16)
(0.452676 0.0046584 -1.26752e-16)
(0.454491 0.00458518 -1.17493e-16)
(0.456279 0.00451346 -1.05325e-16)
(0.45804 0.00444324 -1.02083e-16)
(0.459775 0.00437449 -9.66193e-17)
(0.461484 0.00430721 -8.80472e-17)
(0.463168 0.00424137 -7.61668e-17)
(0.464828 0.00417699 -7.28217e-17)
(0.234134 0.0117448 -5.01313e-16)
(0.239047 0.011505 -4.92216e-16)
(0.243863 0.0112702 -4.81806e-16)
(0.248587 0.0110406 -4.7833e-16)
(0.253218 0.0108161 -4.74114e-16)
(0.25776 0.0105965 -4.70415e-16)
(0.262215 0.0103819 -4.65539e-16)
(0.266583 0.0101721 -4.61299e-16)
(0.270868 0.0099672 -4.54203e-16)
(0.27507 0.00976698 -4.48843e-16)
(0.279192 0.00957139 -4.39508e-16)
(0.283236 0.00938036 -4.29189e-16)
(0.287203 0.0091938 -4.2668e-16)
(0.291094 0.00901163 -4.23584e-16)
(0.294913 0.00883374 -4.15969e-16)
(0.298659 0.00866006 -4.03627e-16)
(0.302336 0.00849049 -4.00383e-16)
(0.305944 0.00832494 -3.97326e-16)
(0.309485 0.00816333 -3.87404e-16)
(0.31296 0.00800557 -3.76606e-16)
(0.316372 0.00785157 -3.76124e-16)
(0.319721 0.00770123 -3.72199e-16)
(0.323009 0.00755449 -3.68258e-16)
(0.326237 0.00741124 -3.63745e-16)
(0.329407 0.0072714 -3.55899e-16)
(0.33252 0.0071349 -3.49169e-16)
(0.335577 0.00700165 -3.38298e-16)
(0.338579 0.00687156 -3.24572e-16)
(0.341529 0.00674457 -3.20212e-16)
(0.344426 0.00662058 -3.15956e-16)
(0.347273 0.00649952 -3.12414e-16)
(0.35007 0.00638132 -3.05976e-16)
(0.352818 0.0062659 -3.01511e-16)
(0.355519 0.00615319 -2.93844e-16)
(0.358173 0.00604311 -2.87689e-16)
(0.360782 0.00593559 -2.76308e-16)
(0.363347 0.00583055 -2.63279e-16)
(0.365868 0.00572794 -2.58807e-16)
(0.368347 0.00562767 -2.5722e-16)
(0.370784 0.00552969 -2.48486e-16)
(0.37318 0.00543392 -2.34932e-16)
(0.375537 0.0053403 -2.32843e-16)
(0.377855 0.00524876 -2.29838e-16)
(0.380135 0.00515925 -2.20539e-16)
(0.382377 0.0050717 -2.08499e-16)
(0.384583 0.00498606 -2.06426e-16)
(0.386753 0.00490226 -2.04363e-16)
(0.386753 0.00490226 -2.04363e-16)
)
;
    }
    procBoundary40to35
    {
        type            processor;
        value           uniform (0.425223 0.00349409 -5.78684e-17);
    }
    procBoundary40to39
    {
        type            processor;
        value           nonuniform List<vector> 4((0.197149 0.0100702 -4.59589e-16) (0.167422 0.00826366 -4.12216e-16) (0.139904 0.00658833 -3.64076e-16) (0.114555 0.00506203 -3.14582e-16));
    }
    procBoundary40to41
    {
        type            processor;
        value           nonuniform List<vector> 4((0.384171 0.00291201 -5.09928e-17) (0.343286 0.00237179 -4.58878e-17) (0.302551 0.00187727 -4.28278e-17) (0.261945 0.00143225 -3.33246e-17));
    }
    procBoundary40to45
    {
        type            processor;
        value           uniform (0.0913324 0.00370245 -2.64617e-16);
    }
    procBoundary40to46
    {
        type            processor;
        value           nonuniform List<vector> 
68
(
(0.209517 0.00124282 -6.79476e-17)
(0.210691 0.00122241 -6.66991e-17)
(0.211846 0.00120242 -6.0238e-17)
(0.212982 0.00118284 -6.11276e-17)
(0.2141 0.00116367 -5.01285e-17)
(0.215201 0.0011449 -4.18691e-17)
(0.216283 0.00112652 -3.97524e-17)
(0.217349 0.00110854 -4.08454e-17)
(0.218398 0.00109094 -3.37194e-17)
(0.219431 0.00107372 -2.59649e-17)
(0.220448 0.00105688 -2.55068e-17)
(0.0731266 0.00247316 -2.14265e-16)
(0.0759977 0.00242065 -2.08146e-16)
(0.0788087 0.00236931 -2.03729e-16)
(0.0815611 0.00231913 -2.01563e-16)
(0.0842561 0.0022701 -2.00194e-16)
(0.086895 0.00222221 -2.01354e-16)
(0.0894792 0.00217544 -1.97035e-16)
(0.0920099 0.00212977 -1.97811e-16)
(0.0944883 0.00208518 -1.92107e-16)
(0.0969157 0.00204166 -1.9193e-16)
(0.0992932 0.00199919 -1.83709e-16)
(0.101622 0.00195775 -1.79517e-16)
(0.103904 0.00191732 -1.77619e-16)
(0.106139 0.00187787 -1.79301e-16)
(0.108328 0.00183938 -1.72554e-16)
(0.110474 0.00180184 -1.68073e-16)
(0.112577 0.00176523 -1.65896e-16)
(0.114637 0.00172951 -1.67152e-16)
(0.116657 0.00169468 -1.61169e-16)
(0.118637 0.0016607 -1.57504e-16)
(0.120577 0.00162757 -1.56275e-16)
(0.12248 0.00159525 -1.57499e-16)
(0.124345 0.00156374 -1.53663e-16)
(0.126174 0.001533 -1.56089e-16)
(0.127968 0.00150302 -1.4824e-16)
(0.129727 0.00147379 -1.48555e-16)
(0.131453 0.00144527 -1.4021e-16)
(0.133145 0.00141746 -1.33481e-16)
(0.134806 0.00139033 -1.31247e-16)
(0.136435 0.00136387 -1.30228e-16)
(0.138034 0.00133805 -1.33e-16)
(0.139603 0.00131287 -1.27569e-16)
(0.141143 0.0012883 -1.29428e-16)
(0.142655 0.00126433 -1.22284e-16)
(0.144139 0.00124094 -1.2322e-16)
(0.145596 0.00121811 -1.13941e-16)
(0.147027 0.00119583 -1.08188e-16)
(0.148431 0.00117408 -1.03604e-16)
(0.149811 0.00115285 -1.07252e-16)
(0.151166 0.00113212 -9.96869e-17)
(0.152497 0.00111188 -9.48186e-17)
(0.153805 0.00109211 -9.27761e-17)
(0.155089 0.00107279 -9.47587e-17)
(0.156352 0.00105392 -8.77266e-17)
(0.157592 0.00103548 -8.27069e-17)
(0.158811 0.00101745 -8.12414e-17)
(0.160009 0.000999832 -8.3753e-17)
(0.161187 0.000982599 -7.91949e-17)
(0.162344 0.000965745 -8.193e-17)
(0.163482 0.000949257 -7.53056e-17)
(0.164601 0.000933126 -7.57817e-17)
(0.165701 0.000917338 -6.58909e-17)
(0.166783 0.000901886 -6.00758e-17)
(0.167847 0.000886759 -5.72953e-17)
(0.168893 0.000871947 -5.52159e-17)
(0.209517 0.00124282 -6.79476e-17)
(0.169922 0.000857443 -5.7427e-17)
)
;
    }
}


// ************************************************************************* //
