/*--------------------------------*- C++ -*----------------------------------*\
  =========                 |
  \\      /  F ield         | OpenFOAM: The Open Source CFD Toolbox
   \\    /   O peration     | Website:  https://openfoam.org
    \\  /    A nd           | Version:  7
     \\/     M anipulation  |
\*---------------------------------------------------------------------------*/
FoamFile
{
    version     2.0;
    format      ascii;
    class       surfaceScalarField;
    location    "6.6";
    object      phi;
}
// * * * * * * * * * * * * * * * * * * * * * * * * * * * * * * * * * * * * * //

dimensions      [0 3 -1 0 0 0 0];

internalField   nonuniform List<scalar> 
60711
(
2.55637e-06
-7.4011e-11
2.55659e-06
-2.20983e-10
2.55696e-06
-3.66892e-10
2.55747e-06
-5.11679e-10
2.55812e-06
-6.54777e-10
2.55892e-06
-7.95323e-10
2.55985e-06
-9.32524e-10
2.56092e-06
-1.06577e-09
2.56211e-06
-1.19459e-09
2.56343e-06
-1.31858e-09
2.56487e-06
-1.4374e-09
2.56642e-06
-1.55072e-09
2.56808e-06
-1.65827e-09
2.56984e-06
-1.75981e-09
2.57169e-06
-1.85516e-09
2.57364e-06
-1.94419e-09
2.57566e-06
-2.02683e-09
2.57777e-06
-2.10307e-09
2.57994e-06
-2.17294e-09
2.58218e-06
-2.23651e-09
2.58447e-06
-2.29389e-09
2.58682e-06
-2.34523e-09
2.58921e-06
-2.39072e-09
2.59164e-06
-2.43056e-09
2.5941e-06
-2.46498e-09
2.5966e-06
-2.49422e-09
2.59911e-06
-2.51856e-09
2.60165e-06
-2.53826e-09
2.60421e-06
-2.5536e-09
2.60677e-06
-2.56487e-09
2.60934e-06
-2.57235e-09
2.61192e-06
-2.57631e-09
2.6145e-06
-2.57705e-09
2.61707e-06
-2.57481e-09
2.61964e-06
-2.56987e-09
2.6222e-06
-2.56248e-09
2.62476e-06
-2.55287e-09
2.6273e-06
-2.54128e-09
2.62983e-06
-2.52792e-09
2.63234e-06
-2.51298e-09
2.63484e-06
-2.49667e-09
2.63731e-06
-2.47916e-09
2.63978e-06
-2.46062e-09
2.64222e-06
-2.44119e-09
2.64464e-06
-2.42101e-09
2.64704e-06
-2.40022e-09
2.64942e-06
-2.37893e-09
2.65177e-06
-2.35724e-09
2.65411e-06
-2.33526e-09
2.65642e-06
-2.31307e-09
2.65871e-06
-2.29075e-09
2.66098e-06
-2.26836e-09
2.66323e-06
-2.24598e-09
2.66545e-06
-2.22365e-09
2.66765e-06
-2.20143e-09
2.66983e-06
-2.17935e-09
2.67199e-06
-2.15746e-09
2.67412e-06
-2.13578e-09
2.67624e-06
-2.11436e-09
2.67833e-06
-2.0932e-09
2.6804e-06
-2.07232e-09
2.68246e-06
-2.05176e-09
2.68449e-06
-2.03151e-09
2.6865e-06
-2.0116e-09
2.68849e-06
-1.99202e-09
2.69046e-06
-1.97279e-09
2.69242e-06
-1.95391e-09
2.69435e-06
-1.93539e-09
2.69627e-06
-1.91722e-09
2.69817e-06
-1.8994e-09
2.70005e-06
-1.88194e-09
2.70192e-06
-1.86483e-09
2.70377e-06
-1.84806e-09
2.7056e-06
-1.83164e-09
2.70741e-06
-1.81557e-09
2.70921e-06
-1.79983e-09
2.711e-06
-1.78441e-09
2.71277e-06
-1.76933e-09
2.71452e-06
-1.75456e-09
2.71626e-06
-1.74011e-09
2.71799e-06
-1.72596e-09
2.7197e-06
-1.71211e-09
2.7214e-06
-1.69855e-09
2.72308e-06
-1.68528e-09
2.72475e-06
-1.67229e-09
2.72641e-06
-1.65958e-09
2.72806e-06
-1.64712e-09
2.7297e-06
-1.63493e-09
2.73132e-06
-1.62299e-09
2.73293e-06
-1.6113e-09
2.73453e-06
-1.59984e-09
2.73612e-06
-1.58862e-09
2.7377e-06
-1.57763e-09
2.73926e-06
-1.56685e-09
2.74082e-06
-1.5563e-09
2.74237e-06
-1.54595e-09
2.7439e-06
-1.5358e-09
2.74543e-06
-1.52585e-09
2.74694e-06
-1.51609e-09
2.74845e-06
-1.50653e-09
2.74995e-06
-1.49714e-09
2.75144e-06
-1.48793e-09
2.75291e-06
-1.47889e-09
2.75438e-06
-1.47002e-09
2.75585e-06
-1.46131e-09
2.7573e-06
-1.45276e-09
2.75874e-06
-1.44437e-09
2.76018e-06
-1.43612e-09
2.76161e-06
-1.42802e-09
2.76303e-06
-1.42007e-09
2.76444e-06
-1.41225e-09
2.76584e-06
-1.40456e-09
2.76724e-06
-1.39701e-09
2.76863e-06
-1.38959e-09
2.77001e-06
-1.38229e-09
2.77139e-06
-1.37511e-09
2.77276e-06
-1.36805e-09
2.77412e-06
-1.36111e-09
2.77547e-06
-1.35428e-09
2.77682e-06
-1.34756e-09
2.77816e-06
-1.34095e-09
2.77949e-06
-1.33444e-09
2.78082e-06
-1.32804e-09
2.78214e-06
-1.32174e-09
2.78346e-06
-1.31553e-09
2.78477e-06
-1.30943e-09
2.78607e-06
-1.30341e-09
2.78737e-06
-1.29749e-09
2.78866e-06
-1.29167e-09
2.78995e-06
-1.28593e-09
2.79123e-06
-1.28027e-09
2.7925e-06
-1.27471e-09
2.79377e-06
-1.26923e-09
2.79504e-06
-1.26383e-09
2.79629e-06
-1.25852e-09
2.79755e-06
-1.25329e-09
2.7988e-06
-1.24813e-09
2.80004e-06
-1.24306e-09
2.80128e-06
-1.23806e-09
2.80251e-06
-1.23315e-09
2.80374e-06
-1.22831e-09
2.80496e-06
-1.22354e-09
2.80618e-06
-1.21885e-09
2.80739e-06
-1.21424e-09
2.8086e-06
-1.2097e-09
2.80981e-06
-1.20524e-09
2.81101e-06
-1.20085e-09
2.81221e-06
-1.19654e-09
2.8134e-06
-1.1923e-09
2.81459e-06
-1.18814e-09
2.81577e-06
-1.18405e-09
2.81695e-06
-1.18004e-09
2.81813e-06
-1.17611e-09
2.8193e-06
-1.17225e-09
2.82047e-06
-1.16847e-09
2.82163e-06
-1.16478e-09
2.82279e-06
-1.16116e-09
2.82395e-06
-1.15762e-09
2.82511e-06
-1.15417e-09
2.82626e-06
-1.15081e-09
2.8274e-06
-1.14753e-09
2.82855e-06
-1.14434e-09
2.82969e-06
-1.14125e-09
2.83083e-06
-1.13824e-09
2.83196e-06
-1.13534e-09
2.8331e-06
-1.13253e-09
2.83423e-06
-1.12983e-09
2.83535e-06
-1.12724e-09
2.83648e-06
-1.12476e-09
2.8376e-06
-1.12239e-09
2.83872e-06
-1.12014e-09
2.83984e-06
-1.11802e-09
2.84095e-06
-1.11602e-09
2.84207e-06
-1.11416e-09
2.84318e-06
-1.11245e-09
2.84429e-06
-1.11088e-09
2.8454e-06
-1.10946e-09
2.84651e-06
-1.10821e-09
2.84762e-06
-1.10713e-09
2.84872e-06
-1.10622e-09
2.84983e-06
-1.1055e-09
2.85093e-06
-1.10498e-09
2.85204e-06
-1.10467e-09
2.85314e-06
-1.10458e-09
2.85425e-06
-1.10471e-09
2.85535e-06
-1.10509e-09
2.85646e-06
-1.10573e-09
2.85756e-06
-1.10663e-09
2.85867e-06
-1.10783e-09
2.85978e-06
-1.10932e-09
2.86089e-06
-1.11114e-09
2.86201e-06
-1.11329e-09
2.86312e-06
-1.1158e-09
2.86424e-06
-1.11869e-09
2.86536e-06
-1.12198e-09
2.86649e-06
-1.12569e-09
2.86762e-06
-1.12986e-09
2.86875e-06
-1.1345e-09
2.86989e-06
-1.13965e-09
2.87104e-06
-1.14534e-09
2.87219e-06
-1.1516e-09
2.87335e-06
-1.15846e-09
2.87451e-06
-1.16596e-09
2.87569e-06
-1.17414e-09
2.87687e-06
-1.18305e-09
2.87806e-06
-1.19272e-09
2.87927e-06
-1.2032e-09
2.88048e-06
-1.21455e-09
2.88171e-06
-1.22681e-09
2.88295e-06
-1.24005e-09
2.8842e-06
-1.25432e-09
2.88547e-06
-1.26969e-09
2.88676e-06
-1.28622e-09
2.88806e-06
-1.30399e-09
2.88939e-06
-1.32307e-09
2.89073e-06
-1.34355e-09
2.89209e-06
-1.36551e-09
2.89348e-06
-1.38904e-09
2.8949e-06
-1.41424e-09
2.89634e-06
-1.44121e-09
2.89781e-06
-1.47006e-09
2.89931e-06
-1.5009e-09
2.90084e-06
-1.53387e-09
2.90241e-06
-1.56908e-09
2.90402e-06
-1.60667e-09
2.90567e-06
-1.64679e-09
2.90736e-06
-1.68959e-09
2.90909e-06
-1.73524e-09
2.91088e-06
-1.7839e-09
2.91271e-06
-1.83575e-09
2.9146e-06
-1.89099e-09
2.91655e-06
-1.94982e-09
2.91856e-06
-2.01244e-09
2.92064e-06
-2.07908e-09
2.92279e-06
-2.14998e-09
2.92502e-06
-2.22538e-09
2.92732e-06
-2.30554e-09
2.92971e-06
-2.39073e-09
2.9322e-06
-2.48125e-09
2.93477e-06
-2.57737e-09
2.93745e-06
-2.67943e-09
2.94024e-06
-2.78774e-09
2.94314e-06
-2.90265e-09
2.94617e-06
-3.0245e-09
2.94932e-06
-3.15366e-09
2.95261e-06
-3.29052e-09
2.95605e-06
-3.43547e-09
2.95964e-06
-3.58892e-09
2.96339e-06
-3.75127e-09
2.96731e-06
-3.92297e-09
2.97142e-06
-4.10444e-09
2.97571e-06
-4.29614e-09
2.98021e-06
-4.49851e-09
2.98492e-06
-4.71201e-09
2.98986e-06
-4.9371e-09
2.99503e-06
-5.17423e-09
3.00046e-06
-5.42385e-09
3.00614e-06
-5.6864e-09
3.01211e-06
-5.9623e-09
3.01836e-06
-6.25196e-09
3.02491e-06
-6.55575e-09
3.03179e-06
-6.87402e-09
3.03899e-06
-7.20707e-09
3.04655e-06
-7.55517e-09
3.05447e-06
-7.91851e-09
3.06277e-06
-8.29723e-09
3.07146e-06
-8.69139e-09
3.08056e-06
-9.10095e-09
3.09008e-06
-9.52578e-09
3.10005e-06
-9.96564e-09
3.11047e-06
-1.04202e-08
3.12136e-06
-1.08888e-08
3.13273e-06
-1.1371e-08
3.1446e-06
-1.18659e-08
3.15697e-06
-1.23725e-08
3.16986e-06
-1.28896e-08
3.18327e-06
-1.34158e-08
3.19722e-06
-1.39496e-08
3.21171e-06
-1.44892e-08
3.22674e-06
-1.50327e-08
3.24232e-06
-1.55777e-08
3.25844e-06
-1.61219e-08
3.27511e-06
-1.66627e-08
3.2923e-06
-1.71972e-08
3.31003e-06
-1.77225e-08
3.32826e-06
-1.82355e-08
3.34699e-06
-1.87328e-08
3.36621e-06
-1.92112e-08
3.38587e-06
-1.96671e-08
3.40597e-06
-2.00973e-08
3.42647e-06
-2.04982e-08
3.44734e-06
-2.08666e-08
3.46853e-06
-2.11992e-08
3.49003e-06
-2.14931e-08
3.51177e-06
-2.17453e-08
3.53373e-06
-2.19535e-08
3.55584e-06
-2.21154e-08
3.57807e-06
-2.22292e-08
3.60036e-06
-2.22936e-08
-2.23075e-08
3.62267e-06
7.66911e-06
-2.95626e-10
7.66977e-06
-8.84423e-10
7.67088e-06
-1.47147e-09
7.67242e-06
-2.05233e-09
7.67439e-06
-2.62499e-09
7.67678e-06
-3.18703e-09
7.67958e-06
-3.73589e-09
7.68279e-06
-4.26923e-09
7.68638e-06
-4.78502e-09
7.69034e-06
-5.28152e-09
7.69466e-06
-5.75725e-09
7.69932e-06
-6.21087e-09
7.7043e-06
-6.64129e-09
7.70959e-06
-7.04757e-09
7.71516e-06
-7.42901e-09
7.72101e-06
-7.78513e-09
7.72709e-06
-8.11565e-09
7.73341e-06
-8.42051e-09
7.73994e-06
-8.69982e-09
7.74666e-06
-8.95388e-09
7.75355e-06
-9.18316e-09
7.76059e-06
-9.38826e-09
7.76777e-06
-9.56991e-09
7.77507e-06
-9.72893e-09
7.78247e-06
-9.86625e-09
7.78996e-06
-9.98287e-09
7.79752e-06
-1.00799e-08
7.80514e-06
-1.01583e-08
7.8128e-06
-1.02193e-08
7.8205e-06
-1.0264e-08
7.82822e-06
-1.02935e-08
7.83596e-06
-1.03091e-08
7.84369e-06
-1.03116e-08
7.85142e-06
-1.03024e-08
7.85913e-06
-1.02823e-08
7.86682e-06
-1.02525e-08
7.87448e-06
-1.02137e-08
7.88211e-06
-1.01671e-08
7.88969e-06
-1.01134e-08
7.89723e-06
-1.00535e-08
7.90472e-06
-9.98802e-09
7.91216e-06
-9.91778e-09
7.91955e-06
-9.84342e-09
7.92687e-06
-9.76553e-09
7.93413e-06
-9.68468e-09
7.94134e-06
-9.60138e-09
7.94847e-06
-9.51609e-09
7.95554e-06
-9.42924e-09
7.96255e-06
-9.34121e-09
7.96949e-06
-9.25236e-09
7.97636e-06
-9.16299e-09
7.98317e-06
-9.07338e-09
7.9899e-06
-8.98378e-09
7.99658e-06
-8.89441e-09
8.00318e-06
-8.80547e-09
8.00972e-06
-8.71713e-09
8.01619e-06
-8.62953e-09
8.0226e-06
-8.5428e-09
8.02894e-06
-8.45706e-09
8.03522e-06
-8.3724e-09
8.04143e-06
-8.2889e-09
8.04759e-06
-8.20663e-09
8.05368e-06
-8.12564e-09
8.05972e-06
-8.04597e-09
8.06569e-06
-7.96766e-09
8.07161e-06
-7.89074e-09
8.07747e-06
-7.81522e-09
8.08328e-06
-7.74112e-09
8.08903e-06
-7.66843e-09
8.09473e-06
-7.59717e-09
8.10037e-06
-7.52732e-09
8.10597e-06
-7.45888e-09
8.11151e-06
-7.39183e-09
8.11701e-06
-7.32617e-09
8.12245e-06
-7.26186e-09
8.12785e-06
-7.19891e-09
8.1332e-06
-7.13727e-09
8.13851e-06
-7.07693e-09
8.14377e-06
-7.01787e-09
8.14899e-06
-6.96006e-09
8.15417e-06
-6.90348e-09
8.15931e-06
-6.84809e-09
8.1644e-06
-6.79388e-09
8.16946e-06
-6.7408e-09
8.17448e-06
-6.68885e-09
8.17945e-06
-6.63799e-09
8.18439e-06
-6.58819e-09
8.1893e-06
-6.53943e-09
8.19417e-06
-6.49168e-09
8.199e-06
-6.44491e-09
8.2038e-06
-6.3991e-09
8.20857e-06
-6.35422e-09
8.2133e-06
-6.31026e-09
8.218e-06
-6.26717e-09
8.22267e-06
-6.22494e-09
8.22731e-06
-6.18355e-09
8.23191e-06
-6.14297e-09
8.23649e-06
-6.10319e-09
8.24104e-06
-6.06417e-09
8.24556e-06
-6.0259e-09
8.25005e-06
-5.98836e-09
8.25451e-06
-5.95152e-09
8.25895e-06
-5.91537e-09
8.26336e-06
-5.8799e-09
8.26774e-06
-5.84507e-09
8.2721e-06
-5.81088e-09
8.27643e-06
-5.7773e-09
8.28074e-06
-5.74433e-09
8.28503e-06
-5.71194e-09
8.28929e-06
-5.68011e-09
8.29352e-06
-5.64884e-09
8.29774e-06
-5.61811e-09
8.30193e-06
-5.58791e-09
8.3061e-06
-5.55822e-09
8.31024e-06
-5.52902e-09
8.31437e-06
-5.50032e-09
8.31847e-06
-5.47208e-09
8.32255e-06
-5.44432e-09
8.32662e-06
-5.417e-09
8.33066e-06
-5.39012e-09
8.33468e-06
-5.36368e-09
8.33869e-06
-5.33766e-09
8.34267e-06
-5.31205e-09
8.34664e-06
-5.28684e-09
8.35058e-06
-5.26203e-09
8.35451e-06
-5.23761e-09
8.35842e-06
-5.21356e-09
8.36231e-06
-5.18988e-09
8.36619e-06
-5.16657e-09
8.37004e-06
-5.14362e-09
8.37389e-06
-5.12102e-09
8.37771e-06
-5.09876e-09
8.38152e-06
-5.07684e-09
8.38531e-06
-5.05525e-09
8.38908e-06
-5.034e-09
8.39284e-06
-5.01307e-09
8.39659e-06
-4.99246e-09
8.40032e-06
-4.97217e-09
8.40403e-06
-4.95219e-09
8.40773e-06
-4.93252e-09
8.41142e-06
-4.91315e-09
8.41509e-06
-4.8941e-09
8.41874e-06
-4.87534e-09
8.42239e-06
-4.85689e-09
8.42601e-06
-4.83874e-09
8.42963e-06
-4.82089e-09
8.43323e-06
-4.80334e-09
8.43682e-06
-4.78608e-09
8.4404e-06
-4.76913e-09
8.44396e-06
-4.75248e-09
8.44752e-06
-4.73613e-09
8.45106e-06
-4.72009e-09
8.45458e-06
-4.70435e-09
8.4581e-06
-4.68893e-09
8.46161e-06
-4.67382e-09
8.4651e-06
-4.65902e-09
8.46858e-06
-4.64455e-09
8.47206e-06
-4.63041e-09
8.47552e-06
-4.6166e-09
8.47897e-06
-4.60314e-09
8.48241e-06
-4.59003e-09
8.48585e-06
-4.57727e-09
8.48927e-06
-4.56488e-09
8.49268e-06
-4.55287e-09
8.49609e-06
-4.54124e-09
8.49949e-06
-4.53002e-09
8.50288e-06
-4.51921e-09
8.50626e-06
-4.50883e-09
8.50963e-06
-4.49889e-09
8.513e-06
-4.48942e-09
8.51636e-06
-4.48042e-09
8.51971e-06
-4.47192e-09
8.52306e-06
-4.46393e-09
8.5264e-06
-4.45649e-09
8.52974e-06
-4.44961e-09
8.53307e-06
-4.44332e-09
8.5364e-06
-4.43765e-09
8.53973e-06
-4.43263e-09
8.54305e-06
-4.42828e-09
8.54637e-06
-4.42465e-09
8.54968e-06
-4.42177e-09
8.553e-06
-4.41967e-09
8.55631e-06
-4.41841e-09
8.55962e-06
-4.41801e-09
8.56294e-06
-4.41854e-09
8.56625e-06
-4.42004e-09
8.56957e-06
-4.42256e-09
8.57289e-06
-4.42616e-09
8.57621e-06
-4.43091e-09
8.57954e-06
-4.43686e-09
8.58287e-06
-4.44409e-09
8.58621e-06
-4.45267e-09
8.58956e-06
-4.46268e-09
8.59291e-06
-4.47421e-09
8.59628e-06
-4.48734e-09
8.59966e-06
-4.50216e-09
8.60305e-06
-4.51879e-09
8.60645e-06
-4.53732e-09
8.60987e-06
-4.55788e-09
8.6133e-06
-4.58058e-09
8.61676e-06
-4.60556e-09
8.62023e-06
-4.63295e-09
8.62373e-06
-4.6629e-09
8.62725e-06
-4.69557e-09
8.6308e-06
-4.73112e-09
8.63437e-06
-4.76974e-09
8.63798e-06
-4.8116e-09
8.64162e-06
-4.85691e-09
8.6453e-06
-4.90589e-09
8.64902e-06
-4.95875e-09
8.65278e-06
-5.01574e-09
8.65659e-06
-5.07712e-09
8.66045e-06
-5.14315e-09
8.66436e-06
-5.21412e-09
8.66833e-06
-5.29034e-09
8.67235e-06
-5.37213e-09
8.67645e-06
-5.45983e-09
8.68061e-06
-5.55381e-09
8.68485e-06
-5.65446e-09
8.68917e-06
-5.76219e-09
8.69358e-06
-5.87743e-09
8.69808e-06
-6.00064e-09
8.70268e-06
-6.1323e-09
8.70738e-06
-6.27295e-09
8.7122e-06
-6.42311e-09
8.71714e-06
-6.58338e-09
8.7222e-06
-6.75436e-09
8.7274e-06
-6.9367e-09
8.73275e-06
-7.13108e-09
8.73825e-06
-7.33823e-09
8.74392e-06
-7.5589e-09
8.74976e-06
-7.7939e-09
8.7558e-06
-8.04407e-09
8.76203e-06
-8.31031e-09
8.76847e-06
-8.59356e-09
8.77514e-06
-8.89479e-09
8.78205e-06
-9.21505e-09
8.78921e-06
-9.55543e-09
8.79665e-06
-9.91706e-09
8.80437e-06
-1.03011e-08
8.8124e-06
-1.07089e-08
8.82076e-06
-1.11417e-08
8.82946e-06
-1.16008e-08
8.83852e-06
-1.20877e-08
8.84797e-06
-1.26038e-08
8.85783e-06
-1.31507e-08
8.86812e-06
-1.37299e-08
8.87888e-06
-1.43431e-08
8.89012e-06
-1.4992e-08
8.90187e-06
-1.56781e-08
8.91417e-06
-1.64034e-08
8.92705e-06
-1.71696e-08
8.94053e-06
-1.79785e-08
8.95465e-06
-1.88318e-08
8.96944e-06
-1.97316e-08
8.98495e-06
-2.06795e-08
9.0012e-06
-2.16774e-08
9.01824e-06
-2.27271e-08
9.03611e-06
-2.38301e-08
9.05484e-06
-2.49883e-08
9.07449e-06
-2.6203e-08
9.09509e-06
-2.74758e-08
9.11669e-06
-2.88077e-08
9.13934e-06
-3.01999e-08
9.16307e-06
-3.16532e-08
9.18794e-06
-3.31682e-08
9.214e-06
-3.4745e-08
9.24128e-06
-3.63836e-08
9.26984e-06
-3.80834e-08
9.29972e-06
-3.98435e-08
9.33096e-06
-4.16626e-08
9.36361e-06
-4.35384e-08
9.39771e-06
-4.54686e-08
9.43329e-06
-4.74497e-08
9.47039e-06
-4.94779e-08
9.50905e-06
-5.15485e-08
9.54929e-06
-5.3656e-08
9.59114e-06
-5.57941e-08
9.6346e-06
-5.79557e-08
9.67971e-06
-6.01328e-08
9.72644e-06
-6.23166e-08
9.77482e-06
-6.44974e-08
9.82482e-06
-6.66647e-08
9.87643e-06
-6.88072e-08
9.92962e-06
-7.09131e-08
9.98436e-06
-7.29696e-08
1.00406e-05
-7.49637e-08
1.00983e-05
-7.6882e-08
1.01573e-05
-7.87107e-08
1.02176e-05
-8.04359e-08
1.02792e-05
-8.2044e-08
1.03418e-05
-8.35216e-08
1.04055e-05
-8.48558e-08
1.047e-05
-8.60345e-08
1.05353e-05
-8.70463e-08
1.06013e-05
-8.78812e-08
1.06677e-05
-8.85303e-08
1.07344e-05
-8.89866e-08
1.08014e-05
-8.92442e-08
-8.92995e-08
1.08684e-05
1.27819e-05
-6.66682e-10
1.2783e-05
-1.99504e-09
1.27848e-05
-3.32001e-09
1.27874e-05
-4.63104e-09
1.27907e-05
-5.92276e-09
1.27947e-05
-7.18989e-09
1.27994e-05
-8.42713e-09
1.28047e-05
-9.62941e-09
1.28107e-05
-1.07922e-08
1.28174e-05
-1.19114e-08
1.28246e-05
-1.29835e-08
1.28324e-05
-1.40057e-08
1.28407e-05
-1.49752e-08
1.28496e-05
-1.58902e-08
1.28589e-05
-1.6749e-08
1.28687e-05
-1.75506e-08
1.28788e-05
-1.82943e-08
1.28894e-05
-1.898e-08
1.29003e-05
-1.9608e-08
1.29115e-05
-2.0179e-08
1.2923e-05
-2.0694e-08
1.29348e-05
-2.11545e-08
1.29468e-05
-2.15621e-08
1.2959e-05
-2.19186e-08
1.29714e-05
-2.22263e-08
1.29839e-05
-2.24873e-08
1.29965e-05
-2.2704e-08
1.30092e-05
-2.2879e-08
1.3022e-05
-2.30147e-08
1.30348e-05
-2.31138e-08
1.30477e-05
-2.31788e-08
1.30606e-05
-2.32123e-08
1.30735e-05
-2.32167e-08
1.30864e-05
-2.31945e-08
1.30993e-05
-2.31481e-08
1.31121e-05
-2.30796e-08
1.31249e-05
-2.29913e-08
1.31376e-05
-2.28853e-08
1.31503e-05
-2.27634e-08
1.31628e-05
-2.26275e-08
1.31753e-05
-2.24793e-08
1.31877e-05
-2.23204e-08
1.32e-05
-2.21523e-08
1.32123e-05
-2.19764e-08
1.32244e-05
-2.17938e-08
1.32364e-05
-2.16057e-08
1.32483e-05
-2.14133e-08
1.32601e-05
-2.12174e-08
1.32717e-05
-2.10189e-08
1.32833e-05
-2.08185e-08
1.32948e-05
-2.06171e-08
1.33061e-05
-2.04152e-08
1.33173e-05
-2.02133e-08
1.33284e-05
-2.00119e-08
1.33394e-05
-1.98116e-08
1.33503e-05
-1.96126e-08
1.33611e-05
-1.94154e-08
1.33718e-05
-1.92201e-08
1.33824e-05
-1.90271e-08
1.33928e-05
-1.88365e-08
1.34032e-05
-1.86485e-08
1.34135e-05
-1.84633e-08
1.34236e-05
-1.8281e-08
1.34337e-05
-1.81017e-08
1.34436e-05
-1.79255e-08
1.34535e-05
-1.77524e-08
1.34633e-05
-1.75825e-08
1.34729e-05
-1.74157e-08
1.34825e-05
-1.72522e-08
1.3492e-05
-1.70919e-08
1.35014e-05
-1.69347e-08
1.35107e-05
-1.67807e-08
1.352e-05
-1.66299e-08
1.35291e-05
-1.64822e-08
1.35382e-05
-1.63375e-08
1.35472e-05
-1.61959e-08
1.35561e-05
-1.60572e-08
1.3565e-05
-1.59215e-08
1.35737e-05
-1.57887e-08
1.35824e-05
-1.56586e-08
1.35911e-05
-1.55313e-08
1.35996e-05
-1.54068e-08
1.36081e-05
-1.52848e-08
1.36165e-05
-1.51654e-08
1.36249e-05
-1.50486e-08
1.36332e-05
-1.49342e-08
1.36414e-05
-1.48222e-08
1.36496e-05
-1.47125e-08
1.36577e-05
-1.46051e-08
1.36658e-05
-1.44999e-08
1.36738e-05
-1.43969e-08
1.36817e-05
-1.42959e-08
1.36896e-05
-1.4197e-08
1.36974e-05
-1.41001e-08
1.37052e-05
-1.40051e-08
1.37129e-05
-1.3912e-08
1.37206e-05
-1.38208e-08
1.37282e-05
-1.37313e-08
1.37358e-05
-1.36435e-08
1.37434e-05
-1.35574e-08
1.37508e-05
-1.3473e-08
1.37583e-05
-1.33901e-08
1.37657e-05
-1.33088e-08
1.3773e-05
-1.3229e-08
1.37803e-05
-1.31507e-08
1.37876e-05
-1.30738e-08
1.37948e-05
-1.29982e-08
1.3802e-05
-1.29241e-08
1.38091e-05
-1.28512e-08
1.38162e-05
-1.27796e-08
1.38233e-05
-1.27093e-08
1.38303e-05
-1.26402e-08
1.38373e-05
-1.25722e-08
1.38442e-05
-1.25054e-08
1.38512e-05
-1.24398e-08
1.3858e-05
-1.23752e-08
1.38649e-05
-1.23117e-08
1.38717e-05
-1.22492e-08
1.38784e-05
-1.21878e-08
1.38852e-05
-1.21273e-08
1.38919e-05
-1.20678e-08
1.38986e-05
-1.20093e-08
1.39052e-05
-1.19517e-08
1.39118e-05
-1.1895e-08
1.39184e-05
-1.18392e-08
1.39249e-05
-1.17842e-08
1.39314e-05
-1.17301e-08
1.39379e-05
-1.16769e-08
1.39444e-05
-1.16244e-08
1.39508e-05
-1.15728e-08
1.39572e-05
-1.15219e-08
1.39636e-05
-1.14719e-08
1.39699e-05
-1.14226e-08
1.39763e-05
-1.1374e-08
1.39826e-05
-1.13262e-08
1.39888e-05
-1.12791e-08
1.39951e-05
-1.12327e-08
1.40013e-05
-1.11871e-08
1.40075e-05
-1.11421e-08
1.40136e-05
-1.10979e-08
1.40198e-05
-1.10543e-08
1.40259e-05
-1.10114e-08
1.4032e-05
-1.09692e-08
1.40381e-05
-1.09277e-08
1.40441e-05
-1.08869e-08
1.40501e-05
-1.08467e-08
1.40561e-05
-1.08072e-08
1.40621e-05
-1.07684e-08
1.40681e-05
-1.07303e-08
1.4074e-05
-1.06928e-08
1.40799e-05
-1.0656e-08
1.40858e-05
-1.06199e-08
1.40917e-05
-1.05845e-08
1.40976e-05
-1.05498e-08
1.41034e-05
-1.05158e-08
1.41092e-05
-1.04825e-08
1.4115e-05
-1.04499e-08
1.41208e-05
-1.04181e-08
1.41266e-05
-1.0387e-08
1.41324e-05
-1.03567e-08
1.41381e-05
-1.03272e-08
1.41438e-05
-1.02985e-08
1.41495e-05
-1.02706e-08
1.41552e-05
-1.02435e-08
1.41609e-05
-1.02174e-08
1.41665e-05
-1.01921e-08
1.41722e-05
-1.01678e-08
1.41778e-05
-1.01444e-08
1.41835e-05
-1.0122e-08
1.41891e-05
-1.01007e-08
1.41947e-05
-1.00804e-08
1.42003e-05
-1.00612e-08
1.42058e-05
-1.00432e-08
1.42114e-05
-1.00264e-08
1.4217e-05
-1.00109e-08
1.42225e-05
-9.99675e-09
1.42281e-05
-9.98395e-09
1.42336e-05
-9.97261e-09
1.42391e-05
-9.96279e-09
1.42447e-05
-9.95457e-09
1.42502e-05
-9.94803e-09
1.42557e-05
-9.94326e-09
1.42612e-05
-9.94035e-09
1.42668e-05
-9.9394e-09
1.42723e-05
-9.94052e-09
1.42778e-05
-9.94381e-09
1.42833e-05
-9.94941e-09
1.42889e-05
-9.95743e-09
1.42944e-05
-9.96802e-09
1.42999e-05
-9.98133e-09
1.43055e-05
-9.99749e-09
1.43111e-05
-1.00167e-08
1.43166e-05
-1.00391e-08
1.43222e-05
-1.00649e-08
1.43278e-05
-1.00943e-08
1.43335e-05
-1.01275e-08
1.43391e-05
-1.01648e-08
1.43448e-05
-1.02064e-08
1.43505e-05
-1.02524e-08
1.43562e-05
-1.03033e-08
1.4362e-05
-1.03594e-08
1.43677e-05
-1.04208e-08
1.43736e-05
-1.0488e-08
1.43794e-05
-1.05612e-08
1.43853e-05
-1.0641e-08
1.43913e-05
-1.07276e-08
1.43973e-05
-1.08215e-08
1.44034e-05
-1.09232e-08
1.44095e-05
-1.10331e-08
1.44157e-05
-1.11517e-08
1.4422e-05
-1.12796e-08
1.44283e-05
-1.14173e-08
1.44347e-05
-1.15655e-08
1.44412e-05
-1.17248e-08
1.44478e-05
-1.18958e-08
1.44545e-05
-1.20794e-08
1.44614e-05
-1.22762e-08
1.44683e-05
-1.24872e-08
1.44754e-05
-1.27131e-08
1.44825e-05
-1.29549e-08
1.44899e-05
-1.32135e-08
1.44974e-05
-1.34901e-08
1.4505e-05
-1.37857e-08
1.45129e-05
-1.41014e-08
1.45209e-05
-1.44385e-08
1.45291e-05
-1.47982e-08
1.45375e-05
-1.51821e-08
1.45462e-05
-1.55914e-08
1.45551e-05
-1.60278e-08
1.45642e-05
-1.64928e-08
1.45736e-05
-1.69883e-08
1.45834e-05
-1.75159e-08
1.45934e-05
-1.80776e-08
1.46038e-05
-1.86753e-08
1.46145e-05
-1.93113e-08
1.46256e-05
-1.99877e-08
1.46371e-05
-2.07068e-08
1.4649e-05
-2.14711e-08
1.46614e-05
-2.22831e-08
1.46742e-05
-2.31456e-08
1.46875e-05
-2.40613e-08
1.47014e-05
-2.50332e-08
1.47159e-05
-2.60643e-08
1.4731e-05
-2.71579e-08
1.47467e-05
-2.83171e-08
1.47631e-05
-2.95455e-08
1.47802e-05
-3.08466e-08
1.47981e-05
-3.2224e-08
1.48168e-05
-3.36816e-08
1.48363e-05
-3.52231e-08
1.48568e-05
-3.68526e-08
1.48782e-05
-3.8574e-08
1.49006e-05
-4.03916e-08
1.49241e-05
-4.23092e-08
1.49487e-05
-4.43312e-08
1.49744e-05
-4.64617e-08
1.50015e-05
-4.87046e-08
1.50298e-05
-5.1064e-08
1.50595e-05
-5.35438e-08
1.50907e-05
-5.61476e-08
1.51234e-05
-5.8879e-08
1.51576e-05
-6.1741e-08
1.51935e-05
-6.47366e-08
1.52312e-05
-6.7868e-08
1.52707e-05
-7.11373e-08
1.53121e-05
-7.45457e-08
1.53554e-05
-7.80938e-08
1.54008e-05
-8.17814e-08
1.54483e-05
-8.56075e-08
1.54981e-05
-8.95699e-08
1.55501e-05
-9.36656e-08
1.56044e-05
-9.789e-08
1.56612e-05
-1.02237e-07
1.57204e-05
-1.06701e-07
1.57822e-05
-1.11271e-07
1.58466e-05
-1.15937e-07
1.59137e-05
-1.20688e-07
1.59834e-05
-1.25508e-07
1.60558e-05
-1.30383e-07
1.6131e-05
-1.35294e-07
1.62089e-05
-1.40221e-07
1.62895e-05
-1.45142e-07
1.63729e-05
-1.50034e-07
1.64589e-05
-1.54871e-07
1.65477e-05
-1.59626e-07
1.6639e-05
-1.64271e-07
1.67328e-05
-1.68776e-07
1.6829e-05
-1.73111e-07
1.69275e-05
-1.77244e-07
1.70282e-05
-1.81144e-07
1.7131e-05
-1.8478e-07
1.72356e-05
-1.88122e-07
1.73419e-05
-1.91139e-07
1.74496e-05
-1.93806e-07
1.75587e-05
-1.96095e-07
1.76688e-05
-1.97985e-07
1.77797e-05
-1.99454e-07
1.78912e-05
-2.00487e-07
1.8003e-05
-2.01071e-07
-2.01197e-07
1.81149e-05
1.78946e-05
-1.18962e-09
1.78962e-05
-3.55991e-09
1.78988e-05
-5.92414e-09
1.79024e-05
-8.26367e-09
1.7907e-05
-1.05683e-08
1.79127e-05
-1.28285e-08
1.79193e-05
-1.50348e-08
1.79268e-05
-1.71785e-08
1.79353e-05
-1.92513e-08
1.79446e-05
-2.12462e-08
1.79548e-05
-2.31568e-08
1.79658e-05
-2.49777e-08
1.79775e-05
-2.67044e-08
1.79899e-05
-2.83333e-08
1.80031e-05
-2.98615e-08
1.80168e-05
-3.12873e-08
1.80311e-05
-3.26096e-08
1.8046e-05
-3.38281e-08
1.80613e-05
-3.49435e-08
1.80771e-05
-3.5957e-08
1.80933e-05
-3.68706e-08
1.81098e-05
-3.76868e-08
1.81266e-05
-3.84085e-08
1.81438e-05
-3.90393e-08
1.81611e-05
-3.95828e-08
1.81787e-05
-4.00433e-08
1.81964e-05
-4.04249e-08
1.82142e-05
-4.07323e-08
1.82322e-05
-4.09698e-08
1.82502e-05
-4.11422e-08
1.82683e-05
-4.1254e-08
1.82864e-05
-4.13097e-08
1.83045e-05
-4.1314e-08
1.83226e-05
-4.1271e-08
1.83406e-05
-4.11851e-08
1.83586e-05
-4.10602e-08
1.83765e-05
-4.09002e-08
1.83943e-05
-4.07088e-08
1.8412e-05
-4.04894e-08
1.84297e-05
-4.02453e-08
1.84472e-05
-3.99795e-08
1.84645e-05
-3.96948e-08
1.84818e-05
-3.9394e-08
1.84989e-05
-3.90793e-08
1.85158e-05
-3.8753e-08
1.85327e-05
-3.84171e-08
1.85493e-05
-3.80736e-08
1.85658e-05
-3.7724e-08
1.85822e-05
-3.73699e-08
1.85984e-05
-3.70127e-08
1.86144e-05
-3.66537e-08
1.86303e-05
-3.62938e-08
1.8646e-05
-3.59342e-08
1.86616e-05
-3.55756e-08
1.8677e-05
-3.52189e-08
1.86922e-05
-3.48647e-08
1.87073e-05
-3.45136e-08
1.87223e-05
-3.4166e-08
1.87371e-05
-3.38225e-08
1.87517e-05
-3.34834e-08
1.87662e-05
-3.31491e-08
1.87806e-05
-3.28197e-08
1.87948e-05
-3.24954e-08
1.88089e-05
-3.21766e-08
1.88228e-05
-3.18632e-08
1.88366e-05
-3.15554e-08
1.88503e-05
-3.12533e-08
1.88638e-05
-3.09568e-08
1.88772e-05
-3.06661e-08
1.88905e-05
-3.03811e-08
1.89037e-05
-3.01017e-08
1.89167e-05
-2.9828e-08
1.89297e-05
-2.95599e-08
1.89425e-05
-2.92974e-08
1.89552e-05
-2.90403e-08
1.89678e-05
-2.87886e-08
1.89803e-05
-2.85421e-08
1.89926e-05
-2.83009e-08
1.90049e-05
-2.80648e-08
1.90171e-05
-2.78337e-08
1.90292e-05
-2.76075e-08
1.90411e-05
-2.73862e-08
1.9053e-05
-2.71694e-08
1.90648e-05
-2.69573e-08
1.90765e-05
-2.67497e-08
1.90881e-05
-2.65464e-08
1.90997e-05
-2.63473e-08
1.91111e-05
-2.61524e-08
1.91224e-05
-2.59616e-08
1.91337e-05
-2.57747e-08
1.91449e-05
-2.55916e-08
1.9156e-05
-2.54122e-08
1.91671e-05
-2.52365e-08
1.9178e-05
-2.50643e-08
1.91889e-05
-2.48955e-08
1.91997e-05
-2.473e-08
1.92105e-05
-2.45679e-08
1.92212e-05
-2.44088e-08
1.92318e-05
-2.42529e-08
1.92423e-05
-2.40999e-08
1.92528e-05
-2.39499e-08
1.92632e-05
-2.38026e-08
1.92736e-05
-2.36582e-08
1.92838e-05
-2.35163e-08
1.92941e-05
-2.33771e-08
1.93042e-05
-2.32405e-08
1.93143e-05
-2.31063e-08
1.93244e-05
-2.29744e-08
1.93344e-05
-2.2845e-08
1.93443e-05
-2.27178e-08
1.93542e-05
-2.25928e-08
1.9364e-05
-2.24699e-08
1.93738e-05
-2.23492e-08
1.93835e-05
-2.22305e-08
1.93932e-05
-2.21138e-08
1.94028e-05
-2.1999e-08
1.94124e-05
-2.18862e-08
1.94219e-05
-2.17752e-08
1.94314e-05
-2.1666e-08
1.94409e-05
-2.15585e-08
1.94502e-05
-2.14528e-08
1.94596e-05
-2.13488e-08
1.94689e-05
-2.12464e-08
1.94781e-05
-2.11456e-08
1.94873e-05
-2.10464e-08
1.94965e-05
-2.09487e-08
1.95056e-05
-2.08526e-08
1.95147e-05
-2.07579e-08
1.95237e-05
-2.06647e-08
1.95327e-05
-2.05729e-08
1.95417e-05
-2.04826e-08
1.95506e-05
-2.03936e-08
1.95595e-05
-2.03059e-08
1.95684e-05
-2.02196e-08
1.95772e-05
-2.01346e-08
1.95859e-05
-2.00509e-08
1.95947e-05
-1.99685e-08
1.96034e-05
-1.98873e-08
1.9612e-05
-1.98074e-08
1.96207e-05
-1.97288e-08
1.96293e-05
-1.96513e-08
1.96378e-05
-1.95751e-08
1.96464e-05
-1.95001e-08
1.96549e-05
-1.94263e-08
1.96633e-05
-1.93537e-08
1.96718e-05
-1.92823e-08
1.96802e-05
-1.92121e-08
1.96885e-05
-1.91431e-08
1.96969e-05
-1.90753e-08
1.97052e-05
-1.90087e-08
1.97135e-05
-1.89433e-08
1.97217e-05
-1.88791e-08
1.973e-05
-1.88161e-08
1.97382e-05
-1.87544e-08
1.97464e-05
-1.86939e-08
1.97545e-05
-1.86347e-08
1.97626e-05
-1.85768e-08
1.97707e-05
-1.85202e-08
1.97788e-05
-1.84649e-08
1.97869e-05
-1.8411e-08
1.97949e-05
-1.83585e-08
1.98029e-05
-1.83074e-08
1.98109e-05
-1.82578e-08
1.98189e-05
-1.82097e-08
1.98268e-05
-1.81631e-08
1.98347e-05
-1.81182e-08
1.98426e-05
-1.80749e-08
1.98505e-05
-1.80332e-08
1.98584e-05
-1.79934e-08
1.98663e-05
-1.79554e-08
1.98741e-05
-1.79193e-08
1.98819e-05
-1.78852e-08
1.98897e-05
-1.78531e-08
1.98975e-05
-1.78232e-08
1.99053e-05
-1.77955e-08
1.99131e-05
-1.77702e-08
1.99208e-05
-1.77473e-08
1.99286e-05
-1.77271e-08
1.99364e-05
-1.77095e-08
1.99441e-05
-1.76948e-08
1.99518e-05
-1.7683e-08
1.99596e-05
-1.76744e-08
1.99673e-05
-1.76691e-08
1.9975e-05
-1.76672e-08
1.99827e-05
-1.7669e-08
1.99905e-05
-1.76747e-08
1.99982e-05
-1.76845e-08
2.00059e-05
-1.76985e-08
2.00137e-05
-1.77171e-08
2.00215e-05
-1.77405e-08
2.00292e-05
-1.7769e-08
2.0037e-05
-1.78029e-08
2.00448e-05
-1.78425e-08
2.00526e-05
-1.78881e-08
2.00605e-05
-1.794e-08
2.00684e-05
-1.79987e-08
2.00763e-05
-1.80646e-08
2.00842e-05
-1.81381e-08
2.00922e-05
-1.82196e-08
2.01002e-05
-1.83097e-08
2.01082e-05
-1.84088e-08
2.01163e-05
-1.85175e-08
2.01245e-05
-1.86364e-08
2.01327e-05
-1.87661e-08
2.01409e-05
-1.89073e-08
2.01493e-05
-1.90606e-08
2.01577e-05
-1.92269e-08
2.01662e-05
-1.9407e-08
2.01747e-05
-1.96016e-08
2.01834e-05
-1.98116e-08
2.01921e-05
-2.00381e-08
2.0201e-05
-2.0282e-08
2.021e-05
-2.05445e-08
2.02191e-05
-2.08266e-08
2.02283e-05
-2.11296e-08
2.02377e-05
-2.14548e-08
2.02472e-05
-2.18035e-08
2.02569e-05
-2.21772e-08
2.02668e-05
-2.25774e-08
2.02768e-05
-2.30058e-08
2.02871e-05
-2.34641e-08
2.02975e-05
-2.39541e-08
2.03082e-05
-2.44778e-08
2.03192e-05
-2.50372e-08
2.03304e-05
-2.56345e-08
2.03418e-05
-2.6272e-08
2.03536e-05
-2.69522e-08
2.03657e-05
-2.76776e-08
2.03781e-05
-2.8451e-08
2.03909e-05
-2.92752e-08
2.04041e-05
-3.01532e-08
2.04176e-05
-3.10883e-08
2.04316e-05
-3.20838e-08
2.04461e-05
-3.31434e-08
2.04611e-05
-3.42706e-08
2.04766e-05
-3.54696e-08
2.04926e-05
-3.67443e-08
2.05092e-05
-3.80992e-08
2.05265e-05
-3.95389e-08
2.05444e-05
-4.10679e-08
2.0563e-05
-4.26915e-08
2.05824e-05
-4.44147e-08
2.06026e-05
-4.6243e-08
2.06236e-05
-4.81821e-08
2.06455e-05
-5.02378e-08
2.06684e-05
-5.24162e-08
2.06923e-05
-5.47238e-08
2.07172e-05
-5.71669e-08
2.07433e-05
-5.97523e-08
2.07706e-05
-6.24868e-08
2.07991e-05
-6.53777e-08
2.08289e-05
-6.84319e-08
2.08602e-05
-7.16568e-08
2.0893e-05
-7.50598e-08
2.09273e-05
-7.86483e-08
2.09632e-05
-8.24296e-08
2.10009e-05
-8.64111e-08
2.10405e-05
-9.05999e-08
2.10819e-05
-9.50028e-08
2.11254e-05
-9.96267e-08
2.1171e-05
-1.04478e-07
2.12188e-05
-1.09562e-07
2.1269e-05
-1.14884e-07
2.13216e-05
-1.20448e-07
2.13767e-05
-1.26258e-07
2.14345e-05
-1.32317e-07
2.1495e-05
-1.38625e-07
2.15584e-05
-1.45182e-07
2.16248e-05
-1.51987e-07
2.16942e-05
-1.59037e-07
2.17669e-05
-1.66325e-07
2.18429e-05
-1.73844e-07
2.19222e-05
-1.81584e-07
2.2005e-05
-1.89532e-07
2.20914e-05
-1.97672e-07
2.21815e-05
-2.05987e-07
2.22752e-05
-2.14454e-07
2.23728e-05
-2.23049e-07
2.24741e-05
-2.31742e-07
2.25794e-05
-2.40503e-07
2.26884e-05
-2.49295e-07