/*--------------------------------*- C++ -*----------------------------------*\
  =========                 |
  \\      /  F ield         | OpenFOAM: The Open Source CFD Toolbox
   \\    /   O peration     | Website:  https://openfoam.org
    \\  /    A nd           | Version:  7
     \\/     M anipulation  |
\*---------------------------------------------------------------------------*/
FoamFile
{
    version     2.0;
    format      ascii;
    class       volScalarField;
    location    "16.999864";
    object      p;
}
// * * * * * * * * * * * * * * * * * * * * * * * * * * * * * * * * * * * * * //

dimensions      [0 2 -2 0 0 0 0];

internalField   nonuniform List<scalar> 
5800
(
-0.272659
-0.273281
-0.273854
-0.274348
-0.274729
-0.274963
-0.275015
-0.274884
-0.274552
-0.264379
-0.266206
-0.26731
-0.268175
-0.268934
-0.269616
-0.270259
-0.270896
-0.271537
-0.272185
-0.272827
-0.273445
-0.274015
-0.274506
-0.274885
-0.275114
-0.275154
-0.275004
-0.274652
-0.264951
-0.266712
-0.267778
-0.268614
-0.26935
-0.27001
-0.270636
-0.271256
-0.271884
-0.27252
-0.273152
-0.273763
-0.274326
-0.274812
-0.275184
-0.275405
-0.275423
-0.275231
-0.274862
-0.265789
-0.267454
-0.268465
-0.269259
-0.269958
-0.270586
-0.271184
-0.271779
-0.272386
-0.273002
-0.273619
-0.274215
-0.274768
-0.275243
-0.275605
-0.275813
-0.275802
-0.275532
-0.275207
-0.26687
-0.268414
-0.269354
-0.270093
-0.270742
-0.271326
-0.271885
-0.272445
-0.27302
-0.273608
-0.2742
-0.274776
-0.27531
-0.27577
-0.276115
-0.276307
-0.276266
-0.275855
-0.275726
-0.268165
-0.269569
-0.270424
-0.271094
-0.271681
-0.272209
-0.272716
-0.273229
-0.27376
-0.274309
-0.274866
-0.275411
-0.275918
-0.276354
-0.276675
-0.276843
-0.276795
-0.276122
-0.276475
-0.272224
-0.269645
-0.270893
-0.271651
-0.272241
-0.272753
-0.273211
-0.273652
-0.274103
-0.274576
-0.275072
-0.27558
-0.276082
-0.276551
-0.276954
-0.27724
-0.277371
-0.277371
-0.276215
-0.277484
-0.271017
-0.271278
-0.27236
-0.273013
-0.273511
-0.273935
-0.274308
-0.274666
-0.275039
-0.275437
-0.275864
-0.276308
-0.276751
-0.277168
-0.277525
-0.277764
-0.277824
-0.277965
-0.276063
-0.278533
-0.27004
-0.273032
-0.273946
-0.274486
-0.274882
-0.275203
-0.275475
-0.275734
-0.276008
-0.276313
-0.276651
-0.277013
-0.27738
-0.277727
-0.278023
-0.278207
-0.278151
-0.278426
-0.276127
-0.279059
-0.269033
-0.274882
-0.27563
-0.276052
-0.276335
-0.27654
-0.276692
-0.276831
-0.276987
-0.277176
-0.277404
-0.277662
-0.277934
-0.278193
-0.278409
-0.278522
-0.278377
-0.278676
-0.275912
-0.279668
-0.267706
-0.276805
-0.277396
-0.277695
-0.277856
-0.277928
-0.277942
-0.27794
-0.277954
-0.278005
-0.278099
-0.278232
-0.278388
-0.278538
-0.278654
-0.278681
-0.278399
-0.278798
-0.275327
-0.280216
-0.26613
-0.27879
-0.279232
-0.279407
-0.279433
-0.279357
-0.279214
-0.279047
-0.278895
-0.278782
-0.27872
-0.278705
-0.278723
-0.278745
-0.278741
-0.278667
-0.278197
-0.278743
-0.274422
-0.280476
-0.264488
-0.280831
-0.281136
-0.281184
-0.281065
-0.280824
-0.280501
-0.280147
-0.279804
-0.279503
-0.27926
-0.279075
-0.278934
-0.278808
-0.278663
-0.278473
-0.277779
-0.278432
-0.273304
-0.280144
-0.263033
-0.282937
-0.283116
-0.283031
-0.282755
-0.282332
-0.281807
-0.281241
-0.280683
-0.28017
-0.279723
-0.279346
-0.279027
-0.278736
-0.278427
-0.278099
-0.277167
-0.277774
-0.27211
-0.278885
-0.261899
-0.285124
-0.285185
-0.284963
-0.284515
-0.28389
-0.283143
-0.282342
-0.281545
-0.280797
-0.280125
-0.279537
-0.279022
-0.278547
-0.278054
-0.277548
-0.276387
-0.276686
-0.270924
-0.2765
-0.260908
-0.287421
-0.287368
-0.286997
-0.286363
-0.285517
-0.284526
-0.283467
-0.282409
-0.281406
-0.280491
-0.279676
-0.278948
-0.278269
-0.277566
-0.276823
-0.275436
-0.275125
-0.269671
-0.273073
-0.259592
-0.289867
-0.289695
-0.289166
-0.288327
-0.287238
-0.285981
-0.284644
-0.283306
-0.282031
-0.280857
-0.279799
-0.27884
-0.277932
-0.276983
-0.275927
-0.27427
-0.273102
-0.268105
-0.268906
-0.257486
-0.292511
-0.292207
-0.291503
-0.290438
-0.289086
-0.287543
-0.285908
-0.284274
-0.282711
-0.281265
-0.279948
-0.278736
-0.277562
-0.276312
-0.27485
-0.272812
-0.27064
-0.265941
-0.264226
-0.254389
-0.295409
-0.294948
-0.294049
-0.292735
-0.291098
-0.289248
-0.287299
-0.285355
-0.283493
-0.281761
-0.280166
-0.278668
-0.277176
-0.275542
-0.273565
-0.270982
-0.267748
-0.262993
-0.258999
-0.250417
-0.298618
-0.297972
-0.296847
-0.29526
-0.293315
-0.29114
-0.288863
-0.286596
-0.284423
-0.282389
-0.280489
-0.278659
-0.276772
-0.274644
-0.272026
-0.268721
-0.264437
-0.259235
-0.253168
-0.245845
-0.302204
-0.301328
-0.299946
-0.298059
-0.295782
-0.293264
-0.290645
-0.288045
-0.285548
-0.283189
-0.280943
-0.278714
-0.276331
-0.273578
-0.270184
-0.266005
-0.26072
-0.254776
-0.247239
-0.240578
-0.306226
-0.305068
-0.303394
-0.301177
-0.298545
-0.295667
-0.292693
-0.289746
-0.286906
-0.284189
-0.281538
-0.278817
-0.275814
-0.272295
-0.267997
-0.262846
-0.256602
-0.249757
-0.241654
-0.234261
-0.310746
-0.309246
-0.307239
-0.30466
-0.30165
-0.298395
-0.295052
-0.291742
-0.28853
-0.285404
-0.282266
-0.278936
-0.275173
-0.270747
-0.265447
-0.25928
-0.252105
-0.244482
-0.235821
-0.227834
-0.315816
-0.313907
-0.311526
-0.308555
-0.305143
-0.301492
-0.297763
-0.294067
-0.290441
-0.286834
-0.2831
-0.279022
-0.274354
-0.2689
-0.262534
-0.25535
-0.247323
-0.238991
-0.229889
-0.221532
-0.321485
-0.319098
-0.316299
-0.312905
-0.309066
-0.305001
-0.300865
-0.296746
-0.292644
-0.288457
-0.283994
-0.279017
-0.273304
-0.266729
-0.259274
-0.251113
-0.242311
-0.233372
-0.223896
-0.21523
-0.327794
-0.324855
-0.321596
-0.317749
-0.313461
-0.30896
-0.304386
-0.299792
-0.295125
-0.290232
-0.284886
-0.278855
-0.271977
-0.264226
-0.255695
-0.246619
-0.237124
-0.227657
-0.217851
-0.208952
-0.334772
-0.331212
-0.327453
-0.323126
-0.318366
-0.313401
-0.308346
-0.303199
-0.297851
-0.292098
-0.2857
-0.278468
-0.270336
-0.26139
-0.251823
-0.241905
-0.231792
-0.221855
-0.211763
-0.202645
-0.342441
-0.33819
-0.333897
-0.329065
-0.323808
-0.318345
-0.312744
-0.306942
-0.300765
-0.293975
-0.286354
-0.277796
-0.268354
-0.258227
-0.247682
-0.236994
-0.226325
-0.215965
-0.205615
-0.196293
-0.350806
-0.345804
-0.340946
-0.335588
-0.329807
-0.323796
-0.317562
-0.310968
-0.303784
-0.295767
-0.286762
-0.276782
-0.266012
-0.254744
-0.243285
-0.231894
-0.220719
-0.209971
-0.19939
-0.18987
-0.359859
-0.354052
-0.348606
-0.342703
-0.336363
-0.329736
-0.322752
-0.315195
-0.306803
-0.297366
-0.28684
-0.275379
-0.263294
-0.250941
-0.238633
-0.226598
-0.214958
-0.203852
-0.193061
-0.183354
-0.36957
-0.362914
-0.356865
-0.350398
-0.343454
-0.336118
-0.328231
-0.319512
-0.309696
-0.298661
-0.286508
-0.273547
-0.260185
-0.24681
-0.233716
-0.221087
-0.209018
-0.197582
-0.186605
-0.17672
-0.379885
-0.372353
-0.365689
-0.358637
-0.351027
-0.342861
-0.333887
-0.323781
-0.312327
-0.29954
-0.285698
-0.271248
-0.256665
-0.242334
-0.228513
-0.215338
-0.202873
-0.191135
-0.179996
-0.169948
-0.390725
-0.3823
-0.37502
-0.367354
-0.358996
-0.349846
-0.33957
-0.327841
-0.314551
-0.299898
-0.284342
-0.268446
-0.252709
-0.237489
-0.222996
-0.20932
-0.196491
-0.184482
-0.173206
-0.163013
-0.401976
-0.392662
-0.384766
-0.376448
-0.367234
-0.356915
-0.345101
-0.331517
-0.316223
-0.299635
-0.282382
-0.2651
-0.248283
-0.232242
-0.217131
-0.202997
-0.18984
-0.177595
-0.166212
-0.155895
-0.413493
-0.403309
-0.394799
-0.385778
-0.375574
-0.363875
-0.350277
-0.334625
-0.317205
-0.298659
-0.279757
-0.261168
-0.243351
-0.226555
-0.210882
-0.196337
-0.182888
-0.170448
-0.158989
-0.148574
-0.425093
-0.414078
-0.404956
-0.395162
-0.383809
-0.370501
-0.354879
-0.336983
-0.317364
-0.296884
-0.276409
-0.256603
-0.237867
-0.220387
-0.204209
-0.189302
-0.175606
-0.163013
-0.151512
-0.14103
-0.436561
-0.424771
-0.415035
-0.40438
-0.391697
-0.376545
-0.358682
-0.338414
-0.316579
-0.294227
-0.272277
-0.251353
-0.231786
-0.213694
-0.197073
-0.181858
-0.167964
-0.155266
-0.143758
-0.133244
-0.447647
-0.435152
-0.424794
-0.413174
-0.398968
-0.381743
-0.361462
-0.338751
-0.314736
-0.290609
-0.2673
-0.245366
-0.225059
-0.206433
-0.189435
-0.173973
-0.159934
-0.147183
-0.135708
-0.125201
-0.458069
-0.444954
-0.433962
-0.421257
-0.405329
-0.385828
-0.363004
-0.337842
-0.311729
-0.285956
-0.261417
-0.238589
-0.21764
-0.198561
-0.181261
-0.165616
-0.151492
-0.138745
-0.127343
-0.116892
-0.467522
-0.453886
-0.442236
-0.428317
-0.41048
-0.388539
-0.363108
-0.335545
-0.307462
-0.280193
-0.254568
-0.230968
-0.20948
-0.190039
-0.172515
-0.156759
-0.142615
-0.129932
-0.118653
-0.108317
-0.475684
-0.46163
-0.449296
-0.434033
-0.414119
-0.389626
-0.361589
-0.331735
-0.301847
-0.273254
-0.246696
-0.222454
-0.200538
-0.180831
-0.163168
-0.147378
-0.133284
-0.120729
-0.109628
-0.0994806
-0.482221
-0.467858
-0.454809
-0.438079
-0.415956
-0.388859
-0.358287
-0.326301
-0.294804
-0.265075
-0.237747
-0.213001
-0.190775
-0.170904
-0.153196
-0.137453
-0.123483
-0.111119
-0.100257
-0.0903762
-0.486797
-0.472239
-0.458441
-0.440138
-0.41572
-0.386036
-0.353061
-0.31915
-0.286265
-0.255601
-0.227675
-0.20257
-0.180158
-0.160234
-0.142576
-0.126968
-0.113199
-0.101092
-0.0905212
-0.0809597
-0.489086
-0.474445
-0.459869
-0.439913
-0.413169
-0.380981
-0.345795
-0.310202
-0.27617
-0.244784
-0.216439
-0.191127
-0.168661
-0.148798
-0.131293
-0.115909
-0.102419
-0.0906416
-0.0804206
-0.0711429
-0.488777
-0.474163
-0.45879
-0.437135
-0.408093
-0.373551
-0.336396
-0.299396
-0.264473
-0.232587
-0.204009
-0.178648
-0.156265
-0.136584
-0.119337
-0.104268
-0.0911327
-0.079757
-0.0699939
-0.060884
-0.485588
-0.471107
-0.454929
-0.43157
-0.40032
-0.363635
-0.324798
-0.286687
-0.251143
-0.218983
-0.190362
-0.165115
-0.142957
-0.123581
-0.106703
-0.0920471
-0.0793487
-0.0684397
-0.0592374
-0.0503619
-0.479267
-0.465022
-0.448051
-0.423027
-0.38972
-0.351156
-0.310957
-0.272051
-0.236162
-0.20396
-0.175486
-0.150518
-0.12873
-0.109794
-0.0933993
-0.0792604
-0.0671036
-0.056791
-0.0480033
-0.039665
-0.469606
-0.455695
-0.437963
-0.411361
-0.376204
-0.336071
-0.294855
-0.255479
-0.219524
-0.18751
-0.159379
-0.134861
-0.113599
-0.0952445
-0.0794564
-0.0659228
-0.0543984
-0.0447372
-0.0364168
-0.0287359
-0.456444
-0.442958
-0.424523
-0.396474
-0.359726
-0.31837
-0.276501
-0.236982
-0.201233
-0.169633
-0.142069
-0.118178
-0.0976087
-0.0799466
-0.0648674
-0.0520469
-0.0412459
-0.032285
-0.0245263
-0.0175584
-0.43967
-0.426697
-0.407642
-0.37832
-0.340282
-0.298076
-0.255926
-0.216589
-0.181313
-0.150352
-0.12362
-0.100509
-0.0807489
-0.063918
-0.0496629
-0.0376575
-0.0276649
-0.0194643
-0.0123533
-0.00614378
-0.419228
-0.40685
-0.387284
-0.356901
-0.317909
-0.275245
-0.233187
-0.194351
-0.159835
-0.129811
-0.103984
-0.0818615
-0.063066
-0.0471943
-0.033877
-0.0227855
-0.0136831
-0.00630861
8.34124e-05
0.00548233
-0.395117
-0.383412
-0.363467
-0.332271
-0.29269
-0.249965
-0.208361
-0.17035
-0.136881
-0.107973
-0.0832658
-0.062287
-0.0446066
-0.0298198
-0.01755
-0.00746766
0.000664983
0.00714746
0.0127553
0.0172866
-0.367393
-0.356431
-0.336268
-0.304537
-0.26475
-0.222338
-0.181547
-0.144683
-0.112504
-0.0849237
-0.0615327
-0.0418511
-0.0254266
-0.0118459
-0.00072862
0.00825323
0.0153395
0.0208662
0.0256265
0.0292292
-0.336167
-0.326011
-0.305818
-0.273863
-0.234222
-0.192465
-0.152881
-0.117453
-0.0868029
-0.0607559
-0.0388619
-0.020628
-0.00559116
0.00666877
0.0165339
0.0243286
0.0302965
0.0348082
0.0386589
0.0412688
-0.301601
-0.29231
-0.272304
-0.240417
-0.201179
-0.160573
-0.122509
-0.0887902
-0.0598956
-0.0355739
-0.0153435
0.0013002
0.0148259
0.0256581
0.0341779
0.0407039
0.0454876
0.048934
0.0518189
0.0533709
-0.263882
-0.255549
-0.235935
-0.204261
-0.165935
-0.126859
-0.0906031
-0.0588426
-0.0319123
-0.00949331
0.00892042
0.0238419
0.035743
0.0450492
0.052137
0.0573186
0.0608614
0.0632053
0.0650705
0.0654929
-0.223203
-0.216021
-0.196839
-0.165699
-0.1288
-0.091519
-0.0573482
-0.0277738
-0.0029968
0.0173584
0.033817
0.046897
0.0570712
0.0647628
0.0703399
0.0741097
0.0763682
0.0775799
0.0783393
0.0774929
-0.179814
-0.174035
-0.155204
-0.125235
-0.0899737
-0.0547806
-0.022946
0.00423952
0.0266949
0.0448434
0.0592241
0.0703573
0.0787147
0.0847138
0.0887114
0.0910168
0.0919664
0.0920052
0.0914628
0.0890288
-0.134085
-0.129785
-0.111669
-0.0830565
-0.0497227
-0.0168883
0.012389
0.0370086
0.0569962
0.0728141
0.0850111
0.0941075
0.100571
0.104812
0.107175
0.107983
0.107616
0.106405
0.104229
0.0998251
-0.0866615
-0.0835215
-0.0664944
-0.0394694
-0.00833593
0.0219005
0.0484305
0.0703341
0.0877307
0.101115
0.11104
0.118026
0.122533
0.124962
0.125649
0.124944
0.123247
0.120664
0.116592
0.110519
-0.037704
-0.0357626
-0.0200126
0.00518778
0.0338812
0.0613169
0.084942
0.104007
0.118714
0.129582
0.137168
0.141985
0.144488
0.145065
0.144053
0.141821
0.138743
0.134644
0.128663
0.123132
0.0123972
0.0130677
0.0273997
0.050563
0.0766125
0.101083
0.121679
0.137813
0.149757
0.158048
0.163245
0.165854
0.166321
0.165023
0.162298
0.158521
0.153991
0.148347
0.141002
0.135693
0.0632074
0.0625592
0.0753478
0.0962944
0.119535
0.140913
0.158392
0.171531
0.180663
0.186341
0.189119
0.189499
0.187913
0.184732
0.180292
0.174959
0.168953
0.161855
0.153435
0.147746
0.114289
0.112293
0.12343
0.142015
0.162321
0.18052
0.194826
0.204936
0.211235
0.214285
0.214637
0.212783
0.209146
0.204087
0.19794
0.191049
0.183573
0.175122
0.165743
0.159365
0.165202
0.161843
0.171241
0.187356
0.204644
0.219616
0.230729
0.237805
0.241274
0.241705
0.239643
0.235569
0.229899
0.222983
0.215147
0.206712
0.197798
0.188066
0.177748
0.170514
0.215505
0.210784
0.218381
0.231954
0.246179
0.257913
0.265846
0.269914
0.270583
0.268427
0.263982
0.257723
0.250052
0.241311
0.231818
0.221869
0.21156
0.200608
0.189361
0.181187
0.264763
0.258693
0.264451
0.275447
0.286607
0.295131
0.299929
0.301042
0.298966
0.294276
0.287503
0.279109
0.269486
0.258969
0.247861
0.23644
0.224786
0.212667
0.200502
0.191346
0.312549
0.305156
0.309065
0.317487
0.325617
0.330993
0.332734
0.330974
0.326233
0.319086
0.310056
0.299595
0.288086
0.275853
0.263188
0.250348
0.237405
0.224173
0.211112
0.200955
0.358448
0.349773
0.351848
0.357734
0.362908
0.365234
0.364027
0.3595
0.352198
0.342692
0.331497
0.319055
0.30574
0.291864
0.27771
0.263516
0.249348
0.235061
0.221134
0.209977
0.402062
0.392157
0.392443
0.395867
0.398192
0.3976
0.39358
0.386422
0.376684
0.364936
0.351686
0.337366
0.322339
0.306909
0.291345
0.27587
0.260548
0.245272
0.230518
0.218373
0.443014
0.431944
0.43051
0.431578
0.4312
0.427849
0.421182
0.411548
0.399523
0.385672
0.370494
0.354413
0.337781
0.320896
0.304012
0.287341
0.270943
0.254749
0.239213
0.22611
0.480949
0.468792
0.465731
0.464583
0.461675
0.455757
0.446631
0.434702
0.420557
0.404758
0.387796
0.370085
0.351972
0.333741
0.315639
0.297862
0.280475
0.263439
0.247175
0.233157
0.51554
0.502385
0.497814
0.494617
0.489385
0.481114
0.469742
0.45572
0.439641
0.422066
0.403478
0.384284
0.36482
0.345366
0.326156
0.307375
0.289091
0.271296
0.254363
0.239484
0.546487
0.532433
0.526492
0.521442
0.514115
0.503733
0.490348
0.474451
0.456642
0.437479
0.417437
0.396917
0.376247
0.3557
0.335501
0.315823
0.296742
0.278273
0.26074
0.245067
0.573525
0.558682
0.551527
0.544843
0.535676
0.523445
0.508298
0.490762
0.471442
0.450891
0.42958
0.407902
0.386181
0.36468
0.343618
0.323158
0.303385
0.284332
0.26627
0.249886
0.596421
0.580906
0.572714
0.564634
0.553902
0.540101
0.523462
0.504537
0.483937
0.462212
0.439826
0.417168
0.394557
0.37225
0.350458
0.329338
0.30898
0.289438
0.270926
0.253923
0.614978
0.598916
0.589876
0.580659
0.568653
0.553578
0.535728
0.515677
0.49404
0.471362
0.448106
0.424655
0.401323
0.378363
0.35598
0.334326
0.313496
0.29356
0.274682
0.257165
0.629037
0.61256
0.602873
0.59279
0.579817
0.563774
0.545007
0.524103
0.50168
0.478281
0.454365
0.430313
0.406435
0.382982
0.360151
0.338092
0.316906
0.296673
0.277517
0.259604
0.638477
0.62172
0.611597
0.600931
0.587307
0.570615
0.55123
0.529754
0.506803
0.48292
0.458562
0.434106
0.409862
0.386077
0.362946
0.340616
0.319191
0.29876
0.279416
0.261233
0.436009
0.411581
0.387629
0.364348
0.341881
0.320337
0.299806
0.280368
0.262048
-0.276182
-0.275699
-0.274695
-0.273095
-0.274831
-0.270939
-0.273024
-0.272176
-0.268254
-0.270347
-0.269921
-0.26499
-0.266793
-0.266828
-0.266632
-0.261054
-0.262466
-0.262958
-0.263091
-0.256468
-0.257604
-0.258445
-0.258806
-0.259094
-0.251624
-0.252592
-0.25347
-0.2539
-0.254395
-0.254956
-0.247153
-0.247856
-0.248202
-0.248378
-0.248881
-0.249502
-0.241204
-0.243559
-0.243961
-0.244284
-0.244929
-0.245649
-0.24629
-0.235868
-0.238846
-0.239328
-0.239651
-0.240376
-0.241212
-0.241957
-0.230539
-0.233887
-0.23438
-0.234679
-0.235472
-0.236419
-0.237264
-0.225248
-0.228776
-0.229311
-0.229627
-0.230488
-0.231532
-0.232467
-0.219819
-0.223525
-0.22416
-0.224526
-0.225448
-0.226576
-0.227593
-0.214287
-0.218182
-0.218948
-0.219378
-0.220357
-0.221557
-0.22265
-0.208745
-0.212787
-0.213692
-0.214198
-0.215231
-0.216496
-0.217661
-0.203217
-0.207364
-0.208409
-0.208999
-0.210088
-0.211414
-0.212645
-0.197713
-0.201938
-0.203119
-0.203797
-0.20494
-0.206322
-0.207616
-0.192253
-0.196531
-0.197836
-0.198602
-0.199799
-0.201233
-0.202584
-0.186848
-0.191156
-0.192575
-0.193426
-0.194674
-0.196155
-0.197559
-0.181504
-0.185824
-0.187345
-0.188277
-0.189574
-0.191097
-0.192549
-0.176226
-0.180546
-0.182158
-0.183165
-0.184506
-0.186069
-0.187564
-0.171025
-0.175328
-0.177022
-0.178098
-0.179481
-0.181076
-0.18261
-0.165906
-0.17018
-0.171946
-0.173087
-0.174505
-0.176129
-0.177696
-0.160877
-0.16511
-0.166938
-0.168137
-0.169586
-0.171233
-0.172828
-0.155945
-0.160125
-0.162005
-0.163256
-0.164731
-0.166396
-0.168014
-0.151116
-0.155231
-0.157154
-0.15845
-0.159946
-0.161624
-0.163259
-0.146394
-0.150436
-0.15239
-0.153725
-0.155237
-0.156923
-0.158569
-0.141781
-0.145742
-0.147719
-0.149086
-0.150609
-0.152297
-0.15395
-0.13728
-0.141153
-0.143144
-0.144535
-0.146064
-0.14775
-0.149406
-0.132892
-0.136673
-0.138668
-0.140078
-0.141609
-0.143288
-0.144941
-0.128618
-0.132302
-0.134294
-0.135717
-0.137244
-0.138913
-0.140559
-0.124459
-0.128042
-0.130026
-0.131455
-0.132975
-0.134629
-0.136264
-0.120416
-0.123895
-0.125863
-0.127294
-0.128803
-0.130439
-0.132058
-0.116489
-0.119861
-0.121808
-0.123237
-0.124731
-0.126345
-0.127946
-0.112679
-0.115942
-0.117863
-0.119284
-0.12076
-0.12235
-0.123929
-0.108984
-0.112137
-0.114027
-0.115437
-0.116892
-0.118455
-0.120009
-0.105404
-0.108446
-0.110302
-0.111697
-0.113129
-0.114662
-0.116189
-0.101938
-0.104869
-0.106688
-0.108064
-0.10947
-0.110972
-0.112469
-0.0985861
-0.101406
-0.103183
-0.104539
-0.105918
-0.107385
-0.108851
-0.0953459
-0.0980555
-0.0997894
-0.101122
-0.102471
-0.103903
-0.105336
-0.092216
-0.0948164
-0.0965047
-0.0978113
-0.0991297
-0.100526
-0.101923
-0.089195
-0.0916873
-0.0933286
-0.0946077
-0.0958941
-0.0972531
-0.0986143
-0.0862811
-0.0886671
-0.09026
-0.09151
-0.0927634
-0.0940844
-0.0954086
-0.0834723
-0.085754
-0.0872976
-0.0885172
-0.0897369
-0.0910195
-0.0923059
-0.0807669
-0.0829463
-0.0844401
-0.0856283
-0.0868137
-0.0880575
-0.0893057
-0.0781627
-0.0802424
-0.0816859
-0.082842
-0.0839929
-0.0851977
-0.0864075
-0.0756578
-0.0776403
-0.0790336
-0.080157
-0.0812731
-0.0824391
-0.0836103
-0.0732501
-0.0751382
-0.0764814
-0.0775718
-0.0786532
-0.0797805
-0.0809133
-0.0709376
-0.0727341
-0.0740276
-0.0750848
-0.0761317
-0.0772207
-0.0783153
-0.0687183
-0.0704261
-0.0716705
-0.0726946
-0.0737072
-0.0747584
-0.0758152
-0.0665901
-0.0682122
-0.0694083
-0.0703994
-0.0713781
-0.0723922
-0.0734117
-0.064551
-0.0660905
-0.0672392
-0.0681976
-0.0691431
-0.0701207
-0.0711035
-0.0625992
-0.0640591
-0.0651614
-0.0660875
-0.0670004
-0.0679423
-0.0688892
-0.0607325
-0.0621161
-0.0631732
-0.0640676
-0.0649485
-0.0658557
-0.0667675
-0.0589493
-0.0602597
-0.0612727
-0.062136
-0.0629859
-0.0638592
-0.0647369
-0.0572478
-0.058488
-0.0594584
-0.0602913
-0.0611109
-0.0619515
-0.062796
-0.0556262
-0.0567994
-0.0577285
-0.0585319
-0.0593222
-0.0601311
-0.0609433
-0.0540829
-0.0551921
-0.0560815
-0.0568563
-0.0576182
-0.0583965
-0.0591777
-0.0526163
-0.0536648
-0.0545158
-0.0552629
-0.0559975
-0.0567464
-0.0574977
-0.0512251
-0.0522159
-0.0530301
-0.0537505
-0.0544588
-0.0551795
-0.055902
-0.0499079
-0.0508439
-0.0516231
-0.0523178
-0.0530009
-0.0536946
-0.0543896
-0.0486635
-0.0495478
-0.0502934
-0.0509636
-0.0516227
-0.0522906
-0.0529593
-0.0474908
-0.0483264
-0.0490401
-0.0496868
-0.050323
-0.0509664
-0.0516102
-0.0463889
-0.0471786
-0.0478622
-0.0484866
-0.0491011
-0.0497213
-0.0503414
-0.0453569
-0.0461037
-0.0467589
-0.0473621
-0.0479561
-0.0485545
-0.0491522
-0.0443942
-0.0451011
-0.0457295
-0.0463128
-0.0468875
-0.0474654
-0.0480421
-0.0435003
-0.0441701
-0.0447735
-0.0453383
-0.0458949
-0.0464536
-0.0470107
-0.0426751
-0.0433106
-0.0438909
-0.0444382
-0.0449781
-0.0455191
-0.0460579
-0.0419184
-0.0425226
-0.0430814
-0.0436127
-0.0441372
-0.0446617
-0.0451838
-0.0412304
-0.0418061
-0.0423454
-0.0428621
-0.0433724
-0.043882
-0.0443887
-0.0406117
-0.0411617
-0.0416834
-0.0421868
-0.0426843
-0.0431804
-0.0436733
-0.040063
-0.0405903
-0.0410962
-0.0415877
-0.042074
-0.0425581
-0.0430386
-0.0395854
-0.0400929
-0.0405851
-0.0410662
-0.0415426
-0.0420162
-0.0424859
-0.0391804
-0.0396712
-0.0401517
-0.040624
-0.0410919
-0.0415567
-0.0420173
-0.0388499
-0.039327
-0.039798
-0.0402631
-0.0407242
-0.0411818
-0.0416349
-0.0385963
-0.0390629
-0.0395266
-0.0399862
-0.040442
-0.0408941
-0.0413415
-0.0384239
-0.0388833
-0.039342
-0.0397979
-0.0402501
-0.0406983
-0.0411418
-0.0383309
-0.0387874
-0.0392443
-0.0396988
-0.0401496
-0.0405962
-0.041038
-0.102217
-0.110543
-0.118655
-0.126555
-0.13425
-0.141753
-0.149077
-0.156239
-0.163253
-0.170137
-0.176908
-0.183582
-0.190176
-0.1967
-0.203165
-0.209574
-0.215899
-0.222272
-0.228264
-0.235562
-0.0990126
-0.107072
-0.114937
-0.122614
-0.130112
-0.137442
-0.144616
-0.151647
-0.158549
-0.165334
-0.172018
-0.178613
-0.185131
-0.191583
-0.197965
-0.204324
-0.210534
-0.217038
-0.222856
-0.230568
-0.0959416
-0.103689
-0.111259
-0.11866
-0.1259
-0.13299
-0.13994
-0.14676
-0.153463
-0.160059
-0.166559
-0.172977
-0.179318
-0.185608
-0.191822
-0.198084
-0.204159
-0.210735
-0.216538
-0.224208
-0.092987
-0.10045
-0.107755
-0.11491
-0.121923
-0.128803
-0.135559
-0.142202
-0.148741
-0.155187
-0.16155
-0.167845
-0.174074
-0.18028
-0.186413
-0.192665
-0.198695
-0.205293
-0.211169
-0.218505
-0.0901659
-0.0973623
-0.104421
-0.111348
-0.118152
-0.12484
-0.131422
-0.137907
-0.144306
-0.150629
-0.156884
-0.163093
-0.169247
-0.175409
-0.181491
-0.187729
-0.193711
-0.20021
-0.206086
-0.212968
-0.0874766
-0.094415
-0.101233
-0.107935
-0.11453
-0.121025
-0.127429
-0.133753
-0.140005
-0.146197
-0.152333
-0.158439
-0.164495
-0.170578
-0.176566
-0.182714
-0.188602
-0.194913
-0.200776
-0.207327
-0.0849077
-0.0915947
-0.0981754
-0.104655
-0.11104
-0.11734
-0.123561
-0.129715
-0.135807
-0.141851
-0.147847
-0.153824
-0.159751
-0.165713
-0.171577
-0.177591
-0.183391
-0.189524
-0.195413
-0.201748
-0.0824504
-0.0888933
-0.0952424
-0.101503
-0.107681
-0.113785
-0.119822
-0.125801
-0.131727
-0.137615
-0.14346
-0.149295
-0.155082
-0.160911
-0.166654
-0.172535
-0.178272
-0.184248
-0.190133
-0.196273
-0.0800987
-0.0863046
-0.0924282
-0.0984743
-0.104449
-0.110359
-0.116211
-0.122015
-0.127774
-0.133503
-0.139195
-0.144884
-0.150534
-0.156227
-0.16186
-0.167605
-0.173268
-0.179079
-0.184898
-0.190858
-0.0778467
-0.0838231
-0.0897271
-0.0955633
-0.101337
-0.107056
-0.112725
-0.118354
-0.123945
-0.129514
-0.135052
-0.140593
-0.146105
-0.151658
-0.157171
-0.162767
-0.168327
-0.17397
-0.179693
-0.185501
-0.075689
-0.081443
-0.0871334
-0.0927645
-0.0983414
-0.103871
-0.109359
-0.114813
-0.120236
-0.125643
-0.131026
-0.136415
-0.141784
-0.147187
-0.152569
-0.158007
-0.16345
-0.168936
-0.17455
-0.180216
-0.0736204
-0.0791591
-0.0846418
-0.0900726
-0.0954564
-0.1008
-0.106108
-0.111388
-0.116644
-0.121887
-0.127113
-0.132346
-0.137567
-0.142815
-0.14806
-0.153343
-0.15866
-0.163997
-0.169486
-0.175004
-0.0716363
-0.0769665
-0.0822473
-0.0874827
-0.0926774
-0.0978378
-0.102968
-0.108076
-0.113164
-0.118244
-0.123312
-0.128386
-0.133458
-0.13855
-0.143656
-0.148786
-0.153968
-0.159153
-0.164502
-0.169868
-0.0697322
-0.0748607
-0.0799454
-0.0849903
-0.0900002
-0.0949808
-0.0999363
-0.104874
-0.109795
-0.114711
-0.119621
-0.124537
-0.129458
-0.134396
-0.139356
-0.144333
-0.149371
-0.154403
-0.159607
-0.164817
-0.0679037
-0.0728373
-0.0777315
-0.0825911
-0.0874205
-0.092225
-0.0970084
-0.101777
-0.106534
-0.111288
-0.116039
-0.120798
-0.125566
-0.130349
-0.13516
-0.139983
-0.144873
-0.149752
-0.154808
-0.159861
-0.0661476
-0.0708925
-0.0756018
-0.0802811
-0.0849345
-0.0895665
-0.094181
-0.0987838
-0.103378
-0.107971
-0.112565
-0.117167
-0.121782
-0.12641
-0.13107
-0.13574
-0.140479
-0.145206
-0.15011
-0.155004
-0.0644609
-0.0690229
-0.0735528
-0.0780567
-0.0825384
-0.0870018
-0.0914509
-0.0958905
-0.100325
-0.104758
-0.109196
-0.113642
-0.118104
-0.122578
-0.127086
-0.131603
-0.136191
-0.140764
-0.145514
-0.150251
-0.0628396
-0.0672245
-0.0715807
-0.0759143
-0.0802287
-0.0845275
-0.0888145
-0.0930942
-0.0973706
-0.101648
-0.105931
-0.110222
-0.114532
-0.118853
-0.12321
-0.127574
-0.13201
-0.13643
-0.141024
-0.145606
-0.0612802
-0.065494
-0.0696821
-0.0738502
-0.0780018
-0.0821401
-0.0862688
-0.0903918
-0.0945133
-0.0986366
-0.102767
-0.106906
-0.111064
-0.115234
-0.11944
-0.123653
-0.127935
-0.132204
-0.136641
-0.141068
-0.05978
-0.0638282
-0.0678535
-0.0718612
-0.0758545
-0.0798365
-0.0838107
-0.0877805
-0.0917501
-0.0957223
-0.0997028
-0.103692
-0.1077
-0.11172
-0.115776
-0.119839
-0.123969
-0.128087
-0.132367
-0.136641
-0.0583361
-0.0622242
-0.066092
-0.069944
-0.0737836
-0.0776135
-0.081437
-0.0852573
-0.0890783
-0.0929026
-0.0967355
-0.100577
-0.104438
-0.108311
-0.112217
-0.116132
-0.120111
-0.124079
-0.128203
-0.132324
-0.0569457
-0.0606791
-0.0643944
-0.0680957
-0.0717861
-0.0754682
-0.079145
-0.0828195
-0.0864953
-0.0901748
-0.0938632
-0.0975604
-0.101276
-0.105003
-0.108763
-0.112532
-0.116361
-0.120181
-0.124149
-0.128118
-0.0556062
-0.0591902
-0.062758
-0.0663133
-0.0698591
-0.0733976
-0.0769318
-0.0804643
-0.0839985
-0.0875366
-0.0910835
-0.0946392
-0.0982124
-0.101797
-0.105413
-0.109037
-0.112719
-0.116392
-0.120207
-0.124024
-0.0543152
-0.0577549
-0.0611801
-0.0645943
-0.0679999
-0.0713991
-0.0747947
-0.078189
-0.0815854
-0.0849856
-0.0883944
-0.0918116
-0.0952455
-0.0986904
-0.102165
-0.105647
-0.109184
-0.112713
-0.116377
-0.120043
-0.0530704
-0.0563709
-0.0596584
-0.0629359
-0.0662058
-0.0694701
-0.0727311
-0.0759912
-0.0792534
-0.0825193
-0.0857934
-0.0890754
-0.0923732
-0.0956814
-0.0990171
-0.10236
-0.105755
-0.109142
-0.112658
-0.116176
-0.0518697
-0.0550359
-0.0581904
-0.0613359
-0.0644745
-0.0676079
-0.0707386
-0.0738683
-0.0770001
-0.0801355
-0.0832783
-0.0864287
-0.0895936
-0.0927684
-0.0959686
-0.0991756
-0.102431
-0.105679
-0.109049
-0.112422
-0.0507111
-0.0537478
-0.0567739
-0.0597919
-0.0628035
-0.0658104
-0.0688146
-0.071818
-0.0748232
-0.0778317
-0.080847
-0.0838693
-0.0869049
-0.0899494
-0.0930175
-0.0960918
-0.0992113
-0.102323
-0.105551
-0.108781
-0.0495928
-0.0525046
-0.0554069
-0.0583018
-0.0611907
-0.0640751
-0.066957
-0.069838
-0.0727205
-0.0756058
-0.0784973
-0.081395
-0.0843048
-0.0872227
-0.0901623
-0.0931072
-0.0960941
-0.0990735
-0.102162
-0.105252
-0.0485131
-0.0513045
-0.0540874
-0.0568635
-0.0596339
-0.0624
-0.0651635
-0.067926
-0.0706896
-0.0734556
-0.076227
-0.0790038
-0.0817915
-0.0845864
-0.0874009
-0.09022
-0.0930779
-0.0959281
-0.0988817
-0.101836
-0.0474701
-0.0501458
-0.0528138
-0.0554753
-0.0581313
-0.060783
-0.0634321
-0.06608
-0.0687286
-0.071379
-0.074034
-0.0766937
-0.079363
-0.0820384
-0.0847317
-0.0874285
-0.0901612
-0.0928859
-0.0957078
-0.0985298
-0.0464603
-0.0490262
-0.051584
-0.0541351
-0.0566807
-0.0592221
-0.0617608
-0.064298
-0.0668353
-0.069374
-0.0719164
-0.0744626
-0.0770171
-0.0795769
-0.0821526
-0.084731
-0.0873422
-0.0899451
-0.0926392
-0.095333
-0.0454832
-0.0479447
-0.0503967
-0.0528414
-0.0552805
-0.0577156
-0.0601477
-0.0625779
-0.0650079
-0.0674385
-0.069872
-0.0723085
-0.0747521
-0.0771999
-0.0796618
-0.0821255
-0.0846191
-0.0871041
-0.0896743
-0.0922438
-0.0445421
-0.0469014
-0.0492509
-0.0515929
-0.0539294
-0.0562618
-0.0585911
-0.0609181
-0.0632443
-0.0655706
-0.0678989
-0.0702294
-0.0725658
-0.0749055
-0.0772574
-0.0796102
-0.08199
-0.0843611
-0.0868114
-0.0892607
-0.0436355
-0.0458949
-0.0481452
-0.0503883
-0.052626
-0.0548594
-0.0570894
-0.0593169
-0.061543
-0.0637686
-0.0659954
-0.0682236
-0.0704565
-0.0726917
-0.0749374
-0.0771832
-0.0794532
-0.0817141
-0.0840487
-0.0863819
-0.0427598
-0.0449231
-0.047078
-0.0492259
-0.0513684
-0.0535065
-0.0556409
-0.0577724
-0.0599021
-0.0620306
-0.0641596
-0.0662891
-0.0684223
-0.0705567
-0.0727
-0.0748426
-0.0770067
-0.0791615
-0.0813844
-0.0836055
-0.0419142
-0.0439851
-0.0460482
-0.0481046
-0.0501555
-0.0522018
-0.0542441
-0.0562832
-0.05832
-0.060355
-0.0623898
-0.0644242
-0.0664612
-0.0684986
-0.0705433
-0.0725864
-0.0746485
-0.0767011
-0.0788164
-0.0809297
-0.0410977
-0.0430799
-0.0450548
-0.0470231
-0.0489859
-0.0509438
-0.0528976
-0.0548478
-0.0567951
-0.0587402
-0.0606842
-0.0626272
-0.0645716
-0.0665156
-0.0684654
-0.0704128
-0.0723768
-0.0743311
-0.076343
-0.0783525
-0.0403093
-0.0422065
-0.0440966
-0.0459802
-0.0478583
-0.0497313
-0.0516
-0.0534646
-0.0553259
-0.0571844
-0.0590412
-0.0608962
-0.0627517
-0.0646059
-0.0664645
-0.06832
-0.0701897
-0.0720496
-0.073962
-0.0758719
-0.0395483
-0.0413639
-0.0431726
-0.0449749
-0.0467715
-0.0485631
-0.0503499
-0.0521323
-0.053911
-0.0556864
-0.0574593
-0.0592298
-0.0609999
-0.0627678
-0.0645388
-0.066306
-0.0680853
-0.0698545
-0.0716716
-0.0734858
-0.038814
-0.0405513
-0.0422819
-0.0440061
-0.0457246
-0.0474378
-0.0491461
-0.0508496
-0.052549
-0.0542445
-0.055937
-0.0576264
-0.0593144
-0.0609997
-0.0626866
-0.0643692
-0.0660618
-0.0677441
-0.0694698
-0.0711923
-0.0381056
-0.0397679
-0.0414236
-0.0430729
-0.0447165
-0.0463546
-0.0479874
-0.0496153
-0.0512386
-0.0528575
-0.0544728
-0.0560844
-0.0576938
-0.0592997
-0.0609062