/*--------------------------------*- C++ -*----------------------------------*\
  =========                 |
  \\      /  F ield         | OpenFOAM: The Open Source CFD Toolbox
   \\    /   O peration     | Website:  https://openfoam.org
    \\  /    A nd           | Version:  7
     \\/     M anipulation  |
\*---------------------------------------------------------------------------*/
FoamFile
{
    version     2.0;
    format      ascii;
    class       volVectorField;
    location    "3";
    object      U;
}
// * * * * * * * * * * * * * * * * * * * * * * * * * * * * * * * * * * * * * //

dimensions      [0 1 -1 0 0 0 0];

internalField   nonuniform List<vector> 
433
(
(0.297051 -0.110592 1.58827e-20)
(0.282039 -0.149562 -6.93786e-19)
(0.303216 -0.17926 -9.32147e-20)
(0.347101 -0.203163 8.4922e-19)
(0.403762 -0.223617 -1.72956e-18)
(0.466988 -0.2421 1.39311e-18)
(0.533035 -0.260087 -1.64404e-19)
(0.542774 -0.224744 2.93866e-19)
(0.395337 -0.192816 2.80352e-20)
(0.339473 -0.187698 9.50761e-19)
(0.339482 -0.195441 -1.25799e-18)
(0.370877 -0.208331 -4.9518e-19)
(0.418731 -0.22289 -3.9629e-19)
(0.475083 -0.238131 3.98116e-18)
(0.535808 -0.25388 -4.67338e-18)
(0.598551 -0.270063 6.5516e-19)
(0.661961 -0.286554 -8.87563e-20)
(0.725003 -0.3032 2.27477e-18)
(0.786789 -0.319752 -6.93963e-19)
(0.846561 -0.335914 -9.85681e-19)
(0.903682 -0.351382 -3.15391e-19)
(0.957627 -0.365859 -3.76336e-19)
(1.00798 -0.379071 -1.17114e-18)
(1.05441 -0.390775 2.48587e-18)
(1.09668 -0.400766 -4.30213e-18)
(0.376287 -0.291557 5.27599e-19)
(0.239944 -0.21817 -8.96048e-19)
(0.215074 -0.187493 1.18997e-18)
(0.247577 -0.183393 -3.61058e-18)
(0.305937 -0.191814 2.50096e-18)
(0.373774 -0.20569 -2.5868e-18)
(0.443794 -0.221973 7.60519e-19)
(0.513354 -0.238978 -3.15531e-19)
(0.581674 -0.255954 1.6646e-18)
(0.648564 -0.272587 -8.66075e-20)
(0.713845 -0.288747 -8.88101e-19)
(0.777234 -0.304359 6.62703e-19)
(0.838352 -0.319339 -1.50867e-18)
(0.896785 -0.33357 3.71409e-18)
(0.952129 -0.346901 -3.50528e-18)
(1.00401 -0.359155 1.65312e-18)
(1.05211 -0.370147 -2.18074e-18)
(1.09616 -0.379694 1.13161e-18)
(1.13593 -0.387636 -5.30941e-19)
(1.17126 -0.393868 1.41722e-18)
(1.20196 -0.398134 -1.03913e-18)
(1.22787 -0.40052 3.71038e-19)
(1.24906 -0.4013 -1.35464e-18)
(0.0983547 -0.290503 4.37659e-19)
(0.0519542 -0.26542 -9.08067e-19)
(0.085743 -0.24587 8.23614e-19)
(0.157159 -0.234726 -5.61967e-19)
(0.241671 -0.231065 -7.64388e-19)
(0.327678 -0.232908 1.11713e-18)
(0.410349 -0.238624 5.41334e-19)
(0.488564 -0.246909 -1.7146e-19)
(0.56269 -0.256874 2.70984e-19)
(0.633387 -0.267924 -4.00158e-19)
(0.701158 -0.279644 3.55168e-19)
(0.766247 -0.291724 -6.95656e-19)
(0.828664 -0.303897 1.15997e-18)
(0.888262 -0.315911 3.11261e-19)
(0.944801 -0.327521 -1.11408e-18)
(0.998001 -0.338482 1.35738e-19)
(1.04757 -0.348558 -1.05421e-18)
(1.09324 -0.357526 1.3167e-18)
(1.13477 -0.36519 -7.62818e-19)
(1.17192 -0.371412 -1.35922e-18)
(1.20448 -0.375912 1.57514e-18)
(1.23225 -0.378729 5.30164e-19)
(1.25528 -0.380042 6.63947e-19)
(0.192467 -0.168094 -3.61915e-20)
(0.169269 -0.207967 -1.78098e-19)
(0.186824 -0.227535 7.62354e-20)
(0.231641 -0.235797 -1.63843e-19)
(0.291376 -0.23995 4.04454e-19)
(0.357801 -0.243138 -1.04869e-19)
(0.426379 -0.246093 -5.86629e-20)
(0.49495 -0.249838 4.84657e-19)
(0.562649 -0.254877 -2.94273e-19)
(0.629157 -0.261282 -6.69056e-19)
(0.694289 -0.26895 9.20158e-20)
(0.757834 -0.277652 3.77028e-19)
(0.819516 -0.287089 2.09797e-19)
(0.879003 -0.296934 -5.35685e-19)
(0.935932 -0.306859 -4.84871e-19)
(0.989933 -0.316552 5.68597e-19)
(1.04064 -0.325721 5.10255e-19)
(1.08773 -0.3341 5.73275e-19)
(1.13088 -0.341462 -5.09192e-19)
(1.1698 -0.347638 4.83363e-19)
(1.20423 -0.352328 -2.79512e-19)
(1.23392 -0.355528 -4.38047e-19)
(1.25889 -0.35735 -1.36225e-19)
(0.654648 -0.121041 -8.0294e-20)
(0.47598 -0.1436 -5.0752e-20)
(0.371955 -0.171617 6.14566e-20)
(0.329574 -0.194847 8.28621e-20)
(0.330317 -0.209988 -2.45634e-19)
(0.357986 -0.218997 1.11311e-19)
(0.400821 -0.224699 -8.23067e-20)
(0.452037 -0.229097 -8.13215e-20)
(0.50799 -0.233406 5.98663e-20)
(0.566679 -0.238303 -6.94807e-20)
(0.626917 -0.2441 3.80252e-19)
(0.687841 -0.250854 -1.88547e-19)
(0.748718 -0.258463 1.10853e-19)
(0.808885 -0.266736 -5.44145e-20)
(0.867725 -0.27544 -3.06874e-19)
(0.924674 -0.284318 4.41615e-19)
(0.979217 -0.293111 -7.04244e-20)
(1.03089 -0.301566 -4.36475e-19)
(1.07926 -0.30944 4.87856e-19)
(1.12396 -0.316515 -1.53204e-19)
(1.16464 -0.322623 7.89972e-20)
(1.20095 -0.327462 1.69124e-19)
(1.23263 -0.330989 1.20041e-19)
(1.25963 -0.333288 -2.25088e-20)
(0.940677 -0.275194 -2.69631e-20)
(0.583213 -0.208971 -2.4922e-19)
(0.399142 -0.178905 -3.02602e-19)
(0.326251 -0.169102 7.19629e-20)
(0.317675 -0.170912 3.2293e-19)
(0.343673 -0.178074 -2.00237e-19)
(0.387015 -0.186684 9.68832e-20)
(0.438807 -0.195421 -3.30864e-20)
(0.494869 -0.203962 -2.32625e-20)
(0.553276 -0.212237 -3.48311e-20)
(0.613027 -0.220317 -4.5247e-19)
(0.673438 -0.228313 3.06017e-19)
(0.733911 -0.236326 -3.66801e-19)
(0.793876 -0.244408 3.34217e-19)
(0.852776 -0.252556 3.64562e-19)
(0.910083 -0.260709 -2.78533e-19)
(0.965294 -0.268754 2.93509e-19)
(1.01794 -0.27654 -4.46155e-20)
(1.06758 -0.28389 -3.90638e-19)
(1.11379 -0.290624 -9.78271e-20)
(1.15621 -0.296591 2.34184e-19)
(1.19442 -0.301497 2.17979e-19)
(1.22814 -0.305266 -1.60424e-19)
(1.25727 -0.307979 3.1903e-19)
(0.262511 -0.251643 -2.46503e-19)
(0.148333 -0.223802 3.05285e-19)
(0.137039 -0.20321 -5.53323e-19)
(0.179387 -0.192079 4.58471e-19)
(0.244352 -0.188463 -3.60446e-19)
(0.31591 -0.188969 4.12094e-19)
(0.387354 -0.19185 2.1239e-19)
(0.456576 -0.196097 -8.07998e-19)
(0.523438 -0.201074 2.07032e-19)
(0.588381 -0.206466 2.5598e-19)
(0.651828 -0.21216 -3.1762e-19)
(0.714006 -0.218138 2.1746e-19)
(0.774936 -0.224401 -8.14265e-19)
(0.834475 -0.230933 5.82366e-20)
(0.892367 -0.237675 3.0547e-19)
(0.94828 -0.244522 1.23732e-19)
(1.00184 -0.251332 6.52836e-19)
(1.05265 -0.257936 -9.02443e-19)
(1.1003 -0.264154 1.38425e-18)
(1.14439 -0.269836 -1.3444e-18)
(1.18449 -0.274678 -1.15046e-19)
(1.22028 -0.278564 9.39152e-19)
(1.25161 -0.281598 -4.36742e-19)
(0.111415 -0.318816 -4.01629e-19)
(0.0852525 -0.31585 7.02339e-19)
(0.110665 -0.297468 -4.87738e-19)
(0.165758 -0.274822 3.78368e-19)
(0.233638 -0.253249 8.44081e-19)
(0.304907 -0.235682 -1.03702e-18)
(0.37528 -0.222642 -1.9868e-19)
(0.443304 -0.21357 9.20479e-19)
(0.50896 -0.207823 6.36938e-20)
(0.572705 -0.204805 5.61627e-19)
(0.635 -0.204016 3.02628e-19)
(0.696146 -0.20504 6.57892e-20)
(0.756243 -0.207524 -1.42668e-18)
(0.815222 -0.211159 -2.94362e-19)
(0.872881 -0.215667 7.39283e-19)
(0.928923 -0.220787 3.40313e-19)
(0.982985 -0.226271 -5.92709e-19)
(1.03467 -0.231879 -4.34248e-19)
(1.08354 -0.237389 -1.53918e-20)
(1.12917 -0.242622 1.72409e-18)
(1.17107 -0.247255 -2.19647e-18)
(1.2089 -0.251114 9.03441e-19)
(1.24248 -0.254353 -2.06968e-19)
(0.366417 -0.204162 -2.58283e-19)
(0.315463 -0.245233 -1.97716e-19)
(0.295099 -0.261412 -5.3594e-19)
(0.301862 -0.260011 1.28004e-18)
(0.328125 -0.24892 -1.36016e-18)
(0.366781 -0.234983 1.77237e-18)
(0.412619 -0.221534 -1.03259e-18)
(0.462651 -0.209984 -3.16549e-19)
(0.515309 -0.200955 -1.41167e-18)
(0.569746 -0.194544 6.9872e-19)
(0.625427 -0.190589 4.88549e-19)
(0.681916 -0.188809 -2.03141e-19)
(0.738796 -0.188866 2.23969e-18)
(0.795642 -0.190424 -2.99129e-18)
(0.852017 -0.193169 3.49703e-19)
(0.907466 -0.196806 2.74494e-19)
(0.961522 -0.201063 2.56234e-18)
(1.01371 -0.205685 -1.37474e-18)
(1.06353 -0.210438 6.78798e-19)
(1.11051 -0.215135 -1.23123e-18)
(1.1541 -0.219448 1.66616e-18)
(1.19392 -0.223148 -1.47704e-18)
(1.22974 -0.226469 3.63825e-19)
(0.665153 -0.0923763 -5.00579e-19)
(0.510313 -0.134945 -1.83929e-19)
(0.426116 -0.162398 -6.16075e-19)
(0.390926 -0.176766 1.72572e-18)
(0.387997 -0.182506 -1.86792e-19)
(0.405058 -0.182779 3.91013e-19)
(0.434508 -0.180102 -2.93943e-18)
(0.472068 -0.176408 4.98267e-18)
(0.515251 -0.172746 -1.00062e-18)
(0.562512 -0.169701 -2.021e-19)
(0.612778 -0.167577 -2.43157e-18)
(0.665203 -0.166506 5.25696e-19)
(0.719076 -0.166513 8.49694e-19)
(0.77377 -0.167546 -1.60132e-20)
(0.828712 -0.169503 1.22637e-18)
(0.883356 -0.172244 5.10807e-19)
(0.937172 -0.175604 -1.89686e-18)
(0.98963 -0.179397 3.87355e-18)
(1.0402 -0.18344 -2.9443e-18)
(1.08835 -0.187577 2.18138e-19)
(1.13351 -0.191494 -8.21977e-19)
(1.17524 -0.194918 5.30231e-18)
(1.21329 -0.198199 -4.93295e-18)
(0.262188 -0.0991362 4.69434e-19)
(0.239257 -0.108426 1.02985e-18)
(0.257059 -0.117756 -3.58005e-19)
(0.294281 -0.126397 -1.15544e-18)
(0.339441 -0.132808 2.25572e-18)
(0.38747 -0.137193 -2.58681e-18)
(0.436565 -0.13991 2.03806e-20)
(0.486343 -0.141355 1.26947e-18)
(0.536889 -0.141975 2.6313e-19)
(0.588335 -0.142204 -1.96873e-19)
(0.640708 -0.14242 -7.51992e-19)
(0.693909 -0.142917 -1.86029e-19)
(0.74773 -0.143888 -3.27972e-19)
(0.801872 -0.145428 -3.77425e-18)
(0.855964 -0.147551 1.12448e-19)
(0.909578 -0.150202 -9.45912e-19)
(0.962238 -0.15328 1.17863e-18)
(1.01344 -0.156656 1.38335e-18)
(1.06264 -0.160217 6.30307e-19)
(1.10924 -0.163675 -2.49447e-18)
(1.1528 -0.166715 7.24669e-19)
(1.19305 -0.16983 2.20282e-18)
(0.0718607 -0.247481 -2.49848e-18)
(0.139887 -0.216598 1.30526e-18)
(0.210967 -0.191169 1.50977e-18)
(0.278962 -0.171381 -1.15613e-18)
(0.341959 -0.156242 6.23708e-19)
(0.400382 -0.145017 1.79127e-18)
(0.455517 -0.136806 -2.8872e-20)
(0.508708 -0.130894 1.41984e-18)
(0.561036 -0.12677 -1.16324e-18)
(0.613238 -0.124083 -1.4611e-19)
(0.665726 -0.122592 3.42573e-19)
(0.718652 -0.122124 1.96603e-19)
(0.771959 -0.12254 -1.71696e-18)
(0.825437 -0.123714 -8.74582e-19)
(0.878759 -0.125519 1.96408e-18)
(0.93151 -0.127823 -2.70325e-18)
(0.983212 -0.130496 -5.86735e-19)
(1.03334 -0.133431 3.10409e-18)
(1.08129 -0.136354 1.64155e-18)
(1.12658 -0.138892 -2.08054e-18)
(1.16899 -0.141706 4.514e-19)
(0.211583 -0.261223 5.74018e-19)
(0.241387 -0.233091 -6.36761e-19)
(0.277681 -0.203854 -1.9808e-18)
(0.317812 -0.178029 1.81433e-18)
(0.359905 -0.156541 -3.52301e-19)
(0.403132 -0.139468 -1.416e-18)
(0.447382 -0.126468 -1.72484e-18)
(0.492784 -0.11687 6.92598e-19)
(0.539504 -0.110029 -9.59843e-19)
(0.587628 -0.105378 1.362e-18)
(0.637129 -0.102452 1.84591e-18)
(0.687872 -0.100885 -8.05911e-19)
(0.739627 -0.100396 2.58368e-18)
(0.792084 -0.100767 -3.65443e-18)
(0.844866 -0.101818 2.56681e-18)
(0.897532 -0.103395 -2.41117e-18)
(0.949595 -0.105367 2.05336e-18)
(1.00053 -0.10764 -6.22012e-19)
(1.0497 -0.10995 4.48446e-19)
(1.09662 -0.111865 -4.27128e-18)
(1.14113 -0.114227 2.60648e-18)
(0.370109 -0.118489 2.45298e-19)
(0.359628 -0.117358 -3.49029e-18)
(0.364964 -0.111951 2.67729e-18)
(0.381779 -0.105376 -9.08322e-19)
(0.406996 -0.098991 1.44814e-18)
(0.438544 -0.0933983 -1.49317e-18)
(0.475046 -0.0887881 3.47829e-18)
(0.515529 -0.0851626 -8.92957e-19)
(0.559255 -0.0824527 6.41379e-19)
(0.605625 -0.0805657 -8.39259e-18)
(0.65413 -0.0794109 4.12987e-18)
(0.704307 -0.0789047 -9.92719e-19)
(0.755713 -0.0789684 2.26034e-18)
(0.807902 -0.0795232 -1.2171e-18)
(0.860406 -0.0804863 2.31416e-20)
(0.91273 -0.0817779 1.42796e-18)
(0.964349 -0.083344 -1.03723e-18)
(1.01463 -0.0849512 2.06682e-18)
(1.06308 -0.0861065 -1.2829e-18)
(1.1096 -0.0878499 -2.28965e-18)
(0.305511 -0.0135515 8.58238e-19)
(0.317914 -0.031404 -2.86671e-18)
(0.339794 -0.0435386 2.66459e-18)
(0.368296 -0.0514676 2.81431e-18)
(0.401735 -0.0563239 -5.46383e-18)
(0.439073 -0.0590007 5.49417e-18)
(0.479637 -0.0602073 -6.14585e-18)
(0.522939 -0.0605002 5.15005e-18)
(0.568593 -0.0603056 -2.13309e-18)
(0.616264 -0.0599345 4.61147e-18)
(0.665629 -0.0595994 -4.41125e-18)
(0.716359 -0.0594311 5.18103e-18)
(0.768092 -0.0594951 1.25157e-19)
(0.820433 -0.0598051 -4.89608e-18)
(0.872937 -0.0603462 8.69113e-19)
(0.215652 -0.0484755 -1.29749e-18)
(0.262115 -0.0500489 -1.94368e-20)
(0.306926 -0.0509538 -1.51515e-18)
(0.350714 -0.0511848 4.49317e-18)
(0.394219 -0.0507719 -2.683e-18)
(0.438107 -0.0498499 6.06981e-18)
(0.482878 -0.0485972 -3.78726e-18)
(0.528858 -0.0471971 -2.55223e-18)
(0.576213 -0.0458062 2.41284e-18)
(0.624969 -0.0445414 -1.55442e-18)
(0.247153 -0.0955016 9.64093e-19)
(0.28661 -0.0795819 1.57314e-18)
(0.325967 -0.0672808 -3.36481e-18)
(0.365765 -0.0578053 2.04929e-18)
(0.406496 -0.0504662 -3.54702e-18)
(1.27675 -0.278039 1.39144e-19)
(1.2881 -0.26989 -5.80681e-19)
(1.28658 -0.300419 3.64609e-19)
(1.29886 -0.291163 6.75542e-19)
(1.31069 -0.281359 1.77382e-19)
(1.32199 -0.270968 -3.88407e-20)
(1.29512 -0.323243 -7.15805e-19)
(1.30799 -0.312667 -4.16144e-19)
(1.32019 -0.301374 -1.53786e-19)
(1.33161 -0.289334 8.64008e-20)
(1.30042 -0.345941 5.33855e-19)
(1.31358 -0.333624 7.17662e-20)
(1.32568 -0.320403 2.19176e-19)
(1.33658 -0.306267 -9.3996e-20)
(1.3009 -0.367321 -3.73778e-19)
(1.31355 -0.352714 -2.76706e-19)
(1.32471 -0.337062 -1.72867e-19)
(1.3342 -0.320365 6.07942e-20)
(1.29346 -0.385482 3.35078e-19)
(1.30463 -0.368217 -4.49604e-19)
(1.31387 -0.349757 1.4828e-19)
(1.32093 -0.330136 -4.1512e-20)
(1.27406 -0.399728 7.1348e-19)
(1.28297 -0.379246 2.9906e-19)
(1.28943 -0.357463 -5.44729e-20)
(1.29321 -0.334441 6.07389e-20)
(1.33956 -0.221881 5.52959e-19)
(1.34833 -0.210691 -1.12607e-19)
(1.35637 -0.198921 8.36622e-19)
(1.36355 -0.18655 -9.18449e-19)
(1.36974 -0.173561 -2.52449e-19)
(1.37479 -0.159945 -3.60557e-19)
(1.37855 -0.145698 3.03422e-19)
(1.3327 -0.259964 2.98044e-20)
(1.34269 -0.248322 -1.53803e-19)
(1.35185 -0.236017 -6.60947e-19)
(1.36004 -0.223031 -3.88593e-19)
(1.36712 -0.209349 -1.10975e-20)
(1.37293 -0.194961 5.42028e-19)
(1.37731 -0.17987 -2.41074e-19)
(1.38007 -0.164088 -8.43739e-19)
(1.38103 -0.147641 -5.36029e-19)
(1.3421 -0.276528 -8.42136e-20)
(1.35151 -0.262938 1.58435e-19)
(1.3597 -0.248553 4.10836e-19)
(1.36648 -0.23337 7.07272e-19)
(1.37168 -0.217394 -3.24068e-19)
(1.37512 -0.200643 -7.7958e-20)
(1.3766 -0.183149 9.87162e-20)
(1.37593 -0.164965 2.07482e-18)
(1.37294 -0.146163 -1.07843e-18)
(1.34612 -0.291211 9.05376e-20)
(1.35413 -0.275238 -2.09139e-19)
(1.3604 -0.25836 -1.36968e-19)
(1.36476 -0.240603 -4.69924e-19)
(1.36701 -0.222008 -1.48042e-20)
(1.36695 -0.202635 -9.90714e-19)
(1.3644 -0.182562 1.43329e-18)
(1.35917 -0.161896 -1.39871e-18)
(1.3511 -0.140768 2.33208e-18)
(1.34183 -0.302637 -6.9288e-20)
(1.3474 -0.283909 1.95162e-19)
(1.35071 -0.264227 1.71178e-19)
(1.35157 -0.243662 -3.22786e-19)
(1.34979 -0.222303 -8.43802e-19)
(1.34517 -0.200263 2.71902e-19)
(1.33757 -0.177681 -2.44367e-19)
(1.32683 -0.154726 2.24208e-19)
(1.31285 -0.1316 -2.24616e-18)
(1.32562 -0.309406 6.02192e-20)
(1.32772 -0.287647 -1.80308e-19)
(1.32705 -0.264962 5.25857e-19)
(1.32342 -0.241481 4.08124e-19)
(1.31666 -0.217357 -7.94237e-19)
(1.30663 -0.192773 2.62039e-20)
(1.29322 -0.167943 -7.58651e-19)
(1.27636 -0.143114 -1.16171e-18)
(1.29409 -0.310279 -4.99389e-20)
(1.29186 -0.285115 3.81605e-20)
(1.28636 -0.259118 -2.48222e-19)
(1.27743 -0.232485 -7.49871e-19)
(1.26495 -0.205438 3.02803e-18)
(1.24882 -0.178233 -4.41544e-19)
(1.229 -0.151166 -6.70538e-19)
(1.20549 -0.12458 1.56607e-18)
)
;

boundaryField
{
    inlet
    {
        type            uniformFixedValue;
        uniformValue    constant (1 0 0);
        value           nonuniform 0();
    }
    outlet
    {
        type            pressureInletOutletVelocity;
        value           nonuniform 0();
    }
    cylinder
    {
        type            fixedValue;
        value           nonuniform 0();
    }
    top
    {
        type            symmetryPlane;
    }
    bottom
    {
        type            symmetryPlane;
    }
    defaultFaces
    {
        type            empty;
    }
    procBoundary8to1
    {
        type            processor;
        value           nonuniform List<vector> 7((1.26518 -0.285734 1.01307e-19) (1.27397 -0.309172 1.43801e-20) (1.28163 -0.33312 2.50669e-19) (1.28627 -0.357367 -8.58624e-20) (1.28689 -0.380915 7.85992e-19) (1.28054 -0.40155 8.71773e-19) (1.26293 -0.418868 -4.50322e-20));
    }
    procBoundary8to2
    {
        type            processor;
        value           nonuniform List<vector> 
15
(
(1.26635 -0.256998 3.91961e-19)
(1.27655 -0.249625 1.88038e-19)
(1.29914 -0.261276 1.01068e-20)
(1.29914 -0.261276 1.01068e-20)
(1.30988 -0.252187 -7.5887e-21)
(1.32483 -0.207102 -1.55955e-19)
(1.33359 -0.197344 -4.15437e-19)
(1.34189 -0.187119 4.80205e-19)
(1.34964 -0.176404 -6.09235e-19)
(1.35676 -0.165175 6.82679e-19)
(1.36312 -0.153413 7.65646e-19)
(1.36861 -0.141099 6.80173e-19)
(1.32024 -0.242606 3.7624e-20)
(1.33016 -0.232511 -4.0054e-20)
(1.33016 -0.232511 -4.0054e-20)
)
;
    }
    procBoundary8to3
    {
        type            processor;
        value           nonuniform List<vector> 
11
(
(1.02621 -0.0621289 -4.84849e-18)
(1.07463 -0.0630683 1.0759e-18)
(1.17838 -0.0988616 6.00064e-19)
(1.38086 -0.130829 6.90188e-19)
(1.38004 -0.130575 -1.6026e-18)
(1.36745 -0.126838 -1.42502e-18)
(1.34006 -0.119339 2.53885e-18)
(1.29556 -0.108538 -1.88527e-18)
(1.25601 -0.11857 -1.3961e-18)
(1.25601 -0.11857 -1.3961e-18)
(1.17838 -0.0988616 6.00064e-19)
)
;
    }
    procBoundary8to7
    {
        type            processor;
        value           nonuniform List<vector> 
24
(
(0.112799 -0.152513 1.09051e-18)
(0.151193 -0.159393 1.45648e-18)
(0.216312 -0.170636 -5.75077e-19)
(0.29288 -0.186772 -9.57803e-19)
(0.372601 -0.206525 1.37581e-19)
(0.4514 -0.228434 -1.41276e-18)
(0.527525 -0.251553 3.12234e-19)
(0.599742 -0.278255 -2.31712e-18)
(0.599742 -0.278255 -2.31712e-18)
(0.665846 -0.296544 7.45732e-19)
(0.730411 -0.314979 5.77366e-20)
(0.792731 -0.333326 -1.11191e-18)
(0.852253 -0.351192 -1.20787e-18)
(0.908524 -0.368183 -3.07307e-19)
(0.961182 -0.38393 1.5164e-18)
(1.00994 -0.398118 5.82823e-19)
(1.05458 -0.410487 1.04201e-19)
(1.09495 -0.420839 -1.98841e-18)
(1.13461 -0.408885 -8.15198e-19)
(1.13461 -0.408885 -8.15198e-19)
(1.16806 -0.415045 -4.31488e-19)
(1.19691 -0.419005 8.09098e-19)
(1.22102 -0.420894 -1.6604e-18)
(1.24047 -0.421108 4.2764e-18)
)
;
    }
    procBoundary8to9
    {
        type            processor;
        value           nonuniform List<vector> 
17
(
(0.925122 -0.0611087 3.76826e-18)
(0.976382 -0.06189 -2.70918e-18)
(0.675037 -0.0434768 -1.6786e-18)
(0.726225 -0.0426457 1.83522e-18)
(0.778251 -0.0420459 -1.81377e-18)
(0.925122 -0.0611087 3.76826e-18)
(0.830756 -0.0416561 2.05103e-18)
(0.448548 -0.0447223 4.06042e-18)
(0.492174 -0.0401702 -2.20239e-18)
(0.5375 -0.0365181 3.72942e-18)
(0.675037 -0.0434768 -1.6786e-18)
(0.584538 -0.0335571 -7.61267e-18)
(0.296081 -0.073015 4.26438e-18)
(0.320592 -0.0616967 -6.24538e-19)
(0.349645 -0.052254 -6.27342e-18)
(0.448548 -0.0447223 4.06042e-18)
(0.382549 -0.0444579 3.29547e-18)
)
;
    }
    procBoundary8to14
    {
        type            processor;
        value           nonuniform List<vector> 
28
(
(0.36133 -0.0606847 -4.73225e-20)
(0.36133 -0.0606847 -4.73225e-20)
(0.828065 -0.308585 1.15375e-18)
(0.702364 -0.427544 -3.44971e-18)
(0.284106 -0.308976 -6.39614e-19)
(0.264163 -0.0942909 9.73196e-20)
(0.264163 -0.0942909 9.73196e-20)
(0.897932 -0.12224 -3.47594e-19)
(1.53057 -0.406561 -9.18086e-19)
(0.545283 -0.279893 8.39925e-20)
(0.545283 -0.279893 8.39925e-20)
(0.210616 -0.283145 1.76422e-19)
(0.435258 -0.13082 -1.45697e-18)
(0.911113 -0.0409298 -6.55731e-19)
(0.359736 -0.0871654 -7.15111e-19)
(0.359736 -0.0871654 -7.15111e-19)
(0.0201573 -0.279051 -3.74667e-18)
(0.0201573 -0.279051 -3.74667e-18)
(0.189917 -0.281694 -4.16154e-19)
(0.401513 -0.11091 -8.24581e-19)
(0.401513 -0.11091 -8.24581e-19)
(0.307303 0.0110647 -1.15942e-19)
(0.307303 0.0110647 -1.15942e-19)
(0.167707 -0.0469375 -4.90535e-19)
(0.167707 -0.0469375 -4.90535e-19)
(0.207271 -0.115934 -4.91423e-20)
(0.207271 -0.115934 -4.91423e-20)
(0.277098 -0.0861398 -5.72e-20)
)
;
    }
}


// ************************************************************************* //
