/*--------------------------------*- C++ -*----------------------------------*\
  =========                 |
  \\      /  F ield         | OpenFOAM: The Open Source CFD Toolbox
   \\    /   O peration     | Website:  https://openfoam.org
    \\  /    A nd           | Version:  7
     \\/     M anipulation  |
\*---------------------------------------------------------------------------*/
FoamFile
{
    version     2.0;
    format      ascii;
    class       volVectorField;
    location    "0.4";
    object      U;
}
// * * * * * * * * * * * * * * * * * * * * * * * * * * * * * * * * * * * * * //

dimensions      [0 1 -1 0 0 0 0];

internalField   nonuniform List<vector> 
344
(
(2.75834 -0.0246269 1.30155e-15)
(2.82943 -0.0225114 1.10384e-15)
(2.89385 -0.020258 1.18344e-15)
(2.95133 -0.0179708 9.49363e-16)
(3.00192 -0.015731 1.34107e-15)
(2.76097 -0.0575348 3.51398e-15)
(2.83233 -0.0525523 2.56481e-15)
(2.89686 -0.0472579 3.17004e-15)
(2.95434 -0.0418957 2.61144e-15)
(3.00483 -0.0366539 3.35682e-15)
(2.83877 -0.0857946 8.35169e-15)
(2.90354 -0.0770025 8.25639e-15)
(2.96097 -0.0681374 8.0933e-15)
(3.01122 -0.0595074 7.49998e-15)
(2.84881 -0.119813 9.50102e-15)
(2.91387 -0.107202 9.39111e-15)
(2.97118 -0.0945694 9.01606e-15)
(3.021 -0.0823494 8.55453e-15)
(2.86271 -0.154415 8.25229e-15)
(2.92806 -0.137561 8.14688e-15)
(2.98508 -0.12083 7.80294e-15)
(3.03418 -0.104779 7.42389e-15)
(3.04554 -0.0136133 1.23054e-15)
(3.08276 -0.0116482 1.44474e-15)
(3.11438 -0.00983348 9.74863e-16)
(3.14084 -0.00816562 1.18839e-15)
(3.16258 -0.00662592 1.2923e-15)
(3.17994 -0.00518347 1.40998e-15)
(3.19316 -0.00379906 1.2086e-15)
(3.20236 -0.00242838 1.31884e-15)
(3.20751 -0.00102676 1.30893e-15)
(3.20846 0.000449346 1.34237e-15)
(3.20493 0.00203815 1.18327e-15)
(3.19653 0.00376833 1.20969e-15)
(3.18281 0.00565867 1.13303e-15)
(3.16326 0.00771599 1.17295e-15)
(3.1374 0.00993303 8.2288e-16)
(3.10476 0.0122874 9.5531e-16)
(3.06498 0.0147415 8.67338e-16)
(3.01781 0.0172436 9.43126e-16)
(2.9632 0.01973 1.95181e-16)
(2.90127 0.0221279 5.20874e-16)
(2.83242 0.0243604 6.4205e-16)
(2.75722 0.0263504 5.70114e-16)
(2.67652 0.0280271 8.15605e-16)
(2.59135 0.0293302 -6.30696e-16)
(2.5029 0.0302154 1.18053e-16)
(2.41245 0.0306567 -7.49576e-18)
(2.32137 0.0306483 8.23895e-16)
(2.23099 0.0302031 -1.44341e-15)
(2.14257 0.0293509 -1.94604e-16)
(2.05726 0.0281348 -1.85808e-16)
(1.97608 0.0266095 3.40271e-16)
(1.89985 0.0248384 -2.06213e-15)
(1.8292 0.0228913 -7.44836e-16)
(1.76454 0.0208402 -6.55405e-16)
(1.70606 0.018755 3.63175e-16)
(1.65377 0.0166984 -1.9012e-15)
(1.60747 0.0147222 -2.86795e-16)
(1.56687 0.0128656 -4.83179e-17)
(1.53156 0.0111546 1.59062e-16)
(1.50108 0.00960367 -1.85512e-15)
(1.47493 0.00821721 -5.79447e-16)
(1.45264 0.00699244 -4.45442e-16)
(1.43372 0.00592135 2.5836e-16)
(1.41774 0.00499266 -1.93966e-15)
(1.4043 0.00419335 -3.13912e-16)
(1.39304 0.00350975 2.42609e-17)
(1.38363 0.00292833 -2.93681e-16)
(1.37579 0.00243621 1.63305e-16)
(1.36928 0.00202144 -1.80716e-15)
(1.36389 0.00167319 -7.37316e-17)
(1.35943 0.0013818 -3.40909e-16)
(1.35576 0.00113872 3.38577e-16)
(1.35273 0.000936518 -1.75757e-15)
(1.35025 0.000768746 -1.2654e-16)
(1.34821 0.000629871 -2.08355e-17)
(1.34654 0.000515169 2.27353e-16)
(1.34518 0.000420626 -1.75536e-15)
(1.34406 0.00034285 -4.05441e-16)
(1.34316 0.000278984 1.92241e-16)
(1.34242 0.000226634 6.02843e-17)
(1.34183 0.000183795 -1.83814e-15)
(1.34134 0.000148797 -4.65685e-16)
(1.34095 0.000120251 -5.12215e-18)
(1.34064 9.70049e-05 1.90873e-16)
(1.34038 7.81044e-05 -3.69645e-18)
(3.04829 -0.0317062 3.36183e-15)
(3.08531 -0.0271222 3.62914e-15)
(3.11673 -0.0228955 3.64837e-15)
(3.143 -0.0190166 3.79555e-15)
(3.16458 -0.0154402 3.61012e-15)
(3.18183 -0.0120925 3.60849e-15)
(3.19499 -0.00888053 3.55542e-15)
(3.2042 -0.00569959 3.514e-15)
(3.20941 -0.00244383 3.35179e-15)
(3.21047 0.000988596 3.28024e-15)
(3.20709 0.0046881 3.13218e-15)
(3.19888 0.00872277 3.06673e-15)
(3.18535 0.0131369 2.84043e-15)
(3.166 0.0179467 2.74138e-15)
(3.14031 0.0231351 2.56861e-15)
(3.1078 0.0286493 2.53884e-15)
(3.06807 0.0344007 2.18241e-15)
(3.02089 0.0402676 2.18707e-15)
(2.96616 0.0460993 2.0297e-15)
(2.90402 0.0517246 1.88889e-15)
(2.83485 0.0569615 1.9227e-15)
(2.75924 0.061629 1.35244e-15)
(2.67805 0.0655597 1.45849e-15)
(2.59231 0.0686124 1.22686e-15)
(2.50326 0.0706825 1.45033e-15)
(2.41221 0.0717097 5.74179e-16)
(2.32053 0.0716806 9.30245e-16)
(2.22959 0.0706264 7.98758e-16)
(2.14068 0.0686171 1.04893e-15)
(2.05497 0.065755 1.02433e-16)
(1.97348 0.0621688 4.91009e-16)
(1.89703 0.0580081 4.89472e-16)
(1.82626 0.0534373 4.75286e-16)
(1.76157 0.0486262 -3.48797e-16)
(1.70315 0.0437389 3.99917e-16)
(1.65097 0.0389225 4.79608e-16)
(1.60485 0.0342985 8.70465e-16)
(1.56445 0.029958 -1.41719e-16)
(1.52936 0.0259613 5.09638e-16)
(1.4991 0.0223412 7.37799e-16)
(1.47318 0.0191076 9.40533e-16)
(1.45109 0.0162531 4.45584e-17)
(1.43237 0.0137583 5.55769e-16)
(1.41658 0.0115965 6.16701e-16)
(1.4033 0.00973691 7.93392e-16)
(1.39219 0.00814726 1.12502e-15)
(1.38291 0.0067958 1.60722e-16)
(1.37518 0.00565235 6.49311e-16)
(1.36877 0.00468899 5.64932e-16)
(1.36346 0.00388039 9.74659e-16)
(1.35907 0.00320399 2.82674e-17)
(1.35546 0.00263989 6.88151e-16)
(1.35248 0.00217076 6.26161e-16)
(1.35004 0.00178161 8.59838e-16)
(1.34804 0.00145954 1.97807e-16)
(1.3464 0.00119358 7.39557e-16)
(1.34506 0.000974408 7.29168e-16)
(1.34397 0.000794131 9.59389e-16)
(1.34308 0.000646121 1.30358e-16)
(1.34236 0.000524814 6.81623e-16)
(1.34177 0.00042556 7.11904e-16)
(1.3413 0.000344483 1.01687e-15)
(1.34092 0.000278361 1.69985e-16)
(1.34061 0.000224522 6.84404e-16)
(1.34036 0.000180752 -6.2041e-17)
(3.0543 -0.0513949 7.29944e-15)
(3.09089 -0.0439097 6.88366e-15)
(3.12184 -0.0370372 6.7323e-15)
(3.14768 -0.0307571 6.37626e-15)
(3.16891 -0.0249895 6.19332e-15)
(3.18591 -0.0196075 5.87489e-15)
(3.19894 -0.0144527 5.69325e-15)
(3.20815 -0.00934885 5.42803e-15)
(3.21349 -0.00411721 5.238e-15)
(3.21479 0.00141213 4.98431e-15)
(3.21175 0.00739209 4.79331e-15)
(3.20394 0.0139381 4.55551e-15)
(3.19085 0.0211255 4.38337e-15)
(3.17192 0.0289827 4.13336e-15)
(3.1466 0.0374831 4.01448e-15)
(3.11437 0.0465399 3.76503e-15)
(3.07478 0.0560065 3.6754e-15)
(3.02755 0.0656798 3.38927e-15)
(2.97257 0.0753083 3.38664e-15)
(2.90996 0.0846053 3.15667e-15)
(2.84008 0.0932652 2.89886e-15)
(2.76356 0.100984 3.04901e-15)
(2.68126 0.107481 2.61717e-15)
(2.59428 0.112518 2.8432e-15)
(2.50389 0.115921 2.45037e-15)
(2.41148 0.11759 2.64862e-15)
(2.31848 0.117504 2.09813e-15)
(2.22632 0.115716 2.49368e-15)
(2.13633 0.112348 2.0619e-15)
(2.04972 0.107571 2.40178e-15)
(1.96754 0.101603 1.81152e-15)
(1.89064 0.0946952 2.22008e-15)
(1.81963 0.0871242 1.77739e-15)
(1.75491 0.0791736 2.18708e-15)
(1.69663 0.0711162 1.64807e-15)
(1.64473 0.0631951 2.34258e-15)
(1.599 0.0556089 1.90372e-15)
(1.55907 0.048505 2.38846e-15)
(1.52447 0.0419791 1.89754e-15)
(1.49473 0.036081 2.54416e-15)
(1.4693 0.0308233 2.15294e-15)
(1.4477 0.0261907 2.57925e-15)
(1.42942 0.0221489 2.12699e-15)
(1.41403 0.018652 2.69919e-15)
(1.40112 0.015648 2.29006e-15)
(1.39032 0.0130834 2.0293e-15)
(1.38132 0.0109056 2.5353e-15)
(1.37384 0.00906479 2.0334e-15)
(1.36764 0.00751535 2.62582e-15)
(1.36252 0.00621593 2.20138e-15)
(1.35828 0.00512978 2.59196e-15)
(1.3548 0.0042246 2.0906e-15)
(1.35193 0.00347229 2.65896e-15)
(1.34958 0.00284858 2.1861e-15)
(1.34766 0.00233269 2.68128e-15)
(1.34609 0.00190688 2.16114e-15)
(1.3448 0.00155614 2.59089e-15)
(1.34376 0.00126777 2.15527e-15)
(1.34291 0.00103111 2.44464e-15)
(1.34222 0.000837225 2.10411e-15)
(1.34166 0.000678647 2.50123e-15)
(1.3412 0.000549158 2.14592e-15)
(1.34084 0.00044359 2.51071e-15)
(1.34054 0.00035766 2.14225e-15)
(1.3403 0.000287826 2.49887e-15)
(3.06344 -0.0709343 8.20297e-15)
(3.09929 -0.0604698 7.83764e-15)
(3.12948 -0.0509273 7.52201e-15)
(3.15463 -0.0422676 7.17599e-15)
(3.17527 -0.0343664 6.89074e-15)
(3.19184 -0.0270321 6.59643e-15)
(3.20465 -0.0200299 6.33365e-15)
(3.21382 -0.0131009 6.0735e-15)
(3.21933 -0.00598401 5.8304e-15)
(3.22098 0.00156813 5.58338e-15)
(3.21843 0.00978188 5.35327e-15)
(3.21121 0.0188258 5.11849e-15)
(3.19876 0.0288118 4.90992e-15)
(3.18047 0.0397854 4.67898e-15)
(3.15571 0.0517125 4.49635e-15)
(3.12388 0.064472 4.28448e-15)
(3.08449 0.0778547 4.12879e-15)
(3.03719 0.091569 3.94987e-15)
(2.98182 0.105251 3.79866e-15)
(2.91848 0.118485 3.65193e-15)
(2.84752 0.130826 3.44205e-15)
(2.76958 0.141828 3.38437e-15)
(2.68558 0.151081 3.16861e-15)
(2.59669 0.158238 3.08197e-15)
(2.50425 0.163044 2.86745e-15)
(2.40977 0.165355 2.81644e-15)
(2.31476 0.165145 2.63554e-15)
(2.22074 0.162496 2.5375e-15)
(2.12913 0.157588 2.33488e-15)
(2.0412 0.150678 2.39222e-15)
(1.95804 0.142085 2.14656e-15)
(1.8805 0.132179 2.16436e-15)
(1.80919 0.121364 2.018e-15)
(1.74449 0.110049 2.13815e-15)
(1.68649 0.098627 2.14557e-15)
(1.63509 0.0874428 2.29342e-15)
(1.59001 0.0767738 2.21769e-15)
(1.55082 0.0668214 2.40344e-15)
(1.51702 0.0577124 2.42868e-15)
(1.48807 0.0495081 2.60537e-15)
(1.46343 0.042218 2.48778e-15)
(1.44256 0.0358134 2.69188e-15)
(1.42496 0.0302405 2.67235e-15)
(1.41019 0.0254304 2.75981e-15)
(1.39783 0.0213074 2.74528e-15)
(1.38752 0.0177942 2.49006e-15)
(1.37895 0.0148161 2.66032e-15)
(1.37184 0.0123029 2.60284e-15)
(1.36596 0.0101905 2.7927e-15)
(1.36111 0.00842127 2.61277e-15)
(1.35711 0.00694416 2.7386e-15)
(1.35382 0.00571449 2.69723e-15)
(1.35112 0.0046935 2.67977e-15)
(1.34891 0.00384783 2.7128e-15)
(1.3471 0.00314892 2.79625e-15)
(1.34562 0.00257252 2.71172e-15)
(1.34442 0.00209808 2.70793e-15)
(1.34344 0.00170828 2.59538e-15)
(1.34265 0.00138859 2.65735e-15)
(1.342 0.00112684 2.61436e-15)
(1.34148 0.000912882 2.61211e-15)
(1.34106 0.000738273 2.50653e-15)
(1.34072 0.000596 2.77633e-15)
(1.34045 0.000480257 2.65946e-15)
(1.34022 0.000386245 2.70568e-15)
(3.07564 -0.0899125 7.2378e-15)
(3.11036 -0.0764031 6.92788e-15)
(3.13941 -0.0641989 6.64107e-15)
(3.16349 -0.0532308 6.33988e-15)
(3.18323 -0.043315 6.13814e-15)
(3.19913 -0.0341796 5.8846e-15)
(3.21152 -0.0254973 5.66052e-15)
(3.22055 -0.0169133 5.44333e-15)
(3.22619 -0.00807155 5.25848e-15)
(3.22822 0.0013646 5.06358e-15)
(3.22626 0.0117106 4.88372e-15)
(3.21977 0.0231938 4.69729e-15)
(3.20812 0.0359714 4.54748e-15)
(3.19063 0.0501128 4.38071e-15)
(3.16658 0.0655799 4.24286e-15)
(3.13528 0.0822165 4.08264e-15)
(3.09614 0.0997469 3.99996e-15)
(3.04873 0.117781 3.88098e-15)
(2.99285 0.13583 3.7598e-15)
(2.92852 0.153327 3.6735e-15)
(2.85611 0.169667 3.49517e-15)
(2.77627 0.18424 3.54664e-15)
(2.69 0.196482 3.39531e-15)
(2.59854 0.205919 3.29375e-15)
(2.50337 0.212202 3.06036e-15)
(2.40612 0.215137 3.21647e-15)
(2.30846 0.214696 2.99753e-15)
(2.21202 0.211 2.83209e-15)
(2.11832 0.204303 2.55611e-15)
(2.02873 0.194962 2.79696e-15)
(1.94436 0.183423 2.56088e-15)
(1.8661 0.170195 2.40912e-15)
(1.79454 0.155827 2.23126e-15)
(1.73 0.140876 2.66538e-15)
(1.67251 0.125866 2.53722e-15)
(1.6219 0.111247 2.55593e-15)
(1.57778 0.0973774 2.47264e-15)
(1.53967 0.0845064 3.00086e-15)
(1.50699 0.0727844 2.94284e-15)
(1.47917 0.0622757 2.91549e-15)
(1.4556 0.0529778 2.86078e-15)
(1.43573 0.0448412 3.34037e-15)
(1.41906 0.0377862 3.23413e-15)
(1.40512 0.0317164 3.14324e-15)
(1.3935 0.0265285 3.08109e-15)
(1.38384 0.0221194 2.9597e-15)
(1.37584 0.0183906 3.41937e-15)
(1.36922 0.0152505 3.24234e-15)
(1.36376 0.0126162 3.12182e-15)
(1.35926 0.0104137 3.03533e-15)
(1.35557 0.00857773 3.43716e-15)
(1.35253 0.00705156 3.24332e-15)
(1.35005 0.00578607 3.16897e-15)
(1.34802 0.00473917 3.00774e-15)
(1.34637 0.00387495 3.41984e-15)
(1.34502 0.00316296 3.20207e-15)
(1.34392 0.0025775 3.12536e-15)
(1.34303 0.00209694 2.94538e-15)
(1.34231 0.00170316 3.28913e-15)
(1.34172 0.00138102 3.17731e-15)
(1.34125 0.00111792 3.05729e-15)
(1.34087 0.000903365 2.95645e-15)
)
;

boundaryField
{
    inlet
    {
        type            uniformFixedValue;
        uniformValue    constant (1 0 0);
        value           nonuniform 0();
    }
    outlet
    {
        type            pressureInletOutletVelocity;
        value           nonuniform 0();
    }
    wall
    {
        type            fixedValue;
        value           nonuniform 0();
    }
    wedge1
    {
        type            wedge;
    }
    wedge2
    {
        type            wedge;
    }
    axis
    {
        type            empty;
    }
    procBoundary3to2
    {
        type            processor;
        value           nonuniform List<vector> 5((2.68117 -0.0264864 1.04959e-15) (2.68338 -0.0619252 3.21588e-15) (2.76685 -0.0941067 8.59714e-15) (2.76685 -0.0941067 8.59714e-15) (2.77606 -0.131817 9.97533e-15));
    }
    procBoundary3to4
    {
        type            processor;
        value           nonuniform List<vector> 4((1.34018 6.27613e-05 -1.13955e-16) (1.34016 0.000145226 5.41721e-16) (1.34011 0.000231164 1.97082e-15) (1.34005 0.000310006 2.59001e-15));
    }
    procBoundary3to8
    {
        type            processor;
        value           uniform (2.78891 -0.170609 8.7167e-15);
    }
    procBoundary3to9
    {
        type            processor;
        value           nonuniform List<vector> 
70
(
(2.88084 -0.189551 5.81115e-15)
(2.94636 -0.167893 5.57879e-15)
(3.00276 -0.146629 5.3043e-15)
(3.0507 -0.126442 5.17146e-15)
(1.34056 0.000728682 3.37054e-15)
(1.34031 0.000586679 3.09844e-15)
(1.34012 0.000471423 3.40668e-15)
(3.09065 -0.10794 4.96666e-15)
(3.12369 -0.0913111 4.78369e-15)
(3.15101 -0.0764691 4.61967e-15)
(3.17347 -0.0632993 4.44686e-15)
(3.1918 -0.051538 4.29898e-15)
(3.20659 -0.0408104 4.1613e-15)
(3.21821 -0.0306774 4.03273e-15)
(3.22683 -0.020671 3.91728e-15)
(3.2324 -0.0103256 3.81433e-15)
(3.2347 0.000798487 3.71646e-15)
(3.23329 0.0131249 3.62445e-15)
(3.22754 0.0269478 3.53934e-15)
(3.21676 0.0424828 3.46078e-15)
(3.20017 0.0598319 3.39747e-15)
(3.17694 0.0789575 3.33057e-15)
(3.14626 0.099669 3.29272e-15)
(3.10743 0.121619 3.24656e-15)
(3.05991 0.14431 3.24093e-15)
(3.00341 0.167106 3.20065e-15)
(2.93792 0.189271 3.1898e-15)
(2.86376 0.210007 3.15156e-15)
(2.78162 0.228509 3.15277e-15)
(2.69258 0.244029 3.20175e-15)
(2.59799 0.255938 3.14364e-15)
(2.4995 0.263776 3.06157e-15)
(2.39891 0.267296 3.00846e-15)
(2.29806 0.266467 2.97796e-15)
(2.19876 0.261464 2.80444e-15)
(2.10265 0.252637 2.69423e-15)
(2.0112 0.240472 2.63797e-15)
(1.92558 0.225566 2.63727e-15)
(1.84668 0.208598 2.52314e-15)
(1.77508 0.190294 2.51249e-15)
(1.71099 0.171377 2.58956e-15)
(1.65438 0.152516 2.71048e-15)
(1.60494 0.134274 2.67026e-15)
(1.5622 0.117083 2.76426e-15)
(1.52557 0.101234 2.99941e-15)
(1.49439 0.0868896 3.22108e-15)
(1.46803 0.0741036 3.19729e-15)
(1.44586 0.0628507 3.24631e-15)
(1.42728 0.0530506 3.35265e-15)
(1.41178 0.0445904 3.45892e-15)
(1.39888 0.0373402 3.40259e-15)
(1.38819 0.0311654 3.41592e-15)
(1.37934 0.0259344 3.379e-15)
(1.37203 0.0215231 3.51978e-15)
(1.36602 0.017818 3.62041e-15)
(1.36107 0.0147171 3.49039e-15)
(1.35702 0.01213 3.48197e-15)
(1.35369 0.0099778 3.4725e-15)
(1.35098 0.00819192 3.49639e-15)
(1.34876 0.00671354 3.38767e-15)
(1.34695 0.0054924 3.32794e-15)
(1.34548 0.00448579 3.40489e-15)
(1.34428 0.0036576 3.47896e-15)
(1.34331 0.00297743 3.33527e-15)
(1.34252 0.0024198 3.31316e-15)
(1.34189 0.00196337 3.33336e-15)
(1.34138 0.00159039 3.39318e-15)
(1.34096 0.00128608 3.29175e-15)
(1.34056 0.000728682 3.37054e-15)
(1.34063 0.00103817 3.26566e-15)
)
;
    }
}


// ************************************************************************* //
