/*--------------------------------*- C++ -*----------------------------------*\
  =========                 |
  \\      /  F ield         | OpenFOAM: The Open Source CFD Toolbox
   \\    /   O peration     | Website:  https://openfoam.org
    \\  /    A nd           | Version:  7
     \\/     M anipulation  |
\*---------------------------------------------------------------------------*/
FoamFile
{
    version     2.0;
    format      ascii;
    class       volScalarField;
    location    "4.8";
    object      p;
}
// * * * * * * * * * * * * * * * * * * * * * * * * * * * * * * * * * * * * * //

dimensions      [0 2 -2 0 0 0 0];

internalField   nonuniform List<scalar> 
344
(
-1.12374
-1.11261
-1.13105
-1.18673
0.117294
0.125598
0.1336
0.141307
0.148726
-1.17388
-1.06378
-1.00621
-0.968334
-0.939338
-0.915111
-0.893072
-0.871594
-0.849851
-0.827489
-0.804397
-0.780593
-0.75616
-0.731205
-0.705849
-0.680207
-0.65439
-0.628498
-0.602622
-0.576842
-0.551228
-0.525843
-0.50074
-0.475964
-0.451555
-0.427545
-0.403962
-0.380828
-0.358162
-0.335979
-0.314289
-0.293101
-0.27242
-0.252249
-0.23259
-0.213442
-0.194804
-0.176672
-0.159041
-0.141907
-0.125262
-0.109101
-0.0934157
-0.0781983
-0.0634406
-0.0491341
-0.0352699
-0.0218391
-0.00883266
0.00375855
0.0159437
0.027732
0.0391324
0.0501541
0.0608061
0.0710971
0.0810359
0.0906311
0.0998912
0.108824
0.117439
0.125743
0.133744
0.141449
0.148867
-1.33321
-1.05947
-1.00663
-0.967339
-0.940139
-0.917088
-0.895672
-0.874411
-0.852673
-0.830201
-0.80694
-0.782941
-0.758304
-0.733151
-0.707605
-0.681786
-0.655806
-0.629765
-0.603752
-0.577848
-0.552123
-0.526636
-0.501441
-0.476583
-0.452099
-0.428021
-0.404377
-0.381189
-0.358474
-0.336246
-0.314515
-0.293291
-0.272577
-0.252377
-0.232692
-0.213521
-0.194861
-0.17671
-0.159062
-0.141912
-0.125254
-0.109081
-0.0933845
-0.0781575
-0.0633912
-0.049077
-0.0352061
-0.0217694
-0.00875779
0.00383797
0.0160271
0.0278187
0.0392221
0.0502463
0.0609004
0.0711931
0.0811333
0.0907297
0.0999906
0.108925
0.11754
0.125844
0.133845
0.14155
0.148968
-1.26898
-1.05339
-1.00848
-0.968228
-0.941445
-0.918642
-0.897277
-0.876005
-0.854198
-0.831626
-0.808252
-0.784138
-0.75939
-0.734132
-0.708489
-0.682582
-0.656521
-0.630406
-0.604327
-0.578363
-0.552584
-0.527049
-0.501809
-0.476911
-0.452391
-0.42828
-0.404607
-0.381392
-0.358653
-0.336403
-0.314653
-0.293411
-0.272681
-0.252466
-0.232768
-0.213585
-0.194915
-0.176753
-0.159097
-0.141939
-0.125274
-0.109094
-0.0933924
-0.0781602
-0.0633893
-0.049071
-0.0351963
-0.0217563
-0.0087417
0.0038567
0.0160482
0.0278419
0.0392471
0.050273
0.0609284
0.0712224
0.0811637
0.090761
0.100023
0.108957
0.117573
0.125877
0.133879
0.141584
0.149002
-1.20148
-1.04524
-1.00699
-0.968262
-0.942397
-0.919872
-0.898634
-0.87736
-0.855498
-0.832843
-0.809375
-0.785166
-0.760326
-0.734981
-0.709258
-0.683276
-0.657148
-0.630972
-0.604838
-0.578824
-0.552999
-0.527422
-0.502145
-0.477213
-0.452661
-0.428523
-0.404824
-0.381586
-0.358826
-0.336557
-0.31479
-0.293531
-0.272787
-0.25256
-0.23285
-0.213656
-0.194975
-0.176805
-0.159141
-0.141976
-0.125304
-0.109118
-0.0934108
-0.0781736
-0.0633982
-0.0490758
-0.0351975
-0.0217542
-0.00873656
0.00386456
0.0160585
0.0278544
0.0392616
0.0502892
0.0609462
0.0712416
0.0811841
0.0907825
0.100045
0.108981
0.117597
0.125902
0.133904
0.14161
0.149028
0.156166
-1.14841
-1.03491
-1.00234
-0.966822
-0.942341
-0.920359
-0.89938
-0.878205
-0.856361
-0.833683
-0.810172
-0.785909
-0.761013
-0.735613
-0.709837
-0.683807
-0.657632
-0.631413
-0.60524
-0.579189
-0.553331
-0.527723
-0.502418
-0.47746
-0.452885
-0.428725
-0.405006
-0.38175
-0.358973
-0.336688
-0.314907
-0.293636
-0.27288
-0.252642
-0.232922
-0.213719
-0.19503
-0.176852
-0.159181
-0.142009
-0.125332
-0.109141
-0.0934283
-0.0781866
-0.0634071
-0.049081
-0.0351993
-0.0217528
-0.00873239
0.00387129
0.0160675
0.0278656
0.0392747
0.050304
0.0609626
0.0712594
0.0812032
0.0908028
0.100067
0.109003
0.11762
0.125926
0.133928
0.141635
0.149054
0.156191
-1.10437
-1.02294
-0.995811
-0.964188
-0.941327
-0.920105
-0.899517
-0.878536
)
;

boundaryField
{
    inlet
    {
        type            zeroGradient;
    }
    outlet
    {
        type            fixedValue;
        value           nonuniform 0();
    }
    wall
    {
        type            zeroGradient;
    }
    wedge1
    {
        type            wedge;
    }
    wedge2
    {
        type            wedge;
    }
    axis
    {
        type            empty;
    }
    procBoundary21to15
    {
        type            processor;
        value           nonuniform List<scalar> 
70
(
-1.03278
-1.06096
-1.09116
-1.12063
0.117057
0.125366
0.133371
0.141082
0.148506
-1.11082
-1.04192
-0.987755
-0.952961
-0.926822
-0.904119
-0.882949
-0.862233
-0.841262
-0.819667
-0.797319
-0.774223
-0.750451
-0.726108
-0.701309
-0.676173
-0.650812
-0.625329
-0.59982
-0.574369
-0.549049
-0.523927
-0.499058
-0.474491
-0.450268
-0.426424
-0.402989
-0.379988
-0.35744
-0.335361
-0.313764
-0.292659
-0.272052
-0.251946
-0.232346
-0.213249
-0.194657
-0.176565
-0.158969
-0.141866
-0.12525
-0.109113
-0.0934485
-0.0782496
-0.063508
-0.0492154
-0.0353633
-0.0219428
-0.00894516
0.00363863
0.0158176
0.0276007
0.038997
0.0500154
0.0606647
0.0709538
0.0808913
0.0904858
0.0997455
0.108679
0.108679
)
;
    }
    procBoundary21to16
    {
        type            processor;
        value           nonuniform List<scalar> 2(0.155865 0.156004);
    }
    procBoundary21to20
    {
        type            processor;
        value           uniform -1.15614;
    }
    procBoundary21to22
    {
        type            processor;
        value           nonuniform List<scalar> 5(0.156104 0.156139 0.156139 0.163029 0.163055);
    }
    procBoundary21to27
    {
        type            processor;
        value           nonuniform List<scalar> 
67
(
-0.856786
-0.834145
-0.810641
-0.786369
-0.761454
-0.736031
-0.710229
-0.684172
-0.657972
-0.631728
-0.605531
-0.579458
-0.553578
-0.52795
-0.502626
-0.47765
-0.453059
-0.428884
-0.40515
-0.38188
-0.359091
-0.336795
-0.315003
-0.293722
-0.272956
-0.252709
-0.232981
-0.213771
-0.195075
-0.176891
-0.159214
-0.142037
-0.125354
-0.109159
-0.093442
-0.0781964
-0.0634133
-0.0490839
-0.0351991
-0.0217498
-0.00872679
0.00387926
0.0160777
0.0278777
0.0392886
0.0503196
0.0609797
0.0712779
0.081223
0.0908236
0.100088
0.109026
0.117644
0.12595
0.133953
0.141661
0.14908
0.156218
-1.06585
-1.01125
-0.988212
-0.96063
-0.939499
-0.91919
-0.899101
-0.856786
-0.878398
)
;
    }
}


// ************************************************************************* //
