/*--------------------------------*- C++ -*----------------------------------*\
  =========                 |
  \\      /  F ield         | OpenFOAM: The Open Source CFD Toolbox
   \\    /   O peration     | Website:  https://openfoam.org
    \\  /    A nd           | Version:  7
     \\/     M anipulation  |
\*---------------------------------------------------------------------------*/
FoamFile
{
    version     2.0;
    format      ascii;
    class       volVectorField;
    location    "1";
    object      U;
}
// * * * * * * * * * * * * * * * * * * * * * * * * * * * * * * * * * * * * * //

dimensions      [0 1 -1 0 0 0 0];

internalField   nonuniform List<vector> 
197568
(
(3 -1.19204e-16 0)
(3 -6.15406e-16 0)
(3 -4.02505e-16 0)
(3 2.55285e-16 0)
(3 1.72578e-16 0)
(3 2.51941e-16 0)
(3 -6.97987e-16 0)
(3 -1.32518e-15 0)
(3 -1.31321e-15 0)
(3 -9.50458e-16 0)
(3 -3.71947e-16 0)
(3 1.02911e-15 0)
(3 1.2734e-15 0)
(3 1.41453e-15 0)
(3 1.7343e-15 0)
(3 8.36219e-16 0)
(3 -8.30857e-17 0)
(3 -6.83266e-16 0)
(3 -4.62523e-16 0)
(3 -2.52991e-16 0)
(3 -3.48737e-16 0)
(3 -2.86493e-16 0)
(3 1.34727e-16 0)
(3 -2.89685e-16 0)
(3 -9.68226e-16 0)
(3 -4.98255e-16 0)
(3 -1.39699e-16 0)
(3 -4.80669e-16 0)
(3 -7.19831e-16 0)
(3 1.14088e-15 0)
(3 1.23555e-15 0)
(3 2.43761e-16 0)
(3 9.24744e-17 0)
(3 -2.01557e-16 0)
(3 -6.02324e-16 0)
(3 -8.97043e-16 0)
(3 -4.41141e-16 0)
(3 -6.65922e-16 0)
(3 -1.68304e-15 0)
(3 -1.83413e-15 0)
(3 -1.77159e-15 0)
(3 -1.4797e-15 0)
(3 -8.59282e-16 0)
(3 -1.66344e-16 0)
(3 -5.13785e-16 0)
(3 -8.02613e-16 0)
(3 -8.02071e-16 0)
(3 -1.85424e-16 0)
(3 -7.06245e-16 0)
(3 -7.28603e-16 0)
(3 -4.17627e-16 0)
(3 -4.80391e-16 0)
(3 -8.14335e-16 0)
(3 -7.6724e-16 0)
(3 6.96847e-17 0)
(3 8.04457e-16 0)
(3 1.61028e-15 0)
(3 1.64573e-15 0)
(3 1.18465e-15 0)
(3 6.23821e-16 0)
(3 6.83616e-16 0)
(3 1.0112e-15 0)
(3 3.0971e-16 0)
(3 -4.71642e-16 0)
(3 -3.51043e-16 0)
(3 -7.45778e-16 0)
(3 -4.26621e-16 0)
(3 1.7703e-17 0)
(3 -2.21023e-16 0)
(3 -5.58142e-16 0)
(3 -4.13653e-16 0)
(3 9.36979e-17 0)
(3 5.57667e-16 0)
(3 4.67971e-16 0)
(3 6.54213e-16 0)
(3 8.90274e-16 0)
(3 9.08735e-16 0)
(3 1.20423e-16 0)
(3 -4.73475e-16 0)
(3 -1.72491e-16 0)
(3 3.25209e-16 0)
(3 6.31686e-16 0)
(3 -7.4516e-16 0)
(3 1.57166e-16 0)
(3 1.65568e-16 0)
(3 1.18314e-16 0)
(3 3.36956e-16 0)
(3 1.45816e-15 0)
(3 2.4352e-16 0)
(3 -1.00465e-15 0)
(3 -1.36368e-15 0)
(3 -1.62075e-15 0)
(3 -1.1006e-15 0)
(3 -3.63185e-16 0)
(3 4.42929e-15 0)
(1.32409 0.00417702 0)
(0.729632 0.00442301 0)
(0.705302 0.00142454 0)
(0.701933 0.00190787 0)
(0.697507 0.00268065 0)
(0.693615 0.00384913 0)
(0.687445 0.00539935 0)
(0.677668 0.0066542 0)
(0.664357 0.00711273 0)
(0.649322 0.00678332 0)
(0.635674 0.00510394 0)
(0.624063 0.00322702 0)
(0.614502 0.00211214 0)
(0.605652 0.00222582 0)
(0.596642 0.00260295 0)
(0.586789 0.00348369 0)
(0.575063 0.00454946 0)
(0.56332 0.0055994 0)
(0.552264 0.00611505 0)
(0.543748 0.00536959 0)
(0.538045 0.00417549 0)
(0.534233 0.00314192 0)
(0.528485 0.0031417 0)
(0.519534 0.00361231 0)
(0.507025 0.0043738 0)
(0.491444 0.00476405 0)
(0.477277 0.00460729 0)
(0.465185 0.00428077 0)
(0.454443 0.00422476 0)
(0.443881 0.00439759 0)
(0.433428 0.00453648 0)
(0.424009 0.0045115 0)
(0.41658 0.00445945 0)
(0.411132 0.00449737 0)
(0.406811 0.00461131 0)
(0.402392 0.00470152 0)
(0.39669 0.00480062 0)
(0.388788 0.00485067 0)
(0.378978 0.00485658 0)
(0.3672 0.00484937 0)
(0.354137 0.00482682 0)
(0.340611 0.00480291 0)
(0.327262 0.00479384 0)
(0.314981 0.00479133 0)
(0.304385 0.0047654 0)
(0.295085 0.00475088 0)
(0.286619 0.00476704 0)
(0.278278 0.0047288 0)
(0.269315 0.00473121 0)
(0.258615 0.00480091 0)
(0.247151 0.00486868 0)
(0.23625 0.00494802 0)
(0.226093 0.00502672 0)
(0.216987 0.00510898 0)
(0.208792 0.00514221 0)
(0.201176 0.00516723 0)
(0.19335 0.0051905 0)
(0.185017 0.00517735 0)
(0.175189 0.00511492 0)
(0.162912 0.00504681 0)
(0.148287 0.00499909 0)
(0.132191 0.00499093 0)
(0.116151 0.00503373 0)
(0.102322 0.00513056 0)
(0.0919266 0.00530431 0)
(0.0848885 0.00544447 0)
(0.0788447 0.00565641 0)
(0.0716564 0.00585269 0)
(0.0628463 0.0061235 0)
(0.0520202 0.00642996 0)
(0.0390811 0.00670791 0)
(0.0243167 0.00679619 0)
(0.00807316 0.00697835 0)
(3 -1.03196e-16 0)
(3 -5.46065e-16 0)
(3 -4.57118e-16 0)
(3 -2.68988e-16 0)
(3 -4.84025e-17 0)
(3 -4.71752e-18 0)
(3 -2.6488e-16 0)
(3 -1.13747e-15 0)
(3 -1.51419e-15 0)
(3 -1.3466e-15 0)
(3 -9.32025e-16 0)
(3 3.19996e-17 0)
(3 1.13641e-15 0)
(3 1.64362e-15 0)
(3 2.5021e-15 0)
(3 8.78555e-16 0)
(3 -1.63613e-16 0)
(3 -9.07841e-16 0)
(3 -3.11606e-16 0)
(3 -2.42493e-16 0)
(3 -8.76207e-16 0)
(3 -1.38192e-15 0)
(3 -5.68984e-16 0)
(3 -1.03241e-15 0)
(3 -1.06847e-15 0)
(3 -3.14444e-16 0)
(3 1.24294e-15 0)
(3 6.68689e-16 0)
(3 5.09005e-16 0)
(3 1.12998e-15 0)
(3 1.36474e-15 0)
(3 9.96865e-16 0)
(3 3.70704e-16 0)
(3 -4.30314e-16 0)
(3 -6.7196e-16 0)
(3 -8.64068e-16 0)
(3 6.84479e-16 0)
(3 7.70817e-16 0)
(3 -1.06442e-16 0)
(3 -9.74647e-16 0)
(3 -1.56215e-15 0)
(3 -1.43368e-15 0)
(3 -9.46541e-16 0)
(3 -4.80404e-16 0)
(3 -8.59071e-16 0)
(3 -6.56148e-16 0)
(3 -7.58687e-16 0)
(3 -5.66849e-16 0)
(3 -9.80869e-16 0)
(3 -1.28013e-15 0)
(3 -1.05075e-15 0)
(3 -9.45164e-16 0)
(3 -1.02425e-15 0)
(3 -7.15692e-16 0)
(3 4.62152e-16 0)
(3 1.62828e-15 0)
(3 1.81618e-15 0)
(3 2.30324e-15 0)
(3 3.54189e-15 0)
(3 2.64173e-15 0)
(3 1.45673e-15 0)
(3 1.35168e-15 0)
(3 2.09932e-16 0)
(3 -3.34555e-16 0)
(3 -1.08211e-15 0)
(3 -1.05551e-15 0)
(3 -6.86459e-16 0)
(3 -1.83401e-16 0)
(3 5.42372e-16 0)
(3 -4.94464e-16 0)
(3 -2.7805e-16 0)
(3 1.08941e-16 0)
(3 1.71581e-16 0)
(3 2.14683e-16 0)
(3 8.78003e-16 0)
(3 2.37151e-15 0)
(3 2.65595e-15 0)
(3 1.32569e-15 0)
(3 7.89074e-16 0)
(3 5.11417e-16 0)
(3 4.37491e-16 0)
(3 -9.24439e-17 0)
(3 -6.41885e-16 0)
(3 -2.04454e-16 0)
(3 3.37024e-16 0)
(3 4.16313e-16 0)
(3 7.29993e-16 0)
(3 5.95609e-16 0)
(3 -7.02327e-16 0)
(3 -1.46543e-15 0)
(3 -3.09216e-15 0)
(3 -3.39003e-15 0)
(3 -2.748e-15 0)
(3 -9.29098e-16 0)
(3 -3.20741e-15 0)
(1.33229 0.0159537 0)
(0.732382 0.0132208 0)
(0.706223 0.00485593 0)
(0.70035 0.00653784 0)
(0.694129 0.00767608 0)
(0.689368 0.0106255 0)
(0.683223 0.0152328 0)
(0.67402 0.0190709 0)
(0.66171 0.020433 0)
(0.648075 0.0191462 0)
(0.635785 0.0149612 0)
(0.624285 0.0102292 0)
(0.613982 0.00695892 0)
(0.604311 0.00674111 0)
(0.594765 0.00770931 0)
(0.584628 0.0102682 0)
(0.572946 0.013372 0)
(0.561713 0.0162816 0)
(0.551463 0.0174594 0)
(0.543896 0.0155479 0)
(0.538587 0.0126308 0)
(0.534328 0.010179 0)
(0.527742 0.00994358 0)
(0.518257 0.0111297 0)
(0.505554 0.0130293 0)
(0.490161 0.0140176 0)
(0.476325 0.0135787 0)
(0.464457 0.0127745 0)
(0.453755 0.0127007 0)
(0.443195 0.0132594 0)
(0.432765 0.0136909 0)
(0.423424 0.0136272 0)
(0.416114 0.0134672 0)
(0.410787 0.0135438 0)
(0.406599 0.0138199 0)
(0.402305 0.0140407 0)
(0.396719 0.0142929 0)
(0.388934 0.0144395 0)
(0.379216 0.0144833 0)
(0.367483 0.0145077 0)
(0.354422 0.0144899 0)
(0.340887 0.0144653 0)
(0.327533 0.0144955 0)
(0.315232 0.0145504 0)
(0.30457 0.0145341 0)
(0.295124 0.0145461 0)
(0.286471 0.0146327 0)
(0.277908 0.014532 0)
(0.268744 0.0144826 0)
(0.257929 0.0145823 0)
(0.246464 0.0146884 0)
(0.235622 0.0148436 0)
(0.225555 0.0150374 0)
(0.216528 0.0152797 0)
(0.208393 0.0154596 0)
(0.20074 0.0156408 0)
(0.192788 0.0157597 0)
(0.184282 0.0157173 0)
(0.174277 0.0154769 0)
(0.16191 0.0152338 0)
(0.147238 0.0150955 0)
(0.13118 0.0150967 0)
(0.115168 0.0152484 0)
(0.101338 0.0154769 0)
(0.0909152 0.0158807 0)
(0.0838924 0.0162067 0)
(0.0779776 0.0167524 0)
(0.0710459 0.0174587 0)
(0.0624552 0.0183972 0)
(0.0517801 0.0193992 0)
(0.0389295 0.020242 0)
(0.0242099 0.0204765 0)
(0.00807857 0.0209274 0)
(3 1.86299e-16 0)
(3 2.42278e-17 0)
(3 -4.41728e-16 0)
(3 -7.39325e-16 0)
(3 -2.43294e-16 0)
(3 -2.19247e-16 0)
(3 -5.22703e-16 0)
(3 -1.55114e-15 0)
(3 -1.60586e-15 0)
(3 -1.2973e-15 0)
(3 -1.39144e-15 0)
(3 -6.40513e-16 0)
(3 6.80607e-16 0)
(3 1.92864e-15 0)
(3 2.30853e-15 0)
(3 1.66783e-15 0)
(3 1.32819e-15 0)
(3 5.34131e-16 0)
(3 7.41615e-16 0)
(3 9.04119e-16 0)
(3 1.07366e-15 0)
(3 9.6717e-16 0)
(3 -1.79765e-16 0)
(3 -6.43913e-16 0)
(3 9.84243e-17 0)
(3 3.73226e-16 0)
(3 5.50284e-16 0)
(3 2.21341e-16 0)
(3 3.50422e-16 0)
(3 9.17857e-17 0)
(3 3.81211e-16 0)
(3 1.23582e-15 0)
(3 1.11905e-15 0)
(3 7.71251e-16 0)
(3 -2.49367e-16 0)
(3 -1.58563e-15 0)
(3 -1.22194e-15 0)
(3 -6.48909e-16 0)
(3 -4.83323e-16 0)
(3 -4.55449e-16 0)
(3 -5.24126e-16 0)
(3 -5.49245e-16 0)
(3 -1.25332e-16 0)
(3 -4.82713e-16 0)
(3 -8.99017e-16 0)
(3 -1.3181e-15 0)
(3 -1.53896e-15 0)
(3 -1.69218e-15 0)
(3 -1.19066e-15 0)
(3 -3.96922e-16 0)
(3 -6.35093e-16 0)
(3 -4.0722e-16 0)
(3 2.49537e-16 0)
(3 6.81267e-16 0)
(3 4.5017e-16 0)
(3 2.02812e-16 0)
(3 7.49579e-16 0)
(3 2.3366e-15 0)
(3 3.09151e-15 0)
(3 2.07061e-15 0)
(3 1.20483e-15 0)
(3 -2.41056e-16 0)
(3 -1.00276e-15 0)
(3 -8.62574e-16 0)
(3 -1.2162e-15 0)
(3 -9.69715e-16 0)
(3 -3.03806e-16 0)
(3 1.45746e-16 0)
(3 4.52972e-16 0)
(3 1.25631e-16 0)
(3 7.51979e-16 0)
(3 7.49846e-16 0)
(3 3.59076e-16 0)
(3 7.40572e-16 0)
(3 8.65314e-16 0)
(3 1.73959e-15 0)
(3 1.73534e-15 0)
(3 1.25071e-15 0)
(3 7.82476e-16 0)
(3 9.59236e-16 0)
(3 -3.09833e-16 0)
(3 -1.24312e-15 0)
(3 -1.05561e-15 0)
(3 -1.2612e-15 0)
(3 -5.77046e-16 0)
(3 2.37233e-16 0)
(3 1.09424e-15 0)
(3 7.20154e-16 0)
(3 -2.42626e-17 0)
(3 -1.39786e-15 0)
(3 -2.02342e-15 0)
(3 -1.73361e-15 0)
(3 -1.432e-15 0)
(3 -7.30972e-16 0)
(3 -7.31178e-15 0)
(1.34895 0.0243446 0)
(0.736761 0.0221079 0)
(0.709414 0.00976148 0)
(0.70091 0.0127849 0)
(0.692075 0.01428 0)
(0.685459 0.0183775 0)
(0.678762 0.0249215 0)
(0.669979 0.0306116 0)
(0.658635 0.0324567 0)
(0.646707 0.0301627 0)
(0.636176 0.0241373 0)
(0.625403 0.0174483 0)
(0.614714 0.0126125 0)
(0.604012 0.0121279 0)
(0.593429 0.0134642 0)
(0.582531 0.0173418 0)
(0.57053 0.0221147 0)
(0.559515 0.0265004 0)
(0.549718 0.0279125 0)
(0.542933 0.0251805 0)
(0.538046 0.0211692 0)
(0.533617 0.0176484 0)
(0.526467 0.0171862 0)
(0.516623 0.0189195 0)
(0.503765 0.0216971 0)
(0.488504 0.0230844 0)
(0.474909 0.0223526 0)
(0.463208 0.0211515 0)
(0.4525 0.0210755 0)
(0.441896 0.0219616 0)
(0.431417 0.0226421 0)
(0.422067 0.0225642 0)
(0.414795 0.0223813 0)
(0.40953 0.0225861 0)
(0.405437 0.0230576 0)
(0.401235 0.0233961 0)
(0.395732 0.0237766 0)
(0.388018 0.023985 0)
(0.378335 0.0240318 0)
(0.366588 0.024081 0)
(0.353477 0.0240908 0)
(0.339906 0.0240986 0)
(0.32655 0.0242019 0)
(0.314249 0.0243205 0)
(0.303556 0.0242856 0)
(0.294039 0.0242814 0)
(0.28528 0.0244016 0)
(0.276587 0.0242443 0)
(0.267308 0.0241862 0)
(0.256466 0.0243718 0)
(0.245095 0.0245446 0)
(0.234405 0.0247643 0)
(0.224551 0.0250389 0)
(0.215704 0.0253876 0)
(0.207731 0.0256576 0)
(0.200086 0.0259551 0)
(0.192009 0.02617 0)
(0.183309 0.0261599 0)
(0.173122 0.0258508 0)
(0.160705 0.0255518 0)
(0.146027 0.0253901 0)
(0.130033 0.025379 0)
(0.113994 0.0255485 0)
(0.100031 0.0258111 0)
(0.0894611 0.0263389 0)
(0.0824089 0.026849 0)
(0.0766458 0.0277607 0)
(0.0699824 0.0289172 0)
(0.0615968 0.030418 0)
(0.0510595 0.032033 0)
(0.0383309 0.0334544 0)
(0.0237574 0.0339405 0)
(0.00797282 0.0347331 0)
(3 -6.81599e-17 0)
(3 -5.22174e-16 0)
(3 -6.92848e-16 0)
(3 -8.28213e-16 0)
(3 -3.94026e-16 0)
(3 -5.9694e-16 0)
(3 -3.42852e-16 0)
(3 -4.62981e-16 0)
(3 -4.92238e-16 0)
(3 -5.72785e-16 0)
(3 -6.76076e-16 0)
(3 4.70955e-16 0)
(3 1.49776e-15 0)
(3 1.88774e-15 0)
(3 1.41131e-15 0)
(3 1.08365e-15 0)
(3 8.80787e-16 0)
(3 8.73613e-16 0)
(3 4.40707e-16 0)
(3 5.26563e-16 0)
(3 1.07909e-15 0)
(3 1.05307e-15 0)
(3 3.68247e-16 0)
(3 1.24923e-16 0)
(3 3.92558e-16 0)
(3 7.3648e-16 0)
(3 8.50216e-17 0)
(3 1.23862e-16 0)
(3 2.51845e-17 0)
(3 -3.36375e-16 0)
(3 -1.49761e-16 0)
(3 7.93593e-17 0)
(3 5.35547e-16 0)
(3 1.12807e-15 0)
(3 3.42001e-16 0)
(3 -6.20693e-16 0)
(3 -1.83054e-15 0)
(3 -2.34845e-15 0)
(3 -1.62798e-15 0)
(3 -7.68635e-16 0)
(3 -4.8382e-16 0)
(3 -4.83217e-16 0)
(3 -9.70024e-16 0)
(3 -1.2122e-15 0)
(3 -1.49796e-15 0)
(3 -1.49663e-15 0)
(3 -9.08533e-16 0)
(3 -8.84223e-16 0)
(3 -6.74405e-16 0)
(3 3.60822e-16 0)
(3 1.12848e-15 0)
(3 1.12204e-15 0)
(3 1.97584e-15 0)
(3 1.99777e-15 0)
(3 1.29018e-15 0)
(3 1.94159e-15 0)
(3 2.37046e-15 0)
(3 1.77509e-15 0)
(3 1.2448e-15 0)
(3 1.02544e-15 0)
(3 3.91824e-16 0)
(3 -8.82313e-17 0)
(3 -1.83694e-16 0)
(3 -4.77583e-16 0)
(3 -3.2019e-16 0)
(3 -5.98931e-16 0)
(3 -2.30838e-16 0)
(3 -2.55887e-16 0)
(3 -6.53602e-16 0)
(3 -3.72386e-16 0)
(3 4.79081e-16 0)
(3 6.62665e-16 0)
(3 1.4069e-15 0)
(3 1.99411e-15 0)
(3 1.90799e-15 0)
(3 1.64749e-15 0)
(3 9.36891e-16 0)
(3 5.09132e-16 0)
(3 -3.49616e-16 0)
(3 -1.1364e-15 0)
(3 -1.00429e-15 0)
(3 -1.46627e-15 0)
(3 -1.29299e-15 0)
(3 -1.27482e-15 0)
(3 -5.88205e-16 0)
(3 1.24287e-15 0)
(3 1.83324e-15 0)
(3 1.45706e-15 0)
(3 1.25532e-15 0)
(3 1.12282e-16 0)
(3 -1.59858e-16 0)
(3 2.07626e-16 0)
(3 3.91355e-16 0)
(3 -1.40059e-16 0)
(3 4.25549e-15 0)
(1.3701 0.0306215 0)
(0.741181 0.028767 0)
(0.711862 0.0163386 0)
(0.701817 0.0203016 0)
(0.691363 0.022229 0)
(0.683437 0.0273453 0)
(0.675936 0.0351482 0)
(0.66741 0.0417487 0)
(0.656924 0.0431871 0)
(0.646804 0.03961 0)
(0.637504 0.0324365 0)
(0.627438 0.0244772 0)
(0.616413 0.0188048 0)
(0.604841 0.0182905 0)
(0.593235 0.0201094 0)
(0.581449 0.025087 0)
(0.569092 0.0311822 0)
(0.558255 0.0365128 0)
(0.548872 0.0376994 0)
(0.542783 0.0343806 0)
(0.538318 0.0296537 0)
(0.5338 0.0254421 0)
(0.526186 0.0248419 0)
(0.516009 0.0270506 0)
(0.502953 0.030475 0)
(0.487786 0.0321176 0)
(0.474338 0.0311264 0)
(0.462681 0.0296178 0)
(0.451855 0.0295328 0)
(0.441118 0.0306816 0)
(0.430528 0.031562 0)
(0.421121 0.0314829 0)
(0.413827 0.0313377 0)
(0.408541 0.0317185 0)
(0.404456 0.0324002 0)
(0.400238 0.0328434 0)
(0.394714 0.0332721 0)
(0.386998 0.033524 0)
(0.377309 0.0335575 0)
(0.365541 0.0336159 0)
(0.352407 0.0336628 0)
(0.338854 0.0337203 0)
(0.325558 0.0339143 0)
(0.313305 0.0341095 0)
(0.302602 0.0340629 0)
(0.293034 0.0340449 0)
(0.284183 0.0341878 0)
(0.275385 0.0339808 0)
(0.265947 0.0339253 0)
(0.255049 0.0341965 0)
(0.243704 0.0344262 0)
(0.233093 0.0346949 0)
(0.223387 0.0350297 0)
(0.214671 0.0354506 0)
(0.206824 0.0357591 0)
(0.199151 0.03615 0)
(0.190927 0.0364639 0)
(0.182017 0.036534 0)
(0.171664 0.036254 0)
(0.159246 0.0360101 0)
(0.144636 0.0358716 0)
(0.128775 0.0358402 0)
(0.112784 0.0359953 0)
(0.0987448 0.0362538 0)
(0.0880564 0.036854 0)
(0.0809745 0.0375239 0)
(0.0753214 0.0387157 0)
(0.0688699 0.0402457 0)
(0.0606305 0.0422206 0)
(0.0501892 0.0443863 0)
(0.0375746 0.046384 0)
(0.023168 0.0471705 0)
(0.00780829 0.0483233 0)
(3 -2.2855e-16 0)
(3 -4.20007e-16 0)
(3 -6.45513e-16 0)
(3 -5.7918e-16 0)
(3 -2.03755e-16 0)
(3 2.55236e-16 0)
(3 4.64509e-16 0)
(3 6.89664e-16 0)
(3 4.24668e-16 0)
(3 2.94992e-17 0)
(3 -3.77419e-16 0)
(3 -4.70028e-17 0)
(3 -1.5107e-17 0)
(3 2.53172e-16 0)
(3 1.02661e-16 0)
(3 3.08339e-16 0)
(3 4.07771e-16 0)
(3 1.53417e-16 0)
(3 -2.11008e-16 0)
(3 -3.01311e-16 0)
(3 1.86069e-16 0)
(3 1.13434e-15 0)
(3 1.76715e-15 0)
(3 1.25274e-15 0)
(3 3.29082e-16 0)
(3 4.0602e-16 0)
(3 5.41776e-16 0)
(3 9.36332e-16 0)
(3 6.98799e-16 0)
(3 3.67061e-16 0)
(3 1.8411e-16 0)
(3 -5.71637e-17 0)
(3 8.70882e-17 0)
(3 -4.14093e-17 0)
(3 -2.46368e-16 0)
(3 -4.31163e-16 0)
(3 -6.64229e-16 0)
(3 -1.05879e-15 0)
(3 -1.16009e-15 0)
(3 -1.24922e-15 0)
(3 -7.72536e-16 0)
(3 -1.12618e-15 0)
(3 -1.60247e-15 0)
(3 -1.64554e-15 0)
(3 -1.44389e-15 0)
(3 -8.01087e-16 0)
(3 1.01585e-16 0)
(3 2.68708e-16 0)
(3 4.85365e-17 0)
(3 5.24627e-17 0)
(3 1.16456e-15 0)
(3 1.37463e-15 0)
(3 1.01755e-15 0)
(3 1.14107e-15 0)
(3 2.09055e-15 0)
(3 2.77577e-15 0)
(3 3.04659e-15 0)
(3 2.94738e-15 0)
(3 1.65014e-15 0)
(3 1.65543e-15 0)
(3 1.78574e-15 0)
(3 9.29866e-16 0)
(3 9.69754e-16 0)
(3 3.86736e-16 0)
(3 2.76224e-16 0)
(3 -2.25059e-16 0)
(3 1.30665e-17 0)
(3 4.73257e-17 0)
(3 -3.5819e-16 0)
(3 9.6559e-17 0)
(3 -2.21288e-16 0)
(3 -1.75102e-16 0)
(3 7.62878e-16 0)
(3 2.52114e-16 0)
(3 6.59845e-16 0)
(3 1.03563e-15 0)
(3 1.13116e-15 0)
(3 9.89487e-16 0)
(3 9.0113e-17 0)
(3 -1.4434e-15 0)
(3 -1.99726e-15 0)
(3 -1.64554e-15 0)
(3 -1.36784e-15 0)
(3 5.59501e-16 0)
(3 2.21829e-15 0)
(3 2.45391e-15 0)
(3 1.66966e-15 0)
(3 1.2016e-15 0)
(3 1.09504e-15 0)
(3 8.80711e-16 0)
(3 5.53025e-16 0)
(3 2.98941e-16 0)
(3 -1.05328e-16 0)
(3 -1.07412e-15 0)
(3 3.83117e-15 0)
(1.39434 0.0375891 0)
(0.743441 0.0364219 0)
(0.712165 0.0235828 0)
(0.702037 0.0281904 0)
(0.691004 0.0305268 0)
(0.682642 0.0368207 0)
(0.674626 0.0458431 0)
(0.666054 0.0525805 0)
(0.656229 0.052999 0)
(0.647414 0.0482542 0)
(0.638801 0.0402061 0)
(0.629293 0.0313962 0)
(0.618016 0.0254497 0)
(0.605948 0.0249706 0)
(0.593753 0.0273604 0)
(0.581378 0.0332658 0)
(0.56895 0.0404204 0)
(0.558309 0.0462283 0)
(0.549255 0.0469633 0)
(0.543521 0.04324 0)
(0.539284 0.038039 0)
(0.534628 0.0333897 0)
(0.526644 0.0327368 0)
(0.516233 0.035366 0)
(0.503048 0.0392675 0)
(0.488027 0.0410873 0)
(0.474735 0.0399242 0)
(0.463113 0.0381957 0)
(0.452173 0.0380656 0)
(0.441311 0.0394075 0)
(0.430623 0.0404498 0)
(0.421167 0.040414 0)
(0.413827 0.0403656 0)
(0.408476 0.0409745 0)
(0.404322 0.0418885 0)
(0.399979 0.0424536 0)
(0.394341 0.0429164 0)
(0.38656 0.0431663 0)
(0.376834 0.0431362 0)
(0.365046 0.0431593 0)
(0.351921 0.0432286 0)
(0.338424 0.0433311 0)
(0.325216 0.0436094 0)
(0.313016 0.0438766 0)
(0.302281 0.0438266 0)
(0.292642 0.0438124 0)
(0.283682 0.0439941 0)
(0.274787 0.0437697 0)
(0.265155 0.0437561 0)
(0.254175 0.0441376 0)
(0.242774 0.0444422 0)
(0.232129 0.0447641 0)
(0.222439 0.0451503 0)
(0.213751 0.0455863 0)
(0.205941 0.0458497 0)
(0.198181 0.0462639 0)
(0.18978 0.0466371 0)
(0.180633 0.0467966 0)
(0.170103 0.0466176 0)
(0.157678 0.0465324 0)
(0.143137 0.0464864 0)
(0.127382 0.0464351 0)
(0.111474 0.0465493 0)
(0.0974126 0.0467842 0)
(0.0866708 0.0473919 0)
(0.0795942 0.0481967 0)
(0.0740368 0.0496254 0)
(0.0677414 0.0514616 0)
(0.0595928 0.0538129 0)
(0.0492186 0.0564436 0)
(0.0367232 0.058996 0)
(0.0225049 0.0601075 0)
(0.00760435 0.0616221 0)
(3 3.64132e-17 0)
(3 1.36692e-16 0)
(3 -1.56252e-16 0)
(3 -3.9563e-17 0)
(3 -6.3831e-17 0)
(3 1.74067e-16 0)
(3 -9.11772e-17 0)
(3 -1.73067e-16 0)
(3 -2.05469e-16 0)
(3 2.07013e-16 0)
(3 2.53779e-16 0)
(3 -3.40543e-16 0)
(3 -4.86683e-16 0)
(3 -5.95025e-16 0)
(3 -1.35265e-17 0)
(3 7.5462e-16 0)
(3 2.92767e-16 0)
(3 -3.95129e-16 0)
(3 5.83419e-16 0)
(3 1.1341e-15 0)
(3 2.24694e-15 0)
(3 2.52951e-15 0)
(3 1.79996e-15 0)
(3 9.97553e-16 0)
(3 5.12721e-16 0)
(3 -7.96309e-17 0)
(3 2.13282e-16 0)
(3 3.75833e-16 0)
(3 6.25911e-16 0)
(3 1.24487e-16 0)
(3 -2.62871e-16 0)
(3 1.9488e-16 0)
(3 3.88942e-16 0)
(3 -6.56913e-16 0)
(3 -8.90437e-16 0)
(3 -8.66538e-16 0)
(3 -7.27237e-16 0)
(3 -6.84892e-16 0)
(3 -1.37678e-15 0)
(3 -1.38021e-15 0)
(3 -1.27235e-15 0)
(3 -1.12577e-15 0)
(3 -6.66219e-16 0)
(3 -6.14971e-16 0)
(3 -1.18017e-15 0)
(3 -1.08681e-15 0)
(3 -1.04829e-15 0)
(3 -1.00071e-15 0)
(3 -1.09883e-15 0)
(3 -1.57671e-16 0)
(3 -3.63132e-16 0)
(3 -5.04776e-16 0)
(3 -4.08569e-16 0)
(3 -8.15456e-17 0)
(3 1.04219e-15 0)
(3 1.61336e-15 0)
(3 2.14399e-15 0)
(3 2.45902e-15 0)
(3 3.15794e-15 0)
(3 3.02218e-15 0)
(3 2.63765e-15 0)
(3 1.46305e-15 0)
(3 1.05714e-15 0)
(3 9.23987e-16 0)
(3 5.77302e-16 0)
(3 7.17826e-16 0)
(3 9.8511e-16 0)
(3 1.23872e-15 0)
(3 9.10237e-16 0)
(3 2.32163e-16 0)
(3 -7.31249e-16 0)
(3 -7.99952e-16 0)
(3 -5.65113e-16 0)
(3 -2.00613e-16 0)
(3 -2.38024e-17 0)
(3 4.5098e-16 0)
(3 1.20641e-15 0)
(3 1.4327e-15 0)
(3 5.76364e-16 0)
(3 -4.31444e-16 0)
(3 -2.02354e-15 0)
(3 -9.08135e-16 0)
(3 -1.69125e-16 0)
(3 6.18225e-16 0)
(3 1.01074e-15 0)
(3 9.01128e-16 0)
(3 5.4329e-17 0)
(3 -3.07038e-16 0)
(3 2.89486e-16 0)
(3 7.60693e-16 0)
(3 -1.19648e-16 0)
(3 -1.01143e-15 0)
(3 -1.98052e-15 0)
(3 -9.36978e-16 0)
(3 -4.38632e-15 0)
(1.4253 0.0453895 0)
(0.746679 0.0435832 0)
(0.712793 0.0306958 0)
(0.702387 0.0359507 0)
(0.69056 0.0390118 0)
(0.681768 0.0468049 0)
(0.673135 0.0569292 0)
(0.664373 0.0630617 0)
(0.655245 0.062278 0)
(0.647841 0.0564178 0)
(0.639987 0.0474581 0)
(0.631247 0.0379485 0)
(0.61995 0.0321114 0)
(0.607693 0.0317513 0)
(0.595172 0.0349002 0)
(0.582227 0.0416688 0)
(0.569723 0.0497453 0)
(0.559029 0.0557718 0)
(0.550068 0.0560538 0)
(0.544241 0.0520817 0)
(0.540096 0.0464771 0)
(0.535207 0.0415439 0)
(0.526949 0.0408293 0)
(0.516453 0.0437621 0)
(0.503295 0.047972 0)
(0.488574 0.0499416 0)
(0.475518 0.0486989 0)
(0.46399 0.0468156 0)
(0.452998 0.0466319 0)
(0.44207 0.0480973 0)
(0.431355 0.049277 0)
(0.421923 0.0493159 0)
(0.414594 0.049415 0)
(0.409227 0.0503239 0)
(0.404987 0.0514353 0)
(0.400455 0.0521236 0)
(0.39465 0.0526002 0)
(0.386763 0.0528516 0)
(0.376976 0.0527569 0)
(0.365178 0.0527214 0)
(0.352113 0.0527885 0)
(0.338719 0.0529189 0)
(0.325621 0.0532577 0)
(0.313469 0.0535825 0)
(0.302678 0.0535479 0)
(0.292928 0.0535796 0)
(0.283833 0.0538465 0)
(0.274846 0.0536482 0)
(0.265023 0.0536984 0)
(0.253956 0.0542071 0)
(0.242461 0.054602 0)
(0.231703 0.0549877 0)
(0.221897 0.0554295 0)
(0.213139 0.0558639 0)
(0.205269 0.0560368 0)
(0.197386 0.0564107 0)
(0.188823 0.0567944 0)
(0.17946 0.057025 0)
(0.168761 0.056983 0)
(0.156292 0.0571144 0)
(0.141783 0.0572063 0)
(0.126042 0.0571496 0)
(0.1102 0.0572157 0)
(0.0961724 0.0574402 0)
(0.0854556 0.0580054 0)
(0.0784084 0.058912 0)
(0.0728844 0.0605072 0)
(0.0666421 0.0625565 0)
(0.0585109 0.0651911 0)
(0.0481776 0.0682097 0)
(0.0358165 0.0712954 0)
(0.0218109 0.0727382 0)
(0.00736984 0.0746229 0)
(3 2.61292e-16 0)
(3 3.73957e-16 0)
(3 1.98993e-16 0)
(3 -1.01511e-16 0)
(3 -3.4276e-16 0)
(3 -1.53857e-16 0)
(3 1.31985e-16 0)
(3 3.99681e-17 0)
(3 2.90465e-16 0)
(3 7.09898e-16 0)
(3 1.59393e-15 0)
(3 1.55659e-15 0)
(3 4.78091e-16 0)
(3 -5.18558e-16 0)
(3 -7.23844e-16 0)
(3 -1.03414e-15 0)
(3 -1.05597e-15 0)
(3 -3.93665e-16 0)
(3 1.35154e-15 0)
(3 2.16084e-15 0)
(3 3.04681e-15 0)
(3 2.98319e-15 0)
(3 2.25253e-15 0)
(3 1.15115e-15 0)
(3 1.07293e-15 0)
(3 8.54323e-16 0)
(3 9.81609e-16 0)
(3 1.34908e-15 0)
(3 1.02912e-15 0)
(3 5.20335e-16 0)
(3 5.0592e-16 0)
(3 1.52084e-15 0)
(3 1.41928e-15 0)
(3 6.26523e-16 0)
(3 1.17061e-16 0)
(3 6.6819e-17 0)
(3 -6.85836e-16 0)
(3 -1.24179e-15 0)
(3 -1.33808e-15 0)
(3 -1.62466e-15 0)
(3 -2.2781e-15 0)
(3 -2.13533e-15 0)
(3 -6.34619e-16 0)
(3 -2.15746e-16 0)
(3 -2.62297e-16 0)
(3 -8.12999e-16 0)
(3 -6.12853e-16 0)
(3 -1.84993e-16 0)
(3 -8.21096e-17 0)
(3 -5.93687e-17 0)
(3 2.70182e-17 0)
(3 9.61696e-16 0)
(3 1.39588e-15 0)
(3 6.88871e-16 0)
(3 4.16733e-16 0)
(3 6.93394e-16 0)
(3 7.46488e-16 0)
(3 1.16381e-15 0)
(3 1.07036e-15 0)
(3 1.14658e-15 0)
(3 1.59014e-15 0)
(3 5.60103e-16 0)
(3 3.83768e-16 0)
(3 7.43084e-16 0)
(3 7.14299e-16 0)
(3 1.75702e-15 0)
(3 1.19747e-15 0)
(3 7.84597e-16 0)
(3 3.38018e-16 0)
(3 -5.44908e-16 0)
(3 -1.43424e-15 0)
(3 -1.34004e-15 0)
(3 -1.03709e-15 0)
(3 -6.18024e-16 0)
(3 6.82516e-16 0)
(3 1.50569e-15 0)
(3 2.34365e-15 0)
(3 2.65674e-15 0)
(3 1.87535e-15 0)
(3 1.36631e-15 0)
(3 3.94461e-16 0)
(3 7.2484e-16 0)
(3 7.54013e-16 0)
(3 5.95175e-16 0)
(3 -5.74724e-16 0)
(3 -8.23147e-16 0)
(3 -6.6429e-16 0)
(3 -1.9539e-16 0)
(3 1.11873e-16 0)
(3 -1.35746e-16 0)
(3 -1.69869e-15 0)
(3 -3.56471e-15 0)
(3 -4.05664e-15 0)
(3 -2.10201e-15 0)
(3 -9.93585e-15 0)
(1.46441 0.0529346 0)
(0.750815 0.0505527 0)
(0.713795 0.038059 0)
(0.702861 0.044052 0)
(0.689866 0.0480174 0)
(0.680335 0.0574576 0)
(0.67084 0.0684043 0)
(0.661906 0.0730394 0)
(0.653759 0.0708413 0)
(0.648345 0.0638245 0)
(0.641397 0.053937 0)
(0.633399 0.0439236 0)
(0.622019 0.0386869 0)
(0.609472 0.0386769 0)
(0.596523 0.0428176 0)
(0.582738 0.0504536 0)
(0.570033 0.0593973 0)
(0.559085 0.0654951 0)
(0.550162 0.0652863 0)
(0.544187 0.0610318 0)
(0.540382 0.0549489 0)
(0.535434 0.0497586 0)
(0.52717 0.048934 0)
(0.516864 0.0520983 0)
(0.503846 0.0564861 0)
(0.489487 0.0586559 0)
(0.476585 0.0574556 0)
(0.465043 0.0554887 0)
(0.453926 0.0552418 0)
(0.442888 0.0568053 0)
(0.432165 0.0581226 0)
(0.422826 0.0582674 0)
(0.415599 0.058555 0)
(0.410312 0.0596758 0)
(0.406041 0.0609456 0)
(0.401319 0.0617621 0)
(0.39532 0.0622328 0)
(0.387311 0.0625015 0)
(0.377446 0.0623785 0)
(0.365644 0.0623041 0)
(0.352675 0.0623668 0)
(0.339411 0.0625202 0)
(0.326419 0.0628954 0)
(0.314299 0.0632583 0)
(0.303429 0.0632517 0)
(0.293521 0.0633715 0)
(0.284256 0.0637827 0)
(0.275176 0.0636633 0)
(0.265193 0.0637839 0)
(0.254053 0.0644194 0)
(0.24247 0.064893 0)
(0.231586 0.0653289 0)
(0.221592 0.0658225 0)
(0.212714 0.0662664 0)
(0.204717 0.0663518 0)
(0.196709 0.066653 0)
(0.188047 0.0670095 0)
(0.178553 0.0672781 0)
(0.167744 0.0673686 0)
(0.155219 0.0677248 0)
(0.140697 0.067977 0)
(0.124909 0.0679561 0)
(0.109099 0.0680001 0)
(0.0951537 0.0682248 0)
(0.0845395 0.0687323 0)
(0.0775319 0.0696936 0)
(0.0719602 0.0713749 0)
(0.0656605 0.0735462 0)
(0.0574685 0.0763904 0)
(0.0471361 0.0797266 0)
(0.0349063 0.0833133 0)
(0.0211195 0.0850599 0)
(0.00711979 0.0873135 0)
(3 5.81276e-17 0)
(3 3.0218e-16 0)
(3 6.5903e-16 0)
(3 -4.0248e-17 0)
(3 -3.42923e-16 0)
(3 -3.61672e-16 0)
(3 2.97774e-17 0)
(3 8.89917e-16 0)
(3 1.15259e-15 0)
(3 1.04635e-15 0)
(3 1.38824e-15 0)
(3 1.70001e-15 0)
(3 1.12635e-15 0)
(3 5.32673e-16 0)
(3 -4.74676e-16 0)
(3 -1.23118e-15 0)
(3 -8.66656e-16 0)
(3 -5.59445e-16 0)
(3 6.49706e-16 0)
(3 1.29916e-15 0)
(3 1.68416e-15 0)
(3 2.07775e-15 0)
(3 1.94708e-15 0)
(3 1.85525e-15 0)
(3 2.46982e-15 0)
(3 2.99336e-15 0)
(3 2.54829e-15 0)
(3 1.42189e-15 0)
(3 1.18568e-16 0)
(3 6.68648e-16 0)
(3 1.77272e-15 0)
(3 2.5717e-15 0)
(3 1.83407e-15 0)
(3 1.76218e-15 0)
(3 1.22533e-15 0)
(3 8.57211e-16 0)
(3 -2.30848e-16 0)
(3 -7.24197e-16 0)
(3 -5.65026e-16 0)
(3 -7.25387e-16 0)
(3 -1.31527e-15 0)
(3 -1.15482e-15 0)
(3 -1.26022e-15 0)
(3 -1.46919e-15 0)
(3 -4.07956e-16 0)
(3 -2.59306e-16 0)
(3 1.81461e-16 0)
(3 -3.56532e-16 0)
(3 1.1623e-17 0)
(3 -3.30817e-16 0)
(3 7.57832e-17 0)
(3 8.63791e-16 0)
(3 8.90753e-16 0)
(3 8.2106e-16 0)
(3 4.35909e-16 0)
(3 1.07648e-16 0)
(3 -7.8248e-16 0)
(3 1.0819e-17 0)
(3 -2.25951e-16 0)
(3 -5.213e-17 0)
(3 -4.52396e-17 0)
(3 -2.27459e-17 0)
(3 -3.9546e-16 0)
(3 -6.14642e-16 0)
(3 -8.77886e-17 0)
(3 2.59028e-17 0)
(3 5.71695e-16 0)
(3 3.3318e-16 0)
(3 1.63068e-17 0)
(3 -5.91262e-16 0)
(3 -1.14828e-15 0)
(3 -1.00718e-15 0)
(3 -1.14737e-15 0)
(3 -1.31944e-15 0)
(3 -1.20324e-15 0)
(3 -4.13504e-16 0)
(3 -2.02147e-16 0)
(3 -8.99697e-17 0)
(3 6.08412e-16 0)
(3 9.03814e-16 0)
(3 7.77335e-16 0)
(3 3.37122e-16 0)
(3 -1.89394e-16 0)
(3 -4.20986e-16 0)
(3 -1.32503e-15 0)
(3 -1.4984e-15 0)
(3 -1.45462e-15 0)
(3 -5.41357e-16 0)
(3 -3.05132e-16 0)
(3 -1.38809e-15 0)
(3 -2.26697e-15 0)
(3 -3.16074e-15 0)
(3 -3.67053e-15 0)
(3 -3.10727e-15 0)
(3 -2.56353e-15 0)
(1.51122 0.0598489 0)
(0.755691 0.0570332 0)
(0.714562 0.0457346 0)
(0.703525 0.0527529 0)
(0.689326 0.0579283 0)
(0.679079 0.0691295 0)
(0.668564 0.0801409 0)
(0.65969 0.0824179 0)
(0.652492 0.0785646 0)
(0.649139 0.0702974 0)
(0.643001 0.0595534 0)
(0.635518 0.0494575 0)
(0.624067 0.0453504 0)
(0.611108 0.0459045 0)
(0.59769 0.051175 0)
(0.583013 0.0596671 0)
(0.570281 0.0693967 0)
(0.55918 0.0754016 0)
(0.550497 0.074512 0)
(0.544476 0.0698781 0)
(0.541196 0.063213 0)
(0.536128 0.0578253 0)
(0.527834 0.056916 0)
(0.517692 0.0603246 0)
(0.504658 0.0648924 0)
(0.490541 0.0673873 0)
(0.477649 0.0663206 0)
(0.46602 0.0642807 0)
(0.454785 0.0639212 0)
(0.443721 0.065542 0)
(0.433135 0.0669928 0)
(0.424051 0.0672675 0)
(0.41706 0.0677169 0)
(0.411926 0.0690358 0)
(0.407628 0.0703618 0)
(0.402697 0.0712658 0)
(0.396417 0.0717499 0)
(0.388222 0.0720504 0)
(0.378205 0.0719574 0)
(0.366347 0.0719127 0)
(0.35345 0.0720095 0)
(0.340292 0.0722092 0)
(0.327385 0.0726085 0)
(0.315286 0.0729846 0)
(0.304346 0.0729979 0)
(0.294283 0.0732186 0)
(0.284896 0.0738033 0)
(0.275698 0.0738233 0)
(0.26563 0.0740317 0)
(0.254446 0.0747796 0)
(0.242808 0.0752975 0)
(0.231829 0.075746 0)
(0.221628 0.0762676 0)
(0.212598 0.0767329 0)
(0.204423 0.0767769 0)
(0.19627 0.077022 0)
(0.187546 0.0773469 0)
(0.178002 0.0776262 0)
(0.167141 0.0778174 0)
(0.154555 0.0783548 0)
(0.139971 0.0787532 0)
(0.124097 0.0788187 0)
(0.108283 0.0788858 0)
(0.0944499 0.0791397 0)
(0.0839883 0.0795975 0)
(0.0770077 0.0805586 0)
(0.0713154 0.0822519 0)
(0.0648707 0.0844734 0)
(0.0565516 0.0874774 0)
(0.0461681 0.0910661 0)
(0.034041 0.0951066 0)
(0.0204537 0.0970995 0)
(0.00687284 0.0997075 0)
(3 -4.66133e-17 0)
(3 8.81628e-17 0)
(3 6.57886e-16 0)
(3 5.73122e-16 0)
(3 -2.70086e-16 0)
(3 -1.29581e-15 0)
(3 -8.29494e-16 0)
(3 4.93696e-16 0)
(3 5.82073e-16 0)
(3 -1.01366e-17 0)
(3 -2.60687e-17 0)
(3 5.22501e-17 0)
(3 4.50721e-16 0)
(3 1.80387e-16 0)
(3 1.70863e-16 0)
(3 7.20456e-16 0)
(3 1.1598e-15 0)
(3 1.44842e-15 0)
(3 2.30236e-15 0)
(3 1.65176e-15 0)
(3 1.26584e-15 0)
(3 1.29805e-15 0)
(3 1.65595e-15 0)
(3 1.7967e-15 0)
(3 2.22938e-15 0)
(3 1.42255e-15 0)
(3 1.28961e-15 0)
(3 2.33339e-16 0)
(3 -4.5205e-16 0)
(3 6.29384e-17 0)
(3 2.50931e-16 0)
(3 7.71902e-16 0)
(3 1.67402e-15 0)
(3 1.65928e-15 0)
(3 1.54381e-15 0)
(3 1.02937e-15 0)
(3 7.63233e-16 0)
(3 5.90143e-16 0)
(3 5.60531e-16 0)
(3 3.0077e-16 0)
(3 -3.08522e-18 0)
(3 -3.23685e-16 0)
(3 -1.29548e-15 0)
(3 -1.87372e-15 0)
(3 -1.24499e-15 0)
(3 -9.57439e-16 0)
(3 -6.66661e-16 0)
(3 -5.408e-16 0)
(3 -4.81301e-16 0)
(3 7.89278e-17 0)
(3 1.6711e-16 0)
(3 -4.48781e-17 0)
(3 2.22476e-16 0)
(3 3.42831e-16 0)
(3 4.22344e-16 0)
(3 5.1101e-16 0)
(3 2.43664e-16 0)
(3 6.28485e-17 0)
(3 3.16257e-16 0)
(3 1.67612e-16 0)
(3 -4.21501e-16 0)
(3 -1.39658e-16 0)
(3 -1.39875e-16 0)
(3 -9.53172e-17 0)
(3 1.69393e-16 0)
(3 4.91098e-16 0)
(3 7.91204e-16 0)
(3 6.12952e-16 0)
(3 6.87117e-17 0)
(3 -3.47961e-16 0)
(3 -3.39501e-17 0)
(3 -6.53267e-17 0)
(3 -2.89469e-16 0)
(3 -9.66639e-16 0)
(3 -1.83586e-15 0)
(3 -1.87414e-15 0)
(3 -2.11233e-15 0)
(3 -1.46324e-15 0)
(3 -5.34574e-16 0)
(3 5.06315e-17 0)
(3 2.93265e-16 0)
(3 4.93678e-16 0)
(3 2.53085e-16 0)
(3 2.81679e-16 0)
(3 -2.51434e-16 0)
(3 -1.28793e-15 0)
(3 -1.30122e-15 0)
(3 -1.03405e-15 0)
(3 -5.58282e-16 0)
(3 -3.95622e-16 0)
(3 -9.30308e-16 0)
(3 -2.15234e-15 0)
(3 -1.59963e-15 0)
(3 -1.31104e-15 0)
(3 -1.4859e-15 0)
(1.56546 0.0668973 0)
(0.760947 0.063931 0)
(0.715445 0.0533948 0)
(0.704783 0.0618248 0)
(0.689021 0.0689761 0)