/*--------------------------------*- C++ -*----------------------------------*\
  =========                 |
  \\      /  F ield         | OpenFOAM: The Open Source CFD Toolbox
   \\    /   O peration     | Website:  https://openfoam.org
    \\  /    A nd           | Version:  7
     \\/     M anipulation  |
\*---------------------------------------------------------------------------*/
FoamFile
{
    version     2.0;
    format      ascii;
    class       volScalarField;
    location    "23.000796";
    object      p;
}
// * * * * * * * * * * * * * * * * * * * * * * * * * * * * * * * * * * * * * //

dimensions      [0 2 -2 0 0 0 0];

internalField   nonuniform List<scalar> 
5800
(
-0.285118
-0.280249
-0.274676
-0.268434
-0.261577
-0.254176
-0.246331
-0.238207
-0.229943
-0.290768
-0.294869
-0.297253
-0.298546
-0.299051
-0.298738
-0.297616
-0.295711
-0.293038
-0.289609
-0.285439
-0.280543
-0.274943
-0.268676
-0.261789
-0.254353
-0.246467
-0.238301
-0.22998
-0.29241
-0.296327
-0.298573
-0.299749
-0.300145
-0.299734
-0.298524
-0.29654
-0.293796
-0.290303
-0.286075
-0.281126
-0.275475
-0.269154
-0.262209
-0.254705
-0.246734
-0.238487
-0.230055
-0.294851
-0.298496
-0.300537
-0.301538
-0.301773
-0.301215
-0.299873
-0.29777
-0.29492
-0.291332
-0.287017
-0.281987
-0.276259
-0.269858
-0.262827
-0.255222
-0.247126
-0.238758
-0.230167
-0.298069
-0.301356
-0.303128
-0.303898
-0.303918
-0.303165
-0.301648
-0.299387
-0.296395
-0.292679
-0.288249
-0.283112
-0.277281
-0.270776
-0.263631
-0.255894
-0.247636
-0.239108
-0.230318
-0.302032
-0.304881
-0.306321
-0.306807
-0.306561
-0.305566
-0.30383
-0.301372
-0.298202
-0.294327
-0.289752
-0.284482
-0.278523
-0.271889
-0.264605
-0.256707
-0.248252
-0.239527
-0.230506
-0.21862
-0.306704
-0.309041
-0.310091
-0.310239
-0.309678
-0.308394
-0.306397
-0.303702
-0.30032
-0.296254
-0.291505
-0.286075
-0.279964
-0.273177
-0.26573
-0.257646
-0.248963
-0.240005
-0.230733
-0.217525
-0.312047
-0.313802
-0.314406
-0.314167
-0.313242
-0.311625
-0.309324
-0.306355
-0.302726
-0.298436
-0.293486
-0.287869
-0.281582
-0.27462
-0.266988
-0.258695
-0.249754
-0.240532
-0.230999
-0.216262
-0.318016
-0.319126
-0.319233
-0.31856
-0.317227
-0.315232
-0.312587
-0.309306
-0.305394
-0.30085
-0.295668
-0.28984
-0.283353
-0.276195
-0.268358
-0.259835
-0.250614
-0.241097
-0.231303
-0.214843
-0.324567
-0.324977
-0.32454
-0.323389
-0.321602
-0.319188
-0.31616
-0.312529
-0.308301
-0.303471
-0.298031
-0.291966
-0.285257
-0.277881
-0.26982
-0.261051
-0.251531
-0.241691
-0.231644
-0.213287
-0.331657
-0.331317
-0.330292
-0.328621
-0.32634
-0.323467
-0.320017
-0.316002
-0.311423
-0.306277
-0.300551
-0.294225
-0.287272
-0.27966
-0.271358
-0.262327
-0.252493
-0.242304
-0.232019
-0.21162
-0.339242
-0.338106
-0.336455
-0.334226
-0.331413
-0.328043
-0.324135
-0.319701
-0.314741
-0.30925
-0.303211
-0.296599
-0.289381
-0.281514
-0.272956
-0.263651
-0.253491
-0.242929
-0.23242
-0.209876
-0.34728
-0.345309
-0.342998
-0.340176
-0.336794
-0.332892
-0.328493
-0.323608
-0.318237
-0.312373
-0.305995
-0.299075
-0.291571
-0.283431
-0.274601
-0.26501
-0.254517
-0.243561
-0.232832
-0.208096
-0.355733
-0.352893
-0.349888
-0.346442
-0.342459
-0.337993
-0.333072
-0.327706
-0.321896
-0.315632
-0.308892
-0.301641
-0.293831
-0.285401
-0.276284
-0.266396
-0.255563
-0.244198
-0.233234
-0.206326
-0.364565
-0.360824
-0.357098
-0.352998
-0.348386
-0.343327
-0.337856
-0.331981
-0.325706
-0.319018
-0.311893
-0.30429
-0.296154
-0.287417
-0.277998
-0.267802
-0.256625
-0.244841
-0.233603
-0.204633
-0.37374
-0.369072
-0.364599
-0.359822
-0.354554
-0.348877
-0.34283
-0.336424
-0.32966
-0.322527
-0.314994
-0.307018
-0.298537
-0.289474
-0.279739
-0.269224
-0.2577
-0.2455
-0.233911
-0.203114
-0.383229
-0.377608
-0.372367
-0.36689
-0.360944
-0.354628
-0.347984
-0.341025
-0.333753
-0.326153
-0.318193
-0.309823
-0.300977
-0.29157
-0.281504
-0.270658
-0.258787
-0.246184
-0.234071
-0.201796
-0.393
-0.386403
-0.380374
-0.37418
-0.367539
-0.360565
-0.353307
-0.345778
-0.337979
-0.329894
-0.321487
-0.312703
-0.303471
-0.2937
-0.283288
-0.272104
-0.2599
-0.246917
-0.233869
-0.200465
-0.403023
-0.395429
-0.388596
-0.38167
-0.37432
-0.366675
-0.35879
-0.350676
-0.342335
-0.333747
-0.324874
-0.315654
-0.306013
-0.295856
-0.285082
-0.273564
-0.261092
-0.247829
-0.233382
-0.199816
-0.413266
-0.404657
-0.397006
-0.389338
-0.381269
-0.372943
-0.364421
-0.355712
-0.346815
-0.337708
-0.328347
-0.318668
-0.30859
-0.29802
-0.286865
-0.275021
-0.262379
-0.249085
-0.233969
-0.206844
-0.423695
-0.414052
-0.405574
-0.397157
-0.388363
-0.379353
-0.370186
-0.360873
-0.351409
-0.341766
-0.331896
-0.321728
-0.31118
-0.300161
-0.288588
-0.276399
-0.263597
-0.250421
-0.236864
-0.228724
-0.434271
-0.423579
-0.414267
-0.405098
-0.39558
-0.385882
-0.376069
-0.366146
-0.356102
-0.345906
-0.335501
-0.324812
-0.313751
-0.302233
-0.290186
-0.27758
-0.264497
-0.251197
-0.237679
-0.233158
-0.444948
-0.433195
-0.423046
-0.413129
-0.402888
-0.392507
-0.382047
-0.371508
-0.360874
-0.350104
-0.339134
-0.327883
-0.316261
-0.304183
-0.29159
-0.278471
-0.264947
-0.251242
-0.2371
-0.232181
-0.455673
-0.442851
-0.431867
-0.421207
-0.410252
-0.399193
-0.388089
-0.37693
-0.365692
-0.354325
-0.342756
-0.330897
-0.318655
-0.305949
-0.292728
-0.278996
-0.264886
-0.250585
-0.235741
-0.229239
-0.466382
-0.452489
-0.440677
-0.429287
-0.417629
-0.405902
-0.394157
-0.382374
-0.370516
-0.358525
-0.346316
-0.333796
-0.32087
-0.30746
-0.293526
-0.279086
-0.264272
-0.249237
-0.233639
-0.225126
-0.477004
-0.462043
-0.449415
-0.43731
-0.424967
-0.412582
-0.400201
-0.387788
-0.375294
-0.362645
-0.349751
-0.336511
-0.322831
-0.308639
-0.29391
-0.278675
-0.263068
-0.247216
-0.230841
-0.220308
-0.487451
-0.471434
-0.458009
-0.445212
-0.432202
-0.419176
-0.406163
-0.393112
-0.379958
-0.366617
-0.352986
-0.338962
-0.324454
-0.309405
-0.293804
-0.277703
-0.261243
-0.244542
-0.227411
-0.215058
-0.497628
-0.480574
-0.466379
-0.452916
-0.439263
-0.42561
-0.41197
-0.398272
-0.384433
-0.370356
-0.355931
-0.341057
-0.325651
-0.309672
-0.293134
-0.276116
-0.258772
-0.241227
-0.223395
-0.209495
-0.507425
-0.489364
-0.47443
-0.460334
-0.446066
-0.431803
-0.417539
-0.40318
-0.388626
-0.373767
-0.358491
-0.342698
-0.326324
-0.309352
-0.291828
-0.273861
-0.255631
-0.237278
-0.218816
-0.203649
-0.516718
-0.497692
-0.482061
-0.467368
-0.452515
-0.437659
-0.422774
-0.407738
-0.392435
-0.376745
-0.360556
-0.343781
-0.326377
-0.30836
-0.289815
-0.270891
-0.251795
-0.232691
-0.213681
-0.197507
-0.525375
-0.505435
-0.489155
-0.473909
-0.458502
-0.443073
-0.427565
-0.411834
-0.395746
-0.379174
-0.362014
-0.344195
-0.325709
-0.306611
-0.287032
-0.267162
-0.247242
-0.227461
-0.207992
-0.191034
-0.53325
-0.512462
-0.495588
-0.479836
-0.463911
-0.447926
-0.431794
-0.415347
-0.398435
-0.380931
-0.362743
-0.343831
-0.324223
-0.304026
-0.283419
-0.262637
-0.241952
-0.221578
-0.20174
-0.184192
-0.540187
-0.518629
-0.501226
-0.485018
-0.468613
-0.45209
-0.435332
-0.418145
-0.400371
-0.381888
-0.362625
-0.342578
-0.321826
-0.30053
-0.278922
-0.257281
-0.235907
-0.215033
-0.194917
-0.176943
-0.546022
-0.523785
-0.505924
-0.489317
-0.47247
-0.455426
-0.438038
-0.42009
-0.401417
-0.381913
-0.361536
-0.340329
-0.318429
-0.296055
-0.273494
-0.251066
-0.229091
-0.207816
-0.187513
-0.169255
-0.550585
-0.527772
-0.509532
-0.492585
-0.475336
-0.457791
-0.439769
-0.421038
-0.401435
-0.380876
-0.359359
-0.336985
-0.313952
-0.290544
-0.267097
-0.243968
-0.221492
-0.199919
-0.179522
-0.161099
-0.553702
-0.530427
-0.511893
-0.494669
-0.477061
-0.459033
-0.440375
-0.420843
-0.400285
-0.378648
-0.355982
-0.332452
-0.308324
-0.283944
-0.259698
-0.235969
-0.2131
-0.191336
-0.170934
-0.152457
-0.555194
-0.531583
-0.512847
-0.495412
-0.477488
-0.458998
-0.439705
-0.419359
-0.39783
-0.375106
-0.3513
-0.326646
-0.301482
-0.276215
-0.251272
-0.227057
-0.203909
-0.182062
-0.161748
-0.143314
-0.554884
-0.531075
-0.512233
-0.494654
-0.47646
-0.45753
-0.437606
-0.416442
-0.393939
-0.370136
-0.345218
-0.319494
-0.293375
-0.267324
-0.241802
-0.217224
-0.193918
-0.172098
-0.151959
-0.133662
-0.552599
-0.528736
-0.509889
-0.492237
-0.473821
-0.454477
-0.433933
-0.411956
-0.388488
-0.363633
-0.337652
-0.310936
-0.283963
-0.257248
-0.231278
-0.206468
-0.183126
-0.161443
-0.141569
-0.123496
-0.548171
-0.524407
-0.505659
-0.488007
-0.469418
-0.44969
-0.428544
-0.405772
-0.381366
-0.355505
-0.328533
-0.300922
-0.273217
-0.245974
-0.219696
-0.194791
-0.171538
-0.150103
-0.130582
-0.112817
-0.54144
-0.517934
-0.499392
-0.481814
-0.463106
-0.44303
-0.421309
-0.397771
-0.372473
-0.345673
-0.317805
-0.289418
-0.261119
-0.233497
-0.20706
-0.182199
-0.159162
-0.138085
-0.119003
-0.101628
-0.53226
-0.509174
-0.490947
-0.473519
-0.454747
-0.434366
-0.412109
-0.387852
-0.361725
-0.334076
-0.305426
-0.276402
-0.247663
-0.21982
-0.193379
-0.168706
-0.146011
-0.125398
-0.106842
-0.089939
-0.520496
-0.497997
-0.480195
-0.462993
-0.444219
-0.423582
-0.400841
-0.375928
-0.349055
-0.320667
-0.29137
-0.261865
-0.232852
-0.204956
-0.17867
-0.154327
-0.132099
-0.112057
-0.0941134
-0.0777647
-0.506035
-0.484289
-0.467022
-0.450126
-0.431412
-0.410579
-0.387417
-0.361928
-0.334415
-0.305417
-0.275629
-0.245813
-0.216702
-0.188926
-0.162955
-0.139085
-0.117447
-0.0980781
-0.0808334
-0.0651213
-0.488781
-0.467955
-0.451331
-0.43482
-0.416238
-0.395277
-0.371772
-0.345804
-0.317774
-0.288316
-0.258207
-0.228263
-0.19924
-0.171759
-0.146263
-0.123006
-0.102077
-0.0834828
-0.0670176
-0.0519834
-0.468662
-0.448918
-0.433046
-0.417
-0.398625
-0.377614
-0.353859
-0.327529
-0.299123
-0.269372
-0.239126
-0.209246
-0.1805
-0.153492
-0.128629
-0.106123
-0.0860189
-0.0682961
-0.0526919
-0.0383013
-0.44563
-0.427129
-0.412112
-0.396615
-0.378527
-0.357555
-0.333656
-0.307095
-0.278473
-0.24861
-0.218423
-0.188807
-0.160529
-0.134169
-0.110096
-0.0884719
-0.0693049
-0.0525418
-0.0378854
-0.0243454
-0.419664
-0.402559
-0.388501
-0.373636
-0.35592
-0.335087
-0.311165
-0.28452
-0.255855
-0.226074
-0.19615
-0.167
-0.139382
-0.113844
-0.0907093
-0.0700956
-0.0519768
-0.0362778
-0.0225822
-0.0100241
-0.390772
-0.37521
-0.36221
-0.348059
-0.330808
-0.310221
-0.28641
-0.259843
-0.23132
-0.201824
-0.172373
-0.143893
-0.117124
-0.0925759
-0.0705253
-0.0510457
-0.0340736
-0.0195169
-0.00686722
0.00466268
-0.358991
-0.345109
-0.333261
-0.319911
-0.303221
-0.282998
-0.259441
-0.233124
-0.204939
-0.175937
-0.14717
-0.119563
-0.0938285
-0.0704327
-0.049604
-0.0313725
-0.0156439
-0.0023053
0.00922562
0.019677
-0.324388
-0.312315
-0.301709
-0.289243
-0.273215
-0.253481
-0.230333
-0.204447
-0.176803
-0.148509
-0.120636
-0.0941002
-0.0695779
-0.0474882
-0.0280117
-0.0111363
0.00325963
0.0153085
0.0256583
0.0349772
-0.28706
-0.276913
-0.267635
-0.256136
-0.240874
-0.221761
-0.199184
-0.173918
-0.147021
-0.119646
-0.0928747
-0.0676019
-0.044462
-0.0238241
-0.0058213
0.00959813
0.0225796
0.0332731
0.042386
0.0505187
-0.247135
-0.239021
-0.231148
-0.2207
-0.206311
-0.187956
-0.166116
-0.141663
-0.115715
-0.0894705
-0.064003
-0.040176
-0.0185786
0.000471684
0.0168887
0.0307605
0.0422532
0.051533
0.0593587
0.0662523
-0.204773
-0.198782
-0.192388
-0.183072
-0.169665
-0.152207
-0.131271
-0.107819
-0.0830325
-0.0581199
-0.0341469
-0.0119384
0.00796737
0.0253053
0.0400343
0.0522756
0.0622128
0.0700281
0.0765211
0.0821221
-0.160161
-0.15637
-0.151521
-0.143416
-0.131099
-0.114673
-0.0948147
-0.072556
-0.0491261
-0.0257402
-0.00344261
0.0169871
0.0350649
0.0505774
0.0635265
0.0740631
0.0823862
0.0886937
0.0938123
0.098065
-0.113505
-0.111986
-0.108742
-0.101921
-0.0907973
-0.0755502
-0.0569316
-0.0360495
-0.0141648
0.00751071
0.0279654
0.0464703
0.0625972
0.0761836
0.0872718
0.0960388
0.102696
0.107462
0.111169
0.114011
-0.0649959
-0.0659003
-0.0642686
-0.058801
-0.0489759
-0.0350395
-0.0178216
0.0015086
0.0216699
0.0414658
0.0599254
0.0763749
0.0904427
0.102016
0.111173
0.118115
0.123064
0.126267
0.128532
0.129861
-0.0150331
-0.018271
-0.0183396
-0.0142948
-0.00586452
0.00663369
0.0222987
0.0399129
0.0581871
0.07595
0.0922794
0.10656
0.118476
0.127962
0.135131
0.140199
0.143409
0.145054
0.145839
0.145415
0.0361881
0.0305738
0.0287754
0.0313419
0.0382876
0.049228
0.0631992
0.0789475
0.0951871
0.110782
0.124865
0.136879
0.146568
0.153907
0.159042
0.1622
0.163651
0.163748
0.162922
0.160435
0.0883586
0.0803446
0.0767965
0.0778357
0.0832152
0.0924885
0.104639
0.118387
0.132464
0.145775
0.157514
0.167186
0.174587
0.179737
0.182803
0.184025
0.183708
0.182214
0.179413
0.174871
0.14115
0.130737
0.125427
0.124898
0.128639
0.136149
0.146367
0.158001
0.169805
0.180739
0.190057
0.197328
0.202401
0.205333
0.206314
0.205593
0.203509
0.200337
0.195089
0.188965
0.194225
0.18143
0.174356
0.172226
0.174271
0.179936
0.188127
0.197551
0.206996
0.21548
0.222322
0.227155
0.229876
0.230578
0.229472
0.22682
0.22298
0.218191
0.211422
0.204854
0.247237
0.232093
0.223262
0.219511
0.219812
0.223567
0.229657
0.236797
0.24382
0.249804
0.254137
0.256513
0.256876
0.255353
0.25217
0.247603
0.242014
0.235607
0.227507
0.220237
0.299834
0.282385
0.271816
0.266435
0.26496
0.266758
0.270693
0.275499
0.280058
0.283517
0.28533
0.28525
0.283267
0.279537
0.274302
0.267846
0.260525
0.252517
0.243099
0.234892
0.35166
0.331965
0.319685
0.312677
0.309412
0.309223
0.310972
0.313417
0.315497
0.316426
0.31573
0.313216
0.308917
0.303013
0.295762
0.287452
0.278431
0.268859
0.25814
0.248837
0.402356
0.380487
0.366538
0.357918
0.352861
0.350677
0.350231
0.350312
0.349921
0.348343
0.345169
0.340262
0.333693
0.325666
0.316448
0.306332
0.295652
0.284558
0.272567
0.262095
0.45157
0.42761
0.412042
0.401839
0.395009
0.390842
0.388213
0.385953
0.383124
0.379083
0.373485
0.366245
0.35747
0.347384
0.336261
0.324396
0.312111
0.299547
0.286319
0.274657
0.498953
0.472999
0.455873
0.44413
0.435559
0.429442
0.424668
0.420113
0.414903
0.408465
0.400518
0.391025
0.380124
0.368057
0.355105
0.341561
0.327734
0.313762
0.299342
0.286498
0.544167
0.516326
0.497715
0.484486
0.474227
0.466213
0.459354
0.452573
0.445063
0.436318
0.426117
0.414467
0.401536
0.387581
0.372888
0.357747
0.342454
0.327143
0.311587
0.297587
0.586886
0.557276
0.537262
0.522616
0.510738
0.5009
0.49204
0.483126
0.473419
0.462478
0.450136
0.436444
0.421595
0.405858
0.389523
0.372877
0.356202
0.339632
0.323005
0.307896
0.6268
0.595549
0.574224
0.558242
0.544831
0.533264
0.522505
0.511575
0.499795
0.486788
0.472439
0.456835
0.440193
0.422793
0.404928
0.386879
0.368917
0.351176
0.333552
0.317392
0.663617
0.630861
0.608327
0.591105
0.576262
0.563077
0.550546
0.537736
0.524028
0.509105
0.492897
0.475528
0.457232
0.4383
0.419026
0.399687
0.380541
0.361724
0.343183
0.326044
0.697066
0.662952
0.63932
0.620961
0.604803
0.590132
0.575972
0.561438
0.545968
0.529294
0.511394
0.492418
0.47262
0.452298
0.431746
0.411237
0.391018
0.371229
0.351858
0.333822
0.726902
0.691581
0.666969
0.647591
0.630249
0.614239
0.598613
0.582529
0.565476
0.547235
0.527821
0.507411
0.486274
0.464713
0.443023
0.421473
0.4003
0.379646
0.359539
0.340697
0.752901
0.716534
0.691068
0.670796
0.652415
0.635227
0.618313
0.600869
0.582431
0.56282
0.542084
0.520423
0.498119
0.47548
0.4528
0.430345
0.408342
0.386937
0.36619
0.346642
0.774871
0.737624
0.711435
0.690405
0.671139
0.652949
0.634939
0.616341
0.596726
0.575954
0.5541
0.531382
0.508092
0.484542
0.461027
0.437807
0.415104
0.393068
0.371781
0.351634
0.792648
0.75469
0.727917
0.706271
0.686285
0.66728
0.648379
0.628841
0.608272
0.586559
0.563799
0.540224
0.516137
0.49185
0.46766
0.443823
0.420555
0.398008
0.376287
0.355653
0.806098
0.767604
0.740389
0.718275
0.697743
0.678117
0.658539
0.638289
0.616996
0.594569
0.571122
0.5469
0.522209
0.497366
0.472666
0.448362
0.424667
0.401735
0.379685
0.358683
0.815122
0.776268
0.748756
0.726329
0.705428
0.685386
0.665352
0.644622
0.622843
0.599937
0.576029
0.551372
0.526277
0.50106
0.476017
0.451401
0.427419
0.404229
0.38196
0.360709
0.553615
0.528316
0.502912
0.477698
0.452925
0.428799
0.40548
0.3831
0.361725
-0.229366
-0.231718
-0.234014
-0.236157
-0.233344
-0.238033
-0.235531
-0.226416
-0.23952
-0.237317
-0.227875
-0.240495
-0.238523
-0.228902
-0.222407
-0.240844
-0.238955
-0.229342
-0.222968
-0.24047
-0.238354
-0.229077
-0.223007
-0.2177
-0.237633
-0.235928
-0.227943
-0.222426
-0.217343
-0.212037
-0.237037
-0.231751
-0.223845
-0.218686
-0.213901
-0.209131
-0.20873
-0.219
-0.221602
-0.218069
-0.21335
-0.208809
-0.20416
-0.203792
-0.211116
-0.214626
-0.211728
-0.208354
-0.204613
-0.200493
-0.20146
-0.205671
-0.208574
-0.206308
-0.203284
-0.19997
-0.19626
-0.198746
-0.200968
-0.203186
-0.201246
-0.198497
-0.195502
-0.192127
-0.195728
-0.196515
-0.198007
-0.196225
-0.193718
-0.190994
-0.187914
-0.192229
-0.192094
-0.192904
-0.191202
-0.18889
-0.186387
-0.183565
-0.188225
-0.187568
-0.187799
-0.186152
-0.184007
-0.181695
-0.179102
-0.183772
-0.182863
-0.182636
-0.181043
-0.179059
-0.176922
-0.174537
-0.178917
-0.177947
-0.177378
-0.175857
-0.174035
-0.172067
-0.169879
-0.173712
-0.172819
-0.172014
-0.170584
-0.16893
-0.167132
-0.165134
-0.168218
-0.167495
-0.166545
-0.165226
-0.16375
-0.162125
-0.160313
-0.162494
-0.162002
-0.160982
-0.159793
-0.158501
-0.157054
-0.155427
-0.1566
-0.156372
-0.155345
-0.154299
-0.153196
-0.15193
-0.150487
-0.150592
-0.150641
-0.149656
-0.148764
-0.147852
-0.146769
-0.145509
-0.144519
-0.144846
-0.14394
-0.143208
-0.142485
-0.141585
-0.140507
-0.13843
-0.139022
-0.138225
-0.137653
-0.137115
-0.136396
-0.135495
-0.132366
-0.133204
-0.132535
-0.132122
-0.131762
-0.131219
-0.130491
-0.126363
-0.127423
-0.126894
-0.126636
-0.126445
-0.12607
-0.12551
-0.120453
-0.121708
-0.121324
-0.121214
-0.121181
-0.120966
-0.120565
-0.114661
-0.116082
-0.115845
-0.115873
-0.115987
-0.115922
-0.115673
-0.109007
-0.110568
-0.110472
-0.11063
-0.110878
-0.110953
-0.110844
-0.103508
-0.105181
-0.105221
-0.105497
-0.105866
-0.106069
-0.106092
-0.0981738
-0.099936
-0.100102
-0.100486
-0.100963
-0.101282
-0.101425
-0.0930128
-0.0948416
-0.0951231
-0.0956031
-0.0961764
-0.0965999
-0.0968538
-0.0880294
-0.0899054
-0.0902914
-0.0908566
-0.0915142
-0.092031
-0.0923846
-0.0832255
-0.0851318
-0.0856109
-0.0862507
-0.0869814
-0.0875807
-0.0880238
-0.0786009
-0.0805231
-0.0810842
-0.0817885
-0.082582
-0.0832534
-0.0837762
-0.0741539
-0.07608
-0.0767122
-0.0774719
-0.0783186
-0.0790524
-0.0796454
-0.0698816
-0.0718016
-0.0724949
-0.0733014
-0.0741925
-0.0749799
-0.0756344
-0.0657807
-0.0676861
-0.0684313
-0.0692768
-0.0702045
-0.0710371
-0.0717449
-0.061847
-0.0637309
-0.0645198
-0.0653971
-0.0663543
-0.0672246
-0.0679781
-0.0580763
-0.0599331
-0.060758
-0.0616609
-0.0626412
-0.0635424
-0.0643345
-0.0544642
-0.0562893
-0.0571434
-0.0580663
-0.0590639
-0.0599899
-0.0608142
-0.0510062
-0.0527957
-0.0536732
-0.054611
-0.0556208
-0.056566
-0.0574168
-0.047698
-0.0494488
-0.0503442
-0.0512926
-0.0523101
-0.0532695
-0.0541414
-0.0445352
-0.0462448
-0.0471534
-0.0481084
-0.0491297
-0.0500987
-0.050987
-0.0415134
-0.0431799
-0.0440976
-0.0450556
-0.046077
-0.0470518
-0.0479521
-0.0386285
-0.0402503
-0.0411733
-0.0421313
-0.0431499
-0.0441268
-0.0450352
-0.0358763
-0.0374521
-0.0383772
-0.0393326
-0.0403455
-0.0413215
-0.0422345
-0.0332527
-0.0347818
-0.0357061
-0.0366564
-0.0376613
-0.0386335
-0.0395482
-0.0307536
-0.0322355
-0.0331565
-0.0340997
-0.0350946
-0.0360606
-0.0369741
-0.0283752
-0.0298096
-0.030725
-0.0316594
-0.0326424
-0.0336002
-0.0345101
-0.0261134
-0.0275004
-0.0284084
-0.0293324
-0.0303021
-0.0312498
-0.032154
-0.0239645
-0.0253043
-0.0262032
-0.0271156
-0.0280708
-0.0290068
-0.0299034
-0.0219247
-0.0232179
-0.0241063
-0.025006
-0.0259456
-0.0268687
-0.0277562
-0.0199904
-0.0212376
-0.0221144
-0.0230005
-0.0239238
-0.0248328
-0.0257099
-0.0181581
-0.0193602
-0.0202244
-0.0210962
-0.0220025
-0.0228966
-0.0237621
-0.0164243
-0.0175823
-0.0184331
-0.0192901
-0.0201789
-0.0210576
-0.0219105
-0.0147857
-0.0159008
-0.0167375
-0.0175794
-0.0184505
-0.0193131
-0.0201528
-0.0132393
-0.0143125
-0.0151349
-0.0159613
-0.0168146
-0.0176607
-0.0184867
-0.0117818
-0.0128147
-0.0136223
-0.0144331
-0.0152686
-0.0160982
-0.0169099
-0.0104105
-0.0114044
-0.0121971
-0.0129924
-0.0138101
-0.0146231
-0.0154204
-0.00912248
-0.010079
-0.0108568
-0.0116367
-0.0124368
-0.0132333
-0.0140161
-0.00791529
-0.00883597
-0.00959897
-0.0103636
-0.0111466
-0.0119267
-0.012695
-0.00678647
-0.00767298
-0.00842134
-0.00917109
-0.00993722
-0.0107013
-0.0114553
-0.00573377
-0.00658782
-0.00732185
-0.00805707
-0.00880691
-0.00955536
-0.0102952
-0.00475514
-0.0055785
-0.00629857
-0.00701974
-0.00775389
-0.0084872
-0.00921334
-0.00384874
-0.00464321
-0.00534981
-0.00605748
-0.00677659
-0.00749535
-0.00820819
-0.00301293
-0.00378038
-0.00447406
-0.00516885
-0.00587367
-0.00657854
-0.00727862
-0.00224632
-0.00298865
-0.00367006
-0.00435265
-0.00504399
-0.00573572
-0.00642367
-0.00154777
-0.00226691
-0.00293677
-0.00360793
-0.00428666
-0.00496608
-0.0056426
-0.000916401
-0.00161436
-0.00227345
-0.00293401
-0.00360108
-0.00426907
-0.00493496
-0.000351661
-0.00103047
-0.00167968
-0.00233053
-0.00298695
-0.00364448
-0.00430061
0.000146676
-0.000515084
-0.00115536
-0.00179746
-0.0024443
-0.00309241
-0.00373972
0.00057845
-6.8418e-05
-0.000700785
-0.00133517
-0.00197358
-0.00261338
-0.00325289
0.000943107
0.0003089
-0.000316666
-0.000944433
-0.00157563
-0.00220831
-0.00284113
0.00123949
0.000615639
-4.31107e-06
-0.000626629
-0.00125189
-0.00187872
-0.00250601
0.00146638
0.000850439
0.000234785
-0.000383375
-0.00100411
-0.00162645
-0.00224951
0.00162032
0.0010099
0.000397316
-0.0002179
-0.000835461
-0.00145466
-0.00207477
0.00170153
0.00109335
0.000481909
-0.000132111
-0.000748279
-0.00136605
-0.00198477
-0.101853
-0.111772
-0.12121
-0.130158
-0.138608
-0.14655
-0.153979
-0.16089
-0.167283
-0.173165
-0.17855
-0.18347
-0.18797
-0.192122
-0.196028
-0.199835
-0.203756
-0.208039
-0.213289
-0.229263
-0.0960262
-0.105537
-0.114607
-0.123228
-0.131393
-0.139097
-0.146336
-0.153112
-0.15943
-0.165306
-0.170769
-0.175865
-0.180668
-0.185289
-0.189887
-0.194697
-0.200084
-0.206513
-0.21395
-0.235999
-0.0905117
-0.0996455
-0.108391
-0.116744
-0.124701
-0.132262
-0.139429
-0.14621
-0.152616
-0.15867
-0.164405
-0.169873
-0.175147
-0.180328
-0.185558
-0.19103
-0.197033
-0.203908
-0.210618
-0.232292
-0.0852723
-0.0940527
-0.102492
-0.110588
-0.11834
-0.125751
-0.132825
-0.139571
-0.146004
-0.152144
-0.158024
-0.163689
-0.169199
-0.174637
-0.180114
-0.18577
-0.191816
-0.198567
-0.204548
-0.225087
-0.0802935
-0.0887318
-0.0968688
-0.104704
-0.112239
-0.119477
-0.126422
-0.133085
-0.13948
-0.145626
-0.151552
-0.157298
-0.162917
-0.16848
-0.174085
-0.179849
-0.18596
-0.192775
-0.198657
-0.217795
-0.0755624
-0.0836688
-0.0915091
-0.0990842
-0.106396
-0.113449
-0.120249
-0.126805
-0.133132
-0.139249
-0.145182
-0.150968
-0.156655
-0.162311
-0.16802
-0.173893
-0.180088
-0.186963
-0.192844
-0.210233
-0.0710644
-0.0788503
-0.0864013
-0.0937193
-0.100807
-0.107669
-0.114313
-0.120748
-0.126987
-0.13305
-0.138961
-0.144753
-0.150471
-0.156173
-0.161936
-0.167854
-0.174051
-0.180856
-0.186718
-0.202354
-0.0667851
-0.074262
-0.0815316
-0.0885963
-0.0954598
-0.102127
-0.108606
-0.114904
-0.121037
-0.12702
-0.132878
-0.138638
-0.144342
-0.150039
-0.155796
-0.161691
-0.167825
-0.174492
-0.180359
-0.194371
-0.0627109
-0.06989
-0.076886
-0.0837017
-0.0903414
-0.0968101
-0.103115
-0.109266
-0.115274
-0.121156
-0.126932
-0.132629
-0.138281
-0.143932
-0.149638
-0.155468
-0.161505
-0.168003
-0.173871
-0.186388
-0.0588295
-0.0657214
-0.0724514
-0.0790228
-0.0854399
-0.0917078
-0.0978337
-0.103826
-0.109697
-0.115459
-0.121132
-0.12674
-0.132311
-0.137884
-0.143509
-0.149242
-0.155157
-0.16146
-0.167292
-0.178448
-0.0551289
-0.061744
-0.0682159
-0.0745479
-0.0807444
-0.0868106
-0.0927531
-0.0985801
-0.104302
-0.109931
-0.115484
-0.120982
-0.12645
-0.131922
-0.137438
-0.143049
-0.148816
-0.154903
-0.160662
-0.170596
-0.0515987
-0.0579469
-0.0641681
-0.070266
-0.0762447
-0.0821092
-0.0878658
-0.0935218
-0.0990867
-0.104572
-0.109992
-0.115364
-0.120711
-0.12606
-0.131448
-0.136916
-0.142516
-0.148377
-0.154028
-0.162875
-0.0482292
-0.0543198
-0.060298
-0.0661671
-0.0719312
-0.077595
-0.0831642
-0.0886457
-0.0940477
-0.0993804
-0.104656
-0.10989
-0.115102
-0.120315
-0.125558
-0.130869
-0.13629
-0.14192
-0.147434
-0.155318
-0.0450112
-0.0508535
-0.0565959
-0.0622418
-0.067795
-0.0732599
-0.0786416
-0.0839463
-0.0891814
-0.0943555
-0.0994796
-0.104567
-0.109633
-0.114698
-0.119787
-0.12493
-0.130164
-0.135563
-0.140913
-0.147952
-0.0419367
-0.0475394
-0.0530535
-0.0584819
-0.0638282
-0.0690965
-0.0742914
-0.0794184
-0.084484
-0.0894957
-0.0944628
-0.0993963
-0.10431
-0.10922
-0.114147
-0.119116
-0.124158
-0.12933
-0.134499
-0.140801
-0.0389981
-0.0443699
-0.0496628
-0.0548795
-0.0600233
-0.065098
-0.0701077
-0.0750571
-0.0799521
-0.084799
-0.0896056
-0.0943814
-0.0991376
-0.103888
-0.108649
-0.113441
-0.118291
-0.123241
-0.128215
-0.13388
-0.0361886
-0.0413379
-0.0464167
-0.0514276
-0.0563736
-0.0612581
-0.0660847
-0.0708578
-0.0755821
-0.0802632
-0.0849077
-0.0895235
-0.0941197
-0.0987077
-0.103301
-0.107916
-0.112574
-0.117309
-0.122083
-0.1272
-0.0335019
-0.0384368
-0.0433086
-0.0481197
-0.0528729
-0.057571
-0.0622175
-0.0668159
-0.0713705
-0.0758861
-0.0803681
-0.084823
-0.0892584
-0.0936834
-0.0981091
-0.102549
-0.107018
-0.111546
-0.116117
-0.120768
-0.0309323
-0.0356608
-0.0403326
-0.0449499
-0.0495153
-0.0540314
-0.058501
-0.0629274
-0.0673141
-0.0716653
-0.0759854
-0.0802799
-0.0845549
-0.0888178
-0.0930772
-0.0973438
-0.10163
-0.10596
-0.11033
-0.114585
-0.0284742
-0.0330041
-0.0374829
-0.0419126
-0.0462956
-0.050634
-0.0549306
-0.0591881
-0.0634094
-0.0675982
-0.0717581
-0.0758935
-0.0800096
-0.0841121
-0.088208
-0.0923054
-0.0964136
-0.100555
-0.104728
-0.108649
-0.0261227
-0.0304616
-0.0347543
-0.0390026
-0.0432086
-0.0473743
-0.051502
-0.055594
-0.0596531
-0.063682
-0.067684
-0.0716627
-0.0756221
-0.0795669
-0.0835025
-0.0874353
-0.091372
-0.0953334
-0.0993154
-0.102956
-0.023874
-0.0280288
-0.032142
-0.0362151
-0.0402496
-0.0442475
-0.0482107
-0.0521414
-0.0560416
-0.0599139
-0.063761
-0.0675857
-0.0713914
-0.0751817
-0.078961
-0.082734
-0.0865057
-0.0902956
-0.0940947
-0.0974971
-0.0217225
-0.025701
-0.0296415
-0.0335454
-0.0374142
-0.0412494
-0.0450528
-0.0488263
-0.0525716
-0.0562909
-0.0599864
-0.0636605
-0.0673159
-0.0709555
-0.0745827
-0.078201
-0.0818141
-0.0854407
-0.0890651
-0.0922654
-0.0196654
-0.0234743
-0.0272486
-0.0309893
-0.0346979
-0.0383757
-0.0420242
-0.0456449
-0.0492395
-0.0528098
-0.0563576
-0.0598848
-0.0633937
-0.0668865
-0.0703661
-0.0738349
-0.0772956
-0.0807663
-0.0842244
-0.0872516
-0.0176987
-0.0213448
-0.024959
-0.0285426
-0.0320967
-0.0356223
-0.0391208
-0.0425935
-0.0460419
-0.0494673
-0.0528713
-0.0562557
-0.0596221
-0.0629725
-0.0663089
-0.0696334
-0.0729478
-0.0762697
-0.0795696
-0.0824462
-0.0158185
-0.0193084
-0.022769
-0.0262014
-0.0296064
-0.0329852
-0.0363388
-0.0396683
-0.0429749
-0.0462599
-0.0495246
-0.0527703
-0.0559984
-0.0592107
-0.0624086
-0.0655938
-0.0687677
-0.071947
-0.0750966
-0.0778402
-0.0140215
-0.0173615
-0.0206746
-0.0239616
-0.0272233
-0.0304606
-0.0336743
-0.0368655
-0.0400351
-0.0431841
-0.0463138
-0.0494252
-0.0525195
-0.0555981
-0.0586622
-0.061713
-0.0647518
-0.0677945
-0.0708009
-0.0734249
-0.0123045
-0.0155009
-0.0186724
-0.0218198
-0.0249436
-0.0280446
-0.0311235
-0.0341812
-0.0372186
-0.0402363
-0.0432355
-0.0462171
-0.049182
-0.0521313
-0.0550662
-0.0579874
-0.0608963
-0.0638078
-0.0666779
-0.0691924
-0.0106643
-0.0137231
-0.0167589
-0.0197722
-0.0227636
-0.0257336
-0.0286828
-0.0316119
-0.0345217
-0.0374128
-0.0402861
-0.0431423
-0.0459822
-0.0488068
-0.0516171
-0.0544135
-0.0571974
-0.0599828
-0.0627227
-0.0651353
-0.00909803
-0.0120252
-0.0149309
-0.0178156
-0.0206798
-0.0235239
-0.0263484
-0.0291538
-0.0319408
-0.0347099
-0.0374618
-0.0401971
-0.0429166
-0.045621
-0.048311
-0.0509872
-0.0536509
-0.0563149
-0.0589304
-0.0612471
-0.00760295
-0.0104041
-0.0131852
-0.0159467
-0.0186889
-0.0214121
-0.0241167
-0.0268033
-0.0294722
-0.0321239
-0.0347589
-0.0373779
-0.0399813
-0.0425699
-0.0451442
-0.0477046
-0.0502527
-0.0528
-0.0552964
-0.0575217
-0.00617642
-0.00885693
-0.0115188
-0.0141622
-0.0167874
-0.0193947
-0.0219844
-0.0245567
-0.0271121
-0.029651
-0.0321737
-0.0346807
-0.0371725
-0.0396497
-0.0421127
-0.0445618
-0.0469985
-0.0494336
-0.051816
-0.0539537
-0.00481591
-0.00738109
-0.00992881
-0.0124592
-0.0149723
-0.0174685
-0.0199478
-0.0224106
-0.0248571
-0.0272876
-0.0297024
-0.0321018
-0.0344864
-0.0368564
-0.0392124
-0.0415545
-0.0438843
-0.0462114
-0.0484847
-0.050538
-0.00351902
-0.00597393
-0.00841246
-0.0108346
-0.0132405
-0.0156302
-0.0180038
-0.0203616
-0.0227036
-0.0250301
-0.0273413
-0.0296376
-0.0319191
-0.0341863
-0.0364395
-0.0386788
-0.0409059
-0.0431292
-0.0452982
-0.04727
-0.00228342
-0.00463293
-0.00696706
-0.00928574
-0.0115889
-0.0138767
-0.0161491
-0.0184062
-0.0206481
-0.0228749
-0.0250869
-0.0272841
-0.0294668
-0.0316354
-0.03379
-0.0359307
-0.0380592
-0.0401829
-0.042252
-0.0441452
-0.0011069
-0.00335569
-0.00559004
-0.00780976
-0.0100148
-0.012205
-0.0143805
-0.0165412
-0.0186873
-0.0208186
-0.0229354
-0.0250378
-0.0271259
-0.0291999
-0.03126
-0.0333061
-0.0353401
-0.0373683
-0.039342
-0.0411592
1.26591e-05
-0.00213988
-0.0042789
-0.00640405
-0.00851517
-0.0106122
-0.012695
-0.0147635
-0.0168178
-0.0188578
-0.0208835
-0.022895
-0.0248925
-0.0268759
-0.0288455
-0.0308012
-0.0327447
-0.0346813
-0.036564
-0.0383079
0.00107766
-0.000983147
-0.00303118
-0.00506602
-0.00708746
-0.00909534
-0.0110896
-0.01307
-0.0150365
-0.0169891
-0.0189277
-0.0208524
-0.0227631
-0.0246599
-0.026543
-0.0284121
-0.0302689
-0.0321181
-0.0339139
-0.0355872
0.00209006
0.000116516
-0.00184466
-0.00379326
-0.00572904
-0.0076518
-0.00956136
-0.0114576
-0.0133402
-0.0152093
-0.0170647
-0.0189063
-0.0207342
-0.0225482
-0.0243485
-0.0261349
-0.027909
-0.0296745
-0.0313877
-0.032993
0.00305152
0.00116121
-0.000717107
-0.00258339
-0.00443742
-0.00627892
-0.00810765
-0.00992342
-0.011726
-0.0135153
-0.0152912
-0.0170535
-0.0188022