/*--------------------------------*- C++ -*----------------------------------*\
  =========                 |
  \\      /  F ield         | OpenFOAM: The Open Source CFD Toolbox
   \\    /   O peration     | Website:  https://openfoam.org
    \\  /    A nd           | Version:  7
     \\/     M anipulation  |
\*---------------------------------------------------------------------------*/
FoamFile
{
    version     2.0;
    format      ascii;
    class       volVectorField;
    location    "155";
    object      U;
}
// * * * * * * * * * * * * * * * * * * * * * * * * * * * * * * * * * * * * * //

dimensions      [0 1 -1 0 0 0 0];

internalField   nonuniform List<vector> 
15000
(
(5.93014e-05 -0.00599106 -1.752e-21)
(0.000109005 -0.0175519 -1.4648e-21)
(1.97783e-05 -0.0289361 6.41367e-22)
(-0.000212624 -0.0400997 -6.59201e-22)
(-0.000592709 -0.0509971 -4.8059e-22)
(-0.00113026 -0.0615817 2.13053e-21)
(-0.00183586 -0.071806 3.75761e-21)
(-0.0027191 -0.0816234 3.37765e-21)
(-0.00378917 -0.0909869 -9.98572e-21)
(-0.00505435 -0.0998517 5.35395e-21)
(-0.00652199 -0.108174 2.21111e-21)
(-0.00819812 -0.115916 -4.79157e-21)
(-0.0100872 -0.12304 2.26205e-21)
(-0.012192 -0.129518 -5.34812e-21)
(-0.0145132 -0.135328 -5.76644e-22)
(-0.0170496 -0.140455 -2.77283e-21)
(-0.0197971 -0.144892 3.39786e-21)
(-0.0227496 -0.148644 2.39245e-22)
(-0.025898 -0.151726 6.56728e-21)
(-0.0292306 -0.154161 3.09538e-21)
(-0.032733 -0.155986 3.01501e-21)
(-0.0363883 -0.157245 -8.65093e-21)
(-0.0401773 -0.157994 7.74235e-21)
(-0.044079 -0.158295 6.46959e-21)
(-0.0480708 -0.158214 7.827e-21)
(-0.0521292 -0.157825 -8.58475e-22)
(-0.0562306 -0.157198 -1.96814e-21)
(-0.0603522 -0.156404 -4.00897e-21)
(-0.0644728 -0.155503 3.96389e-21)
(-0.0685742 -0.154547 -1.91498e-21)
(-0.0726418 -0.153572 8.4642e-23)
(-0.0766663 -0.1526 6.9723e-21)
(-0.0806453 -0.151635 1.71455e-22)
(-0.0845838 -0.150653 1.1173e-20)
(-0.0884958 -0.149609 -3.69057e-21)
(-0.0924093 -0.148422 5.35167e-21)
(-0.0963788 -0.146981 8.02541e-21)
(-0.100424 -0.145137 -9.93793e-21)
(-0.104363 -0.142689 2.08006e-20)
(-0.108597 -0.139387 2.79874e-21)
(0.000205432 -0.00580142 -3.28371e-21)
(0.000526328 -0.0169898 1.37482e-20)
(0.000682058 -0.0280022 -6.14139e-21)
(0.0006679 -0.0387957 9.59671e-21)
(0.00047901 -0.0493256 -5.45782e-21)
(0.000104424 -0.0595467 4.15829e-21)
(-0.000467434 -0.0694133 -1.11472e-20)
(-0.00124711 -0.0788797 2.29641e-21)
(-0.0022442 -0.0879013 -5.9928e-21)
(-0.00346737 -0.0964346 2.87351e-20)
(-0.00492408 -0.104439 -5.05117e-21)
(-0.00662019 -0.111877 -2.31857e-20)
(-0.00855978 -0.118716 4.41548e-21)
(-0.0107449 -0.124929 -1.71848e-20)
(-0.0131753 -0.130496 1.7624e-20)
(-0.0158484 -0.135404 9.04985e-21)
(-0.0187588 -0.139649 2.9876e-21)
(-0.0218984 -0.143237 -1.55717e-20)
(-0.0252563 -0.146185 -1.08067e-20)
(-0.0288188 -0.148518 1.47128e-20)
(-0.0325693 -0.150273 1.72336e-20)
(-0.0364889 -0.151495 -2.25652e-20)
(-0.0405565 -0.152239 6.69936e-21)
(-0.0447494 -0.152566 6.34449e-21)
(-0.0490435 -0.152542 -2.46507e-20)
(-0.0534147 -0.152236 2.39743e-21)
(-0.0578389 -0.151719 -1.12112e-20)
(-0.062294 -0.151054 -1.69074e-21)
(-0.0667601 -0.150299 -2.3358e-20)
(-0.0712213 -0.149498 2.81193e-20)
(-0.0756666 -0.148684 -2.38051e-21)
(-0.0800912 -0.14787 3.22539e-21)
(-0.0844985 -0.147051 2.01373e-20)
(-0.0889005 -0.146196 -4.56472e-20)
(-0.0933191 -0.14525 -1.07473e-20)
(-0.0977911 -0.144125 2.79464e-20)
(-0.10238 -0.1427 -2.15921e-20)
(-0.107111 -0.140821 -2.70624e-20)
(-0.111798 -0.138274 -5.85084e-21)
(-0.116868 -0.134812 -3.44332e-20)
(0.000339944 -0.00557995 1.60598e-20)
(0.000909801 -0.0163364 -1.05132e-20)
(0.00128938 -0.0269211 1.4155e-21)
(0.00147356 -0.0372924 1.98649e-21)
(0.00145728 -0.0474067 -4.31307e-21)
(0.00122859 -0.0572204 1.67421e-20)
(0.00077497 -0.0666894 -2.71216e-20)
(8.52468e-05 -0.0757699 2.55507e-20)
(-0.000850555 -0.0844192 -7.00203e-21)
(-0.00204122 -0.0925959 -1.313e-20)
(-0.00349405 -0.100261 5.86098e-21)
(-0.00521457 -0.107381 2.14916e-21)
(-0.00720623 -0.113923 -1.97198e-20)
(-0.00947016 -0.119864 7.03197e-21)
(-0.012005 -0.125185 2.85588e-20)
(-0.0148065 -0.129876 1.64333e-20)
(-0.0178677 -0.133934 -6.53167e-20)
(-0.0211785 -0.137367 4.22079e-20)
(-0.0247258 -0.140192 -4.83091e-20)
(-0.0284937 -0.142436 8.52733e-22)
(-0.0324632 -0.144136 2.97173e-20)
(-0.0366132 -0.145336 1.44198e-20)
(-0.0409202 -0.146091 -5.58786e-20)
(-0.0453595 -0.146461 1.72182e-20)
(-0.0499052 -0.146508 3.03988e-20)
(-0.0545318 -0.146301 2.81648e-20)
(-0.0592144 -0.145903 -3.48935e-20)
(-0.0639304 -0.145376 -1.56533e-20)
(-0.0686606 -0.144772 -3.04095e-20)
(-0.0733902 -0.144128 4.24567e-21)
(-0.0781105 -0.143471 -2.31631e-21)
(-0.0828201 -0.142806 -1.52693e-20)
(-0.0875269 -0.14212 1.38223e-20)
(-0.0922487 -0.141375 4.3175e-20)
(-0.097014 -0.140505 -1.65263e-20)
(-0.101868 -0.139414 -6.45916e-20)
(-0.106882 -0.137978 2.90609e-20)
(-0.112087 -0.136034 1.81512e-20)
(-0.117292 -0.133365 3.4314e-21)
(-0.12295 -0.129729 -4.46515e-20)
(0.00046068 -0.00532843 -1.1784e-20)
(0.00125331 -0.0155971 3.14409e-21)
(0.001832 -0.0257018 1.61355e-20)
(0.00219138 -0.0356022 2.59061e-20)
(0.00232625 -0.0452561 -6.50921e-21)
(0.00222387 -0.0546218 -3.90952e-20)
(0.00187098 -0.063657 2.20076e-21)
(0.00125593 -0.07232 -1.10308e-20)
(0.000368565 -0.0805698 5.37488e-21)
(-0.000799864 -0.0883675 2.73716e-20)
(-0.00225636 -0.0956764 3.9226e-21)
(-0.0040059 -0.102464 6.85051e-21)
(-0.00605109 -0.108701 -1.85676e-20)
(-0.00839199 -0.114365 -2.83921e-20)
(-0.0110258 -0.11944 3.04506e-20)
(-0.0139468 -0.123917 1.85603e-20)
(-0.0171459 -0.127796 -4.29953e-20)
(-0.020611 -0.131084 1.23924e-20)
(-0.0243268 -0.133799 -3.70135e-20)
(-0.0282746 -0.135969 2.34088e-20)
(-0.0324333 -0.13763 1.19924e-20)
(-0.0367788 -0.138826 -1.64591e-20)
(-0.0412854 -0.139611 1.20156e-20)
(-0.0459256 -0.14004 -1.79228e-20)
(-0.0506717 -0.140177 1.41964e-21)
(-0.055496 -0.140083 -6.52482e-20)
(-0.060372 -0.13982 7.95196e-20)
(-0.0652762 -0.139443 3.92309e-20)
(-0.0701887 -0.138999 -5.6151e-20)
(-0.0750948 -0.13852 8.40939e-20)
(-0.0799869 -0.138023 -2.66975e-20)
(-0.0848655 -0.137507 -4.92556e-20)
(-0.0897417 -0.13695 1.26442e-21)
(-0.0946375 -0.136304 -3.58102e-20)
(-0.0995867 -0.135495 5.92438e-20)
(-0.104641 -0.13442 1.22054e-20)
(-0.109883 -0.132949 6.39704e-20)
(-0.115347 -0.130918 -8.44974e-21)
(-0.120832 -0.128102 5.06735e-20)
(-0.126822 -0.124276 -1.01511e-20)
(0.000565655 -0.00504903 -6.00726e-21)
(0.00155125 -0.0147782 -3.41879e-20)
(0.00230109 -0.0243547 8.04671e-21)
(0.00280964 -0.0337395 2.26594e-20)
(0.00307169 -0.0428923 2.36298e-20)
(0.00307388 -0.051773 -5.513e-20)
(0.0028024 -0.0603417 -5.46276e-21)
(0.00224532 -0.0685587 2.13018e-20)
(0.00139244 -0.0763852 -2.47536e-20)
(0.000235223 -0.0837843 2.81971e-20)
(-0.00123289 -0.0907217 -2.49849e-20)
(-0.00301616 -0.0971664 -4.23937e-20)
(-0.00511622 -0.103092 4.08328e-20)
(-0.00753189 -0.108478 3.86324e-20)
(-0.0102589 -0.113309 -1.96646e-20)
(-0.0132896 -0.117577 1.45644e-20)
(-0.0166131 -0.121284 1.98258e-21)
(-0.0202149 -0.124438 6.09437e-21)
(-0.0240773 -0.127058 -2.20808e-20)
(-0.0281791 -0.12917 3.44709e-20)
(-0.0324962 -0.13081 -2.90404e-22)
(-0.0370021 -0.132021 5.84483e-21)
(-0.041668 -0.132854 -4.95706e-20)
(-0.0464639 -0.133364 1.50822e-20)
(-0.0513592 -0.133609 6.19041e-20)
(-0.0563238 -0.133648 -4.79951e-20)
(-0.0613291 -0.133537 -4.94854e-21)
(-0.0663494 -0.133328 1.24081e-19)
(-0.0713634 -0.133059 -2.36254e-20)
(-0.0763555 -0.132756 -1.11152e-20)
(-0.0813174 -0.13243 4.9828e-20)
(-0.0862505 -0.132071 6.10607e-20)
(-0.0911669 -0.131646 -6.33408e-20)
(-0.0960915 -0.1311 1.96604e-20)
(-0.101062 -0.130347 -1.87489e-20)
(-0.106137 -0.129279 -1.34647e-20)
(-0.111406 -0.127758 5.21551e-20)
(-0.116909 -0.12562 -9.27471e-20)
(-0.122437 -0.122634 3.79915e-21)
(-0.128502 -0.118599 1.98456e-21)
(0.000653096 -0.00474418 5.37378e-21)
(0.00179864 -0.0138868 -3.41343e-20)
(0.00268879 -0.0228913 -3.41301e-21)
(0.00331792 -0.0317202 5.36438e-20)
(0.00368097 -0.0403351 -7.07553e-21)
(0.00376413 -0.048698 1.96164e-20)
(0.0035532 -0.0567712 -5.09248e-20)
(0.00303616 -0.0645173 2.24613e-20)
(0.00220292 -0.0718998 -8.09316e-21)
(0.00104529 -0.0788838 -2.61168e-20)
(-0.000442694 -0.0854372 2.25199e-20)
(-0.00226444 -0.0915311 -4.57668e-20)
(-0.00442052 -0.097141 1.05622e-19)
(-0.00690838 -0.102247 -1.1905e-19)
(-0.00972212 -0.106837 2.31935e-20)
(-0.0128523 -0.110904 3.9446e-20)
(-0.0162859 -0.114449 -3.04109e-20)
(-0.0200061 -0.117482 -2.70295e-20)
(-0.0239927 -0.120021 -6.49211e-20)
(-0.0282218 -0.122092 -1.57305e-20)
(-0.0326665 -0.123729 4.5292e-20)
(-0.0372973 -0.124976 7.38056e-20)
(-0.0420825 -0.125878 -4.60385e-20)
(-0.046989 -0.12649 -7.25835e-23)
(-0.051983 -0.126865 -1.75645e-20)
(-0.0570316 -0.127058 8.58768e-20)
(-0.0621032 -0.127121 -1.2208e-19)
(-0.0671695 -0.127099 -1.22604e-19)
(-0.0722066 -0.127025 -6.35992e-20)
(-0.0771966 -0.126919 -5.02506e-20)
(-0.0821295 -0.126782 1.36888e-19)
(-0.0870054 -0.126595 -1.20407e-19)
(-0.0918364 -0.126317 -3.25357e-20)
(-0.0966482 -0.12588 -1.04755e-19)
(-0.101481 -0.125191 6.40436e-20)
(-0.106398 -0.124129 5.22526e-20)
(-0.111496 -0.122553 -5.53063e-20)
(-0.116824 -0.120294 1.56369e-19)
(-0.122158 -0.117118 -4.8518e-20)
(-0.128044 -0.112848 3.04526e-20)
(0.000721463 -0.00441655 2.74219e-20)
(0.00199117 -0.0129307 -1.61047e-20)
(0.00298829 -0.0213242 2.36341e-20)
(0.00370728 -0.0295616 3.60907e-20)
(0.00414329 -0.0376062 -1.06386e-19)
(0.00428224 -0.0454226 1.3159e-19)
(0.00410976 -0.0529752 -5.78803e-20)
(0.00361387 -0.060229 4.17237e-20)
(0.00278475 -0.0671499 -4.50027e-20)
(0.0016147 -0.0737052 3.16812e-21)
(9.84666e-05 -0.0798648 -4.20714e-20)
(-0.00176643 -0.0856019 3.26521e-20)
(-0.00397937 -0.0908936 5.018e-20)
(-0.00653638 -0.0957222 -1.54863e-19)
(-0.00942989 -0.100076 -3.0566e-21)
(-0.0126486 -0.103948 2.2282e-20)
(-0.0161773 -0.107342 1.38746e-19)
(-0.0199969 -0.110267 -7.64112e-20)
(-0.0240846 -0.11274 -9.13109e-21)
(-0.0284138 -0.114787 -2.19215e-21)
(-0.0329548 -0.116441 3.57465e-20)
(-0.037675 -0.117743 -8.82043e-20)
(-0.0425395 -0.118736 5.17841e-20)
(-0.0475119 -0.119472 -1.01968e-19)
(-0.0525553 -0.12 6.07494e-20)
(-0.057633 -0.120371 3.35734e-20)
(-0.0627102 -0.120632 8.79074e-20)
(-0.0677549 -0.120822 -6.72468e-20)
(-0.0727396 -0.120969 2.04933e-19)
(-0.0776433 -0.121084 -9.60347e-20)
(-0.0824526 -0.121162 -5.5111e-20)
(-0.0871648 -0.121172 9.02947e-20)
(-0.09179 -0.121065 -6.15765e-20)
(-0.0963529 -0.120761 1.30688e-20)
(-0.100894 -0.120153 5.27942e-20)
(-0.105481 -0.119111 -2.35602e-19)
(-0.110218 -0.117484 -4.29918e-20)
(-0.115161 -0.115099 2.69558e-20)
(-0.120072 -0.111714 4.24956e-21)
(-0.125533 -0.107183 -2.69867e-21)
(0.000769466 -0.004069 -2.49863e-20)
(0.00212523 -0.0119181 8.93731e-21)
(0.00319399 -0.019667 -1.3593e-19)
(0.00397036 -0.027282 7.63119e-20)
(0.00444982 -0.0347287 -3.49772e-20)
(0.00461822 -0.0419738 -1.95781e-20)
(0.00446117 -0.0489847 4.59029e-20)
(0.00396691 -0.0557285 -2.77546e-20)
(0.00312602 -0.0621734 9.33704e-20)
(0.00193141 -0.0682892 -9.6625e-20)
(0.000378631 -0.0740477 1.60722e-19)
(-0.00153377 -0.079424 -7.58159e-20)
(-0.00380393 -0.084397 5.28228e-21)
(-0.00642641 -0.0889501 5.23444e-20)
(-0.00939198 -0.0930726 -7.51679e-21)
(-0.0126874 -0.0967595 -2.66549e-20)
(-0.0162954 -0.100013 3.01897e-21)
(-0.0201946 -0.102843 1.13959e-20)
(-0.0243596 -0.105266 7.29253e-20)
(-0.0287611 -0.107306 -1.34606e-19)
(-0.0333666 -0.108996 1.13266e-19)
(-0.0381404 -0.110373 -2.67822e-20)
(-0.0430443 -0.111479 -1.39492e-20)
(-0.0480386 -0.112361 1.14094e-20)
(-0.0530827 -0.113066 7.80737e-20)
(-0.0581362 -0.11364 -1.47681e-19)
(-0.0631601 -0.114125 -5.22545e-20)
(-0.0681184 -0.114555 2.42992e-19)
(-0.0729792 -0.114951 -6.67278e-20)
(-0.0777166 -0.115319 7.165e-20)
(-0.0823129 -0.115644 -7.0526e-20)
(-0.0867609 -0.115886 -2.5345e-20)
(-0.0910668 -0.115984 4.43533e-20)
(-0.0952525 -0.115847 2.94091e-19)
(-0.0993577 -0.115352 7.81029e-20)
(-0.10345 -0.114356 -1.38471e-20)
(-0.107644 -0.112697 -2.74628e-20)
(-0.112002 -0.11019 4.49842e-20)
(-0.116272 -0.106583 -1.50041e-20)
(-0.121073 -0.101761 -2.67311e-19)
(0.00079609 -0.00370458 2.98764e-21)
(0.00219803 -0.0108579 -2.0453e-20)
(0.00330154 -0.0179337 3.93985e-20)
(0.00410155 -0.0249007 -6.95407e-20)
(0.00459394 -0.0317264 -6.49206e-20)
(0.00476468 -0.0383803 3.6803e-20)
(0.00459953 -0.0448322 1.02792e-19)
(0.00408709 -0.0510518 1.37111e-20)
(0.00321851 -0.0570097 -9.79559e-20)
(0.00198738 -0.0626778 2.96124e-20)
(0.000390166 -0.0680302 3.70216e-20)
(-0.00157351 -0.0730437 -6.89264e-20)
(-0.00390051 -0.0776987 1.02311e-19)
(-0.00658393 -0.0819801 -8.23826e-20)
(-0.00961286 -0.0858779 2.09061e-20)
(-0.0129722 -0.0893877 7.13292e-20)
(-0.0166426 -0.0925121 -1.48756e-19)
(-0.0206005 -0.0952599 1.66159e-19)
(-0.0248179 -0.0976474 -1.23786e-19)
(-0.0292632 -0.0996979 6.7394e-20)
(-0.0339006 -0.101441 2.85497e-22)
(-0.0386916 -0.102912 -2.31055e-20)
(-0.0435949 -0.104152 6.42498e-20)
(-0.048567 -0.105203 -5.4711e-20)
(-0.0535638 -0.106108 -9.07455e-20)
(-0.0585407 -0.106911 2.13271e-19)
(-0.0634545 -0.107647 -2.36132e-19)
(-0.0682641 -0.108347 1.67326e-19)
(-0.0729326 -0.109025 7.85435e-20)
(-0.0774283 -0.109681 3.7579e-20)
(-0.0817277 -0.110291 -6.54986e-20)
(-0.0858176 -0.110808 1.09185e-19)
(-0.0896984 -0.111156 8.91207e-20)
(-0.0933871 -0.111231 -2.65633e-19)
(-0.0969202 -0.110896 -1.35003e-19)
(-0.100366 -0.109988 -8.76377e-20)
(-0.103844 -0.108328 2.17181e-19)
(-0.107427 -0.105717 -4.89585e-20)
(-0.110852 -0.101882 -3.28634e-20)
(-0.114774 -0.0967384 8.50773e-20)
(0.000800616 -0.00332651 1.45304e-22)
(0.00220761 -0.00975926 6.45534e-20)
(0.00330801 -0.0161395 -1.37456e-19)
(0.00409713 -0.0224379 4.42735e-20)
(0.0045714 -0.0286246 3.70695e-20)
(0.00471705 -0.0346716 3.70435e-20)
(0.0045202 -0.0405513 1.1346e-21)
(0.00396995 -0.0462362 -8.91321e-20)
(0.00305809 -0.0516992 -8.65949e-20)
(0.00177906 -0.0569143 -7.31512e-21)
(0.000130252 -0.0618577 6.91225e-20)
(-0.00188756 -0.0665081 1.3735e-20)
(-0.00426995 -0.0708472 -1.64978e-20)
(-0.00700856 -0.0748612 2.69428e-21)
(-0.0100908 -0.0785409 7.19185e-20)
(-0.0134999 -0.0818823 -7.04944e-20)
(-0.0172144 -0.0848877 -2.33e-20)
(-0.0212086 -0.0875658 2.27846e-20)
(-0.0254523 -0.0899318 -6.59364e-20)
(-0.0299111 -0.0920074 -1.08871e-19)
(-0.0345468 -0.0938206 1.63531e-19)
(-0.0393177 -0.0954046 5.82462e-20)
(-0.0441793 -0.0967969 -9.65994e-20)
(-0.0490849 -0.0980375 -1.77301e-19)
(-0.0539862 -0.0991665 1.38698e-19)
(-0.0588346 -0.100222 -7.75033e-21)
(-0.0635822 -0.101237 3.58296e-20)
(-0.0681825 -0.102236 3.23517e-20)
(-0.0725928 -0.10323 -7.22349e-20)
(-0.0767751 -0.104212 5.49876e-21)
(-0.0806985 -0.105151 1.97591e-19)
(-0.0843425 -0.105991 -1.73672e-19)
(-0.0876998 -0.106644 -3.70229e-20)
(-0.0907804 -0.10699 1.00117e-19)
(-0.0936156 -0.106873 7.71213e-20)
(-0.0962715 -0.10611 5.51098e-20)
(-0.0988739 -0.104498 -2.03108e-19)
(-0.101505 -0.101815 3.67704e-21)
(-0.103893 -0.0977566 6.62941e-20)
(-0.106733 -0.0922611 -5.71141e-21)
(0.000782637 -0.00293813 -2.09591e-20)
(0.00215294 -0.00863184 2.54262e-21)
(0.00321193 -0.0142996 2.02033e-20)
(0.00395544 -0.0199147 4.71931e-20)
(0.00438053 -0.0254493 -3.62315e-20)
(0.00447388 -0.0308784 4.21181e-20)
(0.00422213 -0.0361771 5.334e-20)
(0.00361501 -0.0413203 -1.14404e-19)
(0.0026451 -0.0462834 8.86009e-21)
(0.00130774 -0.0510427 4.07674e-20)
(-0.000398653 -0.0555764 -4.69097e-20)
(-0.00247215 -0.0598649 -3.14667e-21)
(-0.00490702 -0.0638913 2.81766e-20)
(-0.00769348 -0.0676429 -8.38408e-20)
(-0.0108174 -0.0711111 -4.6581e-20)
(-0.0142602 -0.0742923 5.39448e-20)
(-0.0179986 -0.0771885 -2.03427e-20)
(-0.0220048 -0.0798079 -4.23871e-20)
(-0.0262465 -0.0821646 2.2119e-19)
(-0.0306869 -0.0842789 -2.20891e-19)
(-0.0352851 -0.0861768 1.51106e-19)
(-0.0399967 -0.0878893 -6.0403e-20)
(-0.0447741 -0.0894514 1.55611e-19)
(-0.049567 -0.0908999 -2.0906e-19)
(-0.0543235 -0.0922725 1.09947e-19)
(-0.0589908 -0.0936036 -5.48282e-20)
(-0.0635156 -0.0949223 5.40819e-20)
(-0.0678465 -0.0962499 -5.88993e-21)
(-0.0719339 -0.0975927 -9.49169e-20)
(-0.0757329 -0.0989396 6.9242e-20)
(-0.0792045 -0.100253 -1.61263e-19)
(-0.0823192 -0.101468 1.39535e-19)
(-0.0850605 -0.102486 8.74737e-20)
(-0.0874293 -0.103171 -1.53595e-19)
(-0.0894492 -0.103346 -6.32729e-20)
(-0.0911825 -0.102801 3.02845e-19)
(-0.0927591 -0.101304 1.02538e-19)
(-0.0942727 -0.098599 -3.95157e-20)
(-0.0954448 -0.0943357 -1.98344e-20)
(-0.0970126 -0.0884599 -5.90973e-20)
(0.000742088 -0.00254297 4.97781e-20)
(0.00203396 -0.0074857 -1.00615e-19)
(0.00301344 -0.0124305 1.63378e-20)
(0.003677 -0.0173529 9.6879e-21)
(0.00402242 -0.0222276 3.72071e-20)
(0.004037 -0.0270324 -1.00884e-19)
(0.00370805 -0.0317452 9.35853e-20)
(0.00302611 -0.0363434 -1.20132e-19)
(0.00198464 -0.0408049 5.23838e-21)
(0.000579952 -0.0451082 -3.64394e-20)
(-0.00118844 -0.0492335 9.76872e-20)
(-0.00331742 -0.0531626 3.30863e-20)
(-0.00579997 -0.0568804 -1.37486e-20)
(-0.0086249 -0.0603749 3.65811e-20)
(-0.0117766 -0.063638 -9.63893e-20)
(-0.0152348 -0.0666666 6.38548e-20)
(-0.0189744 -0.0694623 2.29925e-19)
(-0.0229658 -0.0720324 -1.64929e-19)
(-0.0271746 -0.0743901 -1.43942e-19)
(-0.0315618 -0.0765541 1.13522e-19)
(-0.036084 -0.0785486 4.29558e-20)
(-0.0406943 -0.0804024 -6.68299e-20)
(-0.0453419 -0.0821476 3.67962e-20)
(-0.0499734 -0.0838194 4.33204e-20)
(-0.0545332 -0.0854518 -9.68228e-20)
(-0.0589639 -0.0870772 8.28172e-21)
(-0.0632078 -0.088722 -9.12288e-20)
(-0.067207 -0.0904032 1.2158e-19)
(-0.0709058 -0.0921259 1.69241e-19)
(-0.0742511 -0.0938741 -4.3305e-21)
(-0.0771953 -0.0956067 1.54808e-19)
(-0.079699 -0.0972509 -3.19842e-20)
(-0.0817346 -0.0986975 -3.12368e-20)
(-0.0832923 -0.099795 3.02157e-20)
(-0.0843859 -0.100345 -2.0996e-19)
(-0.0850709 -0.100107 8.37287e-20)
(-0.0854801 -0.0988106 1.51261e-19)
(-0.0857192 -0.0961539 -1.82793e-19)
(-0.0855059 -0.0917209 9.98019e-20)
(-0.0856211 -0.0854428 1.3844e-19)
(0.000679268 -0.00214468 7.44104e-20)
(0.00185165 -0.0063313 -6.31971e-21)
(0.00271439 -0.0105487 2.65296e-20)
(0.00326466 -0.0147751 -4.96135e-20)
(0.00350107 -0.0189874 6.61407e-20)
(0.00341172 -0.0231664 -4.20794e-20)
(0.00298476 -0.0272926 -1.15224e-19)
(0.00221165 -0.0313462 -1.81567e-20)
(0.00108685 -0.0353074 7.34325e-20)
(-0.000392276 -0.039157 -1.84409e-20)
(-0.00222504 -0.0428769 3.92679e-20)
(-0.00440712 -0.0464508 -1.10778e-19)
(-0.0069302 -0.0498647 -7.17604e-20)
(-0.00978171 -0.0531075 2.10512e-19)
(-0.0129446 -0.0561718 1.59362e-19)
(-0.016397 -0.0590543 -2.54253e-19)
(-0.0201123 -0.0617566 9.41019e-20)
(-0.0240589 -0.0642851 -1.65876e-19)
(-0.0282004 -0.0666514 6.03248e-20)
(-0.032496 -0.0688734 -3.90944e-20)
(-0.0369 -0.0709728 7.39943e-20)
(-0.0413629 -0.0729768 1.89281e-20)
(-0.0458312 -0.0749152 1.83246e-20)
(-0.0502482 -0.0768201 4.34456e-20)
(-0.0545547 -0.0787245 -7.24794e-20)
(-0.0586892 -0.0806579 8.27404e-20)
(-0.0625886 -0.0826447 1.05188e-19)
(-0.0661896 -0.0847006 -1.27867e-19)
(-0.0694291 -0.0868276 -7.5718e-20)
(-0.0722464 -0.0890086 -1.25422e-19)
(-0.0745844 -0.0911998 -1.14671e-19)
(-0.0763927 -0.0933233 2.02663e-19)
(-0.0776321 -0.0952613 -2.88723e-19)
(-0.0782799 -0.0968481 2.81957e-19)
(-0.0783377 -0.0978629 -3.94608e-19)
(-0.0778525 -0.0980309 -1.484e-20)
(-0.0769567 -0.0970384 -2.99053e-20)
(-0.0757698 -0.0945221 7.75896e-20)
(-0.0740063 -0.0899772 -3.05383e-20)
(-0.0724906 -0.0832863 1.48371e-20)
(0.000594863 -0.00174703 -2.37114e-20)
(0.00160813 -0.00517942 8.83928e-20)
(0.00231841 -0.00867171 -1.34248e-19)
(0.00272372 -0.0122045 1.07725e-20)
(0.00282356 -0.0157574 6.66936e-20)
(0.00260701 -0.0193139 3.03389e-20)
(0.00206322 -0.0228573 -1.47953e-19)
(0.00118471 -0.0263703 1.95659e-19)
(-3.29665e-05 -0.0298356 -1.7081e-19)
(-0.00159127 -0.0332361 1.9929e-19)
(-0.00348831 -0.0365557 -2.31357e-19)
(-0.00571848 -0.0397796 1.1634e-19)
(-0.00827216 -0.042895 -1.03867e-19)
(-0.0111355 -0.0458917 -1.01871e-19)
(-0.0142898 -0.0487625 1.36269e-19)
(-0.017712 -0.0515047 -9.51757e-20)
(-0.0213736 -0.0541189 8.36185e-20)
(-0.0252415 -0.056611 6.74373e-20)
(-0.0292775 -0.0589917 -2.55475e-19)
(-0.0334386 -0.0612762 4.91124e-20)
(-0.0376772 -0.0634857 -3.57638e-20)
(-0.0419413 -0.0656445 -1.43236e-19)
(-0.0461749 -0.0677806 1.73573e-20)
(-0.050318 -0.0699243 8.03103e-20)
(-0.0543078 -0.0721061 -1.59372e-20)
(-0.0580785 -0.0743544 -9.49091e-20)
(-0.0615625 -0.0766926 -1.99632e-19)
(-0.0646902 -0.079135 2.77138e-19)
(-0.067392 -0.0816834 -1.55083e-19)
(-0.0695987 -0.08432 8.2057e-20)
(-0.0712436 -0.0870006 -3.54519e-19)
(-0.0722652 -0.0896454 2.76711e-19)
(-0.0726112 -0.0921307 1.37634e-19)
(-0.0722449 -0.0942788 -1.32739e-19)
(-0.0711542 -0.095848 2.46816e-19)
(-0.0693739 -0.0965287 1.54296e-19)
(-0.0670348 -0.0959561 2.75938e-19)
(-0.06427 -0.0936933 -1.49344e-19)
(-0.0607928 -0.0891208 1.82207e-20)
(-0.0574607 -0.0820268 -4.77862e-20)
(0.000489966 -0.0013539 1.21942e-19)
(0.00130665 -0.00404112 -2.08916e-19)
(0.00183102 -0.00681712 1.74197e-19)
(0.00206202 -0.00966501 -1.12105e-19)
(0.00200015 -0.012567 9.66581e-20)
(0.0016356 -0.0155092 -1.13043e-19)
(0.000958696 -0.0184778 -3.21078e-21)
(-3.68479e-05 -0.021458 1.12057e-19)
(-0.0013543 -0.0244348 -5.73739e-20)
(-0.00299376 -0.0273934 1.46351e-20)
(-0.00495216 -0.0303196 1.18345e-19)
(-0.00722244 -0.0332 1.84194e-19)
(-0.00979375 -0.036023 -3.15712e-19)
(-0.0126507 -0.038779 1.66498e-19)
(-0.0157733 -0.0414618 -9.69667e-20)
(-0.0191367 -0.0440676 -1.3086e-20)
(-0.0227112 -0.0465979 -1.97472e-20)
(-0.0264618 -0.049057 -2.46103e-19)
(-0.0303487 -0.0514541 -1.57835e-19)
(-0.034327 -0.0538034 1.83998e-19)
(-0.0383469 -0.0561235 2.82596e-21)
(-0.042354 -0.0584371 -2.46269e-20)
(-0.0462896 -0.0607704 -8.17092e-20)
(-0.0500908 -0.0631515 2.49454e-19)
(-0.0536912 -0.0656097 -1.94471e-19)
(-0.0570209 -0.0681722 9.33808e-20)
(-0.0600073 -0.0708619 -3.87569e-20)
(-0.0625755 -0.0736933 4.65997e-19)
(-0.0646488 -0.0766686 -4.13735e-19)
(-0.0661497 -0.0797716 -1.56645e-19)
(-0.0670019 -0.0829597 8.01377e-20)
(-0.0671322 -0.0861541 2.73776e-20)
(-0.0664748 -0.0892291 -3.76337e-20)
(-0.0649783 -0.0919991 4.37805e-20)
(-0.0626147 -0.0942044 -1.9012e-19)
(-0.0594049 -0.0955018 2.02614e-19)
(-0.0554755 -0.0954719 -2.96632e-19)
(-0.0509759 -0.0935935 2.71069e-19)
(-0.0456196 -0.089109 -5.44142e-20)
(-0.0402679 -0.0816565 -6.98076e-21)
(0.000366065 -0.000969181 9.21031e-20)
(0.000951634 -0.00292753 -2.5136e-19)
(0.00125963 -0.00500281 1.65598e-19)
(0.00129 -0.00718065 2.3799e-20)
(0.00104428 -0.00944581 2.35684e-20)
(0.000513863 -0.0117871 -1.5626e-19)
(-0.000309448 -0.0141933 1.96854e-19)
(-0.00143079 -0.0166523 -3.78763e-20)
(-0.00285182 -0.0191511 -2.5713e-19)
(-0.00457148 -0.0216776 2.84304e-20)
(-0.00658493 -0.0242188 2.30536e-19)
(-0.00888402 -0.0267636 -1.40129e-20)
(-0.0114562 -0.0293012 8.06928e-20)
(-0.0142847 -0.0318228 -5.54449e-21)
(-0.0173481 -0.034322 1.46539e-19)
(-0.0206198 -0.0367956 4.74317e-20)
(-0.0240686 -0.0392439 -2.09522e-19)
(-0.027658 -0.0416705 2.50236e-19)
(-0.0313463 -0.0440836 -1.1518e-19)
(-0.0350866 -0.0464955 1.252e-19)
(-0.038827 -0.0489229 1.55905e-20)
(-0.0425107 -0.0513868 -1.82722e-19)
(-0.0460762 -0.0539112 -6.63072e-20)
(-0.0494576 -0.0565227 -4.82228e-20)
(-0.0525848 -0.0592489 3.78755e-19)
(-0.0553839 -0.0621162 -1.54866e-19)
(-0.0577775 -0.0651476 1.98674e-19)
(-0.0596849 -0.0683587 -2.52499e-20)
(-0.0610226 -0.0717534 1.86435e-19)
(-0.0617052 -0.0753184 -1.05544e-19)
(-0.0616463 -0.079015 1.21524e-19)
(-0.0607612 -0.0827687 1.49566e-19)
(-0.0589705 -0.0864558 -2.90978e-19)
(-0.0562074 -0.0898881 -7.47382e-20)
(-0.0524272 -0.092793 2.29182e-19)
(-0.0476355 -0.0947976 5.37341e-20)
(-0.0419528 -0.0954275 -1.25564e-20)
(-0.0355525 -0.0940722 3.4101e-20)
(-0.028155 -0.0898204 -6.75354e-20)
(-0.0205516 -0.0820974 -3.28557e-19)
(0.000225238 -0.000597024 5.6032e-21)
(0.000549068 -0.00185033 -8.74735e-20)
(0.00061396 -0.00324729 7.85427e-20)
(0.000420972 -0.00477615 -1.88601e-20)
(-2.75562e-05 -0.00642403 -1.94023e-19)
(-0.00073832 -0.00818269 1.70934e-19)
(-0.00171842 -0.0100433 1.0312e-19)
(-0.00297096 -0.0119964 -1.90639e-20)
(-0.00449612 -0.0140315 -1.40784e-20)
(-0.00629111 -0.0161381 -1.74805e-19)
(-0.00834963 -0.0183056 3.4435e-20)
(-0.0106619 -0.0205238 2.04825e-19)
(-0.0132139 -0.0227833 -2.81614e-19)
(-0.0159873 -0.0250761 2.15093e-19)
(-0.018959 -0.0273962 -4.94056e-20)
(-0.0221011 -0.0297399 -9.02238e-20)
(-0.0253805 -0.0321069 -9.15642e-20)
(-0.0287588 -0.0345002 9.19647e-20)
(-0.0321925 -0.0369262 5.43483e-20)
(-0.0356326 -0.0393959 -1.55022e-19)
(-0.0390247 -0.0419239 -1.26828e-19)
(-0.0423096 -0.0445289 -4.20171e-21)
(-0.0454228 -0.0472332 -2.61434e-21)
(-0.0482951 -0.0500615 2.59541e-20)
(-0.0508527 -0.0530398 -5.49914e-20)
(-0.0530173 -0.056194 -9.11862e-20)
(-0.0547066 -0.0595471 2.1626e-20)
(-0.055834 -0.0631161 1.50206e-19)
(-0.0563092 -0.0669078 -2.69202e-19)
(-0.0560387 -0.0709132 -8.9028e-20)
(-0.0549265 -0.0750993 5.50391e-20)
(-0.0528762 -0.0793986 -2.21586e-19)
(-0.0497954 -0.0836942 2.7709e-19)
(-0.0456016 -0.0878007 -4.91261e-20)
(-0.0402338 -0.0914396 -5.81229e-20)
(-0.033681 -0.0942138 2.6765e-19)
(-0.026058 -0.0955963 1.4225e-19)
(-0.0175771 -0.0948839 -9.33255e-20)
(-0.00799908 -0.0909941 -1.97306e-19)
(0.00210113 -0.0830678 3.02665e-19)
(6.96791e-05 -0.000241175 1.69097e-20)
(0.000105277 -0.000820141 -1.64967e-19)
(-9.56943e-05 -0.00156747 4.39429e-20)
(-0.000531091 -0.00247397 2.31643e-19)
(-0.00119702 -0.00352957 -1.61216e-19)
(-0.00209875 -0.00472856 1.07614e-19)
(-0.00324112 -0.00606503 -1.42167e-19)
(-0.00462558 -0.00753177 3.84422e-20)
(-0.00625065 -0.00912059 5.75914e-20)
(-0.00811167 -0.0108229 -3.79359e-20)
(-0.0102008 -0.0126298 -5.00378e-20)
(-0.0125066 -0.0145325 9.05211e-20)
(-0.0150132 -0.0165228 -1.19928e-19)
(-0.0177006 -0.0185934 4.59145e-20)
(-0.020544 -0.0207384 5.05575e-20)
(-0.0235135 -0.0229543 -3.77348e-20)
(-0.0265741 -0.0252399 1.96791e-19)
(-0.0296856 -0.0275971 4.99681e-20)
(-0.032802 -0.0300311 9.17884e-20)
(-0.035872 -0.0325508 -3.03631e-20)
(-0.0388388 -0.0351691 -8.31074e-20)
(-0.0416399 -0.0379024 2.01648e-19)
(-0.0442077 -0.0407705 -9.22901e-20)
(-0.0464693 -0.0437963 -3.86051e-19)
(-0.0483468 -0.0470041 1.469e-19)
(-0.0497571 -0.0504189 -2.59186e-19)
(-0.0506125 -0.0540637 -1.26191e-19)
(-0.0508204 -0.057957 2.59308e-19)
(-0.0502835 -0.0621086 -1.1425e-19)
(-0.0488999 -0.0665146 5.73538e-20)
(-0.0465644 -0.0711493 1.99675e-19)
(-0.0431695 -0.0759547 -4.39847e-19)
(-0.0386094 -0.0808246 -2.73924e-19)
(-0.0327869 -0.0855825 1.55117e-19)
(-0.0256242 -0.0899518 -2.13851e-19)
(-0.0170929 -0.0935189 2.17228e-21)
(-0.00729836 -0.0957077 -5.35849e-20)
(0.00349986 -0.0957126 3.1543e-19)
(0.015408 -0.0922305 -6.43991e-19)
(0.0281497 -0.0839593 2.16589e-19)
(-9.78604e-05 9.47044e-05 1.15767e-20)
(-0.000371604 0.000152393 -6.02145e-20)
(-0.000855821 1.92872e-05 1.65966e-20)
(-0.00154701 -0.000297972 1.05903e-19)
(-0.00243992 -0.000791967 -1.17969e-19)
(-0.00353782 -0.00145966 -2.36268e-20)
(-0.00484351 -0.00229772 -1.25033e-19)
(-0.00635652 -0.00330128 2.45957e-19)
(-0.00807337 -0.0044644 -1.56407e-19)
(-0.00998756 -0.00578038 5.59197e-20)
(-0.0120893 -0.00724205 1.39237e-19)
(-0.014365 -0.00884203 -1.93048e-19)
(-0.016797 -0.0105732 1.38021e-19)
(-0.0193632 -0.0124288 -5.2407e-20)
(-0.0220367 -0.0144035 3.18023e-20)
(-0.0247856 -0.0164934 5.37122e-21)
(-0.0275726 -0.0186967 -3.32334e-19)
(-0.030355 -0.0210142 1.71489e-19)
(-0.0330845 -0.0234495 -1.914e-19)
(-0.0357068 -0.0260097 1.6574e-20)
(-0.038162 -0.0287054 9.6731e-20)
(-0.0403843 -0.0315506 -1.30236e-19)
(-0.0423023 -0.0345627 -9.58942e-20)
(-0.0438387 -0.037762 1.35391e-19)
(-0.0449109 -0.041171 2.28246e-19)
(-0.0454305 -0.0448131 -2.28879e-19)
(-0.0453037 -0.0487109 3.08921e-19)
(-0.0444314 -0.0528838 -1.20678e-19)
(-0.0427088 -0.0573447 3.22188e-19)
(-0.0400259 -0.0620944 8.7587e-20)
(-0.0362679 -0.0671155 -3.74971e-19)
(-0.0313168 -0.0723609 2.91372e-20)
(-0.0250544 -0.0777387 5.14252e-20)
(-0.0173687 -0.0830878 -2.14834e-19)
(-0.00816462 -0.0881428 -3.42624e-21)
(0.00260683 -0.0924872 -4.00569e-20)
(0.0148639 -0.0955089 -5.6444e-20)
(0.0283529 -0.0963082 8.10898e-20)
(0.0430425 -0.0933408 -9.55298e-20)
(0.0584987 -0.0845414 -1.32041e-19)
(-0.000274234 0.000407012 -8.71285e-20)
(-0.00087249 0.00105702 1.53543e-19)
(-0.00165167 0.00149657 3.69291e-20)
(-0.00260683 0.00172976 -1.16126e-19)
(-0.00373129 0.00176146 7.76799e-21)
(-0.00502612 0.00159205 1.43877e-19)
(-0.00649183 0.00122236 -1.37213e-19)
(-0.00812574 0.000654926 1.01644e-19)
(-0.00992213 -0.00010647 -1.83339e-19)
(-0.0118723 -0.00105708 -4.76442e-20)
(-0.0139641 -0.00219142 1.97212e-19)
(-0.0161818 -0.0035035 -1.13373e-19)
(-0.0185054 -0.00498719 5.30572e-20)
(-0.0209104 -0.00663656 5.85267e-20)
(-0.0233675 -0.00844638 2.68602e-20)
(-0.0258424 -0.0104125 -8.37101e-20)
(-0.028295 -0.0125326 2.57834e-19)
(-0.03068 -0.0148061 -8.99547e-20)
(-0.0329457 -0.0172353 1.1145e-19)
(-0.0350347 -0.0198251 -8.75509e-20)
(-0.0368834 -0.0225836 -2.63383e-20)
(-0.038422 -0.0255222 -3.703e-20)
(-0.0395743 -0.0286555 -1.70095e-19)
(-0.0402583 -0.032001 3.93987e-20)
(-0.0403856 -0.0355784 3.16483e-20)
(-0.0398617 -0.039409 1.42959e-19)
(-0.0385861 -0.0435143 -8.73912e-20)
(-0.0364523 -0.0479135 6.55552e-20)
(-0.0333475 -0.0526213 -2.58516e-20)
(-0.0291533 -0.0576432 1.10681e-19)
(-0.0237459 -0.0629691 -4.44578e-20)
(-0.0169969 -0.0685639 -1.26681e-19)
(-0.0087775 -0.0743518 1.86789e-19)
(0.00103729 -0.0801931 -2.81658e-19)
(0.0125581 -0.0858447 1.11909e-19)
(0.0258515 -0.0909063 1.26185e-19)
(0.0408479 -0.0947643 2.61368e-19)
(0.0573171 -0.0964529 -2.08759e-19)
(0.0754161 -0.094069 1.99476e-19)
(0.0940956 -0.0850635 1.97548e-19)
(-0.000456016 0.000692386 9.78441e-21)
(-0.00138755 0.00188398 1.90754e-19)
(-0.00246765 0.00284882 -1.11132e-21)
(-0.00368955 0.00358829 -6.99804e-20)
(-0.005045 0.00410483 -3.40364e-20)
(-0.00653258 0.00439618 5.46424e-20)
(-0.00815024 0.00446076 -8.56001e-20)
(-0.00989271 0.00429863 -7.46354e-21)
(-0.0117518 0.00391151 2.1148e-19)
(-0.0137162 0.00330224 -5.62196e-20)
(-0.0157713 0.00247467 -1.22384e-19)
(-0.0178985 0.00143339 1.06153e-19)