/*--------------------------------*- C++ -*----------------------------------*\
  =========                 |
  \\      /  F ield         | OpenFOAM: The Open Source CFD Toolbox
   \\    /   O peration     | Website:  https://openfoam.org
    \\  /    A nd           | Version:  7
     \\/     M anipulation  |
\*---------------------------------------------------------------------------*/
FoamFile
{
    version     2.0;
    format      ascii;
    class       volScalarField;
    location    "12";
    object      p;
}
// * * * * * * * * * * * * * * * * * * * * * * * * * * * * * * * * * * * * * //

dimensions      [0 2 -2 0 0 0 0];

internalField   nonuniform List<scalar> 
435
(
4.17434
4.0348
3.8899
3.74104
3.58926
3.43548
3.28064
3.12567
2.97147
2.81882
2.66843
2.52094
2.37686
2.23663
2.1006
1.96903
1.84212
4.33251
4.22002
4.09925
3.97192
3.83907
3.70189
3.56127
3.418
3.27292
3.12688
2.98071
2.83517
2.69098
2.54876
2.40908
2.27241
2.13917
2.00966
1.88414
4.23499
4.13303
4.02326
3.90708
3.78535
3.65905
3.52895
3.3957
3.26005
3.12276
2.98457
2.84622
2.70838
2.57169
2.43671
2.30395
2.17385
2.04678
1.92303
4.13946
4.04695
3.9471
3.84107
3.72954
3.61333
3.49307
3.36932
3.24269
3.11387
2.98353
2.85233
2.72092
2.58991
2.45986
2.33128
2.20464
2.08033
1.95869
4.0464
3.96234
3.87143
3.77459
3.67238
3.56547
3.45437
3.33953
3.22148
3.1008
2.97808
2.85393
2.72894
2.60368
2.4787
2.35451
2.23157
2.11031
1.99108
3.95624
3.87972
3.79681
3.70828
3.61455
3.51617
3.41353
3.30701
3.19704
3.08411
2.96874
2.85145
2.73279
2.61329
2.49345
2.37379
2.25474
2.13675
2.02018
3.86933
3.7995
3.72376
3.6427
3.55666
3.46605
3.37121
3.27241
3.17
3.0644
2.95603
2.84537
2.73289
2.61907
2.50439
2.38932
2.27429
2.15973
2.04602
3.78597
3.72208
3.65272
3.57837
3.49925
3.41572
3.328
3.23632
3.14095
3.04221
2.94048
2.83616
2.72965
2.62138
2.5118
2.40133
2.29039
2.17939
2.0687
3.70641
3.64777
3.58409
3.51572
3.44283
3.36569
3.28446
3.19931
3.11044
3.0181
2.92261
2.82429
2.7235
2.62061
2.51602
2.4101
2.30326
2.19587
2.0883
3.63087
3.57686
3.5182
3.45516
3.38785
3.31646
3.24111
3.16191
3.07901
2.9926
2.90293
2.81026
2.71489
2.61715
2.51738
2.41592
2.31314
2.20937
2.10498
3.55951
3.50958
3.45535
3.39704
3.3347
3.26847
3.19842
3.12462
3.04716
2.9662
2.88191
2.79452
2.70426
2.61141
2.51626
2.41911
2.32029
2.22012
2.11892
3.49251
3.44614
3.39582
3.34168
3.28375
3.22212
3.15683
3.08789
3.01538
2.93939
2.86005
2.77754
2.69205
2.60379
2.51303
2.42001
2.32502
2.22836
2.1303
3.43
3.38674
3.33984
3.28936
3.23533
3.17779
3.11673
3.05216
2.9841
2.91261
2.83779
2.75977
2.67868
2.59471
2.50806
2.41895
2.32763
2.23435
2.13937
3.37211
3.33155
3.28762
3.24036
3.18975
3.13581
3.0785
3.01781
2.95374
2.88631
2.81558
2.74164
2.66459
2.58457
2.50175
2.4163
2.32843
2.23837
2.14634
3.31897
3.28074
3.23939
3.19492
3.14729
3.0965
3.0425
2.98524
2.92471
2.8609
2.79383
2.72357
2.65018
2.57377
2.49446
2.4124
2.32776
2.24072
2.1515
3.27071
3.23448
3.19535
3.15328
3.10824
3.06018
3.00906
2.95481
2.89738
2.83676
2.77295
2.70597
2.63587
2.56271
2.48659
2.40762
2.32594
2.2417
2.15508
3.22748
3.19295
3.1557
3.11568
3.07285
3.02715
2.97851
2.92686
2.87213
2.8143
2.75333
2.68924
2.62204
2.55177
2.47849
2.4023
2.32329
2.24161
2.15738
3.18946
3.15635
3.12068
3.08239
3.04142
2.99771
2.95118
2.90173
2.84931
2.79387
2.73536
2.67376
2.60908
2.54132
2.47054
2.39679
2.32016
2.24074
2.15865
3.15685
3.1249
3.09053
3.05366
3.01424
2.97218
2.92739
2.87979
2.8293
2.77585
2.7194
2.65991
2.59736
2.53175
2.4631
2.39144
2.31685
2.23939
2.15917
3.12991
3.09889
3.06555
3.02982
2.99162
2.95088
2.9075
2.86139
2.81245
2.76063
2.70585
2.64807
2.58726
2.5234
2.4565
2.38658
2.31367
2.23785
2.15918
3.10896
3.07864
3.04608
3.0112
2.97395
2.93421
2.89189
2.84691
2.79916
2.74857
2.69507
2.63861
2.57914
2.51664
2.45109
2.38251
2.31092
2.23637
2.15893
3.09441
3.06456
3.03254
2.99825
2.96162
2.92257
2.88099
2.83677
2.78983
2.74009
2.68748
2.63192
2.57337
2.5118
2.44719
2.37954
2.30886
2.2352
2.15861
3.08679
3.05719
3.02544
2.99146
2.95517
2.91647
2.87526
2.83144
2.78493
2.73563
2.68346
2.62838
2.57031
2.50923
2.44511
2.37794
2.30774
2.23454
2.1584
)
;

boundaryField
{
    inlet
    {
        type            zeroGradient;
    }
    outlet
    {
        type            fixedValue;
        value           nonuniform 0();
    }
    cylinder
    {
        type            zeroGradient;
    }
    top
    {
        type            symmetryPlane;
    }
    bottom
    {
        type            symmetryPlane;
    }
    defaultFaces
    {
        type            empty;
    }
    procBoundary34to28
    {
        type            processor;
        value           nonuniform List<scalar> 
20
(
4.24771
4.09485
3.93697
3.77567
3.61213
3.44742
3.28258
3.11861
2.95642
2.79683
2.64052
2.48808
2.33998
2.1966
2.0582
1.925
1.7971
4.43146
4.30725
4.30725
)
;
    }
    procBoundary34to29
    {
        type            processor;
        value           nonuniform List<scalar> 3(1.71999 1.7628 1.80285);
    }
    procBoundary34to33
    {
        type            processor;
        value           nonuniform List<scalar> 
22
(
4.39816
4.29462
4.19371
4.09586
4.00144
3.91075
3.82406
3.74155
3.66342
3.58979
3.5208
3.45655
3.39715
3.34272
3.29335
3.24919
3.21039
3.17715
3.14972
3.12841
3.11364
3.10593
)
;
    }
    procBoundary34to35
    {
        type            processor;
        value           nonuniform List<scalar> 
20
(
1.84
1.87419
1.90536
1.93351
1.95866
1.98089
2.00029
2.01699
2.03116
2.04296
2.05259
2.06029
2.06627
2.07078
2.07405
2.0763
2.07778
2.07868
2.07916
2.07938
)
;
    }
}


// ************************************************************************* //
