/*--------------------------------*- C++ -*----------------------------------*\
  =========                 |
  \\      /  F ield         | OpenFOAM: The Open Source CFD Toolbox
   \\    /   O peration     | Website:  https://openfoam.org
    \\  /    A nd           | Version:  7
     \\/     M anipulation  |
\*---------------------------------------------------------------------------*/
FoamFile
{
    version     2.0;
    format      ascii;
    class       volScalarField;
    location    "90";
    object      p;
}
// * * * * * * * * * * * * * * * * * * * * * * * * * * * * * * * * * * * * * //

dimensions      [0 2 -2 0 0 0 0];

internalField   nonuniform List<scalar> 
15000
(
-0.391886
-0.392258
-0.392614
-0.392935
-0.393244
-0.393544
-0.393835
-0.394113
-0.394379
-0.394632
-0.394869
-0.395092
-0.395298
-0.395488
-0.395662
-0.395818
-0.395959
-0.396083
-0.396191
-0.396283
-0.39636
-0.396422
-0.396469
-0.396501
-0.396518
-0.39652
-0.396507
-0.396478
-0.396434
-0.396374
-0.396299
-0.396209
-0.396107
-0.395996
-0.395881
-0.395773
-0.395689
-0.395609
-0.395458
-0.395661
-0.389949
-0.390289
-0.390615
-0.390908
-0.39119
-0.391464
-0.391727
-0.391978
-0.392215
-0.392439
-0.392646
-0.392838
-0.393012
-0.393169
-0.393307
-0.393426
-0.393526
-0.393607
-0.393669
-0.393711
-0.393734
-0.393737
-0.393721
-0.393685
-0.39363
-0.393555
-0.393459
-0.393343
-0.393206
-0.39305
-0.392873
-0.392679
-0.392469
-0.392249
-0.392023
-0.391806
-0.391615
-0.391435
-0.391187
-0.39131
-0.388149
-0.388456
-0.38875
-0.389014
-0.389268
-0.389513
-0.389748
-0.389971
-0.39018
-0.390374
-0.390551
-0.390712
-0.390853
-0.390976
-0.391078
-0.391159
-0.391219
-0.391256
-0.391271
-0.391262
-0.39123
-0.391174
-0.391095
-0.390991
-0.390862
-0.390709
-0.39053
-0.390326
-0.390096
-0.389842
-0.389564
-0.389264
-0.388946
-0.388614
-0.388278
-0.387949
-0.387652
-0.387374
-0.387031
-0.387075
-0.386475
-0.386749
-0.387011
-0.387246
-0.38747
-0.387687
-0.387893
-0.388086
-0.388266
-0.38843
-0.388577
-0.388706
-0.388816
-0.388904
-0.38897
-0.389013
-0.389031
-0.389024
-0.388991
-0.388932
-0.388845
-0.388729
-0.388586
-0.388413
-0.388211
-0.387978
-0.387716
-0.387422
-0.387099
-0.386746
-0.386365
-0.385958
-0.38553
-0.385087
-0.384638
-0.384199
-0.383796
-0.383421
-0.382984
-0.382947
-0.384915
-0.385156
-0.385386
-0.385592
-0.385788
-0.385976
-0.386153
-0.386318
-0.386468
-0.386602
-0.386719
-0.386817
-0.386893
-0.386947
-0.386977
-0.386981
-0.386958
-0.386907
-0.386826
-0.386715
-0.386573
-0.386397
-0.386189
-0.385947
-0.38567
-0.385358
-0.385011
-0.384628
-0.384209
-0.383757
-0.383272
-0.382757
-0.382218
-0.381662
-0.381099
-0.380548
-0.380038
-0.379567
-0.379035
-0.378904
-0.383456
-0.383666
-0.383866
-0.384043
-0.384212
-0.384372
-0.384521
-0.384657
-0.384779
-0.384884
-0.384971
-0.385037
-0.385081
-0.385101
-0.385094
-0.38506
-0.384996
-0.3849
-0.384772
-0.384609
-0.38441
-0.384175
-0.383901
-0.383589
-0.383236
-0.382844
-0.382411
-0.381936
-0.381421
-0.380867
-0.380276
-0.379652
-0.379
-0.378329
-0.377651
-0.376986
-0.376368
-0.375802
-0.375181
-0.374908
-0.382089
-0.382269
-0.38244
-0.382592
-0.382734
-0.382867
-0.38299
-0.383099
-0.383193
-0.38327
-0.383327
-0.383363
-0.383375
-0.383361
-0.383319
-0.383246
-0.383141
-0.383001
-0.382824
-0.382609
-0.382354
-0.382057
-0.381717
-0.381334
-0.380905
-0.380431
-0.37991
-0.379343
-0.37873
-0.378073
-0.377374
-0.376638
-0.375871
-0.375083
-0.374288
-0.373508
-0.37278
-0.372123
-0.371445
-0.370944
-0.380804
-0.380957
-0.381103
-0.38123
-0.381348
-0.381457
-0.381554
-0.381638
-0.381706
-0.381756
-0.381785
-0.381791
-0.381772
-0.381725
-0.381647
-0.381536
-0.381389
-0.381205
-0.38098
-0.380712
-0.3804
-0.380042
-0.379635
-0.379179
-0.378673
-0.378115
-0.377506
-0.376844
-0.376131
-0.375369
-0.37456
-0.37371
-0.372825
-0.371917
-0.371003
-0.370105
-0.369265
-0.3685
-0.367704
-0.367321
-0.379593
-0.379724
-0.379847
-0.379952
-0.380049
-0.380135
-0.38021
-0.38027
-0.380314
-0.380338
-0.38034
-0.380318
-0.380269
-0.380189
-0.380076
-0.379928
-0.37974
-0.379511
-0.379238
-0.378917
-0.378548
-0.378127
-0.377653
-0.377124
-0.376538
-0.375896
-0.375196
-0.374438
-0.373623
-0.372753
-0.371832
-0.370864
-0.369859
-0.368829
-0.36779
-0.366772
-0.365819
-0.36495
-0.364063
-0.363682
-0.378453
-0.378564
-0.378668
-0.378755
-0.378833
-0.3789
-0.378954
-0.378993
-0.379014
-0.379015
-0.378992
-0.378943
-0.378864
-0.378753
-0.378607
-0.378421
-0.378193
-0.37792
-0.377598
-0.377224
-0.376797
-0.376313
-0.37577
-0.375167
-0.374501
-0.373773
-0.372981
-0.372125
-0.371205
-0.370226
-0.369189
-0.368102
-0.366973
-0.365816
-0.36465
-0.363508
-0.362437
-0.361463
-0.360486
-0.360066
-0.37738
-0.377476
-0.377564
-0.377637
-0.377699
-0.377749
-0.377786
-0.377806
-0.377807
-0.377786
-0.37774
-0.377666
-0.377559
-0.377418
-0.377238
-0.377016
-0.376748
-0.376431
-0.37606
-0.375634
-0.375148
-0.374601
-0.373989
-0.37331
-0.372564
-0.371748
-0.370862
-0.369906
-0.368881
-0.36779
-0.366635
-0.365425
-0.364169
-0.362882
-0.361586
-0.360314
-0.359121
-0.358036
-0.356967
-0.356504
-0.376375
-0.37646
-0.376537
-0.376598
-0.376648
-0.376685
-0.376707
-0.376711
-0.376694
-0.376654
-0.376586
-0.376488
-0.376356
-0.376186
-0.375974
-0.375716
-0.375408
-0.375047
-0.374629
-0.374149
-0.373605
-0.372994
-0.372312
-0.371558
-0.37073
-0.369826
-0.368846
-0.367789
-0.366657
-0.365452
-0.364178
-0.362843
-0.361458
-0.360037
-0.358605
-0.357199
-0.355877
-0.354676
-0.353511
-0.353007
-0.375441
-0.375519
-0.375589
-0.375642
-0.375683
-0.37571
-0.37572
-0.375711
-0.375679
-0.375622
-0.375535
-0.375415
-0.375258
-0.37506
-0.374817
-0.374524
-0.374177
-0.373773
-0.373306
-0.372774
-0.372171
-0.371496
-0.370745
-0.369915
-0.369005
-0.368013
-0.366938
-0.365781
-0.364541
-0.363223
-0.361829
-0.360368
-0.35885
-0.357293
-0.355722
-0.354176
-0.352718
-0.351394
-0.350126
-0.349582
-0.374583
-0.37466
-0.374726
-0.374775
-0.374811
-0.374831
-0.374832
-0.374812
-0.374768
-0.374695
-0.374591
-0.374451
-0.37427
-0.374046
-0.373772
-0.373445
-0.37306
-0.372613
-0.372099
-0.371513
-0.370853
-0.370114
-0.369294
-0.368389
-0.367398
-0.366319
-0.365151
-0.363893
-0.362547
-0.361116
-0.359602
-0.358015
-0.356365
-0.35467
-0.352956
-0.351265
-0.349664
-0.348206
-0.346825
-0.346241
-0.37381
-0.373889
-0.373957
-0.374006
-0.374039
-0.374055
-0.37405
-0.374022
-0.373967
-0.373882
-0.373761
-0.373602
-0.373399
-0.373148
-0.372845
-0.372484
-0.372062
-0.371572
-0.371011
-0.370374
-0.369657
-0.368856
-0.367968
-0.36699
-0.365919
-0.364754
-0.363494
-0.362139
-0.36069
-0.359148
-0.357518
-0.355807
-0.354026
-0.352192
-0.350333
-0.348491
-0.346739
-0.345135
-0.343622
-0.34299
-0.373134
-0.37322
-0.373292
-0.373344
-0.373377
-0.373391
-0.373383
-0.373348
-0.373283
-0.373185
-0.37305
-0.372873
-0.372649
-0.372374
-0.372042
-0.371649
-0.37119
-0.37066
-0.370054
-0.369366
-0.368593
-0.367732
-0.366777
-0.365727
-0.36458
-0.363332
-0.361984
-0.360535
-0.358986
-0.357338
-0.355596
-0.353766
-0.351858
-0.349888
-0.347884
-0.345887
-0.343974
-0.342206
-0.340536
-0.339835
-0.372562
-0.372659
-0.372739
-0.372795
-0.372831
-0.372846
-0.372836
-0.372797
-0.372726
-0.372618
-0.372469
-0.372276
-0.372032
-0.371734
-0.371376
-0.370952
-0.370457
-0.369887
-0.369236
-0.368499
-0.367672
-0.366751
-0.365733
-0.364614
-0.363393
-0.362067
-0.360635
-0.359098
-0.357455
-0.355709
-0.353862
-0.351919
-0.34989
-0.34779
-0.345642
-0.343488
-0.341403
-0.339451
-0.337587
-0.336779
-0.372126
-0.372233
-0.372323
-0.372385
-0.372425
-0.372442
-0.372431
-0.372389
-0.372312
-0.372196
-0.372036
-0.371827
-0.371564
-0.371243
-0.370857
-0.370402
-0.369872
-0.369263
-0.368568
-0.367783
-0.366903
-0.365926
-0.364846
-0.363663
-0.362372
-0.360972
-0.359464
-0.357845
-0.356117
-0.354281
-0.352338
-0.350294
-0.348154
-0.345931
-0.343645
-0.341332
-0.339065
-0.336906
-0.334799
-0.333822
-0.371844
-0.371964
-0.372064
-0.372134
-0.372179
-0.372198
-0.372187
-0.372142
-0.372059
-0.371933
-0.37176
-0.371535
-0.371253
-0.370908
-0.370495
-0.37001
-0.369445
-0.368797
-0.368059
-0.367228
-0.366299
-0.365267
-0.36413
-0.362886
-0.361531
-0.360064
-0.358486
-0.356794
-0.35499
-0.353075
-0.351049
-0.348915
-0.346677
-0.344342
-0.341925
-0.339455
-0.336998
-0.334605
-0.332196
-0.33096
-0.37173
-0.371864
-0.371975
-0.372053
-0.372102
-0.372124
-0.372112
-0.372064
-0.371974
-0.371839
-0.371653
-0.371411
-0.371109
-0.370741
-0.370302
-0.369786
-0.369187
-0.368501
-0.367723
-0.366847
-0.36587
-0.364788
-0.363597
-0.362296
-0.360883
-0.359357
-0.357716
-0.355961
-0.354092
-0.352109
-0.350013
-0.347804
-0.345482
-0.343049
-0.340512
-0.337889
-0.335234
-0.332581
-0.329803
-0.32819
-0.371806
-0.371952
-0.372074
-0.372159
-0.372213
-0.372236
-0.372223
-0.37217
-0.372073
-0.371927
-0.371728
-0.371469
-0.371147
-0.370755
-0.370289
-0.369742
-0.36911
-0.368387
-0.367569
-0.36665
-0.365628
-0.364499
-0.363259
-0.361907
-0.360442
-0.358862
-0.357168
-0.35536
-0.353437
-0.351399
-0.349247
-0.346977
-0.344586
-0.342071
-0.339426
-0.336656
-0.333797
-0.330861
-0.327644
-0.325506
-0.372092
-0.372249
-0.37238
-0.37247
-0.372527
-0.372551
-0.372535
-0.372477
-0.372371
-0.372213
-0.371999
-0.371722
-0.371378
-0.370962
-0.370468
-0.369891
-0.369225
-0.368466
-0.367609
-0.36665
-0.365585
-0.364411
-0.363126
-0.361728
-0.360217
-0.358592
-0.356853
-0.355
-0.353034
-0.350954
-0.348758
-0.346442
-0.343997
-0.341414
-0.338674
-0.335764
-0.332698
-0.329455
-0.325736
-0.322908
-0.372612
-0.372778
-0.372914
-0.373007
-0.373064
-0.373086
-0.373066
-0.373
-0.372883
-0.372711
-0.37248
-0.372183
-0.371816
-0.371374
-0.370851
-0.370242
-0.369543
-0.368748
-0.367853
-0.366855
-0.365749
-0.364535
-0.363208
-0.361769
-0.360218
-0.358554
-0.356777
-0.354889
-0.35289
-0.350779
-0.348551
-0.3462
-0.343715
-0.341075
-0.33825
-0.335206
-0.331929
-0.328364
-0.324089
-0.320395
-0.373389
-0.373559
-0.373698
-0.37379
-0.373843
-0.373859
-0.37383
-0.373753
-0.373623
-0.373435
-0.373183
-0.372864
-0.372472
-0.372002
-0.371449
-0.370808
-0.370074
-0.369243
-0.368311
-0.367275
-0.366131
-0.364878
-0.363513
-0.362038
-0.360451
-0.358754
-0.356947
-0.355031
-0.353007
-0.350872
-0.348621
-0.346246
-0.343728
-0.34104
-0.338138
-0.334963
-0.33147
-0.327568
-0.322704
-0.31797
-0.374443
-0.374613
-0.374749
-0.374836
-0.374882
-0.374886
-0.374845
-0.374752
-0.374604
-0.374395
-0.374121
-0.373776
-0.373356
-0.372856
-0.372271
-0.371596
-0.370827
-0.369959
-0.36899
-0.367917
-0.366736
-0.365446
-0.364047
-0.362538
-0.36092
-0.359194
-0.357362
-0.355424
-0.35338
-0.351229
-0.348962
-0.346567
-0.344022
-0.34129
-0.338314
-0.33501
-0.331297
-0.327049
-0.321585
-0.315655
-0.375791
-0.375955
-0.376083
-0.376159
-0.376193
-0.376182
-0.376123
-0.37601
-0.375839
-0.375605
-0.375303
-0.37493
-0.374478
-0.373945
-0.373325
-0.372614
-0.371808
-0.370904
-0.369897
-0.368786
-0.367569
-0.366245
-0.364812
-0.363272
-0.361626
-0.359875
-0.358021
-0.356065
-0.354006
-0.351841
-0.349561
-0.34715
-0.34458
-0.341806
-0.338757
-0.335325
-0.331392
-0.3268
-0.320758
-0.313529
-0.377448
-0.377599
-0.377712
-0.377772
-0.377788
-0.377757
-0.377675
-0.377537
-0.377338
-0.377074
-0.376741
-0.376333
-0.375847
-0.375277
-0.374619
-0.373869
-0.373024
-0.372081
-0.371036
-0.369887
-0.368634
-0.367274
-0.36581
-0.36424
-0.362568
-0.360794
-0.35892
-0.356947
-0.354875
-0.352697
-0.350405
-0.347979
-0.345385
-0.342571
-0.339451
-0.335896
-0.331749
-0.326824
-0.320247
-0.311673
-0.379427
-0.379557
-0.379648
-0.379686
-0.379678
-0.37962
-0.37951
-0.379341
-0.379109
-0.37881
-0.37844
-0.377994
-0.377467
-0.376856
-0.376157
-0.375366
-0.374479
-0.373494
-0.372409
-0.371221
-0.36993
-0.368536
-0.367039
-0.36544
-0.363741
-0.361945
-0.360052
-0.358063
-0.355977
-0.353787
-0.351483
-0.349042
-0.346427
-0.343578
-0.340399
-0.336738
-0.332399
-0.327142
-0.319944
-0.309865
-0.381737
-0.381839
-0.381901
-0.38191
-0.38187
-0.38178
-0.381635
-0.381429
-0.381158
-0.380819
-0.380406
-0.379917
-0.379345
-0.378689
-0.377944
-0.377107
-0.376174
-0.375145
-0.374016
-0.372787
-0.371457
-0.370027
-0.368496
-0.366867
-0.365142
-0.363321
-0.361408
-0.359402
-0.357301
-0.355098
-0.352782
-0.350328
-0.347699
-0.344833
-0.341632
-0.337937
-0.333525
-0.328036
-0.319989
-0.308057
-0.384384
-0.38445
-0.384476
-0.384449
-0.384372
-0.384243
-0.384055
-0.383806
-0.383491
-0.383105
-0.382645
-0.382106
-0.381484
-0.380777
-0.379981
-0.379094
-0.378112
-0.377034
-0.375859
-0.374585
-0.373213
-0.371744
-0.370178
-0.368516
-0.366762
-0.364916
-0.36298
-0.360954
-0.358836
-0.356618
-0.354287
-0.351823
-0.34919
-0.346336
-0.34318
-0.3396
-0.335433
-0.330304
-0.322412
-0.311261
-0.387371
-0.387395
-0.387377
-0.387308
-0.387187
-0.387012
-0.386777
-0.386478
-0.386111
-0.385672
-0.385157
-0.384563
-0.383886
-0.383123
-0.382271
-0.381328
-0.380292
-0.379162
-0.377935
-0.376614
-0.375196
-0.373684
-0.372079
-0.370382
-0.368596
-0.366721
-0.364759
-0.362709
-0.360568
-0.358329
-0.355981
-0.353504
-0.350873
-0.348049
-0.344986
-0.341634
-0.337972
-0.333946
-0.32952
-0.332275
-0.390702
-0.390676
-0.390608
-0.39049
-0.390319
-0.390091
-0.389801
-0.389446
-0.389021
-0.388523
-0.387948
-0.387293
-0.386554
-0.385729
-0.384815
-0.383811
-0.382716
-0.381528
-0.380246
-0.378871
-0.377404
-0.375845
-0.374197
-0.37246
-0.370637
-0.368728
-0.366734
-0.364653
-0.362483
-0.360215
-0.35784
-0.355341
-0.3527
-0.349895
-0.34691
-0.343752
-0.340493
-0.337282
-0.33446
-0.338391
-0.394377
-0.394295
-0.39417
-0.393997
-0.39377
-0.393483
-0.393132
-0.392714
-0.392225
-0.391661
-0.391019
-0.390296
-0.389489
-0.388595
-0.387614
-0.386544
-0.385384
-0.384132
-0.38279
-0.381358
-0.379836
-0.378226
-0.376529
-0.374747
-0.372881
-0.370931
-0.368897
-0.366777
-0.364566
-0.362256
-0.359837
-0.357297
-0.354621
-0.3518
-0.348836
-0.345766
-0.342698
-0.339835
-0.337478
-0.340017
-0.398397
-0.398252
-0.398064
-0.397831
-0.397541
-0.397189
-0.396771
-0.396284
-0.395724
-0.395088
-0.394373
-0.393576
-0.392694
-0.391727
-0.390672
-0.38953
-0.388298
-0.386978
-0.38557
-0.384075
-0.382493
-0.380826
-0.379075
-0.377241
-0.375325
-0.373326
-0.371242
-0.36907
-0.366802
-0.364432
-0.361946
-0.359334
-0.356584
-0.353692
-0.350668
-0.347557
-0.344462
-0.34156
-0.339046
-0.339794
-0.402761
-0.402548
-0.402292
-0.401993
-0.401635
-0.401212
-0.400721
-0.400159
-0.399523
-0.398808
-0.398014
-0.397136
-0.396174
-0.395127
-0.393993
-0.392772
-0.391464
-0.39007
-0.38859
-0.387025
-0.385377
-0.383647
-0.381835
-0.379942
-0.377967
-0.375908
-0.373761
-0.37152
-0.369177
-0.36672
-0.364138
-0.361415
-0.358541
-0.35551
-0.352335
-0.349051
-0.34574
-0.342525
-0.339506
-0.338468
-0.407471
-0.407185
-0.406855
-0.406485
-0.406054
-0.405555
-0.404986
-0.404343
-0.403624
-0.402825
-0.401945
-0.400982
-0.399934
-0.398801
-0.397581
-0.396277
-0.394887
-0.393412
-0.391855
-0.390215
-0.388495
-0.386694
-0.384814
-0.382852
-0.380807
-0.378674
-0.376447
-0.374117
-0.371673
-0.3691
-0.366381
-0.363501
-0.360445
-0.357206
-0.353787
-0.350216
-0.346543
-0.342843
-0.339155
-0.336532
-0.412529
-0.412165
-0.411757
-0.41131
-0.410801
-0.410221
-0.409568
-0.408839
-0.408032
-0.407145
-0.406174
-0.405119
-0.40398
-0.402755
-0.401445
-0.400051
-0.398574
-0.397014
-0.395373
-0.393652
-0.391853
-0.389973
-0.388014
-0.385972
-0.383842
-0.381619
-0.379291
-0.376848
-0.374272
-0.371546
-0.368648
-0.365559
-0.36226
-0.358739
-0.354995
-0.351041
-0.346906
-0.342629
-0.338216
-0.334252
-0.417937
-0.41749
-0.416998
-0.416471
-0.415879
-0.415213
-0.414472
-0.413653
-0.412753
-0.411771
-0.410705
-0.409554
-0.408318
-0.406998
-0.405593
-0.404104
-0.402534
-0.400884
-0.399153
-0.397345
-0.395457
-0.39349
-0.391441
-0.389304
-0.387073
-0.384738
-0.382285
-0.379697
-0.376954
-0.374032
-0.370907
-0.367554
-0.363951
-0.360082
-0.355941
-0.351533
-0.346873
-0.341979
-0.336849
-0.331781
-0.423697
-0.423164
-0.422584
-0.421972
-0.421293
-0.420537
-0.419703
-0.418788
-0.417792
-0.416711
-0.415545
-0.414294
-0.412958
-0.411537
-0.410032
-0.408445
-0.406777
-0.40503
-0.403205
-0.4013
-0.399316
-0.39725
-0.395097
-0.392849
-0.390496
-0.388024
-0.385414
-0.382647
-0.379695
-0.376531
-0.373127
-0.369454
-0.365488
-0.361212
-0.356618
-0.351706
-0.346487
-0.340974
-0.335162
-0.329199
-0.429813
-0.429188
-0.428516
-0.427815
-0.427045
-0.426195
-0.425264
-0.42425
-0.423153
-0.42197
-0.420701
-0.419346
-0.417905
-0.41638
-0.414772
-0.413082
-0.411312
-0.409463
-0.407534
-0.405526
-0.403434
-0.401255
-0.398981
-0.396602
-0.394102
-0.391463
-0.388664
-0.385675
-0.38247
-0.379014
-0.375277
-0.371229
-0.366847
-0.362113
-0.357021
-0.351575
-0.345786
-0.33967
-0.333229
-0.326539
-0.436286
-0.435565
-0.434796
-0.434002
-0.433137
-0.432189
-0.431158
-0.430042
-0.428841
-0.427552
-0.426177
-0.424715
-0.423167
-0.421535
-0.419819
-0.418022
-0.416145
-0.414187
-0.412147
-0.410024
-0.407812
-0.405505
-0.403091
-0.400555
-0.397879
-0.39504
-0.39201
-0.388757
-0.385248
-0.381449
-0.377327
-0.372853
-0.368005
-0.362772
-0.357153
-0.351156
-0.344801
-0.33811
-0.331096
-0.323809
-0.443115
-0.442293
-0.441423
-0.440533
-0.43957
-0.438521
-0.437386
-0.436165
-0.434857
-0.433461
-0.431977
-0.430406
-0.428748
-0.427005
-0.425179
-0.42327
-0.421279
-0.419205
-0.417045
-0.414795
-0.412448
-0.409993
-0.407414
-0.404694
-0.401809
-0.39873
-0.395426
-0.39186
-0.387998
-0.383804
-0.379246
-0.374298
-0.368945
-0.363182
-0.357015
-0.350464
-0.343556
-0.336323
-0.328788
-0.321003
-0.450298
-0.449371
-0.448396
-0.447405
-0.446341
-0.445188
-0.443947
-0.442619
-0.441202
-0.439696
-0.438102
-0.436419
-0.434649
-0.432793
-0.430853
-0.428827
-0.426716
-0.424517
-0.422225
-0.419833
-0.417332
-0.414706
-0.411936
-0.408999
-0.405865
-0.402504
-0.398878
-0.394951
-0.390684
-0.386044
-0.381003
-0.37554
-0.369649
-0.363334
-0.356612
-0.349511
-0.342069
-0.334327
-0.326319
-0.318105
-0.457826
-0.456789
-0.455705
-0.454612
-0.453444
-0.452184
-0.450836
-0.449399
-0.447872
-0.446254
-0.444548
-0.442752
-0.440867
-0.438896
-0.436836
-0.434688
-0.432448
-0.430113
-0.427676
-0.425126
-0.422448
-0.419624
-0.416631
-0.413439
-0.410016
-0.406326
-0.40233
-0.397989
-0.393268
-0.388135
-0.382569
-0.376558
-0.370105
-0.363224
-0.355945
-0.348306
-0.340352
-0.332134
-0.323692
-0.3151
-0.465687
-0.464537
-0.46334
-0.462142
-0.460867
-0.4595
-0.458042
-0.456495
-0.454856
-0.453127
-0.451307
-0.449397
-0.447396
-0.445304
-0.44312
-0.440842
-0.438465
-0.435982
-0.433382
-0.430652
-0.427772
-0.42472
-0.421467
-0.417981
-0.414223
-0.410156
-0.405739
-0.400935
-0.395711
-0.390042
-0.383915
-0.377329
-0.370297
-0.362846
-0.355016
-0.346853
-0.338413
-0.329748
-0.320908
-0.31197
-0.473864
-0.472596
-0.471284
-0.469978
-0.468596
-0.46712
-0.465552
-0.463893
-0.462143
-0.460301
-0.458367
-0.45634
-0.45422
-0.452004
-0.44969
-0.447273
-0.444746
-0.442099
-0.439318
-0.436383
-0.433273
-0.429958
-0.426406
-0.42258
-0.41844
-0.413945
-0.409058
-0.403743
-0.397973
-0.391731
-0.385015
-0.377835
-0.370216
-0.362196
-0.353825
-0.345159
-0.336255
-0.327171
-0.317961
-0.308702
-0.482331
-0.480943
-0.479514
-0.478098
-0.476608
-0.475022
-0.473343
-0.471574
-0.469713
-0.467758
-0.465708
-0.463563
-0.461319
-0.458973
-0.456522
-0.453956
-0.451265
-0.448436
-0.44545
-0.442284
-0.438909
-0.435293
-0.431399
-0.427187
-0.422616
-0.417645
-0.412239
-0.406368
-0.400014
-0.393169
-0.385842
-0.378057
-0.369849
-0.361268
-0.352372
-0.343222
-0.333879
-0.324401
-0.314845
-0.305281
-0.491057
-0.489547
-0.487998
-0.486472
-0.484874
-0.483178
-0.48139
-0.47951
-0.477538
-0.475469
-0.473303
-0.471037
-0.468665
-0.466184
-0.463585
-0.460857
-0.457987
-0.454954
-0.451737
-0.448307
-0.444632
-0.440674
-0.436393
-0.431748
-0.426697
-0.421202
-0.415232
-0.408766
-0.401795
-0.394324
-0.386373
-0.377977
-0.369186
-0.360057
-0.350653
-0.34104
-0.331281
-0.321433
-0.311552
-0.301697
-0.500001
-0.498368
-0.4967
-0.495065
-0.493358
-0.491554
-0.489657
-0.487669
-0.485585
-0.483403
-0.481119
-0.478728
-0.476224
-0.473599
-0.470842
-0.467937
-0.464866
-0.461606
-0.458128
-0.4544
-0.450385
-0.446042
-0.441328
-0.436201
-0.430623
-0.424559
-0.417986
-0.410891
-0.403278
-0.395164
-0.386582
-0.377579
-0.368214
-0.358553
-0.348662
-0.338609
-0.328457
-0.318259
-0.308071
-0.297938
-0.509119
-0.507362
-0.505574
-0.503831
-0.502018
-0.500108
-0.498104
-0.496008
-0.493814
-0.491518
-0.489113
-0.486595
-0.483952
-0.481173
-0.478244
-0.475144
-0.471851
-0.468335
-0.464565
-0.460502
-0.456105
-0.451332
-0.446138
-0.440484
-0.434333
-0.427659
-0.420448
-0.412698
-0.404425
-0.39566
-0.386448
-0.376846
-0.366923
-0.356748
-0.346392
-0.335922
-0.325399
-0.314872
-0.304395
-0.293994
-0.518354
-0.516474
-0.51457
-0.51272
-0.510803
-0.508788
-0.506681
-0.504478
-0.502174
-0.499763
-0.497237
-0.494585
-0.491795
-0.488852
-0.485735
-0.48242
-0.478879
-0.475078
-0.47098
-0.466543
-0.461722
-0.456473
-0.450755
-0.444528
-0.437765
-0.430446
-0.422569
-0.414145
-0.405202
-0.395783
-0.385948
-0.375762
-0.365298
-0.354632
-0.343834
-0.33297
-0.322097
-0.311261
-0.30051
-0.289855
-0.527644
-0.525644
-0.523625
-0.521672
-0.519654
-0.517539
-0.515329
-0.513022
-0.51061
-0.508084
-0.505431
-0.502641
-0.499694
-0.496572
-0.49325
-0.489697
-0.485881
-0.481763
-0.4773
-0.472448
-0.46716
-0.461393
-0.455106
-0.448267
-0.440855
-0.432863
-0.424299
-0.415188
-0.405572
-0.395507
-0.38506
-0.374308
-0.363326
-0.352192
-0.340976
-0.329741
-0.318539
-0.307414
-0.296405
-0.285511
-0.53692
-0.534803
-0.532672
-0.530619
-0.528505
-0.526293
-0.523985
-0.521576
-0.519055
-0.516411
-0.51363
-0.510692
-0.507578
-0.504263
-0.500715
-0.496901
-0.49278
-0.48831
-0.483445
-0.478137
-0.472341
-0.466012
-0.459117
-0.451631
-0.443542
-0.434854
-0.42559
-0.415789
-0.405504
-0.394803
-0.383764
-0.372466
-0.360991
-0.349415
-0.337805
-0.326222
-0.314713
-0.303318
-0.292067
-0.280949
-0.54611
-0.543879
-0.541642
-0.539495
-0.537289
-0.534983
-0.532579
-0.530069
-0.52744
-0.524676
-0.521758
-0.518666
-0.515371
-0.511845
-0.508051
-0.503949
-0.499493
-0.494637
-0.489332
-0.483529
-0.477183
-0.470255
-0.462717
-0.454554
-0.445764
-0.436367
-0.426398
-0.415908
-0.404966
-0.393647
-0.382037
-0.370219
-0.358277
-0.346284
-0.334307
-0.322399
-0.310605
-0.29896
-0.287484
-0.276159
-0.555121
-0.552783
-0.550446
-0.54821
-0.545918
-0.543526
-0.541031
-0.538424
-0.535688
-0.532803
-0.529744
-0.526486
-0.522997
-0.519241
-0.515177
-0.510758
-0.505935
-0.500657
-0.494874
-0.488538
-0.481605
-0.474044
-0.465834
-0.45697
-0.447465
-0.437351
-0.426678
-0.415511
-0.403927
-0.392013
-0.379857
-0.367548
-0.355166
-0.342785
-0.330465
-0.318257
-0.306199
-0.294324
-0.28264
-0.271127
-0.56386
-0.561421
-0.55899
-0.556673
-0.554301
-0.551827
-0.549246
-0.546545
-0.543703
-0.540693
-0.537489
-0.534057
-0.530359
-0.526354
-0.521994
-0.51723
-0.512008
-0.506274
-0.499977
-0.493072
-0.48552
-0.477297
-0.468392
-0.458813
-0.448585
-0.437756
-0.426389
-0.41456
-0.402357
-0.389874
-0.377203
-0.364432
-0.35164
-0.338898
-0.326262
-0.313778
-0.301479
-0.289395
-0.277521
-0.265841
-0.572234
-0.569703
-0.567188
-0.564796
-0.562351
-0.559801
-0.557136
-0.554342
-0.551391
-0.548253
-0.544894
-0.541276
-0.537353
-0.533079
-0.528402
-0.523265
-0.517612
-0.51139
-0.504548
-0.497043
-0.488845
-0.479937
-0.470321
-0.460019
-0.44907
-0.437534
-0.425489
-0.413022
-0.400229
-0.387207
-0.374051
-0.36085
-0.34768
-0.334606
-0.321681
-0.308946
-0.29643
-0.284159
-0.272114
-0.260288
-0.580142
-0.577528
-0.574937
-0.572479
-0.569969
-0.567349
-0.564606
-0.56172
-0.55866
-0.555389
-0.551867
-0.548049
-0.543886
-0.539322
-0.534302
-0.528765
-0.522653
-0.515913
-0.508496
-0.500366
-0.4915
-0.481892
-0.471558
-0.460532
-0.448869
-0.436644
-0.423944
-0.410866
-0.397514
-0.383987
-0.370382
-0.356784
-0.343267
-0.329891
-0.316705
-0.303744
-0.291035
-0.278599
-0.266403
-0.254456
-0.587478
-0.584792
-0.582136
-0.579621
-0.577053
-0.574369
-0.571552
-0.568577
-0.565406
-0.561997
-0.558304
-0.554274
-0.549853
-0.54498
-0.539593
-0.53363
-0.527033
-0.519748
-0.511732
-0.502956
-0.493407
-0.483092
-0.472039
-0.460298
-0.447938
-0.435045
-0.421718
-0.408063
-0.394187
-0.380192
-0.366173
-0.352213
-0.338381
-0.324735
-0.311316
-0.298156
-0.285278
-0.2727
-0.260375
-0.248331
-0.594136
-0.591389
-0.588678
-0.586115
-0.583498
-0.580757
-0.577871
-0.574808
-0.571525
-0.567974
-0.5641
-0.559846
-0.555149
-0.549946
-0.54417
-0.537758
-0.530651
-0.5228
-0.514167
-0.504732
-0.494493
-0.48347
-0.471706
-0.459265
-0.44623
-0.432699
-0.41878
-0.404584
-0.390223
-0.375798
-0.361403
-0.347117
-0.333005
-0.319118
-0.305496
-0.292164
-0.279144
-0.266449
-0.254016
-0.241901
-0.600005
-0.597209
-0.594454
-0.591854
-0.589196
-0.586404
-0.583453
-0.580304
-0.576908
-0.573208
-0.569145
-0.564654
-0.559667
-0.554115
-0.54793
-0.541049
-0.533414
-0.52498
-0.515718
-0.505617
-0.494687
-0.482964
-0.470504
-0.457386
-0.443706
-0.429571
-0.415098
-0.400403
-0.385598
-0.370784
-0.356052
-0.341477
-0.327119
-0.313025
-0.299229
-0.285753
-0.272618
-0.25983
-0.247313
-0.235154
-0.604975
-0.602143
-0.599357
-0.596729
-0.594038
-0.591203
-0.588191
-0.584957
-0.581445
-0.577592
-0.573331
-0.568591
-0.5633
-0.557384
-0.550775
-0.543408
-0.53523
-0.526202
-0.516304
-0.505537
-0.493926
-0.481518
-0.468385
-0.45462
-0.440329
-0.425631
-0.410647
-0.395496
-0.380291
-0.36513
-0.350102
-0.335275
-0.320707
-0.306438
-0.292499
-0.278909
-0.265686
-0.252832
-0.240255
-0.228079
-0.60894
-0.606084
-0.603281
-0.600635
-0.597921
-0.595048
-0.59198
-0.588662
-0.585033
-0.581021
-0.576554
-0.571555
-0.565947
-0.559654
-0.552605
-0.544741
-0.536011
-0.526385
-0.515853
-0.504429
-0.492149
-0.479079
-0.465304
-0.450927
-0.436067
-0.42085
-0.405401
-0.389841
-0.374281
-0.358817
-0.343533
-0.328494
-0.313752
-0.299343
-0.285293
-0.271618
-0.258335
-0.245441
-0.23283
-0.220667
-0.611794
-0.608929
-0.606119
-0.603467
-0.600737
-0.597835
-0.594713
-0.591314
-0.587565
-0.583391
-0.578711
-0.573444
-0.567509
-0.560828
-0.553331
-0.544962
-0.535677
-0.525455
-0.514297
-0.50223
-0.489306
-0.475604
-0.461221
-0.446275
-0.430892
-0.415204
-0.399338
-0.383417
-0.36755
-0.351829
-0.336332
-0.32112
-0.30624
-0.291725
-0.277596
-0.263867
-0.250554
-0.237648
-0.225028
-0.212907
-0.613436
-0.610576
-0.607772
-0.605123
-0.602387
-0.599461
-0.596291
-0.592811
-0.588942
-0.584602
-0.579704
-0.574162
-0.567892
-0.560816
-0.552867
-0.543991
-0.534154
-0.523344
-0.511576
-0.498888
-0.48535
-0.471051
-0.456104
-0.440635
-0.424778
-0.40867
-0.39244
-0.376209
-0.360082
-0.344149
-0.328483
-0.313139
-0.298159
-0.283573
-0.269399
-0.255647
-0.242333
-0.229443
-0.216841
-0.204792
-0.61377
-0.610927
-0.608143
-0.605508
-0.602773
-0.59983
-0.596616
-0.593057
-0.589069
-0.584561
-0.579441
-0.57362
-0.567011
-0.559537
-0.551134
-0.541756
-0.531376
-0.519994
-0.507636
-0.494358
-0.48024
-0.465387
-0.449923
-0.433983
-0.417706
-0.401232
-0.384691
-0.368201
-0.351865
-0.335767
-0.319975
-0.30454
-0.289499
-0.274878
-0.260692
-0.246949
-0.233663
-0.220818
-0.208263
-0.196312
-0.612703
-0.609892
-0.60714
-0.604528
-0.601804
-0.59885
-0.595596
-0.591962
-0.587854
-0.583176
-0.577833
-0.571731
-0.564783
-0.556913
-0.548062
-0.538191
-0.527283
-0.51535
-0.502433
-0.488599
-0.473944
-0.458586
-0.442656
-0.426299
-0.409658
-0.392875
-0.376078
-0.359383
-0.342888
-0.326673
-0.310799
-0.295314
-0.280251
-0.265632
-0.251468
-0.237767
-0.22454
-0.211767
-0.199289
-0.187459
-0.610153
-0.607387
-0.604679
-0.602102
-0.599396
-0.596437
-0.593148
-0.58944
-0.585214
-0.580368
-0.574801
-0.56842
-0.561135
-0.552876
-0.543588
-0.533239
-0.521825
-0.50937
-0.495928
-0.48158
-0.466436
-0.450624
-0.434285
-0.417569
-0.400623
-0.383588
-0.366592
-0.349746
-0.333143
-0.316858
-0.300949
-0.285457
-0.270412
-0.255831
-0.241724
-0.228095
-0.214956
-0.202285
-0.189909
-0.17821
-0.606045
-0.603339
-0.600687
-0.598153
-0.595473
-0.592517
-0.589198
-0.585421
-0.581079
-0.576067
-0.570281
-0.563624
-0.55601
-0.547371
-0.53766
-0.526854
-0.514961
-0.502018
-0.488091
-0.473278
-0.457696
-0.441486
-0.424797
-0.407783
-0.390592
-0.373365
-0.356227
-0.339284
-0.322626
-0.306321
-0.290421
-0.274966
-0.259978
-0.245474
-0.231459
-0.217935
-0.204912
-0.192363
-0.180094
-0.168499
-0.600314
-0.597679
-0.595095
-0.592614
-0.589969
-0.587021
-0.583678
-0.579835
-0.575383
-0.570209
-0.564208
-0.557282
-0.549351
-0.540348
-0.530235
-0.518999
-0.50666
-0.493268
-0.478903
-0.463674
-0.447712
-0.431164
-0.414187
-0.396936
-0.379562
-0.362203
-0.34498
-0.327997
-0.311335
-0.295058
-0.279216
-0.26384
-0.248953
-0.234565
-0.220679
-0.207294
-0.19442
-0.182018
-0.169846
-0.158273
-0.592902
-0.590352
-0.587847
-0.585428
-0.582825
-0.579893
-0.57653
-0.572629
-0.56807
-0.562741
-0.556533
-0.549351
-0.541115
-0.531769
-0.521279
-0.509645
-0.496897
-0.483101
-0.468348
-0.452759
-0.436476
-0.419653
-0.402451
-0.385028
-0.367534
-0.350104
-0.332855
-0.315885
-0.299272
-0.283074
-0.267335
-0.252084
-0.237339
-0.223107
-0.20939
-0.196185
-0.183499
-0.171283
-0.159265
-0.147867
-0.583766
-0.581312
-0.578897
-0.576549
-0.573995
-0.571085
-0.567711
-0.563755
-0.559098
-0.553622
-0.547218
-0.539793
-0.531272
-0.521605
-0.510768
-0.498772
-0.48566
-0.471507
-0.456421
-0.440532
-0.42399
-0.406956
-0.389594
-0.372063
-0.354512
-0.337072
-0.319855
-0.302955
-0.286443
-0.270373
-0.254785
-0.239703
-0.225143
-0.21111
-0.197602
-0.184615
-0.172157
-0.160159
-0.148333
-0.137321
-0.57287
-0.570523
-0.568208
-0.565939
-0.563443
-0.560562
-0.557182
-0.553181
-0.548434
-0.542821
-0.536235
-0.528585
-0.519801
-0.509841
-0.498692
-0.486374
-0.472943
-0.458488
-0.443125
-0.426997
-0.41026
-0.393081
-0.375625
-0.358051
-0.340506
-0.323116
-0.305989
-0.289213
-0.272855
-0.256963
-0.241573
-0.226707
-0.212375
-0.198582
-0.185323
-0.172595
-0.160402
-0.148663
-0.137092
-0.12646
-0.560191
-0.557963
-0.555757
-0.553576
-0.551144
-0.5483
-0.544922
-0.540883
-0.536056
-0.530319
-0.523568
-0.515713
-0.506692
-0.49647
-0.485045
-0.47245
-0.458751
-0.444048
-0.42847
-0.412166
-0.3953
-0.378042
-0.360558
-0.343006
-0.325529
-0.308249
-0.29127
-0.274673
-0.25852
-0.242856
-0.227711
-0.213105
-0.199045
-0.185535
-0.172566
-0.160135
-0.148246
-0.136807
-0.12553
-0.115271
-0.545718
-0.543618