/*--------------------------------*- C++ -*----------------------------------*\
  =========                 |
  \\      /  F ield         | OpenFOAM: The Open Source CFD Toolbox
   \\    /   O peration     | Website:  https://openfoam.org
    \\  /    A nd           | Version:  7
     \\/     M anipulation  |
\*---------------------------------------------------------------------------*/
FoamFile
{
    version     2.0;
    format      ascii;
    class       surfaceScalarField;
    location    "2";
    object      phi;
}
// * * * * * * * * * * * * * * * * * * * * * * * * * * * * * * * * * * * * * //

dimensions      [0 3 -1 0 0 0 0];

internalField   nonuniform List<scalar> 
614
(
3.86803e-05
2.60842e-06
3.70004e-05
1.67984e-06
3.55532e-05
1.4472e-06
3.27661e-05
2.78715e-06
3.01857e-05
2.58033e-06
2.92443e-05
9.4139e-07
2.83359e-05
9.08487e-07
2.58726e-05
2.46327e-06
2.2797e-05
3.07563e-06
2.08998e-05
1.89715e-06
2.07657e-05
1.34153e-07
2.17691e-05
-1.00349e-06
2.29426e-05
-1.17347e-06
2.31133e-05
-1.70734e-07
2.17657e-05
1.34766e-06
1.95475e-05
2.21823e-06
1.74513e-05
2.09621e-06
1.59312e-05
1.52003e-06
1.49339e-05
9.97372e-07
1.42697e-05
6.642e-07
1.37951e-05
4.7459e-07
1.34303e-05
3.64749e-07
1.31354e-05
2.94907e-07
1.28901e-05
2.45259e-07
1.26834e-05
2.06783e-07
1.2508e-05
1.75407e-07
1.23588e-05
1.49171e-07
1.22318e-05
1.26985e-07
1.21237e-05
1.08138e-07
1.20316e-05
9.21017e-08
1.19531e-05
7.84492e-08
1.18863e-05
6.6825e-08
1.18294e-05
5.69275e-08
1.17809e-05
4.85003e-08
1.17395e-05
4.13246e-08
1.17043e-05
3.5214e-08
1.16743e-05
3.00099e-08
1.16487e-05
2.55773e-08
1.16269e-05
2.18014e-08
1.16083e-05
1.85844e-08
1.15925e-05
1.58432e-08
1.1579e-05
1.35072e-08
1.15675e-05
1.15163e-08
1.15577e-05
9.81919e-09
1.15493e-05
8.37258e-09
1.15421e-05
7.13916e-09
1.15361e-05
6.08767e-09
1.15309e-05
5.19086e-09
1.15264e-05
4.42634e-09
1.15227e-05
3.77397e-09
1.15195e-05
3.21796e-09
1.15167e-05
2.74309e-09
1.15144e-05
2.33864e-09
1.15124e-05
1.99258e-09
1.15107e-05
1.69837e-09
1.15092e-05
1.44561e-09
1.1508e-05
1.23167e-09
1.1507e-05
1.04618e-09
1.15061e-05
8.90927e-10
1.15053e-05
7.53382e-10
1.15047e-05
6.41477e-10
1.15041e-05
5.37101e-10
1.15037e-05
4.58114e-10
1.15033e-05
3.74891e-10
1.1503e-05
3.22602e-10
1.15027e-05
2.49587e-10
1.15025e-05
2.21939e-10
1.47357e-10
0.000117213
8.03268e-06
0.000111783
7.11013e-06
0.000104322
8.90775e-06
9.79001e-05
9.20909e-06
9.38593e-05
6.62108e-06
8.84601e-05
6.34061e-06
8.07357e-05
8.63286e-06
7.48093e-05
8.38971e-06
7.31246e-05
4.76036e-06
7.33666e-05
1.65508e-06
7.2245e-05
1.25582e-06
6.8583e-05
2.65845e-06
6.30731e-05
4.3365e-06
5.74645e-05
5.43782e-06
5.29713e-05
5.84087e-06
4.9706e-05
5.48347e-06
4.72655e-05
4.53672e-06
4.5312e-05
3.47353e-06
4.3686e-05
2.62344e-06
4.2315e-05
2.03517e-06
4.11539e-05
1.63566e-06
4.01679e-05
1.35076e-06
3.9329e-05
1.13377e-06
3.86147e-05
9.5965e-07
3.8006e-05
8.15409e-07
3.74875e-05
6.93959e-07
3.70457e-05
5.90945e-07
3.66694e-05
5.03309e-07
3.63488e-05
4.28685e-07
3.60758e-05
3.6513e-07
3.58432e-05
3.11007e-07
3.56452e-05
2.64921e-07
3.54764e-05
2.25682e-07
3.53326e-05
1.92272e-07
3.52101e-05
1.63825e-07
3.51057e-05
1.39601e-07
3.50168e-05
1.18971e-07
3.4941e-05
1.01399e-07
3.48763e-05
8.64303e-08
3.48212e-05
7.36771e-08
3.47743e-05
6.28104e-08
3.47342e-05
5.35496e-08
3.47001e-05
4.56569e-08
3.4671e-05
3.8929e-08
3.46462e-05
3.31939e-08
3.4625e-05
2.8304e-08
3.46069e-05
2.41354e-08
3.45916e-05
2.058e-08
3.45784e-05
1.7549e-08
3.45672e-05
1.49626e-08
3.45577e-05
1.27582e-08
3.45496e-05
1.08755e-08
3.45426e-05
9.27203e-09
3.45367e-05
7.90001e-09
3.45317e-05
6.73353e-09
3.45274e-05
5.73142e-09
3.45238e-05
4.88322e-09
3.45207e-05
4.14782e-09
3.4518e-05
3.53227e-09
3.45158e-05
2.98696e-09
3.45139e-05
2.54326e-09
3.45123e-05
2.12947e-09
3.45109e-05
1.81627e-09
3.45098e-05
1.48636e-09
3.45089e-05
1.27896e-09
3.45081e-05
9.89522e-10
3.45075e-05
8.7972e-10
5.84056e-10
0.000196662
1.64122e-05
0.000185165
1.86077e-05
0.000173084
2.09882e-05
0.000163997
1.82966e-05
0.000154051
1.65669e-05
0.000141414
1.89779e-05
0.000131809
1.8238e-05
0.000128469
1.17292e-05
0.000126692
6.53691e-06
0.000120544
7.80338e-06
0.000109634
1.21661e-05
9.81222e-05
1.41702e-05
8.94609e-05
1.29978e-05
8.4033e-05
1.08657e-05
8.07341e-05
9.13973e-06
7.83887e-05
7.82894e-06
7.62529e-05
6.67248e-06
7.40965e-05
5.62994e-06
7.19766e-05
4.74332e-06
6.99987e-05
4.01309e-06
6.82244e-05
3.40992e-06
6.66705e-05
2.90472e-06
6.53274e-05
2.47682e-06
6.41749e-05
2.11221e-06
6.31894e-05
1.80083e-06
6.23486e-05
1.53485e-06
6.16317e-05
1.30776e-06
6.1021e-05
1.11405e-06
6.05008e-05
9.48916e-07
6.00577e-05
8.08231e-07
5.96803e-05
6.88417e-07
5.93588e-05
5.864e-07
5.90849e-05
4.99545e-07
5.88516e-05
4.25596e-07
5.86528e-05
3.62633e-07
5.84834e-05
3.09018e-07
5.8339e-05
2.63357e-07
5.82159e-05
2.24464e-07
5.8111e-05
1.91332e-07
5.80216e-05
1.63103e-07
5.79454e-05
1.3905e-07
5.78804e-05
1.1855e-07
5.78249e-05
1.01079e-07
5.77777e-05
8.6185e-08
5.77374e-05
7.34891e-08
5.7703e-05
6.26639e-08
5.76737e-05
5.34352e-08
5.76487e-05
4.55639e-08
5.76274e-05
3.88536e-08
5.76093e-05
3.31275e-08
5.75938e-05
2.82472e-08
5.75806e-05
2.40789e-08
5.75693e-05
2.05288e-08
5.75597e-05
1.74911e-08
5.75516e-05
1.49085e-08
5.75446e-05
1.26898e-08
5.75387e-05
1.08118e-08
5.75336e-05
9.1836e-09
5.75293e-05
7.82071e-09
5.75257e-05
6.61336e-09
5.75226e-05
5.63096e-09
5.752e-05
4.71481e-09
5.75178e-05
4.02133e-09
5.7516e-05
3.2909e-09
5.75145e-05
2.83165e-09
5.75133e-05
2.19081e-09
5.75122e-05
1.94762e-09
1.29304e-09
0.000274597
2.90798e-05
0.00025872
3.44842e-05
0.000242896
3.68124e-05
0.000229066
3.2127e-05
0.000214248
3.13845e-05
0.000198384
3.48419e-05
0.000183152
3.34702e-05
0.000166948
2.7933e-05
0.000148428
2.50568e-05
0.000130667
2.55641e-05
0.000118195
2.46384e-05
0.000111977
2.03884e-05
0.000109824
1.51509e-05
0.000109204
1.14851e-05
0.000108545
9.79948e-06
0.000107192
9.18161e-06
0.0001051
8.76458e-06
0.00010254
8.18961e-06
9.98448e-05
7.4388e-06
9.72559e-05
6.60205e-06
9.49004e-05
5.76535e-06
9.28225e-05
4.98265e-06
9.10203e-05
4.27906e-06
8.94713e-05
3.66118e-06
8.81463e-05
3.12579e-06
8.70157e-05
2.66544e-06
8.60521e-05
2.27135e-06
8.52313e-05
1.93485e-06
8.45323e-05
1.64796e-06
8.3937e-05
1.40356e-06
8.34299e-05
1.19545e-06
8.29981e-05
1.01829e-06
8.26301e-05
8.67466e-07
8.23167e-05
7.39067e-07
8.20495e-05
6.29746e-07
8.18219e-05
5.36654e-07
8.16279e-05
4.57372e-07
8.14625e-05
3.8984e-07
8.13215e-05
3.32309e-07
8.12014e-05
2.83289e-07
8.10989e-05
2.41518e-07
8.10115e-05
2.05917e-07
8.0937e-05
1.75574e-07
8.08735e-05
1.49707e-07
8.08193e-05
1.27656e-07
8.07731e-05
1.08853e-07
8.07338e-05
9.28235e-08
8.07002e-05
7.91511e-08
8.06715e-05
6.7495e-08
8.06471e-05
5.75484e-08
8.06263e-05
4.90707e-08
8.06085e-05
4.183e-08
8.05934e-05
3.56628e-08
8.05805e-05
3.03859e-08
8.05695e-05
2.58994e-08
8.05602e-05
2.20451e-08
8.05522e-05
1.87826e-08
8.05454e-05
1.5954e-08
8.05397e-05
1.35864e-08
8.05348e-05
1.14889e-08
8.05306e-05
9.78224e-09
8.05272e-05
8.19068e-09
8.05242e-05
6.98591e-09
8.05218e-05
5.71698e-09
8.05197e-05
4.91912e-09
8.05181e-05
3.80583e-09
8.05166e-05
3.38332e-09
2.24617e-09
0.000350618
4.60719e-05
0.000331125
5.39772e-05
0.000312155
5.57823e-05
0.000290878
5.34036e-05
0.000268647
0.000253688
0.000244601
0.000230102
0.000206397
0.00018189
0.000165186
0.000156965
0.000153045
0.000149812
0.000145875
0.000141272
0.000136485
0.000131932
0.000127837
0.000124262
0.000121188
0.000118561
0.000116324
0.000114419
0.000112799
0.000111421
0.000110248
0.00010925
0.0001084
0.000107677
0.000107061
0.000106536
0.000106089
0.000105709
0.000105384
0.000105107
0.000104872
0.000104671
0.000104499
0.000104353
0.000104229
0.000104122
0.000104032
0.000103955
0.000103889
0.000103833
0.000103785
0.000103744
0.000103709
0.000103679
0.000103654
0.000103632
0.000103614
0.000103598
0.000103585
0.000103574
0.000103564
0.000103556
0.000103549
0.000103543
0.000103538
0.000103533
0.00010353
0.000103527
0.000103524
0.000103522
0.000103521
0.000418398
0.000399745
0.000380507
)
;

boundaryField
{
    inlet
    {
        type            calculated;
        value           nonuniform 0();
    }
    outlet
    {
        type            calculated;
        value           nonuniform List<scalar> 5(1.15024e-05 3.4507e-05 5.75115e-05 8.05157e-05 0.000103519);
    }
    wall
    {
        type            calculated;
        value           nonuniform 0();
    }
    wedge1
    {
        type            wedge;
        value           nonuniform List<scalar> 
344
(
5.91296e-16
-3.34333e-16
-3.63131e-15
5.42394e-16
9.70287e-16
-1.54601e-15
-8.06635e-16
-4.68803e-16
-4.11162e-15
6.363e-16
1.26171e-15
-1.71829e-15
-2.44452e-15
-4.77399e-16
-4.69589e-15
7.00756e-16
1.33125e-15
-1.79493e-15
6.3252e-16
-4.05482e-16
-4.01657e-15
5.88805e-16
1.122e-15
-1.92472e-15
1.55538e-15
-5.55325e-16
-3.60776e-15
5.7556e-16
1.11444e-15
-4.17936e-15
-3.42169e-16
-4.44093e-15
6.77511e-16
1.20793e-15
-5.93541e-15
5.78285e-17
-4.46954e-15
6.14528e-16
1.11057e-15
1.98462e-15
-4.4662e-16
-2.45541e-15
4.46899e-16
9.81046e-16
7.26732e-15
-1.81287e-15
-1.71637e-16
4.19755e-16
1.00183e-15
-3.71477e-15
-1.21436e-15
1.45495e-16
5.2136e-16
1.04413e-15
-3.08998e-14
2.36309e-15
-1.20765e-15
5.72327e-16
9.19762e-16
-5.68609e-14
4.45844e-15
-2.58123e-15
4.9003e-16
6.6781e-16
-6.19142e-14
2.40325e-15
-3.13571e-15
3.55696e-16
4.42773e-16
-4.60962e-14
-5.56027e-16
-3.05708e-15
2.58341e-16
3.21974e-16
-2.5489e-14
-1.54182e-15
-2.70485e-15
2.10449e-16
2.87021e-16
-1.12666e-14
-1.15257e-15
-2.26783e-15
1.88247e-16
2.88802e-16
-4.27306e-15
-6.22763e-16
-1.83384e-15
1.72373e-16
2.90532e-16
-1.51119e-15
-3.17948e-16
-1.4605e-15
1.55965e-16
2.79488e-16
-5.55296e-16
-1.77435e-16
-1.17289e-15
1.38505e-16
2.56902e-16
-2.41039e-16
-1.14545e-16
-9.59544e-16
1.21083e-16
2.28612e-16
-1.32485e-16
-8.34833e-17
-7.98895e-16
1.04597e-16
1.99193e-16
-8.99631e-17
-6.58615e-17
-6.72423e-16
8.96163e-17
1.71475e-16
-6.87525e-17
-5.37712e-17
-5.69573e-16
7.63524e-17
1.46466e-16
-5.60511e-17
-4.47713e-17
-4.8356e-16
6.48131e-17
1.24609e-16
-4.62826e-17
-3.745e-17
-4.11072e-16
5.48784e-17
1.05705e-16
-3.87371e-17
-3.15257e-17
-3.49346e-16
4.63746e-17
8.95606e-17
-3.23852e-17
-2.64009e-17
-2.96939e-16
3.91316e-17
7.57531e-17
-2.7321e-17
-2.21379e-17
-2.52228e-16
3.29789e-17
6.40355e-17
-2.28326e-17
-1.85096e-17
-2.14257e-16
2.77637e-17
5.40811e-17
-1.90502e-17
-1.55284e-17
-1.81889e-16
2.33487e-17
4.56586e-17
-1.59338e-17
-1.29398e-17
-1.5441e-16
1.96146e-17
3.84952e-17
-1.33365e-17
-1.07722e-17
-1.31023e-16
1.64608e-17
3.24361e-17
-1.11004e-17
-8.96647e-18
-1.11161e-16
1.38013e-17
2.73058e-17
-9.23706e-18
-7.39416e-18
-9.42881e-17
1.15577e-17
2.29571e-17
-7.64432e-18
-6.17213e-18
-7.99352e-17
9.66807e-18
1.93007e-17
-6.33869e-18
-5.01306e-18
-6.77787e-17
8.07456e-18
1.61772e-17
-5.30715e-18
-4.16705e-18
-5.74101e-17
6.73877e-18
1.35779e-17
-4.20808e-18
-3.36458e-18
-4.86777e-17
5.61014e-18
1.13482e-17
-3.47983e-18
-2.79244e-18
-4.1183e-17
4.66651e-18
9.5069e-18
-2.77817e-18
-2.28143e-18
-3.49022e-17
3.87362e-18
7.92695e-18
-2.3016e-18
-1.81306e-18
-2.95068e-17
3.21032e-18
6.61376e-18
-1.79285e-18
-1.49698e-18
-2.49983e-17
2.65903e-18
5.50438e-18
-1.4689e-18
-1.13355e-18
-2.11174e-17
2.19845e-18
4.57491e-18
-1.08006e-18
-9.58173e-19
-1.78843e-17
1.81359e-18
3.80602e-18
-8.80177e-19
-6.63631e-19
-1.51036e-17
1.49282e-18
3.14617e-18
-8.11859e-19
-4.79817e-19
-1.27935e-17
1.22376e-18
2.59656e-18
-4.39726e-19
-3.56228e-19
-1.08082e-17
9.97962e-19
2.14945e-18
-2.49512e-19
-3.31952e-19
-9.15766e-18
8.1047e-19
1.78654e-18
-1.71103e-19
-1.21784e-19
-7.74584e-18
6.485e-19
1.43971e-18
-2.5135e-19
-2.30687e-20
-6.56983e-18
5.12297e-19
1.16324e-18
5.03631e-20
3.8832e-20
-5.57732e-18
3.98356e-19
9.41286e-19
1.34692e-19
-1.32686e-21
-4.73596e-18
3.04825e-19
7.86118e-19
1.66561e-19
1.53964e-19
-4.04291e-18
2.24534e-19
5.97274e-19
3.04007e-20
1.93525e-19
-3.43617e-18
1.63145e-19
4.66765e-19
2.70746e-19
2.19207e-19
-2.95872e-18
1.06367e-19
3.6224e-19
2.94435e-19
1.55064e-19
-2.51706e-18
6.26252e-20
3.0489e-19
3.18418e-19
2.7809e-19
-2.19477e-18
2.56184e-20
1.93608e-19
3.34669e-19
2.10564e-19
-1.86349e-18
-2.57593e-21
1.62077e-19
3.61542e-19
3.19144e-19
-1.64958e-18
-2.77561e-20
7.60247e-20
3.67369e-19
3.20161e-19
-1.42998e-18
-4.73496e-20
3.26378e-20
3.8259e-19
2.66285e-19
-1.26824e-18
-6.43616e-20
-2.6674e-20
3.76526e-19
3.30508e-19
-1.10931e-18
-8.20808e-20
-3.33786e-20
3.85909e-19
3.31975e-19
-1.01001e-18
-9.42188e-20
-5.57688e-20
3.83996e-19
3.33919e-19
-8.85074e-19
-1.09212e-19
-8.27907e-20
3.9497e-19
3.40978e-19
-8.34056e-19
-1.17143e-19
-9.77127e-20
3.99048e-19
3.65739e-19
-7.39966e-19
-1.25906e-19
-1.16188e-19
4.02751e-19
3.45067e-19
-7.16119e-19
-1.29376e-19
-1.19985e-19
4.00823e-19
3.33183e-19
-6.16576e-19
-1.31813e-19
-1.29759e-19
)
;
    }
    wedge2
    {
        type            wedge;
        value           nonuniform List<scalar> 
344
(
-2.14529e-15
-5.59244e-16
-3.55936e-15
5.48348e-16
9.67846e-16
-1.56113e-15
-1.874e-16
-1.02562e-16
-4.06605e-15
5.87682e-16
1.2277e-15
-1.74077e-15
2.40431e-15
-4.22738e-16
-4.79449e-15
6.55109e-16
1.31436e-15
-1.7978e-15
-1.64765e-15
-8.38844e-16
-3.91919e-15
6.33854e-16
1.1283e-15
-1.9218e-15
-3.34547e-15
-1.63587e-16
-3.40724e-15
5.89498e-16
1.08578e-15
3.61748e-15
2.49316e-17
-4.59371e-15
6.22319e-16
1.1715e-15
6.42117e-15
-9.06268e-16
-4.71086e-15
6.38823e-16
1.12969e-15
-2.16739e-15
-9.98073e-16
-2.17941e-15
5.43351e-16
1.02377e-15
-8.60736e-15
5.62322e-16
2.97171e-16
4.24918e-16
9.96951e-16
2.55905e-15
6.87805e-16
1.12701e-16
3.85946e-16
9.90675e-16
3.09126e-14
-2.35932e-15
-1.87627e-15
3.96079e-16
8.6685e-16
5.81851e-14
-4.38303e-15
-3.3078e-15
3.86164e-16
6.40115e-16
6.39046e-14
-2.613e-15
-3.38096e-15
3.38847e-16
4.34838e-16
4.75235e-14
2.25648e-17
-2.89344e-15
2.79503e-16
3.22026e-16
2.55111e-14
8.24322e-16
-2.4696e-15
2.32381e-16
2.89294e-16
1.02234e-14
4.3059e-16
-2.12522e-15
2.00738e-16
2.90733e-16
3.04446e-15
2.97642e-17
-1.77371e-15
1.7787e-16
2.92139e-16
5.86477e-16
-1.09374e-16
-1.44018e-15
1.5818e-16
2.80641e-16
-2.75097e-17
-1.22344e-16
-1.1661e-15
1.39568e-16
2.5798e-16
-1.18782e-16
-1.02731e-16
-9.57146e-16
1.2177e-16
2.2954e-16
-1.07845e-16
-8.26691e-17
-7.97275e-16
1.05199e-16
2.00109e-16
-8.63463e-17
-6.7062e-17
-6.71312e-16
9.01933e-17
1.72241e-16
-6.98909e-17
-5.55913e-17
-5.68273e-16
7.69263e-17
1.47271e-16
-5.73188e-17
-4.65114e-17
-4.82465e-16
6.53764e-17
1.25364e-16
-4.81619e-17
-3.92275e-17
-4.09807e-16
5.54273e-17
1.06487e-16
-4.05547e-17
-3.30322e-17
-3.48252e-16
4.69207e-17
9.02751e-17
-3.43733e-17
-2.79775e-17
-2.95747e-16
3.96733e-17
7.64966e-17
-2.89223e-17
-2.36498e-17
-2.51151e-16
3.35168e-17
6.47559e-17
-2.45444e-17
-2.00202e-17
-2.13117e-16
2.82958e-17
5.47937e-17
-2.08318e-17
-1.6871e-17
-1.8083e-16
2.38753e-17
4.63247e-17
-1.76196e-17
-1.42873e-17
-1.53331e-16
2.01372e-17
3.9172e-17
-1.48745e-17
-1.20903e-17
-1.29984e-16
1.6978e-17
3.31046e-17
-1.26046e-17
-1.02254e-17
-1.10132e-16
1.43087e-17
2.79685e-17
-1.06711e-17
-8.70189e-18
-9.32632e-17
1.20582e-17
2.36297e-17
-9.06764e-18
-7.33301e-18
-7.89545e-17
1.01606e-17
1.99387e-17
-7.68554e-18
-6.30295e-18
-6.67696e-17
8.56625e-18
1.68517e-17
-6.49306e-18
-5.31909e-18
-5.64705e-17
7.22101e-18
1.42051e-17
-5.66298e-18
-4.58824e-18
-4.76587e-17
6.09727e-18
1.20071e-17
-4.80199e-18
-3.87653e-18
-4.02652e-17
5.15045e-18
1.01146e-17
-4.17197e-18
-3.3347e-18
-3.3916e-17
4.35823e-18
8.54971e-18
-3.5333e-18
-2.88301e-18
-2.86017e-17
3.69353e-18
7.21425e-18
-3.10852e-18
-2.474e-18
-2.40329e-17
3.13308e-18
6.09951e-18
-2.65106e-18
-2.18258e-18
-2.02247e-17
2.66332e-18
5.15764e-18
-2.38575e-18
-1.86166e-18
-1.69487e-17
2.26993e-18
4.36099e-18
-2.038e-18
-1.68654e-18
-1.42233e-17
1.9397e-18
3.70307e-18
-1.72673e-18
-1.50162e-18
-1.18798e-17
1.66406e-18
3.15135e-18
-1.63498e-18
-1.31611e-18
-9.93521e-18
1.43396e-18
2.67665e-18
-1.50232e-18
-1.10995e-18
-8.27156e-18
1.2395e-18
2.27322e-18
-1.3097e-18
-1.07304e-18
-6.88966e-18
1.08139e-18
1.96935e-18
-1.06704e-18
-9.88226e-19
-5.71616e-18
9.48824e-19
1.70531e-18
-1.11132e-18
-8.95759e-19
-4.73121e-18
8.37246e-19
1.4752e-18
-1.0338e-18
-7.47165e-19
-3.91509e-18
7.40781e-19
1.25711e-18
-9.29399e-19
-7.70695e-19
-3.2144e-18
6.61546e-19
1.1227e-18
-7.19831e-19
-7.17124e-19
-2.65696e-18
5.87928e-19
9.86032e-19
-8.21097e-19
-6.6457e-19
-2.15583e-18
5.31528e-19
8.67477e-19
-7.61992e-19
-5.46929e-19
-1.7818e-18
4.78787e-19
7.40525e-19
-7.16885e-19
-6.00811e-19
-1.41988e-18
4.35471e-19
6.89899e-19
-6.73292e-19
-4.94482e-19
-1.17861e-18
3.94198e-19
5.90204e-19
-6.51255e-19
-5.54029e-19
-9.17832e-19
3.62697e-19
5.62465e-19
-6.13364e-19
-5.19679e-19
-7.26453e-19
3.31651e-19
5.08127e-19
-5.94666e-19
-4.43391e-19
-5.70573e-19
3.095e-19
4.94305e-19
-5.55791e-19
-4.76127e-19
-4.30252e-19
2.89309e-19
4.25994e-19
-5.43055e-19
-4.59802e-19
-3.26399e-19
2.7604e-19
3.99601e-19
-5.15021e-19
-4.406e-19
-2.2053e-19
2.60902e-19
3.69238e-19
-5.14207e-19
-4.38289e-19
-1.64447e-19
2.55492e-19
3.58561e-19
-4.94816e-19
-4.44705e-19
-5.90581e-20
2.37199e-19
3.25807e-19
-4.97435e-19
-4.22753e-19
-7.04345e-20
2.39853e-19
3.27858e-19
-4.73725e-19
-3.93305e-19
9.84062e-21
2.17367e-19
2.90655e-19
)
;
    }
    axis
    {
        type            empty;
        value           nonuniform 0();
    }
    procBoundary5to4
    {
        type            processor;
        value           nonuniform List<scalar> 5(-4.12887e-05 -0.000122637 -0.000205042 -0.000287265 -0.00036761);
    }
    procBoundary5to10
    {
        type            processor;
        value           uniform -0.000442787;
    }
    procBoundary5to11
    {
        type            processor;
        value           nonuniform List<scalar> 
69
(
5.36158e-05
4.98011e-05
4.25569e-05
4.24327e-05
4.87615e-05
5.00708e-05
4.13429e-05
2.86092e-05
1.90708e-05
1.47186e-05
1.37361e-05
1.37845e-05
1.35516e-05
1.2742e-05
1.15344e-05
1.01768e-05
8.83965e-06
7.60915e-06
6.51678e-06
5.56558e-06
4.74595e-06
4.04374e-06
3.44407e-06
2.93287e-06
2.49749e-06
2.12687e-06
1.81143e-06
1.54296e-06
1.31445e-06
1.11993e-06
9.54308e-07
8.13277e-07
6.93161e-07
5.90841e-07
5.03668e-07
4.29389e-07
3.66088e-07
3.12136e-07
2.66148e-07
2.26943e-07
1.9352e-07
1.6502e-07
1.40722e-07
1.19996e-07
1.02326e-07
8.72477e-08
7.43956e-08
6.34185e-08
5.40689e-08
4.60687e-08
3.92668e-08
3.34232e-08
2.84769e-08
2.41885e-08
2.05987e-08
1.74187e-08
1.48311e-08
1.24181e-08
1.05914e-08
8.66755e-09
7.45784e-09
5.76994e-09
5.12933e-09
3.40527e-09
7.04611e-05
7.26307e-05
7.50203e-05
0.000349084
8.48264e-05
)
;
    }
}


// ************************************************************************* //
