/*--------------------------------*- C++ -*----------------------------------*\
  =========                 |
  \\      /  F ield         | OpenFOAM: The Open Source CFD Toolbox
   \\    /   O peration     | Website:  https://openfoam.org
    \\  /    A nd           | Version:  7
     \\/     M anipulation  |
\*---------------------------------------------------------------------------*/
FoamFile
{
    version     2.0;
    format      ascii;
    class       volVectorField;
    location    "2";
    object      U;
}
// * * * * * * * * * * * * * * * * * * * * * * * * * * * * * * * * * * * * * //

dimensions      [0 1 -1 0 0 0 0];

internalField   nonuniform List<vector> 
344
(
(1.00617 -0.00311424 -7.16016e-15)
(1.00738 -0.0032632 -3.22762e-15)
(1.00863 -0.00337514 -6.92981e-15)
(1.00991 -0.00344995 -5.94334e-15)
(1.01121 -0.00349191 -7.64811e-15)
(1.01252 -0.0035077 -7.11006e-15)
(1.01382 -0.00349988 -9.85069e-15)
(1.01511 -0.00347124 -6.5088e-15)
(1.01638 -0.00342635 -1.03605e-14)
(1.01762 -0.00336796 -9.19137e-15)
(1.01884 -0.00330051 -1.04829e-14)
(1.02003 -0.00322873 -1.03691e-14)
(1.02118 -0.00315103 -1.14794e-14)
(1.0223 -0.00306682 -9.8436e-15)
(1.02339 -0.00298268 -1.16721e-14)
(1.02444 -0.00290148 -9.41536e-15)
(1.02547 -0.00281944 -1.21443e-14)
(1.02646 -0.00273626 -8.73863e-15)
(1.02742 -0.0026541 -1.13835e-14)
(1.02836 -0.00257265 -8.49012e-15)
(1.02926 -0.00249407 -1.18975e-14)
(1.03013 -0.00242059 -8.03721e-15)
(1.03098 -0.00234675 -1.19012e-14)
(1.03181 -0.00226839 -6.96368e-15)
(1.0326 -0.00219205 -1.18738e-14)
(1.03337 -0.00212271 -6.3113e-15)
(1.03411 -0.0020549 -1.11401e-14)
(1.03483 -0.00198417 -6.73118e-15)
(1.03553 -0.00191314 -1.08604e-14)
(1.03619 -0.0018434 -7.25122e-15)
(1.03684 -0.00177525 -1.04329e-14)
(1.03746 -0.0017121 -7.05151e-15)
(1.03805 -0.00165308 -1.05526e-14)
(1.03863 -0.00158981 -8.1023e-15)
(1.03919 -0.00152024 -1.14154e-14)
(1.03972 -0.00145409 -8.81875e-15)
(1.04022 -0.00139779 -1.09371e-14)
(1.0407 -0.00134557 -9.03183e-15)
(1.04117 -0.0012906 -1.06245e-14)
(1.04162 -0.00123334 -8.87141e-15)
(1.04204 -0.00117592 -1.0856e-14)
(1.04245 -0.00111957 -8.19196e-15)
(1.04284 -0.00106879 -1.09427e-14)
(1.04321 -0.00102768 -8.52259e-15)
(1.04356 -0.000991037 -1.11291e-14)
(1.0439 -0.000948124 -5.98e-15)
(1.04423 -0.000897065 -1.19411e-14)
(1.04454 -0.000848464 -6.221e-15)
(1.04483 -0.000812596 -1.38467e-14)
(1.0451 -0.000788616 -6.45967e-15)
(1.04538 -0.000767107 -1.37141e-14)
(1.04564 -0.00074039 -5.14127e-15)
(1.0459 -0.000706576 -1.31443e-14)
(1.04614 -0.000670928 -4.38089e-15)
(1.04636 -0.000639796 -1.30846e-14)
(1.04658 -0.00062152 -5.82623e-15)
(1.0468 -0.000613151 -1.23747e-14)
(1.04701 -0.000612859 -5.85765e-15)
(1 -0.000254016 3.32384e-15)
(1.00016 -0.000757268 -3.42656e-15)
(1.00047 -0.00124828 3.60023e-15)
(1.00093 -0.00171854 -3.94584e-15)
(1.00155 -0.00216037 2.74883e-15)
(1.0023 -0.00256722 -4.18225e-15)
(1.00318 -0.00293288 1.97022e-15)
(1.00417 -0.00325319 -3.87559e-15)
(1.00527 -0.00352419 1.53378e-15)
(1.00645 -0.00374432 -3.7718e-15)
(1.0077 -0.00391698 1.32679e-15)
(1.00899 -0.00404412 -3.76592e-15)
(1.01031 -0.0041264 5.70641e-16)
(1.01164 -0.00417012 -4.24569e-15)
(1.01298 -0.00418225 4.68593e-16)
(1.01431 -0.00416636 -4.65778e-15)
(1.01562 -0.00412718 6.70195e-16)
(1.0169 -0.00406876 -4.78531e-15)
(1.01816 -0.00399426 1.86045e-16)
(1.01938 -0.00391076 -4.61305e-15)
(1.02057 -0.00382269 -4.42364e-16)
(1.02173 -0.00372714 -4.66852e-15)
(1.02286 -0.00362538 -5.54241e-17)
(1.02394 -0.00352476 -4.89366e-15)
(1.025 -0.00342669 6.48665e-16)
(1.02602 -0.00332838 -5.96614e-15)
(1.02702 -0.00323043 1.36491e-15)
(1.02797 -0.00313275 -5.0591e-15)
(1.02891 -0.00303531 1.77787e-15)
(1.02981 -0.00294311 -6.46127e-15)
(1.03068 -0.00285686 2.38739e-15)
(1.03153 -0.00276843 -6.53467e-15)
(1.03235 -0.00267576 2.39555e-15)
(1.03314 -0.00258697 -6.75665e-15)
(1.03391 -0.0025047 2.57854e-15)
(1.03465 -0.0024234 -6.32667e-15)
(1.03537 -0.00234088 2.75466e-15)
(1.03606 -0.00225802 -5.89847e-15)
(1.03673 -0.00217408 1.85613e-15)
(1.03737 -0.00209261 -6.36199e-15)
(1.03799 -0.00201957 1.25067e-15)
(1.03858 -0.00195034 -5.99605e-15)
(1.03916 -0.0018739 1.23563e-15)
(1.03971 -0.00179125 -7.62636e-15)
(1.04024 -0.00171423 1.03947e-16)
(1.04074 -0.00164724 -7.61849e-15)
(1.04122 -0.00158399 7.65909e-16)
(1.04169 -0.00151958 -7.19876e-15)
(1.04213 -0.00145333 1.64275e-16)
(1.04255 -0.00138449 -7.48662e-15)
(1.04296 -0.0013158 5.95864e-16)
(1.04335 -0.001256 -8.17563e-15)
(1.04371 -0.00120918 1.85431e-15)
(1.04406 -0.00116596 -8.02171e-15)
(1.0444 -0.00111373 3.266e-15)
(1.04472 -0.00105292 -1.04266e-14)
(1.04503 -0.000996378 4.43327e-15)
(1.04531 -0.000954208 -1.07279e-14)
(1.04558 -0.000924901 5.44691e-15)
(1.04585 -0.000898944 -1.03867e-14)
(1.04612 -0.000868093 6.64734e-15)
(1.04637 -0.000828974 -1.07523e-14)
(1.0466 -0.000786689 6.81913e-15)
(1.04683 -0.000748963 -1.13749e-14)
(1.04704 -0.000726772 5.99051e-15)
(1.04725 -0.000716797 -1.01939e-14)
(1.04746 -0.00071715 5.92608e-15)
(1 -0.000302425 3.47171e-15)
(1.00017 -0.000901465 -3.54772e-15)
(1.0005 -0.00148513 2.41876e-15)
(1.00099 -0.00204312 -5.17743e-15)
(1.00164 -0.00256606 1.24774e-15)
(1.00243 -0.00304534 -5.69801e-15)
(1.00336 -0.00347397 -4.92749e-16)
(1.00441 -0.00384702 -5.229e-15)
(1.00556 -0.00415932 -9.82055e-16)
(1.0068 -0.00441028 -5.60163e-15)
(1.0081 -0.00460437 -1.50197e-15)
(1.00944 -0.00474351 -5.96262e-15)
(1.0108 -0.00483022 -3.36393e-15)
(1.01217 -0.00487233 -6.53003e-15)
(1.01354 -0.00487694 -3.63898e-15)
(1.0149 -0.00484985 -7.14235e-15)
(1.01623 -0.00479725 -3.76334e-15)
(1.01753 -0.00472209 -7.09656e-15)
(1.0188 -0.00462898 -4.61504e-15)
(1.02004 -0.00452751 -7.62766e-15)
(1.02123 -0.00442095 -4.49136e-15)
(1.0224 -0.00430601 -6.70832e-15)
(1.02352 -0.00418599 -4.47391e-15)
(1.02461 -0.00406765 -6.3275e-15)
(1.02566 -0.00395164 -3.53848e-15)
(1.02669 -0.00383724 -6.46642e-15)
(1.02768 -0.00372444 -3.22317e-15)
(1.02864 -0.00361039 -5.83673e-15)
(1.02957 -0.00349692 -2.75971e-15)
(1.03047 -0.00339153 -4.41926e-15)
(1.03133 -0.00329221 -1.55486e-15)
(1.03218 -0.00318898 -4.51169e-15)
(1.033 -0.00308233 -2.0359e-15)
(1.03379 -0.00298069 -3.45407e-15)
(1.03455 -0.00288478 -1.18489e-15)
(1.0353 -0.00279055 -2.97944e-15)
(1.03601 -0.00269722 -1.30467e-15)
(1.0367 -0.0026023 -3.50594e-15)
(1.03737 -0.00250377 -2.38389e-15)
(1.03801 -0.00240932 -3.47206e-15)
(1.03862 -0.00232616 -3.41742e-15)
(1.03922 -0.00224591 -3.29854e-15)
(1.03979 -0.00215655 -3.1861e-15)
(1.04035 -0.00206172 -4.32349e-15)
(1.04087 -0.00197344 -4.04204e-15)
(1.04136 -0.00189458 -4.49062e-15)
(1.04185 -0.00182039 -4.3769e-15)
(1.04231 -0.00174738 -4.25016e-15)
(1.04275 -0.00167181 -5.182e-15)
(1.04317 -0.00159042 -4.05187e-15)
(1.04358 -0.00150919 -4.83723e-15)
(1.04396 -0.00144091 -3.91974e-15)
(1.04431 -0.00138824 -4.11595e-15)
(1.04466 -0.00133764 -3.72929e-15)
(1.04499 -0.00127596 -3.72594e-15)
(1.04532 -0.00120599 -4.34637e-15)
(1.04562 -0.00114165 -3.60723e-15)
(1.04589 -0.00109259 -5.01157e-15)
(1.04616 -0.00105749 -2.92073e-15)
(1.04643 -0.00102738 -4.6852e-15)
(1.04669 -0.000992985 -2.45304e-15)
(1.04693 -0.000948815 -4.73217e-15)
(1.04716 -0.000899686 -2.88787e-15)
(1.04738 -0.00085505 -5.36136e-15)
(1.0476 -0.000828692 -2.57156e-15)
(1.0478 -0.000817107 -4.75544e-15)
(1.048 -0.000818241 -2.39004e-15)
(1 -0.000355649 2.00079e-15)
(1.00018 -0.00105983 -2.17228e-15)
(1.00053 -0.00174486 2.43644e-15)
(1.00106 -0.0023984 -2.4202e-15)
(1.00175 -0.00300878 1.62291e-15)
(1.00259 -0.00356514 -2.77979e-15)
(1.00358 -0.00405983 1.42042e-15)
(1.0047 -0.00448652 -3.08726e-15)
(1.00592 -0.00483931 1.06087e-15)
(1.00722 -0.00511923 -2.52789e-15)
(1.00858 -0.00533145 4.28668e-16)
(1.00998 -0.00547863 -2.46709e-15)
(1.0114 -0.0055659 3.57499e-16)
(1.01281 -0.00560196 -2.92718e-15)
(1.01422 -0.00559465 2.09917e-17)
(1.01561 -0.00555269 -3.493e-15)
(1.01696 -0.00548282 1.00392e-16)
(1.01829 -0.00538723 -3.21252e-15)
(1.01957 -0.00527291 -1.76226e-16)
(1.02081 -0.00515085 -3.5264e-15)
(1.02202 -0.00502316 -2.2874e-16)
(1.02319 -0.00488751 -3.45401e-15)
(1.02431 -0.00474827 5.08957e-16)
(1.0254 -0.00461067 -3.44503e-15)
(1.02645 -0.00447599 4.5379e-16)
(1.02747 -0.00434566 -4.15916e-15)
(1.02846 -0.00421755 1.44694e-15)
(1.02942 -0.00408672 -4.6782e-15)
(1.03034 -0.00395767 1.58271e-15)
(1.03124 -0.00383889 -4.1515e-15)
(1.0321 -0.00372571 2.37028e-15)
(1.03295 -0.00360825 -4.71247e-15)
(1.03377 -0.00348842 1.72712e-15)
(1.03455 -0.00337302 -4.67873e-15)
(1.03532 -0.00326261 2.04212e-15)
(1.03606 -0.00315631 -4.368e-15)
(1.03677 -0.00305261 2.2449e-15)
(1.03746 -0.00294491 -4.40941e-15)
(1.03812 -0.00283206 1.18743e-15)
(1.03876 -0.0027255 -4.43475e-15)
(1.03937 -0.00263149 8.27604e-16)
(1.03996 -0.00253908 -4.35886e-15)
(1.04054 -0.00243754 4.56312e-16)
(1.04109 -0.00233162 -4.60115e-15)
(1.04161 -0.0022312 2.17515e-16)
(1.04211 -0.00213925 -4.69349e-15)
(1.04259 -0.00205466 6.67911e-16)
(1.04304 -0.00197377 -4.93167e-15)
(1.04348 -0.00188812 6.27544e-17)
(1.0439 -0.00179336 -5.28686e-15)
(1.0443 -0.00170003 5.62797e-16)
(1.04468 -0.0016237 -5.93594e-15)
(1.04502 -0.00156431 1.293e-15)
(1.04536 -0.00150547 -6.27586e-15)
(1.0457 -0.00143471 2.6996e-15)
(1.04602 -0.00135626 -7.08752e-15)
(1.04631 -0.00128378 3.54787e-15)
(1.04658 -0.00122679 -8.25771e-15)
(1.04685 -0.00118547 4.73979e-15)
(1.04711 -0.00115164 -8.52647e-15)
(1.04736 -0.00111426 5.1202e-15)
(1.0476 -0.00106521 -8.58671e-15)
(1.04783 -0.00100902 5.50262e-15)
(1.04805 -0.000957233 -9.13479e-15)
(1.04825 -0.000926356 5.23401e-15)
(1.04845 -0.000913181 -8.38318e-15)
(1.04865 -0.00091509 4.65874e-15)
(1 -0.000414914 2.67643e-15)
(1.0002 -0.00123588 -2.67986e-15)
(1.00058 -0.00203316 1.77794e-15)
(1.00114 -0.00279183 -3.90153e-15)
(1.00189 -0.00349724 6.35484e-16)
(1.0028 -0.00413626 -4.0368e-15)
(1.00386 -0.00470027 -4.97864e-16)
(1.00505 -0.00518116 -4.51401e-15)
(1.00635 -0.0055732 -8.59259e-16)
(1.00773 -0.0058791 -4.43732e-15)
(1.00917 -0.00610487 -9.27142e-16)
(1.01063 -0.00625537 -4.72024e-15)
(1.01211 -0.00633823 -2.69131e-15)
(1.01358 -0.00636258 -4.9568e-15)
(1.01503 -0.00633835 -3.23107e-15)
(1.01645 -0.00627707 -5.52404e-15)
(1.01783 -0.00618506 -3.28154e-15)
(1.01918 -0.00606499 -5.76638e-15)
(1.02048 -0.00592642 -4.12515e-15)
(1.02173 -0.00578044 -5.64692e-15)
(1.02294 -0.00562896 -3.82364e-15)
(1.02411 -0.00547135 -5.4338e-15)
(1.02523 -0.00531148 -3.01853e-15)
(1.02632 -0.00515307 -5.28878e-15)
(1.02737 -0.00499952 -3.16802e-15)
(1.02839 -0.00485328 -5.44831e-15)
(1.02937 -0.004709 -2.01971e-15)
(1.03033 -0.00456143 -5.44329e-15)
(1.03125 -0.00441758 -2.12061e-15)
(1.03214 -0.00428484 -3.35837e-15)
(1.033 -0.00415703 -1.62288e-15)
(1.03385 -0.00402615 -3.56353e-15)
(1.03466 -0.00389373 -1.71525e-15)
(1.03545 -0.00376373 -3.00731e-15)
(1.03621 -0.0036387 -1.13683e-15)
(1.03695 -0.00352129 -2.24849e-15)
(1.03766 -0.00340695 -9.99399e-16)
(1.03834 -0.00328558 -2.34695e-15)
(1.03901 -0.003159 -2.08556e-15)
(1.03964 -0.00304099 -2.74235e-15)
(1.04025 -0.0029351 -2.39898e-15)
(1.04084 -0.00282979 -2.72669e-15)
(1.04142 -0.00271703 -2.94426e-15)
(1.04196 -0.00260051 -3.30882e-15)
(1.04248 -0.00248682 -3.04784e-15)
(1.04297 -0.00238116 -2.67678e-15)
(1.04345 -0.00228681 -3.06161e-15)
(1.0439 -0.00219805 -3.52488e-15)
(1.04433 -0.00210136 -3.36731e-15)
(1.04475 -0.00199315 -3.64393e-15)
(1.04515 -0.00188857 -3.86427e-15)
(1.04552 -0.00180402 -3.02985e-15)
(1.04586 -0.0017366 -3.08414e-15)
(1.0462 -0.0016691 -3.06078e-15)
(1.04653 -0.00159027 -2.60431e-15)
(1.04684 -0.00150403 -3.1938e-15)
(1.04713 -0.00142264 -2.38761e-15)
(1.04739 -0.00135655 -4.12598e-15)
(1.04766 -0.0013087 -1.95966e-15)
(1.04791 -0.00127162 -3.76605e-15)
(1.04815 -0.00123167 -1.8205e-15)
(1.04839 -0.00117782 -4.37483e-15)
(1.04861 -0.00111432 -2.14046e-15)
(1.04882 -0.00105505 -4.06168e-15)
(1.04902 -0.00101905 -2.32583e-15)
(1.04921 -0.00100414 -4.50455e-15)
(1.04941 -0.00100668 -2.23105e-15)
(1 -0.000481752 1.41929e-15)
(1.00021 -0.00143413 -1.52993e-15)
(1.00063 -0.0023572 1.85554e-15)
(1.00125 -0.00323265 -1.95825e-15)
(1.00206 -0.00404216 7.99863e-16)
(1.00305 -0.00477024 -1.61279e-15)
(1.0042 -0.00540661 5.84063e-16)
(1.00549 -0.00594163 -1.78365e-15)
(1.00688 -0.00637077 7.30537e-16)
(1.00835 -0.00669826 -1.99176e-15)
(1.00987 -0.0069318 6.4687e-16)
(1.01142 -0.00707984 -1.75014e-15)
(1.01296 -0.00715189 2.96645e-16)
(1.01449 -0.00715787 -2.07167e-15)
(1.01598 -0.00711092 -1.81744e-16)
(1.01744 -0.00702454 -1.68961e-15)
(1.01885 -0.00690474 1.1984e-16)
(1.02022 -0.00675581 -1.95682e-15)
)
;

boundaryField
{
    inlet
    {
        type            uniformFixedValue;
        uniformValue    constant (1 0 0);
        value           uniform (1 0 0);
    }
    outlet
    {
        type            pressureInletOutletVelocity;
        value           nonuniform 0();
    }
    wall
    {
        type            fixedValue;
        value           nonuniform 0();
    }
    wedge1
    {
        type            wedge;
    }
    wedge2
    {
        type            wedge;
    }
    axis
    {
        type            empty;
    }
    procBoundary6to0
    {
        type            processor;
        value           nonuniform List<vector> 
68
(
(1.00595 -0.0025138 -4.55878e-15)
(1.00712 -0.00263755 1.33485e-15)
(1.00834 -0.00273185 -4.67675e-15)
(1.00959 -0.00279668 2.30615e-16)
(1.01086 -0.00283432 -4.83287e-15)
(1.01215 -0.00285067 9.03382e-16)
(1.01343 -0.0028482 -3.22238e-15)
(1.0147 -0.00282788 5.53824e-16)
(1.01596 -0.00279386 -3.69007e-15)
(1.01719 -0.00274928 6.48932e-16)
(1.0184 -0.00269646 -2.29369e-15)
(1.01958 -0.00263928 -4.28994e-16)
(1.02073 -0.00257777 -2.30643e-15)
(1.02185 -0.00251043 2.02975e-16)
(1.02294 -0.00244203 -2.22323e-15)
(1.02399 -0.00237664 -1.74237e-15)
(1.02502 -0.00231064 -2.70844e-15)
(1.02601 -0.00224229 -2.26211e-15)
(1.02697 -0.00217495 -1.42864e-15)
(1.02791 -0.00210925 -3.19742e-15)
(1.02881 -0.00204494 -1.7097e-15)
(1.02969 -0.00198406 -2.43087e-15)
(1.03054 -0.00192396 -2.3181e-15)
(1.03136 -0.00186008 -3.83777e-15)
(1.03216 -0.00179674 -3.52768e-15)
(1.03293 -0.00174 -4.1698e-15)
(1.03367 -0.00168556 -3.21879e-15)
(1.0344 -0.0016274 -4.4405e-15)
(1.03509 -0.0015683 -4.18691e-15)
(1.03576 -0.00151185 -5.1344e-15)
(1.0364 -0.00145685 -5.82709e-15)
(1.03703 -0.00140415 -5.54015e-15)
(1.03762 -0.00135517 -7.43079e-15)
(1.0382 -0.0013046 -5.53692e-15)
(1.03876 -0.0012483 -7.01482e-15)
(1.03929 -0.00119313 -5.93722e-15)
(1.0398 -0.00114681 -7.75482e-15)
(1.04028 -0.00110523 -6.38237e-15)
(1.04075 -0.00106029 -7.78922e-15)
(1.0412 -0.00101219 -6.83525e-15)
(1.04163 -0.000965298 -7.89418e-15)
(1.04203 -0.000920711 -7.45331e-15)
(1.04243 -0.000879437 -8.25712e-15)
(1.0428 -0.000844482 -6.56375e-15)
(1.04316 -0.000814025 -7.55847e-15)
(1.0435 -0.000779992 -6.63559e-15)
(1.04383 -0.000738942 -7.54454e-15)
(1.04414 -0.000698658 -8.27789e-15)
(1.04444 -0.000668853 -7.53925e-15)
(1.04471 -0.000649704 -9.60946e-15)
(1.04499 -0.000632622 -7.61806e-15)
(1.04526 -0.000610448 -9.78777e-15)
(1.04552 -0.000582179 -7.20871e-15)
(1.04576 -0.000552961 -1.04457e-14)
(1.04599 -0.000528032 -7.95117e-15)
(1.04621 -0.000513411 -1.19902e-14)
(1.04643 -0.000506605 -8.87976e-15)
(1.04665 -0.000505821 -1.24535e-14)
(1 -0.000209425 3.50417e-15)
(1.00015 -0.000624386 -3.66428e-15)
(1.00045 -0.00102968 2.47197e-15)
(1.00089 -0.0014185 -4.7759e-15)
(1.00147 -0.00178448 8.35074e-16)
(1.00219 -0.00212275 -6.24866e-15)
(1.00303 -0.00242815 -1.88262e-15)
(1.00398 -0.00269684 -5.81781e-15)
(1.00504 -0.00292613 -2.4872e-15)
(1.00504 -0.00292613 -2.4872e-15)
)
;
    }
    procBoundary6to1
    {
        type            processor;
        value           uniform (1.04722 -0.000602186 -1.08602e-14);
    }
    procBoundary6to7
    {
        type            processor;
        value           nonuniform List<vector> 4((1.04767 -0.000704722 -9.28737e-15) (1.0482 -0.000804451 -4.48685e-15) (1.04884 -0.000900735 -7.99035e-15) (1.04959 -0.000992768 -3.70942e-15));
    }
    procBoundary6to12
    {
        type            processor;
        value           nonuniform List<vector> 
68
(
(1.02153 -0.00658907 -2.2456e-16)
(1.0228 -0.0064153 -2.37917e-15)
(1.02401 -0.00623753 -1.14105e-16)
(1.02518 -0.00605659 -2.14488e-15)
(1.0263 -0.00587434 5.17953e-16)
(1.02739 -0.00569392 -3.10628e-15)
(1.02844 -0.0055216 2.80672e-16)
(1.02945 -0.0053591 -3.49147e-15)
(1.03043 -0.005198 1.13841e-15)
(1.03138 -0.0050341 -3.70797e-15)
(1.0323 -0.00487574 1.26467e-15)
(1.03318 -0.00472832 -3.49671e-15)
(1.03405 -0.00458593 1.20966e-15)
(1.03489 -0.00444254 -4.41651e-15)
(1.0357 -0.00429735 1.63291e-15)
(1.03648 -0.00415213 -3.5641e-15)
(1.03724 -0.00401321 1.82753e-15)
(1.03798 -0.00388537 -3.42949e-15)
(1.03868 -0.00375983 1.32128e-15)
(1.03937 -0.00362469 -3.2761e-15)
(1.04003 -0.00348508 1.08399e-15)
(1.04066 -0.00335519 -3.53874e-15)
(1.04127 -0.00323635 8.19209e-16)
(1.04186 -0.00311844 -3.6155e-15)
(1.04243 -0.00299537 4.78068e-16)
(1.04297 -0.00286773 -3.8709e-15)
(1.04349 -0.00273974 4.09864e-16)
(1.04398 -0.00262057 -3.8348e-15)
(1.04445 -0.00251672 1.99939e-16)
(1.0449 -0.00241916 -3.92019e-15)
(1.04533 -0.00231081 1.27717e-16)
(1.04575 -0.00218993 -4.54999e-15)
(1.04614 -0.0020747 4.99057e-16)
(1.04649 -0.00198072 -4.56669e-15)
(1.04683 -0.00190383 1.48904e-15)
(1.04717 -0.00182803 -5.14033e-15)
(1.0475 -0.00174258 1.65122e-15)
(1.0478 -0.00164897 -5.94572e-15)
(1.04808 -0.00155771 2.36337e-15)
(1.04834 -0.00148159 -6.79613e-15)
(1.0486 -0.00142717 3.36334e-15)
(1.04884 -0.00138736 -7.56443e-15)
(1.04908 -0.00134528 3.56734e-15)
(1.04931 -0.00128693 -7.75756e-15)
(1.04953 -0.00121608 3.72937e-15)
(1.04973 -0.00114902 -8.12591e-15)
(1.04992 -0.00110704 3.80265e-15)
(1.0501 -0.00109014 -7.94553e-15)
(1.05029 -0.00109294 3.30119e-15)
(1 -0.000558131 -7.74149e-16)
(1.00024 -0.00166043 5.00422e-16)
(1.0007 -0.00272611 -4.85776e-16)
(1.00138 -0.00373252 5.95595e-16)
(1.00227 -0.00465681 -6.37302e-16)
(1.00336 -0.00548094 8.24962e-16)
(1.00462 -0.00619193 -8.56571e-16)
(1.00602 -0.00678003 1.0233e-15)
(1.00753 -0.00724258 -2.0024e-15)
(1.00911 -0.00758572 -1.85757e-16)
(1.01073 -0.00782022 -1.57969e-15)
(1.01236 -0.00795862 -9.75375e-16)
(1.01397 -0.00801202 -1.72179e-15)
(1.01556 -0.00799207 -1.60808e-15)
(1.01711 -0.00791531 -2.3896e-15)
(1.01861 -0.00779655 -2.48348e-15)
(1.02005 -0.00764254 -2.56373e-15)
(1.02153 -0.00658907 -2.2456e-16)
(1.02144 -0.00745962 -2.7461e-15)
)
;
    }
}


// ************************************************************************* //
