/*--------------------------------*- C++ -*----------------------------------*\
  =========                 |
  \\      /  F ield         | OpenFOAM: The Open Source CFD Toolbox
   \\    /   O peration     | Website:  https://openfoam.org
    \\  /    A nd           | Version:  7
     \\/     M anipulation  |
\*---------------------------------------------------------------------------*/
FoamFile
{
    version     2.0;
    format      ascii;
    class       volScalarField;
    location    "3.4";
    object      p;
}
// * * * * * * * * * * * * * * * * * * * * * * * * * * * * * * * * * * * * * //

dimensions      [0 2 -2 0 0 0 0];

internalField   nonuniform List<scalar> 
344
(
-1.12532
-1.1142
-1.13264
-1.18832
0.115725
0.124039
0.13205
0.139767
0.147197
-1.17547
-1.06537
-1.0078
-0.969923
-0.940927
-0.9167
-0.894661
-0.873183
-0.851441
-0.829079
-0.805987
-0.782184
-0.757752
-0.732798
-0.707443
-0.681802
-0.655986
-0.630095
-0.60422
-0.578442
-0.55283
-0.527447
-0.502345
-0.477571
-0.453164
-0.429156
-0.405575
-0.382443
-0.359779
-0.337598
-0.31591
-0.294723
-0.274044
-0.253875
-0.234218
-0.215072
-0.196435
-0.178303
-0.160674
-0.14354
-0.126896
-0.110736
-0.0950503
-0.0798328
-0.0650746
-0.0507673
-0.0369019
-0.0234696
-0.0104612
0.00213235
0.0143203
0.0261119
0.0375161
0.0485421
0.0591988
0.0694952
0.07944
0.0890417
0.0983089
0.10725
0.115873
0.124186
0.132196
0.139912
0.147341
-1.3348
-1.06106
-1.00822
-0.968927
-0.941728
-0.918677
-0.897261
-0.876
-0.854263
-0.831791
-0.808531
-0.784532
-0.759896
-0.734744
-0.709199
-0.683381
-0.657402
-0.631362
-0.605351
-0.579449
-0.553725
-0.52824
-0.503047
-0.47819
-0.453708
-0.429632
-0.40599
-0.382804
-0.36009
-0.337864
-0.316136
-0.294913
-0.274202
-0.254003
-0.23432
-0.21515
-0.196491
-0.178341
-0.160694
-0.143545
-0.126888
-0.110715
-0.0950187
-0.0797915
-0.0650246
-0.0507096
-0.0368374
-0.0233991
-0.0103855
0.00221272
0.0144047
0.0261998
0.037607
0.0486356
0.0592945
0.0695927
0.0795389
0.0891419
0.09841
0.107352
0.115975
0.124288
0.132299
0.140015
0.147444
-1.27057
-1.05498
-1.01007
-0.969817
-0.943034
-0.920231
-0.898866
-0.877594
-0.855787
-0.833216
-0.809843
-0.785729
-0.760982
-0.735725
-0.710083
-0.684177
-0.658117
-0.632004
-0.605926
-0.579964
-0.554186
-0.528653
-0.503415
-0.478518
-0.454
-0.429892
-0.40622
-0.383007
-0.36027
-0.338022
-0.316274
-0.295033
-0.274305
-0.254092
-0.234396
-0.215214
-0.196545
-0.178385
-0.160729
-0.143572
-0.126908
-0.110728
-0.0950265
-0.079794
-0.0650225
-0.0507032
-0.0368273
-0.0233856
-0.010369
0.0022319
0.0144263
0.0262235
0.0376326
0.0486628
0.0593232
0.0696227
0.0795701
0.089174
0.098443
0.107385
0.116009
0.124323
0.132334
0.14005
0.147479
-1.20307
-1.04683
-1.00857
-0.969851
-0.943986
-0.921462
-0.900223
-0.87895
-0.857088
-0.834433
-0.810966
-0.786758
-0.761918
-0.736574
-0.710852
-0.684872
-0.658745
-0.63257
-0.606437
-0.580425
-0.554601
-0.529026
-0.503751
-0.47882
-0.454271
-0.430135
-0.406438
-0.383201
-0.360443
-0.338176
-0.31641
-0.295154
-0.274412
-0.254186
-0.234477
-0.215285
-0.196606
-0.178437
-0.160773
-0.143609
-0.126938
-0.110752
-0.0950447
-0.0798072
-0.0650312
-0.0507079
-0.0368282
-0.0233832
-0.0103635
0.00224017
0.014437
0.0262364
0.0376476
0.0486796
0.0593416
0.0696426
0.0795912
0.0891963
0.0984663
0.10741
0.116034
0.124349
0.132361
0.140077
0.147507
0.154656
-1.15
-1.03649
-1.00393
-0.968411
-0.94393
-0.921948
-0.90097
-0.879794
-0.857951
-0.835273
-0.811763
-0.787501
-0.762606
-0.737207
-0.711432
-0.685402
-0.659229
-0.633011
-0.606839
-0.58079
-0.554933
-0.529328
-0.504024
-0.479068
-0.454495
-0.430337
-0.40662
-0.383365
-0.36059
-0.338308
-0.316528
-0.295259
-0.274505
-0.254268
-0.234549
-0.215348
-0.19666
-0.178484
-0.160813
-0.143643
-0.126965
-0.110774
-0.0950621
-0.0798201
-0.0650399
-0.0507128
-0.0368297
-0.0233815
-0.010359
0.00224729
0.0144465
0.0262481
0.0376612
0.048695
0.0593587
0.0696611
0.079611
0.0892173
0.0984884
0.107433
0.116058
0.124373
0.132386
0.140103
0.147533
0.154683
-1.10596
-1.02453
-0.9974
-0.965777
-0.942916
-0.921695
-0.901107
-0.880126
)
;

boundaryField
{
    inlet
    {
        type            zeroGradient;
    }
    outlet
    {
        type            fixedValue;
        value           nonuniform 0();
    }
    wall
    {
        type            zeroGradient;
    }
    wedge1
    {
        type            wedge;
    }
    wedge2
    {
        type            wedge;
    }
    axis
    {
        type            empty;
    }
    procBoundary21to15
    {
        type            processor;
        value           nonuniform List<scalar> 
70
(
-1.03436
-1.06254
-1.09275
-1.12222
0.115487
0.123804
0.131819
0.13954
0.146974
-1.11241
-1.04351
-0.989344
-0.95455
-0.92841
-0.905708
-0.884538
-0.863822
-0.842851
-0.821257
-0.79891
-0.775814
-0.752043
-0.727701
-0.702903
-0.677768
-0.652408
-0.626927
-0.601419
-0.575969
-0.550651
-0.52553
-0.500663
-0.476098
-0.451877
-0.428035
-0.404602
-0.381603
-0.359057
-0.33698
-0.315385
-0.294282
-0.273676
-0.253573
-0.233973
-0.214879
-0.196288
-0.178197
-0.160603
-0.143501
-0.126884
-0.110748
-0.095084
-0.079885
-0.0651431
-0.0508497
-0.0369965
-0.0235746
-0.0105751
0.00201101
0.0141927
0.025979
0.037379
0.0484015
0.0590556
0.06935
0.0792933
0.0888942
0.0981609
0.107102
0.107102
)
;
    }
    procBoundary21to16
    {
        type            processor;
        value           nonuniform List<scalar> 2(0.154348 0.15449);
    }
    procBoundary21to20
    {
        type            processor;
        value           uniform -1.15772;
    }
    procBoundary21to22
    {
        type            processor;
        value           nonuniform List<scalar> 5(0.154592 0.154628 0.154628 0.161532 0.161559);
    }
    procBoundary21to27
    {
        type            processor;
        value           nonuniform List<scalar> 
67
(
-0.858376
-0.835736
-0.812233
-0.787961
-0.763047
-0.737625
-0.711824
-0.685768
-0.659569
-0.633327
-0.607131
-0.581059
-0.555181
-0.529555
-0.504233
-0.479258
-0.454669
-0.430496
-0.406764
-0.383496
-0.360708
-0.338414
-0.316624
-0.295345
-0.274581
-0.254336
-0.234609
-0.2154
-0.196706
-0.178523
-0.160846
-0.14367
-0.126988
-0.110792
-0.0950758
-0.0798298
-0.065046
-0.0507155
-0.0368293
-0.0233783
-0.0103531
0.00225561
0.0144571
0.0262607
0.0376757
0.0487112
0.0593764
0.0696802
0.0796315
0.0892389
0.0985111
0.107456
0.116083
0.124399
0.132412
0.14013
0.14756
0.15471
-1.06744
-1.01284
-0.989801
-0.962219
-0.941089
-0.92078
-0.900691
-0.858376
-0.879989
)
;
    }
}


// ************************************************************************* //
