/*--------------------------------*- C++ -*----------------------------------*\
  =========                 |
  \\      /  F ield         | OpenFOAM: The Open Source CFD Toolbox
   \\    /   O peration     | Website:  https://openfoam.org
    \\  /    A nd           | Version:  7
     \\/     M anipulation  |
\*---------------------------------------------------------------------------*/
FoamFile
{
    version     2.0;
    format      ascii;
    class       volScalarField;
    location    "1.4";
    object      p;
}
// * * * * * * * * * * * * * * * * * * * * * * * * * * * * * * * * * * * * * //

dimensions      [0 2 -2 0 0 0 0];

internalField   nonuniform List<scalar> 
344
(
4.5646
4.55373
4.54298
4.53235
4.52184
4.51143
4.50111
4.4909
4.48077
4.47073
4.46078
4.4509
4.4411
4.43138
4.42173
4.41214
4.40263
4.39317
4.38378
4.37445
4.36518
4.35597
4.34682
4.33771
4.32867
4.31967
4.31073
4.30184
4.293
4.28421
4.27546
5.19473
5.19219
5.17549
5.15172
5.12375
5.0938
5.06352
5.03391
5.0055
4.97858
4.9532
4.92932
4.90687
4.88571
4.86572
4.84676
4.82874
4.81153
4.79505
4.77921
4.76394
4.74918
4.73488
4.72098
4.70745
4.69425
4.68135
4.66872
4.65633
4.64418
4.63224
4.62049
4.60891
4.59751
4.58626
4.57516
4.56419
4.55335
4.54263
4.53203
4.52153
4.51114
4.50085
4.49065
4.48054
4.47052
4.46058
4.45071
4.44093
4.43121
4.42157
4.412
4.40249
4.39304
4.38366
4.37434
4.36507
4.35587
4.34672
4.33762
4.32858
4.31959
4.31065
4.30176
4.29293
4.28414
4.2754
5.20824
5.20522
5.18639
5.16001
5.12955
5.09743
5.0654
5.03446
5.0051
4.97752
4.9517
4.92758
4.90499
4.88378
4.8638
4.8449
4.82695
4.80984
4.79346
4.77773
4.76256
4.7479
4.73369
4.71989
4.70644
4.69332
4.68049
4.66792
4.6556
4.64351
4.63162
4.61991
4.60839
4.59702
4.58581
4.57474
4.5638
4.55299
4.5423
4.53172
4.52125
4.51087
4.5006
4.49042
4.48032
4.47031
4.46038
4.45053
4.44076
4.43105
4.42142
4.41186
4.40236
4.39292
4.38354
4.37423
4.36497
4.35577
4.34662
4.33753
4.32849
4.31951
4.31057
4.30169
4.29286
4.28408
4.27534
5.22311
5.21937
5.19801
5.16859
5.13533
5.10086
5.06701
5.03473
5.00443
4.97623
4.95003
4.92569
4.90301
4.88179
4.86186
4.84303
4.82518
4.80817
4.7919
4.77628
4.76122
4.74666
4.73255
4.71883
4.70547
4.69243
4.67967
4.66717
4.65491
4.64287
4.63103
4.61937
4.60789
4.59656
4.58538
4.57434
4.56344
4.55265
4.54198
4.53143
4.52097
4.51062
4.50036
4.4902
4.48012
4.47012
4.4602
4.45036
4.4406
4.4309
4.42128
4.41172
4.40223
4.3928
4.38343
4.37412
4.36487
4.35567
4.34653
4.33745
4.32841
4.31943
4.3105
4.30162
4.29279
4.28402
4.27529
5.23962
5.23476
5.21038
5.17743
5.14104
5.10405
5.06829
5.03467
5.00348
4.97471
4.94819
4.92369
4.90096
4.87977
4.8599
4.84118
4.82344
4.80654
4.79039
4.77488
4.75993
4.74548
4.73146
4.71783
4.70455
4.69158
4.67889
4.66646
4.65425
4.64227
4.63047
4.61886
4.60741
4.59612
4.58498
4.57397
4.56309
4.55233
4.54169
4.53115
4.52072
4.51038
4.50014
4.48999
4.47992
4.46993
4.46003
4.4502
4.44044
4.43076
4.42114
4.41159
4.40211
4.39268
4.38332
4.37402
4.36477
4.35558
4.34645
4.33736
4.32833
4.31936
4.31043
4.30156
4.29273
4.28396
4.27523
5.25815
5.25157
5.22354
5.18647
5.14661
5.10691
5.06921
5.03427
5.00224
4.97298
4.9462
4.92159
4.89886
4.87773
4.85796
4.83935
4.82173
4.80496
4.78893
4.77353
4.7587
4.74434
4.73042
4.71688
4.70368
4.69078
4.67816
4.66578
4.65363
4.6417
4.62995
4.61838
4.60697
4.59571
4.5846
4.57362
4.56276
4.55203
4.5414
4.53089
4.52047
4.51015
4.49992
4.48979
4.47973
)
;

boundaryField
{
    inlet
    {
        type            zeroGradient;
    }
    outlet
    {
        type            fixedValue;
        value           nonuniform 0();
    }
    wall
    {
        type            zeroGradient;
    }
    wedge1
    {
        type            wedge;
    }
    wedge2
    {
        type            wedge;
    }
    axis
    {
        type            empty;
    }
    procBoundary24to18
    {
        type            processor;
        value           nonuniform List<scalar> 
68
(
4.56503
4.55413
4.54335
4.5327
4.52216
4.51172
4.50139
4.49116
4.48101
4.47096
4.46099
4.4511
4.44129
4.43155
4.42189
4.4123
4.40277
4.39331
4.38391
4.37458
4.3653
4.35608
4.34692
4.33781
4.32876
4.31976
4.31081
4.30192
4.29307
4.28428
4.27553
5.18237
5.18015
5.16525
5.14373
5.11799
5.09004
5.06141
5.03308
5.00565
4.97941
4.9545
4.93093
4.90865
4.88757
4.86759
4.84861
4.83052
4.81323
4.79666
4.78073
4.76536
4.75051
4.73611
4.72212
4.7085
4.69522
4.68225
4.66955
4.6571
4.64489
4.63289
4.62109
4.60947
4.59802
4.58674
4.5756
4.5756
)
;
    }
    procBoundary24to19
    {
        type            processor;
        value           uniform 4.26677;
    }
    procBoundary24to25
    {
        type            processor;
        value           nonuniform List<scalar> 4(4.26671 4.26666 4.26661 4.26655);
    }
    procBoundary24to30
    {
        type            processor;
        value           nonuniform List<scalar> 
68
(
4.46976
4.45986
4.45005
4.4403
4.43062
4.42101
4.41147
4.40199
4.39257
4.38322
4.37392
4.36468
4.35549
4.34636
4.33728
4.32826
4.31929
4.31036
4.30149
4.29267
4.2839
4.27518
5.27922
5.26996
5.23754
5.19566
5.15193
5.10938
5.06971
5.03351
5.00072
4.97104
4.94407
4.91942
4.89673
4.87568
4.85603
4.83755
4.82007
4.80343
4.78752
4.77225
4.75752
4.74326
4.72943
4.71598
4.70285
4.69002
4.67746
4.66515
4.65305
4.64116
4.62945
4.61792
4.60655
4.59532
4.58424
4.57328
4.56245
4.55174
4.54114
4.53064
4.52024
4.50993
4.49972
4.4896
4.46976
4.47955
)
;
    }
}


// ************************************************************************* //
