/*--------------------------------*- C++ -*----------------------------------*\
  =========                 |
  \\      /  F ield         | OpenFOAM: The Open Source CFD Toolbox
   \\    /   O peration     | Website:  https://openfoam.org
    \\  /    A nd           | Version:  7
     \\/     M anipulation  |
\*---------------------------------------------------------------------------*/
FoamFile
{
    version     2.0;
    format      ascii;
    class       surfaceScalarField;
    location    "6.4";
    object      phi;
}
// * * * * * * * * * * * * * * * * * * * * * * * * * * * * * * * * * * * * * //

dimensions      [0 3 -1 0 0 0 0];

internalField   nonuniform List<scalar> 
615
(
0.000355458
-3.33361e-06
0.000355726
-3.27156e-06
0.000355989
-3.21105e-06
0.000356245
-3.15204e-06
0.000356495
-3.09447e-06
0.000356739
-3.03829e-06
0.000356977
-2.98347e-06
0.00035721
-2.92995e-06
0.000357438
-2.87769e-06
0.000357661
-2.82665e-06
0.000357879
-2.7768e-06
0.000358092
-2.72809e-06
0.0003583
-2.68048e-06
0.000358504
-2.63396e-06
0.000358704
-2.58848e-06
0.000358899
-2.54401e-06
0.000359091
-2.50051e-06
0.000359278
-2.45798e-06
0.000359461
-2.41636e-06
0.000359641
-2.37564e-06
0.000359817
-2.3358e-06
0.00035999
-2.2968e-06
0.000360159
-2.25862e-06
0.000360325
-2.22124e-06
0.000360487
-2.18465e-06
0.000360646
-2.14881e-06
0.000360803
-2.1137e-06
0.000360956
-2.07932e-06
0.000361106
-2.04563e-06
0.000361254
-2.01262e-06
0.000361399
-1.98028e-06
0.000361541
-1.94858e-06
0.00036168
-1.91752e-06
0.000361817
-1.88708e-06
0.000361951
-1.85723e-06
0.000362083
-1.82798e-06
0.000362213
-1.7993e-06
0.00036234
-1.77119e-06
0.000362465
-1.74363e-06
0.000362588
-1.71661e-06
0.000362709
-1.69014e-06
0.000362828
-1.66419e-06
0.000362944
-1.63876e-06
0.000363059
-1.61384e-06
0.000363171
-1.58944e-06
0.000363282
-1.56554e-06
0.000363391
-1.54216e-06
0.000363498
-1.51929e-06
-1.49693e-06
0.000374606
-5.11851e-06
0.000374918
-5.00419e-06
0.000375218
-4.89358e-06
0.000375509
-4.78651e-06
0.00037579
-4.68283e-06
0.000376061
-4.58238e-06
0.000376324
-4.48502e-06
0.000376578
-4.39061e-06
0.000376824
-4.29903e-06
0.000377062
-4.21015e-06
0.000377293
-4.12387e-06
0.000377517
-4.04008e-06
0.000377734
-3.95867e-06
0.000377944
-3.87956e-06
0.000378148
-3.80264e-06
0.000378347
-3.72784e-06
0.000378539
-3.65507e-06
0.000378726
-3.58426e-06
0.000378908
-3.51533e-06
0.000379084
-3.44822e-06
0.000379256
-3.38284e-06
0.000379423
-3.31916e-06
0.000379586
-3.25709e-06
0.000379744
-3.19659e-06
0.000379898
-3.13761e-06
0.000380049
-3.08008e-06
0.000380195
-3.02396e-06
0.000380337
-2.9692e-06
0.000380476
-2.91576e-06
0.000380612
-2.86359e-06
0.000380744
-2.81265e-06
0.000380873
-2.76291e-06
0.000380999
-2.71431e-06
0.000381122
-2.66684e-06
0.000381242
-2.62045e-06
0.000381359
-2.5751e-06
0.000381473
-2.53078e-06
0.000381585
-2.48744e-06
0.000381694
-2.44505e-06
0.000381801
-2.4036e-06
0.000381905
-2.36305e-06
0.000382008
-2.32337e-06
0.000382107
-2.28454e-06
0.000382205
-2.24654e-06
0.000382301
-2.20934e-06
0.000382394
-2.17292e-06
0.000382486
-2.13726e-06
0.000382576
-2.10234e-06
0.000382664
-2.06815e-06
0.00038275
-2.03465e-06
0.000382834
-2.00184e-06
0.000382917
-1.9697e-06
0.000382998
-1.9382e-06
0.000383077
-1.90735e-06
0.000383155
-1.87711e-06
0.000383231
-1.84749e-06
0.000383306
-1.81846e-06
0.000383379
-1.79002e-06
0.000383451
-1.76216e-06
0.000383522
-1.73486e-06
0.000383591
-1.70812e-06
0.000383659
-1.68193e-06
0.000383726
-1.65629e-06
0.000383792
-1.6312e-06
0.000383856
-1.60665e-06
0.00038392
-1.58265e-06
-1.5592e-06
0.00039611
-5.28434e-06
0.000396268
-5.16205e-06
0.000396418
-5.04394e-06
0.000396562
-4.92981e-06
0.000396698
-4.81945e-06
0.000396829
-4.7127e-06
0.000396953
-4.60939e-06
0.000397072
-4.50935e-06
0.000397185
-4.41245e-06
0.000397294
-4.31855e-06
0.000397397
-4.22751e-06
0.000397496
-4.1392e-06
0.000397591
-4.05352e-06
0.000397682
-3.97035e-06
0.000397769
-3.8896e-06
0.000397852
-3.81115e-06
0.000397932
-3.73492e-06
0.000398009
-3.66082e-06
0.000398082
-3.58876e-06
0.000398152
-3.51867e-06
0.00039822
-3.45048e-06
0.000398285
-3.3841e-06
0.000398347
-3.31948e-06
0.000398407
-3.25654e-06
0.000398465
-3.19524e-06
0.00039852
-3.1355e-06
0.000398574
-3.07727e-06
0.000398625
-3.0205e-06
0.000398674
-2.96514e-06
0.000398722
-2.91115e-06
0.000398768
-2.85846e-06
0.000398812
-2.80705e-06
0.000398855
-2.75687e-06
0.000398896
-2.70787e-06
0.000398935
-2.66003e-06
0.000398973
-2.6133e-06
0.00039901
-2.56764e-06
0.000399046
-2.52303e-06
0.00039908
-2.47943e-06
0.000399113
-2.43682e-06
0.000399145
-2.39515e-06
0.000399177
-2.3544e-06
0.000399207
-2.31455e-06
0.000399236
-2.27557e-06
0.000399264
-2.23744e-06
0.000399291
-2.20012e-06
0.000399317
-2.1636e-06
0.000399343
-2.12786e-06
0.000399367
-2.09287e-06
0.000399391
-2.05861e-06
0.000399415
-2.02507e-06
0.000399437
-1.99223e-06
0.000399459
-1.96006e-06
0.00039948
-1.92856e-06
0.000399501
-1.89771e-06
0.000399521
-1.86749e-06
0.00039954
-1.83789e-06
0.000399559
-1.8089e-06
0.000399578
-1.78051e-06
0.000399595
-1.75271e-06
0.000399613
-1.72549e-06
0.00039963
-1.69884e-06
0.000399646
-1.67276e-06
0.000399662
-1.64725e-06
0.000399678
-1.6223e-06
0.000399693
-1.59792e-06
-1.57411e-06
0.000412726
-5.27389e-06
0.000412712
-5.14802e-06
0.000412695
-5.02663e-06
0.000412675
-4.9095e-06
0.000412652
-4.79641e-06
0.000412626
-4.68716e-06
0.000412598
-4.58158e-06
0.000412568
-4.47948e-06
0.000412537
-4.38071e-06
0.000412503
-4.2851e-06
0.000412468
-4.19252e-06
0.000412432
-4.10282e-06
0.000412394
-4.01589e-06
0.000412355
-3.9316e-06
0.000412316
-3.84983e-06
0.000412275
-3.77049e-06
0.000412234
-3.69346e-06
0.000412191
-3.61866e-06
0.000412149
-3.54599e-06
0.000412105
-3.47536e-06
0.000412062
-3.4067e-06
0.000412017
-3.33994e-06
0.000411973
-3.27499e-06
0.000411928
-3.21178e-06
0.000411883
-3.15026e-06
0.000411838
-3.09036e-06
0.000411793
-3.03202e-06
0.000411747
-2.97518e-06
0.000411702
-2.91979e-06
0.000411657
-2.8658e-06
0.000411611
-2.81316e-06
0.000411566
-2.76182e-06
0.000411521
-2.71175e-06
0.000411476
-2.66288e-06
0.000411431
-2.61519e-06
0.000411387
-2.56864e-06
0.000411342
-2.52319e-06
0.000411298
-2.4788e-06
0.000411254
-2.43544e-06
0.00041121
-2.39308e-06
0.000411167
-2.35168e-06
0.000411124
-2.31123e-06
0.000411081
-2.27168e-06
0.000411038
-2.23301e-06
0.000410996
-2.19519e-06
0.000410954
-2.1582e-06
0.000410912
-2.12203e-06
0.000410871
-2.08663e-06
0.00041083
-2.05199e-06
0.00041079
-2.0181e-06
0.00041075
-1.98493e-06
0.00041071
-1.95245e-06
0.00041067
-1.92067e-06
0.000410631
-1.88955e-06
0.000410593
-1.85908e-06
0.000410555
-1.82925e-06
0.000410517
-1.80004e-06
0.000410479
-1.77144e-06
0.000410442
-1.74345e-06
0.000410406
-1.71604e-06
0.000410369
-1.68922e-06
0.000410333
-1.66297e-06
0.000410298
-1.63729e-06
0.000410263
-1.61218e-06
0.000410228
-1.58763e-06
0.000410194
-1.56365e-06
-1.54024e-06
0.000423427
-5.08066e-06
0.000423235
-4.95621e-06
0.000423045
-4.83635e-06
0.000422856
-4.72084e-06
0.000422669
-4.60946e-06
0.000422484
-4.50199e-06
0.000422301
-4.39824e-06
0.000422119
-4.29803e-06
0.00042194
-4.20119e-06
0.000421762
-4.10754e-06
0.000421587
-4.01696e-06
0.000421413
-3.92928e-06
0.000421242
-3.84438e-06
0.000421072
-3.76214e-06
0.000420905
-3.68243e-06
0.00042074
-3.60515e-06
0.000420576
-3.53019e-06
0.000420415
-3.45745e-06
0.000420256
-3.38684e-06
0.000420099
-3.31827e-06
0.000419944
-3.25166e-06
0.000419791
-3.18693e-06
0.00041964
-3.12401e-06
0.000419491
-3.06282e-06
0.000419344
-3.0033e-06
0.000419199
-2.94538e-06
0.000419056
-2.889e-06
0.000418915
0.000418776
0.000418638
0.000418503
0.00041837
0.000418238
0.000418108
0.00041798
0.000417854
0.00041773
0.000417607
0.000417486
0.000417367
0.000417249
0.000417134
0.000417019
0.000416907
0.000416796
0.000416686
0.000416578
0.000416472
0.000416367
0.000416264
0.000416162
0.000416061
0.000415962
0.000415865
0.000415768
0.000415673
0.00041558
0.000415488
0.000415397
0.000415307
0.000415219
0.000415132
0.000415046
0.000414961
0.000414878
0.000414795
0.000427177
0.000426816
0.00042646
0.000426111
0.000425768
0.000425432
0.000425101
0.000424776
0.000424457
0.000424144
0.000423836
0.000423533
0.000423236
0.000422944
0.000422657
0.000422375
0.000422098
0.000421826
0.000421558
0.000421295
0.000421037
0.000420783
0.000420533
0.000420287
0.000420046
0.000419809
)
;

boundaryField
{
    inlet
    {
        type            calculated;
        value           nonuniform 0();
    }
    outlet
    {
        type            calculated;
        value           nonuniform 0();
    }
    wall
    {
        type            calculated;
        value           nonuniform 0();
    }
    wedge1
    {
        type            wedge;
        value           nonuniform List<scalar> 
344
(
-1.00728e-15
4.62906e-16
6.15323e-17
3.95755e-16
4.81835e-17
-9.85174e-16
4.52187e-16
5.99835e-17
3.86003e-16
4.68961e-17
-9.63763e-16
4.41852e-16
5.84005e-17
3.76629e-16
4.57017e-17
-9.42984e-16
4.31917e-16
5.70084e-17
3.67632e-16
4.45175e-17
-9.22751e-16
4.22323e-16
5.57676e-17
3.5896e-16
4.34466e-17
-9.03244e-16
4.13017e-16
5.44628e-17
3.50591e-16
4.23362e-17
-8.84237e-16
4.04019e-16
5.31583e-17
3.42509e-16
4.13402e-17
-8.65881e-16
3.9533e-16
5.19391e-17
3.34729e-16
4.0347e-17
-8.47972e-16
3.86882e-16
5.08701e-17
3.27197e-16
3.94311e-17
-8.30696e-16
3.78691e-16
4.97131e-17
3.199e-16
3.84632e-17
-8.13821e-16
3.70738e-16
4.85827e-17
3.12836e-16
3.75896e-17
-7.97513e-16
3.63051e-16
4.75158e-17
3.06034e-16
3.67265e-17
-7.81576e-16
3.5558e-16
4.65852e-17
2.99436e-16
3.59347e-17
-7.66162e-16
3.48278e-16
4.5529e-17
2.92997e-16
3.50759e-17
-7.51099e-16
3.41244e-16
4.46131e-17
2.86838e-16
3.43428e-17
-7.36455e-16
3.34484e-16
4.36821e-17
2.80905e-16
3.36717e-17
-7.22218e-16
3.27795e-16
4.27743e-17
2.75029e-16
3.28984e-17
-7.08351e-16
3.21303e-16
4.18848e-17
2.69337e-16
3.21459e-17
3.38261e-16
-6.94844e-16
3.14986e-16
4.10089e-17
2.63801e-16
3.14143e-17
3.32027e-16
-6.81694e-16
3.08851e-16
4.01485e-17
2.58415e-16
3.06992e-17
3.25925e-16
-6.68874e-16
3.02868e-16
3.9319e-17
2.53199e-16
3.00064e-17
3.19971e-16
-6.56409e-16
2.97038e-16
3.85153e-17
2.48115e-16
2.93273e-17
3.14151e-16
-6.44249e-16
2.91376e-16
3.77312e-17
2.43183e-16
2.86674e-17
3.08483e-16
-6.32379e-16
2.85865e-16
3.69684e-17
2.38373e-16
2.80209e-17
3.02938e-16
-6.2082e-16
2.80472e-16
3.62215e-17
2.33684e-16
2.73827e-17
2.97545e-16
-6.09515e-16
2.75235e-16
3.55019e-17
2.2913e-16
2.67743e-17
2.92173e-16
-5.9855e-16
2.70028e-16
3.47574e-17
2.24669e-16
2.61926e-17
2.87081e-16
-5.87851e-16
2.65018e-16
3.39446e-17
2.20341e-16
2.82092e-16
-5.77375e-16
2.60181e-16
3.32908e-17
2.16181e-16
2.7708e-16
-5.67061e-16
2.55458e-16
3.27541e-17
2.12119e-16
2.72331e-16
-5.57085e-16
2.50832e-16
3.21148e-17
2.08144e-16
2.67526e-16
-5.47268e-16
2.46307e-16
3.14724e-17
2.04273e-16
2.63028e-16
-5.37754e-16
2.41919e-16
3.08775e-17
2.00539e-16
2.58363e-16
-5.28445e-16
2.37593e-16
3.03603e-17
1.96857e-16
2.53956e-16
-5.19327e-16
2.33406e-16
2.97651e-17
1.93302e-16
2.49639e-16
-5.10396e-16
2.29293e-16
2.92721e-17
1.89797e-16
2.45439e-16
-5.01657e-16
2.25326e-16
2.87135e-17
1.86437e-16
2.41302e-16
-4.93121e-16
2.21394e-16
2.82502e-17
1.83133e-16
2.37274e-16
-4.84759e-16
2.17597e-16
2.7731e-17
1.79939e-16
2.33334e-16
-4.76587e-16
2.1386e-16
2.73058e-17
1.7678e-16
2.29446e-16
-4.68586e-16
2.10227e-16
2.67936e-17
1.73738e-16
2.25641e-16
-4.60772e-16
2.06643e-16
2.63856e-17
1.70729e-16
2.21913e-16
-4.5311e-16
2.03174e-16
2.59105e-17
1.67832e-16
2.1827e-16
-4.45625e-16
1.99736e-16
2.55173e-17
1.64969e-16
2.14735e-16
-4.38236e-16
1.96438e-16
2.50865e-17
1.62212e-16
2.11177e-16
-4.31115e-16
1.93101e-16
2.4725e-17
1.59447e-16
2.07621e-16
-4.242e-16
1.89844e-16
2.41511e-17
1.56746e-16
2.04289e-16
-4.17274e-16
1.86742e-16
2.37545e-17
1.54159e-16
2.01011e-16
-4.10506e-16
1.83661e-16
2.34428e-17
1.51588e-16
1.97798e-16
-4.0388e-16
1.8068e-16
2.30407e-17
1.49121e-16
1.94658e-16
-3.97375e-16
1.77735e-16
2.27289e-17
1.46668e-16
1.91566e-16
-3.91006e-16
1.74891e-16
2.23386e-17
1.44307e-16
1.88539e-16
-3.84762e-16
1.7208e-16
2.20506e-17
1.41947e-16
1.85583e-16
-3.78647e-16
1.69357e-16
2.16713e-17
1.39687e-16
1.82667e-16
-3.72666e-16
1.6664e-16
2.14046e-17
1.37454e-16
1.79825e-16
-3.66785e-16
1.64032e-16
2.10482e-17
1.35306e-16
1.77022e-16
-3.61009e-16
1.6145e-16
2.07929e-17
1.3316e-16
1.74286e-16
-3.55356e-16
1.58962e-16
2.04822e-17
1.31111e-16
1.71606e-16
-3.49814e-16
1.56474e-16
2.02335e-17
1.29058e-16
1.68982e-16
-3.44385e-16
1.54073e-16
1.99138e-17
1.27069e-16
1.66413e-16
-3.39082e-16
1.51696e-16
1.96817e-17
1.25105e-16
1.63862e-16
-3.33859e-16
1.49404e-16
1.93669e-17
1.23213e-16
1.61371e-16
-3.28762e-16
1.47104e-16
1.91437e-17
1.21314e-16
1.58946e-16
-3.23779e-16
1.44889e-16
1.88321e-17
1.19501e-16
1.56566e-16
-3.18905e-16
1.42682e-16
1.86137e-17
1.1768e-16
1.54224e-16
-3.14139e-16
1.40572e-16
1.8314e-17
1.15951e-16
1.51929e-16
-3.09476e-16
1.38461e-16
1.81096e-17
1.14223e-16
)
;
    }
    wedge2
    {
        type            wedge;
        value           nonuniform List<scalar> 
344
(
-1.00691e-15
4.64268e-16
6.39369e-17
3.99293e-16
5.29593e-17
-9.84592e-16
4.53752e-16
6.25107e-17
3.89678e-16
5.17249e-17
-9.63001e-16
4.43567e-16
6.12283e-17
3.80395e-16
5.04925e-17
-9.4213e-16
4.33664e-16
5.9849e-17
3.71406e-16
4.93403e-17
-9.22006e-16
4.24065e-16
5.84188e-17
3.62731e-16
4.81601e-17
-9.02391e-16
4.14797e-16
5.71401e-17
3.54357e-16
4.71004e-17
-8.83458e-16
4.05812e-16
5.59465e-17
3.46271e-16
4.6003e-17
-8.65006e-16
3.9708e-16
5.4746e-17
3.38431e-16
4.49758e-17
-8.47191e-16
3.88645e-16
5.34794e-17
3.30863e-16
4.39405e-17
-8.29781e-16
3.80468e-16
5.23725e-17
3.23557e-16
4.30231e-17
-8.12967e-16
3.72546e-16
5.13095e-17
3.16489e-16
4.20742e-17
-7.96542e-16
3.64829e-16
5.02483e-17
3.09612e-16
4.11745e-17
-7.80662e-16
3.57349e-16
4.91213e-17
3.02961e-16
4.02604e-17
-7.65142e-16
3.50132e-16
4.81791e-17
2.96563e-16
3.94678e-17
-7.50118e-16
3.43061e-16
4.71558e-17
2.90276e-16
3.85991e-17
-7.35489e-16
3.36118e-16
4.62048e-17
2.84143e-16
3.77223e-17
-7.21238e-16
3.29485e-16
4.52849e-17
2.78312e-16
3.6993e-17
-7.07371e-16
3.23023e-16
4.43993e-17
2.72641e-16
3.62882e-17
3.38441e-16
-6.9387e-16
3.1674e-16
4.35502e-17
2.67145e-16
3.56059e-17
3.32192e-16
-6.80714e-16
3.10615e-16
4.27338e-17
2.61816e-16
3.49485e-17
3.26118e-16
-6.67901e-16
3.04665e-16
4.19328e-17
2.56623e-16
3.43091e-17
3.20191e-16
-6.55385e-16
2.98877e-16
4.11504e-17
2.51588e-16
3.36939e-17
3.14416e-16
-6.43193e-16
2.93225e-16
4.03916e-17
2.46682e-16
3.30964e-17
3.08766e-16
-6.31316e-16
2.87715e-16
3.96526e-17
2.41925e-16
3.25206e-17
3.03261e-16
-6.19714e-16
2.82368e-16
3.89373e-17
2.37305e-16
3.19704e-17
2.97863e-16
-6.08423e-16
2.77137e-16
3.82329e-17
2.328e-16
3.14228e-17
2.92694e-16
-5.97338e-16
2.72139e-16
3.75868e-17
2.28442e-16
3.08798e-17
2.87485e-16
-5.86518e-16
2.67197e-16
3.70514e-17
2.24183e-16
2.82412e-16
-5.75985e-16
2.62327e-16
3.6385e-17
2.19978e-16
2.77588e-16
-5.65785e-16
2.5758e-16
3.56403e-17
2.15891e-16
2.72723e-16
-5.55724e-16
2.52964e-16
3.50271e-17
2.11923e-16
2.68128e-16
-5.45969e-16
2.48467e-16
3.4448e-17
2.08051e-16
2.63435e-16
-5.36359e-16
2.44048e-16
3.38477e-17
2.04235e-16
2.59112e-16
-5.2698e-16
2.39773e-16
3.32052e-17
2.00553e-16
2.54725e-16
-5.17831e-16
2.35559e-16
3.2662e-17
1.96924e-16
2.50437e-16
-5.08903e-16
2.31465e-16
3.20496e-17
1.93419e-16
2.46217e-16
-5.00181e-16
2.27413e-16
3.15229e-17
1.89938e-16
2.42114e-16
-4.91639e-16
2.23508e-16
3.0932e-17
1.86563e-16
2.38077e-16
-4.83297e-16
2.19643e-16
3.04148e-17
1.83235e-16
2.3412e-16
-4.75127e-16
2.15891e-16
2.98344e-17
1.80024e-16
2.30276e-16
-4.67138e-16
2.12199e-16
2.93575e-17
1.76843e-16
2.26509e-16
-4.59304e-16
2.0862e-16
2.88043e-17
1.73772e-16
2.22822e-16
-4.5165e-16
2.05082e-16
2.83343e-17
1.70728e-16
2.19201e-16
-4.44142e-16
2.01665e-16
2.78084e-17
1.67784e-16
2.15621e-16
-4.36852e-16
1.98255e-16
2.73347e-17
1.64863e-16
2.12204e-16
-4.29598e-16
1.95026e-16
2.68147e-17
1.62078e-16
2.0893e-16
-4.22438e-16
1.91858e-16
2.65289e-17
1.5935e-16
2.05567e-16
-4.15577e-16
1.88669e-16
2.6078e-17
1.56628e-16
2.02283e-16
-4.0884e-16
1.85592e-16
2.55671e-17
1.54004e-16
1.99064e-16
-4.02235e-16
1.82543e-16
2.51579e-17
1.51389e-16
1.95899e-16
-3.95778e-16
1.79583e-16
2.46813e-17
1.48869e-16
1.9281e-16
-3.89446e-16
1.76643e-16
2.42937e-17
1.46364e-16
1.89776e-16
-3.83244e-16
1.7379e-16
2.38264e-17
1.43962e-16
1.86791e-16
-3.77161e-16
1.70963e-16
2.34604e-17
1.4156e-16
1.83881e-16
-3.71188e-16
1.68245e-16
2.30025e-17
1.3923e-16
1.8101e-16
-3.65355e-16
1.65528e-16
2.26446e-17
1.36911e-16
1.78211e-16
-3.59648e-16
1.62893e-16
2.22046e-17
1.34684e-16
1.75455e-16
-3.54048e-16
1.6027e-16
2.18299e-17
1.32452e-16
1.72749e-16
-3.48562e-16
1.57751e-16
2.14125e-17
1.30314e-16
1.70095e-16
-3.43184e-16
1.55249e-16
2.10747e-17
1.28201e-16
1.67488e-16
-3.37898e-16
1.52823e-16
2.06684e-17
1.26151e-16
1.64967e-16
-3.32746e-16
1.50411e-16
2.03528e-17
1.24114e-16
1.62488e-16
-3.27682e-16
1.48106e-16
1.99646e-17
1.2217e-16
1.60043e-16
-3.22716e-16
1.45813e-16
1.96728e-17
1.20223e-16
1.57656e-16
-3.17851e-16
1.4361e-16
1.9306e-17
1.1837e-16
1.5533e-16
-3.13089e-16
1.41408e-16
1.90288e-17
1.16508e-16
1.5306e-16
-3.08435e-16
1.39303e-16
1.86743e-17
1.14729e-16
)
;
    }
    axis
    {
        type            empty;
        value           nonuniform 0();
    }
    procBoundary13to7
    {
        type            processor;
        value           nonuniform List<scalar> 
68
(
3.05826e-06
3.00288e-06
2.94882e-06
2.89603e-06
2.84448e-06
2.79411e-06
2.74491e-06
2.69682e-06
2.64983e-06
2.60388e-06
2.55895e-06
2.51502e-06
2.47205e-06
2.43001e-06
2.38888e-06
2.34862e-06
2.30923e-06
2.27066e-06
2.2329e-06
2.19593e-06
2.15972e-06
2.12426e-06
2.08952e-06
2.05549e-06
2.02214e-06
1.98946e-06
1.95743e-06
1.92604e-06
1.89527e-06
1.8651e-06
1.83552e-06
1.80652e-06
1.77808e-06
1.75019e-06
1.72283e-06
1.69601e-06
1.6697e-06
1.6439e-06
1.61859e-06
1.59377e-06
1.56943e-06
1.54557e-06
1.52217e-06
1.49924e-06
1.47677e-06
1.45476e-06
1.43321e-06
1.41211e-06
1.39149e-06
4.79541e-06
4.69244e-06
4.59263e-06
4.49586e-06
4.40197e-06
4.31086e-06
4.22241e-06
4.13651e-06
4.05305e-06
3.97193e-06
3.89307e-06
3.81637e-06
3.74176e-06
3.66914e-06
3.59846e-06
3.52963e-06
3.46259e-06
-0.000355182
3.39727e-06
)
;
    }
    procBoundary13to12
    {
        type            processor;
        value           nonuniform List<scalar> 4(-0.000374283 -0.000395944 -0.000412737 -0.00042362);
    }
    procBoundary13to14
    {
        type            processor;
        value           nonuniform List<scalar> 5(0.000363604 0.000383982 0.000399708 0.00041016 0.000414714);
    }
    procBoundary13to18
    {
        type            processor;
        value           uniform -0.000427546;
    }
    procBoundary13to19
    {
        type            processor;
        value           nonuniform List<scalar> 
68
(
-2.83412e-06
-2.78066e-06
-2.72858e-06
-2.67783e-06
-2.62837e-06
-2.58014e-06
-2.53311e-06
-2.48723e-06
-2.44247e-06
-2.39879e-06
-2.35614e-06
-2.31451e-06
-2.27385e-06
-2.23414e-06
-2.19534e-06
-2.15743e-06
-2.12037e-06
-2.08415e-06
-2.04874e-06
-2.01411e-06
-1.98025e-06
-1.94712e-06
-1.91471e-06
-1.88301e-06
-1.85198e-06
-1.82162e-06
-1.79191e-06
-1.76283e-06
-1.73436e-06
-1.7065e-06
-1.67923e-06
-1.65254e-06
-1.62642e-06
-1.60086e-06
-1.57586e-06
-1.55142e-06
-1.52751e-06
-1.50416e-06
-1.48136e-06
-1.4591e-06
-4.71227e-06
-4.5944e-06
-4.48101e-06
-4.37184e-06
-4.26668e-06
-4.16532e-06
-4.06756e-06
-3.97322e-06
-3.88213e-06
-3.79413e-06
-3.70906e-06
-3.62679e-06
-3.5472e-06
-3.47015e-06
-3.39552e-06
-3.32322e-06
-3.25314e-06
-3.18518e-06
-3.11925e-06
-3.05527e-06
-2.99315e-06
-2.93282e-06
-2.8742e-06
-2.81723e-06
-2.76184e-06
-2.70798e-06
0.000419575
-2.65557e-06
)
;
    }
}


// ************************************************************************* //
