/*--------------------------------*- C++ -*----------------------------------*\
  =========                 |
  \\      /  F ield         | OpenFOAM: The Open Source CFD Toolbox
   \\    /   O peration     | Website:  https://openfoam.org
    \\  /    A nd           | Version:  7
     \\/     M anipulation  |
\*---------------------------------------------------------------------------*/
FoamFile
{
    version     2.0;
    format      ascii;
    class       surfaceScalarField;
    location    "15";
    object      phi;
}
// * * * * * * * * * * * * * * * * * * * * * * * * * * * * * * * * * * * * * //

dimensions      [0 3 -1 0 0 0 0];

internalField   nonuniform List<scalar> 
816
(
0.000240054
-0.000278805
0.000270945
-0.000330098
0.000308196
-0.000387998
0.000351776
-0.000451787
-0.000521489
7.72763e-05
-0.000305071
0.000144431
-0.00034596
0.000209287
-0.000394954
0.000272558
-0.000451268
0.000335479
-0.000514709
0.000399461
-0.000585472
0.000465906
-0.000663998
0.000536091
-0.000750846
0.000611107
-0.000846618
-0.000951928
7.75978e-05
-0.000326869
0.000133707
-0.000361181
0.000190689
-0.000402942
0.000248025
-0.00045229
0.000306005
-0.000509248
0.00036534
-0.000574045
0.000426982
-0.000647113
0.000491952
-0.000728969
0.000561231
-0.000820124
0.000635675
-0.000921062
0.000715978
-0.00103223
0.000802652
-0.00115404
0.000896023
-0.00128686
0.000996232
-0.001431
-0.00158668
0.000310993
-0.000303625
0.000315917
-0.000331793
0.00032436
-0.000369623
0.000338898
-0.00041748
0.000361008
-0.000474401
0.000391308
-0.000539547
0.0004299
-0.000612637
0.000476633
-0.000693847
0.000531275
-0.00078361
0.000593599
-0.000882448
0.000663427
-0.00099089
0.000740618
-0.00110942
0.000825044
-0.00123847
0.000916555
-0.00137837
0.00101494
-0.00152939
0.00111991
-0.00169165
0.00123105
-0.00186517
0.00134778
-0.00204986
0.00146941
-0.00224586
-0.00245277
0.00159512
0.000412374
-0.000282255
0.000402277
-0.000293528
0.000391889
-0.000321406
0.000387172
-0.000364906
0.000390954
-0.000421262
0.000404417
-0.000487864
0.000427873
-0.000563003
0.000461155
-0.000645919
0.000503855
-0.000736547
0.000555472
-0.000835227
0.000615516
-0.000942492
0.000683545
-0.00105892
0.00075918
-0.00118506
0.000842083
-0.00132137
0.000931919
-0.00146821
0.00102833
-0.0016258
0.00113087
-0.0017942
0.00123904
-0.00197333
0.00135215
-0.00216297
0.00146947
-0.00236318
-0.00257342
0.00159012
0.000211251
-0.000288386
0.000224588
-0.000295592
0.00024244
-0.00031138
0.000265447
-0.000344414
0.000293224
-0.000392683
0.000325488
-0.000453525
0.000362216
-0.000524592
0.000403654
-0.000604441
0.000450168
-0.000692433
0.000502137
-0.000788517
0.000559897
-0.000892987
0.000623704
-0.0010063
0.000693723
-0.00112894
0.000770018
-0.00126135
0.000852548
-0.0014039
0.000941156
-0.00155682
0.00103557
-0.00172021
0.00113538
-0.00189402
0.00124006
-0.00207801
0.00134893
-0.00227184
0.00146121
-0.00247546
-0.00268824
0.00157603
2.18986e-05
-0.000303073
5.49474e-05
-0.000328641
0.000101384
-0.000357816
0.000154328
-0.000397358
0.000209945
-0.0004483
0.000266312
-0.000509892
0.000322863
-0.000581143
0.000379825
-0.000661403
0.00043791
-0.000750518
0.000498058
-0.000848664
0.000561233
-0.000956162
0.000628283
-0.00107335
0.000699865
-0.00120052
0.000776413
-0.0013379
0.000858135
-0.00148562
0.000945029
-0.00164371
0.0010369
-0.00181208
0.00113336
-0.00199048
0.0012339
-0.00217855
0.00133781
-0.00237575
0.0014443
-0.00258195
-0.00279647
0.00155253
0.000258096
-0.000209571
0.000242491
-0.000287468
0.000247316
-0.000333466
0.000262829
-0.00037333
0.000284568
-0.000419097
0.00031125
-0.000474982
0.000342767
-0.00054141
0.000379269
-0.000617646
0.000420888
-0.000703022
0.000467714
-0.000797344
0.000519825
-0.000900775
0.000577294
-0.00101363
0.000640173
-0.00113623
0.000708466
-0.00126881
0.000782102
-0.00141154
0.000860911
-0.00156443
0.000944615
-0.00172741
0.00103282
-0.00190028
0.00112501
-0.00208267
0.00122055
-0.00227409
0.00131871
-0.00247391
0.00141866
-0.00268191
-0.00289736
0.00151955
0.000376349
-0.000215234
0.000390383
-0.000301502
0.000400121
-0.000343204
0.000404055
-0.000377263
0.000406123
-0.000421165
0.000410707
-0.000479566
0.000420984
-0.000551687
0.000438807
-0.000635469
0.000464996
-0.000729211
0.000499672
-0.000832019
0.000542523
-0.000943627
0.000593024
-0.00106413
0.000650567
-0.00119377
0.000714543
-0.00133279
0.000784357
-0.00148135
0.000859427
-0.0016395
0.000939165
-0.00180715
0.00102295
-0.00198407
0.00111013
-0.00216985
0.00119996
-0.00236392
0.00129164
-0.00256559
0.00138434
-0.00277461
-0.00299025
0.00147723
0.000443089
-0.000224308
0.000430142
-0.000288555
0.000412033
-0.000325096
0.000394631
-0.000359861
0.000387176
-0.00041371
0.000390645
-0.000483035
0.000404234
-0.000565276
0.000426845
-0.00065808
0.0004576
-0.000759966
0.000495801
-0.00087022
0.00054087
-0.000988696
0.000592293
-0.00111555
0.000649587
-0.00125107
0.000712278
-0.00139548
0.000779882
-0.00154895
0.000851889
-0.00171151
0.00092775
-0.00188301
0.00100686
-0.00206318
0.00108855
-0.00225154
0.0011721
-0.00244747
0.0012567
-0.0026502
0.00134156
-0.00285947
-0.00307454
0.00142586
3.16971e-05
-0.00028328
7.06842e-05
-0.000327542
0.000109726
-0.000364138
0.000157551
-0.000407686
0.000208375
-0.000464534
0.000260249
-0.00053491
0.000312216
-0.000617242
0.000364101
-0.000709966
0.000416275
-0.00081214
0.000469386
-0.000923331
0.000524152
-0.00104346
0.000581214
-0.00117262
0.000641054
-0.00131091
0.000703955
-0.00145838
0.000769992
-0.00161499
0.00083904
-0.00178056
0.000910797
-0.00195477
0.000984812
-0.00213719
0.00106051
-0.00232724
0.00113722
-0.00252418
0.0012142
-0.00272718
0.00129068
-0.00293595
-0.00314976
0.0013659
4.95606e-05
-0.000170148
5.05537e-05
-0.000284273
7.49233e-05
-0.000351911
0.000113916
-0.000403131
0.000161518
-0.000455287
0.000212799
-0.000515815
0.00026504
-0.000587151
0.000317072
-0.000669275
0.000368717
-0.00076161
0.000420244
-0.000863667
0.000472213
-0.0009753
0.000525287
-0.00109654
0.000580093
-0.00122742
0.00063711
-0.00136792
0.000696609
-0.00151788
0.000758644
-0.00167702
0.000823056
-0.00184497
0.000889508
-0.00202122
0.000957518
-0.0022052
0.00102649
-0.00239621
0.00109575
-0.00259344
0.00116456
-0.00279599
0.0012322
-0.00300359
-0.00321551
0.00129795
0.000441417
0.000410312
-0.000253168
0.000405247
-0.000346846
0.000407462
-0.000405346
0.000410566
-0.000458392
0.000414745
-0.000519994
0.000422038
-0.000594444
0.000434393
-0.00068163
0.000452937
-0.000780155
0.00047808
-0.00088881
0.000509703
-0.00100692
0.000547381
-0.00113421
0.00059052
-0.00127056
0.000638455
-0.00141586
0.000690485
-0.00156991
0.000745898
-0.00173244
0.000803969
-0.00190304
0.000863963
-0.00208122
0.000925136
-0.00226637
0.000986738
-0.00245781
0.00104802
-0.00265472
0.00110823
-0.0028562
0.00116666
-0.00306202
-0.00327149
0.00122264
0.000531714
-0.000268696
0.000532619
-0.000347751
0.000521159
-0.000393886
0.000504367
-0.0004416
0.000488657
-0.000504283
0.000478256
-0.000584043
0.000475516
-0.000678889
0.000481478
-0.000786117
0.000496289
-0.000903621
0.000519477
-0.00103011
0.000550189
-0.00116493
0.00058738
-0.00130775
0.00062994
-0.00145842
0.000676775
-0.00161675
0.000726853
-0.00178252
0.000779211
-0.0019554
0.000832952
-0.00213496
0.000887239
-0.00232066
0.000941283
-0.00251185
0.000994335
-0.00270777
0.00104568
-0.00290755
0.00109467
-0.003111
-0.00331749
0.00114068
0.000450583
-0.00024868
0.000420319
-0.000317487
0.000392037
-0.000365605
0.000374999
-0.000424563
0.000371714
-0.000500998
0.000379981
-0.00059231
0.000397144
-0.000696052
0.000421181
-0.000810154
0.00045072
-0.000933159
0.000484817
-0.00106421
0.000522752
-0.00120286
0.000563898
-0.0013489
0.000607658
-0.00150218
0.000653429
-0.00166252
0.000700599
-0.00182968
0.000748537
-0.00200333
0.000796607
-0.00218303
0.000844166
-0.00236822
0.000890582
-0.00255827
0.000935233
-0.00275242
0.000977521
-0.00294983
0.00101689
-0.00315037
-0.00335341
0.0010528
-2.59036e-05
-0.000292455
9.49734e-06
-0.000352888
5.56366e-05
-0.000411744
0.000110757
-0.000479683
0.000169364
-0.000559604
0.000228341
-0.000651286
0.000285767
-0.000753479
0.000340682
-0.00086507
0.000392888
-0.000985365
0.000442705
-0.00111403
0.000490624
-0.00125078
0.000537166
-0.00139544
0.000582727
-0.00154774
0.000627523
-0.00170732
0.000671577
-0.00187374
0.000714739
-0.0020465
0.000756721
-0.00222501
0.000797138
0.000835548
0.00087148
0.000904462
0.000934041
0.000959772
-3.7016e-05
2.58955e-05
-0.0004158
9.13786e-05
-0.000477227
0.000154083
-0.000542388
0.000212204
-0.000617725
0.000265758
-0.00070484
0.000315459
-0.00080318
0.000362086
-0.000911697
0.000406335
0.000448752
0.000489848
0.000529931
0.000569147
0.000607482
0.00064478
0.000680766
0.000341205
0.000371981
0.000392277
0.000405838
0.000417009
0.000428909
0.00707447
0.00134932
-0.00712584
0.00700326
0.00143711
0.00691191
0.0015172
0.00680029
0.00158885
0.00666848
0.00165136
0.00651683
0.00170418
0.00634596
0.00174691
0.00615676
0.00177932
0.00180144
0.00754582
0.00137378
-0.00757028
0.00750355
0.00147938
0.00744276
0.00157799
0.00736287
0.00166874
0.00726346
0.00175077
0.00714431
0.00182333
0.00700547
0.00188575
0.00684723
0.00193756
0.00197846
0.00795538
0.00137318
-0.00795478
0.00794085
0.00149391
0.00791018
0.00160867
0.00786241
0.00171651
0.00779669
0.0018165
0.00771229
0.00190773
0.00760867
0.00198937
0.00748553
0.0020607
0.00212116
0.00831345
0.00135158
-0.00829185
0.00832304
0.00148432
0.00831943
0.00161227
0.00830145
0.00173448
0.00826795
0.00185
0.00821781
0.00195786
0.00815006
0.00205712
0.00806386
0.0021469
0.00222643
0.00863186
0.00131389
-0.00859418
0.00866074
0.00145544
0.00867966
0.00159335
0.00868737
0.00172678
0.00868257
0.00185479
0.00866399
0.00197645
0.00863033
0.00209078
0.00858039
0.00219683
0.00229371
0.00892258
-0.00887378
0.00896559
0.00900175
0.00902991
0.00169862
0.00904881
0.00183589
0.00905712
0.00196813
0.00905348
0.00209443
0.00903648
0.00221383
0.00232541
0.00934035
0.00937736
0.00940699
0.00942793
0.00943878
0.00716627
0.000937583
0.0071711
0.00104797
0.00715785
0.00115393
0.00125465
0.00754513
0.000899358
0.00756905
0.00102406
0.00757774
0.00114524
0.00126211
0.00787248
0.000848439
0.00791231
0.000984229
0.00794007
0.00111748
0.0012474
0.00816605
0.000789578
0.0082171
0.000933186
0.00825937
0.0010752
0.00121492
0.00843873
0.000726593
0.00849667
0.000875243
0.00854879
0.00102309
0.00116953
0.00870135
0.00066283
0.0087624
0.00882011
)
;

boundaryField
{
    inlet
    {
        type            calculated;
        value           nonuniform 0();
    }
    outlet
    {
        type            calculated;
        value           nonuniform 0();
    }
    cylinder
    {
        type            calculated;
        value           nonuniform 0();
    }
    top
    {
        type            symmetryPlane;
        value           nonuniform 0();
    }
    bottom
    {
        type            symmetryPlane;
        value           nonuniform 0();
    }
    defaultFaces
    {
        type            empty;
        value           nonuniform 0();
    }
    procBoundary26to20
    {
        type            processor;
        value           nonuniform List<scalar> 
28
(
0.000254467
-0.000215716
0.000235812
-8.01716e-06
0.000273742
-2.44714e-05
0.000298861
-0.000306228
0.000279793
-0.000409911
0.000272306
-0.000195172
-7.21138e-06
0.000263887
-0.000312412
-0.000370686
-0.000434016
2.7275e-05
0.000202516
-8.19285e-05
-0.00053755
-7.40141e-05
-0.000516187
-0.000470598
6.96788e-05
8.69896e-05
-0.000342429
-0.000300947
)
;
    }
    procBoundary26to25
    {
        type            processor;
        value           nonuniform List<scalar> 
23
(
-0.00240864
-0.00259668
-0.00278835
-0.00298282
-0.00317995
-0.00102961
-0.00115644
-0.00129188
-0.00143552
-0.00158695
-0.00174565
-0.00191104
-0.00208248
0.00071508
-0.00225932
-0.000456057
-0.000508003
-0.000562683
-0.000631287
-0.000716013
-0.00081508
0.000443319
-0.000926106
)
;
    }
    procBoundary26to27
    {
        type            processor;
        value           nonuniform List<scalar> 
17
(
0.000299207
0.000350746
0.000408208
0.000471482
0.000401783
0.000597553
0.000680661
0.000771602
0.000871199
0.000691836
0.00106737
0.00119349
0.00133079
0.00147968
0.00110323
0.00175404
0.00193313
)
;
    }
    procBoundary26to31
    {
        type            processor;
        value           nonuniform List<scalar> 8(-0.00337914 -0.00714408 -0.00750691 -0.00782156 -0.00810719 -0.00837575 -0.00863759 -0.00889911);
    }
    procBoundary26to32
    {
        type            processor;
        value           nonuniform List<scalar> 
15
(
0.00126509
0.00141243
0.00155719
-0.00929718
0.00165544
0.00179888
0.0019385
0.00207349
0.00220298
0.00232607
0.000814197
0.000965377
0.00111586
0.00896147
0.000600478
)
;
    }
    procBoundary26to33
    {
        type            processor;
        value           nonuniform List<scalar> 9(0.00212423 0.00232705 0.00595044 0.00667021 0.00734283 0.0079586 0.00851311 0.00900478 0.00943812);
    }
}


// ************************************************************************* //
