/*--------------------------------*- C++ -*----------------------------------*\
  =========                 |
  \\      /  F ield         | OpenFOAM: The Open Source CFD Toolbox
   \\    /   O peration     | Website:  https://openfoam.org
    \\  /    A nd           | Version:  7
     \\/     M anipulation  |
\*---------------------------------------------------------------------------*/
FoamFile
{
    version     2.0;
    format      ascii;
    class       volScalarField;
    location    "76.999188";
    object      p;
}
// * * * * * * * * * * * * * * * * * * * * * * * * * * * * * * * * * * * * * //

dimensions      [0 2 -2 0 0 0 0];

internalField   nonuniform List<scalar> 
23200
(
-0.217573
-0.219345
-0.220418
-0.221258
-0.221992
-0.222643
-0.223248
-0.223835
-0.224414
-0.224983
-0.225531
-0.226038
-0.226476
-0.226814
-0.227016
-0.227039
-0.226844
-0.226416
-0.225724
-0.224678
-0.217867
-0.219605
-0.220659
-0.221484
-0.222206
-0.222847
-0.223443
-0.224023
-0.224596
-0.225163
-0.22571
-0.226219
-0.226663
-0.22701
-0.227224
-0.227265
-0.227088
-0.226679
-0.226014
-0.224894
-0.218423
-0.220099
-0.221116
-0.221914
-0.222612
-0.223232
-0.223811
-0.224376
-0.224937
-0.225495
-0.226037
-0.226544
-0.22699
-0.227344
-0.227569
-0.227624
-0.227458
-0.227052
-0.226418
-0.225069
-0.219226
-0.220813
-0.221779
-0.222537
-0.223199
-0.223788
-0.22434
-0.224881
-0.225423
-0.225965
-0.226495
-0.226995
-0.227439
-0.227796
-0.228029
-0.228097
-0.227936
-0.227505
-0.226948
-0.225153
-0.220257
-0.221733
-0.222632
-0.223337
-0.223952
-0.224499
-0.225013
-0.225521
-0.226034
-0.226551
-0.227062
-0.227548
-0.227985
-0.22834
-0.228577
-0.228653
-0.228498
-0.227991
-0.227631
-0.225066
-0.221491
-0.222835
-0.223655
-0.224296
-0.224852
-0.225345
-0.225811
-0.226274
-0.226747
-0.227229
-0.22771
-0.228174
-0.228595
-0.228943
-0.229175
-0.229256
-0.229119
-0.228439
-0.22851
-0.224686
-0.222898
-0.224099
-0.224829
-0.225394
-0.225879
-0.226306
-0.226709
-0.227114
-0.227534
-0.227968
-0.228409
-0.228838
-0.229234
-0.229564
-0.229784
-0.229856
-0.229781
-0.228738
-0.229628
-0.223908
-0.224453
-0.225501
-0.226132
-0.226611
-0.227012
-0.227359
-0.227684
-0.228016
-0.228367
-0.228739
-0.229124
-0.229506
-0.229861
-0.230163
-0.230358
-0.230387
-0.230462
-0.228816
-0.230879
-0.223009
-0.226126
-0.227018
-0.227543
-0.227926
-0.228231
-0.228482
-0.228714
-0.228954
-0.229218
-0.22951
-0.229822
-0.230139
-0.23044
-0.230697
-0.230854
-0.230786
-0.231066
-0.228939
-0.231629
-0.222226
-0.227893
-0.228631
-0.229046
-0.229322
-0.229517
-0.229655
-0.229775
-0.229905
-0.230062
-0.230253
-0.230473
-0.230707
-0.230933
-0.231127
-0.231233
-0.231113
-0.231401
-0.228889
-0.232367
-0.221072
-0.229737
-0.230326
-0.230625
-0.230785
-0.230855
-0.230864
-0.230851
-0.230848
-0.230877
-0.230945
-0.231051
-0.231181
-0.231313
-0.231422
-0.231456
-0.231233
-0.231606
-0.228469
-0.233044
-0.219603
-0.231643
-0.232092
-0.232274
-0.232307
-0.232237
-0.232097
-0.231929
-0.231771
-0.231647
-0.23157
-0.231539
-0.231543
-0.231559
-0.231562
-0.231507
-0.231122
-0.231641
-0.227696
-0.233476
-0.217975
-0.23361
-0.233928
-0.233988
-0.233884
-0.233658
-0.233349
-0.233004
-0.232665
-0.232365
-0.232118
-0.231928
-0.231785
-0.231664
-0.231538
-0.231379
-0.230788
-0.231434
-0.22666
-0.233403
-0.21644
-0.235642
-0.23584
-0.235774
-0.23552
-0.235121
-0.23462
-0.234075
-0.233532
-0.233031
-0.232592
-0.232221
-0.23191
-0.231634
-0.231357
-0.23107
-0.230254
-0.230904
-0.225504
-0.232504
-0.215217
-0.237757
-0.23784
-0.237643
-0.237225
-0.236633
-0.235921
-0.235151
-0.234382
-0.233657
-0.233003
-0.232432
-0.231935
-0.231484
-0.231034
-0.230585
-0.229548
-0.229972
-0.224351
-0.230528
-0.214266
-0.239979
-0.239952
-0.239613
-0.239016
-0.238213
-0.237267
-0.236251
-0.235232
-0.234262
-0.233376
-0.232586
-0.231885
-0.231242
-0.230594
-0.229931
-0.228682
-0.228588
-0.223194
-0.227473
-0.213212
-0.242346
-0.242204
-0.241711
-0.240919
-0.239884
-0.238682
-0.237398
-0.23611
-0.234878
-0.233742
-0.232717
-0.231795
-0.230936
-0.23006
-0.229117
-0.22763
-0.22676
-0.221851
-0.2236
-0.211572
-0.244903
-0.244633
-0.243973
-0.242963
-0.241674
-0.240196
-0.238626
-0.23705
-0.23554
-0.23414
-0.232867
-0.231703
-0.230596
-0.229446
-0.228141
-0.22633
-0.224523
-0.220041
-0.219189
-0.209075
-0.247703
-0.247285
-0.246435
-0.245185
-0.24362
-0.241846
-0.239971
-0.238094
-0.236293
-0.234616
-0.233075
-0.231643
-0.230243
-0.22875
-0.226988
-0.224709
-0.221909
-0.217541
-0.21429
-0.205792
-0.250804
-0.250205
-0.249139
-0.247625
-0.245762
-0.243672
-0.241477
-0.239286
-0.237182
-0.235213
-0.233382
-0.231641
-0.229883
-0.227952
-0.225623
-0.222708
-0.218935
-0.214272
-0.208886
-0.202002
-0.254264
-0.253445
-0.252132
-0.250327
-0.248142
-0.245717
-0.243188
-0.240671
-0.238252
-0.235971
-0.233816
-0.231709
-0.229506
-0.227019
-0.223998
-0.220299
-0.215605
-0.210299
-0.203452
-0.197598
-0.258146
-0.257056
-0.25546
-0.253335
-0.250804
-0.248027
-0.245151
-0.242296
-0.239545
-0.236923
-0.234392
-0.231839
-0.229081
-0.225908
-0.222072
-0.217486
-0.211902
-0.205754
-0.198405
-0.191796
-0.262506
-0.261088
-0.259171
-0.256694
-0.253793
-0.250647
-0.24741
-0.244202
-0.241094
-0.238089
-0.23511
-0.232007
-0.228566
-0.224573
-0.21982
-0.214291
-0.207829
-0.200942
-0.193063
-0.185848
-0.2674
-0.265589
-0.263308
-0.260449
-0.257154
-0.253621
-0.250007
-0.246424
-0.242923
-0.239471
-0.23595
-0.23217
-0.227908
-0.222974
-0.217231
-0.210744
-0.203466
-0.195894
-0.187592
-0.179998
-0.272874
-0.270601
-0.267914
-0.264642
-0.26093
-0.256991
-0.25298
-0.248992
-0.245043
-0.241057
-0.236872
-0.232274
-0.227055
-0.221082
-0.214313
-0.206892
-0.198862
-0.190697
-0.18203
-0.174127
-0.27897
-0.276165
-0.27303
-0.269315
-0.265162
-0.260796
-0.256361
-0.25192
-0.247446
-0.242812
-0.23782
-0.232256
-0.225958
-0.218878
-0.211082
-0.202775
-0.194067
-0.185383
-0.176391
-0.168262
-0.28572
-0.282311
-0.278689
-0.274503
-0.269887
-0.265069
-0.26017
-0.25521
-0.250106
-0.244682
-0.238724
-0.232047
-0.224572
-0.216356
-0.207559
-0.198429
-0.18911
-0.179964
-0.170688
-0.162346
-0.293146
-0.289065
-0.284919
-0.280237
-0.275135
-0.269833
-0.264415
-0.258842
-0.252971
-0.246592
-0.239502
-0.231584
-0.222866
-0.213512
-0.203762
-0.193874
-0.184003
-0.174439
-0.164905
-0.156366
-0.301255
-0.296441
-0.291741
-0.286542
-0.280927
-0.275097
-0.26908
-0.262769
-0.255967
-0.248452
-0.240067
-0.230804
-0.220811
-0.210349
-0.199701
-0.189117
-0.178743
-0.168794
-0.159027
-0.150296
-0.310042
-0.30444
-0.299161
-0.293426
-0.287267
-0.280847
-0.274125
-0.26692
-0.258996
-0.250155
-0.240334
-0.229655
-0.218389
-0.206863
-0.195376
-0.184152
-0.173314
-0.163009
-0.15303
-0.144113
-0.319482
-0.313046
-0.307172
-0.300882
-0.294138
-0.287044
-0.279477
-0.271189
-0.261936
-0.251589
-0.240219
-0.228092
-0.215579
-0.203045
-0.190779
-0.178963
-0.167697
-0.15706
-0.14689
-0.137796
-0.329525
-0.322224
-0.315744
-0.308881
-0.301494
-0.293615
-0.28503
-0.275446
-0.264653
-0.252642
-0.239647
-0.226072
-0.212359
-0.198879
-0.185888
-0.173526
-0.161862
-0.150921
-0.140582
-0.131323
-0.340097
-0.331914
-0.324824
-0.317361
-0.309258
-0.300451
-0.290645
-0.279536
-0.267003
-0.253205
-0.238549
-0.223556
-0.208702
-0.194339
-0.180677
-0.167812
-0.155781
-0.144565
-0.134081
-0.124672
-0.351092
-0.342026
-0.334326
-0.32623
-0.317311
-0.307403
-0.29615
-0.283287
-0.268841
-0.253174
-0.236861
-0.220503
-0.204577
-0.189394
-0.175113
-0.161787
-0.149423
-0.137964
-0.127363
-0.117824
-0.362372
-0.35244
-0.344133
-0.335356
-0.325496
-0.314286
-0.301348
-0.286516
-0.270024
-0.252454
-0.234521
-0.216868
-0.199945
-0.184007
-0.16916
-0.155418
-0.142756
-0.131093
-0.120403
-0.110758
-0.373763
-0.362999
-0.354088
-0.344567
-0.333617
-0.320885
-0.306024
-0.28904
-0.27042
-0.250955
-0.231469
-0.212604
-0.194763
-0.178137
-0.16278
-0.148669
-0.135752
-0.123925
-0.11318
-0.103457
-0.385057
-0.373514
-0.363998
-0.353652
-0.34144
-0.326957
-0.309954
-0.290682
-0.269901
-0.248594
-0.227642
-0.207662
-0.188986
-0.171742
-0.155934
-0.141507
-0.12838
-0.116435
-0.105671
-0.095903
-0.396012
-0.383758
-0.373634
-0.362363
-0.348703
-0.332243
-0.312916
-0.291273
-0.268353
-0.245288
-0.222982
-0.201988
-0.182566
-0.164779
-0.148585
-0.133899
-0.120614
-0.108602
-0.0978548
-0.0880809
-0.406356
-0.393474
-0.382729
-0.370422
-0.35512
-0.336479
-0.314693
-0.290655
-0.265666
-0.240963
-0.217425
-0.195529
-0.175455
-0.157205
-0.140697
-0.125815
-0.11243
-0.100406
-0.0897163
-0.0799816
-0.415791
-0.402375
-0.390992
-0.377525
-0.360395
-0.339402
-0.315081
-0.288685
-0.261743
-0.235544
-0.210912
-0.188233
-0.167609
-0.148983
-0.132236
-0.117227
-0.103806
-0.0918277
-0.0812433
-0.0716048
-0.423999
-0.410154
-0.398107
-0.383353
-0.364227
-0.340763
-0.313895
-0.285235
-0.256493
-0.228963
-0.203385
-0.180051
-0.158983
-0.140075
-0.123173
-0.108112
-0.0947224
-0.082852
-0.0724278
-0.0629555
-0.430654
-0.416486
-0.403748
-0.387586
-0.366328
-0.34033
-0.310969
-0.280192
-0.249835
-0.221156
-0.194792
-0.170935
-0.149539
-0.130449
-0.113482
-0.0984499
-0.0851624
-0.0734627
-0.0632585
-0.054028
-0.435422
-0.421045
-0.407584
-0.389907
-0.366425
-0.337895
-0.306158
-0.273459
-0.2417
-0.212067
-0.185083
-0.160847
-0.139245
-0.120081
-0.103144
-0.0882243
-0.0751124
-0.0636475
-0.0537202
-0.0447887
-0.437978
-0.423505
-0.409293
-0.390019
-0.364272
-0.333279
-0.299344
-0.264953
-0.232026
-0.201647
-0.17422
-0.149753
-0.128074
-0.108949
-0.0921433
-0.0774238
-0.0645631
-0.0534034
-0.0438105
-0.0351625
-0.438014
-0.423554
-0.408572
-0.38765
-0.359654
-0.326333
-0.290429
-0.254611
-0.220767
-0.189857
-0.16217
-0.137629
-0.116006
-0.0970385
-0.0804672
-0.0660391
-0.0535107
-0.0427354
-0.0335574
-0.0250923
-0.435242
-0.420904
-0.405143
-0.382563
-0.352395
-0.316943
-0.279342
-0.242386
-0.207887
-0.176671
-0.148913
-0.124456
-0.103028
-0.0843396
-0.0681098
-0.0540651
-0.0419655
-0.031653
-0.0229663
-0.0146905
-0.429411
-0.415297
-0.398768
-0.374559
-0.342358
-0.305024
-0.266037
-0.22825
-0.193366
-0.162072
-0.134433
-0.110225
-0.0891336
-0.070851
-0.0550813
-0.041511
-0.0299538
-0.0201924
-0.0119188
-0.00412528
-0.420308
-0.406517
-0.389247
-0.363487
-0.329448
-0.29053
-0.250493
-0.212193
-0.177199
-0.146054
-0.118725
-0.0949309
-0.0743388
-0.0565897
-0.0414112
-0.0284274
-0.0174592
-0.00831961
-0.000507684
0.00666462
-0.407764
-0.39439
-0.376433
-0.349245
-0.313612
-0.273445
-0.232712
-0.194224
-0.159392
-0.128623
-0.101806
-0.0785945
-0.0586847
-0.0415985
-0.0270865
-0.0147972
-0.00451359
0.00395251
0.0112182
0.0177035
-0.391663
-0.378794
-0.360229
-0.331776
-0.294839
-0.253786
-0.212724
-0.174367
-0.139965
-0.109812
-0.0837306
-0.0612921
-0.0421467
-0.0258705
-0.0121456
-0.00064507
0.00886289
0.0165949
0.0232341
0.0289837
-0.371942
-0.359662
-0.340591
-0.311077
-0.273161
-0.231604
-0.19058
-0.152669
-0.118967
-0.0897083
-0.0645131
-0.0430088
-0.0247863
-0.00944092
0.00337932
0.0139959
0.0226434
0.0295755
0.0355187
0.0404804
-0.348592
-0.336978
-0.31753
-0.287193
-0.248653
-0.206983
-0.166355
-0.12921
-0.0965122
-0.0683016
-0.0442052
-0.0237973
-0.00664843
0.00764491
0.0194496
0.0290876
0.0367942
0.0428605
0.048043
0.0521604
-0.321661
-0.310785
-0.291113
-0.26022
-0.221431
-0.180022
-0.140147
-0.104089
-0.0726266
-0.0456891
-0.0228732
-0.00372033
0.0122129
0.0253351
0.0360194
0.0445875
0.0512762
0.0564126
0.0607712
0.0639833
-0.291251
-0.281178
-0.261461
-0.230316
-0.191631
-0.150828
-0.112083
-0.0774023
-0.0474136
-0.0219575
-0.000596478
0.0171498
0.0317344
0.0435712
0.0530359
0.0604472
0.0660456
0.0701926
0.0736653
0.0759076
-0.257518
-0.248305
-0.228754
-0.197653
-0.159344
-0.11959
-0.0823087
-0.0492766
-0.0209882
0.00279253
0.0225345
0.0387316
0.0518437
0.0622881
0.0704397
0.0766125
0.0810543
0.0841615
0.0866918
0.087899
-0.22065
-0.212376
-0.193206
-0.162319
-0.124801
-0.0865303
-0.0509921
-0.0198584
0.0065205
0.0284481
0.0464183
0.0609344
0.07246
0.0814134
0.0881652
0.0930231
0.0962512
0.0982807
0.0998144
0.0999141
-0.18083
-0.173682
-0.154966
-0.124499
-0.0883779
-0.0518347
-0.0183164
0.010691
0.0349707
0.0548837
0.0709435
0.0836591
0.0934953
0.100869
0.106141
0.109617
0.111587
0.112508
0.112958
0.111811
-0.138292
-0.132542
-0.114117
-0.0847983
-0.0502513
-0.0157278
0.0155191
0.0421966
0.0642082
0.0819629
0.0959891
0.106798
0.114855
0.120569
0.124294
0.126333
0.127019
0.12679
0.125961
0.123248
-0.0933681
-0.0891288
-0.0713809
-0.0433686
-0.0106838
0.0215488
0.0503023
0.0744719
0.094068
0.10954
0.121426
0.130238
0.136437
0.140426
0.142545
0.143114
0.142508
0.141051
0.138612
0.133955
-0.0467735
-0.0436658
-0.0269875
-0.000510022
0.0300394
0.0597406
0.0858092
0.107319
0.124375
0.137459
0.147116
0.153856
0.158134
0.160343
0.160817
0.159899
0.157985
0.155179
0.150871
0.144569
0.00138187
0.00331061
0.0187365
0.0434424
0.0716158
0.098581
0.121805
0.140532
0.154948
0.16556
0.172918
0.177527
0.179835
0.180224
0.179026
0.176607
0.173335
0.169037
0.162855
0.157104
0.0507103
0.0513807
0.0654184
0.0881398
0.113732
0.137794
0.158047
0.173895
0.185595
0.193675
0.198684
0.201121
0.201425
0.199969
0.197085
0.193146
0.188445
0.182627
0.175106
0.169589
0.100778
0.10014
0.112666
0.133223
0.156066
0.177096
0.194287
0.20719
0.216125
0.221633
0.224261
0.224503
0.222786
0.219476
0.214904
0.209431
0.203276
0.196027
0.187451
0.181566
0.151149
0.149173
0.16008
0.178326
0.198293
0.216201
0.230273
0.240195
0.246339
0.249259
0.249497
0.247538
0.2438
0.238639
0.232385
0.225377
0.217774
0.209191
0.199673
0.193111
0.201387
0.198058
0.207259
0.223084
0.240087
0.254822
0.265751
0.272685
0.276041
0.276379
0.274237
0.270089
0.264346
0.257354
0.249434
0.240904
0.231884
0.222039
0.211595
0.20419
0.251053
0.246371
0.253801
0.267131
0.281125
0.292674
0.300469
0.304437
0.305032
0.302818
0.298326
0.292022
0.284305
0.275513
0.265958
0.255934
0.245538
0.234489
0.223129
0.214798
0.299713
0.293691
0.299313
0.310111
0.321089
0.329474
0.334179
0.335232
0.333118
0.328404
0.321613
0.313202
0.303559
0.293012
0.281864
0.270387
0.258663
0.246462
0.234197
0.224899
0.346942
0.339606
0.343408
0.351673
0.359667
0.364949
0.366638
0.364854
0.360109
0.352969
0.343949
0.333498
0.321991
0.30975
0.297063
0.284186
0.271189
0.257889
0.24474
0.234454
0.392326
0.383716
0.385712
0.39148
0.39656
0.398834
0.397611
0.393095
0.385819
0.376349
0.36519
0.352781
0.33949
0.325626
0.311468
0.297253
0.283046
0.268705
0.254701
0.243427
0.435469
0.425636
0.425867
0.42921
0.431481
0.430873
0.426873
0.419756
0.410073
0.398387
0.385197
0.370932
0.355948
0.340547
0.324996
0.309515
0.294168
0.278849
0.264028
0.25178
0.475992
0.465001
0.463536
0.464557
0.464159
0.460827
0.454209
0.444646
0.432702
0.418935
0.40384
0.387832
0.371263
0.354423
0.337567
0.320902
0.304492
0.288266
0.272674
0.259479
0.513543
0.501471
0.498401
0.497235
0.49434
0.48847
0.479421
0.467588
0.453548
0.437854
0.420993
0.403374
0.385338
0.367168
0.349107
0.33135
0.313962
0.296903
0.280591
0.266492
0.547793
0.534729
0.530168
0.52698
0.521789
0.513594
0.502324
0.488419
0.472465
0.455015
0.436545
0.417458
0.398086
0.378705
0.359548
0.340797
0.322522
0.304712
0.287741
0.27279
0.578445
0.564488
0.558572
0.553554
0.546293
0.53601
0.522748
0.506988
0.489322
0.470299
0.450391
0.429991
0.409426
0.388963
0.368827
0.349189
0.330125
0.31165
0.294084
0.278349
0.605232
0.590489
0.583376
0.576743
0.567662
0.555549
0.540544
0.523161
0.503999
0.483603
0.462437
0.440892
0.419285
0.397879
0.376888
0.356477
0.336727
0.317675
0.299587
0.283148
0.627921
0.612511
0.604371
0.596359
0.58573
0.572064
0.555581
0.536823
0.516394
0.494834
0.472604
0.450088
0.427601
0.405396
0.383683
0.362618
0.34229
0.322753
0.30422
0.287169
0.646316
0.630362
0.621384
0.612247
0.600358
0.58543
0.567748
0.547875
0.526418
0.503915
0.480823
0.457521
0.434319
0.411469
0.38917
0.367576
0.346781
0.326854
0.307959
0.290399
0.660256
0.643889
0.634272
0.624279
0.611432
0.595546
0.576955
0.556237
0.534001
0.510784
0.487038
0.463141
0.439398
0.416058
0.393316
0.371321
0.350174
0.329953
0.310783
0.29283
0.669623
0.652977
0.642928
0.632358
0.618867
0.602337
0.583134
0.561849
0.539089
0.515392
0.491207
0.46691
0.442804
0.419135
0.396096
0.373833
0.352448
0.332031
0.312676
0.294455
0.674333
0.657548
0.647281
0.63642
0.622604
0.60575
0.58624
0.564669
0.541646
0.517707
0.493303
0.468804
0.444516
0.420682
0.397493
0.375095
0.353592
0.333076
0.313627
0.295271
0.674348
0.657562
0.647295
0.636432
0.622616
0.605761
0.58625
0.564678
0.541655
0.517715
0.49331
0.468811
0.444522
0.420688
0.397499
0.3751
0.353597
0.333081
0.313632
0.295275
0.669666
0.65302
0.642968
0.632396
0.618901
0.602368
0.583163
0.561875
0.539114
0.515414
0.491229
0.46693
0.442823
0.419153
0.396113
0.373848
0.352464
0.332046
0.31269
0.294469
0.660328
0.64396
0.634339
0.624341
0.61149
0.595599
0.577003
0.556282
0.534042
0.510822
0.487073
0.463174
0.439429
0.416087
0.393344
0.371348
0.350199
0.329977
0.310807
0.292853
0.646416
0.63046
0.621477
0.612335
0.600439
0.585504
0.567816
0.547938
0.526476
0.503968
0.480872
0.457567
0.434362
0.411509
0.389208
0.367612
0.346816
0.326888
0.307992
0.290431
0.628049
0.612636
0.604491
0.596471
0.585833
0.572159
0.555668
0.536903
0.516467
0.494902
0.472667
0.450147
0.427656
0.405448
0.383732
0.362665
0.342335
0.322797
0.304263
0.287209
0.605388
0.590642
0.583521
0.576879
0.567787
0.555664
0.54065
0.523258
0.504089
0.483686
0.462514
0.440963
0.419352
0.397942
0.376948
0.356534
0.336782
0.317728
0.299638
0.283197
0.578628
0.564667
0.558743
0.553714
0.54644
0.536145
0.522872
0.507101
0.489427
0.470396
0.450481
0.430075
0.409505
0.389038
0.368897
0.349256
0.33019
0.311712
0.294145
0.278407
0.548002
0.534934
0.530363
0.527163
0.521957
0.513749
0.502465
0.488549
0.472585
0.455126
0.436648
0.417554
0.398177
0.378791
0.359629
0.340874
0.322596
0.304784
0.287811
0.272857
0.513777
0.5017
0.49862
0.497439
0.494529
0.488643
0.47958
0.467735
0.453682
0.437979
0.421109
0.403483
0.38544
0.367264
0.349198
0.331437
0.314045
0.296984
0.28067
0.266568
0.47625
0.465254
0.463778
0.464783
0.464368
0.461019
0.454385
0.444808
0.432851
0.419074
0.403968
0.387952
0.371375
0.354529
0.337668
0.320999
0.304585
0.288356
0.272761
0.259563
0.43575
0.425911
0.426131
0.429457
0.431709
0.431082
0.427065
0.419932
0.410236
0.398538
0.385338
0.371063
0.356071
0.340664
0.325106
0.309621
0.294269
0.278948
0.264125
0.251873
0.392629
0.384012
0.385996
0.391747
0.396806
0.39906
0.397819
0.393286
0.385996
0.376512
0.365342
0.352924
0.339624
0.325753
0.311588
0.297367
0.283156
0.268812
0.254806
0.243528
0.347266
0.339923
0.343711
0.351958
0.35993
0.365192
0.36686
0.365059
0.360298
0.353144
0.344113
0.33365
0.322135
0.309886
0.297192
0.284309
0.271308
0.258005
0.244853
0.234564
0.300056
0.294027
0.299635
0.310413
0.321368
0.329732
0.334415
0.33545
0.333319
0.328591
0.321787
0.313365
0.303712
0.293157
0.282002
0.270519
0.258791
0.246586
0.234319
0.225016
0.251413
0.246724
0.25414
0.26745
0.28142
0.292945
0.300719
0.304667
0.305245
0.303016
0.29851
0.292195
0.284468
0.275667
0.266105
0.256075
0.245673
0.234621
0.223259
0.214924
0.201763
0.198428
0.207613
0.223417
0.240396
0.255107
0.266013
0.272926
0.276264
0.276587
0.274431
0.270271
0.264518
0.257516
0.249589
0.241053
0.232027
0.222178
0.211733
0.204325
0.15154
0.149557
0.160449
0.178673
0.198615
0.216498
0.230546
0.240447
0.246573
0.249476
0.2497
0.247728
0.24398
0.23881
0.232548
0.225534
0.217926
0.209338
0.199818
0.193253
0.101181
0.100536
0.113047
0.133581
0.156399
0.177404
0.194571
0.207452
0.216368
0.221859
0.224473
0.224701
0.222974
0.219655
0.215075
0.209596
0.203435
0.196182
0.187604
0.181716
0.0511239
0.0517873
0.0658099
0.0885092
0.114075
0.138111
0.15834
0.174166
0.185847
0.19391
0.198903
0.201327
0.201621
0.200155
0.197264
0.193318
0.188612
0.182789
0.175266
0.169747
0.00180415
0.0037261
0.0191369
0.0438208
0.0719682
0.098907
0.122106
0.14081
0.155207
0.165802
0.173145
0.177741
0.180038
0.180417
0.179212
0.176786
0.173509
0.169207
0.163022
0.157269
-0.0463448
-0.0432432
-0.0265801
-0.000124399
0.0303992
0.0600739
0.0861175
0.107605
0.124641
0.137708
0.14735
0.154077
0.158343
0.160543
0.16101
0.160085
0.158166
0.155356
0.151045
0.144741
-0.0929353
-0.088701
-0.0709685
-0.0429774
-0.0103181
0.0218881
0.0506167
0.0747637
0.0943399
0.109794
0.121665
0.130464
0.136652
0.140632
0.142745
0.143307
0.142696
0.141235
0.138792
0.134133
-0.137855
-0.132112
-0.113702
-0.0844033
-0.0498813
-0.0153838
0.0158383
0.0424934
0.0644852
0.0822227
0.0962341
0.107031
0.115076
0.120782
0.124499
0.126532
0.127214
0.126981
0.126148
0.123433
-0.180393
-0.173252
-0.154548
-0.124102
-0.0880051
-0.0514875
-0.0179935
0.0109917
0.035252
0.055148
0.0711933
0.0838965
0.0937223
0.101087
0.106353
0.109822
0.111788
0.112706
0.113153
0.112002
-0.220214
-0.211948
-0.19279
-0.16192
-0.124427
-0.0861811
-0.0506667
-0.0195547
0.00680511
0.0287162
0.0466723
0.0611765
0.072692
0.0816372
0.0883824
0.0932351
0.0964591
0.0984855
0.100016
0.100113
-0.257087
-0.24788
-0.228341
-0.197257
-0.15897
-0.119241
-0.0819821
-0.0489711
-0.0207012
0.00306364
0.022792
0.0389777
0.0520803
0.062517
0.0706625
0.0768304
0.0812686
0.0843731
0.0869006
0.0881051
-0.290825
-0.280759
-0.261052
-0.229924
-0.19126
-0.150479
-0.111756
-0.077096
-0.0471251
-0.0216842
-0.000336041
0.0173995
0.0319753
0.043805
0.0532641
0.0606711
0.0662663
0.070411
0.0738814
0.0761213
-0.321243
-0.310374
-0.290711
-0.259834
-0.221064
-0.179676
-0.139822
-0.103783
-0.0723374
-0.0454142
-0.0226105
-0.0034676
0.0124576
0.0255734
0.0362528
0.0448173
0.0515034
0.056638
0.0609948
0.0642047
-0.348184
-0.336577
-0.317138
-0.286813
-0.248291
-0.206641
-0.166033
-0.128906
-0.0962234
-0.068026
-0.0439408
-0.0235421
-0.00640027
0.00788754
0.0196881
0.0293232
0.0370279
0.043093
0.0482743
0.0523898
-0.371546
-0.359272
-0.340209
-0.310707
-0.272807
-0.231268
-0.190261
-0.152367
-0.11868
-0.0894325
-0.0642478
-0.0427515
-0.024535
-0.00919419
0.0036228
0.0142373
0.0228836
0.0298153
0.0357579
0.0407182
-0.391281
-0.378418
-0.35986
-0.331417
-0.294494
-0.253456
-0.21241
-0.174069
-0.139679
-0.109537
-0.083465
-0.0610332
-0.0418924
-0.0256199
-0.0118972
-0.000397807
0.00910986
0.0168422
0.0234816
0.0292302
-0.407397
-0.394029
-0.376078
-0.348898
-0.313277
-0.273124
-0.232405
-0.19393
-0.15911
-0.12835
-0.10154
-0.0783345
-0.0584277
-0.0413442
-0.0268332
-0.014544
-0.0042596
0.0042077
0.0114744
0.0179593
-0.419958
-0.406173
-0.388908
-0.363155
-0.329125
-0.290219
-0.250194
-0.211905
-0.176921
-0.145784
-0.118459
-0.0946697
-0.0740799
-0.056332
-0.0411529
-0.0281682
-0.0171979
-0.0080562
-0.000242268
0.00693009
-0.42908
-0.414972
-0.398446
-0.374243
-0.342049
-0.304724
-0.265747
-0.227968
-0.193092
-0.161805
-0.134169
-0.109963
-0.0888727
-0.0705895
-0.054818
-0.0412457
-0.0296847
-0.0199204
-0.0116436
-0.00384941
-0.43493
-0.420598
-0.404841
-0.382264
-0.352101
-0.316655
-0.279062
-0.242113
-0.207619
-0.176407
-0.148651
-0.124194
-0.102765
-0.0840745
-0.0678414
-0.0537928
-0.0416887
-0.0313719
-0.0226808
-0.0144033
-0.437722
-0.423268
-0.408289
-0.38737
-0.359377
-0.32606
-0.29016
-0.254347
-0.220506
-0.189598
-0.161911
-0.137367
-0.115742
-0.09677
-0.0801935
-0.0657597
-0.0532255
-0.0424444
-0.033261
-0.0247926
-0.437708
-0.42324
-0.409031
-0.389758
-0.364012
-0.333021
-0.299088
-0.264699
-0.231773
-0.201392
-0.173964
-0.149493
-0.127808
-0.108677
-0.0918641
-0.077137
-0.0642687
-0.0531017
-0.0435021
-0.0348494
-0.435173
-0.420802
-0.407343
-0.389666
-0.366184
-0.337653
-0.305916
-0.273216
-0.241455
-0.211819
-0.18483
-0.160588
-0.138978
-0.119805
-0.102859
-0.0879297
-0.0748082
-0.0633343
-0.0533989
-0.0444613
-0.430428
-0.416266
-0.403529
-0.387366
-0.366107
-0.340106
-0.310741
-0.279962
-0.2496
-0.220915
-0.194543
-0.170678
-0.149271
-0.13017
-0.113191
-0.0981469
-0.0848476
-0.0731369
-0.062923
-0.0536852
-0.423795
-0.409955
-0.39791
-0.383155
-0.364026
-0.340557
-0.313684
-0.285018
-0.256268
-0.22873
-0.203141
-0.179795
-0.158714
-0.139792
-0.122876
-0.1078
-0.0943963
-0.0825126
-0.0720768
-0.0625957
-0.415609
-0.402198
-0.390816
-0.377348
-0.360213
-0.339215
-0.314887
-0.288482
-0.261529
-0.235319
-0.210674
-0.187981
-0.16734
-0.148697
-0.131932
-0.116906
-0.103467
-0.0914734
-0.0808753
-0.0712263
-0.406195
-0.393318
-0.382575
-0.370266
-0.35496
-0.336311
-0.314516
-0.290467
-0.265465
-0.240748
-0.217193
-0.19528
-0.175186
-0.156916
-0.140386
-0.125483
-0.112078
-0.100035
-0.0893294
-0.0795823
-0.395872
-0.383623
-0.3735
-0.362228
-0.348563
-0.332095
-0.312758
-0.291101
-0.268165
-0.245084
-0.222757
-0.201742
-0.182297
-0.164485
-0.148267
-0.133556
-0.120247
-0.108214
-0.0974472
-0.0876584
-0.384937
-0.373399
-0.363884
-0.353537
-0.34132
-0.326829
-0.309814
-0.290527
-0.269729
-0.248401
-0.227427
-0.207421
-0.188718
-0.171445
-0.155608
-0.141152
-0.127997
-0.116027
-0.10524
-0.0954547
-0.373663
-0.362903
-0.353993
-0.344471
-0.333516
-0.320777
-0.305903
-0.288903
-0.270263
-0.250775
-0.231262
-0.212369
-0.194496
-0.177837
-0.162445
-0.148301
-0.135351
-0.123494
-0.112724
-0.10298
-0.36229
-0.352361
-0.344055
-0.335278
-0.325414
-0.314197
-0.301246
-0.286397
-0.269885
-0.252289
-0.234326
-0.216639
-0.19968
-0.183704
-0.168817
-0.155035
-0.142336
-0.130638
-0.119919
-0.110249
-0.351028
-0.341964
-0.334266
-0.326169
-0.317247
-0.307332
-0.296068
-0.283188
-0.268719
-0.253024
-0.236679
-0.220282
-0.204315
-0.189088
-0.174761
-0.16139
-0.148981
-0.137483
-0.126846
-0.117279
-0.340049
-0.331868
-0.324779
-0.317316
-0.309211
-0.300399
-0.290583
-0.279457
-0.266901
-0.253073
-0.238381
-0.223345
-0.208445
-0.194031
-0.180316
-0.167398
-0.155316
-0.144054
-0.133529
-0.124087
-0.329492
-0.322192
-0.315713
-0.308851
-0.301463
-0.29358
-0.284987
-0.275388
-0.264572
-0.25253
-0.239495
-0.225873
-0.212107
-0.198569
-0.185517
-0.173095
-0.161372
-0.150377
-0.139991
-0.130692
-0.319463
-0.313027
-0.307154
-0.300866
-0.294121
-0.287026
-0.279452
-0.271151
-0.261876
-0.251498
-0.240086
-0.227907
-0.215334
-0.202735
-0.190399
-0.178513
-0.167179
-0.156479
-0.146254
-0.137113
-0.310036
-0.304433
-0.299155
-0.293422
-0.287264
-0.280844
-0.274117
-0.266902
-0.258958
-0.250086
-0.240221
-0.229486
-0.218154
-0.206553
-0.194987
-0.183682
-0.172766
-0.162387
-0.152345
-0.143372
-0.301261
-0.296445
-0.291746
-0.286549
-0.280936
-0.275108
-0.26909
-0.262772
-0.255953
-0.248407
-0.239978
-0.230654
-0.220588
-0.210042
-0.199303
-0.188626
-0.178161
-0.168126
-0.158286
-0.14949
-0.293162
-0.289079
-0.284934
-0.280255
-0.275156
-0.269858
-0.264442
-0.258864
-0.252979
-0.246573
-0.239437
-0.231455
-0.222657
-0.21321
-0.203356
-0.193361
-0.183385
-0.173721
-0.164101
-0.155486
-0.285746
-0.282334
-0.278712
-0.274529
-0.269918
-0.265107
-0.260213
-0.255252
-0.250137
-0.244688
-0.238685
-0.231943
-0.224381
-0.21606
-0.207146
-0.197894
-0.188452
-0.17919
-0.169813
-0.161381
-0.279004
-0.276194
-0.27306
-0.269349
-0.265203
-0.260846
-0.256418
-0.251981
-0.2475
-0.242843
-0.237808
-0.232176
-0.225785
-0.218592
-0.210664
-0.202217
-0.193367
-0.184547
-0.175436
-0.1672
-0.272913
-0.270635
-0.267949
-0.264682
-0.260979
-0.257051
-0.253051
-0.24907
-0.245118
-0.241113
-0.236887
-0.232221
-0.226905
-0.220807
-0.213892
-0.20631
-0.198117
-0.189792
-0.180985
-0.172955
-0.26744
-0.265624
-0.263344
-0.260492
-0.257209
-0.253689
-0.25009
-0.246518
-0.243017
-0.23955
-0.23599
-0.232143
-0.22778
-0.222712
-0.216808
-0.21014
-0.202674
-0.194914
-0.186444
-0.1787
-0.262544
-0.261122
-0.259207
-0.256738
-0.253851
-0.250722
-0.247502
-0.244307
-0.241204
-0.238187
-0.235173
-0.232003
-0.228459
-0.224325
-0.219397
-0.213665
-0.206988
-0.199881
-0.1918
-0.184403
-0.258178
-0.257084
-0.255492
-0.253377
-0.250861
-0.248104
-0.245248
-0.242411
-0.239667
-0.237037
-0.234474
-0.231855
-0.228994
-0.225674
-0.221651
-0.216841
-0.211012
-0.204607
-0.197017
-0.190181
-0.254285
-0.253464
-0.252156
-0.250363
-0.248195
-0.245793
-0.243287
-0.240789
-0.238381
-0.236095
-0.233909
-0.23174
-0.229434
-0.226797
-0.223579
-0.219637
-0.214669
-0.209064
-0.201929
-0.195787
-0.250808
-0.25021
-0.249151
-0.247651
-0.245808
-0.243741
-0.241571
-0.239401
-0.23731
-0.235338
-0.23348
-0.231679
-0.22982
-0.227737
-0.225203
-0.22203
-0.217955
-0.212953
-0.207229
-0.199974
-0.247685
-0.247272
-0.246431
-0.245198
-0.243654
-0.241904
-0.240055
-0.238202
-0.236414
-0.234735
-0.233169
-0.231679
-0.230179
-0.228535
-0.226565
-0.224016
-0.22089
-0.216144
-0.212507
-0.203568
-0.24486
-0.2446
-0.243951
-0.242958
-0.241692
-0.240239
-0.238695
-0.237143
-0.235647
-0.234245
-0.232947
-0.231728
-0.230522
-0.229224
-0.227708
-0.225621
-0.223467
-0.218576
-0.217299
-0.206677
-0.242275
-0.242147
-0.241667
-0.240894
-0.239882
-0.238706
-0.237448
-0.236182
-0.234963
-0.233825
-0.232776
-0.231798
-0.230842
-0.22982
-0.228665
-0.2269
-0.225668
-0.220327
-0.221619
-0.209006
-0.239877
-0.239868
-0.239546
-0.238969
-0.238189
-0.237269
-0.236277
-0.235278
-0.23432
-0.23343
-0.232615
-0.231858
-0.231119
-0.230325
-0.229453
-0.227926
-0.227461
-0.22162
-0.22541
-0.210491
-0.237624
-0.23773
-0.237552
-0.237156
-0.236585
-0.235898
-0.235151
-0.2344
-0.233683
-0.233024
-0.232425
-0.23187
-0.231325
-0.230729
-0.230072
-0.228759
-0.228806
-0.222732
-0.228391
-0.211419
-0.23548
-0.235705
-0.23566
-0.235427
-0.23505
-0.234572
-0.234047
-0.23352
-0.233024
-0.232575
-0.232174
-0.231805
-0.231432
-0.231011
-0.230517
-0.229427
-0.229701
-0.223844
-0.230306
-0.212276
-0.23342
-0.23377
-0.233853
-0.23377
-0.233565
-0.233276
-0.232949
-0.232622
-0.232324
-0.232064
-0.231841
-0.231637
-0.23142
-0.231149
-0.230785
-0.229922
-0.230195
-0.224962
-0.231159
-0.213436
-0.23143
-0.231914
-0.232119
-0.232173
-0.232124
-0.232002
-0.23185
-0.2317
-0.231574
-0.231481
-0.231414
-0.231355
-0.231273
-0.231132
-0.230876
-0.23022
-0.230375
-0.225967
-0.231206
-0.21494
-0.229505
-0.230132
-0.230456
-0.230636
-0.230725
-0.23075
-0.230749
-0.230752
-0.230776
-0.230826
-0.230893
-0.230958
-0.230992
-0.230958
-0.230794
-0.230303
-0.230326
-0.226726
-0.230775
-0.216572
-0.227651
-0.228427
-0.228866
-0.229162
-0.229374
-0.229527
-0.229656
-0.229788
-0.229938
-0.230108
-0.230288
-0.230457
-0.230586
-0.23064
-0.230554
-0.230172
-0.230126
-0.227151
-0.230132
-0.218087