/*--------------------------------*- C++ -*----------------------------------*\
  =========                 |
  \\      /  F ield         | OpenFOAM: The Open Source CFD Toolbox
   \\    /   O peration     | Website:  https://openfoam.org
    \\  /    A nd           | Version:  7
     \\/     M anipulation  |
\*---------------------------------------------------------------------------*/
FoamFile
{
    version     2.0;
    format      ascii;
    class       surfaceScalarField;
    location    "38";
    object      phi;
}
// * * * * * * * * * * * * * * * * * * * * * * * * * * * * * * * * * * * * * //

dimensions      [0 3 -1 0 0 0 0];

internalField   nonuniform List<scalar> 
24510
(
-4.06512e-06
4.06772e-06
-2.60567e-09
-1.52557e-05
1.11996e-05
-8.97018e-09
-3.31913e-05
1.79524e-05
-1.68491e-08
-5.74805e-05
2.43153e-05
-2.60938e-08
-8.77246e-05
3.02807e-05
-3.6519e-08
-0.000123542
3.58656e-05
-4.79958e-08
-0.000164592
4.11105e-05
-6.05287e-08
-0.000210593
4.60749e-05
-7.43239e-08
-0.000261333
5.08304e-05
-8.98269e-08
-0.000316673
5.54476e-05
-1.07714e-07
-0.000376524
5.998e-05
-1.28838e-07
-0.000440817
6.44466e-05
-1.54147e-07
-0.000509448
6.8816e-05
-1.84588e-07
-0.000582224
7.29965e-05
-2.21014e-07
-0.000658803
7.68429e-05
-2.64055e-07
-0.00073868
8.01916e-05
-3.13944e-07
-0.00082128
8.29695e-05
-3.70256e-07
-0.000906326
8.5478e-05
-4.31531e-07
-0.000994176
8.83442e-05
-4.94615e-07
9.32554e-05
-5.54558e-07
-0.00108688
-3.98591e-06
8.05363e-06
-1.49713e-05
2.21849e-05
-3.2588e-05
3.55691e-05
-5.64503e-05
4.81777e-05
-8.61585e-05
5.99888e-05
-0.000121323
7.10301e-05
-0.000161588
8.1375e-05
-0.000206648
9.11349e-05
-0.000256261
0.000100444
-0.00031025
0.000109436
-0.000368477
0.000118208
-0.000430819
0.000126788
-0.000497109
0.000135105
-0.000567074
0.000142962
-0.000640278
0.000150047
-0.000716078
0.000155991
-0.00079366
0.000160552
-0.000872407
0.000164225
-0.000952339
0.000168276
0.000174805
-0.00103389
-3.83139e-06
1.1885e-05
-1.44154e-05
3.2769e-05
-3.14071e-05
5.25608e-05
-5.44305e-05
7.12011e-05
-8.30828e-05
8.86412e-05
-0.000116958
0.000104906
-0.000155669
0.000120086
-0.000198866
0.000134331
-0.000246244
0.000147823
-0.000297547
0.000160739
-0.000352544
0.000173205
-0.000410999
0.000185243
-0.000472613
0.00019672
-0.000536962
0.000207311
-0.000603414
0.000216499
-0.000671062
0.000223638
-0.00073865
0.00022814
-0.000804862
0.000230438
-0.000869252
0.000232666
0.0002342
-0.000928647
-3.60896e-06
1.5494e-05
-1.36127e-05
4.27727e-05
-2.96969e-05
6.8645e-05
-5.14973e-05
9.30014e-05
-7.86046e-05
0.000115748
-0.000110587
0.000136887
-0.000147009
0.000156509
-0.000187452
0.000174774
-0.000231519
0.00019189
-0.000278834
0.000208054
-0.000329023
0.000223394
-0.000381676
0.000237896
-0.000436295
0.000251339
-0.000492218
0.000263233
-0.000548521
0.000272802
-0.000603921
0.000279038
-0.00065656
0.000280779
-0.000704034
0.000277912
-0.000745727
0.000274358
0.000260735
-0.000772261
-3.3292e-06
1.88232e-05
-1.25984e-05
5.2042e-05
-2.7527e-05
8.35736e-05
-4.77608e-05
0.000113235
-7.28777e-05
0.000140865
-0.000102408
0.000166418
-0.000135853
0.000189954
-0.000172701
0.000211622
-0.000212429
0.000231618
-0.000254501
0.000250127
-0.000298346
0.000267239
-0.000343318
0.000282868
-0.000388637
0.000296658
-0.000433312
0.000307908
-0.000476021
0.000315511
-0.000514996
0.000318013
-0.000547687
0.00031347
-0.000570069
0.000300295
-0.000582297
0.000286586
0.000244143
-0.000565705
-3.0053e-06
2.18285e-05
-1.14165e-05
6.04531e-05
-2.49843e-05
9.71415e-05
-4.33588e-05
0.00013161
-6.60959e-05
0.000163602
-9.2675e-05
0.000192997
-0.000122515
0.000219794
-0.000154985
0.000244092
-0.000189406
0.000266038
-0.000225038
0.000285759
-0.000261057
0.000303258
-0.000296507
0.000318318
-0.00033024
0.000330391
-0.000360823
0.000338491
-0.00038641
0.000341098
-0.000404612
0.000336215
-0.000412208
0.000321066
-0.000402674
0.000290761
-0.000378368
0.00026228
0.000175123
-0.000309348
-2.6523e-06
2.44808e-05
-1.01172e-05
6.7918e-05
-2.21686e-05
0.000109193
-3.84498e-05
0.000147891
-5.8482e-05
0.000183635
-8.1678e-05
0.000216193
-0.000107354
0.00024547
-0.000134734
0.000271472
-0.000162948
0.000294252
-0.000191008
0.000313819
-0.000217775
0.000330025
-0.000241906
0.000342448
-0.000261775
0.00035026
-0.000275383
0.000352099
-0.000280193
0.000345908
-0.000272979
0.000329
-0.000250092
0.000298179
-0.000201658
0.000242327
-0.00012956
0.000190182
5.65601e-05
-1.09974e-05
-2.28624e-06
2.6767e-05
-8.75426e-06
7.4386e-05
-1.91863e-05
0.000119625
-3.32034e-05
0.000161908
-5.02751e-05
0.000200706
-6.97284e-05
0.000235646
-9.07544e-05
0.000266496
-0.000112406
0.000293124
-0.000133582
0.000315429
-0.000152999
0.000333236
-0.000169139
0.000346165
-0.000180178
0.000353487
-0.000183897
0.000353979
-0.000177566
0.000345769
-0.000157772
0.000326114
-0.000120084
0.000291313
-5.98433e-05
0.000237938
3.10725e-05
0.000151412
0.000160828
6.04269e-05
-0.000140982
0.00035837
-1.92313e-06
2.86902e-05
-7.38131e-06
7.98442e-05
-1.6144e-05
0.000128388
-2.77894e-05
0.000173553
-4.17139e-05
0.000214631
-5.71369e-05
0.000251069
-7.30986e-05
0.000282458
-8.84483e-05
0.000308473
-0.000101816
0.000328796
-0.000111565
0.000342984
-0.000115722
0.000350322
-0.000111887
0.000349652
-9.7103e-05
0.000339195
-6.77238e-05
0.000316389
-1.92232e-05
0.000277613
5.41486e-05
0.000217941
0.000158506
0.00013358
0.000308504
1.41379e-06
0.00049597
-0.000127039
-0.000427715
0.000782702
-1.57795e-06
3.02681e-05
-6.04831e-06
8.43146e-05
-1.31409e-05
0.00013548
-2.2365e-05
0.000182778
-3.30189e-05
0.000225285
-4.41873e-05
0.000262238
-5.47298e-05
0.000293
-6.32551e-05
0.000316999
-6.80757e-05
0.000333617
-6.71391e-05
0.000342048
-5.79316e-05
0.000341115
-3.73532e-05
0.000329074
-1.55649e-06
0.000303399
5.42468e-05
0.000260586
0.000135959
0.000195901
0.000251304
0.000102596
0.000407297
-2.24122e-05
0.000623593
-0.000214883
0.000886304
-0.000389749
-0.000815021
0.00127361
-1.26352e-06
3.15316e-05
-4.79773e-06
8.78488e-05
-1.02603e-05
0.000140943
-1.70616e-05
0.000189579
-2.43713e-05
0.000232594
-3.11075e-05
0.000268974
-3.59129e-05
0.000297806
-3.71106e-05
0.000318197
-3.2637e-05
0.000329143
-1.99448e-05
0.000329356
4.12662e-06
0.000317043
4.35181e-05
0.000289682
0.000103157
0.00024376
0.000189194
0.000174549
0.000309176
7.59192e-05
0.000472915
-6.11437e-05
0.00068962
-0.000239117
0.000981537
-0.000506799
0.0013335
-0.000741708
-0.00131484
0.00183331
-9.89487e-07
3.25211e-05
-3.66071e-06
9.052e-05
-7.56239e-06
0.000144844
-1.19707e-05
0.000193987
-1.58916e-05
0.000236515
-1.80383e-05
0.000271121
-1.67911e-05
0.000296558
-1.01307e-05
0.000311536
4.45739e-06
0.000314555
3.0115e-05
0.000303698
7.07817e-05
0.000276377
0.000131407
0.000229057
0.000218202
0.000156964
0.00033893
5.3821e-05
0.000503022
-8.81728e-05
0.000722213
-0.000280334
0.00100909
-0.000525995
0.00138473
-0.000882435
0.00183765
-0.00119463
-0.00193242
0.00245523
-7.6131e-07
3.32824e-05
-2.65357e-06
9.24123e-05
-5.07565e-06
0.000147267
-7.13034e-06
0.000196042
-7.61901e-06
0.000237004
-5.00226e-06
0.000268504
2.65779e-06
0.000288898
1.77961e-05
0.000296398
4.34746e-05
0.000288877
8.35551e-05
0.000263617
0.000142917
0.000217015
0.000227713
0.000144261
0.000345652
3.9025e-05
0.000506294
-0.000106821
0.000721132
-0.00030301
0.00100315
-0.000562351
0.00136886
-0.000891705
0.00183362
-0.00134719
0.00239382
-0.00175484
-0.0026584
0.0031198
-5.79423e-07
3.38618e-05
-1.77473e-06
9.36076e-05
-2.79107e-06
0.000148283
-2.51357e-06
0.000195764
5.10114e-07
0.00023398
8.1226e-06
0.000260891
2.26583e-05
0.000274363
4.70594e-05
0.000271997
8.50551e-05
0.000250881
0.000141381
0.000207291
0.000222041
0.000136355
0.000334592
3.17095e-05
0.000488409
-0.000114792
0.000694871
-0.000313283
0.000967407
-0.000575546
0.00131928
-0.000914225
0.0017692
-0.00134162
0.00232335
-0.00190135
0.00298777
-0.00241926
-0.00346373
0.0037931
-4.38672e-07
3.43005e-05
-1.00278e-06
9.41717e-05
-6.56131e-07
0.000147936
1.97788e-06
0.00019313
8.66171e-06
0.000227297
2.16212e-05
0.000247932
4.36644e-05
0.000252319
7.83577e-05
0.000237303
0.000130243
0.000198995
0.000205105
0.00013243
0.000310257
3.12031e-05
0.000454815
-0.000112849
0.000649851
-0.000309827
0.000908276
-0.000571708
0.00124462
-0.000911886
0.00167137
-0.00134098
0.00220464
-0.0018749
0.00283997
-0.00253667
0.00359145
-0.00317074
-0.00430246
0.00443018
-3.28133e-07
3.46286e-05
-2.949e-07
9.41384e-05
1.42072e-06
0.000146221
6.51848e-06
0.000188033
1.71337e-05
0.000216681
3.59502e-05
0.000229115
6.63634e-05
0.000221906
0.000112697
0.00019097
0.000180466
0.000131226
0.000276675
3.62213e-05
0.000410088
-0.00010221
0.000591399
-0.00029416
0.000833121
-0.00055155
0.00114893
-0.000887514
0.00155257
-0.00131552
0.00205428
-0.00184269
0.00266126
-0.00248188
0.00335856
-0.00323397
0.00416272
-0.0039749
-0.00512245
0.0049827
-2.31658e-07
3.48603e-05
4.07752e-07
9.3499e-05
3.57832e-06
0.00014305
1.13564e-05
0.000180254
2.63248e-05
0.000201713
5.17229e-05
0.000203717
9.16532e-05
0.000181976
0.000151342
0.000131281
0.000237437
4.51313e-05
0.000358287
-8.46286e-05
0.000524126
-0.000268049
0.000746983
-0.000517017
0.00104008
-0.000844649
0.00141642
-0.00126386
0.00188622
-0.00178533
0.00245478
-0.00241124
0.0031156
-0.0031427
0.00384517
-0.00396354
0.00465341
-0.00478313
-0.00587838
0.00540934
-1.28316e-07
3.49886e-05
1.18479e-06
9.21859e-05
5.98872e-06
0.000138246
1.67986e-05
0.000169445
3.67279e-05
0.000181784
6.96774e-05
0.000170768
0.000120585
0.000131068
0.000195721
5.61449e-05
0.000302979
-6.21259e-05
0.000452075
-0.000233725
0.000654504
-0.000470478
0.000922983
-0.000785496
0.0012701
-0.00119176
0.00170596
-0.00169972
0.00223427
-0.00231363
0.00285169
-0.00302866
0.00353724
-0.00382825
0.0042627
-0.004689
0.00502391
-0.00554435
-0.0065423
0.00568784
1.00845e-08
3.49785e-05
2.128e-06
9.0068e-05
8.84856e-06
0.000131526
2.31933e-05
0.0001551
4.88939e-05
0.000156083
9.06219e-05
0.00012904
0.000154273
6.74165e-05
0.000247266
-3.68479e-05
0.000378767
-0.000193627
0.000559694
-0.000414653
0.00080225
-0.000713034
0.00111867
-0.00110192
0.00151892
-0.00159201
0.00200747
-0.00218827
0.00257903
-0.00288519
0.0032189
-0.00366853
0.0038955
-0.00450485
0.0045803
-0.00537381
0.00525528
-0.00621933
-0.00710655
0.00581953
2.02801e-07
3.47757e-05
3.33109e-06
8.69397e-05
1.23653e-05
0.000122491
3.09045e-05
0.000136561
6.33884e-05
0.000123599
0.000115362
7.70658e-05
0.000193773
-1.09942e-05
0.000307221
-0.000150296
0.00046602
-0.000352427
0.000681844
-0.000630476
0.000966622
-0.000997812
0.0013304
-0.0014657
0.00177812
-0.00203973
0.00230601
-0.00271615
0.00289868
-0.00347786
0.00353067
-0.00430052
0.00416721
-0.00514139
0.00478251
-0.00598911
0.0053504
-0.00678721
-0.0075878
0.00583164
4.81821e-07
3.42939e-05
4.88914e-06
8.25324e-05
1.67417e-05
0.000110639
4.02825e-05
0.00011302
8.07412e-05
8.31405e-05
0.000144617
1.31901e-05
0.000239946
-0.000106323
0.000376424
-0.000286774
0.000565172
-0.000541174
0.00081782
-0.000883123
0.00114459
-0.00132458
0.00155125
-0.00187236
0.0020354
-0.00252389
0.00258364
-0.00326439
0.00317157
-0.0040658
0.00376762
-0.00489657
0.00434159
-0.00571535
0.00487316
-0.00652069
0.00534283
-0.00725688
-0.00801848
0.00577352
8.68713e-07
3.34252e-05
6.88762e-06
7.65135e-05
2.21601e-05
9.53663e-05
5.16343e-05
8.35456e-05
0.000101395
3.33799e-05
0.000178933
-6.43485e-05
0.000293324
-0.000220714
0.000455107
-0.000448558
0.000675588
-0.000761655
0.000965188
-0.00117272
0.00133064
-0.00169003
0.00177132
-0.00231305
0.00227611
-0.00302867
0.00282265
-0.00381093
0.00338117
-0.00462432
0.00392083
-0.00543623
0.00442071
-0.00621523
0.00486743
-0.0069674
0.00527001
-0.00765947
-0.00839095
0.00564247
1.3835e-06
3.20417e-05
9.39801e-06
6.8499e-05
2.8769e-05
7.59952e-05
6.51977e-05
4.7117e-05
0.000125659
-2.70812e-05
0.000218611
-0.0001573
0.00035399
-0.000356093
0.000542721
-0.000637289
0.000795374
-0.00101431
0.00111968
-0.00149702
0.001517
-0.00208736
0.00197889
-0.00277494
0.00248568
-0.00353546
0.0030091
-0.00433435
0.00351929
-0.00513451
0.00399215
-0.00590909
0.00441714
-0.00664022
0.00479333
-0.00734359
0.00513595
-0.00800208
-0.00870956
0.00545456
2.04154e-06
3.00002e-05
1.24739e-05
5.80666e-05
3.66735e-05
5.17957e-05
8.11216e-05
2.66881e-06
0.000153673
-9.96329e-05
0.00026364
-0.000267267
0.000421491
-0.000513945
0.000637837
-0.000853634
0.000921319
-0.00129779
0.00127535
-0.00185106
0.00169447
-0.00250647
0.00216214
-0.00324261
0.00265233
-0.00402565
0.00313542
-0.00481745
0.00358656
-0.00558565
0.00399137
-0.00631389
0.00434966
-0.00699851
0.00466827
-0.00766221
0.00496502
-0.00829884
-0.00899467
0.00525014
2.85335e-06
2.71468e-05
1.61491e-05
4.47709e-05
4.59293e-05
2.20155e-05
9.94529e-05
-5.08548e-05
0.000185384
-0.000185564
0.000313663
-0.000395545
0.000494786
-0.000695068
0.000738122
-0.00109697
0.00104903
-0.00160869
0.00142516
-0.00222719
0.00185359
-0.00293491
0.0023111
-0.00370011
0.00276898
-0.00448353
0.00320092
-0.00524939
0.00359028
-0.00597501
0.00393259
-0.0066562
0.00423518
-0.0073011
0.00450904
-0.00793607
0.00477179
-0.00856159
-0.00925273
0.00502984
3.82487e-06
2.33219e-05
2.04373e-05
2.81584e-05
5.65407e-05
-1.40879e-05
0.000120128
-0.000114443
0.000220529
-0.000285965
0.000367955
-0.000542972
0.000572242
-0.000899354
0.00084042
-0.00136515
0.00117323
-0.0019415
0.00156169
-0.00261565
0.00198606
-0.00335928
0.00241922
-0.00413326
0.00283392
-0.00489823
0.00321051
-0.00562599
0.00354138
-0.00630588
0.00383004
-0.00694486
0.00408811
-0.00755916
0.00432763
-0.00817559
0.0045638
-0.00879776
-0.00948886
0.00479993
4.95802e-06
1.83639e-05
2.53331e-05
7.7833e-06
6.84597e-05
-5.72145e-05
0.000142973
-0.000188956
0.000258627
-0.000401619
0.00042542
-0.000709765
0.000651677
-0.00112561
0.000940938
-0.00165441
0.0012883
-0.00228887
0.00167818
-0.00300553
0.00208591
-0.00376702
0.00248399
-0.00453134
0.00285002
-0.00526426
0.00317244
-0.00594841
0.00345156
-0.00658499
0.00369612
-0.00718943
0.00391919
-0.00778223
0.00413186
-0.00838826
0.00434638
-0.00901229
-0.00970604
0.00456357
6.25105e-06
1.21129e-05
3.08119e-05
-1.67776e-05
8.15854e-05
-0.000107988
0.000167694
-0.000275065
0.000298986
-0.00053291
0.000484618
-0.000895397
0.000730465
-0.00137146
0.00103555
-0.00195949
0.00138889
-0.00264221
0.00176935
-0.00338599
0.00215015
-0.00414781
0.00250663
-0.00488782
0.00282323
-0.00558085
0.00309613
-0.00622132
0.00333146
-0.00682032
0.00354053
-0.0073985
0.00373589
-0.00797759
0.00392678
-0.00857914
0.00412252
-0.00920803
-0.0099056
0.00432208
7.69856e-06
4.41432e-06
3.68298e-05
-4.59088e-05
9.57626e-05
-0.000166921
0.000193887
-0.000373189
0.000340704
-0.000679728
0.000543812
-0.0010985
0.0008057
-0.00163335
0.00112017
-0.00227396
0.00147052
-0.00299256
0.00183202
-0.00374749
0.00217869
-0.00449448
0.00249109
-0.00520022
0.00276088
-0.00585065
0.00299057
-0.00645101
0.00318977
-0.00701952
0.00337035
-0.00757908
0.0035432
-0.00815043
0.00371547
-0.00875141
0.00389397
-0.00938653
-0.0100883
0.00407664
9.29101e-06
-4.87669e-06
4.3322e-05
-7.99398e-05
0.00011078
-0.000234379
0.000221028
-0.000483437
0.000382699
-0.000841399
0.000601056
-0.00131686
0.00087442
-0.00190671
0.00119119
-0.00259073
0.00153008
-0.00333145
0.00186518
-0.00408259
0.00217382
-0.00480312
0.00244284
-0.00546924
0.00267043
-0.00607823
0.0028635
-0.00664409
0.00303317
-0.00718919
0.00319049
-0.0077364
0.00334429
-0.00830424
0.0034998
-0.00890691
0.00366185
-0.00954858
-0.0102543
0.00382788
1.10141e-05
-1.58907e-05
5.02014e-05
-0.000119127
0.00012637
-0.000310547
0.000248493
-0.00060556
0.000423743
-0.00101665
0.000654314
-0.00154743
0.000933861
-0.00218626
0.00124581
-0.00290268
0.00156603
-0.00365167
0.0018698
-0.00438636
0.00213936
-0.00507267
0.00236786
-0.00569774
0.00255861
-0.00626899
0.00272111
-0.00680659
0.00286649
-0.00733457
0.00300425
-0.00787417
0.00314119
-0.00844117
0.00328095
-0.00904668
0.00342691
-0.00969454
-0.0104038
0.00357637
1.28477e-05
-2.87385e-05
5.73568e-05
-0.000163636
0.000142209
-0.000395399
0.000275564
-0.000738915
0.000462525
-0.00120361
0.000701606
-0.00178651
0.000981704
-0.00246636
0.00128227
-0.00320325
0.00157834
-0.00394773
0.00184827
-0.00465629
0.00207987
-0.00530428
0.00227185
-0.00588973
0.0024311
-0.00642823
0.00256811
-0.00694361
0.00269311
-0.00745956
0.0028138
-0.00799486
0.00293518
-0.00856255
0.00305972
-0.00917121
0.0031897
-0.00982453
-0.0105366
0.00332257
1.47656e-05
-4.35041e-05
6.46535e-05
-0.000213524
0.000157925
-0.00048867
0.000301465
-0.000882455
0.00049773
-0.00139988
0.000741164
-0.00202995
0.00101627
-0.00274146
0.00129994
-0.00348692
0.00156824
-0.00421603
0.00180385
-0.00489189
0.00200003
-0.00550046
0.00215989
-0.00604959
0.0022924
-0.00656073
0.00240796
-0.00705917
0.00251535
-0.00756695
0.00262057
-0.00810008
0.00272713
-0.00866911
0.00283665
-0.00928073
0.00295069
-0.00993856
-0.0106528
0.00306688
1.67351e-05
-6.02392e-05
7.19351e-05
-0.000268724
0.00017311
-0.000589845
0.000325398
-0.00103474
0.000528123
-0.0016026
0.000771568
-0.00227339
0.00103661
-0.0030065
0.00129917
-0.00374949
0.00153786
-0.00445472
0.00174016
-0.0050942
0.0019042
-0.00566451
0.00203619
-0.00618158
0.00214597
-0.00667051
0.00224311
-0.00715631
0.0023348
-0.00765864
0.00242551
-0.00819078
0.00251764
-0.00876124
0.00261223
-0.00937533
0.00271028
-0.0100366
-0.0107523
0.00280973
1.87173e-05
-7.89564e-05
7.90281e-05
-0.000329035
0.000187338
-0.000698155
0.000346588
-0.00119399
0.00055264
-0.00180865
0.000791838
-0.00251259
0.00104251
-0.00325717
0.00128111
-0.00398809
0.00148979
-0.0046634
0.00166081
-0.00526522
0.00179622
-0.00579992
0.00190414
-0.0062895
0.00199439
-0.00676076
0.0020753
-0.00723722
0.00215253
-0.00773587
0.00222929
-0.00826755
0.00230718
-0.00883913
0.00238684
-0.00945499
0.00246888
-0.0101186
-0.0108349
0.0025515
2.06687e-05
-9.96251e-05
8.5749e-05
-0.000394115
0.000200184
-0.00081259
0.00036433
-0.00135814
0.000570454
-0.00201478
0.000801482
-0.00274362
0.0010344
-0.00349009
0.00124746
-0.00420115
0.00142684
-0.00484278
0.00156913
-0.00540751
0.00167928
-0.00591007
0.00176636
-0.00637658
0.00183953
-0.00683393
0.00190574
-0.00730343
0.00196929
-0.00779942
0.00203243
-0.00833068
0.00209616
-0.00890286
0.00216087
-0.0095197
0.00222686
-0.0101846
-0.0109006
0.00229259
2.25424e-05
-0.000122167
9.19117e-05
-0.000463485
0.000211248
-0.000931926
0.000378034
-0.00152493
0.000581023
-0.00221777
0.000800474
-0.00296307
0.00101323
-0.00370285
0.00120023
-0.00438815
0.00135176
-0.00499431
0.00146805
-0.00552379
0.001556
-0.00599802
0.00162485
-0.00644543
0.00168275
-0.00689183
0.0017353
-0.00735598
0.00178566
-0.00784978
0.00183533
-0.00838036
0.00188493
-0.00895246
0.00193465
-0.00956942
0.00198459
-0.0102346
-0.0109494
0.00203339
2.429e-05
-0.000146457
9.73371e-05
-0.000536532
0.000220176
-0.00105477
0.000387253
-0.001692
0.0005841
-0.00241461
0.000789195
-0.00316816
0.000980288
-0.00389394
0.00114153
-0.00454939
0.0012671
-0.00511987
0.00136005
-0.00561674
0.00142844
-0.00606641
0.00148111
-0.0064981
0.00152504
-0.00693576
0.00156461
-0.00739555
0.00160206
-0.00788722
0.00163835
-0.00841665
0.00167382
-0.00898793
0.00170855
-0.00960415
0.00174243
-0.0102685
-0.0109813
0.0017743
2.5864e-05
-0.000172322
0.000101861
-0.000612529
0.000226682
-0.00117959
0.00039171
-0.00185703
0.000579727
-0.00260263
0.000768347
-0.00335678
0.000937059
-0.00406265
0.00107345
-0.00468579
0.0011751
-0.00522152
0.00124718
-0.00568882
0.00129819
-0.00611743
0.00133624
-0.00653616
0.00136713
-0.00696664
0.00139415
-0.00742257
0.00141885
-0.00791193
0.00144181
-0.00843961
0.00146316
-0.00900929
0.00148289
-0.00962387
0.00150075
-0.0102863
-0.0109962
0.00151571
2.72196e-05
-0.000199541
0.000105344
-0.000690653
0.000230555
-0.0013048
0.000391294
-0.00201777
0.00056819
-0.00277953
0.000738857
-0.00352745
0.000885108
-0.0042089
0.000997916
-0.00479859
0.00107771
-0.00530132
0.00113109
-0.00574219
0.00116648
-0.00615283
0.00119108
-0.00656075
0.00120954
-0.00698511
0.0012243
-0.00743732
0.00123635
-0.00792398
0.00124601
-0.00844927
0.00125326
-0.00901654
0.001258
-0.00962862
0.0012599
-0.0102882
-0.0109943
0.001258
2.83167e-05
-0.000227858
0.000107672
-0.000770008
0.000231669
-0.00142879
0.000386056
-0.00217216
0.000549972
-0.00294344
0.000701784
-0.00367926
0.000825971
-0.00433309
0.000916662
-0.00488929
0.000976566
-0.00536122
0.00101309
-0.00577872
0.00103426
-0.006174
0.00104625
-0.00657274
0.00105271
-0.00699157
0.00105538
-0.00743999
0.00105485
-0.00792346
0.00105123
-0.00844564
0.0010444
-0.00900971
0.00103421
-0.00961843
0.00102023
-0.0102742
-0.0109757
0.00100156
2.91215e-05
-0.000256979
0.000108768
-0.000849655
0.000229984
-0.00155001
0.000376186
-0.00231836
0.000525698
-0.00309295
0.00065824
-0.0038118
0.000761097
-0.00443595
0.000831208
-0.0049594
0.000872998
-0.00540301
0.00089421
-0.00579993
0.000902229
-0.00618202
0.000902218
-0.00657272
0.000896983
-0.00698634
0.000887677
-0.00743068
0.000874623
-0.00791041
0.00085775
-0.00842877
0.000836885
-0.00898885
0.000811814
-0.00959336
0.000782076
-0.0102445
-0.0109404
0.00074676
2.96077e-05
-0.000286587
0.000108588
-0.000928636
0.00022554
-0.00166696
0.000361988
-0.00245481
0.00049608
-0.00322704
0.000609331
-0.00392505
0.000691804
-0.00451842
0.000742847
-0.00501044
0.000768095
-0.00542826
0.000775258
-0.00580709
0.000770942
-0.0061777
0.000759375
-0.00656116
0.000742637
-0.0069696
0.000721447
-0.00740949
0.000695914
-0.00788487
0.000665848
-0.0083987
0.000630996
-0.008954
0.000591099
-0.00955346
0.000545696
-0.0101991
-0.0108886
0.000493985
2.97571e-05
-0.000316344
0.000107122
-0.001006
0.000218448
-0.00177829
0.00034385
-0.00258021
0.000461872
-0.00334507
0.00055611
-0.00401929
0.000619263
-0.00458157
0.000652667
-0.00504384
0.000662728
-0.00543832
0.000656857
-0.00580122
0.000640826
-0.00616167
0.000618018
-0.00653835
0.000589923
-0.0069415
0.000556931
-0.0073765
0.000518972
-0.00784692
0.000475788
-0.00835552
0.000427043
-0.00890525
0.00037242
-0.00949884
0.00031125
-0.0101379
-0.0108209
0.000243472
2.956e-05
-0.000345904
0.000104393
-0.00108083
0.000208875
-0.00188277
0.000322214
-0.00269355
0.000423827
-0.00344668
0.000499548
-0.00409501
0.000544488
-0.00462651
0.000561564
-0.00506092
0.000557589
-0.00543435
0.000539493
-0.00578312
0.000512216
-0.0061344
0.000478404
-0.00650454
0.000439062
-0.00690216
0.000394352
-0.00733179
0.000344051
-0.00779661
0.000287811
-0.00829928
0.000225302
-0.00884274
0.000156116
-0.00942965
7.96371e-05
-0.0100614
-0.0107336
-7.59762e-06
2.90148e-05
-0.000374919
0.000100452
-0.00115227
0.000197032
-0.00197935
0.00029755
-0.00279407
0.000382677
-0.00353181
0.000440523
-0.00415286
0.000468348
-0.00465434
0.000470273
-0.00506284
0.000453229
-0.0054173
0.000423549
-0.00575344
0.000385384
-0.00609623
0.000340753
-0.00645991
0.000290273
-0.00685168
0.000233901
-0.00727542
0.00017142
-0.00773413
0.000102108
-0.00822996
2.57486e-05
-0.00876638
-5.77661e-05
-0.00934614
-0.000149438
-0.00996976
-0.010633
-0.000250088
2.81277e-05
-0.000403047
9.53717e-05
-0.00121952
0.000183163
-0.00206714
0.000270336
-0.00288124
0.000339102
-0.00360057
0.000379808
-0.00419357
0.000391574
-0.0046661
0.00037939
-0.00505066
0.000350082
-0.00538799
0.000309331
-0.00571269
0.000260555
-0.00604745
0.000205242
-0.00640459
0.0001438
-0.00679024
7.56996e-05
-0.00720732
6.02414e-07
-0.00765904
-8.10094e-05
-0.00814835
-0.000170554
-0.00867684
-0.000268441
-0.00924825
-0.000375443
-0.00986276
-0.0105169
-0.000491502
2.69114e-05
-0.000429958
8.92463e-05
-0.00128185
0.000167526
-0.00214542
0.000241038
-0.00295475
0.000293729
-0.00365326
0.000318076
-0.00421791
0.000314773
-0.0046628
0.000289393
-0.00502528
0.000248494
-0.0053471
0.000197086
-0.00566128
0.00013794
-0.00598831
7.19913e-05
-0.00633864
-8.24066e-07
-0.00671743
-7.98553e-05
-0.00712829
-0.000166346
-0.00757255
-0.000261103
-0.0080536
-0.000364103
-0.00857384
-0.00047614
-0.00913621
-0.000597885
-0.00974101
-0.0103852
-0.00072959
2.53846e-05
-0.000455343
8.21811e-05
-0.00133865
0.000150389
-0.00221363
0.0002101
-0.00301446
0.000247118
-0.00369028
0.000255904
-0.0042267
0.000238448
-0.00464535
0.000200667
-0.0049875
0.000148738
-0.00529517
8.70012e-05
-0.00559955
1.75757e-05
-0.00591888
-5.86349e-05
-0.00626243
-0.000141733
-0.00663433
-0.00023252
-0.0070375
-0.000331059
-0.00747401
-0.000438224
-0.00794643
-0.000554468
-0.00845759
-0.000680434
-0.00901025
-0.000816727
-0.00960472
-0.0102382
-0.000963735
2.35705e-05
-0.000478913
7.42905e-05
-0.00138937
0.000132014
-0.00227135
0.000177935
-0.00306038
0.000199766
-0.00371211
0.000193779
-0.00422071
0.00016301
-0.00461458
0.000113521
-0.00493801
5.10129e-05
-0.00523266
-2.07939e-05
-0.00552774
-0.000100049
-0.00583963
-0.000186563
-0.00617592
-0.000280463
-0.00654043
-0.000382346
-0.00693562
-0.000492677
-0.00736368
-0.00061213
-0.00782698
-0.000741371
-0.00832835
-0.000881059
-0.00887056
-0.00103174
-0.00945404
-0.0100762
-0.00119373
2.1496e-05
-0.000500409
6.56934e-05
-0.00143356
0.000112656
-0.00231831
0.00014492
-0.00309265
0.000152107
-0.0037193
0.000132111
-0.00420072
8.87901e-05
-0.00457125
2.81865e-05
-0.0048774
-4.44507e-05
-0.00516002
-0.000125942
-0.00544625
-0.000215107
-0.00575046
-0.000311759
-0.00607927
-0.000416245
-0.00643594
-0.000529121
-0.00682274
-0.000651005
-0.00724179
-0.000782581
-0.0076954
-0.000924596
-0.00818634
-0.00107778
-0.00871738
-0.00124262
-0.0092892
-0.00989956
-0.00141927
1.91918e-05
-0.000519601
5.65101e-05
-0.00147088
9.25578e-05
-0.00235436
0.000111398
-0.00311149
0.000104512
-0.00371241
7.12382e-05
-0.00416744
1.60716e-05
-0.00451609
-5.50893e-05
-0.00480624
-0.000137504
-0.00507761
-0.000228575
-0.00535518
-0.000327411
-0.00565163
-0.000434049
-0.00597263
-0.000548933
-0.00632106
-0.000672654
-0.00669902
-0.000805889
-0.00710856
-0.000949372
-0.00755192
-0.00110392
-0.00803179
-0.00127036
-0.00855093
-0.00144913
-0.00911043
-0.00970857
-0.00164012
1.66916e-05
-0.000536293
4.68604e-05
-0.00150105
7.19506e-05
-0.00237945
7.76756e-05
-0.00311721
5.72994e-05
-0.00369204
1.15225e-05
-0.00412167
-5.4922e-05
-0.00444964
-0.000136189
-0.00472498
-0.00022809
-0.00498571
-0.000328501
-0.00525477
-0.000436836
-0.00554329
-0.000553295
-0.00585617
-0.000678398
-0.00619596
-0.00081278
-0.00656464
-0.000957157
-0.00696418
-0.00111231
-0.00739677
-0.00127913
-0.00786497
-0.00145856
-0.0083715
-0.00165102
-0.00891797
-0.00950358
-0.00185601
1.40349e-05
-0.000550328
3.68623e-05
-0.00152388
5.10474e-05
-0.00239364
4.40251e-05
-0.00311019
1.0955e-05
-0.00365897
-4.6969e-05
-0.00406374
-0.00012406
-0.00437255
-0.000214998
-0.00463404
-0.000316085
-0.00488462
-0.00042562
-0.00514523
-0.000543272
-0.00542564
-0.000669375
-0.00573007
-0.000804507
-0.00606082
-0.000949347
-0.0064198
-0.00110465
-0.00680888
-0.00127122
-0.00723019
-0.00145004
-0.00768616
-0.00164218
-0.00817936
-0.00184806
-0.00871209
-0.00928496
-0.00206668
1.12699e-05
-0.000561598
2.66343e-05
-0.00153924
3.00429e-05
-0.00239704
1.09081e-05
-0.00309106
-3.4874e-05
-0.00361319
-0.000103982
-0.00399463
-0.000191186
-0.00428535
-0.000291402
-0.00453382
-0.000401397
-0.00477462
-0.000519841
-0.00502679
-0.00064662
-0.00529886
-0.000782172
-0.00559451
-0.000927129
-0.00591587
-0.00108221
-0.00626472
-0.00124819
-0.0066429
-0.00142594
-0.00705245
-0.00161647
-0.00749562
-0.00182104
-0.00797479
-0.00204005
-0.00849308
-0.00905317
-0.00227184
8.40429e-06
-0.000570002
1.62763e-05
-0.00154711
9.23293e-06
-0.00239
-2.22181e-05
-0.00305961
-7.95687e-05
-0.00355583
-0.000159357
-0.00391485
-0.000256185
-0.00418852
-0.000365314
-0.00442469
-0.000483947
-0.00465599
-0.000611081
-0.00489965
-0.000746784
-0.00516316
-0.000891576
-0.00544972
-0.00104614
-0.0057613
-0.00121123
-0.00609962
-0.00138765
-0.00646648
-0.00157628
-0.00686382
-0.00177823
-0.00729368
-0.00199491
-0.00775811
-0.00222675
-0.00826125
-0.00880871
-0.0024712
5.45463e-06
-0.000575457
5.82177e-06
-0.00154748
-1.17204e-05
-0.00237246
-5.46584e-05
-0.00301667
-0.000123053
-0.00348744
-0.000212964
-0.00382493
-0.00031896
-0.00408252
-0.000436658
-0.004307
-0.000563665
-0.00452898
-0.000699265
-0.00476405
-0.000843672
-0.00501875
-0.000997482
-0.00529591
-0.00116142
-0.00559736
-0.00133628
-0.00592477
-0.00152288
-0.00627987
-0.00172212
-0.00666457
-0.00193516
-0.00708064
-0.00216354
-0.00752973
-0.00240785
-0.00801693
-0.00855155
-0.00266502
2.33522e-06
-0.000577792
-4.65431e-06
-0.00154049
-3.25282e-05
-0.00234458
-8.62692e-05
-0.00296293
-0.000165189
-0.00340852
-0.000264702
-0.00372542
-0.000379436
-0.00396779
-0.000505372
-0.00418106
-0.00064049
-0.00439387
-0.000784318
-0.00462023
-0.000937198
-0.00486587
-0.00109979
-0.00513332
-0.00127285
-0.00542429
-0.00145722
-0.0057404
-0.00165374
-0.00608335
-0.00186334
-0.00645497
-0.0020872
-0.00685678
-0.00232685
-0.00729008
-0.00258322
-0.00776057
-0.00828133
-0.00285344
-9.99801e-07
-0.000576792
-1.5251e-05
-0.00152624
-5.27647e-05
-0.00230707
-0.000116959
-0.00289873
-0.000205871
-0.00331961
-0.000314485
-0.00361681
-0.000437549
-0.00384473
-0.000571402
-0.00404721
-0.000714363
-0.00425091
-0.000866172
-0.00446842
-0.00102728
-0.00470477
-0.00119839
-0.00496221
-0.00138032
-0.00524237
-0.00157392
-0.0055468
-0.00178009
-0.00587718
-0.00199982
-0.00623524
-0.00223436
-0.00662224
-0.0024851
-0.00703934
-0.00275227
-0.0074934
-0.0079999
-0.00303371
-3.86019e-06
-0.000572932
-2.5526e-05
-0.00150458
-7.24698e-05
-0.00226013
-0.000146631
-0.00282457
-0.000245011
-0.00322123
-0.000362247
-0.00349957
-0.000493247
-0.00371373
-0.0006347
-0.00390575
-0.000785231
-0.00410037
-0.000944761
-0.00430889
-0.00111383
-0.0045357
-0.00129319
-0.00478285
-0.00148369
-0.00505186
-0.00168623
-0.00534426
-0.00190176
-0.00566166
-0.00213138
-0.00600561
-0.0023764
-0.00637722
-0.00263814
-0.0067776
-0.00291864
-0.0072129
-0.00771789
-0.00320065
-6.88863e-06
-0.000566043
-3.55738e-05
-0.00147589
-9.15774e-05
-0.00220412
-0.000175212
-0.00274094
-0.000282539
-0.0031139
-0.000407933
-0.00337418
-0.000546488
-0.00357517
-0.000695225
-0.00375702
-0.000853044
-0.00394256
-0.00102002
-0.00414191
-0.00119677
-0.00435895
-0.0013841
-0.00459552
-0.00158288
-0.00485308
-0.00179404
-0.0051331
-0.0020186
-0.0054371
-0.00225775
-0.00576646
-0.00251271