/*--------------------------------*- C++ -*----------------------------------*\
  =========                 |
  \\      /  F ield         | OpenFOAM: The Open Source CFD Toolbox
   \\    /   O peration     | Website:  https://openfoam.org
    \\  /    A nd           | Version:  7
     \\/     M anipulation  |
\*---------------------------------------------------------------------------*/
FoamFile
{
    version     2.0;
    format      ascii;
    class       volVectorField;
    location    "42.99946";
    object      U;
}
// * * * * * * * * * * * * * * * * * * * * * * * * * * * * * * * * * * * * * //

dimensions      [0 1 -1 0 0 0 0];

internalField   nonuniform List<vector> 
5800
(
(0.0154686 -0.00324956 -4.19531e-22)
(0.0215689 -0.0097025 -1.28859e-20)
(0.0337448 -0.0160151 1.91036e-20)
(0.0519444 -0.0220886 6.1411e-21)
(0.0760858 -0.0278167 -1.62639e-20)
(0.0227682 -0.00289875 2.39033e-21)
(0.0274657 -0.00272656 2.19444e-21)
(0.0320042 -0.00262395 -4.08661e-21)
(0.0365163 -0.00256078 1.93396e-21)
(0.0410427 -0.00252532 -1.1184e-21)
(0.045621 -0.00251206 -3.79912e-22)
(0.050289 -0.00251597 2.17197e-21)
(0.0550775 -0.00253281 -3.13039e-21)
(0.0600112 -0.00255935 1.3657e-21)
(0.0651104 -0.00259303 1.24661e-21)
(0.0703925 -0.00263176 -2.55722e-21)
(0.0758715 -0.00267379 -3.39343e-23)
(0.0815588 -0.00271762 2.04683e-21)
(0.0874634 -0.00276197 -1.60975e-22)
(0.0935918 -0.00280575 -8.30331e-22)
(0.0999486 -0.002848 7.24838e-22)
(0.106536 -0.00288792 -3.39983e-22)
(0.113356 -0.00292482 4.53823e-22)
(0.120406 -0.00295815 -3.33776e-22)
(0.127684 -0.00298746 -2.19214e-22)
(0.135187 -0.0030124 9.30267e-22)
(0.142909 -0.00303272 -2.7952e-22)
(0.150844 -0.00304826 -6.0215e-22)
(0.158985 -0.00305891 3.9163e-22)
(0.167324 -0.00306465 1.21627e-22)
(0.175852 -0.00306551 -4.63433e-22)
(0.18456 -0.00306155 5.26284e-22)
(0.193438 -0.00305291 -4.24691e-22)
(0.202476 -0.00303971 -2.8515e-22)
(0.211662 -0.00302214 8.19208e-22)
(0.220988 -0.0030004 -5.60447e-22)
(0.230441 -0.0029747 -9.05569e-23)
(0.24001 -0.00294526 1.13287e-22)
(0.249685 -0.00291231 6.31403e-24)
(0.259454 -0.00287611 2.70677e-22)
(0.269306 -0.00283689 -3.47964e-22)
(0.279231 -0.00279491 2.8832e-22)
(0.289217 -0.0027504 -3.16548e-24)
(0.299254 -0.0027036 -1.68955e-23)
(0.309331 -0.00265477 -2.95536e-23)
(0.319439 -0.00260412 1.78542e-22)
(0.329567 -0.00255189 -7.16328e-24)
(0.339706 -0.0024983 -7.05206e-23)
(0.349846 -0.00244357 -3.11343e-23)
(0.359979 -0.00238789 1.72582e-23)
(0.370096 -0.00233146 -8.8483e-23)
(0.380189 -0.00227447 1.09308e-22)
(0.390251 -0.00221709 -2.76414e-23)
(0.400272 -0.0021595 5.6061e-23)
(0.410247 -0.00210185 -1.83662e-23)
(0.42017 -0.00204429 1.58144e-24)
(0.430033 -0.00198696 6.60114e-24)
(0.439831 -0.00192999 -2.98251e-23)
(0.449558 -0.00187349 3.27539e-23)
(0.459211 -0.00181759 -2.77449e-23)
(0.468783 -0.00176237 2.42588e-24)
(0.478272 -0.00170794 1.62128e-23)
(0.487674 -0.00165439 -7.25388e-25)
(0.496984 -0.00160178 -5.95014e-24)
(0.506204 -0.00155019 -2.94998e-24)
(0.515321 -0.00149967 -1.33409e-24)
(0.524356 -0.00145021 3.22854e-24)
(0.533255 -0.00140206 -2.48742e-24)
(0.542138 -0.00135453 -1.45811e-24)
(0.550727 -0.00130936 2.84137e-25)
(0.55963 -0.00126182 -2.49858e-25)
(0.567527 -0.00122307 -5.40432e-26)
(0.577207 -0.00116482 8.86063e-25)
(0.58281 -0.00115113 3.02086e-25)
(0.596383 -0.00103846 -9.19649e-25)
(0.0289955 -0.0086516 -9.21244e-22)
(0.0335858 -0.0081439 -1.56742e-21)
(0.0380309 -0.007842 -1.44559e-21)
(0.0424823 -0.00765535 2.33981e-22)
(0.0469569 -0.00755063 -9.85916e-22)
(0.0514867 -0.00751197 8.06238e-21)
(0.0561095 -0.0075244 -5.84994e-21)
(0.0608551 -0.00757538 4.20582e-21)
(0.0657473 -0.00765529 -3.21452e-21)
(0.0708059 -0.00775653 -2.09558e-21)
(0.0760476 -0.00787284 2.11775e-21)
(0.0814861 -0.00799895 2.03673e-21)
(0.0871323 -0.00813041 -4.53355e-21)
(0.0929948 -0.00826336 1.03757e-21)
(0.0990798 -0.00839452 -1.78687e-21)
(0.105392 -0.00852104 1.86227e-21)
(0.111933 -0.0086405 -4.29058e-22)
(0.118703 -0.0087509 3.2906e-21)
(0.125702 -0.00885055 -1.37868e-21)
(0.132927 -0.00893814 4.34885e-22)
(0.140373 -0.00901264 6.79619e-22)
(0.148036 -0.0090733 -2.16093e-21)
(0.15591 -0.00911964 2.65062e-22)
(0.163986 -0.00915136 -3.16759e-22)
(0.172259 -0.00916841 9.42335e-24)
(0.180717 -0.00917085 2.39324e-22)
(0.189354 -0.00915892 9.21402e-22)
(0.198158 -0.00913297 -3.25852e-22)
(0.20712 -0.00909343 -6.8045e-22)
(0.216229 -0.00904084 1.23079e-21)
(0.225475 -0.00897577 -2.03236e-21)
(0.234847 -0.00889887 5.11076e-22)
(0.244335 -0.0088108 1.62769e-21)
(0.253926 -0.00871228 -1.07815e-21)
(0.26361 -0.00860403 -4.12624e-22)
(0.273377 -0.00848676 6.14603e-22)
(0.283216 -0.00836123 -9.95891e-22)
(0.293115 -0.00822815 1.38703e-21)
(0.303066 -0.00808825 -5.78666e-22)
(0.313056 -0.00794225 -1.57326e-22)
(0.323076 -0.00779084 1.20518e-22)
(0.333118 -0.0076347 -2.22333e-24)
(0.34317 -0.0074745 5.56794e-23)
(0.353224 -0.00731086 -2.09286e-23)
(0.363271 -0.0071444 1.25176e-22)
(0.373303 -0.0069757 -7.5217e-23)
(0.383311 -0.00680532 1.2793e-22)
(0.393288 -0.00663379 -1.77436e-22)
(0.403226 -0.00646161 -3.95473e-23)
(0.413119 -0.00628925 -5.82136e-23)
(0.42296 -0.00611715 1.61239e-22)
(0.432743 -0.00594573 -1.85147e-22)
(0.442462 -0.00577538 -4.64797e-23)
(0.452112 -0.00560646 5.16241e-23)
(0.461688 -0.0054393 -9.50928e-24)
(0.471185 -0.0052742 -1.34147e-23)
(0.4806 -0.00511146 -5.96488e-24)
(0.489929 -0.00495131 5.76448e-24)
(0.499167 -0.004794 -2.72862e-23)
(0.508317 -0.00463971 1.93954e-23)
(0.517365 -0.00448866 2.78391e-24)
(0.526334 -0.00434076 -8.25493e-25)
(0.535166 -0.00419675 5.67691e-24)
(0.543986 -0.00405464 -3.45108e-24)
(0.552512 -0.00391957 -1.07918e-25)
(0.561353 -0.00377738 -6.993e-26)
(0.569192 -0.0036616 -4.96333e-25)
(0.578811 -0.00348737 1.40633e-24)
(0.58437 -0.00344657 8.66386e-25)
(0.597862 -0.00311009 7.95206e-24)
(0.0414168 -0.0142692 3.74614e-23)
(0.0457924 -0.0134522 4.76972e-21)
(0.0500494 -0.0129687 8.88401e-22)
(0.0543771 -0.0126674 -9.2518e-21)
(0.058746 -0.0124986 -5.54705e-21)
(0.0631768 -0.0124381 5.11056e-21)
(0.0677071 -0.0124614 1.15258e-20)
(0.0723655 -0.012548 -6.38302e-21)
(0.0771735 -0.0126824 -2.32665e-21)
(0.0821498 -0.0128519 1.30421e-21)
(0.0873098 -0.0130462 2.79507e-21)
(0.0926664 -0.0132565 -3.79506e-21)
(0.0982296 -0.0134756 4.1124e-21)
(0.104007 -0.0136968 -3.55623e-21)
(0.110005 -0.0139148 6.79015e-21)
(0.116226 -0.0141249 -6.45177e-21)
(0.122673 -0.0143231 1.06991e-21)
(0.129345 -0.0145061 -8.26682e-21)
(0.13624 -0.0146711 3.09592e-21)
(0.143357 -0.014816 -2.04806e-21)
(0.15069 -0.0149391 9.93918e-22)
(0.158235 -0.0150392 7.18594e-21)
(0.165985 -0.0151156 -3.79555e-21)
(0.173933 -0.0151677 1.22702e-21)
(0.182072 -0.0151956 -3.21759e-21)
(0.190392 -0.0151992 2.7105e-21)
(0.198886 -0.0151792 -3.57107e-21)
(0.207543 -0.0151359 1.52833e-21)
(0.216353 -0.0150702 -3.85676e-22)
(0.225308 -0.0149829 1.08873e-21)
(0.234396 -0.014875 1.01726e-21)
(0.243606 -0.0147475 1.28008e-21)
(0.25293 -0.0146017 -1.11794e-21)
(0.262355 -0.0144385 2.00984e-22)
(0.271871 -0.0142593 -5.3358e-22)
(0.281468 -0.0140651 9.94356e-22)
(0.291136 -0.0138573 -5.42131e-22)
(0.300863 -0.0136371 2.32806e-22)
(0.310641 -0.0134055 -1.0617e-21)
(0.320458 -0.0131639 2.36896e-22)
(0.330306 -0.0129133 3.77404e-22)
(0.340174 -0.0126549 -6.76409e-22)
(0.350054 -0.0123897 5.06347e-22)
(0.359936 -0.0121189 5.32628e-22)
(0.369812 -0.0118434 -3.52976e-22)
(0.379674 -0.0115642 -9.83206e-23)
(0.389514 -0.0112822 -2.88905e-22)
(0.399325 -0.0109983 6.45747e-23)
(0.409098 -0.0107133 8.73344e-23)
(0.418828 -0.010428 1.77606e-22)
(0.428508 -0.0101431 -1.93772e-22)
(0.438131 -0.00985931 1.2053e-22)
(0.447693 -0.00957729 7.64717e-23)
(0.457189 -0.00929762 -8.06394e-23)
(0.466612 -0.00902086 5.14997e-24)
(0.47596 -0.00874751 5.92763e-23)
(0.485228 -0.00847803 -2.15761e-23)
(0.494413 -0.00821286 1.33263e-24)
(0.50351 -0.00795237 2.98863e-23)
(0.512521 -0.00769687 -5.36384e-25)
(0.521433 -0.00744674 3.0008e-23)
(0.530268 -0.00720181 -2.15114e-23)
(0.53897 -0.00696334 -6.14013e-24)
(0.547662 -0.00672797 1.25968e-23)
(0.556065 -0.00650436 -3.47568e-24)
(0.564783 -0.00626883 8.60386e-25)
(0.572508 -0.00607734 3.69942e-25)
(0.582003 -0.00578871 -5.84722e-24)
(0.587476 -0.00572159 -2.17696e-24)
(0.600808 -0.00516589 -1.37247e-23)
(0.0599641 -0.0196567 2.31468e-23)
(0.064018 -0.0185727 -1.81805e-20)
(0.0679892 -0.0179376 -3.835e-21)
(0.0721258 -0.017537 1.98982e-20)
(0.0763309 -0.0173135 -1.40001e-20)
(0.0806083 -0.0172376 2.39407e-21)
(0.0849959 -0.0172762 8.20701e-21)
(0.0895198 -0.0174017 -6.84198e-21)
(0.0941985 -0.0175926 -6.28741e-21)
(0.0990485 -0.0178319 1.03432e-20)
(0.104084 -0.0181052 3.15586e-21)
(0.109315 -0.0184003 -3.80023e-21)
(0.114752 -0.0187069 -3.6923e-21)
(0.120401 -0.019016 2.71095e-22)
(0.126266 -0.0193202 7.87796e-21)
(0.132349 -0.0196128 -4.00632e-21)
(0.138653 -0.0198884 -4.38912e-22)
(0.145175 -0.0201425 -4.04055e-21)
(0.151915 -0.0203713 -2.16167e-22)
(0.158868 -0.0205719 1.59403e-21)
(0.16603 -0.0207421 3.70271e-21)
(0.173397 -0.0208804 -4.02162e-21)
(0.180961 -0.0209855 3.28968e-21)
(0.188715 -0.0210571 -1.85076e-21)
(0.196653 -0.021095 -8.2148e-22)
(0.204766 -0.0210994 -3.55501e-22)
(0.213045 -0.021071 2.02541e-21)
(0.221481 -0.0210105 2.09372e-21)
(0.230066 -0.020919 -4.02346e-21)
(0.238788 -0.0207977 -7.71753e-22)
(0.24764 -0.0206479 3.53701e-21)
(0.25661 -0.020471 -1.18411e-21)
(0.265689 -0.0202687 -2.00127e-21)
(0.274866 -0.0200426 8.63398e-22)
(0.284133 -0.0197941 -1.08592e-21)
(0.293477 -0.0195251 1.10244e-21)
(0.30289 -0.0192372 -5.94318e-22)
(0.312362 -0.0189321 2.21737e-21)
(0.321883 -0.0186113 2.2136e-22)
(0.331444 -0.0182766 -1.43152e-22)
(0.341034 -0.0179295 -6.6764e-22)
(0.350646 -0.0175716 -9.80062e-22)
(0.36027 -0.0172043 -2.20392e-22)
(0.369898 -0.0168291 1.04307e-21)
(0.379521 -0.0164475 1.12196e-22)
(0.389132 -0.0160607 -3.90023e-22)
(0.398722 -0.01567 9.10248e-23)
(0.408286 -0.0152766 5.44604e-23)
(0.417815 -0.0148817 3.20342e-22)
(0.427303 -0.0144863 -1.75125e-22)
(0.436744 -0.0140916 -1.06681e-22)
(0.446132 -0.0136983 1.87223e-23)
(0.455462 -0.0133074 2.84141e-22)
(0.464729 -0.0129198 -1.52638e-22)
(0.473927 -0.0125361 -1.57898e-22)
(0.483054 -0.0121572 5.2627e-23)
(0.492104 -0.0117836 1.77235e-23)
(0.501075 -0.011416 4.34869e-24)
(0.509963 -0.0110548 -7.93766e-23)
(0.518768 -0.0107006 3.69806e-23)
(0.527479 -0.0103538 -8.07157e-24)
(0.536118 -0.0100141 8.25359e-24)
(0.544627 -0.00968349 -1.44764e-23)
(0.553131 -0.00935709 -1.17726e-23)
(0.56135 -0.00904716 4.86534e-24)
(0.569887 -0.00872044 -7.42007e-25)
(0.577443 -0.00845542 -1.97763e-24)
(0.586755 -0.008055 5.89921e-24)
(0.5921 -0.00796284 1.03765e-24)
(0.605194 -0.00719541 2.23705e-23)
(0.0845317 -0.0247115 1.92311e-20)
(0.0881584 -0.0234185 -7.1422e-21)
(0.0917419 -0.0226739 4.29719e-21)
(0.0956143 -0.0221969 -2.9504e-20)
(0.0995921 -0.0219334 1.37179e-20)
(0.103657 -0.0218526 -1.75768e-20)
(0.107847 -0.0219142 1.94685e-20)
(0.112185 -0.0220839 -1.776e-20)
(0.116686 -0.0223354 -4.10695e-21)
(0.121363 -0.0226473 3.49377e-20)
(0.126228 -0.0230014 -1.90976e-20)
(0.131289 -0.0233822 1.56988e-20)
(0.136554 -0.0237767 -3.57519e-21)
(0.142027 -0.0241734 -3.28114e-22)
(0.147712 -0.0245628 -9.16667e-21)
(0.153609 -0.0249366 -3.80832e-21)
(0.159719 -0.025288 -1.72081e-21)
(0.166039 -0.0256112 4.44034e-21)
(0.172568 -0.0259018 -1.05629e-20)
(0.179301 -0.0261562 5.23214e-21)
(0.186233 -0.0263716 -2.70771e-21)
(0.193359 -0.0265462 1.41932e-21)
(0.200673 -0.0266787 2.75005e-21)
(0.208169 -0.0267686 5.14894e-21)
(0.215838 -0.0268157 -3.27862e-21)
(0.223673 -0.0268205 -2.67018e-21)
(0.231667 -0.0267836 2.08596e-21)
(0.23981 -0.0267062 3.19877e-22)
(0.248094 -0.0265896 1.99123e-21)
(0.256509 -0.0264353 -1.62821e-21)
(0.265047 -0.026245 -2.00923e-21)
(0.273699 -0.0260205 3.17415e-21)
(0.282455 -0.0257639 -2.63911e-21)
(0.291306 -0.0254771 1.7534e-21)
(0.300241 -0.0251621 6.13459e-22)
(0.309253 -0.0248211 -1.04603e-21)
(0.318331 -0.0244562 -5.90569e-22)
(0.327467 -0.0240695 7.67304e-22)
(0.33665 -0.023663 -1.28608e-21)
(0.345873 -0.0232388 3.42234e-22)
(0.355126 -0.0227989 -4.15315e-22)
(0.364401 -0.0223453 1.50139e-22)
(0.37369 -0.0218798 -1.32688e-22)
(0.382984 -0.0214042 6.10399e-22)
(0.392275 -0.0209204 -5.67213e-22)
(0.401556 -0.0204301 3.64711e-22)
(0.41082 -0.0199347 -6.76388e-22)
(0.42006 -0.019436 2.3607e-22)
(0.429269 -0.0189352 6.0216e-22)
(0.438441 -0.0184338 -4.60985e-22)
(0.447569 -0.0179331 -2.82518e-22)
(0.456649 -0.0174343 3.5126e-22)
(0.465676 -0.0169385 -2.49207e-22)
(0.474643 -0.0164467 1.24451e-22)
(0.483547 -0.01596 1.91948e-23)
(0.492384 -0.0154791 2.78198e-23)
(0.50115 -0.0150051 -1.45329e-22)
(0.509842 -0.0145385 4.66495e-23)
(0.518456 -0.0140802 -2.04058e-24)
(0.526993 -0.0136305 5.384e-23)
(0.53544 -0.0131903 -8.0446e-23)
(0.543821 -0.0127592 2.96487e-23)
(0.552079 -0.0123395 8.15228e-24)
(0.560336 -0.0119251 5.997e-24)
(0.568315 -0.0115319 -5.75646e-25)
(0.576615 -0.011117 2.15941e-24)
(0.58395 -0.0107814 -1.12898e-24)
(0.593023 -0.0102728 4.81686e-24)
(0.5982 -0.0101573 -4.93271e-24)
(0.610984 -0.00918844 -5.53131e-23)
(0.114972 -0.0293207 -8.84544e-21)
(0.118068 -0.0278916 7.78651e-21)
(0.121158 -0.0270929 5.15925e-21)
(0.124687 -0.026571 -3.40713e-20)
(0.128368 -0.0262885 3.47746e-20)
(0.132154 -0.0262187 -4.0347e-22)
(0.136087 -0.026315 -2.28239e-20)
(0.140184 -0.0265377 1.40207e-20)
(0.144455 -0.0268562 4.00444e-21)
(0.148909 -0.0272454 4.07426e-21)
(0.153554 -0.0276836 -1.60382e-20)
(0.158398 -0.0281522 -1.3618e-20)
(0.163442 -0.0286354 4.93235e-21)
(0.168692 -0.0291196 1.2384e-20)
(0.174146 -0.0295933 -7.28879e-21)
(0.179805 -0.0300467 1.93608e-20)
(0.185668 -0.0304719 -2.07952e-20)
(0.191731 -0.0308622 2.2261e-20)
(0.197992 -0.0312123 -6.21439e-21)
(0.204445 -0.0315181 -1.49569e-20)
(0.211086 -0.0317766 1.26027e-20)
(0.21791 -0.0319857 -1.31734e-21)
(0.224909 -0.0321441 -1.97123e-21)
(0.232079 -0.0322511 5.45897e-21)
(0.239412 -0.0323068 -3.95446e-21)
(0.2469 -0.0323116 -8.72152e-21)
(0.254537 -0.0322666 6.98171e-21)
(0.262314 -0.032173 -1.6148e-21)
(0.270224 -0.0320325 -1.37234e-21)
(0.278258 -0.0318469 2.67538e-21)
(0.286408 -0.0316182 4.99996e-21)
(0.294666 -0.0313486 -1.57696e-21)
(0.303023 -0.0310405 -8.77938e-21)
(0.31147 -0.0306963 6.41317e-21)
(0.319998 -0.0303183 -3.08645e-21)
(0.3286 -0.0299092 9.80156e-22)
(0.337266 -0.0294714 2.23193e-21)
(0.345988 -0.0290073 -8.70145e-22)
(0.354757 -0.0285196 -3.792e-23)
(0.363566 -0.0280106 5.11504e-22)
(0.372405 -0.0274827 -1.56367e-21)
(0.381268 -0.0269383 -6.8854e-22)
(0.390145 -0.0263795 1.66442e-21)
(0.399031 -0.0258087 3.88706e-22)
(0.407916 -0.0252279 -1.03059e-21)
(0.416795 -0.0246391 3.70609e-22)
(0.425659 -0.0240443 -2.66284e-22)
(0.434504 -0.0234453 -6.27233e-22)
(0.443322 -0.0228438 -4.78986e-23)
(0.452107 -0.0222415 7.04333e-22)
(0.460854 -0.0216399 2.98321e-22)
(0.469558 -0.0210405 2.92886e-22)
(0.478214 -0.0204446 -1.60199e-22)
(0.486816 -0.0198535 2.73765e-22)
(0.495361 -0.0192684 -3.54257e-22)
(0.503845 -0.0186904 1.76829e-22)
(0.512264 -0.0181204 -1.53839e-22)
(0.520616 -0.0175593 8.74065e-24)
(0.528896 -0.0170081 9.16868e-23)
(0.537105 -0.0164673 -7.95953e-23)
(0.545232 -0.0159379 4.08386e-23)
(0.553299 -0.0154192 -2.83306e-23)
(0.561249 -0.0149145 -4.22251e-23)
(0.569205 -0.0144159 -1.41607e-23)
(0.576893 -0.0139433 1.94554e-24)
(0.584903 -0.0134439 -2.36614e-25)
(0.59197 -0.0130416 -1.82498e-24)
(0.600749 -0.0124293 5.59421e-24)
(0.605724 -0.0122926 3.00921e-24)
(0.618126 -0.011135 2.67015e-23)
(0.151088 -0.0333616 2.96097e-20)
(0.153554 -0.031883 -2.22271e-20)
(0.156044 -0.031099 3.62848e-20)
(0.159144 -0.0305733 -1.36143e-20)
(0.162452 -0.0303008 1.05905e-20)
(0.165891 -0.0302646 -2.73073e-20)
(0.169501 -0.0304129 4.37367e-21)
(0.173297 -0.0307016 -9.227e-22)
(0.177282 -0.031097 5.98662e-21)
(0.18146 -0.0315707 1.59613e-20)
(0.185835 -0.0320979 -1.29278e-20)
(0.190408 -0.0326574 8.81598e-21)
(0.195182 -0.0332309 5.03738e-21)
(0.200155 -0.0338029 1.74667e-21)
(0.205326 -0.0343602 -1.48974e-20)
(0.210693 -0.0348918 8.21488e-21)
(0.216252 -0.0353888 -1.18991e-20)
(0.222 -0.0358438 1.4772e-21)
(0.227933 -0.036251 -2.45299e-22)
(0.234045 -0.036606 1.4356e-20)
(0.240332 -0.0369055 -1.22058e-20)
(0.246788 -0.0371474 -1.56184e-21)
(0.253407 -0.0373303 -2.61191e-21)
(0.260183 -0.0374536 1.16561e-20)
(0.267111 -0.0375176 -4.20994e-21)
(0.274183 -0.0375228 -3.85236e-21)
(0.281392 -0.0374705 -2.23362e-21)
(0.288733 -0.0373621 8.57961e-21)
(0.296197 -0.0371996 -3.10711e-21)
(0.303777 -0.0369851 -3.93349e-21)
(0.311466 -0.0367209 -3.10337e-21)
(0.319257 -0.0364097 8.66045e-21)
(0.327141 -0.0360539 -2.35978e-21)
(0.335112 -0.0356564 -8.03585e-22)
(0.34316 -0.03522 -1.71572e-21)
(0.351279 -0.0347476 -1.3386e-21)
(0.35946 -0.0342419 1.37765e-21)
(0.367696 -0.033706 1.23636e-21)
(0.375979 -0.0331426 -1.32677e-21)
(0.384302 -0.0325545 -1.99404e-21)
(0.392657 -0.0319445 2.60319e-21)
(0.401036 -0.0313152 -3.98629e-22)
(0.409433 -0.0306694 8.92131e-25)
(0.41784 -0.0300094 -5.18072e-22)
(0.426251 -0.0293378 8.42767e-22)
(0.434659 -0.0286568 -1.01724e-21)
(0.443058 -0.0279687 1.17553e-21)
(0.451441 -0.0272756 -3.4752e-23)
(0.459803 -0.0265795 -1.00647e-22)
(0.468139 -0.0258823 -3.05061e-22)
(0.476441 -0.0251859 -3.59394e-22)
(0.484707 -0.0244918 1.24901e-22)
(0.492931 -0.0238017 2.90847e-22)
(0.501108 -0.0231171 -6.54102e-22)
(0.509235 -0.0224393 4.50784e-22)
(0.517308 -0.0217695 -2.37331e-22)
(0.525324 -0.021109 8.69156e-23)
(0.533279 -0.0204588 4.82635e-23)
(0.54117 -0.0198198 -7.96973e-23)
(0.548998 -0.0191929 -1.56575e-23)
(0.556751 -0.0185791 4.49846e-23)
(0.564453 -0.0179778 -1.4748e-23)
(0.572045 -0.0173927 1.84775e-23)
(0.579652 -0.0168145 3.7684e-23)
(0.586999 -0.0162671 3.03286e-24)
(0.594673 -0.0156876 1.30372e-24)
(0.601427 -0.0152229 5.71041e-25)
(0.609865 -0.0145123 -3.87941e-24)
(0.614604 -0.0143568 -2.78709e-24)
(0.626561 -0.0130256 -1.64816e-24)
(0.192629 -0.0367046 1.57109e-20)
(0.194368 -0.0352746 3.18744e-20)
(0.196151 -0.0345868 -3.73156e-20)
(0.198735 -0.0341088 -8.78492e-22)
(0.201592 -0.0338843 8.04314e-21)
(0.204608 -0.0339122 -7.09832e-21)
(0.207828 -0.0341365 -1.43562e-20)
(0.211261 -0.0345096 -1.59619e-21)
(0.214902 -0.0349957 3.43957e-20)
(0.218747 -0.0355642 -1.34791e-21)
(0.222796 -0.0361877 -2.95966e-21)
(0.227046 -0.0368427 -5.18397e-21)
(0.231493 -0.037509 4.54467e-21)
(0.236135 -0.0381695 -3.5292e-21)
(0.240965 -0.03881 4.62376e-21)
(0.245981 -0.0394185 -1.25075e-20)
(0.251178 -0.0399854 -9.9959e-21)
(0.256549 -0.0405029 1.43256e-20)
(0.262091 -0.040965 9.08833e-22)
(0.267798 -0.0413672 -6.58069e-21)
(0.273665 -0.041706 1.47454e-20)
(0.279687 -0.0419793 -2.35314e-21)
(0.285858 -0.042186 -1.19582e-21)
(0.292173 -0.0423255 -1.20715e-20)
(0.298626 -0.0423982 9.70118e-22)
(0.305213 -0.0424049 1.00195e-20)
(0.311926 -0.0423469 -4.08051e-21)
(0.318759 -0.0422261 -6.24287e-21)
(0.325708 -0.0420445 4.04229e-21)
(0.332765 -0.0418046 -1.02678e-21)
(0.339924 -0.0415089 1.22216e-21)
(0.347178 -0.0411603 3.65219e-21)
(0.354521 -0.0407617 -9.86048e-22)
(0.361945 -0.0403163 -4.60099e-21)
(0.369445 -0.0398271 4.86212e-21)
(0.377013 -0.0392972 8.84595e-22)
(0.384642 -0.03873 1.1482e-21)
(0.392325 -0.0381286 -5.75072e-22)
(0.400056 -0.0374962 -5.18028e-21)
(0.407827 -0.0368358 2.47206e-21)
(0.415632 -0.0361507 3.94571e-22)
(0.423464 -0.0354437 -1.35385e-22)
(0.431317 -0.0347178 4.6978e-22)
(0.439184 -0.0339759 1.48521e-22)
(0.447059 -0.0332206 -2.98287e-22)
(0.454935 -0.0324546 1.46087e-22)
(0.462808 -0.0316804 2.21969e-22)
(0.470671 -0.0309004 -3.69057e-22)
(0.478519 -0.0301168 1.9263e-22)
(0.486346 -0.0293317 2.57991e-22)
(0.494148 -0.0285473 -3.02874e-22)
(0.50192 -0.0277655 -2.51732e-22)
(0.509658 -0.0269879 1.07944e-22)
(0.517357 -0.0262163 5.49085e-23)
(0.525013 -0.0254521 1.73257e-23)
(0.532623 -0.024697 1.27363e-22)
(0.540184 -0.0239521 -5.00741e-23)
(0.547693 -0.0232188 -3.20582e-22)
(0.555147 -0.022498 -5.02364e-23)
(0.562546 -0.0217908 -3.59901e-23)
(0.56988 -0.0210982 4.28194e-23)
(0.57717 -0.0204197 3.01262e-23)
(0.58436 -0.0197596 -4.34873e-23)
(0.591573 -0.019107 -4.21985e-24)
(0.598538 -0.0184899 -1.10689e-23)
(0.605833 -0.0178353 -6.71961e-24)
(0.612235 -0.0173133 -1.64326e-24)
(0.620288 -0.0165107 8.16036e-24)
(0.624764 -0.0163389 -1.01199e-24)
(0.636218 -0.0148511 9.34243e-24)
(0.239277 -0.0392151 -3.11051e-20)
(0.240203 -0.0379413 3.81284e-20)
(0.241178 -0.0374428 4.83854e-20)
(0.243158 -0.0370749 -5.57113e-20)
(0.245484 -0.0369466 -3.41756e-20)
(0.248005 -0.0370784 2.46223e-20)
(0.250766 -0.0374103 2.25322e-20)
(0.253772 -0.0378921 3.14448e-20)
(0.257008 -0.0384875 -3.70534e-20)
(0.260463 -0.0391644 -2.76053e-22)
(0.264129 -0.0398936 -2.763e-20)
(0.267997 -0.0406502 7.98718e-21)
(0.27206 -0.0414127 2.13279e-20)
(0.276309 -0.0421633 -1.65703e-21)
(0.280739 -0.0428869 -1.18161e-20)
(0.285342 -0.0435713 3.32298e-21)
(0.290111 -0.0442066 6.64975e-21)
(0.29504 -0.0447849 -1.13516e-20)
(0.300125 -0.0453002 2.39048e-20)
(0.30536 -0.0457481 -1.1104e-20)
(0.310739 -0.0461252 -5.91471e-21)
(0.316258 -0.0464297 1.35668e-20)
(0.321913 -0.0466603 -1.29055e-20)
(0.327698 -0.0468168 4.34534e-21)
(0.333609 -0.0468997 1.64773e-21)
(0.339642 -0.0469101 4.96482e-21)
(0.34579 -0.0468494 -3.81487e-21)
(0.35205 -0.0467196 -5.56321e-21)
(0.358416 -0.046523 1.58014e-21)
(0.364883 -0.0462623 -2.43849e-21)
(0.371445 -0.0459403 1.11427e-20)
(0.378098 -0.0455601 -4.3741e-21)
(0.384834 -0.0451248 -6.77386e-21)
(0.39165 -0.0446378 8.88842e-21)
(0.398538 -0.0441026 -5.37895e-21)
(0.405492 -0.0435225 -1.11266e-21)
(0.412508 -0.042901 2.70592e-21)
(0.419577 -0.0422417 -9.84513e-22)
(0.426696 -0.041548 2.0885e-21)
(0.433857 -0.0408233 -8.31451e-22)
(0.441054 -0.040071 1.5477e-21)
(0.448282 -0.0392944 -3.35504e-21)
(0.455534 -0.0384966 2.17744e-21)
(0.462806 -0.0376809 1.19715e-21)
(0.47009 -0.0368501 -2.24674e-21)
(0.477382 -0.0360072 -8.39974e-24)
(0.484676 -0.035155 1.35495e-21)
(0.491967 -0.034296 -1.66143e-21)
(0.49925 -0.0334328 1.7769e-21)
(0.506519 -0.0325678 -4.62875e-22)
(0.513772 -0.0317032 8.07926e-23)
(0.521002 -0.030841 -7.41139e-23)
(0.528206 -0.0299834 1.38165e-23)
(0.53538 -0.0291321 -2.83645e-22)
(0.54252 -0.0282889 3.37309e-22)
(0.549623 -0.0274554 1.11826e-22)
(0.556686 -0.0266331 4.9318e-23)
(0.563707 -0.0258233 -5.60032e-24)
(0.570681 -0.0250272 2.29862e-22)
(0.57761 -0.024246 -1.5263e-22)
(0.584484 -0.023481 1.22322e-22)
(0.591323 -0.0227312 -1.7297e-23)
(0.598073 -0.0220021 5.90543e-23)
(0.604854 -0.0212807 -1.16651e-23)
(0.611401 -0.0205997 -2.36183e-24)
(0.618281 -0.0198758 2.85455e-24)
(0.624298 -0.0193019 -8.16603e-25)
(0.631928 -0.0184142 -1.20994e-23)
(0.636117 -0.0182288 2.40473e-24)
(0.647015 -0.0166028 1.96223e-23)
(0.290679 -0.0397539 -4.77794e-21)
(0.290758 -0.039549 -8.12028e-20)
(0.292054 -0.0393651 8.75225e-20)
(0.293774 -0.0393923 -4.4123e-20)
(0.295728 -0.0396777 -3.67326e-21)
(0.297966 -0.0401569 3.44377e-20)
(0.300484 -0.0407781 -3.66969e-20)
(0.303255 -0.0415059 -5.26992e-21)
(0.30626 -0.0423079 2.67293e-20)
(0.309483 -0.0431544 -6.04e-21)
(0.312909 -0.0440201 -2.72029e-20)
(0.316525 -0.0448832 4.66512e-20)
(0.320319 -0.0457258 -1.27321e-20)
(0.324281 -0.0465331 -1.97548e-20)
(0.328403 -0.0472929 2.23543e-20)
(0.332677 -0.0479957 2.44471e-21)
(0.337096 -0.0486338 -1.00831e-20)
(0.341654 -0.0492016 -1.1423e-20)
(0.346346 -0.0496949 -1.32145e-20)
(0.351168 -0.0501106 7.15945e-21)
(0.356115 -0.0504469 4.77164e-21)
(0.361184 -0.0507031 7.82892e-21)
(0.366371 -0.0508789 -1.12735e-20)
(0.371673 -0.0509751 6.49965e-21)
(0.377084 -0.0509928 -9.63168e-22)
(0.382603 -0.0509336 -5.53477e-21)
(0.388224 -0.0507998 3.71257e-21)
(0.393944 -0.0505939 3.60629e-22)
(0.399759 -0.0503185 -7.53674e-21)
(0.405663 -0.0499767 2.37718e-21)
(0.411654 -0.0495719 4.64118e-21)
(0.417726 -0.0491073 -2.78919e-21)
(0.423874 -0.0485866 1.38579e-21)
(0.430094 -0.0480134 2.95057e-21)
(0.436379 -0.0473914 -4.64987e-21)
(0.442727 -0.0467242 2.24503e-21)
(0.44913 -0.0460157 2.43193e-21)
(0.455584 -0.0452696 -2.12654e-21)
(0.462083 -0.0444894 3.05041e-22)
(0.468622 -0.043679 -2.71417e-21)
(0.475197 -0.0428417 1.49658e-21)
(0.4818 -0.0419812 8.52637e-22)
(0.488429 -0.0411007 3.34484e-22)
(0.495076 -0.0402034 -1.37478e-21)
(0.501738 -0.0392926 -3.07529e-22)
(0.508409 -0.0383712 2.52534e-21)
(0.515084 -0.0374421 -2.24859e-22)
(0.521759 -0.036508 -1.29757e-21)
(0.52843 -0.0355715 1.47959e-23)
(0.535091 -0.034635 -2.07588e-22)
(0.541739 -0.0337009 1.93262e-22)
(0.54837 -0.0327714 9.69718e-23)
(0.554981 -0.0318484 1.85319e-22)
(0.561567 -0.0309339 -1.90477e-22)
(0.568126 -0.0300296 -1.64387e-23)
(0.574655 -0.0291372 -1.81246e-22)
(0.581152 -0.0282582 3.00916e-24)
(0.587611 -0.027394 -1.92902e-23)
(0.594038 -0.0265456 3.41937e-23)
(0.600417 -0.0257148 -7.04806e-23)
(0.606774 -0.0249004 -7.16446e-23)
(0.613051 -0.0241086 2.0907e-23)
(0.61937 -0.0233248 -5.04618e-23)
(0.625468 -0.022586 3.68892e-23)
(0.631902 -0.0217988 -2.03593e-24)
(0.637507 -0.021179 -3.81992e-24)
(0.644683 -0.0202138 8.27829e-24)
(0.648565 -0.0200175 1.14692e-24)
(0.658864 -0.0182729 -1.20777e-23)
(0.345342 -0.0405862 -4.66251e-20)
(0.344456 -0.0407894 2.00804e-20)
(0.345001 -0.0408745 -1.38418e-20)
(0.346053 -0.0411279 -1.23263e-20)
(0.347382 -0.0416264 2.8961e-21)
(0.349038 -0.0423002 -1.7831e-21)
(0.351011 -0.0430971 5.56324e-21)
(0.353261 -0.0439841 2.98594e-20)
(0.355757 -0.0449305 -4.66527e-20)
(0.358475 -0.0459074 3.44549e-20)
(0.361394 -0.0468905 1.01005e-20)
(0.364496 -0.0478592 -5.20523e-20)
(0.367765 -0.0487965 4.82242e-20)
(0.37119 -0.0496886 -1.89642e-20)
(0.374759 -0.0505243 7.05623e-22)
(0.378464 -0.0512947 1.13184e-20)
(0.382299 -0.051993 -1.79441e-20)
(0.386257 -0.052614 7.89805e-21)
(0.390335 -0.0531538 -1.66368e-20)
(0.394528 -0.05361 -6.09531e-21)
(0.398834 -0.053981 2.46853e-20)
(0.403249 -0.0542661 -3.74498e-21)
(0.407771 -0.0544654 2.65433e-21)
(0.412397 -0.0545796 6.97214e-21)
(0.417124 -0.0546101 -1.61559e-21)
(0.42195 -0.0545587 -5.86385e-21)
(0.426873 -0.0544276 -7.37767e-21)
(0.431888 -0.0542195 8.16197e-21)
(0.436993 -0.0539371 3.9556e-23)
(0.442185 -0.0535838 -4.81514e-21)
(0.447459 -0.0531628 1.69529e-21)
(0.452814 -0.0526779 4.95379e-21)
(0.458244 -0.0521325 -9.66055e-21)
(0.463745 -0.0515307 2.32673e-21)
(0.469314 -0.0508762 3.09774e-21)
(0.474947 -0.0501731 9.08785e-22)
(0.480638 -0.0494251 -3.72226e-21)
(0.486383 -0.0486364 1.44456e-23)
(0.492177 -0.0478108 -4.75401e-22)
(0.498017 -0.0469522 3.46354e-21)
(0.503897 -0.0460643 -2.16315e-21)
(0.509812 -0.0451508 -1.51269e-22)
(0.515759 -0.0442154 1.44661e-21)
(0.521732 -0.0432615 -1.84526e-23)
(0.527726 -0.0422924 -1.54664e-21)
(0.533738 -0.0413114 2.14408e-21)
(0.539763 -0.0403216 -3.29764e-22)
(0.545796 -0.0393259 -1.31026e-21)
(0.551834 -0.0383271 8.1248e-22)
(0.557872 -0.0373278 -3.14997e-22)
(0.563907 -0.0363306 -1.40841e-22)
(0.569934 -0.0353377 -1.15729e-22)
(0.575951 -0.0343515 2.78426e-22)
(0.581953 -0.0333739 -4.88267e-22)
(0.587939 -0.0324069 1.07084e-22)
(0.593906 -0.0314524 -6.1528e-23)
(0.59985 -0.0305118 2.16352e-22)
(0.605769 -0.0295869 1.28251e-22)
(0.611665 -0.0286787 -1.13463e-22)
(0.617525 -0.0277892 5.28148e-23)
(0.623373 -0.026917 8.2659e-23)
(0.629154 -0.0260694 -4.64196e-23)
(0.634986 -0.0252297 3.05486e-23)
(0.640612 -0.0244398 -1.85616e-24)
(0.646576 -0.0235958 2.76963e-24)
(0.651749 -0.022936 -2.06304e-24)
(0.658444 -0.0219015 -9.30691e-24)
(0.662007 -0.0216968 -1.52755e-24)
(0.671669 -0.0198541 -6.13464e-24)
(0.403654 -0.0403235 2.65844e-20)
(0.401768 -0.0410575 -2.52327e-20)
(0.40152 -0.0415075 8.48524e-21)
(0.401863 -0.0420683 2.14502e-20)
(0.402524 -0.0428478 -3.97589e-20)
(0.403555 -0.0437695 1.18727e-20)
(0.404935 -0.0447819 5.69538e-20)
(0.40661 -0.0458572 -1.83329e-20)
(0.408537 -0.0469681 -3.39281e-20)
(0.410686 -0.0480889 2.86964e-20)
(0.413029 -0.049198 -8.6742e-21)
(0.415544 -0.0502776 2.21225e-20)
(0.418214 -0.0513129 -2.86999e-20)
(0.421023 -0.0522919 -3.14015e-20)
(0.423962 -0.0532052 5.14865e-20)
(0.427022 -0.0540451 -4.74718e-20)
(0.430196 -0.0548057 2.78587e-20)
(0.43348 -0.0554826 2.26519e-20)
(0.436871 -0.0560725 -4.36745e-20)
(0.440364 -0.0565734 3.33846e-20)
(0.443959 -0.0569839 -1.624e-20)
(0.447654 -0.0573036 -1.24956e-20)
(0.451446 -0.0575328 3.03442e-21)
(0.455334 -0.0576721 2.46243e-20)
(0.459318 -0.0577231 -2.94832e-20)
(0.463394 -0.0576877 2.68991e-20)
(0.467562 -0.057568 6.13246e-21)
(0.47182 -0.0573667 -4.92014e-21)
(0.476164 -0.0570869 -1.80393e-20)
(0.480594 -0.0567318 4.74546e-21)
(0.485107 -0.0563048 7.22031e-21)
(0.489699 -0.0558096 -7.07513e-21)
(0.494367 -0.0552502 5.12192e-21)
(0.49911 -0.0546303 -2.80516e-21)
(0.503922 -0.0539542 1.66762e-21)
(0.508801 -0.0532258 -1.63955e-21)
(0.513742 -0.0524494 9.88363e-22)
(0.518743 -0.051629 2.9963e-22)
(0.523799 -0.0507687 -8.53487e-22)
(0.528906 -0.0498727 2.07833e-21)
(0.53406 -0.0489449 -2.59193e-21)
(0.539256 -0.0479892 -9.22617e-22)
(0.544491 -0.0470094 3.115e-22)
(0.549761 -0.0460092 2.98644e-23)
(0.555061 -0.0449922 -7.0041e-22)
(0.560387 -0.0439617 2.13753e-21)
(0.565735 -0.0429212 -4.58084e-22)
(0.571101 -0.0418737 -7.23396e-22)
(0.576481 -0.0408222 -8.02287e-22)
(0.581872 -0.0397695 1.47521e-21)
(0.587269 -0.0387183 -5.76721e-23)
(0.59267 -0.0376712 6.92957e-22)
(0.598071 -0.0366306 -1.34566e-21)
(0.603469 -0.0355986 7.72706e-22)
(0.608861 -0.0345773 1.10667e-22)
(0.614244 -0.0335688 -1.29259e-22)
(0.619617 -0.0325747 1.87173e-22)
(0.624975 -0.0315969 -2.6037e-22)
(0.630321 -0.0306364 3.30386e-24)
(0.635644 -0.0296957 -9.41401e-24)
(0.640965 -0.028773 -1.01121e-22)
(0.646231 -0.0278766 2.27976e-23)
(0.651559 -0.0269878 -1.77921e-23)
(0.656697 -0.0261535 1.35023e-23)
(0.662174 -0.0252595 -2.92368e-24)
(0.666901 -0.0245661 1.93955e-24)
(0.673097 -0.0234707 8.71584e-24)
(0.676331 -0.0232601 -2.96656e-24)
(0.685329 -0.02134 3.23306e-24)
(0.462126 -0.040267 -2.97645e-20)
(0.461083 -0.0411865 3.04549e-20)
(0.460706 -0.0421443 -6.52903e-20)
(0.460682 -0.043278 9.60975e-21)
(0.461061 -0.0445028 2.57921e-20)
(0.461809 -0.0457708 -1.29269e-20)
(0.462856 -0.0470624 -7.45783e-21)
(0.464154 -0.0483569 9.74705e-21)