0.167813 	0.482335 	-1.86263e-18 	0.354974 	-0.0114026 	1.87556e-16
0.170247 	0.489332 	-2.17926e-18 	0.217295 	-0.00396995 	1.12246e-16
0.172682 	0.49633 	-2.19785e-18 	0.0738735 	-0.000587033 	3.2879e-17
