0.0826367 	0.499829 	1.00497e-18 	5.0319
