/*--------------------------------*- C++ -*----------------------------------*\
  =========                 |
  \\      /  F ield         | OpenFOAM: The Open Source CFD Toolbox
   \\    /   O peration     | Website:  https://openfoam.org
    \\  /    A nd           | Version:  7
     \\/     M anipulation  |
\*---------------------------------------------------------------------------*/
FoamFile
{
    version     2.0;
    format      ascii;
    class       volVectorField;
    location    "0.1";
    object      U;
}
// * * * * * * * * * * * * * * * * * * * * * * * * * * * * * * * * * * * * * //

dimensions      [0 1 -1 0 0 0 0];

internalField   nonuniform List<vector> 
4116
(
(3 6.55852e-16 0)
(3 1.07273e-15 0)
(3 4.55451e-16 0)
(3 -2.54613e-16 0)
(3 -2.32397e-16 0)
(3 5.43467e-16 0)
(3 2.26393e-15 0)
(3 2.64585e-15 0)
(3 1.86274e-15 0)
(3 2.3327e-15 0)
(3 2.86679e-15 0)
(3 2.40791e-15 0)
(3 2.36829e-15 0)
(3 1.93244e-15 0)
(3 2.03728e-15 0)
(3 1.79712e-15 0)
(3 1.27108e-15 0)
(3 -1.79946e-16 0)
(3 -1.29317e-15 0)
(3 -1.42345e-15 0)
(3 -1.31667e-15 0)
(3 -9.72064e-16 0)
(3 -1.89015e-15 0)
(3 -2.61859e-15 0)
(3 -2.1707e-15 0)
(3 -1.65047e-15 0)
(3 -9.21003e-16 0)
(3 -1.22789e-15 0)
(3 7.18532e-16 0)
(3 1.82368e-15 0)
(3 1.83105e-15 0)
(3 -7.9183e-16 0)
(3 -1.72385e-15 0)
(3 -1.15873e-15 0)
(3 -9.62426e-16 0)
(3 -5.1055e-16 0)
(3 -6.6067e-16 0)
(3 -9.86279e-16 0)
(3 -1.10937e-15 0)
(3 -6.95998e-16 0)
(3 1.50102e-15 0)
(3 1.71602e-15 0)
(3 1.53288e-15 0)
(3 1.22381e-15 0)
(3 -1.66885e-16 0)
(3 -5.67253e-16 0)
(3 9.82183e-16 0)
(3 2.57431e-15 0)
(3 1.68917e-15 0)
(3 1.50812e-15 0)
(3 1.03031e-15 0)
(3 1.81019e-15 0)
(3 1.91214e-15 0)
(3 1.86454e-15 0)
(3 1.063e-15 0)
(3 4.72095e-16 0)
(3 -6.84542e-16 0)
(3 -1.18717e-15 0)
(3 -7.98795e-16 0)
(3 -4.62502e-16 0)
(3 -4.83041e-16 0)
(3 -2.08053e-15 0)
(3 -1.35508e-15 0)
(3 -5.10279e-16 0)
(3 -4.05644e-16 0)
(3 2.11981e-17 0)
(3 -4.15253e-16 0)
(3 -1.27885e-15 0)
(3 -8.55792e-16 0)
(3 -1.05294e-15 0)
(3 -9.40184e-16 0)
(3 -1.69137e-15 0)
(3 -1.70286e-15 0)
(3 -1.50143e-15 0)
(3 -2.01063e-15 0)
(3 -1.89232e-15 0)
(3 -2.05851e-15 0)
(3 -2.91909e-15 0)
(3 -3.26088e-15 0)
(3 -2.96666e-15 0)
(3 -1.38781e-15 0)
(3 -1.48182e-15 0)
(3 -3.81604e-16 0)
(3 -1.64052e-17 0)
(3 6.13258e-16 0)
(3 5.28946e-16 0)
(3 4.64237e-16 0)
(3 -2.23499e-16 0)
(3 1.56447e-16 0)
(3 2.16877e-16 0)
(3 -6.41882e-16 0)
(3 -7.10478e-16 0)
(3 3.02854e-17 0)
(3 -2.56152e-16 0)
(3 9.36298e-17 0)
(3 1.60432e-16 0)
(3 5.32451e-16 0)
(3 4.87648e-16 0)
(3 7.76377e-16 0)
(3 1.25298e-15 0)
(3 1.05414e-15 0)
(3 1.34159e-15 0)
(3 1.94344e-15 0)
(3 1.10784e-15 0)
(3 4.75145e-16 0)
(3 6.27516e-16 0)
(3 -9.04432e-16 0)
(3 -9.27976e-16 0)
(3 -8.32318e-17 0)
(3 -2.07933e-17 0)
(3 4.75017e-16 0)
(3 1.07654e-15 0)
(3 9.5246e-16 0)
(3 3.91878e-16 0)
(3 -2.00863e-16 0)
(3 5.86098e-16 0)
(3 8.94811e-16 0)
(3 2.01624e-15 0)
(3 2.1966e-15 0)
(3 1.83182e-15 0)
(3 1.91584e-15 0)
(3 2.08974e-15 0)
(3 1.89861e-15 0)
(3 2.07098e-15 0)
(3 1.93314e-15 0)
(3 1.53837e-15 0)
(3 4.43098e-16 0)
(3 -3.00719e-17 0)
(3 1.57689e-16 0)
(3 -1.68439e-16 0)
(3 -5.47164e-16 0)
(3 -6.70057e-16 0)
(3 -4.90647e-16 0)
(3 -5.00998e-16 0)
(3 -6.1888e-16 0)
(3 -8.82029e-16 0)
(3 -7.97299e-16 0)
(3 2.0506e-16 0)
(3 2.49129e-17 0)
(3 -1.45892e-16 0)
(3 -1.05581e-16 0)
(3 -1.41919e-16 0)
(3 -1.07434e-15 0)
(3 -4.46936e-16 0)
(3 1.69049e-16 0)
(3 1.41241e-15 0)
(3 1.80036e-15 0)
(3 -1.63406e-15 0)
(3 -7.75649e-16 0)
(3 -4.50671e-17 0)
(3 4.8326e-17 0)
(3 2.43675e-16 0)
(3 9.64066e-16 0)
(3 4.01558e-15 0)
(3 4.53237e-15 0)
(3 3.94021e-15 0)
(3 3.92314e-15 0)
(3 4.0918e-15 0)
(3 3.70189e-15 0)
(3 2.42321e-15 0)
(3 2.28114e-15 0)
(3 1.88988e-15 0)
(3 1.33263e-15 0)
(3 1.35237e-15 0)
(3 -2.75035e-16 0)
(3 -1.74998e-15 0)
(3 -2.97948e-15 0)
(3 -1.99026e-15 0)
(3 -1.34869e-15 0)
(3 -1.11565e-15 0)
(3 -1.29491e-15 0)
(3 -1.72301e-15 0)
(3 -1.59918e-15 0)
(3 -1.19947e-15 0)
(3 -3.4555e-16 0)
(3 4.61178e-16 0)
(3 8.04517e-16 0)
(3 7.20575e-16 0)
(3 -5.38644e-16 0)
(3 -7.5881e-16 0)
(3 -1.05667e-15 0)
(3 -7.11746e-16 0)
(3 -1.80896e-16 0)
(3 -4.61867e-16 0)
(3 -5.63817e-16 0)
(3 7.90131e-16 0)
(3 5.74454e-16 0)
(3 4.263e-16 0)
(3 2.73509e-16 0)
(3 -5.54354e-16 0)
(3 -9.10891e-16 0)
(3 -5.67515e-16 0)
(3 1.12347e-16 0)
(3 1.14006e-15 0)
(3 1.70281e-15 0)
(3 2.86913e-15 0)
(3 3.67879e-15 0)
(3 3.33636e-15 0)
(3 2.25413e-15 0)
(3 1.54508e-15 0)
(3 1.07666e-15 0)
(3 7.79037e-16 0)
(3 -3.07083e-17 0)
(3 1.5558e-16 0)
(3 1.17428e-15 0)
(3 1.19646e-15 0)
(3 8.35511e-16 0)
(3 -5.37605e-16 0)
(3 -2.09253e-15 0)
(3 -2.30889e-15 0)
(3 -2.56916e-15 0)
(3 -1.60038e-15 0)
(3 -1.68735e-15 0)
(3 -1.94016e-15 0)
(3 -1.11128e-15 0)
(3 1.06669e-16 0)
(3 2.27263e-16 0)
(3 -1.745e-16 0)
(3 -8.81622e-16 0)
(3 -1.40761e-15 0)
(3 -1.5427e-15 0)
(3 -1.72094e-15 0)
(3 -2.387e-15 0)
(3 -2.52732e-15 0)
(3 -3.17979e-15 0)
(3 -3.27665e-15 0)
(3 -2.91454e-15 0)
(3 -2.13482e-15 0)
(3 -1.09309e-15 0)
(3 -8.51449e-16 0)
(3 -8.94809e-16 0)
(3 -3.67881e-16 0)
(3 3.00314e-16 0)
(3 8.32918e-16 0)
(3 -6.2282e-17 0)
(3 2.81535e-16 0)
(3 6.69053e-16 0)
(3 -4.80802e-17 0)
(3 -4.39253e-16 0)
(3 3.44422e-16 0)
(3 8.18219e-16 0)
(3 8.06228e-16 0)
(3 7.61427e-16 0)
(3 5.84086e-16 0)
(3 5.54019e-16 0)
(3 4.48563e-16 0)
(3 2.82001e-16 0)
(3 3.32354e-16 0)
(3 1.24388e-15 0)
(3 1.56593e-15 0)
(3 2.59571e-15 0)
(3 2.65206e-15 0)
(3 1.57703e-15 0)
(3 7.42241e-17 0)
(3 -6.05522e-17 0)
(3 7.39839e-16 0)
(3 9.18739e-16 0)
(3 2.61313e-16 0)
(3 5.92078e-16 0)
(3 1.03306e-15 0)
(3 6.33076e-16 0)
(3 1.50559e-16 0)
(3 -4.21048e-17 0)
(3 2.43601e-16 0)
(3 7.65018e-16 0)
(3 1.1554e-15 0)
(3 1.10899e-15 0)
(3 9.0798e-16 0)
(3 1.04971e-15 0)
(3 1.32793e-15 0)
(3 1.0269e-15 0)
(3 9.9264e-16 0)
(3 1.19203e-15 0)
(3 1.07943e-15 0)
(3 5.4163e-17 0)
(3 -8.68577e-16 0)
(3 -6.37744e-16 0)
(3 5.76681e-17 0)
(3 -2.06416e-16 0)
(3 -1.03052e-15 0)
(3 -4.44252e-17 0)
(3 1.13192e-15 0)
(3 1.05117e-15 0)
(3 6.95973e-16 0)
(3 -3.25292e-16 0)
(3 -4.48082e-16 0)
(3 -3.25376e-16 0)
(3 -1.78997e-16 0)
(3 -5.4975e-16 0)
(3 -4.32042e-16 0)
(3 -1.21802e-15 0)
(3 -1.88201e-15 0)
(3 -1.93891e-15 0)
(3 -7.80296e-16 0)
(3 -6.50749e-16 0)
(3 -2.04177e-16 0)
(3 5.72339e-16 0)
(3 8.40921e-16 0)
(3 8.73107e-16 0)
(3 2.54275e-15 0)
(3 2.7538e-15 0)
(3 2.69999e-15 0)
(3 3.01789e-15 0)
(3 3.22012e-15 0)
(3 3.99424e-15 0)
(3 4.71541e-15 0)
(3 3.88535e-15 0)
(3 1.30413e-15 0)
(3 -1.89695e-16 0)
(3 -9.22738e-16 0)
(3 2.48295e-18 0)
(3 -1.18399e-15 0)
(3 -2.13048e-15 0)
(3 -2.59139e-15 0)
(3 -1.92348e-15 0)
(3 -2.31448e-16 0)
(3 3.5332e-16 0)
(3 -3.50544e-17 0)
(3 -1.13863e-15 0)
(3 -1.97887e-15 0)
(3 -7.57663e-16 0)
(3 1.07786e-15 0)
(3 1.23889e-15 0)
(3 -3.16718e-16 0)
(3 -9.21171e-16 0)
(3 -7.88829e-16 0)
(3 -1.10668e-15 0)
(3 -1.69002e-15 0)
(3 -1.65922e-15 0)
(3 -1.13202e-15 0)
(3 -3.163e-16 0)
(3 3.89765e-16 0)
(3 7.07593e-16 0)
(3 7.35089e-16 0)
(3 -8.20728e-16 0)
(3 -1.57403e-15 0)
(3 -1.3349e-15 0)
(3 -7.777e-16 0)
(3 5.07019e-16 0)
(3 1.85537e-15 0)
(3 2.04506e-15 0)
(3 1.39507e-15 0)
(3 1.92418e-15 0)
(3 3.12924e-15 0)
(3 4.07659e-15 0)
(3 4.07201e-15 0)
(3 3.30935e-15 0)
(3 1.52472e-15 0)
(3 4.9306e-16 0)
(3 4.96729e-16 0)
(3 7.45772e-16 0)
(3 1.63478e-15 0)
(3 1.31111e-15 0)
(3 -5.14662e-16 0)
(3 -1.13232e-15 0)
(3 -7.01616e-16 0)
(3 -6.34232e-16 0)
(3 -6.78033e-16 0)
(3 -1.04871e-15 0)
(3 -1.06292e-15 0)
(3 -7.56549e-16 0)
(3 -4.68815e-16 0)
(3 -2.57461e-16 0)
(3 3.13202e-16 0)
(3 7.40407e-16 0)
(3 -7.29946e-16 0)
(3 -1.55089e-15 0)
(3 -1.1892e-15 0)
(3 -9.40064e-16 0)
(3 -1.78522e-15 0)
(3 -1.47364e-15 0)
(3 -1.53806e-15 0)
(3 -1.38218e-15 0)
(3 -9.52703e-16 0)
(3 -4.66023e-16 0)
(3 3.541e-16 0)
(3 3.05586e-16 0)
(3 -8.74734e-16 0)
(3 -7.92606e-16 0)
(3 -1.57552e-16 0)
(3 3.41548e-18 0)
(3 -4.8267e-17 0)
(3 -6.25006e-16 0)
(3 -8.50779e-16 0)
(3 5.92656e-17 0)
(3 2.34341e-16 0)
(3 2.03311e-16 0)
(3 -1.8211e-16 0)
(3 3.34989e-16 0)
(3 8.43918e-16 0)
(3 -1.39223e-16 0)
(3 -8.05034e-16 0)
(3 -1.49126e-15 0)
(3 -1.57558e-15 0)
(3 -1.81078e-15 0)
(3 -2.21126e-15 0)
(3 -6.97507e-16 0)
(3 1.6311e-15 0)
(3 3.78845e-15 0)
(3 3.85306e-15 0)
(3 1.97904e-15 0)
(3 8.80489e-16 0)
(3 1.06845e-15 0)
(3 1.18372e-15 0)
(3 -1.01799e-15 0)
(3 -1.35024e-15 0)
(3 -1.05983e-15 0)
(3 -5.28129e-16 0)
(3 -1.26075e-15 0)
(3 -2.49157e-15 0)
(3 -2.36235e-15 0)
(3 -2.17584e-15 0)
(3 -5.5656e-16 0)
(3 1.18803e-16 0)
(3 -5.20507e-17 0)
(3 1.3859e-16 0)
(3 1.11577e-16 0)
(3 7.34838e-16 0)
(3 7.0245e-16 0)
(3 2.27572e-16 0)
(3 4.66551e-16 0)
(3 5.19875e-16 0)
(3 1.69357e-16 0)
(3 -4.15634e-16 0)
(3 -1.06816e-15 0)
(3 -1.46283e-15 0)
(3 -1.65554e-15 0)
(3 -7.12025e-16 0)
(3 4.91105e-17 0)
(3 7.16706e-16 0)
(3 1.53562e-15 0)
(3 2.32395e-16 0)
(3 -6.43657e-17 0)
(3 3.19688e-16 0)
(3 1.48617e-16 0)
(3 5.77485e-17 0)
(3 1.591e-16 0)
(3 -6.32313e-16 0)
(3 -2.4589e-15 0)
(3 -3.20876e-15 0)
(3 -2.22399e-15 0)
(3 -1.28191e-15 0)
(3 -4.69854e-16 0)
(3 6.45e-16 0)
(3 1.21342e-15 0)
(3 1.81404e-15 0)
(3 1.66887e-15 0)
(3 9.00623e-16 0)
(3 6.13826e-16 0)
(3 9.89948e-16 0)
(3 1.46699e-15 0)
(3 1.96198e-15 0)
(3 2.59684e-15 0)
(3 2.67136e-15 0)
(3 1.17384e-15 0)
(3 -1.74719e-15 0)
(3 -2.29443e-15 0)
(3 -2.42905e-15 0)
(3 -2.69696e-15 0)
(3 -3.13345e-15 0)
(3 -3.67331e-15 0)
(3 -3.9687e-15 0)
(3 -1.37679e-15 0)
(3 -1.19849e-16 0)
(3 9.8553e-17 0)
(3 -1.7851e-16 0)
(3 -9.30474e-16 0)
(3 -5.50343e-16 0)
(3 -5.6312e-16 0)
(3 -2.77505e-16 0)
(3 -6.44687e-16 0)
(3 -1.5196e-15 0)
(3 -2.12229e-15 0)
(3 -2.84791e-15 0)
(3 -2.27873e-15 0)
(3 -1.26304e-15 0)
(3 -2.05174e-16 0)
(3 -3.59838e-16 0)
(3 -9.49675e-16 0)
(3 -1.38896e-15 0)
(3 -1.2164e-15 0)
(3 -1.82437e-15 0)
(3 -1.87864e-15 0)
(3 -7.48837e-16 0)
(3 -8.13695e-16 0)
(3 2.6186e-16 0)
(3 1.98113e-15 0)
(3 2.23498e-15 0)
(3 2.10399e-15 0)
(3 1.12204e-15 0)
(3 1.58321e-15 0)
(3 2.9843e-15 0)
(3 3.58003e-15 0)
(3 3.33925e-15 0)
(3 2.33051e-15 0)
(3 1.52238e-15 0)
(3 1.81883e-15 0)
(3 1.50502e-15 0)
(3 1.34066e-16 0)
(3 -8.00846e-16 0)
(3 -1.71261e-15 0)
(3 -1.04332e-15 0)
(3 -4.03071e-17 0)
(3 -3.79285e-16 0)
(3 8.63689e-17 0)
(3 -2.86299e-16 0)
(3 -2.77323e-16 0)
(3 7.53601e-16 0)
(3 2.18962e-16 0)
(3 6.69225e-17 0)
(3 3.89224e-16 0)
(3 1.22047e-15 0)
(3 1.58219e-15 0)
(3 1.65359e-15 0)
(3 9.63581e-16 0)
(3 1.25047e-15 0)
(3 6.22587e-16 0)
(3 -2.81037e-16 0)
(3 -1.01552e-15 0)
(3 -1.62438e-15 0)
(3 -2.09042e-15 0)
(3 -2.13587e-15 0)
(3 -1.24712e-15 0)
(3 2.74374e-16 0)
(3 1.23382e-16 0)
(3 -5.2294e-16 0)
(3 -1.38801e-15 0)
(3 -1.71008e-15 0)
(3 -1.84143e-15 0)
(3 -2.47491e-15 0)
(3 -2.9898e-15 0)
(3 -2.14649e-15 0)
(3 -1.08677e-15 0)
(3 -3.21969e-16 0)
(3 -2.10756e-16 0)
(3 -5.8423e-16 0)
(3 -2.65128e-16 0)
(3 -6.72572e-16 0)
(3 -1.02576e-15 0)
(3 -1.62645e-15 0)
(3 -2.1763e-15 0)
(3 -2.22649e-15 0)
(3 -2.46862e-15 0)
(3 -1.91192e-15 0)
(3 1.22547e-16 0)
(3 3.39216e-15 0)
(3 4.36142e-15 0)
(3 3.00857e-15 0)
(3 1.96952e-15 0)
(3 -7.96312e-16 0)
(3 -1.12481e-15 0)
(3 -1.15462e-16 0)
(3 -3.98293e-16 0)
(3 -1.21619e-15 0)
(3 -1.73317e-15 0)
(3 -1.6529e-15 0)
(3 -2.23935e-15 0)
(3 -1.97833e-15 0)
(3 -1.08712e-15 0)
(3 -7.69301e-17 0)
(3 2.22982e-16 0)
(3 -8.90026e-17 0)
(3 -4.631e-16 0)
(3 -9.93305e-16 0)
(3 -4.69652e-16 0)
(3 -9.00974e-16 0)
(3 -1.33647e-15 0)
(3 -1.24302e-15 0)
(3 -3.84205e-17 0)
(3 -3.72177e-17 0)
(3 -1.39395e-15 0)
(3 -2.59055e-15 0)
(3 -2.8975e-15 0)
(3 -2.75964e-15 0)
(3 -2.67006e-15 0)
(3 -1.27289e-15 0)
(3 -9.34909e-16 0)
(3 1.30904e-15 0)
(3 1.27525e-15 0)
(3 4.96726e-16 0)
(3 -3.99736e-16 0)
(3 -1.3161e-15 0)
(3 -1.50064e-15 0)
(3 -2.38574e-15 0)
(3 -2.10537e-15 0)
(3 -1.97012e-15 0)
(3 -2.93208e-15 0)
(3 -3.7273e-15 0)
(3 -1.5441e-15 0)
(3 -2.24946e-15 0)
(3 -1.07603e-16 0)
(3 1.31766e-15 0)
(3 1.79805e-15 0)
(3 2.4177e-15 0)
(3 3.08211e-15 0)
(3 2.6523e-15 0)
(3 1.82427e-15 0)
(3 9.18312e-16 0)
(3 1.39844e-16 0)
(3 1.30392e-16 0)
(3 8.14846e-18 0)
(3 -6.05076e-16 0)
(3 -1.18813e-15 0)
(3 -2.0435e-15 0)
(3 -2.09789e-15 0)
(3 -2.11124e-15 0)
(3 -2.01108e-15 0)
(3 -1.36665e-15 0)
(3 -5.36185e-16 0)
(3 2.21207e-16 0)
(3 7.20694e-16 0)
(3 -3.04318e-16 0)
(3 -5.86439e-16 0)
(3 -2.16937e-16 0)
(3 -1.08891e-15 0)
(3 -2.49609e-15 0)
(3 -2.79096e-15 0)
(3 -1.98409e-15 0)
(3 -1.79035e-15 0)
(3 -2.18696e-15 0)
(3 -2.37173e-15 0)
(3 -1.69294e-15 0)
(3 -1.29064e-15 0)
(3 -5.44547e-16 0)
(3 -2.05815e-15 0)
(3 -3.42291e-15 0)
(3 -3.45439e-15 0)
(3 -3.42355e-15 0)
(3 -2.40357e-15 0)
(3 -1.43746e-15 0)
(3 -1.4248e-15 0)
(3 -5.08312e-16 0)
(3 8.73229e-16 0)
(3 1.12857e-15 0)
(3 1.14159e-15 0)
(3 1.35521e-15 0)
(3 1.09428e-15 0)
(3 1.48648e-15 0)
(3 2.02392e-15 0)
(3 3.05742e-15 0)
(3 3.11258e-15 0)
(3 2.9958e-15 0)
(3 2.74697e-15 0)
(3 2.70539e-15 0)
(3 2.54318e-15 0)
(3 2.415e-17 0)
(3 -1.86017e-15 0)
(3 -1.58238e-15 0)
(3 -1.25215e-15 0)
(3 -1.1335e-15 0)
(3 -1.44766e-15 0)
(3 -1.29011e-15 0)
(3 -1.0454e-15 0)
(3 -3.64282e-16 0)
(3 2.61723e-16 0)
(3 1.92221e-16 0)
(3 3.00251e-16 0)
(3 8.79087e-16 0)
(3 9.32855e-16 0)
(3 1.26742e-15 0)
(3 1.19943e-15 0)
(3 9.71537e-16 0)
(3 7.59386e-16 0)
(3 8.24073e-16 0)
(3 8.89447e-17 0)
(3 -4.14063e-16 0)
(3 -1.12737e-15 0)
(3 -3.48805e-15 0)
(3 -2.26026e-15 0)
(3 -1.02147e-15 0)
(3 1.66601e-16 0)
(3 2.30632e-17 0)
(3 -2.91799e-17 0)
(3 -3.51311e-16 0)
(3 -1.23935e-15 0)
(3 -2.89785e-15 0)
(3 -3.19035e-15 0)
(3 -2.64306e-15 0)
(3 -2.32555e-15 0)
(3 -1.793e-15 0)
(3 -1.42967e-15 0)
(3 -1.29551e-15 0)
(3 -1.51075e-15 0)
(3 -8.74602e-16 0)
(3 -2.88173e-16 0)
(3 -1.87911e-15 0)
(3 -3.5181e-15 0)
(3 -3.78939e-15 0)
(3 -2.99751e-15 0)
(3 -7.2976e-16 0)
(3 1.64902e-16 0)
(3 1.93606e-16 0)
(3 1.34875e-15 0)
(3 2.35996e-15 0)
(3 2.89134e-15 0)
(3 2.61135e-15 0)
(3 1.40887e-15 0)
(3 9.45938e-16 0)
(3 9.7518e-16 0)
(3 2.44752e-17 0)
(3 -8.52192e-16 0)
(3 -1.20536e-15 0)
(3 -4.83547e-16 0)
(3 -3.00325e-17 0)
(3 4.36917e-16 0)
(3 1.60565e-15 0)
(3 1.82466e-15 0)
(3 6.2871e-17 0)
(3 -2.27855e-17 0)
(3 -7.78327e-16 0)
(3 -8.13485e-16 0)
(3 -9.64502e-16 0)
(3 -1.13382e-15 0)
(3 -1.53549e-15 0)
(3 -1.49343e-15 0)
(3 -2.19672e-15 0)
(3 -2.29221e-15 0)
(3 -3.56146e-15 0)
(3 -4.18217e-15 0)
(3 -3.78662e-15 0)
(3 -3.83177e-15 0)
(3 -2.51162e-15 0)
(3 -5.10359e-16 0)
(3 2.2951e-16 0)
(3 -3.10123e-16 0)
(3 -2.24434e-16 0)
(3 -8.68544e-16 0)
(3 -2.27409e-15 0)
(3 -2.76378e-15 0)
(3 -2.297e-15 0)
(3 -1.64381e-15 0)
(3 -1.48243e-15 0)
(3 -8.73616e-16 0)
(3 -1.86678e-15 0)
(3 -3.0662e-15 0)
(3 -7.49141e-16 0)
(3 -1.74817e-15 0)
(3 -1.71474e-15 0)
(3 7.52569e-16 0)
(3 9.66616e-16 0)
(3 1.28823e-15 0)
(3 1.84387e-15 0)
(3 1.80616e-15 0)
(3 2.00993e-16 0)
(3 -2.81799e-16 0)
(3 1.81484e-16 0)
(3 1.33541e-15 0)
(3 1.14983e-15 0)
(3 6.39124e-16 0)
(3 -6.96276e-16 0)
(3 -1.10565e-15 0)
(3 -1.19949e-15 0)
(3 -1.22029e-15 0)
(3 -5.49423e-16 0)
(3 -1.91236e-17 0)
(3 3.11089e-16 0)
(3 3.29549e-16 0)
(3 5.09978e-16 0)
(3 -1.71487e-15 0)
(3 -2.17359e-15 0)
(3 -2.49811e-15 0)
(3 -2.91688e-15 0)
(3 -2.56104e-15 0)
(3 -2.28198e-15 0)
(3 -1.82487e-15 0)
(3 -1.95606e-15 0)
(3 -2.11776e-15 0)
(3 -2.1311e-15 0)
(3 -2.35424e-15 0)
(3 -2.33825e-15 0)
(3 -2.6578e-15 0)
(3 -2.5603e-15 0)
(3 -2.86557e-15 0)
(3 -2.24583e-15 0)
(3 -1.65724e-15 0)
(3 -1.21355e-15 0)
(3 -6.32182e-16 0)
(3 -1.29195e-15 0)
(3 -9.75717e-16 0)
(3 -7.96682e-16 0)
(3 -8.34809e-16 0)
(3 -4.04698e-16 0)
(3 1.14402e-15 0)
(3 2.02075e-15 0)
(3 1.11107e-15 0)
(3 1.25283e-15 0)
(3 1.23102e-15 0)
(3 1.54413e-15 0)
(3 1.83298e-15 0)
(3 2.64012e-15 0)
(3 3.15783e-15 0)
(3 3.1973e-15 0)
(3 3.40986e-15 0)
(3 1.89358e-15 0)
(3 -4.7399e-16 0)
(3 -3.50837e-16 0)
(3 -7.87281e-16 0)
(3 -2.65017e-16 0)
(3 -7.39369e-16 0)
(3 -4.02789e-16 0)
(3 4.49855e-16 0)
(3 5.621e-16 0)
(3 6.94435e-16 0)
(3 1.02817e-15 0)
(3 1.05773e-15 0)
(3 5.09883e-16 0)
(3 -1.66216e-16 0)
(3 -7.9522e-16 0)
(3 -8.52516e-16 0)
(3 -8.71783e-16 0)
(3 1.67589e-17 0)
(3 4.87237e-16 0)
(3 3.43141e-16 0)
(3 1.81903e-16 0)
(3 1.49981e-16 0)
(3 -2.54539e-16 0)
(3 -6.07992e-16 0)
(3 -1.08344e-15 0)
(3 -1.11332e-15 0)
(3 -1.00619e-15 0)
(3 -6.64606e-16 0)
(3 -4.35334e-16 0)
(3 -6.77055e-16 0)
(3 -4.77531e-19 0)
(3 6.37729e-17 0)
(3 -3.84775e-16 0)
(3 -1.23094e-15 0)
(3 -1.64049e-15 0)
(3 -1.24639e-15 0)
(3 -1.15263e-15 0)
(3 -7.96159e-16 0)
(3 -2.45104e-16 0)
(3 -1.2712e-15 0)
(3 -1.64695e-15 0)
(3 -1.37769e-15 0)
(3 -7.52907e-16 0)
(3 -4.13307e-16 0)
(3 -3.90147e-16 0)
(3 -4.12156e-16 0)
(3 -5.62272e-16 0)
(3 -4.70461e-16 0)
(3 7.77535e-16 0)
(3 1.21888e-15 0)
(3 1.04831e-15 0)
(3 6.15746e-16 0)
(3 1.71673e-17 0)
(3 -7.89167e-16 0)
(3 -7.39454e-16 0)
(3 -5.52567e-16 0)
(3 -1.26833e-16 0)
(3 7.34777e-16 0)
(3 1.64462e-15 0)
(3 1.88882e-15 0)
(3 1.37107e-15 0)
(3 9.34496e-16 0)
(3 -7.731e-17 0)
(3 -2.61721e-16 0)
(3 2.80631e-16 0)
(3 2.6058e-16 0)
(3 2.28533e-16 0)
(3 6.70161e-16 0)
(3 1.63465e-17 0)
(3 -1.40462e-15 0)
(3 -1.43257e-15 0)
(3 -2.03293e-15 0)
(3 -2.08576e-15 0)
(3 -1.86446e-15 0)
(3 -2.77655e-15 0)
(3 -2.59582e-15 0)
(3 -8.60969e-16 0)
(3 -1.96947e-16 0)
(3 -9.35835e-16 0)
(3 -1.1362e-15 0)
(3 -1.21781e-15 0)
(3 -1.12336e-15 0)
(3 -1.54559e-15 0)
(3 -1.91087e-15 0)
(3 -1.97313e-15 0)
(3 -1.43776e-15 0)
(3 -8.41353e-16 0)
(3 -8.93768e-16 0)
(3 -1.25927e-15 0)
(3 3.15617e-16 0)
(3 -3.09455e-16 0)
(3 2.0394e-17 0)
(3 2.52485e-16 0)
(3 -3.10875e-16 0)
(3 -1.33276e-15 0)
(3 -2.93173e-15 0)
(3 -3.4731e-15 0)
(3 -1.26217e-15 0)
(3 -6.7191e-16 0)
(3 4.89764e-16 0)
(3 9.56704e-16 0)
(3 8.57326e-16 0)
(3 4.87988e-17 0)
(3 -3.33001e-16 0)
(3 -4.00909e-16 0)
(3 -3.89848e-16 0)
(3 -2.64281e-16 0)
(3 -1.99367e-16 0)
(3 2.76122e-18 0)
(3 4.04184e-16 0)
(3 4.46261e-16 0)
(3 -6.79867e-17 0)
(3 -8.51009e-16 0)
(3 -1.16238e-15 0)
(3 -1.43645e-15 0)
(3 -1.50369e-15 0)
(3 -1.70445e-15 0)
(3 -1.92297e-15 0)
(3 -2.12244e-15 0)
(3 -2.40213e-15 0)
(3 -1.32881e-15 0)
(3 -1.30216e-15 0)
(3 -2.15152e-15 0)
(3 -1.72732e-15 0)
(3 -1.81153e-15 0)
(3 -1.95447e-15 0)
(3 -2.15092e-15 0)
(3 -5.24308e-16 0)
(3 2.98506e-16 0)
(3 -5.882e-16 0)
(3 -1.06042e-15 0)
(3 -1.38669e-15 0)
(3 -1.73343e-15 0)
(3 -1.50855e-15 0)
(3 2.44184e-16 0)
(3 6.41435e-16 0)
(3 1.12095e-15 0)
(3 1.3255e-15 0)
(3 1.3235e-15 0)
(3 5.89903e-16 0)
(3 3.52197e-17 0)
(3 1.26601e-16 0)
(3 7.13601e-16 0)
(3 2.12426e-15 0)
(3 2.41305e-15 0)
(3 2.50281e-15 0)
(3 3.07732e-15 0)
(3 2.65659e-15 0)
(3 2.2927e-15 0)
(3 1.98827e-15 0)
(3 1.12161e-15 0)
(3 7.31358e-16 0)
(3 3.73557e-16 0)
(3 7.67296e-16 0)
(3 9.56424e-16 0)
(3 1.18531e-15 0)
(3 1.47998e-15 0)
(3 7.26934e-16 0)
(3 -1.26325e-16 0)
(3 -9.93625e-16 0)
(3 -1.3867e-15 0)
(3 -7.05116e-16 0)
(3 -5.8022e-16 0)
(3 4.98607e-17 0)
(3 1.53356e-17 0)
(3 -2.555e-16 0)
(3 -3.9389e-16 0)
(3 -5.10354e-16 0)
(3 -5.12942e-16 0)
(3 -1.10253e-15 0)
(3 -1.71134e-15 0)
(3 -2.27448e-15 0)
(3 -9.75738e-16 0)
(3 -7.11553e-16 0)
(3 -7.94498e-17 0)
(3 7.93752e-16 0)
(3 1.72832e-15 0)
(3 1.87343e-15 0)
(3 4.63669e-16 0)
(3 -4.78519e-16 0)
(3 -8.38784e-16 0)
(3 -1.33783e-15 0)
(3 -4.06827e-16 0)
(3 -2.79914e-16 0)
(3 -1.60904e-16 0)
(3 2.40369e-16 0)
(3 -5.74896e-16 0)
(3 4.72768e-16 0)
(3 1.33496e-15 0)
(3 1.46772e-15 0)
(3 3.08143e-16 0)
(3 -1.27727e-16 0)
(3 3.31477e-16 0)
(3 3.91603e-16 0)
(3 -5.92907e-16 0)
(3 -1.46029e-16 0)
(3 -1.70683e-16 0)
(3 -6.14279e-17 0)
(3 -2.15987e-16 0)
(3 -1.44838e-15 0)
(3 -1.43446e-15 0)
(3 -7.46935e-16 0)
(3 2.23408e-16 0)
(3 -5.89407e-17 0)
(3 4.34142e-16 0)
(3 1.76717e-15 0)
(3 1.55478e-15 0)
(3 5.45512e-16 0)
(3 1.46093e-16 0)
(3 -4.86112e-16 0)
(3 3.6858e-17 0)
(3 1.19243e-16 0)
(3 3.30275e-16 0)
(3 5.14224e-17 0)
(3 6.60402e-16 0)
(3 8.16335e-16 0)
(3 2.81952e-16 0)
(3 -9.25151e-17 0)
(3 -7.50322e-16 0)
(3 -1.07309e-15 0)
(3 -1.46788e-15 0)
(3 -1.87323e-15 0)
(3 -2.23287e-15 0)
(3 -1.86575e-15 0)
(3 -9.93082e-16 0)
(3 -9.55544e-16 0)
(3 -1.11786e-15 0)
(3 -1.9542e-16 0)
(3 3.00261e-16 0)
(3 6.88125e-16 0)
(3 -7.24444e-17 0)
(3 -9.67194e-16 0)
(3 -1.35102e-15 0)
(3 -5.71852e-16 0)
(3 2.76724e-16 0)
(3 2.10779e-16 0)
(3 2.18909e-15 0)
(3 8.69464e-16 0)
(3 5.4103e-16 0)
(3 5.88328e-16 0)
(3 3.7354e-16 0)
(3 -1.23533e-15 0)
(3 -3.58337e-15 0)
(3 -4.37999e-15 0)
(3 -2.81544e-15 0)
(3 -7.18726e-16 0)
(3 1.84194e-16 0)
(3 -1.32946e-16 0)
(3 -5.96879e-16 0)
(3 -8.07359e-16 0)
(3 -7.8854e-16 0)
(3 -4.14659e-16 0)
(3 5.31884e-17 0)
(3 1.059e-15 0)
(3 1.27576e-15 0)
(3 1.71196e-15 0)
(3 1.78933e-15 0)
(3 1.63467e-15 0)
(3 7.24993e-16 0)
(3 -1.46586e-16 0)
(3 1.70793e-18 0)
(3 -3.77737e-17 0)
(3 -8.32395e-16 0)
(3 -2.38907e-15 0)
(3 -3.18754e-15 0)
(3 -3.07943e-15 0)
(3 -1.60631e-15 0)
(3 -1.08555e-16 0)
(3 -4.34397e-16 0)
(3 -8.94085e-16 0)
(3 -1.32651e-15 0)
(3 -1.55042e-15 0)
(3 -1.89857e-15 0)
(3 -1.41997e-15 0)
(3 -8.08804e-16 0)
(3 -1.38776e-15 0)
(3 -8.49656e-16 0)
(3 -5.05875e-16 0)
(3 4.31985e-18 0)
(3 -8.1704e-16 0)
(3 -1.68076e-15 0)
(3 -2.88882e-16 0)
(3 4.52285e-16 0)
(3 1.52773e-15 0)
(3 1.29729e-15 0)
(3 9.80051e-16 0)
(3 -7.32314e-17 0)
(3 -4.25031e-16 0)
(3 -9.85948e-16 0)
(3 -1.2588e-15 0)
(3 -4.5874e-16 0)
(3 4.01012e-16 0)
(3 -2.0324e-17 0)
(3 6.52158e-16 0)
(3 2.28129e-15 0)
(3 2.83065e-15 0)
(3 1.16706e-15 0)
(3 -2.07934e-16 0)
(3 -1.50152e-16 0)
(3 1.66465e-16 0)
(3 2.88741e-16 0)
(3 4.16655e-16 0)
(3 1.33052e-16 0)
(3 4.46073e-16 0)
(3 2.61554e-16 0)
(3 3.09638e-16 0)
(3 4.76741e-16 0)
(3 -2.01442e-17 0)
(3 -2.38847e-16 0)
(3 -6.72557e-18 0)
(3 3.50475e-16 0)
(3 -5.93045e-16 0)
(3 -9.81724e-16 0)
(3 -8.51829e-16 0)
(3 -1.81012e-15 0)
(3 -2.63873e-15 0)
(3 -2.58164e-15 0)
(3 -2.08666e-15 0)
(3 -1.48545e-15 0)
(3 8.84579e-17 0)
(3 3.14405e-16 0)
(3 5.08187e-16 0)
(3 4.07865e-16 0)
(3 6.80925e-16 0)
(3 5.06584e-16 0)
(3 2.97832e-16 0)
(3 -4.79631e-16 0)
(3 -1.04119e-15 0)
(3 -1.65299e-15 0)
(3 -1.49422e-15 0)
(3 2.68401e-16 0)
(3 6.04562e-16 0)
(3 6.18408e-16 0)
(3 1.02667e-15 0)
(3 5.64264e-16 0)
(3 -2.45835e-16 0)
(3 -7.19083e-16 0)
(3 -7.73949e-17 0)
(3 1.18451e-16 0)
(3 6.26219e-16 0)
(3 7.48051e-16 0)
(3 1.06357e-15 0)
(3 1.63718e-15 0)
(3 1.30935e-15 0)
(3 8.02784e-16 0)
(3 -3.60894e-17 0)
(3 -2.51668e-16 0)
(3 -4.15297e-16 0)
(3 -5.88488e-16 0)
(3 6.27862e-17 0)
(3 1.27997e-15 0)
(3 7.28671e-16 0)
(3 -3.09629e-16 0)
(3 -1.39511e-15 0)
(3 -1.74253e-15 0)
(3 -6.68453e-16 0)
(3 1.12922e-15 0)
(3 1.18912e-15 0)
(3 8.35567e-16 0)
(3 9.37408e-17 0)
(3 1.96661e-16 0)
(3 3.4173e-16 0)
(3 3.74258e-17 0)
(3 -2.48426e-17 0)
(3 2.59426e-16 0)
(3 3.11462e-16 0)
(3 -1.441e-15 0)
(3 -2.24607e-15 0)
(3 -2.37282e-15 0)
(3 -2.3757e-15 0)
(3 -1.62623e-15 0)
(3 -1.12106e-15 0)
(3 -7.16838e-16 0)
(3 -2.16978e-16 0)
(3 1.03825e-15 0)
(3 2.33431e-15 0)
(3 1.75576e-15 0)
(3 1.26463e-15 0)
(3 4.99764e-16 0)
(3 4.41411e-16 0)
(3 1.63118e-15 0)
(3 1.98237e-15 0)
(3 1.92055e-15 0)
(3 2.22914e-15 0)
(3 1.68871e-15 0)
(3 -9.87877e-16 0)
(3 -1.93344e-15 0)
(3 -1.3738e-15 0)
(3 -1.6301e-15 0)
(3 -2.3481e-15 0)
(3 -2.71009e-15 0)
(3 -2.44219e-15 0)
(3 -1.72053e-15 0)
(3 -1.23867e-15 0)
(3 -1.37155e-15 0)
(3 -7.35753e-16 0)
(3 -1.86749e-16 0)
(3 -5.63509e-16 0)
(3 -4.85823e-17 0)
(3 3.04804e-16 0)
(3 2.39151e-16 0)
(3 1.48292e-15 0)
(3 2.78101e-15 0)
(3 2.32529e-15 0)
(3 1.65704e-15 0)
(3 9.78936e-16 0)
(3 7.89296e-16 0)
(3 4.69505e-16 0)
(3 1.34923e-16 0)
(3 -1.98348e-16 0)
(3 -1.87383e-15 0)
(3 -1.62026e-15 0)
(3 -1.13087e-15 0)
(3 -1.27187e-15 0)
(3 -1.95924e-15 0)
(3 -2.0854e-15 0)
(3 -1.98397e-15 0)
(3 -1.92658e-15 0)
(3 -1.66528e-15 0)
(3 -1.46466e-15 0)
(3 -1.41266e-15 0)
(3 -1.90542e-15 0)
(3 -2.29341e-15 0)
(3 -1.90395e-15 0)
(3 -1.35802e-15 0)
(3 -4.80672e-16 0)
(3 6.83339e-17 0)
(3 -8.20101e-16 0)
(3 -4.28466e-16 0)
(3 4.66402e-16 0)
(3 1.34144e-15 0)
(3 1.17361e-15 0)
(3 1.02527e-15 0)
(3 5.31452e-16 0)
(3 -2.8829e-16 0)
(3 -3.55326e-16 0)
(3 -8.72645e-16 0)
(3 -4.38298e-16 0)
(3 2.57323e-16 0)
(3 1.17233e-16 0)
(3 7.85988e-16 0)
(3 1.52806e-15 0)
(3 2.19864e-15 0)
(3 2.04734e-15 0)
(3 1.46925e-15 0)
(3 1.4303e-15 0)
(3 4.25466e-16 0)
(3 -3.88759e-16 0)
(3 -4.30557e-16 0)
(3 -1.80316e-16 0)
(3 -4.58773e-16 0)
(3 1.17124e-15 0)
(3 1.70746e-15 0)
(3 2.48034e-15 0)
(3 2.06981e-15 0)
(3 7.99733e-17 0)
(3 -6.04318e-16 0)
(3 -1.13152e-15 0)
(3 -1.0396e-15 0)
(3 1.41148e-16 0)
(3 6.51782e-16 0)
(3 3.55207e-16 0)
(3 3.81819e-16 0)
(3 -5.07571e-16 0)
(3 -5.53058e-16 0)
(3 6.74184e-17 0)
(3 1.00005e-15 0)
(3 7.53093e-16 0)
(3 5.05285e-16 0)
(3 5.86192e-16 0)
(3 3.76181e-16 0)
(3 -2.01496e-17 0)
(3 -5.50207e-16 0)
(3 -1.69453e-15 0)
(3 -2.57248e-15 0)
(3 -2.4242e-15 0)
(3 -1.9991e-15 0)
(3 -2.56536e-16 0)
(3 8.54098e-16 0)
(3 4.39802e-16 0)
(3 1.40621e-15 0)
(3 1.52389e-15 0)
(3 1.44532e-15 0)
(3 1.50221e-15 0)
(3 1.70333e-15 0)
(3 1.72828e-15 0)
(3 1.18545e-15 0)
(3 1.13223e-15 0)
(3 1.62344e-15 0)
(3 1.93935e-15 0)
(3 2.12473e-15 0)
(3 8.51197e-16 0)
(3 3.1474e-16 0)
(3 9.67193e-16 0)
(3 8.01406e-16 0)
(3 3.52045e-16 0)
(3 8.163e-16 0)
(3 1.65216e-15 0)
(3 3.45273e-17 0)
(3 -1.48614e-15 0)
(3 -2.41508e-15 0)
(3 -1.61339e-15 0)
(3 5.44788e-17 0)
(3 1.16221e-15 0)
(3 1.01211e-15 0)
(3 1.17285e-15 0)
(3 8.30195e-16 0)
(3 8.55374e-16 0)
(3 1.22212e-15 0)
(3 1.01187e-15 0)
(3 9.34765e-16 0)
(3 8.84437e-16 0)
(3 1.50504e-15 0)
(3 1.10789e-15 0)
(3 4.25588e-16 0)
(3 1.69373e-16 0)
(3 -2.04851e-15 0)
(3 -2.09457e-15 0)
(3 -2.0354e-15 0)
(3 -1.35547e-15 0)
(3 9.76543e-16 0)
(3 2.40868e-15 0)
(3 2.7508e-15 0)
(3 2.09573e-15 0)
(3 1.14309e-15 0)
(3 7.35322e-18 0)
(3 1.17191e-16 0)
(3 1.58585e-16 0)
(3 2.76126e-16 0)
(3 1.73961e-15 0)
(3 4.15912e-16 0)
(3 3.60363e-17 0)
(3 -4.95337e-16 0)
(3 -1.62011e-15 0)
(3 -2.20287e-15 0)
(3 -2.09031e-15 0)
(3 -9.63107e-16 0)
(3 -8.67683e-16 0)
(3 -1.22138e-15 0)
(3 -2.98292e-15 0)
(3 -3.38244e-15 0)
(3 -2.97777e-15 0)
(3 -1.26338e-15 0)
(3 -3.92059e-16 0)
(3 -3.94611e-16 0)
(3 -8.15936e-17 0)
(3 3.06571e-16 0)
(3 6.63552e-16 0)
(3 1.53965e-15 0)
(3 1.4543e-15 0)
(3 1.06925e-15 0)
(3 1.19368e-15 0)
(3 7.39027e-16 0)
(3 4.67998e-16 0)
(3 4.3288e-16 0)
(3 5.34888e-16 0)
(3 8.95223e-16 0)
(3 1.09341e-15 0)
(3 1.3387e-15 0)
(3 9.81009e-16 0)
(3 -4.58391e-16 0)
(3 -2.37693e-15 0)
(3 -2.08144e-15 0)
(3 -1.39618e-15 0)
(3 -1.86233e-15 0)
(3 -1.81765e-15 0)
(3 -1.52682e-15 0)
(3 -1.99816e-15 0)
(3 -2.73807e-15 0)
(3 -2.24815e-15 0)
(3 -1.36468e-15 0)
(3 -1.09917e-15 0)
(3 -6.636e-16 0)
(3 -4.87085e-16 0)
(3 -1.40171e-16 0)
(3 -4.53843e-16 0)
(3 1.69773e-15 0)
(3 2.16411e-15 0)
(3 1.58283e-15 0)
(3 1.12679e-15 0)
(3 1.16308e-15 0)
(3 1.53684e-15 0)
(3 1.0313e-15 0)
(3 9.45504e-16 0)
(3 3.28146e-16 0)
(3 3.74722e-17 0)
(3 1.29932e-15 0)
(3 2.23146e-15 0)
(3 2.40726e-15 0)
(3 1.91354e-15 0)
(3 2.41266e-15 0)
(3 1.8285e-15 0)
(3 6.4347e-16 0)
(3 1.06379e-15 0)
(3 7.78388e-16 0)
(3 6.90235e-16 0)
(3 2.4772e-16 0)
(3 -4.17122e-16 0)
(3 5.10658e-16 0)
(3 1.74331e-15 0)
(3 2.0266e-15 0)
(3 2.4152e-15 0)
(3 2.14264e-15 0)
(3 1.42894e-15 0)
(3 4.93183e-17 0)
(3 -1.60793e-18 0)
(3 8.53678e-16 0)
(3 1.51277e-15 0)
(3 2.38367e-15 0)
(3 2.24339e-15 0)
(3 1.46702e-15 0)
(3 8.17949e-16 0)
(3 4.50907e-16 0)
(3 2.56821e-16 0)
(3 8.73251e-16 0)
(3 8.46608e-16 0)
(3 4.93438e-16 0)
(3 1.05841e-15 0)
(3 1.11282e-16 0)
(3 -1.81762e-15 0)
(3 -2.4352e-15 0)
(3 -2.35223e-15 0)
(3 -1.93737e-15 0)
(3 -7.03582e-16 0)
(3 -6.1524e-16 0)
(3 -3.17721e-16 0)
(3 1.28462e-16 0)
(3 8.57887e-16 0)
(3 1.34424e-15 0)
(3 1.67815e-15 0)
(3 1.61972e-15 0)
(3 1.77442e-15 0)
(3 2.29116e-15 0)
(3 2.34819e-15 0)
(3 2.17648e-15 0)
(3 1.71081e-15 0)
(3 1.30362e-15 0)
(3 1.60682e-15 0)
(3 1.34334e-15 0)
(3 4.64737e-16 0)
(3 -1.50885e-16 0)
(3 -3.97629e-17 0)
(3 -6.49955e-17 0)
(3 -7.43252e-16 0)
(3 -6.91923e-16 0)
(3 -7.81283e-16 0)
(3 -5.66479e-16 0)
(3 -1.34557e-16 0)
(3 4.85006e-16 0)
(3 7.35948e-16 0)
(3 6.92976e-16 0)
(3 1.54827e-16 0)
(3 7.01356e-16 0)
(3 1.39137e-15 0)
(3 1.12039e-15 0)
(3 9.23655e-16 0)
(3 1.91787e-15 0)
(3 2.5832e-15 0)
(3 1.91496e-15 0)
(3 1.49416e-15 0)
(3 2.0714e-15 0)
(3 1.78679e-15 0)
(3 1.85865e-15 0)
(3 6.96802e-17 0)
(3 -8.61185e-16 0)
(3 -5.26301e-16 0)
(3 -9.25666e-16 0)
(3 -1.22184e-15 0)
(3 -6.5324e-16 0)
(3 -8.9519e-16 0)
(3 6.27918e-16 0)
(3 4.55725e-16 0)
(3 -4.43532e-17 0)
(3 -1.38264e-15 0)
(3 -6.93205e-16 0)
(3 1.18547e-16 0)
(3 1.20411e-15 0)
(3 -2.10472e-15 0)
(3 -2.05817e-15 0)
(3 -1.20654e-15 0)
(3 -8.62827e-16 0)
(3 -9.45141e-16 0)
(3 -2.11531e-15 0)
(3 -2.90899e-15 0)
(3 -2.81631e-15 0)
(3 -2.61541e-15 0)
(3 -4.21495e-15 0)
(3 -4.18999e-15 0)
(3 -3.329e-15 0)
(3 -2.1221e-15 0)
(3 -5.02686e-16 0)
(3 -2.99442e-16 0)
(3 -7.90458e-16 0)
(3 -8.52038e-16 0)
(3 -1.92297e-16 0)
(3 -2.13765e-16 0)
(3 4.61134e-16 0)
(3 1.33079e-15 0)
(3 1.58095e-15 0)
(3 1.41766e-15 0)
(3 9.8565e-16 0)
(3 1.32817e-15 0)
(3 9.3778e-16 0)
(3 5.49678e-16 0)
(3 1.37295e-16 0)
(3 -3.26133e-16 0)
(3 -7.67162e-16 0)
(3 -9.97158e-16 0)
(3 -1.78167e-15 0)
(3 -1.78005e-15 0)
(3 -1.04307e-15 0)
(3 -6.79555e-16 0)
(3 -9.42893e-16 0)
(3 -1.77979e-15 0)
(3 -1.74585e-15 0)
(3 -1.94398e-15 0)
(3 -1.28973e-15 0)
(3 -6.98247e-16 0)
(3 -9.14259e-16 0)
(3 -1.00797e-15 0)
(3 -1.29925e-15 0)
(3 -8.53127e-16 0)
(3 -7.71442e-16 0)
(3 1.86226e-16 0)
(3 5.72485e-16 0)
(3 1.44421e-16 0)
(3 -4.72641e-16 0)
(3 -8.86199e-16 0)
(3 -1.03743e-15 0)
(3 -1.38342e-15 0)
(3 -1.28992e-15 0)
(3 -8.18711e-16 0)
(3 1.16166e-15 0)
(3 1.26375e-15 0)
(3 1.1714e-15 0)
(3 1.25506e-15 0)
(3 2.10206e-16 0)
(3 -3.8994e-16 0)
(3 -8.8697e-17 0)
(3 4.21195e-16 0)
(3 1.07621e-15 0)
(3 2.02255e-15 0)
(3 1.83733e-15 0)
(3 8.82507e-16 0)
(3 -3.48445e-16 0)
(3 -8.01439e-16 0)
(3 1.35828e-16 0)
(3 1.7152e-15 0)
(3 1.72286e-15 0)
(3 1.51976e-15 0)
(3 1.3864e-15 0)
(3 1.0213e-15 0)
(3 1.24373e-15 0)
(3 5.39625e-16 0)
(3 -2.52649e-16 0)
(3 5.26022e-16 0)
(3 1.61636e-15 0)
(3 1.87154e-15 0)
(3 1.74503e-15 0)
(3 1.52528e-15 0)
(3 1.27999e-15 0)
(3 1.67611e-15 0)
(3 1.24601e-15 0)
(3 9.67392e-16 0)
(3 7.11965e-16 0)
(3 9.51388e-16 0)
(3 4.61989e-16 0)
(3 -8.72575e-16 0)
(3 -8.54938e-16 0)
(3 -4.74985e-16 0)
(3 -6.23225e-16 0)
(3 -1.16818e-15 0)
(3 -9.20656e-16 0)
(3 -7.61122e-16 0)
(3 9.18881e-16 0)
(3 2.80814e-15 0)
(3 2.39027e-15 0)
(3 1.22403e-15 0)
(3 -2.61773e-16 0)
(3 -1.73877e-16 0)
(3 2.79491e-16 0)
(3 3.19564e-16 0)
(3 5.20598e-16 0)
(3 4.20452e-16 0)
(3 5.50163e-16 0)
(3 5.07243e-16 0)
(3 -6.58013e-16 0)
(3 -8.23942e-16 0)
(3 8.62018e-18 0)
(3 -2.39819e-16 0)
(3 -1.46738e-15 0)
(3 -1.00314e-15 0)
(3 -5.11536e-16 0)
(3 -4.33063e-16 0)
(3 1.67904e-15 0)
(3 2.35545e-15 0)
(3 2.5994e-15 0)
(3 1.32404e-15 0)