/*--------------------------------*- C++ -*----------------------------------*\
  =========                 |
  \\      /  F ield         | OpenFOAM: The Open Source CFD Toolbox
   \\    /   O peration     | Website:  https://openfoam.org
    \\  /    A nd           | Version:  7
     \\/     M anipulation  |
\*---------------------------------------------------------------------------*/
FoamFile
{
    version     2.0;
    format      ascii;
    class       volVectorField;
    location    "41.99986";
    object      U;
}
// * * * * * * * * * * * * * * * * * * * * * * * * * * * * * * * * * * * * * //

dimensions      [0 1 -1 0 0 0 0];

internalField   nonuniform List<vector> 
5800
(
(-0.000611664 0.00082544 -2.11369e-21)
(-0.003666 0.00207698 -7.45789e-21)
(-0.00995545 0.00301375 1.35698e-21)
(-0.0183166 0.00368856 5.14034e-21)
(-0.02822 0.00414018 2.19061e-21)
(-0.0392468 0.00440574 -5.34137e-21)
(-0.0509903 0.00452141 -1.69795e-21)
(-0.0631065 0.00452048 -6.67178e-22)
(-0.0753181 0.0044322 -6.14244e-21)
(-0.0874059 0.00428074 -1.18409e-21)
(0.00706915 0.00863652 -6.27983e-21)
(0.0374498 0.0193182 -2.13601e-20)
(0.0933305 0.0247322 3.90921e-21)
(0.158213 0.02645 1.41881e-20)
(0.224812 0.0259391 5.82153e-21)
(0.289615 0.0243526 -1.3906e-20)
(0.350882 0.0224196 -4.22085e-21)
(0.408134 0.0204911 -1.69571e-21)
(0.461417 0.0186874 -8.50921e-21)
(0.510914 0.0170307 -7.55691e-21)
(0.556829 0.015515 -9.46366e-21)
(0.00706916 -0.00863681 6.27983e-21)
(0.0374498 -0.0193188 2.13601e-20)
(0.0933306 -0.024733 -3.90921e-21)
(0.158213 -0.0264508 -1.41881e-20)
(0.224812 -0.0259399 -5.82153e-21)
(0.289615 -0.0243534 1.3906e-20)
(0.350882 -0.0224203 4.22085e-21)
(0.408134 -0.0204917 1.69571e-21)
(0.461417 -0.018688 1.42204e-20)
(0.510914 -0.0170312 2.49797e-21)
(0.556829 -0.0155155 9.46366e-21)
(0.599366 -0.0141308 -1.36382e-21)
(0.638728 -0.012867 4.44434e-21)
(0.675113 -0.011714 -7.47912e-21)
(0.70871 -0.0106624 8.96668e-21)
(0.739704 -0.00970354 9.13026e-21)
(0.768275 -0.00882941 2.54771e-21)
(0.794575 -0.00802795 -1.29004e-20)
(0.818721 -0.00728239 1.0358e-20)
(0.840865 -0.00659823 -1.48917e-21)
(0.00839861 -0.0258272 -9.23151e-21)
(0.0403509 -0.0577927 -1.38647e-20)
(0.0969552 -0.0740126 -4.23925e-21)
(0.162019 -0.0791734 -1.2266e-20)
(0.228489 -0.0776588 2.70912e-21)
(0.29302 -0.0729184 -1.77206e-20)
(0.353975 -0.0671359 -6.44833e-21)
(0.410921 -0.0613645 -1.37937e-20)
(0.463923 -0.0559658 7.56371e-21)
(0.513163 -0.0510064 -1.78181e-20)
(0.558846 -0.0464693 -5.41163e-20)
(0.601174 -0.0423241 8.57484e-21)
(0.640348 -0.0385405 -1.18691e-20)
(0.676563 -0.0350888 7.00444e-21)
(0.710008 -0.0319403 -1.66046e-20)
(0.740865 -0.0290696 1.70889e-21)
(0.769315 -0.0264522 -8.48327e-21)
(0.795515 -0.0240522 4.80053e-20)
(0.81957 -0.02182 -4.65996e-21)
(0.841578 -0.0197742 5.8704e-21)
(0.0110397 -0.0427698 -2.82591e-20)
(0.0461199 -0.0957785 -2.76111e-20)
(0.104169 -0.122737 6.32424e-21)
(0.169597 -0.131362 1.34104e-20)
(0.235815 -0.128898 5.58804e-21)
(0.299806 -0.121062 -1.72264e-20)
(0.36014 -0.11148 -2.46483e-20)
(0.416478 -0.101908 5.18827e-20)
(0.468917 -0.0929513 -1.40823e-20)
(0.517646 -0.0847222 1.82185e-20)
(0.562867 -0.0771932 2.83884e-20)
(0.604778 -0.0703142 4.83413e-21)
(0.643577 -0.0640346 7.93944e-21)
(0.679455 -0.0583053 1.71086e-20)
(0.712596 -0.0530791 -1.75644e-20)
(0.743179 -0.0483136 1.66057e-20)
(0.771388 -0.043968 -1.95183e-21)
(0.797388 -0.0399822 -4.69162e-20)
(0.821262 -0.0362766 3.11195e-20)
(0.843002 -0.0328888 -2.52421e-20)
(0.0149571 -0.0593023 2.17175e-20)
(0.054691 -0.132956 -3.46577e-20)
(0.114899 -0.170541 5.09744e-20)
(0.180882 -0.182666 -2.29937e-20)
(0.246731 -0.179343 1.20602e-19)
(0.309924 -0.168506 7.07451e-20)
(0.369332 -0.155208 -4.32235e-20)
(0.424765 -0.141906 -1.01356e-19)
(0.476366 -0.129452 3.95899e-20)
(0.524334 -0.118008 2.66632e-20)
(0.568866 -0.107536 3.53847e-20)
(0.610156 -0.0979671 -6.89418e-20)
(0.648396 -0.089231 -7.97381e-20)
(0.683771 -0.0812594 5.99461e-20)
(0.71646 -0.073987 4.63928e-20)
(0.746634 -0.0673551 -1.57892e-20)
(0.774482 -0.0613062 3.42165e-20)
(0.800183 -0.0557557 2.07076e-21)
(0.823786 -0.0505984 -5.06081e-20)
(0.845133 -0.0458996 -1.58724e-20)
(0.020098 -0.0752673 -8.00253e-20)
(0.0659658 -0.169013 -2.21171e-20)
(0.129039 -0.217067 -7.67939e-20)
(0.195774 -0.232741 2.20179e-20)
(0.261153 -0.228683 -1.14318e-19)
(0.323299 -0.214977 -6.75303e-20)
(0.38149 -0.198079 7.86586e-20)
(0.435726 -0.181145 9.64788e-20)
(0.486221 -0.165279 -8.544e-20)
(0.533183 -0.150696 2.23044e-20)
(0.576804 -0.137349 -3.11962e-20)
(0.617273 -0.125152 1.20102e-19)
(0.654773 -0.114014 -3.79354e-20)
(0.689484 -0.103849 -1.33228e-20)
(0.721575 -0.094574 -7.70466e-21)
(0.751209 -0.0861151 -2.67501e-20)
(0.778579 -0.0783974 -6.52201e-20)
(0.803882 -0.0713116 -1.33333e-21)
(0.827127 -0.0647315 1.7999e-20)
(0.847966 -0.0587625 -1.69491e-20)
(0.0263934 -0.0905137 -5.2189e-20)
(0.0798146 -0.203646 -2.20035e-20)
(0.146447 -0.261968 1.24092e-19)
(0.214143 -0.28125 6.81317e-20)
(0.278965 -0.276617 2.81171e-20)
(0.339834 -0.260211 -8.65114e-20)
(0.396527 -0.23986 -9.93028e-20)
(0.449288 -0.219418 1.17865e-20)
(0.498415 -0.200249 2.27358e-20)
(0.544134 -0.182623 1.70952e-20)
(0.586631 -0.166488 5.56833e-20)
(0.626085 -0.15174 -1.22586e-19)
(0.662671 -0.13827 1.7549e-21)
(0.69656 -0.125974 4.26034e-20)
(0.727911 -0.114752 2.55587e-21)
(0.756878 -0.104516 -8.36356e-21)
(0.783654 -0.0951736 -2.15214e-20)
(0.808462 -0.0865899 7.97779e-20)
(0.831265 -0.0786229 -3.44252e-20)
(0.85149 -0.0714317 2.79805e-20)
(0.0337579 -0.104898 8.26951e-20)
(0.096077 -0.236567 -4.36861e-20)
(0.166948 -0.304909 -5.03064e-20)
(0.235825 -0.327869 -4.66215e-20)
(0.300028 -0.32285 -9.20224e-20)
(0.359409 -0.30395 -1.18372e-20)
(0.41434 -0.280324 1.58316e-20)
(0.465359 -0.256526 -3.59962e-20)
(0.512869 -0.234185 5.16499e-20)
(0.557116 -0.213632 4.33411e-21)
(0.598282 -0.194814 -2.18028e-20)
(0.636535 -0.177608 9.94228e-20)
(0.672039 -0.16189 2.93295e-20)
(0.704956 -0.147538 -2.86646e-20)
(0.735431 -0.134437 6.36236e-20)
(0.763607 -0.122484 -6.72035e-20)
(0.789679 -0.111569 -7.22071e-21)
(0.813896 -0.101533 8.37323e-21)
(0.836178 -0.0922204 9.30583e-20)
(0.855697 -0.0838607 -5.20203e-20)
(0.0420914 -0.118288 2.82522e-20)
(0.114564 -0.267504 3.3102e-20)
(0.190334 -0.345573 1.45485e-19)
(0.260629 -0.372288 6.14844e-20)
(0.324173 -0.367105 2.10731e-19)
(0.381879 -0.345947 1.76795e-20)
(0.434803 -0.319257 9.8401e-20)
(0.483829 -0.292278 6.83244e-20)
(0.529485 -0.266916 -1.46386e-19)
(0.572044 -0.243573 -2.32658e-20)
(0.611683 -0.222193 -5.44196e-20)
(0.648558 -0.202639 -6.75075e-20)
(0.682821 -0.18477 2.22561e-20)
(0.714621 -0.168449 6.94156e-20)
(0.744091 -0.153546 -6.09769e-20)
(0.771358 -0.139946 -5.36334e-20)
(0.79662 -0.127522 5.23755e-20)
(0.820151 -0.116086 -6.99676e-20)
(0.841837 -0.105474 -1.00665e-19)
(0.86057 -0.0960029 -2.71541e-20)
(0.05128 -0.130562 -8.12164e-20)
(0.135058 -0.296202 -8.27733e-20)
(0.216365 -0.38366 -4.32961e-20)
(0.28833 -0.414213 -1.02676e-19)
(0.351208 -0.409114 -5.02716e-20)
(0.40708 -0.38597 -1.19292e-19)
(0.457775 -0.356452 -1.03561e-19)
(0.504573 -0.326493 3.87151e-20)
(0.548153 -0.298284 5.97925e-20)
(0.588822 -0.272303 -1.0469e-19)
(0.626749 -0.248499 6.52785e-20)
(0.662079 -0.22672 -4.37307e-20)
(0.694949 -0.206811 -5.85164e-20)
(0.725497 -0.188619 -6.13442e-20)
(0.753839 -0.172003 1.72508e-19)
(0.780087 -0.156834 7.67308e-20)
(0.804436 -0.142971 1.85285e-20)
(0.827193 -0.130195 -7.97306e-20)
(0.848212 -0.118334 1.67052e-19)
(0.866095 -0.107813 6.22291e-20)
(0.0611971 -0.141609 -1.05605e-19)
(0.157316 -0.32243 1.20984e-19)
(0.244773 -0.418894 1.18612e-19)
(0.31868 -0.45337 1.24577e-19)
(0.380914 -0.448627 7.49202e-20)
(0.434825 -0.423798 1.81515e-20)
(0.483095 -0.391718 1.1952e-19)
(0.527453 -0.359003 -1.44869e-19)
(0.568751 -0.328138 -4.05413e-20)
(0.60734 -0.29969 -3.40943e-20)
(0.643384 -0.273614 1.51048e-19)
(0.677013 -0.249747 -2.0948e-20)
(0.708351 -0.227919 1.77744e-20)
(0.737519 -0.207967 3.80856e-21)
(0.76462 -0.189734 6.13717e-20)
(0.789745 -0.173084 -7.67395e-20)
(0.813086 -0.157861 1.54394e-20)
(0.834982 -0.143813 1.75221e-19)
(0.855271 -0.130758 -2.51729e-20)
(0.87225 -0.119246 -1.12597e-19)
(0.0717048 -0.151336 -6.30029e-20)
(0.181073 -0.34598 2.10793e-20)
(0.275261 -0.451019 -1.25984e-19)
(0.351401 -0.489505 -6.19551e-20)
(0.413051 -0.485414 -8.22717e-20)
(0.46491 -0.459227 -6.63541e-21)
(0.510587 -0.424877 -1.60196e-19)
(0.552313 -0.38965 1.41165e-19)
(0.591143 -0.35634 6.18198e-20)
(0.627478 -0.325611 2.6156e-20)
(0.661482 -0.297429 -1.46597e-19)
(0.693268 -0.271622 2.61436e-20)
(0.722944 -0.24801 -1.8474e-20)
(0.750616 -0.226415 -7.95812e-20)
(0.776371 -0.206672 -7.43678e-20)
(0.800278 -0.188637 1.22006e-19)
(0.822521 -0.172138 6.17086e-20)
(0.843475 -0.156893 -3.55389e-20)
(0.862977 -0.142702 -9.9096e-20)
(0.879014 -0.130261 1.47862e-20)
(0.0826559 -0.159664 8.53086e-20)
(0.20604 -0.366669 3.8805e-20)
(0.307506 -0.47981 4.77983e-20)
(0.38619 -0.522385 5.35147e-20)
(0.447356 -0.519261 -5.69251e-20)
(0.49711 -0.492073 1.25572e-19)
(0.540059 -0.455767 -1.24465e-19)
(0.578987 -0.418292 -5.06945e-21)
(0.615182 -0.382765 9.91962e-20)
(0.649108 -0.349953 2.07849e-20)
(0.68093 -0.319844 8.72801e-20)
(0.710745 -0.292259 -3.67066e-20)
(0.738642 -0.267005 2.29574e-20)
(0.764712 -0.243895 1.46637e-19)
(0.789024 -0.222756 -8.77103e-21)
(0.811626 -0.203436 -4.30785e-20)
(0.832689 -0.185755 -9.11272e-20)
(0.852626 -0.169394 -1.49618e-19)
(0.871291 -0.15413 -2.31353e-20)
(0.886361 -0.140819 1.5023e-19)
(0.0938954 -0.166528 9.92962e-20)
(0.23191 -0.384345 3.75749e-21)
(0.341162 -0.505067 -1.83537e-19)
(0.422722 -0.551805 7.31752e-20)
(0.483545 -0.549976 2.30327e-22)
(0.531185 -0.522165 7.82058e-20)
(0.571305 -0.484243 7.46678e-20)
(0.607296 -0.444804 -6.68337e-21)
(0.640711 -0.407299 -4.21237e-20)
(0.672092 -0.372618 -1.46617e-19)
(0.701606 -0.340771 4.47906e-20)
(0.729335 -0.311576 1.85082e-19)
(0.75535 -0.284833 -1.29984e-19)
(0.779724 -0.260344 -1.074e-19)
(0.802509 -0.237928 -6.73745e-20)
(0.823728 -0.217433 -1.61199e-19)
(0.843537 -0.198669 4.73529e-20)
(0.862386 -0.181279 2.2519e-19)
(0.880169 -0.165008 -3.38237e-20)
(0.894264 -0.150888 -4.23758e-20)
(0.105262 -0.171884 4.15518e-20)
(0.258362 -0.398884 -6.54687e-20)
(0.375862 -0.526622 5.71414e-20)
(0.460648 -0.577586 -9.24995e-20)
(0.521315 -0.577393 1.01987e-19)
(0.566878 -0.549357 -1.02141e-19)
(0.604107 -0.510176 -2.50018e-20)
(0.637051 -0.469073 1.10073e-19)
(0.667565 -0.429846 -8.47446e-20)
(0.696283 -0.393519 9.4077e-20)
(0.723383 -0.360133 -1.11431e-19)
(0.748927 -0.329506 -6.4352e-20)
(0.77297 -0.301432 -4.53777e-20)
(0.795567 -0.275706 7.04238e-20)
(0.81675 -0.252141 1.4203e-20)
(0.836518 -0.230582 8.65012e-20)
(0.855006 -0.210837 -5.79044e-20)
(0.872702 -0.192515 -3.94219e-21)
(0.889567 -0.17531 8.82142e-20)
(0.902691 -0.160439 -4.00441e-20)
(0.116591 -0.175704 -9.69952e-21)
(0.285061 -0.410195 -3.89138e-20)
(0.411221 -0.544341 -7.38089e-21)
(0.499601 -0.599576 -2.14631e-20)
(0.560345 -0.601366 -6.98888e-20)
(0.603918 -0.57352 -6.04041e-20)
(0.638234 -0.533457 -3.98562e-20)
(0.668054 -0.491006 -5.52957e-20)
(0.69557 -0.450323 1.14324e-19)
(0.72153 -0.412581 1.2263e-20)
(0.746125 -0.377863 1.75929e-19)
(0.769404 -0.34599 5.43886e-20)
(0.791399 -0.31675 5.92125e-20)
(0.812149 -0.289934 -9.46246e-20)
(0.831668 -0.26535 1.43996e-19)
(0.849927 -0.242845 -2.57346e-20)
(0.867034 -0.222229 -1.4978e-20)
(0.883518 -0.203077 -1.26404e-19)
(0.899435 -0.185017 5.86364e-20)
(0.911612 -0.16945 -4.71544e-20)
(0.127716 -0.177978 -7.85609e-20)
(0.31166 -0.418221 -3.47419e-20)
(0.446838 -0.558122 -5.19066e-20)
(0.539198 -0.617655 -4.5248e-20)
(0.6003 -0.621776 -1.16803e-20)
(0.642021 -0.59455 1.21901e-19)
(0.673448 -0.553998 1.03967e-19)
(0.700099 -0.510527 8.81574e-20)
(0.724548 -0.468662 -8.96851e-20)
(0.747676 -0.429746 -5.1823e-20)
(0.769696 -0.393908 -1.84539e-19)
(0.790644 -0.360978 1.43962e-19)
(0.810532 -0.330743 -5.51909e-20)
(0.829379 -0.302988 9.98766e-20)
(0.847183 -0.27752 -7.41648e-20)
(0.863887 -0.254186 2.72663e-20)
(0.87956 -0.232805 -3.59831e-20)
(0.89477 -0.212926 1.12871e-19)
(0.909715 -0.194101 -8.89714e-20)
(0.920995 -0.1779 -3.91667e-20)
(0.138469 -0.178718 8.78431e-20)
(0.337811 -0.422939 -3.29125e-20)
(0.482299 -0.567901 6.23197e-20)
(0.579038 -0.631734 6.5015e-20)
(0.640828 -0.63853 -1.99578e-20)
(0.680892 -0.612364 -1.30825e-19)
(0.709499 -0.571728 9.38917e-20)
(0.732975 -0.527576 -1.84155e-20)
(0.754314 -0.484814 2.91116e-20)
(0.774559 -0.444968 3.51259e-20)
(0.793954 -0.408227 -7.23674e-20)
(0.812523 -0.374435 -1.7059e-19)
(0.830259 -0.343376 7.42729e-21)
(0.84716 -0.314838 -1.68719e-20)
(0.863212 -0.288623 4.95314e-21)
(0.878326 -0.264583 8.61327e-20)
(0.892521 -0.242553 -8.3012e-20)
(0.906391 -0.22207 -1.26986e-19)
(0.920342 -0.2026 -3.30606e-20)
(0.930815 -0.185832 6.66028e-20)
(0.148686 -0.177952 7.0513e-21)
(0.36316 -0.424364 -3.67133e-20)
(0.517183 -0.57365 8.42894e-21)
(0.618709 -0.641754 -4.89207e-20)
(0.681567 -0.651563 -1.96376e-20)
(0.720225 -0.6269 -1.34286e-20)
(0.746134 -0.586598 2.14112e-20)
(0.766465 -0.542114 -6.67606e-20)
(0.784682 -0.498745 -1.55979e-20)
(0.802016 -0.458217 4.3439e-20)
(0.818755 -0.420793 2.90776e-20)
(0.834916 -0.386333 1.06506e-19)
(0.85047 -0.354627 1.05488e-19)
(0.865397 -0.325461 -2.6896e-20)
(0.87967 -0.298636 7.35414e-21)
(0.893177 -0.274007 2.92771e-20)
(0.905868 -0.25142 1.08258e-19)
(0.918321 -0.230409 1.26623e-19)
(0.931231 -0.210366 1.41376e-19)
(0.941067 -0.193131 -1.80773e-20)
(0.158207 -0.175729 -1.23105e-20)
(0.387357 -0.422545 2.23086e-20)
(0.551063 -0.575379 2.30601e-20)
(0.65779 -0.647694 1.734e-20)
(0.722142 -0.660837 -4.00649e-20)
(0.759708 -0.638124 1.30813e-19)
(0.783093 -0.59858 -3.86866e-20)
(0.800351 -0.55412 1.06966e-20)
(0.815463 -0.510437 -5.71311e-20)
(0.829882 -0.469477 -5.7911e-21)
(0.843955 -0.431591 9.69036e-20)
(0.857696 -0.396659 -4.88225e-20)
(0.871055 -0.36448 -1.76916e-20)
(0.883992 -0.334843 -4.38575e-20)
(0.896469 -0.30755 4.18497e-20)
(0.908363 -0.282457 -8.33362e-20)
(0.919538 -0.259437 3.22353e-20)
(0.930477 -0.23806 -2.10398e-20)
(0.942195 -0.217717 9.03933e-21)
(0.951707 -0.200325 4.06216e-20)
(0.166879 -0.172116 -4.03353e-21)
(0.410056 -0.417569 4.35929e-22)
(0.583511 -0.573136 -2.76052e-21)
(0.695849 -0.649563 -7.85644e-21)
(0.762171 -0.666342 1.70813e-20)
(0.799018 -0.646022 -8.08359e-20)
(0.82011 -0.607665 -8.61274e-21)
(0.834411 -0.563591 -4.64709e-20)
(0.846468 -0.51989 7.1663e-20)
(0.857992 -0.478749 5.47171e-20)
(0.86941 -0.440619 -9.22836e-20)
(0.880736 -0.40541 7.08119e-20)
(0.891904 -0.372932 -5.96328e-20)
(0.902851 -0.342978 1.35706e-20)
(0.913526 -0.315353 -1.88428e-19)
(0.923813 -0.28991 6.52749e-21)
(0.933513 -0.26652 -6.44672e-20)
(0.942908 -0.244745 -9.32281e-20)
(0.953206 -0.22392 -5.55191e-20)
(0.963022 -0.206154 -8.96e-20)
(0.174571 -0.167207 1.57874e-20)
(0.430914 -0.409553 -2.38997e-20)
(0.614102 -0.56701 1.01769e-20)
(0.732456 -0.647409 1.24149e-20)
(0.801264 -0.668097 1.35897e-21)
(0.837831 -0.650605 3.63141e-20)
(0.856919 -0.613867 -1.90885e-20)
(0.868424 -0.570542 -1.46997e-20)
(0.877508 -0.527119 -8.38756e-21)
(0.886185 -0.486046 -3.36851e-20)
(0.894977 -0.447888 2.3968e-20)
(0.903912 -0.412595 -6.76294e-20)
(0.912908 -0.379988 5.81032e-20)
(0.921878 -0.34987 5.81454e-20)
(0.930758 -0.322051 1.0438e-19)
(0.939445 -0.296379 3.5438e-20)
(0.947734 -0.272723 7.17336e-20)
(0.955655 -0.25075 7.88298e-20)
(0.964034 -0.230369 7.05573e-20)
(0.973611 -0.213785 3.50664e-20)
(0.181209 -0.161115 4.30501e-20)
(0.449595 -0.398622 -1.38936e-20)
(0.642417 -0.557136 -1.80648e-20)
(0.767176 -0.641313 -3.24739e-20)
(0.839029 -0.66615 6.62291e-21)
(0.875816 -0.651907 -9.36785e-21)
(0.893252 -0.617216 1.59012e-20)
(0.902171 -0.575006 -6.07075e-21)
(0.908399 -0.532157 -2.84355e-20)
(0.914298 -0.491397 -9.55546e-21)
(0.920516 -0.453422 7.81883e-20)
(0.927101 -0.418233 1.81981e-20)
(0.933959 -0.385664 1.26486e-20)
(0.940982 -0.355532 -4.70139e-20)
(0.948086 -0.327654 -1.41709e-19)
(0.955179 -0.301876 4.41205e-20)
(0.962094 -0.27806 2.90625e-20)
(0.968693 -0.255982 -8.17839e-20)
(0.97531 -0.235833 -4.58442e-20)
(0.983306 -0.218459 -2.231e-20)
(0.186654 -0.153816 -4.99343e-20)
(0.465825 -0.384899 3.318e-20)
(0.668047 -0.543722 -7.05131e-20)
(0.799586 -0.631397 3.02883e-21)
(0.87507 -0.66058 2.00718e-20)
(0.91264 -0.649985 -1.74941e-20)
(0.928839 -0.617764 4.49426e-21)
(0.935432 -0.577032 1.18588e-21)
(0.938959 -0.535051 2.75469e-20)
(0.942178 -0.494844 2.49057e-20)
(0.945892 -0.457259 -5.1379e-20)
(0.950185 -0.422354 -9.06293e-20)
(0.954954 -0.389986 3.33084e-20)
(0.960073 -0.359984 2.74562e-20)
(0.965434 -0.332177 7.33759e-20)
(0.970951 -0.306408 -9.60965e-21)
(0.976505 -0.282527 6.88847e-22)
(0.981911 -0.260383 2.73181e-21)
(0.987083 -0.240345 -7.01577e-21)
(0.993214 -0.222516 -1.06652e-19)
(0.190722 -0.145496 6.8473e-20)
(0.47936 -0.368774 7.40643e-20)
(0.690547 -0.526938 7.40293e-20)
(0.829312 -0.61781 1.81847e-20)
(0.909002 -0.65149 -2.62372e-20)
(0.947968 -0.644916 -2.07353e-20)
(0.96341 -0.61558 -1.157e-20)
(0.967992 -0.576687 1.52704e-21)
(0.96901 -0.535864 -7.50939e-21)
(0.969672 -0.496443 -1.27967e-20)
(0.970974 -0.459447 4.891e-21)
(0.973047 -0.425001 3.89023e-20)
(0.97579 -0.392989 -3.37866e-20)
(0.979061 -0.363254 2.4881e-21)
(0.982731 -0.335639 -1.79763e-20)
(0.986706 -0.309992 -1.02112e-20)
(0.990916 -0.286146 5.42588e-21)
(0.995192 -0.264008 -1.71917e-20)
(0.999178 -0.244096 1.66437e-20)
(1.00369 -0.226078 9.84413e-20)
(0.193364 -0.136394 4.90013e-20)
(0.489969 -0.350468 -1.42781e-19)
(0.709524 -0.507021 7.36203e-20)
(0.855834 -0.600765 2.16883e-20)
(0.94047 -0.638992 -5.13204e-20)
(0.98147 -0.636796 2.73313e-20)
(0.996698 -0.610746 3.012e-21)
(0.99964 -0.57405 -1.63557e-20)
(0.998381 -0.53467 2.33918e-21)
(0.996637 -0.496264 -1.02587e-22)
(0.995636 -0.460045 -4.03041e-21)
(0.99558 -0.426224 1.12938e-20)
(0.996373 -0.394715 2.04543e-20)
(0.997863 -0.36538 -3.43423e-20)
(0.999904 -0.338075 1.84364e-20)
(1.00239 -0.312657 -6.15294e-21)
(1.00528 -0.288954 1.90065e-20)
(1.00845 -0.266908 -3.36642e-22)
(1.01136 -0.247145 2.21787e-20)
(1.01446 -0.229084 -2.9054e-20)
(0.194557 -0.126678 -6.45108e-21)
(0.497418 -0.330247 -5.48776e-20)
(0.724765 -0.48427 -4.59897e-20)
(0.878679 -0.580461 2.75463e-20)
(0.969013 -0.623272 -5.55875e-21)
(1.01283 -0.625727 2.79351e-20)
(1.02843 -0.603362 1.35998e-20)
(1.03017 -0.569214 4.08319e-21)
(1.0269 -0.531558 1.67016e-21)
(1.02293 -0.494385 -1.15348e-21)
(1.01976 -0.459124 5.04526e-22)
(1.01768 -0.426083 -4.01672e-21)
(1.01661 -0.395217 6.16618e-21)
(1.0164 -0.366405 1.80752e-22)
(1.01688 -0.339521 -2.49155e-20)
(1.01794 -0.314437 4.53105e-20)
(1.01956 -0.290978 -2.28691e-20)
(1.02162 -0.269105 -2.16844e-20)
(1.0235 -0.249504 -9.79793e-21)
(1.02529 -0.231496 -1.69522e-20)
(0.194281 -0.116481 -1.89466e-20)
(0.50153 -0.308413 1.17666e-19)
(0.735989 -0.458994 3.93662e-20)
(0.897561 -0.557168 -1.08398e-19)
(0.994175 -0.604512 -1.99344e-20)
(1.04167 -0.611856 3.31222e-20)
(1.05835 -0.593532 1.42669e-20)
(1.05936 -0.562281 3.6857e-20)
(1.05442 -0.526625 -2.2411e-21)
(1.04844 -0.490897 3.29589e-21)
(1.04324 -0.456763 9.52082e-22)
(1.03925 -0.424648 6.55593e-21)
(1.03642 -0.394553 9.39479e-22)
(1.03459 -0.36638 1.25709e-20)
(1.0336 -0.340022 -8.27472e-21)
(1.0333 -0.315366 -5.65802e-20)
(1.03369 -0.292245 -2.70408e-20)
(1.03467 -0.270617 2.81119e-20)
(1.03553 -0.251195 1.4183e-20)
(1.0361 -0.233323 -6.16158e-21)
(0.192522 -0.105946 1.10382e-19)
(0.502189 -0.285297 -1.57218e-19)
(0.74291 -0.431541 -1.4042e-19)
(0.912181 -0.531165 1.69804e-19)
(1.01562 -0.582924 4.24514e-20)
(1.06762 -0.595348 -2.69901e-20)
(1.08617 -0.581384 -4.7636e-20)
(1.08702 -0.553365 -4.71112e-20)
(1.08078 -0.519979 2.95042e-20)
(1.07302 -0.4859 7.34407e-21)
(1.06596 -0.453051 8.65771e-21)
(1.0602 -0.421994 5.19158e-21)
(1.05573 -0.392789 -3.61891e-21)
(1.05238 -0.365362 2.41937e-21)
(1.04998 -0.339625 9.83405e-21)
(1.04841 -0.315485 2.96262e-20)
(1.04763 -0.292786 1.38606e-20)
(1.04755 -0.271472 -4.72603e-20)
(1.04743 -0.25226 -9.89158e-21)
(1.04687 -0.234604 1.40966e-20)
(0.189295 -0.0952305 -1.20342e-19)
(0.499331 -0.261241 1.16354e-19)
(0.745299 -0.40229 -4.15159e-22)
(0.922199 -0.502762 -3.86017e-20)
(1.03301 -0.558742 -6.25285e-21)
(1.09034 -0.576372 -8.5888e-21)
(1.1116 -0.567064 -4.46249e-20)
(1.11295 -0.542591 4.39643e-20)
(1.10582 -0.511734 -5.39354e-20)
(1.09657 -0.4795 3.16262e-21)
(1.08785 -0.448082 -3.01093e-21)
(1.08046 -0.418205 -1.01706e-21)
(1.07445 -0.389997 -2.2233e-21)
(1.06969 -0.363412 -1.76049e-21)
(1.06599 -0.338382 1.83531e-21)
(1.06322 -0.314837 -4.44592e-21)
(1.06133 -0.292636 1.11661e-20)
(1.06023 -0.271703 3.30215e-21)
(1.05917 -0.252737 1.23908e-21)
(1.05757 -0.235373 -2.32146e-20)
(0.184641 -0.084499 1.85252e-20)
(0.492947 -0.236603 3.36773e-20)
(0.742996 -0.371638 6.19452e-20)
(0.927308 -0.472297 -3.2536e-20)
(1.04601 -0.532217 -8.9728e-20)
(1.10952 -0.555115 2.47219e-20)
(1.13436 -0.550717 3.8732e-20)
(1.13693 -0.530083 2.22838e-20)
(1.12941 -0.502014 4.73335e-20)
(1.11897 -0.471809 -1.0321e-20)
(1.1088 -0.441956 -3.87432e-21)
(1.09994 -0.41337 4.2505e-21)
(1.09253 -0.386253 -9.96835e-21)
(1.08646 -0.360594 -8.93205e-21)
(1.08156 -0.33635 -1.17646e-21)
(1.07767 -0.313471 1.27264e-21)
(1.07473 -0.291835 -1.14267e-20)
(1.07267 -0.271344 6.13965e-21)
(1.07074 -0.252662 1.10448e-20)
(1.06818 -0.235651 -5.56429e-22)
(0.178631 -0.0739128 3.38097e-20)
(0.48308 -0.211743 6.85502e-21)
(0.735907 -0.340001 -8.65639e-20)
(0.92726 -0.44014 1.05559e-19)
(1.05426 -0.503626 1.93501e-20)
(1.12481 -0.531773 -9.9016e-20)
(1.15417 -0.532497 3.12241e-20)
(1.15875 -0.515982 -3.31461e-20)
(1.15142 -0.490934 4.49495e-22)
(1.14013 -0.462937 4.86255e-21)
(1.12875 -0.434786 1.09028e-20)
(1.11858 -0.407579 2.79327e-21)
(1.10992 -0.381639 2.09029e-20)
(1.10266 -0.356978 2.44537e-21)
(1.09664 -0.333587 -4.80701e-21)
(1.09172 -0.311434 1.33634e-22)
(1.08781 -0.290424 -2.02035e-21)
(1.08484 -0.270432 2.69485e-22)
(1.08209 -0.25207 6.71179e-22)
(1.07867 -0.235458 4.90777e-21)
(0.171362 -0.0636263 -3.93593e-20)
(0.46984 -0.187021 2.06349e-21)
(0.724011 -0.307809 1.8098e-20)
(0.921859 -0.406678 -4.35979e-20)
(1.05745 -0.473264 8.25504e-20)
(1.13587 -0.506555 4.0569e-20)
(1.17075 -0.512553 -3.79401e-20)
(1.17818 -0.500412 -2.14536e-20)
(1.17168 -0.478622 1.65008e-20)
(1.15999 -0.453004 -1.98551e-20)
(1.14763 -0.426664 1.5483e-20)
(1.13634 -0.40094 8.31406e-22)
(1.12655 -0.376239 9.51922e-22)
(1.11822 -0.352631 -6.24703e-21)
(1.11121 -0.330156 1.2243e-20)
(1.10534 -0.308781 -1.65315e-21)
(1.10054 -0.288447 1.00912e-21)
(1.09671 -0.269006 5.59922e-22)
(1.09322 -0.250995 -2.74997e-21)
(1.08901 -0.234813 -8.76263e-22)
(0.162954 -0.0537825 6.50828e-20)
(0.453393 -0.162789 7.39564e-20)
(0.70736 -0.275501 5.21911e-20)
(0.910972 -0.372323 -8.48497e-21)
(1.0553 -0.441448 8.43911e-21)
(1.14236 -0.479681 -7.71102e-22)
(1.18376 -0.49104 8.14708e-20)
(1.19501 -0.483499 -2.19437e-20)
(1.19002 -0.465197 1.22795e-20)
(1.17841 -0.442128 -5.9567e-20)
(1.16539 -0.417716 1.03379e-20)
(1.15318 -0.393537 1.96716e-20)
(1.14241 -0.370126 -6.36063e-21)
(1.13313 -0.347641 1.3308e-20)
(1.12522 -0.326121 -1.09018e-20)
(1.1185 -0.30556 1.44351e-20)
(1.11288 -0.285949 1.4382e-21)
(1.10826 -0.267108 -3.00343e-21)
(1.1041 -0.249474 -4.92314e-22)
(1.09918 -0.233745 -1.33115e-21)
(0.153548 -0.0445098 -1.22716e-19)
(0.43397 -0.139382 2.96328e-20)
(0.68609 -0.243513 -1.19147e-20)
(0.894538 -0.337496 -7.7135e-20)
(1.04756 -0.408513 -2.43248e-20)
(1.14394 -0.451382 -4.62613e-20)
(1.19291 -0.468116 -3.64078e-20)
(1.20897 -0.465362 -3.51827e-20)
(1.2063 -0.450769 3.09942e-20)
(1.19529 -0.43042 1.15848e-20)
(1.18196 -0.408042 -3.51814e-20)
(1.16905 -0.385469 -4.6349e-21)
(1.15746 -0.363401 -2.32072e-21)
(1.14736 -0.342071 -1.14366e-20)
(1.13864 -0.321538 -1.38424e-21)
(1.13117 -0.301838 -2.4126e-21)
(1.12481 -0.282976 -1.19594e-20)
(1.11945 -0.264774 2.89705e-21)
(1.11471 -0.247545 4.6989e-21)
(1.10918 -0.23227 -9.28573e-22)
(0.143306 -0.0359194 4.2058e-21)
(0.411862 -0.11711 -5.33099e-20)
(0.660421 -0.212273 2.38859e-20)
(0.872573 -0.30263 -1.61105e-20)
(1.03404 -0.374806 1.89178e-20)
(1.1403 -0.421899 7.63118e-20)
(1.19783 -0.443937 -3.28688e-20)
(1.2198 -0.446116 6.97112e-20)
(1.22033 -0.43544 2.49492e-21)
(1.21053 -0.417981 2.77397e-20)
(1.19727 -0.397744 2.80589e-21)
(1.1839 -0.376837 1.67133e-20)
(1.17168 -0.356148 2.9497e-21)
(1.16089 -0.335997 4.86938e-22)
(1.15148 -0.316483 -1.75662e-20)
(1.14335 -0.297664 2.80638e-21)
(1.13632 -0.279562 1.12998e-20)
(1.13029 -0.262061 3.8059e-22)
(1.12498 -0.245248 -2.92952e-21)
(1.11903 -0.23044 1.30017e-21)
(0.132405 -0.0281023 1.46393e-20)
(0.387414 -0.0962535 4.24912e-20)
(0.63066 -0.182191 4.47018e-20)
(0.845185 -0.268161 -1.26707e-20)
(1.01459 -0.340692 5.27656e-20)
(1.13111 -0.391485 -1.02994e-20)
(1.19818 -0.418664 7.4809e-20)
(1.22719 -0.425868 -8.7199e-20)
(1.2319 -0.419299 -1.43408e-20)
(1.22402 -0.404903 -1.29971e-20)
(1.21128 -0.386916 -1.40834e-20)
(1.19772 -0.367734 -2.01787e-21)
(1.18503 -0.348452 5.93828e-21)
(1.17369 -0.329497 -1.56678e-20)
(1.16371 -0.311019 1.2052e-20)
(1.155 -0.293092 -5.16471e-21)
(1.14741 -0.275769 -2.77495e-21)
(1.1408 -0.258971 -3.67524e-21)
(1.1349 -0.242643 -2.58154e-21)
(1.12871 -0.228271 -5.30005e-21)
(0.121029 -0.0211273 6.75151e-20)
(0.361019 -0.077051 -6.43048e-20)
(0.597202 -0.15365 7.6123e-21)
(0.812582 -0.23452 -8.54652e-21)
(0.989166 -0.306545 -1.9982e-20)
(1.11611 -0.360403 -3.75175e-20)
(1.19358 -0.392455 -4.57317e-21)
(1.23078 -0.404714 2.19185e-20)
(1.24077 -0.402422 8.52354e-21)
(1.23562 -0.391265 -1.10212e-20)
(1.2239 -0.375645 1.18593e-20)
(1.21048 -0.358246 -1.06384e-21)
(1.19752 -0.340393 -1.98352e-20)
(1.18576 -0.322643 2.70389e-20)
(1.17531 -0.305207 7.26723e-21)
(1.16612 -0.288182 -3.65291e-21)
(1.15804 -0.271643 4.5585e-21)
(1.15093 -0.255548 5.31612e-21)
(1.14454 -0.23979 4.8248e-21)
(1.13809 -0.225858 4.72144e-21)
(0.109373 -0.0150402 -6.93831e-20)
(0.333109 -0.0596967 5.24108e-20)
(0.560526 -0.126994 2.2242e-20)
(0.775079 -0.202128 -4.49203e-20)
(0.957782 -0.27275 -9.49287e-21)
(1.09505 -0.328932 -3.42556e-20)
(1.18366 -0.365475 1.3307e-20)
(1.23021 -0.382743 -2.11289e-20)
(1.24663 -0.384869 1.14428e-21)
(1.24513 -0.377126 2.75025e-21)
(1.23506 -0.364002 5.96865e-21)
(1.22214 -0.348451 -1.91951e-20)
(1.20913 -0.332049 1.9091e-20)
(1.19709 -0.315507 -1.28914e-20)
(1.18629 -0.29911 -2.80301e-21)
(1.1767 -0.282987 1.04799e-21)
(1.16822 -0.267234 -3.30614e-21)
(1.16069 -0.251844 -8.16058e-21)
(1.15388 -0.236679 -1.84419e-22)
(1.14711 -0.223167 -4.64119e-21)
(0.0976282 -0.00986262 -8.29341e-21)
(0.304147 -0.0443342 -2.42293e-20)
(0.521187 -0.102521 -8.25218e-21)
(0.733105 -0.171383 1.29412e-20)
(0.920578 -0.239698 -7.41884e-21)
(1.06774 -0.297364 7.78155e-21)
(1.16801 -0.337895 1.73578e-20)
(1.22503 -0.360036 1.47635e-20)
(1.24913 -0.366681 1.13875e-20)
(1.25232 -0.36253 -2.48828e-21)
(1.24464 -0.352044 -5.73509e-21)
(1.23265 -0.338417 7.06884e-21)
(1.21985 -0.323491 -3.13862e-21)
(1.20769 -0.308154 4.36304e-21)
(1.19664 -0.292788 -2.04879e-21)
(1.18676 -0.277561 5.06215e-21)
(1.17795 -0.262588 -1.47519e-21)
(1.17007 -0.247899 4.85541e-21)
(1.1629 -0.233317 -1.4663e-21)
(1.15583 -0.220209 2.99255e-22)
(0.0859811 -0.00559248 -1.02261e-22)
(0.274608 -0.0310526 -1.01477e-22)
(0.479802 -0.0804716 -2.76518e-21)
(0.687201 -0.142654 1.36053e-20)
(0.87781 -0.20778 8.62102e-21)
(1.0341 -0.266007 -6.45533e-21)
(1.14629 -0.309899 -4.73326e-21)
(1.21479 -0.336672 -1.37331e-21)
(1.24785 -0.347884 -6.54994e-21)
(1.25691 -0.347493 -4.19864e-22)
(1.25246 -0.339804 2.78711e-22)
(1.24195 -0.328197 -2.67669e-21)
(1.22966 -0.31478 -1.63008e-21)
(1.21757 -0.300648 -3.65528e-21)
(1.20639 -0.286299 -3.9141e-21)
(1.19629 -0.271953 -3.13529e-22)
(1.18723 -0.257747 1.41539e-21)
(1.17907 -0.243747 1.46034e-21)
(1.17161 -0.229739 1.57013e-21)
(1.16429 -0.21702 2.2893e-21)
(0.0746077 -0.00220532 9.38857e-21)
(0.244967 -0.0198858 -1.44995e-21)
(0.437038 -0.0610239 -2.45629e-21)
(0.638019 -0.116266 6.16679e-21)
(0.829878 -0.17738 1.23621e-20)
(0.994127 -0.235188 -5.45014e-21)
(1.11815 -0.281687 -4.42278e-21)
(1.19897 -0.312734 -8.20982e-21)
(1.24229 -0.328491 -7.37415e-21)
(1.25851 -0.332012 1.37603e-21)
(1.2583 -0.327296 -1.22281e-21)
(1.24992 -0.317826 -5.61889e-22)
(1.23853 -0.305967 -2.8859e-21)
(1.22671 -0.293044 -4.65184e-21)
(1.21554 -0.279696 -1.13404e-21)
(1.20532 -0.266211 -3.71348e-22)
(1.19608 -0.252754 -7.90528e-23)
(1.1877 -0.239429 9.89457e-22)
(1.18 -0.225988 3.63028e-21)
(1.17253 -0.213634 3.04047e-21)
(0.0636675 0.000343769 -5.63045e-21)
(0.215688 -0.0108125 -8.18242e-21)
(0.393588 -0.0442859 -1.08982e-20)
(0.58631 -0.0924906 1.43041e-20)
(0.77733 -0.148869 1.37971e-20)
(0.947977 -0.205252 2.71765e-22)
(1.08334 -0.253486 5.25557e-21)
(1.17706 -0.288313 1.45628e-20)
(1.2319 -0.308502 1.57783e-20)
(1.25666 -0.316058 1.02509e-20)
(1.26186 -0.314502 -2.50208e-20)
(1.25642 -0.307315 1.02616e-20)
(1.24639 -0.297087 -4.83998e-21)
(1.23512 -0.285389 1.04253e-20)
(1.22409 -0.273027 -6.74722e-22)
(1.21385 -0.260381 -1.65972e-21)
(1.2045 -0.247649 1.08067e-21)
(1.19597 -0.234981 1.03108e-20)
(1.1881 -0.222106 -3.62344e-21)
(1.18052 -0.210081 3.23868e-22)
(0.0532999 0.00211733 -1.7321e-20)
(0.187203 -0.0037596 3.94532e-20)
(0.350151 -0.0302937 3.91977e-21)
(0.532904 -0.0715361 -4.92881e-20)
(0.720869 -0.12259 -9.19587e-21)
(0.895967 -0.176555 2.13118e-20)
(1.04171 -0.225553 -4.922e-20)
(1.14856 -0.263523 -4.53924e-22)
(1.21602 -0.28792 4.57484e-21)
(1.25079 -0.299581 -9.31743e-22)
(1.26272 -0.301377 1.32855e-20)
(1.2612 -0.296649 -2.31709e-20)
(1.25315 -0.288156 3.70767e-21)
(1.24275 -0.277716 -8.82588e-21)
(1.23205 -0.266335 -7.33473e-21)
(1.22189 -0.254505 6.74877e-21)
(1.21251 -0.242472 -7.94302e-22)
(1.20388 -0.230436 -1.62465e-20)
(1.19589 -0.218126 4.62446e-22)
(1.18827 -0.206388 -8.30158e-21)
(0.0436202 0.00319206 1.34378e-20)
(0.159903 0.00139234 -2.18777e-20)
(0.307407 -0.0190112 -1.73311e-21)
(0.478683 -0.0535365 -4.0628e-20)
(0.661344 -0.0988447 -2.53194e-20)