/*--------------------------------*- C++ -*----------------------------------*\
  =========                 |
  \\      /  F ield         | OpenFOAM: The Open Source CFD Toolbox
   \\    /   O peration     | Website:  https://openfoam.org
    \\  /    A nd           | Version:  7
     \\/     M anipulation  |
\*---------------------------------------------------------------------------*/
FoamFile
{
    version     2.0;
    format      ascii;
    class       surfaceScalarField;
    location    "1";
    object      phi;
}
// * * * * * * * * * * * * * * * * * * * * * * * * * * * * * * * * * * * * * //

dimensions      [0 3 -1 0 0 0 0];

internalField   nonuniform List<scalar> 
614
(
0.000163839
-1.14694e-06
0.000163746
-9.34043e-07
0.000163666
-7.52011e-07
0.000163598
-6.01429e-07
0.00016354
-4.79766e-07
0.000163491
-3.83009e-07
0.000163451
-3.06764e-07
0.000163417
-2.46907e-07
0.000163389
-1.99887e-07
0.000163366
-1.62807e-07
0.000163347
-1.33388e-07
0.000163331
-1.09878e-07
-9.09459e-08
0.000159021
-1.69516e-06
0.00015958
-4.82116e-06
0.000160293
-7.24948e-06
0.000160998
-8.79126e-06
0.00016167
-9.74118e-06
0.000162334
-1.03451e-05
0.000163023
-1.07857e-05
0.000163722
-1.10667e-05
0.000164399
-1.11203e-05
0.000165028
-1.09083e-05
0.000165586
-1.04382e-05
0.000166058
-9.77466e-06
0.000166445
-9.03001e-06
0.000166767
-8.28726e-06
0.000167041
-7.55336e-06
0.000167268
-6.83172e-06
0.00016745
-6.18272e-06
0.000167598
-5.64981e-06
0.000167728
-5.19071e-06
0.000167849
-4.74359e-06
0.00016796
-4.3074e-06
0.000168057
-3.92414e-06
0.000168136
-3.61372e-06
0.000168202
-3.339e-06
0.000168257
-3.03665e-06
0.000168305
-2.68769e-06
0.000168345
-2.34572e-06
0.000168374
-2.0836e-06
0.000168389
-1.91608e-06
0.000168391
-1.78152e-06
0.000168381
-1.59927e-06
0.000168365
-1.34465e-06
0.000168344
-1.07342e-06
0.000168321
-8.78662e-07
0.000168295
-8.19439e-07
0.000168262
-8.77244e-07
0.000168223
-9.68404e-07
0.000168177
-9.98385e-07
0.000168129
-9.18912e-07
0.000168085
-7.53318e-07
0.000168047
-5.80466e-07
0.000168017
-4.92298e-07
0.000167991
-5.5063e-07
0.000167961
-7.63383e-07
0.000167918
-1.08661e-06
0.000167852
-1.44579e-06
0.00016776
-1.76354e-06
0.00016764
-1.98214e-06
0.000167497
-2.07434e-06
0.000167338
-2.04257e-06
0.000167172
-1.91036e-06
0.000167007
-1.71129e-06
0.000166852
-1.4793e-06
0.000166709
-1.24249e-06
0.000166583
-1.02047e-06
0.000166473
-8.24425e-07
0.00016638
-6.58764e-07
0.000166302
-5.2321e-07
0.000166237
-4.14798e-07
0.000166183
-3.29386e-07
0.000166139
-2.62654e-07
0.000166103
-2.10661e-07
0.000166073
-1.70082e-07
0.000166048
-1.38251e-07
0.000166028
-1.13104e-07
0.000166011
-9.30722e-08
-7.69803e-08
0.000161639
-1.95607e-06
0.000162322
-5.5041e-06
0.000163117
-8.04496e-06
0.00016387
-9.54426e-06
0.000164571
-1.04422e-05
0.000165284
-1.1058e-05
0.000166037
-1.15381e-05
0.000166794
-1.18238e-05
0.000167517
-1.18438e-05
0.00016818
-1.15713e-05
0.000168765
-1.10234e-05
0.000169257
-1.0266e-05
0.000169655
-9.42825e-06
0.000169982
-8.61468e-06
0.000170258
-7.82863e-06
0.000170484
-7.05841e-06
0.000170665
-6.36326e-06
0.00017081
-5.79525e-06
0.000170936
-5.31653e-06
0.000171054
-4.86152e-06
0.000171166
-4.41884e-06
0.000171264
-4.02261e-06
0.000171344
-3.69365e-06
0.000171406
-3.40077e-06
0.000171455
-3.08602e-06
0.000171499
-2.73138e-06
0.000171539
-2.38567e-06
0.00017157
-2.11493e-06
0.000171585
-1.93119e-06
0.00017158
-1.77679e-06
0.00017156
-1.57859e-06
0.000171532
-1.31707e-06
0.000171506
-1.04707e-06
0.000171483
-8.55545e-07
0.000171458
-7.946e-07
0.000171423
-8.42712e-07
0.000171374
-9.19207e-07
0.000171312
-9.36691e-07
0.000171247
-8.53768e-07
0.00017119
-6.96273e-07
0.00017115
-5.3968e-07
0.000171125
-4.68131e-07
0.000171109
-5.34585e-07
0.000171087
-7.40588e-07
0.000171041
-1.04063e-06
0.000170958
-1.36371e-06
0.000170834
-1.63952e-06
0.000170671
-1.81838e-06
0.000170476
-1.87971e-06
0.000170263
-1.82973e-06
0.000170046
-1.69271e-06
0.000169835
-1.50056e-06
0.00016964
-1.28417e-06
0.000169465
-1.06823e-06
0.000169314
-8.69302e-07
0.000169186
-6.96239e-07
0.000169079
-5.51906e-07
0.000168991
-4.35208e-07
0.000168919
-3.42891e-07
0.000168861
-2.70874e-07
0.000168813
-2.15101e-07
0.000168775
-1.71973e-07
0.000168743
-1.38524e-07
0.000168717
-1.12417e-07
0.000168696
-9.18692e-08
0.000168678
-7.55464e-08
-6.24581e-08
0.000164285
-2.29831e-06
0.000165116
-6.33553e-06
0.000165998
-8.9265e-06
0.000166793
-1.03395e-05
0.000167521
-1.11702e-05
0.0001683
-1.18369e-05
0.000169124
-1.23622e-05
0.000169945
-1.26451e-05
0.000170718
-1.26163e-05
0.000171415
-1.22687e-05
0.000172026
-1.16346e-05
0.000172538
-1.07779e-05
0.000172951
-9.84092e-06
0.000173284
-8.94803e-06
0.000173557
-8.10191e-06
0.000173779
-7.28002e-06
0.000173956
-6.53989e-06
0.000174098
-5.93759e-06
0.00017422
-5.4383e-06
0.000174333
-4.97444e-06
0.00017444
-4.52611e-06
0.000174536
-4.11884e-06
0.000174613
-3.77104e-06
0.000174669
-3.45639e-06
0.000174709
-3.126e-06
0.000174744
-2.76678e-06
0.000174781
-2.42184e-06
0.000174811
-2.1452e-06
0.000174822
-1.94224e-06
0.000174806
-1.76085e-06
0.000174769
-1.54118e-06
0.000174725
-1.27359e-06
0.00017469
-1.0115e-06
0.000174664
-8.30428e-07
0.00017464
-7.69699e-07
0.0001746
-8.02798e-07
0.000174536
-8.55263e-07
0.000174452
-8.52915e-07
0.000174364
-7.66185e-07
0.000174292
-6.24303e-07
0.000174249
-4.95881e-07
0.000174232
-4.5146e-07
0.000174227
-5.29917e-07
0.000174211
-7.24018e-07
0.000174158
-9.87765e-07
0.000174051
-1.25736e-06
0.000173886
-1.47412e-06
0.000173668
-1.60017e-06
0.000173412
-1.6236e-06
0.000173137
-1.55462e-06
0.000172861
-1.41707e-06
0.0001726
-1.23936e-06
0.000172363
-1.04754e-06
0.000172156
-8.61457e-07
0.000171981
-6.93684e-07
0.000171835
-5.50292e-07
0.000171715
-4.32522e-07
0.000171619
-3.38576e-07
0.000171541
-2.6514e-07
0.000171479
-2.0845e-07
0.000171428
-1.64937e-07
0.000171388
-1.31537e-07
0.000171355
-1.05782e-07
0.000171329
-8.57659e-08
0.000171307
-7.00579e-08
0.000171289
-5.76017e-08
-4.76235e-08
0.000166976
-2.76706e-06
0.000167978
-7.338e-06
0.000168946
-9.8944e-06
0.000169774
-1.11671e-05
0.000170544
-1.19407e-05
0.000171403
-1.26955e-05
0.000172303
-1.32629e-05
0.000173194
-1.35354e-05
0.000174017
-1.34394e-05
0.000174748
-1.30003e-05
0.000175384
-1.22699e-05
0.000175916
-1.131e-05
0.000176343
-1.02682e-05
0.000176678
-9.28311e-06
0.00017694
-8.36332e-06
0.000177144
-7.48452e-06
0.000177307
-6.70278e-06
0.000177439
-6.06963e-06
0.000177549
-5.54797e-06
0.000177644
-5.07021e-06
0.000177732
-4.61373e-06
0.00017781
-4.19713e-06
0.000177871
-3.83166e-06
0.000177907
-3.49254e-06
0.000177924
-3.14301e-06
0.000177937
-2.77945e-06
0.000177954
-2.439e-06
0.000177968
-2.15883e-06
0.000177959
-1.93382e-06
0.000177918
-1.71919e-06
0.000177851
-1.47423e-06
0.00017778
-1.20342e-06
0.000177726
-9.57224e-07
0.000177689
-7.9373e-07
0.000177654
-7.33909e-07
0.000177596
-7.45596e-07
0.000177506
-7.65203e-07
0.000177392
-7.38319e-07
0.000177277
-6.51287e-07
0.000177188
-5.35868e-07
0.000177141
-4.48683e-07
0.00017713
-4.40177e-07
0.000177131
-5.3055e-07
0.00017711
-7.02992e-07
0.000177036
-9.13917e-07
0.00017689
-1.11164e-06
0.00017667
-1.25387e-06
0.000176387
-1.31768e-06
0.000176064
-1.30076e-06
0.000175726
-1.21645e-06
0.000175395
-1.08625e-06
0.000175089
-9.32972e-07
0.000174817
-7.76e-07
0.000174585
-6.29113e-07
0.000174392
-5.00258e-07
0.000174234
-3.92548e-07
0.000174107
-3.05717e-07
0.000174006
-2.37545e-07
0.000173926
-1.84972e-07
0.000173862
-1.44843e-07
0.000173812
-1.1432e-07
0.000173771
-9.10503e-08
0.000173739
0.000173712
0.000173691
0.000173673
0.000173658
0.000169737
0.000170929
0.000171974
0.000172803
0.000173665
0.000174618
0.000175601
0.000176556
0.000177424
0.000178182
0.00017883
0.000179366
0.000179784
0.000180089
0.000180301
0.000180448
0.000180557
0.000180637
0.00018069
0.00018072
0.000180736
0.000180745
0.000180738
0.000180707
0.000180655
0.0001806
0.000180553
0.000180504
0.000180432
0.000180328
0.000180202
0.000180081
0.000179985
0.000179911
0.000179836
0.000179736
0.0001796
0.000179445
0.000179301
0.000179198
0.000179144
0.000179127
0.000179112
0.000179059
0.000178937
0.000178731
0.000178445
0.000178099
0.00017772
0.000177339
0.000176976
0.00017665
0.000176368
0.000176132
0.000175939
0.000175784
0.000175662
0.000175566
0.000175491
0.000175432
0.000175385
)
;

boundaryField
{
    inlet
    {
        type            calculated;
        value           nonuniform List<scalar> 5(-0.000158813 -0.000161378 -0.000163942 -0.000166507 -0.000169071);
    }
    outlet
    {
        type            calculated;
        value           nonuniform 0();
    }
    wall
    {
        type            calculated;
        value           nonuniform 0();
    }
    wedge1
    {
        type            wedge;
        value           nonuniform List<scalar> 
344
(
5.82918e-17
6.73913e-17
7.92865e-17
3.18457e-16
-8.85772e-16
2.18207e-16
2.45214e-16
2.78056e-16
9.83337e-16
-2.5275e-15
3.51756e-16
3.85828e-16
4.23724e-16
1.42042e-15
-3.47568e-15
4.45265e-16
4.78294e-16
5.13507e-16
1.67283e-15
-3.97414e-15
5.08153e-16
5.38814e-16
5.70253e-16
1.82791e-15
-4.29237e-15
5.48426e-16
5.77827e-16
6.08893e-16
1.94712e-15
-4.57304e-15
5.77089e-16
6.07255e-16
6.39608e-16
2.04419e-15
-4.80712e-15
5.98545e-16
6.29834e-16
6.63903e-16
2.12335e-15
-5.03196e-15
6.23815e-16
6.55673e-16
6.89688e-16
2.18794e-15
-5.11481e-15
6.21932e-16
6.50805e-16
6.80991e-16
2.14727e-15
-4.98737e-15
6.02701e-16
6.27695e-16
6.53572e-16
2.04717e-15
-4.72758e-15
5.69664e-16
5.89778e-16
6.10432e-16
1.90122e-15
-4.36964e-15
5.30566e-16
5.46154e-16
5.6206e-16
1.73775e-15
-3.96941e-15
4.89409e-16
5.01468e-16
5.13383e-16
1.57949e-15
-3.58454e-15
4.47753e-16
4.57608e-16
4.67159e-16
1.42904e-15
-3.22165e-15
4.05833e-16
4.13279e-16
4.20428e-16
1.2814e-15
-2.87531e-15
3.68248e-16
3.73539e-16
3.78517e-16
1.1485e-15
-2.56755e-15
3.3672e-16
3.40265e-16
3.43492e-16
1.03981e-15
-2.31937e-15
3.09425e-16
3.12509e-16
3.1504e-16
9.5076e-16
-2.11471e-15
2.82509e-16
2.85115e-16
2.87436e-16
8.68609e-16
-1.92915e-15
2.56635e-16
2.59296e-16
2.61713e-16
7.90243e-16
-1.75349e-15
2.33954e-16
2.35975e-16
2.37784e-16
7.18564e-16
-1.59456e-15
2.15821e-16
2.17273e-16
2.18375e-16
6.57008e-16
-1.45364e-15
1.99608e-16
2.00276e-16
2.00376e-16
6.00741e-16
-1.32207e-15
1.81857e-16
1.8229e-16
1.82098e-16
5.42768e-16
-1.18737e-15
1.61502e-16
1.61607e-16
1.61232e-16
4.81051e-16
-1.05058e-15
1.41452e-16
1.4163e-16
1.41605e-16
4.22383e-16
-9.24299e-16
1.26252e-16
1.25896e-16
1.25379e-16
3.74647e-16
-8.19013e-16
1.16579e-16
1.15681e-16
1.14532e-16
3.3803e-16
-7.30466e-16
1.08917e-16
1.07245e-16
1.04767e-16
3.04288e-16
-6.43285e-16
9.8223e-17
9.59971e-17
9.28038e-17
2.64344e-16
-5.46135e-16
8.32269e-17
8.07856e-17
7.71838e-17
2.17835e-16
-4.43258e-16
6.6955e-17
6.46353e-17
6.17378e-17
1.7341e-16
-3.52976e-16
5.51179e-17
5.28639e-17
5.01556e-17
1.4283e-16
-2.93293e-16
5.10721e-17
4.86353e-17
4.61032e-17
1.31162e-16
-2.68494e-16
5.40617e-17
5.10914e-17
4.77732e-17
1.3385e-16
-2.65679e-16
5.90015e-17
5.53101e-17
5.09602e-17
1.38751e-16
-2.6398e-16
6.04888e-17
5.62576e-17
5.07572e-17
1.35005e-16
-2.46681e-16
5.55884e-17
5.12032e-17
4.57179e-17
1.18665e-16
-2.12184e-16
4.55634e-17
4.16254e-17
3.65942e-17
9.54441e-17
-1.73931e-16
3.50916e-17
3.18122e-17
2.79392e-17
7.62612e-17
-1.49894e-16
2.95754e-17
2.71697e-17
2.49641e-17
7.18028e-17
-1.53942e-16
3.28167e-17
3.05785e-17
2.89543e-17
8.63812e-17
-1.90494e-16
4.53675e-17
4.28321e-17
4.05048e-17
1.18319e-16
-2.50222e-16
6.45388e-17
6.05942e-17
5.65277e-17
1.59072e-16
-3.17902e-16
8.60815e-17
8.04494e-17
7.36101e-17
1.99581e-16
-3.76873e-16
1.05313e-16
9.74122e-17
8.75643e-17
2.30334e-16
-4.156e-16
1.19038e-16
1.09106e-16
9.66442e-17
2.4704e-16
-4.27743e-16
1.24996e-16
1.13414e-16
9.90004e-17
2.47705e-16
-4.15122e-16
1.23696e-16
1.1128e-16
9.58023e-17
2.34946e-16
-3.8226e-16
1.1617e-16
1.03396e-16
8.785e-17
2.12108e-16
-3.37157e-16
1.04705e-16
9.24626e-17
7.76159e-17
1.84303e-16
-2.86127e-16
9.08744e-17
7.93004e-17
6.57145e-17
1.54416e-16
-2.36144e-16
7.68311e-17
6.65954e-17
5.45613e-17
1.26487e-16
-1.89728e-16
2.14029e-16
6.32791e-17
5.40974e-17
4.37326e-17
1.00906e-16
-1.50512e-16
1.75231e-16
5.15183e-17
4.38265e-17
3.50184e-17
7.99357e-17
-1.17397e-16
1.41607e-16
4.12274e-17
3.44969e-17
2.67216e-17
6.21547e-17
-9.18086e-17
1.13851e-16
3.30181e-17
2.76441e-17
2.1825e-17
4.8866e-17
-7.09632e-17
9.11571e-17
2.61777e-17
2.14357e-17
1.64293e-17
3.77701e-17
-5.59138e-17
7.30864e-17
2.09287e-17
1.72293e-17
1.3309e-17
2.98306e-17
-4.37148e-17
5.86317e-17
1.65867e-17
1.32513e-17
9.78296e-18
2.31765e-17
-3.52068e-17
4.72701e-17
1.32984e-17
1.07655e-17
8.13108e-18
1.85528e-17
-2.80637e-17
3.83383e-17
1.06599e-17
8.25357e-18
5.75796e-18
1.4512e-17
3.12811e-17
8.72536e-18
6.96312e-18
5.15182e-18
1.19284e-17
2.57522e-17
7.12694e-18
5.33014e-18
3.46463e-18
9.47545e-18
2.11713e-17
5.87588e-18
4.60071e-18
3.31961e-18
7.8214e-18
1.76738e-17
4.87707e-18
3.49631e-18
2.00755e-18
6.30337e-18
5.05639e-18
)
;
    }
    wedge2
    {
        type            wedge;
        value           nonuniform List<scalar> 
344
(
5.79938e-17
6.71787e-17
7.8976e-17
3.18228e-16
-8.86099e-16
2.18564e-16
2.45461e-16
2.78422e-16
9.83588e-16
-2.5271e-15
3.51363e-16
3.85543e-16
4.23338e-16
1.42017e-15
-3.4761e-15
4.45633e-16
4.78794e-16
5.13853e-16
1.67308e-15
-3.97372e-15
5.07813e-16
5.38589e-16
5.70156e-16
1.82752e-15
-4.29278e-15
5.4881e-16
5.78383e-16
6.09514e-16
1.94717e-15
-4.57253e-15
5.77024e-16
6.07002e-16
6.39359e-16
2.04358e-15
-4.80732e-15
5.98876e-16
6.30207e-16
6.6456e-16
2.12327e-15
-5.03148e-15
6.23512e-16
6.55401e-16
6.89297e-16
2.18733e-15
-5.11505e-15
6.22434e-16
6.51487e-16
6.81866e-16
2.1475e-15
-4.98671e-15
6.02428e-16
6.27517e-16
6.53384e-16
2.04667e-15
-4.72778e-15
5.70032e-16
5.90316e-16
6.11183e-16
1.9014e-15
-4.36903e-15
5.30652e-16
5.4606e-16
5.6179e-16
1.73737e-15
-3.9693e-15
4.89713e-16
5.01908e-16
5.14288e-16
1.57965e-15
-3.58397e-15
4.47702e-16
4.57442e-16
4.67003e-16
1.42865e-15
-3.22156e-15
4.06326e-16
4.13887e-16
4.21166e-16
1.2817e-15
-2.87448e-15
3.68349e-16
3.73552e-16
3.78607e-16
1.14827e-15
-2.56741e-15
3.37047e-16
3.40803e-16
3.44371e-16
1.04013e-15
-2.31854e-15
3.09554e-16
3.12299e-16
3.15039e-16
9.50634e-16
-2.1143e-15
2.82861e-16
2.85703e-16
2.88514e-16
8.68914e-16
-1.9284e-15
2.56736e-16
2.59163e-16
2.61891e-16
7.90183e-16
-1.75312e-15
2.34249e-16
2.36318e-16
2.38786e-16
7.18956e-16
-1.59352e-15
2.16007e-16
2.17247e-16
2.18749e-16
6.57145e-16
-1.4531e-15
1.9992e-16
2.00716e-16
2.01562e-16
6.01125e-16
-1.32114e-15
1.82124e-16
1.8242e-16
1.82689e-16
5.43029e-16
-1.1866e-15
1.61621e-16
1.61973e-16
1.62492e-16
4.81422e-16
-1.04967e-15
1.41767e-16
1.4184e-16
1.42331e-16
4.22834e-16
-9.23427e-16
1.2652e-16
1.26443e-16
1.2697e-16
3.75162e-16
-8.18092e-16
1.16918e-16
1.16054e-16
1.15508e-16
3.38624e-16
-7.29493e-16
1.09137e-16
1.07508e-16
1.05935e-16
3.04783e-16
-6.42381e-16
9.85527e-17
9.63821e-17
9.37693e-17
2.65017e-16
-5.45169e-16
8.34016e-17
8.11185e-17
7.86149e-17
2.18438e-16
-4.42336e-16
6.72154e-17
6.50263e-17
6.27331e-17
1.74153e-16
-3.5199e-16
5.53266e-17
5.32595e-17
5.17774e-17
1.43514e-16
-2.92336e-16
5.14595e-17
4.92113e-17
4.74751e-17
1.32079e-16
-2.67395e-16
5.4333e-17
5.15712e-17
4.90793e-17
1.34624e-16
-2.64695e-16
5.93074e-17
5.58849e-17
5.2054e-17
1.39693e-16
-2.62869e-16
6.07129e-17
5.67457e-17
5.21044e-17
1.35853e-16
-2.4563e-16
5.57567e-17
5.17195e-17
4.66243e-17
1.19573e-16
-2.11121e-16
4.58198e-17
4.2151e-17
3.80345e-17
9.63925e-17
-1.72799e-16
3.54371e-17
3.2632e-17
3.00443e-17
7.7551e-17
-1.4853e-16
3.00543e-17
2.78713e-17
2.62444e-17
7.28387e-17
-1.52757e-16
3.32703e-17
3.15506e-17
3.05245e-17
8.77578e-17
-1.89076e-16
4.56428e-17
4.33817e-17
4.19051e-17
1.19268e-16
-2.49081e-16
6.48401e-17
6.15363e-17
5.82211e-17
1.60415e-16
-3.16548e-16
8.63859e-17
8.10526e-17
7.51806e-17
2.00505e-16
-3.75774e-16
1.0576e-16
9.84123e-17
8.95999e-17
2.31776e-16
-4.14041e-16
1.19178e-16
1.09793e-16
9.81914e-17
2.48119e-16
-4.26674e-16
1.25433e-16
1.14535e-16
1.00937e-16
2.49102e-16
-4.13631e-16
1.24094e-16
1.12163e-16
9.7579e-17
2.3615e-16
-3.81036e-16
1.16763e-16
1.04719e-16
9.00507e-17
2.13693e-16
-3.35486e-16
1.05066e-16
9.32578e-17
7.93162e-17
1.85383e-16
-2.85059e-16
9.1463e-17
8.069e-17
6.80108e-17
1.56098e-16
-2.34378e-16
7.71916e-17
6.73711e-17
5.62661e-17
1.27532e-16
-1.88711e-16
2.14674e-16
6.39594e-17
5.56388e-17
4.61683e-17
1.02785e-16
-1.4855e-16
1.75601e-16
5.18823e-17
4.46353e-17
3.67932e-17
8.11515e-17
-1.16236e-16
1.42234e-16
4.18797e-17
3.60728e-17
3.00771e-17
6.42118e-17
-8.96728e-17
1.14247e-16
3.33651e-17
2.83446e-17
2.28793e-17
4.99776e-17
-6.99416e-17
9.16464e-17
2.67378e-17
2.2931e-17
1.87386e-17
3.96648e-17
-5.3914e-17
7.3496e-17
2.13055e-17
1.8006e-17
1.44373e-17
3.11364e-17
-4.25049e-17
5.92572e-17
1.72486e-17
1.48639e-17
1.2223e-17
2.51781e-17
-3.31037e-17
4.798e-17
1.39534e-17
1.18091e-17
9.4528e-18
2.01287e-17
-2.66026e-17
3.90444e-17
1.14246e-17
9.999e-18
8.39659e-18
1.67066e-17
3.19502e-17
9.28518e-18
7.89833e-18
6.33787e-18
1.34805e-17
2.6207e-17
7.65013e-18
6.85009e-18
5.92475e-18
1.13618e-17
2.1747e-17
6.31518e-18
5.44097e-18
4.40547e-18
9.37792e-18
1.79403e-17
5.22886e-18
4.82444e-18
4.38252e-18
7.97034e-18
6.84163e-18
)
;
    }
    axis
    {
        type            empty;
        value           nonuniform 0();
    }
    procBoundary36to30
    {
        type            processor;
        value           nonuniform List<scalar> 
68
(
1.25088e-06
1.02629e-06
8.32196e-07
6.70005e-07
5.37702e-07
4.31533e-07
3.47179e-07
2.80464e-07
2.27715e-07
1.8589e-07
1.52558e-07
1.25826e-07
1.04243e-07
1.48805e-06
4.26132e-06
6.53706e-06
8.08572e-06
9.06951e-06
9.68123e-06
1.00962e-05
1.03681e-05
1.04432e-05
1.02797e-05
9.87963e-06
9.30256e-06
8.64337e-06
7.96527e-06
7.27944e-06
6.60454e-06
6.00083e-06
5.50156e-06
5.061e-06
4.62297e-06
4.19599e-06
3.82738e-06
3.53408e-06
3.27373e-06
2.98138e-06
2.63985e-06
2.30587e-06
2.05458e-06
1.90058e-06
1.77978e-06
1.60871e-06
1.3613e-06
1.09395e-06
9.01765e-07
8.46109e-07
9.09643e-07
1.0079e-06
1.04389e-06
9.66606e-07
7.98046e-07
6.18157e-07
5.22269e-07
5.76711e-07
7.93337e-07
1.13002e-06
1.51121e-06
1.85606e-06
2.10209e-06
2.2175e-06
2.20149e-06
2.07621e-06
1.87558e-06
1.6351e-06
-0.000163943
1.38497e-06
)
;
    }
    procBoundary36to31
    {
        type            processor;
        value           uniform 0.000163318;
    }
    procBoundary36to37
    {
        type            processor;
        value           nonuniform List<scalar> 5(0.000165997 0.000168664 0.000171274 3.95551e-08 0.000173646);
    }
    procBoundary36to42
    {
        type            processor;
        value           nonuniform List<scalar> 
69
(
-7.31922e-08
-5.93536e-08
-4.85084e-08
-3.99103e-08
-3.30189e-08
-2.74415e-08
-3.43229e-06
-8.53086e-06
-1.09394e-05
-1.19959e-05
-1.28029e-05
-1.36482e-05
-1.42457e-05
-1.44907e-05
-1.43076e-05
-1.3758e-05
-1.29177e-05
-1.18462e-05
-1.06862e-05
-9.58808e-06
-8.57535e-06
-7.63195e-06
-6.81106e-06
-6.1497e-06
-5.60107e-06
-5.10017e-06
-4.63011e-06
-4.20551e-06
-3.82501e-06
-3.46117e-06
-3.09131e-06
-2.72451e-06
-2.39157e-06
-2.10984e-06
-1.8625e-06
-1.61467e-06
-1.34843e-06
-1.08277e-06
-8.61298e-07
-7.19715e-07
-6.59039e-07
-6.44673e-07
-6.29623e-07
-5.8333e-07
-5.07665e-07
-4.32219e-07
-3.95317e-07
-4.22758e-07
-5.15464e-07
-6.50395e-07
-7.91828e-07
-9.05261e-07
-9.67745e-07
-9.71649e-07
-9.22625e-07
-8.3455e-07
-7.24096e-07
-6.06599e-07
-4.93742e-07
-3.92891e-07
-3.07517e-07
-2.38181e-07
-1.83601e-07
-1.41588e-07
-1.09707e-07
-8.56773e-08
-6.75671e-08
0.000175348
-5.38431e-08
)
;
    }
}


// ************************************************************************* //
