/*--------------------------------*- C++ -*----------------------------------*\
  =========                 |
  \\      /  F ield         | OpenFOAM: The Open Source CFD Toolbox
   \\    /   O peration     | Website:  https://openfoam.org
    \\  /    A nd           | Version:  7
     \\/     M anipulation  |
\*---------------------------------------------------------------------------*/
FoamFile
{
    version     2.0;
    format      ascii;
    class       surfaceScalarField;
    location    "98.000784";
    object      phi;
}
// * * * * * * * * * * * * * * * * * * * * * * * * * * * * * * * * * * * * * //

dimensions      [0 3 -1 0 0 0 0];

internalField   nonuniform List<scalar> 
11413
(
-0.000350853
0.000260362
-0.000411101
0.000276536
-0.000475481
0.000291186
-0.000543878
0.000302551
-0.000616063
0.00030793
-0.000691642
0.000303561
-0.000770054
0.000284495
-0.000850896
0.000244868
0.000178128
-3.41606e-06
2.3544e-05
-1.29535e-05
6.49296e-05
-2.84128e-05
0.000103676
-4.9553e-05
0.00013928
-7.60906e-05
0.000171456
-0.000107717
0.000200262
-0.000144119
0.000226093
-0.000185005
0.000249613
-0.000230124
0.000271605
-0.000279282
0.000292757
-0.000332344
0.000313425
-0.000389224
0.000333416
-0.000449845
0.000351807
-0.000514094
0.0003668
-0.000581758
0.000375594
-0.000652465
0.000374269
-0.000725608
0.000357637
-0.000800524
0.000319783
0.000255524
-3.09296e-06
2.6637e-05
-1.18017e-05
7.36384e-05
-2.60002e-05
0.000117875
-4.55042e-05
0.000158784
-7.00672e-05
0.000196019
-9.93942e-05
0.000229589
-0.00013316
0.000259859
-0.000171033
0.000287486
-0.000212698
0.00031327
-0.000257877
0.000337935
-0.000306334
0.000361882
-0.000357873
0.000384956
-0.000412312
0.000406245
-0.000469428
0.000423917
-0.000528893
0.000435059
-0.000590204
0.00043558
-0.000652496
0.00041993
-0.000714318
0.000381605
0.000318278
-2.71976e-06
2.93568e-05
-1.04616e-05
8.13802e-05
-2.31709e-05
0.000130584
-4.07146e-05
0.000176328
-6.28741e-05
0.000218179
-8.93547e-05
0.000256069
-0.0001198
0.000290304
-0.000153815
0.0003215
-0.000190984
0.000350439
-0.000230897
0.000377848
-0.000273159
0.000404144
-0.000317386
0.000429183
-0.000363186
0.000452045
-0.000410108
0.000470838
-0.000457556
0.000482507
-0.00050472
0.000482744
-0.000550349
0.000465559
-0.000591453
0.000422709
0.0003578
-2.31015e-06
3.16669e-05
-8.97882e-06
8.80489e-05
-2.00152e-05
0.00014162
-3.53265e-05
0.000191639
-5.47096e-05
0.000237562
-7.78538e-05
0.000279214
-0.000104352
0.000316803
-0.000133719
0.000350866
-0.000165405
0.000382125
-0.000198821
0.000411265
-0.000233348
0.00043867
-0.000268328
0.000464163
-0.000303051
0.000486768
-0.000336697
0.000504484
-0.000368231
0.000514042
-0.000396324
0.000510837
-0.000419354
0.000488589
-0.000431783
0.000435138
0.000364905
-1.87997e-06
3.35469e-05
-7.4068e-06
9.35757e-05
-1.66393e-05
0.000150853
-2.95094e-05
0.000204509
-4.58121e-05
0.000253864
-6.52027e-05
0.000298604
-8.72024e-05
0.000338803
-0.000111208
0.000374871
-0.000136503
0.00040742
-0.000162272
0.000437035
-0.000187605
0.000464004
-0.000211487
0.000488045
-0.000232768
0.000508049
-0.00025011
0.000521826
-0.000261854
0.000525787
-0.000265836
0.000514818
-0.000260216
0.000482968
-0.000236392
0.000411314
-0.000199397
0.00032791
0.000124097
-1.44647e-06
3.49934e-05
-5.80406e-06
9.79333e-05
-1.31608e-05
0.00015821
-2.34522e-05
0.000214801
-3.64504e-05
0.000266863
-5.17554e-05
0.000313909
-6.87939e-05
0.000355841
-8.68187e-05
0.000392896
-0.000104913
0.000425514
-0.000121988
0.00045411
-0.000136783
0.000478798
-0.000147834
0.000499096
-0.000153435
0.00051365
-0.000151568
0.000519959
-0.000139791
0.00051401
-0.000114755
0.000489782
-7.32533e-05
0.000441466
-1.05965e-05
0.000348657
8.58453e-05
0.000231468
-1.7587e-05
-1.02737e-06
3.60207e-05
-4.23111e-06
0.000101137
-9.702e-06
0.00016368
-1.73532e-05
0.000222452
-2.6909e-05
0.000276418
-3.78901e-05
0.00032489
-4.96041e-05
0.000367555
-6.11336e-05
0.000404426
-7.13261e-05
0.000435706
-7.87791e-05
0.000461563
-8.18161e-05
0.000481835
-7.84434e-05
0.000495724
-6.62805e-05
0.000501487
-4.24571e-05
0.000496135
-3.46054e-06
0.000475014
5.48452e-05
0.000431476
0.000138218
0.000358094
0.000255896
0.00023098
0.000405901
8.14634e-05
-0.000243075
-6.39793e-07
3.66605e-05
-2.74685e-06
0.000103244
-6.38275e-06
0.000167316
-1.14079e-05
0.000227477
-1.74704e-05
0.000282481
-2.39839e-05
0.000331404
-3.01112e-05
0.000373682
-3.47358e-05
0.00040905
-3.6436e-05
0.000437407
-3.34502e-05
0.000458577
-2.36285e-05
0.000472013
-4.36263e-06
0.000476458
2.75165e-05
0.000469608
7.58731e-05
0.000447779
0.00014541
0.000405477
0.000242403
0.000334483
0.000372408
0.000228089
0.00055086
5.2527e-05
0.000769118
-0.000136794
-0.000561296
-2.99276e-07
3.69598e-05
-1.40456e-06
0.000104349
-3.31163e-06
0.000169223
-5.79427e-06
0.00022996
-8.39373e-06
0.00028508
-1.03826e-05
0.000333393
-1.07529e-05
0.000374053
-8.15574e-06
0.000406453
-8.62774e-07
0.000430114
1.32948e-05
0.00044442
3.70045e-05
0.000448304
7.35767e-05
0.000439886
0.000127089
0.000416095
0.000202568
0.000372299
0.000306145
0.0003019
0.000445932
0.000194697
0.000629436
4.45841e-05
0.000875106
-0.000193143
0.00117266
-0.000434344
-0.00098198
0.00159334
-2.18266e-08
3.69816e-05
-2.47365e-07
0.000104575
-5.75918e-07
0.000169552
-6.54301e-07
0.000230038
1.24951e-07
0.000284301
2.63619e-06
0.000330882
8.12219e-06
0.000368567
1.81958e-05
0.000396379
3.49361e-05
0.000413374
6.09772e-05
0.000418379
9.96214e-05
0.000409659
0.000154985
0.000384522
0.000232186
0.000338894
0.000337592
0.000266894
0.00047895
0.000160541
0.000666204
7.44269e-06
0.000909965
-0.000199177
0.00122906
-0.000512241
0.0016159
-0.000821184
-0.00151205
0.00214597
1.94893e-07
3.67867e-05
6.94913e-07
0.000104075
1.76114e-06
0.000168486
3.90616e-06
0.000227893
7.91376e-06
0.000280293
1.48912e-05
0.000323904
2.63098e-05
0.000357148
4.41051e-05
0.000378584
7.07703e-05
0.000386708
0.000109483
0.000379666
0.000164263
0.00035488
0.000240162
0.000308623
0.000343502
0.000235554
0.000482168
0.000128228
0.000665734
-2.30249e-05
0.000905766
-0.000232589
0.00121687
-0.000510282
0.00161494
-0.000910305
0.00209888
-0.00130513
-0.00215086
0.00273769
3.3316e-07
3.64536e-05
1.4122e-06
0.000102996
3.68414e-06
0.000166214
7.8687e-06
0.000223709
1.49756e-05
0.000273187
2.63623e-05
0.000312517
4.38098e-05
0.000339701
6.96347e-05
0.000352759
0.000106825
0.000349518
0.000159208
0.000327283
0.000231654
0.000282433
0.00033032
0.000209958
0.000462912
0.000102961
0.000638993
-4.78526e-05
0.000870183
-0.000254215
0.00116895
-0.000531355
0.00155394
-0.000895271
0.00203503
-0.00139139
0.00261913
-0.00188923
-0.00288466
0.00335293
4.03665e-07
3.60499e-05
1.91612e-06
0.000101483
5.21979e-06
0.00016291
1.12833e-05
0.000217645
2.13881e-05
0.000263082
3.72006e-05
0.000296705
6.08747e-05
0.000316026
9.51948e-05
0.000318439
0.000143754
0.000300959
0.000211168
0.000259868
0.000303332
0.000190269
0.000427693
8.55973e-05
0.000593515
-6.28612e-05
0.000812079
-0.000266416
0.00109689
-0.000539028
0.00146077
-0.000895233
0.00192355
-0.00135806
0.00248776
-0.0019556
0.00316623
-0.0025677
-0.0036835
0.00396507
4.14486e-07
3.56354e-05
2.24266e-06
9.96552e-05
6.44749e-06
0.000158705
1.42928e-05
0.0002098
2.73852e-05
0.000249989
4.77665e-05
0.000276324
7.80481e-05
0.000285745
0.000121593
0.000274895
0.000182738
0.000239814
0.000267061
0.000175546
0.000381666
7.56639e-05
0.000535461
-6.8198e-05
0.000739332
-0.000266732
0.00100604
-0.000533122
0.00135012
-0.00088311
0.00178404
-0.00132915
0.00232336
-0.00189738
0.00296298
-0.00259521
0.00371646
-0.00332119
-0.00450377
0.00453673
3.82039e-07
3.52534e-05
2.45293e-06
9.75843e-05
7.50106e-06
0.000153657
1.71349e-05
0.000200166
3.33477e-05
0.000233777
5.86367e-05
0.000251035
9.61753e-05
0.000248206
0.000150039
0.000221031
0.000225473
0.00016438
0.000329198
7.18208e-05
0.00046969
-6.48279e-05
0.000657371
-0.000255879
0.000904539
-0.000513901
0.00122475
-0.00085333
0.0016317
-0.00129007
0.002136
-0.00183345
0.00274279
-0.00250417
0.00343917
-0.0032916
0.00423251
-0.00411452
-0.00529752
0.00502626
3.29632e-07
3.49237e-05
2.63193e-06
9.5282e-05
8.56513e-06
0.000147724
2.01359e-05
0.000188595
3.97948e-05
0.000214118
7.05885e-05
0.000220241
0.000116375
0.00020242
0.000182092
0.000155314
0.000274065
7.24066e-05
0.000400303
-5.44175e-05
0.000570707
-0.000235232
0.000797019
-0.00048219
0.00109228
-0.000809161
0.00146946
-0.00123051
0.00193872
-0.00175933
0.00250576
-0.00240048
0.00316132
-0.00315974
0.00388499
-0.00401526
0.00467138
-0.00490092
-0.00602308
0.00539694
2.86188e-07
3.46376e-05
2.88411e-06
9.26841e-05
9.8657e-06
0.000140742
2.3694e-05
0.000174767
4.7356e-05
0.000190456
8.45538e-05
0.000183043
0.000139962
0.000147012
0.000219533
7.57425e-05
0.000330804
-3.88646e-05
0.000483126
-0.000206739
0.000687652
-0.000439758
0.000956852
-0.00075139
0.00130321
-0.00115552
0.00173691
-0.00166421
0.00226164
-0.00228406
0.00287416
-0.003013
0.00355076
-0.00383634
0.0042655
-0.00473
0.00499803
-0.00563344
-0.00665648
0.00563143
2.84133e-07
3.43534e-05
3.32606e-06
8.96422e-05
1.16546e-05
0.000132414
2.8251e-05
0.00015817
5.67246e-05
0.000161982
0.000101544
0.000138223
0.000168326
8.02307e-05
0.000264161
-2.00925e-05
0.000397844
-0.000172547
0.000579926
-0.000388822
0.000822308
-0.000682141
0.00113706
-0.00106614
0.00153416
-0.00155261
0.00201825
-0.0021483
0.00258404
-0.00284986
0.00321654
-0.0036455
0.00388183
-0.00450162
0.00455186
-0.00540003
0.00519588
-0.00627747
-0.00719257
0.00573197
3.56558e-07
3.39969e-05
4.07721e-06
8.59215e-05
1.41894e-05
0.000122302
3.42559e-05
0.000138104
6.85954e-05
0.000127643
0.000122551
8.42683e-05
0.00020277
1.10914e-08
0.000317544
-0.000134866
0.000476806
-0.00033181
0.000691899
-0.000603914
0.000974521
-0.000964763
0.00133467
-0.00142629
0.00177744
-0.00199538
0.00229931
-0.00267017
0.00288488
-0.00343543
0.00350804
-0.00426866
0.00413217
-0.00512575
0.00472979
-0.00599765
0.00526689
-0.00681458
-0.00765125
0.00572558
5.34492e-07
3.34624e-05
5.24982e-06
8.12062e-05
1.7711e-05
0.00010984
4.2124e-05
0.000113691
8.3596e-05
8.61707e-05
0.000148416
1.94486e-05
0.000244355
-9.59279e-05
0.000380751
-0.000271262
0.000568402
-0.000519461
0.00081866
-0.000854173
0.00114162
-0.00128773
0.00154316
-0.00182783
0.00202118
-0.00247341
0.00256258
-0.00321157
0.0031429
-0.00401575
0.00372961
-0.00485537
0.00429108
-0.00568723
0.00480434
-0.0065109
0.00524765
-0.00725788
-0.00804587
0.00564227
8.44404e-07
3.2618e-05
6.93947e-06
7.51111e-05
2.24231e-05
9.43568e-05
5.21995e-05
8.39146e-05
0.000102226
3.61436e-05
0.000179786
-5.81106e-05
0.000293676
-0.000209819
0.000454116
-0.000431701
0.000672117
-0.000737462
0.000957914
-0.00113997
0.00131826
-0.00164807
0.00175283
-0.0022624
0.00225094
-0.00297151
0.00279052
-0.00375115
0.00334158
-0.00456681
0.00387218
-0.00538596
0.00436005
-0.0061751
0.00478906
-0.00693992
0.00516958
-0.0076384
-0.00838493
0.00550863
1.30605e-06
3.13119e-05
9.21784e-06
6.71993e-05
2.84753e-05
7.50993e-05
6.4723e-05
4.76669e-05
0.000124799
-2.39327e-05
0.000216948
-0.000150259
0.000350833
-0.000343704
0.000537086
-0.000617955
0.00078605
-0.000986426
0.0011054
-0.00145932
0.00149672
-0.00203939
0.00195204
-0.00271772
0.0024522
-0.00347168
0.00296914
-0.00426808
0.0034725
-0.00507018
0.00393699
-0.00585045
0.00435071
-0.00658882
0.0047108
-0.00730001
0.00503277
-0.00796036
-0.00867383
0.00532166
1.93158e-06
2.93803e-05
1.2129e-05
5.70019e-05
3.5955e-05
5.12733e-05
7.98147e-05
3.80728e-06
0.000151412
-9.55301e-05
0.000259837
-0.000258684
0.000415295
-0.000499162
0.000628151
-0.00083081
0.000906924
-0.0012652
0.00125516
-0.00180755
0.00166781
-0.00245205
0.00212898
-0.00317889
0.00261313
-0.00395583
0.00309059
-0.00474554
0.00353577
-0.00551535
0.00393298
-0.00624767
0.00428083
-0.00693667
0.00458455
-0.00760373
0.00486248
-0.00823829
-0.00893287
0.00512152
2.72609e-06
2.66542e-05
1.56899e-05
4.40382e-05
4.48856e-05
2.20776e-05
9.74702e-05
-4.87773e-05
0.000181938
-0.000179998
0.000308002
-0.000384747
0.000485915
-0.000677076
0.000724878
-0.00106977
0.00103028
-0.0015706
0.00140011
-0.00217739
0.00182211
-0.00287404
0.00227369
-0.00363047
0.00272646
-0.0044086
0.00315377
-0.00517284
0.00353799
-0.00589958
0.0038734
-0.00658307
0.00416622
-0.00722949
0.0044264
-0.00786391
0.00467181
-0.00848371
-0.00916758
0.00490652
3.68897e-06
2.29653e-05
1.98938e-05
2.78333e-05
5.5232e-05
-1.32607e-05
0.000117565
-0.00011111
0.000216031
-0.000278464
0.000360617
-0.000529333
0.000560961
-0.00087742
0.000824043
-0.00133286
0.00115083
-0.00189738
0.00153292
-0.00255948
0.00195133
-0.00329245
0.00237948
-0.00405863
0.00279016
-0.00481928
0.00316304
-0.00554573
0.00348944
-0.00622597
0.00377171
-0.00686535
0.00402062
-0.00747839
0.00424751
-0.00809079
0.00446781
-0.00870401
-0.00938313
0.00468337
4.81566e-06
1.81496e-05
2.47149e-05
7.93415e-06
6.69072e-05
-5.5453e-05
0.000139865
-0.000184068
0.000253137
-0.000391736
0.000416512
-0.000692709
0.000638197
-0.00109911
0.000921846
-0.0016165
0.00126301
-0.00223855
0.00164685
-0.00294332
0.00204946
-0.00369506
0.00244364
-0.00445281
0.00280667
-0.00518231
0.00312612
-0.00586518
0.00340122
-0.00650108
0.00363978
-0.00710391
0.00385426
-0.00769287
0.00405535
-0.00829189
0.00425553
-0.00890419
-0.00958224
0.00445463
6.09905e-06
1.20506e-05
3.01116e-05
-1.60784e-05
7.97788e-05
-0.00010512
0.000164034
-0.000268323
0.000292513
-0.000520215
0.000474209
-0.000874405
0.000714998
-0.00133989
0.00101421
-0.00191572
0.00136154
-0.00258588
0.00173666
-0.00331844
0.00211338
-0.00407178
0.00246706
-0.00480648
0.00278149
-0.00549674
0.00305193
-0.00613562
0.00328354
-0.00673269
0.00348696
-0.00730733
0.00367433
-0.00788024
0.00385473
-0.00847228
0.00403766
-0.00908712
-0.00976614
0.00422157
7.5301e-06
4.52047e-06
3.60285e-05
-4.45768e-05
9.36718e-05
-0.000162764
0.000189641
-0.000364292
0.000333242
-0.000663816
0.000531982
-0.00107314
0.00078851
-0.00159642
0.00109714
-0.00222435
0.001442
-0.00293073
0.0017991
-0.00367554
0.0021428
-0.00441548
0.00245333
-0.00511701
0.00272157
-0.00576499
0.00294912
-0.00636317
0.00314483
-0.0069284
0.0033201
-0.0074826
0.00348563
-0.00804578
0.00364854
-0.00863519
0.00381582
-0.00925441
-0.00993546
0.00398514
9.09745e-06
-4.57698e-06
4.23959e-05
-7.78753e-05
0.000108368
-0.000228735
0.000216163
-0.000472087
0.000374257
-0.00082191
0.000587932
-0.00128682
0.000855851
-0.00186434
0.00116711
-0.00253561
0.00150128
-0.0032649
0.00183304
-0.0040073
0.00213971
-0.00472215
0.00240761
-0.0053849
0.00263405
-0.00599143
0.00282518
-0.0065543
0.00299156
-0.00709478
0.00314398
-0.00763502
0.00329123
-0.00819302
0.00343855
-0.00878252
0.00359098
-0.00940684
-0.0100903
0.00374585
1.07867e-05
-1.53637e-05
4.91269e-05
-0.000116215
0.000123603
-0.000303212
0.000242989
-0.000591473
0.000414369
-0.000993289
0.000640093
-0.00151254
0.000914341
-0.00213859
0.00122135
-0.00284262
0.00153778
-0.00358133
0.00183925
-0.00430876
0.00210769
-0.0049906
0.00233559
-0.0056128
0.00252545
-0.00618129
0.00268615
-0.006715
0.00282848
-0.0072371
0.00296183
-0.00776837
0.00309303
-0.00832422
0.00322582
-0.0089153
0.00336373
-0.00954474
-0.0102307
0.00350411
1.25793e-05
-2.7943e-05
5.61153e-05
-0.000159752
0.000139068
-0.000386164
0.000269434
-0.000721839
0.00045232
-0.00117618
0.000686556
-0.00174678
0.00096172
-0.00241375
0.00125812
-0.00313902
0.00155137
-0.00387459
0.00181991
-0.0045773
0.00205106
-0.00522175
0.00224279
-0.00580453
0.00240129
-0.0063398
0.00253666
-0.00685036
0.00265889
-0.00735934
0.00277574
-0.00788522
0.00289225
-0.00844074
0.00301102
-0.00903407
0.0031345
-0.00966822
-0.0103564
0.00326023
1.44507e-05
-4.23936e-05
6.3234e-05
-0.000208535
0.000154409
-0.000477339
0.000294755
-0.000862185
0.000486849
-0.00136827
0.000725612
-0.00198554
0.000996328
-0.00268447
0.00127668
-0.00341938
0.00154311
-0.00414101
0.00177809
-0.00481228
0.0019743
-0.00541796
0.00213413
-0.00596435
0.00226601
-0.00647168
0.00238009
-0.00696444
0.00248509
-0.00746434
0.00258707
-0.0079872
0.00268967
-0.00854334
0.00279463
-0.00913903
0.00290364
-0.00977723
-0.0104673
0.00301453
1.63704e-05
-5.87641e-05
7.03354e-05
-0.0002625
0.000169239
-0.000576243
0.000318192
-0.00101114
0.000516772
-0.00156685
0.000755875
-0.00222465
0.0010172
-0.0029458
0.00127732
-0.0036795
0.00151497
-0.00437866
0.00171725
-0.00501457
0.00188164
-0.00558235
0.00201374
-0.00609645
0.002123
-0.00658094
0.00221888
-0.00706032
0.0023086
-0.00755406
0.00239673
-0.00807533
0.00248581
-0.00863242
0.002577
-0.00923022
0.00267145
-0.00987168
-0.0105632
0.0027673
1.83022e-05
-7.70662e-05
7.72555e-05
-0.000321453
0.000183153
-0.000682141
0.000339003
-0.00116699
0.000541056
-0.0017689
0.000776374
-0.00245996
0.00102407
-0.00319349
0.00126106
-0.00391649
0.0014694
-0.004587
0.00164085
-0.00518601
0.00177682
-0.00571832
0.00188495
-0.00620458
0.00197482
-0.00667081
0.00205475
-0.00714024
0.00213047
-0.00762978
0.00220534
-0.0081502
0.00228108
-0.00870815
0.00235846
-0.0093076
0.00243823
-0.00995145
-0.0106438
0.00251884
2.02047e-05
-9.72709e-05
8.38196e-05
-0.000385068
0.000195743
-0.000794063
0.000356507
-0.00132775
0.000558892
-0.00197129
0.000786597
-0.00268767
0.0010173
-0.00342419
0.00122949
-0.00412868
0.0014091
-0.00476661
0.00155213
-0.00532905
0.00166299
-0.00582917
0.00175037
-0.00629197
0.00182333
-0.00674377
0.00188887
-0.00720579
0.00195142
-0.00769233
0.00201335
-0.00821213
0.0020758
-0.0087706
0.00213929
-0.00937109
0.00220428
-0.0100164
-0.010709
0.00226946
2.20332e-05
-0.000119304
8.98498e-05
-0.000452885
0.000206625
-0.000910838
0.000370131
-0.00149126
0.000569737
-0.00217089
0.000786475
-0.00290441
0.000997739
-0.00363546
0.00118451
-0.00431546
0.0013367
-0.0049188
0.00145395
-0.0054463
0.00154272
-0.00591794
0.00161198
-0.00636123
0.00166987
-0.00680167
0.00172211
-0.00725802
0.00177197
-0.0077422
0.00182111
-0.00826127
0.00187026
-0.00881975
0.00191977
-0.0094206
0.00196987
-0.0100665
-0.0107586
0.0020195
2.37413e-05
-0.000143045
9.51735e-05
-0.000524317
0.000215457
-0.00103112
0.000379435
-0.00165524
0.000573328
-0.00236479
0.000776337
-0.00310742
0.000966601
-0.00382572
0.00112816
-0.00447701
0.0012547
-0.00504533
0.00134877
-0.00554037
0.00141805
-0.00598722
0.00147126
-0.00641444
0.00151543
-0.00684583
0.00155505
-0.00729765
0.00159252
-0.00777967
0.00162893
-0.00829768
0.00166475
-0.00885556
0.00170019
-0.00945604
0.00173531
-0.0101017
-0.0107926
0.00176926
2.52832e-05
-0.000168329
9.96324e-05
-0.000598666
0.000221957
-0.00115345
0.000384138
-0.00181742
0.000569678
-0.00255033
0.000756827
-0.00329456
0.000925295
-0.00399419
0.00106242
-0.00461414
0.00116528
-0.00514819
0.00123859
-0.00561367
0.00129058
-0.00603921
0.00132932
-0.00645318
0.0013607
-0.00687721
0.00138817
-0.00732511
0.00141339
-0.00780489
0.00143709
-0.00832138
0.00145952
-0.008878
0.00148082
-0.00947733
0.00150091
-0.0101218
-0.0108108
0.00151911
2.66155e-05
-0.000194944
0.000103089
-0.00067514
0.000225917
-0.00127627
0.000384117
-0.00197562
0.000559036
-0.00272524
0.00072881
-0.00346434
0.000875319
-0.0041407
0.000989193
-0.00472801
0.00107037
-0.00522937
0.00112506
-0.00566836
0.00116154
-0.00607569
0.00118699
-0.00647864
0.00120623
-0.00689645
0.00122181
-0.00734069
0.00123487
-0.00781796
0.00124584
-0.00833235
0.00125485
-0.00888701
0.00126196
-0.00948444
0.00126697
-0.0101268
-0.0108132
0.0012694
2.76992e-05
-0.000222643
0.000105434
-0.000752874
0.000227209
-0.00139805
0.000379405
-0.00212781
0.000541846
-0.00288769
0.000693292
-0.00361579
0.000818156
-0.00426556
0.000910168
-0.00482003
0.000971581
-0.00529079
0.00100949
-0.00570628
0.00103185
-0.00609804
0.00104488
-0.00649167
0.00105241
-0.00690397
0.00105627
-0.00734455
0.0010572
-0.00781889
0.00105543
-0.00833057
0.00105099
-0.00888257
0.00104386
-0.00947731
0.00103383
-0.0101167
-0.0107999
0.00102051
2.85011e-05
-0.000251144
0.000106587
-0.00083096
0.000225784
-0.00151725
0.000370171
-0.0022722
0.000518694
-0.00303621
0.000651339
-0.00374843
0.000755215
-0.00436944
0.00082684
-0.00489165
0.000870234
-0.00533418
0.000892912
-0.00572895
0.000902235
-0.00610737
0.000903473
-0.00649291
0.00089957
-0.00690006
0.000891817
-0.0073368
0.000880641
-0.00780772
0.000866111
-0.00831604
0.00084818
-0.00886464
0.000826786
-0.00945592
0.000801755
-0.0100917
-0.0107708
0.000772654
2.89953e-05
-0.00028014
0.000106504
-0.000908469
0.000221673
-0.00163242
0.000356694
-0.00240722
0.000490255
-0.00316977
0.000604015
-0.00386219
0.000687783
-0.0044532
0.000740487
-0.00494436
0.000767415
-0.00536111
0.000776122
-0.00573766
0.000773242
-0.00610449
0.000763126
-0.0064828
0.000747991
-0.00688493
0.000728685
-0.0073175
0.000705414
-0.00778444
0.000678128
-0.00828876
0.000646698
-0.00883321
0.000610997
-0.00942022
0.000570901
-0.0100516
-0.010726
0.000526102
2.91633e-05
-0.000309303
0.000105172
-0.000984478
0.000214974
-0.00174222
0.000339337
-0.00253158
0.000457249
-0.00328768
0.000552343
-0.00395728
0.000617011
-0.00451787
0.000652188
-0.00497953
0.000663995
-0.00537292
0.000659753
-0.00573342
0.000645295
-0.00609003
0.00062414
-0.00646164
0.000597904
-0.00685869
0.000567098
-0.00728669
0.000531752
-0.0077491
0.000491727
-0.00824873
0.000446824
-0.00878831
0.00039687
-0.00937026
0.000341473
-0.00999622
-0.0106653
0.000280795
2.89949e-05
-0.000338298
0.000102609
-0.00105809
0.000205841
-0.00184545
0.000318518
-0.00264426
0.000420404
-0.00338957
0.000497273
-0.00403415
0.000543901
-0.0045645
0.000562837
-0.00499847
0.00056067
-0.00537075
0.000544292
-0.00571704
0.000518729
-0.00606447
0.000486764
-0.00642968
0.000449524
-0.00682145
0.000407266
-0.00724443
0.000359882
-0.00770171
0.000307137
-0.00819599
0.000248797
-0.00872997
0.000184741
-0.00930621
0.00011447
-0.00992595
-0.0105862
3.5423e-05
2.84879e-05
-0.000366786
9.88605e-05
-0.00112847
0.000194474
-0.00194106
0.000294689
-0.00274447
0.000380427
-0.00347531
0.000439664
-0.00409339
0.000469314
-0.00459415
0.000473169
-0.00500232
0.000457993
-0.00535557
0.000430125
-0.00568917
0.000393814
-0.00602816
0.000351212
-0.00638707
0.000303051
-0.00677329
0.000249385
-0.00719076
0.000190021
-0.00764235
0.000124571
-0.00813053
5.27302e-05
-0.00865813
-2.57182e-05
-0.00922776
-0.000110097
-0.00984157
-0.0104921
-0.000204218
2.76473e-05
-0.000394433
9.39953e-05
-0.00119481
0.000181102
-0.00202817
0.000268307
-0.00283168
0.000337982
-0.00354498
0.00038028
-0.00413569
0.000393977
-0.00460785
0.000383782
-0.00499213
0.000356403
-0.00532819
0.000317556
-0.00565032
0.000270776
-0.00598138
0.000217665
-0.00633396
0.000158675
-0.0067143
9.35926e-05
-0.00712568
2.21623e-05
-0.00757092
-5.56999e-05
-0.00805267
-0.000140585
-0.00857324
-0.000232578
-0.00913576
-0.000332962
-0.00974119
-0.0103838
-0.000441276
2.64847e-05
-0.000420918
8.81008e-05
-0.00125643
0.000165974
-0.00210604
0.000239827
-0.00290553
0.000293682
-0.00359884
0.000319785
-0.00416179
0.000318497
-0.00460656
0.000295155
-0.00496879
0.000256246
-0.00528929
0.000206835
-0.00560091
0.000149806
-0.00592435
8.62511e-05
-0.00627041
1.63278e-05
-0.00664438
-5.9815e-05
-0.00704954
-0.000142806
-0.00748793
-0.000233218
-0.00796226
-0.000331272
-0.00847519
-0.000437329
-0.00902971
-0.000552349
-0.00962617
-0.0102603
-0.00067587
2.50174e-05
-0.000445935
8.12772e-05
-0.00131269
0.000149345
-0.00217411
0.000209678
-0.00296587
0.000248081
-0.00363724
0.000258754
-0.00417247
0.00024338
-0.00459119
0.000207679
-0.00493309
0.000157793
-0.0052394
9.81649e-05
-0.00554129
3.09421e-05
-0.00585712
-4.28033e-05
-0.00619666
-0.000123097
-0.00656409
-0.000210495
-0.00696214
-0.000305298
-0.00739313
-0.000408054
-0.0078595
-0.000519168
-0.00836407
-0.000639127
-0.00890975
-0.00076854
-0.00949675
-0.0101216
-0.000907235
2.32671e-05
-0.000469202
7.3634e-05
-0.00136306
0.000131471
-0.00223195
0.000178266
-0.00301266
0.00020167
-0.00366064
0.000197678
-0.00416847
0.000169042
-0.00456255
0.00012167
-0.00488571
6.12377e-05
-0.00517897
-8.5276e-06
-0.00547152
-8.53193e-05
-0.00578033
-0.000169152
-0.00611283
-0.000260097
-0.00647314
-0.000358547
-0.00686369
-0.000464976
-0.0072867
-0.000579936
-0.00774454
-0.000703958
-0.00824005
-0.000837602
-0.00877611
-0.000981307
-0.00935305
-0.00996785
-0.00113504
2.12594e-05
-0.000490462
6.52853e-05
-0.00140708
0.0001126
-0.00227926
0.000145964
-0.00304603
0.000154881
-0.00366956
0.000136966
-0.00415056
9.58204e-05
-0.0045214
3.73596e-05
-0.00482725
-3.31577e-05
-0.00510845
-0.000112322
-0.00539236
-0.000199054
-0.0056936
-0.000292958
-0.00601892
-0.000394362
-0.00637174
-0.000503731
-0.00675432
-0.000621619
-0.00716881
-0.000748628
-0.00761754
-0.000885386
-0.00810329
-0.00103252
-0.00862897
-0.0011904
-0.00919517
-0.00979934
-0.00135891
1.90232e-05
-0.000509485
5.63472e-05
-0.00144441
9.2972e-05
-0.00231589
0.000113112
-0.00306617
0.00010809
-0.00366454
7.69658e-05
-0.00411943
2.40052e-05
-0.00446844
-4.49813e-05
-0.00475827
-0.000125159
-0.00502827
-0.000213885
-0.00530363
-0.000310191
-0.00559729
-0.000414007
-0.00591511
-0.000525719
-0.00626002
-0.000645861
-0.00663418
-0.00077504
-0.00703963
-0.000913917
-0.00747866
-0.0010632
-0.00795401
-0.00122363
-0.00846855
-0.00139553
-0.00902327
-0.00961629
-0.00157858
1.65907e-05
-0.000526075
4.69345e-05
-0.00147475
7.2813e-05
-0.00234176
8.00172e-05
-0.00307337
6.16221e-05
-0.00364614
1.80414e-05
-0.00407585
-4.61743e-05
-0.00440423
-0.000125215
-0.00467923
-0.000214847
-0.00493864
-0.00031286
-0.00520562
-0.000418584
-0.00549157
-0.000532151
-0.00580154
-0.000654018
-0.00613816
-0.000784769
-0.00650343
-0.000925056
-0.00689934
-0.0010756
-0.00732812
-0.00123719
-0.00779242
-0.00141067
-0.00829506
-0.0015964
-0.00883753
-0.00941896
-0.00179373
1.39994e-05
-0.000540075
3.71612e-05
-0.00149791
5.23354e-05
-0.00235694
4.69557e-05
-0.00306799
1.59363e-05
-0.00361512
-3.97549e-05
-0.00402016
-0.000114589
-0.00432939
-0.000203271
-0.00459054
-0.000302049
-0.00483986
-0.000409132
-0.00509854
-0.000524114
-0.00537659
-0.000647267
-0.00567839
-0.000779117
-0.00600631
-0.000920294
-0.00636225
-0.00107149
-0.00674815
-0.00123347
-0.00716614
-0.00140712
-0.00761877
-0.00159342
-0.00810876
-0.00179278
-0.00863818
-0.00920765
-0.00200409
1.13086e-05
-0.000551383
2.7155e-05
-0.00151376
3.17328e-05
-0.00236152
1.43449e-05
-0.0030506
-2.92709e-05
-0.00357151
-9.61509e-05
-0.00395328
-0.000181081
-0.00424446
-0.000279017
-0.00449261
-0.000386663
-0.00473221
-0.000502609
-0.00498259
-0.000626671
-0.00525253
-0.000759231
-0.00554583
-0.000900878
-0.00586466
-0.00105228
-0.00621085
-0.00121418
-0.00658625
-0.00138736
-0.00699295
-0.00157279
-0.00743334
-0.00177165
-0.0079099
-0.00198439
-0.00842543
-0.00898275
-0.00220929
8.53915e-06
-0.000559923
1.70095e-05
-0.00152223
1.12795e-05
-0.00235579
-1.82151e-05
-0.00302111
-7.34877e-05
-0.00351624
-0.000150995
-0.00387578
-0.000245528
-0.00414993
-0.000352354
-0.00438578
-0.000468606
-0.00461596
-0.000593204
-0.00485799
-0.000726153
-0.00511958
-0.000867927
-0.00540405
-0.00101917
-0.00571342
-0.00118059
-0.00604943
-0.00135295
-0.00641389
-0.00153708
-0.00680882
-0.00173401
-0.00723641
-0.00194512
-0.0076988
-0.00217095
-0.0081996
-0.00874466
-0.00240904
5.65459e-06
-0.000565577
6.76896e-06
-0.00152334
-9.22249e-06
-0.00233979
-5.03428e-05
-0.00297999
-0.000116538
-0.00345004
-0.000204142
-0.00378817
-0.000307828
-0.00404624
-0.000423202
-0.00427041
-0.000547801
-0.00449136
-0.000680835
-0.00472496
-0.000822464
-0.00497795
-0.000973242
-0.00525328
-0.00113386
-0.0055528
-0.00130506
-0.00587823
-0.00148764
-0.00623131
-0.00168245
-0.00661401
-0.00189059
-0.00702827
-0.00211358
-0.00747581
-0.00235218
-0.007961
-0.00849334
-0.0026035
2.61168e-06
-0.000568189
-3.43502e-06
-0.0015173
-2.98568e-05
-0.00231337
-8.16221e-05
-0.00292822
-0.000158295
-0.00337337
-0.000255483
-0.00369098
-0.000367896
-0.00393383
-0.000491492
-0.00414681
-0.00062418
-0.00435868
-0.000765422
-0.00458371
-0.000915511
-0.00482786
-0.00107507
-0.00509372
-0.00124482
-0.00538305
-0.00142556
-0.00569748
-0.00161811
-0.00603876
-0.00182336
-0.00640876
-0.00204243
-0.0068092
-0.0022769
-0.00724134
-0.0025279
-0.00771
-0.00822871
-0.00279253
-6.94367e-07
-0.000567495
-1.39298e-05
-0.00150406
-4.98725e-05
-0.00227743
-0.000112018
-0.00286608
-0.000198648
-0.00328674
-0.000304927
-0.00358471
-0.000425663
-0.00381309
-0.000557164
-0.00401531
-0.000697681
-0.00421816
-0.000846892
-0.0044345
-0.0010052
-0.00466955
-0.00117329
-0.00492564
-0.00135193
-0.00520441
-0.00154195
-0.00550746
-0.00174421
-0.0058365
-0.00195966
-0.00619332
-0.00218949
-0.00657936
-0.00243516
-0.00699567
-0.00269719
-0.00744797
-0.00795216
-0.00297374
-3.52137e-06
-0.000563973
-2.41018e-05
-0.00148348
-6.93673e-05
-0.00223216
-0.000141428
-0.00279402
-0.000237506
-0.00319066
-0.000352402
-0.00346981
-0.000481072
-0.00368442
-0.000620166
-0.00387622
-0.000768243
-0.00407008
-0.000925172
-0.00427758
-0.00109145
-0.00450327
-0.00126781
-0.00474928
-0.00145506
-0.00501716
-0.00165407
-0.00530845
-0.00186575
-0.00562482
-0.00209116
-0.00596791
-0.00233156
-0.00633896
-0.00258827
-0.00673896
-0.00286309
-0.00717315
-0.00767192
-0.00314333
-6.50014e-06
-0.000557473
-3.40381e-05
-0.00145594
-8.82872e-05
-0.00217792
-0.00016978
-0.00271252
-0.000274795
-0.00308564
-0.00039785
-0.00334675
-0.000534074
-0.0035482
-0.00068045
-0.00372984
-0.000835812
-0.00391472
-0.00100019
-0.00411319
-0.00117417
-0.00432929
-0.00135852
-0.00456493
-0.0015541
-0.00482158
-0.0017618
-0.00510075
-0.00198259
-0.00540402
-0.00221763
-0.00573288
-0.00246812
-0.00608846
-0.00273417
-0.00647292
-0.00301385
-0.00689346
-0.00735335
-0.00333242
-9.46193e-06
-0.000548011
-4.37188e-05
-0.00142169
-0.000106566
-0.00211507
-0.000197004
-0.00262209
-0.000310453
-0.00297219
-0.000441221
-0.00321599
-0.000584629
-0.00340479
-0.000737972
-0.0035765
-0.000900335
-0.00375236
-0.00107189
-0.00394164
-0.00125328
-0.0041479
-0.00144533
-0.00437288
-0.00164892
-0.00461799
-0.001865
-0.00488467
-0.0020946
-0.00517442
-0.00233884
-0.00548863
-0.00259864
-0.00582867
-0.00287408
-0.00619748
-0.00316791
-0.00659963
-0.00702971
-0.00349155
-1.23669e-05
-0.000535644
-5.31037e-05
-0.00138095
-0.000124145
-0.00204403
-0.000223036
-0.00252319
-0.000344429
-0.0028508
-0.000482474
-0.00307794
-0.0006327
-0.00325457