/*--------------------------------*- C++ -*----------------------------------*\
  =========                 |
  \\      /  F ield         | OpenFOAM: The Open Source CFD Toolbox
   \\    /   O peration     | Website:  https://openfoam.org
    \\  /    A nd           | Version:  7
     \\/     M anipulation  |
\*---------------------------------------------------------------------------*/
FoamFile
{
    version     2.0;
    format      ascii;
    class       volScalarField;
    location    "1.5";
    object      p;
}
// * * * * * * * * * * * * * * * * * * * * * * * * * * * * * * * * * * * * * //

dimensions      [1 -1 -2 0 0 0 0];

internalField   nonuniform List<scalar> 
197568
(
1
1
1
1
1
1
1
1
1
1
1
1
1
1
1
1
1
1
1
1
1
1
1
1
1
1
1
1
1
1
1
1
1
1
1
1
1
1
1
1
1
1
1
1
1
1
1
1
1
1
1
1
1
1
1
1
1
1
1
1
1
1
1
1
1
1
1
1
1
1
1
1
1
1
1
1
1
1
1
1
1
1
1
1
1
1
1
1
1
1
5.12095
10.3454
10.5894
10.6141
10.657
10.6899
10.7242
10.7548
10.7822
10.8054
10.8252
10.8449
10.8705
10.9054
10.9487
10.9957
11.0402
11.0774
11.1082
11.135
11.1655
11.2039
11.2457
11.285
11.3187
11.3458
11.3566
11.366
11.3757
11.3915
11.4218
11.4633
11.5132
11.5591
11.5916
11.6063
11.6069
11.6026
11.6013
11.6113
11.6358
11.667
11.6979
11.7214
11.7374
11.7541
11.7754
11.8005
11.8249
11.844
11.8587
11.8731
11.8917
11.9142
11.9342
11.9473
11.9543
11.9574
11.9602
11.9671
11.9778
11.9918
12.0078
12.0273
12.0516
12.0794
12.1059
12.122
12.1243
12.1208
12.1184
12.1222
12.1315
12.1417
12.1486
12.1512
12.1495
12.1467
1
1
1
1
1
1
1
1
1
1
1
1
1
1
1
1
1
1
1
1
1
1
1
1
1
1
1
1
1
1
1
1
1
1
1
1
1
1
1
1
1
1
1
1
1
1
1
1
1
1
1
1
1
1
1
1
1
1
1
1
1
1
1
1
1
1
1
1
1
1
1
1
1
1
1
1
1
1
1
1
1
1
1
1
1
1
1
1
1
1
5.08035
10.3416
10.5974
10.6241
10.6604
10.6896
10.7209
10.7507
10.7796
10.8054
10.8282
10.8496
10.8748
10.9074
10.9475
10.9915
11.0347
11.0728
11.1062
11.1358
11.1671
11.204
11.2438
11.2815
11.3144
11.3411
11.3536
11.3649
11.3762
11.3924
11.4226
11.4631
11.5111
11.5553
11.5869
11.6021
11.6044
11.6022
11.6024
11.6126
11.6364
11.6664
11.6966
11.7203
11.737
11.7543
11.7755
11.8002
11.8243
11.8434
11.8582
11.8723
11.8897
11.9108
11.9301
11.944
11.9528
11.9582
11.9629
11.9701
11.9803
11.9935
12.009
12.0282
12.0523
12.079
12.1033
12.1177
12.1201
12.1178
12.1167
12.1211
12.1302
12.1399
12.1471
12.1506
12.1503
12.1485
1
1
1
1
1
1
1
1
1
1
1
1
1
1
1
1
1
1
1
1
1
1
1
1
1
1
1
1
1
1
1
1
1
1
1
1
1
1
1
1
1
1
1
1
1
1
1
1
1
1
1
1
1
1
1
1
1
1
1
1
1
1
1
1
1
1
1
1
1
1
1
1
1
1
1
1
1
1
1
1
1
1
1
1
1
1
1
1
1
1
5.00651
10.3445
10.6001
10.6264
10.6587
10.6869
10.7164
10.7452
10.7747
10.8029
10.8289
10.8532
10.8792
10.91
10.9465
10.9868
11.0279
11.0665
11.1026
11.1356
11.1687
11.2049
11.2426
11.2779
11.3092
11.335
11.3492
11.3624
11.3755
11.3926
11.4229
11.4624
11.5084
11.5505
11.5809
11.5964
11.6005
11.6007
11.6025
11.613
11.6362
11.6651
11.6945
11.7187
11.7364
11.754
11.7749
11.7991
11.8228
11.8423
11.8573
11.8708
11.8864
11.9053
11.9239
11.939
11.9505
11.9594
11.9668
11.9742
11.9834
11.9951
12.0096
12.0284
12.052
12.078
12.1001
12.1128
12.116
12.1148
12.1143
12.1181
12.1262
12.1357
12.144
12.1497
12.1523
12.1526
1
1
1
1
1
1
1
1
1
1
1
1
1
1
1
1
1
1
1
1
1
1
1
1
1
1
1
1
1
1
1
1
1
1
1
1
1
1
1
1
1
1
1
1
1
1
1
1
1
1
1
1
1
1
1
1
1
1
1
1
1
1
1
1
1
1
1
1
1
1
1
1
1
1
1
1
1
1
1
1
1
1
1
1
1
1
1
1
1
1
4.92828
10.3215
10.601
10.6287
10.657
10.6829
10.7114
10.7404
10.7708
10.8009
10.8296
10.8563
10.8827
10.9119
10.9447
10.9816
11.0211
11.0603
11.0986
11.1349
11.1701
11.2059
11.2417
11.2747
11.3044
11.3294
11.3448
11.3592
11.3739
11.3916
11.4217
11.4601
11.504
11.5444
11.574
11.5901
11.5961
11.5988
11.6023
11.613
11.6355
11.6632
11.6922
11.7173
11.7361
11.7538
11.7736
11.7966
11.8198
11.8398
11.8555
11.8686
11.8821
11.8984
11.9156
11.9321
11.9472
11.9608
11.9717
11.9798
11.988
11.9978
12.0109
12.0286
12.051
12.0752
12.0947
12.1054
12.1095
12.11
12.1108
12.1146
12.1217
12.1307
12.14
12.148
12.1538
12.1564
1
1
1
1
1
1
1
1
1
1
1
1
1
1
1
1
1
1
1
1
1
1
1
1
1
1
1
1
1
1
1
1
1
1
1
1
1
1
1
1
1
1
1
1
1
1
1
1
1
1
1
1
1
1
1
1
1
1
1
1
1
1
1
1
1
1
1
1
1
1
1
1
1
1
1
1
1
1
1
1
1
1
1
1
1
1
1
1
1
1
4.84332
10.2869
10.5984
10.6251
10.6522
10.6776
10.7068
10.7371
10.7687
10.8003
10.8301
10.8579
10.8842
10.9121
10.9427
10.9778
11.0163
11.0553
11.0947
11.1331
11.1702
11.2068
11.2417
11.2731
11.3014
11.3257
11.3414
11.3562
11.3716
11.3896
11.4194
11.4568
11.4993
11.5386
11.5681
11.585
11.5923
11.596
11.6007
11.6116
11.6336
11.6607
11.6899
11.7163
11.7364
11.7537
11.7716
11.7926
11.8148
11.8353
11.8521
11.8656
11.8774
11.8907
11.9062
11.9237
11.9427
11.9612
11.9763
11.9865
11.9934
12.0011
12.0121
12.0283
12.0489
12.0707
12.0874
12.097
12.1021
12.1045
12.107
12.1111
12.1172
12.1256
12.1356
12.1456
12.1542
12.1587
1
1
1
1
1
1
1
1
1
1
1
1
1
1
1
1
1
1
1
1
1
1
1
1
1
1
1
1
1
1
1
1
1
1
1
1
1
1
1
1
1
1
1
1
1
1
1
1
1
1
1
1
1
1
1
1
1
1
1
1
1
1
1
1
1
1
1
1
1
1
1
1
1
1
1
1
1
1
1
1
1
1
1
1
1
1
1
1
1
1
4.74031
10.2463
10.5938
10.6189
10.6467
10.6722
10.7027
10.7352
10.768
10.7998
10.8292
10.8564
10.8819
10.9089
10.9391
10.9746
11.0127
11.0515
11.0915
11.1313
11.1698
11.2071
11.2419
11.2726
11.3001
11.3239
11.3393
11.354
11.3694
11.3874
11.4165
11.4533
11.4951
11.534
11.5637
11.5816
11.5895
11.5925
11.5972
11.6085
11.6301
11.6575
11.6875
11.7155
11.7369
11.7535
11.7693
11.7876
11.8082
11.8291
11.8472
11.8617
11.8726
11.8831
11.8964
11.9142
11.9366
11.9603
11.9803
11.9929
11.9992
12.0045
12.0128
12.0265
12.0453
12.0643
12.0787
12.0881
12.0941
12.0984
12.1029
12.1077
12.1133
12.1209
12.131
12.142
12.1524
12.1583
1
1
1
1
1
1
1
1
1
1
1
1
1
1
1
1
1
1
1
1
1
1
1
1
1
1
1
1
1
1
1
1
1
1
1
1
1
1
1
1
1
1
1
1
1
1
1
1
1
1
1
1
1
1
1
1
1
1
1
1
1
1
1
1
1
1
1
1
1
1
1
1
1
1
1
1
1
1
1
1
1
1
1
1
1
1
1
1
1
1
4.61296
10.204
10.5893
10.6123
10.6409
10.6663
10.698
10.7328
10.7663
10.7977
10.8263
10.8526
10.8778
10.9048
10.9359
10.9722
11.0099
11.0485
11.0885
11.1288
11.1682
11.2062
11.2413
11.2718
11.2992
11.3229
11.3382
11.3526
11.368
11.386
11.4146
11.4509
11.4918
11.5303
11.5605
11.579
11.5871
11.5892
11.5935
11.6047
11.6255
11.6532
11.6842
11.7138
11.7367
11.7531
11.7669
11.7824
11.8008
11.8216
11.8409
11.8566
11.8672
11.8758
11.8869
11.9042
11.9292
11.9578
11.9827
11.9982
12.0048
12.0074
12.0125
12.0229
12.0392
12.056
12.0693
12.0794
12.0865
12.0926
12.0987
12.1041
12.1095
12.1165
12.1262
12.1372
12.148
12.1546
1
1
1
1
1
1
1
1
1
1
1
1
1
1
1
1
1
1
1
1
1
1
1
1
1
1
1
1
1
1
1
1
1
1
1
1
1
1
1
1
1
1
1
1
1
1
1
1
1
1
1
1
1
1
1
1
1
1
1
1
1
1
1
1
1
1
1
1
1
1
1
1
1
1
1
1
1
1
1
1
1
1
1
1
1
1
1
1
1
1
4.45871
10.1604
10.5851
10.607
10.6354
10.6603
10.6937
10.7299
10.7634
10.7941
10.822
10.8477
10.873
10.9004
10.9328
10.9693
11.0064
11.0449
11.0853
11.1262
11.1662
11.2046
11.2396
11.27
11.2974
11.3212
11.3369
11.3516
11.3673
11.3859
11.4144
11.4501
11.4899
11.5273
11.5572
11.576
11.5843
11.5863
11.5908
11.6013
11.6206
11.6477
11.6789
11.7099
11.7347
11.7516
11.7644
11.7775
11.7937
11.8138
11.8339
11.8505
11.8615
11.8689
11.878
11.8943
11.9207
11.9533
11.9826
12.0014
12.009
12.0095
12.0107
12.0172
12.0305
12.046
12.0599
12.0713
12.08
12.0876
12.0948
12.1005
12.1057
12.112
12.1209
12.131
12.1413
12.148
1
1
1
1
1
1
1
1
1
1
1
1
1
1
1
1
1
1
1
1
1
1
1
1
1
1
1
1
1
1
1
1
1
1
1
1
1
1
1
1
1
1
1
1
1
1
1
1
1
1
1
1
1
1
1
1
1
1
1
1
1
1
1
1
1
1
1
1
1
1
1
1
1
1
1
1
1
1
1
1
1
1
1
1
1
1
1
1
1
1
4.27946
10.1151
10.58
10.601
10.6292
10.6549
10.6904
10.7259
10.759
10.7885
10.8159
10.8418
10.8684
10.8971
10.9311
10.9662
11.0024
11.0408
11.0816
11.123
11.1636
11.202
11.2364
11.2663
11.2935
11.3175
11.3345
11.3505
11.3676
11.3876
11.4161
11.4509
11.4886
11.524
11.5528
11.5716
11.5805
11.5838
11.589
11.5989
11.6161
11.6412
11.6713
11.7032
11.73
11.7487
11.7617
11.7734
11.7877
11.8067
11.8267
11.8438
11.8553
11.8623
11.8697
11.8848
11.9115
11.9467
11.9795
12.0013
12.0103
12.0095
12.0071
12.0098
12.02
12.0352
12.0508
12.0642
12.075
12.0841
12.0916
12.0971
12.1015
12.1067
12.1143
12.1233
12.1326
12.1391
1
1
1
1
1
1
1
1
1
1
1
1
1
1
1
1
1
1
1
1
1
1
1
1
1
1
1
1
1
1
1
1
1
1
1
1
1
1
1
1
1
1
1
1
1
1
1
1
1
1
1
1
1
1
1
1
1
1
1
1
1
1
1
1
1
1
1
1
1
1
1
1
1
1
1
1
1
1
1
1
1
1
1
1
1
1
1
1
1
1
4.07827
10.0664
10.5724
10.5915
10.6222
10.6516
10.6886
10.7217
10.7526
10.7811
10.8082
10.8353
10.8638
10.8952
10.9301
10.9627
10.9974
11.0357
11.0764
11.1184
11.1598
11.1981
11.2316
11.2606
11.2873
11.3112
11.3303
11.3486
11.3679
11.3897
11.4184
11.4517
11.4869
11.5197
11.5468
11.5656
11.5759
11.5815
11.5881
11.5977
11.6125
11.635
11.6625
11.6941
11.7225
11.7437
11.7583
11.7699
11.7829
11.8004
11.8197
11.8368
11.8487
11.8558
11.8624
11.876
11.9017
11.9377
11.9731
11.9974
12.0079
12.0068
12.0022
12.0014
12.0091
12.0242
12.042
12.0581
12.0714
12.0818
12.0889
12.0932
12.0962
12.0999
12.1062
12.1142
12.1224
12.129
1
1
1
1
1
1
1
1
1
1
1
1
1
1
1
1
1
1
1
1
1
1
1
1
1
1
1
1
1
1
1
1
1
1
1
1
1
1
1
1
1
1
1
1
1
1
1
1
1
1
1
1
1
1
1
1
1
1
1
1
1
1
1
1
1
1
1
1
1
1
1
1
1
1
1
1
1
1
1
1
1
1
1
1
1
1
1
1
1
1
3.85863
10.0087
10.5614
10.5816
10.6172
10.6516
10.6857
10.7166
10.745
10.7723
10.799
10.8277
10.8586
10.8935
10.9282
10.9586
10.9914
11.0292
11.0688
11.1116
11.1539
11.1924
11.2253
11.2532
11.2789
11.3026
11.3238
11.3446
11.3663
11.3905
11.4194
11.4507
11.4835
11.5135
11.5389
11.558
11.5705
11.5792
11.5874
11.5972
11.6101
11.6296
11.6536
11.6836
11.7127
11.7365
11.7536
11.7664
11.7789
11.7949
11.8129
11.8296
11.842
11.8498
11.8563
11.8685
11.892
11.9266
11.9627
11.9891
12.0015
12.0015
11.996
11.9932
11.9991
12.0141
12.0338
12.0528
12.0686
12.0798
12.086
12.0885
12.0894
12.0913
12.0963
12.1037
12.1112
12.1183
1
1
1
1
1
1
1
1
1
1
1
1
1
1
1
1
1
1
1
1
1
1
1
1
1
1
1
1
1
1
1
1
1
1
1
1
1
1
1
1
1
1
1
1
1
1
1
1
1
1
1
1
1
1
1
1
1
1
1
1
1
1
1
1
1
1
1
1
1
1
1
1
1
1
1
1
1
1
1
1
1
1
1
1
1
1
1
1
1
1
3.6204
9.93555
10.5498
10.5717
10.6134
10.6511
10.6829
10.7112
10.7373
10.7626
10.7887
10.8187
10.8529
10.8911
10.9251
10.9542
10.9851
11.021
11.0589
11.1022
11.1455
11.1846
11.2173
11.2444
11.2691
11.2922
11.315
11.3377
11.3614
11.388
11.4169
11.4467
11.4776
11.5052
11.5296
11.5494
11.5646
11.5765
11.5863
11.5966
11.6084
11.6252
11.6455
11.6726
11.7012
11.7271
11.7469
11.7619
11.7747
11.7892
11.8058
11.822
11.8353
11.8443
11.8513
11.8624
11.883
11.9141
11.9486
11.9758
11.9903
11.9926
11.9884
11.9857
11.9907
12.0057
12.0266
12.0479
12.0656
12.077
12.0819
12.0821
12.0809
12.0813
12.0854
12.0924
12.0993
12.1072
1
1
1
1
1
1
1
1
1
1
1
1
1
1
1
1
1
1
1
1
1
1
1
1
1
1
1
1
1
1
1
1
1
1
1
1
1
1
1
1
1
1
1
1
1
1
1
1
1
1
1
1
1
1
1
1
1
1
1
1
1
1
1
1
1
1
1
1
1
1
1
1
1
1
1
1
1
1
1
1
1
1
1
1
1
1
1
1
1
1
3.36897
9.8377
10.5405
10.5639
10.6108
10.6487
10.6787
10.7052
10.7292
10.7525
10.7792
10.8104
10.848
10.8869
10.9208
10.9498
10.9797
11.0121
11.0477
11.0908
11.1348
11.1746
11.2077
11.2344
11.2584
11.2809
11.3043
11.328
11.3527
11.3811
11.41
11.4389
11.4689
11.4956
11.5201
11.5408
11.5583
11.5726
11.5841
11.5951
11.607
11.6217
11.639
11.6623
11.6894
11.7161
11.7383
11.756
11.7696
11.783
11.7982
11.8138
11.8283
11.8394
11.8478
11.8581
11.8752
11.9012
11.932
11.9584
11.9744
11.9801
11.9792
11.9786
11.9843
11.9992
12.0204
12.0426
12.061
12.072
12.0754
12.0737
12.071
12.0705
12.0741
12.0809
12.0869
12.0953
1
1
1
1
1
1
1
1
1
1
1
1
1
1
1
1
1
1
1
1
1
1
1
1
1
1
1
1
1
1
1
1
1
1
1
1
1
1
1
1
1
1
1
1
1
1
1
1
1
1
1
1
1
1
1
1
1
1
1
1
1
1
1
1
1
1
1
1
1
1
1
1
1
1
1
1
1
1
1
1
1
1
1
1
1
1
1
1
1
1
3.10615
9.70485
10.5335
10.5606
10.6082
10.6431
10.6718
10.6971
10.72
10.7438
10.7719
10.8043
10.8433
10.881
10.9159
10.946
10.9753
11.0037
11.0374
11.0792
11.1231
11.1633
11.1969
11.2238
11.2478
11.2699
11.2934
11.3169
11.3412
11.3702
11.3986
11.4278
11.4583
11.4856
11.5105
11.5321
11.5508
11.5662
11.579
11.5913
11.6045
11.6181
11.6333
11.6529
11.6775
11.7039
11.7279
11.7479
11.7626
11.7755
11.7897
11.8046
11.8205
11.8345
11.8449
11.8549
11.8687
11.8889
11.9141
11.9382
11.9551
11.9643
11.9684
11.9718
11.9797
11.9948
12.0155
12.037
12.0547
12.0644
12.0661
12.0632
12.0601
12.0599
12.0635
12.0697
12.0742
12.0824
1
1
1
1
1
1
1
1
1
1
1
1
1
1
1
1
1
1
1
1
1
1
1
1
1
1
1
1
1
1
1
1
1
1
1
1
1
1
1
1
1
1
1
1
1
1
1
1
1
1
1
1
1
1
1
1
1
1
1
1
1
1
1
1
1
1
1
1
1
1
1
1
1
1
1
1
1
1
1
1
1
1
1
1
1
1
1
1
1
1
2.83585
9.52455
10.5342
10.5626
10.6035
10.6351
10.6618
10.6859
10.7101
10.7372
10.7661
10.8009
10.8378
10.8748
10.9102
10.9415
10.9708
10.9967
11.0294
11.0695
11.1123
11.1521
11.1859
11.2131
11.2377
11.2599
11.2835
11.3063
11.3292
11.3571
11.3846
11.4146
11.4469
11.4759
11.5016
11.5234
11.5417
11.557
11.571
11.5848
11.6003
11.6144
11.6288
11.6455
11.667
11.6919
11.7165
11.7378
11.7533
11.7662
11.7796
11.7937
11.8111
11.8284
11.8415
11.8521
11.8633
11.878
11.8967
11.9167
11.9338
11.9464
11.9557
11.965
11.9764
11.992
12.0116
12.0311
12.0462
12.0534
12.0534
12.0504
12.0485
12.0496
12.0535
12.0587
12.0611
12.068
1
1
1
1
1
1
1
1
1
1
1
1
1
1
1
1
1
1
1
1
1
1
1
1
1
1
1
1
1
1
1
1
1
1
1
1
1
1
1
1
1
1
1
1
1
1
1
1
1
1
1
1
1
1
1
1
1
1
1
1
1
1
1
1
1
1
1
1
1
1
1
1
1
1
1
1
1
1
1
1
1
1
1
1
1
1
1
1
1
1
2.56259
9.30569
10.5389
10.5622
10.5992
10.626
10.6495
10.6725
10.6994
10.7299
10.7616
10.7986
10.8328
10.8683
10.9028
10.9349
10.9652
10.9913
11.0237
11.062
11.1031
11.1415
11.1747
11.2024
11.2279
11.2509
11.2752
11.2978
11.3193
11.3453
11.3711
11.4018
11.4358
11.4669
11.4934
11.5148
11.531
11.5448
11.5594
11.5747
11.5927
11.6087
11.6238
11.6388
11.6574
11.6802
11.7042
11.7259
11.7419
11.7548
11.7676
11.7812
11.7997
11.8205
11.8371
11.8493
11.8591
11.8691
11.8812
11.896
11.9119
11.9271
11.9417
11.9573
11.9732
11.9899
12.0081
12.0245
12.0358
12.0394
12.0379
12.0358
12.0362
12.0396
12.044
12.0479
12.0479
12.0524
1
1
1
1
1
1
1
1
1
1
1
1
1
1
1
1
1
1
1
1
1
1
1
1
1
1
1
1
1
1
1
1
1
1
1
1
1
1
1
1
1
1
1
1
1
1
1
1
1
1
1
1
1
1
1
1
1
1
1
1
1
1
1
1
1
1
1
1
1
1
1
1
1
1
1
1
1
1
1
1
1
1
1
1
1
1
1
1
1
1
2.2859
9.04921
10.5436
10.5631
10.5952
10.6172
10.6381
10.6611
10.6903
10.7239
10.7601
10.7958
10.8289
10.861
10.8939
10.9263
10.9579
10.9859
11.0185
11.0559
11.0954
11.1324
11.1645
11.1927
11.2195
11.2436
11.2687
11.2916
11.3118
11.3354
11.3593
11.3901
11.4251
11.4584
11.4858
11.5064
11.5199
11.5311
11.5446
11.5608
11.5812
11.6005
11.6177
11.6325
11.6493
11.6696
11.692
11.7132
11.7292
11.7418
11.754
11.7668
11.7858
11.8095
11.8301
11.845
11.8549
11.8618
11.8676
11.8769
11.8906
11.9075
11.9267
11.9479
11.9684
11.9871
12.0039
12.0167
12.0233
12.0232
12.0205
12.0199
12.0233
12.0291
12.0342
12.0368
12.0347
12.0363
1
1
1
1
1
1
1
1
1
1
1
1
1
1
1
1
1
1
1
1
1
1
1
1
1
1
1
1
1
1
1
1
1
1
1
1
1
1
1
1
1
1
1
1
1
1
1
1
1
1
1
1
1
1
1
1
1
1
1
1
1
1
1
1
1
1
1
1
1
1
1
1
1
1
1
1
1
1
1
1
1
1
1
1
1
1
1
1
1
1
2.01795
8.76175
10.5391
10.5559
10.5867
10.6083
10.6293
10.6523
10.6829
10.7176
10.7565
10.7919
10.8229
10.8538
10.885
10.9169
10.9494
10.9803
11.0135
11.0506
11.0887
11.1242
11.1549
11.1833
11.211
11.2369
11.263
11.2859
11.3058
11.3274
11.3496
11.3802
11.4151
11.4503
11.4789
11.4984
11.5097
11.5179
11.5284
11.5436
11.5654
11.5882
11.6086
11.6254
11.6416
11.6597
11.6798
11.6999
11.7155
11.7277
11.7392
11.7512
11.7698
11.7956
11.8202
11.8388
11.8501
11.8553
11.8563
11.8605
11.8708
11.8886
11.9113
11.937
11.9616
11.9822
11.9978
12.0072
12.0095
12.0062
12.0027
12.0036
12.0095
12.0173
12.0229
12.0246
12.0211
12.0201
1
1
1
1
1
1
1
1
1
1
1
1
1
1
1
1
1
1
1
1
1
1
1
1
1
1
1
1
1
1
1
1
1
1
1
1
1
1
1
1
1
1
1
1
1
1
1
1
1
1
1
1
1
1
1
1
1
1
1
1
1
1
1
1
1
1
1
1
1
1
1
1
1
1
1
1
1
1
1
1
1
1
1
1
1
1
1
1
1
1
1.77899
8.43593
10.5176
10.5444
10.5769
10.6005
10.6234
10.6469
10.6758
10.712
10.7498
10.7847
10.8166
10.8468
10.8762
10.9068
10.9389
10.9717
11.006
11.0434
11.081
11.1156
11.1456
11.174
11.2023
11.2303
11.2571
11.2804
11.3006
11.3207
11.342
11.3714
11.4052
11.4418
11.4718
11.4909
11.5013
11.5059
11.5127
11.5251
11.5464
11.5718
11.596
11.6164
11.6337
11.6498
11.6674
11.6861
11.7014
11.713
11.7241
11.7354
11.7529
11.7794
11.8071
11.8297
11.8436
11.8485
11.8466
11.8463
11.8532
11.8712
11.8962
11.9247
11.9518
11.9737
11.9887
11.9954
11.9943
11.989
11.9855
11.9878
11.9952
12.0038
12.0095
12.0108
12.0071
12.0044
1
1
1
1
1
1
1
1
1
1
1
1
1
1
1
1
1
1
1
1
1
1
1
1
1
1
1
1
1
1
1
1
1
1
1
1
1
1
1
1
1
1
1
1
1
1
1
1
1
1
1
1
1
1
1
1
1
1
1
1
1
1
1
1
1
1
1
1
1
1
1
1
1
1
1
1
1
1
1
1
1
1
1
1
1
1
1
1
1
1
1.56442
8.06341
10.4938
10.5349
10.5674
10.5927
10.6174
10.6431
10.6708
10.705
10.742
10.7768
10.8088
10.8384
10.8671
10.8965
10.9286
10.9623
10.9973
11.0348
11.0718
11.1059
11.1361
11.1645
11.1933
11.2227
11.2498
11.274
11.2949
11.3142
11.3351
11.3629
11.3949
11.4318
11.4635
11.4833
11.4945
11.4958
11.4989
11.5075
11.5264
11.5525
11.58
11.6043
11.6237
11.6389
11.6542
11.6714
11.6865
11.6982
11.7092
11.7202
11.7364
11.7622
11.7915
11.8174
11.834
11.8396
11.8365
11.8334
11.8381
11.8553
11.8815
11.9114
11.9394
11.9615
11.976
11.9811
11.9783
11.9725
11.9697
11.9728
11.9806
11.9887
11.9938
11.995
11.992
11.989
1
1
1
1
1
1
1
1
1
1
1
1
1
1
1
1
1
1
1
1
1
1
1
1
1
1
1
1
1
1
1
1
1
1
1
1
1
1
1
1
1
1
1
1
1
1
1
1
1
1
1
1
1
1
1
1
1
1
1
1
1
1
1
1
1
1
1
1
1
1
1
1
1
1
1
1
1
1
1
1
1
1
1
1
1
1
1
1
1
1
1.3685
7.64292
10.4744
10.516
10.555
10.5851
10.6142
10.6408
10.6677
10.6999
10.7346
10.7681
10.7989
10.8276
10.8556
10.8846
10.9174
10.9527
10.9893
11.0271
11.0631
11.096
11.1261
11.1544
11.1835
11.2128
11.2403
11.2656
11.2869
11.3059
11.3269
11.3526
11.3837
11.4205
11.4533
11.4744
11.4872
11.4868
11.4873
11.4923
11.5074
11.5327
11.5618
11.589
11.6104
11.6258
11.6396
11.6555
11.6709
11.6831
11.6946
11.7059
11.7211
11.7453
11.7745
11.8022
11.8205
11.8275
11.8251
11.8213
11.8251
11.8413
11.8676
11.8973
11.9247
11.9458
11.9595
11.9641
11.961
11.9562
11.9548
11.9585
11.9655
11.9719
11.9759
11.9772
11.9754
11.9734
1
1
1
1
1
1
1
1
1
1
1
1
1
1
1
1
1
1
1
1
1
1
1
1
1
1
1
1
1
1
1
1
1
1
1
1
1
1
1
1
1
1
1
1
1
1
1
1
1
1
1
1
1
1
1
1
1
1
1
1
1
1
1
1
1
1
1
1
1
1
1
1
1
1
1
1
1
1
1
1
1
1
1
1
1
1
1
1
1
1
1.1733
7.17895
10.4736
10.506
10.5479
10.581
10.6092
10.6324
10.6567
10.6883
10.7233
10.7578
10.7897
10.8188
10.8462
10.8747
10.9078
10.944
10.9812
11.0184
11.0528
11.0844
11.1145
11.1433
11.1724
11.2014
11.229
11.2545
11.2753
11.295
11.3165
11.3407
11.3713
11.4077
11.4409
11.4635
11.4781
11.4779
11.4777
11.4801
11.4911
11.5146
11.543
11.571
11.5932
11.6092
11.6227
11.6379
11.654
11.6675
11.6803
11.6928
11.7074
11.7296
11.7571
11.7845
11.8031
11.8114
11.811
11.8086
11.8132
11.8288
11.854
11.8823
11.908
11.9273
11.9399
11.9444
11.9426
11.94
11.9404
11.9444
11.9501
11.9544
11.9569
11.958
11.9573
11.9568
1
1
1
1
1
1
1
1
1
1
1
1
1
1
1
1
1
1
1
1
1
1
1
1
1
1
1
1
1
1
1
1
1
1
1
1
1
1
1
1
1
1
1
1
1
1
1
1
1
1
1
1
1
1
1
1
1
1
1
1
1
1
1
1
1
1
1
1
1
1
1
1
1
1
1
1
1
1
1
1
1
1
1
1
1
1
1
1
1
1
1.00936
6.62629
10.4657
10.4987
10.5297
10.5656
10.595
10.619
10.6439
10.6765
10.7128
10.7488
10.7817
10.8103
10.8363
10.8644
10.8983
10.936
10.9744
11.0108
11.0433
11.0729
11.1018
11.1308
11.1599
11.1891
11.2168
11.2417
11.2613
11.2812
11.3028
11.3265
11.3569
11.3932
11.4264
11.4507
11.4667
11.4678
11.4685
11.4697
11.4776
11.4988
11.5255
11.5522
11.5736
11.5898
11.6038
11.6192
11.6363
11.6517
11.6662
11.6801
11.6946
11.7146
11.7392
11.7645
11.7826
11.7917
11.794
11.7949
11.8015
11.8171
11.8404
11.8664
11.8896
11.9066
11.9179
11.9229
11.9232
11.9232
11.9254
11.9297
11.934
11.9364
11.9373
11.9377
11.9372
11.9383
1
1
1
1
1
1
1
1
1
1
1
1
1
1
1
1
1
1
1
1
1
1
1
1
1
1
1
1
1
1
1
1
1
1
1
1
1
1
1
1
1
1
1
1
1
1
1
1
1
1
1
1
1
1
1
1
1
1
1
1
1
1
1
1
1
1
1
1
1
1
1
1
1
1
1
1
1
1
1
1
1
1
1
1
1
1
1
1
1
1
1.00007
5.96151
10.3991
10.4905
10.5201
10.557
10.5831
10.6059
10.6321
10.6655
10.7034
10.7413
10.7751
10.803
10.8272
10.8543
10.8884
10.9279
10.9676
11.0038
11.0342
11.0618
11.0894
11.118
11.1469
11.1758
11.2032
11.2272
11.2462
11.2655
11.2861
11.3104
11.3414
11.3776
11.4109
11.4364
11.4532
11.4564
11.4585
11.4597
11.4663
11.4854
11.51
11.5344
11.5536
11.5687
11.5829
11.5988
11.617
11.6345
11.6512
11.6667
11.6814
11.6996
11.7205
11.7427
11.7599
11.7698
11.7749
11.7803
11.7896
11.8052
11.8262
11.8489
11.8692
11.884
11.8943
11.9003
11.9028
11.9051
11.9089
11.9135
11.917
11.9181
11.9176
11.9169
11.9155
11.9171
1
1
1
1
1
1
1
1
1
1
1
1
1
1
1
1
1
1
1
1
1
1
1
1
1
1
1
1
1
1
1
1
1
1
1
1
1
1
1
1
1
1
1
1
1
1
1
1
1
1
1
1
1
1
1
1
1
1
1
1
1
1
1
1
1
1
1
1
1
1
1
1
1
1
1
1
1
1
1
1
1
1
1
1
1
1
1
1
1
1
1
5.26073
10.3108
10.4909
10.516
10.549
10.5722
10.5948
10.6222
10.6562
10.6966
10.7356
10.7689
10.795
10.8168
10.8432
10.8772
10.9182
10.9601
10.9974
11.0275
11.053
11.0777
11.1041
11.1322
11.1611
11.1888
11.2127
11.2323
11.2505
11.2697
11.2932
11.3241
11.3601
11.3937
11.4203
11.4379
11.4435
11.4469
11.4493
11.4562
11.4734
11.4957
11.5176
11.5346
11.5477
11.5613
11.5776
11.5968
11.6164
11.6354
11.6527
11.6676
11.6837
11.7007
11.7189
11.7348
11.7462
11.755
11.7647
11.7768
11.7922
11.8105
11.8293
11.8464
11.8599
11.87
11.8772
11.8818
11.8857
11.8905
11.8953
11.8987
11.8993
11.8977
11.8956
11.8923
11.8932
1
1
1
1
1
1
1
1
1
1
1
1
1
1
1
1
1
1
1
1
1
1
1
1
1
1
1
1
1
1
1
1
1
1
1
1
1
1
1
1
1
1
1
1
1
1
1
1
1
1
1
1
1
1
1
1
1
1
1
1
1
1
1
1
1
1
1
1
1
1
1
1
1
1
1
1
1
1
1
1
1
1
1
1
1
1
1
1
1
1
1
4.55711
10.1738
10.4893
10.5117
10.541
10.5636
10.586
10.6142
10.6492
10.6911
10.7308
10.7639
10.789
10.8084
10.8326
10.8656
10.9071
10.9504
10.9885
11.0188
11.0435
11.0661
11.09
11.1167
11.1449
11.1727
11.1972
11.2183
11.2365
11.2542
11.2759
11.3056
11.3411
11.3753
11.4032
11.4219
11.4294
11.4332
11.4368
11.4446
11.4605
11.4814
11.5016
11.5172
11.5288
11.5412
11.5573
11.5767
11.5975
11.6182
11.6368
11.6517
11.6656
11.6787
11.6932
11.7079
11.7215
11.735
11.7494
11.764
11.7784
11.793
11.8075
11.8215
11.8343
11.8452
11.854
11.8601
11.865
11.8699
11.8749
11.8784
11.8792
11.8771
11.8734
11.8678
11.8671
1
1
1
1
1
1
1
1
1
1
1
1
1
1
1
1
1
1
1
1
1
1
1
1
1
1
1
1
1
1
1
1
1
1
1
1
1
1
1
1
1
1
1
1
1
1
1
1
1
1
1
1
1
1
1
1
1
1
1
1
1
1
1
1
1
1
1
1
1
1
1
1
1
1
1
1
1
1
1
1
1
1
1
1
1
1
1
1
1
1
1
3.88
9.96519
10.4858
10.5105
10.5364
10.5572
10.5786
10.6061
10.6413
10.6833
10.7244
10.7587
10.7828
10.8018
10.8236
10.854
10.8936
10.9368
10.9759
11.0072
11.0321
11.0537
11.0763
11.1018
11.1292
11.1566
11.182
11.2049
11.2236
11.2413
11.2612
11.2878
11.321
11.3549
11.3843
11.4045
11.4143
11.4183
11.4228
11.4312
11.4461
11.4661
11.4859
11.5015
11.5124
11.5235
11.5382
11.5566
11.5772
11.5988
11.6186
11.6339
11.6458
11.6555
11.6664
11.68
11.6962
11.7149
11.7344
11.751
11.7631
11.7732
11.783
11.7943
11.8069
11.8194
11.8302
11.8379
11.8431
11.8476
11.8523
11.8562
11.8575
11.8552
11.8501
11.8425
11.8397
1
1
1
1
1
1
1
1
1
1
1
1
1
1
1
1
1
1
1
1
1
1
1
1
1
1
1
1
1
1
1
1
1
1
1
1
1
1
1
1
1
1
1
1
1
1
1
1
1
1
1
1
1
1
1
1
1
1
1
1
1
1
1
1
1
1
1
1
1
1
1
1
1
1
1
1
1
1
1
1
1
1
1
1
1
1
1
1
1
1
1
3.24576
9.67929
10.481
10.511
10.536
10.556
10.5756
10.6008
10.634
10.6746
10.7174
10.7531
10.7783
10.7964
10.8157
10.8429
10.879
10.9201
10.9588
10.9914
11.0177
11.04
11.063
11.0879
11.1139
11.1394
11.1647
11.1891
11.2102
11.2295
11.2488
11.2721
11.3018
11.334
11.3637
11.3856
11.398
11.4023
11.4074
11.416
11.43
11.4494
11.4694
11.4857
11.497
11.5075
11.5205
11.5367
11.5558
11.5775
11.5984
11.6144
11.6247
11.6313
11.6386
11.6509
11.6698
11.6942
11.7189
11.7372
11.7468
11.752
11.757
11.7654
11.7781
11.7925
11.8055
11.8146
11.82
11.8238
11.828
11.8319
11.8335
11.831
11.825
11.8162
11.8115
1
1
1
1
1
1
1
1
1
1
1
1
1
1
1
1
1
1
1
1
1
1
1
1
1
1
1
1
1
1
1
1
1
1
1
1
1
1
1
1
1
1
1
1
1
1
1
1
1
1
1
1
1
1
1
1
1
1
1
1
1
1
1
1
1
1
1
1
1
1
1
1
1
1
1
1
1
1
1
1
1
1
1
1
1
1
1
1
1
1
1
2.66089
9.30338
10.4827
10.5124
10.5366
10.5547
10.5735
10.5964
10.6259
10.6631
10.7057
10.7424
10.7686
10.7881
10.8064
10.8311
10.8644
10.9033
10.9398
10.971
10.9986
11.0239
11.0496
11.0753
11.1003
11.1239
11.1485
11.1736
11.1962
11.2174
11.2367
11.2573
11.2828
11.3119
11.3405
11.3638
11.3792
11.3851
11.3913
11.3999
11.4124
11.4305
11.4503
11.4678
11.4811
11.4923
11.5038
11.5175
11.534
11.5548
11.5764
11.5931
11.602
11.6061
11.6104
11.6215
11.643
11.6726
11.702
11.7217
11.7289
11.7297
11.7299
11.7355
11.748
11.764
11.7791
11.7897
11.7954
11.7987
11.8021
11.8056
11.8069
11.8042
11.798
11.789
11.7833
1
1
1
1
1
1
1
1
1
1
1
1
1
1
1
1
1
1
1
1
1
1
1
1
1
1
1
1
1
1
1
1
1
1
1
1
1
1
1
1
1
1
1
1
1
1
1
1
1
1
1
1
1
1
1
1
1
1
1
1
1
1
1
1
1
1
1
1
1
1
1
1
1
1
1
1
1
1
1
1
1
1
1
1
1
1
1
1
1
1
1
2.13291
8.83523
10.511
10.514
10.5328
10.5483
10.5667
10.5883
10.6142
10.6481
10.6888
10.7271
10.7567
10.7783
10.7966
10.82
10.8524
10.891
10.9263
10.9554
10.981
11.0067
11.0344
11.0613
11.0855
11.1072
11.1302
11.1552
11.1797
11.2038
11.2243
11.2432
11.2653
11.2913
11.3181
11.3414
11.3588
11.3667
11.3742
11.3824
11.3932
11.4092
11.4285
11.4473
11.4634
11.4765
11.4873
11.4983
11.512
11.5313
11.553
11.5699
11.5781
11.5807
11.5829
11.593
11.6163
11.6497
11.6821
11.7026
11.7083
11.706
11.7025
11.7056
11.7175
11.7343
11.7509
11.7629
11.7693
11.7723
11.7749
11.7772
11.7774
11.7744
11.7686
11.7606
11.755
1
1
1
1
1
1
1
1
1
1
1
1
1
1
1
1
1
1
1
1
1
1
1
1
1
1
1
1
1
1
1
1
1
1
1
1
1
1
1
1
1
1
1
1
1
1
1
1
1
1
1
1
1
1
1
1
1
1
1
1
1
1
1
1
1
1
1
1
1
1
1
1
1
1
1
1
1
1
1
1
1
1
1
1
1
1
1
1
1
1
1
1.67574
8.28462
10.5583
10.5071
10.5275
10.5407
10.5589
10.5802
10.6053
10.6373
10.6749
10.7098
10.7394
10.7647
10.7869
10.8099
10.8378
10.872
10.9052
10.9348
10.9626
10.9913
11.021
11.0485
11.0721
11.0927
11.1147
11.1388
11.1636
11.1892
11.2104
11.2284
11.2479
11.2703
11.2945
11.3165
11.3349
11.3456
11.355
11.3634
11.3729
11.3866
11.4049
11.4241
11.4424
11.4578
11.4688
11.4782
11.4899
11.5079
11.5288
11.5452
11.553
11.5551
11.5563
11.566
11.5902
11.6251
11.6582
11.6787
11.6841
11.6805
11.6752
11.6766
11.6872
11.7036
11.7206
11.7336
11.741
11.7443
11.7459
11.7465
11.7454
11.7421
11.7372
11.7309
11.7266
1
1
1
1
1
1
1
1
1
1
1
1
1
1
1
1
1
1
1
1
1
1
1
1
1
1
1
1
1
1
1
1
1
1
1
1
1
1
1
1
1
1
1
1
1
1
1
1
1
1
1
1
1
1
1
1
1
1
1
1
1
1
1
1
1
1
1
1
1
1
1
1
1
1
1
1
1
1
1
1
1
1
1
1
1
1
1
1
1
1
1
1.30966
7.62723
10.5593
10.5009
10.5238
10.5359
10.5464
10.5606
10.5808
10.6103
10.648
10.6863
10.7197
10.7473
10.772
10.7951
10.821
10.8539
10.8873
10.9192
10.9496
10.98
11.0093
11.0351
11.0575
11.0777
11.0991
11.1218
11.1457
11.1715
11.1936
11.2115
11.2297
11.2495
11.2714
11.292
11.3106
11.3235
11.334
11.3425
11.351
11.3629
11.3797
11.3984
11.4177
11.4352
11.4473
11.4565
11.4678
11.4846
11.504
11.5188
11.5261
11.5289
11.5309
11.5413
11.5653
11.5988
11.6299
11.6496
11.6556
11.6527
11.6477
11.6483
11.6574
11.6725
11.6888
11.7022
11.7104
11.714
11.7148
11.7137
11.711
11.7075
11.7038
11.6996
11.6971
1
1
1
1
1
1
1
1
1
1
1
1
1
1
1
1
1
1
1
1
1
1
1
1
1
1
1
1
1
1
1
1
1
1
1
1
1
1
1
1
1
1
1
1
1
1
1
1
1
1
1
1
1
1
1
1
1
1
1
1
1
1
1
1
1
1
1
1
1
1
1
1
1
1
1
1
1
1
1
1
1
1
1
1
1
1
1
1
1
1
1
1.03623
6.92766
10.4974
10.4748
10.5084
10.5259
10.5366
10.5454
10.559
10.5852
10.624
10.6672
10.706
10.7366
10.7613
10.7801
10.8017
10.8332
10.8693
10.9055
10.939
10.9692
10.9954
11.0189
11.0408
11.062
11.084
11.106
11.1286
11.1538
11.1753
11.1925
11.2097
11.2279
11.2484
11.2687
11.2871
11.3009
11.3115
11.319
11.3267
11.3381
11.3535
11.3711
11.3904
11.4091
11.4223
11.4326
11.4446
11.4606
11.4779
11.4904
11.4977
11.5022
11.5068
11.519
11.5419
11.5711
11.5977
11.6153
11.6223
11.6216
11.6188
11.6199
11.6279
11.6411
11.6559
11.6688
11.6773
11.6811
11.681
11.6785
11.6748
11.6713
11.6689
11.6665
11.666
1
1
1
1
1
1
1
1
1
1
1
1
1
1
1
1
1
1
1
1
1
1
1
1
1
1
1
1
1
1
1
1
1
1
1
1
1
1
1
1
1
1
1
1
1
1
1
1
1
1
1
1
1
1
1
1
1
1
1
1
1
1
1
1
1
1
1
1
1
1
1
1
1
1
1
1
1
1
1
1
1
1
1
1
1
1
1
1
1
1
1
1.00037
6.09595
10.366
10.439
10.4838
10.5071
10.5186
10.5244
10.5346
10.5601
10.6004
10.6469
10.6891
10.7207
10.7439
10.7593
10.7785
10.8102
10.8508
10.8922
10.9286
10.9578
10.9806
11.0019
11.0236
11.0457
11.0687
11.0903
11.1119
11.1358
11.1556
11.1714
11.1876
11.2054
11.2257
11.2468
11.2656
11.2793
11.288
11.2934
11.3005
11.3119
11.3259
11.3425
11.3615
11.3806
11.3949
11.4068
11.4199
11.435
11.4493
11.4596
11.468
11.4755
11.4841
11.4986
11.5193
11.5424
11.5626
11.5766
11.5842
11.5866
11.5875
11.5908
11.5984
11.6097
11.6224
11.6339
11.6418
11.645
11.6442
11.6409
11.6369
11.6339
11.6324
11.6312
11.6321
1
1
1
1
1
1
1
1
1
1
1
1
1
1
1
1
1
1
1
1
1
1
1
1
1
1
1
1
1
1
1
1
1
1
1
1
1
1
1
1
1
1
1
1
1
1
1
1
1
1
1
1
1
1
1
1
1
1
1
1
1
1
1
1
1
1
1
1
1
1
1
1
1
1
1
1
1
1
1
1
1
1
1
1
1
1
1
1
1
1
1
1
5.211
10.1877
10.401
10.4619
10.4948
10.5079
10.5121
10.5195
10.5436
10.584
10.6315
10.6753
10.7072
10.7284
10.7417
10.7595
10.7908
10.8334
10.8783
10.917
10.9456
10.9656
10.9847
11.0057
11.0279
11.0517
11.0742
11.0957
11.1176
11.1349
11.1487
11.1636
11.1818
11.2035
11.226
11.2456
11.2588
11.2649
11.2679
11.2736
11.284
11.2968
11.3124
11.3316
11.3513
11.3668
11.38
11.3934
11.4068
11.4172
11.4262
11.4373
11.4489
11.4623
11.4789
11.4967
11.513
11.5257
11.5348
11.542
11.5474
11.5528
11.5594
11.5679
11.578
11.5885
11.5977
11.6036
11.6054
11.6039
11.6008
11.5976
11.5955
11.5945
11.5937
11.5952
1
1
1
1
1
1
1
1
1
1
1
1
1
1
1
1
1
1
1
1
1
1
1
1
1
1
1
1
1
1
1
1
1
1
1
1
1
1
1
1
1
1
1
1
1
1
1
1
1
1
1
1
1
1
1
1
1
1
1
1
1
1
1
1
1
1
1
1
1
1
1
1
1
1
1
1
1
1
1
1
1
1
1
1
1
1
1
1
1
1
1
1
4.35509
9.93627
10.3777
10.4377
10.48
10.4956
10.5032
10.5107
10.5339
10.5712
10.6163
10.6601
10.6937
10.7142
10.7271
10.7444
10.7749
10.8161
10.8623
10.9029
10.9318
10.9505
10.9675
10.9867
11.0076
11.0321
11.0566
11.0789
11.0994
11.1143
11.1257
11.139
11.1573
11.1802
11.2041
11.2248
11.2376
11.2424
11.2438
11.2478
11.2556
11.2663
11.2808
11.3007
11.3217
11.3388
11.3528
11.3653
11.3748
11.3817
11.3914
11.4053
11.4222
11.4404
11.4581
11.4729
11.4828
11.4878
11.4916
11.497
11.5044
11.5141
11.5248
11.5355
11.5455
11.554
11.5601
11.5629
11.5625
11.5604
11.5582
11.5566
11.5556
11.5549
11.5535
11.5544
1
1
1
1
1
1
1
1
1
1
1
1
1
1
1
1
1
1
1
1
1
1
1
1
1
1
1
1
1
1
1
1
1
1
1
1
1
1
1
1
1
1
1
1
1
1
1
1
1
1
1
1
1
1
1
1
1
1
1
1
1
1
1
1
1
1
1
1
1
1
1
1
1
1
1
1
1
1
1
1
1
1
1
1
1
1
1
1
1
1
1
1
3.53091
9.60365
10.3627
10.426
10.4722
10.4894
10.4984
10.506
10.5275
10.5613
10.6027
10.645
10.6797
10.7023
10.7168
10.7338
10.7608
10.7986
10.8433
10.8849
10.915
10.9344
10.9499
10.9663
10.9853
11.0099
11.0363
11.0607
11.0808
11.0944
11.1039
11.1154
11.1326
11.1552
11.1797
11.2012
11.2146
11.2204
11.2216
11.2237
11.2277
11.2353
11.2484
11.269
11.2919
11.3108
11.325
11.3351
11.3397
11.3441
11.3553
11.3731
11.3952
11.4169
11.4349
11.4464
11.4509
11.4499
11.4483
11.4507
11.4586
11.4714
11.4862
11.5
11.511
11.5181
11.5208
11.5197
11.5165
11.5138
11.5129
11.5134
11.5139