/*--------------------------------*- C++ -*----------------------------------*\
  =========                 |
  \\      /  F ield         | OpenFOAM: The Open Source CFD Toolbox
   \\    /   O peration     | Website:  https://openfoam.org
    \\  /    A nd           | Version:  7
     \\/     M anipulation  |
\*---------------------------------------------------------------------------*/
FoamFile
{
    version     2.0;
    format      ascii;
    class       volVectorField;
    location    "61.00059";
    object      U;
}
// * * * * * * * * * * * * * * * * * * * * * * * * * * * * * * * * * * * * * //

dimensions      [0 1 -1 0 0 0 0];

internalField   nonuniform List<vector> 
5800
(
(0.0760819 0.0278153 -6.86944e-21)
(0.0519412 0.0220874 -2.85534e-21)
(0.0337421 0.0160143 1.80353e-20)
(0.0215667 0.00970201 -6.98426e-21)
(0.0154665 0.00324939 8.28749e-22)
(1.05405 -0.000809216 0)
(1.05466 -0.000793335 0)
(1.05527 -0.00077687 0)
(1.05588 -0.000759818 0)
(1.05649 -0.000742176 0)
(1.05709 -0.000723945 0)
(1.05769 -0.000705128 0)
(1.05829 -0.000685732 0)
(1.05889 -0.000665764 0)
(1.05947 -0.000645236 0)
(1.06005 -0.000624161 0)
(1.06062 -0.000602555 0)
(1.06119 -0.000580435 0)
(1.06174 -0.000557824 0)
(1.06228 -0.000534744 0)
(1.06281 -0.000511222 0)
(1.06332 -0.000487288 0)
(1.06382 -0.000462973 0)
(1.0643 -0.000438312 0)
(1.06477 -0.000413342 0)
(1.06521 -0.000388104 0)
(1.06564 -0.00036264 0)
(1.06605 -0.000336995 0)
(1.06643 -0.000311218 0)
(1.06679 -0.000285357 0)
(1.06713 -0.000259465 0)
(1.06744 -0.000233595 0)
(1.06772 -0.000207803 0)
(1.06798 -0.000182143 0)
(1.0682 -0.000156675 0)
(1.0684 -0.000131455 0)
(1.06856 -0.000106542 0)
(1.0687 -8.19937e-05 0)
(1.0688 -5.78676e-05 0)
(1.06886 -3.42201e-05 0)
(1.0689 -1.11062e-05 0)
(1.0689 1.14206e-05 0)
(1.06886 3.33096e-05 0)
(1.06879 5.45123e-05 0)
(1.06868 7.49837e-05 0)
(1.06854 9.46821e-05 0)
(1.06836 0.00011357 0)
(1.06815 0.000131613 0)
(1.0679 0.000148784 0)
(1.06761 0.000165058 0)
(1.06729 0.000180416 0)
(1.06694 0.000194845 0)
(1.06655 0.000208337 0)
(1.06613 0.000220889 0)
(1.06568 0.000232504 0)
(1.06519 0.000243189 0)
(1.06467 0.000252958 0)
(1.06413 0.000261827 0)
(1.06355 0.000269821 0)
(1.06294 0.000276956 0)
(1.06231 0.00028328 0)
(1.06165 0.000288768 0)
(1.06097 0.000293584 0)
(1.06027 0.000297427 0)
(1.05952 0.000301075 0)
(1.05881 0.000302832 0)
(1.05793 0.000306295 0)
(1.05736 0.000304151 0)
(1.05598 0.000309103 0)
(1.05428 -0.00241433 0)
(1.05489 -0.00236683 0)
(1.05551 -0.00231757 0)
(1.05612 -0.00226655 0)
(1.05673 -0.00221377 0)
(1.05733 -0.00215923 0)
(1.05794 -0.00210295 0)
(1.05854 -0.00204495 0)
(1.05913 -0.00198525 0)
(1.05972 -0.00192389 0)
(1.0603 -0.0018609 0)
(1.06087 -0.00179633 0)
(1.06143 -0.00173024 0)
(1.06199 -0.00166269 0)
(1.06253 -0.00159375 0)
(1.06305 -0.00152349 0)
(1.06357 -0.00145201 0)
(1.06407 -0.00137941 0)
(1.06455 -0.00130577 0)
(1.06501 -0.00123123 0)
(1.06546 -0.00115589 0)
(1.06589 -0.00107988 0)
(1.06629 -0.00100334 0)
(1.06668 -0.000926414 0)
(1.06703 -0.000849245 0)
(1.06737 -0.000771991 0)
(1.06768 -0.000694811 0)
(1.06796 -0.000617869 0)
(1.06821 -0.000541334 0)
(1.06844 -0.000465375 0)
(1.06863 -0.000390167 0)
(1.06879 -0.000315882 0)
(1.06892 -0.000242693 0)
(1.06902 -0.000170771 0)
(1.06909 -0.000100284 0)
(1.06912 -3.1396e-05 0)
(1.06911 3.5734e-05 0)
(1.06907 0.000100955 0)
(1.069 0.000164122 0)
(1.06889 0.000225103 0)
(1.06875 0.000283773 0)
(1.06856 0.00034002 0)
(1.06835 0.000393746 0)
(1.0681 0.000444864 0)
(1.06781 0.000493305 0)
(1.06749 0.000539014 0)
(1.06713 0.000581949 0)
(1.06674 0.000622089 0)
(1.06632 0.000659425 0)
(1.06586 0.000693967 0)
(1.06537 0.000725738 0)
(1.06485 0.000754779 0)
(1.0643 0.000781139 0)
(1.06373 0.00080489 0)
(1.06312 0.000826089 0)
(1.06249 0.000844864 0)
(1.06183 0.000861182 0)
(1.06114 0.00087542 0)
(1.06044 0.000886973 0)
(1.05969 0.000897461 0)
(1.05897 0.000903517 0)
(1.0581 0.000912176 0)
(1.05753 0.000909895 0)
(1.05615 0.000919488 0)
(1.05474 -0.00399437 0)
(1.05536 -0.00391538 0)
(1.05597 -0.0038335 0)
(1.05659 -0.0037487 0)
(1.0572 -0.003661 0)
(1.05781 -0.0035704 0)
(1.05841 -0.00347693 0)
(1.05901 -0.00338063 0)
(1.05961 -0.00328152 0)
(1.0602 -0.00317967 0)
(1.06078 -0.00307514 0)
(1.06135 -0.00296801 0)
(1.06192 -0.00285838 0)
(1.06247 -0.00274634 0)
(1.06301 -0.00263202 0)
(1.06354 -0.00251553 0)
(1.06405 -0.00239705 0)
(1.06455 -0.0022767 0)
(1.06503 -0.00215468 0)
(1.0655 -0.00203117 0)
(1.06594 -0.00190637 0)
(1.06637 -0.00178048 0)
(1.06677 -0.00165374 0)
(1.06715 -0.00152637 0)
(1.06751 -0.00139863 0)
(1.06784 -0.00127078 0)
(1.06814 -0.00114307 0)
(1.06842 -0.00101578 0)
(1.06867 -0.000889185 0)
(1.06889 -0.000763574 0)
(1.06908 -0.000639229 0)
(1.06924 -0.000516437 0)
(1.06936 -0.000395483 0)
(1.06946 -0.00027665 0)
(1.06952 -0.000160215 0)
(1.06954 -4.64475e-05 0)
(1.06954 6.43902e-05 0)
(1.06949 0.000172049 0)
(1.06941 0.000276293 0)
(1.0693 0.000376901 0)
(1.06915 0.000473671 0)
(1.06896 0.000566419 0)
(1.06874 0.000654985 0)
(1.06848 0.000739228 0)
(1.06819 0.000819034 0)
(1.06786 0.000894314 0)
(1.0675 0.000965004 0)
(1.06711 0.00103107 0)
(1.06668 0.0010925 0)
(1.06622 0.00114931 0)
(1.06573 0.00120154 0)
(1.0652 0.00124926 0)
(1.06465 0.00129257 0)
(1.06407 0.00133156 0)
(1.06346 0.00136636 0)
(1.06282 0.00139715 0)
(1.06216 0.00142394 0)
(1.06147 0.00144719 0)
(1.06077 0.00146632 0)
(1.06001 0.00148306 0)
(1.0593 0.00149409 0)
(1.05842 0.00150622 0)
(1.05785 0.00150745 0)
(1.05647 0.00151671 0)
(1.05541 -0.00555232 0)
(1.05603 -0.00544193 0)
(1.05665 -0.0053275 0)
(1.05727 -0.005209 0)
(1.05789 -0.00508646 0)
(1.0585 -0.00495988 0)
(1.05911 -0.00482931 0)
(1.05971 -0.0046948 0)
(1.06031 -0.00455639 0)
(1.0609 -0.00441419 0)
(1.06149 -0.00426826 0)
(1.06206 -0.00411874 0)
(1.06262 -0.00396575 0)
(1.06318 -0.00380944 0)
(1.06372 -0.00364997 0)
(1.06425 -0.00348753 0)
(1.06476 -0.00332232 0)
(1.06526 -0.00315457 0)
(1.06574 -0.00298453 0)
(1.0662 -0.00281244 0)
(1.06664 -0.00263859 0)
(1.06707 -0.00246329 0)
(1.06747 -0.00228683 0)
(1.06784 -0.00210956 0)
(1.0682 -0.00193181 0)
(1.06852 -0.00175395 0)
(1.06882 -0.00157634 0)
(1.0691 -0.00139937 0)
(1.06934 -0.00122342 0)
(1.06955 -0.00104888 0)
(1.06974 -0.000876159 0)
(1.06989 -0.000705645 0)
(1.07001 -0.000537736 0)
(1.0701 -0.000372825 0)
(1.07015 -0.000211295 0)
(1.07017 -5.352e-05 0)
(1.07015 0.000100139 0)
(1.0701 0.000249337 0)
(1.07001 0.00039375 0)
(1.06989 0.000533073 0)
(1.06973 0.00066703 0)
(1.06954 0.000795369 0)
(1.06931 0.000917868 0)
(1.06905 0.00103434 0)
(1.06875 0.00114463 0)
(1.06841 0.00124861 0)
(1.06804 0.00134621 0)
(1.06764 0.00143738 0)
(1.06721 0.0015221 0)
(1.06674 0.00160041 0)
(1.06624 0.00167237 0)
(1.06572 0.00173809 0)
(1.06516 0.00179767 0)
(1.06457 0.0018513 0)
(1.06396 0.00189912 0)
(1.06332 0.00194139 0)
(1.06265 0.00197818 0)
(1.06196 0.00201003 0)
(1.06125 0.00203637 0)
(1.06049 0.00205906 0)
(1.05978 0.00207479 0)
(1.05889 0.00209034 0)
(1.05833 0.00209422 0)
(1.05693 0.00210379 0)
(1.05629 -0.00709211 0)
(1.05692 -0.00695009 0)
(1.05754 -0.00680287 0)
(1.05816 -0.00665047 0)
(1.05878 -0.00649288 0)
(1.0594 -0.00633014 0)
(1.06001 -0.0061623 0)
(1.06062 -0.00598942 0)
(1.06122 -0.00581158 0)
(1.06182 -0.0056289 0)
(1.0624 -0.00544149 0)
(1.06298 -0.0052495 0)
(1.06355 -0.00505311 0)
(1.0641 -0.0048525 0)
(1.06464 -0.0046479 0)
(1.06517 -0.00443955 0)
(1.06568 -0.0042277 0)
(1.06618 -0.00401267 0)
(1.06666 -0.00379474 0)
(1.06712 -0.00357428 0)
(1.06756 -0.00335163 0)
(1.06798 -0.00312718 0)
(1.06837 -0.00290133 0)
(1.06874 -0.00267452 0)
(1.06909 -0.00244717 0)
(1.06941 -0.00221976 0)
(1.06971 -0.00199276 0)
(1.06997 -0.00176665 0)
(1.07021 -0.00154193 0)
(1.07042 -0.0013191 0)
(1.07059 -0.00109868 0)
(1.07074 -0.000881157 0)
(1.07085 -0.000667049 0)
(1.07092 -0.000456852 0)
(1.07097 -0.000251052 0)
(1.07098 -5.01257e-05 0)
(1.07095 0.000145471 0)
(1.07089 0.000335302 0)
(1.07079 0.000518957 0)
(1.07066 0.000696053 0)
(1.07049 0.000866242 0)
(1.07029 0.00102921 0)
(1.07005 0.00118468 0)
(1.06978 0.00133241 0)
(1.06947 0.00147222 0)
(1.06913 0.00160397 0)
(1.06875 0.00172754 0)
(1.06834 0.00184289 0)
(1.0679 0.00195002 0)
(1.06742 0.00204897 0)
(1.06692 0.00213983 0)
(1.06638 0.00222274 0)
(1.06582 0.00229785 0)
(1.06522 0.0023654 0)
(1.0646 0.00242558 0)
(1.06395 0.00247873 0)
(1.06328 0.00252496 0)
(1.06258 0.00256491 0)
(1.06187 0.00259801 0)
(1.06111 0.0026263 0)
(1.06039 0.00264633 0)
(1.0595 0.00266522 0)
(1.05894 0.00267106 0)
(1.05754 0.00268155 0)
(1.05736 -0.00861694 0)
(1.05799 -0.00844284 0)
(1.05863 -0.00826242 0)
(1.05926 -0.00807567 0)
(1.05988 -0.00788263 0)
(1.0605 -0.00768333 0)
(1.06112 -0.00747782 0)
(1.06173 -0.0072662 0)
(1.06234 -0.00704858 0)
(1.06294 -0.00682508 0)
(1.06353 -0.00659587 0)
(1.0641 -0.00636113 0)
(1.06467 -0.00612108 0)
(1.06523 -0.00587595 0)
(1.06577 -0.00562603 0)
(1.0663 -0.0053716 0)
(1.06681 -0.00511301 0)
(1.0673 -0.00485061 0)
(1.06778 -0.00458478 0)
(1.06824 -0.00431595 0)
(1.06867 -0.00404456 0)
(1.06909 -0.00377108 0)
(1.06948 -0.00349601 0)
(1.06984 -0.00321988 0)
(1.07018 -0.00294321 0)
(1.0705 -0.00266659 0)
(1.07078 -0.00239058 0)
(1.07104 -0.00211578 0)
(1.07127 -0.00184279 0)
(1.07147 -0.00157223 0)
(1.07163 -0.00130471 0)
(1.07177 -0.00104084 0)
(1.07187 -0.000781247 0)
(1.07193 -0.000526522 0)
(1.07197 -0.000277257 0)
(1.07196 -3.4025e-05 0)
(1.07193 0.000202625 0)
(1.07185 0.000432171 0)
(1.07175 0.000654119 0)
(1.0716 0.000868014 0)
(1.07142 0.00107344 0)
(1.07121 0.00127002 0)
(1.07095 0.00145744 0)
(1.07067 0.00163541 0)
(1.07035 0.00180372 0)
(1.06999 0.0019622 0)
(1.06961 0.00211073 0)
(1.06918 0.00224928 0)
(1.06873 0.00237784 0)
(1.06825 0.00249648 0)
(1.06773 0.00260533 0)
(1.06719 0.00270454 0)
(1.06662 0.00279434 0)
(1.06601 0.00287501 0)
(1.06539 0.00294681 0)
(1.06473 0.00301015 0)
(1.06406 0.00306518 0)
(1.06335 0.00311267 0)
(1.06263 0.00315203 0)
(1.06187 0.00318551 0)
(1.06115 0.00320944 0)
(1.06025 0.00323145 0)
(1.05968 0.00323893 0)
(1.05828 0.00325047 0)
(1.05862 -0.0101298 0)
(1.05926 -0.00992296 0)
(1.0599 -0.00970869 0)
(1.06054 -0.00948699 0)
(1.06117 -0.00925786 0)
(1.0618 -0.00902138 0)
(1.06242 -0.00877761 0)
(1.06304 -0.00852667 0)
(1.06365 -0.00826869 0)
(1.06425 -0.00800384 0)
(1.06484 -0.00773231 0)
(1.06542 -0.00745433 0)
(1.06599 -0.00717016 0)
(1.06655 -0.0068801 0)
(1.06709 -0.00658447 0)
(1.06762 -0.00628363 0)
(1.06813 -0.00597799 0)
(1.06862 -0.00566797 0)
(1.06909 -0.00535404 0)
(1.06955 -0.0050367 0)
(1.06998 -0.00471649 0)
(1.07039 -0.00439395 0)
(1.07077 -0.0040697 0)
(1.07113 -0.00374433 0)
(1.07146 -0.00341851 0)
(1.07177 -0.00309289 0)
(1.07205 -0.00276817 0)
(1.0723 -0.00244503 0)
(1.07251 -0.0021242 0)
(1.0727 -0.00180639 0)
(1.07285 -0.00149233 0)
(1.07298 -0.00118274 0)
(1.07306 -0.000878339 0)
(1.07312 -0.000579824 0)
(1.07314 -0.000287886 0)
(1.07312 -3.19096e-06 0)
(1.07307 0.000273622 0)
(1.07298 0.000541948 0)
(1.07286 0.000801217 0)
(1.0727 0.0010509 0)
(1.07251 0.00129053 0)
(1.07228 0.00151967 0)
(1.07201 0.00173796 0)
(1.07171 0.00194509 0)
(1.07138 0.0021408 0)
(1.07101 0.00232492 0)
(1.07061 0.00249734 0)
(1.07017 0.00265801 0)
(1.06971 0.00280695 0)
(1.06921 0.00294426 0)
(1.06869 0.00307008 0)
(1.06813 0.00318465 0)
(1.06755 0.00328823 0)
(1.06694 0.00338115 0)
(1.06631 0.00346375 0)
(1.06564 0.00353651 0)
(1.06496 0.00359966 0)
(1.06425 0.00365405 0)
(1.06353 0.00369912 0)
(1.06275 0.00373732 0)
(1.06203 0.00376475 0)
(1.06112 0.00378962 0)
(1.06056 0.00379846 0)
(1.05914 0.00381103 0)
(1.06007 -0.0116331 0)
(1.06072 -0.0113928 0)
(1.06136 -0.0111439 0)
(1.06201 -0.0108864 0)
(1.06265 -0.0106204 0)
(1.06328 -0.0103459 0)
(1.06391 -0.0100631 0)
(1.06454 -0.00977208 0)
(1.06515 -0.009473 0)
(1.06576 -0.00916606 0)
(1.06635 -0.00885152 0)
(1.06693 -0.00852963 0)
(1.0675 -0.0082007 0)
(1.06806 -0.0078651 0)
(1.0686 -0.00752321 0)
(1.06913 -0.00717545 0)
(1.06964 -0.0068223 0)
(1.07013 -0.00646426 0)
(1.0706 -0.00610189 0)
(1.07104 -0.00573576 0)
(1.07147 -0.00536649 0)
(1.07187 -0.00499475 0)
(1.07225 -0.00462122 0)
(1.0726 -0.00424661 0)
(1.07293 -0.00387169 0)
(1.07322 -0.00349722 0)
(1.07349 -0.00312399 0)
(1.07372 -0.00275281 0)
(1.07393 -0.00238449 0)
(1.0741 -0.00201988 0)
(1.07424 -0.00165979 0)
(1.07435 -0.00130506 0)
(1.07442 -0.000956501 0)
(1.07446 -0.000614918 0)
(1.07447 -0.000281093 0)
(1.07443 4.42178e-05 0)
(1.07437 0.000360291 0)
(1.07426 0.000666441 0)
(1.07412 0.000962031 0)
(1.07395 0.00124647 0)
(1.07374 0.00151922 0)
(1.07349 0.00177982 0)
(1.07321 0.00202785 0)
(1.0729 0.00226299 0)
(1.07255 0.00248495 0)
(1.07216 0.00269357 0)
(1.07175 0.00288871 0)
(1.0713 0.00307037 0)
(1.07082 0.00323857 0)
(1.07031 0.00339344 0)
(1.06978 0.00353519 0)
(1.06921 0.00366408 0)
(1.06862 0.00378044 0)
(1.068 0.00388468 0)
(1.06735 0.00397721 0)
(1.06668 0.00405858 0)
(1.06599 0.00412908 0)
(1.06527 0.00418972 0)
(1.06454 0.00423988 0)
(1.06376 0.00428231 0)
(1.06303 0.00431278 0)
(1.06212 0.00434023 0)
(1.06155 0.00435016 0)
(1.06012 0.00436369 0)
(1.06169 -0.0131293 0)
(1.06235 -0.0128544 0)
(1.063 -0.0125699 0)
(1.06366 -0.0122756 0)
(1.0643 -0.0119717 0)
(1.06495 -0.0116583 0)
(1.06558 -0.0113355 0)
(1.06621 -0.0110034 0)
(1.06683 -0.0106623 0)
(1.06744 -0.0103124 0)
(1.06804 -0.00995396 0)
(1.06863 -0.00958733 0)
(1.0692 -0.00921285 0)
(1.06976 -0.00883096 0)
(1.0703 -0.00844209 0)
(1.07082 -0.00804676 0)
(1.07133 -0.0076455 0)
(1.07181 -0.0072389 0)
(1.07228 -0.0068276 0)
(1.07272 -0.00641226 0)
(1.07314 -0.00599361 0)
(1.07354 -0.0055724 0)
(1.0739 -0.0051494 0)
(1.07425 -0.00472546 0)
(1.07456 -0.00430141 0)
(1.07484 -0.00387815 0)
(1.0751 -0.00345655 0)
(1.07532 -0.00303755 0)
(1.07551 -0.00262208 0)
(1.07567 -0.00221105 0)
(1.0758 -0.00180542 0)
(1.07589 -0.00140611 0)
(1.07594 -0.00101404 0)
(1.07597 -0.000630111 0)
(1.07595 -0.000255189 0)
(1.0759 0.000109878 0)
(1.07582 0.000464289 0)
(1.07569 0.000807286 0)
(1.07554 0.00113816 0)
(1.07534 0.00145627 0)
(1.07511 0.00176104 0)
(1.07485 0.00205194 0)
(1.07455 0.00232854 0)
(1.07422 0.00259048 0)
(1.07385 0.00283749 0)
(1.07345 0.00306938 0)
(1.07302 0.00328605 0)
(1.07256 0.00348748 0)
(1.07206 0.00367376 0)
(1.07154 0.00384504 0)
(1.07099 0.00400158 0)
(1.07041 0.0041437 0)
(1.0698 0.00427181 0)
(1.06917 0.00438637 0)
(1.06852 0.00448788 0)
(1.06784 0.004577 0)
(1.06714 0.00465406 0)
(1.06641 0.00472021 0)
(1.06567 0.00477483 0)
(1.06488 0.00482094 0)
(1.06415 0.004854 0)
(1.06323 0.0048837 0)
(1.06266 0.00489445 0)
(1.06122 0.00490886 0)
(1.06348 -0.01462 0)
(1.06415 -0.0143095 0)
(1.06482 -0.0139881 0)
(1.06548 -0.013656 0)
(1.06614 -0.0133131 0)
(1.06679 -0.0129596 0)
(1.06743 -0.0125957 0)
(1.06807 -0.0122214 0)
(1.06869 -0.0118372 0)
(1.06931 -0.0114433 0)
(1.06991 -0.0110399 0)
(1.0705 -0.0106276 0)
(1.07107 -0.0102066 0)
(1.07163 -0.0097775 0)
(1.07217 -0.00934082 0)
(1.07269 -0.00889711 0)
(1.07319 -0.00844702 0)
(1.07367 -0.0079912 0)
(1.07413 -0.00753038 0)
(1.07457 -0.00706532 0)
(1.07498 -0.00659685 0)
(1.07537 -0.0061258 0)
(1.07573 -0.00565308 0)
(1.07606 -0.00517961 0)
(1.07636 -0.00470635 0)
(1.07663 -0.00423429 0)
(1.07687 -0.00376443 0)
(1.07708 -0.0032978 0)
(1.07725 -0.00283544 0)
(1.0774 -0.00237838 0)
(1.0775 -0.00192767 0)
(1.07758 -0.00148434 0)
(1.07761 -0.0010494 0)
(1.07762 -0.000623841 0)
(1.07758 -0.000208626 0)
(1.07751 0.000195322 0)
(1.07741 0.000587125 0)
(1.07726 0.000965957 0)
(1.07709 0.00133106 0)
(1.07687 0.00168172 0)
(1.07662 0.00201733 0)
(1.07634 0.00233733 0)
(1.07602 0.00264127 0)
(1.07567 0.00292878 0)
(1.07528 0.00319957 0)
(1.07486 0.00345347 0)
(1.07441 0.00369039 0)
(1.07393 0.00391035 0)
(1.07342 0.00411345 0)
(1.07289 0.00429993 0)
(1.07232 0.00447007 0)
(1.07173 0.00462428 0)
(1.07111 0.00476302 0)
(1.07046 0.00488687 0)
(1.0698 0.00499638 0)
(1.06911 0.00509232 0)
(1.0684 0.0051751 0)
(1.06766 0.00524601 0)
(1.06691 0.0053044 0)
(1.06612 0.00535364 0)
(1.06538 0.00538879 0)
(1.06445 0.00542041 0)
(1.06388 0.0054317 0)
(1.06243 0.00544689 0)
(1.06544 -0.016107 0)
(1.06612 -0.0157595 0)
(1.0668 -0.0154 0)
(1.06747 -0.0150287 0)
(1.06814 -0.0146455 0)
(1.0688 -0.0142506 0)
(1.06945 -0.0138443 0)
(1.07009 -0.0134267 0)
(1.07072 -0.0129981 0)
(1.07134 -0.0125589 0)
(1.07195 -0.0121095 0)
(1.07254 -0.0116502 0)
(1.07311 -0.0111817 0)
(1.07367 -0.0107044 0)
(1.07421 -0.0102189 0)
(1.07473 -0.00972594 0)
(1.07523 -0.00922616 0)
(1.0757 -0.00872035 0)
(1.07616 -0.00820933 0)
(1.07658 -0.00769394 0)
(1.07699 -0.00717512 0)
(1.07736 -0.00665382 0)
(1.07771 -0.00613103 0)
(1.07803 -0.00560779 0)
(1.07832 -0.00508518 0)
(1.07857 -0.00456428 0)
(1.0788 -0.00404621 0)
(1.07899 -0.00353211 0)
(1.07915 -0.00302313 0)
(1.07927 -0.0025204 0)
(1.07936 -0.00202507 0)
(1.07941 -0.00153827 0)
(1.07943 -0.00106111 0)
(1.07941 -0.000594661 0)
(1.07935 -0.000139975 0)
(1.07926 0.00030195 0)
(1.07913 0.000730169 0)
(1.07897 0.00114379 0)
(1.07877 0.00154201 0)
(1.07853 0.00192407 0)
(1.07826 0.00228931 0)
(1.07796 0.00263718 0)
(1.07762 0.00296718 0)
(1.07724 0.00327894 0)
(1.07684 0.0035722 0)
(1.0764 0.00384678 0)
(1.07593 0.00410263 0)
(1.07543 0.0043398 0)
(1.0749 0.00455844 0)
(1.07435 0.00475884 0)
(1.07376 0.00494135 0)
(1.07315 0.00510645 0)
(1.07252 0.00525469 0)
(1.07186 0.00538672 0)
(1.07119 0.0055032 0)
(1.07048 0.00560501 0)
(1.06976 0.00569262 0)
(1.06902 0.00576751 0)
(1.06826 0.00582897 0)
(1.06746 0.00588075 0)
(1.06671 0.00591748 0)
(1.06577 0.00595067 0)
(1.0652 0.00596222 0)
(1.06374 0.00597811 0)
(1.06756 -0.0175914 0)
(1.06826 -0.0172056 0)
(1.06895 -0.0168066 0)
(1.06963 -0.0163945 0)
(1.07031 -0.0159696 0)
(1.07098 -0.0155319 0)
(1.07164 -0.0150817 0)
(1.07228 -0.0146193 0)
(1.07292 -0.0141451 0)
(1.07354 -0.0136593 0)
(1.07415 -0.0131625 0)
(1.07474 -0.0126551 0)
(1.07532 -0.0121378 0)
(1.07588 -0.0116111 0)
(1.07641 -0.0110758 0)
(1.07693 -0.0105325 0)
(1.07742 -0.00998213 0)
(1.07789 -0.00942547 0)
(1.07834 -0.00886346 0)
(1.07876 -0.00829707 0)
(1.07915 -0.00772731 0)
(1.07952 -0.00715525 0)
(1.07985 -0.00658201 0)
(1.08016 -0.00600872 0)
(1.08043 -0.00543656 0)
(1.08067 -0.00486675 0)
(1.08088 -0.00430052 0)
(1.08105 -0.0037391 0)
(1.08119 -0.00318374 0)
(1.08129 -0.0026357 0)
(1.08136 -0.00209622 0)
(1.08139 -0.00156652 0)
(1.08138 -0.0010478 0)
(1.08134 -0.000541226 0)
(1.08126 -4.79201e-05 0)
(1.08114 0.000431048 0)
(1.08099 0.000894669 0)
(1.0808 0.001342 0)
(1.08058 0.00177218 0)
(1.08032 0.00218443 0)
(1.08002 0.00257806 0)
(1.07969 0.00295249 0)
(1.07933 0.00330722 0)
(1.07893 0.0036419 0)
(1.0785 0.00395625 0)
(1.07804 0.00425015 0)
(1.07755 0.00452355 0)
(1.07703 0.00477656 0)
(1.07649 0.00500941 0)
(1.07591 0.0052224 0)
(1.07531 0.005416 0)
(1.07469 0.00559076 0)
(1.07404 0.0057473 0)
(1.07337 0.00588639 0)
(1.07268 0.00600878 0)
(1.07196 0.00611546 0)
(1.07123 0.006207 0)
(1.07047 0.00628504 0)
(1.06971 0.00634884 0)
(1.0689 0.00640255 0)
(1.06814 0.00644035 0)
(1.0672 0.00647474 0)
(1.06662 0.00648626 0)
(1.06515 0.00650276 0)
(1.06985 -0.0190745 0)
(1.07056 -0.0186486 0)
(1.07126 -0.0182084 0)
(1.07195 -0.0177541 0)
(1.07264 -0.0172859 0)
(1.07332 -0.0168038 0)
(1.07399 -0.0163082 0)
(1.07464 -0.0157995 0)
(1.07528 -0.015278 0)
(1.07591 -0.0147442 0)
(1.07652 -0.0141986 0)
(1.07711 -0.0136418 0)
(1.07769 -0.0130744 0)
(1.07825 -0.0124971 0)
(1.07878 -0.0119107 0)
(1.07929 -0.011316 0)
(1.07978 -0.010714 0)
(1.08024 -0.0101055 0)
(1.08068 -0.0094917 0)
(1.08109 -0.00887355 0)
(1.08147 -0.00825221 0)
(1.08182 -0.00762886 0)
(1.08214 -0.00700473 0)
(1.08243 -0.00638107 0)
(1.08269 -0.00575917 0)
(1.08291 -0.00514037 0)
(1.0831 -0.00452598 0)
(1.08325 -0.00391738 0)
(1.08336 -0.00331592 0)
(1.08344 -0.00272294 0)
(1.08349 -0.00213979 0)
(1.08349 -0.00156778 0)
(1.08346 -0.00100819 0)
(1.0834 -0.000462286 0)
(1.08329 6.87541e-05 0)
(1.08315 0.000583792 0)
(1.08297 0.00108176 0)
(1.08276 0.00156167 0)
(1.0825 0.00202262 0)
(1.08222 0.00246381 0)
(1.0819 0.00288452 0)
(1.08154 0.00328417 0)
(1.08115 0.00366226 0)
(1.08073 0.00401845 0)
(1.08028 0.00435248 0)
(1.07979 0.00466426 0)
(1.07928 0.00495381 0)
(1.07874 0.00522126 0)
(1.07817 0.00546691 0)
(1.07758 0.00569116 0)
(1.07696 0.00589452 0)
(1.07632 0.00607765 0)
(1.07566 0.00624127 0)
(1.07497 0.00638626 0)
(1.07427 0.00651346 0)
(1.07354 0.006624 0)
(1.0728 0.00671852 0)
(1.07203 0.00679888 0)
(1.07126 0.00686427 0)
(1.07043 0.00691928 0)
(1.06967 0.00695761 0)
(1.06872 0.00699286 0)
(1.06814 0.00700404 0)
(1.06665 0.00702109 0)
(1.07229 -0.0205568 0)
(1.07301 -0.0200892 0)
(1.07373 -0.0196062 0)
(1.07444 -0.0191079 0)
(1.07513 -0.0185946 0)
(1.07582 -0.0180664 0)
(1.0765 -0.0175238 0)
(1.07716 -0.0169671 0)
(1.0778 -0.0163968 0)
(1.07843 -0.0158133 0)
(1.07905 -0.0152174 0)
(1.07964 -0.0146096 0)
(1.08022 -0.0139907 0)
(1.08077 -0.0133614 0)
(1.0813 -0.0127227 0)
(1.08181 -0.0120754 0)
(1.08229 -0.0114207 0)
(1.08274 -0.0107594 0)
(1.08317 -0.0100929 0)
(1.08357 -0.00942216 0)
(1.08394 -0.00874856 0)
(1.08427 -0.00807335 0)
(1.08458 -0.00739787 0)
(1.08485 -0.0067235 0)
(1.08508 -0.00605166 0)
(1.08529 -0.00538376 0)
(1.08545 -0.00472127 0)
(1.08558 -0.00406564 0)
(1.08567 -0.00341834 0)
(1.08573 -0.00278081 0)
(1.08575 -0.0021545 0)
(1.08573 -0.0015408 0)
(1.08567 -0.000941087 0)
(1.08558 -0.000356677 0)
(1.08544 0.000211169 0)
(1.08527 0.000761257 0)
(1.08507 0.00129247 0)
(1.08482 0.00180379 0)
(1.08454 0.00229427 0)
(1.08423 0.00276309 0)
(1.08388 0.00320953 0)
(1.0835 0.003633 0)
(1.08308 0.00403303 0)
(1.08263 0.00440927 0)
(1.08216 0.00476153 0)
(1.08165 0.00508974 0)
(1.08111 0.00539396 0)
(1.08055 0.00567441 0)
(1.07996 0.00593144 0)
(1.07935 0.00616554 0)
(1.07871 0.00637731 0)
(1.07805 0.0065675 0)
(1.07737 0.00673695 0)
(1.07667 0.00688664 0)
(1.07595 0.00701752 0)
(1.07521 0.00713088 0)
(1.07445 0.00722743 0)
(1.07367 0.00730925 0)
(1.07289 0.00737547 0)
(1.07206 0.00743115 0)
(1.07129 0.00746945 0)
(1.07032 0.00750521 0)
(1.06974 0.00751575 0)
(1.06824 0.0075333 0)
(1.07489 -0.0220391 0)
(1.07563 -0.0215279 0)
(1.07636 -0.0210001 0)
(1.07707 -0.020456 0)
(1.07778 -0.0198957 0)
(1.07848 -0.0193196 0)
(1.07916 -0.0187281 0)
(1.07983 -0.0181217 0)
(1.08048 -0.0175008 0)
(1.08111 -0.016866 0)
(1.08173 -0.0162181 0)
(1.08232 -0.0155578 0)
(1.0829 -0.0148858 0)
(1.08345 -0.0142032 0)
(1.08397 -0.0135108 0)
(1.08447 -0.0128097 0)
(1.08495 -0.012101 0)
(1.08539 -0.0113859 0)
(1.08581 -0.0106657 0)
(1.08619 -0.00994162 0)
(1.08654 -0.00921503 0)
(1.08686 -0.00848737 0)
(1.08715 -0.00776008 0)
(1.0874 -0.00703467 0)
(1.08762 -0.00631265 0)
(1.0878 -0.00559559 0)
(1.08794 -0.00488503 0)
(1.08804 -0.00418255 0)
(1.08811 -0.00348972 0)
(1.08814 -0.00280807 0)
(1.08813 -0.00213915 0)
(1.08808 -0.00148442 0)
(1.088 -0.000845352 0)
(1.08787 -0.000223318 0)
(1.08771 0.000380356 0)
(1.08751 0.000964426 0)
(1.08727 0.00152774 0)
(1.087 0.00206922 0)
(1.08669 0.00258794 0)
(1.08634 0.00308304 0)
(1.08597 0.00355381 0)
(1.08555 0.00399966 0)
(1.08511 0.00442015 0)
(1.08463 0.00481496 0)
(1.08413 0.00518394 0)
(1.0836 0.00552706 0)
(1.08303 0.00584446 0)
(1.08245 0.00613642 0)
(1.08184 0.00640337 0)
(1.0812 0.00664589 0)
(1.08054 0.00686469 0)
(1.07986 0.00706061 0)
(1.07917 0.00723461 0)
(1.07845 0.00738779 0)
(1.07771 0.00752122 0)
(1.07696 0.00763633 0)
(1.07619 0.00773393 0)
(1.0754 0.00781634 0)
(1.07461 0.0078826 0)
(1.07377 0.00793833 0)
(1.07299 0.00797605 0)
(1.07201 0.00801198 0)
(1.07143 0.00802155 0)
(1.06991 0.0080396 0)
(1.07764 -0.0235217 0)
(1.07839 -0.0229648 0)
(1.07913 -0.0223903 0)
(1.07987 -0.0217983 0)
(1.08058 -0.0211891 0)
(1.08129 -0.0205631 0)
(1.08198 -0.0199208 0)
(1.08265 -0.0192627 0)
(1.08331 -0.0185893 0)
(1.08395 -0.0179015 0)
(1.08456 -0.0171999 0)
(1.08516 -0.0164853 0)
(1.08573 -0.0157588 0)
(1.08627 -0.0150212 0)
(1.08679 -0.0142738 0)
(1.08729 -0.0135175 0)
(1.08775 -0.0127538 0)
(1.08818 -0.0119837 0)
(1.08858 -0.0112089 0)
(1.08895 -0.0104305 0)
(1.08929 -0.00965024 0)
(1.08959 -0.00886952 0)
(1.08986 -0.00808996 0)
(1.09009 -0.00731317 0)
(1.09028 -0.0065408 0)
(1.09043 -0.0057745 0)
(1.09055 -0.00501596 0)
(1.09063 -0.00426684 0)
(1.09067 -0.00352882 0)
(1.09067 -0.00280352 0)
(1.09063 -0.00209257 0)
(1.09055 -0.00139754 0)
(1.09043 -0.000719933 0)
(1.09028 -6.12078e-05 0)
(1.09008 0.000577263 0)
(1.08985 0.00119419 0)
(1.08958 0.00178839 0)
(1.08928 0.00235877 0)
(1.08893 0.00290436 0)
(1.08856 0.00342434 0)
(1.08815 0.00391798 0)
(1.0877 0.00438473 0)
(1.08723 0.00482416 0)
(1.08673 0.005236 0)
(1.08619 0.00562015 0)
(1.08563 0.00597664 0)
(1.08504 0.00630568 0)
(1.08443 0.00660764 0)
(1.0838 0.00688302 0)
(1.08314 0.00713251 0)
(1.08246 0.00735693 0)
(1.08176 0.00755722 0)
(1.08104 0.00773447 0)
(1.08031 0.0078899 0)
(1.07956 0.00802472 0)
(1.07879 0.00814052 0)
(1.07801 0.00823818 0)
(1.07721 0.0083203 0)
(1.07641 0.00838582 0)
(1.07555 0.00844098 0)
(1.07477 0.00847754 0)
(1.07378 0.00851332 0)
(1.07319 0.0085216 0)
(1.07166 0.00854019 0)
(1.08054 -0.0250045 0)
(1.08131 -0.0243999 0)
(1.08206 -0.0237765 0)
(1.08281 -0.0231345 0)
(1.08354 -0.0224742 0)
(1.08425 -0.0217963 0)
(1.08495 -0.0211011 0)
(1.08563 -0.0203893 0)
(1.08629 -0.0196616 0)
(1.08693 -0.0189188 0)
(1.08754 -0.0181616 0)
(1.08813 -0.0173911 0)
(1.0887 -0.0166083 0)
(1.08924 -0.0158143 0)
(1.08975 -0.0150103 0)
(1.09024 -0.0141976 0)
(1.09069 -0.0133775 0)
(1.09111 -0.0125514 0)
(1.0915 -0.0117209 0)
(1.09185 -0.0108875 0)
(1.09217 -0.0100527 0)
(1.09245 -0.00921838 0)
(1.09269 -0.0083861 0)
(1.0929 -0.00755762 0)
(1.09306 -0.00673472 0)
(1.09319 -0.00591917 0)
(1.09328 -0.00511276 0)
(1.09333 -0.00431726 0)
(1.09334 -0.00353443 0)
(1.09331 -0.002766 0)
(1.09324 -0.00201368 0)
(1.09313 -0.0012791 0)
(1.09298 -0.000563848 0)
(1.09279 0.000130578 0)
(1.09256 0.000802753 0)
(1.09229 0.00145136 0)
(1.09199 0.00207517 0)
(1.09165 0.0026731 0)
(1.09127 0.00324418 0)
(1.09086 0.00378757 0)
(1.09042 0.00430258 0)
(1.08994 0.00478869 0)
(1.08944 0.00524549 0)
(1.0889 0.00567279 0)
(1.08834 0.00607052 0)
(1.08775 0.0064388 0)
(1.08714 0.00677792 0)
(1.0865 0.00708832 0)
(1.08584 0.00737063 0)
(1.08516 0.00762562 0)
(1.08446 0.00785422 0)
(1.08374 0.00805751 0)
(1.083 0.00823669 0)
(1.08225 0.00839315 0)
(1.08148 0.00852819 0)
(1.0807 0.0086436 0)
(1.0799 0.00874033 0)
(1.07909 0.00882129 0)
(1.07828 0.00888528 0)
(1.07741 0.00893923 0)
(1.07662 0.00897407 0)
(1.07562 0.00900941 0)
(1.07503 0.00901607 0)
(1.07349 0.00903528 0)
(1.08359 -0.0264876 0)
(1.08437 -0.0258329 0)
(1.08514 -0.0251583 0)
(1.0859 -0.024464 0)
(1.08664 -0.0237506 0)
(1.08736 -0.0230184 0)
(1.08806 -0.0222682 0)
(1.08875 -0.0215007 0)
(1.08941 -0.0207166 0)
(1.09005 -0.0199167 0)
(1.09066 -0.0191022 0)
(1.09125 -0.0182739 0)
(1.09182 -0.0174332 0)
(1.09235 -0.0165811 0)
(1.09285 -0.0157191 0)
(1.09332 -0.0148484 0)
(1.09376 -0.0139707 0)
(1.09417 -0.0130875 0)
(1.09454 -0.0122003 0)
(1.09487 -0.0113109 0)
(1.09517 -0.010421 0)
(1.09543 -0.00953246 0)
(1.09565 -0.00864703 0)
(1.09583 -0.0077666 0)
(1.09597 -0.00689305 0)
(1.09607 -0.00602826 0)
(1.09612 -0.00517414 0)
(1.09614 -0.00433257 0)
(1.09612 -0.00350538 0)
(1.09605 -0.00269441 0)
(1.09595 -0.00190143 0)
(1.0958 -0.00112814 0)
(1.09562 -0.000376183 0)
(1.09539 0.000352886 0)
(1.09513 0.00105761 0)
(1.09482 0.00173664 0)
(1.09448 0.00238875 0)
(1.09411 0.00301283 0)
(1.0937 0.00360793 0)
(1.09325 0.00417322 0)
(1.09277 0.00470805 0)
(1.09226 0.00521193 0)
(1.09172 0.0056845 0)
(1.09116 0.00612564 0)
(1.09056 0.00653534 0)
(1.08994 0.0069138 0)
(1.0893 0.0072614 0)
(1.08864 0.00757869 0)
(1.08795 0.00786638 0)
(1.08724 0.00812538 0)
(1.08652 0.00835672 0)
(1.08578 0.00856164 0)
(1.08502 0.00874144 0)
(1.08425 0.00889767 0)
(1.08347 0.00903176 0)
(1.08267 0.0091457 0)
(1.08186 0.00924052 0)
(1.08104 0.00931945 0)
(1.08022 0.00938112 0)
(1.07934 0.00943326 0)
(1.07854 0.00946581 0)
(1.07753 0.00950045 0)
(1.07694 0.00950514 0)
(1.07537 0.00952512 0)
(1.08679 -0.0279704 0)
(1.08758 -0.0272633 0)
(1.08836 -0.0265351 0)
(1.08913 -0.0257862 0)
(1.08988 -0.0250172 0)
(1.09061 -0.0242286 0)
(1.09132 -0.0234211 0)
(1.09201 -0.0225956 0)
(1.09267 -0.0217529 0)
(1.09331 -0.0208941 0)
(1.09392 -0.0200201 0)
(1.09451 -0.0191323 0)
(1.09507 -0.0182318 0)
(1.09559 -0.01732 0)
(1.09608 -0.0163984 0)
(1.09654 -0.0154684 0)
(1.09697 -0.0145319 0)
(1.09735 -0.0135903 0)
(1.0977 -0.0126455 0)
(1.09802 -0.0116993 0)
(1.09829 -0.0107536 0)
(1.09852 -0.00981026 0)
(1.09872 -0.0088713 0)
(1.09887 -0.00793868 0)
(1.09898 -0.0070144 0)
(1.09905 -0.00610046 0)
(1.09907 -0.00519887 0)
(1.09906 -0.00431159 0)
(1.099 -0.00344056 0)
(1.0989 -0.0025877 0)
(1.09876 -0.00175483 0)
(1.09857 -0.000943736 0)
(1.09835 -0.000156099 0)
(1.09808 0.000606488 0)
(1.09778 0.00134254 0)
(1.09744 0.00205069 0)
(1.09706 0.0027297 0)
(1.09665 0.00337848 0)
(1.0962 0.00399607 0)
(1.09572 0.00458171 0)
(1.0952 0.00513475 0)
(1.09466 0.00565477 0)
(1.09409 0.00614147 0)
(1.09348 0.00659479 0)
(1.09286 0.00701481 0)
(1.09221 0.00740182 0)
(1.09154 0.00775629 0)
(1.09084 0.00807888 0)
(1.09013 0.00837042 0)
(1.0894 0.00863192 0)
(1.08865 0.00886457 0)
(1.08789 0.00906972 0)
(1.08711 0.00924883 0)
(1.08632 0.00940358 0)
(1.08552 0.00953557 0)
(1.08471 0.00964698 0)
(1.08389 0.0097389 0)
(1.08305 0.00981493 0)
(1.08221 0.0098735 0)
(1.08132 0.00992324 0)
(1.08052 0.00995293 0)
(1.07949 0.00998665 0)
(1.0789 0.00998902 0)
(1.07732 0.01001 0)
(1.09012 -0.0294526 0)
(1.09093 -0.0286905 0)
(1.09173 -0.0279062 0)
(1.0925 -0.0271001 0)
(1.09326 -0.026273 0)
(1.094 -0.0254255 0)
(1.09471 -0.0245585 0)
(1.09541 -0.0236727 0)
(1.09607 -0.0227693 0)
(1.09671 -0.0218493 0)
(1.09732 -0.0209139 0)
(1.0979 -0.0199645 0)
(1.09845 -0.0190025 0)
(1.09896 -0.0180293 0)
(1.09944 -0.0170466 0)
(1.09988 -0.016056 0)
(1.10029 -0.0150592 0)
(1.10066 -0.0140582 0)
(1.10099 -0.0130548 0)
(1.10128 -0.012051 0)
(1.10153 -0.0110488 0)
(1.10173 -0.0100502 0)
(1.1019 -0.00905742 0)
(1.10202 -0.00807245 0)
(1.1021 -0.00709743 0)
(1.10213 -0.00613448 0)
(1.10212 -0.00518571 0)
(1.10207 -0.00425317 0)
(1.10197 -0.0033389 0)
(1.10183 -0.00244486 0)
(1.10165 -0.00157297 0)
(1.10143 -0.000725052 0)
(1.10117 9.71739e-05 0)