/*--------------------------------*- C++ -*----------------------------------*\
  =========                 |
  \\      /  F ield         | OpenFOAM: The Open Source CFD Toolbox
   \\    /   O peration     | Website:  https://openfoam.org
    \\  /    A nd           | Version:  7
     \\/     M anipulation  |
\*---------------------------------------------------------------------------*/
FoamFile
{
    version     2.0;
    format      ascii;
    class       volVectorField;
    location    "1";
    object      U;
}
// * * * * * * * * * * * * * * * * * * * * * * * * * * * * * * * * * * * * * //

dimensions      [0 1 -1 0 0 0 0];

internalField   nonuniform List<vector> 
435
(
(1.13516 -0.0460259 0)
(1.12867 -0.0535694 0)
(1.12154 -0.0603595 0)
(1.11363 -0.0662623 0)
(1.10511 -0.0711692 0)
(1.09618 -0.0750135 0)
(1.08704 -0.0777634 0)
(1.07784 -0.0794178 0)
(1.06878 -0.0800035 0)
(1.06 -0.0795741 0)
(1.05165 -0.0782104 0)
(1.04385 -0.0760192 0)
(1.0367 -0.0731283 0)
(1.03024 -0.0696773 0)
(1.0245 -0.0658074 0)
(1.0195 -0.0616533 0)
(1.0152 -0.0573366 0)
(1.13474 -0.024291 0)
(1.13092 -0.0319438 0)
(1.12581 -0.0392339 0)
(1.12037 -0.0460169 0)
(1.11435 -0.0522072 0)
(1.10763 -0.0576885 0)
(1.10034 -0.0623619 0)
(1.09263 -0.0661598 0)
(1.08465 -0.0690407 0)
(1.07655 -0.0709866 0)
(1.06847 -0.072002 0)
(1.06056 -0.0721142 0)
(1.05294 -0.0713759 0)
(1.04572 -0.0698642 0)
(1.03901 -0.0676776 0)
(1.03286 -0.0649291 0)
(1.02731 -0.0617372 0)
(1.0224 -0.0582188 0)
(1.0181 -0.0544835 0)
(1.12456 -0.0201488 0)
(1.1214 -0.0268845 0)
(1.11715 -0.0333582 0)
(1.11258 -0.0394418 0)
(1.10752 -0.045062 0)
(1.10182 -0.0501185 0)
(1.09559 -0.0545228 0)
(1.08895 -0.0582096 0)
(1.08201 -0.0611329 0)
(1.0749 -0.0632638 0)
(1.06773 -0.0645914 0)
(1.06063 -0.065124 0)
(1.05372 -0.0648918 0)
(1.04709 -0.0639479 0)
(1.04084 -0.0623659 0)
(1.03504 -0.0602345 0)
(1.02973 -0.0576511 0)
(1.02495 -0.0547152 0)
(1.0207 -0.051523 0)
(1.11528 -0.0166154 0)
(1.11268 -0.0225402 0)
(1.10914 -0.0282812 0)
(1.10532 -0.0337249 0)
(1.10106 -0.0388086 0)
(1.09623 -0.0434465 0)
(1.09092 -0.0475607 0)
(1.08521 -0.05109 0)
(1.0792 -0.053987 0)
(1.07297 -0.0562173 0)
(1.06664 -0.0577595 0)
(1.06031 -0.0586085 0)
(1.05407 -0.0587775 0)
(1.04801 -0.0583003 0)
(1.04224 -0.0572295 0)
(1.0368 -0.0556331 0)
(1.03177 -0.053589 0)
(1.02716 -0.0511798 0)
(1.02301 -0.0484885 0)
(1.10684 -0.0136061 0)
(1.10469 -0.0188146 0)
(1.10175 -0.0238995 0)
(1.09855 -0.0287602 0)
(1.09497 -0.0333432 0)
(1.0909 -0.0375758 0)
(1.08637 -0.0413899 0)
(1.08147 -0.0447296 0)
(1.07628 -0.047549 0)
(1.07085 -0.0498107 0)
(1.06528 -0.0514875 0)
(1.05965 -0.0525648 0)
(1.05404 -0.0530438 0)
(1.04855 -0.0529428 0)
(1.04324 -0.0522976 0)
(1.03819 -0.0511584 0)
(1.03345 -0.0495859 0)
(1.02906 -0.0476472 0)
(1.02504 -0.045412 0)
(1.09916 -0.0110481 0)
(1.09739 -0.0156244 0)
(1.09494 -0.0201227 0)
(1.09228 -0.024454 0)
(1.08927 -0.028573 0)
(1.08583 -0.0324181 0)
(1.08199 -0.0359305 0)
(1.07779 -0.0390604 0)
(1.07331 -0.0417642 0)
(1.06859 -0.0440045 0)
(1.06371 -0.0457511 0)
(1.05872 -0.0469834 0)
(1.05371 -0.0476938 0)
(1.04875 -0.0478893 0)
(1.0439 -0.0475922 0)
(1.03923 -0.0468378 0)
(1.0348 -0.0456721 0)
(1.03065 -0.044148 0)
(1.0268 -0.0423231 0)
(1.09217 -0.00887926 0)
(1.09071 -0.0128975 0)
(1.08869 -0.0168718 0)
(1.08647 -0.0207238 0)
(1.08395 -0.024415 0)
(1.08105 -0.0278934 0)
(1.07779 -0.0311089 0)
(1.0742 -0.0340175 0)
(1.07035 -0.0365792 0)
(1.06625 -0.0387579 0)
(1.06198 -0.0405225 0)
(1.05758 -0.0418492 0)
(1.05312 -0.0427244 0)
(1.04866 -0.0431471 0)
(1.04426 -0.0431288 0)
(1.03997 -0.0426929 0)
(1.03585 -0.0418728 0)
(1.03195 -0.0407093 0)
(1.02829 -0.0392485 0)
(1.08582 -0.00704612 0)
(1.08463 -0.0105717 0)
(1.08296 -0.0140783 0)
(1.08111 -0.0174972 0)
(1.079 -0.0207954 0)
(1.07656 -0.0239298 0)
(1.07379 -0.0268575 0)
(1.07074 -0.0295402 0)
(1.06742 -0.0319421 0)
(1.06388 -0.0340294 0)
(1.06015 -0.0357714 0)
(1.05629 -0.0371432 0)
(1.05233 -0.0381276 0)
(1.04833 -0.0387176 0)
(1.04435 -0.0389169 0)
(1.04044 -0.0387395 0)
(1.03664 -0.0382084 0)
(1.03299 -0.0373539 0)
(1.02954 -0.036212 0)
(1.08006 -0.00550325 0)
(1.07908 -0.00859341 0)
(1.07771 -0.0116827 0)
(1.07617 -0.0147105 0)
(1.07441 -0.0176492 0)
(1.07236 -0.0204625 0)
(1.07002 -0.0231144 0)
(1.06741 -0.0255719 0)
(1.06457 -0.0278034 0)
(1.06151 -0.0297777 0)
(1.05827 -0.031466 0)
(1.05488 -0.0328433 0)
(1.05138 -0.0338906 0)
(1.04781 -0.0345972 0)
(1.04423 -0.0349608 0)
(1.04067 -0.0349883 0)
(1.03718 -0.0346944 0)
(1.0338 -0.0341005 0)
(1.03055 -0.033234 0)
(1.07484 -0.00421176 0)
(1.07404 -0.00691667 0)
(1.07291 -0.00963318 0)
(1.07164 -0.0123083 0)
(1.07017 -0.0149185 0)
(1.06845 -0.0174337 0)
(1.06647 -0.0198237 0)
(1.06425 -0.0220604 0)
(1.06182 -0.024116 0)
(1.05918 -0.0259627 0)
(1.05637 -0.0275739 0)
(1.0534 -0.0289254 0)
(1.05031 -0.0299979 0)
(1.04715 -0.0307782 0)
(1.04393 -0.0312602 0)
(1.04071 -0.0314454 0)
(1.03752 -0.0313418 0)
(1.03439 -0.0309638 0)
(1.03137 -0.0303314 0)
(1.07011 -0.00313856 0)
(1.06946 -0.00550197 0)
(1.06854 -0.00788522 0)
(1.06749 -0.0102421 0)
(1.06627 -0.0125526 0)
(1.06482 -0.0147918 0)
(1.06315 -0.0169346 0)
(1.06127 -0.0189573 0)
(1.05919 -0.0208358 0)
(1.05692 -0.0225456 0)
(1.05448 -0.0240624 0)
(1.05189 -0.025364 0)
(1.04917 -0.0264311 0)
(1.04636 -0.0272495 0)
(1.04349 -0.0278108 0)
(1.04058 -0.0281123 0)
(1.03767 -0.0281573 0)
(1.0348 -0.0279545 0)
(1.03199 -0.0275177 0)
(1.06583 -0.00225536 0)
(1.06531 -0.00431525 0)
(1.06457 -0.00639997 0)
(1.0637 -0.00846934 0)
(1.06268 -0.0105065 0)
(1.06147 -0.0124908 0)
(1.06007 -0.0144014 0)
(1.05847 -0.0162185 0)
(1.05669 -0.0179215 0)
(1.05474 -0.0194891 0)
(1.05263 -0.0208996 0)
(1.05037 -0.0221326 0)
(1.04799 -0.02317 0)
(1.0455 -0.0239974 0)
(1.04293 -0.0246048 0)
(1.04032 -0.024987 0)
(1.03768 -0.0251438 0)
(1.03505 -0.0250793 0)
(1.03245 -0.0248026 0)
(1.06198 -0.00153806 0)
(1.06157 -0.00332725 0)
(1.06097 -0.00514384 0)
(1.06026 -0.00695305 0)
(1.05941 -0.00874062 0)
(1.0584 -0.0104896 0)
(1.05722 -0.0121827 0)
(1.05587 -0.0138036 0)
(1.05435 -0.0153348 0)
(1.05267 -0.0167579 0)
(1.05085 -0.0180539 0)
(1.04888 -0.0192045 0)
(1.04679 -0.0201931 0)
(1.04459 -0.0210056 0)
(1.0423 -0.0216315 0)
(1.03995 -0.0220641 0)
(1.03756 -0.0223004 0)
(1.03516 -0.0223416 0)
(1.03276 -0.0221927 0)
(1.05853 -0.000965889 0)
(1.0582 -0.00251272 0)
(1.05772 -0.00408766 0)
(1.05714 -0.00566077 0)
(1.05645 -0.00722004 0)
(1.0556 -0.00875155 0)
(1.05461 -0.0102413 0)
(1.05346 -0.0116756 0)
(1.05217 -0.0130399 0)
(1.05073 -0.0143184 0)
(1.04915 -0.0154949 0)
(1.04743 -0.0165531 0)
(1.0456 -0.017478 0)
(1.04366 -0.0182565 0)
(1.04162 -0.018878 0)
(1.03952 -0.0193351 0)
(1.03735 -0.0196232 0)
(1.03516 -0.0197411 0)
(1.03295 -0.019691 0)
(1.05545 -0.000521085 0)
(1.05519 -0.00184975 0)
(1.05481 -0.00320586 0)
(1.05434 -0.00456385 0)
(1.05377 -0.00591365 0)
(1.05307 -0.0072439 0)
(1.05223 -0.00854323 0)
(1.05126 -0.00980043 0)
(1.05016 -0.0110034 0)
(1.04892 -0.0121389 0)
(1.04755 -0.013193 0)
(1.04606 -0.0141516 0)
(1.04445 -0.0150015 0)
(1.04273 -0.0157307 0)
(1.04092 -0.0163291 0)
(1.03903 -0.016789 0)
(1.03708 -0.017105 0)
(1.03508 -0.0172745 0)
(1.03305 -0.0172974 0)
(1.05272 -0.000187759 0)
(1.05252 -0.00131882 0)
(1.05223 -0.00247573 0)
(1.05185 -0.00363677 0)
(1.05138 -0.00479356 0)
(1.0508 -0.00593692 0)
(1.05009 -0.00705768 0)
(1.04927 -0.00814677 0)
(1.04832 -0.00919425 0)
(1.04726 -0.0101891 0)
(1.04607 -0.0111196 0)
(1.04477 -0.0119737 0)
(1.04335 -0.0127399 0)
(1.04183 -0.0134077 0)
(1.04022 -0.0139677 0)
(1.03852 -0.0144124 0)
(1.03675 -0.0147361 0)
(1.03493 -0.0149353 0)
(1.03306 -0.0150086 0)
(1.05033 4.74848e-05 0)
(1.05018 -0.000903218 0)
(1.04996 -0.00187735 0)
(1.04965 -0.00285678 0)
(1.04927 -0.00383463 0)
(1.04878 -0.00480355 0)
(1.04819 -0.00575623 0)
(1.04749 -0.00668539 0)
(1.04668 -0.00758299 0)
(1.04576 -0.00843999 0)
(1.04472 -0.00924664 0)
(1.04358 -0.00999294 0)
(1.04233 -0.0106691 0)
(1.04098 -0.0112658 0)
(1.03954 -0.011775 0)
(1.03801 -0.0121895 0)
(1.0364 -0.0125039 0)
(1.03473 -0.0127141 0)
(1.03302 -0.0128182 0)
(1.04826 0.000196788 0)
(1.04816 -0.000587642 0)
(1.04799 -0.00139251 0)
(1.04775 -0.00220308 0)
(1.04743 -0.00301377 0)
(1.04703 -0.00381876 0)
(1.04653 -0.00461231 0)
(1.04593 -0.0053887 0)
(1.04523 -0.0061415 0)
(1.04443 -0.00686346 0)
(1.04352 -0.00754666 0)
(1.04251 -0.00818288 0)
(1.04141 -0.00876397 0)
(1.0402 -0.00928219 0)
(1.0389 -0.00973045 0)
(1.03751 -0.0101025 0)
(1.03605 -0.0103933 0)
(1.03452 -0.0105988 0)
(1.03293 -0.0107166 0)
(1.04652 0.000272509 0)
(1.04645 -0.000357002 0)
(1.04633 -0.00100369 0)
(1.04614 -0.00165578 0)
(1.04588 -0.0023089 0)
(1.04554 -0.00295857 0)
(1.04511 -0.00360039 0)
(1.04459 -0.00422997 0)
(1.04398 -0.00484233 0)
(1.04328 -0.00543176 0)
(1.04248 -0.00599201 0)
(1.04158 -0.00651655 0)
(1.04059 -0.00699881 0)
(1.0395 -0.00743247 0)
(1.03832 -0.00781168 0)
(1.03706 -0.00813118 0)
(1.03572 -0.00838648 0)
(1.0343 -0.00857401 0)
(1.03283 -0.00869125 0)
(1.0451 0.00028463 0)
(1.04505 -0.000198486 0)
(1.04497 -0.000695215 0)
(1.04482 -0.0011966 0)
(1.0446 -0.00169934 0)
(1.04431 -0.00220015 0)
(1.04394 -0.00269582 0)
(1.04349 -0.0031831 0)
(1.04295 -0.00365827 0)
(1.04233 -0.00411704 0)
(1.04161 -0.00455465 0)
(1.0408 -0.0049661 0)
(1.0399 -0.00534635 0)
(1.03891 -0.00569051 0)
(1.03783 -0.00599398 0)
(1.03666 -0.00625258 0)
(1.03542 -0.00646265 0)
(1.0341 -0.00662119 0)
(1.03271 -0.00672594 0)
(1.04401 0.000246857 0)
(1.04398 -9.61186e-05 0)
(1.04392 -0.000448917 0)
(1.0438 -0.000805206 0)
(1.04362 -0.00116272 0)
(1.04337 -0.00151924 0)
(1.04304 -0.00187263 0)
(1.04264 -0.00222066 0)
(1.04215 -0.00256076 0)
(1.04159 -0.0028899 0)
(1.04093 -0.00320471 0)
(1.04019 -0.00350163 0)
(1.03936 -0.00377706 0)
(1.03844 -0.00402752 0)
(1.03743 -0.00424971 0)
(1.03634 -0.0044406 0)
(1.03517 -0.0045975 0)
(1.03393 -0.00471814 0)
(1.03261 -0.00480077 0)
(1.04325 0.000164449 0)
(1.04324 -4.09705e-05 0)
(1.0432 -0.000252243 0)
(1.0431 -0.000465649 0)
(1.04294 -0.000679934 0)
(1.04271 -0.000893883 0)
(1.04242 -0.0011063 0)
(1.04205 -0.00131591 0)
(1.0416 -0.00152116 0)
(1.04107 -0.00172021 0)
(1.04046 -0.00191095 0)
(1.03976 -0.00209121 0)
(1.03898 -0.0022588 0)
(1.03811 -0.00241162 0)
(1.03715 -0.00254771 0)
(1.03611 -0.00266526 0)
(1.03499 -0.00276262 0)
(1.0338 -0.00283839 0)
(1.03253 -0.00289144 0)
(1.04286 6.42367e-05 0)
(1.04285 -6.34378e-06 0)
(1.04282 -7.82788e-05 0)
(1.04273 -0.00015041 0)
(1.04258 -0.000222478 0)
(1.04237 -0.000294258 0)
(1.04209 -0.000365511 0)
(1.04174 -0.000435918 0)
(1.04131 -0.000504994 0)
(1.0408 -0.000572091 0)
(1.04021 -0.000636452 0)
(1.03954 -0.000697295 0)
(1.03878 -0.000753866 0)
(1.03793 -0.00080547 0)
(1.037 -0.000851473 0)
(1.03599 -0.000891289 0)
(1.0349 -0.000924386 0)
(1.03373 -0.000950296 0)
(1.03249 -0.000968634 0)
)
;

boundaryField
{
    inlet
    {
        type            uniformFixedValue;
        uniformValue    constant (1 0 0);
        value           nonuniform 0();
    }
    outlet
    {
        type            pressureInletOutletVelocity;
        value           nonuniform 0();
    }
    cylinder
    {
        type            fixedValue;
        value           nonuniform 0();
    }
    top
    {
        type            symmetryPlane;
    }
    bottom
    {
        type            symmetryPlane;
    }
    defaultFaces
    {
        type            empty;
    }
    procBoundary34to28
    {
        type            processor;
        value           nonuniform List<vector> 
20
(
(1.14522 -0.053868 0)
(1.1375 -0.0622333 0)
(1.12905 -0.0696464 0)
(1.11975 -0.0759543 0)
(1.10983 -0.0810407 0)
(1.09952 -0.0848443 0)
(1.08907 -0.0873502 0)
(1.07868 -0.0885827 0)
(1.06855 -0.0885995 0)
(1.05887 -0.0874885 0)
(1.04979 -0.085366 0)
(1.04143 -0.082374 0)
(1.03386 -0.0786735 0)
(1.02715 -0.0744332 0)
(1.02128 -0.0698178 0)
(1.01625 -0.0649785 0)
(1.01202 -0.0600475 0)
(1.14591 -0.0291404 0)
(1.14128 -0.0378289 0)
(1.14128 -0.0378289 0)
)
;
    }
    procBoundary34to29
    {
        type            processor;
        value           nonuniform List<vector> 3((1.01157 -0.0529629 0) (1.01439 -0.0506296 0) (1.01698 -0.0481639 0));
    }
    procBoundary34to33
    {
        type            processor;
        value           nonuniform List<vector> 
22
(
(1.1347 -0.0188535 6.0858e-20)
(1.12447 -0.015382 6.60147e-20)
(1.11517 -0.0124369 1.99733e-19)
(1.1067 -0.0099435 -1.23078e-19)
(1.09901 -0.00783812 -5.6962e-20)
(1.09202 -0.0060664 -1.33954e-20)
(1.08567 -0.00458216 1.43039e-20)
(1.07991 -0.00334623 2.97855e-20)
(1.0747 -0.00232525 -2.78628e-20)
(1.06997 -0.00149105 3.47239e-20)
(1.06571 -0.000819704 -2.47007e-20)
(1.06187 -0.00029087 3.5876e-21)
(1.05842 0.000112831 -1.29814e-20)
(1.05534 0.000406191 -3.58142e-22)
(1.05262 0.00060234 7.64623e-21)
(1.05023 0.000712394 -1.11753e-21)
(1.04817 0.000746352 3.54397e-21)
(1.04644 0.000714361 -2.81728e-21)
(1.04502 0.000624438 -1.47036e-22)
(1.04393 0.000488508 5.8226e-22)
(1.04318 0.000309599 -5.08899e-22)
(1.04279 0.000114689 3.30019e-22)
)
;
    }
    procBoundary34to35
    {
        type            processor;
        value           nonuniform List<vector> 
20
(
(1.01933 -0.0455945 0)
(1.02142 -0.0429496 0)
(1.02328 -0.0402561 0)
(1.0249 -0.0375394 0)
(1.0263 -0.0348226 0)
(1.02748 -0.0321264 0)
(1.02846 -0.0294689 0)
(1.02927 -0.0268649 0)
(1.0299 -0.0243265 0)
(1.03039 -0.0218623 0)
(1.03076 -0.0194782 0)
(1.03101 -0.0171767 0)
(1.03117 -0.014957 0)
(1.03126 -0.0128157 0)
(1.0313 -0.0107457 0)
(1.0313 -0.00873686 0)
(1.03127 -0.00677555 0)
(1.03124 -0.00484422 0)
(1.0312 -0.002921 0)
(1.03118 -0.000979127 0)
)
;
    }
}


// ************************************************************************* //
