/*--------------------------------*- C++ -*----------------------------------*\
  =========                 |
  \\      /  F ield         | OpenFOAM: The Open Source CFD Toolbox
   \\    /   O peration     | Website:  https://openfoam.org
    \\  /    A nd           | Version:  7
     \\/     M anipulation  |
\*---------------------------------------------------------------------------*/
FoamFile
{
    version     2.0;
    format      ascii;
    class       volVectorField;
    location    "6";
    object      U;
}
// * * * * * * * * * * * * * * * * * * * * * * * * * * * * * * * * * * * * * //

dimensions      [0 1 -1 0 0 0 0];

internalField   nonuniform List<vector> 
5600
(
(-0.00398403 0.00135145 -1.80223e-20)
(-0.0149179 0.00201386 -2.73254e-20)
(-0.0281003 0.00179518 1.41871e-21)
(-0.0366775 0.00110455 2.46083e-20)
(-0.0403964 0.000183547 1.27833e-21)
(-0.0383501 -0.000852929 1.89084e-20)
(-0.0307375 -0.00193429 -1.8597e-20)
(-0.0172009 -0.00301791 -2.44986e-21)
(0.000231434 -0.00391205 -3.84542e-20)
(0.0240435 -0.00473359 -1.13362e-20)
(-0.00413556 0.00402119 6.73112e-20)
(-0.014911 0.00598206 -3.14654e-20)
(-0.0275931 0.00532081 1.07302e-19)
(-0.0355009 0.00325302 -2.78669e-20)
(-0.0384065 0.000500668 -1.69006e-20)
(-0.0354351 -0.00259372 2.2308e-21)
(-0.0268048 -0.00581931 4.07062e-21)
(-0.0121214 -0.00904852 2.79023e-20)
(0.0064259 -0.0117228 5.35868e-20)
(0.031925 -0.0141408 9.98778e-21)
(-0.00443058 0.00659235 -2.08109e-20)
(-0.0148836 0.00977311 4.75395e-20)
(-0.0265656 0.00865375 -1.23705e-19)
(-0.0331379 0.00522119 -4.49479e-20)
(-0.0344225 0.000669441 1.41494e-19)
(-0.0296081 -0.00443836 -5.26449e-20)
(-0.0189533 -0.00975769 -1.05487e-19)
(-0.00199574 -0.015065 -2.59636e-20)
(0.0187585 -0.0194859 -4.72642e-20)
(0.0475983 -0.0233635 3.71979e-20)
(-0.00485322 0.00900219 7.30346e-21)
(-0.0148089 0.0132737 -8.22743e-20)
(-0.0249922 0.0116707 5.51303e-20)
(-0.0295685 0.00689404 2.77889e-20)
(-0.0284353 0.000596027 -2.66819e-19)
(-0.0208769 -0.00645252 2.09882e-20)
(-0.00720903 -0.0137954 1.7914e-19)
(0.0131149 -0.0210484 1.55113e-19)
(0.0371203 -0.0271581 1.27404e-19)
(0.0708824 -0.0322696 1.05967e-19)
(-0.0053802 0.0111923 -1.29047e-20)
(-0.0146472 0.0163777 -2.47178e-20)
(-0.0228341 0.0142561 1.0694e-19)
(-0.0247627 0.00816428 -1.71002e-20)
(-0.0204307 0.000194303 1.27907e-20)
(-0.009255 -0.00869198 7.28669e-20)
(0.00838819 -0.0179359 3.6086e-20)
(0.0331317 -0.0269948 -2.30839e-19)
(0.0613518 -0.0346986 -4.36357e-20)
(0.101507 -0.0407201 -2.10896e-19)
(-0.00598148 0.01311 -7.707e-21)
(-0.0143465 0.0189883 1.70647e-19)
(-0.0200398 0.0163048 -1.64627e-19)
(-0.0186792 0.00893542 3.31426e-20)
(-0.0103869 -0.000611051 -1.58358e-19)
(0.0052535 -0.0112004 2.62668e-19)
(0.027778 -0.0221723 -7.43433e-20)
(0.0579347 -0.0328853 1.18789e-19)
(0.0912606 -0.0420582 -5.67513e-20)
(0.139119 -0.0485664 -1.21546e-19)
(-0.006621 0.0147098 8.18604e-20)
(-0.013843 0.0210209 -1.67721e-19)
(-0.0165453 0.0177253 2.19154e-20)
(-0.0112654 0.00912479 1.81414e-19)
(0.00172532 -0.00188165 1.49385e-19)
(0.0226429 -0.0140109 -1.1426e-19)
(0.050902 -0.0265171 1.75244e-19)
(0.0873812 -0.0386555 1.08328e-20)
(0.12661 -0.0491692 1.9744e-19)
(0.183283 -0.0556493 8.20542e-20)
(-0.00725756 0.0159543 -1.75321e-19)
(-0.0130626 0.0224046 1.34321e-19)
(-0.0122741 0.0184417 -4.91352e-20)
(-0.00245692 0.00866655 -5.15572e-20)
(0.015944 -0.00366205 -1.16941e-19)
(0.042909 -0.0171385 -2.36439e-19)
(0.0776962 -0.0309525 2.25911e-20)
(0.12131 -0.0442337 -2.15911e-20)
(0.167126 -0.0559457 -1.46277e-19)
(0.233477 -0.0617997 6.3739e-20)
(-0.00784586 0.0168148 9.64386e-20)
(-0.0119212 0.023084 -3.3065e-19)
(-0.00713783 0.0183969 3.8916e-19)
(0.00782237 0.00751459 -8.4558e-20)
(0.0323164 -0.00597649 2.21756e-19)
(0.0660512 -0.020577 1.78159e-19)
(0.108091 -0.035435 -3.29402e-19)
(0.159539 -0.0495297 3.87085e-19)
(0.212504 -0.0622785 4.43962e-20)
(0.289097 -0.0668411 1.93049e-19)
(-0.00833706 0.0172709 1.84431e-19)
(-0.0103271 0.0230214 5.95148e-19)
(-0.00103732 0.0175539 -4.14525e-19)
(0.0196599 0.00564517 -6.31474e-22)
(0.0508989 -0.00882575 9.10891e-20)
(0.0920724 -0.0242965 1.55068e-19)
(0.142009 -0.0398974 1.41073e-19)
(0.20186 -0.0544299 -6.1142e-19)
(0.262407 -0.0680299 -2.17496e-19)
(0.349448 -0.0705936 7.10166e-21)
(-0.00867848 0.0173092 -2.79774e-19)
(-0.00818194 0.022199 -2.14156e-19)
(0.00613613 0.015898 2.78347e-19)
(0.0331532 0.00305932 2.22412e-19)
(0.0717556 -0.0121844 -1.88463e-19)
(0.120977 -0.0282409 2.25234e-19)
(0.179369 -0.0442466 -7.11845e-20)
(0.248038 -0.0587976 -6.92271e-20)
(0.316461 -0.0730305 -1.27336e-19)
(0.413742 -0.0728798 -2.11115e-20)
(-0.00881684 0.0169308 -4.10049e-20)
(-0.00537914 0.0206132 -6.03264e-19)
(0.0144986 0.0134377 -1.39271e-19)
(0.0484083 -0.000215141 -2.09124e-19)
(0.094956 -0.0159984 1.07389e-19)
(0.152767 -0.0323255 -7.79312e-20)
(0.22007 -0.0483624 -3.16888e-19)
(0.2978 -0.0624763 2.70067e-19)
(0.374246 -0.0770781 3.08193e-19)
(0.481095 -0.0735332 -1.9383e-19)
(-0.00870111 0.0161455 4.4135e-20)
(-0.00180969 0.0182776 9.3142e-19)
(0.0241737 0.0102064 -2.2455e-19)
(0.0655363 -0.00412213 3.47668e-19)
(0.120571 -0.0201838 1.20125e-19)
(0.187438 -0.0364366 2.24651e-19)
(0.263993 -0.0520973 -6.55926e-20)
(0.350831 -0.0652959 -1.85554e-19)
(0.435287 -0.0799413 -1.89088e-19)
(0.550522 -0.0724102 2.63022e-19)
(-0.00827705 0.0149661 7.68982e-19)
(0.00263601 0.0152289 -9.30513e-19)
(0.0352877 0.0062624 -2.715e-19)
(0.0846501 -0.00857652 -3.95566e-21)
(0.148666 -0.0246255 1.58693e-19)
(0.224967 -0.0404312 -4.69568e-20)
(0.310985 -0.0552792 6.10672e-19)
(0.40676 -0.0670805 5.76494e-19)
(0.499043 -0.0813668 2.79019e-19)
(0.620952 -0.0694059 2.22918e-19)
(-0.00749101 0.0134143 -9.29915e-20)
(0.00806865 0.0115208 1.55303e-19)
(0.0479666 0.00168884 7.17662e-19)
(0.105859 -0.0134642 -1.30439e-19)
(0.179296 -0.0291786 -6.76461e-19)
(0.265308 -0.0441391 -6.80355e-19)
(0.36085 -0.0577157 -2.02589e-20)
(0.465161 -0.0676595 -7.65694e-19)
(0.564893 -0.0810935 -2.68174e-19)
(0.691237 -0.0644818 -4.90064e-19)
(-0.00629066 0.0115195 -5.96198e-19)
(0.0145975 0.00722374 3.0499e-19)
(0.062333 -0.00340714 -4.50468e-19)
(0.129264 -0.0186428 -3.6526e-19)
(0.212496 -0.0336697 8.39395e-19)
(0.308382 -0.0473668 5.14036e-20)
(0.413333 -0.059201 -3.65063e-19)
(0.525541 -0.066878 1.38272e-19)
(0.632136 -0.0788697 1.66259e-19)
(0.760187 -0.0576915 1.90011e-19)
(-0.00462509 0.00931706 -1.14401e-19)
(0.0223279 0.00242453 -2.19062e-19)
(0.0785016 -0.00889533 -1.66404e-19)
(0.154949 -0.023944 9.47094e-20)
(0.248273 -0.0379006 -9.75832e-19)
(0.354061 -0.0499031 1.64203e-19)
(0.468114 -0.0595262 2.21484e-19)
(0.587346 -0.0646084 4.92306e-19)
(0.699982 -0.0744557 2.65142e-20)
(0.826566 -0.0491501 1.09346e-19)
(-0.00244525 0.00684819 2.18761e-19)
(0.0313588 -0.00277467 2.23025e-19)
(0.0965745 -0.0146243 4.21601e-19)
(0.182977 -0.0291761 1.63939e-19)
(0.286594 -0.0416534 6.39072e-19)
(0.402162 -0.0515266 -2.36449e-19)
(0.5248 -0.0584934 -2.76954e-19)
(0.649976 -0.0607604 -1.42945e-20)
(0.76756 -0.0675989 1.25363e-19)
(0.889078 -0.0389794 -2.25603e-19)
(0.000295576 0.00415897 2.57584e-19)
(0.0417807 -0.00825764 5.88592e-19)
(0.116637 -0.0204237 3.46295e-19)
(0.213378 -0.0341281 -2.88553e-20)
(0.32738 -0.0446972 4.25106e-19)
(0.452441 -0.0520155 8.66867e-19)
(0.582921 -0.0559342 3.26682e-19)
(0.712821 -0.0552842 -3.21739e-19)
(0.833997 -0.0580604 -5.03016e-19)
(0.946661 -0.0278047 -2.18084e-19)
(0.00364122 0.0013002 2.20569e-19)
(0.0536727 -0.0138955 -6.46619e-19)
(0.138752 -0.026107 -5.33617e-19)
(0.246148 -0.0385745 -2.37154e-19)
(0.370497 -0.0467949 -6.81108e-19)
(0.504579 -0.0511578 -2.18109e-19)
(0.641931 -0.0517235 -2.9399e-19)
(0.775251 -0.0481606 1.18812e-19)
(0.898515 -0.0459243 1.24087e-20)
(0.999788 -0.0183305 -5.04962e-20)
(0.00763199 -0.00167297 -3.20311e-19)
(0.0671002 -0.0195483 2.0054e-19)
(0.162955 -0.0314752 4.08221e-19)
(0.281238 -0.0422813 4.18622e-19)
(0.41575 -0.0477118 6.38184e-19)
(0.558184 -0.0487605 2.18928e-19)
(0.701211 -0.04578 -3.19665e-19)
(0.836529 -0.0393981 -1.20189e-19)
(0.960049 -0.0321378 6.49364e-19)
(1.05229 -0.0141854 6.4806e-19)
(0.0123039 -0.00470134 -1.50866e-19)
(0.0821122 -0.0250668 -1.04766e-19)
(0.189253 -0.0363201 -9.42421e-19)
(0.318553 -0.0450118 -6.78155e-20)
(0.462882 -0.0472242 -1.22326e-18)
(0.6128 -0.0446574 -6.97971e-19)
(0.760093 -0.0380556 1.39511e-19)
(0.895784 -0.0290543 4.20366e-20)
(1.01659 -0.0183007 -3.83414e-19)
(1.10414 -0.0100915 -4.38123e-19)
(0.0176879 -0.00772183 3.68888e-19)
(0.0987387 -0.0302941 -5.66247e-20)
(0.217614 -0.0404289 3.41218e-20)
(0.357944 -0.0465338 -1.96833e-19)
(0.511574 -0.0451278 1.10151e-18)
(0.667915 -0.0387178 1.80681e-19)
(0.817909 -0.028536 -2.07453e-19)
(0.952248 -0.0171443 2.28706e-21)
(1.06782 -0.00408844 -9.22918e-19)
(1.14963 -0.000818806 3.90867e-19)
(0.0238089 -0.0106678 -6.66943e-19)
(0.116988 -0.0350678 1.55394e-19)
(0.247973 -0.0435884 2.17655e-19)
(0.399212 -0.0466268 -8.79379e-20)
(0.561452 -0.0412466 2.73485e-19)
(0.72298 -0.0308555 6.15353e-19)
(0.874011 -0.0172498 1.49169e-19)
(1.00527 -0.00374947 3.98064e-20)
(1.11377 0.0106518 6.36152e-19)
(1.1884 0.0117297 -6.26846e-19)
(0.0306845 -0.0134693 8.40855e-19)
(0.136846 -0.0392226 1.99499e-19)
(0.280221 -0.04559 7.17874e-19)
(0.442104 -0.0450882 -1.38045e-19)
(0.612093 -0.0354403 -8.26186e-19)
(0.777429 -0.0210341 -8.51389e-19)
(0.927799 -0.00427552 3.95078e-19)
(1.05435 0.0109593 3.05801e-19)
(1.15448 0.0258609 -3.81361e-20)
(1.22092 0.0258655 1.2847e-19)
(0.0383245 -0.0160535 1.93798e-19)
(0.158272 -0.0425919 -7.81363e-19)
(0.314212 -0.0462342 -9.96554e-19)
(0.486322 -0.0417406 1.87184e-19)
(0.663036 -0.0276102 7.28187e-19)
(0.830692 -0.00926956 8.12395e-19)
(0.978735 0.0102617 -4.92307e-19)
(1.09911 0.0267629 1.9595e-19)
(1.18997 0.0414303 2.45948e-19)
(1.24765 0.0407255 5.98659e-19)
(0.0467289 -0.0183453 -9.65058e-19)
(0.1812 -0.0450113 3.52393e-19)
(0.349756 -0.0453354 4.11874e-19)
(0.531522 -0.0364367 -5.51651e-20)
(0.713794 -0.0177026 -6.05961e-19)
(0.882225 0.00437259 -7.09052e-19)
(1.02636 0.0261984 2.11615e-20)
(1.13931 0.0434251 -5.8542e-19)
(1.22038 0.0572248 -3.67287e-19)
(1.26908 0.0557878 -9.87736e-20)
(0.0558878 -0.0202679 -7.21941e-20)
(0.205533 -0.0463211 -5.45214e-19)
(0.386627 -0.0427265 3.80863e-19)
(0.577324 -0.0290645 1.22769e-19)
(0.763873 -0.00571038 1.97295e-19)
(0.931516 0.0197819 -2.46701e-19)
(1.07029 0.0433434 6.56421e-19)
(1.17483 0.06071 -1.92764e-19)
(1.24589 0.0730951 -1.35001e-19)
(1.28575 0.0707147 -2.52942e-20)
(0.0657797 -0.0217437 4.41089e-19)
(0.23115 -0.0463689 9.34798e-19)
(0.424561 -0.0382631 -5.79944e-19)
(0.623321 -0.0195499 -2.94514e-19)
(0.812779 0.00832793 -1.24488e-19)
(0.978111 0.0368103 8.28297e-19)
(1.11026 0.0614883 2.74921e-19)
(1.20568 0.0783937 2.25536e-19)
(1.26678 0.0888958 4.17251e-20)
(1.29818 0.0852953 -6.91056e-20)
(0.076371 -0.0226957 -5.01118e-19)
(0.257899 -0.0450134 4.31986e-19)
(0.463263 -0.0318275 8.1577e-19)
(0.669088 -0.00785939 2.54714e-19)
(0.860037 0.0243311 3.6306e-19)
(1.02162 0.0552801 -4.36153e-19)
(1.14608 0.0804179 -4.42416e-19)
(1.23195 0.0962728 5.11324e-19)
(1.28336 0.104498 3.42151e-19)
(1.3069 0.099406 -9.09522e-20)
(0.0876155 -0.0230484 1.51132e-19)
(0.285602 -0.0421271 -4.99124e-19)
(0.502411 -0.0233316 -4.38715e-20)
(0.714192 0.00599983 3.52249e-20)
(0.905205 0.0421795 -1.59519e-19)
(1.06171 0.0749928 -1.66974e-19)
(1.17767 0.0999191 -1.16333e-19)
(1.25379 0.114168 -2.78039e-19)
(1.29598 0.119794 -2.73543e-20)
(1.31238 0.112982 2.28817e-19)
(0.0994538 -0.0227294 3.40274e-19)
(0.314056 -0.0375996 8.46455e-20)
(0.541662 -0.0127197 -5.46254e-19)
(0.758204 0.0219805 1.72479e-19)
(0.947881 0.0617206 1.51661e-19)
(1.09815 0.0957371 1.55361e-19)
(1.20501 0.119787 3.23192e-19)
(1.27145 0.131925 -3.73306e-19)
(1.30502 0.1347 -1.84793e-20)
(1.31506 0.125994 -1.68056e-19)
(0.111813 -0.021671 -1.97367e-19)
(0.343034 -0.0313402 -2.39629e-19)
(0.580656 2.98133e-05 4.04386e-19)
(0.800707 0.0399972 1.35451e-19)
(0.987712 0.082775 -3.5402e-19)
(1.13077 0.117296 -4.34377e-20)
(1.22816 0.139832 -2.67802e-20)
(1.28516 0.149415 2.40861e-19)
(1.31082 0.149153 1.07538e-19)
(1.31532 0.138441 -5.38931e-20)
(0.124609 -0.0198118 -1.73063e-19)
(0.372289 -0.0232815 2.95735e-19)
(0.61903 0.0149033 -4.22738e-20)
(0.841305 0.0599294 -3.40467e-19)
(1.0244 0.105143 3.32062e-19)
(1.15945 0.139455 -2.11214e-19)
(1.24724 0.159879 -1.84532e-19)
(1.29522 0.166532 -1.61793e-20)
(1.31375 0.163108 -1.42209e-19)
(1.3135 0.150331 -2.32634e-20)
(0.137742 -0.0170982 5.31053e-20)
(0.40156 -0.0133806 3.06572e-20)
(0.656415 0.031852 -5.64637e-20)
(0.879633 0.081625 4.70471e-21)
(1.0577 0.12861 -5.53206e-21)
(1.18416 0.162002 -2.75821e-19)
(1.2624 0.179772 8.05181e-20)
(1.30192 0.18319 4.46531e-20)
(1.31412 0.176535 7.46532e-20)
(1.30989 0.161679 1.52674e-19)
(0.151105 -0.0134864 -1.76501e-19)
(0.43057 -0.00162225 -1.30359e-19)
(0.692453 0.0507925 -1.76366e-19)
(0.91536 0.104904 2.70857e-19)
(1.08743 0.152954 1.22358e-20)
(1.20492 0.184735 2.35532e-19)
(1.27384 0.199372 1.77412e-20)
(1.30555 0.199319 -1.56617e-20)
(1.31223 0.189413 3.14023e-20)
(1.30474 0.172502 -3.16699e-20)
(0.164577 -0.0089437 2.05525e-19)
(0.459036 0.0119805 -2.11646e-20)
(0.726796 0.0716083 -8.67941e-20)
(0.948195 0.129566 -3.35676e-19)
(1.11345 0.177945 9.59863e-20)
(1.22179 0.207465 -7.81143e-21)
(1.28177 0.218556 -1.34861e-19)
(1.30637 0.214864 3.41613e-20)
(1.30834 0.201729 -1.02559e-19)
(1.29826 0.182813 2.66856e-20)
(0.178031 -0.00344999 -8.75169e-20)
(0.486673 0.027385 -7.93543e-20)
(0.759117 0.094152 4.03649e-20)
(0.97789 0.155388 4.1544e-20)
(1.1357 0.203358 -2.15842e-19)
(1.23486 0.230013 7.56431e-20)
(1.2864 0.237216 9.31691e-20)
(1.30467 0.229778 3.98781e-20)
(1.3027 0.213471 4.38272e-20)
(1.29062 0.192622 -3.84709e-20)
(0.191331 0.00300105 -4.63533e-21)
(0.513194 0.0445191 8.3172e-20)
(0.789112 0.118248 3.31503e-20)
(1.00424 0.182138 3.21429e-20)
(1.15414 0.228968 -1.06547e-21)
(1.24427 0.252214 1.00892e-20)
(1.28798 0.25526 2.12596e-20)
(1.30068 0.244023 2.21561e-20)
(1.2955 0.224631 -1.35232e-20)
(1.28197 0.201933 -2.08511e-21)
(0.204338 0.0104009 3.80458e-20)
(0.538323 0.0632811 -9.11227e-21)
(0.816507 0.143695 -7.58382e-22)
(1.0271 0.20957 -3.7471e-20)
(1.16877 0.254555 2.39269e-21)
(1.25017 0.273915 -2.59214e-20)
(1.28672 0.272603 -6.29754e-21)
(1.29464 0.257567 -2.98063e-20)
(1.28694 0.235199 -5.3776e-21)
(1.27243 0.210745 4.75791e-21)
(0.216909 0.0187257 3.17527e-20)
(0.561793 0.0835408 -5.94612e-21)
(0.841059 0.17027 -1.80625e-21)
(1.04634 0.237435 -2.57538e-20)
(1.17965 0.279909 -4.45027e-21)
(1.25274 0.294976 -1.64959e-20)
(1.28284 0.289171 -1.20338e-20)
(1.28674 0.270377 -2.6681e-20)
(1.27715 0.245161 -3.00914e-22)
(1.2621 0.219049 3.29743e-21)
(0.228903 0.0279353 9.47022e-21)
(0.583353 0.105141 8.56423e-20)
(0.862563 0.197733 1.79568e-20)
(1.06189 0.265479 2.58116e-20)
(1.18686 0.304827 1.65934e-20)
(1.25215 0.315268 6.0561e-21)
(1.27656 0.304899 1.28908e-20)
(1.27717 0.282427 1.50319e-20)
(1.26629 0.254503 -8.33194e-21)
(1.25106 0.226835 -6.00151e-22)
(0.240178 0.0379739 -7.37402e-20)
(0.602773 0.127901 -6.84823e-20)
(0.880848 0.225829 1.24471e-20)
(1.07372 0.293452 5.06143e-20)
(1.19051 0.329116 -1.49165e-19)
(1.2486 0.334673 5.46329e-20)
(1.26807 0.319726 6.15063e-20)
(1.26611 0.293687 1.25898e-20)
(1.25446 0.263208 1.90893e-20)
(1.2394 0.234083 -8.83768e-21)
(0.250598 0.0487697 1.97619e-19)
(0.619844 0.151616 -4.18014e-20)
(0.895783 0.254292 -1.03783e-19)
(1.08185 0.321104 -2.02147e-19)
(1.19072 0.352596 6.50433e-20)
(1.24227 0.353082 -7.1495e-21)
(1.25758 0.333596 -1.12438e-19)
(1.2537 0.30413 1.01324e-20)
(1.24176 0.271252 -3.72238e-20)
(1.22716 0.240769 1.47759e-20)
(0.260036 0.0602358 -1.86959e-19)
(0.634386 0.176063 -1.54001e-19)
(0.907274 0.282848 -7.0375e-20)
(1.08631 0.348191 2.21077e-19)
(1.18764 0.375094 -2.52892e-20)
(1.23336 0.370394 1.36041e-19)
(1.24526 0.346457 -1.25727e-20)
(1.24007 0.313727 6.55212e-21)
(1.22828 0.278615 7.64377e-21)
(1.21438 0.246871 -1.08183e-21)
(0.26837 0.072271 5.92654e-20)
(0.646247 0.201002 9.35589e-20)
(0.915267 0.311223 -3.76684e-20)
(1.08716 0.374478 -7.95271e-20)
(1.18145 0.396449 -1.85595e-20)
(1.22206 0.386517 -1.14593e-19)
(1.23127 0.35826 2.13201e-20)
(1.22536 0.322447 3.40554e-20)
(1.21411 0.285282 5.0831e-21)
(1.20111 0.252382 1.77357e-20)
(0.275494 0.0847606 -8.49431e-20)
(0.655307 0.226181 1.94146e-19)
(0.919743 0.339138 -8.20189e-21)
(1.08453 0.399738 -1.45455e-19)
(1.1723 0.416512 1.34079e-19)
(1.20856 0.401368 -8.92132e-20)
(1.21578 0.368959 -5.446e-20)
(1.20967 0.330255 -1.32555e-20)
(1.19932 0.291221 -1.66488e-20)
(1.18745 0.257251 -1.34462e-20)
(0.281312 0.0975787 -1.18196e-19)
(0.661477 0.251337 -1.81298e-19)
(0.920722 0.366322 3.01189e-19)
(1.07852 0.423754 9.06404e-20)
(1.1604 0.435145 -1.91163e-19)
(1.19305 0.414868 1.53695e-20)
(1.19893 0.378511 1.12768e-22)
(1.1931 0.337122 2.37167e-20)
(1.18396 0.296393 1.37634e-20)
(1.17343 0.26146 -7.09645e-21)
(0.285744 0.110589 2.54016e-19)
(0.664703 0.276203 5.96815e-20)
(0.918254 0.392505 -3.93948e-19)
(1.06929 0.446323 1.04029e-19)
(1.14593 0.452219 8.17254e-20)
(1.17571 0.426944 6.22062e-20)
(1.18088 0.386873 6.26257e-20)
(1.17577 0.343022 -4.28726e-20)
(1.16808 0.300772 9.41043e-21)
(1.15908 0.264974 2.06679e-20)
(0.288726 0.123647 9.77218e-20)
(0.664964 0.300509 -2.72332e-19)
(0.912426 0.417429 1.81112e-20)
(1.05701 0.467251 -3.2069e-20)
(1.12909 0.467619 -2.70894e-20)
(1.15671 0.437531 -3.31402e-20)
(1.16175 0.394003 -1.84618e-20)
(1.15776 0.347923 7.0623e-21)
(1.15176 0.30433 2.55161e-20)
(1.14444 0.267761 -5.11789e-20)
(0.290214 0.136602 -2.73299e-19)
(0.662271 0.323985 1.90954e-19)
(0.903351 0.440844 4.63075e-19)
(1.04187 0.486361 9.0354e-20)
(1.11008 0.481236 6.45932e-20)
(1.13624 0.446571 -8.53497e-21)
(1.14168 0.399863 1.58109e-21)
(1.13914 0.351795 -3.75252e-20)
(1.13503 0.30704 -7.86262e-20)
(1.12955 0.269792 5.44571e-20)
(0.29018 0.1493 2.84063e-19)
(0.65667 0.346368 3.56971e-19)
(0.891176 0.462517 -2.0446e-19)
(1.02406 0.503489 -1.10294e-19)
(1.08911 0.492976 -1.328e-20)
(1.11447 0.45401 6.11356e-20)
(1.1208 0.40442 1.18795e-20)
(1.12002 0.35461 -4.20378e-20)
(1.11797 0.308874 -3.7064e-20)
(1.11445 0.271038 2.35202e-20)
(0.288617 0.161584 -4.56234e-20)
(0.648238 0.367399 -2.27018e-19)
(0.876073 0.482228 6.53282e-20)
(1.00379 0.518482 1.74686e-20)
(1.06638 0.502752 2.49975e-20)
(1.09157 0.459799 -1.74493e-20)
(1.09922 0.407643 -8.95525e-20)
(1.10046 0.356342 4.33595e-20)
(1.10061 0.309809 1.02645e-20)
(1.09918 0.271468 4.07174e-20)
(0.285536 0.173299 -3.43917e-19)
(0.637084 0.386832 1.47325e-19)
(0.858222 0.49977 3.50916e-20)
(0.9813 0.531215 1.33491e-21)
(1.04212 0.510489 -5.1124e-21)
(1.0677 0.463899 6.41606e-20)
(1.07707 0.409504 -2.00434e-20)
(1.08056 0.35697 2.01791e-19)
(1.083 0.309823 1.02655e-19)
(1.08378 0.271052 1.2576e-19)
(0.280964 0.18429 1.21817e-19)
(0.623344 0.404439 -2.6898e-19)
(0.837826 0.514951 -1.5493e-19)
(0.956824 0.54157 4.16417e-22)
(1.01651 0.516127 -4.58166e-20)
(1.04302 0.466273 -1.19565e-19)
(1.05446 0.40998 1.42469e-19)
(1.06039 0.356475 -1.01604e-19)
(1.06519 0.308899 -1.59411e-19)
(1.06828 0.269759 -2.58405e-19)
(0.274936 0.194395 1.55677e-19)
(0.607191 0.420009 7.04063e-20)
(0.815128 0.52761 5.54199e-20)
(0.930599 0.549441 2.1971e-21)
(0.989786 0.519613 1.42296e-19)
(1.01771 0.466894 2.10843e-19)
(1.03153 0.40905 -1.15144e-19)
(1.04005 0.354842 -1.60394e-19)
(1.04724 0.307021 8.52997e-20)
(1.05271 0.267557 -2.26613e-19)
(0.267537 0.203472 -3.73647e-20)
(0.588798 0.433329 -4.23263e-21)
(0.790371 0.537606 -2.83106e-20)
(0.902868 0.554745 1.00217e-20)
(0.962138 0.520907 -1.42356e-20)
(0.991914 0.46574 -1.54787e-19)
(1.00838 0.4067 -1.73032e-19)
(1.01962 0.352062 1.51007e-20)
(1.02919 0.30418 -4.37572e-19)
(1.0371 0.264408 3.99009e-19)
(0.258864 0.211407 2.35984e-20)
(0.568362 0.444218 -1.85302e-20)
(0.763813 0.544808 -6.78913e-20)
(0.87388 0.557414 6.42372e-20)
(0.933778 0.519978 -3.61391e-19)
(0.965793 0.462796 -1.18318e-19)
(0.985139 0.40292 1.16147e-19)
(0.999188 0.34813 -2.11082e-20)
(1.01109 0.300362 6.01585e-19)
(1.02154 0.260265 -2.49799e-19)
(0.249005 0.21807 5.23967e-20)
(0.546118 0.452526 -2.06919e-20)
(0.735721 0.549113 2.01716e-19)
(0.843888 0.557399 1.30265e-20)
(0.904909 0.516808 5.25569e-19)
(0.939502 0.458056 4.7708e-19)
(0.961918 0.397707 -1.61561e-19)
(0.978841 0.343046 7.46928e-20)
(0.99303 0.295559 1.8981e-19)
(1.00614 0.255112 2.6938e-19)
(0.238073 0.223348 1.21472e-19)
(0.522312 0.458124 -3.73454e-20)
(0.706371 0.55044 -1.53225e-19)
(0.813143 0.554665 -8.87701e-20)
(0.875735 0.51139 -3.50716e-19)
(0.913194 0.45152 -4.43434e-20)
(0.938834 0.391062 6.05035e-20)
(0.958676 0.336814 1.29018e-19)
(0.975175 0.289797 -5.65745e-19)
(0.990913 0.249106 -5.89498e-19)
(0.226196 0.227143 -7.17971e-20)
(0.4972 0.460902 3.18097e-19)
(0.676045 0.548731 2.0307e-19)
(0.781897 0.549197 2.36982e-19)
(0.846452 0.503727 4.12703e-19)
(0.887017 0.443196 1.32295e-19)
(0.915996 0.382991 2.87169e-19)
(0.938806 0.329436 -2.39188e-19)
(0.957819 0.283152 8.97991e-20)
(0.97574 0.241949 7.15596e-20)
(0.213514 0.229373 -5.39346e-20)
(0.471049 0.460776 -3.24442e-19)
(0.645026 0.543951 -1.65301e-19)
(0.750399 0.540996 -2.01747e-20)
(0.817257 0.493836 -2.61844e-19)
(0.861116 0.4331 -5.31195e-19)
(0.893511 0.373504 -3.53059e-19)
(0.919349 0.320885 4.49406e-19)
(0.941087 0.275651 3.20279e-19)
(0.961509 0.235496 1.01352e-19)
(0.200178 0.229972 -2.54436e-19)
(0.444136 0.457692 -5.06312e-20)
(0.6136 0.536089 -3.13611e-19)
(0.718895 0.53008 -1.72324e-19)
(0.788339 0.481744 -4.72931e-19)
(0.835633 0.421257 1.43678e-19)
(0.871483 0.362622 3.17668e-19)
(0.900351 0.311184 2.30818e-20)
(0.924728 0.267161 -3.08171e-19)
(0.947189 0.228367 4.2142e-19)
(0.186345 0.228891 9.99402e-20)
(0.416739 0.451617 5.02594e-20)
(0.582051 0.525156 7.78268e-20)
(0.687627 0.516483 -1.63576e-20)
(0.759885 0.467491 9.63484e-19)
(0.810707 0.407701 -7.97571e-20)
(0.850016 0.350369 -4.09537e-19)
(0.881889 0.300365 -4.21043e-19)
(0.908827 0.25773 -7.2877e-20)
(0.933173 0.220457 7.64825e-21)
(0.172178 0.226099 6.17585e-19)
(0.389142 0.442549 -3.70461e-19)
(0.55066 0.511186 5.88109e-19)
(0.656831 0.500257 2.90165e-19)
(0.732075 0.451126 -7.20138e-19)
(0.786472 0.392472 -1.67561e-19)
(0.829216 0.336777 3.39401e-19)
(0.864048 0.288454 -1.06975e-19)
(0.89348 0.247394 -4.97086e-20)
(0.919651 0.211749 -5.33499e-19)
(0.157845 0.22158 2.65584e-19)
(0.361626 0.43051 -1.07328e-19)
(0.519704 0.494235 -8.87064e-19)
(0.626734 0.481469 1.55788e-19)
(0.705082 0.43271 7.95596e-19)
(0.763061 0.37562 8.73789e-19)
(0.809184 0.321883 9.01765e-20)
(0.846909 0.275477 7.63826e-19)
(0.878758 0.236172 4.15442e-19)
(0.906705 0.202259 6.89665e-19)
(0.143515 0.215341 -8.55893e-19)
(0.33447 0.41555 1.04789e-18)
(0.489451 0.474381 2.96318e-19)
(0.597557 0.460202 -1.52027e-20)
(0.679074 0.412318 -1.63533e-19)
(0.740597 0.357203 1.25509e-19)
(0.790016 0.305731 -7.40457e-19)
(0.830547 0.261469 -7.22986e-19)
(0.864728 0.224088 -4.93123e-19)
(0.8944 0.192009 -1.15324e-19)
(0.129357 0.207404 -8.72771e-20)
(0.307948 0.397743 -1.21126e-18)
(0.46016 0.451722 3.08482e-19)
(0.569512 0.436554 -4.90209e-19)
(0.654211 0.390031 -1.97218e-19)
(0.719202 0.337286 -1.61497e-19)
(0.771806 0.288372 8.95245e-20)
(0.815035 0.246467 2.37218e-19)
(0.851447 0.211173 3.87574e-19)
(0.88279 0.181023 -5.15466e-19)
(0.115537 0.197809 3.35126e-20)
(0.282324 0.377189 9.03205e-19)
(0.43208 0.426379 8.67051e-20)
(0.542799 0.410637 2.88148e-19)
(0.630643 0.365943 -1.52683e-19)
(0.698987 0.315942 1.84528e-19)
(0.754639 0.269863 3.55605e-19)
(0.80044 0.230519 -3.73354e-19)
(0.838972 0.197461 -3.72391e-19)
(0.871919 0.169332 2.82698e-19)
(0.102217 0.186616 4.52136e-19)
(0.257851 0.354011 4.96492e-19)
(0.405448 0.398489 -5.62011e-19)
(0.517608 0.382577 -2.51948e-19)
(0.608513 0.340157 3.917e-19)
(0.680062 0.293254 -5.54651e-19)
(0.738599 0.250269 1.50816e-19)
(0.786827 0.213676 1.18458e-19)
(0.827352 0.182996 3.03059e-20)
(0.861826 0.156975 2.51378e-19)
(0.0895529 0.173899 -3.51743e-19)
(0.234771 0.328355 -1.02637e-18)
(0.380486 0.368208 8.44866e-19)
(0.494116 0.352515 -4.34723e-20)
(0.587953 0.312787 -2.03468e-19)
(0.662524 0.269311 -2.26082e-19)
(0.723762 0.229661 -1.71962e-19)
(0.774254 0.195996 8.66731e-19)
(0.816634 0.167825 4.85682e-19)
(0.852544 0.143996 1.85515e-21)
(0.0776931 0.15975 -9.44295e-20)
(0.213311 0.30039 5.57986e-19)
(0.357401 0.335711 -7.38414e-19)
(0.472486 0.320602 2.31399e-19)
(0.569087 0.283955 -3.98175e-19)
(0.646467 0.244209 -2.17824e-19)
(0.710199 0.208116 4.4752e-19)
(0.762776 0.177541 -5.35158e-19)
(0.806861 0.151999 -1.59316e-19)
(0.844104 0.130441 -2.68489e-19)
(0.0667758 0.144277 3.40236e-19)
(0.193679 0.270301 -3.64857e-19)
(0.336382 0.301187 9.04973e-20)
(0.45287 0.287001 3.3419e-19)
(0.552025 0.253791 -4.44959e-20)
(0.631974 0.21805 5.83421e-19)
(0.697974 0.185716 -8.23023e-20)
(0.752443 0.158379 6.86051e-20)
(0.798072 0.135576 2.20618e-19)
(0.836531 0.116364 -7.40489e-20)
(0.0569282 0.127599 -1.8559e-19)
(0.176065 0.238295 3.85906e-19)
(0.317602 0.264839 -6.10642e-20)
(0.435401 0.251885 -4.7434e-19)
(0.53687 0.222432 -1.62579e-19)
(0.619122 0.190945 2.08192e-19)
(0.687146 0.162549 -3.04283e-19)
(0.7433 0.138582 -3.6892e-20)
(0.790302 0.118617 -2.77836e-19)
(0.829851 0.101818 -7.01801e-20)
(0.0482648 0.10985 1.48694e-19)
(0.160641 0.204592 -5.28488e-19)
(0.301213 0.226883 4.46602e-19)
(0.420201 0.215437 -9.30743e-20)
(0.523711 0.190025 2.83298e-19)
(0.607978 0.163007 -3.79156e-19)
(0.677766 0.138708 1.4702e-19)
(0.735387 0.118227 -1.91051e-19)
(0.783582 0.101185 9.12448e-20)
(0.824083 0.0868608 1.25571e-19)
(0.0408863 0.0911757 8.76315e-20)
(0.147555 0.16943 5.32762e-20)
(0.287349 0.187548 -1.59738e-19)
(0.407373 0.177848 -3.50479e-21)
(0.512625 0.156719 -2.60507e-20)
(0.598601 0.134357 -1.57395e-19)
(0.66988 0.114289 4.00323e-20)
(0.728739 0.0973944 3.27423e-19)
(0.77794 0.0833487 1.51164e-20)
(0.819248 0.0715528 4.4538e-19)
(0.0348782 0.07173 -4.56269e-20)
(0.136932 0.133055 2.80684e-19)
(0.276121 0.147071 -1.87983e-19)
(0.397004 0.139316 -2.93177e-20)
(0.503677 0.12267 4.59077e-19)
(0.59104 0.105117 1.39206e-20)
(0.663525 0.0893921 -2.97618e-19)
(0.723385 0.076166 -3.34813e-19)
(0.773398 0.0651777 -2.45141e-19)
(0.81536 0.0559552 -9.54871e-20)
(0.0303102 0.0516759 4.63777e-20)
(0.128875 0.0957273 -1.15453e-19)
(0.267621 0.105696 3.10574e-19)
(0.389166 0.100044 6.55747e-20)
(0.496919 0.0880403 -3.2158e-19)
(0.585334 0.0754161 1.00256e-19)
(0.658732 0.064121 1.85351e-19)
(0.719348 0.0546275 9.26655e-20)
(0.769975 0.0467444 1.19738e-19)
(0.812433 0.0401309 -1.14183e-19)
(0.0272351 0.0311825 -1.58511e-19)
(0.12346 0.0577127 3.95836e-20)
(0.261916 0.0636772 -1.99782e-19)
(0.38391 0.0602399 5.35572e-20)
(0.492392 0.0529921 -2.34735e-21)
(0.581513 0.045383 3.75751e-20)
(0.655524 0.0385807 -2.66873e-20)
(0.716647 0.032866 -3.30709e-20)
(0.767686 0.0281224 -1.28342e-19)
(0.810476 0.0241438 7.93192e-21)
(0.0256887 0.0104238 5.60823e-20)
(0.12074 0.0192837 5.8382e-20)
(0.259051 0.021269 -1.04286e-21)
(0.381274 0.0201156 -5.57286e-20)
(0.490122 0.0176921 -1.53118e-21)
(0.579598 0.0151499 -5.2315e-20)
(0.653916 0.0128783 3.65352e-20)
(0.715294 0.0109703 2.20472e-20)
(0.766538 0.00938678 6.24045e-20)
(0.809496 0.00805884 1.99376e-20)
(0.0256887 -0.0104238 4.83204e-20)
(0.12074 -0.0192837 6.26761e-20)
(0.259051 -0.0212691 -3.04774e-21)
(0.381274 -0.0201156 -5.14096e-20)
(0.490122 -0.0176921 -2.54472e-21)
(0.579598 -0.0151499 -3.6474e-20)
(0.653916 -0.0128783 3.4426e-20)
(0.715294 -0.0109703 4.41753e-21)
(0.766538 -0.0093868 6.84511e-20)
(0.809496 -0.00805886 2.02824e-20)
(0.0272351 -0.0311825 -1.77336e-19)
(0.12346 -0.0577127 7.09042e-20)
(0.261916 -0.0636772 -2.35496e-19)
(0.38391 -0.0602399 5.8691e-20)
(0.492392 -0.0529921 3.36525e-20)
(0.581513 -0.045383 -4.13098e-21)
(0.655524 -0.0385808 -7.56492e-21)
(0.716647 -0.0328661 -5.04611e-20)
(0.767686 -0.0281224 -9.49611e-20)
(0.810476 -0.0241438 -1.78273e-20)
(0.0303102 -0.0516759 5.68059e-20)
(0.128875 -0.0957273 -1.06523e-19)
(0.267621 -0.105697 2.71224e-19)
(0.389166 -0.100044 9.28014e-20)
(0.496919 -0.0880404 -2.78347e-19)
(0.585334 -0.0754161 9.87591e-20)
(0.658732 -0.064121 1.92301e-19)
(0.719348 -0.0546275 4.65699e-20)
(0.769975 -0.0467444 8.30466e-20)
(0.812433 -0.0401309 -6.63533e-20)
(0.0348782 -0.07173 -1.81574e-20)
(0.136932 -0.133055 1.75233e-19)
(0.276121 -0.147071 -1.17449e-19)
(0.397004 -0.139316 -5.76622e-20)
(0.503677 -0.122671 5.20273e-19)
(0.59104 -0.105117 -4.11572e-20)
(0.663525 -0.0893921 -3.25474e-19)
(0.723385 -0.076166 -2.74068e-19)
(0.773398 -0.0651778 -2.20498e-19)
(0.81536 -0.0559552 -1.86443e-19)
(0.0408863 -0.0911757 3.31737e-20)
(0.147555 -0.16943 4.31e-20)
(0.287349 -0.187548 -2.16835e-19)
(0.407373 -0.177848 3.31918e-20)
(0.512625 -0.156719 -2.83094e-20)
(0.598601 -0.134357 -1.34048e-19)
(0.66988 -0.114289 -6.1981e-20)
(0.728739 -0.0973944 4.05628e-19)
(0.77794 -0.0833487 7.78411e-20)
(0.819248 -0.0715528 3.72487e-19)
(0.0482648 -0.10985 1.9831e-20)
(0.160641 -0.204592 -3.50357e-19)
(0.301213 -0.226883 3.33376e-19)
(0.420201 -0.215437 -6.42292e-20)
(0.523711 -0.190025 2.85131e-19)
(0.607978 -0.163007 -4.63823e-19)
(0.677766 -0.138708 1.32223e-19)
(0.735387 -0.118227 -2.03217e-19)
(0.783582 -0.101185 9.68756e-20)
(0.824083 -0.0868608 2.08486e-19)
(0.0569282 -0.127599 -1.82435e-19)
(0.176065 -0.238295 3.27375e-19)
(0.317602 -0.264839 -4.6054e-20)
(0.435401 -0.251885 -3.28338e-19)
(0.53687 -0.222432 -2.8102e-19)
(0.619122 -0.190945 2.10175e-19)
(0.687146 -0.162549 -2.93269e-19)
(0.7433 -0.138582 -1.56328e-20)
(0.790302 -0.118617 -3.18918e-19)
(0.829851 -0.101818 -1.43304e-19)
(0.0667758 -0.144277 3.6993e-19)
(0.193679 -0.270301 -2.52411e-19)
(0.336382 -0.301187 8.41433e-20)
(0.45287 -0.287001 1.0567e-19)
(0.552025 -0.253791 1.9318e-19)
(0.631974 -0.21805 3.98581e-19)
(0.697974 -0.185716 -2.58219e-20)
(0.752443 -0.158379 3.82485e-20)
(0.798072 -0.135576 2.39413e-19)
(0.836531 -0.116364 -1.10106e-19)
(0.0776931 -0.15975 -2.00561e-19)
(0.213311 -0.30039 5.7071e-19)
(0.357401 -0.335711 -6.69286e-19)
(0.472486 -0.320602 1.49029e-19)