/*--------------------------------*- C++ -*----------------------------------*\
  =========                 |
  \\      /  F ield         | OpenFOAM: The Open Source CFD Toolbox
   \\    /   O peration     | Website:  https://openfoam.org
    \\  /    A nd           | Version:  7
     \\/     M anipulation  |
\*---------------------------------------------------------------------------*/
FoamFile
{
    version     2.0;
    format      ascii;
    class       volScalarField;
    location    "2.8";
    object      rho;
}
// * * * * * * * * * * * * * * * * * * * * * * * * * * * * * * * * * * * * * //

dimensions      [1 -3 0 0 0 0 0];

internalField   nonuniform List<scalar> 
100800
(
1.40001
1.40001
1.40001
1.40001
1.40001
1.40001
1.40001
1.40001
1.40001
1.40001
1.40001
1.40001
1.40001
1.40001
1.40001
1.40001
1.40001
1.40001
1.40001
1.40001
1.40001
1.40001
1.40001
1.40001
1.40001
1.40001
1.40001
1.40001
1.40001
1.40001
1.40001
1.40001
1.40001
1.40001
1.40001
1.40001
1.40001
1.40001
1.40001
1.40001
1.40001
1.40001
1.40001
1.40001
1.40001
1.40001
1.40001
1.40001
1.40001
1.40001
1.40001
1.40001
1.40001
1.40001
1.40001
1.40001
1.40001
1.40001
1.40001
1.40001
1.40001
2.08412
4.91585
5.40735
5.42193
5.44521
5.46732
5.48839
5.50799
5.52634
5.54347
5.55902
5.5728
5.5854
5.59814
5.61144
5.62561
5.64198
5.66094
5.68056
5.69828
5.71287
5.72485
5.73515
5.7448
5.75527
5.76754
5.78126
5.79558
5.80965
5.82256
5.8338
5.84378
5.85335
5.86291
5.87254
5.88206
5.89096
5.89906
5.90676
5.91489
5.92395
5.93364
5.94305
5.95115
5.95745
5.96231
5.96655
5.97083
5.97536
5.97993
5.98394
5.98688
5.98841
5.98866
5.98759
5.98509
5.98229
5.98084
5.98056
1.40001
1.40001
1.40001
1.40001
1.40001
1.40001
1.40001
1.40001
1.40001
1.40001
1.40001
1.40001
1.40001
1.40001
1.40001
1.40001
1.40001
1.40001
1.40001
1.40001
1.40001
1.40001
1.40001
1.40001
1.40001
1.40001
1.40001
1.40001
1.40001
1.40001
1.40001
1.40001
1.40001
1.40001
1.40001
1.40001
1.40001
1.40001
1.40001
1.40001
1.40001
1.40001
1.40001
1.40001
1.40001
1.40001
1.40001
1.40001
1.40001
1.40001
1.40001
1.40001
1.40001
1.40001
1.40001
1.40001
1.40001
1.40001
1.40001
1.40001
1.40001
2.0739
4.90074
5.40749
5.42233
5.44572
5.46779
5.48887
5.50845
5.52672
5.54369
5.55909
5.57284
5.5854
5.59814
5.61138
5.62562
5.64199
5.66089
5.68042
5.69806
5.71259
5.72449
5.73467
5.74425
5.75467
5.76698
5.78076
5.79516
5.80923
5.82207
5.83327
5.84327
5.85295
5.86263
5.87234
5.88185
5.89072
5.89878
5.90648
5.91457
5.92351
5.93301
5.94224
5.95025
5.95659
5.96157
5.96593
5.9703
5.97484
5.97939
5.98334
5.98621
5.98765
5.98779
5.98664
5.98417
5.98148
5.98016
5.98003
1.40001
1.40001
1.40001
1.40001
1.40001
1.40001
1.40001
1.40001
1.40001
1.40001
1.40001
1.40001
1.40001
1.40001
1.40001
1.40001
1.40001
1.40001
1.40001
1.40001
1.40001
1.40001
1.40001
1.40001
1.40001
1.40001
1.40001
1.40001
1.40001
1.40001
1.40001
1.40001
1.40001
1.40001
1.40001
1.40001
1.40001
1.40001
1.40001
1.40001
1.40001
1.40001
1.40001
1.40001
1.40001
1.40001
1.40001
1.40001
1.40001
1.40001
1.40001
1.40001
1.40001
1.40001
1.40001
1.40001
1.40001
1.40001
1.40001
1.40001
1.40001
2.05029
4.88193
5.40639
5.42163
5.44568
5.46799
5.4892
5.50863
5.52671
5.54341
5.55873
5.5725
5.58511
5.59799
5.61121
5.62542
5.64173
5.66048
5.67988
5.69745
5.71199
5.72385
5.73389
5.74333
5.75359
5.76588
5.77971
5.79424
5.80839
5.82122
5.83239
5.84243
5.85221
5.86203
5.87184
5.88136
5.89018
5.89818
5.90584
5.9139
5.92274
5.93204
5.94103
5.94886
5.95517
5.96028
5.96484
5.96939
5.97402
5.97853
5.98239
5.98517
5.98649
5.98651
5.98527
5.98284
5.98022
5.97896
5.97898
1.40001
1.40001
1.40001
1.40001
1.40001
1.40001
1.40001
1.40001
1.40001
1.40001
1.40001
1.40001
1.40001
1.40001
1.40001
1.40001
1.40001
1.40001
1.40001
1.40001
1.40001
1.40001
1.40001
1.40001
1.40001
1.40001
1.40001
1.40001
1.40001
1.40001
1.40001
1.40001
1.40001
1.40001
1.40001
1.40001
1.40001
1.40001
1.40001
1.40001
1.40001
1.40001
1.40001
1.40001
1.40001
1.40001
1.40001
1.40001
1.40001
1.40001
1.40001
1.40001
1.40001
1.40001
1.40001
1.40001
1.40001
1.40001
1.40001
1.40001
1.40001
2.01556
4.85859
5.40706
5.42231
5.44672
5.46874
5.48966
5.5086
5.52621
5.54261
5.55801
5.57202
5.58492
5.59796
5.61106
5.62508
5.64117
5.65968
5.67893
5.69648
5.71111
5.72297
5.73284
5.74212
5.75213
5.76432
5.77815
5.79284
5.80714
5.82005
5.83128
5.84137
5.85124
5.86117
5.87108
5.88062
5.88937
5.89728
5.90484
5.91278
5.92144
5.93051
5.93924
5.9469
5.95318
5.95841
5.9632
5.96797
5.97269
5.97717
5.98092
5.98355
5.98472
5.98457
5.98324
5.98086
5.97832
5.97712
5.97732
1.40001
1.40001
1.40001
1.40001
1.40001
1.40001
1.40001
1.40001
1.40001
1.40001
1.40001
1.40001
1.40001
1.40001
1.40001
1.40001
1.40001
1.40001
1.40001
1.40001
1.40001
1.40001
1.40001
1.40001
1.40001
1.40001
1.40001
1.40001
1.40001
1.40001
1.40001
1.40001
1.40001
1.40001
1.40001
1.40001
1.40001
1.40001
1.40001
1.40001
1.40001
1.40001
1.40001
1.40001
1.40001
1.40001
1.40001
1.40001
1.40001
1.40001
1.40001
1.40001
1.40001
1.40001
1.40001
1.40001
1.40001
1.40001
1.40001
1.40001
1.40001
1.97097
4.82698
5.40898
5.4231
5.447
5.46839
5.48889
5.50744
5.52477
5.54126
5.55718
5.57187
5.58529
5.59839
5.61116
5.62475
5.64044
5.65861
5.67768
5.69527
5.71005
5.72197
5.73166
5.74072
5.75039
5.76238
5.77612
5.79098
5.80554
5.81869
5.83008
5.84026
5.85014
5.86005
5.86997
5.87949
5.88818
5.89597
5.90338
5.91113
5.9196
5.92847
5.93702
5.94455
5.9508
5.95613
5.96111
5.96607
5.9709
5.97535
5.979
5.98146
5.98249
5.98217
5.98072
5.97839
5.9759
5.97467
5.975
1.40001
1.40001
1.40001
1.40001
1.40001
1.40001
1.40001
1.40001
1.40001
1.40001
1.40001
1.40001
1.40001
1.40001
1.40001
1.40001
1.40001
1.40001
1.40001
1.40001
1.40001
1.40001
1.40001
1.40001
1.40001
1.40001
1.40001
1.40001
1.40001
1.40001
1.40001
1.40001
1.40001
1.40001
1.40001
1.40001
1.40001
1.40001
1.40001
1.40001
1.40001
1.40001
1.40001
1.40001
1.40001
1.40001
1.40001
1.40001
1.40001
1.40001
1.40001
1.40001
1.40001
1.40001
1.40001
1.40001
1.40001
1.40001
1.40001
1.40001
1.40001
1.91717
4.78565
5.4119
5.42431
5.44705
5.46763
5.48753
5.50565
5.52288
5.5398
5.55658
5.57215
5.58611
5.59908
5.61122
5.62412
5.63923
5.65705
5.67601
5.69382
5.70897
5.72113
5.73077
5.73966
5.74896
5.76058
5.77402
5.78885
5.80353
5.81689
5.82846
5.83872
5.84855
5.85839
5.86825
5.87775
5.8864
5.89409
5.90132
5.90885
5.91711
5.92586
5.93436
5.94188
5.94815
5.95354
5.95862
5.96369
5.96858
5.97301
5.97655
5.97886
5.9798
5.97935
5.97778
5.97548
5.97297
5.97158
5.97198
1.40001
1.40001
1.40001
1.40001
1.40001
1.40001
1.40001
1.40001
1.40001
1.40001
1.40001
1.40001
1.40001
1.40001
1.40001
1.40001
1.40001
1.40001
1.40001
1.40001
1.40001
1.40001
1.40001
1.40001
1.40001
1.40001
1.40001
1.40001
1.40001
1.40001
1.40001
1.40001
1.40001
1.40001
1.40001
1.40001
1.40001
1.40001
1.40001
1.40001
1.40001
1.40001
1.40001
1.40001
1.40001
1.40001
1.40001
1.40001
1.40001
1.40001
1.40001
1.40001
1.40001
1.40001
1.40001
1.40001
1.40001
1.40001
1.40001
1.40001
1.40001
1.85543
4.73355
5.4159
5.42545
5.44652
5.46622
5.48545
5.50308
5.52033
5.53786
5.55573
5.57235
5.58704
5.59989
5.61134
5.62344
5.63786
5.65522
5.67409
5.69216
5.70763
5.71994
5.72942
5.73808
5.74696
5.75822
5.7714
5.78624
5.80108
5.81469
5.82646
5.8368
5.84656
5.85625
5.866
5.87546
5.8841
5.89174
5.89881
5.90609
5.91411
5.92274
5.93125
5.93883
5.94516
5.95057
5.95567
5.96074
5.9656
5.96996
5.97342
5.97566
5.97659
5.97608
5.97447
5.97216
5.96952
5.96788
5.96827
1.40001
1.40001
1.40001
1.40001
1.40001
1.40001
1.40001
1.40001
1.40001
1.40001
1.40001
1.40001
1.40001
1.40001
1.40001
1.40001
1.40001
1.40001
1.40001
1.40001
1.40001
1.40001
1.40001
1.40001
1.40001
1.40001
1.40001
1.40001
1.40001
1.40001
1.40001
1.40001
1.40001
1.40001
1.40001
1.40001
1.40001
1.40001
1.40001
1.40001
1.40001
1.40001
1.40001
1.40001
1.40001
1.40001
1.40001
1.40001
1.40001
1.40001
1.40001
1.40001
1.40001
1.40001
1.40001
1.40001
1.40001
1.40001
1.40001
1.40001
1.40001
1.78785
4.66777
5.41952
5.42681
5.44607
5.46462
5.48313
5.50031
5.51742
5.53553
5.55444
5.57225
5.58774
5.60064
5.61144
5.62255
5.63596
5.65256
5.67126
5.68969
5.70569
5.71837
5.72785
5.73637
5.74484
5.75574
5.76865
5.78354
5.79852
5.81239
5.82437
5.83478
5.84439
5.8538
5.86329
5.87262
5.88122
5.88881
5.89573
5.90275
5.91053
5.91905
5.92761
5.93534
5.9418
5.94727
5.95231
5.95726
5.96197
5.96619
5.96957
5.97184
5.97282
5.97237
5.97081
5.96843
5.96557
5.96366
5.964
1.40001
1.40001
1.40001
1.40001
1.40001
1.40001
1.40001
1.40001
1.40001
1.40001
1.40001
1.40001
1.40001
1.40001
1.40001
1.40001
1.40001
1.40001
1.40001
1.40001
1.40001
1.40001
1.40001
1.40001
1.40001
1.40001
1.40001
1.40001
1.40001
1.40001
1.40001
1.40001
1.40001
1.40001
1.40001
1.40001
1.40001
1.40001
1.40001
1.40001
1.40001
1.40001
1.40001
1.40001
1.40001
1.40001
1.40001
1.40001
1.40001
1.40001
1.40001
1.40001
1.40001
1.40001
1.40001
1.40001
1.40001
1.40001
1.40001
1.40001
1.40001
1.71816
4.58581
5.42162
5.42855
5.44585
5.46286
5.48033
5.49692
5.51381
5.53234
5.55216
5.57121
5.58772
5.60089
5.61126
5.62141
5.63374
5.64955
5.66803
5.68678
5.70336
5.71647
5.72604
5.73444
5.74254
5.75312
5.76583
5.78083
5.79601
5.81012
5.82219
5.83251
5.84179
5.8508
5.85994
5.86908
5.87765
5.88523
5.89204
5.89884
5.90636
5.91473
5.92334
5.93128
5.938
5.94363
5.94867
5.95344
5.95788
5.96186
5.96513
5.96743
5.96851
5.96819
5.96674
5.96425
5.96113
5.95899
5.95929
1.40001
1.40001
1.40001
1.40001
1.40001
1.40001
1.40001
1.40001
1.40001
1.40001
1.40001
1.40001
1.40001
1.40001
1.40001
1.40001
1.40001
1.40001
1.40001
1.40001
1.40001
1.40001
1.40001
1.40001
1.40001
1.40001
1.40001
1.40001
1.40001
1.40001
1.40001
1.40001
1.40001
1.40001
1.40001
1.40001
1.40001
1.40001
1.40001
1.40001
1.40001
1.40001
1.40001
1.40001
1.40001
1.40001
1.40001
1.40001
1.40001
1.40001
1.40001
1.40001
1.40001
1.40001
1.40001
1.40001
1.40001
1.40001
1.40001
1.40001
1.40001
1.64982
4.49016
5.42182
5.43041
5.44602
5.46153
5.4777
5.49351
5.51019
5.52887
5.54919
5.56911
5.58657
5.6001
5.61026
5.61974
5.63122
5.64631
5.66453
5.68353
5.70063
5.71422
5.72395
5.73225
5.74002
5.75028
5.7628
5.77786
5.79317
5.80744
5.81945
5.82953
5.83834
5.84684
5.85562
5.86465
5.87332
5.88108
5.88799
5.89473
5.90207
5.91026
5.9188
5.92683
5.93373
5.9395
5.94448
5.94899
5.95306
5.95673
5.95986
5.96224
5.96347
5.96338
5.96208
5.95951
5.9562
5.95393
5.95421
1.40001
1.40001
1.40001
1.40001
1.40001
1.40001
1.40001
1.40001
1.40001
1.40001
1.40001
1.40001
1.40001
1.40001
1.40001
1.40001
1.40001
1.40001
1.40001
1.40001
1.40001
1.40001
1.40001
1.40001
1.40001
1.40001
1.40001
1.40001
1.40001
1.40001
1.40001
1.40001
1.40001
1.40001
1.40001
1.40001
1.40001
1.40001
1.40001
1.40001
1.40001
1.40001
1.40001
1.40001
1.40001
1.40001
1.40001
1.40001
1.40001
1.40001
1.40001
1.40001
1.40001
1.40001
1.40001
1.40001
1.40001
1.40001
1.40001
1.40001
1.40001
1.58185
4.38388
5.42248
5.43145
5.44536
5.46015
5.4756
5.49076
5.50692
5.52527
5.54545
5.56566
5.58362
5.59748
5.60775
5.61713
5.62829
5.64291
5.66084
5.67986
5.69723
5.7111
5.7209
5.72905
5.73652
5.74648
5.75882
5.77399
5.78953
5.8041
5.81623
5.82624
5.83475
5.84281
5.85114
5.85984
5.86833
5.87602
5.8829
5.88956
5.89674
5.90473
5.9132
5.92134
5.92852
5.93456
5.93964
5.944
5.94777
5.95115
5.95416
5.95659
5.95795
5.95806
5.95686
5.95421
5.95079
5.94848
5.94874
1.40001
1.40001
1.40001
1.40001
1.40001
1.40001
1.40001
1.40001
1.40001
1.40001
1.40001
1.40001
1.40001
1.40001
1.40001
1.40001
1.40001
1.40001
1.40001
1.40001
1.40001
1.40001
1.40001
1.40001
1.40001
1.40001
1.40001
1.40001
1.40001
1.40001
1.40001
1.40001
1.40001
1.40001
1.40001
1.40001
1.40001
1.40001
1.40001
1.40001
1.40001
1.40001
1.40001
1.40001
1.40001
1.40001
1.40001
1.40001
1.40001
1.40001
1.40001
1.40001
1.40001
1.40001
1.40001
1.40001
1.40001
1.40001
1.40001
1.40001
1.40001
1.51014
4.27104
5.4235
5.42989
5.44358
5.45898
5.47438
5.48919
5.5047
5.5223
5.54171
5.56143
5.57938
5.59333
5.60379
5.61343
5.62482
5.63949
5.6574
5.6764
5.69379
5.70768
5.71739
5.72528
5.73246
5.7421
5.75418
5.7693
5.78493
5.79967
5.81181
5.82168
5.82981
5.8374
5.84534
5.85386
5.8624
5.87028
5.87738
5.88415
5.89129
5.89915
5.90752
5.91573
5.92311
5.92938
5.93451
5.93865
5.94205
5.94507
5.94784
5.9502
5.95163
5.95191
5.95077
5.94813
5.94476
5.94252
5.94279
1.40001
1.40001
1.40001
1.40001
1.40001
1.40001
1.40001
1.40001
1.40001
1.40001
1.40001
1.40001
1.40001
1.40001
1.40001
1.40001
1.40001
1.40001
1.40001
1.40001
1.40001
1.40001
1.40001
1.40001
1.40001
1.40001
1.40001
1.40001
1.40001
1.40001
1.40001
1.40001
1.40001
1.40001
1.40001
1.40001
1.40001
1.40001
1.40001
1.40001
1.40001
1.40001
1.40001
1.40001
1.40001
1.40001
1.40001
1.40001
1.40001
1.40001
1.40001
1.40001
1.40001
1.40001
1.40001
1.40001
1.40001
1.40001
1.40001
1.40001
1.40001
1.42703
4.13259
5.42355
5.42431
5.43789
5.45551
5.47236
5.48772
5.50291
5.5195
5.5374
5.55557
5.5725
5.58617
5.59704
5.60757
5.61988
5.63515
5.6533
5.67219
5.68932
5.70291
5.71232
5.72001
5.72714
5.73678
5.7489
5.76417
5.78
5.79499
5.80725
5.81706
5.82491
5.83209
5.83962
5.84785
5.85625
5.86415
5.87135
5.87816
5.88519
5.89281
5.90097
5.9091
5.91659
5.92303
5.92827
5.93231
5.93547
5.93825
5.94085
5.94314
5.94466
5.94504
5.94395
5.94141
5.93824
5.93617
5.93653
1.40001
1.40001
1.40001
1.40001
1.40001
1.40001
1.40001
1.40001
1.40001
1.40001
1.40001
1.40001
1.40001
1.40001
1.40001
1.40001
1.40001
1.40001
1.40001
1.40001
1.40001
1.40001
1.40001
1.40001
1.40001
1.40001
1.40001
1.40001
1.40001
1.40001
1.40001
1.40001
1.40001
1.40001
1.40001
1.40001
1.40001
1.40001
1.40001
1.40001
1.40001
1.40001
1.40001
1.40001
1.40001
1.40001
1.40001
1.40001
1.40001
1.40001
1.40001
1.40001
1.40001
1.40001
1.40001
1.40001
1.40001
1.40001
1.40001
1.40001
1.40001
1.40089
3.95425
5.39234
5.40917
5.42774
5.44906
5.46842
5.48556
5.50153
5.51753
5.53387
5.55014
5.56552
5.57853
5.5896
5.60098
5.61442
5.63065
5.6494
5.66842
5.68536
5.69852
5.7074
5.71464
5.72149
5.73097
5.74297
5.75818
5.77403
5.7891
5.8014
5.81115
5.81875
5.82558
5.83282
5.8409
5.84934
5.85743
5.86486
5.87178
5.87874
5.88615
5.89408
5.90209
5.9096
5.91613
5.92139
5.92533
5.92829
5.93088
5.93333
5.93554
5.93705
5.93749
5.93648
5.93409
5.93118
5.92934
5.9298
1.40001
1.40001
1.40001
1.40001
1.40001
1.40001
1.40001
1.40001
1.40001
1.40001
1.40001
1.40001
1.40001
1.40001
1.40001
1.40001
1.40001
1.40001
1.40001
1.40001
1.40001
1.40001
1.40001
1.40001
1.40001
1.40001
1.40001
1.40001
1.40001
1.40001
1.40001
1.40001
1.40001
1.40001
1.40001
1.40001
1.40001
1.40001
1.40001
1.40001
1.40001
1.40001
1.40001
1.40001
1.40001
1.40001
1.40001
1.40001
1.40001
1.40001
1.40001
1.40001
1.40001
1.40001
1.40001
1.40001
1.40001
1.40001
1.40001
1.40001
1.40001
1.40001
3.73919
5.36076
5.39645
5.41845
5.44274
5.46455
5.48333
5.49992
5.5153
5.53009
5.54445
5.55811
5.57034
5.5815
5.59363
5.60816
5.62539
5.64479
5.66395
5.6807
5.69341
5.70173
5.70848
5.71505
5.72436
5.73633
5.75151
5.76744
5.78262
5.795
5.80471
5.81209
5.81861
5.82562
5.83362
5.84212
5.85037
5.85796
5.86492
5.87173
5.87888
5.88656
5.89442
5.90189
5.90843
5.91368
5.91755
5.92042
5.9229
5.92526
5.92739
5.92883
5.92928
5.92833
5.92606
5.9234
5.92178
5.92236
1.40001
1.40001
1.40001
1.40001
1.40001
1.40001
1.40001
1.40001
1.40001
1.40001
1.40001
1.40001
1.40001
1.40001
1.40001
1.40001
1.40001
1.40001
1.40001
1.40001
1.40001
1.40001
1.40001
1.40001
1.40001
1.40001
1.40001
1.40001
1.40001
1.40001
1.40001
1.40001
1.40001
1.40001
1.40001
1.40001
1.40001
1.40001
1.40001
1.40001
1.40001
1.40001
1.40001
1.40001
1.40001
1.40001
1.40001
1.40001
1.40001
1.40001
1.40001
1.40001
1.40001
1.40001
1.40001
1.40001
1.40001
1.40001
1.40001
1.40001
1.40001
1.40001
3.50679
5.32827
5.38681
5.41047
5.43697
5.46114
5.4816
5.49885
5.51362
5.52686
5.53925
5.55107
5.56212
5.57307
5.5858
5.60127
5.61949
5.63961
5.65906
5.67578
5.68816
5.69592
5.70209
5.70822
5.71723
5.72913
5.74425
5.76026
5.77551
5.78797
5.79762
5.80476
5.81099
5.81779
5.82578
5.8344
5.8428
5.85049
5.85743
5.86405
5.87094
5.87841
5.88614
5.89354
5.90005
5.90523
5.90902
5.9118
5.91421
5.91648
5.91853
5.91989
5.92031
5.91943
5.91728
5.91484
5.9134
5.91409
1.40001
1.40001
1.40001
1.40001
1.40001
1.40001
1.40001
1.40001
1.40001
1.40001
1.40001
1.40001
1.40001
1.40001
1.40001
1.40001
1.40001
1.40001
1.40001
1.40001
1.40001
1.40001
1.40001
1.40001
1.40001
1.40001
1.40001
1.40001
1.40001
1.40001
1.40001
1.40001
1.40001
1.40001
1.40001
1.40001
1.40001
1.40001
1.40001
1.40001
1.40001
1.40001
1.40001
1.40001
1.40001
1.40001
1.40001
1.40001
1.40001
1.40001
1.40001
1.40001
1.40001
1.40001
1.40001
1.40001
1.40001
1.40001
1.40001
1.40001
1.40001
1.40001
3.26029
5.29211
5.38102
5.40593
5.43358
5.45896
5.48059
5.49828
5.51273
5.52472
5.53521
5.54511
5.55488
5.56538
5.57825
5.59427
5.61324
5.63402
5.65386
5.67079
5.68308
5.69043
5.69595
5.70144
5.70989
5.72157
5.73648
5.75252
5.7678
5.78035
5.78991
5.79681
5.80273
5.80934
5.81734
5.82607
5.83458
5.84231
5.84916
5.85559
5.86225
5.86956
5.8772
5.88453
5.89094
5.896
5.89965
5.90233
5.90466
5.90687
5.90887
5.91018
5.91061
5.90979
5.90776
5.90546
5.90414
5.9049
1.40001
1.40001
1.40001
1.40001
1.40001
1.40001
1.40001
1.40001
1.40001
1.40001
1.40001
1.40001
1.40001
1.40001
1.40001
1.40001
1.40001
1.40001
1.40001
1.40001
1.40001
1.40001
1.40001
1.40001
1.40001
1.40001
1.40001
1.40001
1.40001
1.40001
1.40001
1.40001
1.40001
1.40001
1.40001
1.40001
1.40001
1.40001
1.40001
1.40001
1.40001
1.40001
1.40001
1.40001
1.40001
1.40001
1.40001
1.40001
1.40001
1.40001
1.40001
1.40001
1.40001
1.40001
1.40001
1.40001
1.40001
1.40001
1.40001
1.40001
1.40001
1.40001
3.00228
5.24746
5.37887
5.4041
5.43166
5.45705
5.47935
5.49763
5.51215
5.52339
5.5323
5.54015
5.54842
5.55821
5.57088
5.58708
5.60649
5.62774
5.64794
5.66519
5.67764
5.68482
5.68984
5.69465
5.70239
5.71375
5.7284
5.74445
5.75975
5.77245
5.78198
5.78869
5.79427
5.80063
5.80854
5.8173
5.8258
5.83347
5.84019
5.84641
5.85288
5.86006
5.86764
5.87488
5.88115
5.886
5.88944
5.89197
5.89419
5.89633
5.89829
5.89961
5.90008
5.89934
5.8974
5.89519
5.89389
5.89466
1.40001
1.40001
1.40001
1.40001
1.40001
1.40001
1.40001
1.40001
1.40001
1.40001
1.40001
1.40001
1.40001
1.40001
1.40001
1.40001
1.40001
1.40001
1.40001
1.40001
1.40001
1.40001
1.40001
1.40001
1.40001
1.40001
1.40001
1.40001
1.40001
1.40001
1.40001
1.40001
1.40001
1.40001
1.40001
1.40001
1.40001
1.40001
1.40001
1.40001
1.40001
1.40001
1.40001
1.40001
1.40001
1.40001
1.40001
1.40001
1.40001
1.40001
1.40001
1.40001
1.40001
1.40001
1.40001
1.40001
1.40001
1.40001
1.40001
1.40001
1.40001
1.40001
2.73483
5.1818
5.38117
5.40553
5.43092
5.45516
5.47752
5.49617
5.51107
5.52238
5.53082
5.53753
5.54434
5.55315
5.56513
5.58076
5.59992
5.62117
5.64157
5.65924
5.67219
5.67955
5.68425
5.6884
5.6951
5.70588
5.72004
5.73597
5.75126
5.76415
5.77375
5.78036
5.78563
5.79165
5.79936
5.80802
5.81641
5.82394
5.8305
5.83655
5.84287
5.84995
5.85745
5.86458
5.87064
5.87524
5.87841
5.88069
5.88273
5.88476
5.88671
5.88809
5.88868
5.88808
5.88623
5.88404
5.88268
5.88342
1.40001
1.40001
1.40001
1.40001
1.40001
1.40001
1.40001
1.40001
1.40001
1.40001
1.40001
1.40001
1.40001
1.40001
1.40001
1.40001
1.40001
1.40001
1.40001
1.40001
1.40001
1.40001
1.40001
1.40001
1.40001
1.40001
1.40001
1.40001
1.40001
1.40001
1.40001
1.40001
1.40001
1.40001
1.40001
1.40001
1.40001
1.40001
1.40001
1.40001
1.40001
1.40001
1.40001
1.40001
1.40001
1.40001
1.40001
1.40001
1.40001
1.40001
1.40001
1.40001
1.40001
1.40001
1.40001
1.40001
1.40001
1.40001
1.40001
1.40001
1.40001
1.40001
2.46424
5.08663
5.38525
5.40963
5.43243
5.4544
5.47636
5.49535
5.51124
5.52301
5.5313
5.53712
5.54277
5.55059
5.56168
5.57627
5.59466
5.61547
5.63565
5.6533
5.6666
5.67425
5.67889
5.68256
5.68808
5.69809
5.7116
5.72726
5.74245
5.75549
5.7652
5.77178
5.77678
5.78239
5.78977
5.79819
5.80639
5.81372
5.82013
5.82603
5.83221
5.83919
5.84661
5.8536
5.85945
5.86377
5.86661
5.86858
5.87036
5.87221
5.87413
5.8756
5.87635
5.8759
5.8741
5.87187
5.87039
5.87104
1.40001
1.40001
1.40001
1.40001
1.40001
1.40001
1.40001
1.40001
1.40001
1.40001
1.40001
1.40001
1.40001
1.40001
1.40001
1.40001
1.40001
1.40001
1.40001
1.40001
1.40001
1.40001
1.40001
1.40001
1.40001
1.40001
1.40001
1.40001
1.40001
1.40001
1.40001
1.40001
1.40001
1.40001
1.40001
1.40001
1.40001
1.40001
1.40001
1.40001
1.40001
1.40001
1.40001
1.40001
1.40001
1.40001
1.40001
1.40001
1.40001
1.40001
1.40001
1.40001
1.40001
1.40001
1.40001
1.40001
1.40001
1.40001
1.40001
1.40001
1.40001
1.40001
2.20235
4.95794
5.39783
5.41452
5.43405
5.45452
5.47593
5.49462
5.51074
5.52316
5.532
5.53816
5.54381
5.55129
5.5612
5.57431
5.59121
5.61086
5.63022
5.64743
5.66101
5.66928
5.67434
5.67778
5.68205
5.69098
5.70344
5.7185
5.73338
5.74646
5.7563
5.76297
5.76777
5.77292
5.77978
5.78778
5.79566
5.80273
5.80897
5.81475
5.82083
5.8277
5.83502
5.84188
5.84752
5.85155
5.85402
5.85558
5.85698
5.85858
5.86043
5.86202
5.86299
5.86273
5.86099
5.85872
5.85712
5.85769
1.40001
1.40001
1.40001
1.40001
1.40001
1.40001
1.40001
1.40001
1.40001
1.40001
1.40001
1.40001
1.40001
1.40001
1.40001
1.40001
1.40001
1.40001
1.40001
1.40001
1.40001
1.40001
1.40001
1.40001
1.40001
1.40001
1.40001
1.40001
1.40001
1.40001
1.40001
1.40001
1.40001
1.40001
1.40001
1.40001
1.40001
1.40001
1.40001
1.40001
1.40001
1.40001
1.40001
1.40001
1.40001
1.40001
1.40001
1.40001
1.40001
1.40001
1.40001
1.40001
1.40001
1.40001
1.40001
1.40001
1.40001
1.40001
1.40001
1.40001
1.40001
1.40001
1.9531
4.80397
5.42237
5.42583
5.4415
5.45833
5.47675
5.49365
5.50875
5.52136
5.53163
5.5392
5.54591
5.55363
5.56284
5.57448
5.58923
5.60707
5.62521
5.64178
5.6556
5.66474
5.67053
5.67386
5.67693
5.68451
5.69559
5.70984
5.72432
5.73736
5.74729
5.75403
5.7586
5.76316
5.76932
5.77674
5.78423
5.79102
5.7971
5.80275
5.80867
5.81538
5.82256
5.8293
5.83478
5.83856
5.84065
5.84177
5.84273
5.84402
5.84575
5.84741
5.84858
5.84848
5.84673
5.84439
5.84263
5.8431
1.40001
1.40001
1.40001
1.40001
1.40001
1.40001
1.40001
1.40001
1.40001
1.40001
1.40001
1.40001
1.40001
1.40001
1.40001
1.40001
1.40001
1.40001
1.40001
1.40001
1.40001
1.40001
1.40001
1.40001
1.40001
1.40001
1.40001
1.40001
1.40001
1.40001
1.40001
1.40001
1.40001
1.40001
1.40001
1.40001
1.40001
1.40001
1.40001
1.40001
1.40001
1.40001
1.40001
1.40001
1.40001
1.40001
1.40001
1.40001
1.40001
1.40001
1.40001
1.40001
1.40001
1.40001
1.40001
1.40001
1.40001
1.40001
1.40001
1.40001
1.40001
1.40001
1.72567
4.61877
5.4466
5.42718
5.44082
5.45431
5.47109
5.48734
5.50237
5.51641
5.52927
5.53918
5.5475
5.55576
5.5646
5.57476
5.58767
5.60367
5.62051
5.63642
5.65032
5.66028
5.66682
5.67022
5.67252
5.67869
5.68827
5.70156
5.71552
5.72833
5.73821
5.7449
5.74918
5.75311
5.75849
5.76526
5.77231
5.77877
5.78456
5.78996
5.79562
5.80209
5.8091
5.81575
5.82112
5.82467
5.82638
5.82702
5.82749
5.82838
5.82991
5.8316
5.83291
5.83294
5.83124
5.82885
5.82699
5.82741
1.40001
1.40001
1.40001
1.40001
1.40001
1.40001
1.40001
1.40001
1.40001
1.40001
1.40001
1.40001
1.40001
1.40001
1.40001
1.40001
1.40001
1.40001
1.40001
1.40001
1.40001
1.40001
1.40001
1.40001
1.40001
1.40001
1.40001
1.40001
1.40001
1.40001
1.40001
1.40001
1.40001
1.40001
1.40001
1.40001
1.40001
1.40001
1.40001
1.40001
1.40001
1.40001
1.40001
1.40001
1.40001
1.40001
1.40001
1.40001
1.40001
1.40001
1.40001
1.40001
1.40001
1.40001
1.40001
1.40001
1.40001
1.40001
1.40001
1.40001
1.40001
1.40001
1.53268
4.3729
5.43334
5.42279
5.43546
5.44931
5.46542
5.48029
5.49372
5.50735
5.52101
5.53354
5.54503
5.5557
5.56547
5.57492
5.58617
5.60021
5.61559
5.63078
5.64462
5.65527
5.66259
5.66646
5.66854
5.67336
5.68147
5.69361
5.70689
5.71928
5.72898
5.73555
5.73953
5.74288
5.74745
5.75352
5.76003
5.76602
5.77137
5.77637
5.78166
5.78781
5.79462
5.80117
5.80643
5.80975
5.81114
5.81137
5.81132
5.81182
5.81308
5.81466
5.81595
5.81602
5.8143
5.81184
5.80986
5.81025
1.40001
1.40001
1.40001
1.40001
1.40001
1.40001
1.40001
1.40001
1.40001
1.40001
1.40001
1.40001
1.40001
1.40001
1.40001
1.40001
1.40001
1.40001
1.40001
1.40001
1.40001
1.40001
1.40001
1.40001
1.40001
1.40001
1.40001
1.40001
1.40001
1.40001
1.40001
1.40001
1.40001
1.40001
1.40001
1.40001
1.40001
1.40001
1.40001
1.40001
1.40001
1.40001
1.40001
1.40001
1.40001
1.40001
1.40001
1.40001
1.40001
1.40001
1.40001
1.40001
1.40001
1.40001
1.40001
1.40001
1.40001
1.40001
1.40001
1.40001
1.40001
1.40001
1.40793
4.07692
5.38057
5.39045
5.40796
5.42692
5.44618
5.46385
5.47973
5.49561
5.51072
5.52548
5.53917
5.55147
5.56219
5.57198
5.58271
5.59566
5.60985
5.62436
5.63806
5.64921
5.65722
5.66194
5.66428
5.66808
5.67499
5.68583
5.69828
5.71009
5.7195
5.72591
5.72965
5.73251
5.73635
5.74165
5.74749
5.75285
5.75756
5.76199
5.76679
5.77255
5.7791
5.78546
5.79052
5.79361
5.79473
5.79455
5.79402
5.7941
5.79496
5.79629
5.79744
5.79748
5.79578
5.79331
5.7913
5.79172
1.40001
1.40001
1.40001
1.40001
1.40001
1.40001
1.40001
1.40001
1.40001
1.40001
1.40001
1.40001
1.40001
1.40001
1.40001
1.40001
1.40001
1.40001
1.40001
1.40001
1.40001
1.40001
1.40001
1.40001
1.40001
1.40001
1.40001
1.40001
1.40001
1.40001
1.40001
1.40001
1.40001
1.40001
1.40001
1.40001
1.40001
1.40001
1.40001
1.40001
1.40001
1.40001
1.40001
1.40001
1.40001
1.40001
1.40001
1.40001
1.40001
1.40001
1.40001
1.40001
1.40001
1.40001
1.40001
1.40001
1.40001
1.40001
1.40001
1.40001
1.40001
1.40001
1.40007
3.7216
5.31408
5.36107
5.38863
5.41185
5.43226
5.44994
5.46522
5.48035
5.49597
5.51236
5.5284
5.54268
5.55469
5.56517
5.5759
5.58835
5.60213
5.61636
5.62991
5.64142
5.65009
5.65595
5.65904
5.66241
5.66858
5.67814
5.68958
5.70061
5.70957
5.71577
5.71938
5.72196
5.72521
5.72972
5.73474
5.73929
5.74316
5.74686
5.75108
5.75638
5.76256
5.76861
5.77337
5.77618
5.77707
5.77656
5.77561
5.77524
5.77562
5.77655
5.77736
5.77721
5.77542
5.77288
5.77083
5.77125
1.40001
1.40001
1.40001
1.40001
1.40001
1.40001
1.40001
1.40001
1.40001
1.40001
1.40001
1.40001
1.40001
1.40001
1.40001
1.40001
1.40001
1.40001
1.40001
1.40001
1.40001
1.40001
1.40001
1.40001
1.40001
1.40001
1.40001
1.40001
1.40001
1.40001
1.40001
1.40001
1.40001
1.40001
1.40001
1.40001
1.40001
1.40001
1.40001
1.40001
1.40001
1.40001
1.40001
1.40001
1.40001
1.40001
1.40001
1.40001
1.40001
1.40001
1.40001
1.40001
1.40001
1.40001
1.40001
1.40001
1.40001
1.40001
1.40001
1.40001
1.40001
1.40001
1.4
3.35451
5.2401
5.33206
5.36386
5.39103
5.4144
5.43446
5.4516
5.46833
5.48524
5.50196
5.518
5.53236
5.54461
5.55523
5.56616
5.57885
5.59252
5.60659
5.62009
5.63177
5.64088
5.64772
5.652
5.65569
5.6617
5.67023
5.68063
5.69068
5.69904
5.705
5.70863
5.71114
5.71397
5.7177
5.72177
5.7253
5.72815
5.73099
5.73453
5.73929
5.74499
5.75059
5.75492
5.75736
5.75796
5.75712
5.75574
5.75486
5.7546
5.75488
5.75533
5.75495
5.75306
5.75052
5.74849
5.74899
1.40001
1.40001
1.40001
1.40001
1.40001
1.40001
1.40001
1.40001
1.40001
1.40001
1.40001
1.40001
1.40001
1.40001
1.40001
1.40001
1.40001
1.40001
1.40001
1.40001
1.40001
1.40001
1.40001
1.40001
1.40001
1.40001
1.40001
1.40001
1.40001
1.40001
1.40001
1.40001
1.40001
1.40001
1.40001
1.40001
1.40001
1.40001
1.40001
1.40001
1.40001
1.40001
1.40001
1.40001
1.40001
1.40001
1.40001
1.40001
1.40001
1.40001
1.40001
1.40001
1.40001
1.40001
1.40001
1.40001
1.40001
1.40001
1.40001
1.40001
1.40001
1.40001
1.40001
2.96846
5.16733
5.32735
5.36182
5.387
5.40645
5.42392
5.44001
5.45619
5.47298
5.49008
5.50663
5.52138
5.53362
5.54406
5.55466
5.56707
5.58079
5.59476
5.60779
5.61951
5.62905
5.6368
5.6425
5.64717
5.65366
5.66165
5.67116
5.68021
5.68789
5.69357
5.69731
5.69985
5.70241
5.70539
5.70839
5.71078
5.71256
5.71446
5.71726
5.72136
5.72644
5.73144
5.7352
5.73712
5.7374
5.7362
5.73442
5.73296
5.73199
5.73151
5.73131
5.73052
5.72841
5.72568
5.72358
5.72403
1.40001
1.40001
1.40001
1.40001
1.40001
1.40001
1.40001
1.40001
1.40001
1.40001
1.40001
1.40001
1.40001
1.40001
1.40001
1.40001
1.40001
1.40001
1.40001
1.40001
1.40001
1.40001
1.40001
1.40001
1.40001
1.40001
1.40001
1.40001
1.40001
1.40001
1.40001
1.40001
1.40001
1.40001
1.40001
1.40001
1.40001
1.40001
1.40001
1.40001
1.40001
1.40001
1.40001
1.40001
1.40001
1.40001
1.40001
1.40001
1.40001
1.40001
1.40001
1.40001
1.40001
1.40001
1.40001
1.40001
1.40001
1.40001
1.40001
1.40001
1.40001
1.40001
1.40001
2.58501
5.05654
5.35006
5.3657
5.38436
5.40269
5.42029
5.43556
5.45008
5.46514
5.48044
5.49538
5.50921
5.52119
5.53169
5.54228
5.55459
5.56834
5.58207
5.59502
5.60594
5.61552
5.62344
5.63041
5.63638
5.64366
5.65167
5.6607
5.66899
5.67604
5.68147
5.6853
5.68791
5.69024
5.69253
5.69443
5.69567
5.69637
5.69731
5.69923
5.7025
5.7068
5.71105
5.7141
5.7154
5.71525
5.71358
5.71124
5.70899
5.70709
5.7057
5.70475
5.70353
5.70121
5.69834
5.69618
5.69662
1.40001
1.40001
1.40001
1.40001
1.40001
1.40001
1.40001
1.40001
1.40001
1.40001
1.40001
1.40001
1.40001
1.40001
1.40001
1.40001
1.40001
1.40001
1.40001
1.40001
1.40001
1.40001
1.40001
1.40001
1.40001
1.40001
1.40001
1.40001
1.40001
1.40001
1.40001
1.40001
1.40001
1.40001
1.40001
1.40001
1.40001
1.40001
1.40001
1.40001
1.40001
1.40001
1.40001
1.40001
1.40001
1.40001
1.40001
1.40001
1.40001
1.40001
1.40001
1.40001
1.40001
1.40001
1.40001
1.40001
1.40001
1.40001
1.40001
1.40001
1.40001
1.40001
1.40001
2.18473
4.88761
5.41026
5.40083
5.41099
5.41796
5.42519
5.43423
5.44599
5.45972
5.47407
5.48808
5.50043
5.51087
5.52007
5.52958
5.54108
5.55455
5.56825
5.58086
5.59197
5.6008
5.60887
5.61604
5.62304
5.63125
5.63976
5.64869
5.65664
5.66329
5.66854
5.67245
5.67511
5.67722
5.67885
5.67973
5.67987
5.67959
5.67955
5.68045
5.6827
5.68606
5.6894
5.6916
5.69232
5.69158
5.68921
5.68617
5.68299
5.68005
5.67762
5.67578
5.67391
5.67109
5.6677
5.66523
5.66538
1.40001
1.40001
1.40001
1.40001
1.40001
1.40001
1.40001
1.40001
1.40001
1.40001
1.40001
1.40001
1.40001
1.40001
1.40001
1.40001
1.40001
1.40001
1.40001
1.40001
1.40001
1.40001
1.40001
1.40001
1.40001
1.40001
1.40001
1.40001
1.40001
1.40001
1.40001
1.40001
1.40001
1.40001
1.40001
1.40001
1.40001
1.40001
1.40001
1.40001
1.40001
1.40001
1.40001
1.40001
1.40001
1.40001
1.40001
1.40001
1.40001
1.40001
1.40001
1.40001
1.40001
1.40001
1.40001
1.40001
1.40001
1.40001
1.40001
1.40001
1.40001
1.40001
1.40001
1.79659
4.72086
5.47142
5.4166
5.42227
5.42563
5.43267
5.44174
5.45126
5.46135
5.47209
5.48339
5.49389
5.50303
5.51127
5.51967
5.52967
5.5415
5.55412
5.56607
5.57671
5.58565
5.59302
5.60056