/*--------------------------------*- C++ -*----------------------------------*\
  =========                 |
  \\      /  F ield         | OpenFOAM: The Open Source CFD Toolbox
   \\    /   O peration     | Website:  https://openfoam.org
    \\  /    A nd           | Version:  7
     \\/     M anipulation  |
\*---------------------------------------------------------------------------*/
FoamFile
{
    version     2.0;
    format      ascii;
    class       volVectorField;
    location    "1";
    object      U;
}
// * * * * * * * * * * * * * * * * * * * * * * * * * * * * * * * * * * * * * //

dimensions      [0 1 -1 0 0 0 0];

internalField   nonuniform List<vector> 
344
(
(1.26971 0.024451 2.25092e-15)
(1.27161 0.0196971 2.22779e-15)
(1.27308 0.0157947 2.18322e-15)
(1.2742 0.0126117 2.15967e-15)
(1.27505 0.0100305 2.10987e-15)
(1.27569 0.00794789 2.16991e-15)
(1.27617 0.00627552 2.13237e-15)
(1.27653 0.00493827 2.09681e-15)
(1.27679 0.00387322 2.07768e-15)
(1.27698 0.00302809 2.04546e-15)
(1.27712 0.0023598 2.03535e-15)
(1.27722 0.00183312 2.00847e-15)
(1.27729 0.00141938 1.98738e-15)
(1.27734 0.0010954 1.94788e-15)
(1.27737 0.000842494 2.01284e-15)
(1.27739 0.000645701 1.97213e-15)
(1.2774 0.00049306 1.95602e-15)
(1.27741 0.000375053 1.92324e-15)
(1.27742 0.00028413 1.97758e-15)
(1.27742 0.000214324 1.9432e-15)
(1.27742 0.000160928 1.91267e-15)
(1.27742 0.000120245 1.87647e-15)
(1.27741 8.93773e-05 1.92407e-15)
(1.27741 6.60614e-05 1.89062e-15)
(1.27741 4.85348e-05 1.86454e-15)
(1.27741 3.54289e-05 1.83011e-15)
(1.27741 2.56844e-05 1.81179e-15)
(1.2774 1.84846e-05 1.78888e-15)
(1.2774 1.32017e-05 1.76948e-15)
(1.2774 9.35537e-06 1.74217e-15)
(1.2774 6.57905e-06 1.79145e-15)
(1.2774 4.59451e-06 1.76171e-15)
(1.2774 3.19175e-06 1.7304e-15)
(1.2774 2.21283e-06 1.7146e-15)
(1.2774 1.53961e-06 1.70082e-15)
(1.2774 1.08455e-06 1.68916e-15)
(1.27739 7.83131e-07 1.6681e-15)
(1.27739 5.88189e-07 1.65719e-15)
(1.27739 4.65552e-07 1.63008e-15)
(1.27739 3.90917e-07 1.66909e-15)
(1.27739 3.47059e-07 1.64441e-15)
(1.27739 3.22204e-07 1.62111e-15)
(1.27739 3.08399e-07 1.59845e-15)
(1.27739 2.99847e-07 1.63653e-15)
(1.27739 2.94112e-07 1.60785e-15)
(0.942767 0.215695 6.66279e-16)
(0.94937 0.226682 8.20543e-16)
(0.957967 0.234775 9.46067e-16)
(0.968673 0.23961 1.11993e-15)
(0.981495 0.240939 1.26148e-15)
(0.996313 0.238665 1.39327e-15)
(1.01287 0.232858 1.54001e-15)
(1.03079 0.223762 1.64862e-15)
(1.04961 0.211785 1.76556e-15)
(1.06878 0.19747 1.83715e-15)
(1.08777 0.181445 1.92728e-15)
(1.10608 0.164377 1.95951e-15)
(1.12328 0.14691 2.03452e-15)
(1.13906 0.129628 2.06108e-15)
(1.15322 0.113014 2.09236e-15)
(1.16565 0.0974379 2.06481e-15)
(1.17638 0.0831502 2.08987e-15)
(1.18547 0.0702935 2.07353e-15)
(1.19305 0.0589178 2.07471e-15)
(1.19929 0.0489999 2.0258e-15)
(1.20436 0.0404645 2.02132e-15)
(1.20844 0.0332023 1.98748e-15)
(1.21168 0.0270849 1.97638e-15)
(1.21423 0.0219774 1.92238e-15)
(1.21623 0.0177463 1.9047e-15)
(1.21777 0.0142655 1.85893e-15)
(1.21897 0.0114197 1.84961e-15)
(1.21988 0.00910606 1.7956e-15)
(1.22057 0.00723451 1.80599e-15)
(1.22109 0.00572753 1.79009e-15)
(1.22148 0.00451923 1.7642e-15)
(1.22178 0.00355423 1.76374e-15)
(1.22199 0.00278637 1.72962e-15)
(1.22215 0.00217751 1.73149e-15)
(1.22227 0.00169634 1.69836e-15)
(1.22235 0.00131731 1.69511e-15)
(1.22241 0.00101969 1.65744e-15)
(1.22245 0.000786721 1.67202e-15)
(1.22248 0.000604937 1.65781e-15)
(1.2225 0.000463538 1.6641e-15)
(1.22252 0.000353905 1.62761e-15)
(1.22252 0.000269183 1.63571e-15)
(1.22253 0.000203935 1.62133e-15)
(1.22253 0.000153862 1.624e-15)
(1.22253 0.000115579 1.58675e-15)
(1.22253 8.64235e-05 1.59313e-15)
(1.22253 6.43121e-05 1.57964e-15)
(1.22253 4.7617e-05 1.57687e-15)
(1.22253 3.5071e-05 1.54078e-15)
(1.22253 2.56909e-05 1.54108e-15)
(1.22252 1.87165e-05 1.51053e-15)
(1.22252 1.35615e-05 1.5101e-15)
(1.22252 9.77636e-06 1.47561e-15)
(1.22252 7.0167e-06 1.48767e-15)
(1.22252 5.02023e-06 1.47782e-15)
(1.22252 3.5882e-06 1.4554e-15)
(1.22252 2.57063e-06 1.45573e-15)
(1.22252 1.85485e-06 1.43675e-15)
(1.22252 1.35681e-06 1.4389e-15)
(1.22252 1.01417e-06 1.41401e-15)
(1.22252 7.81176e-07 1.41542e-15)
(1.22252 6.24418e-07 1.3868e-15)
(1.22252 5.19728e-07 1.39163e-15)
(1.22252 4.49933e-07 1.38093e-15)
(1.22252 4.02979e-07 1.37934e-15)
(1.22252 3.70733e-07 1.35501e-15)
(1.22252 3.46897e-07 1.36114e-15)
(1.22252 3.29225e-07 1.34836e-15)
(0.881095 0.208627 7.29756e-16)
(0.891067 0.218708 8.57245e-16)
(0.90309 0.225914 9.92286e-16)
(0.917198 0.229923 1.13938e-15)
(0.933312 0.230536 1.27464e-15)
(0.951227 0.2277 1.39667e-15)
(0.970616 0.221527 1.50145e-15)
(0.991045 0.21229 1.61392e-15)
(1.01201 0.200412 1.6907e-15)
(1.03296 0.186431 1.77406e-15)
(1.05339 0.170953 1.81977e-15)
(1.07281 0.154606 1.86383e-15)
(1.09085 0.137989 1.91005e-15)
(1.10724 0.121634 1.93077e-15)
(1.12184 0.105976 1.91943e-15)
(1.13459 0.0913407 1.91942e-15)
(1.14553 0.0779468 1.92356e-15)
(1.15477 0.065913 1.9077e-15)
(1.16247 0.055275 1.87235e-15)
(1.1688 0.046004 1.85104e-15)
(1.17394 0.038025 1.83482e-15)
(1.17807 0.0312333 1.80787e-15)
(1.18136 0.0255084 1.76905e-15)
(1.18395 0.0207241 1.74606e-15)
(1.18599 0.0167563 1.70542e-15)
(1.18757 0.0134881 1.68989e-15)
(1.18879 0.0108125 1.65495e-15)
(1.18973 0.00863416 1.63449e-15)
(1.19045 0.00686946 1.62953e-15)
(1.19099 0.00544639 1.61714e-15)
(1.1914 0.00430366 1.59929e-15)
(1.19171 0.00338965 1.57321e-15)
(1.19194 0.00266127 1.5693e-15)
(1.19211 0.00208284 1.54598e-15)
(1.19224 0.00162505 1.54217e-15)
(1.19233 0.0012639 1.51345e-15)
(1.19239 0.000979904 1.50642e-15)
(1.19244 0.000757274 1.50849e-15)
(1.19247 0.000583296 1.5007e-15)
(1.1925 0.000447766 1.48086e-15)
(1.19251 0.000342522 1.47349e-15)
(1.19252 0.000261064 1.47312e-15)
(1.19253 0.000198226 1.46159e-15)
(1.19253 0.000149921 1.4425e-15)
(1.19253 0.000112922 1.43705e-15)
(1.19253 8.46905e-05 1.43321e-15)
(1.19253 6.32347e-05 1.42562e-15)
(1.19253 4.69977e-05 1.3985e-15)
(1.19253 3.47652e-05 1.3966e-15)
(1.19253 2.55937e-05 1.37366e-15)
(1.19253 1.87527e-05 1.3701e-15)
(1.19253 1.36781e-05 1.3468e-15)
(1.19253 9.93642e-06 1.34191e-15)
(1.19253 7.19518e-06 1.34267e-15)
(1.19253 5.20069e-06 1.3351e-15)
(1.19252 3.7603e-06 1.32101e-15)
(1.19252 2.72833e-06 1.3002e-15)
(1.19252 1.99515e-06 1.30107e-15)
(1.19252 1.47871e-06 1.28913e-15)
(1.19252 1.11796e-06 1.28515e-15)
(1.19252 8.67914e-07 1.26689e-15)
(1.19252 6.95642e-07 1.26248e-15)
(1.19252 5.77207e-07 1.25908e-15)
(1.19252 4.95504e-07 1.25273e-15)
(1.19252 4.38366e-07 1.23447e-15)
(1.19252 3.97585e-07 1.23155e-15)
(1.19252 3.66773e-07 1.22838e-15)
(1.19252 3.43799e-07 1.22048e-15)
(0.8349 0.209857 9.0786e-16)
(0.850168 0.216202 1.02911e-15)
(0.867449 0.219438 1.15041e-15)
(0.886581 0.21941 1.27436e-15)
(0.907285 0.216109 1.3847e-15)
(0.929173 0.209679 1.4844e-15)
(0.951769 0.200419 1.57017e-15)
(0.974547 0.188755 1.63908e-15)
(0.99697 0.175212 1.69779e-15)
(1.01854 0.160371 1.74138e-15)
(1.03882 0.144818 1.76239e-15)
(1.05748 0.129105 1.7834e-15)
(1.07432 0.113711 1.79575e-15)
(1.08921 0.0990271 1.78654e-15)
(1.10215 0.0853398 1.77093e-15)
(1.11323 0.0728372 1.75772e-15)
(1.12256 0.061618 1.73992e-15)
(1.13032 0.0517066 1.71473e-15)
(1.13669 0.0430703 1.68549e-15)
(1.14187 0.0356356 1.65669e-15)
(1.14604 0.0293037 1.63487e-15)
(1.14936 0.0239619 1.60758e-15)
(1.15199 0.019493 1.58219e-15)
(1.15406 0.0157823 1.55383e-15)
(1.15567 0.0127218 1.53156e-15)
(1.15692 0.0102128 1.50674e-15)
(1.15789 0.00816697 1.48387e-15)
(1.15863 0.00650717 1.46839e-15)
(1.15919 0.00516665 1.45374e-15)
(1.15962 0.00408857 1.44574e-15)
(1.15994 0.00322495 1.43179e-15)
(1.16019 0.00253568 1.41677e-15)
(1.16037 0.0019875 1.40607e-15)
(1.1605 0.001553 1.39368e-15)
(1.1606 0.00120972 1.37726e-15)
(1.16067 0.000939372 1.36656e-15)
(1.16072 0.000727132 1.35696e-15)
(1.16076 0.000561029 1.35245e-15)
(1.16079 0.00043144 1.34256e-15)
(1.16081 0.000330657 1.32743e-15)
(1.16082 0.000252529 1.32038e-15)
(1.16083 0.000192163 1.31261e-15)
(1.16083 0.00014568 1.30684e-15)
(1.16083 0.000110013 1.2959e-15)
(1.16084 8.27461e-05 1.2839e-15)
(1.16084 6.1981e-05 1.27743e-15)
(1.16084 4.62317e-05 1.26506e-15)
(1.16084 3.43377e-05 1.25657e-15)
(1.16083 2.53956e-05 1.24427e-15)
(1.16083 1.87054e-05 1.23769e-15)
(1.16083 1.37257e-05 1.22649e-15)
(1.16083 1.00394e-05 1.21611e-15)
(1.16083 7.32653e-06 1.20442e-15)
(1.16083 5.34216e-06 1.20003e-15)
(1.16083 3.90013e-06 1.18974e-15)
(1.16083 2.8594e-06 1.18207e-15)
(1.16083 2.11341e-06 1.17731e-15)
(1.16083 1.58229e-06 1.17078e-15)
(1.16083 1.20655e-06 1.16471e-15)
(1.16083 9.42023e-07 1.15521e-15)
(1.16083 7.56322e-07 1.14439e-15)
(1.16083 6.25917e-07 1.13376e-15)
(1.16083 5.33748e-07 1.1304e-15)
(1.16083 4.67623e-07 1.12168e-15)
(1.16083 4.19309e-07 1.11398e-15)
(1.16083 3.82353e-07 1.10543e-15)
(1.16083 3.54598e-07 1.09858e-15)
(0.780855 0.200179 9.48005e-16)
(0.799137 0.205701 1.05036e-15)
(0.819316 0.208226 1.15104e-15)
(0.841157 0.207642 1.26095e-15)
(0.864315 0.203977 1.35687e-15)
(0.888354 0.197403 1.4529e-15)
(0.91277 0.188233 1.5144e-15)
(0.937031 0.176892 1.5812e-15)
(0.960616 0.163886 1.61189e-15)
(0.983054 0.149763 1.65266e-15)
(1.00396 0.135066 1.65341e-15)
(1.02305 0.120297 1.65142e-15)
(1.04016 0.105891 1.65428e-15)
(1.05522 0.0921919 1.65364e-15)
(1.06827 0.0794522 1.61997e-15)
(1.0794 0.0678334 1.59067e-15)
(1.08876 0.057417 1.57617e-15)
(1.09654 0.0482182 1.56173e-15)
(1.10293 0.0402023 1.52349e-15)
(1.10813 0.0332988 1.48813e-15)
(1.11232 0.0274149 1.46571e-15)
(1.11566 0.0224461 1.45511e-15)
(1.11832 0.0182845 1.42006e-15)
(1.12041 0.0148245 1.4083e-15)
(1.12205 0.0119667 1.37727e-15)
(1.12333 0.00962043 1.36936e-15)
(1.12431 0.00770444 1.33865e-15)
(1.12508 0.00614755 1.31175e-15)
(1.12566 0.00488822 1.30224e-15)
(1.1261 0.00387386 1.29647e-15)
(1.12644 0.00306004 1.29408e-15)
(1.1267 0.00240954 1.27301e-15)
(1.12689 0.00189141 1.27143e-15)
(1.12703 0.00148012 1.25085e-15)
(1.12714 0.00115469 1.25112e-15)
(1.12722 0.000898036 1.23014e-15)
(1.12728 0.000696249 1.21127e-15)
(1.12732 0.000538096 1.20743e-15)
(1.12735 0.000414527 1.21067e-15)
(1.12737 0.00031828 1.1914e-15)
(1.12738 0.000243554 1.17477e-15)
(1.12739 0.000185726 1.17384e-15)
(1.1274 0.000141122 1.17682e-15)
(1.1274 0.000106837 1.16015e-15)
(1.12741 8.05783e-05 1.14235e-15)
(1.12741 6.0541e-05 1.13916e-15)
(1.12741 4.53109e-05 1.14079e-15)
(1.12741 3.37817e-05 1.12762e-15)
(1.12741 2.50912e-05 1.12501e-15)
(1.12741 1.85703e-05 1.11309e-15)
(1.12741 1.37007e-05 1.1091e-15)
(1.12741 1.00825e-05 1.09282e-15)
(1.12741 7.40839e-06 1.07465e-15)
(1.12741 5.44283e-06 1.07167e-15)
(1.12741 4.00633e-06 1.06947e-15)
(1.12741 2.9627e-06 1.07018e-15)
(1.1274 2.20873e-06 1.06032e-15)
(1.1274 1.66692e-06 1.06103e-15)
(1.1274 1.27943e-06 1.04662e-15)
(1.1274 1.00312e-06 1.05083e-15)
(1.1274 8.06254e-07 1.03287e-15)
(1.1274 6.65692e-07 1.0152e-15)
(1.1274 5.64564e-07 1.01539e-15)
(1.1274 4.90731e-07 1.0148e-15)
(1.1274 4.35898e-07 1.0015e-15)
(1.1274 3.93617e-07 9.89516e-16)
(1.1274 3.61564e-07 9.85399e-16)
(0.72885 0.189759 9.50145e-16)
(0.749874 0.194511 1.06382e-15)
(0.772641 0.196399 1.13755e-15)
(0.796853 0.195351 1.23689e-15)
(0.822113 0.191426 1.32259e-15)
(0.847948 0.184819 1.37559e-15)
(0.873839 0.175847 1.44732e-15)
(0.899261 0.164928 1.47324e-15)
(0.923715 0.152544 1.5172e-15)
(0.946771 0.139206 1.51646e-15)
(0.968086 0.125412 1.53624e-15)
(0.987429 0.111618 1.51209e-15)
(1.00467 0.0982124 1.51326e-15)
(1.0198 0.0854994 1.47321e-15)
(1.03285 0.0736994 1.47192e-15)
(1.04397 0.0629507 1.42528e-15)
(1.05332 0.0533204 1.41512e-15)
(1.06108 0.044817 1.37066e-15)
(1.06747 0.0374049 1.36281e-15)
(1.07267 0.0310175 1.31826e-15)
(1.07686 0.0255687 1.30355e-15)
(1.08023 0.0209623 1.26536e-15)
(1.0829 0.0170993 1.26676e-15)
(1.08502 0.0138831 1.22919e-15)
(1.08668 0.0112229 1.22662e-15)
(1.08798 0.00903549 1.19568e-15)
(1.08899 0.00724647 1.19495e-15)
(1.08977 0.0057905 1.16033e-15)
(1.09037 0.00461096 1.15545e-15)
)
;

boundaryField
{
    inlet
    {
        type            uniformFixedValue;
        uniformValue    constant (1 0 0);
        value           nonuniform 0();
    }
    outlet
    {
        type            pressureInletOutletVelocity;
        value           nonuniform 0();
    }
    wall
    {
        type            fixedValue;
        value           nonuniform 0();
    }
    wedge1
    {
        type            wedge;
    }
    wedge2
    {
        type            wedge;
    }
    axis
    {
        type            empty;
    }
    procBoundary22to16
    {
        type            processor;
        value           nonuniform List<vector> 
69
(
(1.33978 0.0283078 2.77989e-15)
(1.34143 0.0227326 2.73553e-15)
(1.34269 0.0181673 2.70431e-15)
(1.34365 0.0144546 2.65691e-15)
(1.34437 0.0114536 2.6054e-15)
(1.34491 0.00904102 2.67932e-15)
(1.3453 0.00711084 2.64579e-15)
(1.34559 0.00557342 2.61223e-15)
(1.3458 0.00435376 2.58715e-15)
(1.34595 0.00338982 2.57627e-15)
(1.34605 0.00263066 2.52937e-15)
(1.34612 0.00203478 2.50462e-15)
(1.34617 0.0015686 2.46015e-15)
(1.3462 0.00120503 2.41426e-15)
(1.34622 0.000922404 2.49516e-15)
(1.34623 0.0007034 2.46156e-15)
(1.34624 0.000534253 2.44213e-15)
(1.34624 0.000404055 2.41752e-15)
(1.34624 0.000304193 2.46603e-15)
(1.34624 0.000227884 2.42923e-15)
(1.34623 0.000169805 2.37844e-15)
(1.34623 0.000125788 2.3451e-15)
(1.34623 9.25825e-05 2.38633e-15)
(1.34622 6.76582e-05 2.34605e-15)
(1.34622 4.90527e-05 2.32389e-15)
(1.34622 3.52486e-05 2.30515e-15)
(1.34621 2.50764e-05 2.26148e-15)
(1.34621 1.76379e-05 2.23881e-15)
(1.34621 1.22458e-05 2.20615e-15)
(1.34621 8.37633e-06 2.16728e-15)
(1.34621 5.63202e-06 2.2234e-15)
(1.34621 3.71279e-06 2.19753e-15)
(1.3462 2.39318e-06 2.17594e-15)
(1.3462 1.50472e-06 2.15211e-15)
(1.3462 9.22547e-07 2.13588e-15)
(1.3462 5.54666e-07 2.10362e-15)
(1.3462 3.33923e-07 2.08935e-15)
(1.3462 2.1162e-07 2.05691e-15)
(1.3462 1.53395e-07 2.0286e-15)
(1.3462 1.34979e-07 2.07277e-15)
(1.3462 1.39614e-07 2.04663e-15)
(1.3462 1.55752e-07 2.02693e-15)
(1.3462 1.7626e-07 2.00511e-15)
(1.3462 1.96407e-07 2.03573e-15)
(1.3462 2.13808e-07 2.00119e-15)
(1.06643 0.227668 5.31498e-16)
(1.06635 0.240398 6.88923e-16)
(1.06806 0.250245 8.3928e-16)
(1.07182 0.256766 1.06727e-15)
(1.07783 0.25962 1.21721e-15)
(1.08612 0.258614 1.37216e-15)
(1.09661 0.253727 1.52553e-15)
(1.10905 0.245132 1.6833e-15)
(1.12307 0.233195 1.81511e-15)
(1.13817 0.218448 1.93202e-15)
(1.15381 0.201554 2.03345e-15)
(1.16945 0.18324 2.11113e-15)
(1.18458 0.164241 2.27058e-15)
(1.19879 0.145239 2.30194e-15)
(1.21178 0.126818 2.33416e-15)
(1.22337 0.109435 2.33541e-15)
(1.23348 0.0934139 2.43327e-15)
(1.24212 0.0789493 2.40317e-15)
(1.24937 0.0661233 2.38398e-15)
(1.25536 0.0549287 2.3491e-15)
(1.26023 0.0452921 2.39993e-15)
(1.26415 0.0370966 2.34343e-15)
(1.26726 0.0302003 2.30534e-15)
(1.26726 0.0302003 2.30534e-15)
)
;
    }
    procBoundary22to17
    {
        type            processor;
        value           uniform (1.27739 2.87969e-07 1.58077e-15);
    }
    procBoundary22to21
    {
        type            processor;
        value           nonuniform List<vector> 5((0.937957 0.202263 5.35448e-16) (0.873046 0.196084 5.90212e-16) (0.821692 0.200682 7.83475e-16) (0.821692 0.200682 7.83475e-16) (0.764594 0.191895 8.28559e-16));
    }
    procBoundary22to23
    {
        type            processor;
        value           nonuniform List<vector> 4((1.22252 3.12978e-07 1.34418e-15) (1.19252 3.22961e-07 1.2009e-15) (1.16083 3.29896e-07 1.08699e-15) (1.1274 3.33487e-07 9.82841e-16));
    }
    procBoundary22to27
    {
        type            processor;
        value           uniform (0.709767 0.182338 8.60581e-16);
    }
    procBoundary22to28
    {
        type            processor;
        value           nonuniform List<vector> 
68
(
(1.09083 0.0036594 1.15678e-15)
(1.09119 0.0028948 1.12558e-15)
(1.09145 0.00228271 1.13426e-15)
(1.09166 0.00179445 1.10631e-15)
(1.09181 0.0014063 1.11864e-15)
(1.09192 0.00109874 1.09176e-15)
(1.09201 0.00085582 1.10143e-15)
(1.09207 0.000664559 1.0712e-15)
(1.09212 0.00051444 1.07173e-15)
(1.09215 0.000396977 1.04989e-15)
(1.09218 0.000305351 1.06202e-15)
(1.09219 0.000234105 1.03444e-15)
(1.09221 0.000178884 1.03922e-15)
(1.09221 0.000136222 1.01903e-15)
(1.09222 0.000103374 1.03236e-15)
(1.09222 7.81703e-05 1.00547e-15)
(1.09223 5.89008e-05 1.00963e-15)
(1.09223 4.42238e-05 9.87696e-16)
(1.09223 3.3088e-05 1.00138e-15)
(1.09223 2.4673e-05 9.80594e-16)
(1.09223 1.83412e-05 9.90495e-16)
(1.09223 1.35982e-05 9.68492e-16)
(1.09223 1.00617e-05 9.73646e-16)
(1.09223 7.43765e-06 9.49148e-16)
(1.09223 5.50023e-06 9.51916e-16)
(1.09223 4.07701e-06 9.5338e-16)
(1.09222 3.03672e-06 9.33414e-16)
(1.09222 2.27995e-06 9.46437e-16)
(1.09222 1.73177e-06 9.29211e-16)
(1.09222 1.33595e-06 9.38153e-16)
(1.09222 1.05072e-06 9.189e-16)
(1.09222 8.45108e-07 9.26556e-16)
(1.09222 6.96289e-07 9.01681e-16)
(1.09222 5.87778e-07 9.0493e-16)
(1.09222 5.07578e-07 8.87321e-16)
(1.09222 4.47272e-07 8.91548e-16)
(1.09222 4.0053e-07 8.7305e-16)
(1.09222 3.64636e-07 8.75739e-16)
(0.678752 0.178697 9.62818e-16)
(0.702207 0.182742 1.05981e-15)
(0.727226 0.184077 1.10725e-15)
(0.753454 0.182661 1.20243e-15)
(0.780453 0.17858 1.27584e-15)
(0.807729 0.172044 1.31532e-15)
(0.834761 0.16337 1.36946e-15)
(0.861037 0.15296 1.38592e-15)
(0.88609 0.141269 1.41613e-15)
(0.909531 0.128768 1.40807e-15)
(0.931064 0.115912 1.41543e-15)
(0.950502 0.10311 1.36602e-15)
(0.967761 0.0907073 1.37282e-15)
(0.982848 0.0789727 1.33769e-15)
(0.99585 0.0680975 1.32873e-15)
(1.00691 0.0582 1.25934e-15)
(1.0162 0.0493355 1.26205e-15)
(1.02392 0.0415075 1.22353e-15)
(1.03028 0.0346809 1.2149e-15)
(1.03546 0.0287934 1.1499e-15)
(1.03966 0.023766 1.15296e-15)
(1.04303 0.0195107 1.12595e-15)
(1.04572 0.0159374 1.12474e-15)
(1.04785 0.0129582 1.09225e-15)
(1.04953 0.0104902 1.08968e-15)
(1.05085 0.00845776 1.06344e-15)
(1.05188 0.00679288 1.06297e-15)
(1.05269 0.00543582 1.01082e-15)
(1.09083 0.0036594 1.15678e-15)
(1.05331 0.00433469 1.02487e-15)
)
;
    }
}


// ************************************************************************* //
