/*--------------------------------*- C++ -*----------------------------------*\
  =========                 |
  \\      /  F ield         | OpenFOAM: The Open Source CFD Toolbox
   \\    /   O peration     | Website:  https://openfoam.org
    \\  /    A nd           | Version:  7
     \\/     M anipulation  |
\*---------------------------------------------------------------------------*/
FoamFile
{
    version     2.0;
    format      ascii;
    class       surfaceScalarField;
    location    "6.8";
    object      phi;
}
// * * * * * * * * * * * * * * * * * * * * * * * * * * * * * * * * * * * * * //

dimensions      [0 3 -1 0 0 0 0];

internalField   nonuniform List<scalar> 
60711
(
2.55637e-06
-7.4011e-11
2.55659e-06
-2.20983e-10
2.55696e-06
-3.66892e-10
2.55747e-06
-5.11679e-10
2.55812e-06
-6.54777e-10
2.55892e-06
-7.95323e-10
2.55985e-06
-9.32524e-10
2.56092e-06
-1.06577e-09
2.56211e-06
-1.19459e-09
2.56343e-06
-1.31858e-09
2.56487e-06
-1.4374e-09
2.56642e-06
-1.55072e-09
2.56808e-06
-1.65827e-09
2.56984e-06
-1.75981e-09
2.57169e-06
-1.85516e-09
2.57364e-06
-1.94419e-09
2.57566e-06
-2.02683e-09
2.57777e-06
-2.10307e-09
2.57994e-06
-2.17294e-09
2.58218e-06
-2.23651e-09
2.58447e-06
-2.29389e-09
2.58682e-06
-2.34523e-09
2.58921e-06
-2.39072e-09
2.59164e-06
-2.43056e-09
2.5941e-06
-2.46498e-09
2.5966e-06
-2.49422e-09
2.59911e-06
-2.51856e-09
2.60165e-06
-2.53826e-09
2.60421e-06
-2.5536e-09
2.60677e-06
-2.56487e-09
2.60934e-06
-2.57235e-09
2.61192e-06
-2.57631e-09
2.6145e-06
-2.57705e-09
2.61707e-06
-2.57481e-09
2.61964e-06
-2.56987e-09
2.6222e-06
-2.56248e-09
2.62476e-06
-2.55287e-09
2.6273e-06
-2.54128e-09
2.62983e-06
-2.52792e-09
2.63234e-06
-2.51298e-09
2.63484e-06
-2.49667e-09
2.63731e-06
-2.47916e-09
2.63978e-06
-2.46062e-09
2.64222e-06
-2.44119e-09
2.64464e-06
-2.42101e-09
2.64704e-06
-2.40022e-09
2.64942e-06
-2.37893e-09
2.65177e-06
-2.35724e-09
2.65411e-06
-2.33526e-09
2.65642e-06
-2.31307e-09
2.65871e-06
-2.29075e-09
2.66098e-06
-2.26836e-09
2.66323e-06
-2.24598e-09
2.66545e-06
-2.22365e-09
2.66765e-06
-2.20143e-09
2.66983e-06
-2.17935e-09
2.67199e-06
-2.15746e-09
2.67412e-06
-2.13578e-09
2.67624e-06
-2.11436e-09
2.67833e-06
-2.0932e-09
2.6804e-06
-2.07233e-09
2.68246e-06
-2.05176e-09
2.68449e-06
-2.03151e-09
2.6865e-06
-2.0116e-09
2.68849e-06
-1.99202e-09
2.69046e-06
-1.97279e-09
2.69242e-06
-1.95392e-09
2.69435e-06
-1.93539e-09
2.69627e-06
-1.91722e-09
2.69817e-06
-1.8994e-09
2.70005e-06
-1.88194e-09
2.70192e-06
-1.86483e-09
2.70377e-06
-1.84806e-09
2.7056e-06
-1.83165e-09
2.70741e-06
-1.81557e-09
2.70921e-06
-1.79983e-09
2.711e-06
-1.78442e-09
2.71277e-06
-1.76933e-09
2.71452e-06
-1.75456e-09
2.71626e-06
-1.74011e-09
2.71799e-06
-1.72596e-09
2.7197e-06
-1.71211e-09
2.7214e-06
-1.69855e-09
2.72308e-06
-1.68529e-09
2.72475e-06
-1.67229e-09
2.72641e-06
-1.65958e-09
2.72806e-06
-1.64713e-09
2.7297e-06
-1.63493e-09
2.73132e-06
-1.62299e-09
2.73293e-06
-1.6113e-09
2.73453e-06
-1.59985e-09
2.73612e-06
-1.58862e-09
2.7377e-06
-1.57763e-09
2.73926e-06
-1.56686e-09
2.74082e-06
-1.5563e-09
2.74237e-06
-1.54595e-09
2.7439e-06
-1.5358e-09
2.74543e-06
-1.52585e-09
2.74694e-06
-1.5161e-09
2.74845e-06
-1.50653e-09
2.74995e-06
-1.49714e-09
2.75144e-06
-1.48793e-09
2.75291e-06
-1.4789e-09
2.75438e-06
-1.47002e-09
2.75585e-06
-1.46132e-09
2.7573e-06
-1.45277e-09
2.75874e-06
-1.44437e-09
2.76018e-06
-1.43613e-09
2.76161e-06
-1.42803e-09
2.76303e-06
-1.42007e-09
2.76444e-06
-1.41225e-09
2.76584e-06
-1.40457e-09
2.76724e-06
-1.39702e-09
2.76863e-06
-1.3896e-09
2.77001e-06
-1.3823e-09
2.77139e-06
-1.37512e-09
2.77276e-06
-1.36806e-09
2.77412e-06
-1.36112e-09
2.77547e-06
-1.35429e-09
2.77682e-06
-1.34757e-09
2.77816e-06
-1.34096e-09
2.77949e-06
-1.33445e-09
2.78082e-06
-1.32805e-09
2.78214e-06
-1.32175e-09
2.78346e-06
-1.31555e-09
2.78477e-06
-1.30944e-09
2.78607e-06
-1.30343e-09
2.78737e-06
-1.29751e-09
2.78866e-06
-1.29168e-09
2.78995e-06
-1.28594e-09
2.79123e-06
-1.28029e-09
2.7925e-06
-1.27473e-09
2.79377e-06
-1.26925e-09
2.79504e-06
-1.26386e-09
2.79629e-06
-1.25854e-09
2.79755e-06
-1.25331e-09
2.7988e-06
-1.24816e-09
2.80004e-06
-1.24309e-09
2.80128e-06
-1.23809e-09
2.80251e-06
-1.23318e-09
2.80374e-06
-1.22834e-09
2.80496e-06
-1.22357e-09
2.80618e-06
-1.21889e-09
2.8074e-06
-1.21428e-09
2.8086e-06
-1.20974e-09
2.80981e-06
-1.20528e-09
2.81101e-06
-1.20089e-09
2.81221e-06
-1.19658e-09
2.8134e-06
-1.19234e-09
2.81459e-06
-1.18818e-09
2.81577e-06
-1.1841e-09
2.81695e-06
-1.18009e-09
2.81813e-06
-1.17616e-09
2.8193e-06
-1.1723e-09
2.82047e-06
-1.16853e-09
2.82163e-06
-1.16483e-09
2.8228e-06
-1.16122e-09
2.82395e-06
-1.15769e-09
2.82511e-06
-1.15424e-09
2.82626e-06
-1.15088e-09
2.82741e-06
-1.1476e-09
2.82855e-06
-1.14442e-09
2.82969e-06
-1.14132e-09
2.83083e-06
-1.13832e-09
2.83197e-06
-1.13542e-09
2.8331e-06
-1.13262e-09
2.83423e-06
-1.12992e-09
2.83536e-06
-1.12733e-09
2.83648e-06
-1.12485e-09
2.8376e-06
-1.12249e-09
2.83872e-06
-1.12025e-09
2.83984e-06
-1.11813e-09
2.84096e-06
-1.11614e-09
2.84207e-06
-1.11428e-09
2.84318e-06
-1.11257e-09
2.84429e-06
-1.11101e-09
2.8454e-06
-1.1096e-09
2.84651e-06
-1.10835e-09
2.84762e-06
-1.10727e-09
2.84873e-06
-1.10637e-09
2.84983e-06
-1.10566e-09
2.85094e-06
-1.10514e-09
2.85204e-06
-1.10484e-09
2.85315e-06
-1.10475e-09
2.85425e-06
-1.10489e-09
2.85536e-06
-1.10528e-09
2.85646e-06
-1.10592e-09
2.85757e-06
-1.10683e-09
2.85868e-06
-1.10803e-09
2.85979e-06
-1.10954e-09
2.8609e-06
-1.11136e-09
2.86201e-06
-1.11352e-09
2.86313e-06
-1.11604e-09
2.86425e-06
-1.11893e-09
2.86537e-06
-1.12223e-09
2.8665e-06
-1.12596e-09
2.86763e-06
-1.13013e-09
2.86876e-06
-1.13479e-09
2.8699e-06
-1.13995e-09
2.87105e-06
-1.14564e-09
2.8722e-06
-1.15191e-09
2.87336e-06
-1.15878e-09
2.87452e-06
-1.16629e-09
2.8757e-06
-1.17448e-09
2.87688e-06
-1.1834e-09
2.87807e-06
-1.19308e-09
2.87928e-06
-1.20358e-09
2.88049e-06
-1.21494e-09
2.88172e-06
-1.22721e-09
2.88296e-06
-1.24046e-09
2.88421e-06
-1.25474e-09
2.88548e-06
-1.27013e-09
2.88677e-06
-1.28667e-09
2.88808e-06
-1.30445e-09
2.8894e-06
-1.32355e-09
2.89074e-06
-1.34404e-09
2.89211e-06
-1.36602e-09
2.8935e-06
-1.38956e-09
2.89491e-06
-1.41477e-09
2.89636e-06
-1.44176e-09
2.89783e-06
-1.47062e-09
2.89933e-06
-1.50148e-09
2.90086e-06
-1.53446e-09
2.90243e-06
-1.56969e-09
2.90404e-06
-1.6073e-09
2.90569e-06
-1.64743e-09
2.90738e-06
-1.69025e-09
2.90911e-06
-1.73591e-09
2.9109e-06
-1.78459e-09
2.91273e-06
-1.83646e-09
2.91463e-06
-1.89171e-09
2.91658e-06
-1.95055e-09
2.91859e-06
-2.01319e-09
2.92067e-06
-2.07985e-09
2.92282e-06
-2.15076e-09
2.92505e-06
-2.22618e-09
2.92735e-06
-2.30635e-09
2.92974e-06
-2.39156e-09
2.93223e-06
-2.48209e-09
2.9348e-06
-2.57823e-09
2.93748e-06
-2.6803e-09
2.94027e-06
-2.78863e-09
2.94318e-06
-2.90355e-09
2.9462e-06
-3.02541e-09
2.94936e-06
-3.15459e-09
2.95265e-06
-3.29146e-09
2.95608e-06
-3.43642e-09
2.95967e-06
-3.58987e-09
2.96343e-06
-3.75224e-09
2.96735e-06
-3.92394e-09
2.97146e-06
-4.10542e-09
2.97575e-06
-4.29713e-09
2.98025e-06
-4.49951e-09
2.98497e-06
-4.71301e-09
2.9899e-06
-4.93811e-09
2.99508e-06
-5.17524e-09
3.0005e-06
-5.42486e-09
3.00619e-06
-5.68741e-09
3.01215e-06
-5.96331e-09
3.01841e-06
-6.25296e-09
3.02496e-06
-6.55675e-09
3.03184e-06
-6.87501e-09
3.03905e-06
-7.20806e-09
3.0466e-06
-7.55615e-09
3.05452e-06
-7.91948e-09
3.06282e-06
-8.29819e-09
3.07151e-06
-8.69233e-09
3.08062e-06
-9.10188e-09
3.09014e-06
-9.52669e-09
3.10011e-06
-9.96653e-09
3.11053e-06
-1.0421e-08
3.12142e-06
-1.08897e-08
3.13279e-06
-1.13719e-08
3.14466e-06
-1.18667e-08
3.15703e-06
-1.23733e-08
3.16992e-06
-1.28903e-08
3.18334e-06
-1.34165e-08
3.19729e-06
-1.39503e-08
3.21178e-06
-1.44899e-08
3.22681e-06
-1.50333e-08
3.24239e-06
-1.55783e-08
3.25851e-06
-1.61225e-08
3.27518e-06
-1.66632e-08
3.29237e-06
-1.71978e-08
3.3101e-06
-1.7723e-08
3.32833e-06
-1.8236e-08
3.34707e-06
-1.87333e-08
3.36628e-06
-1.92116e-08
3.38595e-06
-1.96676e-08
3.40604e-06
-2.00978e-08
3.42654e-06
-2.04987e-08
3.44741e-06
-2.08671e-08
3.46861e-06
-2.11997e-08
3.4901e-06
-2.14935e-08
3.51185e-06
-2.17458e-08
3.5338e-06
-2.1954e-08
3.55592e-06
-2.21159e-08
3.57815e-06
-2.22297e-08
3.60044e-06
-2.22941e-08
-2.23081e-08
3.62275e-06
7.66911e-06
-2.95626e-10
7.66977e-06
-8.84423e-10
7.67088e-06
-1.47147e-09
7.67242e-06
-2.05233e-09
7.67439e-06
-2.62499e-09
7.67678e-06
-3.18703e-09
7.67958e-06
-3.73589e-09
7.68279e-06
-4.26923e-09
7.68638e-06
-4.78502e-09
7.69034e-06
-5.28152e-09
7.69466e-06
-5.75725e-09
7.69932e-06
-6.21087e-09
7.7043e-06
-6.64129e-09
7.70959e-06
-7.04757e-09
7.71516e-06
-7.42901e-09
7.72101e-06
-7.78513e-09
7.72709e-06
-8.11565e-09
7.73341e-06
-8.42051e-09
7.73994e-06
-8.69982e-09
7.74666e-06
-8.95388e-09
7.75355e-06
-9.18316e-09
7.76059e-06
-9.38826e-09
7.76777e-06
-9.56991e-09
7.77507e-06
-9.72893e-09
7.78247e-06
-9.86625e-09
7.78996e-06
-9.98287e-09
7.79752e-06
-1.00799e-08
7.80514e-06
-1.01583e-08
7.8128e-06
-1.02193e-08
7.8205e-06
-1.0264e-08
7.82822e-06
-1.02935e-08
7.83596e-06
-1.03091e-08
7.84369e-06
-1.03116e-08
7.85142e-06
-1.03024e-08
7.85913e-06
-1.02823e-08
7.86682e-06
-1.02525e-08
7.87448e-06
-1.02137e-08
7.88211e-06
-1.01671e-08
7.88969e-06
-1.01134e-08
7.89723e-06
-1.00535e-08
7.90472e-06
-9.98802e-09
7.91216e-06
-9.91778e-09
7.91955e-06
-9.84342e-09
7.92687e-06
-9.76553e-09
7.93413e-06
-9.68468e-09
7.94134e-06
-9.60138e-09
7.94847e-06
-9.51609e-09
7.95554e-06
-9.42924e-09
7.96255e-06
-9.34122e-09
7.96949e-06
-9.25236e-09
7.97636e-06
-9.16299e-09
7.98317e-06
-9.07338e-09
7.9899e-06
-8.98378e-09
7.99658e-06
-8.89442e-09
8.00318e-06
-8.80547e-09
8.00972e-06
-8.71713e-09
8.01619e-06
-8.62953e-09
8.0226e-06
-8.5428e-09
8.02894e-06
-8.45706e-09
8.03522e-06
-8.3724e-09
8.04143e-06
-8.2889e-09
8.04759e-06
-8.20663e-09
8.05368e-06
-8.12564e-09
8.05972e-06
-8.04597e-09
8.06569e-06
-7.96767e-09
8.07161e-06
-7.89074e-09
8.07747e-06
-7.81522e-09
8.08328e-06
-7.74112e-09
8.08903e-06
-7.66844e-09
8.09473e-06
-7.59717e-09
8.10037e-06
-7.52732e-09
8.10597e-06
-7.45888e-09
8.11151e-06
-7.39184e-09
8.11701e-06
-7.32617e-09
8.12245e-06
-7.26187e-09
8.12785e-06
-7.19891e-09
8.1332e-06
-7.13727e-09
8.13851e-06
-7.07694e-09
8.14377e-06
-7.01788e-09
8.14899e-06
-6.96007e-09
8.15417e-06
-6.90348e-09
8.15931e-06
-6.8481e-09
8.1644e-06
-6.79388e-09
8.16946e-06
-6.74081e-09
8.17448e-06
-6.68886e-09
8.17945e-06
-6.638e-09
8.18439e-06
-6.5882e-09
8.1893e-06
-6.53944e-09
8.19417e-06
-6.49169e-09
8.199e-06
-6.44492e-09
8.2038e-06
-6.39911e-09
8.20857e-06
-6.35424e-09
8.2133e-06
-6.31027e-09
8.218e-06
-6.26718e-09
8.22267e-06
-6.22496e-09
8.22731e-06
-6.18357e-09
8.23191e-06
-6.14299e-09
8.23649e-06
-6.1032e-09
8.24104e-06
-6.06419e-09
8.24556e-06
-6.02592e-09
8.25005e-06
-5.98838e-09
8.25451e-06
-5.95154e-09
8.25895e-06
-5.9154e-09
8.26336e-06
-5.87992e-09
8.26774e-06
-5.84509e-09
8.2721e-06
-5.8109e-09
8.27643e-06
-5.77733e-09
8.28074e-06
-5.74435e-09
8.28503e-06
-5.71196e-09
8.28929e-06
-5.68014e-09
8.29352e-06
-5.64887e-09
8.29774e-06
-5.61814e-09
8.30193e-06
-5.58794e-09
8.3061e-06
-5.55825e-09
8.31024e-06
-5.52906e-09
8.31437e-06
-5.50035e-09
8.31847e-06
-5.47212e-09
8.32256e-06
-5.44436e-09
8.32662e-06
-5.41704e-09
8.33066e-06
-5.39017e-09
8.33468e-06
-5.36373e-09
8.33869e-06
-5.33771e-09
8.34267e-06
-5.3121e-09
8.34664e-06
-5.2869e-09
8.35058e-06
-5.26209e-09
8.35451e-06
-5.23767e-09
8.35842e-06
-5.21363e-09
8.36231e-06
-5.18995e-09
8.36619e-06
-5.16664e-09
8.37005e-06
-5.14369e-09
8.37389e-06
-5.12109e-09
8.37771e-06
-5.09884e-09
8.38152e-06
-5.07692e-09
8.38531e-06
-5.05534e-09
8.38909e-06
-5.03409e-09
8.39285e-06
-5.01317e-09
8.39659e-06
-4.99256e-09
8.40032e-06
-4.97227e-09
8.40403e-06
-4.9523e-09
8.40773e-06
-4.93263e-09
8.41142e-06
-4.91328e-09
8.41509e-06
-4.89422e-09
8.41874e-06
-4.87548e-09
8.42239e-06
-4.85703e-09
8.42602e-06
-4.83889e-09
8.42963e-06
-4.82104e-09
8.43324e-06
-4.8035e-09
8.43682e-06
-4.78625e-09
8.4404e-06
-4.7693e-09
8.44397e-06
-4.75266e-09
8.44752e-06
-4.73632e-09
8.45106e-06
-4.72028e-09
8.45459e-06
-4.70456e-09
8.4581e-06
-4.68914e-09
8.46161e-06
-4.67404e-09
8.4651e-06
-4.65925e-09
8.46859e-06
-4.64479e-09
8.47206e-06
-4.63066e-09
8.47552e-06
-4.61687e-09
8.47898e-06
-4.60341e-09
8.48242e-06
-4.59031e-09
8.48585e-06
-4.57756e-09
8.48928e-06
-4.56519e-09
8.49269e-06
-4.55319e-09
8.4961e-06
-4.54158e-09
8.49949e-06
-4.53037e-09
8.50288e-06
-4.51957e-09
8.50627e-06
-4.50921e-09
8.50964e-06
-4.49928e-09
8.51301e-06
-4.48982e-09
8.51637e-06
-4.48084e-09
8.51972e-06
-4.47235e-09
8.52307e-06
-4.46439e-09
8.52641e-06
-4.45696e-09
8.52975e-06
-4.4501e-09
8.53308e-06
-4.44383e-09
8.53641e-06
-4.43818e-09
8.53974e-06
-4.43318e-09
8.54306e-06
-4.42886e-09
8.54638e-06
-4.42525e-09
8.54969e-06
-4.42239e-09
8.55301e-06
-4.42031e-09
8.55632e-06
-4.41907e-09
8.55964e-06
-4.4187e-09
8.56295e-06
-4.41926e-09
8.56627e-06
-4.42078e-09
8.56958e-06
-4.42333e-09
8.5729e-06
-4.42696e-09
8.57623e-06
-4.43174e-09
8.57956e-06
-4.43772e-09
8.58289e-06
-4.44498e-09
8.58623e-06
-4.45359e-09
8.58958e-06
-4.46364e-09
8.59293e-06
-4.47519e-09
8.5963e-06
-4.48836e-09
8.59968e-06
-4.50322e-09
8.60307e-06
-4.51988e-09
8.60647e-06
-4.53845e-09
8.60989e-06
-4.55905e-09
8.61333e-06
-4.58179e-09
8.61678e-06
-4.6068e-09
8.62026e-06
-4.63424e-09
8.62375e-06
-4.66423e-09
8.62728e-06
-4.69694e-09
8.63083e-06
-4.73254e-09
8.6344e-06
-4.7712e-09
8.63801e-06
-4.81311e-09
8.64166e-06
-4.85847e-09
8.64534e-06
-4.90749e-09
8.64906e-06
-4.96041e-09
8.65282e-06
-5.01745e-09
8.65663e-06
-5.07887e-09
8.66049e-06
-5.14496e-09
8.6644e-06
-5.21598e-09
8.66837e-06
-5.29225e-09
8.6724e-06
-5.3741e-09
8.67649e-06
-5.46186e-09
8.68066e-06
-5.5559e-09
8.6849e-06
-5.65661e-09
8.68922e-06
-5.76439e-09
8.69363e-06
-5.87969e-09
8.69813e-06
-6.00296e-09
8.70274e-06
-6.13469e-09
8.70744e-06
-6.27539e-09
8.71226e-06
-6.42562e-09
8.7172e-06
-6.58595e-09
8.72226e-06
-6.75699e-09
8.72747e-06
-6.93939e-09
8.73282e-06
-7.13384e-09
8.73832e-06
-7.34105e-09
8.74399e-06
-7.56178e-09
8.74984e-06
-7.79685e-09
8.75587e-06
-8.04709e-09
8.76211e-06
-8.31339e-09
8.76855e-06
-8.5967e-09
8.77522e-06
-8.89799e-09
8.78214e-06
-9.21831e-09
8.7893e-06
-9.55875e-09
8.79674e-06
-9.92044e-09
8.80447e-06
-1.03046e-08
8.8125e-06
-1.07124e-08
8.82086e-06
-1.11452e-08
8.82956e-06
-1.16044e-08
8.83862e-06
-1.20913e-08
8.84808e-06
-1.26075e-08
8.85794e-06
-1.31545e-08
8.86824e-06
-1.37337e-08
8.87899e-06
-1.4347e-08
8.89024e-06
-1.49958e-08
8.90199e-06
-1.5682e-08
8.9143e-06
-1.64074e-08
8.92717e-06
-1.71736e-08
8.94066e-06
-1.79824e-08
8.95478e-06
-1.88359e-08
8.96958e-06
-1.97356e-08
8.98508e-06
-2.06836e-08
9.00134e-06
-2.16815e-08
9.01838e-06
-2.27311e-08
9.03626e-06
-2.38342e-08
9.05499e-06
-2.49923e-08
9.07465e-06
-2.6207e-08
9.09525e-06
-2.74797e-08
9.11685e-06
-2.88117e-08
9.1395e-06
-3.02039e-08
9.16324e-06
-3.16571e-08
9.18811e-06
-3.3172e-08
9.21417e-06
-3.47487e-08
9.24145e-06
-3.63873e-08
9.27001e-06
-3.8087e-08
9.2999e-06
-3.98471e-08
9.33114e-06
-4.16661e-08
9.36379e-06
-4.35418e-08
9.39789e-06
-4.54719e-08
9.43348e-06
-4.74529e-08
9.47059e-06
-4.9481e-08
9.50925e-06
-5.15515e-08
9.54949e-06
-5.36589e-08
9.59134e-06
-5.57969e-08
9.63481e-06
-5.79584e-08
9.67991e-06
-6.01354e-08
9.72665e-06
-6.23191e-08
9.77503e-06
-6.44998e-08
9.82503e-06
-6.6667e-08
9.87664e-06
-6.88095e-08
9.92983e-06
-7.09152e-08
9.98457e-06
-7.29717e-08
1.00408e-05
-7.49657e-08
1.00985e-05
-7.68839e-08
1.01575e-05
-7.87125e-08
1.02179e-05
-8.04377e-08
1.02794e-05
-8.20458e-08
1.03421e-05
-8.35234e-08
1.04057e-05
-8.48576e-08
1.04703e-05
-8.60363e-08
1.05356e-05
-8.70482e-08
1.06015e-05
-8.78831e-08
1.06679e-05
-8.85324e-08
1.07347e-05
-8.89887e-08
1.08016e-05
-8.92465e-08
-8.9302e-08
1.08686e-05
1.27819e-05
-6.66682e-10
1.2783e-05
-1.99504e-09
1.27848e-05
-3.32001e-09
1.27874e-05
-4.63104e-09
1.27907e-05
-5.92276e-09
1.27947e-05
-7.18989e-09
1.27994e-05
-8.42713e-09
1.28047e-05
-9.62941e-09
1.28107e-05
-1.07922e-08
1.28174e-05
-1.19114e-08
1.28246e-05
-1.29835e-08
1.28324e-05
-1.40057e-08
1.28407e-05
-1.49752e-08
1.28496e-05
-1.58902e-08
1.28589e-05
-1.6749e-08
1.28687e-05
-1.75506e-08
1.28788e-05
-1.82943e-08
1.28894e-05
-1.898e-08
1.29003e-05
-1.9608e-08
1.29115e-05
-2.0179e-08
1.2923e-05
-2.0694e-08
1.29348e-05
-2.11545e-08
1.29468e-05
-2.15621e-08
1.2959e-05
-2.19186e-08
1.29714e-05
-2.22263e-08
1.29839e-05
-2.24873e-08
1.29965e-05
-2.2704e-08
1.30092e-05
-2.2879e-08
1.3022e-05
-2.30147e-08
1.30348e-05
-2.31138e-08
1.30477e-05
-2.31788e-08
1.30606e-05
-2.32123e-08
1.30735e-05
-2.32167e-08
1.30864e-05
-2.31945e-08
1.30993e-05
-2.31481e-08
1.31121e-05
-2.30796e-08
1.31249e-05
-2.29913e-08
1.31376e-05
-2.28853e-08
1.31503e-05
-2.27634e-08
1.31628e-05
-2.26275e-08
1.31753e-05
-2.24793e-08
1.31877e-05
-2.23204e-08
1.32e-05
-2.21523e-08
1.32123e-05
-2.19764e-08
1.32244e-05
-2.17938e-08
1.32364e-05
-2.16057e-08
1.32483e-05
-2.14133e-08
1.32601e-05
-2.12174e-08
1.32717e-05
-2.10189e-08
1.32833e-05
-2.08186e-08
1.32948e-05
-2.06171e-08
1.33061e-05
-2.04152e-08
1.33173e-05
-2.02133e-08
1.33284e-05
-2.0012e-08
1.33394e-05
-1.98116e-08
1.33503e-05
-1.96126e-08
1.33611e-05
-1.94154e-08
1.33718e-05
-1.92201e-08
1.33824e-05
-1.90271e-08
1.33928e-05
-1.88365e-08
1.34032e-05
-1.86485e-08
1.34135e-05
-1.84633e-08
1.34236e-05
-1.8281e-08
1.34337e-05
-1.81017e-08
1.34436e-05
-1.79255e-08
1.34535e-05
-1.77524e-08
1.34633e-05
-1.75825e-08
1.34729e-05
-1.74158e-08
1.34825e-05
-1.72522e-08
1.3492e-05
-1.70919e-08
1.35014e-05
-1.69347e-08
1.35107e-05
-1.67807e-08
1.352e-05
-1.66299e-08
1.35291e-05
-1.64822e-08
1.35382e-05
-1.63375e-08
1.35472e-05
-1.61959e-08
1.35561e-05
-1.60573e-08
1.3565e-05
-1.59215e-08
1.35737e-05
-1.57887e-08
1.35824e-05
-1.56586e-08
1.35911e-05
-1.55314e-08
1.35996e-05
-1.54068e-08
1.36081e-05
-1.52848e-08
1.36165e-05
-1.51655e-08
1.36249e-05
-1.50486e-08
1.36332e-05
-1.49342e-08
1.36414e-05
-1.48222e-08
1.36496e-05
-1.47125e-08
1.36577e-05
-1.46051e-08
1.36658e-05
-1.44999e-08
1.36738e-05
-1.43969e-08
1.36817e-05
-1.42959e-08
1.36896e-05
-1.4197e-08
1.36974e-05
-1.41001e-08
1.37052e-05
-1.40052e-08
1.37129e-05
-1.39121e-08
1.37206e-05
-1.38208e-08
1.37282e-05
-1.37313e-08
1.37358e-05
-1.36435e-08
1.37434e-05
-1.35575e-08
1.37508e-05
-1.3473e-08
1.37583e-05
-1.33902e-08
1.37657e-05
-1.33089e-08
1.3773e-05
-1.32291e-08
1.37803e-05
-1.31507e-08
1.37876e-05
-1.30738e-08
1.37948e-05
-1.29983e-08
1.3802e-05
-1.29241e-08
1.38091e-05
-1.28513e-08
1.38162e-05
-1.27797e-08
1.38233e-05
-1.27094e-08
1.38303e-05
-1.26402e-08
1.38373e-05
-1.25723e-08
1.38442e-05
-1.25055e-08
1.38512e-05
-1.24398e-08
1.3858e-05
-1.23753e-08
1.38649e-05
-1.23118e-08
1.38717e-05
-1.22493e-08
1.38784e-05
-1.21879e-08
1.38852e-05
-1.21274e-08
1.38919e-05
-1.20679e-08
1.38986e-05
-1.20094e-08
1.39052e-05
-1.19518e-08
1.39118e-05
-1.18951e-08
1.39184e-05
-1.18393e-08
1.39249e-05
-1.17844e-08
1.39314e-05
-1.17303e-08
1.39379e-05
-1.1677e-08
1.39444e-05
-1.16246e-08
1.39508e-05
-1.1573e-08
1.39572e-05
-1.15221e-08
1.39636e-05
-1.1472e-08
1.39699e-05
-1.14227e-08
1.39763e-05
-1.13742e-08
1.39826e-05
-1.13264e-08
1.39888e-05
-1.12793e-08
1.39951e-05
-1.1233e-08
1.40013e-05
-1.11873e-08
1.40075e-05
-1.11424e-08
1.40136e-05
-1.10981e-08
1.40198e-05
-1.10546e-08
1.40259e-05
-1.10117e-08
1.4032e-05
-1.09695e-08
1.40381e-05
-1.0928e-08
1.40441e-05
-1.08872e-08
1.40501e-05
-1.08471e-08
1.40561e-05
-1.08076e-08
1.40621e-05
-1.07688e-08
1.40681e-05
-1.07306e-08
1.4074e-05
-1.06932e-08
1.40799e-05
-1.06564e-08
1.40858e-05
-1.06203e-08
1.40917e-05
-1.05849e-08
1.40976e-05
-1.05503e-08
1.41034e-05
-1.05163e-08
1.41092e-05
-1.0483e-08
1.41151e-05
-1.04505e-08
1.41208e-05
-1.04187e-08
1.41266e-05
-1.03876e-08
1.41324e-05
-1.03573e-08
1.41381e-05
-1.03278e-08
1.41438e-05
-1.02991e-08
1.41495e-05
-1.02713e-08
1.41552e-05
-1.02443e-08
1.41609e-05
-1.02181e-08
1.41666e-05
-1.01929e-08
1.41722e-05
-1.01686e-08
1.41778e-05
-1.01452e-08
1.41835e-05
-1.01229e-08
1.41891e-05
-1.01016e-08
1.41947e-05
-1.00813e-08
1.42003e-05
-1.00622e-08
1.42058e-05
-1.00443e-08
1.42114e-05
-1.00275e-08
1.4217e-05
-1.0012e-08
1.42225e-05
-9.9979e-09
1.42281e-05
-9.98515e-09
1.42336e-05
-9.97385e-09
1.42392e-05
-9.96408e-09
1.42447e-05
-9.95591e-09
1.42502e-05
-9.94942e-09
1.42557e-05
-9.9447e-09
1.42613e-05
-9.94184e-09
1.42668e-05
-9.94095e-09
1.42723e-05
-9.94213e-09
1.42778e-05
-9.94548e-09
1.42834e-05
-9.95114e-09
1.42889e-05
-9.95923e-09
1.42944e-05
-9.96988e-09
1.43e-05
-9.98325e-09
1.43055e-05
-9.99949e-09
1.43111e-05
-1.00188e-08
1.43167e-05
-1.00412e-08
1.43223e-05
-1.00671e-08
1.43279e-05
-1.00966e-08
1.43335e-05
-1.01299e-08
1.43391e-05
-1.01673e-08
1.43448e-05
-1.02089e-08
1.43505e-05
-1.02551e-08
1.43562e-05
-1.03061e-08
1.4362e-05
-1.03622e-08
1.43678e-05
-1.04237e-08
1.43736e-05
-1.0491e-08
1.43795e-05
-1.05643e-08
1.43854e-05
-1.06442e-08
1.43913e-05
-1.07309e-08
1.43974e-05
-1.08249e-08
1.44034e-05
-1.09267e-08
1.44096e-05
-1.10367e-08
1.44158e-05
-1.11554e-08
1.4422e-05
-1.12834e-08
1.44284e-05
-1.14213e-08
1.44348e-05
-1.15696e-08
1.44413e-05
-1.1729e-08
1.44479e-05
-1.19001e-08
1.44546e-05
-1.20838e-08
1.44614e-05
-1.22808e-08
1.44684e-05
-1.24919e-08
1.44754e-05
-1.27179e-08
1.44826e-05
-1.29598e-08
1.449e-05
-1.32186e-08
1.44975e-05
-1.34953e-08
1.45051e-05
-1.3791e-08
1.45129e-05
-1.41069e-08
1.4521e-05
-1.44441e-08
1.45292e-05
-1.4804e-08
1.45376e-05
-1.5188e-08
1.45463e-05
-1.55975e-08
1.45552e-05
-1.6034e-08
1.45643e-05
-1.64992e-08
1.45738e-05
-1.69947e-08
1.45835e-05
-1.75225e-08
1.45935e-05
-1.80843e-08
1.46039e-05
-1.86822e-08
1.46146e-05
-1.93183e-08
1.46257e-05
-1.99949e-08
1.46372e-05
-2.07141e-08
1.46491e-05
-2.14786e-08
1.46615e-05
-2.22907e-08
1.46744e-05
-2.31534e-08
1.46877e-05
-2.40692e-08
1.47016e-05
-2.50412e-08
1.47161e-05
-2.60725e-08
1.47311e-05
-2.71661e-08
1.47469e-05
-2.83255e-08
1.47633e-05
-2.95539e-08
1.47804e-05
-3.08551e-08
1.47983e-05
-3.22326e-08
1.4817e-05
-3.36903e-08
1.48365e-05
-3.52319e-08
1.4857e-05
-3.68615e-08
1.48784e-05
-3.8583e-08
1.49008e-05
-4.04005e-08
1.49243e-05
-4.23183e-08
1.49489e-05
-4.43403e-08
1.49747e-05
-4.64707e-08
1.50017e-05
-4.87137e-08
1.503e-05
-5.10731e-08
1.50598e-05
-5.35529e-08
1.50909e-05
-5.61567e-08
1.51236e-05
-5.8888e-08
1.51579e-05
-6.175e-08
1.51938e-05
-6.47455e-08
1.52315e-05
-6.78768e-08
1.5271e-05
-7.1146e-08
1.53124e-05
-7.45543e-08
1.53557e-05
-7.81023e-08
1.54011e-05
-8.17897e-08
1.54486e-05
-8.56157e-08
1.54984e-05
-8.9578e-08
1.55504e-05
-9.36735e-08
1.56047e-05
-9.78977e-08
1.56615e-05
-1.02245e-07
1.57208e-05
-1.06708e-07
1.57826e-05
-1.11278e-07
1.5847e-05
-1.15944e-07
1.5914e-05
-1.20694e-07
1.59837e-05
-1.25515e-07
1.60561e-05
-1.30389e-07
1.61313e-05
-1.353e-07
1.62092e-05
-1.40226e-07
1.62899e-05
-1.45147e-07
1.63732e-05
-1.50039e-07
1.64593e-05
-1.54876e-07
1.6548e-05
-1.59631e-07
1.66393e-05
-1.64276e-07
1.67331e-05
-1.68781e-07
1.68294e-05
-1.73115e-07
1.69279e-05
-1.77248e-07
1.70286e-05
-1.81148e-07
1.71313e-05
-1.84784e-07
1.72359e-05
-1.88126e-07
1.73422e-05
-1.91144e-07
1.745e-05
-1.9381e-07
1.75591e-05
-1.961e-07
1.76692e-05
-1.97989e-07
1.77801e-05
-1.99459e-07
1.78916e-05
-2.00492e-07
1.80034e-05
-2.01076e-07
-2.01203e-07
1.81153e-05
1.78946e-05
-1.18962e-09
1.78962e-05
-3.55991e-09
1.78988e-05
-5.92414e-09
1.79024e-05
-8.26367e-09
1.7907e-05
-1.05683e-08
1.79127e-05
-1.28285e-08
1.79193e-05
-1.50348e-08
1.79268e-05
-1.71785e-08
1.79353e-05
-1.92513e-08
1.79446e-05
-2.12462e-08
1.79548e-05
-2.31568e-08
1.79658e-05
-2.49777e-08
1.79775e-05
-2.67044e-08
1.79899e-05
-2.83333e-08
1.80031e-05
-2.98615e-08
1.80168e-05
-3.12873e-08
1.80311e-05
-3.26096e-08
1.8046e-05
-3.38281e-08
1.80613e-05
-3.49435e-08
1.80771e-05
-3.5957e-08
1.80933e-05
-3.68706e-08
1.81098e-05
-3.76868e-08
1.81266e-05
-3.84085e-08
1.81438e-05
-3.90393e-08
1.81611e-05
-3.95828e-08
1.81787e-05
-4.00433e-08
1.81964e-05
-4.04249e-08
1.82142e-05
-4.07323e-08
1.82322e-05
-4.09698e-08
1.82502e-05
-4.11422e-08
1.82683e-05
-4.1254e-08
1.82864e-05
-4.13097e-08
1.83045e-05
-4.1314e-08
1.83226e-05
-4.1271e-08
1.83406e-05
-4.11851e-08
1.83586e-05
-4.10602e-08
1.83765e-05
-4.09002e-08
1.83943e-05
-4.07088e-08
1.8412e-05
-4.04894e-08
1.84297e-05
-4.02453e-08
1.84472e-05
-3.99795e-08
1.84645e-05
-3.96948e-08
1.84818e-05
-3.9394e-08
1.84989e-05
-3.90793e-08
1.85158e-05
-3.8753e-08
1.85327e-05
-3.84171e-08
1.85493e-05
-3.80736e-08
1.85658e-05
-3.7724e-08
1.85822e-05
-3.73699e-08
1.85984e-05
-3.70127e-08
1.86144e-05
-3.66537e-08
1.86303e-05
-3.62938e-08
1.8646e-05
-3.59342e-08
1.86616e-05
-3.55756e-08
1.8677e-05
-3.52189e-08
1.86922e-05
-3.48647e-08
1.87073e-05
-3.45136e-08
1.87223e-05
-3.4166e-08
1.87371e-05
-3.38225e-08
1.87517e-05
-3.34834e-08
1.87662e-05
-3.31491e-08
1.87806e-05
-3.28197e-08
1.87948e-05
-3.24955e-08
1.88089e-05
-3.21766e-08
1.88228e-05
-3.18632e-08
1.88366e-05
-3.15554e-08
1.88503e-05
-3.12533e-08
1.88638e-05
-3.09569e-08
1.88772e-05
-3.06661e-08
1.88905e-05
-3.03811e-08
1.89037e-05
-3.01017e-08
1.89167e-05
-2.9828e-08
1.89297e-05
-2.95599e-08
1.89425e-05
-2.92974e-08
1.89552e-05
-2.90403e-08
1.89678e-05
-2.87886e-08
1.89803e-05
-2.85422e-08
1.89926e-05
-2.8301e-08
1.90049e-05
-2.80649e-08
1.90171e-05
-2.78338e-08
1.90292e-05
-2.76076e-08
1.90411e-05
-2.73862e-08
1.9053e-05
-2.71695e-08
1.90648e-05
-2.69574e-08
1.90765e-05
-2.67497e-08
1.90881e-05
-2.65464e-08
1.90997e-05
-2.63474e-08
1.91111e-05
-2.61525e-08
1.91224e-05
-2.59616e-08
1.91337e-05
-2.57747e-08
1.91449e-05
-2.55916e-08
1.9156e-05
-2.54122e-08
1.91671e-05
-2.52365e-08
1.9178e-05
-2.50643e-08
1.91889e-05
-2.48955e-08
1.91997e-05
-2.47301e-08
1.92105e-05
-2.45679e-08
1.92212e-05
-2.44089e-08
1.92318e-05
-2.4253e-08
1.92423e-05
-2.41e-08
1.92528e-05
-2.39499e-08
1.92632e-05
-2.38027e-08
1.92736e-05
-2.36582e-08
1.92838e-05
-2.35164e-08
1.92941e-05
-2.33772e-08
1.93042e-05
-2.32406e-08
1.93144e-05
-2.31064e-08
1.93244e-05
-2.29746e-08
1.93344e-05
-2.28451e-08
1.93443e-05
-2.27179e-08
1.93542e-05
-2.25929e-08
1.9364e-05
-2.24701e-08
1.93738e-05
-2.23493e-08
1.93835e-05
-2.22306e-08
1.93932e-05
-2.21139e-08
1.94028e-05
-2.19992e-08
1.94124e-05
-2.18863e-08
1.94219e-05
-2.17753e-08
1.94314e-05
-2.16661e-08
1.94409e-05
-2.15587e-08
1.94502e-05
-2.1453e-08
1.94596e-05
-2.1349e-08
1.94689e-05
-2.12466e-08
1.94781e-05
-2.11458e-08
1.94873e-05
-2.10466e-08
1.94965e-05
-2.0949e-08
1.95056e-05
-2.08529e-08
1.95147e-05
-2.07582e-08
1.95237e-05
-2.0665e-08
1.95327e-05
-2.05732e-08
1.95417e-05
-2.04829e-08
1.95506e-05
-2.03939e-08
1.95595e-05
-2.03063e-08
1.95684e-05
-2.022e-08
1.95772e-05
-2.0135e-08
1.95859e-05
-2.00513e-08
1.95947e-05
-1.99689e-08
1.96034e-05
-1.98878e-08
1.9612e-05
-1.98079e-08
1.96207e-05
-1.97292e-08
1.96293e-05
-1.96518e-08
1.96378e-05
-1.95756e-08
1.96464e-05
-1.95007e-08
1.96549e-05
-1.94269e-08
1.96633e-05
-1.93543e-08
1.96718e-05
-1.92829e-08
1.96802e-05
-1.92127e-08
1.96885e-05
-1.91438e-08
1.96969e-05
-1.9076e-08
1.97052e-05
-1.90094e-08
1.97135e-05
-1.8944e-08
1.97218e-05
-1.88799e-08
1.973e-05
-1.88169e-08
1.97382e-05
-1.87552e-08
1.97464e-05
-1.86948e-08
1.97545e-05
-1.86356e-08
1.97626e-05
-1.85778e-08
1.97707e-05
-1.85212e-08
1.97788e-05
-1.8466e-08
1.97869e-05
-1.84121e-08
1.97949e-05
-1.83597e-08
1.98029e-05
-1.83086e-08
1.98109e-05
-1.8259e-08
1.98189e-05
-1.8211e-08
1.98268e-05
-1.81645e-08
1.98348e-05
-1.81196e-08
1.98427e-05
-1.80763e-08
1.98505e-05
-1.80347e-08
1.98584e-05
-1.7995e-08
1.98663e-05
-1.7957e-08
1.98741e-05
-1.7921e-08
1.98819e-05
-1.78869e-08
1.98898e-05
-1.78549e-08
1.98975e-05
-1.78251e-08
1.99053e-05
-1.77975e-08
1.99131e-05
-1.77722e-08
1.99209e-05
-1.77495e-08
1.99286e-05
-1.77293e-08
1.99364e-05
-1.77118e-08
1.99441e-05
-1.76971e-08
1.99519e-05
-1.76855e-08
1.99596e-05
-1.76769e-08
1.99673e-05
-1.76717e-08
1.9975e-05
-1.767e-08
1.99828e-05
-1.76719e-08
1.99905e-05
-1.76777e-08
1.99982e-05
-1.76875e-08
2.0006e-05
-1.77017e-08
2.00137e-05
-1.77204e-08
2.00215e-05
-1.7744e-08
2.00293e-05
-1.77726e-08
2.00371e-05
-1.78066e-08
2.00449e-05
-1.78463e-08
2.00527e-05
-1.7892e-08
2.00605e-05
-1.79441e-08
2.00684e-05
-1.80029e-08
2.00763e-05
-1.8069e-08
2.00842e-05
-1.81426e-08
2.00922e-05
-1.82243e-08
2.01002e-05
-1.83145e-08
2.01083e-05
-1.84137e-08
2.01164e-05
-1.85226e-08
2.01245e-05
-1.86417e-08
2.01327e-05
-1.87716e-08
2.0141e-05
-1.89129e-08
2.01493e-05
-1.90665e-08
2.01577e-05
-1.9233e-08
2.01662e-05
-1.94132e-08
2.01748e-05
-1.9608e-08
2.01835e-05
-1.98182e-08
2.01922e-05
-2.00449e-08
2.02011e-05
-2.02891e-08
2.02101e-05
-2.05517e-08
2.02192e-05
-2.08341e-08
2.02284e-05
-2.11373e-08
2.02378e-05
-2.14627e-08
2.02473e-05
-2.18116e-08
2.0257e-05
-2.21855e-08
2.02669e-05
-2.2586e-08
2.02769e-05
-2.30146e-08
2.02872e-05
-2.34731e-08
2.02977e-05
-2.39634e-08
2.03084e-05
-2.44873e-08
2.03193e-05
-2.5047e-08
2.03305e-05
-2.56445e-08
2.0342e-05
-2.62823e-08
2.03538e-05
-2.69627e-08
2.03658e-05
-2.76884e-08
2.03783e-05
-2.8462e-08
2.03911e-05
-2.92864e-08
2.04042e-05
-3.01647e-08
2.04178e-05
-3.11001e-08
2.04318e-05
-3.20959e-08
2.04463e-05
-3.31557e-08
2.04613e-05
-3.42832e-08
2.04767e-05
-3.54824e-08
2.04928e-05
-3.67574e-08
2.05094e-05
-3.81125e-08
2.05267e-05
-3.95524e-08
2.05446e-05
-4.10817e-08
2.05632e-05
-4.27055e-08
2.05826e-05
-4.44289e-08
2.06028e-05
-4.62574e-08
2.06239e-05
-4.81967e-08
2.06458e-05
-5.02526e-08
2.06687e-05
-5.24313e-08
2.06925e-05
-5.4739e-08
2.07175e-05
-5.71822e-08
2.07436e-05
-5.97678e-08
2.07708e-05
-6.25025e-08
2.07994e-05
-6.53934e-08
2.08292e-05
-6.84478e-08
2.08605e-05
-7.16728e-08
2.08933e-05
-7.50759e-08
2.09276e-05
-7.86644e-08
2.09636e-05
-8.24458e-08
2.10013e-05
-8.64273e-08
2.10408e-05
-9.0616e-08
2.10823e-05
-9.5019e-08
2.11258e-05
-9.96428e-08
2.11714e-05
-1.04494e-07
2.12192e-05
-1.09578e-07
2.12694e-05
-1.14899e-07
2.13219e-05
-1.20464e-07
2.13771e-05
-1.26274e-07
2.14349e-05
-1.32332e-07
2.14954e-05
-1.3864e-07
2.15588e-05
-1.45197e-07
2.16252e-05
-1.52002e-07
2.16947e-05
-1.59051e-07
2.17673e-05
-1.66339e-07
2.18433e-05
-1.73858e-07
2.19226e-05
-1.81597e-07
2.20055e-05
-1.89545e-07
2.20919e-05
-1.97685e-07
2.21819e-05
-2.05999e-07
2.22757e-05
-2.14466e-07
2.23733e-05
-2.2306e-07
2.24746e-05
-2.31753e-07
2.25798e-05
-2.40513e-07
2.26889e-05
-2.49305e-07
2.28018e-05
-2.58089e-07
2.29186e-05