/*--------------------------------*- C++ -*----------------------------------*\
  =========                 |
  \\      /  F ield         | OpenFOAM: The Open Source CFD Toolbox
   \\    /   O peration     | Website:  https://openfoam.org
    \\  /    A nd           | Version:  7
     \\/     M anipulation  |
\*---------------------------------------------------------------------------*/
FoamFile
{
    version     2.0;
    format      ascii;
    class       surfaceScalarField;
    location    "50.999592";
    object      phi;
}
// * * * * * * * * * * * * * * * * * * * * * * * * * * * * * * * * * * * * * //

dimensions      [0 3 -1 0 0 0 0];

internalField   nonuniform List<scalar> 
11411
(
-3.81469e-06
9.31656e-09
-1.43453e-05
2.63284e-08
-3.12646e-05
4.29145e-08
-5.42251e-05
5.88331e-08
-8.28662e-05
7.39219e-08
-0.000116837
8.81719e-08
-0.000155818
1.01752e-07
-0.000199539
1.15004e-07
-0.000247788
1.28398e-07
1.42435e-07
-4.01518e-05
2.43144e-09
-0.00013887
6.00585e-09
-0.000279571
8.54969e-09
-0.000448001
1.01808e-08
-0.000634094
1.11493e-08
-0.000832223
1.17288e-08
-0.00104018
1.21295e-08
-0.00125776
1.24697e-08
-0.00148559
1.27964e-08
-0.00172464
1.31223e-08
1.34491e-08
-4.01518e-05
4.01542e-05
-0.00013887
9.87243e-05
-0.000279571
0.000140709
-0.000448001
0.00016844
-0.000634094
0.000186104
-0.000832223
0.000198141
-0.00104018
0.000207974
-0.00125776
0.000217587
-0.00148559
0.000227848
-0.00172464
0.000239054
-0.00197595
0.000251324
-0.00224067
0.000264741
-0.00252005
0.000279392
-0.0028154
0.000295364
-0.00312813
0.000312744
-0.00345975
0.000331634
-0.00381187
0.000352137
-0.00418614
0.00037429
-0.00458414
0.000398012
0.000423577
-0.0050077
-3.99471e-05
8.01013e-05
-0.000138258
0.000197035
-0.000278486
0.000280938
-0.000446454
0.000336408
-0.000632116
0.000371766
-0.000829838
0.000395863
-0.0010374
0.000415536
-0.00125457
0.000434759
-0.00148199
0.000455269
-0.00172061
0.000477668
-0.00197147
0.000502191
-0.00223574
0.000529009
-0.00251464
0.000558293
-0.00280949
0.000590215
-0.0031217
0.000624955
-0.00345278
0.00066271
-0.00380433
0.00070369
-0.00417802
0.000747973
-0.00457541
0.000795402
0.000846508
-0.00499834
-3.95384e-05
0.00011964
-0.000137036
0.000294533
-0.000276319
0.00042022
-0.00044336
0.00050345
-0.000628161
0.000556566
-0.00082507
0.000592772
-0.00103183
0.000622301
-0.0012482
0.000651123
-0.00147479
0.000681861
-0.00171255
0.000715427
-0.00196253
0.000752174
-0.00222588
0.00079236
-0.00250383
0.00083624
-0.00279769
0.000884073
-0.00310886
0.000936128
-0.00343885
0.0009927
-0.00378927
0.00105411
-0.00416176
0.00112047
-0.00455794
0.00119158
0.00126817
-0.0049796
-3.89273e-05
0.000158567
-0.000135206
0.000390811
-0.000273071
0.000558086
-0.000438724
0.000669102
-0.000622232
0.000740074
-0.000817921
0.000788461
-0.00102349
0.000827869
-0.00123864
0.000866277
-0.001464
0.000907212
-0.00170047
0.000951905
-0.00194913
0.00100083
-0.00221111
0.00105434
-0.00248763
0.00111276
-0.00277999
0.00117644
-0.00308961
0.00124574
-0.00341797
0.00132106
-0.00376668
0.00140281
-0.0041374
0.00149119
-0.00453174
0.00158592
0.00168792
-0.00495149
-3.81159e-05
0.000196683
-0.000132772
0.000485467
-0.000268749
0.000694062
-0.000432548
0.000832902
-0.000614332
0.000921859
-0.000808396
0.000982525
-0.00101237
0.00103184
-0.00122592
0.00107982
-0.00144962
0.00113091
-0.00168439
0.00118668
-0.00193129
0.00124773
-0.00219143
0.00131448
-0.00246605
0.00138737
-0.00275643
0.00146683
-0.00306398
0.00155329
-0.00339017
0.00164725
-0.00373661
0.00174925
-0.00410495
0.00185953
-0.00449683
0.0019778
0.00210508
-0.004914
-3.71073e-05
0.00023379
-0.000129741
0.000578101
-0.000263357
0.000827678
-0.000424839
0.000994383
-0.000604466
0.00110149
-0.000796498
0.00117456
-0.000998486
0.00123383
-0.00121002
0.00129136
-0.00143167
0.00135255
-0.00166432
0.00141933
-0.00190901
0.00149242
-0.00216688
0.00157235
-0.00243912
0.00165961
-0.00272703
0.00175474
-0.00303199
0.00185825
-0.00335548
0.00197074
-0.00369907
0.00209284
-0.00406444
0.0022249
-0.00445325
0.0023666
0.00251898
-0.00486715
-3.59052e-05
0.000269695
-0.00012612
0.000668316
-0.000256905
0.000958463
-0.000415602
0.00115308
-0.00059264
0.00127852
-0.000782236
0.00136415
-0.000981843
0.00143344
-0.00119098
0.0015005
-0.00141016
0.00157173
-0.00164027
0.00164944
-0.00188233
0.00173449
-0.00213747
0.00182748
-0.00240687
0.00192902
-0.00269182
0.00203969
-0.00299369
0.00216012
-0.00331394
0.00229099
-0.00365413
0.00243303
-0.00401593
0.00258671
-0.00440102
0.00275169
0.00292895
-0.00481099
-3.45143e-05
0.00030421
-0.000121917
0.000755719
-0.000249402
0.00108595
-0.000404848
0.00130853
-0.000578861
0.00145254
-0.000765615
0.00155091
-0.00096245
0.00163028
-0.00116879
0.00170684
-0.00138511
0.00178805
-0.00161227
0.00187659
-0.00185128
0.0019735
-0.00210324
0.00207945
-0.00236934
0.00219512
-0.00265085
0.0023212
-0.00294912
0.00245839
-0.00326559
0.00260746
-0.00360182
0.00276926
-0.00395947
0.00294436
-0.00434022
0.00313244
0.00333431
-0.00474558
-3.29399e-05
0.000337149
-0.000117144
0.000839923
-0.00024086
0.00120966
-0.000392586
0.00146025
-0.000563138
0.00162309
-0.000746646
0.00173441
-0.000940321
0.00182395
-0.00114348
0.00191
-0.00135654
0.00200111
-0.00158034
0.00210039
-0.00181587
0.00220903
-0.00206423
0.0023278
-0.00232657
0.00245746
-0.00260416
0.00259879
-0.00289833
0.00275256
-0.00321051
0.00291963
-0.00354222
0.00310097
-0.00389513
0.00329728
-0.00427093
0.00350823
0.0037344
-0.00467102
-3.11883e-05
0.000368338
-0.000111812
0.000920547
-0.000231293
0.00132914
-0.000378829
0.00160779
-0.000545481
0.00178974
-0.000725338
0.00191427
-0.000915469
0.00201408
-0.00111507
0.00210961
-0.00132448
0.00221052
-0.00154452
0.00232042
-0.00177616
0.00244067
-0.00202047
0.00257211
-0.00227861
0.0027156
-0.00255181
0.00287199
-0.00284139
0.00304214
-0.00314875
0.003227
-0.0034754
0.00342762
-0.003823
0.00364488
-0.00419323
0.00387846
0.00412858
-0.00458742
-2.92668e-05
0.000397605
-0.000105937
0.000997217
-0.000220719
0.00144393
-0.000363591
0.00175066
-0.000525903
0.00195205
-0.000701705
0.00209007
-0.000887907
0.00220028
-0.00108357
0.00230527
-0.00128895
0.00241591
-0.00150483
0.0025363
-0.00173217
0.002668
-0.00197202
0.00281196
-0.00222551
0.0029691
-0.00249386
0.00314034
-0.00277837
0.00332665
-0.0030804
0.00352903
-0.00340145
0.00374868
-0.00374318
0.0039866
-0.00410725
0.00424253
0.00451625
-0.00449491
-2.71835e-05
0.000424788
-9.95351e-05
0.00106957
-0.000209155
0.00155355
-0.000346889
0.0018884
-0.000504416
0.00210958
-0.000675758
0.00226142
-0.000857654
0.00238218
-0.00104901
0.00249662
-0.00124999
0.00261689
-0.00146133
0.00274764
-0.00168396
0.00289064
-0.00191893
0.00304693
-0.00216734
0.00321751
-0.00243039
0.00340339
-0.00270934
0.0036056
-0.00300555
0.00382524
-0.00332047
0.0040636
-0.00365575
0.00432188
-0.00401309
0.00459987
0.00489681
-0.00439365
-2.49475e-05
0.000449736
-9.26251e-05
0.00113725
-0.000196625
0.00165755
-0.000328743
0.00202051
-0.000481038
0.00226187
-0.000647514
0.00242789
-0.000824726
0.00255939
-0.0010114
0.0026833
-0.00120761
0.0028131
-0.00141403
0.00295406
-0.00163158
0.00310819
-0.00186126
0.00327661
-0.00210416
0.00346041
-0.00236146
0.00366068
-0.00263439
0.00387853
-0.00292428
0.00411513
-0.00323255
0.00437187
-0.00356085
0.00465018
-0.00391091
0.00494993
0.00526971
-0.00428381
-2.25689e-05
0.000472305
-8.52288e-05
0.00119991
-0.000183154
0.00175547
-0.000309176
0.00214654
-0.000455787
0.00240849
-0.000616988
0.00258909
-0.000789144
0.00273155
-0.000970788
0.00286494
-0.00116187
0.00300417
-0.001363
0.0031552
-0.00157507
0.00332026
-0.00179907
0.00350061
-0.00203606
0.0036974
-0.00228717
0.0039118
-0.00255363
0.00414499
-0.00283672
0.00439821
-0.00313782
0.00467297
-0.00345859
0.00497095
-0.00380082
0.00529216
0.00563445
-0.00416556
-2.0059e-05
0.000492364
-7.73706e-05
0.00125722
-0.000168771
0.00184687
-0.000288214
0.00226598
-0.000428684
0.00254896
-0.000584201
0.00274461
-0.000750929
0.00289828
-0.000927188
0.0030412
-0.00111279
0.00318977
-0.00130828
0.00335069
-0.00151451
0.00352649
-0.00173244
0.00371854
-0.0019631
0.00392806
-0.00220762
0.00415631
-0.00246716
0.00440454
-0.00274297
0.00467402
-0.00303638
0.00496638
-0.00334906
0.00528363
-0.00368296
0.00562606
0.00599058
-0.00403909
-1.74303e-05
0.000509794
-6.90782e-05
0.00130887
-0.000153511
0.0019313
-0.000265889
0.00237836
-0.000399755
0.00268282
-0.000549174
0.00289403
-0.000710106
0.00305921
-0.000880634
0.00321173
-0.00106041
0.00336955
-0.00124991
0.00354019
-0.00144994
0.00372652
-0.00166143
0.00393003
-0.00188539
0.00415202
-0.00212289
0.00439381
-0.00237509
0.00465674
-0.00264319
0.00494212
-0.00292841
0.0052516
-0.00323242
0.00558764
-0.00355746
0.00595111
0.00633773
-0.00390461
-1.4696e-05
0.00052449
-6.03829e-05
0.00135455
-0.000137412
0.00200833
-0.000242237
0.00248318
-0.000369028
0.00280961
-0.000511932
0.00303693
-0.000666698
0.00321397
-0.000831158
0.00337619
-0.00100478
0.00354317
-0.00118796
0.00372337
-0.00138145
0.00392001
-0.00158614
0.00413472
-0.00180301
0.00436889
-0.0020331
0.0046239
-0.00227754
0.00490118
-0.00253748
0.00520206
-0.00281401
0.00552814
-0.00310865
0.00588227
-0.00342421
0.00626667
0.00667582
-0.0037623
-1.18709e-05
0.000536361
-5.13198e-05
0.001394
-0.000120519
0.00207753
-0.0002173
0.00257996
-0.000336538
0.00292885
-0.000472501
0.0031729
-0.000620735
0.00336221
-0.000778795
0.00353425
-0.000945951
0.00371033
-0.00112248
0.00389989
-0.00130909
0.00410661
-0.00150664
0.00433227
-0.00171606
0.00457832
-0.00193837
0.00484621
-0.00217465
0.00513746
-0.00242606
0.00545348
-0.0026936
0.00579567
-0.0029783
0.00616697
-0.00328351
0.00657189
0.00700507
-0.00361276
-8.97132e-06
0.000545332
-4.1928e-05
0.00142696
-0.000102883
0.00213849
-0.000191126
0.0026682
-0.000302324
0.00304005
-0.000430916
0.00330149
-0.000572248
0.00350354
-0.000723581
0.00368558
-0.000883959
0.00387071
-0.00105353
0.00406947
-0.00123294
0.00428603
-0.00142302
0.00452235
-0.00162466
0.00477995
-0.00183881
0.00506036
-0.00206653
0.00536517
-0.00230896
0.0056959
-0.00256702
0.00605374
-0.00284088
0.00644084
-0.00313332
0.00686433
0.00732729
-0.00345555
-6.01749e-06
0.000551349
-3.22507e-05
0.00145319
-8.45593e-05
0.0021908
-0.000163774
0.00274742
-0.000266435
0.00314271
-0.000387213
0.00342227
-0.000521271
0.0036376
-0.000665556
0.00382987
-0.000818858
0.00402401
-0.000981179
0.00423179
-0.00115309
0.00445794
-0.00133538
0.00470464
-0.0015289
0.00497348
-0.00173457
0.00526603
-0.00195337
0.00558398
-0.00218647
0.00592899
-0.00243508
0.00630235
-0.00269939
0.00670514
-0.00297768
0.00714262
0.00764444
-0.00329483
-3.05105e-06
0.000554401
-2.23301e-05
0.00147247
-6.56105e-05
0.00223408
-0.000135308
0.00281712
-0.000228926
0.00323633
-0.000341437
0.00353478
-0.000467844
0.00376401
-0.000604763
0.00396679
-0.0007507
0.00416995
-0.000905489
0.00438658
-0.00106962
0.00462207
-0.00124382
0.00487883
-0.00142891
0.00515857
-0.00162578
0.0054629
-0.00183535
0.00579354
-0.00205868
0.00615232
-0.00229706
0.00654073
-0.00255182
0.0069599
-0.00282478
0.00741558
0.00792367
-0.00310401
-2.98895e-07
0.000554699
-1.21852e-05
0.00148436
-4.61054e-05
0.002268
-0.000105804
0.00287681
-0.000189863
0.00332039
-0.000293642
0.00363856
-0.000412013
0.00388238
-0.000541249
0.00409602
-0.000679542
0.00430824
-0.00082653
0.00453357
-0.000982601
0.00477814
-0.00114843
0.00504467
-0.00132481
0.00533495
-0.00151257
0.00565066
-0.00171259
0.00599356
-0.00192583
0.00636556
-0.00215351
0.00676841
-0.0023971
0.00720349
-0.0026572
0.00767568
0.00819859
-0.00293213
3.09241e-06
0.000551607
-1.66407e-06
0.00148911
-2.60959e-05
0.00229243
-7.5336e-05
0.00292606
-0.000149325
0.00339438
-0.000243892
0.00373312
-0.000353829
0.00399231
-0.000475064
0.00421726
-0.000605443
0.00443862
-0.000744376
0.0046725
-0.000892133
0.00492589
-0.00104933
0.00520187
-0.00121671
0.00550233
-0.00139508
0.00582902
-0.00158526
0.00618374
-0.00178815
0.00656846
-0.00200493
0.00698519
-0.00223719
0.00743576
-0.00248615
0.00792464
0.00846133
-0.00274889
6.04941e-06
0.000545558
8.38591e-06
0.00148678
-5.39639e-06
0.00230621
-4.40148e-05
0.00296467
-0.000107412
0.00345777
-0.000192266
0.00381798
-0.000293356
0.0040934
-0.000406266
0.00433017
-0.000528465
0.00456082
-0.000659101
0.00480313
-0.000798305
0.0050651
-0.000946624
0.00535018
-0.00110475
0.00566046
-0.00127345
0.00599772
-0.00145353
0.00636381
-0.00164585
0.00676078
-0.00185154
0.00719089
-0.00207217
0.00765638
-0.00230855
0.00816102
0.00871055
-0.00255777
8.87847e-06
0.000536679
1.85477e-05
0.00147711
1.47954e-05
0.00230996
-1.18195e-05
0.00299129
-6.42444e-05
0.0035102
-0.000138864
0.0038926
-0.00023067
0.00418521
-0.000334921
0.00443442
-0.000448676
0.00467457
-0.000570785
0.00492524
-0.000701212
0.00519553
-0.000840422
0.00548939
-0.000989059
0.0058091
-0.00114784
0.00615651
-0.00131756
0.00653352
-0.00149905
0.00694228
-0.00169338
0.00738522
-0.00190196
0.00786496
-0.00212535
0.00838441
0.00894631
-0.00236111
1.15979e-05
0.000525081
2.85934e-05
0.00146011
3.52042e-05
0.00230335
2.04536e-05
0.00300604
-1.99344e-05
0.00355059
-8.38069e-05
0.00395647
-0.000165866
0.00426727
-0.000261104
0.00452966
-0.000366151
0.00477962
-0.000479512
0.00503861
-0.000600953
0.00531697
-0.00073084
0.00561928
-0.000869762
0.00594802
-0.0010184
0.00630514
-0.0011775
0.00669263
-0.00134788
0.00711266
-0.00153054
0.00756788
-0.00172668
0.0080611
-0.00193679
0.00859452
0.00916864
-0.00215912
1.42548e-05
0.000510826
3.84831e-05
0.00143588
5.566e-05
0.00228618
5.3053e-05
0.00300865
2.51333e-05
0.00357851
-2.72544e-05
0.00400886
-9.90555e-05
0.00433907
-0.000184903
0.00461551
-0.00028097
0.00487569
-0.00038537
0.00514301
-0.000497629
0.00542923
-0.000617996
0.00573965
-0.000746997
0.00607702
-0.000885269
0.00644342
-0.00103352
0.00684088
-0.00119254
0.00727168
-0.00136322
0.00773857
-0.00154661
0.00824449
-0.00174311
0.00879102
0.00937715
-0.00195162
1.6792e-05
0.000494034
4.81064e-05
0.00140457
7.5935e-05
0.00225835
8.59485e-05
0.00299863
7.08501e-05
0.0035936
3.06114e-05
0.0040491
-3.03772e-05
0.00440006
-0.000106428
0.00469156
-0.000193223
0.00496248
-0.000288455
0.00523824
-0.000391349
0.00553212
-0.000502012
0.00585031
-0.000620902
0.00619591
-0.000748606
0.00657112
-0.000885787
0.00697806
-0.00103319
0.00741908
-0.00119163
0.007897
-0.00136198
0.00841484
-0.00154463
0.00897367
0.00957145
-0.00173893
1.91601e-05
0.000474874
5.73356e-05
0.00136639
9.58295e-05
0.00221985
0.00011879
0.00297567
0.000117174
0.00359522
8.96018e-05
0.00407667
4.0023e-05
0.00444964
-2.58407e-05
0.00475742
-0.00010302
0.00503966
-0.000188873
0.00532409
-0.000282225
0.00562547
-0.000383017
0.0059511
-0.000491624
0.00630452
-0.00060857
0.00668807
-0.000734475
0.00710396
-0.000870026
0.00755463
-0.00101596
0.00804294
-0.00117303
0.00857191
-0.00134161
0.00914224
0.00975123
-0.00152139
2.13234e-05
0.000453551
6.60587e-05
0.00132166
0.000115126
0.00217079
0.000151293
0.00293951
0.000163715
0.0035828
0.000149531
0.00409085
0.000111981
0.00448719
5.68488e-05
0.00481255
-1.06467e-05
0.00510716
-8.67552e-05
0.0054002
-0.000170389
0.00570911
-0.000261139
0.00604185
-0.000359314
0.00640269
-0.00046533
0.00679408
-0.000579768
0.0072184
-0.000703257
0.00767812
-0.000836445
0.00817613
-0.000979995
0.00871546
-0.00113431
0.00929655
0.00991622
-0.00129929
2.32509e-05
0.0004303
7.41606e-05
0.00127075
0.000133594
0.00211135
0.00018314
0.00288996
0.000210131
0.00355581
0.000210054
0.00409093
0.000185237
0.004512
0.000141402
0.00485639
8.42963e-05
0.00516426
1.77273e-05
0.00546677
-5.60141e-05
0.00578285
-0.000136529
0.00612237
-0.000224143
0.00649031
-0.00031905
0.00688899
-0.000421859
0.00732121
-0.000533091
0.00778935
-0.000653318
0.00829635
-0.000783132
0.00884528
-0.00092301
0.00943643
0.0100661
-0.00107293
2.49149e-05
0.000405385
8.15262e-05
0.00121414
0.000150993
0.00204189
0.000213981
0.00282697
0.000256027
0.00351376
0.0002708
0.00407616
0.000259488
0.00452331
0.000227559
0.00488832
0.000181147
0.00521067
0.000124822
0.00552309
6.09428e-05
0.00584673
-9.59361e-06
0.0061929
-8.63049e-05
0.00656702
-0.000169929
0.00697261
-0.000260962
0.00741224
-0.000359738
0.00788812
-0.000466836
0.00840345
-0.000582697
0.00896114
-0.000708017
0.00956175
0.0102008
-0.000842629
2.62909e-05
0.000379094
8.80431e-05
0.00115239
0.000167073
0.00196286
0.000243433
0.00275061
0.000300951
0.00345624
0.000331329
0.00404578
0.000334363
0.00452028
0.000315055
0.00490762
0.000279837
0.00524589
0.000233904
0.00556903
0.000180316
0.00590031
0.000120368
0.00625285
5.41682e-05
0.00663322
-1.83532e-05
0.00704514
-9.73152e-05
0.0074912
-0.000183439
0.00797425
-0.000277282
0.00849729
-0.000378941
0.0090628
-0.00048958
0.00967239
0.0103199
-0.000608687
2.73587e-05
0.000351736
9.36052e-05
0.00108614
0.000181579
0.00187488
0.000271083
0.00266111
0.000344392
0.00338293
0.000391122
0.00399905
0.000409415
0.00450199
0.000403551
0.00491349
0.000380123
0.00526932
0.000344954
0.00560419
0.000301779
0.00594349
0.000252346
0.00630228
0.000197168
0.00668839
0.000136183
0.00710612
6.90014e-05
0.00755838
-4.7551e-06
0.00804801
-8.49931e-05
0.00857753
-0.000172287
0.00915009
-0.000267859
0.00976796
0.0104236
-0.000371602
2.81028e-05
0.000323633
9.81168e-05
0.00101612
0.000194259
0.00177874
0.000296496
0.00255887
0.000385778
0.00329365
0.000449575
0.00393525
0.000484102
0.00446746
0.000492621
0.00490497
0.000481696
0.00528025
0.000457739
0.00562815
0.000425211
0.00597602
0.000386436
0.00634106
0.000342267
0.00673256
0.000292806
0.00715558
0.000237856
0.00761333
0.00017714
0.00810872
0.00011015
0.00864452
3.66853e-05
0.00922356
-4.23303e-05
0.00984698
0.0105132
-0.000131952
2.85137e-05
0.000295119
0.000101497
0.000943142
0.000204872
0.00167536
0.000319218
0.00244453
0.00042448
0.00318839
0.000505989
0.00385374
0.000557773
0.00441568
0.000581739
0.004881
0.000584171
0.00527781
0.000571983
0.00564034
0.00055041
0.00599759
0.000522448
0.00636902
0.000489366
0.00676565
0.000451498
0.00719345
0.000408766
0.00765607
0.000360931
0.00815656
0.000307721
0.00869773
0.000248984
0.00928229
0.000183916
0.00991205
0.0105857
0.000111471
2.85887e-05
0.00026653
0.000103684
0.000868046
0.0002132
0.00156585
0.000338796
0.00231893
0.000459822
0.00306736
0.000559569
0.003754
0.000629656
0.00434559
0.000670258
0.0048404
0.000687066
0.00526101
0.000687346
0.00564006
0.000677127
0.00600781
0.000660171
0.00638598
0.000638271
0.00678755
0.000612054
0.00721967
0.000581582
0.00768654
0.000546719
0.00819142
0.000507255
0.0087372
0.000462965
0.00932658
0.000413472
0.00996154
0.0106406
0.000358537
2.83325e-05
0.000238198
0.000104643
0.000791736
0.000219058
0.00145143
0.000354792
0.0021832
0.000491094
0.00293106
0.000609428
0.00363566
0.000698838
0.00425618
0.000757383
0.00478186
0.000789771
0.00522862
0.0008034
0.00562643
0.000805058
0.00600615
0.000799366
0.00639167
0.000788766
0.00679815
0.000774254
0.00723418
0.000756087
0.0077047
0.000734241
0.00821327
0.000708568
0.00876287
0.000678918
0.00935623
0.000645084
0.00999537
0.0106791
0.000606538
2.77579e-05
0.00021044
0.000104364
0.000715129
0.000222313
0.00133348
0.000366809
0.0020387
0.000517573
0.0027803
0.000654593
0.00349864
0.000764269
0.0041465
0.000842153
0.00470397
0.000891523
0.00517925
0.000919596
0.00559836
0.000933826
0.00599192
0.000939759
0.00638574
0.000940612
0.00679729
0.000937867
0.00723692
0.000932039
0.00771053
0.000923236
0.00822207
0.000911397
0.00877471
0.00089644
0.00937119
0.000878108
0.0100137
0.0107014
0.00085587
2.68857e-05
0.000183554
0.000102872
0.000639143
0.000222891
0.00121346
0.000374516
0.00188708
0.00053856
0.00261625
0.000694033
0.00334317
0.000824752
0.00401578
0.000923419
0.0046053
0.000991371
0.0051113
0.00103524
0.00555449
0.00106295
0.00596421
0.00108101
0.00636767
0.00109354
0.00678476
0.00110265
0.00722782
0.00110919
0.00770399
0.00111344
0.00821782
0.00111544
0.00877271
0.00111516
0.00937147
0.00111233
0.0100165
0.0107073
0.00110642
2.57441e-05
0.00015781
0.000100223
0.000564664
0.000220787
0.0010929
0.000377674
0.00173019
0.000553417
0.00244051
0.000726688
0.0031699
0.000878959
0.00386351
0.000999824
0.00448444
0.00108814
0.00502298
0.00114942
0.0054932
0.00119181
0.00592183
0.0012227
0.00633678
0.00124726
0.00676021
0.00126834
0.00720673
0.00128728
0.00768506
0.00130458
0.00820051
0.00132041
0.00875688
0.0013348
0.00935708
0.00134753
0.0100038
0.0106969
0.00135795
2.4368e-05
0.000133442
9.65064e-05
0.000492525
0.000216078
0.000973329
0.000376163
0.00157011
0.000561612
0.00225506
0.00075152
0.00297999
0.000925463
0.00368957
0.0010698
0.0043401
0.00118039
0.00491239
0.00126102
0.00541257
0.0013196
0.00586326
0.00136429
0.00629208
0.00140137
0.00672313
0.00143464
0.00717346
0.00146603
0.00765367
0.00149639
0.00817016
0.00152603
0.00872724
0.00155507
0.00932803
0.00158341
0.00997546
0.0106701
0.00161024
2.27977e-05
0.000110645
9.18402e-05
0.000423483
0.000208919
0.00085625
0.000370007
0.00140902
0.000562776
0.00206229
0.000767583
0.00277518
0.000962782
0.00349437
0.0011316
0.00417128
0.00126641
0.00477759
0.0013686
0.00531038
0.00144526
0.0057866
0.00150507
0.00623227
0.00155541
0.00667279
0.0016012
0.00712767
0.00164516
0.00760971
0.00168858
0.00812674
0.001732
0.00868381
0.00177567
0.00928436
0.00181963
0.00993151
0.0106268
0.00186289
2.10773e-05
8.95673e-05
8.63687e-05
0.000358191
0.000199543
0.000743076
0.000359385
0.00124918
0.000556747
0.00186493
0.000774099
0.00255783
0.000989461
0.00327901
0.00118329
0.00397745
0.00134417
0.0046167
0.00147036
0.00518419
0.00156742
0.00568955
0.00164409
0.0061556
0.00170877
0.00660811
0.00176761
0.00706883
0.00182434
0.00755299
0.00188085
0.00807022
0.00193805
0.00862662
0.0019963
0.00922611
0.00205584
0.00987197
0.0105671
0.0021155
1.92526e-05
7.03146e-05
8.02546e-05
0.000297189
0.000188252
0.000635078
0.000344634
0.00109279
0.000543617
0.00166595
0.000770548
0.0023309
0.00100417
0.00304538
0.00122287
0.00375875
0.00141137
0.0044282
0.00156413
0.00503144
0.0016843
0.00556937
0.00178008
0.00605982
0.0018606
0.00652759
0.00193333
0.0069961
0.00200318
0.00748314
0.0020729
0.0080005
0.00214385
0.00855567
0.00221663
0.00915333
0.0022917
0.0097969
0.0104911
0.0023677
1.73696e-05
5.29451e-05
7.36723e-05
0.000240887
0.000175404
0.000533347
0.000326243
0.000941954
0.000523753
0.00146844
0.000756756
0.0020979
0.00100586
0.00279628
0.00124838
0.00351623
0.00146548
0.0042111
0.00164728
0.00484963
0.00179366
0.005423
0.00191134
0.00594214
0.00200976
0.00642917
0.00209762
0.00690824
0.0021812
0.00739955
0.00226434
0.00791735
0.00234908
0.00847094
0.00243633
0.00906608
0.00252688
0.00970635
0.0103989
0.00261914
1.54718e-05
3.74733e-05
6.67986e-05
0.00018956
0.000161389
0.000438756
0.000304823
0.000798521
0.000497796
0.00127546
0.000732962
0.00186273
0.000993854
0.00253539
0.00125804
0.00325204
0.00150384
0.0039653
0.00171683
0.00463664
0.00189268
0.00524715
0.00203564
0.00579917
0.00215469
0.00631012
0.00225947
0.00680346
0.00235777
0.00730125
0.00245475
0.00782037
0.00255339
0.0083723
0.00265508
0.00896439
0.00276104
0.00960039
0.0102904
0.00286946
1.35993e-05
2.3874e-05
5.98055e-05
0.000143354
0.000146615
0.000351946
0.000281075
0.000664061
0.00046664
0.0010899
0.000699856
0.00162952
0.000968053
0.00226719
0.0012505
0.0029696
0.00152387
0.00369193
0.00176945
0.00439106
0.00197797
0.00503863
0.00215007
0.00562708
0.00229321
0.00616697
0.00241745
0.00667922
0.00253199
0.00718672
0.00264356
0.00770881
0.00275636
0.0082595
0.00287251
0.00884825
0.00299382
0.00947907
0.010166
0.00311829
1.1787e-05
1.2087e-05
5.28524e-05
0.000102288
0.000131483
0.000273316
0.000255751
0.000539793
0.000431373
0.000914275
0.000658569
0.00140232
0.000929
0.00199676
0.00122504
0.00267356
0.00152333
0.00339364
0.00180169
0.0041127
0.00204561
0.00479471
0.00225096
0.00542173
0.00242242
0.00599551
0.00256953
0.00653211
0.00270258
0.00705367
0.00282997
0.00758141
0.00295749
0.00813198
0.00308822
0.00871751
0.00322488
0.00934242
0.0100256
0.00336527
1.00641e-05
2.02284e-06
4.6081e-05
6.62715e-05
0.000116368
0.000203029
0.000229602
0.000426559
0.000393206
0.000750671
0.000610611
0.00118491
0.000877934
0.00172944
0.00118179
0.0023697
0.00150061
0.00307482
0.00181026
0.00380305
0.00209126
0.0045137
0.00233384
0.00517916
0.00253844
0.00579091
0.00271282
0.00635774
0.00286762
0.00689886
0.00301283
0.00743621
0.00315606
0.00798876
0.00330174
0.00857182
0.00345379
0.00919037
0.00986933
0.00361004
8.45387e-06
-6.43102e-06
3.96113e-05
3.5114e-05
0.000101606
0.000141035
0.000203345
0.000324819
0.000353392
0.000600625
0.000557759
0.000980548
0.000816749
0.00147045
0.00112188
0.00206457
0.00145515
0.00274155
0.00179246
0.00346575
0.00211051
0.00419565
0.00239353
0.00489614
0.00263638
0.00554806
0.00284338
0.00615074
0.00302436
0.00671787
0.00319039
0.00727018
0.00335103
0.00782812
0.00351242
0.00841044
0.0036801
0.00902269
0.00969722
0.00385221
6.97275e-06
-1.34038e-05
3.3541e-05
8.5458e-06
8.74849e-05
8.70907e-05
0.000177629
0.000234675
0.000313145
0.000465109
0.000501923
0.000791769
0.000747853
0.00122452
0.00104748
0.00176494
0.00138769
0.00240134
0.0017467
0.00310674
0.00209935
0.003843
0.00242444
0.00457106
0.00271026
0.00526224
0.00295593
0.00590507
0.0031688
0.006505
0.00336
0.00707898
0.00354081
0.00764731
0.00371931
0.00823193
0.00390318
0.00883882
0.00950908
0.00409132
5.63311e-06
-1.90369e-05
2.7945e-05
-1.37661e-05
7.42398e-05
4.07959e-05
0.000153008
0.000155907
0.000273576
0.000344541
0.000445005
0.00062034
0.000673968
0.000995556
0.000961624
0.00147728
0.00130044
0.00206253
0.00167301
0.00273417
0.00205488
0.00346113
0.00242108
0.00420485
0.00275325
0.00493006
0.00304375
0.00561458
0.00329537
0.00625337
0.00351766
0.0068567
0.00372285
0.00744211
0.00392094
0.00803385
0.00412219
0.00863757
0.00930447
0.0043268
4.44266e-06
-2.34795e-05
2.28778e-05
-3.22012e-05
6.20511e-05
1.62256e-06
0.000129937
8.80212e-05
0.000235645
0.000238833
0.000388771
0.000467214
0.000597891
0.000786436
0.000867967
0.00120721
0.00119701
0.00173349
0.00157338
0.00235779
0.00197606
0.00305846
0.00237897
0.00380194
0.00275828
0.00455075
0.00309878
0.00527408
0.00339664
0.00595551
0.00365754
0.0065958
0.00389319
0.00720646
0.00411488
0.00781216
0.00433567
0.00841677
0.00908224
0.0045579
3.40522e-06
-2.68848e-05
1.83743e-05
-4.71703e-05
5.10469e-05
-3.105e-05
0.000108759
3.03093e-05
0.000200126
0.000147466
0.00033475
0.00033259
0.000522268
0.000598917
0.00077042
0.000959056
0.00108207
0.00142184
0.00145186
0.00198799
0.00186436
0.00264595
0.00229565
0.00337065
0.00271899
0.00412742
0.00311218
0.00488089
0.00346327
0.00560442
0.00377152
0.00628754
0.00404576
0.00693222
0.00429719
0.00756074
0.00454136
0.0081726
0.00884046
0.00478315
2.52113e-06
-2.94059e-05
1.44513e-05
-5.91004e-05
4.13046e-05
-5.79033e-05
8.97087e-05
-1.80948e-05
0.000167599
6.95755e-05
0.000284176
0.000216012
0.000449413
0.000433681
0.000672769
0.000735701
0.000960852
0.00113376
0.00131418
0.00163467
0.00172409
0.00223604
0.00217177
0.00292297
0.00263118
0.00366801
0.00307548
0.00443659
0.00348451
0.00519539
0.00384892
0.00592314
0.00417173
0.00660941
0.00446152
0.00727096
0.00473526
0.00789885
0.00857492
0.00500079
1.78719e-06
-3.11931e-05
1.11074e-05
-6.84206e-05
3.28519e-05
-7.96478e-05
7.29138e-05
-5.81567e-05
0.000138439
4.05014e-06
0.000237948
0.000116504
0.000381176
0.000290452
0.000578351
0.000538526
0.000838567
0.000873545
0.0011671
0.00130613
0.00156206
0.00184108
0.00201169
0.00247334
0.00249434
0.00318536
0.0029824
0.00394853
0.00344949
0.0047283
0.00387686
0.00549577
0.00425893
0.00622733
0.00459837
0.00693151
0.00491059
0.00758663
0.00827914
0.00520637
1.19626e-06
-3.23893e-05
8.323e-06
-7.55474e-05
2.56678e-05
-9.69926e-05
5.8397e-05
-9.08859e-05
0.000112822
-5.03752e-05
0.000196616
3.27102e-05
0.000318876
0.000168192
0.000489827
0.000367575
0.000719848
0.000643524
0.00101754
0.00100844
0.00138677
0.00147185
0.00182333
0.00203678
0.00231273
0.00269597
0.00283096
0.0034303
0.00334946
0.0042098
0.00384175
0.00500348
0.00429205
0.00577703
0.00469373
0.00652984
0.00505765
0.00722271
0.00794409
0.00539271
7.36934e-07
-3.31263e-05
6.06024e-06
-8.08707e-05
1.96842e-05
-0.000110617
4.60807e-05
-0.000117282
9.07349e-05
-9.50293e-05
0.000160397
-3.69519e-05
0.000263281
6.5308e-05
0.000409054
0.000221802
0.000608381
0.000444197
0.000871726
0.000745095
0.00120714
0.00113644
0.00161714
0.00162678
0.00209544
0.00221767
0.00262521
0.00290052
0.00318073
0.00365428
0.00373195
0.00445226
0.00425447
0.00525451
0.00472967
0.00605464
0.00515825
0.00679412
0.00754554
0.00555681
3.93482e-07
-3.35198e-05
4.26343e-06
-8.47406e-05
1.47891e-05
-0.000121142
3.57975e-05
-0.000138291
7.19898e-05
-0.000131222
0.000129194
-9.41565e-05
0.000214625
-2.01226e-05
0.000337047
9.93799e-05
0.000506681
0.000274562
0.000734603
0.000517173
0.00103133
0.000839713
0.0014044
0.00125371
0.00185515
0.00176692
0.00237559
0.00238008
0.00294704
0.00308283
0.00354218
0.00385712
0.00413
0.00466669
0.0046889
0.00549573
0.00518672
0.0062963
0.00708114
0.00565111
1.46498e-07
-3.36663e-05
2.86134e-06
-8.74555e-05
1.08335e-05
-0.000129114
2.73034e-05
-0.000154761
5.62552e-05
-0.000160173
0.000102646
-0.000140547
0.000172676
-9.01522e-05
0.000274041
-1.98524e-06
0.000416052
0.000132552
0.000609469
0.000323757
0.000865758
0.000583424
0.00119552
0.00092395
0.00160589
0.00135655
0.00209737
0.0018886
0.0026604
0.0025198
0.00327612
0.0032414
0.00391196
0.00403086
0.00454561
0.00486208
0.00514361
0.0056983
0.00658286
0.0056419
-2.95745e-08
-3.36367e-05
1.77124e-06
-8.92563e-05
7.64106e-06
-0.000134984
2.02987e-05
-0.000167418
4.30904e-05
-0.000182965
8.0185e-05
-0.000177642
0.000136826
-0.000146793
0.0002196
-8.47597e-05
0.000336689
1.54624e-05
0.000497938
0.000162507
0.000714623
0.00036674
0.000998604
0.00063997
0.00136062
0.00099453
0.00180772
0.0014415
0.00233933
0.00198819
0.00294757
0.00263315
0.00360548
0.00337295
0.00429197
0.00417559
0.00498729
0.00500298
0.00599742
0.00557273
-1.53473e-07
-3.34832e-05
9.06117e-07
-9.03159e-05
5.02195e-06
-0.0001391
1.4453e-05
-0.000176849
3.19899e-05
-0.000200502
6.11114e-05
-0.000206764
0.0001062
-0.000191881
0.000172801
-0.000151361
0.000267898
-7.96346e-05
0.000400133
3.02726e-05
0.00057986
0.000187013