/*--------------------------------*- C++ -*----------------------------------*\
  =========                 |
  \\      /  F ield         | OpenFOAM: The Open Source CFD Toolbox
   \\    /   O peration     | Website:  https://openfoam.org
    \\  /    A nd           | Version:  7
     \\/     M anipulation  |
\*---------------------------------------------------------------------------*/
FoamFile
{
    version     2.0;
    format      ascii;
    class       volVectorField;
    location    "50.999592";
    object      U;
}
// * * * * * * * * * * * * * * * * * * * * * * * * * * * * * * * * * * * * * //

dimensions      [0 1 -1 0 0 0 0];

internalField   nonuniform List<vector> 
5800
(
(-0.000609904 0.000819903 -2.07687e-21)
(-0.00365631 0.00206272 -7.32899e-21)
(-0.00993017 0.00299242 1.3335e-21)
(-0.0182712 0.0036616 5.05208e-21)
(-0.0281513 0.00410882 2.15315e-21)
(-0.0391524 0.00437097 -5.25016e-21)
(-0.0508685 0.00448398 -1.66904e-21)
(-0.062956 0.0044809 -6.55811e-22)
(-0.0751378 0.00439072 -6.03817e-21)
(-0.0871946 0.00423742 -1.16405e-21)
(0.0070659 0.00863191 -6.30789e-21)
(0.0374341 0.0193086 -2.14585e-20)
(0.093294 0.0247208 3.92711e-21)
(0.158155 0.0264387 1.42556e-20)
(0.224735 0.0259287 5.85028e-21)
(0.289521 0.0243435 -1.39761e-20)
(0.350774 0.0224115 -4.24316e-21)
(0.408014 0.020484 -1.70447e-21)
(0.461287 0.0186813 -8.55682e-21)
(0.510776 0.0170254 -7.60203e-21)
(0.556685 0.0155106 -9.52343e-21)
(0.00706594 -0.00863404 6.30788e-21)
(0.0374342 -0.0193135 2.14585e-20)
(0.0932941 -0.0247272 -3.92711e-21)
(0.158155 -0.0264458 -1.42556e-20)
(0.224735 -0.025936 -5.85027e-21)
(0.289521 -0.0243506 1.39761e-20)
(0.350774 -0.0224184 4.24315e-21)
(0.408014 -0.0204906 1.70446e-21)
(0.461287 -0.0186876 1.43013e-20)
(0.510776 -0.0170314 2.5136e-21)
(0.556685 -0.0155163 9.52342e-21)
(0.599217 -0.0141321 -1.37362e-21)
(0.638577 -0.0128688 4.47531e-21)
(0.674961 -0.0117162 -7.53499e-21)
(0.708558 -0.010665 9.03891e-21)
(0.739555 -0.0097066 9.2076e-21)
(0.76813 -0.00883281 2.57013e-21)
(0.794435 -0.00803166 -1.30233e-20)
(0.818588 -0.00728635 1.04633e-20)
(0.840739 -0.00660239 -1.50441e-21)
(0.00839483 -0.0258171 -9.27274e-21)
(0.0403341 -0.0577724 -1.3928e-20)
(0.0969174 -0.0739897 -4.25948e-21)
(0.16196 -0.0791521 -1.23248e-20)
(0.228411 -0.0776407 2.72298e-21)
(0.292925 -0.0729037 -1.78081e-20)
(0.353866 -0.0671241 -6.481e-21)
(0.4108 -0.0613552 -1.38699e-20)
(0.463792 -0.0559588 7.60738e-21)
(0.513024 -0.0510015 -1.79237e-20)
(0.558701 -0.0464663 -5.44571e-20)
(0.601024 -0.042323 8.63207e-21)
(0.640196 -0.0385412 -1.19536e-20)
(0.676411 -0.035091 7.05583e-21)
(0.709856 -0.031944 -1.67386e-20)
(0.740715 -0.0290747 1.72496e-21)
(0.769169 -0.0264585 -8.5579e-21)
(0.795374 -0.0240595 4.84631e-20)
(0.819436 -0.0218283 -4.70555e-21)
(0.841451 -0.0197833 5.93543e-21)
(0.0110348 -0.0427523 -2.83915e-20)
(0.0461007 -0.0957433 -2.77426e-20)
(0.104128 -0.122697 6.35354e-21)
(0.169535 -0.131325 1.34745e-20)
(0.235733 -0.128866 5.61308e-21)
(0.299709 -0.121035 -1.7315e-20)
(0.360028 -0.111458 -2.47791e-20)
(0.416354 -0.101891 5.21722e-20)
(0.468784 -0.0929377 -1.41656e-20)
(0.517505 -0.0847123 1.83235e-20)
(0.56272 -0.0771866 2.85689e-20)
(0.604627 -0.0703108 4.86921e-21)
(0.643424 -0.0640342 7.99381e-21)
(0.679301 -0.0583076 1.72328e-20)
(0.712443 -0.0530839 -1.77106e-20)
(0.743029 -0.0483207 1.67447e-20)
(0.771241 -0.0439773 -1.96969e-21)
(0.797247 -0.0399933 -4.73655e-20)
(0.821127 -0.0362893 3.14371e-20)
(0.842875 -0.0329029 -2.55159e-20)
(0.0149504 -0.0592775 2.18158e-20)
(0.0546682 -0.132906 -3.48318e-20)
(0.114854 -0.170484 5.12224e-20)
(0.180815 -0.182613 -2.31074e-20)
(0.246646 -0.179297 1.21216e-19)
(0.309822 -0.168467 7.11198e-20)
(0.369217 -0.155176 -4.34585e-20)
(0.424638 -0.14188 -1.01926e-19)
(0.47623 -0.129432 3.98241e-20)
(0.52419 -0.117993 2.68242e-20)
(0.568716 -0.107526 3.56149e-20)
(0.610002 -0.0979615 -6.94109e-20)
(0.64824 -0.0892296 -8.03188e-20)
(0.683615 -0.0812619 6.04038e-20)
(0.716304 -0.0739931 4.67655e-20)
(0.746482 -0.0673644 -1.59287e-20)
(0.774334 -0.0613185 3.45255e-20)
(0.80004 -0.0557706 2.08549e-21)
(0.82365 -0.0506156 -5.11305e-20)
(0.845005 -0.0459188 -1.60491e-20)
(0.020089 -0.0752353 -8.04129e-20)
(0.0659381 -0.168948 -2.22335e-20)
(0.128988 -0.216993 -7.71882e-20)
(0.195701 -0.232671 2.21359e-20)
(0.261061 -0.228623 -1.14917e-19)
(0.323192 -0.214928 -6.78908e-20)
(0.38137 -0.198038 7.90899e-20)
(0.435595 -0.181111 9.70323e-20)
(0.48608 -0.165253 -8.5947e-20)
(0.533034 -0.150676 2.2447e-20)
(0.576651 -0.137336 -3.14081e-20)
(0.617116 -0.125144 1.2094e-19)
(0.654614 -0.114011 -3.82288e-20)
(0.689325 -0.103852 -1.34324e-20)
(0.721417 -0.0945814 -7.7664e-21)
(0.751054 -0.0861267 -2.69801e-20)
(0.778428 -0.0784128 -6.58239e-20)
(0.803737 -0.0713304 -1.34928e-21)
(0.826989 -0.0647534 1.81847e-20)
(0.847836 -0.0587869 -1.71325e-20)
(0.0263814 -0.0904745 -5.24566e-20)
(0.0797808 -0.203567 -2.21287e-20)
(0.146389 -0.261877 1.24735e-19)
(0.214062 -0.281164 6.85093e-20)
(0.278867 -0.276543 2.82646e-20)
(0.339721 -0.26015 -8.7e-20)
(0.3964 -0.23981 -9.988e-20)
(0.449151 -0.219377 1.18569e-20)
(0.498269 -0.200217 2.28712e-20)
(0.54398 -0.182599 1.72126e-20)
(0.586472 -0.166472 5.60631e-20)
(0.625923 -0.15173 -1.23449e-19)
(0.662507 -0.138267 1.75981e-21)
(0.696397 -0.125977 4.29399e-20)
(0.72775 -0.114761 2.58525e-21)
(0.756719 -0.10453 -8.43175e-21)
(0.783501 -0.0951924 -2.17369e-20)
(0.808314 -0.0866129 8.05778e-20)
(0.831125 -0.0786495 -3.47903e-20)
(0.851358 -0.0714615 2.82971e-20)
(0.0337423 -0.104852 8.3141e-20)
(0.0960358 -0.236473 -4.39318e-20)
(0.166881 -0.304801 -5.05949e-20)
(0.235735 -0.327767 -4.68667e-20)
(0.29992 -0.322763 -9.25459e-20)
(0.359287 -0.303877 -1.19125e-20)
(0.414205 -0.280265 1.59053e-20)
(0.465214 -0.256478 -3.62177e-20)
(0.512716 -0.234147 5.19803e-20)
(0.556956 -0.213604 4.3668e-21)
(0.598118 -0.194795 -2.19633e-20)
(0.636368 -0.177597 1.00155e-19)
(0.671871 -0.161887 2.95724e-20)
(0.704788 -0.147542 -2.88917e-20)
(0.735266 -0.134447 6.41706e-20)
(0.763445 -0.1225 -6.78129e-20)
(0.789522 -0.111592 -7.29565e-21)
(0.813745 -0.10156 8.46501e-21)
(0.836034 -0.092252 9.40593e-20)
(0.855562 -0.083896 -5.26151e-20)
(0.0420717 -0.118235 2.84284e-20)
(0.114514 -0.267396 3.32846e-20)
(0.190256 -0.345449 1.46335e-19)
(0.260528 -0.372171 6.18574e-20)
(0.324055 -0.367004 2.11989e-19)
(0.381747 -0.345864 1.77851e-20)
(0.43466 -0.319189 9.90183e-20)
(0.483676 -0.292223 6.87642e-20)
(0.529324 -0.266873 -1.47354e-19)
(0.571878 -0.243541 -2.34303e-20)
(0.611513 -0.222171 -5.48311e-20)
(0.648385 -0.202627 -6.80262e-20)
(0.682647 -0.184767 2.24321e-20)
(0.714448 -0.168454 7.00035e-20)
(0.74392 -0.153559 -6.1509e-20)
(0.771192 -0.139965 -5.41383e-20)
(0.796458 -0.127548 5.28859e-20)
(0.819997 -0.116118 -7.06888e-20)
(0.84169 -0.10551 -1.01788e-19)
(0.860433 -0.096044 -2.74768e-20)
(0.0512556 -0.130502 -8.16847e-20)
(0.134998 -0.296081 -8.33122e-20)
(0.216275 -0.38352 -4.35563e-20)
(0.288218 -0.414082 -1.03317e-19)
(0.351078 -0.409001 -5.05646e-20)
(0.406937 -0.385876 -1.20064e-19)
(0.457622 -0.356376 -1.04227e-19)
(0.504411 -0.326432 3.8978e-20)
(0.547984 -0.298236 6.02156e-20)
(0.588647 -0.272268 -1.05445e-19)
(0.626571 -0.248475 6.57558e-20)
(0.661898 -0.226707 -4.40817e-20)
(0.694769 -0.206808 -5.89943e-20)
(0.725318 -0.188626 -6.18749e-20)
(0.753663 -0.172018 1.74069e-19)
(0.779916 -0.156857 7.74756e-20)
(0.804271 -0.143001 1.87322e-20)
(0.827034 -0.130232 -8.05983e-20)
(0.848062 -0.118377 1.68936e-19)
(0.865954 -0.10786 6.2969e-20)
(0.0611673 -0.141543 -1.063e-19)
(0.157245 -0.322295 1.21786e-19)
(0.244669 -0.418738 1.19443e-19)
(0.318554 -0.453224 1.25429e-19)
(0.380771 -0.448502 7.54435e-20)
(0.43467 -0.423695 1.82754e-20)
(0.482931 -0.391635 1.20363e-19)
(0.52728 -0.358936 -1.45916e-19)
(0.568572 -0.328086 -4.08441e-20)
(0.607156 -0.299652 -3.43909e-20)
(0.643197 -0.273588 1.52248e-19)
(0.676825 -0.249733 -2.11332e-20)
(0.708163 -0.227917 1.79227e-20)
(0.737333 -0.207975 3.8596e-21)
(0.764438 -0.189752 6.19604e-20)
(0.789568 -0.173111 -7.75098e-20)
(0.812915 -0.157895 1.5608e-20)
(0.834818 -0.143855 1.77171e-19)
(0.855116 -0.130806 -2.54437e-20)
(0.872105 -0.119299 -1.13986e-19)
(0.0716691 -0.151264 -6.34987e-20)
(0.180989 -0.345832 2.12324e-20)
(0.275141 -0.450849 -1.26855e-19)
(0.351259 -0.489344 -6.2386e-20)
(0.412894 -0.485277 -8.28848e-20)
(0.464742 -0.459115 -6.69219e-21)
(0.51041 -0.424787 -1.61341e-19)
(0.552129 -0.389577 1.42193e-19)
(0.590953 -0.356284 6.22876e-20)
(0.627284 -0.32557 2.63458e-20)
(0.661286 -0.297402 -1.47792e-19)
(0.693071 -0.271609 2.63537e-20)
(0.722748 -0.24801 -1.86548e-20)
(0.750423 -0.226426 -8.03274e-20)
(0.776182 -0.206693 -7.50853e-20)
(0.800094 -0.188667 1.23265e-19)
(0.822344 -0.172178 6.241e-20)
(0.843306 -0.15694 -3.59197e-20)
(0.862818 -0.142757 -1.00308e-19)
(0.878865 -0.130321 1.49507e-20)
(0.0826137 -0.159585 8.59649e-20)
(0.205942 -0.366508 3.91537e-20)
(0.30737 -0.479624 4.82759e-20)
(0.38603 -0.522211 5.39709e-20)
(0.447182 -0.519112 -5.74408e-20)
(0.496927 -0.491951 1.26562e-19)
(0.539868 -0.45567 -1.25433e-19)
(0.57879 -0.418215 -5.13608e-21)
(0.61498 -0.382705 1.00017e-19)
(0.648903 -0.349911 2.09726e-20)
(0.680724 -0.319817 8.8041e-20)
(0.710538 -0.292246 -3.7052e-20)
(0.738437 -0.267006 2.31968e-20)
(0.764511 -0.243908 1.48079e-19)
(0.788828 -0.222781 -8.83764e-21)
(0.811436 -0.203471 -4.35314e-20)
(0.832507 -0.1858 -9.21254e-20)
(0.852451 -0.169447 -1.51403e-19)
(0.871126 -0.154191 -2.34521e-20)
(0.886208 -0.140887 1.52204e-19)
(0.0938462 -0.166444 1.00205e-19)
(0.231798 -0.384172 3.88318e-21)
(0.341007 -0.504867 -1.85242e-19)
(0.422543 -0.551618 7.39336e-20)
(0.483353 -0.549817 1.91716e-22)
(0.530985 -0.522036 7.89223e-20)
(0.571099 -0.484139 7.53517e-20)
(0.607085 -0.444723 -6.79414e-21)
(0.640496 -0.407237 -4.24828e-20)
(0.671875 -0.372574 -1.4795e-19)
(0.701389 -0.340744 4.52128e-20)
(0.729118 -0.311565 1.86894e-19)
(0.755136 -0.284836 -1.31272e-19)
(0.779515 -0.26036 -1.08519e-19)
(0.802305 -0.237957 -6.81052e-20)
(0.82353 -0.217473 -1.63047e-19)
(0.843348 -0.198719 4.7954e-20)
(0.862205 -0.181339 2.28001e-19)
(0.879999 -0.165076 -3.42687e-20)
(0.894105 -0.150963 -4.29119e-20)
(0.105205 -0.171794 4.20257e-20)
(0.258234 -0.398699 -6.60662e-20)
(0.375688 -0.526409 5.77368e-20)
(0.460448 -0.577386 -9.34307e-20)
(0.521103 -0.577223 1.03047e-19)
(0.56666 -0.54922 -1.03114e-19)
(0.603884 -0.510067 -2.51937e-20)
(0.636825 -0.468989 1.11106e-19)
(0.667336 -0.429782 -8.56089e-20)
(0.696053 -0.393474 9.50095e-20)
(0.723153 -0.360106 -1.12589e-19)
(0.7487 -0.329496 -6.4973e-20)
(0.772746 -0.301438 -4.58807e-20)
(0.795348 -0.275726 7.11882e-20)
(0.816537 -0.252174 1.43264e-20)
(0.836312 -0.230627 8.74767e-20)
(0.854809 -0.210894 -5.85874e-20)
(0.872515 -0.192581 -3.97202e-21)
(0.889391 -0.175385 8.94178e-20)
(0.902527 -0.160521 -4.05771e-20)
(0.116526 -0.175609 -9.80638e-21)
(0.284915 -0.409999 -3.92977e-20)
(0.411025 -0.544115 -7.46406e-21)
(0.499379 -0.599364 -2.17746e-20)
(0.560113 -0.601187 -7.06206e-20)
(0.603681 -0.573377 -6.10865e-20)
(0.637994 -0.533344 -4.03383e-20)
(0.667811 -0.490919 -5.58961e-20)
(0.695326 -0.450258 1.15534e-19)
(0.721287 -0.412536 1.2441e-20)
(0.745883 -0.377838 1.77841e-19)
(0.769164 -0.345982 5.49874e-20)
(0.791164 -0.316759 5.98959e-20)
(0.81192 -0.289958 -9.57427e-20)
(0.831446 -0.265389 1.45749e-19)
(0.849713 -0.242896 -2.60768e-20)
(0.86683 -0.222292 -1.5107e-20)
(0.883324 -0.20315 -1.28175e-19)
(0.899252 -0.185101 5.95069e-20)
(0.911442 -0.169541 -4.78234e-20)
(0.127642 -0.17788 -7.99861e-20)
(0.311496 -0.418015 -3.52319e-20)
(0.446618 -0.557885 -5.27892e-20)
(0.538952 -0.617432 -4.60394e-20)
(0.600045 -0.621588 -1.18123e-20)
(0.641763 -0.594401 1.23562e-19)
(0.673189 -0.553881 1.05178e-19)
(0.699839 -0.510438 8.92524e-20)
(0.724288 -0.468597 -9.07114e-20)
(0.747418 -0.429702 -5.24411e-20)
(0.76944 -0.393885 -1.8673e-19)
(0.790392 -0.360974 1.45755e-19)
(0.810285 -0.330756 -5.58557e-20)
(0.829139 -0.303018 1.01145e-19)
(0.846952 -0.277564 -7.51082e-20)
(0.863664 -0.254244 2.76024e-20)
(0.879348 -0.232875 -3.64278e-20)
(0.894568 -0.213007 1.14503e-19)
(0.909526 -0.194193 -9.03099e-20)
(0.920819 -0.178 -3.97731e-20)
(0.138386 -0.178616 8.98167e-20)
(0.337627 -0.422725 -3.36844e-20)
(0.482055 -0.567653 6.35208e-20)
(0.578767 -0.631501 6.61305e-20)
(0.640549 -0.638335 -2.03602e-20)
(0.680612 -0.612209 -1.32816e-19)
(0.709221 -0.571608 9.53361e-20)
(0.732697 -0.527486 -1.85946e-20)
(0.754038 -0.48475 2.95204e-20)
(0.774285 -0.444926 3.55237e-20)
(0.793684 -0.408207 -7.34037e-20)
(0.812258 -0.374434 -1.72864e-19)
(0.83 -0.343394 7.51014e-21)
(0.846909 -0.314873 -1.70617e-20)
(0.86297 -0.288674 5.0298e-21)
(0.878094 -0.264648 8.74193e-20)
(0.8923 -0.242631 -8.42609e-20)
(0.906182 -0.22216 -1.28994e-19)
(0.920145 -0.2027 -3.36586e-20)
(0.930633 -0.185942 6.77417e-20)
(0.148594 -0.177846 7.5648e-21)
(0.362955 -0.424141 -3.82954e-20)
(0.516912 -0.573392 8.47772e-21)
(0.61841 -0.641512 -4.99997e-20)
(0.681261 -0.651361 -2.01342e-20)
(0.719922 -0.626742 -1.39057e-20)
(0.745835 -0.586477 2.20014e-20)
(0.766168 -0.542025 -6.77588e-20)
(0.784388 -0.498682 -1.57714e-20)
(0.801726 -0.458178 4.40357e-20)
(0.81847 -0.420777 2.94219e-20)
(0.834637 -0.386337 1.08068e-19)
(0.850198 -0.35465 1.07059e-19)
(0.865134 -0.325502 -2.72616e-20)
(0.879417 -0.298694 7.48688e-21)
(0.892936 -0.274079 2.98107e-20)
(0.905638 -0.251506 1.09981e-19)
(0.918104 -0.230507 1.28731e-19)
(0.931027 -0.210476 1.43846e-19)
(0.940878 -0.19325 -1.83147e-20)
(0.158106 -0.175621 -1.24155e-20)
(0.38713 -0.422315 2.37405e-20)
(0.550764 -0.575111 2.43912e-20)
(0.657462 -0.647443 1.82169e-20)
(0.721809 -0.660628 -4.16219e-20)
(0.75938 -0.637962 1.34133e-19)
(0.782771 -0.598458 -3.9358e-20)
(0.800034 -0.554032 1.10838e-20)
(0.815151 -0.510376 -5.82347e-20)
(0.829575 -0.469442 -5.92857e-21)
(0.843654 -0.431579 9.85944e-20)
(0.857402 -0.396669 -4.95604e-20)
(0.87077 -0.36451 -1.79219e-20)
(0.883717 -0.334891 -4.45928e-20)
(0.896205 -0.307615 4.26403e-20)
(0.908111 -0.282538 -8.47233e-20)
(0.919299 -0.259532 3.28447e-20)
(0.930252 -0.238168 -2.13303e-20)
(0.941984 -0.217837 9.28915e-21)
(0.95151 -0.200453 4.15216e-20)
(0.166768 -0.172006 -5.70416e-21)
(0.409806 -0.417334 7.34608e-22)
(0.583183 -0.572861 -2.57363e-21)
(0.695491 -0.649305 -8.91548e-21)
(0.761809 -0.666128 1.76129e-20)
(0.798664 -0.645858 -8.38406e-20)
(0.819765 -0.607544 -8.75251e-21)
(0.834073 -0.563505 -4.73844e-20)
(0.846136 -0.519833 7.31948e-20)
(0.857668 -0.478718 5.58876e-20)
(0.869093 -0.440612 -9.40046e-20)
(0.880428 -0.405426 7.22292e-20)
(0.891605 -0.372968 -6.07753e-20)
(0.902563 -0.343034 1.37769e-20)
(0.91325 -0.315427 -1.91945e-19)
(0.92355 -0.29 6.59397e-21)
(0.933264 -0.266625 -6.56924e-20)
(0.942674 -0.244863 -9.50263e-20)
(0.952987 -0.224051 -5.66015e-20)
(0.96282 -0.206292 -9.13387e-20)
(0.174449 -0.167095 1.49775e-20)
(0.43064 -0.409314 -2.21703e-20)
(0.613743 -0.566728 9.60177e-21)
(0.732065 -0.647145 1.14895e-20)
(0.800872 -0.667879 5.89033e-22)
(0.83745 -0.650439 3.85024e-20)
(0.85655 -0.613746 -2.00705e-20)
(0.868065 -0.570458 -1.51455e-20)
(0.877157 -0.527067 -8.57832e-21)
(0.885841 -0.486021 -3.44779e-20)
(0.894643 -0.447887 2.44342e-20)
(0.903588 -0.412618 -6.90623e-20)
(0.912595 -0.380032 5.9312e-20)
(0.921577 -0.349935 5.93964e-20)
(0.93047 -0.322134 1.06541e-19)
(0.939172 -0.296479 3.61114e-20)
(0.947476 -0.272838 7.32432e-20)
(0.955412 -0.250879 8.05354e-20)
(0.963808 -0.230511 7.21436e-20)
(0.973403 -0.213936 3.59925e-20)
(0.181077 -0.161004 4.18185e-20)
(0.449297 -0.39838 -1.35923e-20)
(0.642027 -0.556849 -1.72687e-20)
(0.766751 -0.641044 -2.99348e-20)
(0.838605 -0.66593 6.82206e-21)
(0.875406 -0.651741 -1.19947e-20)
(0.892857 -0.617098 1.64887e-20)
(0.901788 -0.574927 -6.57552e-21)
(0.908027 -0.53211 -2.96344e-20)
(0.913936 -0.491378 -9.91583e-21)
(0.920165 -0.45343 8.05128e-20)
(0.926761 -0.418264 1.8778e-20)
(0.933632 -0.385717 1.30588e-20)
(0.940668 -0.355606 -4.8173e-20)
(0.947786 -0.327747 -1.45097e-19)
(0.954894 -0.301987 4.5212e-20)
(0.961825 -0.278187 2.98055e-20)
(0.96844 -0.256123 -8.36844e-20)
(0.975076 -0.235986 -4.69004e-20)
(0.983092 -0.218622 -2.27054e-20)
(0.186512 -0.153705 -4.86163e-20)
(0.465502 -0.384655 3.22514e-20)
(0.667625 -0.543432 -6.86495e-20)
(0.799126 -0.631125 2.82021e-21)
(0.874612 -0.660357 1.88027e-20)
(0.912199 -0.649819 -1.48295e-20)
(0.928417 -0.61765 7.27304e-21)
(0.935026 -0.576959 1.135e-21)
(0.938566 -0.535012 2.91892e-20)
(0.941796 -0.494833 2.60679e-20)
(0.945523 -0.457275 -5.32382e-20)
(0.949828 -0.422394 -9.36058e-20)
(0.954611 -0.390049 3.44874e-20)
(0.959745 -0.360068 2.82042e-20)
(0.965122 -0.33228 7.52801e-20)
(0.970654 -0.30653 -9.72522e-21)
(0.976226 -0.282664 7.75837e-22)
(0.981649 -0.260536 2.79415e-21)
(0.986841 -0.24051 -7.26925e-21)
(0.992993 -0.222691 -1.09549e-19)
(0.190571 -0.145385 6.71595e-20)
(0.479013 -0.36853 7.26782e-20)
(0.690091 -0.526647 7.22218e-20)
(0.828816 -0.617535 1.74759e-20)
(0.908509 -0.651267 -2.52801e-20)
(0.947495 -0.644753 -2.00735e-20)
(0.962961 -0.61547 -1.14781e-20)
(0.967562 -0.57662 5.84171e-22)
(0.968595 -0.535832 -8.38031e-21)
(0.969271 -0.496441 -1.33606e-20)
(0.970586 -0.459472 4.9523e-21)
(0.972674 -0.425051 4.03312e-20)
(0.975432 -0.393062 -3.49496e-20)
(0.978719 -0.363349 2.67337e-21)
(0.982405 -0.335754 -1.85429e-20)
(0.986398 -0.310126 -1.0453e-20)
(0.990626 -0.286296 5.65596e-21)
(0.99492 -0.264173 -1.76967e-20)
(0.998928 -0.244274 1.70484e-20)
(1.00346 -0.226267 1.01447e-19)
(0.193203 -0.136285 4.83259e-20)
(0.489598 -0.350227 -1.40291e-19)
(0.709033 -0.50673 7.2416e-20)
(0.855301 -0.60049 2.11893e-20)
(0.939941 -0.638769 -4.98686e-20)
(0.980965 -0.636636 2.59196e-20)
(0.996219 -0.610642 2.21929e-21)
(0.999184 -0.573991 -1.44709e-20)
(0.997943 -0.534647 2.10947e-21)
(0.996215 -0.496272 2.6313e-22)
(0.99523 -0.460081 -4.89859e-21)
(0.99519 -0.426285 1.19526e-20)
(0.996 -0.3948 2.14923e-20)
(0.997507 -0.365486 -3.58889e-20)
(0.999565 -0.338202 1.92326e-20)
(1.00207 -0.312803 -6.47023e-21)
(1.00498 -0.289117 1.98445e-20)
(1.00817 -0.267087 -3.34294e-22)
(1.0111 -0.247337 2.2944e-20)
(1.01423 -0.229287 -2.9865e-20)
(0.194387 -0.126572 -6.27543e-21)
(0.497023 -0.330009 -5.41503e-20)
(0.72424 -0.483981 -4.51663e-20)
(0.878106 -0.580186 2.70823e-20)
(0.968445 -0.623051 -5.42271e-21)
(1.01229 -0.62557 2.70802e-20)
(1.02793 -0.603264 1.29927e-20)
(1.02968 -0.569163 3.50152e-21)
(1.02644 -0.531545 1.47815e-21)
(1.02249 -0.494404 -1.66675e-21)
(1.01934 -0.459171 -3.79361e-22)
(1.01727 -0.426156 -4.22735e-21)
(1.01622 -0.395314 6.61864e-21)
(1.01603 -0.366524 -1.68105e-22)
(1.01653 -0.339661 -2.60916e-20)
(1.01761 -0.314596 4.75448e-20)
(1.01925 -0.291155 -2.35853e-20)
(1.02133 -0.269298 -2.26149e-20)
(1.02323 -0.24971 -1.01069e-20)
(1.02505 -0.231714 -1.75952e-20)
(0.194103 -0.116379 -1.86783e-20)
(0.501111 -0.308181 1.16077e-19)
(0.73543 -0.458708 3.8817e-20)
(0.896948 -0.556896 -1.06732e-19)
(0.993567 -0.604293 -1.94877e-20)
(1.04109 -0.611704 3.22837e-20)
(1.05781 -0.593442 1.38628e-20)
(1.05885 -0.562241 3.54375e-20)
(1.05394 -0.526623 -2.18859e-21)
(1.04797 -0.490928 3.22573e-21)
(1.04279 -0.456823 1.6881e-21)
(1.03883 -0.424734 7.75015e-21)
(1.03602 -0.394663 1.08289e-21)
(1.03421 -0.366513 1.33438e-20)
(1.03323 -0.340176 -8.96302e-21)
(1.03296 -0.315539 -6.00532e-20)
(1.03337 -0.292436 -2.84412e-20)
(1.03437 -0.270825 2.95657e-20)
(1.03525 -0.251417 1.49569e-20)
(1.03585 -0.233556 -6.49505e-21)
(0.192337 -0.105849 1.09087e-19)
(0.501748 -0.285072 -1.55312e-19)
(0.742317 -0.431262 -1.38613e-19)
(0.911528 -0.530898 1.6736e-19)
(1.01497 -0.582709 4.17268e-20)
(1.067 -0.595202 -2.65441e-20)
(1.0856 -0.581302 -4.63335e-20)
(1.08649 -0.553336 -4.54902e-20)
(1.08027 -0.51999 2.84182e-20)
(1.07253 -0.485944 7.15109e-21)
(1.0655 -0.453124 8.06297e-21)
(1.05976 -0.422094 4.68838e-21)
(1.0553 -0.392913 -3.57012e-21)
(1.05198 -0.365509 2.77967e-21)
(1.0496 -0.339793 1.05806e-20)
(1.04806 -0.315673 3.1766e-20)
(1.0473 -0.292992 1.47701e-20)
(1.04724 -0.271696 -5.03548e-20)
(1.04714 -0.252497 -1.0425e-20)
(1.0466 -0.234853 1.4954e-20)
(0.189102 -0.0951391 -1.19008e-19)
(0.49887 -0.261026 1.15028e-19)
(0.744673 -0.402019 -4.55918e-22)
(0.921505 -0.5025 -3.80494e-20)
(1.03232 -0.558533 -6.0688e-21)
(1.08969 -0.576233 -8.43609e-21)
(1.11099 -0.566991 -4.36786e-20)
(1.11238 -0.542572 4.28149e-20)
(1.10529 -0.511758 -5.2002e-20)
(1.09606 -0.479559 3.15809e-21)
(1.08736 -0.44817 -2.66112e-21)
(1.07999 -0.41832 -8.52714e-22)
(1.07401 -0.390136 -2.66868e-21)
(1.06927 -0.363574 -7.29194e-22)
(1.06559 -0.338566 1.89922e-21)
(1.06285 -0.315041 -5.0671e-21)
(1.06098 -0.292858 1.27751e-20)
(1.05991 -0.271942 3.26986e-21)
(1.05888 -0.25299 1.20164e-21)
(1.0573 -0.235639 -2.47473e-20)
(0.184443 -0.0844137 1.83398e-20)
(0.492466 -0.236399 3.33199e-20)
(0.742338 -0.371377 6.12385e-20)
(0.926574 -0.472043 -3.21596e-20)
(1.04528 -0.532014 -8.85033e-20)
(1.10883 -0.554983 2.44095e-20)
(1.13372 -0.550654 3.80105e-20)
(1.13634 -0.530077 2.18937e-20)
(1.12885 -0.502053 4.59807e-20)
(1.11844 -0.471883 -9.94184e-21)
(1.1083 -0.442059 -3.64355e-21)
(1.09946 -0.4135 4.03973e-21)
(1.09208 -0.386409 -9.35986e-21)
(1.08603 -0.360772 -8.03622e-21)
(1.08115 -0.33655 -5.45376e-22)
(1.07728 -0.313691 7.44435e-22)
(1.07437 -0.292074 -1.27886e-20)
(1.07234 -0.2716 6.82474e-21)
(1.07043 -0.252933 1.22118e-20)
(1.0679 -0.235934 -7.80791e-22)
(0.17843 -0.0738344 3.34823e-20)
(0.482584 -0.211552 6.77751e-21)
(0.73522 -0.339753 -8.56294e-20)
(0.926486 -0.439895 1.04326e-19)
(1.05349 -0.50343 1.90736e-20)
(1.12408 -0.531649 -9.75924e-20)
(1.1535 -0.532444 3.06785e-20)
(1.15812 -0.515989 -3.24237e-20)
(1.15084 -0.490988 4.08184e-22)
(1.13959 -0.463027 4.74118e-21)
(1.12822 -0.434905 1.05451e-20)
(1.11808 -0.407726 2.74447e-21)
(1.10945 -0.381811 1.91497e-20)
(1.10221 -0.357173 1.70761e-21)
(1.09622 -0.333805 -4.44129e-21)
(1.09132 -0.311672 5.71292e-22)
(1.08744 -0.290681 -2.28431e-21)
(1.0845 -0.270706 -4.32123e-23)
(1.08178 -0.252358 1.22837e-21)
(1.07838 -0.235759 5.51522e-21)
(0.171158 -0.0635553 -3.89779e-20)
(0.469329 -0.186844 2.03546e-21)
(0.723296 -0.307575 1.79064e-20)
(0.921046 -0.406445 -4.30804e-20)
(1.05663 -0.473077 8.15688e-20)
(1.13509 -0.50644 4.00051e-20)
(1.17003 -0.512511 -3.73719e-20)
(1.17753 -0.500433 -2.10715e-20)
(1.17107 -0.478692 1.6149e-20)
(1.15942 -0.453111 -1.92962e-20)
(1.14709 -0.426802 1.50481e-20)
(1.13582 -0.401105 8.36283e-22)
(1.12607 -0.376429 9.28936e-22)
(1.11776 -0.352844 -5.86299e-21)
(1.11077 -0.330391 1.11361e-20)
(1.10493 -0.309036 -1.54222e-21)
(1.10015 -0.288722 4.68214e-22)
(1.09636 -0.269298 1.36236e-21)
(1.0929 -0.251302 -3.39337e-21)
(1.08871 -0.235133 -5.55282e-22)
(0.162748 -0.0537194 6.44648e-20)
(0.452871 -0.162628 7.32306e-20)
(0.706621 -0.275283 5.16545e-20)
(0.910122 -0.372102 -8.40914e-21)
(1.05444 -0.441271 8.33096e-21)
(1.14154 -0.479575 -7.82212e-22)
(1.18301 -0.491009 8.02356e-20)
(1.19432 -0.483533 -2.15727e-20)
(1.18939 -0.465283 1.20101e-20)
(1.17781 -0.442253 -5.81814e-20)
(1.16483 -0.417872 1.01277e-20)
(1.15265 -0.393721 1.89892e-20)
(1.1419 -0.370335 -6.0604e-21)
(1.13265 -0.347872 1.26302e-20)
(1.12476 -0.326375 -9.94384e-21)
(1.11807 -0.305834 1.30716e-20)
(1.11248 -0.286243 1.3804e-21)
(1.10789 -0.267419 -2.46556e-21)
(1.10376 -0.2498 -5.04209e-22)
(1.09888 -0.234085 -2.21189e-21)
(0.153343 -0.0444549 -1.21553e-19)
(0.433442 -0.139238 2.93532e-20)
(0.68533 -0.243313 -1.18015e-20)
(0.893653 -0.33729 -7.63186e-20)
(1.04665 -0.408346 -2.40188e-20)
(1.14308 -0.451285 -4.56848e-20)
(1.19211 -0.468095 -3.5906e-20)
(1.20825 -0.46541 -3.46299e-20)
(1.20564 -0.450871 3.04141e-20)
(1.19467 -0.430563 1.12824e-20)
(1.18138 -0.408217 -3.42641e-20)
(1.1685 -0.385672 -4.38538e-21)
(1.15694 -0.363629 -2.20005e-21)
(1.14687 -0.342322 -1.09173e-20)
(1.13818 -0.321811 -1.2864e-21)
(1.13073 -0.302133 -2.1607e-21)
(1.1244 -0.28329 -1.08691e-20)
(1.11907 -0.265105 2.34551e-21)
(1.11436 -0.247891 3.92351e-21)
(1.10886 -0.23263 -7.43634e-22)
(0.143104 -0.0358729 4.166e-21)
(0.411331 -0.116984 -5.27943e-20)
(0.659644 -0.212093 2.36439e-20)
(0.871655 -0.30244 -1.59407e-20)
(1.03308 -0.374651 1.87113e-20)
(1.13938 -0.421811 7.53589e-20)
(1.19699 -0.443927 -3.24585e-20)
(1.21904 -0.446178 6.86496e-20)
(1.21964 -0.435558 2.43546e-21)
(1.20989 -0.418143 2.71677e-20)
(1.19667 -0.397938 2.75138e-21)
(1.18334 -0.37706 1.62692e-20)
(1.17114 -0.356396 2.83947e-21)
(1.16038 -0.336268 4.37898e-22)
(1.151 -0.316776 -1.67924e-20)
(1.1429 -0.297978 2.65702e-21)
(1.1359 -0.279896 1.04922e-20)
(1.1299 -0.262412 3.63578e-22)
(1.12462 -0.245615 -2.45792e-21)
(1.1187 -0.230821 1.09801e-21)
(0.132206 -0.0280642 1.45041e-20)
(0.386883 -0.0961464 4.20826e-20)
(0.629872 -0.182032 4.42519e-20)
(0.84424 -0.267988 -1.2544e-20)
(1.0136 -0.34055 5.21787e-20)
(1.13015 -0.391407 -1.01814e-20)
(1.19729 -0.418664 7.38252e-20)
(1.22639 -0.425942 -8.59208e-20)
(1.23118 -0.419433 -1.40981e-20)
(1.22336 -0.405084 -1.27533e-20)
(1.21065 -0.387131 -1.37756e-20)
(1.19714 -0.367978 -1.94e-21)
(1.18448 -0.34872 5.81185e-21)
(1.17317 -0.329789 -1.51648e-20)
(1.16322 -0.311332 1.15335e-20)
(1.15454 -0.293427 -4.92017e-21)
(1.14697 -0.276123 -2.57394e-21)
(1.1404 -0.259343 -3.4617e-21)
(1.13453 -0.243032 -2.43323e-21)
(1.12838 -0.228675 -4.79652e-21)
(0.120837 -0.0210975 6.68782e-20)
(0.360494 -0.0769629 -6.36824e-20)
(0.596409 -0.153513 7.53828e-21)
(0.811614 -0.234367 -8.46215e-21)
(0.98813 -0.306416 -1.97738e-20)
(1.1151 -0.360335 -3.70771e-20)
(1.19265 -0.392464 -4.50134e-21)
(1.22994 -0.4048 2.16037e-20)
(1.24001 -0.402571 8.37231e-21)
(1.23492 -0.391463 -1.08208e-20)
(1.22326 -0.37588 1.16291e-20)
(1.20988 -0.35851 -1.0219e-21)
(1.19695 -0.340683 -1.93027e-20)
(1.18522 -0.322956 2.62023e-20)
(1.1748 -0.305541 7.01949e-21)
(1.16564 -0.288537 -3.48794e-21)
(1.1576 -0.272019 4.36054e-21)
(1.15052 -0.255942 4.98482e-21)
(1.14416 -0.240201 4.4676e-21)
(1.13775 -0.226284 4.31159e-21)
(0.109188 -0.0150184 -6.87245e-20)
(0.332595 -0.0596277 5.19016e-20)
(0.559734 -0.12688 2.20172e-20)
(0.774094 -0.201995 -4.44562e-20)
(0.956711 -0.272636 -9.39413e-21)
(1.09399 -0.328874 -3.38519e-20)
(1.18267 -0.365493 1.3143e-20)
(1.22932 -0.382839 -2.08474e-20)
(1.24583 -0.385032 1.12306e-21)
(1.24441 -0.377342 2.69962e-21)
(1.2344 -0.364257 5.86031e-21)
(1.22152 -0.348737 -1.87678e-20)
(1.20854 -0.33236 1.86126e-20)
(1.19654 -0.315841 -1.25379e-20)
(1.18576 -0.299466 -2.70758e-21)
(1.17621 -0.283365 9.90509e-22)
(1.16777 -0.267632 -3.16449e-21)
(1.16027 -0.25226 -7.78691e-21)
(1.15349 -0.237113 -1.70692e-22)
(1.14676 -0.223616 -4.34001e-21)
(0.097452 -0.00984821 -8.21463e-21)
(0.303648 -0.0442837 -2.39918e-20)
(0.520402 -0.10243 -8.16955e-21)
(0.732109 -0.171272 1.2807e-20)
(0.919475 -0.2396 -7.33357e-21)
(1.06663 -0.297315 7.6967e-21)
(1.16697 -0.33792 1.71435e-20)
(1.2241 -0.360141 1.45617e-20)
(1.24829 -0.366857 1.12176e-20)
(1.25157 -0.362762 -2.44276e-21)
(1.24395 -0.352318 -5.61888e-21)
(1.23201 -0.338724 6.92203e-21)
(1.21924 -0.323824 -3.06343e-21)
(1.20712 -0.308511 4.25454e-21)
(1.19611 -0.293167 -1.97746e-21)
(1.18626 -0.277961 4.89351e-21)
(1.17748 -0.263008 -1.42612e-21)
(1.16964 -0.248337 4.6294e-21)
(1.1625 -0.233774 -1.39543e-21)
(1.15546 -0.220681 2.62374e-22)
(0.0858153 -0.00558488 -1.0025e-22)
(0.274128 -0.0310198 -9.94607e-23)
(0.479032 -0.0804042 -2.73596e-21)
(0.686203 -0.142565 1.34616e-20)
(0.876682 -0.207698 8.52642e-21)
(1.03295 -0.265968 -6.37942e-21)
(1.1452 -0.309929 -4.67316e-21)
(1.2138 -0.336784 -1.35483e-21)
(1.24697 -0.348071 -6.45587e-21)
(1.25612 -0.34774 -4.15223e-22)
(1.25174 -0.340098 2.7199e-22)
(1.24129 -0.328525 -2.62508e-21)
(1.22904 -0.315135 -1.59423e-21)
(1.21698 -0.301027 -3.56535e-21)
(1.20584 -0.2867 -3.80561e-21)
(1.19578 -0.272375 -3.01281e-22)
(1.18675 -0.258189 1.36726e-21)
(1.17862 -0.244209 1.40124e-21)
(1.1712 -0.23022 1.4971e-21)
(1.16392 -0.217517 2.17379e-21)
(0.0744535 -0.00220378 9.29389e-21)
(0.244511 -0.0198693 -1.43603e-21)
(0.43629 -0.0609788 -2.43103e-21)
(0.637028 -0.116199 6.09879e-21)
(0.828732 -0.177315 1.22225e-20)
(0.992932 -0.235159 -5.38669e-21)
(1.117 -0.281723 -4.36895e-21)
(1.19792 -0.31285 -8.10059e-21)
(1.24136 -0.328685 -7.26653e-21)
(1.25768 -0.332272 1.35637e-21)
(1.25755 -0.327606 -1.20012e-21)
(1.24924 -0.318174 -5.50368e-22)
(1.23789 -0.306344 -2.82591e-21)
(1.22611 -0.293446 -4.54548e-21)
(1.21497 -0.28012 -1.1071e-21)
(1.20479 -0.266656 -3.63361e-22)
(1.19558 -0.253219 -7.65578e-23)
(1.18724 -0.239915 9.58267e-22)
(1.17958 -0.226493 3.49611e-21)
(1.17214 -0.214156 2.91574e-21)
(0.0635259 0.000340136 -5.57227e-21)
(0.215258 -0.0108107 -8.09349e-21)
(0.392868 -0.0442618 -1.07793e-20)
(0.585336 -0.0924457 1.4143e-20)
(0.776175 -0.148822 1.36354e-20)
(0.946746 -0.205233 2.65157e-22)
(1.08214 -0.253526 5.18851e-21)
(1.17595 -0.288431 1.43705e-20)
(1.23091 -0.308701 1.55538e-20)
(1.25579 -0.316328 1.00889e-20)
(1.26108 -0.314827 -2.46039e-20)
(1.25571 -0.307682 1.00804e-20)
(1.24574 -0.297486 -4.74075e-21)
(1.2345 -0.285813 1.01973e-20)
(1.22351 -0.273474 -6.6657e-22)
(1.2133 -0.26085 -1.61469e-21)
(1.20399 -0.248138 1.0536e-21)
(1.19549 -0.23549 9.99729e-21)
(1.18766 -0.222635 -3.49244e-21)
(1.18013 -0.210628 3.24438e-22)
(0.0531716 0.00210946 -1.71352e-20)
(0.186803 -0.0037706 3.90297e-20)
(0.349467 -0.0302889 3.8786e-21)
(0.531955 -0.0715127 -4.87307e-20)
(0.719716 -0.122561 -9.08802e-21)
(0.894709 -0.176547 2.10529e-20)
(1.04045 -0.225597 -4.86011e-20)
(1.14738 -0.263642 -4.43094e-22)
(1.21497 -0.288121 4.51054e-21)
(1.24987 -0.299858 -9.16155e-22)
(1.2619 -0.301715 1.30646e-20)
(1.26046 -0.297034 -2.27638e-20)
(1.25247 -0.288575 3.64209e-21)
(1.24212 -0.278162 -8.63388e-21)
(1.23146 -0.266805 -7.16737e-21)
(1.22133 -0.254998 6.59018e-21)
(1.21199 -0.242985 -7.74234e-22)
(1.2034 -0.23097 -1.57524e-20)
(1.19545 -0.218681 4.46107e-22)
(1.18787 -0.206961 -8.00783e-21)
(0.0435055 0.00318093 1.3299e-20)
(0.159536 0.00137066 -2.1636e-20)
(0.306764 -0.0190236 -1.71537e-21)
(0.477769 -0.0535334 -4.01491e-20)
(0.660205 -0.0988336 -2.50127e-20)