/*--------------------------------*- C++ -*----------------------------------*\
  =========                 |
  \\      /  F ield         | OpenFOAM: The Open Source CFD Toolbox
   \\    /   O peration     | Website:  https://openfoam.org
    \\  /    A nd           | Version:  7
     \\/     M anipulation  |
\*---------------------------------------------------------------------------*/
FoamFile
{
    version     2.0;
    format      ascii;
    class       surfaceScalarField;
    location    "14";
    object      phi;
}
// * * * * * * * * * * * * * * * * * * * * * * * * * * * * * * * * * * * * * //

dimensions      [0 3 -1 0 0 0 0];

internalField   nonuniform List<scalar> 
26110
(
-2.93691e-07
2.93691e-07
-7.88324e-14
-1.17084e-06
8.77152e-07
-3.66662e-13
-2.65763e-06
1.48679e-06
-8.47757e-13
-4.77586e-06
2.11824e-06
-1.58119e-12
-7.54191e-06
2.76605e-06
-2.62102e-12
-1.09658e-05
3.42388e-06
-4.01166e-12
-1.50503e-05
4.08452e-06
-5.81975e-12
-1.97903e-05
4.73998e-06
-8.06158e-12
-2.51718e-05
5.38154e-06
-1.0698e-11
-3.11717e-05
5.99991e-06
-1.37642e-11
-3.77571e-05
6.58545e-06
-1.73596e-11
-4.48855e-05
7.12844e-06
-2.14654e-11
-5.2505e-05
7.6195e-06
-2.6013e-11
-6.05551e-05
8.05015e-06
-3.10868e-11
-6.89685e-05
8.41344e-06
-3.67033e-11
-7.76733e-05
8.70486e-06
-4.27501e-11
-8.65967e-05
8.92336e-06
-4.93233e-11
-9.56692e-05
9.0726e-06
-5.64832e-11
-0.000104831
9.16228e-06
-6.41222e-11
-0.000114041
9.20955e-06
-7.22431e-11
-0.000123281
9.24014e-06
-8.08384e-11
-0.000132569
9.28848e-06
-8.9902e-11
-0.000141965
9.39539e-06
-9.94597e-11
-0.000151577
9.6122e-06
-1.09485e-10
1.0026e-05
-1.19882e-10
-0.000161603
-2.88656e-07
5.82347e-07
-1.15014e-06
1.73863e-06
-2.60934e-06
2.94599e-06
-4.68665e-06
4.19555e-06
-7.39687e-06
5.47626e-06
-1.07482e-05
6.77523e-06
-1.47415e-05
8.07785e-06
-1.93695e-05
9.36789e-06
-2.46156e-05
1.06276e-05
-3.04538e-05
1.18382e-05
-3.68482e-05
1.29799e-05
-4.37526e-05
1.40328e-05
-5.11109e-05
1.49778e-05
-5.88579e-05
1.57971e-05
-6.69208e-05
1.64764e-05
-7.52216e-05
1.70057e-05
-8.36803e-05
1.73821e-05
-9.222e-05
1.76123e-05
-0.000100773
1.77148e-05
-0.000109286
1.77233e-05
-0.000117735
1.76892e-05
-0.000126129
1.76818e-05
-0.000134517
1.77838e-05
-0.000143005
1.81e-05
1.88092e-05
-0.000151788
-2.78664e-07
8.61012e-07
-1.10902e-06
2.56899e-06
-2.51343e-06
4.35039e-06
-4.50943e-06
6.19156e-06
-7.10865e-06
8.07548e-06
-1.03158e-05
9.98238e-06
-1.41278e-05
1.18898e-05
-1.85328e-05
1.37729e-05
-2.35095e-05
1.56043e-05
-2.90262e-05
1.73549e-05
-3.50406e-05
1.89943e-05
-4.14992e-05
2.04915e-05
-4.83378e-05
2.18163e-05
-5.54817e-05
2.2941e-05
-6.28474e-05
2.3842e-05
-7.03444e-05
2.45027e-05
-7.78789e-05
2.49166e-05
-8.53582e-05
2.50916e-05
-9.2697e-05
2.50536e-05
-9.98255e-05
2.48518e-05
-0.000106699
2.45627e-05
-0.000113308
2.42912e-05
-0.000119689
2.41645e-05
-0.000125934
2.43448e-05
2.5112e-05
-0.000132237
-2.63866e-07
1.12488e-06
-1.04809e-06
3.35321e-06
-2.37119e-06
5.6735e-06
-4.24647e-06
8.06683e-06
-6.68081e-06
1.05098e-05
-9.67368e-06
1.29752e-05
-1.32161e-05
1.54323e-05
-1.72897e-05
1.78465e-05
-2.18657e-05
2.01803e-05
-2.69043e-05
2.23935e-05
-3.23535e-05
2.44435e-05
-3.81493e-05
2.62872e-05
-4.42151e-05
2.78821e-05
-5.04622e-05
2.91882e-05
-5.6791e-05
3.01708e-05
-6.30928e-05
3.08045e-05
-6.92528e-05
3.10766e-05
-7.51548e-05
3.09936e-05
-8.06876e-05
3.05864e-05
-8.57536e-05
2.99178e-05
-9.02795e-05
2.90886e-05
-9.42288e-05
2.82405e-05
-9.76129e-05
2.75486e-05
-0.000100506
2.72374e-05
2.76999e-05
-0.000103093
-2.44466e-07
1.36934e-06
-9.68117e-07
4.07686e-06
-2.18438e-06
6.88976e-06
-3.90089e-06
9.78335e-06
-6.11827e-06
1.27272e-05
-8.829e-06
1.5686e-05
-1.20163e-05
1.86196e-05
-1.56533e-05
2.14834e-05
-1.97013e-05
2.42284e-05
-2.41096e-05
2.68017e-05
-2.88139e-05
2.91478e-05
-3.37361e-05
3.12094e-05
-3.87835e-05
3.29295e-05
-4.3849e-05
3.42537e-05
-4.88119e-05
3.51337e-05
-5.35391e-05
3.55317e-05
-5.78882e-05
3.54257e-05
-6.17116e-05
3.4817e-05
-6.48633e-05
3.37381e-05
-6.7208e-05
3.22626e-05
-6.86337e-05
3.05143e-05
-6.90662e-05
2.86729e-05
-6.84843e-05
2.69667e-05
-6.69367e-05
2.56898e-05
2.53368e-05
-6.45736e-05
-2.20705e-07
1.59005e-06
-8.70041e-07
4.7262e-06
-1.95507e-06
7.97479e-06
-3.47637e-06
1.13046e-05
-5.42676e-06
1.46776e-05
-7.79009e-06
1.80493e-05
-1.054e-05
2.13695e-05
-1.36388e-05
2.45822e-05
-1.70361e-05
2.76257e-05
-2.06676e-05
3.04332e-05
-2.44538e-05
3.29341e-05
-2.82995e-05
3.50551e-05
-3.20922e-05
3.67222e-05
-3.57024e-05
3.78639e-05
-3.89833e-05
3.84146e-05
-4.1772e-05
3.83203e-05
-4.38915e-05
3.75452e-05
-4.51551e-05
3.60806e-05
-4.5373e-05
3.3956e-05
-4.43621e-05
3.12516e-05
-4.19604e-05
2.81125e-05
-3.80451e-05
2.47576e-05
-3.25551e-05
2.14767e-05
-2.55239e-05
1.86587e-05
1.69615e-05
-1.71486e-05
-1.92831e-07
1.78288e-06
-7.54823e-07
5.28819e-06
-1.6854e-06
8.90536e-06
-2.97671e-06
1.2596e-05
-4.61229e-06
1.63132e-05
-6.5657e-06
2.00027e-05
-8.79928e-06
2.36031e-05
-1.12627e-05
2.70456e-05
-1.38914e-05
3.02544e-05
-1.66054e-05
3.31472e-05
-1.93076e-05
3.56363e-05
-2.18824e-05
3.76299e-05
-2.41946e-05
3.90344e-05
-2.60882e-05
3.97575e-05
-2.7386e-05
3.97125e-05
-2.78899e-05
3.88242e-05
-2.73822e-05
3.70375e-05
-2.56294e-05
3.43278e-05
-2.23882e-05
3.07149e-05
-1.74168e-05
2.62802e-05
-1.04905e-05
2.11862e-05
-1.42492e-06
1.5692e-05
9.89796e-06
1.01538e-05
2.34824e-05
5.07418e-06
1.29652e-06
3.91475e-05
-1.61076e-07
1.94395e-06
-6.23352e-07
5.75047e-06
-1.37736e-06
9.65937e-06
-2.40547e-06
1.36241e-05
-3.68046e-06
1.75882e-05
-5.16406e-06
2.14863e-05
-6.80553e-06
2.52446e-05
-8.54009e-06
2.87802e-05
-1.02872e-05
3.20015e-05
-1.1949e-05
3.48089e-05
-1.34082e-05
3.70955e-05
-1.45265e-05
3.87483e-05
-1.51429e-05
3.96508e-05
-1.50717e-05
3.96863e-05
-1.41014e-05
3.87421e-05
-1.19938e-05
3.67166e-05
-8.48482e-06
3.35285e-05
-3.2867e-06
2.91297e-05
3.90616e-06
2.3522e-05
1.34063e-05
1.67801e-05
2.55149e-05
9.07765e-06
4.04937e-05
7.1321e-07
5.85265e-05
-7.87902e-06
7.96674e-05
-1.60667e-05
-2.27855e-05
0.000103749
-1.25621e-07
2.06958e-06
-4.76348e-07
6.10119e-06
-1.03257e-06
1.02156e-05
-1.76555e-06
1.43571e-05
-2.63588e-06
1.84585e-05
-3.59195e-06
2.24424e-05
-4.56834e-06
2.6221e-05
-5.4841e-06
2.96959e-05
-6.24083e-06
3.27582e-05
-6.72074e-06
3.52889e-05
-6.78443e-06
3.71592e-05
-6.26866e-06
3.82325e-05
-4.98395e-06
3.83661e-05
-2.71219e-06
3.74145e-05
7.95702e-07
3.52342e-05
5.82162e-06
3.16907e-05
1.26812e-05
2.66689e-05
2.17229e-05
2.0088e-05
3.33234e-05
1.19215e-05
4.78775e-05
2.22593e-06
6.57782e-05
-8.823e-06
8.73828e-05
-2.08914e-05
0.000112964
-3.34602e-05
0.000142633
-4.5736e-05
-5.63535e-05
0.000176201
-8.65845e-08
2.15616e-06
-3.14272e-07
6.32888e-06
-6.52093e-07
1.05534e-05
-1.0589e-06
1.47639e-05
-1.48171e-06
1.88813e-05
-1.8541e-06
2.28148e-05
-2.09443e-06
2.64613e-05
-2.10393e-06
2.97054e-05
-1.76463e-06
3.24189e-05
-9.37058e-07
3.44613e-05
5.42216e-07
3.56799e-05
2.86335e-06
3.59114e-05
6.24618e-06
3.49833e-05
1.09434e-05
3.27173e-05
1.72441e-05
2.89335e-05
2.54768e-05
2.34581e-05
3.60121e-05
1.61336e-05
4.92643e-05
6.8358e-06
6.56888e-05
-4.503e-06
8.57739e-05
-1.78592e-05
0.000110021
-3.30696e-05
0.000138904
-4.97751e-05
0.000172812
-6.73679e-05
0.000211937
-8.48615e-05
-0.000100502
0.000256086
-4.40021e-08
2.20016e-06
-1.3729e-07
6.42217e-06
-2.36342e-07
1.06525e-05
-2.86326e-07
1.48138e-05
-2.19363e-07
1.88143e-05
4.72316e-08
2.25482e-05
6.12834e-07
2.58957e-05
1.59559e-06
2.87227e-05
3.13468e-06
3.08798e-05
5.39291e-06
3.22031e-05
8.55943e-06
3.25134e-05
1.2853e-05
3.16178e-05
1.85253e-05
2.9311e-05
2.58652e-05
2.53773e-05
3.52031e-05
1.95956e-05
4.69157e-05
1.17456e-05
6.14305e-05
1.61877e-06
7.92306e-05
-1.09643e-05
0.000100855
-2.61277e-05
0.000126896
-4.38996e-05
0.000157977
-6.41512e-05
0.000194719
-8.65171e-05
0.000237659
-0.000110307
0.000287112
-0.000134315
-0.000156297
0.000342907
2.17742e-09
2.19798e-06
5.47301e-08
6.36962e-06
2.14896e-07
1.04923e-05
5.52417e-07
1.44763e-05
1.15139e-06
1.82154e-05
2.11216e-06
2.15874e-05
3.55331e-06
2.44546e-05
5.61392e-06
2.66621e-05
8.45601e-06
2.80378e-05
1.22673e-05
2.83918e-05
1.72643e-05
2.75164e-05
2.36957e-05
2.51864e-05
3.18466e-05
2.11601e-05
4.20427e-05
1.51812e-05
5.46564e-05
6.98195e-06
7.01123e-05
-3.71036e-06
8.88949e-05
-1.71638e-05
0.000111556
-3.36251e-05
0.00013872
-5.32917e-05
0.000171086
-7.62664e-05
0.00020942
-0.000102484
0.000254509
-0.000131606
0.000307087
-0.000162885
0.000367653
-0.000194881
-0.000224759
0.000436115
5.20476e-08
2.14594e-06
2.62133e-07
6.15953e-06
7.0229e-07
1.00521e-05
1.45836e-06
1.37203e-05
2.63195e-06
1.70418e-05
4.34244e-06
1.98769e-05
6.72913e-06
2.20679e-05
9.95361e-06
2.34376e-05
1.42024e-05
2.3789e-05
1.96898e-05
2.29043e-05
2.66613e-05
2.05449e-05
3.53972e-05
1.64505e-05
4.62169e-05
1.03405e-05
5.94839e-05
1.91417e-06
7.5612e-05
-9.14622e-06
9.5073e-05
-2.31713e-05
0.000118405
-4.04961e-05
0.000146225
-6.14452e-05
0.00017924
-8.63059e-05
0.000218255
-0.000115282
0.00026418
-0.000148409
0.000317999
-0.000185426
0.00038069
-0.000225576
0.000453016
-0.000267207
-0.000306822
0.000535079
1.05749e-07
2.04019e-06
4.8534e-07
5.77994e-06
1.22664e-06
9.31084e-06
2.43272e-06
1.25142e-05
4.22396e-06
1.52505e-05
6.74016e-06
1.73607e-05
1.01428e-05
1.86652e-05
1.46178e-05
1.89626e-05
2.03778e-05
1.8029e-05
2.76657e-05
1.56165e-05
3.67577e-05
1.14528e-05
4.79676e-05
5.24065e-06
6.16505e-05
-3.34242e-06
7.82085e-05
-1.46438e-05
9.80968e-05
-2.90346e-05
0.000121832
-4.69065e-05
0.000150002
-6.86662e-05
0.000183281
-9.4724e-05
0.000222446
-0.000125471
0.0002684
-0.000161236
0.00032219
-0.000202199
0.000385007
-0.000248242
0.000458126
-0.000298696
0.000542683
-0.000351764
-0.000403146
0.000639008
1.63379e-07
1.87681e-06
7.24636e-07
5.21868e-06
1.78841e-06
8.24707e-06
3.47608e-06
1.08265e-05
5.92799e-06
1.27986e-05
9.30577e-06
1.39829e-05
1.37947e-05
1.41762e-05
1.96066e-05
1.31508e-05
2.69824e-05
1.06532e-05
3.61956e-05
6.40327e-06
4.75557e-05
9.26897e-08
6.14119e-05
-8.61555e-06
7.81575e-05
-2.0088e-05
9.82348e-05
-3.47211e-05
0.000122141
-5.29408e-05
0.000150436
-7.52015e-05
0.000183753
-0.000101983
0.000222812
-0.000133784
0.000268447
-0.000171105
0.00032163
-0.000214419
0.000383522
-0.000264092
0.000455512
-0.000320232
0.000539214
-0.000382398
0.000636301
-0.00044885
-0.000514564
0.000747718
2.24944e-07
1.65186e-06
9.79929e-07
4.4637e-06
2.38719e-06
6.8398e-06
4.5874e-06
8.6263e-06
7.74203e-06
9.64398e-06
1.20359e-05
9.68911e-06
1.76796e-05
8.53249e-06
2.49127e-05
5.91767e-06
3.40065e-05
1.55936e-06
4.52678e-05
-4.85797e-06
5.90418e-05
-1.36813e-05
7.57166e-05
-2.52904e-05
9.57269e-05
-4.00983e-05
0.000119558
-5.85526e-05
0.000147753
-8.11355e-05
0.000180915
-0.000108364
0.00021972
-0.000140788
0.000264928
-0.000178991
0.000317405
-0.000223582
0.000378161
-0.000275176
0.000448418
-0.000334348
0.0005297
-0.000401514
0.000623949
-0.000476648
0.000733513
-0.000558414
-0.000641424
0.000860374
2.90298e-07
1.36157e-06
1.25051e-06
3.50349e-06
3.02118e-06
5.06913e-06
5.76311e-06
5.88437e-06
9.65996e-06
5.74712e-06
1.49209e-05
4.42817e-06
2.17835e-05
1.66992e-06
3.05167e-05
-2.81558e-06
4.14246e-05
-9.34849e-06
5.48494e-05
-1.82828e-05
7.11757e-05
-3.00076e-05
9.0834e-05
-4.49488e-05
0.000114305
-6.35694e-05
0.000142124
-8.63711e-05
0.000174882
-0.000113894
0.000213236
-0.000146717
0.000257907
-0.000185459
0.000309692
-0.000230777
0.000369479
-0.000283369
0.000438281
-0.000343977
0.000517301
-0.000413369
0.000608082
-0.000492295
0.000712753
-0.000581318
0.000834371
-0.000680032
-0.000783614
0.00097656
3.59089e-07
1.00248e-06
1.53488e-06
2.3277e-06
3.68677e-06
2.91724e-06
6.99642e-06
2.57472e-06
1.16705e-05
1.07307e-06
1.79435e-05
-1.84488e-06
2.60812e-05
-6.46778e-06
3.63838e-05
-1.31181e-05
4.91895e-05
-2.21542e-05
6.4879e-05
-3.39722e-05
8.3879e-05
-4.90076e-05
0.000106667
-6.77366e-05
0.000133774
-9.06771e-05
0.000165793
-0.000118389
0.000203375
-0.000151476
0.000247238
-0.000190581
0.000298167
-0.000236388
0.000357012
-0.000289622
0.000424694
-0.000351052
0.000502214
-0.000421496
0.000590696
-0.000501851
0.000691525
-0.000593123
0.000806682
-0.000696476
0.00093967
-0.000813019
-0.000940821
0.00109688
4.30755e-07
5.71722e-07
1.83072e-06
9.27738e-07
4.37853e-06
3.69419e-07
8.27716e-06
-1.3239e-06
1.37568e-05
-4.40658e-06
2.10781e-05
-9.16622e-06
3.05358e-05
-1.59254e-05
4.2462e-05
-2.50443e-05
5.72309e-05
-3.69231e-05
7.52629e-05
-5.20042e-05
9.70294e-05
-7.07741e-05
0.000123058
-9.37648e-05
0.000153936
-0.000121555
0.000190319
-0.000154772
0.00023293
-0.000194088
0.000282569
-0.000240219
0.000340108
-0.000293927
0.000406494
-0.000356008
0.000482737
-0.000427294
0.000569894
-0.000508653
0.000669058
-0.000601016
0.00078138
-0.000705446
0.000908187
-0.000823282
0.00105215
-0.000956985
-0.00111297
0.0012243
5.0455e-07
6.71725e-08
2.135e-06
-7.0271e-07
5.08942e-06
-2.585e-06
9.59225e-06
-5.82673e-06
1.58975e-05
-1.07118e-05
2.4292e-05
-1.75607e-05
3.50994e-05
-2.67329e-05
4.86844e-05
-3.86293e-05
6.54569e-05
-5.36957e-05
8.58775e-05
-7.24248e-05
0.000110462
-9.5359e-05
0.00013979
-0.000123092
0.000174507
-0.000156272
0.000215334
-0.0001956
0.000263076
-0.00024183
0.000318628
-0.000295771
0.000382983
-0.000358282
0.000457241
-0.000430266
0.000542616
-0.000512669
0.000640435
-0.000606472
0.000752138
-0.000712719
0.00087925
-0.000832558
0.00102304
-0.000967069
0.00118321
-0.00111716
-0.00129185
0.00136209
5.79624e-07
-5.12452e-07
2.44429e-06
-2.56738e-06
5.81146e-06
-5.95217e-06
1.09269e-05
-1.09422e-05
1.80681e-05
-1.7853e-05
2.75477e-05
-2.70404e-05
3.97179e-05
-3.8903e-05
5.49744e-05
-5.38858e-05
7.37617e-05
-7.2483e-05
9.65787e-05
-9.52417e-05
0.000123984
-0.000122765
0.000156604
-0.000155712
0.000195139
-0.000194807
0.000240374
-0.000240834
0.000293187
-0.000294643
0.000354567
-0.000357151
0.000425629
-0.000429344
0.000507648
-0.000512285
0.000602104
-0.000607125
0.000710781
-0.000715149
0.000835946
-0.000837884
0.000980734
-0.000977346
0.00115025
-0.00113659
0.00135555
-0.00132246
-0.00155852
0.00162222
6.55135e-07
-1.16759e-06
2.75517e-06
-4.66742e-06
6.53669e-06
-9.73368e-06
1.22663e-05
-1.66718e-05
2.02442e-05
-2.58309e-05
3.08079e-05
-3.7604e-05
4.43361e-05
-5.24313e-05
6.12539e-05
-7.08036e-05
8.20373e-05
-9.32665e-05
0.000107219
-0.000120424
0.000137395
-0.000152941
0.000173232
-0.000191549
0.000215472
-0.000237047
0.000264947
-0.00029031
0.000322589
-0.000352285
0.000389443
-0.000424005
0.00046669
-0.000506592
0.000555684
-0.000601279
0.000657997
-0.000709438
0.000775505
-0.000832658
0.000910519
-0.000972898
0.00106597
-0.00113279
0.0012457
-0.00131632
0.00145389
-0.00153065
-0.00178982
0.00168518
7.30348e-07
-1.89794e-06
3.06462e-06
-7.00169e-06
7.25797e-06
-1.3927e-05
1.35971e-05
-2.3011e-05
2.24037e-05
-3.46375e-05
3.40382e-05
-4.92385e-05
4.89041e-05
-6.72972e-05
6.74523e-05
-8.93517e-05
9.0186e-05
-0.000116
0.000117666
-0.000147904
0.000150518
-0.000185792
0.000189436
-0.000230466
0.000235191
-0.000282802
0.00028864
-0.000343759
0.000350733
-0.000414378
0.000422527
-0.000495799
0.000505197
-0.000589262
0.000600054
-0.000696136
0.00070857
-0.000817953
0.000832395
-0.000956483
0.000973356
-0.00111386
0.00113338
-0.00129282
0.00131418
-0.00149712
0.00151585
-0.00173232
-0.00200601
0.00173205
8.04709e-07
-2.70264e-06
3.37027e-06
-9.56725e-06
7.96966e-06
-1.85264e-05
1.49085e-05
-2.99498e-05
2.45285e-05
-4.42575e-05
3.7211e-05
-6.1921e-05
5.3381e-05
-8.34672e-05
7.35117e-05
-0.000109482
9.81285e-05
-0.000140617
0.000127814
-0.000177589
0.000163213
-0.000221191
0.000205036
-0.000272289
0.000254066
-0.000331833
0.000311164
-0.000400856
0.000377268
-0.000480483
0.000453405
-0.000571935
0.000540684
-0.000676541
0.000640301
-0.000795753
0.000753524
-0.000931177
0.000881664
-0.00108462
0.00102599
-0.00125818
0.00118752
-0.00145436
0.00136665
-0.00167625
0.00156212
-0.00192779
-0.00221311
0.00176922
8.77855e-07
-3.5805e-06
3.67049e-06
-1.23599e-05
8.6677e-06
-2.35236e-05
1.61927e-05
-3.74748e-05
2.66051e-05
-5.46699e-05
4.0305e-05
-7.56209e-05
5.77358e-05
-0.000100898
7.93886e-05
-0.000131135
0.000105806
-0.000167034
0.000137584
-0.000209368
0.000175379
-0.000258986
0.000219907
-0.000316818
0.000271949
-0.000383874
0.000332346
-0.000461254
0.000402007
-0.000550144
0.000481896
-0.000651823
0.000573025
-0.00076767
0.000676437
-0.000899166
0.000793173
-0.00104791
0.000924206
-0.00121565
0.00107033
-0.00140431
0.00123197
-0.00161599
0.00140883
-0.0018531
0.00159933
-0.00211829
-0.00241376
0.00179998
9.49573e-07
-4.53007e-06
3.96422e-06
-1.53745e-05
9.34931e-06
-2.89087e-05
1.74439e-05
-4.55694e-05
2.86239e-05
-6.58499e-05
4.33049e-05
-9.03018e-05
6.19455e-05
-0.000119539
8.50506e-05
-0.00015424
0.000113174
-0.000195157
0.00014692
-0.000243114
0.000186947
-0.000299013
0.000233967
-0.000363837
0.000288743
-0.000438651
0.00035209
-0.000524601
0.000424862
-0.000622916
0.000507947
-0.000734909
0.000602245
-0.000861967
0.000708637
-0.00100556
0.000827942
-0.00116722
0.000960843
-0.00134856
0.00110778
-0.00155124
0.00126877
-0.00177698
0.00144318
-0.00202752
0.00162944
-0.00230455
-0.00260904
0.00182472
1.01973e-06
-5.5498e-06
4.25071e-06
-1.86055e-05
1.00124e-05
-3.46704e-05
1.8658e-05
-5.4215e-05
3.05771e-05
-7.7769e-05
4.61982e-05
-0.000105923
6.59918e-05
-0.000139332
9.04719e-05
-0.00017872
0.000120198
-0.000224884
0.000155778
-0.000278693
0.000197863
-0.000341098
0.000247152
-0.000413126
0.000304382
-0.000495881
0.000370327
-0.000590545
0.00044578
-0.000698369
0.00053154
-0.000820669
0.000628388
-0.000958815
0.000737048
-0.00111422
0.000858135
-0.00128831
0.000992091
-0.00148251
0.00113908
-0.00169823
0.00129885
-0.00193675
0.00147058
-0.00219926
0.00165271
-0.00248668
-0.00279912
0.00184279
1.08818e-06
-6.63798e-06
4.5292e-06
-2.20465e-05
1.06549e-05
-4.07962e-05
1.98306e-05
-6.33907e-05
3.24571e-05
-9.03955e-05
4.89731e-05
-0.000122439
6.98569e-05
-0.000160216
9.56277e-05
-0.000204491
0.000126846
-0.000256102
0.000164115
-0.000315962
0.000208075
-0.000385058
0.000259401
-0.000464453
0.000318799
-0.000555279
0.000386989
-0.000658736
0.000464698
-0.000776078
0.000552629
-0.000908601
0.000651442
-0.00105763
0.000761708
-0.00122448
0.000883861
-0.00141046
0.00101813
-0.00161678
0.00116446
-0.00184456
0.0013224
-0.0020947
0.00149101
-0.00236786
0.00166871
-0.00266437
-0.00298364
0.00185323
1.15473e-06
-7.79271e-06
4.79866e-06
-2.56905e-05
1.12743e-05
-4.72717e-05
2.09566e-05
-7.3073e-05
3.42552e-05
-0.000103694
5.16156e-05
-0.000139799
7.35203e-05
-0.000182121
0.000100489
-0.00023146
0.00013308
-0.000288693
0.000171883
-0.000354765
0.000217522
-0.000430697
0.000270643
-0.000517574
0.000331909
-0.000616545
0.000401985
-0.000728811
0.000481517
-0.00085561
0.000571114
-0.000998198
0.000671312
-0.00115783
0.000782534
-0.00133571
0.000905046
-0.00153297
0.00103889
-0.00175063
0.00118382
-0.00198949
0.00133923
-0.00225011
0.00150406
-0.00253269
0.00167671
-0.00283703
-0.00316196
0.00185503
1.21901e-06
-9.01172e-06
5.05762e-06
-2.95291e-05
1.18668e-05
-5.40809e-05
2.2029e-05
-8.32352e-05
3.59596e-05
-0.000117625
5.41078e-05
-0.000157948
7.69565e-05
-0.000204969
0.000105022
-0.000259526
0.000138852
-0.000322523
0.000179022
-0.000394935
0.00022613
-0.000477805
0.000280788
-0.000572231
0.000343607
-0.000679365
0.000415189
-0.000800393
0.000496098
-0.000936519
0.00058684
-0.00108894
0.000687827
-0.00125881
0.000799339
-0.00144722
0.000921481
-0.00165511
0.00105413
-0.00188327
0.00119686
-0.00213222
0.00134893
-0.00240218
0.00150918
-0.00269294
0.00167599
-0.00300384
-0.00333325
0.00184728
1.28056e-06
-1.02923e-05
5.30403e-06
-3.35525e-05
1.24276e-05
-6.12045e-05
2.30388e-05
-9.38464e-05
3.75557e-05
-0.000132142
5.64276e-05
-0.000176819
8.01338e-05
-0.000228676
0.000109182
-0.000288575
0.000144107
-0.000357447
0.000185461
-0.000436289
0.000233811
-0.000526154
0.000289725
-0.000628145
0.000353762
-0.000743402
0.000426449
-0.000873081
0.000508265
-0.00101833
0.000599607
-0.00118028
0.000700763
-0.00135997
0.000811872
-0.00155833
0.000932884
-0.00177612
0.00106351
-0.0020139
0.0012032
-0.00227191
0.00135105
-0.00255003
0.00150583
-0.00284772
0.00166591
-0.00316392
-0.0034966
0.00182926
1.33874e-06
-1.1631e-05
5.53531e-06
-3.77491e-05
1.29509e-05
-6.86201e-05
2.3975e-05
-0.000104871
3.90256e-05
-0.000147192
5.85482e-05
-0.000196342
8.30147e-05
-0.000253142
0.00011292
-0.00031848
0.000148778
-0.000393305
0.000191114
-0.000478626
0.000240458
-0.000575498
0.000297329
-0.000685017
0.000362223
-0.000808296
0.000435591
-0.000946449
0.000517816
-0.00110056
0.000609187
-0.00127165
0.000709865
-0.00146065
0.000819851
-0.00166831
0.000938944
-0.00189522
0.00106671
-0.00214167
0.00120245
-0.00240765
0.00134517
-0.00269275
0.00149356
-0.00299611
0.00164599
-0.00331635
-0.00365111
0.0018005
1.39279e-06
-1.30238e-05
5.74838e-06
-4.21047e-05
1.34294e-05
-7.63011e-05
2.48247e-05
-0.000116266
4.03486e-05
-0.000162716
6.04393e-05
-0.000216433
8.55566e-05
-0.000278259
0.000116178
-0.000349101
0.000152792
-0.000429919
0.000195891
-0.000521725
0.00024596
-0.000625568
0.000303465
-0.000742521
0.000368832
-0.000873662
0.000442428
-0.00102005
0.000524541
-0.00118267
0.000615345
-0.00136246
0.000714876
-0.00156018
0.000822997
-0.00177643
0.000939368
-0.00201159
0.00106342
-0.00226572
0.00119432
-0.00253856
0.001331
-0.00282942
0.00147208
-0.00313719
0.00161595
-0.00346022
-0.00379593
0.00176077
1.44184e-06
-1.44656e-05
5.9398e-06
-4.66027e-05
1.38554e-05
-8.42167e-05
2.55737e-05
-0.000127984
4.15021e-05
-0.000178644
6.20677e-05
-0.000236998
8.77139e-05
-0.000303906
0.000118895
-0.000380282
0.000156071
-0.000467095
0.000199693
-0.000565348
0.000250199
-0.000676074
0.000307992
-0.000800314
0.000373424
-0.000939095
0.000446777
-0.0010934
0.000528234
-0.00126413
0.000617857
-0.00145208
0.000715556
-0.00165788
0.000821062
-0.00188194
0.000933904
-0.00212443
0.00105339
-0.0023852
0.00117858
-0.00266375
0.00130832
-0.00295916
0.00144123
-0.0032701
0.00157573
-0.00359472
-0.00393028
0.00171008
1.48497e-06
-1.59506e-05
6.10589e-06
-5.12236e-05
1.42205e-05
-9.23313e-05
2.62071e-05
-0.000139971
4.24626e-05
-0.0001949
6.33991e-05
-0.000257935
8.94392e-05
-0.000329946
0.00012101
-0.000411854
0.000158536
-0.00050462
0.000202426
-0.000609237
0.000253059
-0.000726708
0.000310775
-0.00085803
0.000375847
-0.00100417
0.000448464
-0.00116601
0.000528707
-0.00134437
0.000616524
-0.0015399
0.000711702
-0.00175305
0.000813849
-0.00198409
0.000922372
-0.00223295
0.00103647
-0.0024993
0.00115511
-0.0027824
0.0012771
-0.00308115
0.00140105
-0.00339405
0.00152543
-0.0037191
-0.00405351
0.00164866
1.52123e-06
-1.74718e-05
6.24291e-06
-5.59453e-05
1.45162e-05
-0.000100605
2.67097e-05
-0.000152164
4.32063e-05
-0.000211397
6.4399e-05
-0.000279127
9.0686e-05
-0.000356233
0.000122463
-0.00044363
0.000160112
-0.00054227
0.000203994
-0.000653119
0.000254431
-0.000777144
0.000311688
-0.000915287
0.000375958
-0.00106844
0.000447336
-0.00123739
0.0005258
-0.00142284
0.000611185
-0.00162528
0.000703163
-0.00184503
0.000801224
-0.00208215
0.000904668
-0.0023364
0.0010126
-0.00260722
0.00112393
-0.00289373
0.00123743
-0.00319465
0.00135172
-0.00350834
0.00146538
-0.00383275
-0.00416509
0.00157696
1.54967e-06
-1.90215e-05
6.34713e-06
-6.07427e-05
1.47343e-05
-0.000108992
2.70667e-05
-0.000164497
4.371e-05
-0.00022804
6.50347e-05
-0.000300452
9.14097e-05
-0.000382608
0.000123194
-0.000475415
0.000160728
-0.000579803
0.000204316
-0.000696707
0.000254216
-0.000827045
0.000310622
-0.000971693
0.00037364
-0.00113145
0.000443272
-0.00130703
0.000519392
-0.00149896
0.000601729
-0.00170762
0.000689845
-0.00193315
0.000783125
-0.00217543
0.000880776
-0.00243405
0.000981828
-0.00270828
0.00108516
-0.00299706
0.00118951
-0.00329901
0.00129358
-0.00361241
0.00139601
-0.00393519
-0.00426463
0.00149555
1.5694e-06
-2.05909e-05
6.41503e-06
-6.55884e-05
1.48668e-05
-0.000117443
2.72643e-05
-0.000176894
4.39525e-05
-0.000244728
6.52757e-05
-0.000321775
9.157e-05
-0.000408902
0.000123155
-0.000507
0.000160321
-0.000616969
0.000203317
-0.000739703
0.000252334
-0.000876062
0.000307488
-0.00102685
0.000368801
-0.00119277
0.000436182
-0.00137441
0.000509405
-0.00157218
0.000588096
-0.00178631
0.000671718
-0.00201677
0.000759566
-0.00226328
0.000850769
-0.00252525
0.000944304
-0.00280181
0.00103902
-0.00309178
0.0011337
-0.00339369
0.00122708
-0.00370578
0.00131793
-0.00402604
-0.00435185
0.00140516
1.57957e-06
-2.21705e-05
6.44336e-06
-7.04521e-05
1.49066e-05
-0.000125907
2.729e-05
-0.000189278
4.39147e-05
-0.000261353
6.50953e-05
-0.000342956
9.1132e-05
-0.000434939
0.0001223
-0.000538168
0.00015884
-0.000653508
0.000200939
-0.000781802
0.00024872
-0.000923843
0.000302222
-0.00108035
0.000361381
-0.00125193
0.000426015
-0.00143904
0.000495805
-0.00164197
0.000570281
-0.00186079
0.000648819
-0.00209531
0.000730637
-0.00234509
0.000814803
-0.00260942
0.000900263
-0.00288727
0.000985869
-0.00317739
0.00107043
-0.00347825
0.00115277
-0.00378813
0.0012318
-0.00410506
-0.00442664
0.00130659
1.57943e-06
-2.37499e-05
6.42926e-06
-7.5302e-05
1.48474e-05
-0.000134325
2.7133e-05
-0.000201563
4.35803e-05
-0.0002778
6.44712e-05
-0.000363847
9.0067e-05
-0.000460535
0.000120597
-0.000568698
0.000156246
-0.000689157
0.000197141
-0.000822697
0.000243334
-0.000970036
0.000294787
-0.0011318
0.000351353
-0.00130849
0.000412762
-0.00150045
0.000478608
-0.00170782
0.000548337
-0.00193052
0.000621248
-0.00216822
0.000696496
-0.00242034
0.000773111
-0.00268603
0.000850023
-0.00296418
0.000926107
-0.00325347
0.00100023
-0.00355237
0.00107131
-0.0038592
0.00113838
-0.00417214
-0.00448895
0.0012007
1.56836e-06
-2.53183e-05
6.37034e-06
-8.0104e-05
1.46841e-05
-0.000142639
2.67845e-05
-0.000213664
4.29364e-05
-0.000293952
6.33865e-05
-0.000384297
8.83541e-05
-0.000485502
0.00011802
-0.000598364
0.000152513
-0.000723651
0.000191898
-0.000862081
0.000236155
-0.00101429
0.000285173
-0.00118082
0.000338723
-0.00136204
0.000396454
-0.00155818
0.000457879
-0.00176924
0.000522371
-0.00199501
0.000589165
-0.00223501
0.000657371
-0.00248855
0.000725996
-0.00275466
0.000793976
-0.00303216
0.000860222
-0.00331972
0.000923676
-0.00361582
0.000983363
-0.00391889
0.00103846
-0.00422724
-0.00453887
0.00108837
1.54582e-06
-2.68641e-05
6.26471e-06
-8.48228e-05
1.44128e-05
-0.000150787
2.62382e-05
-0.000225489
4.19741e-05
-0.000309688
6.18296e-05
-0.000404152
8.59803e-05
-0.000509653
0.000114557
-0.00062694
0.000147631
-0.000756725
0.000185204
-0.000899654
0.00022719
-0.00105628
0.000273399
-0.00122703
0.000323532
-0.00141218
0.00037716
-0.00161181
0.000433726
-0.00182581
0.000492538
-0.00205382
0.000552785
-0.00229526
0.000613545
-0.00254931
0.000673819
-0.00281493
0.000732567
-0.00309091
0.000788755
-0.00337591
0.000841407
-0.00366847
0.000889666
-0.00396715
0.000932849
-0.00427042
-0.00457653
0.000970511
1.51146e-06
-2.83756e-05
6.11108e-06
-8.94225e-05
1.40308e-05
-0.000158706
2.54901e-05
-0.000236949
4.06883e-05
-0.000324886
5.97952e-05
-0.000423259
8.29412e-05
-0.000532799
0.000110206
-0.000654205
0.000141604
-0.000788124
0.000177075
-0.000935125
0.000216464
-0.00109567
0.000259515
-0.00127008
0.000305855
-0.00145852
0.00035499
-0.00166094
0.0004063
-0.00187712
0.000459045
-0.00210656
0.000512374
-0.00234859
0.000565353
-0.00260229
0.000616993
-0.00286657
0.00066629
-0.00314021
0.000712278
-0.00342189
0.000754079
-0.00371028
0.000790954
-0.00400403
0.000822356
-0.00430182
-0.00460215
0.000847979
1.46506e-06
-2.98406e-05
5.90877e-06
-9.38662e-05
1.3537e-05
-0.000166335
2.45389e-05
-0.00024795
3.90781e-05
-0.000339425
5.7284e-05
-0.000441465
7.9241e-05
-0.000554756
0.000104977
-0.000679941
0.000134451
-0.000817598
0.00016754
-0.000968214
0.000204028
-0.00113216
0.000243593
-0.00130964
0.000285797
-0.00150072
0.000330088
-0.00170523
0.000375794
-0.00192282
0.000422135
-0.0021529
0.000468239
-0.00239469
0.000513171
-0.00264722
0.000555964
-0.00290936
0.000595667
-0.00317991
0.000631391
-0.00345762
0.000662361
-0.00374125
0.000687961
-0.00402963
0.000707773
-0.00432163
-0.004616
0.000721619
1.40655e-06
-3.12472e-05
5.65772e-06
-9.81173e-05
1.29318e-05
-0.000173609
2.33858e-05
-0.000258404
3.71469e-05
-0.000353186
5.43031e-05
-0.000458621
7.48924e-05
-0.000575345
9.88919e-05
-0.00070394
0.000126206
-0.000844911
0.000156652
-0.000998661
0.000189956
-0.00116546
0.000225734
-0.00134542
0.000263494
-0.00153848
0.000302631
-0.00174437
0.000342432
-0.00196262
0.000382089
-0.00219256
0.000420722
-0.00243333
0.000457406
-0.0026839
0.000491209
-0.00294317
0.000521243
-0.00320995
0.000546704
-0.00348308
0.000566924
-0.00376147
0.000581407
-0.00404411
0.000589862
-0.00433009
-0.00461836
0.000592226
1.33603e-06
-3.25832e-05
5.35853e-06
-0.00010214
1.22168e-05
-0.000180467
2.20348e-05
-0.000268222
3.49023e-05
-0.000366054
5.08656e-05
-0.000474585
6.99167e-05
-0.000594396
9.19829e-05
-0.000726006
0.000116915
-0.000869844
0.000144478
-0.00102622
0.000174339
-0.00119532
0.000206062
-0.00137714
0.000239106
-0.00157152
0.000272822
-0.00177809
0.000306468
-0.00199627
0.000339219
-0.00222531
0.000370195
-0.0024643
0.000398492
-0.0027122
0.000423226
-0.0029679
0.000443576
-0.00323029
0.000458829
-0.00349833
0.000468426
-0.00377106
0.00047199
-0.00404767
0.000469349
-0.00432745
-0.00460956
0.000460544
1.25376e-06
-3.3837e-05
5.01242e-06
-0.000105898
1.13952e-05
-0.00018685
2.04923e-05
-0.00027732
3.23559e-05
-0.000377917
4.69905e-05
-0.000489219
6.43431e-05
-0.000611749
8.4293e-05
-0.000745956
0.000106641
-0.000892192
0.0001311
-0.00105068
0.000157287
-0.00122151
0.00018472
-0.00140458
0.000212815
-0.00159962
0.000240891
-0.00180616
0.000268183
-0.00202356
0.000293859
-0.00225099
0.000317049
-0.00248749
0.000336882
-0.00273203
0.000352524
-0.00298354
0.000363227
-0.003241
0.000368372
-0.00350348
0.000367508
-0.0037702
0.000360373
-0.00404054
0.00034691
-0.00431398
-0.00458991
0.000327257
1.16014e-06
-3.49971e-05
4.62121e-06
-0.00010936
1.04717e-05
-0.0001927
1.87675e-05
-0.000285615
2.9523e-05
-0.000388673
4.27021e-05
-0.000502398
5.8208e-05
-0.000627255
7.58741e-05
-0.000763622
9.54542e-05
-0.000911772
0.000116615
-0.00107184
0.000138928
-0.00124382
0.000161871
-0.00142752
0.000184826
-0.00162257
0.000207087
-0.00182843
0.000227875
-0.00204435
0.000246362