/*--------------------------------*- C++ -*----------------------------------*\
  =========                 |
  \\      /  F ield         | OpenFOAM: The Open Source CFD Toolbox
   \\    /   O peration     | Website:  https://openfoam.org
    \\  /    A nd           | Version:  7
     \\/     M anipulation  |
\*---------------------------------------------------------------------------*/
FoamFile
{
    version     2.0;
    format      ascii;
    class       volVectorField;
    location    "2";
    object      U;
}
// * * * * * * * * * * * * * * * * * * * * * * * * * * * * * * * * * * * * * //

dimensions      [0 1 -1 0 0 0 0];

internalField   nonuniform List<vector> 
433
(
(0.683236 -0.545699 -7.27054e-21)
(0.702369 -0.54587 2.4942e-20)
(0.674855 -0.543052 2.8639e-20)
(0.69644 -0.548133 -1.78737e-20)
(0.71688 -0.551043 8.01011e-21)
(0.736155 -0.551799 -1.65285e-20)
(0.754258 -0.550443 2.91602e-20)
(0.771198 -0.547044 -9.44703e-21)
(0.659523 -0.526151 -1.31411e-20)
(0.68398 -0.536141 1.4125e-20)
(0.707261 -0.544018 1.58924e-20)
(0.729317 -0.549742 -4.15753e-20)
(0.750113 -0.553292 3.46669e-20)
(0.769627 -0.554676 -1.06015e-20)
(0.787854 -0.553922 -6.2516e-21)
(0.804804 -0.551088 7.46351e-21)
(0.820506 -0.546257 -2.27567e-20)
(0.835004 -0.539535 -7.27571e-21)
(0.63563 -0.49569 1.53182e-21)
(0.663204 -0.510201 5.0162e-22)
(0.689639 -0.522795 -4.65158e-22)
(0.714862 -0.533382 9.46644e-22)
(0.738808 -0.541892 -7.90755e-21)
(0.761424 -0.548273 8.0807e-21)
(0.782673 -0.552494 -5.22982e-21)
(0.802532 -0.554548 -4.62149e-21)
(0.820997 -0.554454 2.09336e-20)
(0.838082 -0.552257 -4.0399e-21)
(0.853824 -0.548027 1.09032e-20)
(0.868279 -0.54186 -1.24687e-20)
(0.881532 -0.533877 -1.33698e-20)
(0.602119 -0.453358 2.65264e-20)
(0.632847 -0.471681 -3.70227e-21)
(0.662543 -0.488381 -7.60645e-21)
(0.691112 -0.50334 -1.32895e-20)
(0.718465 -0.51645 9.65532e-21)
(0.744521 -0.527614 -1.4086e-20)
(0.76921 -0.536752 7.88078e-21)
(0.792475 -0.5438 3.7157e-21)
(0.814274 -0.548718 -3.73179e-21)
(0.834585 -0.551485 -1.41137e-21)
(0.853401 -0.55211 -2.1043e-22)
(0.870741 -0.550625 -8.84954e-22)
(0.886647 -0.54709 4.19123e-21)
(0.901185 -0.541592 -5.14107e-21)
(0.914452 -0.534246 1.12774e-20)
(0.926575 -0.525194 -4.64899e-21)
(0.937717 -0.514602 1.24838e-20)
(0.524116 -0.379304 2.50587e-20)
(0.558584 -0.401634 1.14013e-20)
(0.592296 -0.42283 -2.54826e-20)
(0.625141 -0.442759 6.41807e-22)
(0.657012 -0.46129 1.03703e-20)
(0.687799 -0.478292 1.21966e-20)
(0.717401 -0.493643 -1.39046e-20)
(0.745721 -0.507227 1.4755e-20)
(0.772673 -0.518941 -2.4104e-20)
(0.798179 -0.528694 3.89502e-20)
(0.822177 -0.536415 -4.85028e-21)
(0.844622 -0.542049 -2.58237e-21)
(0.865484 -0.545568 -7.47859e-21)
(0.884759 -0.546965 1.22261e-21)
(0.902463 -0.546263 1.37141e-20)
(0.91864 -0.54351 -1.05314e-20)
(0.93336 -0.538786 3.80154e-21)
(0.946724 -0.532199 -1.93996e-21)
(0.958863 -0.523888 -1.06316e-22)
(0.969938 -0.514023 -1.03131e-20)
(0.980138 -0.502806 9.07551e-21)
(0.989675 -0.490466 1.51842e-20)
(0.468395 -0.319717 -9.82204e-21)
(0.505283 -0.343502 -1.21148e-20)
(0.541624 -0.366521 -1.51974e-20)
(0.577307 -0.388645 8.72576e-20)
(0.612216 -0.409745 6.39282e-22)
(0.646235 -0.429688 -4.95502e-20)
(0.679247 -0.448339 3.24001e-21)
(0.71114 -0.465568 2.0436e-21)
(0.741803 -0.481248 4.3771e-20)
(0.771134 -0.495257 -8.33438e-21)
(0.799036 -0.507486 -9.38831e-21)
(0.825428 -0.517835 -3.29022e-20)
(0.850238 -0.526224 -1.97856e-20)
(0.873415 -0.532588 -1.1408e-20)
(0.894926 -0.536885 2.37135e-20)
(0.914758 -0.539098 1.241e-20)
(0.932927 -0.539238 -2.73439e-22)
(0.949471 -0.537342 1.41134e-21)
(0.964459 -0.533479 -2.88828e-21)
(0.977988 -0.527749 -1.44922e-20)
(0.990183 -0.520285 -6.95147e-21)
(1.00119 -0.511251 -6.64368e-22)
(1.01118 -0.500845 4.32174e-21)
(1.02033 -0.489286 1.48173e-21)
(1.02879 -0.47681 6.2473e-21)
(1.03662 -0.463749 -9.24196e-21)
(0.404308 -0.257945 1.50189e-20)
(0.443097 -0.282151 -1.42964e-21)
(0.481566 -0.305931 1.83563e-20)
(0.519606 -0.329172 -1.05306e-20)
(0.557106 -0.351757 3.33812e-20)
(0.593948 -0.373562 -1.00084e-19)
(0.630013 -0.394459 2.0771e-20)
(0.665177 -0.414314 1.94605e-20)
(0.699321 -0.432997 -8.51151e-21)
(0.732322 -0.450373 9.12642e-20)
(0.764065 -0.466312 -5.02715e-20)
(0.794438 -0.480691 -3.50997e-20)
(0.823339 -0.493391 9.34114e-21)
(0.850676 -0.504308 -2.73358e-20)
(0.876371 -0.51335 2.6125e-20)
(0.900363 -0.520443 3.38517e-20)
(0.922611 -0.525534 -8.27352e-21)
(0.943096 -0.528594 -3.4172e-20)
(0.961824 -0.529619 2.05084e-20)
(0.978828 -0.528637 -1.6207e-20)
(0.994168 -0.525703 3.0088e-20)
(1.00793 -0.520907 -1.10795e-21)
(1.02023 -0.514368 1.5386e-20)
(1.0312 -0.506241 3.27757e-21)
(1.04099 -0.49671 1.66822e-20)
(1.04973 -0.485978 -2.23127e-20)
(1.05756 -0.474256 4.13003e-22)
(1.06449 -0.46184 2.32053e-21)
(1.07035 -0.449214 2.24175e-21)
(1.07527 -0.436061 1.39457e-21)
(0.333339 -0.197011 2.9367e-20)
(0.373425 -0.220699 -5.19708e-20)
(0.413417 -0.244254 1.60263e-20)
(0.453218 -0.267584 -5.53144e-21)
(0.492723 -0.290591 1.7084e-20)
(0.531821 -0.313169 2.04491e-20)
(0.570397 -0.335203 6.05036e-23)
(0.608329 -0.356575 -7.25349e-20)
(0.645494 -0.37716 -2.06822e-20)
(0.681765 -0.396829 -4.0971e-20)
(0.717015 -0.415449 8.34012e-20)
(0.751117 -0.432887 -4.64281e-20)
(0.783948 -0.449012 5.05354e-20)
(0.815387 -0.463696 -9.56661e-21)
(0.845325 -0.476816 -1.85016e-20)
(0.873659 -0.488261 1.86649e-20)
(0.900304 -0.49793 4.25623e-20)
(0.925187 -0.50574 -6.44157e-20)
(0.948257 -0.511626 3.7994e-20)
(0.969485 -0.515547 -4.3307e-20)
(0.988867 -0.517487 -3.68931e-20)
(1.00642 -0.517458 3.01877e-20)
(1.0222 -0.515502 6.03562e-21)
(1.03629 -0.511694 -3.08306e-20)
(1.04876 -0.506139 1.96963e-20)
(1.05976 -0.498977 -8.23359e-21)
(1.06939 -0.490373 -5.34715e-21)
(1.07778 -0.48051 9.25115e-21)
(1.08505 -0.469577 -1.37428e-21)
(1.09121 -0.45784 6.89179e-22)
(1.09612 -0.445741 1.26181e-20)
(1.09998 -0.432935 -3.00215e-22)
(0.298056 -0.161972 3.73823e-20)
(0.338916 -0.184452 -2.79386e-20)
(0.379811 -0.206965 2.92129e-20)
(0.420648 -0.229432 -7.71805e-20)
(0.46133 -0.251771 2.03686e-20)
(0.50175 -0.27389 8.11484e-21)
(0.541796 -0.295688 2.10075e-21)
(0.581351 -0.31706 5.34072e-20)
(0.620291 -0.337889 -4.02493e-20)
(0.65849 -0.358057 1.85248e-20)
(0.695816 -0.377437 8.26501e-20)
(0.732137 -0.395899 -2.4758e-21)
(0.76732 -0.413312 -3.4599e-20)
(0.801234 -0.429542 3.45306e-21)
(0.833753 -0.44446 -2.30203e-20)
(0.864755 -0.457939 4.20301e-21)
(0.894131 -0.469861 3.97997e-23)
(0.921782 -0.480119 1.1882e-20)
(0.947625 -0.48862 -9.29189e-22)
(0.971598 -0.495288 -8.24242e-20)
(0.993659 -0.50007 6.91553e-20)
(1.01379 -0.502935 3.5178e-20)
(1.032 -0.503881 -3.76034e-20)
(1.04832 -0.502935 6.12101e-20)
(1.06281 -0.500155 -3.88106e-20)
(1.07556 -0.495628 -1.02271e-20)
(1.08667 -0.489476 -5.24938e-22)
(1.09624 -0.481845 3.82483e-20)
(1.10439 -0.472897 -2.63659e-20)
(1.11122 -0.4628 4.42814e-21)
(1.11676 -0.451796 8.00353e-21)
(1.12091 -0.440298 -2.73988e-21)
(1.12388 -0.427954 -4.67871e-21)
(0.219031 -0.108344 2.58325e-20)
(0.260091 -0.129072 3.89821e-20)
(0.301392 -0.150025 2.04081e-21)
(0.342855 -0.171149 -5.70162e-20)
(0.384397 -0.192384 5.4325e-20)
(0.425927 -0.213661 1.60697e-20)
(0.467346 -0.234904 -8.776e-21)
(0.508548 -0.256028 -6.60187e-20)
(0.549422 -0.276941 6.10332e-20)
(0.589848 -0.297542 -3.28885e-20)
(0.629703 -0.317724 3.99408e-21)
(0.668855 -0.33737 3.02947e-20)
(0.707172 -0.356361 -4.11292e-20)
(0.744515 -0.374568 3.83252e-20)
(0.780747 -0.391863 1.37793e-20)
(0.81573 -0.408113 -2.12415e-20)
(0.849329 -0.423186 -9.02567e-21)
(0.881415 -0.436953 -5.87665e-21)
(0.911866 -0.449293 3.53929e-20)
(0.940572 -0.46009 5.45897e-20)
(0.96744 -0.469242 -4.4004e-20)
(0.992392 -0.476665 5.58093e-20)
(1.01537 -0.482292 -1.92204e-20)
(1.03635 -0.486078 2.74301e-20)
(1.05531 -0.488006 -4.42303e-20)
(1.07228 -0.488086 3.6281e-20)
(1.0873 -0.486358 -7.62758e-20)
(1.10044 -0.482891 3.48802e-20)
(1.11178 -0.477787 9.95886e-21)
(1.12141 -0.471171 3.68376e-21)
(1.12945 -0.463184 7.55517e-21)
(1.13599 -0.453977 -1.00954e-20)
(1.14107 -0.443772 -1.46601e-20)
(1.14462 -0.432956 -3.12442e-21)
(1.14689 -0.421186 -1.14885e-20)
(0.138506 -0.0616517 4.58853e-20)
(0.179125 -0.080132 -1.78115e-21)
(0.220161 -0.0989692 1.97867e-20)
(0.261553 -0.118131 -2.88216e-20)
(0.303232 -0.137577 4.48711e-20)
(0.345122 -0.157262 -5.16269e-20)
(0.387142 -0.177133 -3.73117e-20)
(0.429201 -0.197129 -3.57578e-20)
(0.471204 -0.217182 -3.5813e-22)
(0.513047 -0.237215 3.23368e-20)
(0.554617 -0.257144 2.76603e-20)
(0.595796 -0.276876 -3.90054e-20)
(0.636458 -0.296308 2.00956e-20)
(0.676473 -0.315333 5.72934e-21)
(0.715704 -0.333835 -6.82917e-20)
(0.754009 -0.35169 6.33472e-20)
(0.791246 -0.368772 6.78634e-20)
(0.82727 -0.38495 -7.59688e-20)
(0.861939 -0.400094 -2.39759e-20)
(0.895114 -0.414072 5.86995e-20)
(0.926664 -0.426758 -1.48916e-20)
(0.956467 -0.438032 -7.26646e-20)
(0.984415 -0.447784 5.46276e-20)
(1.01042 -0.45592 -8.50376e-20)
(1.0344 -0.462361 8.95515e-20)
(1.05632 -0.467049 -6.30513e-20)
(1.07614 -0.469951 -2.81561e-20)
(1.09388 -0.471059 5.08867e-20)
(1.10954 -0.470394 -3.50909e-22)
(1.1232 -0.468008 -3.7743e-20)
(1.13491 -0.46398 1.68917e-20)
(1.14475 -0.458415 -3.40155e-20)
(1.15283 -0.451436 1.65368e-20)
(1.15924 -0.443174 -5.22156e-21)
(1.16403 -0.433835 4.41626e-20)
(1.16717 -0.423783 -2.8352e-20)
(1.1689 -0.412694 1.03073e-21)
(0.058627 -0.0231633 -5.3438e-20)
(0.0982203 -0.0390712 1.9331e-21)
(0.138372 -0.0554229 7.88291e-20)
(0.179038 -0.072193 -6.22131e-20)
(0.220166 -0.0893597 3.00466e-20)
(0.261696 -0.106898 -3.12727e-20)
(0.303565 -0.124775 -3.3522e-20)
(0.345698 -0.142954 6.27868e-20)
(0.388019 -0.161389 6.21346e-21)
(0.430439 -0.180028 6.88978e-21)
(0.472866 -0.19881 -4.30146e-20)
(0.515198 -0.217668 9.98293e-20)
(0.557324 -0.236524 -7.95191e-20)
(0.599126 -0.255294 1.12988e-20)
(0.640481 -0.273883 -2.40268e-20)
(0.681256 -0.29219 1.1065e-19)
(0.721312 -0.310105 -6.29036e-20)
(0.760506 -0.32751 -3.35322e-20)
(0.79869 -0.344283 4.13855e-20)
(0.835714 -0.360296 -2.48925e-20)
(0.87143 -0.37542 -8.94578e-21)
(0.90569 -0.389522 1.94259e-21)
(0.938351 -0.402475 -9.58703e-21)
(0.969281 -0.414153 6.98807e-20)
(0.998358 -0.424442 -7.92771e-20)
(1.02547 -0.433236 1.37152e-19)
(1.05054 -0.440446 -1.63232e-19)
(1.0735 -0.446002 2.36381e-20)
(1.09429 -0.449854 -5.16075e-20)
(1.11291 -0.451978 7.77367e-20)
(1.12936 -0.452376 -9.0039e-20)
(1.14367 -0.45108 1.00526e-19)
(1.1559 -0.448147 -3.81491e-20)
(1.16611 -0.443664 7.45322e-21)
(1.1744 -0.437732 1.90305e-20)
(1.18085 -0.430466 -9.63337e-21)
(1.18553 -0.422053 -2.96302e-20)
(1.18843 -0.412837 -2.3145e-20)
(1.18977 -0.402531 -2.27127e-21)
(0.0194763 -0.00679462 9.17204e-21)
(0.0582044 -0.0204302 3.73992e-20)
(0.0975635 -0.0345484 7.72257e-21)
(0.137519 -0.0491336 2.34198e-20)
(0.178032 -0.0641651 -4.9649e-20)
(0.219053 -0.0796277 -4.49888e-20)
(0.260528 -0.0955033 -2.09531e-20)
(0.302394 -0.111768 1.17711e-19)
(0.344585 -0.12839 -1.15669e-19)
(0.387026 -0.145333 8.03563e-20)
(0.429634 -0.162553 -6.45881e-21)
(0.472319 -0.179997 1.27283e-20)
(0.514981 -0.197606 6.98061e-21)
(0.557515 -0.215311 -8.50221e-20)
(0.599804 -0.233036 5.91668e-20)
(0.641725 -0.250695 -2.85926e-20)
(0.683145 -0.268192 -7.46742e-20)
(0.723926 -0.285426 8.40146e-20)
(0.763923 -0.302285 -2.03229e-20)
(0.802984 -0.318653 -3.28164e-20)
(0.840956 -0.334404 5.40571e-20)
(0.877683 -0.349413 -8.493e-20)
(0.913009 -0.363547 8.48972e-21)
(0.946783 -0.376679 3.08877e-20)
(0.978859 -0.38868 1.38069e-20)
(1.0091 -0.399428 -8.37957e-20)
(1.03739 -0.408813 6.13159e-20)
(1.06361 -0.416735 3.8828e-20)
(1.08769 -0.423109 7.97194e-20)
(1.10957 -0.427874 -1.43354e-19)
(1.12919 -0.430988 5.52011e-20)
(1.14655 -0.432435 1.12711e-20)
(1.16167 -0.432226 -1.38385e-20)
(1.17458 -0.430398 1.37017e-21)
(1.18533 -0.427016 -3.83299e-20)
(1.19401 -0.422163 3.36153e-20)
(1.20069 -0.415933 5.56216e-22)
(1.20544 -0.408489 2.80021e-20)
(1.20826 -0.400155 -1.1124e-20)
(1.20933 -0.390741 2.28143e-20)
(0.216846 -0.069886 7.83476e-21)
(0.25807 -0.084079 -2.636e-20)
(0.299744 -0.0987031 6.51958e-20)
(0.341805 -0.113735 -4.06048e-20)
(0.384184 -0.129146 3.40039e-20)
(0.426803 -0.1449 -3.04581e-20)
(0.469575 -0.160952 -2.47456e-20)
(0.512405 -0.177252 4.62413e-20)
(0.555192 -0.193739 -7.36453e-20)
(0.597822 -0.210346 1.10543e-19)
(0.640173 -0.226994 -1.29288e-19)
(0.682115 -0.243597 2.29582e-20)
(0.723511 -0.260061 6.40357e-20)
(0.764212 -0.276281 -3.17331e-20)
(0.804068 -0.292146 6.45641e-20)
(0.842921 -0.307538 -1.2466e-20)
(0.880609 -0.322334 -5.52352e-20)
(0.916969 -0.336404 5.75413e-20)
(0.951842 -0.349619 -1.73014e-20)
(0.98507 -0.361851 1.78705e-20)
(1.0165 -0.372974 4.32582e-22)
(1.04601 -0.38287 4.0601e-20)
(1.07346 -0.391431 -2.54892e-20)
(1.09875 -0.398564 -2.03948e-20)
(1.1218 -0.40419 2.90564e-20)
(1.14255 -0.408254 1.27872e-21)
(1.16096 -0.410721 3.57418e-20)
(1.17704 -0.411583 -5.56553e-20)
(1.19079 -0.410857 7.40238e-20)
(1.20226 -0.408587 -5.77097e-20)
(1.21151 -0.404835 1.5444e-20)
(1.21863 -0.399673 1.29003e-20)
(1.22368 -0.393224 3.19408e-20)
(1.2267 -0.3858 -6.25606e-20)
(1.22776 -0.377482 -1.07496e-21)
(0.678175 -0.218665 -6.17514e-20)
(0.720062 -0.234275 1.02849e-19)
(0.761359 -0.249767 -7.11838e-20)
(0.801914 -0.265036 -4.90648e-20)
(0.841566 -0.279972 2.78373e-20)
(0.880151 -0.294454 3.10275e-20)
(0.9175 -0.308358 -4.79785e-21)
(0.953444 -0.321556 3.82621e-20)
(0.987815 -0.33392 -8.68859e-21)
(1.02045 -0.345322 -5.09338e-20)
(1.0512 -0.35564 4.42767e-20)
(1.07993 -0.364758 -3.66243e-20)
(1.1065 -0.372573 5.36302e-21)
(1.13083 -0.378996 2.03387e-22)
(1.15281 -0.383956 6.63788e-21)
(1.17241 -0.387402 -4.45915e-20)
(1.1896 -0.389308 -1.07102e-21)
(1.20436 -0.389673 -1.93291e-20)
(1.21672 -0.38852 -1.99659e-20)
(1.22673 -0.385895 1.02766e-20)
(1.23446 -0.38186 3.66049e-20)
(1.23999 -0.376538 -4.71045e-20)
(1.24336 -0.370202 3.45656e-20)
(1.24468 -0.362732 3.16082e-20)
(1.02086 -0.316731 6.05842e-20)
(1.05288 -0.327371 -1.98143e-20)
(1.08292 -0.336951 -1.64693e-21)
(1.11084 -0.34536 2.59732e-20)
(1.13652 -0.3525 2.71525e-20)
(1.15985 -0.358287 6.29798e-21)
(1.18075 -0.362654 -3.24576e-20)
(1.19918 -0.36556 -1.18513e-20)
(1.21511 -0.366983 -2.20566e-21)
(1.22853 -0.366929 3.79602e-20)
(1.23948 -0.365424 9.32045e-21)
(1.24801 -0.362515 -1.25733e-20)
(1.25417 -0.358309 4.76143e-21)
(1.25802 -0.35303 1.18274e-20)
(1.25965 -0.346503 1.0975e-21)
(1.24961 -0.343548 1.6018e-20)
(1.25913 -0.341754 8.17247e-21)
(1.26614 -0.338657 -1.30878e-20)
(1.27068 -0.334442 2.70271e-20)
(1.27285 -0.328958 -6.40991e-20)
(1.09624 -0.375832 8.96374e-23)
(1.11624 -0.372649 1.0949e-21)
(1.13581 -0.368332 -7.80274e-21)
(1.1549 -0.36288 -1.96031e-21)
(1.08453 -0.409959 -2.58626e-22)
(1.10721 -0.407234 -2.44311e-21)
(1.12934 -0.402926 2.05004e-21)
(1.15083 -0.397077 1.11755e-21)
(1.17156 -0.389728 8.96522e-22)
(1.19142 -0.380928 -1.30128e-20)
(1.21029 -0.370751 -4.16223e-21)
(1.22788 -0.359307 -9.14662e-21)
)
;

boundaryField
{
    inlet
    {
        type            uniformFixedValue;
        uniformValue    constant (1 0 0);
        value           nonuniform 0();
    }
    outlet
    {
        type            pressureInletOutletVelocity;
        value           nonuniform 0();
    }
    cylinder
    {
        type            fixedValue;
        value           uniform (0 0 0);
    }
    top
    {
        type            symmetryPlane;
    }
    bottom
    {
        type            symmetryPlane;
    }
    defaultFaces
    {
        type            empty;
    }
    procBoundary7to1
    {
        type            processor;
        value           nonuniform List<vector> 
13
(
(1.24433 -0.346177 5.75155e-21)
(1.25951 -0.331836 2.13906e-20)
(1.27316 -0.316333 -4.81432e-22)
(1.10488 -0.347141 -2.09448e-21)
(1.12235 -0.343454 9.96712e-22)
(1.13948 -0.338907 -3.15792e-21)
(1.15625 -0.333506 -1.61493e-20)
(1.17343 -0.356304 3.91356e-21)
(1.17343 -0.356304 3.91356e-21)
(1.19133 -0.348614 1.93319e-20)
(1.2085 -0.339823 7.76838e-21)
(1.22482 -0.329958 -1.10698e-20)
(1.24433 -0.346177 5.75155e-21)
)
;
    }
    procBoundary7to6
    {
        type            processor;
        value           nonuniform List<vector> 
24
(
(0.649432 -0.537254 1.58828e-21)
(0.668503 -0.536886 2.77808e-20)
(0.720453 -0.543964 4.3798e-20)
(0.720453 -0.543964 4.3798e-20)
(0.737494 -0.540058 -5.5093e-20)
(0.786995 -0.541697 -2.66232e-20)
(0.786995 -0.541697 -2.66232e-20)
(0.801686 -0.53452 -9.43852e-21)
(0.848362 -0.531052 4.65673e-21)
(0.848362 -0.531052 4.65673e-21)
(0.893692 -0.524219 1.01127e-20)
(0.893692 -0.524219 1.01127e-20)
(0.904903 -0.513047 -2.52598e-20)
(0.948078 -0.502667 -9.39181e-21)
(0.948078 -0.502667 -9.39181e-21)
(0.957907 -0.489613 2.60614e-20)
(0.998768 -0.477258 6.11986e-21)
(0.998768 -0.477258 6.11986e-21)
(1.00753 -0.463551 -4.54108e-21)
(1.04359 -0.450647 -1.36746e-20)
(1.04359 -0.450647 -1.36746e-20)
(1.04981 -0.437259 1.35406e-21)
(1.07589 -0.377891 -2.73197e-21)
(1.06141 -0.411069 3.24174e-21)
)
;
    }
    procBoundary7to8
    {
        type            processor;
        value           nonuniform List<vector> 
24
(
(0.75538 -0.223011 7.21179e-21)
(0.796526 -0.237596 3.652e-20)
(0.836885 -0.25198 -3.02136e-21)
(0.876288 -0.266049 -3.09358e-20)
(0.914564 -0.279684 5.51038e-20)
(0.951536 -0.292762 -4.19328e-20)
(0.987027 -0.305153 5.75997e-21)
(0.987027 -0.305153 5.75997e-21)
(1.01768 -0.287466 -1.8303e-20)
(1.05097 -0.298318 2.14697e-21)
(1.08234 -0.308256 -5.86807e-20)
(1.11165 -0.31716 1.75013e-20)
(1.13875 -0.324925 2.39521e-20)
(1.16352 -0.331454 7.58672e-21)
(1.18584 -0.33667 8.3668e-21)
(1.20565 -0.340513 2.5929e-20)
(1.22289 -0.342946 -5.09317e-20)
(1.23754 -0.343955 8.46243e-20)
(1.23754 -0.343955 8.46243e-20)
(1.25698 -0.320412 1.01977e-20)
(1.26768 -0.319711 -2.73059e-20)
(1.27574 -0.317714 1.8431e-20)
(1.2812 -0.314571 -6.28132e-21)
(1.2841 -0.310166 2.13421e-20)
)
;
    }
    procBoundary7to13
    {
        type            processor;
        value           nonuniform List<vector> 
38
(
(0.641867 -0.538942 -2.17474e-20)
(0.663062 -0.543399 5.25271e-20)
(0.663062 -0.543399 5.25271e-20)
(0.628398 -0.526431 1.08023e-20)
(0.65216 -0.535807 -4.98258e-21)
(0.65216 -0.535807 -4.98258e-21)
(0.607327 -0.500099 -1.41212e-20)
(0.633949 -0.514111 9.46535e-21)
(0.633949 -0.514111 9.46535e-21)
(0.577406 -0.461332 8.48227e-21)
(0.607001 -0.479363 -3.94313e-21)
(0.607001 -0.479363 -3.94313e-21)
(0.504766 -0.389936 -2.94047e-20)
(0.537975 -0.412355 2.57303e-20)
(0.570461 -0.43354 1.14727e-20)
(0.570461 -0.43354 1.14727e-20)
(0.453352 -0.331771 -2.48655e-20)
(0.489003 -0.355973 1.3386e-20)
(0.489003 -0.355973 1.3386e-20)
(0.393416 -0.270332 -5.16512e-21)
(0.431071 -0.295288 6.89043e-21)
(0.431071 -0.295288 6.89043e-21)
(0.32618 -0.208669 -1.21615e-20)
(0.365304 -0.233418 1.10755e-20)
(0.365304 -0.233418 1.10755e-20)
(0.293254 -0.173273 -3.22472e-21)
(0.293254 -0.173273 -3.22472e-21)
(0.216779 -0.117374 -2.51258e-20)
(0.257318 -0.139592 2.54025e-20)
(0.257318 -0.139592 2.54025e-20)
(0.137913 -0.0677466 -1.26141e-20)
(0.178284 -0.0878893 3.85994e-20)
(0.178284 -0.0878893 3.85994e-20)
(0.0587384 -0.0258775 -1.81832e-20)
(0.0983616 -0.0435568 2.30947e-20)
(0.0983616 -0.0435568 2.30947e-20)
(0.0196304 -0.00771927 -7.95083e-21)
(0.0196304 -0.00771927 -7.95083e-21)
)
;
    }
    procBoundary7to14
    {
        type            processor;
        value           nonuniform List<vector> 
20
(
(0.0192204 -0.00587549 -2.73214e-21)
(0.0574797 -0.0177098 1.66465e-20)
(0.0964053 -0.0300407 -3.17037e-20)
(0.135966 -0.0428566 -2.0661e-20)
(0.176128 -0.0561415 1.78823e-20)
(0.176128 -0.0561415 1.78823e-20)
(0.213573 -0.0602379 1.52188e-20)
(0.254358 -0.0727461 3.40366e-20)
(0.295652 -0.0857213 -6.51204e-21)
(0.3374 -0.0991474 -1.05915e-21)
(0.379535 -0.113002 -1.83464e-20)
(0.421987 -0.127258 4.74328e-20)
(0.464674 -0.141879 -9.74503e-20)
(0.507506 -0.156823 7.98818e-20)
(0.550386 -0.172038 1.14058e-20)
(0.593204 -0.187463 -8.05694e-20)
(0.635844 -0.203032 4.87927e-20)
(0.635844 -0.203032 4.87927e-20)
(0.671358 -0.193648 -1.95406e-20)
(0.713607 -0.20833 -1.08318e-20)
)
;
    }
}


// ************************************************************************* //
