/*--------------------------------*- C++ -*----------------------------------*\
  =========                 |
  \\      /  F ield         | OpenFOAM: The Open Source CFD Toolbox
   \\    /   O peration     | Website:  https://openfoam.org
    \\  /    A nd           | Version:  7
     \\/     M anipulation  |
\*---------------------------------------------------------------------------*/
FoamFile
{
    version     2.0;
    format      ascii;
    class       surfaceScalarField;
    location    "1";
    object      phi;
}
// * * * * * * * * * * * * * * * * * * * * * * * * * * * * * * * * * * * * * //

dimensions      [0 3 -1 0 0 0 0];

internalField   nonuniform List<scalar> 
613
(
3.11001e-05
-7.06282e-07
3.17417e-05
-6.41577e-07
3.23143e-05
-5.72564e-07
3.28167e-05
-5.02415e-07
-4.33648e-07
3.32503e-05
9.33626e-05
9.52915e-05
-2.57044e-06
9.70094e-05
-2.29044e-06
9.85137e-05
-2.0067e-06
-1.72927e-06
9.98093e-05
0.000159051
-5.80259e-06
0.000161917
-5.15631e-06
0.000164415
-4.50468e-06
-3.87038e-06
0.000166556
0.00022315
-1.0362e-05
0.000227165
-9.17096e-06
0.000230639
-7.97865e-06
-6.82534e-06
0.000233594
0.000287694
0.000292849
0.000297265
0.00030098
3.36133e-05
-3.62997e-07
3.39172e-05
-3.03902e-07
3.41672e-05
-2.49968e-07
3.43687e-05
-2.01555e-07
3.45274e-05
-1.58693e-07
3.46486e-05
-1.21156e-07
3.47371e-05
-8.85515e-08
3.47975e-05
-6.03987e-08
3.48337e-05
-3.61915e-08
3.48492e-05
-1.54399e-08
3.48469e-05
2.32272e-09
3.48293e-05
1.75349e-08
3.47988e-05
3.05361e-08
3.47571e-05
4.16524e-08
3.4706e-05
5.11627e-08
3.46467e-05
5.92993e-08
3.45804e-05
6.62518e-08
3.45082e-05
7.21737e-08
3.44311e-05
7.7186e-08
3.43497e-05
8.13817e-08
3.42648e-05
8.48287e-08
3.41773e-05
8.75736e-08
3.40876e-05
8.96448e-08
3.39966e-05
9.10563e-08
3.39048e-05
9.18103e-08
3.38129e-05
9.19014e-08
3.37215e-05
9.13192e-08
3.36315e-05
9.00526e-08
3.35434e-05
8.80925e-08
3.3458e-05
8.54357e-08
3.33759e-05
8.20882e-08
3.32978e-05
7.80679e-08
3.32244e-05
7.34076e-08
3.31562e-05
6.81576e-08
3.30939e-05
6.23872e-08
3.30377e-05
5.61867e-08
3.2988e-05
4.96674e-08
3.2945e-05
4.29624e-08
3.29088e-05
3.62256e-08
3.28792e-05
2.96305e-08
3.28558e-05
2.33684e-08
3.28382e-05
1.76454e-08
3.28255e-05
1.26793e-08
3.28168e-05
8.69601e-09
3.28109e-05
5.92521e-09
3.28063e-05
4.59605e-09
3.28013e-05
4.9319e-09
3.27942e-05
7.14516e-09
3.27828e-05
1.14329e-08
3.27648e-05
1.79722e-08
3.27379e-05
2.6915e-08
3.26995e-05
3.83837e-08
3.2647e-05
5.24667e-08
3.25778e-05
6.92151e-08
3.24892e-05
8.86386e-08
3.23785e-05
1.10703e-07
3.22431e-05
1.35327e-07
3.20808e-05
1.62381e-07
3.18891e-05
1.91687e-07
3.16661e-05
2.23017e-07
3.141e-05
2.56092e-07
3.11194e-05
2.90589e-07
3.07932e-05
3.26139e-07
3.04309e-05
3.62336e-07
3.98736e-07
0.000100891
-1.44517e-06
0.000101795
-1.20783e-06
0.000102537
-9.91669e-07
0.000103134
-7.9803e-07
0.000103602
-6.26915e-07
0.000103958
-4.77295e-07
0.000104217
-3.4749e-07
0.000104392
-2.35512e-07
0.000104495
-1.39292e-07
0.000104536
-5.68524e-08
0.000104525
1.3694e-08
0.000104468
7.41618e-08
0.000104373
1.25816e-07
0.000104245
1.7001e-07
0.000104088
2.07855e-07
0.000103907
2.40269e-07
0.000103705
2.68005e-07
0.000103486
2.91669e-07
0.000103251
3.11741e-07
0.000103004
3.28588e-07
0.000102747
3.42475e-07
0.000102481
3.53582e-07
0.000102208
3.6202e-07
0.000101931
3.67837e-07
0.000101652
3.71037e-07
0.000101372
3.71592e-07
0.000101094
3.69457e-07
0.00010082
3.64581e-07
0.000100551
3.56922e-07
0.00010029
3.46463e-07
0.000100039
3.33222e-07
9.97996e-05
3.17267e-07
9.95743e-05
2.98727e-07
9.93646e-05
2.77798e-07
9.91723e-05
2.54757e-07
9.89985e-05
2.29962e-07
9.88443e-05
2.03859e-07
9.87103e-05
1.7698e-07
9.85966e-05
1.49943e-07
9.85028e-05
1.23443e-07
9.84279e-05
9.8248e-08
9.83703e-05
7.51869e-08
9.83279e-05
5.51352e-08
9.82976e-05
3.90011e-08
9.82758e-05
2.77082e-08
9.82582e-05
2.21778e-08
9.82398e-05
2.33086e-08
9.8215e-05
3.19567e-08
9.81775e-05
4.89159e-08
9.81206e-05
7.48992e-08
9.8037e-05
1.10519e-07
9.79191e-05
1.56269e-07
9.77591e-05
2.12508e-07
9.75488e-05
2.79443e-07
9.72804e-05
3.57115e-07
9.69457e-05
4.4539e-07
9.65371e-05
5.43945e-07
9.60472e-05
6.52261e-07
9.54693e-05
7.69623e-07
9.47972e-05
8.95112e-07
9.40256e-05
1.02761e-06
9.31504e-05
1.16583e-06
9.21683e-05
1.30826e-06
9.10773e-05
1.45328e-06
1.5991e-06
0.000168336
-3.22453e-06
0.000169814
-2.68623e-06
0.00017102
-2.19783e-06
0.000171984
-1.76194e-06
0.000172735
-1.37807e-06
0.000173301
-1.0434e-06
0.000173708
-7.53736e-07
0.000173976
-5.04294e-07
0.000174127
-2.90238e-07
0.000174178
-1.07021e-07
0.000174142
4.98068e-08
0.000174031
1.84215e-07
0.000173858
2.99072e-07
0.000173631
3.97457e-07
0.000173357
4.81848e-07
0.000173043
5.5428e-07
0.000172694
6.16419e-07
0.000172316
6.69608e-07
0.000171913
7.14902e-07
0.000171489
7.531e-07
0.000171046
7.84778e-07
0.00017059
8.10319e-07
0.000170122
8.29945e-07
0.000169646
8.43745e-07
0.000169165
8.51706e-07
0.000168683
8.53743e-07
0.000168203
8.49728e-07
0.000167728
8.39527e-07
0.000167262
8.23025e-07
0.000166808
8.00162e-07
0.00016637
7.7096e-07
0.000165952
7.35557e-07
0.000165556
6.94224e-07
0.000165187
6.47394e-07
0.000164846
5.9568e-07
0.000164536
5.39883e-07
0.000164259
4.81003e-07
0.000164016
4.20241e-07
0.000163807
3.58989e-07
0.000163631
2.98823e-07
0.000163488
2.41481e-07
0.000163374
1.88842e-07
0.000163287
1.42893e-07
0.00016322
1.05696e-07
0.000163168
7.93491e-08
0.000163124
6.59456e-08
0.00016308
6.75297e-08
0.000163026
8.60498e-08
0.000162952
1.23314e-07
0.000162846
1.80947e-07
0.000162696
2.60347e-07
0.000162489
3.62645e-07
0.000162213
4.88664e-07
0.000161854
6.38886e-07
0.000161398
8.1342e-07
0.000160831
1.01197e-06
0.000160141
1.23382e-06
0.000159316
1.4778e-06
0.000158343
1.74231e-06
0.000157213
2.02525e-06
0.000155916
2.32411e-06
0.000154446
2.63592e-06
0.000152797
2.9573e-06
0.000150966
3.28451e-06
3.61345e-06
0.00023603
-5.66047e-06
0.000238036
-4.69281e-06
0.000239658
-3.81964e-06
0.000240941
-3.04451e-06
0.000241928
-2.36522e-06
0.00024266
-1.77541e-06
0.000243173
-1.26654e-06
0.000243498
-8.29363e-07
0.000243662
-4.54871e-07
0.00024369
-1.347e-07
0.0002436
1.39699e-07
0.00024341
3.74618e-07
0.000243133
5.75668e-07
0.000242782
7.48225e-07
0.000242368
8.96617e-07
0.000241898
1.02439e-06
0.00024138
1.13443e-06
0.00024082
1.22907e-06
0.000240225
1.31012e-06
0.000239599
1.37893e-06
0.000238947
1.43646e-06
0.000238274
1.48335e-06
0.000237584
1.51992e-06
0.000236882
1.54628e-06
0.000236171
1.56235e-06
0.000235457
1.56792e-06
0.000234744
1.56272e-06
0.000234037
1.54645e-06
0.000233341
1.51886e-06
0.000232662
1.47978e-06
0.000232003
1.42922e-06
0.000231372
1.36737e-06
0.000230771
1.29469e-06
0.000230207
1.21192e-06
0.000229682
1.12011e-06
0.000229201
1.0207e-06
0.000228767
9.15443e-07
0.000228381
8.06483e-07
0.000228043
6.96308e-07
0.000227754
5.87741e-07
0.000227512
4.83899e-07
0.000227313
3.88157e-07
0.000227151
3.04088e-07
0.000227022
2.35403e-07
0.000226915
1.85882e-07
0.000226822
1.59296e-07
0.00022673
1.59334e-07
0.000226627
1.89514e-07
0.000226497
2.53107e-07
0.000226325
3.53057e-07
0.000226093
4.91901e-07
0.000225784
6.71701e-07
0.000225379
8.93971e-07
0.000224858
1.15961e-06
0.000224203
1.46885e-06
0.000223393
1.8212e-06
0.000222412
2.21541e-06
0.00022124
2.64941e-06
0.000219862
3.12032e-06
0.000218263
3.62443e-06
0.00021643
4.1572e-06
0.000214353
4.71327e-06
0.000212023
0.000209438
0.000304007
0.000306468
0.000308429
0.000309955
0.000311106
0.000311935
0.000312491
0.000312814
0.000312937
0.000312891
0.000312699
0.000312381
0.000311957
0.000311439
0.000310841
0.000310172
0.000309441
0.000308657
0.000307826
0.000306954
0.000306047
0.000305111
0.000304151
0.000303173
0.000302182
0.000301184
0.000300186
0.000299194
0.000298214
0.000297253
0.000296319
0.000295418
0.000294557
0.000293742
0.000292979
0.000292273
0.000291628
0.000291047
0.000290531
0.000290079
0.000289691
0.000289362
0.000289086
0.000288854
0.000288657
0.00028848
0.000288311
0.00028813
0.000287921
0.000287661
0.000287329
0.000286901
0.000286353
0.000285659
0.000284794
0.000283734
0.000282453
0.000280928
0.000279139
0.000277064
0.000274688
)
;

boundaryField
{
    inlet
    {
        type            calculated;
        value           nonuniform 0();
    }
    outlet
    {
        type            calculated;
        value           nonuniform 0();
    }
    wall
    {
        type            calculated;
        value           nonuniform 0();
    }
    wedge1
    {
        type            wedge;
        value           nonuniform List<scalar> 
344
(
1.90635e-16
1.5956e-16
1.74962e-16
1.46553e-16
1.48837e-15
-2.22711e-16
-4.26293e-16
1.57708e-16
1.32105e-16
1.33487e-15
-2.00069e-16
-3.80361e-16
1.39774e-16
1.17118e-16
1.17674e-15
-1.76796e-16
-3.33664e-16
1.21898e-16
1.02143e-16
1.02033e-15
-1.53829e-16
-2.88034e-16
1.03102e-16
8.63708e-17
8.57868e-16
-1.29953e-16
-2.41249e-16
8.7325e-17
7.31013e-17
7.21566e-16
-1.09994e-16
-2.02286e-16
7.27063e-17
6.08874e-17
5.96863e-16
-9.17533e-17
-1.66972e-16
5.94981e-17
4.98564e-17
4.8457e-16
-7.53597e-17
-1.35495e-16
4.77082e-17
3.9954e-17
3.85009e-16
-6.07964e-17
-1.07762e-16
3.73876e-17
3.12274e-17
2.97638e-16
-4.80235e-17
-8.35985e-17
2.82145e-17
2.35897e-17
2.21746e-16
-3.6884e-17
-6.26887e-17
2.02793e-17
1.70152e-17
1.56107e-16
-2.72414e-17
-4.46834e-17
1.34551e-17
1.12683e-17
9.97073e-17
-1.88836e-17
-2.91608e-17
7.64975e-18
6.28732e-18
5.12664e-17
-1.17064e-17
-1.58435e-17
2.56964e-18
2.03261e-18
9.85699e-18
-5.49981e-18
-4.41018e-18
-1.84389e-18
-1.56598e-18
-2.40873e-17
-1.75959e-19
5.28329e-18
-5.53216e-18
-4.68322e-18
-5.29018e-17
4.39699e-18
1.36252e-17
-8.62544e-18
-7.41492e-18
-7.79371e-17
8.34317e-18
2.08668e-17
-1.13654e-17
-9.7261e-18
-9.95859e-17
1.17793e-17
2.71485e-17
-1.3823e-17
-1.16643e-17
-1.18386e-16
1.47388e-17
3.25996e-17
-1.58135e-17
-1.33413e-17
-1.34642e-16
1.7334e-17
3.73744e-17
-1.74411e-17
-1.48666e-17
-1.48729e-16
1.95801e-17
4.15585e-17
-1.88603e-17
-1.6099e-17
-1.60852e-16
2.15305e-17
4.51777e-17
-2.02567e-17
-1.71411e-17
-1.71214e-16
2.3213e-17
4.83246e-17
-2.12319e-17
-1.80032e-17
-1.80048e-16
2.4643e-17
5.10188e-17
-2.2053e-17
-1.8722e-17
-1.87387e-16
2.58734e-17
5.3321e-17
-2.26955e-17
-1.9361e-17
-1.93334e-16
2.68762e-17
5.52641e-17
-2.31476e-17
-1.97942e-17
-1.97977e-16
2.76862e-17
5.68118e-17
-2.3563e-17
-2.00634e-17
-2.01333e-16
2.82831e-17
5.7976e-17
-2.36776e-17
-2.01954e-17
-2.03382e-16
2.86816e-17
5.87551e-17
-2.36074e-17
-2.02444e-17
-2.03741e-16
2.88445e-17
5.91162e-17
-2.33761e-17
-2.00956e-17
-2.02446e-16
2.8781e-17
5.89996e-17
-2.30474e-17
-1.97764e-17
-1.99472e-16
2.84775e-17
5.84174e-17
-2.24426e-17
-1.9305e-17
-1.94865e-16
2.79435e-17
5.73741e-17
-2.16624e-17
-1.87168e-17
-1.88623e-16
2.71645e-17
5.58707e-17
-2.07079e-17
-1.79472e-17
-1.80785e-16
2.61519e-17
5.38916e-17
-1.96238e-17
-1.7028e-17
-1.71417e-16
2.49079e-17
5.14604e-17
-1.83378e-17
-1.5972e-17
-1.60624e-16
2.34492e-17
4.86041e-17
-1.69078e-17
-1.48045e-17
-1.48545e-16
2.17913e-17
4.53588e-17
-1.53529e-17
-1.3515e-17
-1.3537e-16
1.99607e-17
4.17676e-17
-1.37164e-17
-1.21404e-17
-1.21331e-16
1.79878e-17
3.78966e-17
-1.19974e-17
-1.07037e-17
-1.06718e-16
1.59117e-17
3.38222e-17
-1.02586e-17
-9.23802e-18
-9.18541e-17
1.37796e-17
2.96334e-17
-8.52877e-18
-7.77476e-18
-7.7119e-17
1.16408e-17
2.54325e-17
-6.85561e-18
-6.3584e-18
-6.29159e-17
9.55568e-18
2.13338e-17
-5.29812e-18
-5.02415e-18
-4.96863e-17
7.58227e-18
1.74541e-17
-3.9168e-18
-3.8087e-18
-3.78748e-17
5.78871e-18
1.39169e-17
-2.75618e-18
-2.77613e-18
-2.79159e-17
4.23856e-18
1.08536e-17
-1.84963e-18
-1.96297e-18
-2.01663e-17
3.00027e-18
8.38103e-18
-1.31206e-18
-1.42772e-18
-1.49008e-17
2.153e-18
6.63853e-18
-1.16389e-18
-1.22214e-18
-1.29976e-17
1.78638e-18
5.82162e-18
-1.49761e-18
-1.38735e-18
-1.54706e-17
2.00273e-18
6.14841e-18
-2.34427e-18
-1.99587e-18
-2.26227e-17
2.86419e-18
7.75858e-18
-3.7301e-18
-3.09409e-18
-3.47381e-17
4.43956e-18
1.07638e-17
-5.7518e-18
-4.69634e-18
-5.20986e-17
6.7708e-18
1.5249e-17
-8.44053e-18
-6.82202e-18
-7.49225e-17
9.91169e-18
2.12952e-17
-1.17756e-17
-9.51802e-18
-1.03409e-16
1.38829e-17
2.89651e-17
-1.57767e-17
-1.28099e-17
-1.37649e-16
1.8718e-17
3.83008e-17
-2.04988e-17
-1.66707e-17
-1.77705e-16
2.44079e-17
4.92975e-17
-2.59461e-17
-2.10918e-17
-2.2349e-16
3.09629e-17
6.19513e-17
-3.20067e-17
-2.60835e-17
-2.74906e-16
3.83471e-17
7.62267e-17
-3.86967e-17
-3.16487e-17
-3.31675e-16
4.65406e-17
9.20597e-17
-4.60091e-17
-3.76828e-17
-3.93477e-16
5.54686e-17
1.09322e-16
-5.39323e-17
-4.4162e-17
-4.59828e-16
6.50899e-17
1.27901e-16
-6.22541e-17
-5.10555e-17
-5.30214e-16
7.52896e-17
1.47635e-16
-7.09221e-17
-5.83313e-17
-6.03913e-16
8.60046e-17
1.68353e-16
-7.99727e-17
-6.58175e-17
-6.80197e-16
9.70769e-17
-8.92492e-17
-7.34806e-17
-7.5817e-16
1.08425e-16
-9.85258e-17
-8.12178e-17
-8.36905e-16
1.19853e-16
)
;
    }
    wedge2
    {
        type            wedge;
        value           nonuniform List<scalar> 
344
(
1.91836e-16
1.62867e-16
1.76157e-16
1.49693e-16
1.49463e-15
-2.15418e-16
-4.19462e-16
1.58928e-16
1.35288e-16
1.34101e-15
-1.92962e-16
-3.73687e-16
1.4101e-16
1.20253e-16
1.18271e-15
-1.69893e-16
-3.27179e-16
1.23152e-16
1.05302e-16
1.02611e-15
-1.47165e-16
-2.81744e-16
1.04393e-16
8.95658e-17
8.63352e-16
-1.23626e-16
-2.35267e-16
8.85505e-17
7.63082e-17
7.26908e-16
-1.03873e-16
-1.96489e-16
7.40507e-17
6.40993e-17
6.01984e-16
-8.58621e-17
-1.61379e-16
6.08624e-17
5.2978e-17
4.89567e-16
-6.96585e-17
-1.30049e-16
4.90711e-17
4.30772e-17
3.89779e-16
-5.53178e-17
-1.02528e-16
3.85729e-17
3.43062e-17
3.02314e-16
-4.27351e-17
-7.85602e-17
2.953e-17
2.66188e-17
2.26173e-16
-3.18007e-17
-5.78222e-17
2.16403e-17
1.98589e-17
1.60434e-16
-2.23288e-17
-3.99449e-17
1.47775e-17
1.40565e-17
1.03798e-16
-1.41932e-17
-2.46388e-17
8.78917e-18
9.07101e-18
5.52896e-17
-7.17257e-18
-1.14971e-17
3.72455e-18
4.73856e-18
1.36402e-17
-1.16491e-18
-2.26799e-19
-5.59776e-19
9.55372e-19
-2.06073e-17
3.97795e-18
9.2786e-18
-4.32872e-18
-2.26189e-18
-4.95936e-17
8.37824e-18
1.74596e-17
-7.64396e-18
-4.98259e-18
-7.46783e-17
1.21848e-17
2.45403e-17
-1.04148e-17
-7.37078e-18
-9.64877e-17
1.54564e-17
3.06964e-17
-1.26826e-17
-9.48296e-18
-1.15368e-16
1.83067e-17
3.60637e-17
-1.47527e-17
-1.12966e-17
-1.31764e-16
2.07458e-17
4.07088e-17
-1.66038e-17
-1.27724e-17
-1.45927e-16
2.28603e-17
4.47283e-17
-1.8158e-17
-1.41144e-17
-1.58164e-16
2.46791e-17
4.82429e-17
-1.92687e-17
-1.52661e-17
-1.68677e-16
2.6239e-17
5.1275e-17
-2.03936e-17
-1.62538e-17
-1.77547e-16
2.75748e-17
5.38908e-17
-2.1291e-17
-1.70686e-17
-1.84975e-16
2.86686e-17
5.60916e-17
-2.20054e-17
-1.76617e-17
-1.91025e-16
2.95721e-17
5.78838e-17
-2.25638e-17
-1.81733e-17
-1.95741e-16
3.02638e-17
5.93263e-17
-2.28089e-17
-1.85652e-17
-1.99215e-16
3.07682e-17
6.04146e-17
-2.30123e-17
-1.88059e-17
-2.01324e-16
3.10571e-17
6.11126e-17
-2.30456e-17
-1.88292e-17
-2.01787e-16
3.11334e-17
6.13468e-17
-2.28772e-17
-1.87423e-17
-2.00552e-16
3.09763e-17
6.11523e-17
-2.24431e-17
-1.85148e-17
-1.97676e-16
3.05928e-17
6.05027e-17
-2.19149e-17
-1.81261e-17
-1.93134e-16
2.99678e-17
5.93824e-17
-2.11949e-17
-1.75415e-17
-1.86958e-16
2.91142e-17
5.77871e-17
-2.02879e-17
-1.68299e-17
-1.79185e-16
2.80257e-17
5.57418e-17
-1.91639e-17
-1.59703e-17
-1.6988e-16
2.67151e-17
5.32492e-17
-1.79166e-17
-1.49676e-17
-1.59139e-16
2.51897e-17
5.0331e-17
-1.65201e-17
-1.38219e-17
-1.47112e-16
2.34708e-17
4.70225e-17
-1.49976e-17
-1.25778e-17
-1.33985e-16
2.15821e-17
4.33784e-17
-1.33588e-17
-1.12415e-17
-1.19994e-16
1.95563e-17
3.94576e-17
-1.16686e-17
-9.84244e-18
-1.05421e-16
1.74319e-17
3.53362e-17
-9.93932e-18
-8.40848e-18
-9.05999e-17
1.52524e-17
3.1104e-17
-8.22743e-18
-6.97789e-18
-7.58991e-17
1.30717e-17
2.68622e-17
-6.57964e-18
-5.58328e-18
-6.17345e-17
1.09434e-17
2.27206e-17
-5.03926e-18
-4.27278e-18
-4.85385e-17
8.93244e-18
1.88025e-17
-3.6545e-18
-3.09804e-18
-3.67636e-17
7.09984e-18
1.52342e-17
-2.49383e-18
-2.08666e-18
-2.68374e-17
5.51469e-18
1.21337e-17
-1.63987e-18
-1.2968e-18
-1.91105e-17
4.2447e-18
9.62933e-18
-1.09491e-18
-7.70914e-19
-1.38876e-17
3.35966e-18
7.84824e-18
-9.64222e-19
-5.76623e-19
-1.20149e-17
2.96332e-18
6.99665e-18
-1.28249e-18
-7.87067e-19
-1.45152e-17
3.1446e-18
7.30206e-18
-2.12789e-18
-1.42221e-18
-2.16909e-17
3.97847e-18
8.88328e-18
-3.57118e-18
-2.51847e-18
-3.38367e-17
5.51737e-18
1.18491e-17
-5.60106e-18
-4.13308e-18
-5.12162e-17
7.82389e-18
1.63056e-17
-8.25548e-18
-6.30501e-18
-7.40772e-17
1.09296e-17
2.23277e-17
-1.16075e-17
-9.03162e-18
-1.02579e-16
1.48773e-17
2.99699e-17
-1.56691e-17
-1.23151e-17
-1.36854e-16
1.96741e-17
3.92629e-17
-2.03978e-17
-1.6193e-17
-1.76916e-16
2.5343e-17
5.0237e-17
-2.57781e-17
-2.06646e-17
-2.2275e-16
3.18612e-17
6.28697e-17
-3.18877e-17
-2.56918e-17
-2.74174e-16
3.92222e-17
7.71157e-17
-3.86486e-17
-3.12231e-17
-3.30977e-16
4.73737e-17
9.2899e-17
-4.59849e-17
-3.72927e-17
-3.9279e-16
5.62868e-17
1.10148e-16
-5.37966e-17
-4.38323e-17
-4.59188e-16
6.58672e-17
1.28713e-16
-6.21611e-17
-5.07605e-17
-5.29563e-16
7.60618e-17
1.48431e-16
-7.09636e-17
-5.79756e-17
-6.03298e-16
8.67323e-17
1.69085e-16
-7.99881e-17
-6.5496e-17
-6.79582e-16
9.78096e-17
-8.91827e-17
-7.31814e-17
-7.57579e-16
1.09115e-16
-9.8547e-17
-8.09492e-17
-8.36313e-16
1.20562e-16
)
;
    }
    axis
    {
        type            empty;
        value           nonuniform 0();
    }
    procBoundary3to2
    {
        type            processor;
        value           nonuniform List<scalar> 5(-3.03938e-05 -9.12351e-05 -2.83383e-06 -0.000155819 -0.000218591);
    }
    procBoundary3to4
    {
        type            processor;
        value           nonuniform List<scalar> 4(3.00322e-05 8.9877e-05 0.000148952 0.000206594);
    }
    procBoundary3to8
    {
        type            processor;
        value           uniform -0.00028178;
    }
    procBoundary3to9
    {
        type            processor;
        value           nonuniform List<scalar> 
70
(
-1.62753e-05
-1.43269e-05
-1.23945e-05
-1.05404e-05
5.28654e-06
5.87021e-06
6.45685e-06
-8.68709e-06
-7.15413e-06
-5.78075e-06
-4.57012e-06
-3.51585e-06
-2.60513e-06
-1.82238e-06
-1.1517e-06
-5.78224e-07
-8.86295e-08
3.32041e-07
6.91679e-07
1.00027e-06
1.2659e-06
1.49513e-06
1.69334e-06
1.86492e-06
2.01335e-06
2.14131e-06
2.25082e-06
2.34324e-06
2.41945e-06
2.47986e-06
2.52453e-06
2.55324e-06
2.56555e-06
2.56092e-06
2.53881e-06
2.49871e-06
2.44029e-06
2.36345e-06
2.26845e-06
2.1559e-06
2.02693e-06
1.88315e-06
1.72675e-06
1.56049e-06
1.38771e-06
1.21232e-06
1.03877e-06
8.71993e-07
7.17314e-07
5.80397e-07
4.67128e-07
3.83507e-07
3.35529e-07
3.29063e-07
3.6972e-07
4.62727e-07
6.12797e-07
8.24014e-07
1.09971e-06
1.44235e-06
1.85345e-06
2.33346e-06
2.88167e-06
3.49618e-06
4.17378e-06
4.90998e-06
5.69891e-06
6.53337e-06
0.000271997
7.40487e-06
)
;
    }
}


// ************************************************************************* //
