/*--------------------------------*- C++ -*----------------------------------*\
  =========                 |
  \\      /  F ield         | OpenFOAM: The Open Source CFD Toolbox
   \\    /   O peration     | Website:  https://openfoam.org
    \\  /    A nd           | Version:  7
     \\/     M anipulation  |
\*---------------------------------------------------------------------------*/
FoamFile
{
    version     2.0;
    format      ascii;
    class       surfaceScalarField;
    location    "3.8";
    object      phi;
}
// * * * * * * * * * * * * * * * * * * * * * * * * * * * * * * * * * * * * * //

dimensions      [0 3 -1 0 0 0 0];

internalField   nonuniform List<scalar> 
627
(
4.35038e-05
2.0644e-07
4.3585e-05
2.03837e-07
4.36652e-05
2.01297e-07
4.37444e-05
1.98833e-07
4.38227e-05
1.96471e-07
4.39e-05
1.94244e-07
4.39766e-05
1.92236e-07
4.40525e-05
1.90527e-07
4.41278e-05
1.89466e-07
4.42029e-05
1.89177e-07
4.42782e-05
1.91445e-07
4.43544e-05
1.95617e-07
4.44325e-05
2.11403e-07
4.45137e-05
2.27259e-07
2.85125e-07
3.10263e-05
2.79562e-07
3.11679e-05
2.75304e-07
3.13074e-05
2.71132e-07
3.14448e-05
2.67045e-07
3.15801e-05
2.6304e-07
3.17135e-05
2.59115e-07
3.18449e-05
2.55268e-07
3.19744e-05
2.51497e-07
3.2102e-05
2.47799e-07
3.22278e-05
2.44174e-07
3.23517e-05
2.40618e-07
3.24739e-05
2.37131e-07
3.25943e-05
2.3371e-07
3.27131e-05
2.30354e-07
3.28301e-05
2.27061e-07
3.29455e-05
2.23829e-07
3.30592e-05
2.20657e-07
3.31714e-05
2.17544e-07
3.3282e-05
2.14487e-07
3.33911e-05
2.11486e-07
3.34987e-05
2.08538e-07
3.36048e-05
2.05643e-07
3.37094e-05
2.028e-07
3.38127e-05
2.00006e-07
3.39145e-05
1.97261e-07
3.40149e-05
1.94564e-07
3.4114e-05
1.91913e-07
3.42117e-05
1.89307e-07
3.43082e-05
1.86745e-07
3.44033e-05
1.84225e-07
3.44972e-05
1.81748e-07
3.45898e-05
1.79311e-07
3.46812e-05
1.76914e-07
3.47714e-05
1.74555e-07
3.48604e-05
1.72235e-07
3.49482e-05
1.69951e-07
3.50349e-05
1.67703e-07
3.51204e-05
1.65489e-07
3.52048e-05
1.6331e-07
3.52881e-05
1.61165e-07
3.53704e-05
1.59051e-07
3.54515e-05
1.5697e-07
3.55316e-05
1.54919e-07
3.56107e-05
1.52899e-07
3.56888e-05
1.50909e-07
3.57658e-05
1.48947e-07
3.58419e-05
1.47015e-07
3.5917e-05
1.45111e-07
3.59911e-05
1.43235e-07
3.60643e-05
1.41388e-07
3.61365e-05
1.39569e-07
3.62078e-05
1.37781e-07
3.62782e-05
1.36025e-07
3.63478e-05
1.34306e-07
3.64164e-05
1.32628e-07
3.64843e-05
1.31001e-07
3.65513e-05
1.29443e-07
3.66175e-05
1.27975e-07
3.66831e-05
1.26658e-07
3.67481e-05
1.25537e-07
3.68127e-05
1.24885e-07
3.68771e-05
1.24735e-07
3.6942e-05
1.26575e-07
3.70081e-05
1.29549e-07
3.70769e-05
1.42616e-07
3.71502e-05
1.53886e-07
2.08332e-07
2.44759e-05
1.62257e-07
2.45914e-05
1.59776e-07
2.47052e-05
1.57346e-07
2.48173e-05
1.54965e-07
2.49277e-05
1.52633e-07
2.50365e-05
1.50347e-07
2.51436e-05
1.48107e-07
2.52492e-05
1.45911e-07
2.53533e-05
1.43758e-07
2.54558e-05
1.41647e-07
2.55568e-05
1.39578e-07
2.56564e-05
1.37548e-07
2.57546e-05
1.35557e-07
2.58513e-05
1.33604e-07
2.59467e-05
1.31687e-07
2.60407e-05
1.29807e-07
2.61334e-05
1.27961e-07
2.62248e-05
1.2615e-07
2.63149e-05
1.24372e-07
2.64038e-05
1.22626e-07
2.64914e-05
1.20912e-07
2.65778e-05
1.19228e-07
2.6663e-05
1.17574e-07
2.67471e-05
1.1595e-07
2.683e-05
1.14354e-07
2.69118e-05
1.12786e-07
2.69924e-05
1.11244e-07
2.7072e-05
1.09729e-07
2.71505e-05
1.0824e-07
2.7228e-05
1.06776e-07
2.73044e-05
1.05336e-07
2.73798e-05
1.0392e-07
2.74542e-05
1.02527e-07
2.75276e-05
1.01156e-07
2.76e-05
9.98079e-08
2.76715e-05
9.84809e-08
2.7742e-05
9.71748e-08
2.78116e-05
9.58891e-08
2.78803e-05
9.46233e-08
2.79481e-05
9.33769e-08
2.8015e-05
9.21494e-08
2.8081e-05
9.09404e-08
2.81462e-05
8.97495e-08
2.82105e-05
8.85762e-08
2.8274e-05
8.74202e-08
2.83366e-05
8.62811e-08
2.83985e-05
8.51588e-08
2.84596e-05
8.4053e-08
2.85198e-05
8.29637e-08
2.85793e-05
8.18908e-08
2.86381e-05
8.08347e-08
2.86961e-05
7.9796e-08
2.87533e-05
7.87765e-08
2.88098e-05
7.77781e-08
2.88657e-05
7.68041e-08
2.89208e-05
7.58596e-08
2.89753e-05
7.49556e-08
2.90292e-05
7.41034e-08
2.90825e-05
7.33426e-08
2.91353e-05
7.26915e-08
2.91879e-05
7.23409e-08
2.92403e-05
7.22454e-08
2.92934e-05
7.35496e-08
2.93477e-05
7.52138e-08
2.94054e-05
8.49256e-08
2.94687e-05
9.06072e-08
1.37983e-07
1.77294e-05
7.44778e-08
1.78158e-05
7.33347e-08
1.79009e-05
7.22149e-08
1.79848e-05
7.1118e-08
1.80674e-05
7.00435e-08
1.81487e-05
6.89906e-08
1.82289e-05
6.79588e-08
1.83078e-05
6.69475e-08
1.83856e-05
6.59562e-08
1.84623e-05
6.49844e-08
1.85379e-05
6.40315e-08
1.86123e-05
6.30971e-08
1.86857e-05
6.21806e-08
1.8758e-05
6.12816e-08
1.88293e-05
6.03996e-08
1.88996e-05
5.95342e-08
1.89688e-05
5.8685e-08
1.90371e-05
5.78516e-08
1.91045e-05
5.70335e-08
1.91709e-05
5.62303e-08
1.92363e-05
5.54417e-08
1.93009e-05
5.46673e-08
1.93646e-05
5.39067e-08
1.94274e-05
5.31597e-08
1.94893e-05
5.24258e-08
1.95504e-05
5.17046e-08
1.96106e-05
5.0996e-08
1.967e-05
5.02995e-08
1.97287e-05
4.96149e-08
1.97865e-05
4.89418e-08
1.98436e-05
4.82799e-08
1.98999e-05
4.76291e-08
1.99554e-05
4.69889e-08
2.00102e-05
4.63592e-08
2.00643e-05
4.57396e-08
2.01176e-05
4.51299e-08
2.01703e-05
4.45298e-08
2.02222e-05
4.39391e-08
2.02735e-05
4.33576e-08
2.03241e-05
4.2785e-08
2.0374e-05
4.22212e-08
2.04233e-05
4.16658e-08
2.04719e-05
4.11188e-08
2.05199e-05
4.05799e-08
2.05673e-05
4.00489e-08
2.0614e-05
3.95258e-08
2.06602e-05
3.90103e-08
2.07057e-05
3.85024e-08
2.07507e-05
3.80021e-08
2.07951e-05
3.75093e-08
2.08389e-05
3.70242e-08
2.08821e-05
3.65471e-08
2.09248e-05
3.60788e-08
2.0967e-05
3.56202e-08
2.10086e-05
3.51728e-08
2.10497e-05
3.47389e-08
2.10904e-05
3.43238e-08
2.11305e-05
3.39316e-08
2.11703e-05
3.35839e-08
2.12097e-05
3.32797e-08
2.12489e-05
3.31349e-08
2.12881e-05
3.3057e-08
2.13278e-05
3.38121e-08
2.13687e-05
3.43317e-08
2.14133e-05
4.03766e-08
2.14632e-05
4.06855e-08
7.63172e-08
1.07845e-05
1.93355e-08
1.08388e-05
1.90374e-08
1.08923e-05
1.87453e-08
1.09449e-05
1.84593e-08
1.09968e-05
1.81791e-08
1.10479e-05
1.79046e-08
1.10982e-05
1.76356e-08
1.11478e-05
1.73721e-08
1.11966e-05
1.71137e-08
1.12448e-05
1.68605e-08
1.12922e-05
1.66122e-08
1.13389e-05
1.63687e-08
1.13849e-05
1.613e-08
1.14303e-05
1.58958e-08
1.14751e-05
1.56661e-08
1.15192e-05
1.54407e-08
1.15626e-05
1.52196e-08
1.16055e-05
1.50026e-08
1.16477e-05
1.47896e-08
1.16894e-05
1.45806e-08
1.17304e-05
1.43753e-08
1.17709e-05
1.41738e-08
1.18109e-05
1.39758e-08
1.18502e-05
1.37814e-08
1.18891e-05
1.35905e-08
1.19274e-05
1.34029e-08
1.19652e-05
1.32186e-08
1.20024e-05
1.30374e-08
1.20392e-05
1.28593e-08
1.20754e-05
1.26843e-08
1.21112e-05
1.25122e-08
1.21465e-05
1.2343e-08
1.21813e-05
1.21765e-08
1.22156e-05
1.20128e-08
1.22495e-05
1.18518e-08
1.2283e-05
1.16933e-08
1.2316e-05
1.15373e-08
1.23485e-05
1.13838e-08
1.23806e-05
1.12327e-08
1.24123e-05
1.10839e-08
1.24436e-05
1.09374e-08
1.24745e-05
1.07931e-08
1.2505e-05
1.0651e-08
1.2535e-05
1.0511e-08
1.25647e-05
1.0373e-08
1.2594e-05
1.02371e-08
1.26229e-05
1.01032e-08
1.26514e-05
9.97122e-09
1.26796e-05
9.84122e-09
1.27074e-05
9.71318e-09
1.27348e-05
9.58713e-09
1.27619e-05
9.46314e-09
1.27887e-05
9.34145e-09
1.2815e-05
9.22224e-09
1.28411e-05
9.10595e-09
1.28669e-05
8.99303e-09
1.28923e-05
8.88518e-09
1.29174e-05
8.78255e-09
1.29423e-05
8.69286e-09
1.2967e-05
8.60972e-09
1.29916e-05
8.57981e-09
1.30161e-05
8.53197e-09
1.30411e-05
8.80573e-09
1.30667e-05
8.73448e-09
1.3096e-05
1.11167e-08
1.31274e-05
9.21586e-09
2.69389e-08
3.63933e-06
3.65837e-06
3.67712e-06
3.69558e-06
3.71376e-06
3.73166e-06
3.7493e-06
3.76667e-06
3.78378e-06
3.80064e-06
3.81725e-06
3.83362e-06
3.84975e-06
3.86565e-06
3.88132e-06
3.89676e-06
3.91198e-06
3.92698e-06
3.94177e-06
3.95635e-06
3.97072e-06
3.9849e-06
3.99887e-06
4.01265e-06
4.02625e-06
4.03965e-06
4.05287e-06
4.0659e-06
4.07876e-06
4.09145e-06
4.10396e-06
4.1163e-06
4.12848e-06
4.14049e-06
4.15234e-06
4.16404e-06
4.17557e-06
4.18696e-06
4.19819e-06
4.20927e-06
4.22021e-06
4.23101e-06
4.24166e-06
4.25217e-06
4.26254e-06
4.27278e-06
4.28288e-06
4.29285e-06
4.30269e-06
4.31241e-06
4.32199e-06
4.33146e-06
4.3408e-06
4.35002e-06
4.35913e-06
4.36812e-06
4.377e-06
4.38579e-06
4.39448e-06
4.40309e-06
4.41167e-06
4.4202e-06
4.42901e-06
4.43774e-06
4.44886e-06
4.45807e-06
)
;

boundaryField
{
    inlet
    {
        type            calculated;
        value           nonuniform 0();
    }
    outlet
    {
        type            calculated;
        value           nonuniform List<scalar> 6(4.45956e-05 3.7227e-05 2.9539e-05 2.15249e-05 1.31768e-05 4.48501e-06);
    }
    wall
    {
        type            calculated;
        value           uniform 0;
    }
    wedge1
    {
        type            wedge;
        value           nonuniform List<scalar> 
350
(
-1.88086e-17
-1.17597e-17
-1.92073e-17
-2.80807e-18
4.05225e-18
-1.8523e-17
-1.15806e-17
-1.89141e-17
-2.76491e-18
3.99088e-18
-1.82435e-17
-1.14052e-17
-1.86273e-17
-2.72284e-18
3.93058e-18
-1.79693e-17
-1.12333e-17
-1.83466e-17
-2.68176e-18
3.87139e-18
-1.77006e-17
-1.10648e-17
-1.80719e-17
-2.64181e-18
3.81317e-18
-1.74371e-17
-1.08997e-17
-1.78016e-17
-2.60205e-18
3.75661e-18
-1.7179e-17
-1.07378e-17
-1.75378e-17
-2.56358e-18
3.7007e-18
-1.69259e-17
-1.05792e-17
-1.72781e-17
-2.52539e-18
3.64632e-18
-1.6678e-17
-1.04237e-17
-1.70245e-17
-2.48841e-18
3.5926e-18
-1.64349e-17
-1.02713e-17
-1.67749e-17
-2.45158e-18
3.54036e-18
-1.61967e-17
-1.01219e-17
-1.65306e-17
-2.41581e-18
3.4889e-18
-1.59628e-17
-9.97536e-18
-1.62911e-17
-2.38077e-18
3.43838e-18
-1.57332e-17
-9.83154e-18
-1.60561e-17
-2.34646e-18
3.38883e-18
-1.55079e-17
-9.69041e-18
-1.58261e-17
-2.31305e-18
3.33997e-18
-1.52867e-17
-9.55189e-18
-1.55994e-17
-2.27972e-18
3.29247e-18
-1.50699e-17
-9.41596e-18
-1.53778e-17
-2.24746e-18
3.24547e-18
-1.48569e-17
-9.28257e-18
-1.51594e-17
-2.21531e-18
3.19973e-18
-1.46481e-17
-9.15174e-18
-1.4946e-17
-2.18428e-18
3.15442e-18
-1.44431e-17
-9.02332e-18
-1.47355e-17
-2.15329e-18
3.11035e-18
-1.4242e-17
-8.89729e-18
-1.45294e-17
-2.1231e-18
3.06688e-18
-1.40441e-17
-8.77344e-18
-1.4327e-17
-2.09356e-18
3.02415e-18
-1.38498e-17
-8.65177e-18
-1.41286e-17
-2.06479e-18
2.98199e-18
-1.36588e-17
-8.5322e-18
-1.39328e-17
-2.03593e-18
2.941e-18
-1.34716e-17
-8.41486e-18
-1.37409e-17
-2.00783e-18
2.90054e-18
-1.32872e-17
-8.29956e-18
-1.35525e-17
-1.98037e-18
2.86072e-18
-1.31061e-17
-8.18612e-18
-1.33676e-17
-1.95353e-18
2.82145e-18
-1.29281e-17
-8.07469e-18
-1.31851e-17
-1.92665e-18
2.78322e-18
-1.27533e-17
-7.96519e-18
-1.30061e-17
-1.90042e-18
2.74547e-18
-1.25812e-17
-7.85755e-18
-1.28302e-17
-1.87479e-18
2.7083e-18
-1.24119e-17
-7.75162e-18
-1.26575e-17
-1.84972e-18
2.67162e-18
-1.22453e-17
-7.64738e-18
-1.24869e-17
-1.82464e-18
2.63586e-18
-1.20816e-17
-7.54489e-18
-1.23199e-17
-1.80034e-18
2.6004e-18
-1.19206e-17
-7.44419e-18
-1.21549e-17
-1.77612e-18
2.56579e-18
-1.17623e-17
-7.34507e-18
-1.19933e-17
-1.75259e-18
2.53149e-18
-1.16065e-17
-7.24758e-18
-1.18335e-17
-1.72912e-18
2.49799e-18
-1.14534e-17
-7.15175e-18
-1.16767e-17
-1.70618e-18
2.4649e-18
-1.13024e-17
-7.0573e-18
-1.15224e-17
-1.68364e-18
2.43229e-18
-1.11538e-17
-6.96433e-18
-1.13704e-17
-1.66149e-18
2.40018e-18
-1.10073e-17
-6.87276e-18
-1.12211e-17
-1.63983e-18
2.36844e-18
-1.0863e-17
-6.78252e-18
-1.10734e-17
-1.61815e-18
2.33745e-18
-1.07211e-17
-6.6937e-18
-1.09285e-17
-1.59709e-18
2.30668e-18
-1.05812e-17
-6.60621e-18
-1.07853e-17
-1.57607e-18
2.27661e-18
-1.04435e-17
-6.52009e-18
-1.06447e-17
-1.55563e-18
2.24676e-18
-1.03079e-17
-6.43525e-18
-1.05057e-17
-1.53521e-18
2.21757e-18
-1.01744e-17
-6.35168e-18
-1.0369e-17
-1.51522e-18
2.1887e-18
-1.00426e-17
-6.26931e-18
-1.02344e-17
-1.4956e-18
2.16021e-18
-9.9128e-18
-6.18816e-18
-1.01019e-17
-1.47638e-18
2.13205e-18
-9.7849e-18
-6.10817e-18
-9.97094e-18
-1.45716e-18
2.1045e-18
-9.65901e-18
-6.02941e-18
-9.8421e-18
-1.43833e-18
2.07726e-18
-9.53491e-18
-5.95182e-18
-9.71523e-18
-1.41982e-18
2.05043e-18
-9.41275e-18
-5.87542e-18
-9.5905e-18
-1.40169e-18
2.02393e-18
-9.29259e-18
-5.80028e-18
-9.46746e-18
-1.38365e-18
1.99801e-18
8.9967e-17
-9.17476e-18
-5.72657e-18
-9.34689e-18
-1.36603e-18
1.9725e-18
8.88347e-17
-9.05925e-18
-5.65438e-18
-9.22883e-18
-1.34881e-18
1.94749e-18
8.77296e-17
-8.94652e-18
-5.58393e-18
-9.11377e-18
-1.33207e-18
1.92305e-18
8.66572e-17
-8.83717e-18
-5.5156e-18
-9.00194e-18
-1.3157e-18
1.89944e-18
8.56284e-17
-8.73243e-18
-5.45018e-18
-8.89513e-18
-1.30014e-18
1.87676e-18
8.46577e-17
-8.63375e-18
-5.38861e-18
-8.79435e-18
-1.28537e-18
1.85538e-18
8.37787e-17
-8.54488e-18
-5.3334e-18
-8.70442e-18
-1.27231e-18
1.83645e-18
8.30297e-17
-8.46971e-18
-5.28688e-18
-8.62833e-18
-1.26124e-18
1.81954e-18
8.254e-17
-8.42306e-18
-5.25957e-18
-8.58643e-18
-1.25543e-18
1.81227e-18
8.23976e-17
-8.41359e-18
-5.25554e-18
-8.57982e-18
-1.25401e-18
1.80667e-18
8.32079e-17
-8.51623e-18
-5.33295e-18
-8.72999e-18
-1.27964e-18
1.85417e-18
8.49644e-17
-8.72191e-18
-5.4729e-18
-8.96052e-18
-1.31109e-18
1.87539e-18
9.06545e-17
-9.43564e-18
-6.02154e-18
-1.00682e-17
-1.50874e-18
2.27207e-18
9.73744e-17
-1.02338e-17
-6.56356e-18
-1.09131e-17
-1.61274e-18
2.21358e-18
1.16297e-16
-1.28828e-17
-8.89534e-18
-1.6477e-17
-2.79944e-18
5.09546e-18
)
;
    }
    wedge2
    {
        type            wedge;
        value           nonuniform List<scalar> 
350
(
-1.88214e-17
-1.17694e-17
-1.92128e-17
-2.81128e-18
4.05149e-18
-1.85356e-17
-1.15901e-17
-1.89206e-17
-2.76864e-18
3.98969e-18
-1.82554e-17
-1.14143e-17
-1.86338e-17
-2.72663e-18
3.9293e-18
-1.7981e-17
-1.12422e-17
-1.83527e-17
-2.68535e-18
3.87023e-18
-1.77122e-17
-1.10736e-17
-1.80768e-17
-2.6446e-18
3.81256e-18
-1.74488e-17
-1.09083e-17
-1.78075e-17
-2.60527e-18
3.75554e-18
-1.71905e-17
-1.07464e-17
-1.75425e-17
-2.56624e-18
3.70011e-18
-1.69374e-17
-1.05876e-17
-1.72837e-17
-2.52845e-18
3.64534e-18
-1.6689e-17
-1.04319e-17
-1.7029e-17
-2.49095e-18
3.59205e-18
-1.64453e-17
-1.02791e-17
-1.67803e-17
-2.45474e-18
3.53935e-18
-1.6206e-17
-1.01292e-17
-1.65358e-17
-2.41888e-18
3.48788e-18
-1.59717e-17
-9.98224e-18
-1.6296e-17
-2.38368e-18
3.43744e-18
-1.57419e-17
-9.83811e-18
-1.60607e-17
-2.34909e-18
3.38795e-18
-1.55164e-17
-9.69675e-18
-1.58293e-17
-2.3149e-18
3.33963e-18
-1.52953e-17
-9.55807e-18
-1.56034e-17
-2.28191e-18
3.29178e-18
-1.5078e-17
-9.42198e-18
-1.53807e-17
-2.24909e-18
3.2452e-18
-1.4865e-17
-9.28839e-18
-1.51632e-17
-2.21736e-18
3.19908e-18
-1.46554e-17
-9.15714e-18
-1.49486e-17
-2.1857e-18
3.15422e-18
-1.44498e-17
-9.02826e-18
-1.47388e-17
-2.15513e-18
3.10976e-18
-1.42476e-17
-8.90166e-18
-1.45324e-17
-2.12489e-18
3.0663e-18
-1.40495e-17
-8.77742e-18
-1.43297e-17
-2.09509e-18
3.02366e-18
-1.38548e-17
-8.65542e-18
-1.41301e-17
-2.06558e-18
2.98197e-18
-1.36636e-17
-8.53565e-18
-1.39351e-17
-2.0372e-18
2.9406e-18
-1.34754e-17
-8.41785e-18
-1.3743e-17
-2.00906e-18
2.90013e-18
-1.32908e-17
-8.30211e-18
-1.35542e-17
-1.98127e-18
2.86043e-18
-1.31094e-17
-8.18849e-18
-1.33683e-17
-1.95382e-18
2.82156e-18
-1.2931e-17
-8.07677e-18
-1.31864e-17
-1.92734e-18
2.78299e-18
-1.27555e-17
-7.96691e-18
-1.30072e-17
-1.90112e-18
2.74524e-18
-1.25831e-17
-7.85889e-18
-1.2831e-17
-1.87519e-18
2.70818e-18
-1.24137e-17
-7.75277e-18
-1.26574e-17
-1.84956e-18
2.67187e-18
-1.22472e-17
-7.64847e-18
-1.24874e-17
-1.82478e-18
2.63584e-18
-1.20832e-17
-7.54584e-18
-1.23196e-17
-1.80005e-18
2.6007e-18
-1.19219e-17
-7.44478e-18
-1.2155e-17
-1.77603e-18
2.56585e-18
-1.1763e-17
-7.34539e-18
-1.19926e-17
-1.75212e-18
2.53183e-18
-1.16067e-17
-7.24754e-18
-1.18333e-17
-1.72891e-18
2.49808e-18
-1.14526e-17
-7.15112e-18
-1.16762e-17
-1.70589e-18
2.46499e-18
-1.13012e-17
-7.05635e-18
-1.15216e-17
-1.68321e-18
2.43244e-18
-1.11522e-17
-6.96302e-18
-1.13694e-17
-1.66083e-18
2.40041e-18
-1.10055e-17
-6.87118e-18
-1.12192e-17
-1.63865e-18
2.36899e-18
-1.08612e-17
-6.7808e-18
-1.1072e-17
-1.61717e-18
2.33779e-18
-1.07188e-17
-6.69174e-18
-1.09264e-17
-1.59572e-18
2.3073e-18
-1.05787e-17
-6.60402e-18
-1.07835e-17
-1.57486e-18
2.27702e-18
-1.04405e-17
-6.51756e-18
-1.06422e-17
-1.55406e-18
2.24742e-18
-1.03044e-17
-6.43236e-18
-1.05036e-17
-1.53384e-18
2.21803e-18
-1.01701e-17
-6.34839e-18
-1.03667e-17
-1.51379e-18
2.18917e-18
-1.0038e-17
-6.26567e-18
-1.02317e-17
-1.49395e-18
2.16077e-18
-9.90784e-18
-6.18417e-18
-1.00985e-17
-1.47429e-18
2.13286e-18
-9.77958e-18
-6.10389e-18
-9.96775e-18
-1.4552e-18
2.10516e-18
-9.65311e-18
-6.02477e-18
-9.83872e-18
-1.43629e-18
2.07795e-18
-9.52867e-18
-5.94686e-18
-9.71161e-18
-1.41762e-18
2.05116e-18
-9.40618e-18
-5.87021e-18
-9.58632e-18
-1.39916e-18
2.02485e-18
-9.28572e-18
-5.79482e-18
-9.46347e-18
-1.38121e-18
1.99883e-18
8.99761e-17
-9.16733e-18
-5.72077e-18
-9.34268e-18
-1.3635e-18
1.97335e-18
8.88441e-17
-9.05148e-18
-5.64826e-18
-9.22438e-18
-1.34612e-18
1.9484e-18
8.77392e-17
-8.93843e-18
-5.57754e-18
-9.10885e-18
-1.32911e-18
1.9241e-18
8.66673e-17
-8.82884e-18
-5.50899e-18
-8.99712e-18
-1.31276e-18
1.90042e-18
8.56388e-17
-8.7237e-18
-5.44331e-18
-8.88992e-18
-1.297e-18
1.87786e-18
8.46688e-17
-8.62465e-18
-5.38145e-18
-8.78917e-18
-1.28225e-18
1.85641e-18
8.37904e-17
-8.53531e-18
-5.32588e-18
-8.69899e-18
-1.26903e-18
1.83753e-18
8.30418e-17
-8.45958e-18
-5.27884e-18
-8.62233e-18
-1.25758e-18
1.82079e-18
8.25526e-17
-8.41265e-18
-5.25139e-18
-8.58053e-18
-1.25188e-18
1.81344e-18
8.24108e-17
-8.40281e-18
-5.24714e-18
-8.5738e-18
-1.25041e-18
1.80785e-18
8.32215e-17
-8.50511e-18
-5.3243e-18
-8.7238e-18
-1.27594e-18
1.85539e-18
8.49783e-17
-8.71053e-18
-5.46405e-18
-8.9542e-18
-1.30732e-18
1.87664e-18
9.06686e-17
-9.42411e-18
-6.01263e-18
-1.00618e-17
-1.50496e-18
2.27333e-18
9.7389e-17
-1.02219e-17
-6.55431e-18
-1.09065e-17
-1.6088e-18
2.21488e-18
1.16312e-16
-1.28706e-17
-8.8859e-18
-1.64703e-17
-2.79542e-18
5.09679e-18
)
;
    }
    axis
    {
        type            empty;
        value           nonuniform 0();
    }
    procBoundary47to41
    {
        type            processor;
        value           nonuniform List<scalar> 
68
(
-2.8866e-07
-2.85029e-07
-2.81484e-07
-2.78045e-07
-2.74744e-07
-2.71629e-07
-2.68806e-07
-2.66387e-07
-2.64799e-07
-2.64248e-07
-2.66752e-07
-2.71822e-07
-2.89498e-07
-3.08502e-07
-3.66957e-07
-4.23337e-07
-4.16914e-07
-4.1062e-07
-4.04454e-07
-3.98411e-07
-3.92488e-07
-3.86683e-07
-3.80991e-07
-3.7541e-07
-3.69937e-07
-3.64569e-07
-3.59304e-07
-3.54139e-07
-3.49071e-07
-3.44097e-07
-3.39216e-07
-3.34425e-07
-3.29722e-07
-3.25104e-07
-3.20569e-07
-3.16116e-07
-3.11741e-07
-3.07444e-07
-3.03222e-07
-2.99073e-07
-2.94996e-07
-2.90988e-07
-2.87048e-07
-2.83174e-07
-2.79365e-07
-2.75618e-07
-2.71933e-07
-2.68308e-07
-2.64741e-07
-2.61231e-07
-2.57776e-07
-2.54375e-07
-2.51027e-07
-2.4773e-07
-2.44484e-07
-2.41286e-07
-2.38136e-07
-2.35034e-07
-2.31977e-07
-2.28965e-07
-2.25997e-07
-2.23072e-07
-2.20191e-07
-2.17352e-07
-2.14556e-07
-2.11804e-07
-4.34216e-05
-2.09097e-07
)
;
    }
    procBoundary47to46
    {
        type            processor;
        value           nonuniform List<scalar> 5(-3.08825e-05 -2.43586e-05 -1.76416e-05 -1.07294e-05 -3.62e-06);
    }
}


// ************************************************************************* //
