/*--------------------------------*- C++ -*----------------------------------*\
  =========                 |
  \\      /  F ield         | OpenFOAM: The Open Source CFD Toolbox
   \\    /   O peration     | Website:  https://openfoam.org
    \\  /    A nd           | Version:  7
     \\/     M anipulation  |
\*---------------------------------------------------------------------------*/
FoamFile
{
    version     2.0;
    format      ascii;
    class       volVectorField;
    location    "3.8";
    object      U;
}
// * * * * * * * * * * * * * * * * * * * * * * * * * * * * * * * * * * * * * //

dimensions      [0 1 -1 0 0 0 0];

internalField   nonuniform List<vector> 
350
(
(0.257069 0.000505635 3.21525e-17)
(0.257552 0.000499266 3.36545e-17)
(0.258029 0.000493049 3.41416e-17)
(0.258501 0.000487019 3.60307e-17)
(0.258966 0.000481236 3.70143e-17)
(0.259426 0.000475782 3.94173e-17)
(0.259882 0.000470856 4.14523e-17)
(0.260332 0.000466655 4.3192e-17)
(0.260779 0.000463985 4.50991e-17)
(0.261222 0.000463193 4.69201e-17)
(0.26167 0.000468243 4.84601e-17)
(0.262105 0.000477983 4.96508e-17)
(0.262595 0.000513028 5.02724e-17)
(0.26296 0.000549793 5.19862e-17)
(0.263749 0.000671364 5.30962e-17)
(0.180352 0.000702248 -4.93995e-17)
(0.181184 0.000691567 -4.4423e-17)
(0.182002 0.000681103 -4.24518e-17)
(0.182809 0.000670851 -4.20104e-17)
(0.183604 0.000660805 -4.57514e-17)
(0.184386 0.000650959 -4.14757e-17)
(0.185158 0.000641308 -4.54459e-17)
(0.185918 0.000631847 -4.21623e-17)
(0.186667 0.000622571 -4.24078e-17)
(0.187405 0.000613475 -3.66861e-17)
(0.188132 0.000604554 -3.29297e-17)
(0.188849 0.000595804 -3.13849e-17)
(0.189556 0.00058722 -3.11319e-17)
(0.190252 0.000578799 -3.39518e-17)
(0.190939 0.000570535 -3.07379e-17)
(0.191616 0.000562426 -3.2499e-17)
(0.192284 0.000554466 -2.88609e-17)
(0.192942 0.000546652 -2.9709e-17)
(0.193591 0.00053898 -2.40045e-17)
(0.194231 0.000531447 -2.02005e-17)
(0.194862 0.00052405 -1.89907e-17)
(0.195484 0.000516784 -2.07671e-17)
(0.196098 0.000509646 -1.68757e-17)
(0.196704 0.000502634 -1.35938e-17)
(0.197301 0.000495744 -1.27878e-17)
(0.19789 0.000488973 -1.4921e-17)
(0.198471 0.000482318 -1.03413e-17)
(0.199045 0.000475775 -7.82097e-18)
(0.19961 0.000469343 -6.82299e-18)
(0.200168 0.000463018 -8.87218e-18)
(0.200719 0.000456798 -6.6436e-18)
(0.201262 0.00045068 -7.84875e-18)
(0.201798 0.000444662 -4.61158e-18)
(0.202327 0.00043874 -4.93843e-18)
(0.202849 0.000432913 -7.59647e-19)
(0.203364 0.000427178 3.06192e-18)
(0.203872 0.000421533 4.16371e-18)
(0.204374 0.000415976 5.64197e-18)
(0.204869 0.000410504 4.54911e-18)
(0.205358 0.000405116 7.06547e-18)
(0.20584 0.000399809 6.03787e-18)
(0.206316 0.000394581 8.64236e-18)
(0.206786 0.000389432 9.25908e-18)
(0.20725 0.000384359 1.26231e-17)
(0.207707 0.00037936 1.4992e-17)
(0.208159 0.000374435 1.64256e-17)
(0.208605 0.000369582 1.64357e-17)
(0.209045 0.0003648 1.90411e-17)
(0.20948 0.000360089 2.10821e-17)
(0.209909 0.00035545 2.23533e-17)
(0.210333 0.000350883 2.23198e-17)
(0.210751 0.000346392 2.4461e-17)
(0.211164 0.000341982 2.65261e-17)
(0.211571 0.000337664 2.77425e-17)
(0.211974 0.00033345 2.81896e-17)
(0.212371 0.000329364 2.98402e-17)
(0.212764 0.000325449 3.04452e-17)
(0.213152 0.00032176 3.25851e-17)
(0.213537 0.000318445 3.4147e-17)
(0.213917 0.000315629 3.56479e-17)
(0.214294 0.000313946 3.73013e-17)
(0.214668 0.000313555 3.85561e-17)
(0.215047 0.000317817 3.97731e-17)
(0.215417 0.000325199 4.06896e-17)
(0.215839 0.000354956 4.10091e-17)
(0.216154 0.000383136 4.2524e-17)
(0.216877 0.00049915 4.34508e-17)
(0.14017 0.000428243 -3.08454e-17)
(0.140838 0.000421704 -3.37682e-17)
(0.141497 0.000415298 -3.25394e-17)
(0.142145 0.000409023 -3.17325e-17)
(0.142783 0.000402874 -2.7481e-17)
(0.143412 0.000396848 -3.15114e-17)
(0.144032 0.000390943 -2.66101e-17)
(0.144643 0.000385154 -3.05914e-17)
(0.145244 0.000379479 -2.65256e-17)
(0.145837 0.000373915 -2.82719e-17)
(0.146422 0.000368458 -2.57755e-17)
(0.146997 0.000363106 -2.44805e-17)
(0.147565 0.000357857 -2.34351e-17)
(0.148124 0.000352706 -1.91198e-17)
(0.148676 0.000347653 -2.2258e-17)
(0.149219 0.000342695 -1.78964e-17)
(0.149755 0.000337829 -2.081e-17)
(0.150283 0.000333052 -1.57328e-17)
(0.150804 0.000328363 -1.78228e-17)
(0.151318 0.000323758 -1.55442e-17)
(0.151825 0.000319237 -1.40019e-17)
(0.152324 0.000314797 -9.76971e-18)
(0.152817 0.000310436 -1.24118e-17)
(0.153303 0.000306151 -1.02253e-17)
(0.153782 0.000301941 -9.0574e-18)
(0.154254 0.000297805 -5.63589e-18)
(0.154721 0.000293739 -7.08616e-18)
(0.155181 0.000289743 -6.03882e-18)
(0.155634 0.000285815 -4.65039e-18)
(0.156082 0.000281952 -1.37057e-18)
(0.156524 0.000278153 -3.91132e-18)
(0.156959 0.000274417 -8.08994e-19)
(0.157389 0.000270743 -1.70822e-18)
(0.157813 0.000267127 1.35911e-18)
(0.158232 0.00026357 2.86669e-19)
(0.158645 0.000260069 2.63335e-18)
(0.159052 0.000256623 3.28075e-18)
(0.159455 0.000253231 4.60694e-18)
(0.159851 0.000249891 7.52487e-18)
(0.160243 0.000246602 5.83585e-18)
(0.16063 0.000243363 9.05465e-18)
(0.161011 0.000240173 7.82414e-18)
(0.161388 0.000237031 1.11065e-17)
(0.161759 0.000233935 1.03719e-17)
(0.162126 0.000230884 1.17422e-17)
(0.162488 0.000227879 1.29737e-17)
(0.162846 0.000224917 1.58836e-17)
(0.163199 0.000222 1.54233e-17)
(0.163547 0.000219125 1.65769e-17)
(0.163891 0.000216294 1.76701e-17)
(0.16423 0.000213508 1.99078e-17)
(0.164565 0.000210767 1.9454e-17)
(0.164896 0.000208077 2.07533e-17)
(0.165222 0.000205442 2.18176e-17)
(0.165545 0.000202872 2.3846e-17)
(0.165863 0.00020038 2.36369e-17)
(0.166178 0.000197994 2.53386e-17)
(0.166489 0.000195747 2.57179e-17)
(0.166796 0.000193736 2.68638e-17)
(0.167101 0.000192025 2.92866e-17)
(0.167403 0.000191074 2.91538e-17)
(0.167703 0.000190861 3.0044e-17)
(0.168008 0.000194045 3.0982e-17)
(0.168306 0.000198683 3.16288e-17)
(0.168651 0.000221748 3.18951e-17)
(0.168909 0.000238815 3.30684e-17)
(0.169552 0.00034287 3.37508e-17)
(0.100053 0.000217083 -2.04948e-17)
(0.100546 0.000213756 -2.30587e-17)
(0.101031 0.000210496 -2.26939e-17)
(0.101509 0.000207302 -2.22e-17)
(0.10198 0.000204174 -1.73686e-17)
(0.102443 0.000201108 -2.03116e-17)
(0.1029 0.000198104 -1.69712e-17)
(0.10335 0.00019516 -2.01853e-17)
(0.103794 0.000192274 -1.61974e-17)
(0.10423 0.000189444 -1.9936e-17)
(0.104661 0.000186669 -1.85087e-17)
(0.105085 0.000183948 -1.74792e-17)
(0.105503 0.000181279 -1.66523e-17)
(0.105915 0.000178661 -1.16958e-17)
(0.106322 0.000176092 -1.42025e-17)
(0.106722 0.000173572 -1.06421e-17)
(0.107117 0.000171099 -1.35257e-17)
(0.107506 0.000168672 -9.17365e-18)
(0.107889 0.000166289 -1.18879e-17)
(0.108268 0.000163949 -1.09406e-17)
(0.108641 0.000161652 -9.55959e-18)
(0.109008 0.000159397 -5.20226e-18)
(0.109371 0.000157181 -8.42968e-18)
(0.109729 0.000155005 -7.77083e-18)
(0.110082 0.000152867 -5.65564e-18)
(0.11043 0.000150767 -2.20707e-18)
(0.110773 0.000148702 -4.61175e-18)
(0.111111 0.000146673 -4.1803e-18)
(0.111445 0.000144678 -3.04532e-18)
(0.111774 0.000142717 6.22672e-19)
(0.112099 0.000140789 -1.81301e-18)
(0.11242 0.000138893 1.11824e-18)
(0.112736 0.000137028 -2.51763e-19)
(0.113048 0.000135193 2.51081e-18)
(0.113356 0.000133388 1.64507e-19)
(0.11366 0.000131611 1.73916e-18)
(0.11396 0.000129862 2.63981e-18)
(0.114256 0.000128141 3.42102e-18)
(0.114548 0.000126447 6.55759e-18)
(0.114836 0.000124778 5.01511e-18)
(0.11512 0.000123135 7.50462e-18)
(0.115401 0.000121517 6.27677e-18)
(0.115678 0.000119923 8.87625e-18)
(0.115951 0.000118352 7.86944e-18)
(0.116221 0.000116805 8.55127e-18)
(0.116487 0.00011528 9.46883e-18)
(0.11675 0.000113778 1.22056e-17)
(0.117009 0.000112298 1.13359e-17)
(0.117265 0.00011084 1.20587e-17)
(0.117518 0.000109404 1.3014e-17)
(0.117767 0.00010799 1.48657e-17)
(0.118014 0.0001066 1.42248e-17)
(0.118257 0.000105235 1.49242e-17)
(0.118497 0.000103899 1.58672e-17)
(0.118734 0.000102596 1.75522e-17)
(0.118968 0.000101332 1.71937e-17)
(0.119199 0.000100122 1.85319e-17)
(0.119427 9.89811e-05 1.83829e-17)
(0.119653 9.79667e-05 1.93321e-17)
(0.119877 9.7091e-05 2.19361e-17)
(0.1201 9.66511e-05 2.10177e-17)
(0.12032 9.64915e-05 2.14835e-17)
(0.120545 9.84966e-05 2.21024e-17)
(0.120765 0.000100494 2.25615e-17)
(0.121024 0.00011596 2.2551e-17)
(0.121215 0.000121152 2.35348e-17)
(0.121754 0.00020482 2.40479e-17)
(0.0599855 7.47976e-05 -8.07558e-18)
(0.0602906 7.36455e-05 -1.33003e-17)
(0.060591 7.25169e-05 -1.41201e-17)
(0.0608869 7.14116e-05 -1.30926e-17)
(0.0611783 7.03288e-05 -6.34913e-18)
(0.0614654 6.9268e-05 -1.22299e-17)
(0.0617481 6.82285e-05 -6.2136e-18)
(0.0620266 6.72098e-05 -1.14105e-17)
(0.062301 6.62113e-05 -5.66758e-18)
(0.0625713 6.52325e-05 -1.11887e-17)
(0.0628377 6.42729e-05 -1.09622e-17)
(0.0631002 6.33319e-05 -1.02695e-17)
(0.0633588 6.24091e-05 -9.89991e-18)
(0.0636138 6.15039e-05 -3.30442e-18)
(0.063865 6.0616e-05 -7.68172e-18)
(0.0641127 5.97448e-05 -2.69507e-18)
(0.0643568 5.889e-05 -7.11859e-18)
(0.0645974 5.80511e-05 -1.99707e-18)
(0.0648347 5.72278e-05 -6.48186e-18)
(0.0650686 5.64195e-05 -6.42986e-18)
(0.0652992 5.5626e-05 -5.24298e-18)
(0.0655266 5.48468e-05 5.28808e-20)
(0.0657508 5.40815e-05 -4.63475e-18)
(0.0659719 5.333e-05 -4.56275e-18)
(0.0661899 5.25917e-05 -3.31475e-18)
(0.066405 5.18663e-05 1.28987e-18)
(0.0666171 5.11535e-05 -2.81147e-18)
(0.0668263 5.0453e-05 -2.5264e-18)
(0.0670327 4.97645e-05 -1.45171e-18)
(0.0672363 4.90876e-05 3.11694e-18)
(0.0674371 4.84221e-05 -2.69446e-19)
(0.0676352 4.77677e-05 3.66081e-18)
(0.0678306 4.71241e-05 2.43431e-19)
(0.0680234 4.6491e-05 3.91658e-18)
(0.0682136 4.58682e-05 8.44317e-19)
(0.0684014 4.52553e-05 9.9643e-19)
(0.0685866 4.46521e-05 1.6086e-18)
(0.0687693 4.40584e-05 2.15453e-18)
(0.0689496 4.34739e-05 6.18016e-18)
(0.0691276 4.28985e-05 3.27448e-18)
(0.0693032 4.23318e-05 6.9465e-18)
(0.0694765 4.17738e-05 4.41834e-18)
(0.0696475 4.12241e-05 7.33149e-18)
(0.0698163 4.06825e-05 4.8182e-18)
(0.0699829 4.01489e-05 5.17749e-18)
(0.0701472 3.96232e-05 6.00102e-18)
(0.0703095 3.91052e-05 8.96926e-18)
(0.0704696 3.85949e-05 7.00915e-18)
(0.0706277 3.80921e-05 7.53807e-18)
(0.0707837 3.75969e-05 7.82774e-18)
(0.0709377 3.71094e-05 1.00771e-17)
(0.0710897 3.66299e-05 8.76102e-18)
(0.0712398 3.61592e-05 9.05893e-18)
(0.0713879 3.56983e-05 9.6036e-18)
(0.0715342 3.52486e-05 1.14935e-17)
(0.0716786 3.48123e-05 1.04868e-17)
(0.0718213 3.43952e-05 1.19371e-17)
(0.0719623 3.39998e-05 1.109e-17)
(0.0721018 3.3652e-05 1.16355e-17)
(0.0722399 3.33386e-05 1.36951e-17)
(0.0723771 3.32109e-05 1.25929e-17)
(0.0725132 3.30812e-05 1.2827e-17)
(0.0726522 3.40158e-05 1.32197e-17)
(0.0727877 3.41657e-05 1.34501e-17)
(0.0729523 4.20367e-05 1.35073e-17)
(0.0730673 3.87982e-05 1.40613e-17)
(0.0734606 9.24124e-05 1.43685e-17)
(0.0199553 1.0975e-05 -2.51939e-18)
(0.0200608 1.08045e-05 -3.99811e-18)
(0.0201646 1.06374e-05 -4.57462e-18)
(0.0202669 1.04739e-05 -4.29076e-18)
(0.0203676 1.03137e-05 -2.03272e-18)
(0.0204668 1.01568e-05 -3.66496e-18)
(0.0205644 1.00031e-05 -2.14329e-18)
(0.0206607 9.85247e-06 -3.24921e-18)
(0.0207555 9.70488e-06 -1.88439e-18)
(0.0208488 9.56024e-06 -3.92106e-18)
(0.0209409 9.41846e-06 -3.51238e-18)
(0.0210315 9.27946e-06 -3.2229e-18)
(0.0211208 9.14317e-06 -3.08282e-18)
(0.0212089 9.00952e-06 -1.3169e-18)
(0.0212956 8.87844e-06 -2.67519e-18)
(0.0213811 8.74987e-06 -1.0084e-18)
(0.0214654 8.62374e-06 -2.46319e-18)
(0.0215485 8.49996e-06 -7.32987e-19)
(0.0216304 8.37852e-06 -1.95253e-18)
(0.0217111 8.25931e-06 -2.29316e-18)
(0.0217907 8.1423e-06 -1.87972e-18)
(0.0218691 8.02744e-06 -3.93847e-20)
(0.0219465 7.91465e-06 -1.43306e-18)
(0.0220228 7.80389e-06 -1.62544e-18)
(0.0220981 7.69512e-06 -1.07482e-18)
(0.0221723 7.58826e-06 5.2107e-20)
(0.0222454 7.48329e-06 -9.78172e-19)
(0.0223176 7.38014e-06 -7.11405e-19)
(0.0223888 7.27877e-06 -3.50326e-19)
(0.022459 7.17914e-06 9.8496e-19)
(0.0225282 7.08119e-06 -2.97254e-19)
(0.0225966 6.9849e-06 1.01653e-18)
(0.022664 6.89021e-06 1.99057e-19)
(0.0227305 6.79708e-06 9.08313e-19)
(0.0227961 6.70548e-06 3.24323e-19)
(0.0228608 6.61535e-06 2.02712e-19)
(0.0229246 6.52666e-06 3.8696e-19)
(0.0229876 6.43938e-06 7.95339e-19)
(0.0230498 6.35347e-06 1.8782e-18)
(0.0231111 6.2689e-06 1.13654e-18)
(0.0231717 6.18562e-06 2.14608e-18)
(0.0232314 6.10361e-06 1.90994e-18)
(0.0232903 6.02283e-06 2.39985e-18)
(0.0233485 5.94326e-06 1.59329e-18)
(0.0234059 5.86486e-06 1.75385e-18)
(0.0234626 5.78761e-06 2.09447e-18)
(0.0235185 5.7115e-06 2.89267e-18)
(0.0235737 5.63651e-06 2.31053e-18)
(0.0236281 5.56262e-06 2.43947e-18)
(0.0236819 5.48983e-06 2.49277e-18)
(0.0237349 5.41818e-06 3.26962e-18)
(0.0237873 5.34768e-06 2.85022e-18)
(0.023839 5.27849e-06 3.16929e-18)
(0.02389 5.21067e-06 3.22409e-18)
(0.0239404 5.1445e-06 3.80932e-18)
(0.0239901 5.08015e-06 3.55249e-18)
(0.0240393 5.01879e-06 3.9778e-18)
(0.0240878 4.95973e-06 3.73042e-18)
(0.0241358 4.90924e-06 3.84081e-18)
(0.0241834 4.85788e-06 4.45529e-18)
(0.0242306 4.84767e-06 4.20276e-18)
(0.0242774 4.7937e-06 4.23068e-18)
(0.0243254 5.02026e-06 4.36162e-18)
(0.0243715 4.78404e-06 4.45123e-18)
(0.0244304 6.89002e-06 4.46666e-18)
(0.0244648 3.97451e-06 4.64372e-18)
(0.0246399 2.19756e-05 4.7466e-18)
)
;

boundaryField
{
    inlet
    {
        type            uniformFixedValue;
        uniformValue    constant (1 0 0);
        value           nonuniform 0();
    }
    outlet
    {
        type            pressureInletOutletVelocity;
        value           nonuniform List<vector> 6((0.263749 0.000671364 5.30962e-17) (0.216877 0.00049915 4.34508e-17) (0.169552 0.00034287 3.37508e-17) (0.121754 0.00020482 2.40479e-17) (0.0734606 9.24124e-05 1.43685e-17) (0.0246399 2.19756e-05 4.7466e-18));
    }
    wall
    {
        type            fixedValue;
        value           uniform (0 0 0);
    }
    wedge1
    {
        type            wedge;
    }
    wedge2
    {
        type            wedge;
    }
    axis
    {
        type            empty;
    }
    procBoundary47to41
    {
        type            processor;
        value           nonuniform List<vector> 
68
(
(0.30262 0.000697728 3.81738e-17)
(0.303173 0.00068896 3.94706e-17)
(0.303719 0.0006804 3.96932e-17)
(0.304259 0.000672091 4.20662e-17)
(0.304792 0.000664115 4.31105e-17)
(0.305319 0.000656581 4.60776e-17)
(0.30584 0.00064974 4.8597e-17)
(0.306355 0.00064386 5.0428e-17)
(0.306867 0.000639911 5.29484e-17)
(0.307373 0.000638407 5.51588e-17)
(0.307884 0.000643795 5.70332e-17)
(0.308378 0.000655183 5.85962e-17)
(0.308928 0.00069381 5.92621e-17)
(0.309336 0.000736187 6.13696e-17)
(0.310182 0.000858314 6.26572e-17)
(0.220615 0.00103592 -6.05564e-17)
(0.221597 0.00102023 -5.66752e-17)
(0.222564 0.00100485 -5.22166e-17)
(0.223517 0.000989787 -5.14083e-17)
(0.224455 0.000975022 -5.54664e-17)
(0.22538 0.00096055 -5.22906e-17)
(0.226292 0.000946364 -5.55866e-17)
(0.22719 0.000932455 -5.18698e-17)
(0.228075 0.000918817 -5.2461e-17)
(0.228947 0.000905442 -4.54017e-17)
(0.229807 0.000892324 -3.99029e-17)
(0.230654 0.000879455 -3.80861e-17)
(0.23149 0.000866831 -3.84515e-17)
(0.232313 0.000854443 -4.13469e-17)
(0.233125 0.000842287 -3.85389e-17)
(0.233926 0.000830356 -4.02625e-17)
(0.234715 0.000818644 -3.59067e-17)
(0.235494 0.000807146 -3.62953e-17)
(0.236261 0.000795857 -2.96446e-17)
(0.237018 0.000784771 -2.48132e-17)
(0.237765 0.000773883 -2.38675e-17)
(0.238501 0.000763188 -2.59262e-17)
(0.239228 0.000752681 -2.14663e-17)
(0.239944 0.000742358 -1.6624e-17)
(0.240651 0.000732214 -1.62816e-17)
(0.241348 0.000722244 -1.83974e-17)
(0.242036 0.000712444 -1.38091e-17)
(0.242714 0.000702809 -9.76955e-18)
(0.243384 0.000693336 -8.6796e-18)
(0.244044 0.00068402 -1.08913e-17)
(0.244696 0.000674858 -9.02755e-18)
(0.245339 0.000665845 -1.03643e-17)
(0.245974 0.000656979 -6.5697e-18)
(0.2466 0.000648255 -6.10411e-18)
(0.247218 0.000639669 -9.59703e-19)
(0.247828 0.000631219 3.4024e-18)
(0.24843 0.0006229 5.40818e-18)
(0.249024 0.00061471 6.54689e-18)
(0.24961 0.000606646 5.66073e-18)
(0.250189 0.000598705 7.54626e-18)
(0.25076 0.000590883 7.54146e-18)
(0.251324 0.000583178 9.78495e-18)
(0.251881 0.000575588 1.07903e-17)
(0.25243 0.00056811 1.49811e-17)
(0.252973 0.000560741 1.85096e-17)
(0.253508 0.00055348 2.00588e-17)
(0.254036 0.000546326 1.96277e-17)
(0.254558 0.000539277 2.26713e-17)
(0.255073 0.000532332 2.56577e-17)
(0.255582 0.000525492 2.69213e-17)
(0.256084 0.000518759 2.69521e-17)
(0.256579 0.000512137 2.96368e-17)
(0.256579 0.000512137 2.96368e-17)
)
;
    }
    procBoundary47to46
    {
        type            processor;
        value           nonuniform List<vector> 5((0.179508 0.000713151 -4.737e-17) (0.139492 0.000434919 -3.61861e-17) (0.0995524 0.000220481 -2.5466e-17) (0.0596756 7.59741e-05 -1.46717e-17) (0.0198482 1.11492e-05 -4.27533e-18));
    }
}


// ************************************************************************* //
