/*--------------------------------*- C++ -*----------------------------------*\
  =========                 |
  \\      /  F ield         | OpenFOAM: The Open Source CFD Toolbox
   \\    /   O peration     | Website:  https://openfoam.org
    \\  /    A nd           | Version:  7
     \\/     M anipulation  |
\*---------------------------------------------------------------------------*/
FoamFile
{
    version     2.0;
    format      ascii;
    class       volVectorField;
    location    "20.99993";
    object      U;
}
// * * * * * * * * * * * * * * * * * * * * * * * * * * * * * * * * * * * * * //

dimensions      [0 1 -1 0 0 0 0];

internalField   nonuniform List<vector> 
23200
(
(-0.000351434 0.000426013 -1.71312e-21)
(-0.0019088 0.00104118 -6.65427e-21)
(-0.00498976 0.00146221 1.25003e-21)
(-0.00897085 0.00171624 4.89262e-21)
(-0.0134587 0.00182416 2.13924e-21)
(-0.0181444 0.00180498 -5.33856e-21)
(-0.0227235 0.00167687 -1.72765e-21)
(-0.0269148 0.00145648 -6.99644e-22)
(-0.0304663 0.00115874 -6.40697e-21)
(-0.0331524 0.000796868 -1.22451e-21)
(-0.0347734 0.000382439 -7.33349e-21)
(-0.035154 -7.42536e-05 7.57664e-22)
(-0.0341427 -0.000563534 -2.44936e-21)
(-0.0316143 -0.00107507 4.35016e-21)
(-0.027476 -0.00159595 -5.49077e-21)
(-0.0216804 -0.0021076 -5.80119e-21)
(-0.0142495 -0.00258122 -1.66386e-21)
(-0.00533921 -0.00297254 8.81236e-21)
(0.00472987 -0.00323016 -7.32985e-21)
(0.0157197 -0.00326903 -4.25362e-22)
(-0.000412239 0.00126796 -1.49217e-21)
(-0.0020363 0.00309777 -4.71284e-21)
(-0.00511889 0.00434927 4.16792e-21)
(-0.00904702 0.00510307 1.00977e-20)
(-0.0134325 0.00542135 1.80037e-21)
(-0.0179698 0.00536082 3.46556e-22)
(-0.0223578 0.00497566 -3.71779e-21)
(-0.0263183 0.00431556 2.02506e-21)
(-0.0296014 0.00342512 -1.18539e-20)
(-0.0319836 0.0023438 7.51695e-21)
(-0.0332666 0.0011062 2.71845e-20)
(-0.0332759 -0.000256925 -4.55076e-21)
(-0.0318609 -0.00171666 6.64227e-21)
(-0.0288968 -0.0032425 -4.03414e-21)
(-0.0242906 -0.00479578 1.02042e-20)
(-0.0179944 -0.00632129 -1.15871e-21)
(-0.0100288 -0.0077331 5.54057e-21)
(-0.000556129 -0.00889895 -3.28839e-20)
(0.0101 -0.00966277 3.25665e-21)
(0.0218429 -0.00976087 -1.30645e-20)
(-0.000531174 0.00207994 8.18794e-21)
(-0.00228452 0.00507765 8.95416e-21)
(-0.00536755 0.00712513 -2.05787e-21)
(-0.00918779 0.00835398 -4.66593e-21)
(-0.0133673 0.00886628 -1.83948e-21)
(-0.0176072 0.00875546 6.79027e-21)
(-0.0216129 0.00811077 1.01829e-20)
(-0.0251118 0.00701419 -2.28018e-20)
(-0.0278589 0.00553936 6.51325e-21)
(-0.0296341 0.00375147 -8.42568e-21)
(-0.030242 0.00170773 -1.43618e-20)
(-0.0295102 -0.00054108 -2.74445e-21)
(-0.0272897 -0.00294733 -4.39856e-21)
(-0.0234562 -0.00546078 -9.87212e-21)
(-0.0179168 -0.00801823 1.10791e-20)
(-0.0106227 -0.0105291 -1.05929e-20)
(-0.00159188 -0.0128518 1.32204e-21)
(0.00900061 -0.0147674 3.22569e-20)
(0.0208228 -0.0160111 -2.22239e-20)
(0.0340637 -0.0161123 1.93703e-20)
(-0.000702964 0.00284284 -6.01936e-21)
(-0.00264011 0.00693183 1.20102e-20)
(-0.00571671 0.0097186 -1.75256e-20)
(-0.00937029 0.0113818 8.2788e-21)
(-0.0132377 0.0120613 -4.60706e-20)
(-0.0170298 0.0118854 -2.86956e-20)
(-0.0204616 0.0109771 1.84072e-20)
(-0.0232688 0.00944944 4.4988e-20)
(-0.0252131 0.00740399 -1.87374e-20)
(-0.0260799 0.00493091 -1.29248e-20)
(-0.025678 0.00210928 -1.83214e-20)
(-0.0238382 -0.000990728 3.74555e-20)
(-0.0204136 -0.00430357 4.57259e-20)
(-0.0152812 -0.00776011 -3.59219e-20)
(-0.00834868 -0.0112745 -2.87783e-20)
(0.000433728 -0.0147229 1.0325e-20)
(0.0110517 -0.0179103 -2.29847e-20)
(0.0233112 -0.020534 -1.24129e-21)
(0.0368621 -0.0222145 3.64972e-20)
(0.0523288 -0.0222242 6.22863e-21)
(-0.000919892 0.00353882 2.41416e-20)
(-0.00308345 0.00861436 8.06766e-21)
(-0.0061384 0.0120628 2.81592e-20)
(-0.00956072 0.0141047 -8.71851e-21)
(-0.0130061 0.0149143 4.51094e-20)
(-0.016198 0.0146532 2.76755e-20)
(-0.0188636 0.0134758 -3.38586e-20)
(-0.0207494 0.0115244 -4.37989e-20)
(-0.0216256 0.00892752 4.05217e-20)
(-0.0212851 0.00579894 -1.15233e-20)
(-0.019542 0.00223877 1.69485e-20)
(-0.0162314 -0.00166427 -6.69574e-20)
(-0.0112095 -0.00582771 2.29511e-20)
(-0.0043554 -0.0101651 8.08439e-21)
(0.00442207 -0.0145698 4.79316e-21)
(0.015173 -0.018888 1.75502e-20)
(0.0278866 -0.0228744 4.45822e-20)
(0.0423444 -0.0261469 1.04973e-21)
(0.0581619 -0.0282053 -1.27008e-20)
(0.0765543 -0.0279905 -1.64884e-20)
(-0.00117201 0.00415173 1.68698e-20)
(-0.00358914 0.0100835 8.80909e-21)
(-0.00659621 0.0140968 -4.58974e-20)
(-0.00971494 0.0164475 -2.80292e-20)
(-0.0126234 0.0173412 -1.11067e-20)
(-0.0150597 0.0169694 3.774e-20)
(-0.0167658 0.015516 4.53074e-20)
(-0.0175008 0.0131507 -5.73554e-21)
(-0.0170458 0.0100268 -1.09639e-20)
(-0.015202 0.00628062 -9.50014e-21)
(-0.0117905 0.00203214 -3.03108e-20)
(-0.00665199 -0.0026124 6.92071e-20)
(0.000353252 -0.00755467 -6.1026e-22)
(0.00934307 -0.0126926 -2.65537e-20)
(0.0204059 -0.0179012 -1.79683e-21)
(0.0335908 -0.0230006 5.44475e-21)
(0.04889 -0.0277003 1.56284e-20)
(0.0660548 -0.0315437 -5.75351e-20)
(0.0846427 -0.0339062 2.59556e-20)
(0.10662 -0.0332958 -6.47875e-21)
(-0.00144742 0.00466751 -2.83882e-20)
(-0.00412662 0.0113025 1.72172e-20)
(-0.00704613 0.0157666 2.09551e-20)
(-0.00977933 0.0183439 1.81498e-20)
(-0.0120294 0.0192671 4.0057e-20)
(-0.0135509 0.018755 5.96434e-21)
(-0.0141024 0.017018 -5.7082e-21)
(-0.0134578 0.0142506 1.75152e-20)
(-0.0114102 0.0106294 -2.67982e-20)
(-0.00777098 0.00631164 -2.93546e-21)
(-0.00236946 0.00143589 1.27981e-20)
(0.00494709 -0.00387547 -5.8649e-20)
(0.0143127 -0.00950912 -1.90068e-20)
(0.0258405 -0.0153491 1.7913e-20)
(0.0396144 -0.0212553 -4.22342e-20)
(0.0556796 -0.0270259 4.65145e-20)
(0.0740296 -0.0323311 5.68836e-21)
(0.0943801 -0.0366483 -6.75972e-21)
(0.116198 -0.0392278 -6.99115e-20)
(0.142367 -0.0380144 3.99246e-20)
(-0.00173256 0.00507443 -1.15018e-20)
(-0.00466086 0.0122407 -1.27672e-20)
(-0.00743736 0.0170269 -6.18773e-20)
(-0.0096916 0.0197379 -2.81024e-20)
(-0.0111539 0.020629 -9.6565e-20)
(-0.0115965 0.0199432 -8.09167e-21)
(-0.0107963 0.0179143 -4.9131e-20)
(-0.00854322 0.0147595 -3.53142e-20)
(-0.00464397 0.0106762 7.81056e-20)
(0.00107866 0.00584075 1.29846e-20)
(0.00878561 0.000409087 3.33204e-20)
(0.0186215 -0.00548112 4.14167e-20)
(0.0307132 -0.0117031 -1.47157e-20)
(0.0451665 -0.0181287 -4.651e-20)
(0.0620582 -0.0246054 4.20917e-20)
(0.0814257 -0.0309149 3.88112e-20)
(0.10326 -0.0366953 -3.78091e-20)
(0.127236 -0.0413683 5.22242e-20)
(0.152689 -0.0440664 7.8744e-20)
(0.183582 -0.0420097 2.15302e-20)
(-0.00201256 0.00536332 3.01674e-20)
(-0.0051531 0.0128736 3.85599e-20)
(-0.00771329 0.0178415 1.90211e-20)
(-0.00938193 0.0205846 4.84702e-20)
(-0.0099176 0.0213764 2.26096e-20)
(-0.00911139 0.020481 6.08701e-20)
(-0.00675925 0.0181526 5.29201e-20)
(-0.00266859 0.014628 -2.1282e-20)
(0.00333907 0.0101232 -3.40301e-20)
(0.0114282 0.00483222 6.20593e-20)
(0.0217486 -0.00107344 -3.86682e-20)
(0.034435 -0.00744162 2.84871e-20)
(0.0496045 -0.0141335 3.82375e-20)
(0.0673529 -0.0210103 4.15703e-20)
(0.0877454 -0.02791 -1.21915e-19)
(0.110806 -0.0346032 -5.61427e-20)
(0.136518 -0.0407043 -1.45079e-20)
(0.164511 -0.0455932 6.26068e-20)
(0.193937 -0.0483022 -1.32655e-19)
(0.229993 -0.0451354 -4.86847e-20)
(-0.00227153 0.00552764 4.57242e-20)
(-0.00556165 0.0131836 -5.75143e-20)
(-0.00781252 0.0181841 -6.17978e-20)
(-0.00877401 0.0208515 -6.49644e-20)
(-0.00823355 0.0214733 -4.08332e-20)
(-0.00600131 0.0203314 -9.76603e-21)
(-0.00189333 0.017697 -6.79237e-20)
(0.00426465 0.0138239 8.53032e-20)
(0.0126352 0.00894456 2.45725e-20)
(0.0233685 0.00326839 2.43014e-20)
(0.0366018 -0.0030186 -9.84763e-20)
(0.0524573 -0.00975131 1.52133e-20)
(0.0710396 -0.0167796 -1.17166e-20)
(0.0924303 -0.0239556 -4.4686e-21)
(0.116678 -0.0311104 -4.65372e-20)
(0.143785 -0.038009 5.90467e-20)
(0.173718 -0.0442519 -1.292e-20)
(0.206057 -0.0491934 -1.41325e-19)
(0.239716 -0.0517979 1.93646e-20)
(0.281255 -0.0472364 9.13576e-20)
(-0.00249293 0.00556357 3.33347e-20)
(-0.00584261 0.01316 -1.11074e-20)
(-0.00766992 0.0180387 6.4753e-20)
(-0.00778627 0.0205191 3.28568e-20)
(-0.00600802 0.0208987 4.82224e-20)
(-0.00216447 0.0194737 4.91527e-21)
(0.00390778 0.0165296 9.24366e-20)
(0.0123639 0.0123341 -8.43043e-20)
(0.0233492 0.00713387 -3.81226e-20)
(0.0369984 0.00115173 -1.50481e-20)
(0.0534338 -0.00541332 9.82015e-20)
(0.0727624 -0.0123844 -1.71661e-20)
(0.0950722 -0.0196009 1.41331e-20)
(0.120425 -0.0269069 5.93074e-20)
(0.148846 -0.0341294 5.62714e-20)
(0.180306 -0.041033 -9.68969e-20)
(0.214743 -0.047214 -5.29974e-20)
(0.251684 -0.0520207 2.69426e-20)
(0.289741 -0.0543992 8.43981e-20)
(0.336936 -0.0481526 -1.06451e-20)
(-0.00265985 0.00546987 -4.39596e-20)
(-0.00595063 0.012799 -2.57048e-20)
(-0.00721754 0.0173999 -3.66073e-20)
(-0.00633314 0.0195815 -3.54403e-20)
(-0.00314213 0.0196473 4.1193e-20)
(0.00250716 0.0179053 -7.96666e-20)
(0.0107572 0.014652 7.87425e-20)
(0.0217434 0.0101663 5.59017e-21)
(0.0355927 0.00470645 -6.76513e-20)
(0.0524224 -0.00149307 -1.55316e-20)
(0.0723371 -0.00822197 -6.28319e-20)
(0.0954251 -0.0152926 2.89896e-20)
(0.121752 -0.022535 -1.95618e-20)
(0.151355 -0.0297862 -1.15433e-19)
(0.184223 -0.0368707 5.51732e-21)
(0.220287 -0.043558 3.44232e-20)
(0.259439 -0.0494507 7.45887e-20)
(0.301144 -0.0539114 1.30088e-19)
(0.343662 -0.0559367 2.07569e-20)
(0.396509 -0.0477234 -1.2753e-19)
(-0.00275517 0.00524789 -6.21039e-20)
(-0.00583963 0.0121039 -9.80877e-21)
(-0.00638579 0.0162726 1.30084e-19)
(-0.00432623 0.0180461 -5.98575e-20)
(0.000466735 0.0177303 3.17625e-21)
(0.00812603 0.0156422 -5.84654e-20)
(0.0187731 0.0120863 -5.61879e-20)
(0.0325224 0.00735001 9.90979e-21)
(0.0494815 0.00170073 3.01654e-20)
(0.0697475 -0.00461746 1.10986e-19)
(0.0934044 -0.0113846 -3.51814e-20)
(0.120517 -0.0184038 -1.4947e-19)
(0.151122 -0.0254964 1.05659e-19)
(0.185221 -0.0324935 9.01653e-20)
(0.22276 -0.0392189 5.79813e-20)
(0.26361 -0.0454511 1.43977e-19)
(0.307602 -0.050809 -4.49631e-20)
(0.354127 -0.0546912 -2.03708e-19)
(0.401054 -0.0562297 3.2815e-20)
(0.459342 -0.0457949 3.62271e-20)
(-0.00276192 0.00490125 -3.28533e-20)
(-0.00546328 0.0110842 4.43913e-20)
(-0.00510424 0.0146721 -4.58524e-20)
(-0.00167569 0.015934 7.33229e-20)
(0.00492329 0.0151754 -8.54474e-20)
(0.0148071 0.0127192 7.93342e-20)
(0.0280758 0.00887549 1.51382e-20)
(0.0448222 0.00393751 -8.63752e-20)
(0.065132 -0.00182076 7.25512e-20)
(0.0890799 -0.00814789 -7.82872e-20)
(0.116724 -0.0148162 9.66848e-20)
(0.1481 -0.0216207 5.186e-20)
(0.183208 -0.0283759 4.20187e-20)
(0.222004 -0.034908 -6.20618e-20)
(0.264374 -0.0410414 -9.27633e-21)
(0.310115 -0.0465672 -7.55105e-20)
(0.358972 -0.0511291 4.98288e-20)
(0.41025 -0.0541836 7.67544e-22)
(0.461411 -0.055092 -8.42153e-20)
(0.524687 -0.0422273 3.63606e-20)
(-0.00266332 0.00443577 7.67983e-21)
(-0.00477561 0.00975568 2.89851e-20)
(-0.0033026 0.0126235 6.52218e-21)
(0.0017085 0.0132799 2.49615e-20)
(0.0103326 0.0120263 5.88403e-20)
(0.0226658 0.00919024 5.59406e-20)
(0.0387859 0.00508411 4.05482e-20)
(0.0587629 4.35621e-06 5.09286e-20)
(0.0826582 -0.00577092 -1.02166e-19)
(0.11052 -0.0119854 -1.55717e-20)
(0.142375 -0.0184057 -1.60619e-19)
(0.178222 -0.0248213 -4.95284e-20)
(0.218015 -0.0310413 -5.55727e-20)
(0.26165 -0.0368887 9.14219e-20)
(0.30894 -0.0421907 -1.39353e-19)
(0.359587 -0.0467532 2.74775e-20)
(0.413223 -0.050252 9.29024e-21)
(0.46905 -0.0522213 1.27916e-19)
(0.524146 -0.052343 -6.01413e-20)
(0.59169 -0.0369096 4.38389e-20)
(-0.00244298 0.00385923 1.01915e-19)
(-0.00373148 0.00813989 3.73174e-20)
(-0.000911572 0.0101615 6.94811e-20)
(0.00591518 0.0101309 6.38828e-20)
(0.0167983 0.00834323 1.05944e-20)
(0.0318151 0.005128 -1.38531e-19)
(0.0510207 0.000797694 -1.01607e-19)
(0.0744597 -0.00435089 -9.26861e-20)
(0.102166 -0.0100382 8.69717e-20)
(0.134156 -0.0160058 5.2798e-20)
(0.17042 -0.0220174 1.84971e-19)
(0.210908 -0.0278596 -1.50134e-19)
(0.255518 -0.0333389 5.56037e-20)
(0.304069 -0.0382783 -1.03285e-19)
(0.356284 -0.0425095 7.53172e-20)
(0.41175 -0.0458557 -2.69715e-20)
(0.46996 -0.0480291 3.33156e-20)
(0.529984 -0.0486615 -1.17413e-19)
(0.588604 -0.0478207 9.62698e-20)
(0.659402 -0.0297808 3.58006e-20)
(-0.00208498 0.0031812 -1.42055e-19)
(-0.00228698 0.00626381 6.03892e-20)
(0.00213623 0.0073297 -9.48661e-20)
(0.0110306 0.00654667 -8.98891e-20)
(0.0244205 0.00420146 3.35522e-20)
(0.0423638 0.00062335 1.66727e-19)
(0.064891 -0.0038777 -1.22178e-19)
(0.092019 -0.00900736 1.53446e-20)
(0.12375 -0.0144877 -3.46538e-20)
(0.160062 -0.0200611 -3.31389e-20)
(0.200899 -0.0254922 8.82418e-20)
(0.246153 -0.0305683 1.90539e-19)
(0.295649 -0.0350976 -7.26757e-21)
(0.349118 -0.038907 1.55469e-20)
(0.406169 -0.041837 -6.0027e-21)
(0.466256 -0.0437292 -1.0008e-19)
(0.528707 -0.0443334 9.61878e-20)
(0.592428 -0.0433987 1.46901e-19)
(0.654063 -0.0413735 3.93628e-20)
(0.726774 -0.0208108 -6.74623e-20)
(-0.0015739 0.00241283 -3.76637e-20)
(-0.000399839 0.00415939 1.24866e-19)
(0.00590547 0.00417996 -3.60651e-21)
(0.017137 0.00259866 8.78016e-20)
(0.0332937 -0.000308911 4.10886e-20)
(0.0544125 -0.00421556 4.04706e-20)
(0.0804974 -0.00881663 -5.06331e-20)
(0.111533 -0.0138233 8.51893e-20)
(0.147485 -0.0189627 1.39411e-20)
(0.188286 -0.0239819 -5.12488e-20)
(0.233821 -0.0286507 -2.88911e-20)
(0.283913 -0.0327623 -1.32526e-19)
(0.338296 -0.0361329 -1.31598e-19)
(0.396596 -0.0385994 2.98937e-20)
(0.458292 -0.0400171 -1.17565e-20)
(0.522686 -0.0402472 -4.27469e-20)
(0.58892 -0.039076 -1.30545e-19)
(0.655699 -0.0363771 -1.53541e-19)
(0.719737 -0.0327948 -1.69785e-19)
(0.792525 -0.009895 1.72524e-20)
(-0.000894946 0.00156679 6.75658e-21)
(0.00197019 0.00186323 -1.13924e-19)
(0.0104571 0.000772165 -1.07847e-19)
(0.024311 -0.00163094 -7.23939e-20)
(0.0435045 -0.00508414 1.30921e-19)
(0.0680517 -0.0092646 -2.82378e-19)
(0.0979265 -0.0138759 5.71274e-20)
(0.133078 -0.0186382 -3.39323e-20)
(0.173425 -0.0232873 9.53021e-20)
(0.218846 -0.0275802 1.15963e-20)
(0.269158 -0.0312971 -1.45909e-19)
(0.324095 -0.0342441 6.18004e-20)
(0.383289 -0.0362533 1.85109e-20)
(0.446237 -0.0371815 6.01047e-20)
(0.512275 -0.0369074 -6.41702e-20)
(0.580545 -0.0353171 1.08616e-19)
(0.649998 -0.0322346 -4.58246e-20)
(0.719142 -0.0276225 2.20491e-20)
(0.784955 -0.0218255 -1.59346e-20)
(0.855182 0.00287817 -5.87642e-20)
(-3.40266e-05 0.000657111 1.24145e-19)
(0.00486086 -0.000583711 -2.42873e-20)
(0.0158475 -0.00282657 -1.5088e-20)
(0.0326221 -0.00604981 8.84395e-20)
(0.0551295 -0.010008 -4.4493e-20)
(0.083358 -0.0143853 2.56976e-19)
(0.117247 -0.0188966 1.16343e-20)
(0.156703 -0.0232751 7.83387e-20)
(0.201592 -0.0272703 -1.33223e-19)
(0.251726 -0.030654 -1.01387e-19)
(0.306837 -0.0332246 1.48125e-19)
(0.366557 -0.0348096 -1.20766e-19)
(0.430395 -0.0352675 9.75001e-20)
(0.497703 -0.0344879 -1.55866e-20)
(0.56766 -0.0323879 2.84861e-19)
(0.639252 -0.0288932 -4.70541e-21)
(0.71127 -0.0238809 9.46363e-20)
(0.782163 -0.0173161 1.32478e-19)
(0.849574 -0.00862179 7.72421e-20)
(0.915286 0.0154101 1.07266e-19)
(0.00102217 -0.000300826 6.09677e-20)
(0.00830695 -0.00313639 -1.40291e-19)
(0.0221273 -0.00654233 4.79072e-20)
(0.0421309 -0.0105565 7.8276e-20)
(0.0682326 -0.0149533 6.59137e-20)
(0.100391 -0.0194266 -1.88505e-19)
(0.138505 -0.0237068 8.52486e-20)
(0.182433 -0.0275446 3.88768e-20)
(0.231976 -0.0307085 1.66768e-20)
(0.286866 -0.0329926 6.90533e-20)
(0.346736 -0.0342215 -3.91309e-20)
(0.411098 -0.0342547 1.23902e-19)
(0.479316 -0.0329907 -1.01687e-19)
(0.550584 -0.0303678 -1.03305e-19)
(0.623912 -0.0263616 -1.7513e-19)
(0.698128 -0.0209662 -5.40917e-20)
(0.771911 -0.0141522 -1.1543e-19)
(0.843853 -0.00586413 -1.24747e-19)
(0.912958 0.00521643 -1.11076e-19)
(0.975897 0.0220534 -6.75126e-20)
(0.00228599 -0.00129033 9.42957e-20)
(0.0123397 -0.00574582 -2.56079e-20)
(0.0293404 -0.010295 -6.62894e-20)
(0.0528874 -0.0150414 -2.13893e-19)
(0.0828627 -0.0197831 -1.64431e-20)
(0.11919 -0.0242273 2.27832e-19)
(0.161723 -0.0281245 -5.09582e-20)
(0.210259 -0.0312481 4.44037e-20)
(0.264526 -0.0333925 1.05276e-19)
(0.32416 -0.034382 3.12526e-20)
(0.388679 -0.0340777 -2.02144e-19)
(0.457455 -0.0323836 -4.9837e-20)
(0.529691 -0.0292526 -3.47239e-20)
(0.604405 -0.0246896 9.75591e-20)
(0.680429 -0.0187509 2.7604e-19)
(0.75643 -0.0115308 -8.65455e-20)
(0.830974 -0.00314688 -5.61837e-20)
(0.902675 0.0062648 1.40722e-19)
(0.971175 0.017587 7.46757e-20)
(1.03079 0.0252754 2.9159e-20)
(0.00376862 -0.00229339 -1.01886e-19)
(0.0169861 -0.00835935 7.58369e-20)
(0.0375226 -0.0139988 -1.56185e-19)
(0.0649292 -0.0193878 1.78662e-20)
(0.0990513 -0.0243527 1.09285e-19)
(0.139772 -0.0286185 -2.32818e-19)
(0.186892 -0.0319608 -2.442e-19)
(0.240138 -0.0341823 4.53954e-21)
(0.29915 -0.0351113 -1.45774e-19)
(0.363456 -0.0346118 -1.02613e-19)
(0.432437 -0.0325928 1.6248e-19)
(0.505311 -0.0290164 2.5656e-19)
(0.581103 -0.0239055 -1.00776e-19)
(0.658645 -0.0173487 -6.2352e-20)
(0.736583 -0.00950146 -1.55137e-19)
(0.813426 -0.000577127 9.21086e-21)
(0.887621 0.00914538 -6.40469e-21)
(0.957718 0.0193128 -5.47596e-21)
(1.0234 0.0304536 1.64374e-20)
(1.07856 0.0341517 1.9913e-19)
(0.00547985 -0.00329068 1.02508e-19)
(0.0222681 -0.0109208 1.15e-19)
(0.0467004 -0.017563 1.51279e-19)
(0.0782795 -0.0234734 5.98409e-20)
(0.11681 -0.0285118 -8.32109e-20)
(0.162128 -0.0324263 -5.83933e-20)
(0.213972 -0.0350239 -8.4022e-21)
(0.271987 -0.0361444 8.42376e-20)
(0.335712 -0.0356586 7.75955e-20)
(0.404548 -0.0334816 4.91931e-20)
(0.477728 -0.029583 -6.24458e-21)
(0.554295 -0.0239974 -1.23768e-19)
(0.633089 -0.016833 9.94918e-20)
(0.712748 -0.00827698 -1.53072e-20)
(0.791742 0.00140383 4.54263e-20)
(0.868435 0.0118712 1.901e-20)
(0.94118 0.0227023 -1.56545e-20)
(1.00847 0.0333894 3.85996e-20)
(1.06982 0.0442494 -2.79135e-20)
(1.11969 0.0464566 -2.05289e-19)
(0.00742774 -0.00426157 5.37841e-20)
(0.0282019 -0.0133707 -2.07703e-19)
(0.0568898 -0.0208925 1.02769e-19)
(0.0929457 -0.0271711 4.2667e-20)
(0.136129 -0.0321061 -1.26399e-19)
(0.186222 -0.0354747 1.24226e-19)
(0.242889 -0.0371228 6.97532e-20)
(0.305683 -0.036936 -1.6823e-19)
(0.374029 -0.0348384 2.0715e-20)
(0.447184 -0.0308079 -3.21509e-20)
(0.524218 -0.0248887 7.67211e-20)
(0.603991 -0.0172027 -5.78263e-20)
(0.685149 -0.00795733 -8.79086e-20)
(0.766147 0.00254958 1.30354e-19)
(0.845295 0.0139338 -6.37377e-20)
(0.920847 0.0257368 2.63207e-20)
(0.991107 0.0374194 -6.14173e-20)
(1.05458 0.0483833 3.5396e-22)
(1.11069 0.0587976 -5.29583e-20)
(1.15478 0.0605072 5.81192e-20)
(0.00961832 -0.00518414 -1.35398e-20)
(0.034797 -0.0156468 -6.15022e-20)
(0.0680945 -0.0238887 -6.94509e-20)
(0.108917 -0.0303509 4.01992e-20)
(0.156975 -0.0349797 -1.18614e-20)
(0.211987 -0.0375888 7.608e-20)
(0.273533 -0.0380714 5.4263e-20)
(0.341065 -0.0363691 5.19391e-20)
(0.413874 -0.0324707 1.70071e-20)
(0.491066 -0.0264303 4.52543e-20)
(0.571532 -0.0183811 7.72067e-20)
(0.653946 -0.00854606 1.66217e-20)
(0.736765 0.00275519 -3.86224e-20)
(0.818277 0.0151069 3.06755e-20)
(0.896667 0.0280071 9.59347e-20)
(0.970127 0.0408896 -1.75101e-19)
(1.03698 0.0531304 5.34354e-20)
(1.09584 0.0640959 6.50349e-20)
(1.14612 0.0738579 2.0524e-20)
(1.18422 0.0753697 4.16685e-20)
(0.0120551 -0.00603527 -2.16715e-20)
(0.042055 -0.0176842 1.34106e-19)
(0.0803051 -0.0264508 4.67918e-20)
(0.126165 -0.0328818 -1.45094e-19)
(0.179289 -0.0369782 -3.89913e-20)
(0.239324 -0.0385983 7.44608e-20)
(0.30576 -0.0376928 3.62223e-20)
(0.377928 -0.03427 1.2804e-19)
(0.454979 -0.0283965 -4.94238e-21)
(0.535852 -0.0202167 6.29687e-21)
(0.619259 -0.00996647 -6.55103e-20)
(0.703684 0.00201684 -1.03305e-19)
(0.787413 0.0152924 -1.13545e-20)
(0.868595 0.0293233 -6.48068e-20)
(0.945336 0.0434965 5.57915e-20)
(1.01583 0.057157 2.7013e-19)
(1.07851 0.0696305 1.04871e-19)
(1.13214 0.0802962 -1.02729e-19)
(1.1763 0.0891773 -5.12747e-20)
(1.20837 0.0904398 1.97545e-20)
(0.014739 -0.00679081 1.04002e-19)
(0.0499691 -0.0194163 -1.63613e-19)
(0.0934977 -0.0284765 -1.55568e-19)
(0.144639 -0.0346331 2.13392e-19)
(0.202987 -0.0379503 6.36495e-20)
(0.268107 -0.0383407 -4.03112e-20)
(0.339387 -0.0358229 -1.16901e-19)
(0.416031 -0.0304845 -1.45868e-19)
(0.497036 -0.0224833 9.86592e-20)
(0.58117 -0.0120678 1.77789e-20)
(0.666962 0.00040959 5.32902e-20)
(0.75272 0.0144869 4.44597e-20)
(0.83658 0.0295968 -3.40364e-21)
(0.916596 0.0450836 -2.99661e-20)
(0.990851 0.0602366 -5.99467e-20)
(1.05762 0.0743367 -1.6365e-19)
(1.11549 0.0866961 -6.45175e-20)
(1.16351 0.0967476 2.15834e-19)
(1.20147 0.104513 3.51365e-20)
(1.22764 0.105316 -5.28836e-20)
(0.0176672 -0.00742575 -1.0798e-19)
(0.0585228 -0.0207752 1.14639e-19)
(0.107633 -0.0298638 3.37368e-21)
(0.164268 -0.0354768 -4.80296e-20)
(0.227956 -0.0377514 -1.58687e-20)
(0.298175 -0.0366646 -1.3518e-20)
(0.3742 -0.0323147 -8.51915e-20)
(0.455098 -0.0248816 1.047e-19)
(0.539707 -0.0146282 -1.74314e-19)
(0.626619 -0.00192065 6.33889e-22)
(0.714189 0.0127607 -3.15557e-20)
(0.800568 0.0288219 -1.55447e-20)
(0.88378 0.0455685 3.67941e-20)
(0.961828 0.0622353 -8.40304e-20)
(1.03284 0.0780334 -4.54236e-21)
(1.09524 0.0922102 4.64508e-20)
(1.14785 0.104101 -1.15122e-19)
(1.19006 0.113229 6.01667e-23)
(1.22192 0.119656 5.49825e-22)
(1.24251 0.119743 9.32386e-20)
(0.0208339 -0.00791451 1.60354e-20)
(0.0676896 -0.0216931 3.15687e-20)
(0.122654 -0.0305123 6.13206e-20)
(0.184957 -0.0352901 -3.32062e-20)
(0.254058 -0.036246 -1.09256e-19)
(0.329338 -0.0334331 2.8802e-20)
(0.409952 -0.0270416 6.59788e-20)
(0.494822 -0.0173572 3.60631e-20)
(0.582624 -0.00476123 1.22975e-19)
(0.671781 0.01025 -3.40205e-20)
(0.760486 0.0270596 -2.04922e-20)
(0.846763 0.0449384 1.8036e-20)
(0.928564 0.0630706 -5.20687e-20)
(1.0039 0.0805968 -7.31479e-20)
(1.07103 0.0966758 -4.79746e-20)
(1.12855 0.110555 3.97767e-20)
(1.17563 0.121631 9.72197e-20)
(1.21199 0.129547 -4.72436e-20)
(1.23801 0.134439 -7.3457e-20)
(1.25343 0.133566 1.11245e-20)
(0.0242289 -0.00823136 2.70289e-20)
(0.0774318 -0.0221026 6.54692e-21)
(0.138489 -0.0303252 -8.16315e-20)
(0.206593 -0.0339571 1.08752e-19)
(0.28113 -0.0333109 2.44857e-20)
(0.361378 -0.0285271 -1.28676e-19)
(0.446367 -0.0199009 4.96345e-20)
(0.53487 -0.00783693 -6.56428e-20)
(0.625404 0.00715232 3.28668e-21)
(0.716232 0.0244306 1.09739e-20)
(0.805409 0.0432391 3.21663e-20)
(0.890868 0.062716 4.05249e-21)
(0.970539 0.0819355 1.46248e-19)
(1.04251 0.099966 5.82648e-20)
(1.10521 0.115945 -2.83912e-20)
(1.15753 0.129157 -3.244e-20)
(1.19895 0.139093 1.83703e-20)
(1.22959 0.145542 1.94164e-20)
(1.25014 0.14874 -3.20308e-20)
(1.26088 0.146708 -3.51769e-20)
(0.0278381 -0.0083508 -3.1892e-20)
(0.0877009 -0.021939 1.90397e-21)
(0.155048 -0.0292109 1.67527e-20)
(0.229039 -0.031372 -4.52696e-20)
(0.308982 -0.0288377 8.81028e-20)
(0.394051 -0.0218483 5.10114e-20)
(0.483145 -0.0108166 -5.17002e-20)
(0.574892 0.00372139 -3.47606e-20)
(0.667653 0.0211112 3.18887e-20)
(0.759551 0.0405696 -5.01721e-20)
(0.848533 0.0611955 3.81914e-20)
(0.932483 0.0820023 -6.33909e-22)
(1.00937 0.101972 1.47769e-21)
(1.07742 0.120129 -2.98174e-20)
(1.13529 0.135624 8.47657e-20)
(1.18219 0.147814 -7.27809e-21)
(1.21799 0.156319 3.58472e-20)
(1.24316 0.161089 -5.162e-20)
(1.25869 0.162475 3.91213e-20)
(1.2653 0.159139 -1.59848e-20)
(0.0316429 -0.00824809 5.17186e-20)
(0.0984365 -0.0211407 6.36021e-20)
(0.172223 -0.0270856 4.66667e-20)
(0.252135 -0.027441 -7.12991e-21)
(0.337403 -0.0227358 9.25954e-21)
(0.427091 -0.0133219 6.07753e-22)
(0.519969 0.000258501 1.11812e-19)
(0.614523 0.0173266 -3.35704e-20)
(0.708975 0.037078 2.40395e-20)
(0.801329 0.0585794 -1.23198e-19)
(0.889462 0.080792 1.8442e-20)
(0.97126 0.102619 5.64992e-20)
(1.04479 0.122974 -2.54519e-20)
(1.10846 0.14087 5.37963e-20)
(1.16123 0.155507 -7.03166e-20)
(1.20267 0.166349 9.6342e-20)
(1.233 0.173171 3.31407e-21)
(1.25306 0.176095 -3.19099e-20)
(1.26408 0.175596 1.17518e-21)
(1.26711 0.170864 4.711e-20)
(0.0356203 -0.00789977 -9.6401e-20)
(0.109567 -0.0196511 2.51132e-20)
(0.189892 -0.0238745 -1.03272e-20)
(0.275705 -0.0220854 -7.24356e-20)
(0.366161 -0.0149352 -2.68896e-20)
(0.460213 -0.00289893 -5.17915e-20)
(0.556507 0.0133407 -4.56994e-20)
(0.653395 0.0329535 -4.99229e-20)
(0.74898 0.0549799 5.22311e-20)
(0.841178 0.0783386 2.64592e-20)
(0.927839 0.101863 -7.89421e-20)
(1.0069 0.124366 -2.00419e-20)
(1.07659 0.144724 -9.61879e-21)
(1.13556 0.161973 -4.07693e-20)
(1.18309 0.175398 -7.00422e-21)
(1.21913 0.184605 -1.70076e-20)
(1.24426 0.189538 -6.88753e-20)
(1.25963 0.190498 3.31391e-20)
(1.26669 0.188078 4.05634e-20)
(1.26668 0.181907 -1.01208e-20)
(0.039743 -0.00728432 3.23724e-21)
(0.12101 -0.0174201 -4.51489e-20)
(0.207915 -0.0195148 2.11646e-20)
(0.299555 -0.0152434 -1.51513e-20)
(0.395007 -0.00538841 1.85931e-20)
(0.493119 0.0094417 8.53683e-20)
(0.592418 0.0284147 -3.72639e-20)
(0.691141 0.0505427 9.50576e-20)
(0.787293 0.0747108 4.90964e-21)
(0.878741 0.0996959 4.96374e-20)
(0.963353 0.124221 4.53236e-21)
(1.03918 0.147034 3.59101e-20)
(1.10464 0.167006 7.76074e-21)
(1.15869 0.183234 3.64235e-21)
(1.20097 0.195125 -5.47198e-20)
(1.23178 0.202448 9.72663e-21)
(1.25207 0.205334 5.0015e-20)
(1.26323 0.204256 2.36489e-21)
(1.26686 0.199916 -2.40597e-20)
(1.26433 0.192302 9.82909e-21)
(0.0439793 -0.00638268 1.14396e-20)
(0.132672 -0.0144054 3.59337e-20)
(0.226141 -0.0139572 3.91788e-20)
(0.323474 -0.00687267 -1.16187e-20)
(0.423678 0.00592733 5.19448e-20)
(0.525501 0.0236919 -1.07398e-20)
(0.627362 0.0454327 8.79512e-20)
(0.727402 0.0700022 -1.14252e-19)
(0.823561 0.0961332 -2.09549e-20)
(0.913694 0.122474 -2.13095e-20)
(0.995738 0.147658 -2.63401e-20)
(1.0679 0.1704 -6.42471e-21)
(1.12886 0.189603 9.51922e-21)
(1.17791 0.204461 -3.53414e-20)
(1.21502 0.214532 3.64722e-20)
(1.24089 0.219771 -1.59786e-20)
(1.25674 0.220497 -1.23554e-20)
(1.26418 0.217345 -1.13055e-20)
(1.26491 0.211117 -7.07591e-21)
(1.26036 0.202085 -2.22646e-20)
(0.0482936 -0.0051789 5.28006e-20)
(0.144451 -0.010574 -5.44556e-20)
(0.244404 -0.0071678 6.62019e-21)
(0.347241 0.00304799 -7.70671e-21)
(0.451904 0.0190084 -1.87521e-20)
(0.557047 0.0398134 -3.9207e-20)
(0.661001 0.0643154 -6.36275e-21)
(0.761836 0.0912082 2.77573e-20)
(0.857457 0.119082 1.32703e-20)
(0.945755 0.146474 -1.6638e-20)
(1.02478 0.171956 1.90701e-20)
(1.09296 0.194243 -4.10812e-21)
(1.14925 0.212308 -3.99617e-20)
(1.19329 0.225476 5.93129e-20)
(1.22543 0.233484 1.66551e-20)
(1.24669 0.236482 -8.90275e-21)
(1.25856 0.23498 1.09578e-20)
(1.26279 0.229756 1.67597e-20)
(1.26114 0.221691 1.64188e-20)
(1.255 0.21129 1.71807e-20)
(0.0526465 -0.00366067 -5.43642e-20)
(0.156236 -0.00590384 4.46408e-20)
(0.26253 0.000870221 1.94778e-20)
(0.370625 0.0145168 -4.06717e-20)
(0.479405 0.0338237 -8.76378e-21)
(0.587447 0.0577377 -3.53836e-20)
(0.69301 0.0849517 1.44383e-20)
(0.79412 0.114008 -2.46689e-20)
(0.888689 0.143367 1.99008e-21)
(0.974684 0.17148 4.31538e-21)
(1.05032 0.196888 8.46064e-21)
(1.11427 0.218342 -3.29219e-20)
(1.16582 0.234923 3.45098e-20)
(1.20496 0.246119 -2.493e-20)
(1.23241 0.251864 -6.928e-21)
(1.24946 0.252512 3.31902e-21)
(1.25783 0.248751 -7.58511e-21)
(1.25935 0.241483 -1.74736e-20)
(1.25577 0.231653 -7.88176e-22)
(1.24845 0.219945 -1.17099e-20)
(0.0569957 -0.00181992 -6.60106e-21)
(0.167911 -0.000384343 -2.07095e-20)
(0.280337 0.0101551 -7.20465e-21)
(0.39339 0.027508 1.17422e-20)
(0.505905 0.0503142 -7.14121e-21)
(0.616397 0.0773661 7.51176e-21)
(0.723077 0.107202 1.8616e-20)
(0.823958 0.138222 1.72665e-20)
(0.916999 0.168779 1.4229e-20)
(1.00029 0.197264 -3.38082e-21)
(1.07225 0.222222 -9.06217e-21)
(1.13183 0.242481 1.09288e-20)
(1.17867 0.257263 -5.48523e-21)
(1.21311 0.266245 7.05635e-21)
(1.23618 0.269573 -4.33042e-21)
(1.24946 0.267803 9.32563e-21)
(1.25481 0.261786 -2.57198e-21)
(1.2541 0.252529 1.09355e-20)
(1.24904 0.241015 -2.56974e-21)
(1.24088 0.228071 1.65877e-21)
(0.061296 0.000346767 -7.5958e-23)
(0.179353 0.00598204 -5.33583e-23)
(0.297639 0.0206654 -2.42507e-21)
(0.415298 0.0419712 1.23764e-20)
(0.531131 0.0683926 8.1743e-21)
(0.643605 0.0985707 -6.49489e-21)
(0.750912 0.130897 -5.09554e-21)
(0.851087 0.163647 -1.61953e-21)
(0.942173 0.195089 -7.91193e-21)
(1.02242 0.223587 -4.50414e-22)
(1.0905 0.247728 3.99228e-22)
(1.14566 0.266453 -3.81652e-21)
(1.1879 0.279156 -2.52236e-21)
(1.21789 0.285726 -5.82478e-21)
(1.23698 0.286527 -6.26802e-21)
(1.24695 0.282309 -5.29997e-22)
(1.24974 0.274068 2.31931e-21)
(1.24726 0.262892 2.47359e-21)
(1.24111 0.249785 2.85236e-21)
(1.23242 0.23568 4.00633e-21)
(0.0655006 0.00283773 7.52109e-21)
(0.190436 0.0131793 -1.29168e-21)
(0.314247 0.0323596 -2.19579e-21)
(0.436114 0.0578306 5.62768e-21)
(0.554816 0.0879442 1.16579e-20)
(0.668796 0.121196 -5.30147e-21)
(0.776252 0.155844 -4.47124e-21)
(0.875276 0.190061 -8.8349e-21)
(0.964033 0.222059 -8.31499e-21)
(1.04098 0.25021 1.59061e-21)
(1.10504 0.27318 -1.53599e-21)
(1.15583 0.290061 -6.54375e-22)
(1.19364 0.300445 -3.68019e-21)
(1.21952 0.304449 -5.94316e-21)
(1.23504 0.302654 -1.31198e-21)
(1.24215 0.295991 -4.83703e-22)
(1.24285 0.285584 -1.91839e-22)
(1.23901 0.272573 1.16717e-21)
(1.23213 0.257968 4.34272e-21)
(1.22319 0.242777 3.38177e-21)
(0.0695613 0.00564593 -4.49675e-21)
(0.201035 0.0211772 -7.10101e-21)
(0.329976 0.0451755 -9.71136e-21)
(0.455609 0.0749859 1.30643e-20)
(0.576708 0.108828 1.29545e-20)
(0.691714 0.145061 3.78961e-22)
(0.798861 0.181829 5.30976e-21)
(0.89633 0.217226 1.51985e-20)
(0.982447 0.24944 1.72591e-20)
(1.0559 0.276888 1.15115e-20)
(1.11591 0.298358 -2.86226e-20)
(1.16242 0.313118 1.20807e-20)
(1.19608 0.320987 -5.39056e-21)
(1.2182 0.322313 1.27918e-20)
(1.23058 0.317891 -2.89877e-22)
(1.23528 0.308819 -2.08412e-21)
(1.23434 0.296321 1.1772e-21)
(1.22953 0.281568 1.01279e-20)
(1.22223 0.265562 -4.01231e-21)
(1.21326 0.24936 -4.21865e-22)
(0.0734296 0.00875877 -1.39911e-20)
(0.211023 0.0299314 3.44116e-20)
(0.344642 0.0590304 3.4906e-21)
(0.473564 0.0933126 -4.49149e-20)
(0.596572 0.130876 -8.63928e-21)
(0.71213 0.169962 2.05709e-20)
(0.818535 0.208617 -4.85657e-20)
(0.914093 0.244888 -6.60748e-22)
(0.997321 0.276977 4.36759e-21)
(1.06716 0.303384 -1.30919e-21)
(1.12316 0.323048 1.50504e-20)
(1.16557 0.335452 -2.46304e-20)
(1.19537 0.34065 3.83107e-21)
(1.21412 0.339228 -8.62769e-21)
(1.22381 0.332186 -6.47277e-21)