/*--------------------------------*- C++ -*----------------------------------*\
  =========                 |
  \\      /  F ield         | OpenFOAM: The Open Source CFD Toolbox
   \\    /   O peration     | Website:  https://openfoam.org
    \\  /    A nd           | Version:  7
     \\/     M anipulation  |
\*---------------------------------------------------------------------------*/
FoamFile
{
    version     2.0;
    format      ascii;
    class       volVectorField;
    location    "61.00059";
    object      U;
}
// * * * * * * * * * * * * * * * * * * * * * * * * * * * * * * * * * * * * * //

dimensions      [0 1 -1 0 0 0 0];

internalField   nonuniform List<vector> 
23200
(
(-0.000609461 0.00084391 -2.05639e-21)
(-0.00365229 0.00212277 -7.25722e-21)
(-0.0099182 0.00307939 1.32044e-21)
(-0.0182487 0.00376726 5.00294e-21)
(-0.0281164 0.00422609 2.1323e-21)
(-0.0391038 0.00449408 -5.19939e-21)
(-0.0508053 0.00460851 -1.65297e-21)
(-0.0628776 0.00460362 -6.49499e-22)
(-0.0750435 0.00450937 -5.98015e-21)
(-0.087084 0.00435028 -1.1529e-21)
(-0.0988286 0.00414463 -6.77787e-21)
(-0.110143 0.00390416 7.2215e-22)
(-0.120916 0.00363453 -2.28152e-21)
(-0.131042 0.0033365 4.11388e-21)
(-0.140414 0.00300837 -5.31107e-21)
(-0.148914 0.00264966 -5.68254e-21)
(-0.156426 0.00226617 -1.64546e-21)
(-0.16291 0.00188593 8.99333e-21)
(-0.168398 0.00155516 -7.67821e-21)
(-0.172695 0.00128562 -4.57423e-22)
(-0.000727753 0.00247068 -1.78769e-21)
(-0.00391673 0.00622022 -5.13266e-21)
(-0.0102315 0.00902972 4.38224e-21)
(-0.0185408 0.0110546 1.03146e-20)
(-0.0283294 0.0124096 1.7732e-21)
(-0.0391881 0.0132055 3.11161e-22)
(-0.050718 0.0135504 -3.55869e-21)
(-0.0625803 0.013544 1.91532e-21)
(-0.0745002 0.0132743 -1.10619e-20)
(-0.0862595 0.0128135 6.91662e-21)
(-0.0976869 0.0122164 2.51511e-20)
(-0.108647 0.0115189 -4.22179e-21)
(-0.119025 0.0107393 6.23036e-21)
(-0.128713 0.00988138 -3.78403e-21)
(-0.137599 0.00894148 9.8599e-21)
(-0.14556 0.00791892 -1.18213e-21)
(-0.152463 0.00682945 5.47753e-21)
(-0.158248 0.00575432 -3.35293e-20)
(-0.162967 0.00485021 3.33766e-21)
(-0.166056 0.00408061 -1.39528e-20)
(-0.000959046 0.00404216 9.73564e-21)
(-0.00443479 0.0101888 9.70881e-21)
(-0.0108464 0.0148058 -2.16765e-21)
(-0.0191147 0.0181413 -4.75055e-21)
(-0.0287478 0.0203795 -1.85161e-21)
(-0.0393524 0.0216994 6.58476e-21)
(-0.0505422 0.0222767 9.70089e-21)
(-0.061987 0.0222746 -2.14534e-20)
(-0.0734168 0.021837 6.15221e-21)
(-0.0846144 0.0210836 -7.75682e-21)
(-0.0954072 0.0201052 -1.33224e-20)
(-0.105656 0.0189624 -2.59221e-21)
(-0.11524 0.0176866 -4.0161e-21)
(-0.124046 0.0162849 -9.16248e-21)
(-0.131951 0.0147506 1.07696e-20)
(-0.138824 0.0130798 -1.02421e-20)
(-0.1445 0.0112889 1.31601e-21)
(-0.148864 0.00949449 3.2918e-20)
(-0.152085 0.0080251 -2.32228e-20)
(-0.152706 0.00655201 2.08563e-20)
(-0.00129462 0.00552455 -7.20518e-21)
(-0.00518879 0.0139489 1.29086e-20)
(-0.0117439 0.0202987 -1.83563e-20)
(-0.0199541 0.0249005 8.43976e-21)
(-0.02936 0.0279992 -4.56098e-20)
(-0.0395902 0.0298352 -2.78308e-20)
(-0.0502763 0.0306469 1.74505e-20)
(-0.0611 0.0306568 4.22986e-20)
(-0.071798 0.0300628 -1.73652e-20)
(-0.0821543 0.0290304 -1.19104e-20)
(-0.0919936 0.0276866 -1.70085e-20)
(-0.10117 0.0261168 3.46634e-20)
(-0.109554 0.0243667 4.28713e-20)
(-0.117021 0.0224473 -3.37988e-20)
(-0.123433 0.0203475 -2.74891e-20)
(-0.128647 0.0180574 1.02598e-20)
(-0.132459 0.015581 -2.27537e-20)
(-0.134622 0.0130274 -1.08804e-21)
(-0.135698 0.011034 3.82514e-20)
(-0.132485 0.00850965 6.86037e-21)
(-0.00172217 0.00688827 2.85212e-20)
(-0.00615365 0.0174296 8.60468e-21)
(-0.012897 0.0254096 2.9246e-20)
(-0.0210356 0.0312149 -8.77249e-21)
(-0.0301487 0.0351401 4.4483e-20)
(-0.0398911 0.0374785 2.67866e-20)
(-0.0499165 0.0385241 -3.20426e-20)
(-0.059921 0.0385542 -4.1065e-20)
(-0.0696487 0.0378173 3.75827e-20)
(-0.078885 0.036523 -1.05795e-20)
(-0.0874496 0.0348334 1.56943e-20)
(-0.0951866 0.03286 -6.19894e-20)
(-0.101953 0.0306638 2.17147e-20)
(-0.107605 0.0282613 8.05076e-21)
(-0.111985 0.0256366 4.55498e-21)
(-0.114928 0.0227719 1.69774e-20)
(-0.116214 0.0196503 4.44822e-20)
(-0.115278 0.0162829 1.17074e-21)
(-0.113673 0.0138696 -1.34529e-20)
(-0.105064 0.00983438 -1.75093e-20)
(-0.00222673 0.00810925 1.97284e-20)
(-0.00729853 0.0205712 9.29673e-21)
(-0.0142721 0.0300528 -4.76186e-20)
(-0.0223292 0.0369802 -2.80924e-20)
(-0.0310909 0.0416848 -1.09697e-20)
(-0.0402406 0.0445032 3.63476e-20)
(-0.0494558 0.0457776 4.29037e-20)
(-0.0584487 0.045834 -5.24296e-21)
(-0.0669713 0.0449675 -1.00531e-20)
(-0.0748089 0.0434291 -8.72731e-21)
(-0.0817735 0.0414157 -2.81257e-20)
(-0.0876943 0.0390648 6.38893e-20)
(-0.0924078 0.036455 -3.56171e-22)
(-0.0957456 0.0336105 -2.49074e-20)
(-0.0975127 0.0305114 -2.14824e-21)
(-0.0975161 0.0271318 5.05112e-21)
(-0.0955861 0.0234464 1.59045e-20)
(-0.0904522 0.019213 -5.8852e-20)
(-0.0857169 0.0165245 2.69882e-20)
(-0.0698879 0.0106096 -7.05057e-21)
(-0.00279167 0.00916996 -3.29241e-20)
(-0.00858867 0.0233278 1.81606e-20)
(-0.0158304 0.0341588 2.1405e-20)
(-0.0237995 0.0421075 1.8204e-20)
(-0.0321583 0.0475295 3.89618e-20)
(-0.0406183 0.0507946 5.6143e-21)
(-0.0488812 0.0522848 -5.46277e-21)
(-0.0566756 0.0523686 1.64542e-20)
(-0.0637604 0.0513829 -2.45552e-20)
(-0.0699189 0.0496173 -2.4511e-21)
(-0.0749512 0.0473019 1.19e-20)
(-0.0786656 0.0446007 -5.42491e-20)
(-0.0808689 0.0416115 -1.8017e-20)
(-0.0813576 0.0383693 1.68125e-20)
(-0.079884 0.0348528 -4.04946e-20)
(-0.0761831 0.0310284 4.51097e-20)
(-0.0703207 0.0269064 5.59548e-21)
(-0.0596642 0.0218631 -6.70743e-21)
(-0.0512459 0.0188443 -7.36851e-20)
(-0.0262596 0.0113074 4.30793e-20)
(-0.00339989 0.0100599 -1.30075e-20)
(-0.00998751 0.0256681 -1.34891e-20)
(-0.01753 0.0376757 -6.30675e-20)
(-0.0254065 0.046526 -2.77262e-20)
(-0.0333161 0.0525866 -9.36608e-20)
(-0.0409959 0.0562513 -7.86089e-21)
(-0.0481703 0.0579337 -4.59552e-20)
(-0.0545824 0.0580382 -3.27161e-20)
(-0.0599964 0.0569386 7.19182e-20)
(-0.0641896 0.0549595 1.21995e-20)
(-0.0669453 0.0523622 3.05576e-20)
(-0.0680423 0.0493371 3.84795e-20)
(-0.0672462 0.0460027 -1.30737e-20)
(-0.064306 0.0424087 -4.36157e-20)
(-0.0589065 0.0385381 3.94708e-20)
(-0.050612 0.0343561 3.74282e-20)
(-0.0399909 0.0298967 -3.7732e-20)
(-0.022447 0.0244612 5.30495e-20)
(-0.00925005 0.0204253 8.34345e-20)
(0.0265004 0.0123654 2.32648e-20)
(-0.00403495 0.0107758 3.46045e-20)
(-0.0114587 0.0275761 3.99233e-20)
(-0.0193277 0.0405703 1.93082e-20)
(-0.0271062 0.0501838 4.76684e-20)
(-0.0345227 0.0567865 2.1801e-20)
(-0.0413349 0.0607877 5.74584e-20)
(-0.0472862 0.0626256 4.95585e-20)
(-0.0521312 0.0627342 -1.95674e-20)
(-0.0556352 0.0615188 -3.14427e-20)
(-0.0575648 0.0593352 5.61613e-20)
(-0.0576784 0.0564735 -3.5439e-20)
(-0.0557151 0.0531498 2.60575e-20)
(-0.0513845 0.0495053 3.54616e-20)
(-0.0443701 0.0456074 3.93693e-20)
(-0.0342838 0.0414584 -1.15793e-19)
(-0.020421 0.0370807 -5.5181e-20)
(-0.00387103 0.032201 -1.50562e-20)
(0.0218114 0.0269254 6.38563e-20)
(0.0410216 0.0218158 -1.40149e-19)
(0.0906268 0.0136173 -5.28763e-20)
(-0.00468215 0.0113211 5.13733e-20)
(-0.0129678 0.0290506 -5.93439e-20)
(-0.0211797 0.0428282 -6.16171e-20)
(-0.0288502 0.0530492 -6.33234e-20)
(-0.0357274 0.060079 -3.89559e-20)
(-0.0415822 0.0643365 -9.22992e-21)
(-0.0461713 0.0662784 -6.275e-20)
(-0.0492558 0.0663627 7.78703e-20)
(-0.0505961 0.0650215 2.25019e-20)
(-0.0499402 0.0626375 2.20103e-20)
(-0.0470116 0.0595271 -8.90954e-20)
(-0.0414956 0.0559313 1.37346e-20)
(-0.0330276 0.0520148 -1.10105e-20)
(-0.0211975 0.0478682 -3.76193e-21)
(-0.00551298 0.0435225 -4.36507e-20)
(0.0149387 0.0390562 5.70601e-20)
(0.0386698 0.0338545 -1.25404e-20)
(0.0746478 0.0290509 -1.42982e-19)
(0.100094 0.0235958 2.03196e-20)
(0.168367 0.0153225 9.90454e-20)
(-0.00532929 0.0117053 3.66138e-20)
(-0.0144837 0.0301039 -1.13548e-20)
(-0.0230424 0.0444522 6.46686e-20)
(-0.0305852 0.0551096 3.20762e-20)
(-0.0368675 0.062434 4.56177e-20)
(-0.0416647 0.0668504 4.21769e-21)
(-0.0447391 0.0688298 8.5258e-20)
(-0.0458502 0.0688499 -7.64673e-20)
(-0.0447452 0.0673651 -3.47669e-20)
(-0.0411425 0.0647815 -1.41032e-20)
(-0.0347164 0.0614395 8.86888e-20)
(-0.0250807 0.0576041 -1.56055e-20)
(-0.0117742 0.053465 1.3399e-20)
(0.00573299 0.0491391 5.53066e-20)
(0.0280564 0.0446834 5.31858e-20)
(0.0564439 0.0402408 -9.3128e-20)
(0.0885264 0.0349751 -5.20433e-20)
(0.137439 0.0310383 2.80588e-20)
(0.169201 0.025353 9.02323e-20)
(0.261301 0.0184914 -1.18203e-20)
(-0.00596722 0.0119428 -4.848e-20)
(-0.0159791 0.030759 -2.57446e-20)
(-0.0248723 0.0454603 -3.52974e-20)
(-0.0322511 0.0563709 -3.38596e-20)
(-0.0378649 0.0638419 3.82747e-20)
(-0.041483 0.0683042 -7.36116e-20)
(-0.0428637 0.0702413 7.20193e-20)
(-0.0417545 0.0701473 4.90952e-21)
(-0.0378767 0.0684961 -6.09169e-20)
(-0.0309041 0.0657147 -1.38894e-20)
(-0.0204428 0.0621658 -5.63801e-20)
(-0.00601274 0.0581388 2.55245e-20)
(0.0129703 0.0538513 -1.76465e-20)
(0.0371851 0.0494522 -1.06719e-19)
(0.067365 0.0450274 4.99154e-21)
(0.105252 0.0408687 3.35231e-20)
(0.147066 0.0355589 7.40559e-20)
(0.211496 0.0334782 1.29662e-19)
(0.249754 0.0269348 2.21081e-20)
(0.370159 0.0238141 -1.3888e-19)
(-0.00658989 0.0120512 -6.70294e-20)
(-0.0174301 0.0310471 -9.18529e-21)
(-0.0266244 0.0458832 1.26085e-19)
(-0.033778 0.056855 -5.60707e-20)
(-0.0386205 0.0643129 2.82703e-21)
(-0.0409037 0.0686962 -5.31656e-20)
(-0.0403693 0.0705012 -5.07148e-20)
(-0.0367393 0.0702379 8.14543e-21)
(-0.0296921 0.0683981 2.66462e-20)
(-0.0188365 0.0654287 9.86674e-20)
(-0.00368632 0.0617156 -3.12105e-20)
(0.0163596 0.057575 -1.3377e-19)
(0.0420352 0.0532578 9.50954e-20)
(0.0741958 0.0489536 8.25487e-20)
(0.113667 0.044773 5.3882e-20)
(0.162753 0.0413158 1.35727e-19)
(0.215954 0.0359405 -4.43108e-20)
(0.297777 0.0370157 -2.03992e-19)
(0.343283 0.0288499 3.32044e-20)
(0.493768 0.0317142 3.85972e-20)
(-0.00719394 0.0120492 -3.48571e-20)
(-0.0188151 0.031004 4.41125e-20)
(-0.0282497 0.0457597 -4.39011e-20)
(-0.0350822 0.0565976 6.8909e-20)
(-0.0390085 0.063876 -7.85388e-20)
(-0.0397505 0.0680493 7.21508e-20)
(-0.0370182 0.0696291 1.42666e-20)
(-0.03049 0.0691429 -7.64986e-20)
(-0.01978 0.0671013 6.37764e-20)
(-0.00440579 0.0639732 -6.88036e-20)
(0.0162396 0.0601707 8.52501e-20)
(0.042907 0.0560432 4.5859e-20)
(0.0765003 0.0518829 3.69227e-20)
(0.11806 0.0479331 -5.62502e-20)
(0.168456 0.044311 -9.27328e-21)
(0.230402 0.0421098 -7.17533e-20)
(0.2969 0.0369065 5.01289e-20)
(0.396272 0.0421396 2.30208e-21)
(0.450892 0.0323738 -8.85863e-20)
(0.628009 0.0424274 3.80568e-20)
(-0.00777776 0.0119553 7.86295e-21)
(-0.0201123 0.0306658 2.82805e-20)
(-0.0296918 0.0451335 6.09845e-21)
(-0.0360612 0.0556444 2.29265e-20)
(-0.0388701 0.0625782 5.41937e-20)
(-0.0377957 0.0664119 5.04337e-20)
(-0.0324993 0.0676786 3.55539e-20)
(-0.0225928 0.0669278 4.43366e-20)
(-0.00759951 0.0646928 -8.92133e-20)
(0.0130839 0.0614695 -1.29897e-20)
(0.0402153 0.0577032 -1.40521e-19)
(0.0747171 0.0537861 -4.39575e-20)
(0.117663 0.0500631 -5.00666e-20)
(0.170237 0.046845 8.18065e-20)
(0.233271 0.044232 -1.28206e-19)
(0.309386 0.0438689 2.47561e-20)
(0.39101 0.0396696 9.73315e-21)
(0.505507 0.0490511 1.26257e-19)
(0.57197 0.0391174 -6.24121e-20)
(0.765434 0.0559366 4.70092e-20)
(-0.00834012 0.0117854 1.04308e-19)
(-0.0212966 0.0300657 3.59484e-20)
(-0.0308824 0.0440493 6.47327e-20)
(-0.0365885 0.0540495 5.81388e-20)
(-0.0380064 0.0604818 9.77139e-21)
(-0.034753 0.0638571 -1.22434e-19)
(-0.0264196 0.0647399 -8.94228e-20)
(-0.0125259 0.0637082 -8.05113e-20)
(0.00752612 0.0613254 7.54717e-20)
(0.0344909 0.0581226 4.53221e-20)
(0.0692996 0.0545899 1.60295e-19)
(0.113047 0.0511741 -1.30749e-19)
(0.166932 0.0482835 4.85629e-20)
(0.232151 0.0463033 -9.23524e-20)
(0.309336 0.045314 6.87298e-20)
(0.400187 0.0472408 -2.45026e-20)
(0.497781 0.0455173 3.30358e-20)
(0.62242 0.0578301 -1.1627e-19)
(0.702628 0.0501562 9.70037e-20)
(0.896354 0.0716884 4.13785e-20)
(-0.00887854 0.0115513 -1.44204e-19)
(-0.0223353 0.0292306 5.63513e-20)
(-0.0317364 0.0425502 -8.8006e-20)
(-0.0365083 0.0518704 -8.19963e-20)
(-0.0361736 0.0576614 2.95222e-20)
(-0.0302718 0.0604834 1.46484e-19)
(-0.0183005 0.0609422 -1.0597e-19)
(0.000341328 0.0596541 1.33222e-20)
(0.0264027 0.0572237 -2.9836e-20)
(0.060812 0.05423 -2.91691e-20)
(0.104675 0.0512204 7.52553e-20)
(0.159214 0.0487081 1.65268e-19)
(0.225629 0.047168 -6.10235e-21)
(0.304872 0.0470421 1.39579e-20)
(0.397055 0.0484233 -5.48779e-21)
(0.502078 0.0529083 -9.22148e-20)
(0.614207 0.0552005 8.97377e-20)
(0.742468 0.0686236 1.41384e-19)
(0.835066 0.065388 4.07936e-20)
(1.01113 0.0883694 -7.66803e-20)
(-0.00938732 0.0112599 -3.73433e-20)
(-0.0231848 0.0281805 1.15155e-19)
(-0.0321462 0.0406724 -3.6553e-21)
(-0.0356309 0.049165 7.9037e-20)
(-0.0330792 0.0542044 3.63576e-20)
(-0.0239362 0.056414 3.47514e-20)
(-0.00758085 0.0564536 -4.29336e-20)
(0.0167362 0.0549916 7.30823e-20)
(0.049937 0.0526873 1.26486e-20)
(0.0931259 0.0501823 -4.3553e-20)
(0.147541 0.0480932 -2.51868e-20)
(0.214412 0.0470028 -1.13067e-19)
(0.294704 0.0474387 -1.13365e-19)
(0.388715 0.0498376 2.64958e-20)
(0.495503 0.0543177 -9.45709e-21)
(0.612604 0.0615309 -3.749e-20)
(0.734705 0.0685476 -1.22256e-19)
(0.859859 0.0814637 -1.46634e-19)
(0.958917 0.0835664 -1.70693e-19)
(1.10264 0.104141 1.77808e-20)
(-0.00985489 0.0109126 7.67245e-21)
(-0.0237868 0.0269247 -1.04089e-19)
(-0.0319795 0.0384443 -9.68477e-20)
(-0.033729 0.0459927 -6.3939e-20)
(-0.0283817 0.0502087 1.13657e-19)
(-0.0152695 0.0517948 -2.42832e-19)
(0.00637049 0.0514805 4.91658e-20)
(0.0374558 0.0500011 -2.80268e-20)
(0.0790845 0.0480874 8.00315e-20)
(0.1325 0.0464554 9.82828e-21)
(0.19896 0.0457954 -1.22017e-19)
(0.279475 0.0467452 5.32338e-20)
(0.37439 0.0498375 1.66895e-20)
(0.482819 0.0553902 5.24496e-20)
(0.602096 0.0634396 -5.56394e-20)
(0.727299 0.0734596 9.81161e-20)
(0.852116 0.0845721 -4.18333e-20)
(0.968143 0.0959502 2.13232e-20)
(1.0643 0.102844 -1.4836e-20)
(1.16788 0.117136 -5.70477e-20)
(-0.0102622 0.0105041 1.21436e-19)
(-0.0240635 0.0254621 -2.17245e-20)
(-0.0310758 0.0358892 -1.36029e-20)
(-0.0305382 0.0424129 7.70506e-20)
(-0.021694 0.0457816 -3.88692e-20)
(-0.00374441 0.0467943 2.19156e-19)
(0.0242312 0.0462658 1.01863e-20)
(0.0633228 0.0450155 6.64408e-20)
(0.114772 0.0438582 -1.11009e-19)
(0.179862 0.0435905 -8.43257e-20)
(0.259661 0.0449646 1.23855e-19)
(0.354598 0.0486252 -1.01228e-19)
(0.463882 0.0550119 8.15318e-20)
(0.584858 0.064165 -1.46257e-20)
(0.712605 0.0757943 2.47601e-19)
(0.840071 0.0883852 -5.03061e-21)
(0.959371 0.101849 8.45976e-20)
(1.06144 0.111299 1.21782e-19)
(1.14489 0.121193 7.25972e-20)
(1.20824 0.125667 1.1416e-19)
(-0.0105812 0.0100252 5.88258e-20)
(-0.0239156 0.0237855 -1.25475e-19)
(-0.0292443 0.0330253 4.16674e-20)
(-0.0257586 0.0384862 6.71853e-20)
(-0.0125912 0.0410416 5.60287e-20)
(0.0111988 0.0416029 -1.59413e-19)
(0.0466928 0.0410868 7.12589e-20)
(0.0951263 0.0404103 3.23245e-20)
(0.1578 0.0404796 1.38231e-20)
(0.235849 0.0421635 5.70578e-20)
(0.329823 0.0462322 -3.3303e-20)
(0.439085 0.0532426 1.02442e-19)
(0.561125 0.0633842 -8.56556e-20)
(0.691043 0.0762309 -8.77147e-20)
(0.821619 0.0909138 -1.50541e-19)
(0.944402 0.10527 -4.72205e-20)
(1.05106 0.118957 -1.01999e-19)
(1.13586 0.126601 -1.12146e-19)
(1.19942 0.136259 -1.00833e-19)
(1.23005 0.128517 -5.54874e-20)
(-0.0107751 0.0094635 8.96986e-20)
(-0.0232222 0.0218831 -2.19569e-20)
(-0.0262657 0.0298697 -5.77352e-20)
(-0.0190596 0.0342784 -1.8457e-19)
(-0.000622729 0.0361201 -1.4553e-20)
(0.030129 0.0364338 1.91068e-19)
(0.0744163 0.0362511 -4.27076e-20)
(0.133549 0.036595 3.6427e-20)
(0.208728 0.0384574 8.62344e-20)
(0.300647 0.0427421 2.56983e-20)
(0.40889 0.050151 -1.65599e-19)
(0.531192 0.0610028 -4.0869e-20)
(0.662826 0.0750336 -2.85359e-20)
(0.796539 0.0911776 8.10234e-20)
(0.923438 0.107893 2.3313e-19)
(1.03494 0.12268 -7.34701e-20)
(1.12436 0.134877 -4.82083e-20)
(1.19013 0.140681 1.2359e-19)
(1.23156 0.145875 6.70189e-20)
(1.25462 0.13849 2.81526e-20)
(-0.0107972 0.00880531 -9.62266e-20)
(-0.0218415 0.0197437 6.74238e-20)
(-0.0218952 0.0264441 -1.35485e-19)
(-0.0100879 0.029866 1.50923e-20)
(0.0146717 0.0311665 9.23317e-20)
(0.0535939 0.0315246 -1.93819e-19)
(0.107982 0.0320945 -2.01464e-19)
(0.179089 0.0340015 3.63655e-21)
(0.267761 0.0382938 -1.18246e-19)
(0.37385 0.045834 -8.31451e-20)
(0.495445 0.0571161 1.32174e-19)
(0.628135 0.0720216 2.09724e-19)
(0.76478 0.0896325 -8.19866e-20)
(0.896247 0.108169 -5.17434e-20)
(1.01324 0.125554 -1.29997e-19)
(1.10864 0.139305 8.95372e-21)
(1.17903 0.149041 -4.77047e-21)
(1.22576 0.152045 -4.58091e-21)
(1.25186 0.154121 1.36676e-20)
(1.26504 0.145435 1.70982e-19)
(-0.0105917 0.00803839 9.64046e-20)
(-0.0196129 0.0173621 1.01228e-19)
(-0.015868 0.0227815 1.31544e-19)
(0.00152157 0.0253427 5.15865e-20)
(0.0337421 0.0263539 -6.96967e-20)
(0.0820867 0.0271405 -4.82661e-20)
(0.147835 0.028977 -6.70902e-21)
(0.231974 0.0330676 6.82279e-20)
(0.334645 0.0404526 6.26522e-20)
(0.454368 0.0518284 4.01766e-20)
(0.58721 0.0672895 -4.78855e-21)
(0.726326 0.0860693 -1.00586e-19)
(0.862473 0.106476 8.10258e-20)
(0.985739 0.126125 -1.21332e-20)
(1.088 0.142738 3.75798e-20)
(1.165 0.154312 1.63192e-20)
(1.21683 0.160983 -1.28575e-20)
(1.24768 0.161295 3.20661e-20)
(1.26187 0.16062 -2.46451e-20)
(1.26747 0.151075 -1.70845e-19)
(-0.0100951 0.00715459 5.02752e-20)
(-0.0163605 0.014745 -1.82302e-19)
(-0.00790661 0.0189338 8.8338e-20)
(0.016133 0.0208277 3.65008e-20)
(0.057006 0.021885 -1.06035e-19)
(0.116008 0.0235757 1.02682e-19)
(0.194229 0.0272758 5.74288e-20)
(0.292091 0.0342157 -1.36361e-19)
(0.408594 0.0453191 1.65562e-20)
(0.540409 0.0609385 -2.59184e-20)
(0.681205 0.0805505 6.11514e-20)
(0.821832 0.102583 -4.62694e-20)
(0.951841 0.124616 -7.08184e-20)
(1.06203 0.143965 1.04613e-19)
(1.14685 0.158595 -5.13462e-20)
(1.20549 0.1673 2.05564e-20)
(1.24111 0.170858 -4.9172e-20)
(1.25947 0.168779 3.05693e-22)
(1.26539 0.166003 -4.38813e-20)
(1.2666 0.155866 4.73126e-20)
(-0.00923787 0.00615212 -1.25975e-20)
(-0.011898 0.0119165 -5.40786e-20)
(0.00227053 0.014979 -6.02152e-20)
(0.0340936 0.0164727 3.41857e-20)
(0.0848223 0.0179978 -9.93679e-21)
(0.155627 0.0211535 6.24529e-20)
(0.247167 0.0273745 4.41842e-20)
(0.358924 0.0378259 4.20683e-20)
(0.488266 0.0531556 1.3741e-20)
(0.629575 0.0731555 3.64513e-20)
(0.774069 0.0964914 6.16101e-20)
(0.910953 0.120763 1.37862e-20)
(1.02991 0.143064 -3.07117e-20)
(1.1239 0.16084 2.32146e-20)
(1.19071 0.172678 7.65649e-20)
(1.23275 0.178298 -1.38653e-19)
(1.25525 0.179015 4.43866e-20)
(1.26448 0.175013 5.23398e-20)
(1.26504 0.170662 1.72646e-20)
(1.2631 0.160174 3.40885e-20)
(-0.00794579 0.00503761 -2.00593e-20)
(-0.00603452 0.00892293 1.1803e-19)
(0.0149378 0.0110272 4.07678e-20)
(0.0557159 0.0124679 -1.23294e-19)
(0.117463 0.0149676 -3.28104e-20)
(0.20104 0.0202206 6.14977e-20)
(0.306363 0.029645 2.97345e-20)
(0.431528 0.0442026 1.03411e-19)
(0.571804 0.0640604 -3.86095e-21)
(0.719073 0.0882313 4.96679e-21)
(0.862496 0.114474 -5.20127e-20)
(0.990766 0.139722 -8.19046e-20)
(1.09515 0.160981 -8.95751e-21)
(1.17171 0.176235 -5.1408e-20)
(1.22162 0.184912 4.33033e-20)
(1.24973 0.187579 2.10944e-19)
(1.26225 0.18589 8.24395e-20)
(1.26515 0.18043 -8.09207e-20)
(1.26227 0.174902 -4.03848e-20)
(1.25853 0.164218 1.64714e-20)
(-0.00614252 0.00382756 9.86057e-20)
(0.00141878 0.00583646 -1.43708e-19)
(0.03035 0.00722529 -1.35187e-19)
(0.0812573 0.00904436 1.81972e-19)
(0.155083 0.0131046 5.40408e-20)
(0.252133 0.0211353 -3.32173e-20)
(0.371199 0.0344223 -9.56725e-20)
(0.508533 0.0535385 -1.18314e-19)
(0.656968 0.0779415 7.88796e-20)
(0.806021 0.105703 1.39399e-20)
(0.94367 0.13374 4.17926e-20)
(1.05946 0.158651 3.44582e-20)
(1.14737 0.177792 -2.14784e-21)
(1.20693 0.189969 -2.32045e-20)
(1.2421 0.195474 -4.67353e-20)
(1.25917 0.195521 -1.26769e-19)
(1.26445 0.191893 -5.01847e-20)
(1.26313 0.185357 1.67215e-19)
(1.25818 0.178923 2.78205e-20)
(1.25324 0.168165 -4.12951e-20)
(-0.0037516 0.00254945 -1.02961e-19)
(0.010641 0.00275737 1.01201e-19)
(0.0487287 0.00375814 2.33066e-21)
(0.110898 0.00647241 -4.12203e-20)
(0.197691 0.0127454 -1.32225e-20)
(0.308551 0.0242483 -1.15305e-20)
(0.440724 0.0419741 -7.03199e-20)
(0.588215 0.0658843 8.46011e-20)
(0.741333 0.0945169 -1.4002e-19)
(0.887792 0.124963 3.94322e-22)
(1.01558 0.153535 -2.48855e-20)
(1.11637 0.17693 -1.21817e-20)
(1.18748 0.193209 2.87046e-20)
(1.23157 0.20211 -6.36598e-20)
(1.25458 0.204669 -3.68221e-21)
(1.2633 0.202506 3.51502e-20)
(1.26354 0.197353 -8.64414e-20)
(1.25949 0.190023 -5.57485e-22)
(1.25329 0.18286 2.77723e-22)
(1.24758 0.172074 7.31279e-20)
(-0.000699102 0.00124229 1.50059e-20)
(0.0217932 -0.000185383 2.79331e-20)
(0.0702463 0.000847424 5.40062e-20)
(0.144719 0.00505554 -2.90083e-20)
(0.245123 0.0142389 -9.27894e-20)
(0.369681 0.0298781 2.39434e-20)
(0.51368 0.0524707 5.3773e-20)
(0.66862 0.081133 2.94296e-20)
(0.822538 0.113349 9.86644e-20)
(0.962293 0.145349 -2.69798e-20)
(1.07717 0.173223 -1.60701e-20)
(1.16183 0.194173 1.37555e-20)
(1.21698 0.207184 -3.91128e-20)
(1.24777 0.212876 -5.4335e-20)
(1.26119 0.212834 -3.56329e-20)
(1.26382 0.208859 2.91462e-20)
(1.26064 0.202513 7.34303e-20)
(1.25486 0.194574 -3.56373e-20)
(1.24791 0.18678 -5.60012e-20)
(1.24168 0.175989 8.68824e-21)
(0.00308396 -4.34006e-05 2.68097e-20)
(0.0350089 -0.00283532 5.84344e-21)
(0.0950108 -0.00125311 -7.27961e-20)
(0.18268 0.00511941 9.5067e-20)
(0.297022 0.0179259 2.09113e-20)
(0.434657 0.0382833 -1.08702e-19)
(0.588564 0.0659613 4.11161e-20)
(0.747723 0.099028 -5.36168e-20)
(0.898525 0.133905 2.69921e-21)
(1.02813 0.166244 8.71379e-21)
(1.12821 0.19234 2.50135e-20)
(1.19682 0.210214 2.91622e-21)
(1.23765 0.219831 1.10373e-19)
(1.25748 0.222549 4.37299e-20)
(1.26359 0.220283 -2.0494e-20)
(1.26191 0.214835 -2.3964e-20)
(1.25647 0.207537 1.38514e-20)
(1.2496 0.199094 1.42053e-20)
(1.24219 0.190723 -2.37718e-20)
(1.23558 0.17992 -2.66281e-20)
(0.00765796 -0.00124534 -3.14716e-20)
(0.0503851 -0.00501071 1.93876e-21)
(0.12305 -0.00226505 1.49014e-20)
(0.224604 0.00699705 -4.00803e-20)
(0.352833 0.024117 7.67055e-20)
(0.502386 0.0496376 4.3349e-20)
(0.663731 0.0823646 -4.37227e-20)
(0.823617 0.119194 -2.86953e-20)
(0.967707 0.155631 2.57835e-20)
(1.08463 0.187139 -3.97423e-20)
(1.16918 0.210606 2.94953e-20)
(1.22271 0.225053 -5.88136e-22)
(1.25121 0.231357 9.69923e-22)
(1.26234 0.231414 -2.1687e-20)
(1.26304 0.227275 6.14218e-20)
(1.25839 0.220616 -5.08858e-21)
(1.25146 0.212528 2.61664e-20)
(1.2439 0.20363 -3.79054e-20)
(1.23621 0.194702 2.92418e-20)
(1.22931 0.183871 -1.17902e-20)
(0.0130708 -0.00229079 5.21061e-20)
(0.0679718 -0.00650965 5.97455e-20)
(0.1543 -0.00189578 4.36307e-20)
(0.270165 0.0110114 -6.2075e-21)
(0.411808 0.0330694 8.90692e-21)
(0.571606 0.0640118 7.90922e-22)
(0.737519 0.101477 9.49001e-20)
(0.894662 0.141187 -2.79165e-20)
(1.02905 0.178016 1.94054e-20)
(1.13176 0.207661 -9.75053e-20)
(1.20097 0.227903 1.41747e-20)
(1.24095 0.238801 4.22659e-20)
(1.25922 0.241998 -1.89963e-20)
(1.26362 0.239723 3.89858e-20)
(1.26043 0.234005 -5.0735e-20)
(1.25375 0.226324 6.8802e-20)
(1.24586 0.217544 2.19921e-21)
(1.23786 0.208197 -2.29806e-20)
(1.23 0.19872 9.19036e-22)
(1.22287 0.187833 3.52353e-20)
(0.019355 -0.00309782 -9.87369e-20)
(0.0877636 -0.00711573 2.42422e-20)
(0.188592 0.000149403 -9.06993e-21)
(0.318888 0.0174566 -6.64256e-20)
(0.473038 0.0449668 -2.4049e-20)
(0.640963 0.0813671 -4.59539e-20)
(0.808375 0.122998 -3.92142e-20)
(0.959593 0.164543 -4.19329e-20)
(1.08206 0.20063 4.25324e-20)
(1.16993 0.227578 2.08286e-20)
(1.22471 0.244231 -6.06322e-20)
(1.25294 0.251628 -1.49616e-20)
(1.26297 0.251986 -7.05277e-21)
(1.26231 0.247681 -2.93692e-20)
(1.25635 0.240613 -5.02987e-21)
(1.24831 0.232032 -1.21537e-20)
(1.23981 0.222608 -4.86988e-20)
(1.23152 0.212797 2.38808e-20)
(1.22354 0.202768 2.93847e-20)
(1.21624 0.191793 -7.18799e-21)
(0.0265232 -0.00357715 3.70004e-21)
(0.109693 -0.00660548 -4.39774e-20)
(0.22565 0.00415361 2.01181e-20)
(0.370158 0.0265805 -1.37919e-20)
(0.535488 0.059906 1.68669e-20)
(0.709095 0.10156 7.59508e-20)
(0.874952 0.146562 -3.28097e-20)
(1.01756 0.188823 8.05018e-20)
(1.12669 0.223146 3.91116e-21)
(1.19989 0.246773 3.91576e-20)
(1.24158 0.25967 3.43018e-21)
(1.25992 0.263719 2.65564e-20)
(1.26347 0.26152 5.47058e-21)
(1.25907 0.255443 2.66241e-21)
(1.25119 0.247186 -3.83254e-20)
(1.24225 0.237775 6.76582e-21)
(1.23335 0.227725 3.49902e-20)
(1.22489 0.21742 1.55047e-21)
(1.21685 0.206835 -1.74649e-20)
(1.20943 0.195736 7.11021e-21)
(0.0345658 -0.00363479 1.23931e-20)
(0.133623 -0.00475705 3.60972e-20)
(0.265093 0.0103743 3.82977e-20)
(0.42324 0.0385683 -1.01575e-20)
(0.598057 0.0778896 4.86958e-20)
(0.774717 0.12436 -9.62032e-21)
(0.93618 0.171777 7.76574e-20)
(1.06811 0.213645 -9.73588e-20)
(1.16326 0.245336 -1.7154e-20)
(1.22251 0.265217 -1.691e-20)
(1.2527 0.274339 -2.01954e-20)
(1.26292 0.275254 -4.79249e-21)
(1.26149 0.270761 6.75239e-21)
(1.25439 0.263111 -2.4699e-20)
(1.2452 0.253773 2.5513e-20)
(1.23566 0.243566 -1.10509e-20)
(1.22652 0.232885 -8.64947e-21)
(1.21795 0.22205 -7.77914e-21)
(1.20991 0.210903 -4.85142e-21)
(1.2024 0.199642 -1.59453e-20)
(0.0434476 -0.00317531 5.89955e-20)
(0.15935 -0.00135975 -5.58997e-20)
(0.306439 0.0190297 6.57248e-21)
(0.477306 0.0535315 -6.72391e-21)
(0.659628 0.0988275 -1.78223e-20)
(0.836691 0.149467 -3.61359e-20)
(0.991293 0.198251 -5.35365e-21)
(1.11114 0.238688 2.38138e-20)
(1.19228 0.267055 1.07861e-20)
(1.23871 0.282938 -1.30694e-20)
(1.25905 0.288369 1.45658e-20)
(1.26277 0.286384 -3.15664e-21)
(1.25758 0.279825 -2.85048e-20)
(1.24857 0.27075 4.14405e-20)
(1.23849 0.260394 1.14409e-20)
(1.22859 0.249396 -6.09485e-21)
(1.21931 0.238067 7.43606e-21)
(1.21071 0.226665 1.16258e-20)
(1.2027 0.214953 1.15508e-20)
(1.19515 0.203489 1.22911e-20)
(0.0531067 -0.00210548 -6.16546e-20)
(0.186601 0.00377612 4.70415e-20)
(0.349121 0.0302863 2.02957e-20)
(0.531474 0.0715006 -4.09987e-20)
(0.719131 0.122545 -8.82246e-21)
(0.89407 0.176542 -3.32782e-20)
(1.03982 0.225618 1.31723e-20)
(1.14678 0.263701 -2.16366e-20)
(1.21444 0.288222 1.6121e-21)
(1.2494 0.299998 3.4024e-21)
(1.26149 0.301886 6.38408e-21)
(1.26009 0.297228 -2.40283e-20)
(1.25213 0.288787 2.44226e-20)
(1.24179 0.278388 -1.7327e-20)
(1.23115 0.267043 -4.78946e-21)
(1.22104 0.255247 2.29909e-21)
(1.21172 0.243245 -5.1353e-21)
(1.20315 0.23124 -1.17995e-20)
(1.19522 0.218962 -5.47111e-22)
(1.18766 0.207252 -8.206e-21)
(0.0634544 -0.000338306 -7.75533e-21)
(0.215041 0.0108097 -2.22457e-20)
(0.392504 0.0442494 -7.45907e-21)
(0.584841 0.0924226 1.17259e-20)
(0.77559 0.148797 -7.38205e-21)
(0.946121 0.205222 7.43496e-21)
(1.08153 0.253546 1.71932e-20)
(1.17538 0.28849 1.50873e-20)
(1.23041 0.308802 1.18331e-20)
(1.25535 0.316464 -2.57719e-21)
(1.26068 0.314992 -6.76433e-21)
(1.25535 0.307868 7.93658e-21)
(1.2454 0.297688 -3.88701e-21)
(1.23419 0.286027 4.83127e-21)
(1.22321 0.273701 -2.95557e-21)
(1.21302 0.261087 6.24485e-21)
(1.20373 0.248386 -1.69687e-21)
(1.19525 0.235749 7.39394e-21)
(1.18744 0.222904 -1.74373e-21)
(1.17992 0.210906 1.20879e-21)
(0.0743755 0.00220298 -1.85573e-22)
(0.244279 0.0198608 -8.47884e-23)
(0.435911 0.0609557 -2.63248e-21)
(0.636526 0.116164 1.30353e-20)
(0.828151 0.177282 8.27958e-21)
(0.992326 0.235144 -6.30144e-21)
(1.11642 0.28174 -4.68827e-21)
(1.19739 0.312908 -1.41815e-21)
(1.24089 0.328783 -6.66078e-21)
(1.25726 0.332403 -4.00642e-22)
(1.25717 0.327763 2.70232e-22)
(1.24889 0.31835 -2.77991e-21)
(1.23756 0.306535 -1.7737e-21)
(1.22581 0.293649 -3.98477e-21)
(1.21468 0.280335 -4.19993e-21)
(1.20452 0.266882 -3.53969e-22)
(1.19533 0.253456 1.52844e-21)
(1.187 0.240161 1.64459e-21)
(1.17936 0.226749 1.92172e-21)
(1.17194 0.214422 2.72738e-21)
(0.0857314 0.00558103 9.51229e-21)
(0.273885 0.031003 -1.47314e-21)
(0.478642 0.0803699 -2.51243e-21)
(0.685697 0.142519 6.29759e-21)
(0.876109 0.207655 1.23776e-20)
(1.03236 0.265947 -5.40441e-21)
(1.14464 0.309944 -4.31695e-21)
(1.21329 0.336839 -7.88756e-21)
(1.24652 0.348165 -6.91168e-21)
(1.25572 0.347866 1.30552e-21)
(1.25138 0.340246 -1.1214e-21)
(1.24095 0.328691 -4.44999e-22)
(1.22872 0.315315 -2.53518e-21)
(1.21669 0.30122 -3.97605e-21)
(1.20556 0.286904 -8.48652e-22)
(1.19551 0.27259 -3.12369e-22)
(1.1865 0.258414 -1.29235e-22)
(1.17839 0.244444 7.39252e-22)
(1.17098 0.230464 2.7976e-21)
(1.16373 0.21777 2.20804e-21)
(0.0973628 0.0098409 -5.81566e-21)
(0.303395 0.044258 -8.82548e-21)
(0.520005 0.102384 -1.15454e-20)
(0.731604 0.171215 1.5186e-20)
(0.918915 0.239549 1.41108e-20)
(1.06607 0.297289 7.97848e-23)
(1.16645 0.337932 5.0264e-21)
(1.22362 0.360193 1.3712e-20)
(1.24787 0.366946 1.45272e-20)
(1.25119 0.36288 8.9841e-21)
(1.2436 0.352457 -2.14321e-20)
(1.23168 0.33888 8.71558e-21)
(1.21894 0.323993 -3.64033e-21)
(1.20683 0.308692 8.56133e-21)
(1.19583 0.293359 -1.56362e-22)
(1.186 0.278164 -1.35046e-21)
(1.17724 0.263221 7.3654e-22)
(1.16941 0.248561 6.27805e-21)
(1.1623 0.234007 -2.56297e-21)
(1.15528 0.220923 -3.46316e-22)
(0.109094 0.0150073 -1.93413e-20)
(0.332335 0.0595927 4.25517e-20)
(0.559332 0.126823 4.03539e-21)
(0.773594 0.201927 -5.18981e-20)
(0.956166 0.272578 -9.08753e-21)
(1.09345 0.328843 2.10267e-20)
(1.18217 0.365501 -4.73145e-20)
(1.22887 0.382887 -2.56177e-22)
(1.24543 0.385115 3.7103e-21)
(1.24404 0.377452 -1.02432e-21)
(1.23406 0.364387 1.1252e-20)
(1.2212 0.348882 -1.74734e-20)
(1.20824 0.332519 2.61832e-21)
(1.19625 0.316011 -5.55191e-21)
(1.1855 0.299647 -4.03185e-21)
(1.17596 0.283557 3.90333e-21)
(1.16753 0.267834 -3.45159e-22)
(1.16005 0.252472 -9.76279e-21)
(1.15329 0.237334 4.1952e-22)
(1.14658 0.223846 -3.9769e-21)
(0.120739 0.0210824 1.45335e-20)
(0.360228 0.0769183 -2.43994e-20)
(0.596006 0.153444 -1.92956e-21)
(0.811122 0.234289 -4.45522e-20)
(0.987604 0.306351 -2.5956e-20)
(1.11458 0.3603 2.07943e-20)
(1.19217 0.392469 -2.35591e-20)
(1.22952 0.404843 2.53022e-21)
(1.23963 0.402647 1.76488e-20)
(1.23457 0.391564 -4.73794e-21)
(1.22293 0.375999 1.89974e-21)
(1.20957 0.358645 5.58018e-21)
(1.19666 0.34083 -1.71996e-20)
(1.18494 0.323115 2.08888e-20)
(1.17454 0.305712 1.85376e-20)
(1.1654 0.288719 -4.42193e-21)