/*--------------------------------*- C++ -*----------------------------------*\
  =========                 |
  \\      /  F ield         | OpenFOAM: The Open Source CFD Toolbox
   \\    /   O peration     | Website:  https://openfoam.org
    \\  /    A nd           | Version:  7
     \\/     M anipulation  |
\*---------------------------------------------------------------------------*/
FoamFile
{
    version     2.0;
    format      ascii;
    class       volScalarField;
    location    "24.000396";
    object      p;
}
// * * * * * * * * * * * * * * * * * * * * * * * * * * * * * * * * * * * * * //

dimensions      [0 2 -2 0 0 0 0];

internalField   nonuniform List<scalar> 
5800
(
-0.258281
-0.25882
-0.259291
-0.259663
-0.259895
-0.259947
-0.259774
-0.259359
-0.258669
-0.250374
-0.252154
-0.253231
-0.254075
-0.254813
-0.255469
-0.256084
-0.256683
-0.257279
-0.25787
-0.258444
-0.258979
-0.259448
-0.259818
-0.26005
-0.2601
-0.25992
-0.259492
-0.258789
-0.250925
-0.252643
-0.253685
-0.254501
-0.255215
-0.255852
-0.256448
-0.257032
-0.257615
-0.258195
-0.25876
-0.259288
-0.259753
-0.26012
-0.26035
-0.260396
-0.260202
-0.259745
-0.259037
-0.251733
-0.253361
-0.254351
-0.255126
-0.255805
-0.256411
-0.25698
-0.25754
-0.258102
-0.258664
-0.259214
-0.259731
-0.260187
-0.260548
-0.260773
-0.260816
-0.260605
-0.26009
-0.259431
-0.252777
-0.254291
-0.255213
-0.255935
-0.256567
-0.25713
-0.257662
-0.258188
-0.25872
-0.259255
-0.259783
-0.260282
-0.260724
-0.261076
-0.261292
-0.261329
-0.261103
-0.26048
-0.260004
-0.254031
-0.255412
-0.256253
-0.25691
-0.257481
-0.25799
-0.258472
-0.258953
-0.259443
-0.259942
-0.260438
-0.26091
-0.261332
-0.261667
-0.26187
-0.261896
-0.261675
-0.260837
-0.260802
-0.256539
-0.255466
-0.256699
-0.257448
-0.258028
-0.258528
-0.258969
-0.259388
-0.259809
-0.260245
-0.260694
-0.261146
-0.261581
-0.261971
-0.262283
-0.262462
-0.262467
-0.2623
-0.261048
-0.261867
-0.255573
-0.257054
-0.258129
-0.258777
-0.259269
-0.259683
-0.260043
-0.260383
-0.26073
-0.261095
-0.26148
-0.261873
-0.262256
-0.262602
-0.262878
-0.263023
-0.262974
-0.262953
-0.261033
-0.263066
-0.2546
-0.258764
-0.259679
-0.260218
-0.260611
-0.260927
-0.26119
-0.261434
-0.261688
-0.261964
-0.262266
-0.262584
-0.262899
-0.263184
-0.26341
-0.263511
-0.263356
-0.263517
-0.261131
-0.263745
-0.253704
-0.260572
-0.261327
-0.261752
-0.262037
-0.262241
-0.262389
-0.262518
-0.262659
-0.262826
-0.263025
-0.263247
-0.263474
-0.263681
-0.263837
-0.26388
-0.263657
-0.263834
-0.261027
-0.264448
-0.252483
-0.262458
-0.26306
-0.263367
-0.263532
-0.263608
-0.263624
-0.263618
-0.263623
-0.263658
-0.263731
-0.263836
-0.263955
-0.264063
-0.264129
-0.264094
-0.263754
-0.264021
-0.260553
-0.265088
-0.25098
-0.264408
-0.264865
-0.265051
-0.265087
-0.265019
-0.264882
-0.264719
-0.264565
-0.264444
-0.264368
-0.264333
-0.264322
-0.26431
-0.264264
-0.264136
-0.263622
-0.264034
-0.259738
-0.265455
-0.249365
-0.26642
-0.266742
-0.266803
-0.266697
-0.26647
-0.26616
-0.265815
-0.265477
-0.265177
-0.264927
-0.264729
-0.264568
-0.264415
-0.264235
-0.263997
-0.263269
-0.263795
-0.258681
-0.26527
-0.24789
-0.268497
-0.268695
-0.268626
-0.268368
-0.267963
-0.267457
-0.266908
-0.266362
-0.265857
-0.265411
-0.265028
-0.264695
-0.264383
-0.264046
-0.263675
-0.262714
-0.263217
-0.257521
-0.264202
-0.246735
-0.270658
-0.270738
-0.270534
-0.270108
-0.269506
-0.268784
-0.268006
-0.267229
-0.266495
-0.265831
-0.265244
-0.264721
-0.26423
-0.263715
-0.263172
-0.261985
-0.262218
-0.256361
-0.262027
-0.245789
-0.272928
-0.272894
-0.272545
-0.271935
-0.271118
-0.270157
-0.269128
-0.268096
-0.267114
-0.266213
-0.265403
-0.264673
-0.263983
-0.263264
-0.262495
-0.261085
-0.260753
-0.255163
-0.258789
-0.244632
-0.275346
-0.275193
-0.274686
-0.273876
-0.272821
-0.2716
-0.270298
-0.268992
-0.267743
-0.266589
-0.265541
-0.264584
-0.263671
-0.262714
-0.261646
-0.25998
-0.25883
-0.253711
-0.254772
-0.242785
-0.277956
-0.277671
-0.276993
-0.27596
-0.274647
-0.273144
-0.27155
-0.269953
-0.268422
-0.266999
-0.265697
-0.264492
-0.263322
-0.262075
-0.260621
-0.2586
-0.256479
-0.251724
-0.250233
-0.24001
-0.280814
-0.280375
-0.279503
-0.278226
-0.276631
-0.274827
-0.272923
-0.27102
-0.269194
-0.267489
-0.265914
-0.264431
-0.262953
-0.26134
-0.2594
-0.25687
-0.253724
-0.248999
-0.24518
-0.2364
-0.283976
-0.283353
-0.282259
-0.280713
-0.278814
-0.276689
-0.274461
-0.272239
-0.270105
-0.268103
-0.266229
-0.264425
-0.262569
-0.260488
-0.257941
-0.254732
-0.250577
-0.245487
-0.239578
-0.23225
-0.287505
-0.286656
-0.28531
-0.283466
-0.281241
-0.278776
-0.276209
-0.273656
-0.271202
-0.26888
-0.26667
-0.264481
-0.262153
-0.25948
-0.256199
-0.252162
-0.24705
-0.241278
-0.233918
-0.227464
-0.291461
-0.290335
-0.288701
-0.286531
-0.283955
-0.281133
-0.278214
-0.275318
-0.272524
-0.269852
-0.26725
-0.26459
-0.261674
-0.258273
-0.254132
-0.249168
-0.243137
-0.236507
-0.228631
-0.221468
-0.295903
-0.294442
-0.29248
-0.289954
-0.287002
-0.283806
-0.280521
-0.277266
-0.274107
-0.271037
-0.267966
-0.264725
-0.261084
-0.25682
-0.251719
-0.245779
-0.238853
-0.231476
-0.223074
-0.215337
-0.300886
-0.299024
-0.296692
-0.293779
-0.290428
-0.28684
-0.283172
-0.279535
-0.275971
-0.272435
-0.268793
-0.264838
-0.260333
-0.255084
-0.248957
-0.242034
-0.234282
-0.226221
-0.217404
-0.209312
-0.306458
-0.304125
-0.301382
-0.29805
-0.294276
-0.290277
-0.286206
-0.282153
-0.278125
-0.274031
-0.269691
-0.264876
-0.259369
-0.253039
-0.245858
-0.237985
-0.229478
-0.220829
-0.211656
-0.20327
-0.312659
-0.309785
-0.306587
-0.302807
-0.298588
-0.294156
-0.289653
-0.285135
-0.28056
-0.275787
-0.270599
-0.264772
-0.258143
-0.250673
-0.242444
-0.233676
-0.224492
-0.215329
-0.205842
-0.197239
-0.319522
-0.316035
-0.312344
-0.308087
-0.3034
-0.29851
-0.293533
-0.288478
-0.283245
-0.277645
-0.271446
-0.264462
-0.256616
-0.247982
-0.238738
-0.229145
-0.219354
-0.209735
-0.199973
-0.191166
-0.327066
-0.322899
-0.318679
-0.313922
-0.308742
-0.30336
-0.297849
-0.292158
-0.286127
-0.279528
-0.272151
-0.263881
-0.254759
-0.244969
-0.234763
-0.224412
-0.214074
-0.204043
-0.194033
-0.185034
-0.335301
-0.330391
-0.325612
-0.320333
-0.314634
-0.308713
-0.302586
-0.296128
-0.289126
-0.281343
-0.272625
-0.262971
-0.252549
-0.241636
-0.230529
-0.219484
-0.208649
-0.198239
-0.188004
-0.178818
-0.344218
-0.338511
-0.333149
-0.327329
-0.321079
-0.314554
-0.307697
-0.300309
-0.29214
-0.282984
-0.272785
-0.261683
-0.249969
-0.237984
-0.226038
-0.214355
-0.203062
-0.192302
-0.181863
-0.172497
-0.353789
-0.347243
-0.34128
-0.334901
-0.328056
-0.320839
-0.313107
-0.304595
-0.295048
-0.284338
-0.272551
-0.259975
-0.247
-0.234004
-0.221278
-0.209008
-0.197292
-0.186206
-0.175585
-0.166048
-0.363965
-0.356547
-0.349975
-0.343016
-0.335516
-0.32749
-0.318705
-0.30885
-0.297712
-0.285293
-0.271849
-0.257805
-0.243622
-0.229678
-0.21623
-0.203418
-0.19131
-0.179926
-0.169144
-0.159449
-0.374666
-0.366361
-0.359176
-0.35161
-0.343377
-0.334395
-0.324347
-0.312917
-0.29999
-0.285743
-0.270612
-0.255137
-0.239809
-0.224981
-0.210865
-0.197555
-0.185086
-0.173434
-0.162516
-0.152678
-0.385784
-0.376593
-0.368795
-0.360587
-0.351517
-0.341399
-0.329857
-0.316621
-0.301735
-0.285586
-0.268778
-0.251929
-0.235527
-0.219882
-0.205151
-0.191386
-0.178589
-0.166702
-0.155675
-0.145715
-0.397177
-0.387118
-0.378709
-0.369809
-0.359774
-0.348314
-0.335036
-0.319781
-0.302808
-0.284729
-0.266287
-0.248139
-0.23074
-0.214343
-0.19905
-0.184875
-0.171787
-0.159703
-0.148598
-0.13854
-0.408666
-0.397777
-0.38876
-0.3791
-0.367945
-0.354919
-0.339667
-0.322213
-0.303076
-0.283083
-0.263078
-0.243718
-0.225402
-0.208321
-0.192525
-0.177987
-0.164651
-0.152412
-0.141261
-0.131133
-0.420041
-0.408374
-0.398748
-0.388245
-0.375793
-0.360968
-0.343525
-0.32374
-0.302415
-0.280565
-0.259091
-0.238616
-0.219469
-0.201776
-0.185535
-0.170687
-0.15715
-0.144803
-0.133642
-0.123478
-0.431054
-0.41868
-0.408438
-0.39699
-0.383052
-0.366202
-0.346387
-0.324195
-0.30071
-0.277095
-0.254266
-0.23278
-0.212893
-0.194662
-0.178042
-0.162944
-0.149258
-0.136854
-0.12572
-0.115559
-0.441429
-0.428431
-0.417562
-0.405053
-0.389433
-0.370354
-0.348037
-0.323422
-0.297854
-0.272597
-0.248539
-0.226157
-0.205624
-0.186939
-0.170012
-0.154727
-0.14095
-0.128544
-0.117478
-0.107367
-0.450865
-0.437339
-0.425822
-0.412126
-0.394637
-0.373161
-0.348274
-0.321279
-0.29375
-0.266999
-0.241852
-0.218694
-0.197619
-0.178565
-0.16141
-0.146008
-0.132205
-0.119855
-0.108906
-0.0989014
-0.459041
-0.445092
-0.432901
-0.417889
-0.398364
-0.374376
-0.346912
-0.31764
-0.28831
-0.260232
-0.234147
-0.210342
-0.188832
-0.169506
-0.152206
-0.136763
-0.123002
-0.110772
-0.099994
-0.0901686
-0.465628
-0.451364
-0.438468
-0.422019
-0.400323
-0.373766
-0.343788
-0.312393
-0.281452
-0.252233
-0.225371
-0.201054
-0.179227
-0.15973
-0.142375
-0.126971
-0.113325
-0.101278
-0.0907317
-0.0811617
-0.47029
-0.455824
-0.442193
-0.4242
-0.400244
-0.371127
-0.33876
-0.305442
-0.273107
-0.242945
-0.215476
-0.190791
-0.168769
-0.14921
-0.131897
-0.116618
-0.103161
-0.0913611
-0.0811022
-0.0718417
-0.472703
-0.458147
-0.443752
-0.424133
-0.397881
-0.366282
-0.331711
-0.296707
-0.263215
-0.23232
-0.204421
-0.179519
-0.157433
-0.137925
-0.120756
-0.10569
-0.0924988
-0.0810177
-0.0711034
-0.0621275
-0.472556
-0.45802
-0.442842
-0.421549
-0.393024
-0.359084
-0.322545
-0.286125
-0.25173
-0.220321
-0.192177
-0.167214
-0.145199
-0.125862
-0.10894
-0.0941785
-0.0813334
-0.0702487
-0.0607649
-0.0519704
-0.469565
-0.455157
-0.439186
-0.416213
-0.385498
-0.349421
-0.311193
-0.27365
-0.238618
-0.206921
-0.178721
-0.153858
-0.132054
-0.113011
-0.0964453
-0.0820839
-0.0696731
-0.0590606
-0.0500867
-0.0415147
-0.463479
-0.449301
-0.432549
-0.407929
-0.37517
-0.337213
-0.297612
-0.259256
-0.223861
-0.192104
-0.164039
-0.139441
-0.117992
-0.0993732
-0.0832807
-0.0694182
-0.0575461
-0.0475058
-0.038953
-0.0308864
-0.454086
-0.440236
-0.422734
-0.39655
-0.361947
-0.322415
-0.281781
-0.242935
-0.207452
-0.175865
-0.148128
-0.123965
-0.103028
-0.0849679
-0.0694739
-0.0562076
-0.0449498
-0.0355418
-0.0274617
-0.0200301
-0.441223
-0.427794
-0.409597
-0.381975
-0.34578
-0.305013
-0.263706
-0.224695
-0.189397
-0.158208
-0.13101
-0.107454
-0.0872022
-0.0698218
-0.0550174
-0.0424546
-0.0319032
-0.0231808
-0.015659
-0.00892545
-0.424775
-0.411856
-0.393044
-0.364154
-0.326663
-0.285028
-0.243417
-0.204564
-0.16972
-0.139162
-0.11274
-0.0899639
-0.0705025
-0.0539423
-0.0399449
-0.0281843
-0.0184261
-0.0104514
-0.00356826
0.00241839
-0.404683
-0.392356
-0.373037
-0.343086
-0.304629
-0.262514
-0.220968
-0.182591
-0.148479
-0.118832
-0.0933118
-0.0714947
-0.0529796
-0.0373648
-0.0242894
-0.0134284
-0.00454624
0.00261465
0.00878943
0.0139765
-0.380943
-0.369285
-0.349589
-0.31882
-0.279757
-0.237556
-0.196437
-0.158856
-0.125769
-0.0972048
-0.0727971
-0.0520992
-0.0346795
-0.0201338
-0.00809067
0.0017758
0.00970201
0.0159832
0.021385
0.0257157
-0.353606
-0.342689
-0.322771
-0.291458
-0.252168
-0.210255
-0.16992
-0.133456
-0.101632
-0.0743699
-0.0512622
-0.0318408
-0.0156574
-0.00230106
0.00860504
0.0173857
0.0242792
0.0296169
0.0341824
0.0375957
-0.322779
-0.312666
-0.292712
-0.261161
-0.221996
-0.180714
-0.141549
-0.106493
-0.0761712
-0.0504168
-0.028786
-0.0107923
0.00402236
0.0160751
0.0257447
0.0333528
0.0391413
0.0434763
0.0471436
0.0495752
-0.288621
-0.279371
-0.259593
-0.228098
-0.189324
-0.149144
-0.11147
-0.0780939
-0.0495008
-0.0254475
-0.00545885
0.0109645
0.0242868
0.0349288
0.0432687
0.0496227
0.0542403
0.0575223
0.060235
0.0616198
-0.25132
-0.243019
-0.223627
-0.192345
-0.154425
-0.115752
-0.0798542
-0.0484067
-0.0217512
0.000423416
0.0186173
0.0333384
0.0450546
0.0541876
0.0611111
0.066135
0.0695248
0.0717162
0.0734204
0.0736863
-0.211063
-0.203899
-0.184951
-0.15415
-0.11764
-0.0807286
-0.0468844
-0.0175938
0.00693483
0.0270697
0.0433302
0.0562298
0.0662373
0.0737725
0.0792007
0.0828269
0.0849452
0.0860159
0.0866253
0.0856327
-0.168094
-0.162329
-0.143705
-0.114062
-0.0791583
-0.0443012
-0.0127616
0.0141691
0.0364024
0.0543542
0.0685584
0.0795309
0.0877396
0.0935988
0.0974626
0.099638
0.10046
0.100368
0.0996867
0.0971175
-0.122763
-0.118491
-0.100563
-0.072252
-0.0392443
-0.00671271
0.022301
0.0466944
0.0664854
0.08213
0.0941717
0.103127
0.10946
0.113576
0.11582
0.116511
0.116028
0.114698
0.112394
0.107867
-0.0757473
-0.072624
-0.0557738
-0.0290245
0.00181472
0.0317812
0.0580783
0.0797833
0.0970086
0.110242
0.120033
0.126896
0.13129
0.13361
0.134193
0.133384
0.131581
0.128891
0.124704
0.11852
-0.027186
-0.0252524
-0.00966657
0.0152843
0.0437149
0.0709126
0.0943346
0.113228
0.127788
0.138528
0.145999
0.150712
0.153118
0.153603
0.152499
0.150176
0.147004
0.142808
0.13673
0.131093
0.0225327
0.0232014
0.0373841
0.0603238
0.0861414
0.110404
0.130826
0.146815
0.158635
0.166819
0.171921
0.174444
0.17483
0.173454
0.170651
0.166795
0.162182
0.156454
0.149024
0.143614
0.0729746
0.0723297
0.0849849
0.105734
0.128772
0.149973
0.167304
0.180323
0.189354
0.194945
0.197648
0.197958
0.196307
0.193062
0.188557
0.183156
0.177077
0.169906
0.161412
0.155628
0.123704
0.121716
0.132735
0.151147
0.17128
0.18933
0.203516
0.213529
0.219748
0.222731
0.223025
0.221117
0.21743
0.212321
0.206121
0.199173
0.191635
0.18312
0.173675
0.167208
0.17428
0.170935
0.180232
0.196198
0.21334
0.22819
0.239207
0.246209
0.249619
0.250001
0.247898
0.243786
0.238079
0.231125
0.223248
0.214767
0.205802
0.196015
0.185638
0.178321
0.224266
0.219563
0.227073
0.240522
0.254628
0.266265
0.274125
0.27814
0.278769
0.276582
0.272112
0.265829
0.258135
0.249368
0.239845
0.229859
0.219508
0.20851
0.197209
0.188959
0.273225
0.267177
0.272865
0.283758
0.294823
0.303274
0.308021
0.309101
0.307003
0.302299
0.295515
0.287112
0.277478
0.266946
0.255819
0.244371
0.232683
0.220525
0.208312
0.199087
0.320732
0.313366
0.317218
0.325559
0.333617
0.338942
0.340653
0.338877
0.334131
0.326986
0.317959
0.307502
0.295993
0.283756
0.27108
0.258223
0.245254
0.23199
0.218887
0.208668
0.366373
0.357728
0.359761
0.365585
0.370708
0.373003
0.371785
0.36726
0.359968
0.350477
0.339299
0.326873
0.313569
0.299699
0.285543
0.271339
0.257152
0.24284
0.228877
0.217663
0.409749
0.399878
0.400135
0.403515
0.405809
0.405204
0.401191
0.39405
0.384337
0.372618
0.359396
0.345102
0.330096
0.31468
0.299123
0.283645
0.268312
0.253016
0.238231
0.226036
0.450485
0.439453
0.438
0.439041
0.43865
0.435304
0.428658
0.419057
0.407069
0.393258
0.37812
0.362074
0.345473
0.32861
0.311741
0.295073
0.27867
0.262461
0.246899
0.233752
0.488225
0.476109
0.47304
0.47188
0.468975
0.463077
0.453987
0.442103
0.428007
0.412259
0.395346
0.37768
0.359604
0.341403
0.323322
0.305556
0.288169
0.271123
0.254837
0.24078
0.522642
0.50953
0.504962
0.501767
0.496551
0.488316
0.476991
0.463025
0.447006
0.429491
0.410961
0.391819
0.372401
0.352983
0.3338
0.315034
0.296756
0.278954
0.262004
0.247091
0.553437
0.53943
0.533499
0.528463
0.521165
0.51083
0.497503
0.481672
0.463933
0.444838
0.424861
0.4044
0.383782
0.363277
0.343109
0.323452
0.304381
0.28591
0.268362
0.25266
0.580345
0.56555
0.558414
0.551753
0.542626
0.530452
0.515373
0.497912
0.478669
0.458193
0.436953
0.415341
0.393676
0.372223
0.351196
0.330762
0.311001
0.29195
0.273876
0.257466
0.603132
0.587668
0.579501
0.571453
0.56077
0.547033
0.53047
0.511627
0.491111
0.469466
0.447157
0.42457
0.40202
0.379764
0.358011
0.33692
0.316578
0.29704
0.278519
0.261493
0.621602
0.605593
0.596583
0.587404
0.575455
0.560451
0.542683
0.52272
0.501171
0.478579
0.455404
0.432027
0.408759
0.385854
0.363514
0.34189
0.321079
0.301149
0.282264
0.264727
0.635596
0.619173
0.60952
0.59948
0.586569
0.570603
0.551921
0.53111
0.508779
0.485469
0.461638
0.437663
0.413853
0.390456
0.36767
0.345644
0.324478
0.304253
0.285091
0.26716
0.644993
0.628291
0.618204
0.607585
0.594026
0.577413
0.558119
0.536737
0.513881
0.490089
0.465818
0.441441
0.417266
0.393539
0.370455
0.348159
0.326756
0.306333
0.286985
0.268785
0.443336
0.418979
0.395086
0.371852
0.34942
0.327898
0.307376
0.287934
0.269598
-0.260568
-0.260259
-0.259426
-0.257983
-0.259422
-0.255973
-0.257829
-0.256647
-0.253447
-0.255391
-0.254643
-0.250391
-0.25211
-0.251829
-0.251319
-0.246716
-0.248076
-0.248261
-0.248107
-0.24244
-0.243505
-0.244061
-0.24418
-0.24422
-0.237905
-0.238772
-0.239415
-0.239653
-0.239923
-0.240204
-0.233703
-0.234292
-0.23448
-0.234502
-0.234793
-0.235159
-0.227857
-0.230057
-0.230405
-0.230617
-0.231075
-0.231562
-0.231938
-0.222771
-0.225535
-0.225968
-0.226191
-0.226738
-0.227348
-0.227838
-0.217714
-0.220813
-0.221236
-0.221435
-0.222054
-0.222783
-0.223381
-0.212673
-0.215945
-0.21639
-0.216606
-0.217301
-0.218136
-0.218835
-0.207495
-0.210942
-0.211475
-0.21174
-0.212504
-0.213431
-0.214224
-0.202214
-0.20585
-0.206507
-0.206837
-0.207665
-0.208675
-0.209556
-0.19692
-0.200709
-0.201503
-0.201911
-0.202801
-0.203888
-0.204852
-0.191642
-0.195544
-0.19648
-0.196976
-0.19793
-0.199087
-0.200131
-0.186394
-0.190379
-0.191455
-0.192045
-0.193062
-0.194287
-0.195406
-0.181194
-0.185238
-0.186443
-0.187128
-0.188209
-0.189497
-0.190687
-0.176054
-0.180134
-0.181458
-0.182236
-0.183379
-0.184725
-0.185982
-0.170979
-0.175078
-0.176511
-0.177377
-0.178579
-0.179981
-0.181299
-0.165974
-0.170079
-0.17161
-0.17256
-0.173817
-0.17527
-0.176646
-0.161048
-0.165145
-0.166764
-0.167793
-0.169102
-0.170601
-0.172029
-0.156206
-0.160282
-0.161981
-0.163083
-0.16444
-0.16598
-0.167455
-0.151456
-0.1555
-0.157268
-0.158438
-0.159837
-0.161413
-0.16293
-0.146804
-0.150804
-0.152632
-0.153864
-0.1553
-0.156907
-0.15846
-0.142256
-0.1462
-0.148079
-0.149366
-0.150835
-0.152467
-0.154051
-0.137814
-0.141695
-0.143615
-0.144949
-0.146445
-0.148097
-0.149706
-0.133481
-0.137292
-0.139242
-0.140617
-0.142135
-0.143802
-0.14543
-0.12926
-0.132993
-0.134965
-0.136374
-0.137908
-0.139585
-0.141228
-0.12515
-0.128801
-0.130786
-0.132223
-0.133769
-0.13545
-0.137103
-0.121154
-0.124718
-0.126708
-0.128166
-0.129718
-0.1314
-0.133057
-0.11727
-0.120743
-0.122732
-0.124205
-0.125759
-0.127437
-0.129094
-0.113499
-0.116879
-0.11886
-0.120342
-0.121895
-0.123564
-0.125217
-0.109841
-0.113125
-0.115092
-0.116579
-0.118125
-0.119782
-0.121427
-0.106296
-0.109482
-0.11143
-0.112916
-0.114453
-0.116094
-0.117727
-0.102863
-0.105949
-0.107873
-0.109354
-0.110878
-0.112501
-0.114117
-0.0995414
-0.102526
-0.104422
-0.105895
-0.107402
-0.109003
-0.110601
-0.0963294
-0.0992125
-0.101077
-0.102537
-0.104025
-0.105602
-0.107177
-0.0932258
-0.0960074
-0.0978364
-0.0992808
-0.100748
-0.102298
-0.103848
-0.0902291
-0.0929093
-0.0947004
-0.0961261
-0.0975692
-0.0990905
-0.100614
-0.0873374
-0.0899171
-0.0916678
-0.0930722
-0.0944894
-0.0959801
-0.0974745
-0.0845489
-0.087029
-0.0887374
-0.0901181
-0.0915077
-0.0929663
-0.09443
-0.0818616
-0.0842435
-0.0859079
-0.0872629
-0.0886235
-0.0900487
-0.09148
-0.0792734
-0.0815587
-0.0831778
-0.0845054
-0.0858358
-0.0872265
-0.0886243
-0.0767822
-0.0789727
-0.0805456
-0.0818444
-0.0831435
-0.0844989
-0.0858622
-0.0743859
-0.0764837
-0.0780096
-0.0792785
-0.0805455
-0.081865
-0.0831929
-0.0720823
-0.0740895
-0.0755682
-0.0768061
-0.0780405
-0.0793236
-0.0806156
-0.0698692
-0.0717882
-0.0732195
-0.0744257
-0.0756271
-0.0768737
-0.0781294
-0.0677446
-0.0695777
-0.0709617
-0.0721358
-0.0733039
-0.0745139
-0.0757331
-0.0657062
-0.0674561
-0.068793
-0.0699347
-0.0710694
-0.0722429
-0.0734257
-0.0637521
-0.0654213
-0.0667116
-0.0678207
-0.0689222
-0.0700594
-0.0712058
-0.0618801
-0.0634714
-0.0647157
-0.0657923
-0.0668608
-0.0679621
-0.0690723
-0.0600884
-0.0616045
-0.0628036
-0.0638478
-0.0648836
-0.0659494
-0.067024
-0.058375
-0.0598186
-0.0609734
-0.0619855
-0.0629891
-0.0640201
-0.0650595
-0.0567382
-0.058112
-0.0592235
-0.060204
-0.0611759
-0.0621728
-0.0631777
-0.055176
-0.056483
-0.0575523
-0.0585017
-0.0594425
-0.0604061
-0.0613772
-0.053687
-0.0549299
-0.0559582
-0.0568771
-0.0577877
-0.0587187
-0.0596568
-0.0522695
-0.0534511
-0.0544397
-0.0553289
-0.0562099
-0.0571094
-0.0580154
-0.0509221
-0.0520452
-0.0529954
-0.0538557
-0.0547081
-0.055577
-0.056452
-0.0496435
-0.0507108
-0.051624
-0.0524563
-0.0532811
-0.0541205
-0.0549654
-0.0484323
-0.0494467
-0.0503244
-0.0511296
-0.0519277
-0.0527387
-0.0535546
-0.0472875
-0.0482517
-0.0490954
-0.0498746
-0.0506471
-0.0514308
-0.052219
-0.0462081
-0.0471248
-0.0479361
-0.0486904
-0.0494383
-0.050196
-0.0509576
-0.0451932
-0.0460652
-0.0468457
-0.0475761
-0.0483007
-0.0490337
-0.0497699
-0.0442423
-0.0450722
-0.0458235
-0.0465313
-0.0472337
-0.0479432
-0.0486555
-0.0433546
-0.0441453
-0.0448691
-0.0455555
-0.046237
-0.0469243
-0.0476139
-0.0425299
-0.0432841
-0.0439821
-0.0446484
-0.0453102
-0.0459768
-0.0466451
-0.0417681
-0.0424884
-0.0431625
-0.0438099
-0.0444533
-0.0451006
-0.0457491
-0.041069
-0.0417583
-0.0424102
-0.0430402
-0.0436667
-0.0442961
-0.0449262
-0.0404331
-0.0410941
-0.0417257
-0.0423396
-0.0429506
-0.0435636
-0.0441769
-0.0398609
-0.0404963
-0.0411095
-0.0417089
-0.0423058
-0.0429041
-0.0435021
-0.0393531
-0.0399658
-0.0405626
-0.0411491
-0.0417334
-0.0423184
-0.0429029
-0.0389108
-0.0395038
-0.0400862
-0.0406613
-0.0412347
-0.0418081
-0.0423807
-0.0385356
-0.0391119
-0.039682
-0.0402475
-0.0408114
-0.0413751
-0.0419376
-0.0382292
-0.0387918
-0.039352
-0.0399095
-0.0404659
-0.0410215
-0.0415757
-0.037994
-0.038546
-0.0390985
-0.03965
-0.0402005
-0.04075
-0.0412979
-0.0378342
-0.038379
-0.0389263
-0.0394736
-0.0400201
-0.0405654
-0.0411089
-0.037747
-0.0382891
-0.0388345
-0.0393803
-0.0399252
-0.0404687
-0.0410103
-0.0930198
-0.101246
-0.10925
-0.117035
-0.124608
-0.131979
-0.139162
-0.146172
-0.153023
-0.159732
-0.166315
-0.172786
-0.179162
-0.185451
-0.191662
-0.1978
-0.203831
-0.209902
-0.215567
-0.222613
-0.0899371
-0.0979023
-0.105666
-0.113235
-0.120617
-0.127822
-0.134861
-0.141746
-0.14849
-0.155106
-0.161607
-0.168004
-0.174308
-0.18053
-0.186663
-0.192757
-0.198683
-0.204906
-0.21041
-0.217922
-0.0869881
-0.0946471
-0.102122
-0.10942
-0.11655
-0.123521
-0.130343
-0.137025
-0.143578
-0.150013
-0.156339
-0.162569
-0.168709
-0.174782
-0.180764
-0.186782
-0.192594
-0.198919
-0.204409
-0.21186
-0.0841548
-0.0915348
-0.0987503
-0.105809
-0.112717
-0.119484
-0.126119
-0.132629
-0.139025
-0.145317
-0.151513
-0.157629
-0.163665
-0.169666
-0.175577
-0.181598
-0.18737
-0.193722
-0.199271
-0.206366
-0.0814546
-0.0885741
-0.0955488
-0.102385
-0.10909
-0.115671
-0.122137
-0.128496
-0.134758
-0.140934
-0.147029
-0.153065
-0.159032
-0.164995
-0.170859
-0.17687
-0.182591
-0.188844
-0.1944
-0.20104
-0.0788863
-0.0857533
-0.0924926
-0.0991098
-0.105611
-0.112006
-0.1183
-0.124505
-0.130625
-0.136676
-0.142658
-0.148598
-0.154474
-0.160363
-0.166137
-0.172064
-0.177696
-0.183771
-0.189332
-0.195632
-0.0764389
-0.0830597
-0.0895676
-0.0959676
-0.102266
-0.10847
-0.114588
-0.120628
-0.126596
-0.132505
-0.138354
-0.144172
-0.149925
-0.155701
-0.161358
-0.167161
-0.172716
-0.178618
-0.184216
-0.190288
-0.0741035
-0.0804853
-0.086767
-0.0929535
-0.0990503
-0.105065
-0.111004
-0.116876
-0.122684
-0.128444
-0.134149
-0.139832
-0.145453
-0.151103
-0.156649
-0.162327
-0.167827
-0.173574
-0.179179
-0.185051
-0.0718741
-0.078024
-0.0840854
-0.0900628
-0.0959614
-0.101788
-0.107549
-0.113252
-0.118899
-0.124507
-0.130066
-0.135611
-0.141102
-0.146625
-0.152068
-0.157616
-0.163052
-0.168637
-0.174189
-0.179882
-0.0697451
-0.0756703
-0.0815172
-0.0872902
-0.0929939
-0.0986349
-0.104218
-0.109752
-0.115239
-0.120693
-0.126106
-0.13151
-0.13687
-0.142261
-0.147592
-0.152998
-0.158342
-0.163764
-0.169232
-0.174778
-0.0677111
-0.0734187
-0.0790568
-0.08463
-0.0901422
-0.0956
-0.101008
-0.106374
-0.111699
-0.116998
-0.122262
-0.127521
-0.132746
-0.137994
-0.143204
-0.14846
-0.153697
-0.15897
-0.16434
-0.16975
-0.0657671
-0.0712637
-0.076699
-0.082077
-0.0874015
-0.0926787
-0.0979126
-0.103111
-0.108275
-0.113417
-0.118532
-0.123642
-0.128727
-0.133829
-0.13891
-0.144019
-0.149141
-0.154273
-0.159528
-0.164798
-0.063908
-0.0692005
-0.0744388
-0.0796265
-0.0847672
-0.0898668
-0.094929
-0.0999611
-0.104964
-0.10995
-0.114913
-0.119873
-0.124816
-0.129771
-0.134721
-0.139686
-0.144683
-0.149672
-0.154798
-0.159925
-0.0621292
-0.0672244
-0.0722716
-0.0772738
-0.0822349
-0.0871603
-0.0920534
-0.0969209
-0.101764
-0.106593
-0.111405
-0.116214
-0.121015
-0.125823
-0.130638
-0.135458
-0.14032
-0.145166
-0.150158
-0.155139
-0.060427
-0.0653314
-0.070193
-0.0750148
-0.0798005
-0.0845551
-0.089282
-0.093987
-0.0986723
-0.103345
-0.108007
-0.112666
-0.117323
-0.121983
-0.126658
-0.131333
-0.136058
-0.14076
-0.145615
-0.150449
-0.0587971
-0.0635172
-0.0681988
-0.0728451
-0.0774599
-0.0820475
-0.0866113
-0.0911564
-0.0956855
-0.100205
-0.104716
-0.109225
-0.113737
-0.118251
-0.122784
-0.127315
-0.1319
-0.136459
-0.141173
-0.145859
-0.0572357
-0.061778
-0.066285
-0.070761
-0.0752093
-0.0796338
-0.0840379
-0.0884259
-0.0928011
-0.097168
-0.10153
-0.105891
-0.110258
-0.114626
-0.119017
-0.123405
-0.127848
-0.132264
-0.136834
-0.141374
-0.0557404
-0.0601106
-0.0644484
-0.0687589
-0.0730452
-0.0773106
-0.0815584
-0.0857924
-0.0900161
-0.0942332
-0.098448
-0.102662
-0.106884
-0.111108
-0.115356
-0.119601
-0.123902
-0.128176
-0.132601
-0.136997
-0.0543087
-0.058512
-0.062686
-0.0668357
-0.0709643
-0.0750746
-0.0791696
-0.0832529
-0.0873279
-0.0913977
-0.0954669
-0.0995364
-0.103615
-0.107696
-0.111802
-0.115905
-0.120063
-0.124196
-0.128476
-0.132728
-0.0529362
-0.0569784
-0.0609939
-0.0649879
-0.0689632
-0.0729223
-0.0768683
-0.0808043
-0.0847337
-0.088659
-0.092585
-0.0965119
-0.100449
-0.104389
-0.108353
-0.112315
-0.116331
-0.120324
-0.124458
-0.128568
-0.0516204
-0.0555068
-0.0593692
-0.0632121
-0.0670385
-0.0708507
-0.0746516
-0.0784437
-0.0822306
-0.0860144
-0.0897998
-0.0935866
-0.0973838
-0.101184
-0.105009
-0.108832
-0.112707
-0.116561
-0.12055
-0.124518
-0.0503587
-0.0540946
-0.0578088
-0.0615055
-0.0651874
-0.0688568
-0.0725163
-0.0761682
-0.079816
-0.0834614
-0.087109
-0.0907584
-0.0944182
-0.0980819
-0.101769
-0.105454
-0.10919
-0.112906
-0.116751
-0.120578
-0.0491486
-0.052739
-0.0563099
-0.059865
-0.0634069
-0.0669376
-0.0704596
-0.0739751
-0.0774872
-0.0809974
-0.0845102
-0.0880251
-0.0915502
-0.0950793
-0.0986304
-0.102181
-0.105779
-0.109358
-0.113062
-0.116749
-0.0479873
-0.0514373
-0.0548697
-0.0582879
-0.0616941
-0.0650903
-0.0684788
-0.0718616
-0.0752414
-0.0786199
-0.0820011
-0.0853845
-0.0887777
-0.0921748
-0.0955929
-0.0990107
-0.102473
-0.105919
-0.109482
-0.11303
-0.0468726
-0.0501872
-0.0534858
-0.0567715
-0.0600464
-0.0633122
-0.0665711
-0.0698249
-0.0730762
-0.0763264
-0.0795792
-0.0828343
-0.0860986
-0.0893667
-0.0926544
-0.0959421
-0.0992715
-0.102585
-0.106011
-0.109422
-0.0458023
-0.0489862
-0.0521557
-0.0553134
-0.0584612
-0.0616008
-0.064734
-0.0678626
-0.070989
-0.0741143
-0.0772422
-0.0803722
-0.0835108
-0.0866529
-0.0898133
-0.0929735
-0.0961729
-0.0993571
-0.102648
-0.105924
-0.0447743
-0.0478323
-0.0508771
-0.0539111
-0.056936
-0.0599534
-0.0629649
-0.0659721
-0.0689772
-0.0719813
-0.0749877
-0.077996
-0.0810121
-0.0840314
-0.0870675
-0.0901034
-0.0931757
-0.0962334
-0.0993923
-0.102536
-0.0437867
-0.0467233
-0.0496478
-0.0525624
-0.0554686
-0.0583677
-0.0612614
-0.064151
-0.0670385
-0.069925
-0.0728133
-0.0757033
-0.0786003
-0.0815001
-0.0844153
-0.0873298
-0.0902784
-0.0932125
-0.0962425
-0.0992577
-0.0428378
-0.0456574
-0.0484658
-0.0512651
-0.0540567
-0.0568416
-0.0596212
-0.0623969
-0.0651705
-0.0679429
-0.0707168
-0.073492
-0.0762733
-0.0790569
-0.0818544
-0.084651
-0.087479
-0.0902929
-0.0931973
-0.0960867
-0.0419258
-0.0446326
-0.0473292
-0.0500173
-0.0526982
-0.0553727
-0.0580421
-0.0607077
-0.063371
-0.066033
-0.0686959
-0.0713597
-0.0740288
-0.0766997
-0.079383
-0.0820649
-0.0847758
-0.0874727
-0.0902549
-0.0930221
-0.0410492
-0.0436473
-0.0462361
-0.0488171
-0.0513911
-0.053959
-0.056522
-0.0590811
-0.0616378
-0.0641928
-0.0667484
-0.0693043
-0.0718647
-0.0744262
-0.0769988
-0.0795695
-0.0821668
-0.0847502
-0.0874136
-0.0900621
-0.0402064
-0.0426997
-0.0451847
-0.0476624
-0.0501335
-0.0525985
-0.0550587
-0.057515
-0.0599686
-0.0624204
-0.0648721
-0.0673237
-0.0697788
-0.0722345
-0.0746999
-0.0771628
-0.07965
-0.0821234
-0.0846717
-0.0872051
-0.039396
-0.0417887
-0.0441738
-0.046552
-0.0489236
-0.0512895
-0.0536505
-0.0560075
-0.0583616
-0.0607135
-0.0630649
-0.0654156
-0.067769
-0.0701223
-0.072484
-0.0748427
-0.0772233
-0.0795902
-0.082027
-0.084449
-0.0386146
-0.0409118
-0.0432013
-0.0454837
-0.0477597
-0.05003
-0.0522954
-0.0545567
-0.0568148
-0.0590703
-0.0613248
-0.0635781
-0.0658332
-0.0680876
-0.070349
-0.072607
-0.0748846
-0.0771487
-0.0794776
-0.081792
-0.037861
-0.040068
-0.0422659
-0.0444561
-0.04664
-0.0488182
-0.0509916
-0.0531606
-0.0553262
-0.0574887
-0.0596498
-0.061809
-0.0639694
-0.0661283
-0.068293
-0.0704537
-0.0726319
-0.0747967
-0.0770215
-0.079232
-0.0371392
-0.0392577
-0.0413669
-0.0434683
-0.0455634
-0.047653
-0.0497376
-0.0518177
-0.053894
-0.055967
-0.0580379
-0.0601065
-0.0621754
-0.0642423
-0.0663137
-0.0683808
-0.0704631
-0.0725321
-0.0746565
-0.0767669
-0.036448
-0.0384798
-0.0405031
-0.042519
-0.0445286
-0.0465328
-0.0485319
-0.0505263
-0.0525167
-0.0545033
-0.0564874
-0.0584688
-0.0604496
-0.0624278
-0.0644094
-0.0663861
-0.068376
-0.0703528
-0.0723805
-0.0743945
-0.0357835
-0.0377321
-0.0396729
-0.0416065
-0.043534
-0.045456
-0.0473728
-0.0492848
-0.0511924
-0.053096
-0.0549966
-0.0568938
-0.0587899
-0.0606827
-0.0625778
-0.0644676
-0.0663687
-0.0682568
-0.0701915
-0.0721127
-0.0351452
-0.0370139
-0.0388753
-0.0407299
-0.0425784
-0.0444214
-0.0462591
-0.0480917
-0.0499197
-0.0517434
-0.0535636
-0.05538
-0.0571945
-0.0590053
-0.0608172
-0.0626234
-0.0644392
-0.066242
-0.0680872
-0.0699193
-0.034532
-0.0363242
-0.0381093
-0.0398879
-0.0416606
-0.0434275
-0.0451891
-0.0469455
-0.0486971
-0.0504439
-0.0521868
-0.0539255
-0.0556617
-0.0573936
-0.0591257
-0.0608516
-0.0625854
-0.0643063
-0.0660657
-0.0678123
-0.0339432
-0.0356619
-0.0373739
-0.0390795
-0.0407792
-0.0424732
-0.0441618
-0.0458449
-0.047523
-0.0491961
-0.0508648
-0.0525289
-0.0541898
-0.055846
-0.0575014
-0.0591503