/*--------------------------------*- C++ -*----------------------------------*\
  =========                 |
  \\      /  F ield         | OpenFOAM: The Open Source CFD Toolbox
   \\    /   O peration     | Website:  https://openfoam.org
    \\  /    A nd           | Version:  7
     \\/     M anipulation  |
\*---------------------------------------------------------------------------*/
FoamFile
{
    version     2.0;
    format      ascii;
    class       volVectorField;
    location    "79.999654";
    object      U;
}
// * * * * * * * * * * * * * * * * * * * * * * * * * * * * * * * * * * * * * //

dimensions      [0 1 -1 0 0 0 0];

internalField   nonuniform List<vector> 
5800
(
(-0.172479 0.00181725 -4.55828e-22)
(-0.16592 0.00455182 -1.38316e-20)
(-0.152708 0.00691809 2.06453e-20)
(-0.13271 0.00873192 6.75527e-21)
(-0.105622 0.0098824 -1.73011e-20)
(-0.176166 0.00287106 2.69432e-21)
(-0.179122 0.00347843 2.57401e-21)
(-0.182044 0.00408052 -4.78929e-21)
(-0.184857 0.00472941 2.30471e-21)
(-0.187553 0.00543497 -1.35713e-21)
(-0.190121 0.00620134 -4.84137e-22)
(-0.192553 0.00702581 2.74774e-21)
(-0.19485 0.00790414 -4.02693e-21)
(-0.197009 0.00882886 1.76095e-21)
(-0.199032 0.00979023 1.67595e-21)
(-0.200919 0.0107763 -3.50603e-21)
(-0.202669 0.0117728 -9.99571e-23)
(-0.204283 0.0127627 2.9038e-21)
(-0.205759 0.0137266 -2.24346e-22)
(-0.207095 0.0146421 -1.25122e-21)
(-0.20829 0.0154843 1.10351e-21)
(-0.20934 0.0162254 -5.38278e-22)
(-0.210242 0.0168355 7.35965e-22)
(-0.210991 0.017282 -5.47638e-22)
(-0.211582 0.0175308 -3.78937e-22)
(-0.212009 0.0175466 1.6504e-21)
(-0.212264 0.0172932 -4.77166e-22)
(-0.212341 0.0167349 -1.12279e-21)
(-0.212229 0.015837 7.49666e-22)
(-0.21192 0.0145673 2.54351e-22)
(-0.211402 0.012897 -9.52433e-22)
(-0.210663 0.0108024 1.1185e-21)
(-0.209688 0.00826724 -9.26161e-22)
(-0.208459 0.00528631 -6.69527e-22)
(-0.206951 0.00186412 1.92299e-21)
(-0.205158 -0.00198487 -1.35301e-21)
(-0.203081 -0.00626245 -2.47688e-22)
(-0.200696 -0.0109012 2.7719e-22)
(-0.19798 -0.0158377 4.66061e-24)
(-0.194913 -0.020986 7.58209e-22)
(-0.191473 -0.0262403 -1.01356e-21)
(-0.187637 -0.0314732 8.5391e-22)
(-0.183379 -0.0365366 -9.41216e-24)
(-0.178673 -0.041265 -5.59534e-23)
(-0.173487 -0.0454779 -1.00576e-22)
(-0.16779 -0.0489844 6.18116e-22)
(-0.161542 -0.0515868 -1.65636e-23)
(-0.154698 -0.0530886 -2.56736e-22)
(-0.14721 -0.053307 -1.19617e-22)
(-0.139028 -0.0520802 6.92243e-23)
(-0.130095 -0.049289 -3.59929e-22)
(-0.120347 -0.0448564 4.53217e-22)
(-0.109736 -0.0387681 -1.18637e-22)
(-0.0982332 -0.0310691 2.48888e-22)
(-0.0857992 -0.0218924 -8.21839e-23)
(-0.0724655 -0.0114738 7.58798e-24)
(-0.0582673 -0.000111554 3.3718e-23)
(-0.0432511 0.011818 -1.46467e-22)
(-0.0275358 0.0239389 1.65012e-22)
(-0.0112071 0.0356846 -1.41929e-22)
(0.00562234 0.0465624 1.25018e-23)
(0.0228865 0.0560344 8.67792e-23)
(0.040571 0.0636231 -4.20804e-24)
(0.058687 0.0688731 -3.34938e-23)
(0.0773711 0.0714545 -1.72387e-23)
(0.0966744 0.0709633 -8.1158e-24)
(0.117002 0.067564 2.13656e-23)
(0.138008 0.0606116 -1.86207e-23)
(0.160804 0.0515462 -1.27366e-23)
(0.183274 0.0384411 6.08845e-24)
(0.209291 0.0257392 -1.54508e-23)
(0.230715 0.00789034 5.26601e-24)
(0.261537 -0.00538587 -2.8676e-24)
(0.275471 -0.0242327 1.80516e-24)
(0.315392 -0.0404055 -1.80384e-25)
(-0.16903 0.00617797 -1.00582e-21)
(-0.171893 0.0067838 -1.79367e-21)
(-0.174685 0.00723609 -1.71192e-21)
(-0.177355 0.00769694 2.47639e-22)
(-0.179913 0.00820163 -1.23633e-21)
(-0.182345 0.00876405 9.99485e-21)
(-0.184643 0.00938867 -7.28441e-21)
(-0.186804 0.0100732 5.44371e-21)
(-0.188828 0.0108111 -4.13102e-21)
(-0.190714 0.0115927 -2.79962e-21)
(-0.192462 0.012406 2.88587e-21)
(-0.194071 0.0132363 2.90691e-21)
(-0.19554 0.0140659 -6.43859e-21)
(-0.196867 0.0148748 1.48179e-21)
(-0.198052 0.01564 -2.723e-21)
(-0.199089 0.016336 2.80931e-21)
(-0.199977 0.0169343 -6.98628e-22)
(-0.200711 0.0174043 5.36793e-21)
(-0.201285 0.0177129 -2.2103e-21)
(-0.201695 0.0178254 8.04964e-22)
(-0.201933 0.0177058 1.28686e-21)
(-0.201992 0.0173176 -3.88351e-21)
(-0.201865 0.0166246 4.86279e-22)
(-0.201542 0.0155917 -6.3227e-22)
(-0.201016 0.0141864 -1.27236e-23)
(-0.200274 0.0123794 4.7248e-22)
(-0.199308 0.0101467 1.99455e-21)
(-0.198103 0.00747239 -6.76474e-22)
(-0.196644 0.0043523 -1.55482e-21)
(-0.194916 0.000799951 2.95307e-21)
(-0.192923 -0.00323021 -4.99115e-21)
(-0.190658 -0.00767361 1.23244e-21)
(-0.188102 -0.0124793 4.32121e-21)
(-0.185247 -0.017585 -2.89172e-21)
(-0.182079 -0.0229052 -1.18334e-21)
(-0.178589 -0.0283345 1.79738e-21)
(-0.174763 -0.0337461 -3.04087e-21)
(-0.170587 -0.0389928 4.34917e-21)
(-0.166047 -0.0439092 -1.84055e-21)
(-0.161124 -0.0483155 -5.37587e-22)
(-0.155796 -0.0520226 4.03911e-22)
(-0.150033 -0.0548354 -1.07976e-23)
(-0.143795 -0.0565588 2.05934e-22)
(-0.137038 -0.0570106 -7.46047e-23)
(-0.129711 -0.0560298 4.90734e-22)
(-0.121751 -0.0535014 -2.94664e-22)
(-0.113074 -0.0493461 5.31172e-22)
(-0.103612 -0.043541 -7.30835e-22)
(-0.0932996 -0.0361278 -1.68739e-22)
(-0.0820604 -0.0272319 -2.59395e-22)
(-0.0698808 -0.0170574 7.27542e-22)
(-0.056741 -0.00592319 -8.46267e-22)
(-0.0426003 0.00578191 -2.20544e-22)
(-0.027528 0.0177322 2.44669e-22)
(-0.0115646 0.0293524 -4.21949e-23)
(0.00525079 0.0401267 -6.77093e-23)
(0.0228946 0.0495291 -3.1256e-23)
(0.0413917 0.0570513 3.16583e-23)
(0.0607588 0.0622141 -1.50971e-22)
(0.081105 0.0646851 1.12388e-22)
(0.102471 0.0640331 1.9653e-23)
(0.125105 0.0604664 -2.8168e-24)
(0.14872 0.0532984 4.563e-23)
(0.174001 0.0441051 -3.21168e-23)
(0.199209 0.030838 -1.33581e-24)
(0.227269 0.0182409 -4.1965e-24)
(0.251076 0.000393972 8.05626e-25)
(0.282911 -0.0123942 -6.76697e-24)
(0.298432 -0.0309718 7.94195e-24)
(0.337718 -0.0462391 1.16052e-24)
(-0.154707 0.00919417 4.41129e-23)
(-0.157426 0.0098148 5.5318e-21)
(-0.16 0.0101346 1.15039e-21)
(-0.162424 0.0104229 -1.09657e-20)
(-0.16475 0.0107368 -6.84963e-21)
(-0.166958 0.0111024 6.13244e-21)
(-0.169036 0.0115322 1.44996e-20)
(-0.17098 0.012027 -8.03252e-21)
(-0.172788 0.0125819 -3.03017e-21)
(-0.174458 0.0131874 1.72157e-21)
(-0.17599 0.0138314 3.85417e-21)
(-0.177382 0.0144988 -5.23471e-21)
(-0.178632 0.0151715 5.90782e-21)
(-0.179737 0.0158289 -5.11913e-21)
(-0.180695 0.0164475 1.02768e-20)
(-0.181501 0.0170009 -9.75075e-21)
(-0.182151 0.0174603 1.72202e-21)
(-0.182641 0.0177943 -1.35149e-20)
(-0.182965 0.0179693 4.89952e-21)
(-0.183115 0.01795 -3.74824e-21)
(-0.183086 0.0176999 1.48858e-21)
(-0.182869 0.0171819 1.30727e-20)
(-0.182456 0.0163596 -7.07323e-21)
(-0.181839 0.0151976 2.38035e-21)
(-0.181009 0.0136632 -6.54504e-21)
(-0.179958 0.0117269 5.5544e-21)
(-0.178676 0.00936444 -7.81495e-21)
(-0.177149 0.00655962 3.2064e-21)
(-0.17536 0.00330429 -1.0537e-21)
(-0.173332 -0.000389146 2.47263e-21)
(-0.171051 -0.00456462 2.48473e-21)
(-0.16849 -0.00915051 3.36099e-21)
(-0.165662 -0.0141005 -2.91281e-21)
(-0.162563 -0.0193522 5.76014e-22)
(-0.159189 -0.0248192 -1.53518e-21)
(-0.155539 -0.030396 2.95477e-21)
(-0.15161 -0.0359562 -1.62459e-21)
(-0.147401 -0.0413528 7.63569e-22)
(-0.14291 -0.0464212 -3.45379e-21)
(-0.13813 -0.0509824 7.63529e-22)
(-0.133052 -0.0548494 1.30169e-21)
(-0.127652 -0.0578307 -2.40928e-21)
(-0.121899 -0.0597334 1.81867e-21)
(-0.115754 -0.0603778 2.00184e-21)
(-0.109167 -0.0596049 -1.31295e-21)
(-0.102069 -0.0573087 -3.69354e-22)
(-0.0943634 -0.0534077 -1.14406e-21)
(-0.0859581 -0.0478758 2.55846e-22)
(-0.0767606 -0.0407529 3.6527e-22)
(-0.0666511 -0.0321598 7.55634e-22)
(-0.0555756 -0.022274 -8.20605e-22)
(-0.0434682 -0.0114321 5.37414e-22)
(-0.0301973 3.41597e-05 3.57883e-22)
(-0.0157776 0.0116919 -3.62293e-22)
(-0.000211653 0.0230486 2.20297e-23)
(0.0165382 0.03359 2.8652e-22)
(0.0344867 0.0427941 -1.06008e-22)
(0.0536825 0.0501197 3.35649e-24)
(0.0741501 0.0550692 1.60652e-22)
(0.0959618 0.0573238 -6.05425e-24)
(0.119145 0.0564222 1.98983e-22)
(0.143787 0.0526408 -1.45574e-22)
(0.169659 0.0452327 -5.76972e-23)
(0.197037 0.03594 1.39014e-22)
(0.224545 0.0225636 -6.37003e-23)
(0.254235 0.0101654 5.94233e-23)
(0.279958 -0.00755981 4.15819e-23)
(0.312466 -0.0197429 2.53082e-23)
(0.329233 -0.037822 -3.58075e-23)
(0.367709 -0.0519989 -8.62932e-25)
(-0.13314 0.0118093 1.94162e-22)
(-0.135701 0.0124479 -2.0733e-20)
(-0.137986 0.0126595 -4.62552e-21)
(-0.140073 0.0128016 2.35555e-20)
(-0.142085 0.0129426 -1.67757e-20)
(-0.143993 0.0131242 2.87678e-21)
(-0.145778 0.013369 1.032e-20)
(-0.147435 0.0136824 -8.62068e-21)
(-0.148962 0.0140609 -8.25677e-21)
(-0.150353 0.0144962 1.36925e-20)
(-0.151607 0.014976 4.45751e-21)
(-0.152721 0.0154851 -5.10515e-21)
(-0.153691 0.0160051 -5.21547e-21)
(-0.154512 0.0165151 3.58923e-22)
(-0.155183 0.0169908 1.18837e-20)
(-0.155696 0.0174056 -5.924e-21)
(-0.156048 0.01773 -5.72492e-22)
(-0.156232 0.017932 -6.51748e-21)
(-0.156242 0.0179774 -4.4737e-22)
(-0.156069 0.0178304 2.66933e-21)
(-0.155707 0.0174539 6.62518e-21)
(-0.155148 0.0168106 -7.29437e-21)
(-0.154381 0.0158637 6.25602e-21)
(-0.1534 0.0145779 -3.52025e-21)
(-0.152197 0.0129203 -1.66535e-21)
(-0.150763 0.0108617 -8.02316e-22)
(-0.14909 0.00837797 4.40448e-21)
(-0.147169 0.00545634 4.88768e-21)
(-0.144984 0.00208961 -9.284e-21)
(-0.142567 -0.0017625 -1.99476e-21)
(-0.139908 -0.0060603 8.84323e-21)
(-0.136974 -0.0107705 -2.98337e-21)
(-0.13379 -0.0158435 -5.44691e-21)
(-0.130359 -0.0212182 2.30879e-21)
(-0.126687 -0.0268065 -3.23477e-21)
(-0.122782 -0.0325031 3.18956e-21)
(-0.118652 -0.0381813 -1.9134e-21)
(-0.114308 -0.0436947 7.04116e-21)
(-0.109758 -0.0488789 8.24199e-22)
(-0.105011 -0.0535562 -3.99612e-22)
(-0.100067 -0.0575419 -2.26841e-21)
(-0.0949125 -0.0606491 -3.49132e-21)
(-0.0895241 -0.062688 -8.59768e-22)
(-0.0838657 -0.0634823 3.81268e-21)
(-0.0778961 -0.0628739 4.33554e-22)
(-0.0715398 -0.0607752 -1.48503e-21)
(-0.0646889 -0.0571011 3.46333e-22)
(-0.0572335 -0.0518269 2.08192e-22)
(-0.0490551 -0.0449928 1.2764e-21)
(-0.0399896 -0.0367161 -7.02821e-22)
(-0.0299509 -0.0271449 -4.44898e-22)
(-0.0188189 -0.0166507 7.1824e-23)
(-0.00640923 -0.00549315 1.20214e-21)
(0.00732597 0.00575953 -6.52991e-22)
(0.0224617 0.016768 -7.02768e-22)
(0.0390806 0.0269819 2.45225e-22)
(0.0572211 0.0358645 8.67006e-23)
(0.0769531 0.0428764 3.25437e-23)
(0.0983109 0.0475014 -4.18611e-22)
(0.12132 0.0494504 2.25719e-22)
(0.146001 0.0482273 -3.63236e-23)
(0.172267 0.0441986 8.41833e-23)
(0.199971 0.0365389 -1.18266e-22)
(0.228979 0.027184 -1.42386e-22)
(0.258281 0.0137545 8.02394e-23)
(0.289134 0.00163129 -4.99133e-23)
(0.316255 -0.0158391 -5.53124e-23)
(0.349066 -0.0273363 -4.12016e-23)
(0.366702 -0.0447261 2.4002e-23)
(0.404218 -0.0576673 -1.30169e-24)
(-0.10416 0.0139937 2.15977e-20)
(-0.106614 0.0145877 -7.74618e-21)
(-0.108553 0.0147156 5.36547e-21)
(-0.110235 0.0147489 -3.46466e-20)
(-0.111873 0.014744 1.63675e-20)
(-0.113427 0.0147618 -2.15821e-20)
(-0.11487 0.0148373 2.41094e-20)
(-0.116195 0.0149815 -2.26172e-20)
(-0.117397 0.0151936 -5.7191e-21)
(-0.118469 0.0154666 4.62288e-20)
(-0.119406 0.0157888 -2.55043e-20)
(-0.120203 0.0161452 2.19604e-20)
(-0.120854 0.0165175 -4.56345e-21)
(-0.121355 0.0168842 -2.55614e-23)
(-0.121699 0.0172211 -1.33629e-20)
(-0.121881 0.0175011 -5.78924e-21)
(-0.121893 0.0176941 -2.78374e-21)
(-0.12173 0.0177677 7.15486e-21)
(-0.121383 0.0176873 -1.77763e-20)
(-0.120845 0.0174164 8.64497e-21)
(-0.120106 0.0169176 -5.08604e-21)
(-0.119157 0.0161531 2.25378e-21)
(-0.11799 0.0150861 4.97668e-21)
(-0.116596 0.0136813 1.01079e-20)
(-0.114968 0.0119064 -6.55286e-21)
(-0.113099 0.00973231 -5.72488e-21)
(-0.110979 0.00713402 4.40472e-21)
(-0.1086 0.00409964 6.78329e-22)
(-0.105979 0.000632346 4.72182e-21)
(-0.103131 -0.00334644 -3.88388e-21)
(-0.100021 -0.00776622 -5.14591e-21)
(-0.0966485 -0.012584 8.30062e-21)
(-0.0930428 -0.0177608 -7.16453e-21)
(-0.0892145 -0.0232371 4.87957e-21)
(-0.0851743 -0.028923 1.87023e-21)
(-0.0809405 -0.0347129 -3.06422e-21)
(-0.0765323 -0.04048 -1.81199e-21)
(-0.0719704 -0.046078 2.48222e-21)
(-0.0672756 -0.0513434 -4.21611e-21)
(-0.0624681 -0.0560995 1.14116e-21)
(-0.0575612 -0.0601639 -1.43505e-21)
(-0.0525501 -0.0633549 5.22618e-22)
(-0.0474173 -0.0654872 -4.80338e-22)
(-0.0421312 -0.0663867 2.23172e-21)
(-0.0366615 -0.0658994 -2.09146e-21)
(-0.0309292 -0.0639603 1.36325e-21)
(-0.0248162 -0.0604816 -2.56349e-21)
(-0.0181996 -0.0554427 8.77304e-22)
(-0.0109385 -0.048886 2.31125e-21)
(-0.00282338 -0.0409159 -1.76938e-21)
(0.00625705 -0.0317439 -1.10651e-21)
(0.0164562 -0.0216302 1.38271e-21)
(0.0280119 -0.0108867 -9.95739e-22)
(0.0410585 1.69426e-06 5.19552e-22)
(0.0557267 0.0105518 8.78075e-23)
(0.0721135 0.0203387 1.4095e-22)
(0.0903006 0.0287925 -6.71132e-22)
(0.110369 0.0353908 2.11606e-22)
(0.132361 0.0395984 -2.69572e-23)
(0.156245 0.041171 3.19582e-22)
(0.182051 0.0395715 -5.45894e-22)
(0.2095 0.035277 2.25212e-22)
(0.238559 0.0273666 8.46761e-23)
(0.268683 0.0179945 9.72841e-23)
(0.299231 0.00457791 -3.29573e-23)
(0.330748 -0.00721998 5.15204e-23)
(0.358725 -0.0243206 9.32188e-23)
(0.391447 -0.0350652 -5.59438e-23)
(0.409555 -0.0516212 -7.15922e-23)
(0.445949 -0.0632226 5.74348e-24)
(-0.0674024 0.0157506 -9.79162e-21)
(-0.0699168 0.0161577 8.89302e-21)
(-0.0714495 0.0162408 6.1939e-21)
(-0.0726926 0.01621 -4.00011e-20)
(-0.0739366 0.0160946 4.14125e-20)
(-0.0751195 0.0159773 -1.41933e-22)
(-0.0762074 0.0159057 -2.8194e-20)
(-0.077191 0.0158976 1.76577e-20)
(-0.0780609 0.0159563 5.36063e-21)
(-0.0788075 0.0160769 5.68331e-21)
(-0.0794223 0.0162492 -2.14462e-20)
(-0.0798973 0.0164588 -1.91129e-20)
(-0.080225 0.0166879 6.42696e-21)
(-0.080398 0.0169153 1.76906e-20)
(-0.0804089 0.0171166 -1.0943e-20)
(-0.08025 0.0172646 2.96197e-20)
(-0.0799135 0.017329 -3.25567e-20)
(-0.0793911 0.0172771 3.60068e-20)
(-0.0786741 0.0170737 -9.8282e-21)
(-0.0777537 0.016682 -2.57077e-20)
(-0.0766203 0.0160641 2.22433e-20)
(-0.0752643 0.015182 -2.13553e-21)
(-0.073676 0.0139986 -3.53803e-21)
(-0.0718467 0.0124795 1.10585e-20)
(-0.0697695 0.0105932 -7.63845e-21)
(-0.0674404 0.00831174 -1.84813e-20)
(-0.0648506 0.00561159 1.51141e-20)
(-0.061985 0.00248762 -3.60024e-21)
(-0.0588918 -0.00111079 -3.27947e-21)
(-0.0555786 -0.00517903 6.56617e-21)
(-0.0519883 -0.00972165 1.30716e-20)
(-0.0481398 -0.0146301 -3.63174e-21)
(-0.0440759 -0.0198918 -2.39853e-20)
(-0.0398095 -0.0254473 1.80278e-20)
(-0.0353581 -0.0312067 -9.02909e-21)
(-0.0307495 -0.0370635 2.86661e-21)
(-0.0260121 -0.0428902 7.01227e-21)
(-0.0211771 -0.048541 -2.68974e-21)
(-0.0162766 -0.0538532 -7.12472e-23)
(-0.0113425 -0.0586522 1.79695e-21)
(-0.00640111 -0.0627581 -5.35742e-21)
(-0.00145562 -0.0659878 -2.45846e-21)
(0.00350694 -0.0681638 5.90931e-21)
(0.00851432 -0.0691265 1.42433e-21)
(0.0135841 -0.0687482 -3.74679e-21)
(0.0187937 -0.0669315 1.36557e-21)
(0.0242732 -0.0636185 -9.82525e-22)
(0.0301538 -0.0587925 -2.31777e-21)
(0.036598 -0.0525013 -1.83217e-22)
(0.0438238 -0.0448407 2.61705e-21)
(0.0520123 -0.0360799 1.11876e-21)
(0.0613486 -0.0263738 1.10972e-21)
(0.0721002 -0.0160892 -5.923e-22)
(0.0844213 -0.0056263 1.0953e-21)
(0.0985257 0.00444485 -1.41467e-21)
(0.114586 0.0137044 7.42087e-22)
(0.132657 0.0216448 -6.87081e-22)
(0.152835 0.0277501 2.48972e-23)
(0.175178 0.0314667 5.00777e-22)
(0.199583 0.0326105 -4.49359e-22)
(0.226109 0.030597 2.99574e-22)
(0.254271 0.0260314 -1.97938e-22)
(0.284182 0.0178837 -4.25284e-22)
(0.314894 0.00854376 -1.99097e-22)
(0.346112 -0.00485106 5.21075e-23)
(0.377784 -0.0162233 -2.81332e-23)
(0.406076 -0.032868 -1.08101e-22)
(0.438305 -0.0428107 -4.58664e-23)
(0.456483 -0.0584361 4.14177e-23)
(0.491558 -0.0686354 -4.13166e-24)
(-0.0222022 0.0167644 3.27024e-20)
(-0.0250228 0.0171856 -2.50952e-20)
(-0.0261275 0.0172747 4.14939e-20)
(-0.02698 0.017188 -1.55971e-20)
(-0.0278788 0.0169965 1.27901e-20)
(-0.0287364 0.0167799 -3.29761e-20)
(-0.029514 0.0165881 5.11354e-21)
(-0.0301998 0.0164475 -1.40997e-21)
(-0.0307816 0.0163674 7.49603e-21)
(-0.0312463 0.0163462 2.10657e-20)
(-0.0315817 0.0163759 -1.71134e-20)
(-0.0317764 0.0164435 1.22499e-20)
(-0.0318199 0.0165323 7.48863e-21)
(-0.0317028 0.0166219 3.06045e-21)
(-0.0314153 0.0166882 -2.17331e-20)
(-0.0309481 0.0167042 1.26654e-20)
(-0.0302916 0.0166398 -1.8501e-20)
(-0.0294365 0.0164621 2.23134e-21)
(-0.0283731 0.0161359 -5.38975e-22)
(-0.0270916 0.0156237 2.48537e-20)
(-0.0255821 0.0148874 -2.12906e-20)
(-0.0238341 0.0138885 -2.97957e-21)
(-0.0218376 0.01259 -5.24232e-21)
(-0.0195829 0.0109579 2.2914e-20)
(-0.0170634 0.00896198 -8.25188e-21)
(-0.0142764 0.00657438 -8.11388e-21)
(-0.011209 0.00377668 -5.11475e-21)
(-0.00788048 0.000570076 1.9624e-20)
(-0.00432052 -0.00315601 -7.01739e-21)
(-0.000537746 -0.00731719 -9.63884e-21)
(0.00352869 -0.0119046 -8.20395e-21)
(0.00787218 -0.0168846 2.29404e-20)
(0.0124043 -0.0222192 -6.15916e-21)
(0.0171195 -0.0278383 -2.10316e-21)
(0.0219948 -0.0336535 -4.98272e-21)
(0.0269944 -0.0395567 -4.15806e-21)
(0.0320806 -0.0454205 4.22103e-21)
(0.0372124 -0.0510989 4.00489e-21)
(0.0423469 -0.0564309 -4.34758e-21)
(0.047441 -0.0612446 -6.81934e-21)
(0.0524596 -0.0653603 8.88526e-21)
(0.0573905 -0.0685926 -1.38816e-21)
(0.0622352 -0.0707765 3.84536e-24)
(0.0670115 -0.0717681 -1.84572e-21)
(0.0717502 -0.0714607 3.02568e-21)
(0.0765228 -0.0697326 -3.65293e-21)
(0.0814493 -0.0665548 4.23309e-21)
(0.0866771 -0.0619178 -1.28853e-22)
(0.0923844 -0.0558769 -3.68504e-22)
(0.0988006 -0.0485331 -1.10041e-21)
(0.106152 -0.0401263 -1.29346e-21)
(0.114657 -0.0308511 4.4807e-22)
(0.124602 -0.0210546 1.06799e-21)
(0.136196 -0.0111441 -2.43276e-21)
(0.149675 -0.00152913 1.72408e-21)
(0.165259 0.00714095 -9.35986e-22)
(0.183046 0.0144973 3.89689e-22)
(0.203094 0.0200514 2.61e-22)
(0.225491 0.0232241 -3.9835e-22)
(0.250049 0.0239049 -1.10018e-22)
(0.276882 0.0214564 3.168e-22)
(0.305283 0.0166288 -1.14109e-22)
(0.335541 0.00826752 1.67522e-22)
(0.3663 -0.00102432 5.31582e-22)
(0.397635 -0.0143582 6.31857e-23)
(0.428972 -0.02522 9.24138e-23)
(0.457041 -0.0413411 3.0273e-22)
(0.488369 -0.0504498 -1.72011e-23)
(0.506235 -0.0650908 -1.47311e-23)
(0.539738 -0.0738663 -1.37751e-24)
(0.0326166 0.0172497 1.72713e-20)
(0.0295603 0.0179178 3.5821e-20)
(0.0283241 0.0179402 -4.20866e-20)
(0.0276632 0.0177754 -1.19731e-21)
(0.0269852 0.0175358 9.39302e-21)
(0.0263177 0.0172516 -8.61427e-21)
(0.0257193 0.016964 -1.79648e-20)
(0.0252097 0.0167088 -2.58364e-21)
(0.0248008 0.0165027 4.37709e-20)
(0.0245071 0.0163482 -1.40631e-21)
(0.0243444 0.0162399 -3.66347e-21)
(0.0243274 0.0161674 -6.93409e-21)
(0.0244694 0.0161155 6.49724e-21)
(0.0247827 0.016065 -4.88845e-21)
(0.0252789 0.015993 7.02983e-21)
(0.0259695 0.0158733 -1.88713e-20)
(0.0268656 0.0156764 -1.60084e-20)
(0.0279779 0.0153696 2.26713e-20)
(0.029317 0.0149178 1.56475e-21)
(0.0308932 0.0142835 -1.13602e-20)
(0.0327169 0.013428 2.62047e-20)
(0.0347986 0.0123123 -3.74187e-21)
(0.037149 0.0108993 -1.79178e-21)
(0.0397781 0.00915533 -2.36879e-20)
(0.0426912 0.00705176 1.56827e-21)
(0.0458907 0.00456662 2.12149e-20)
(0.0493963 0.00169633 -8.69475e-21)
(0.0531472 -0.00164434 -1.44586e-20)
(0.0571378 -0.0054564 9.23821e-21)
(0.0614017 -0.00969864 -2.76987e-21)
(0.0659237 -0.0143174 2.88608e-21)
(0.0706936 -0.0193614 9.68051e-21)
(0.0756649 -0.0247539 -2.61292e-21)
(0.0808063 -0.0304206 -1.32984e-20)
(0.0860848 -0.0362741 1.42114e-20)
(0.0914573 -0.0422048 2.82301e-21)
(0.0968771 -0.0480847 3.81353e-21)
(0.102294 -0.0537683 -1.63092e-21)
(0.107655 -0.0590953 -1.71203e-20)
(0.112908 -0.0638952 8.21378e-21)
(0.118011 -0.0679885 1.34333e-21)
(0.12294 -0.0711956 -4.75075e-22)
(0.127688 -0.0733614 1.64983e-21)
(0.132266 -0.0743484 5.31971e-22)
(0.136707 -0.0740523 -1.06498e-21)
(0.141083 -0.0723802 5.25408e-22)
(0.145508 -0.0693035 7.81945e-22)
(0.150139 -0.0648262 -1.30502e-21)
(0.155165 -0.0590113 6.71143e-22)
(0.160828 -0.0519678 8.90536e-22)
(0.167381 -0.0439193 -1.04639e-21)
(0.175075 -0.0350805 -8.74936e-22)
(0.184214 -0.0257845 3.69742e-22)
(0.195056 -0.0164213 1.83704e-22)
(0.207829 -0.00739283 5.34818e-23)
(0.2228 0.000761093 5.15326e-22)
(0.240124 0.00744559 -1.51534e-22)
(0.259803 0.0124009 -1.4445e-21)
(0.28196 0.0149958 -2.91319e-22)
(0.306309 0.0151968 -2.69567e-22)
(0.333045 0.0123073 2.73893e-22)
(0.361227 0.0072397 2.7434e-22)
(0.39133 -0.00134034 -4.82535e-22)
(0.421636 -0.0105455 -7.35478e-23)
(0.452559 -0.0237289 -2.03715e-22)
(0.483082 -0.034059 -3.89332e-22)
(0.510434 -0.0496015 1.23496e-22)
(0.540452 -0.0578611 -1.41586e-22)
(0.557661 -0.0714981 3.3412e-23)
(0.589287 -0.0788656 -5.81059e-24)
(0.0982606 0.018042 -3.38974e-20)
(0.0952076 0.0186952 4.1852e-20)
(0.0932279 0.0184916 5.51903e-20)
(0.0923637 0.0182139 -6.35239e-20)
(0.0916401 0.0179247 -4.0576e-20)
(0.0909077 0.0175795 2.87196e-20)
(0.0902458 0.0172045 2.73657e-20)
(0.0896891 0.0168417 3.97396e-20)
(0.0892456 0.0165137 -4.64541e-20)
(0.0889272 0.0162265 -3.23233e-22)
(0.0887506 0.0159781 -3.70833e-20)
(0.0887329 0.0157607 1.00834e-20)
(0.0888898 0.0155615 2.94322e-20)
(0.089236 0.0153631 -2.26952e-21)
(0.0897854 0.0151441 -1.75202e-20)
(0.0905511 0.0148796 4.61932e-21)
(0.0915456 0.0145412 1.01386e-20)
(0.092781 0.0140969 -1.8488e-20)
(0.0942685 0.0135121 3.94338e-20)
(0.096019 0.0127493 -1.8605e-20)
(0.098043 0.0117695 -1.06256e-20)
(0.100351 0.0105334 2.47713e-20)
(0.102953 0.00900303 -2.43753e-20)
(0.105859 0.00714533 8.23192e-21)
(0.109079 0.00493517 3.26379e-21)
(0.112619 0.00234989 1.06769e-20)
(0.116448 -0.000605921 -8.13262e-21)
(0.120534 -0.00406588 -1.28592e-20)
(0.124907 -0.00794017 3.41493e-21)
(0.12956 -0.012246 -6.39385e-21)
(0.13447 -0.0169527 2.85968e-20)
(0.139619 -0.0220499 -1.12426e-20)
(0.144968 -0.0274843 -1.88531e-20)
(0.150476 -0.0331828 2.53217e-20)
(0.1561 -0.0390567 -1.57995e-20)
(0.16179 -0.0449956 -3.59514e-21)
(0.167491 -0.0508706 8.36068e-21)
(0.173145 -0.0565357 -3.23095e-21)
(0.178688 -0.0618311 6.85468e-21)
(0.184063 -0.0665872 -2.78313e-21)
(0.189217 -0.0706269 5.30901e-21)
(0.19412 -0.073779 -1.16135e-20)
(0.198755 -0.0758951 7.56108e-21)
(0.203129 -0.076846 4.1871e-21)
(0.207273 -0.0765343 -7.85933e-21)
(0.211261 -0.0748866 -3.31538e-24)
(0.215205 -0.0718804 4.70172e-21)
(0.219266 -0.0675342 -5.69087e-21)
(0.223643 -0.0619205 6.05004e-21)
(0.228583 -0.0551571 -1.57359e-21)
(0.23436 -0.0474598 2.65708e-22)
(0.241252 -0.0390527 -2.45641e-22)
(0.249572 -0.0302607 4.15423e-23)
(0.259611 -0.0214577 -9.97902e-22)
(0.271633 -0.0130683 1.19617e-21)
(0.285858 -0.00549693 4.42486e-22)
(0.30251 0.000600089 2.22781e-22)
(0.3216 0.00491787 -1.93627e-23)
(0.34324 0.00690891 1.24324e-21)
(0.367036 0.0066279 -8.95888e-22)
(0.393293 0.0033138 8.547e-22)
(0.420822 -0.00200708 -1.58735e-22)
(0.450302 -0.0107853 6.85523e-22)
(0.479704 -0.0198312 -1.30279e-22)
(0.509719 -0.0328271 -6.6592e-23)
(0.538977 -0.0425969 1.77505e-22)
(0.565169 -0.0575173 -1.60182e-22)
(0.593478 -0.0649287 1.43881e-22)
(0.609737 -0.0775682 9.13739e-23)
(0.639142 -0.0835763 -1.04541e-23)
(0.173106 0.0199495 -4.39039e-21)
(0.170005 0.0193902 -9.08545e-20)
(0.168437 0.0189203 9.98963e-20)
(0.167242 0.0185231 -5.0775e-20)
(0.166061 0.0180799 -4.39807e-21)
(0.164974 0.017594 4.20409e-20)
(0.164034 0.0171063 -4.49645e-20)
(0.163244 0.0166414 -6.87334e-21)
(0.162608 0.0162068 3.45835e-20)
(0.16214 0.0158023 -7.52115e-21)
(0.161859 0.015423 -3.6851e-20)
(0.16178 0.0150586 6.48968e-20)
(0.16192 0.014694 -1.71594e-20)
(0.162293 0.0143094 -2.85348e-20)
(0.162915 0.0138814 3.39231e-20)
(0.163799 0.0133828 4.72462e-21)
(0.164958 0.012783 -1.52467e-20)
(0.166404 0.0120479 -1.84694e-20)
(0.168148 0.011141 -2.27776e-20)
(0.170199 0.0100231 1.20986e-20)
(0.172569 0.00865431 8.60491e-21)
(0.175266 0.00699559 1.51196e-20)
(0.178302 0.00501297 -2.17891e-20)
(0.181679 0.00269027 1.33019e-20)
(0.185416 3.73605e-05 -1.72575e-21)
(0.18945 -0.00308027 -1.21066e-20)
(0.193762 -0.00662533 8.41995e-21)
(0.198393 -0.0105749 9.97731e-22)
(0.203316 -0.0149463 -1.88016e-20)
(0.208504 -0.0197165 5.60599e-21)
(0.21393 -0.0248603 1.22147e-20)
(0.219555 -0.0303291 -7.72549e-21)
(0.225329 -0.0360497 3.88154e-21)
(0.231203 -0.0419318 8.8434e-21)
(0.237118 -0.0478642 -1.41116e-20)
(0.243011 -0.0537174 6.9853e-21)
(0.248815 -0.059345 7.94864e-21)
(0.25446 -0.0645877 -6.86407e-21)
(0.259878 -0.0692768 1.06571e-21)
(0.265015 -0.0732396 -9.24038e-21)
(0.269829 -0.076313 5.09411e-21)
(0.274298 -0.0783542 2.94918e-21)
(0.278426 -0.0792431 1.15411e-21)
(0.282242 -0.0788912 -4.74723e-21)
(0.285821 -0.0772405 -1.0312e-21)
(0.289275 -0.074279 8.58565e-21)
(0.292767 -0.0700384 -8.1425e-22)
(0.296501 -0.0646023 -4.34212e-21)
(0.300731 -0.0580978 4.13769e-23)
(0.30574 -0.050737 -6.78337e-22)
(0.311825 -0.0427504 6.23749e-22)
(0.319307 -0.0344574 3.16376e-22)
(0.328495 -0.026214 6.41182e-22)
(0.339672 -0.018445 -6.4563e-22)
(0.353067 -0.0115616 -4.80646e-23)
(0.368896 -0.00605829 -7.33506e-22)
(0.387143 -0.0023344 -1.77564e-23)
(0.408011 -0.000933813 -1.18337e-22)
(0.430949 -0.00169336 2.39971e-22)
(0.456361 -0.0054373 -4.70678e-22)
(0.482848 -0.010973 -6.3944e-22)
(0.511292 -0.0198864 2.43501e-22)
(0.539374 -0.0287362 -8.29154e-22)
(0.568032 -0.0415106 7.50043e-22)
(0.595617 -0.0507017 -1.45191e-23)
(0.620267 -0.064967 -1.50736e-22)
(0.646491 -0.0715474 -1.2367e-22)
(0.661566 -0.0832134 3.95758e-23)
(0.688394 -0.0879378 5.63739e-24)
(0.26446 0.0222562 -5.0171e-20)
(0.259856 0.0212187 2.2539e-20)
(0.257008 0.020428 -1.53379e-20)
(0.254808 0.0198175 -1.42195e-20)
(0.252698 0.0191936 3.28046e-21)
(0.250727 0.0185317 -2.26908e-21)
(0.248968 0.0178671 6.7416e-21)
(0.247423 0.0172214 3.78723e-20)
(0.246086 0.0166 -5.96207e-20)
(0.244966 0.0160029 4.51969e-20)
(0.244077 0.0154266 1.43328e-20)
(0.243436 0.0148628 -7.1676e-20)
(0.243058 0.0142983 6.81385e-20)
(0.242957 0.0137153 -2.69715e-20)
(0.24315 0.0130919 1.27345e-21)
(0.243649 0.0124022 1.79343e-20)
(0.244469 0.0116171 -2.80715e-20)
(0.245622 0.0107038 1.30342e-20)
(0.247118 0.0096265 -2.83215e-20)
(0.248968 0.00834677 -1.16221e-20)
(0.25118 0.00682447 4.42719e-20)
(0.253761 0.00501946 -6.78107e-21)
(0.256729 0.0028977 5.38777e-21)
(0.260103 0.000450071 1.46616e-20)
(0.263813 -0.00233696 -2.58802e-21)
(0.267845 -0.005585 -1.23239e-20)
(0.272244 -0.00921117 -1.68777e-20)
(0.276971 -0.0132445 1.92365e-20)
(0.282006 -0.0176867 4.68689e-22)
(0.28732 -0.0225177 -1.21549e-20)
(0.292878 -0.0277071 4.45634e-21)
(0.298634 -0.0332055 1.3917e-20)
(0.304537 -0.0389407 -2.74777e-20)
(0.310525 -0.0448212 6.51541e-21)
(0.316533 -0.0507354 9.32848e-21)
(0.322489 -0.0565529 2.95272e-21)
(0.328318 -0.0621275 -1.18918e-20)
(0.333944 -0.0673002 -4.11382e-23)
(0.339294 -0.0719043 -1.6671e-21)
(0.344305 -0.0757727 1.16788e-20)
(0.348932 -0.0787489 -7.35353e-21)
(0.353148 -0.0806963 -5.24055e-22)
(0.356954 -0.0815036 4.95129e-21)
(0.360381 -0.0810918 -7.50823e-23)
(0.363502 -0.079417 -5.23861e-21)
(0.366431 -0.0764791 7.17027e-21)
(0.369333 -0.0723227 -1.13963e-21)
(0.372414 -0.0670431 -4.27889e-21)
(0.375929 -0.0607765 2.61073e-21)
(0.380167 -0.0537353 -1.00656e-21)
(0.385435 -0.0461532 -4.49717e-22)
(0.392057 -0.0383462 -3.74232e-22)
(0.400351 -0.0306519 9.23089e-22)
(0.410611 -0.0234936 -1.65601e-21)
(0.423056 -0.0172422 3.82002e-22)
(0.437932 -0.0124307 -2.71632e-22)
(0.455161 -0.00927646 9.5683e-22)
(0.47501 -0.00844298 7.29976e-22)
(0.496802 -0.00965712 -6.75274e-22)
(0.521058 -0.0138132 3.28178e-22)
(0.546175 -0.0194939 7.40611e-22)
(0.573196 -0.0285082 -5.51182e-22)
(0.599592 -0.0371367 4.44588e-22)
(0.626509 -0.0496497 -6.63452e-23)
(0.652056 -0.0582568 8.85258e-23)
(0.674851 -0.0718434 -9.24227e-24)
(0.698645 -0.077625 6.96412e-23)
(0.712361 -0.0883541 5.20456e-24)
(0.736277 -0.0918918 7.42651e-24)
(0.369586 0.0262392 2.84458e-20)
(0.363181 0.024584 -2.79133e-20)
(0.358506 0.0233299 9.17156e-21)
(0.354735 0.0223721 2.45498e-20)
(0.351173 0.0214447 -4.66959e-20)
(0.347819 0.0205 1.35584e-20)
(0.34476 0.0195683 6.97488e-20)
(0.342002 0.0186644 -2.19138e-20)
(0.339528 0.0177876 -4.30789e-20)
(0.337342 0.0169355 3.7471e-20)
(0.335452 0.0161045 -1.11813e-20)
(0.333873 0.015287 3.09319e-20)
(0.332616 0.014471 -3.9822e-20)
(0.331696 0.0136401 -4.60388e-20)
(0.331126 0.0127739 7.61775e-20)
(0.330922 0.011848 -7.28336e-20)
(0.331095 0.0108345 4.3212e-20)
(0.331658 0.00970208 3.74776e-20)
(0.332621 0.00841606 -7.33732e-20)
(0.333994 0.00693921 5.79086e-20)
(0.335784 0.0052318 -2.8896e-20)
(0.337995 0.00325247 -2.39772e-20)
(0.340646 0.000965011 4.84797e-21)
(0.343746 -0.00162882 4.95978e-20)
(0.347231 -0.00462324 -6.18633e-20)
(0.351088 -0.00796506 5.8212e-20)
(0.355337 -0.0116931 1.50431e-20)
(0.359949 -0.0158212 -1.03299e-20)
(0.364896 -0.0203427 -4.40095e-20)
(0.370143 -0.0252386 1.15212e-20)
(0.375647 -0.0304759 1.9121e-20)
(0.381355 -0.0360038 -1.93175e-20)
(0.387207 -0.0417503 1.44754e-20)
(0.393136 -0.0476235 -8.14887e-21)
(0.399067 -0.0535112 5.05164e-21)
(0.404921 -0.0592831 -5.08589e-21)
(0.410615 -0.0647932 3.117e-21)
(0.416066 -0.0698837 1.00887e-21)
(0.421197 -0.0743914 -2.79826e-21)
(0.425941 -0.078154 7.01612e-21)
(0.430248 -0.0810211 -8.72518e-21)
(0.434091 -0.0828624 -3.13384e-21)
(0.43747 -0.0835757 1.06164e-21)
(0.440418 -0.0830918 1.22752e-22)
(0.44301 -0.0813795 -2.29115e-21)
(0.44536 -0.0784511 7.08313e-21)
(0.447634 -0.0743632 -1.50589e-21)
(0.450037 -0.069223 -2.31548e-21)
(0.452826 -0.0631756 -2.50991e-21)
(0.456285 -0.056436 4.62388e-21)
(0.460727 -0.0492392 -1.78632e-22)
(0.466473 -0.0418997 2.20571e-21)
(0.473838 -0.0347363 -4.3322e-21)
(0.483126 -0.0281703 2.56603e-21)
(0.494532 -0.0225291 4.31379e-22)
(0.508332 -0.0183485 -4.96922e-22)
(0.524383 -0.0157829 8.63187e-22)
(0.543015 -0.015504 -1.3488e-21)
(0.563428 -0.0171348 -8.91244e-24)
(0.58625 -0.021649 -1.5247e-23)
(0.609708 -0.0274561 -8.90154e-22)
(0.634978 -0.0365402 2.56612e-22)
(0.659377 -0.0449205 -2.72978e-22)
(0.684233 -0.0571334 2.93751e-22)
(0.70743 -0.0651637 -8.19626e-24)
(0.728128 -0.0780568 6.85762e-23)
(0.749201 -0.0830857 -1.45993e-22)
(0.761438 -0.092923 7.77556e-23)
(0.782161 -0.0953864 -1.19622e-23)
(0.47883 0.0300617 -3.14413e-20)
(0.471963 0.0281975 3.4687e-20)
(0.466152 0.0267377 -7.37273e-20)
(0.460686 0.0253557 1.08113e-20)
(0.455513 0.0239914 3.06713e-20)
(0.450723 0.0226722 -1.53206e-20)