/*--------------------------------*- C++ -*----------------------------------*\
  =========                 |
  \\      /  F ield         | OpenFOAM: The Open Source CFD Toolbox
   \\    /   O peration     | Website:  https://openfoam.org
    \\  /    A nd           | Version:  7
     \\/     M anipulation  |
\*---------------------------------------------------------------------------*/
FoamFile
{
    version     2.0;
    format      ascii;
    class       volScalarField;
    location    "14";
    object      p;
}
// * * * * * * * * * * * * * * * * * * * * * * * * * * * * * * * * * * * * * //

dimensions      [0 2 -2 0 0 0 0];

internalField   nonuniform List<scalar> 
15600
(
-530.458
-500.285
-472.756
-443.198
-407.798
-367.144
-321.68
-273.393
-225.264
-180.606
-141.924
-110.089
-84.5055
-63.8993
-47.1985
-33.8131
-23.4243
-15.7037
-10.169
-6.33624
-3.78248
-2.13548
-1.11439
-0.509303
-0.166791
0.0153065
0.103687
0.140415
0.150729
0.148848
0.142173
0.134234
0.126467
0.119332
0.112848
0.10691
0.101398
0.0962313
0.0913276
0.0864453
104.447
105.405
105.216
100.798
93.7037
88.8573
88.6042
92.0221
95.4836
94.8998
88.1959
76.2166
61.6442
47.1941
34.5927
24.4926
16.8553
11.325
7.4213
4.75378
2.99332
1.87439
1.19128
0.791664
0.565702
0.441674
0.374837
0.33873
0.318292
0.305336
0.295685
0.287366
0.279534
0.271879
0.264314
0.256839
0.249476
0.242274
0.235212
0.227623
546.806
525.106
505.421
476.645
435.066
387.855
339.873
294.004
251.02
210.966
173.875
139.999
109.802
83.8523
62.3659
45.1576
31.7903
21.7342
14.4325
9.32784
5.88752
3.65517
2.27299
1.45077
0.977386
0.71916
0.583382
0.51459
0.480235
0.462096
0.45074
0.441702
0.43312
0.424373
0.415365
0.406172
0.3969
0.387689
0.378542
0.368311
159.363
149.993
138.917
120.922
95.3253
68.0677
43.9655
24.6918
9.98175
-0.50207
-7.22618
-10.4028
-10.5466
-8.78419
-6.30052
-3.94204
-2.1071
-0.862183
-0.0891771
0.360707
0.597115
0.707556
0.74832
0.7456
0.728067
0.70667
0.685342
0.665772
0.648248
0.632474
0.61802
0.604509
0.591662
0.579287
0.567254
0.555472
0.543883
0.532526
0.521313
0.508503
-481.803
-457.581
-435.713
-412.505
-385.199
-354.509
-320.452
-283.931
-246.604
-210.213
-175.493
-143.127
-113.571
-87.2478
-64.6353
-46.0785
-31.5809
-20.7716
-13.0522
-7.78292
-4.31209
-2.1091
-0.769332
0.0129107
0.44501
0.66613
0.766781
0.802755
0.806599
0.79615
0.78046
0.763659
0.747335
0.731895
0.717267
0.703242
0.689625
0.676381
0.663345
0.64815
-359.046
-337.35
-318.215
-298.168
-273.357
-242.836
-206.42
-166.045
-125.415
-89.2035
-61.0728
-41.7533
-29.4284
-21.4585
-15.7733
-11.3354
-7.82433
-5.11121
-3.09188
-1.6337
-0.622638
0.0407067
0.454538
0.704925
0.847344
0.920199
0.950674
0.957007
0.950687
0.938416
0.92375
0.908394
0.893046
0.87791
0.862982
0.848194
0.833484
0.818969
0.804563
0.787252
356.95
346.521
336.625
319.554
294.579
268.504
244.837
223.548
202.241
178.759
152.798
125.761
99.5637
76.0227
56.1816
40.3272
28.2082
19.2612
12.8671
8.45387
5.52055
3.6476
2.50585
1.83649
1.46106
1.26052
1.15837
1.10801
1.08267
1.06789
1.0565
1.04535
1.03331
1.02018
1.0061
0.991307
0.97602
0.960647
0.945298
0.926327
485.367
463.791
443.037
413.057
370.6
322.567
274.841
230.731
190.966
155.617
124.641
97.9384
75.6166
57.4273
42.8554
31.3485
22.4221
15.6675
10.7249
7.25315
4.90213
3.37286
2.42499
1.86528
1.54875
1.37801
1.29079
1.24791
1.22629
1.21329
1.20261
1.19153
1.17913
1.16535
1.15042
1.13464
1.11828
1.10193
1.0859
1.06597
-111.523
-108.462
-107.497
-109.962
-115.007
-119.254
-119.922
-116.435
-109.567
-100.276
-89.2265
-76.5078
-62.7063
-48.897
-36.2367
-25.5524
-17.1462
-10.9001
-6.4744
-3.46228
-1.47906
-0.22219
0.536153
0.965708
1.20149
1.32152
1.37486
1.39197
1.39044
1.37987
1.36518
1.34874
1.33155
1.31401
1.29622
1.27824
1.26015
1.24249
1.22597
1.20704
-559.843
-528.917
-500.682
-470.364
-434.442
-393.924
-349.33
-302.413
-255.487
-211.143
-170.902
-135.672
-105.476
-79.9039
-58.6178
-41.4204
-28.0795
-18.1809
-11.1414
-6.31401
-3.13918
-1.1278
0.104479
0.826936
1.22677
1.43108
1.52286
1.55369
1.55391
1.54025
1.52121
1.50068
1.48013
1.45992
1.43996
1.42008
1.40015
1.38065
1.3619
1.33819
-83.7421
-74.5675
-67.3723
-62.1425
-56.2976
-46.4325
-30.9037
-10.8367
9.70609
25.8165
34.2475
35.0607
30.765
24.4594
18.3004
13.2504
9.46743
6.77816
4.95028
3.7371
2.95272
2.46275
2.16036
1.97771
1.86832
1.80096
1.75684
1.72522
1.70017
1.67848
1.65841
1.63899
1.61968
1.60015
1.5802
1.55969
1.53858
1.51746
1.49663
1.46938
517.381
498.567
481.721
456.096
418.955
377.493
335.849
295.76
257.08
219.438
183.102
148.786
117.462
90.0817
67.2077
48.8532
34.6491
24.0343
16.3608
11.0102
7.42138
5.10843
3.6857
2.83678
2.34975
2.08255
1.94162
1.86891
1.83039
1.80732
1.79003
1.77399
1.75728
1.73927
1.71983
1.69901
1.67693
1.65434
1.63165
1.60136
313.378
297.712
281.342
256.847
222.086
183.647
147.175
115.235
88.0636
65.7357
48.06
34.7255
25.3469
18.9884
14.6046
11.3987
8.90705
6.92532
5.38507
4.25116
3.43581
2.87796
2.51544
2.28685
2.14758
2.06545
2.01747
1.98817
1.96809
1.95169
1.93602
1.91966
1.90203
1.88295
1.86239
1.84034
1.81683
1.79261
1.76817
1.73494
-369.033
-352.287
-337.663
-322.778
-305.71
-286.182
-263.433
-237.723
-210.055
-181.927
-154.172
-127.217
-101.689
-78.3657
-57.9469
-41.0381
-27.7756
-17.8664
-10.7798
-5.92343
-2.70879
-0.655259
0.59389
1.32937
1.74226
1.95925
2.0635
2.104
2.11221
2.10457
2.08952
2.07111
2.05101
2.02977
2.00744
1.98383
1.95879
1.933
1.90697
1.87081
-479.601
-451.812
-426.755
-400.074
-368
-330.347
-287.373
-240.894
-194.106
-150.848
-114.407
-85.823
-64.1811
-47.6565
-34.6693
-24.3598
-16.3462
-10.3439
-6.00393
-2.97554
-0.934709
0.3924
1.22085
1.71801
2.00255
2.15458
2.22784
2.25521
2.25851
2.24953
2.2345
2.21648
2.19669
2.17551
2.15295
2.12881
2.10291
2.07604
2.04886
2.00996
214.914
211.237
206.813
196.522
181.012
166.372
155.763
148.89
142.358
132.538
118.015
99.6676
80.0158
61.4995
45.634
32.9542
23.3362
16.3283
11.3774
7.98412
5.74542
4.3272
3.46453
2.96456
2.68693
2.5387
2.46233
2.42315
2.4013
2.38615
2.37234
2.35745
2.34058
2.32147
2.30004
2.27628
2.25012
2.22267
2.19485
2.15398
538.955
516.748
496.235
466.406
423.533
374.807
325.689
279.339
236.61
197.454
161.729
129.672
101.591
77.8162
58.3203
42.7835
30.7346
21.6648
15.0679
10.4656
7.36812
5.36669
4.12856
3.39522
2.98108
2.75687
2.64099
2.58386
2.55466
2.53724
2.52331
2.50898
2.49268
2.47391
2.45257
2.42861
2.40195
2.37381
2.3453
2.30174
49.4985
44.882
38.4045
26.5546
9.23059
-8.63856
-23.062
-32.8774
-38.6069
-40.8343
-40.1116
-36.6082
-30.8596
-23.9893
-17.1846
-11.2913
-6.66842
-3.30304
-0.98651
0.543814
1.51409
2.1022
2.44096
2.62142
2.70634
2.74046
2.74841
2.74166
2.72864
2.71265
2.69505
2.67628
2.65635
2.63504
2.61205
2.587
2.55947
2.5306
2.50163
2.45498
-532.324
-504.345
-478.867
-451.557
-419.29
-383.103
-343.324
-301.274
-258.633
-217.55
-179.027
-143.968
-112.792
-85.6475
-62.6816
-43.988
-29.4362
-18.6053
-10.8911
-5.63261
-2.1692
0.0304382
1.3634
2.13301
2.55372
2.76767
2.86337
2.89597
2.89708
2.88387
2.86489
2.84385
2.822
2.79944
2.77584
2.75064
2.72321
2.69485
2.66741
2.62034
-244.091
-227.699
-213.777
-200.221
-183.656
-161.971
-134.202
-101.832
-68.602
-39.5888
-18.7095
-6.6096
-1.15957
0.644432
1.08096
1.27174
1.52078
1.82577
2.14578
2.43758
2.66702
2.83382
2.94538
3.01262
3.04939
3.06562
3.06752
3.06076
3.04914
3.03484
3.01892
3.00174
2.98329
2.96343
2.94195
2.91861
2.89316
2.86761
2.84442
2.80233
446.074
431.5
418.117
396.442
364.787
330.528
297.595
266.704
236.397
205.307
173.519
142.13
112.671
86.5663
64.6631
47.1264
33.6464
23.6474
16.4751
11.5093
8.19035
6.07422
4.77861
4.02252
3.60258
3.38004
3.26916
3.2172
3.19331
3.18069
3.17089
3.16009
3.14681
3.13064
3.11163
3.08998
3.06594
3.03927
3.00924
2.98031
421.313
401.82
382.502
354.286
314.332
269.416
225.496
185.671
150.427
119.872
94.038
72.6952
55.7266
42.5328
32.3087
24.3627
18.2056
13.5147
10.0487
7.5949
5.92809
4.8439
4.17323
3.78354
3.5655
3.45115
3.3961
3.37166
3.36077
3.35408
3.34691
3.33729
3.32457
3.30874
3.28999
3.26864
3.24505
3.21848
3.18676
3.16135
-238.507
-229.05
-221.572
-215.472
-209.512
-201.953
-191.078
-176.69
-159.598
-141.004
-121.634
-101.715
-81.8754
-63.0628
-46.2914
-32.2786
-21.2645
-13.0445
-7.17202
-3.14536
-0.480558
1.22401
2.26945
2.88036
3.22645
3.41259
3.50517
3.54556
3.558
3.55591
3.54627
3.53246
3.51591
3.4972
3.47649
3.45389
3.42956
3.40262
3.37093
3.34652
-541.626
-510.895
-482.889
-452.844
-417.051
-376.344
-330.917
-282.671
-234.324
-188.991
-149.088
-115.615
-88.225
-65.8832
-47.6758
-33.0748
-21.7486
-13.3405
-7.33148
-3.18524
-0.424378
1.34356
2.42808
3.07224
3.4372
3.63031
3.72293
3.75983
3.76746
3.76061
3.74686
3.72975
3.71064
3.68992
3.6676
3.64365
3.61808
3.59004
3.55769
3.5327
68.0978
70.8387
72.0902
69.3422
64.4935
62.2684
65.0569
71.9832
79.3127
82.6474
79.5318
70.524
58.2488
45.5585
34.324
25.2992
18.4937
13.5908
10.1568
7.82796
6.29813
5.32538
4.74103
4.39793
4.20149
4.09228
4.03201
3.99736
3.97501
3.95768
3.94152
3.92462
3.90605
3.88542
3.86259
3.83763
3.81066
3.78098
3.74714
3.72062
550.004
528.924
509.89
481.677
440.695
394.194
346.927
301.576
258.84
218.723
181.309
146.947
116.154
89.5759
67.5181
49.8466
36.1355
25.8405
18.3836
13.1728
9.67268
7.41729
6.01375
5.17366
4.69282
4.42996
4.2923
4.22214
4.1855
4.16351
4.14633
4.12927
4.11032
4.08875
4.06447
4.03762
4.00841
3.97629
3.9401
3.91112
192.328
181.786
169.745
150.587
123.296
93.8542
67.304
45.5099
28.3103
15.4849
6.61666
1.45531
-0.451993
-0.208726
1.0097
2.35254
3.39718
4.05219
4.39612
4.54481
4.59201
4.59019
4.5647
4.53163
4.50053
4.47404
4.45164
4.43191
4.41329
4.39449
4.3746
4.35303
4.32943
4.30361
4.27545
4.245
4.2123
4.17675
4.13734
4.10504
-464.506
-441.396
-420.547
-398.363
-372.245
-342.852
-310.165
-275.005
-238.869
-203.576
-169.717
-138.005
-108.921
-82.9203
-60.5187
-42.0997
-27.6943
-16.9511
-9.27466
-4.0053
-0.53066
1.67548
3.02821
3.82403
4.26756
4.49773
4.60456
4.64356
4.64727
4.63355
4.61152
4.58537
4.55678
4.52619
4.49362
4.45898
4.42219
4.38259
4.33931
4.30296
-374.86
-352.323
-332.367
-311.259
-285.167
-253.27
-215.506
-173.9
-132.172
-94.8418
-65.4898
-44.8144
-31.1313
-21.907
-15.1295
-9.78463
-5.53792
-2.27454
0.141465
1.86101
3.03754
3.80308
4.28998
4.58856
4.75946
4.848
4.88598
4.89417
4.88547
4.8673
4.84359
4.81618
4.78584
4.7528
4.71711
4.67881
4.63793
4.59397
4.54634
4.50526
344.836
335.303
326.196
310.108
286.502
261.999
239.902
220.051
200.014
177.647
152.67
126.397
100.85
77.8851
58.5648
43.1554
31.3901
22.7325
16.5581
12.2894
9.46083
7.66264
6.55569
5.89989
5.52904
5.32799
5.22192
5.16507
5.13092
5.10502
5.08007
5.05274
5.02176
4.98685
4.94812
4.90588
4.86043
4.81153
4.75889
4.71229
496.598
475.06
454.285
424.066
381.249
332.753
284.514
239.898
199.709
163.973
132.582
105.423
82.5833
63.8638
48.7979
36.8631
27.5877
20.5669
15.4269
11.8033
9.34851
7.74736
6.74279
6.13898
5.79182
5.6002
5.49686
5.43942
5.40285
5.3734
5.34413
5.31192
5.27565
5.23516
5.19065
5.14246
5.09094
5.03593
4.97731
4.92424
-87.6653
-85.2232
-85.1307
-89.0636
-95.946
-102.01
-104.315
-102.349
-97.0069
-89.2148
-79.5531
-67.9755
-55.0691
-41.9671
-29.891
-19.7057
-11.7222
-5.81831
-1.64708
1.18907
3.04797
4.22306
4.9374
5.35087
5.57456
5.68293
5.72372
5.7261
5.70708
5.67602
5.6378
5.59479
5.54804
5.49796
5.44474
5.3885
5.32936
5.26706
5.20146
5.14092
-551.08
-520.509
-492.512
-462.24
-426.039
-385.011
-340.03
-293.137
-246.947
-203.869
-164.988
-130.844
-101.265
-75.898
-54.58
-37.2717
-23.8235
-13.835
-6.73447
-1.88018
1.31717
3.36165
4.61934
5.35482
5.7572
5.95578
6.03526
6.04845
6.02655
5.9868
5.93808
5.88452
5.82777
5.76834
5.70628
5.64159
5.57425
5.50396
5.43065
5.36179
-102.427
-92.523
-84.059
-76.3118
-66.6214
-52.4068
-33.1044
-10.6414
10.7902
26.7567
34.7618
35.4446
31.5228
25.8993
20.5277
16.2187
13.053
10.8108
9.28621
8.27246
7.6083
7.18205
6.91097
6.73657
6.61938
6.53425
6.46602
6.40588
6.34879
6.29189
6.23356
6.17287
6.10933
6.0427
5.97294
5.90013
5.82441
5.74569
5.66404
5.58608
511.307
493.093
476.964
452.621
417.323
377.699
337.234
297.432
258.587
220.822
184.637
150.73
119.952
93.1929
70.9052
53.0397
39.2062
28.8566
21.357
16.1091
12.571
10.2545
8.78897
7.89388
7.36293
7.05289
6.8695
6.75385
6.67114
6.60197
6.53625
6.46918
6.39877
6.32444
6.24623
6.16448
6.07956
5.99158
5.90079
5.81288
337.921
321.697
304.187
277.626
240.369
199.643
161.215
127.652
99.3419
76.2127
57.8762
44.1004
34.2956
27.4235
22.4552
18.6601
15.6418
13.2346
11.3718
9.99087
9.01019
8.33331
7.87973
7.58221
7.38716
7.25517
7.15873
7.07986
7.00769
6.93617
6.86223
6.78457
6.7028
6.61703
6.52756
6.43479
6.33912
6.24067
6.13975
6.04099
-324.979
-309.355
-296.356
-284.322
-270.705
-254.499
-234.649
-211.729
-187.288
-162.711
-138.266
-114.061
-90.534
-68.6085
-49.2285
-33.1674
-20.6115
-11.2699
-4.60568
-0.0280639
3.00491
4.9461
6.13698
6.82836
7.19894
7.37102
7.42495
7.41105
7.35935
7.28686
7.20274
7.11165
7.01583
6.91638
6.81384
6.70861
6.60101
6.49112
6.37921
6.26882
-490.686
-462.146
-435.69
-406.33
-370.06
-327.646
-280.502
-231.83
-185.486
-144.66
-110.935
-84.1746
-63.011
-45.9076
-31.8889
-20.5657
-11.7613
-5.22668
-0.557773
2.6553
4.77544
6.14319
6.98609
7.47129
7.72207
7.82475
7.83738
7.79716
7.72668
7.63895
7.54108
7.43679
7.32795
7.21556
7.10021
6.98235
6.8624
6.74053
6.61704
6.49442
163.349
161.661
160.356
156.176
149.997
145.519
143.371
141.7
137.421
128.159
113.683
95.9707
77.6621
60.9117
46.8629
35.764
27.3621
21.2159
16.8301
13.7941
11.7743
10.4488
9.59978
9.06554
8.72738
8.50463
8.34517
8.2171
8.10202
7.99005
7.87641
7.75917
7.63789
7.51285
7.38459
7.25376
7.12097
6.98657
6.85097
6.71568
543.052
521.173
500.968
471.626
429.543
381.611
332.461
285.467
242.175
202.827
167.327
135.521
107.746
84.2383
64.9252
49.5015
37.5238
28.5053
21.9379
17.3005
14.1413
12.0524
10.7119
9.87219
9.35062
9.02012
8.79704
8.62956
8.48749
8.35451
8.2226
8.08837
7.95082
7.81008
7.66668
7.52129
7.37456
7.22686
7.0786
6.93025
121.91
115.224
105.249
87.1704
62.3427
37.4163
16.7621
1.36254
-9.16924
-15.5468
-18.0485
-16.8877
-13.1255
-8.19376
-3.32245
0.767078
3.85084
6.01455
7.45989
8.38461
8.94135
9.24622
9.38286
9.40872
9.3639
9.27487
9.15856
9.02555
8.88229
8.73264
8.57884
8.42225
8.26371
8.10377
7.94288
7.78145
7.61987
7.45832
7.29705
7.13555
-467.116
-441.812
-419.126
-395.234
-366.592
-333.892
-297.723
-260.144
-223.798
-189.422
-157.09
-126.742
-98.5555
-73.1623
-51.3384
-33.572
-19.848
-9.73565
-2.59483
2.2644
5.4385
7.42474
8.59941
9.22578
9.50695
9.57854
9.52833
9.41126
9.25973
9.09178
8.91675
8.73914
8.56091
8.38285
8.20526
8.02836
7.85231
7.67718
7.50314
7.32878
-319.263
-299.131
-279.882
-257.331
-227.833
-191.85
-151.538
-111.005
-74.7746
-46.5272
-27.1732
-15.237
-8.03627
-3.19914
0.553762
3.61611
5.99577
7.74423
8.94536
9.69395
10.1352
10.3579
10.4256
10.389
10.2839
10.1377
9.96813
9.78609
9.59794
9.40706
9.2151
9.02281
8.83058
8.63868
8.44738
8.25697
8.06776
7.87994
7.69378
7.50722
373.999
362.843
353.777
339.99
320.162
298.841
276.925
253.444
227.188
198.056
167.29
137.053
109.391
85.5881
66.0536
50.6118
38.7945
29.9809
23.5846
19.0882
15.9894
13.9068
12.537
11.6437
11.0556
10.6509
10.3507
10.106
9.88836
9.68207
9.47945
9.27718
9.0743
8.87094
8.66761
8.46496
8.26361
8.06391
7.86636
7.66843
476.846
455.646
433.692
401.113
356.08
306.739
259.037
215.997
178.362
145.776
117.829
94.3875
75.1496
59.5868
47.1164
37.2484
29.6008
23.8353
19.6193
16.6227
14.5466
13.147
12.2179
11.5978
11.1703
10.8547
10.5989
10.3718
10.1561
9.94321
9.72971
9.51473
9.29858
9.08204
8.86592
8.65097
8.43781
8.22683
8.01858
7.81022
-119.348
-114.257
-113.185
-117.034
-122.365
-125.259
-123.71
-118.483
-110.719
-100.783
-88.0768
-72.9118
-56.6196
-40.9009
-27.0985
-15.8648
-7.24247
-0.917829
3.5485
6.58865
8.57729
9.81018
10.514
10.8592
10.9693
10.9312
10.8034
10.6236
10.4153
10.1923
9.96262
9.73062
9.49857
9.26768
9.0386
8.8118
8.5876
8.36622
8.14821
7.93054
-505.204
-478.341
-453.022
-423.427
-385.24
-340.525
-292.586
-245.942
-204.388
-168.426
-137.21
-109.365
-84.055
-61.3519
-41.8316
-25.9543
-13.7511
-4.86088
1.33702
5.49816
8.18014
9.81046
10.7182
11.1547
11.284
11.2331
11.0804
10.8735
10.6407
10.3972
10.1506
9.90448
9.66033
9.41863
9.17956
8.94328
8.70995
8.47972
8.25325
8.02761
-48.1646
-43.2831
-37.3133
-27.6951
-11.6961
10.7672
35.8051
57.6566
71.0848
74.0422
68.5882
58.7236
48.1644
39.0701
32.0419
26.7995
22.8735
19.9156
17.6692
15.9789
14.7082
13.7545
13.034
12.4788
12.0365
11.6695
11.3509
11.0624
10.7919
10.5317
10.2775
10.0266
9.77798
9.53119
9.28627
9.04352
8.80328
8.56589
8.33231
8.10008
524.143
506.218
491.419
469.77
438.733
402.549
362.963
321.13
278.107
235.242
194.311
157.165
124.953
97.8965
75.8305
58.2986
44.7512
34.5742
27.148
21.8444
18.1748
15.7018
14.0689
12.9997
12.2903
11.7987
11.4315
11.1306
10.862
10.6074
10.3576
10.1086
9.85942
9.61007
9.36119
9.11354
8.86778
8.62444
8.38481
8.1473
246.099
237.198
225.255
203.465
173.807
141.723
110.89
83.4974
60.8915
43.9172
32.7064
26.158
22.5894
20.4748
18.8814
17.4524
16.1603
15.0384
14.1429
13.4499
12.925
12.534
12.2359
11.9925
11.7754
11.5658
11.3527
11.1314
10.9007
10.6616
10.4162
10.1663
9.9139
9.66039
9.40697
9.15461
8.90399
8.65557
8.41088
8.16933
-416.415
-394.602
-375.895
-356.762
-332.917
-305.236
-275.156
-245.253
-215.977
-186.459
-156.242
-125.998
-97.1948
-71.3366
-49.4201
-31.8108
-18.3038
-8.32394
-1.21648
3.69385
6.97128
9.06153
10.3154
10.9994
11.3082
11.3789
11.3039
11.1433
10.9342
10.699
10.4504
10.1954
9.93785
9.67975
9.42225
9.16611
8.91177
8.65958
8.41134
8.16776
-380.945
-361.995
-342.693
-316.46
-279.495
-235.325
-190.16
-150.386
-119.499
-96.295
-77.8014
-61.7344
-47.1476
-33.9426
-22.3318
-12.5867
-4.88131
0.921512
5.06485
7.87623
9.70525
10.8105
11.4073
11.662
11.6966
11.5964
11.4182
11.1974
10.9546
10.7013
10.4434
10.1837
9.92367
9.66392
9.40493
9.14714
8.8909
8.63659
8.38627
8.14189
290.252
279.48
272.37
265.614
258.51
251.46
241.426
225.24
202.404
175.193
147.067
120.541
96.8473
76.5516
59.8987
46.7852
36.8249
29.3942
23.9534
20.0514
17.2776
15.336
13.9904
13.0553
12.3929
11.9045
11.5226
11.2027
10.9169
10.6484
10.3876
10.1296
9.87205
9.61436
9.35651
9.099
8.84232
8.58699
8.33533
8.09084
520.049
500.836
483.232
456.604
419.295
376.427
331.128
285.712
242.043
202.189
167.583
138.188
112.992
91.0997
72.2284
56.4577
43.8001
34.0751
26.889
21.7229
18.1107
15.6569
14.0256
12.9511
12.2357
11.74
11.3709
11.0698
10.8017
10.5473
10.2969
10.0459
9.79289
9.53794
9.28161
9.02474
8.76806
8.51216
8.25959
8.01591
-93.5551
-83.8748
-77.7971
-77.5896
-79.9825
-83.1682
-85.1681
-84.6822
-80.6337
-72.3009
-60.2517
-46.1691
-32.1389
-19.8598
-10.1645
-3.02333
1.98677
5.39218
7.6831
9.1953
10.1654
10.758
11.0867
11.2305
11.2455
11.1712
11.0355
10.8578
10.6518
10.4269
10.1895
9.94386
9.69302
9.43893
9.18301
8.92637
8.66975
8.41359
8.16056
7.91861
-536.722
-508.501
-482.103
-451.854
-413.6
-370.943
-327.82
-287.24
-249.196
-212.719
-177.278
-143.296
-111.778
-83.6577
-59.6625
-40.0989
-24.8215
-13.31
-4.96003
0.934506
4.96023
7.59316
9.22529
10.164
10.6398
10.8181
10.812
10.6958
10.5159
10.3004
10.0656
9.8201
9.56911
9.31517
9.05975
8.80382
8.54794
8.29228
8.03947
7.80052
-129.955
-123.129
-114.144
-100.092
-80.0381
-57.2806
-36.855
-22.8087
-15.456
-11.8113
-9.22501
-6.79081
-4.45979
-2.13462
0.322052
2.83827
5.21106
7.24213
8.82958
9.92817
10.6494
11.0725
11.2662
11.2949
11.2123
11.0587
10.8622
10.6411
10.4063
10.1639
9.91733
9.66805
9.41692
9.16443
8.911
8.65714
8.40318
8.14903
7.89745
7.66276
477.888
457.779
442.304
423.577
397.872
366.953
330.964
291.39
251.52
214.173
180.753
150.672
123.228
98.4867
77.0873
59.5332
45.8164
35.4454
27.8185
22.3581
18.5024
15.8303
14.0079
12.7728
11.9292
11.3368
10.8995
10.5537
10.259
9.99139
9.73649
9.48666
9.23804
8.98894
8.73886
8.48807
8.23684
7.98502
7.73542
7.50643
400.084
385.636
371.698
349.778
318.712
282.412
243.942
206.385
172.644
144.841
123.041
105.419
89.8382
75.1588
61.428
49.2468
39.0503
30.9629
24.8222
20.3147
17.0827
14.8214
13.2709
12.2173
11.4955
10.9849
10.6015
10.2918
10.0209
9.76876
9.52429
9.28174
9.03848
8.79354
8.54685
8.29892
8.05035
7.80051
7.55322
7.33646
-273.361
-253.48
-237.103
-224.016
-210.618
-196.738
-181.36
-164.224
-144.938
-123.455
-100.694
-78.1813
-57.5571
-39.984
-25.8912
-15.0787
-7.04898
-1.2106
2.92069
5.75699
7.65346
8.86666
9.59181
9.97827
10.1362
10.1441
10.0557
9.90692
9.72094
9.51225
9.28966
9.05836
8.82135
8.58031
8.33626
8.0902
7.8424
7.59159
7.34787
7.13976
-516.854
-488.27
-461.178
-430.557
-392.88
-351.959
-311.017
-272.012
-235.024
-199.617
-165.766
-133.969
-104.938
-79.3079
-57.4767
-39.5299
-25.3348
-14.4634
-6.40449
-0.595627
3.44749
6.1449
7.85495
8.86783
9.40737
9.63804
9.67464
9.59362
9.44362
9.25424
9.04266
8.81842
8.58652
8.3494
8.10817
7.8633
7.61377
7.35888
7.10404
6.84193
-13.0066
-11.7993
-8.31192
-2.45875
4.892
11.8931
16.2168
17.0419
15.6559
14.1014
12.9425
11.8067
10.5165
9.36593
8.7036
8.5967
8.85871
9.27653
9.68696
9.96575
10.1396
10.2148
10.2
10.1162
9.98328
9.81749
9.63067
9.4306
9.22192
9.00719
8.78767
8.56393
8.33617
8.10439
7.86854
7.62866
7.38371
7.13309
6.88081
6.62224
498.358
475.423
456.768
434.051
402.531
365.009
323.587
281.793
243.281
209.166
178.85
150.78
124.193
99.6048
78.0222
60.1228
46.0126
35.2529
27.288
21.5527
17.4894
14.6654
12.7488
11.4599
10.5927
9.99859
9.57407
9.25
8.9821
8.74319
8.51734
8.29562
8.07334
7.84812
7.61889
7.38534
7.14664
6.90251
6.65704
6.40753
365.38
352.191
339.419
319.01
289.137
253.74
216.665
181.961
152.55
129.588
111.842
96.9004
82.848
69.1112
56.184
44.7291
35.2554
27.8
22.1642
18.0401
15.0841
13.0138
11.5935
10.6288
9.97024
9.50818
9.1661
8.89318
8.65723
8.43888
8.22703
8.01567
7.80177
7.58386
7.3614
7.13438
6.90237
6.66536
6.4275
6.18669
-274.53
-253.405
-235.833
-221.864
-208.069
-194.187
-178.803
-161.464
-141.94
-120.537
-98.3797
-76.9855
-57.7046
-41.3506
-28.1107
-17.7357
-9.81727
-3.89339
0.41869
3.45881
5.54331
6.91464
7.76622
8.25185
8.48787
8.55872
8.52329
8.42101
8.27735
8.10806
7.92257
7.72624
7.52205
7.31155
7.09562
6.87497
6.64961
6.41976
6.18941
5.95629
-516.705
-486.614
-458.041
-426.669
-389.156
-349.062
-308.871
-270.007
-232.783
-197.172
-163.377
-131.943
-103.52
-78.6222
-57.5149
-40.2145
-26.4863
-15.9173
-8.0293
-2.31117
1.69098
4.38052
6.10459
7.14562
7.72225
7.99503
8.07603
8.0398
7.93373
7.78662
7.61523
7.42888
7.23261
7.02902
6.81956
6.60526
6.38646
6.16347
5.9402
5.7138
-30.3453
-29.5763
-26.8169
-22.2056
-16.9315
-11.8566
-7.85527
-4.84131
-2.05462
0.558356
2.44587
3.36442
3.70891
4.06461
4.71393
5.5513
6.43454
7.20898
7.78389
8.1298
8.32377
8.40434
8.40008
8.33766
8.23727
8.11247
7.97152
7.81901
7.65725
7.48732
7.3098
7.12509
6.9336
6.73583
6.53239
6.3241
6.11146
5.89475
5.67784
5.45726
483.076
459.175
438.941
414.026
379.406
339.247
297.83
259.672
226.629
197.865
170.952
144.285
118.157
93.9736
73.026
55.9108
42.4497
32.1796
24.5555
19.0557
15.1662
12.4847
10.6821
9.49355
8.71615
8.20213
7.84856
7.58696
7.37385
7.18298
6.99945
6.81544
6.62733
6.43383
6.23492
6.03129
5.82361
5.61209
5.40056
5.18491
364.695
352.646
341.202
321.201
289.966
252.273
213.772
179.946
153.689
133.987
117.694
101.898
85.5469
69.3985
54.6422
42.1983
32.2974
24.7458
19.1954
15.2383
12.4799
10.6092
9.37108
8.56347
8.0351
7.67829
7.4202
7.21415
7.03183
6.85716
6.68175
6.50173
6.31581
6.12399
5.92694
5.72572
5.52121
5.31349
5.10624
4.8947
-304.1
-281.447
-262.223
-246.144
-230.456
-214.541
-196.812
-176.032
-151.955
-125.715
-99.7018
-76.1972
-56.5639
-40.9441
-28.7855
-19.3184
-11.9416
-6.24557
-1.98687
1.10722
3.30035
4.79603
5.76738
6.35805
6.68087
6.82081
6.83919
6.77853
6.66727
6.52381
6.3597
6.18206
5.99526
5.80205
5.60431
5.40352
5.20072
4.99571
4.79199
4.58412
-517.178
-489.136
-463.062
-434.617
-401.542
-366.356
-329.787
-292.257
-254.061
-215.772
-178.28
-143.194
-111.768
-84.6768
-62.0799
-43.761
-29.3064
-18.2474
-10.0353
-4.11847
0.000843206
2.75445
4.50976
5.56393
6.14461
6.41733
6.4967
6.45855
6.35095
6.20313
6.03225
5.84805
5.65601
5.45924
5.25964
5.0586
4.85709
4.65455
4.45424
4.25015
48.4652
43.5807
39.95
35.5839
28.6988
20.8209
13.7527
8.87388
5.95805
4.01737
2.57261
1.80084
1.8033
2.51109
3.64099
4.8461
5.87467
6.62225
7.10413
7.3313
7.37875
7.32051
7.1951
7.03096
6.8478
6.65695
6.46383
6.27025
6.07627
5.88135
5.68498
5.48696
5.28743
5.08679
4.88567
4.68488
4.48515
4.28557
4.08919
3.88956
515.685
491.625
470.549
442.762
403.574
359.635
317.054
279.476
246.682
215.979
185.2
154.299
124.875
98.5336
76.1837
58.0276
43.725
32.7711
24.6048
18.6778
14.4704
11.5465
9.55966
8.2304
7.34371
6.74291
6.31901
5.99959
5.73874
5.50881
5.29409
5.08633
4.88165
4.6786
4.47701
4.27736
4.08029
3.88461
3.69315
3.49919
266.795
261.189
255.087
240.758
216.723
188.775
163.269
144.589
132.878
124.377
114.731
101.747
86.0149
69.6632
54.5386
41.7623
31.6198
23.8838
18.1769
14.1107
11.2629
9.31249
8.00071
7.12234
6.52499
6.10131
5.77984
5.51537
5.28089
5.06132
4.84889
4.64009
4.43373
4.22977
4.0287
3.83121
3.63798
3.44756
3.26252
3.07598
-400.885
-375.089
-352.659
-331.204
-307.765
-282.365
-253.768
-221.315
-185.651
-149.011
-114.767
-85.8262
-63.1644
-46.0166
-32.9502
-22.7827
-14.8186
-8.66907
-4.04541
-0.729698
1.58981
3.14486
4.12698
4.69529
4.97487
5.0602
5.01989
4.90177
4.73782
4.54869
4.34725
4.1413
3.93544
3.73236
3.53367
3.34037
3.15313
2.97021
2.79383
2.61714
-434.719
-413.69
-394.964
-375.249
-352.824
-328.299
-301.376
-272.054
-240.595
-207.817
-174.95
-143.203
-113.803
-87.6363
-65.1496
-46.4872
-31.5541
-20.0956
-11.6705
-5.69102
-1.59287
1.10087
2.77787
3.74731
4.24385
4.43719
4.44438
4.34283
4.18157
3.99036
3.78658
3.57995
3.37571
3.17657
2.98396
2.79859
2.62087
2.44877
2.28416
2.12046
174.29
163.428
152.733
138.041
117.237
94.4578
73.6609
56.4873
42.4591
30.9575
22.1695
15.9192
11.9697
9.80398
8.77143
8.25879
7.88294
7.50746
7.09866
6.67858
6.23268
5.80387
5.40488
5.03713
4.70049
4.39265
4.10984
3.84787
3.60296
3.37209
3.15307
2.94447
2.7454
2.55539
2.37422
2.20179
2.03812
1.88097
1.73186
1.58479
527.694
505.072
484.931
457.342
418.526
375.831
334.502
296.844
261.924
227.872
193.929
160.885
130.068
102.741
79.4792
60.3272
45.0198
33.1492
24.2045
17.6506
12.9603
9.66227
7.38851
5.84296
4.79555
4.07709
3.56901
3.19175
2.89421
2.64506
2.4259
2.22641
2.04111
1.86725
1.70351
1.54929
1.40438
1.26648
1.13684
1.01033
173.259
172.268
169.813
160.502
144.438
127.596
115.1
109.166
107.795
106.44
101.306
91.2963
77.8139
63.1045
49.2181
37.3776
27.9023
20.585
15.1064
11.119
8.27859
6.29384
4.92533
3.98501
3.33108
2.86219
2.50979
2.2295
1.99394
1.78693
1.59933
1.42619
1.26494
1.11431
0.973664
0.84263
0.721
0.606639
0.500474
0.398503
-459.354
-431.837
-407.718
-383.636
-356.329
-325.631
-290.893
-252.313
-211.294
-170.467
-133.161
-101.834
-77.1222
-57.9717
-42.9602
-31.0699
-21.7285
-14.558
-9.2189
-5.4198
-2.79342
-1.05127
0.0445766
0.68439
1.01393
1.14064
1.14074
1.06656
0.95256
0.820399
0.683086
0.548017
0.419152
0.298437
0.186674
0.0840385
-0.00953938
-0.0959517
-0.174584
-0.24805
-380.202
-362.428
-346.799
-330.92
-313.29
-293.928
-272.171
-248.053
-222.046
-194.869
-167.467
-140.406
-114.485
-90.5188
-69.2181
-51.1156
-36.4309
-25.0536
-16.6495
-10.6489
-6.52366
-3.79459
-2.06321
-1.02292
-0.4436
-0.159839
-0.0572501
-0.0598439
-0.119352
-0.206034
-0.302636
-0.399566
-0.491793
-0.576898
-0.653908
-0.722611
-0.783137
-0.837078
-0.884128
-0.925258
223.197
210.362
197.41
179.268
153.802
126.198
101.148
80.335
62.7807
47.4592
34.6506
24.462
17.0379
12.055
8.80168
6.55987
4.8491
3.46772
2.34964
1.4639
0.78705
0.274254
-0.124296
-0.42555
-0.654519
-0.832391
-0.974026
-1.08977
-1.18835
-1.27199
-1.3438
-1.40564
-1.45858
-1.50329
-1.54028
-1.57006
-1.59299
-1.61035
-1.62215
-1.62752
517.194
495.409
475.528
447.62
408.306
365.594
324.993
288.73
255.227
222.214
188.845
155.997
125.09
97.4519
73.78
54.2591
38.6774
26.6102
17.5688
10.9902
6.34607
3.16763
1.05795
-0.308507
-1.17047
-1.70332
-2.02719
-2.22105
-2.33428
-2.40079
-2.43899
-2.45939
-2.46792
-2.46779
-2.46075
-2.44786
-2.42975
-2.40735
-2.38102
-2.3479
122.666
124.236
123.578
115.486
100.527
84.7383
73.5604
69.3622
70.4401
72.2699
70.9266
65.0071
55.4693
44.3081
33.4511
23.9911
16.3357
10.4191
5.99783
2.78949
0.526469
-1.02627
-2.05529
-2.71566
-3.12643
-3.37362
-3.51213
-3.58096
-3.6056
-3.60224
-3.58074
-3.54705
-3.50476
-3.45601
-3.40218
-3.34424
-3.28287
-3.21854
-3.15203
-3.07849
-500.199
-470.686
-444.552
-418.442
-389.255
-357.524
-322.437
-284.026
-243.157
-201.744
-162.461
-127.857
-99.1795
-76.2535
-58.1393
-43.9035
-32.8501
-24.4549
-18.2569
-13.8151
-10.7313
-8.6495
-7.27545
-6.39473
-5.83761
-5.48049
-5.24619
-5.08322
-4.95851
-4.85224
-4.75326
-4.65575
-4.55706
-4.45621
-4.35313
-4.2482
-4.14188
-4.0341
-3.92606
-3.8109
-354.573
-338.975
-324.91
-309.892
-293.199
-275.279
-255.338
-233.299
-209.69
-185.094
-160.127
-135.464
-111.797
-89.9488
-70.6985
-54.4718
-41.3542
-31.1661
-23.5441
-18.0138
-14.1129
-11.4358
-9.63764
-8.43852
-7.64495
-7.11522
-6.74983
-6.48266
-6.27143
-6.09039
-5.92461
-5.76594
-5.61024
-5.45571
-5.30175
-5.14843
-4.99606
-4.84394
-4.6937
-4.53652
260.872
246.644
233.553
215.678
189.581
159.95
131.462
107.442
87.6523
70.0815
53.8141
39.4037
27.3096
17.5978
10.0623
4.308
0.00666944
-3.11332
-5.27217
-6.69434
-7.56273
-8.02933
-8.2307
-8.26559
-8.19502
-8.0594
-7.88572
-7.69103
-7.48569
-7.27574
-7.06452
-6.85388
-6.6448
-6.43785
-6.23342
-6.03191
-5.83366
-5.6374
-5.44525
-5.24657
498.955
477.152
456.871
428.036
387.073
341.784
299.125
262.833
231.554
201.76
171.226
140.178
110.307
83.2908
60.1298
41.1686
26.2119
14.8439
6.52792
0.659179
-3.32963
-5.92581
-7.52466
-8.43347
-8.88205
-9.03125
-8.99601
-8.85166
-8.64599
-8.40824
-8.15557
-7.89757
-7.63939
-7.3837
-7.13185
-6.88461
-6.64247
-6.40371
-6.17111
-5.93246
57.4023
62.7774
65.095
58.7103
44.4627
27.5205
13.9217
7.22324
7.47821
11.3052
14.8421
15.8353
14.079
10.4521
6.07728
1.77781
-1.93179
-4.89144
-7.12892
-8.69997
-9.73325
-10.3621
-10.6861
-10.7885
-10.7343
-10.5757
-10.3501
-10.0836
-9.79393
-9.49257
-9.18671
-8.88071
-8.57719
-8.27768
-7.98314
-7.69428
-7.41165
-7.13321
-6.86258
-6.58633
-542.431
-509.212