2 	-6.92176 	-1.28135e-17 	1.05803 	-0.000662545 	0
2 	-6.76684 	-1.63263e-17 	1.05826 	-0.00197139 	0
2 	-6.61499 	-1.98391e-17 	1.05872 	-0.00326356 	0
2 	-6.46617 	-2.19425e-17 	1.05939 	-0.00453676 	0
2 	-6.32031 	-2.26364e-17 	1.06026 	-0.00579716 	0
2 	-6.17735 	-2.33302e-17 	1.06132 	-0.00704674 	0
2 	-6.03724 	-2.40241e-17 	1.06256 	-0.00828817 	0
2 	-5.89991 	-2.53252e-17 	1.06399 	-0.00952377 	0
2 	-5.76531 	-2.80357e-17 	1.06558 	-0.0107554 	0
2 	-5.63339 	-2.87296e-17 	1.06734 	-0.0119849 	0
2 	-5.50409 	-2.73201e-17 	1.06926 	-0.0132135 	0
2 	-5.37737 	-2.87296e-17 	1.07133 	-0.0144425 	0
2 	-5.25316 	-3.08329e-17 	1.07355 	-0.0156728 	0
2 	-5.13143 	-3.01174e-17 	1.07592 	-0.0169052 	0
2 	-5.01212 	-3.08112e-17 	1.07843 	-0.0181403 	0
2 	-4.89518 	-3.15051e-17 	1.08108 	-0.0193784 	0
2 	-4.78056 	-2.94885e-17 	1.08386 	-0.0206197 	0
2 	-4.66823 	-2.88814e-17 	1.08677 	-0.0218643 	0
2 	-4.55813 	-2.95753e-17 	1.08981 	-0.0231119 	0
2 	-4.45022 	-2.88597e-17 	1.09297 	-0.0243623 	0
2 	-4.34446 	-2.53252e-17 	1.09625 	-0.0256151 	0
2 	-4.2408 	-2.46096e-17 	1.09965 	-0.0268697 	0
2 	-4.1392 	-2.6713e-17 	1.10317 	-0.0281252 	0
2 	-4.03963 	-2.74068e-17 	1.10679 	-0.0293809 	0
2 	-3.94203 	-2.52818e-17 	1.11051 	-0.0306357 	0
2 	-3.84638 	-2.45662e-17 	1.11434 	-0.0318887 	0
2 	-3.75262 	-2.52601e-17 	1.11826 	-0.0331384 	0
2 	-3.66074 	-2.45446e-17 	1.12227 	-0.0343836 	0
2 	-3.57068 	-2.80574e-17 	1.12638 	-0.0356228 	0
2 	-3.48241 	-3.15702e-17 	1.13056 	-0.0368546 	0
2 	-3.3959 	-2.94451e-17 	1.13482 	-0.0380772 	0
2 	-3.31111 	-2.60191e-17 	1.13916 	-0.0392891 	0
2 	-3.228 	-2.54119e-17 	1.14356 	-0.0404883 	0
2 	-3.14655 	-2.74068e-17 	1.14802 	-0.0416732 	0
2 	-3.06672 	-2.81007e-17 	1.15253 	-0.0428417 	0
2 	-2.98847 	-2.74936e-17 	1.1571 	-0.0439921 	0
2 	-2.91179 	-2.6778e-17 	1.16171 	-0.0451223 	0
2 	-2.83663 	-2.60624e-17 	1.16635 	-0.0462304 	0
2 	-2.76296 	-2.60624e-17 	1.17102 	-0.0473144 	0
2 	-2.69076 	-2.6778e-17 	1.17571 	-0.0483725 	0
2 	-2.61999 	-2.81875e-17 	1.18042 	-0.0494027 	0
2 	-2.55063 	-2.74719e-17 	1.18514 	-0.0504032 	0
2 	-2.48265 	-2.67563e-17 	1.18986 	-0.0513724 	0
2 	-2.41603 	-3.01607e-17 	1.19458 	-0.0523088 	0
2 	-2.35073 	-3.08546e-17 	1.1993 	-0.0532109 	0
2 	-2.28672 	-2.74285e-17 	1.204 	-0.0540778 	0
2 	-2.224 	-3.07245e-17 	1.2087 	-0.0549086 	0
2 	-2.16251 	-3.40205e-17 	1.21339 	-0.0557025 	0
2 	-2.10226 	-3.26544e-17 	1.21808 	-0.0564589 	0
2 	-2.0432 	-3.26978e-17 	1.22276 	-0.0571766 	0
2 	-1.98531 	-3.33916e-17 	1.22744 	-0.0578539 	0
2 	-1.92858 	-3.40855e-17 	1.23209 	-0.0584887 	0
2 	-1.87297 	-3.337e-17 	1.23671 	-0.0590785 	0
2 	-1.81847 	-3.12449e-17 	1.24127 	-0.0596206 	0
2 	-1.76506 	-2.91199e-17 	1.24572 	-0.0601122 	0
2 	-1.7127 	-2.69949e-17 	1.25005 	-0.0605508 	0
2 	-1.66139 	-2.49782e-17 	1.2542 	-0.0609331 	0
2 	-1.6111 	-2.43711e-17 	1.25812 	-0.0612533 	0
2 	-1.56181 	-2.6366e-17 	1.26173 	-0.0615012 	0
2 	-1.5135 	-2.70599e-17 	1.26489 	-0.0616585 	0
2 	-1.46615 	-2.50433e-17 	1.26738 	-0.0616949 	0
2 	-1.41975 	-2.29183e-17 	1.26885 	-0.0615639 	0
2 	-1.37426 	-2.22027e-17 	1.26876 	-0.0612004 	0
2 	-1.32968 	-2.4306e-17 	1.26637 	-0.0605225 	0
2 	-1.28599 	-2.64094e-17 	1.2607 	-0.0594403 	0
2 	-1.24316 	-2.98138e-17 	1.25066 	-0.0578702 	0
2 	-1.20119 	-3.19171e-17 	1.23514 	-0.0557602 	0
2 	-1.16006 	-3.33266e-17 	1.21321 	-0.0531473 	0
2 	-1.11974 	-3.33266e-17 	1.18429 	-0.0501831 	0
2 	-1.08022 	-2.99005e-17 	1.14819 	-0.0467364 	0
2 	-1.04068 	-3.07254e-17 	1.09837 	-0.0408547 	-3.59244e-20
2 	-1.01885 	-3.26128e-17 	1.10567 	-0.0457615 	-4.77689e-20
2 	-0.994515 	-2.89436e-17 	1.03163 	-0.0375798 	-2.08051e-20
2 	-0.950697 	-2.44333e-17 	0.946684 	-0.0305947 	5.47205e-20
2 	-0.927579 	-2.35922e-17 	0.954874 	-0.0347385 	-3.74768e-20
2 	-0.902062 	-2.67897e-17 	0.859477 	-0.0272867 	8.72117e-21
2 	-0.854004 	-2.96028e-17 	0.756003 	-0.0206885 	-1.84004e-20
2 	-0.828122 	-2.85738e-17 	0.648244 	-0.0152558 	-3.41441e-20
2 	-0.803228 	-2.88832e-17 	0.654038 	-0.0179736 	1.36954e-20
2 	-0.754457 	-2.97203e-17 	0.544548 	-0.0134559 	3.63994e-20
2 	-0.718065 	-2.83114e-17 	0.43854 	-0.0103078 	2.25072e-20
2 	-0.692117 	-2.66936e-17 	0.441675 	-0.0122912 	3.9876e-20
2 	-0.650694 	-2.6914e-17 	0.340728 	-0.0100646 	1.21667e-20
2 	-0.597382 	-2.62864e-17 	0.248091 	-0.00878516 	-1.50451e-20
2 	-0.566372 	-2.56031e-17 	0.164519 	-0.00811834 	3.74781e-20
2 	-0.539075 	-2.76185e-17 	0.165191 	-0.0095242 	6.82078e-21
2 	-0.48823 	-2.97459e-17 	0.0905462 	-0.00906056 	3.89869e-20
2 	-0.432534 	-2.79063e-17 	0.0250461 	-0.00867658 	5.73665e-21
2 	-0.382733 	-2.5569e-17 	-0.0317317 	-0.0081921 	1.60195e-20
2 	-0.354412 	-2.56739e-17 	-0.0310367 	-0.00928563 	-2.14412e-20
2 	-0.319289 	-2.56739e-17 	-0.0792065 	-0.00847326 	-5.61882e-21
2 	-0.261902 	-2.56739e-17 	-0.119225 	-0.00738437 	-4.6666e-20
2 	-0.204118 	-2.52718e-17 	-0.151244 	-0.00601357 	-1.38875e-20
2 	-0.146022 	-2.70855e-17 	-0.175308 	-0.0043909 	-1.73574e-21
2 	-0.0877028 	-2.89653e-17 	-0.191394 	-0.00257402 	2.72401e-21
2 	-0.0292492 	-2.95156e-17 	-0.199461 	-0.000633997 	-1.58928e-21
2 	0.0292492 	-3.62395e-18 	-0.199479 	0.00134045 	1.68207e-21
2 	0.0877028 	-4.41897e-18 	-0.191456 	0.00325914 	-2.81419e-21
2 	0.146022 	-6.65917e-18 	-0.175425 	0.00504168 	1.73348e-21
2 	0.204118 	-6.1465e-18 	-0.151438 	0.00661272 	1.38069e-20
2 	0.261902 	-4.85723e-18 	-0.119523 	0.00791867 	4.66796e-20
2 	0.319289 	-3.81639e-18 	-0.0796412 	0.00893289 	5.73687e-21
2 	0.354412 	-2.0004e-19 	-0.0316389 	0.0096657 	2.13234e-20
2 	0.382733 	9.45681e-19 	-0.0323017 	0.00880427 	-1.73206e-20
2 	0.432534 	-5.40992e-19 	0.0242758 	0.00919963 	-3.72332e-21
2 	0.48823 	7.419e-19 	0.0895595 	0.00950092 	-3.75657e-20
2 	0.539075 	-2.91259e-18 	0.163992 	0.00989474 	-7.65145e-21
2 	0.566372 	-7.83607e-18 	0.163321 	0.0087038 	-3.73224e-20
2 	0.597382 	-6.85745e-18 	0.246683 	0.00930311 	1.44789e-20
2 	0.650694 	-6.44425e-18 	0.339156 	0.0105364 	-1.13611e-20
2 	0.692117 	-6.35292e-18 	0.44 	0.0127387 	-3.76598e-20
2 	0.718065 	-6.84891e-19 	0.436807 	0.0109388 	-2.5816e-20
2 	0.754457 	2.19858e-18 	0.542762 	0.0140646 	-3.39628e-20
2 	0.803228 	-2.60135e-19 	0.652273 	0.0185751 	-1.32348e-20
2 	0.828122 	-1.33852e-18 	0.646401 	0.0160231 	3.50103e-20
2 	0.854004 	-2.47605e-18 	0.754238 	0.021442 	1.76593e-20
2 	0.902062 	-5.21406e-18 	0.857846 	0.0280308 	-1.01446e-20
2 	0.927579 	-7.26543e-18 	0.953415 	0.0354699 	3.70547e-20
2 	0.950697 	-8.36668e-18 	0.945158 	0.031461 	-5.42579e-20
2 	0.994515 	-9.77486e-18 	1.03031 	0.0384233 	2.04528e-20
2 	1.01885 	-8.8158e-18 	1.10457 	0.0465594 	-1.21283e-20
2 	1.04068 	-9.5088e-18 	1.09724 	0.0417759 	9.3928e-20
2 	1.08022 	-8.62847e-18 	1.14726 	0.0476169 	0
2 	1.11974 	-5.20239e-18 	1.18352 	0.0510671 	0
2 	1.16006 	-3.90134e-18 	1.21261 	0.0540261 	0
2 	1.20119 	-5.20239e-18 	1.23468 	0.0566225 	0
2 	1.24316 	-7.19732e-18 	1.25032 	0.0587093 	0
2 	1.28599 	-6.59017e-18 	1.26046 	0.060251 	0
2 	1.32968 	-7.28405e-18 	1.26621 	0.0613006 	0
2 	1.37426 	-7.97794e-18 	1.26868 	0.0619424 	0
2 	1.41975 	-7.37079e-18 	1.26882 	0.0622676 	0
2 	1.46615 	-9.36572e-18 	1.26739 	0.062359 	0
2 	1.5135 	-9.36572e-18 	1.26494 	0.0622826 	0
2 	1.56181 	-8.06468e-18 	1.26181 	0.0620855 	0
2 	1.6111 	-1.00596e-17 	1.25822 	0.0617982 	0
2 	1.66139 	-1.48735e-17 	1.25432 	0.0614394 	0
2 	1.7127 	-1.83863e-17 	1.25019 	0.0610196 	0
2 	1.76506 	-2.04896e-17 	1.24588 	0.0605445 	0
2 	1.81847 	-2.2593e-17 	1.24144 	0.0600177 	0
2 	1.87297 	-2.46963e-17 	1.23689 	0.0594419 	0
2 	1.92858 	-2.67997e-17 	1.23228 	0.0588196 	0
2 	1.98531 	-2.87946e-17 	1.22763 	0.0581538 	0
2 	2.0432 	-3.2199e-17 	1.22295 	0.057447 	0
2 	2.10226 	-3.57118e-17 	1.21827 	0.0567014 	0
2 	2.16251 	-3.78152e-17 	1.21359 	0.0559186 	0
2 	2.224 	-3.78152e-17 	1.20889 	0.0550997 	0
2 	2.28672 	-3.57118e-17 	1.20419 	0.0542456 	0
2 	2.35073 	-3.46276e-17 	1.19948 	0.0533569 	0
2 	2.41603 	-3.49529e-17 	1.19476 	0.0524345 	0
2 	2.48265 	-3.36519e-17 	1.19004 	0.0514793 	0
2 	2.55063 	-3.2611e-17 	1.18531 	0.0504928 	0
2 	2.61999 	-3.42807e-17 	1.18059 	0.0494763 	0
2 	2.69076 	-3.70996e-17 	1.17587 	0.0484315 	0
2 	2.76296 	-3.70996e-17 	1.17117 	0.0473601 	0
2 	2.83663 	-3.6384e-17 	1.16649 	0.0462641 	0
2 	2.91179 	-3.84874e-17 	1.16184 	0.0451453 	0
2 	2.98847 	-4.23255e-17 	1.15722 	0.0440055 	0
2 	3.06672 	-4.58383e-17 	1.15265 	0.0428467 	0
2 	3.14655 	-4.76164e-17 	1.14812 	0.0416707 	0
2 	3.228 	-5.0045e-17 	1.14365 	0.0404794 	0
2 	3.31111 	-5.13894e-17 	1.13924 	0.0392746 	0
2 	3.3959 	-5.09991e-17 	1.1349 	0.0380581 	0
2 	3.48241 	-5.1693e-17 	1.13063 	0.0368316 	0
2 	3.57068 	-5.23869e-17 	1.12644 	0.0355967 	0
2 	3.66074 	-5.27555e-17 	1.12233 	0.034355 	0
2 	3.75262 	-5.45336e-17 	1.11831 	0.0331079 	0
2 	3.84638 	-5.76778e-17 	1.11438 	0.0318569 	0
2 	3.94203 	-6.2123e-17 	1.11055 	0.0306032 	0
2 	4.03963 	-6.2123e-17 	1.10682 	0.0293479 	0
2 	4.1392 	-5.94125e-17 	1.10319 	0.0280923 	0
2 	4.2408 	-6.01064e-17 	1.09968 	0.0268371 	0
2 	4.34446 	-5.79813e-17 	1.09627 	0.0255832 	0
2 	4.45022 	-5.44468e-17 	1.09299 	0.0243313 	0
2 	4.55813 	-5.23218e-17 	1.08982 	0.023082 	0
2 	4.66823 	-5.03052e-17 	1.08678 	0.0218356 	0
2 	4.78056 	-5.09991e-17 	1.08386 	0.0205925 	0
2 	4.89518 	-5.1693e-17 	1.08108 	0.0193527 	0
2 	5.01212 	-4.96764e-17 	1.07843 	0.0181162 	0
2 	5.13143 	-5.03702e-17 	1.07592 	0.0168828 	0
2 	5.25316 	-5.24736e-17 	1.07355 	0.0156521 	0
2 	5.37737 	-5.31675e-17 	1.07132 	0.0144235 	0
2 	5.50409 	-5.38614e-17 	1.06925 	0.0131963 	0
2 	5.63339 	-5.31458e-17 	1.06733 	0.0119694 	0
2 	5.76531 	-5.24302e-17 	1.06557 	0.0107417 	0
2 	5.89991 	-5.45336e-17 	1.06398 	0.00951169 	0
2 	6.03724 	-5.3818e-17 	1.06255 	0.00827776 	0
2 	6.17735 	-5.09991e-17 	1.06131 	0.00703797 	0
2 	6.32031 	-5.24085e-17 	1.06024 	0.00579 	0
2 	6.46617 	-5.45119e-17 	1.05937 	0.0045312 	0
2 	6.61499 	-5.52058e-17 	1.0587 	0.00325958 	0
2 	6.76684 	-5.58997e-17 	1.05824 	0.001969 	0
2 	6.92176 	-5.34945e-17 	1.05801 	0.000661743 	0
