/*--------------------------------*- C++ -*----------------------------------*\
  =========                 |
  \\      /  F ield         | OpenFOAM: The Open Source CFD Toolbox
   \\    /   O peration     | Website:  https://openfoam.org
    \\  /    A nd           | Version:  7
     \\/     M anipulation  |
\*---------------------------------------------------------------------------*/
FoamFile
{
    version     2.0;
    format      ascii;
    class       volScalarField;
    location    "2";
    object      p;
}
// * * * * * * * * * * * * * * * * * * * * * * * * * * * * * * * * * * * * * //

dimensions      [0 2 -2 0 0 0 0];

internalField   nonuniform List<scalar> 
344
(
1.9097
1.88859
1.8725
1.8573
1.85984
1.82935
2.09545
2.09489
2.09504
2.09435
2.09462
2.09385
2.09399
2.09323
2.09318
2.09253
2.09237
2.09187
2.0917
2.09126
2.09114
2.09067
2.09054
2.09001
2.08983
2.08918
2.08892
2.08826
2.08785
2.08741
2.08677
2.08667
2.08599
2.08598
2.08569
2.08553
2.08577
2.08539
2.0857
2.0852
2.08502
2.08454
2.08388
2.08335
2.08247
2.08156
2.08075
2.07935
2.07822
2.0765
2.07458
2.07249
2.06931
2.06659
2.06218
2.05814
2.05238
2.0462
2.03921
2.0303
2.02127
2.01034
1.99898
1.98674
1.97351
1.96037
1.94723
1.93718
1.93388
1.94445
1.9767
1.98559
2.09546
2.09495
2.09504
2.09441
2.09457
2.0939
2.09394
2.0933
2.09315
2.09262
2.09238
2.09195
2.09173
2.09134
2.09116
2.09075
2.09056
2.0901
2.08986
2.08933
2.089
2.08849
2.08803
2.08769
2.08709
2.08701
2.08643
2.08641
2.08621
2.08606
2.08631
2.08602
2.0863
2.08599
2.08581
2.08559
2.08499
2.08472
2.084
2.08338
2.08276
2.08175
2.0808
2.07962
2.07793
2.07645
2.07378
2.07158
2.06803
2.06454
2.05989
2.05464
2.04878
2.04149
2.03406
2.02502
2.01653
2.00652
1.99782
1.98836
1.98223
1.9795
1.98802
2.01411
2.05032
2.10673
2.09548
2.09499
2.09503
2.09445
2.09453
2.09394
2.09389
2.09335
2.09313
2.09269
2.09239
2.09203
2.09176
2.09141
2.09119
2.09083
2.09059
2.09019
2.08991
2.08946
2.0891
2.08869
2.08821
2.08796
2.08739
2.08734
2.08686
2.08682
2.08673
2.08656
2.08685
2.08664
2.0869
2.08676
2.08661
2.0866
2.08612
2.08604
2.08554
2.08514
2.08476
2.08406
2.08341
2.08261
2.08133
2.08028
2.07822
2.07651
2.07372
2.07091
2.06718
2.06293
2.05815
2.05238
2.04623
2.03971
2.03247
2.02647
2.0196
2.01582
2.0136
2.01814
2.03355
2.06623
2.1217
2.16478
2.09549
2.09503
2.09502
2.09449
2.0945
2.09398
2.09386
2.0934
2.09312
2.09274
2.09241
2.09209
2.09179
2.09147
2.09122
2.09089
2.09063
2.09028
2.08997
2.08958
2.08922
2.08887
2.08841
2.0882
2.0877
2.08764
2.08728
2.08721
2.08721
2.08706
2.08737
2.08725
2.08749
2.08752
2.08741
2.08758
2.08724
2.08733
2.08706
2.08686
2.08674
2.08635
2.08596
2.08558
2.08465
2.08406
2.08258
2.08135
2.07933
2.07716
2.07428
2.0711
2.06719
2.063
2.05817
2.05323
2.04877
2.04386
2.04193
2.03935
2.0437
2.05025
2.07189
2.10654
2.1455
2.21776
2.09551
2.09507
2.09502
2.09452
2.09447
2.09401
2.09383
2.09343
2.09311
2.09279
2.09243
2.09214
2.09183
2.09152
2.09126
2.09095
2.09067
2.09035
2.09004
2.0897
2.08934
2.08903
2.08862
2.08843
2.088
2.08793
2.08767
2.08759
2.08767
2.08754
2.08788
2.08784
2.0881
2.08825
2.08823
2.08851
2.08838
2.08857
2.08858
2.08853
2.08869
2.08857
2.08848
2.08847
2.08795
2.08776
2.08687
2.08611
2.08479
2.08332
2.08124
2.07899
2.07615
2.07311
2.0697
2.06657
2.06341
2.0618
2.06076
2.0633
2.06861
2.08035
2.10152
2.13008
2.17815
2.23233
2.09552
2.09509
2.09502
2.09454
2.09446
2.09403
2.0938
2.09346
)
;

boundaryField
{
    inlet
    {
        type            zeroGradient;
    }
    outlet
    {
        type            fixedValue;
        value           nonuniform 0();
    }
    wall
    {
        type            zeroGradient;
    }
    wedge1
    {
        type            wedge;
    }
    wedge2
    {
        type            wedge;
    }
    axis
    {
        type            empty;
    }
    procBoundary26to20
    {
        type            processor;
        value           nonuniform List<scalar> 
67
(
1.87005
1.83427
1.80356
1.75052
1.73674
1.5682
2.09543
2.09482
2.09505
2.09428
2.09466
2.09379
2.09405
2.09315
2.0932
2.09243
2.09235
2.09177
2.09167
2.09116
2.09111
2.09058
2.09052
2.0899
2.0898
2.08902
2.08882
2.08803
2.08766
2.08709
2.08648
2.08626
2.08556
2.0855
2.08514
2.08498
2.0852
2.08475
2.08512
2.0844
2.08425
2.08346
2.08278
2.08192
2.08095
2.07965
2.07874
2.07688
2.07558
2.07337
2.07113
2.06852
2.06477
2.0615
2.05627
2.05158
2.04475
2.03756
2.02941
2.01875
2.00831
1.99463
1.98134
1.96525
1.94867
1.9295
1.9295
)
;
    }
    procBoundary26to25
    {
        type            processor;
        value           nonuniform List<scalar> 5(2.09553 2.09558 2.09562 2.09566 2.0957);
    }
    procBoundary26to31
    {
        type            processor;
        value           uniform 2.09573;
    }
    procBoundary26to32
    {
        type            processor;
        value           nonuniform List<scalar> 
67
(
2.09311
2.09283
2.09245
2.09218
2.09186
2.09157
2.09131
2.091
2.09073
2.09042
2.09011
2.08981
2.08946
2.08919
2.08882
2.08864
2.0883
2.08821
2.08804
2.08796
2.0881
2.08802
2.08836
2.08842
2.08868
2.08897
2.08903
2.08944
2.08948
2.0898
2.09004
2.09019
2.09058
2.09077
2.09096
2.09129
2.0912
2.09137
2.09108
2.09078
2.09014
2.08935
2.08802
2.08673
2.08473
2.08307
2.08067
2.0793
2.07766
2.07793
2.07962
2.08364
2.09247
2.10451
2.1229
2.14803
2.17778
2.23841
2.09553
2.09512
2.09502
2.09456
2.09444
2.09404
2.09379
2.09311
2.09348
)
;
    }
}


// ************************************************************************* //
