/*--------------------------------*- C++ -*----------------------------------*\
  =========                 |
  \\      /  F ield         | OpenFOAM: The Open Source CFD Toolbox
   \\    /   O peration     | Website:  https://openfoam.org
    \\  /    A nd           | Version:  7
     \\/     M anipulation  |
\*---------------------------------------------------------------------------*/
FoamFile
{
    version     2.0;
    format      ascii;
    class       volScalarField;
    location    "4";
    object      p;
}
// * * * * * * * * * * * * * * * * * * * * * * * * * * * * * * * * * * * * * //

dimensions      [0 2 -2 0 0 0 0];

internalField   nonuniform List<scalar> 
433
(
-0.297435
-0.28289
-0.26831
-0.253647
-0.238828
-0.394602
-0.383324
-0.371493
-0.359138
-0.3463
-0.33303
-0.319384
-0.305429
-0.291237
-0.276885
-0.262468
-0.248068
-0.233612
-0.219001
-0.44827
-0.441998
-0.435239
-0.427962
-0.420137
-0.411742
-0.40276
-0.393182
-0.383005
-0.372239
-0.360899
-0.349012
-0.336616
-0.323758
-0.310493
-0.296887
-0.283009
-0.268937
-0.254752
-0.240553
-0.226427
-0.212285
-0.197995
-0.185565
-0.471586
-0.468556
-0.465452
-0.462251
-0.458924
-0.455437
-0.451752
-0.447834
-0.443642
-0.439135
-0.434274
-0.429017
-0.423324
-0.417158
-0.410482
-0.403266
-0.395484
-0.387115
-0.378144
-0.368568
-0.358388
-0.347619
-0.336282
-0.32441
-0.312048
-0.299248
-0.286071
-0.272588
-0.258873
-0.245006
-0.231071
-0.21717
-0.203403
-0.189672
-0.175732
-0.163679
-0.452275
-0.449305
-0.4464
-0.443719
-0.441052
-0.438324
-0.435519
-0.432613
-0.429573
-0.426362
-0.422943
-0.419275
-0.415318
-0.411029
-0.406366
-0.401287
-0.395752
-0.389724
-0.383166
-0.376051
-0.368353
-0.360055
-0.351146
-0.341626
-0.331502
-0.320794
-0.309528
-0.297746
-0.285494
-0.272833
-0.259827
-0.246552
-0.233085
-0.219507
-0.205898
-0.192359
-0.178997
-0.165667
-0.151757
-0.138901
-0.414898
-0.412342
-0.409988
-0.407646
-0.405243
-0.40276
-0.400171
-0.397441
-0.39453
-0.391399
-0.388006
-0.384308
-0.380262
-0.375824
-0.370952
-0.365606
-0.359749
-0.353347
-0.346372
-0.338802
-0.330623
-0.321829
-0.312423
-0.302418
-0.291838
-0.280717
-0.269099
-0.257038
-0.244599
-0.231851
-0.218874
-0.205747
-0.192553
-0.179376
-0.166322
-0.153483
-0.140672
-0.127516
-0.116754
-0.375461
-0.373456
-0.371458
-0.369401
-0.367262
-0.36501
-0.36261
-0.36002
-0.357198
-0.354102
-0.350687
-0.346909
-0.342723
-0.338087
-0.332962
-0.327311
-0.321102
-0.31431
-0.306915
-0.298907
-0.290284
-0.281052
-0.271231
-0.260849
-0.249946
-0.23857
-0.226781
-0.214647
-0.202242
-0.189646
-0.176943
-0.164215
-0.151548
-0.139047
-0.126793
-0.114562
-0.102043
-0.0923387
-0.332604
-0.330912
-0.329134
-0.327239
-0.325187
-0.322937
-0.320446
-0.317668
-0.314558
-0.311072
-0.307166
-0.302796
-0.297925
-0.292516
-0.286541
-0.279976
-0.272805
-0.265021
-0.256626
-0.247632
-0.238062
-0.22795
-0.217339
-0.206284
-0.194847
-0.1831
-0.171121
-0.158991
-0.146794
-0.134613
-0.122532
-0.110659
-0.0990684
-0.0875117
-0.0756463
-0.0667883
-0.28852
-0.286997
-0.285311
-0.283419
-0.281276
-0.278837
-0.276055
-0.272886
-0.269285
-0.265212
-0.260627
-0.255498
-0.249798
-0.243506
-0.236609
-0.229104
-0.220997
-0.212305
-0.203055
-0.193284
-0.183042
-0.172385
-0.161381
-0.150102
-0.138629
-0.127044
-0.11543
-0.10387
-0.0924458
-0.0812632
-0.0703974
-0.0595703
-0.0483883
-0.0403653
-0.243147
-0.241629
-0.239852
-0.23777
-0.235337
-0.232509
-0.229241
-0.225493
-0.22123
-0.216418
-0.211035
-0.205063
-0.198491
-0.191321
-0.183563
-0.175237
-0.166375
-0.157019
-0.14722
-0.13704
-0.126546
-0.115815
-0.104926
-0.0939619
-0.0830049
-0.0721336
-0.0614282
-0.0509929
-0.0409006
-0.0308447
-0.0203686
-0.0131661
-0.196362
-0.194656
-0.192593
-0.190128
-0.187219
-0.183827
-0.179917
-0.175462
-0.170437
-0.164831
-0.158636
-0.151857
-0.144508
-0.136614
-0.12821
-0.11934
-0.11006
-0.100432
-0.0905274
-0.0804209
-0.0701921
-0.0599222
-0.0496907
-0.0395725
-0.0296427
-0.0200028
-0.0107232
-0.00146824
0.00829552
0.0147312
-0.148032
-0.145953
-0.143428
-0.140421
-0.136899
-0.132836
-0.128212
-0.123018
-0.117251
-0.110919
-0.10404
-0.0966416
-0.0887624
-0.0804505
-0.0717626
-0.0627634
-0.0535235
-0.044118
-0.0346246
-0.0251214
-0.0156839
-0.00638128
0.00271817
0.0115186
0.0199529
0.0283878
-0.098101
-0.0955062
-0.0924032
-0.0887689
-0.0845873
-0.079851
-0.0745616
-0.0687304
-0.062379
-0.0555388
-0.048251
-0.040566
-0.0325425
-0.0242457
-0.0157462
-0.00711775
0.00156456
0.0102265
0.018798
0.0272174
0.0354255
0.0433351
-0.0466794
-0.043508
-0.0398065
-0.0355707
-0.030806
-0.0255273
-0.0197593
-0.0135365
-0.00690295
8.90067e-05
0.00737947
0.0149026
0.0225884
0.0303647
0.0381593
0.0459024
0.0535301
0.0609892
0.00587122
0.00956674
0.0137632
0.0184423
0.023576
0.0291269
0.0350488
0.0412873
0.0477814
0.054465
0.0612682
0.06812
0.0749507
0.0816939
0.0629225
0.067377
0.0722085
0.0773686
0.0828014
0.0884445
0.0942309
0.10009
0.105951
0.111742
0.115463
0.119822
0.124408
0.12916
0.134008
0.138883
0.165886
0.169724
0.00524428
-0.0203712
-0.0451745
-0.0691917
-0.0924213
0.00400592
-0.0183467
)
;

boundaryField
{
    inlet
    {
        type            zeroGradient;
    }
    outlet
    {
        type            fixedValue;
        value           nonuniform 0();
    }
    cylinder
    {
        type            zeroGradient;
    }
    top
    {
        type            symmetryPlane;
    }
    bottom
    {
        type            symmetryPlane;
    }
    defaultFaces
    {
        type            empty;
    }
    procBoundary25to19
    {
        type            processor;
        value           nonuniform List<scalar> 
38
(
-0.417518
-0.417518
-0.377643
-0.377643
-0.335875
-0.334238
-0.334238
-0.291232
-0.28992
-0.28992
-0.245588
-0.244452
-0.244452
-0.198887
-0.197757
-0.197757
-0.15102
-0.149707
-0.149707
-0.10189
-0.100217
-0.100217
-0.0514885
-0.0493328
-0.0493328
9.1418e-06
0.00268549
0.00268549
0.0521759
0.0552957
0.0588851
0.0588851
0.107651
0.111389
0.111389
0.158641
0.162171
0.162171
)
;
    }
    procBoundary25to20
    {
        type            processor;
        value           nonuniform List<scalar> 
20
(
-0.47057
-0.464222
-0.499193
-0.495887
-0.492507
-0.489036
-0.485446
-0.481705
-0.477779
-0.473633
-0.46923
-0.464531
-0.459498
-0.454091
-0.454091
-0.484056
-0.480764
-0.477537
-0.474553
-0.474553
)
;
    }
    procBoundary25to24
    {
        type            processor;
        value           nonuniform List<scalar> 
24
(
0.0374602
0.0432462
0.0508853
0.0374602
0.0584804
0.0682326
0.0508853
0.0751892
0.0882907
0.0682326
0.094695
0.0882907
0.117396
0.14371
0.117396
0.148415
0.173619
0.14371
0.177502
0.206986
0.173619
0.209895
0.0316549
0.0268743
)
;
    }
    procBoundary25to26
    {
        type            processor;
        value           nonuniform List<scalar> 
23
(
-0.316369
-0.301785
-0.287114
-0.272333
-0.257395
-0.414686
-0.40353
-0.391819
-0.379576
-0.366834
-0.353636
-0.340034
-0.326088
-0.311864
-0.311864
-0.457412
-0.450108
-0.442279
-0.4339
-0.424953
-0.415423
-0.405306
-0.405306
)
;
    }
    procBoundary25to31
    {
        type            processor;
        value           nonuniform List<scalar> 
14
(
-0.225339
-0.20601
-0.20601
-0.175844
-0.156595
-0.136963
-0.114976
-0.0400104
-0.0609957
-0.114976
-0.0812744
-0.00157015
-0.0400104
-0.0209697
)
;
    }
}


// ************************************************************************* //
