/*--------------------------------*- C++ -*----------------------------------*\
  =========                 |
  \\      /  F ield         | OpenFOAM: The Open Source CFD Toolbox
   \\    /   O peration     | Website:  https://openfoam.org
    \\  /    A nd           | Version:  7
     \\/     M anipulation  |
\*---------------------------------------------------------------------------*/
FoamFile
{
    version     2.0;
    format      ascii;
    class       volScalarField;
    location    "8.999732";
    object      p;
}
// * * * * * * * * * * * * * * * * * * * * * * * * * * * * * * * * * * * * * //

dimensions      [0 2 -2 0 0 0 0];

internalField   nonuniform List<scalar> 
5800
(
-0.350177
-0.350622
-0.350611
-0.350415
-0.350254
-0.0274941
-0.0277405
-0.0279775
-0.0282042
-0.0284195
-0.0286226
-0.0288125
-0.028988
-0.0291483
-0.0292922
-0.0294186
-0.0295265
-0.0296147
-0.0296822
-0.0297278
-0.0297505
-0.029749
-0.0297225
-0.0296698
-0.02959
-0.0294822
-0.0293453
-0.0291787
-0.0289816
-0.0287533
-0.0284933
-0.0282011
-0.0278763
-0.0275187
-0.0271282
-0.0267048
-0.0262487
-0.0257601
-0.0252394
-0.0246872
-0.0241041
-0.0234911
-0.022849
-0.022179
-0.0214823
-0.0207602
-0.0200142
-0.0192459
-0.0184571
-0.0176491
-0.0168242
-0.0159836
-0.0151298
-0.0142637
-0.013388
-0.012503
-0.0116117
-0.0107133
-0.00981159
-0.00890365
-0.00799481
-0.00707906
-0.00616405
-0.00523933
-0.00431628
-0.00337802
-0.00244144
-0.00148012
-0.00051756
-0.0275897
-0.0278368
-0.0280744
-0.0283016
-0.0285173
-0.0287206
-0.0289106
-0.0290863
-0.0292464
-0.0293901
-0.029516
-0.0296232
-0.0297107
-0.0297772
-0.0298217
-0.029843
-0.0298401
-0.0298119
-0.0297573
-0.0296754
-0.0295653
-0.029426
-0.0292568
-0.0290569
-0.0288257
-0.0285625
-0.028267
-0.0279389
-0.0275778
-0.0271836
-0.0267565
-0.0262966
-0.0258041
-0.0252795
-0.0247234
-0.0241365
-0.0235196
-0.0228737
-0.0222
-0.0214996
-0.0207741
-0.0200248
-0.0192533
-0.0184615
-0.0176508
-0.0168234
-0.0159806
-0.0151248
-0.014257
-0.01338
-0.0124938
-0.0116017
-0.0107027
-0.00980078
-0.00889277
-0.00798431
-0.00706895
-0.00615487
-0.00523092
-0.00430934
-0.00337206
-0.00243749
-0.00147723
-0.000517157
-0.0277743
-0.0280231
-0.0282621
-0.0284904
-0.028707
-0.028911
-0.0291014
-0.029277
-0.029437
-0.0295801
-0.0297053
-0.0298115
-0.0298974
-0.0299621
-0.0300044
-0.0300232
-0.0300173
-0.0299858
-0.0299276
-0.0298417
-0.0297272
-0.0295831
-0.0294088
-0.0292034
-0.0289664
-0.0286972
-0.0283953
-0.0280605
-0.0276925
-0.0272913
-0.0268569
-0.0263895
-0.0258895
-0.0253574
-0.0247936
-0.0241991
-0.0235747
-0.0229214
-0.0222404
-0.0215331
-0.0208008
-0.020045
-0.0192674
-0.0184699
-0.0176539
-0.0168216
-0.0159745
-0.0151149
-0.0142438
-0.013364
-0.0124756
-0.011582
-0.0106819
-0.00977952
-0.00887152
-0.00796365
-0.00704929
-0.00613679
-0.00521467
-0.00429553
-0.00336075
-0.00242936
-0.00147203
-0.000515721
-0.0280457
-0.0282969
-0.0285379
-0.0287678
-0.0289856
-0.0291905
-0.0293814
-0.0295572
-0.0297168
-0.0298591
-0.0299831
-0.0300875
-0.0301712
-0.0302332
-0.0302722
-0.0302871
-0.0302769
-0.0302405
-0.0301769
-0.030085
-0.0299639
-0.0298129
-0.029631
-0.0294175
-0.029172
-0.0288938
-0.0285825
-0.0282379
-0.0278598
-0.0274481
-0.027003
-0.0265248
-0.0260137
-0.0254704
-0.0248956
-0.0242899
-0.0236545
-0.0229904
-0.0222988
-0.0215812
-0.0208389
-0.0200737
-0.0192872
-0.0184813
-0.0176576
-0.0168183
-0.0159648
-0.0150997
-0.0142239
-0.0133401
-0.0124486
-0.0115527
-0.0106511
-0.00974805
-0.00884013
-0.00793315
-0.00702031
-0.00611011
-0.00519078
-0.00427516
-0.00334418
-0.00241731
-0.00146448
-0.000513387
-0.0284002
-0.0286544
-0.028898
-0.02913
-0.0293495
-0.0295555
-0.029747
-0.0299229
-0.0300821
-0.0302233
-0.0303456
-0.0304477
-0.0305285
-0.0305868
-0.0306215
-0.0306314
-0.0306155
-0.0305726
-0.0305018
-0.030402
-0.0302723
-0.030112
-0.0299201
-0.0296961
-0.0294393
-0.0291492
-0.0288256
-0.0284681
-0.0280767
-0.0276514
-0.0271923
-0.0266998
-0.0261742
-0.0256164
-0.0250269
-0.0244067
-0.0237569
-0.0230786
-0.0223732
-0.0216422
-0.0208871
-0.0201096
-0.0193115
-0.0184947
-0.017661
-0.0168126
-0.015951
-0.0150788
-0.0141968
-0.013308
-0.0124125
-0.0115137
-0.0106102
-0.00970642
-0.0087987
-0.00789295
-0.00698219
-0.00607503
-0.00515941
-0.0042484
-0.00332245
-0.00240145
-0.00145459
-0.000510243
-0.0288356
-0.0290936
-0.0293404
-0.029575
-0.0297964
-0.0300038
-0.030196
-0.030372
-0.0305305
-0.0306704
-0.0307905
-0.0308896
-0.0309667
-0.0310204
-0.0310496
-0.0310533
-0.0310301
-0.0309792
-0.0308994
-0.0307898
-0.0306495
-0.0304776
-0.0302734
-0.0300362
-0.0297655
-0.0294608
-0.0291219
-0.0287485
-0.0283407
-0.0278984
-0.027422
-0.0269119
-0.0263686
-0.0257928
-0.0251854
-0.0245473
-0.0238798
-0.0231842
-0.0224619
-0.0217145
-0.0209436
-0.0201512
-0.0193389
-0.018509
-0.0176631
-0.0168037
-0.0159323
-0.0150514
-0.014162
-0.0132672
-0.012367
-0.0114648
-0.0105592
-0.00965456
-0.0087472
-0.00784307
-0.00693496
-0.00603162
-0.00512065
-0.00421535
-0.00329565
-0.00238187
-0.0014424
-0.000506318
-0.0293505
-0.0296129
-0.0298634
-0.0301009
-0.0303246
-0.0305335
-0.0307265
-0.0309024
-0.03106
-0.0311982
-0.0313156
-0.0314112
-0.0314837
-0.0315318
-0.0315545
-0.0315505
-0.0315187
-0.0314581
-0.0313676
-0.0312462
-0.0310931
-0.0309074
-0.0306884
-0.0304355
-0.0301481
-0.029826
-0.0294689
-0.0290766
-0.0286491
-0.0281868
-0.0276898
-0.0271588
-0.0265944
-0.0259973
-0.0253687
-0.0247095
-0.0240212
-0.0233051
-0.0225629
-0.0217962
-0.0210068
-0.0201968
-0.019368
-0.0185227
-0.0176627
-0.0167905
-0.0159076
-0.0150167
-0.014119
-0.0132172
-0.0123116
-0.0114056
-0.0104977
-0.00959226
-0.00868553
-0.00778344
-0.00687863
-0.0059799
-0.00507454
-0.00417604
-0.00326383
-0.00235859
-0.00142794
-0.000501626
-0.0299436
-0.030211
-0.0304658
-0.0307066
-0.0309328
-0.0311433
-0.0313371
-0.0315128
-0.0316693
-0.0318053
-0.0319195
-0.0320108
-0.0320778
-0.0321194
-0.0321343
-0.0321213
-0.0320794
-0.0320074
-0.0319042
-0.0317691
-0.0316009
-0.0313991
-0.0311628
-0.0308916
-0.0305849
-0.0302425
-0.0298641
-0.0294498
-0.0289997
-0.0285141
-0.0279933
-0.0274381
-0.0268493
-0.0262277
-0.0255746
-0.0248912
-0.0241789
-0.0234393
-0.0226742
-0.0218855
-0.021075
-0.0202449
-0.0193973
-0.0185345
-0.0176584
-0.0167717
-0.015876
-0.0149739
-0.0140667
-0.0131573
-0.0122458
-0.0113356
-0.0104254
-0.00951927
-0.00861347
-0.00771395
-0.00681311
-0.00591983
-0.00502107
-0.00413049
-0.003227
-0.00233164
-0.00141122
-0.000496168
-0.0306144
-0.0308875
-0.0311468
-0.0313913
-0.0316202
-0.0318324
-0.0320269
-0.0322024
-0.0323574
-0.0324907
-0.0326011
-0.0326873
-0.0327479
-0.0327818
-0.0327876
-0.0327643
-0.0327106
-0.0326254
-0.0325078
-0.0323567
-0.0321713
-0.031951
-0.0316949
-0.0314026
-0.0310738
-0.0307082
-0.0303056
-0.0298662
-0.0293902
-0.028878
-0.0283302
-0.0277476
-0.027131
-0.0264817
-0.0258009
-0.02509
-0.0243506
-0.0235846
-0.0227938
-0.0219803
-0.0211462
-0.0202937
-0.0194251
-0.0185428
-0.017649
-0.0167462
-0.0158363
-0.014922
-0.0140045
-0.0130868
-0.0121689
-0.0112545
-0.0103418
-0.00943525
-0.00853079
-0.0076344
-0.00673827
-0.00585134
-0.0049602
-0.00407868
-0.00318516
-0.00230104
-0.00139226
-0.000489948
-0.0313627
-0.031642
-0.0319064
-0.0321549
-0.0323865
-0.0326006
-0.0327957
-0.0329705
-0.0331237
-0.0332539
-0.0333597
-0.03344
-0.0334932
-0.0335182
-0.0335137
-0.0334784
-0.0334112
-0.033311
-0.0331768
-0.0330077
-0.0328028
-0.0325614
-0.0322829
-0.0319668
-0.031613
-0.0312211
-0.0307912
-0.0303235
-0.0298184
-0.0292764
-0.0286983
-0.0280849
-0.0274373
-0.026757
-0.0260452
-0.0253038
-0.0245343
-0.023739
-0.0229197
-0.0220788
-0.0212186
-0.0203414
-0.0194497
-0.0185461
-0.0176328
-0.0167126
-0.0157873
-0.0148598
-0.0139313
-0.0130048
-0.0120803
-0.0111615
-0.0102465
-0.00933985
-0.00843721
-0.0075446
-0.00665398
-0.00577432
-0.00489187
-0.00402059
-0.0031383
-0.00226676
-0.00137105
-0.000482963
-0.0321888
-0.0324747
-0.0327446
-0.0329972
-0.0332319
-0.0334477
-0.0336433
-0.0338173
-0.0339682
-0.0340945
-0.0341951
-0.0342684
-0.0343132
-0.034328
-0.0343117
-0.0342628
-0.0341804
-0.0340633
-0.0339104
-0.0337209
-0.033494
-0.0332289
-0.0329253
-0.0325826
-0.0322007
-0.0317795
-0.0313191
-0.0308199
-0.0302824
-0.0297073
-0.0290954
-0.0284479
-0.027766
-0.0270513
-0.0263054
-0.0255303
-0.0247278
-0.0239002
-0.0230497
-0.0221789
-0.0212901
-0.0203862
-0.0194694
-0.0185428
-0.0176085
-0.0166696
-0.0157279
-0.0147863
-0.0138462
-0.0129105
-0.0119793
-0.0110561
-0.0101391
-0.00923266
-0.00833241
-0.00744431
-0.00656007
-0.00568867
-0.00481601
-0.00395617
-0.00308641
-0.00222881
-0.00134758
-0.000475211
-0.0330932
-0.0333863
-0.0336619
-0.0339189
-0.0341566
-0.0343741
-0.03457
-0.0347428
-0.0348909
-0.0350128
-0.0351072
-0.0351726
-0.0352077
-0.035211
-0.0351812
-0.0351171
-0.0350176
-0.0348814
-0.0347076
-0.0344953
-0.0342438
-0.0339524
-0.0336207
-0.0332484
-0.0328354
-0.0323817
-0.0318876
-0.0313535
-0.0307802
-0.0301684
-0.0295194
-0.0288344
-0.0281148
-0.0273625
-0.0265793
-0.0257673
-0.0249287
-0.024066
-0.0231817
-0.0222785
-0.021359
-0.0204261
-0.0194825
-0.0185311
-0.0175746
-0.0166157
-0.0156567
-0.0147004
-0.0137482
-0.012803
-0.0118651
-0.0109376
-0.010019
-0.00911329
-0.0082161
-0.0073333
-0.00645637
-0.00559428
-0.00473255
-0.00388537
-0.00302945
-0.00218717
-0.00132187
-0.000466691
-0.0340767
-0.0343774
-0.0346592
-0.0349207
-0.0351614
-0.0353805
-0.0355764
-0.0357477
-0.0358927
-0.0360091
-0.0360963
-0.0361527
-0.0361767
-0.036167
-0.0361222
-0.036041
-0.0359223
-0.0357648
-0.0355678
-0.0353302
-0.0350514
-0.0347308
-0.0343681
-0.033963
-0.0335156
-0.0330261
-0.0324948
-0.0319224
-0.0313098
-0.030658
-0.0299683
-0.0292422
-0.0284816
-0.0276883
-0.0268645
-0.0260126
-0.025135
-0.0242344
-0.0233136
-0.0223755
-0.021423
-0.0204592
-0.019487
-0.0185095
-0.0175293
-0.0165496
-0.0155725
-0.0146009
-0.0136363
-0.0126816
-0.0117369
-0.0108056
-0.00988566
-0.00898135
-0.00808797
-0.00721135
-0.00634272
-0.00549102
-0.00464142
-0.00380816
-0.00296741
-0.00214183
-0.0012939
-0.000457401
-0.0351405
-0.0354492
-0.0357374
-0.0360035
-0.0362472
-0.0364676
-0.036663
-0.0368319
-0.0369722
-0.0370833
-0.0371626
-0.0372089
-0.0372206
-0.0371963
-0.0371347
-0.0370345
-0.0368944
-0.0367133
-0.0364904
-0.0362249
-0.0359159
-0.0355632
-0.0351663
-0.0347252
-0.0342401
-0.0337112
-0.0331393
-0.032525
-0.0318694
-0.0311739
-0.0304399
-0.0296693
-0.0288641
-0.0280265
-0.0271588
-0.0262638
-0.0253442
-0.024403
-0.0234432
-0.0224679
-0.0214803
-0.0204838
-0.0194813
-0.0184763
-0.0174714
-0.0164699
-0.015474
-0.0144868
-0.0135095
-0.0125454
-0.0115942
-0.0106593
-0.0097387
-0.00883645
-0.00794773
-0.00707824
-0.00621898
-0.00537881
-0.00454256
-0.00372451
-0.00290029
-0.0020928
-0.00126368
-0.000447338
-0.036286
-0.0366032
-0.0368979
-0.0371688
-0.0374154
-0.0376369
-0.0378316
-0.0379977
-0.0381335
-0.0382373
-0.0383073
-0.038342
-0.0383399
-0.0382993
-0.038219
-0.0380975
-0.0379338
-0.0377267
-0.0374753
-0.0371789
-0.0368368
-0.0364487
-0.0360143
-0.0355338
-0.0350075
-0.0344357
-0.0338193
-0.0331594
-0.0324572
-0.0317142
-0.0309323
-0.0301136
-0.0292602
-0.0283748
-0.02746
-0.0265189
-0.0255543
-0.0245697
-0.0235683
-0.0225536
-0.0215289
-0.0204978
-0.0194636
-0.0184297
-0.0173991
-0.0163751
-0.01536
-0.0143568
-0.013367
-0.0123934
-0.0114361
-0.0104982
-0.00957762
-0.00867825
-0.00779511
-0.00693378
-0.006085
-0.00525757
-0.00443593
-0.0036344
-0.00282807
-0.00204008
-0.00123121
-0.000436505
-0.0375148
-0.0378408
-0.0381423
-0.0384179
-0.0386674
-0.0388897
-0.0390832
-0.039246
-0.039376
-0.0394717
-0.0395313
-0.039553
-0.0395353
-0.0394766
-0.0393754
-0.0392306
-0.0390407
-0.0388049
-0.0385222
-0.0381919
-0.0378135
-0.0373867
-0.0369114
-0.0363879
-0.0358165
-0.035198
-0.0345335
-0.033824
-0.0330713
-0.0322771
-0.0314435
-0.0305728
-0.0296677
-0.0287311
-0.0277658
-0.0267753
-0.025763
-0.0247323
-0.0236868
-0.0226304
-0.0215667
-0.0204994
-0.019432
-0.0183683
-0.0173111
-0.016264
-0.0152292
-0.01421
-0.0132076
-0.0122251
-0.0112621
-0.0103218
-0.009402
-0.00850642
-0.00762987
-0.0067778
-0.0059407
-0.00512723
-0.00432151
-0.00353783
-0.00275077
-0.00198368
-0.00119651
-0.000424904
-0.0388289
-0.039164
-0.0394725
-0.0397528
-0.0400048
-0.0402276
-0.0404193
-0.040578
-0.0407014
-0.0407879
-0.0408356
-0.0408428
-0.0408077
-0.0407288
-0.0406047
-0.040434
-0.0402154
-0.039948
-0.039631
-0.0392636
-0.0388455
-0.0383764
-0.0378566
-0.0372862
-0.0366661
-0.035997
-0.0352802
-0.0345173
-0.03371
-0.0328606
-0.0319713
-0.0310449
-0.0300844
-0.029093
-0.028074
-0.027031
-0.0259679
-0.0248884
-0.0237965
-0.0226963
-0.0215917
-0.0204867
-0.0193849
-0.0182902
-0.0172057
-0.0161351
-0.0150805
-0.0140453
-0.0130307
-0.0120395
-0.0110715
-0.0101296
-0.00921146
-0.00832066
-0.00745182
-0.00661018
-0.00578599
-0.00498776
-0.00419929
-0.00343481
-0.00266841
-0.00192362
-0.0011596
-0.000412539
-0.0402301
-0.0405748
-0.0408903
-0.0411752
-0.0414296
-0.0416524
-0.0418418
-0.0419954
-0.0421111
-0.0421872
-0.0422216
-0.0422125
-0.0421581
-0.042057
-0.0419075
-0.0417083
-0.0414582
-0.0411563
-0.0408017
-0.0403939
-0.0399325
-0.0394175
-0.0388492
-0.0382281
-0.037555
-0.0368312
-0.036058
-0.0352374
-0.0343715
-0.0334627
-0.0325138
-0.0315278
-0.0305082
-0.0294583
-0.0283822
-0.0272836
-0.0261668
-0.0250359
-0.0238953
-0.0227492
-0.021602
-0.0204577
-0.0193204
-0.0181939
-0.0170817
-0.0159871
-0.0149128
-0.0138618
-0.0128352
-0.011836
-0.0108637
-0.00992111
-0.00900566
-0.00812076
-0.0072608
-0.00643082
-0.00562083
-0.00483917
-0.0040693
-0.00332538
-0.00258105
-0.00185994
-0.00112049
-0.000399416
-0.0417209
-0.0420753
-0.0423979
-0.0426874
-0.0429437
-0.0431661
-0.0433524
-0.0435001
-0.043607
-0.0436712
-0.0436907
-0.0436635
-0.0435878
-0.043462
-0.0432846
-0.0430542
-0.0427697
-0.04243
-0.0420344
-0.0415825
-0.0410741
-0.0405093
-0.0398885
-0.0392124
-0.0384822
-0.0376993
-0.0368655
-0.0359828
-0.0350539
-0.0340815
-0.0330689
-0.0320193
-0.0309366
-0.0298248
-0.0286881
-0.0275307
-0.0263574
-0.0251725
-0.0239809
-0.022787
-0.0215955
-0.0204107
-0.0192368
-0.0180779
-0.0169374
-0.0158189
-0.0147249
-0.0136584
-0.0126205
-0.011614
-0.0106383
-0.00969598
-0.00878433
-0.0079065
-0.00705668
-0.00623967
-0.00544523
-0.00468148
-0.00393159
-0.00320961
-0.00248872
-0.00179269
-0.00107923
-0.000385546
-0.0433036
-0.043668
-0.0439977
-0.0442915
-0.0445495
-0.0447707
-0.0449532
-0.0450943
-0.045191
-0.0452418
-0.0452445
-0.0451972
-0.0450979
-0.0449451
-0.0447371
-0.0444725
-0.0441503
-0.0437694
-0.0433293
-0.0428296
-0.0422702
-0.0416514
-0.0409738
-0.0402384
-0.0394466
-0.0386001
-0.037701
-0.0367518
-0.0357555
-0.0347152
-0.0336344
-0.0325172
-0.0313676
-0.0301901
-0.0289894
-0.0277702
-0.0265374
-0.0252961
-0.0240512
-0.0228077
-0.0215703
-0.0203439
-0.0191326
-0.0179407
-0.0167717
-0.0156293
-0.0145158
-0.0134343
-0.0123858
-0.0113729
-0.0103948
-0.00945388
-0.00854724
-0.00767777
-0.00683943
-0.00603673
-0.00525922
-0.00451476
-0.00378624
-0.00308757
-0.00239153
-0.00172193
-0.00103585
-0.000370941
-0.0449807
-0.0453553
-0.0456922
-0.04599
-0.0462491
-0.0464686
-0.046646
-0.0467787
-0.0468644
-0.0469004
-0.0468846
-0.0468151
-0.0466899
-0.0465074
-0.0462659
-0.0459641
-0.0456008
-0.0451751
-0.0446866
-0.044135
-0.0435204
-0.0428432
-0.0421044
-0.0413051
-0.040447
-0.0395322
-0.0385632
-0.0375428
-0.0364744
-0.0353616
-0.0342084
-0.0330193
-0.0317989
-0.030552
-0.0292838
-0.0279995
-0.0267045
-0.0254042
-0.024104
-0.0228091
-0.0215246
-0.0202554
-0.0190059
-0.0177807
-0.0165831
-0.015417
-0.0142845
-0.0131887
-0.0121305
-0.0111121
-0.0101328
-0.00919453
-0.00829423
-0.00743447
-0.00660901
-0.00582204
-0.00506288
-0.00433911
-0.00363337
-0.00295937
-0.00228955
-0.00164773
-0.000990399
-0.000355615
-0.0467552
-0.0471401
-0.047484
-0.0477855
-0.0480453
-0.0482622
-0.0484339
-0.0485573
-0.04863
-0.0486493
-0.048613
-0.048519
-0.0483654
-0.0481503
-0.0478722
-0.0475298
-0.0471218
-0.0466476
-0.0461067
-0.0454989
-0.0448246
-0.0440845
-0.0432797
-0.0424116
-0.0414824
-0.0404943
-0.0394504
-0.038354
-0.0372087
-0.0360188
-0.0347887
-0.0335234
-0.0322281
-0.030908
-0.0295689
-0.0282165
-0.0268565
-0.0254949
-0.0241373
-0.0227893
-0.0214563
-0.0201435
-0.0188554
-0.0175966
-0.0163706
-0.015181
-0.0140302
-0.012921
-0.011854
-0.0108313
-0.009852
-0.00891774
-0.00802518
-0.00717658
-0.00636547
-0.00559569
-0.00485633
-0.00415466
-0.00347311
-0.00282514
-0.00218291
-0.00157018
-0.000942938
-0.000339585
-0.0486297
-0.0490252
-0.0493759
-0.0496809
-0.0499406
-0.0501543
-0.050319
-0.0504318
-0.0504899
-0.0504906
-0.0504316
-0.0503106
-0.0501258
-0.0498752
-0.0495573
-0.0491706
-0.0487142
-0.0481873
-0.0475897
-0.0469213
-0.0461827
-0.0453748
-0.044499
-0.0435571
-0.0425516
-0.0414852
-0.0403613
-0.0391836
-0.0379566
-0.0366847
-0.0353731
-0.0340273
-0.0326529
-0.0312559
-0.0298424
-0.0284187
-0.026991
-0.0255657
-0.0241488
-0.0227463
-0.0213637
-0.0200065
-0.0186795
-0.017387
-0.0161328
-0.0149204
-0.0137521
-0.0126303
-0.0115557
-0.0105301
-0.00955218
-0.00862338
-0.00774008
-0.00690415
-0.0061089
-0.0053578
-0.00463973
-0.00396159
-0.00330564
-0.00268504
-0.00207174
-0.00148938
-0.000893529
-0.000322873
-0.0506074
-0.0510135
-0.051371
-0.0516788
-0.051938
-0.0521473
-0.052304
-0.0524046
-0.0524463
-0.0524264
-0.0523424
-0.0521919
-0.0519729
-0.0516836
-0.0513223
-0.0508877
-0.0503788
-0.0497949
-0.0491361
-0.0484023
-0.0475945
-0.0467137
-0.0457617
-0.0447407
-0.0436535
-0.0425033
-0.0412941
-0.0400301
-0.038716
-0.0373573
-0.0359595
-0.0345286
-0.033071
-0.0315932
-0.0301019
-0.0286038
-0.0271058
-0.0256146
-0.0241366
-0.0226781
-0.021245
-0.0198429
-0.0184766
-0.0171507
-0.0158688
-0.0146343
-0.0134493
-0.0123162
-0.0112354
-0.0102082
-0.00923318
-0.0083114
-0.00743894
-0.00661727
-0.00583946
-0.00510856
-0.00441328
-0.0037601
-0.00313115
-0.00253925
-0.00195618
-0.00140544
-0.000842245
-0.0003055
-0.0526914
-0.0531081
-0.053472
-0.0537823
-0.0540401
-0.0542442
-0.0543914
-0.0544783
-0.0545019
-0.0544592
-0.0543476
-0.0541647
-0.0539086
-0.0535771
-0.0531687
-0.0526821
-0.0521164
-0.0514711
-0.0507462
-0.0499421
-0.0490598
-0.0481008
-0.0470671
-0.0459614
-0.0447869
-0.0435474
-0.0422473
-0.0408914
-0.0394852
-0.0380344
-0.0365455
-0.0350251
-0.03348
-0.0319176
-0.030345
-0.0287696
-0.0271986
-0.0256393
-0.0240986
-0.0225829
-0.0210985
-0.019651
-0.0182455
-0.0168864
-0.0155774
-0.0143217
-0.0131213
-0.0119782
-0.0108925
-0.00986538
-0.00889492
-0.00798181
-0.00712186
-0.0063161
-0.00555736
-0.00484821
-0.00417722
-0.00355044
-0.00294987
-0.00238797
-0.00183642
-0.00131849
-0.000789164
-0.000287492
-0.0548849
-0.0553122
-0.0556823
-0.0559944
-0.05625
-0.0564478
-0.0565842
-0.0566558
-0.0566592
-0.0565913
-0.0564494
-0.0562312
-0.0559345
-0.0555572
-0.0550978
-0.054555
-0.053928
-0.0532165
-0.0524205
-0.0515408
-0.0505785
-0.0495356
-0.0484145
-0.0472183
-0.0459507
-0.0446161
-0.0432193
-0.0417659
-0.0402619
-0.038714
-0.037129
-0.0355143
-0.0338776
-0.0322266
-0.0305692
-0.0289135
-0.0272671
-0.0256378
-0.0240327
-0.0224588
-0.0209224
-0.0194294
-0.0179848
-0.0165931
-0.0152578
-0.0139821
-0.0127675
-0.0116159
-0.010527
-0.00950154
-0.00853738
-0.00763469
-0.00678901
-0.00600086
-0.00526283
-0.00457702
-0.00393184
-0.00333286
-0.00276205
-0.00223141
-0.00171263
-0.00122865
-0.000734372
-0.000268875
-0.0571912
-0.0576292
-0.058005
-0.0583183
-0.0585707
-0.0587608
-0.0588853
-0.0589398
-0.0589206
-0.0588249
-0.05865
-0.0583933
-0.0580525
-0.0576257
-0.0571112
-0.0565077
-0.0558146
-0.0550317
-0.0541594
-0.0531984
-0.0521505
-0.0510179
-0.0498034
-0.0485105
-0.0471437
-0.0457078
-0.0442083
-0.0426515
-0.0410442
-0.0393936
-0.0377075
-0.0359939
-0.0342611
-0.0325178
-0.0307723
-0.0290333
-0.0273091
-0.0256078
-0.023937
-0.0223039
-0.0207151
-0.0191765
-0.0176933
-0.0162697
-0.0149092
-0.0136147
-0.0123874
-0.0112289
-0.0101385
-0.00911665
-0.00816064
-0.00727022
-0.00644062
-0.00567182
-0.0049562
-0.00429531
-0.00367747
-0.0031077
-0.00256798
-0.00206983
-0.00158501
-0.00113609
-0.000677961
-0.000249679
-0.0596139
-0.0600623
-0.0604435
-0.0607572
-0.0610053
-0.0611865
-0.0612969
-0.0613323
-0.0612886
-0.0611627
-0.0609517
-0.0606532
-0.0602647
-0.0597843
-0.0592102
-0.0585414
-0.0577772
-0.0569176
-0.0559633
-0.0549153
-0.0537757
-0.0525471
-0.0512328
-0.049837
-0.0483645
-0.046821
-0.0452127
-0.0435465
-0.04183
-0.0400713
-0.0382788
-0.0364614
-0.0346283
-0.0327887
-0.0309517
-0.0291266
-0.0273223
-0.0255472
-0.0238095
-0.0221165
-0.0204751
-0.0188911
-0.0173698
-0.0159153
-0.0145308
-0.0132189
-0.0119807
-0.0108171
-0.00972719
-0.00871076
-0.00776485
-0.00688863
-0.00607698
-0.00532932
-0.00463782
-0.00400345
-0.00341445
-0.00287526
-0.00236796
-0.00190348
-0.00145378
-0.00104095
-0.00062003
-0.000229936
-0.0621563
-0.0626151
-0.063001
-0.0633144
-0.0635573
-0.0637281
-0.0638228
-0.0638368
-0.063766
-0.0636071
-0.063357
-0.0630132
-0.0625731
-0.0620347
-0.0613965
-0.0606573
-0.0598167
-0.0588749
-0.0578327
-0.0566916
-0.0554539
-0.0541228
-0.0527022
-0.0511967
-0.049612
-0.0479543
-0.0462306
-0.0444487
-0.0426171
-0.0407445
-0.0388404
-0.0369145
-0.0349766
-0.0330369
-0.0311051
-0.0291912
-0.0273045
-0.0254541
-0.0236484
-0.021895
-0.0202008
-0.018572
-0.0170133
-0.015529
-0.014122
-0.0127945
-0.0115471
-0.0103803
-0.00929292
-0.00828401
-0.00735025
-0.00649021
-0.00569844
-0.00497374
-0.00430809
-0.00370183
-0.00314318
-0.00263593
-0.00216232
-0.00173265
-0.00131916
-0.000943394
-0.000560682
-0.000209678
-0.0648221
-0.065291
-0.0656812
-0.0659933
-0.0662297
-0.0663886
-0.0664657
-0.0664562
-0.0663558
-0.0661609
-0.0658683
-0.0654754
-0.0649796
-0.0643788
-0.0636716
-0.0628568
-0.0619343
-0.0609043
-0.059768
-0.0585273
-0.057185
-0.0557446
-0.0542107
-0.0525886
-0.0508847
-0.0491059
-0.0472602
-0.0453562
-0.0434032
-0.0414111
-0.03939
-0.0373505
-0.0353035
-0.0332598
-0.0312301
-0.0292247
-0.0272536
-0.0253265
-0.0234518
-0.0216377
-0.019891
-0.0182178
-0.0166229
-0.0151102
-0.0136823
-0.0123409
-0.0110864
-0.00991861
-0.00883584
-0.00783661
-0.00691714
-0.00607534
-0.00530542
-0.00460554
-0.00396747
-0.00339091
-0.00286407
-0.00239009
-0.0019514
-0.00155762
-0.00118138
-0.0008436
-0.000500022
-0.00018894
-0.0676149
-0.0680936
-0.0684874
-0.0687973
-0.0690259
-0.0691714
-0.0692289
-0.0691936
-0.0690608
-0.0688267
-0.0684881
-0.0680422
-0.0674864
-0.0668185
-0.0660371
-0.0651413
-0.0641309
-0.0630066
-0.0617698
-0.0604228
-0.0589688
-0.057412
-0.0557576
-0.0540117
-0.0521813
-0.0502743
-0.0482997
-0.0462669
-0.0441862
-0.0420685
-0.0399249
-0.037767
-0.0356065
-0.0334551
-0.0313241
-0.0292247
-0.0271675
-0.0251622
-0.023218
-0.021343
-0.0195442
-0.0178275
-0.0161976
-0.0146581
-0.0132111
-0.0118579
-0.0105985
-0.00943198
-0.00835614
-0.00736887
-0.0064659
-0.00564445
-0.00489839
-0.00422519
-0.00361645
-0.00307115
-0.00257759
-0.00213814
-0.00173557
-0.0013787
-0.00104071
-0.000741742
-0.000438163
-0.000167756
-0.0705382
-0.0710264
-0.0714231
-0.0717298
-0.0719493
-0.0720795
-0.0721155
-0.0720519
-0.0718838
-0.0716073
-0.071219
-0.070716
-0.0700956
-0.0693557
-0.0684948
-0.0675122
-0.0664078
-0.0651827
-0.0638385
-0.0623781
-0.0608051
-0.0591245
-0.0573421
-0.0554647
-0.0535003
-0.0514579
-0.0493471
-0.0471786
-0.0449637
-0.0427143
-0.0404427
-0.0381614
-0.035883
-0.0336201
-0.0313849
-0.0291891
-0.0270439
-0.0249595
-0.0229453
-0.0210096
-0.0191592
-0.0174002
-0.0157367
-0.0141722
-0.0127082
-0.0113455
-0.0100834
-0.00892062
-0.00785413
-0.00688117
-0.00599698
-0.00519805
-0.00447789
-0.00383324
-0.00325556
-0.00274307
-0.0022842
-0.00188051
-0.0015152
-0.00119621
-0.000897384
-0.000638003
-0.000375218
-0.000146164
-0.0735958
-0.0740931
-0.0744918
-0.0747941
-0.0750031
-0.0751166
-0.0751288
-0.0750343
-0.0748279
-0.0745055
-0.0740636
-0.0734992
-0.0728094
-0.0719923
-0.0710463
-0.0699708
-0.0687661
-0.0674333
-0.0659747
-0.0643934
-0.0626939
-0.0608816
-0.0589633
-0.0569465
-0.0548404
-0.0526547
-0.0504004
-0.0480891
-0.0457333
-0.0433461
-0.0409408
-0.0385311
-0.0361304
-0.0337524
-0.03141
-0.0291156
-0.0268808
-0.0247165
-0.0226321
-0.0206359
-0.018735
-0.0169349
-0.0152396
-0.013652
-0.0121733
-0.0108036
-0.0095414
-0.00838478
-0.00733016
-0.00637396
-0.0055109
-0.0047367
-0.0040445
-0.00343026
-0.00288536
-0.0024072
-0.0019844
-0.00161766
-0.00129068
-0.00101047
-0.000751671
-0.000532571
-0.000311304
-0.000124201
-0.0767912
-0.077297
-0.077697
-0.0779937
-0.0781906
-0.0782856
-0.078272
-0.0781438
-0.0778957
-0.0775238
-0.0770244
-0.0763941
-0.0756301
-0.0747303
-0.0736933
-0.0725187
-0.0712068
-0.0697593
-0.0681788
-0.066469
-0.0646349
-0.0626828
-0.0606203
-0.058456
-0.0561999
-0.0538631
-0.0514575
-0.0489962
-0.0464927
-0.0439613
-0.0414167
-0.0388734
-0.0363462
-0.0338495
-0.031397
-0.0290019
-0.0266764
-0.0244314
-0.0222768
-0.0202208
-0.0182704
-0.0164308
-0.0147057
-0.0130974
-0.0116064
-0.0102321
-0.00897257
-0.00782482
-0.00678469
-0.00584778
-0.00500825
-0.004261
-0.00359883
-0.00301689
-0.00250645
-0.0020641
-0.00167871
-0.00135004
-0.00106242
-0.000821811
-0.000603835
-0.000425635
-0.000246538
-0.000101904
-0.080128
-0.0806419
-0.0810421
-0.0813319
-0.0815151
-0.081589
-0.0815473
-0.0813828
-0.0810902
-0.0806652
-0.080104
-0.0794032
-0.0785598
-0.0775718
-0.0764377
-0.0751573
-0.0737313
-0.0721617
-0.0704514
-0.0686049
-0.066628
-0.0645276
-0.0623123
-0.0599919
-0.0575774
-0.0550812
-0.0525164
-0.0498975
-0.0472393
-0.0445573
-0.0418675
-0.0391858
-0.0365278
-0.0339088
-0.0313436
-0.028846
-0.0264285
-0.0241025
-0.0218779
-0.019763
-0.0177645
-0.0158873
-0.0141346
-0.012508
-0.0110074
-0.00963142
-0.00837726
-0.00724118
-0.00621827
-0.00530324
-0.00448968
-0.00377164
-0.00314156
-0.00259376
-0.00211946
-0.00171437
-0.00136765
-0.00107813
-0.000830833
-0.000630582
-0.000454145
-0.000317386
-0.00018104
-7.93116e-05
-0.0836097
-0.0841312
-0.0845307
-0.0848123
-0.0849802
-0.0850312
-0.0849586
-0.0847548
-0.0844143
-0.0839324
-0.0833052
-0.082529
-0.0816009
-0.0805188
-0.0792812
-0.0778882
-0.0763408
-0.0746412
-0.0727931
-0.0708015
-0.0686729
-0.0664154
-0.0640384
-0.0615529
-0.0589713
-0.0563071
-0.0535749
-0.0507906
-0.0479705
-0.0451315
-0.0422908
-0.0394655
-0.0366724
-0.033928
-0.0312475
-0.0286456
-0.0261352
-0.0237281
-0.0214341
-0.0192615
-0.0172166
-0.0153039
-0.013526
-0.0118838
-0.0103764
-0.00900169
-0.0077559
-0.00663439
-0.0056315
-0.00474099
-0.00395589
-0.00326932
-0.0026734
-0.00216157
-0.00172504
-0.00135858
-0.00105179
-0.000802399
-0.000596322
-0.000437117
-0.000302871
-0.000208016
-0.000114928
-5.64604e-05
-0.0872399
-0.0877682
-0.0881659
-0.0884381
-0.0885889
-0.088615
-0.0885089
-0.088263
-0.0878711
-0.0873283
-0.0866306
-0.0857741
-0.0847558
-0.0835734
-0.0822258
-0.0807131
-0.0790365
-0.0771989
-0.0752044
-0.0730589
-0.0707696
-0.0683456
-0.0657976
-0.0631378
-0.0603798
-0.0575388
-0.0546309
-0.0516733
-0.0486839
-0.0456812
-0.0426837
-0.0397098
-0.0367776
-0.0339044
-0.0311064
-0.0283987
-0.0257949
-0.0233067
-0.0209441
-0.0187152
-0.0166258
-0.01468
-0.0128796
-0.0112247
-0.00971373
-0.00834332
-0.007109
-0.00600507
-0.00502507
-0.00416179
-0.00340763
-0.00275481
-0.0021951
-0.00172103
-0.00132385
-0.000997373
-0.000731665
-0.000523344
-0.000359311
-0.00024176
-0.000150284
-9.77161e-05
-4.83219e-05
-3.33882e-05
-0.0910218
-0.0915562
-0.0919512
-0.0922124
-0.0923445
-0.0923435
-0.0922014
-0.0919102
-0.0914634
-0.0908558
-0.090083
-0.089141
-0.0880267
-0.0867378
-0.0852733
-0.0836334
-0.0818198
-0.0798357
-0.077686
-0.0753773
-0.0729178
-0.0703177
-0.067589
-0.0647451
-0.0618014
-0.0587744
-0.0556819
-0.0525429
-0.0493768
-0.0462037
-0.0430435
-0.0399161
-0.0368407
-0.0338357
-0.030918
-0.0281034
-0.0254057
-0.0228368
-0.0204068
-0.0181232
-0.0159917
-0.0140153
-0.0121954
-0.010531
-0.00901959
-0.00765678
-0.00643714
-0.0053539
-0.00439973
-0.00356642
-0.00284573
-0.0022289
-0.00170743
-0.00127287
-0.000916585
-0.00063136
-0.000407843
-0.00024145
-0.000120219
-4.4852e-05
3.34654e-06
1.3325e-05
1.86614e-05
-1.0132e-05
-0.0949586
-0.0954984
-0.0958895
-0.0961384
-0.0962499
-0.0962197
-0.0960391
-0.0956996
-0.0951942
-0.0945176
-0.093665
-0.0926323
-0.0914161
-0.0900143
-0.0884257
-0.086651
-0.0846921
-0.0825527
-0.0802386
-0.077757
-0.0751174
-0.0723311
-0.0694115
-0.0663736
-0.0632342
-0.0600118
-0.0567258
-0.053397
-0.0500466
-0.0466962
-0.0433675
-0.0400817
-0.0368592
-0.0337194
-0.0306801
-0.0277575
-0.0249659
-0.0223171
-0.0198211
-0.0174849
-0.0153136
-0.0133097
-0.0114734
-0.00980286
-0.00829443
-0.00694265
-0.00574104
-0.00468166
-0.00375632
-0.00295573
-0.00227102
-0.00169244
-0.00121119
-0.000817851
-0.000503942
-0.000261178
-8.08887e-05
4.27917e-05
0.000120539
0.000153269
0.000157754
0.00012492
8.59054e-05
1.32723e-05
-0.0990533
-0.0995979
-0.0999838
-0.100219
-0.100308
-0.100247
-0.100025
-0.099634
-0.0990664
-0.0983166
-0.0973795
-0.0962506
-0.0949266
-0.093405
-0.0916851
-0.0897675
-0.0876547
-0.085351
-0.0828627
-0.0801983
-0.0773682
-0.0743853
-0.0712642
-0.0680218
-0.0646766
-0.0612489
-0.0577602
-0.054233
-0.0506904
-0.047156
-0.0436529
-0.0402038
-0.0368304
-0.0335531
-0.0303905
-0.0273593
-0.0244739
-0.0217463
-0.0191859
-0.0167995
-0.0145914
-0.012563
-0.0107138
-0.00904063
-0.00753881
-0.00620161
-0.00502145
-0.00398918
-0.00309572
-0.00233062
-0.00168441
-0.00114628
-0.000707209
-0.00035674
-8.66259e-05
0.000112538
0.000248634
0.000328894
0.000362546
0.000352268
0.000312677
0.000236886
0.000153296
3.67896e-05
-0.103309
-0.103857
-0.104237
-0.104457
-0.104522
-0.104427
-0.104162
-0.103716
-0.103083
-0.102256
-0.101229
-0.0999987
-0.0985605
-0.0969124
-0.0950535
-0.0929848
-0.0907091
-0.0882315
-0.0855591
-0.0827014
-0.0796702
-0.0764796
-0.0731461
-0.0696883
-0.0661267
-0.0624836
-0.0587826
-0.0550482
-0.0513056
-0.0475801
-0.0438967
-0.0402796
-0.0367517
-0.0333345
-0.0300472
-0.026907
-0.0239284
-0.0211232
-0.0185006
-0.0160666
-0.0138246
-0.0117753
-0.00991678
-0.00824479
-0.00675334
-0.0054344
-0.00427923
-0.00327739
-0.00241886
-0.00169203
-0.0010868
-0.000591314
-0.000196319
0.000109685
0.000334652
0.000489149
0.000580161
0.000616373
0.000605396
0.000551817
0.000467857
0.000349045
0.000220722
6.03861e-05
-0.108279
-0.108652
-0.108855