/*--------------------------------*- C++ -*----------------------------------*\
  =========                 |
  \\      /  F ield         | OpenFOAM: The Open Source CFD Toolbox
   \\    /   O peration     | Website:  https://openfoam.org
    \\  /    A nd           | Version:  7
     \\/     M anipulation  |
\*---------------------------------------------------------------------------*/
FoamFile
{
    version     2.0;
    format      ascii;
    class       volVectorField;
    location    "21.99953";
    object      U;
}
// * * * * * * * * * * * * * * * * * * * * * * * * * * * * * * * * * * * * * //

dimensions      [0 1 -1 0 0 0 0];

internalField   nonuniform List<vector> 
5800
(
(-0.17951 0.00166677 -5.30316e-22)
(-0.172136 0.00486059 -1.61652e-20)
(-0.157386 0.00764408 2.41656e-20)
(-0.135204 0.00978476 7.95104e-21)
(-0.105378 0.0111435 -2.02739e-20)
(-0.18377 0.00199645 3.14441e-21)
(-0.187205 0.00200911 3.00725e-21)
(-0.190633 0.00194554 -5.59563e-21)
(-0.193984 0.00186489 2.69442e-21)
(-0.197258 0.00177994 -1.58781e-21)
(-0.200445 0.00169589 -5.67574e-22)
(-0.203545 0.0016154 3.22011e-21)
(-0.20656 0.00153947 -4.72268e-21)
(-0.209495 0.00146836 2.06548e-21)
(-0.212354 0.00140195 1.96966e-21)
(-0.215142 0.00133995 -4.12445e-21)
(-0.217864 0.00128196 -1.20774e-22)
(-0.220523 0.00122749 3.42213e-21)
(-0.223122 0.00117599 -2.64115e-22)
(-0.225664 0.00112685 -1.47943e-21)
(-0.22815 0.00107943 1.30558e-21)
(-0.230578 0.00103303 -6.38315e-22)
(-0.232947 0.000986898 8.74116e-22)
(-0.235253 0.00094017 -6.50754e-22)
(-0.23749 0.000891879 -4.51922e-22)
(-0.239649 0.000840924 1.97158e-21)
(-0.241716 0.000786063 -5.68717e-22)
(-0.243675 0.000725925 -1.34645e-21)
(-0.245505 0.000659083 9.00848e-22)
(-0.247178 0.000583774 3.07077e-22)
(-0.24866 0.000498326 -1.15e-21)
(-0.24991 0.000400926 1.35381e-21)
(-0.250881 0.000289365 -1.1231e-21)
(-0.25151 0.000162834 -8.15631e-22)
(-0.251743 2.06765e-05 2.34286e-21)
(-0.251509 -0.000145986 -1.65128e-21)
(-0.250717 -0.000336061 -3.03274e-22)
(-0.249268 -0.000549928 3.38969e-22)
(-0.247054 -0.000788587 5.76957e-24)
(-0.243956 -0.00105295 9.26329e-22)
(-0.239849 -0.00134346 -1.23567e-21)
(-0.234597 -0.00165985 1.03846e-21)
(-0.22806 -0.00200125 -1.1771e-23)
(-0.220099 -0.00236495 -6.62554e-23)
(-0.210572 -0.00274941 -1.179e-22)
(-0.19934 -0.00315114 7.17627e-22)
(-0.186273 -0.00356544 -2.56336e-23)
(-0.171253 -0.00398664 -2.87758e-22)
(-0.154187 -0.00440727 -1.27105e-22)
(-0.135008 -0.00481996 6.90411e-23)
(-0.113674 -0.00521732 -3.49168e-22)
(-0.09018 -0.0055914 4.22064e-22)
(-0.0645682 -0.00593035 -1.02747e-22)
(-0.036924 -0.00623127 1.89902e-22)
(-0.00736049 -0.00648584 -6.31878e-23)
(0.023952 -0.0066807 2.9911e-24)
(0.0567915 -0.0068201 1.13526e-23)
(0.0909246 -0.00689979 -5.76502e-23)
(0.126096 -0.00691729 4.08036e-23)
(0.161994 -0.00687817 -2.12877e-23)
(0.198406 -0.00678032 1.37578e-24)
(0.23489 -0.00663969 -1.62725e-23)
(0.271504 -0.00644648 -4.23616e-25)
(0.307402 -0.00623518 1.87256e-23)
(0.343453 -0.00597294 1.25877e-23)
(0.377634 -0.0057293 7.78105e-24)
(0.412855 -0.00542277 -2.46548e-23)
(0.444145 -0.0051873 2.50537e-23)
(0.479016 -0.00485427 1.95839e-23)
(0.505965 -0.00466567 -1.25293e-23)
(0.542017 -0.00431639 3.577e-23)
(0.562529 -0.00420762 -1.33991e-23)
(0.602782 -0.00385866 9.88201e-24)
(0.613715 -0.00384321 -3.95263e-24)
(0.663358 -0.00357604 -1.29035e-24)
(-0.175709 0.00587341 -1.17467e-21)
(-0.179031 0.00591854 -2.09834e-21)
(-0.182302 0.00573405 -2.00501e-21)
(-0.185482 0.00549657 2.88691e-22)
(-0.188589 0.00524398 -1.45151e-21)
(-0.19161 0.00499266 1.17295e-20)
(-0.194542 0.0047513 -8.55068e-21)
(-0.197387 0.00452312 6.39988e-21)
(-0.200149 0.00430898 -4.85574e-21)
(-0.202831 0.00410863 -3.29566e-21)
(-0.205437 0.00392124 3.39987e-21)
(-0.207972 0.0037456 3.43082e-21)
(-0.210437 0.00358027 -7.59825e-21)
(-0.212836 0.00342364 1.74912e-21)
(-0.215169 0.00327395 -3.22241e-21)
(-0.217437 0.00312929 3.32339e-21)
(-0.219639 0.00298763 -8.28881e-22)
(-0.221773 0.00284673 6.36965e-21)
(-0.223834 0.00270411 -2.62088e-21)
(-0.225814 0.00255688 9.59514e-22)
(-0.227706 0.00240183 1.5354e-21)
(-0.229496 0.00223527 -4.62652e-21)
(-0.231166 0.0020531 5.78538e-22)
(-0.232696 0.00185118 -7.55957e-22)
(-0.234058 0.00162427 -1.78277e-23)
(-0.235219 0.00136756 5.65925e-22)
(-0.236139 0.00107635 2.39486e-21)
(-0.236768 0.000747804 -8.11615e-22)
(-0.237046 0.000380451 -1.87071e-21)
(-0.236924 -6.07951e-05 3.56395e-21)
(-0.236331 -0.000564487 -6.02628e-21)
(-0.235172 -0.00113315 1.48653e-21)
(-0.233352 -0.00177127 5.225e-21)
(-0.230767 -0.00248281 -3.49625e-21)
(-0.2273 -0.00327069 -1.42907e-21)
(-0.222828 -0.00413626 2.16699e-21)
(-0.217221 -0.00507869 -3.65507e-21)
(-0.210339 -0.00609554 5.20674e-21)
(-0.202049 -0.00717831 -2.19901e-21)
(-0.192214 -0.00832246 -6.28912e-22)
(-0.1807 -0.0095178 4.7639e-22)
(-0.167381 -0.0107503 -1.02543e-23)
(-0.152143 -0.0120028 2.279e-22)
(-0.134898 -0.0132531 -8.60316e-23)
(-0.115585 -0.014479 5.03743e-22)
(-0.09417 -0.0156591 -3.02995e-22)
(-0.0706466 -0.0167708 4.78074e-22)
(-0.0450648 -0.0177766 -6.72184e-22)
(-0.0175136 -0.0186743 -1.38724e-22)
(0.0118959 -0.0194098 -1.74295e-22)
(0.042991 -0.0199916 4.39132e-22)
(0.0755456 -0.0204007 -4.51104e-22)
(0.109332 -0.020631 -5.29323e-23)
(0.144097 -0.0206757 8.84523e-23)
(0.179532 -0.0205519 -9.02273e-24)
(0.215431 -0.020253 1.96846e-24)
(0.25136 -0.0198271 5.22889e-24)
(0.287382 -0.0192448 -1.91237e-23)
(0.322661 -0.0186092 7.83458e-23)
(0.358069 -0.0178223 -7.69329e-23)
(0.391602 -0.0170915 -2.26791e-23)
(0.426153 -0.0161742 3.86154e-24)
(0.456805 -0.0154686 -6.65551e-23)
(0.49099 -0.0144744 4.40624e-23)
(0.517357 -0.0139088 4.61596e-24)
(0.552694 -0.0128688 5.03685e-24)
(0.572739 -0.0125404 -4.63496e-24)
(0.612201 -0.0115048 1.40715e-23)
(0.62287 -0.011453 -1.06491e-23)
(0.671537 -0.0106626 9.22304e-24)
(-0.159643 0.00941763 5.17112e-23)
(-0.162755 0.00950959 6.48755e-21)
(-0.165728 0.00922174 1.35491e-21)
(-0.168576 0.00884173 -1.28732e-20)
(-0.171361 0.00842932 -8.05409e-21)
(-0.174063 0.00801454 7.20318e-21)
(-0.176675 0.00761382 1.7063e-20)
(-0.179196 0.00723341 -9.4534e-21)
(-0.181629 0.00687509 -3.5707e-21)
(-0.183975 0.00653865 2.02959e-21)
(-0.186237 0.00622282 4.5497e-21)
(-0.188417 0.00592572 -6.18051e-21)
(-0.190516 0.00564504 6.98266e-21)
(-0.192536 0.0053782 -6.05088e-21)
(-0.194475 0.00512238 1.21619e-20)
(-0.196333 0.00487452 -1.15393e-20)
(-0.198109 0.00463137 2.04038e-21)
(-0.199797 0.00438938 -1.60179e-20)
(-0.201393 0.00414457 5.80424e-21)
(-0.202889 0.00389231 -4.4504e-21)
(-0.204276 0.00362736 1.76136e-21)
(-0.20554 0.00334368 1.55199e-20)
(-0.206663 0.00303447 -8.40176e-21)
(-0.207626 0.00269358 2.82871e-21)
(-0.2084 0.00231208 -7.78413e-21)
(-0.208951 0.00188115 6.60903e-21)
(-0.20924 0.0013947 -9.30746e-21)
(-0.209217 0.000854352 3.81409e-21)
(-0.208844 0.000226781 -1.25858e-21)
(-0.208062 -0.000510946 2.94861e-21)
(-0.20678 -0.00134491 2.96628e-21)
(-0.204925 -0.00228475 4.01564e-21)
(-0.202405 -0.0033384 -3.48141e-21)
(-0.199119 -0.00451232 6.87461e-22)
(-0.194958 -0.0058112 -1.83683e-21)
(-0.189803 -0.00723726 3.52956e-21)
(-0.183529 -0.00878901 -1.93961e-21)
(-0.176004 -0.0104625 9.04044e-22)
(-0.167102 -0.0122427 -4.09129e-21)
(-0.156696 -0.0141221 9.08227e-22)
(-0.14466 -0.0160844 1.51598e-21)
(-0.130879 -0.0181061 -2.7597e-21)
(-0.115247 -0.0201596 2.07237e-21)
(-0.0976821 -0.0222079 2.18085e-21)
(-0.0781376 -0.0242116 -1.45375e-21)
(-0.0565901 -0.0261399 -4.09036e-22)
(-0.0330341 -0.027959 -1.11534e-21)
(-0.00753359 -0.0295954 2.59239e-22)
(0.0198257 -0.0310368 2.97885e-22)
(0.0489218 -0.0322231 5.17019e-22)
(0.0795747 -0.0331614 -5.92888e-22)
(0.111571 -0.033808 2.55158e-22)
(0.14468 -0.0341597 7.36962e-23)
(0.178656 -0.0342055 -1.5763e-22)
(0.213197 -0.0339751 7.73995e-24)
(0.248111 -0.0334568 -8.60589e-25)
(0.282972 -0.0327321 9.6034e-24)
(0.317861 -0.0317512 8.49936e-24)
(0.351955 -0.0306858 -7.46551e-23)
(0.386136 -0.0293738 1.08999e-23)
(0.418433 -0.0281565 -1.79663e-22)
(0.451707 -0.0266363 1.42287e-22)
(0.481145 -0.0254644 6.981e-23)
(0.514021 -0.0238248 -1.77876e-22)
(0.53928 -0.0228849 8.88105e-23)
(0.573254 -0.0211792 -9.29543e-23)
(0.59241 -0.0206273 -6.15378e-23)
(0.63036 -0.0189405 -5.12107e-23)
(0.640529 -0.0188384 5.16147e-23)
(0.687329 -0.0175595 -1.58623e-23)
(-0.13563 0.0124696 2.39386e-22)
(-0.138478 0.0126 -2.4345e-20)
(-0.141035 0.0122324 -5.44439e-21)
(-0.143415 0.0117348 2.77069e-20)
(-0.145748 0.0111773 -1.97433e-20)
(-0.148007 0.0106074 3.38625e-21)
(-0.150174 0.0100519 1.21686e-20)
(-0.152249 0.00952094 -1.01665e-20)
(-0.154229 0.00901792 -9.74965e-21)
(-0.156115 0.00854304 1.61723e-20)
(-0.157907 0.00809484 5.27234e-21)
(-0.159603 0.00767095 -6.03276e-21)
(-0.161203 0.00726839 -6.16868e-21)
(-0.162705 0.00688376 4.24227e-22)
(-0.164108 0.00651335 1.40662e-20)
(-0.165408 0.00615315 -7.01148e-21)
(-0.166602 0.00579889 -6.77594e-22)
(-0.167683 0.00544597 -7.71532e-21)
(-0.168645 0.0050892 -5.28843e-22)
(-0.169481 0.00472236 3.15887e-21)
(-0.170178 0.00433836 7.83767e-21)
(-0.170724 0.00392931 -8.62822e-21)
(-0.1711 0.00348602 7.39708e-21)
(-0.171285 0.00300058 -4.16308e-21)
(-0.171255 0.00245718 -1.96903e-21)
(-0.170974 0.00184738 -9.45161e-22)
(-0.170397 0.0011777 5.20514e-21)
(-0.169496 0.000405533 5.77515e-21)
(-0.168232 -0.000500675 -1.09725e-20)
(-0.166526 -0.00152227 -2.36154e-21)
(-0.164308 -0.00267637 1.04604e-20)
(-0.161505 -0.00397606 -3.53205e-21)
(-0.158032 -0.0054313 -6.44923e-21)
(-0.153795 -0.00705056 2.73274e-21)
(-0.148691 -0.00883999 -3.83737e-21)
(-0.142611 -0.0108026 3.78024e-21)
(-0.135442 -0.0129359 -2.26436e-21)
(-0.127056 -0.0152359 8.33245e-21)
(-0.117338 -0.017679 9.58927e-22)
(-0.106175 -0.0202543 -4.88203e-22)
(-0.0934549 -0.0229405 -2.66099e-21)
(-0.0790759 -0.0257054 -4.01853e-21)
(-0.0629453 -0.0285146 -9.24188e-22)
(-0.0449855 -0.0313163 4.2985e-21)
(-0.0251682 -0.0340461 4.49903e-22)
(-0.00349225 -0.036666 -1.56328e-21)
(0.0200551 -0.0391126 3.73509e-22)
(0.0454016 -0.0413301 2.25293e-22)
(0.0724365 -0.0432574 1.12079e-21)
(0.101039 -0.044856 -5.84414e-22)
(0.131035 -0.046094 -2.8039e-22)
(0.16221 -0.0469289 1.00168e-22)
(0.194338 -0.0473581 5.41817e-22)
(0.227181 -0.0473659 -2.80518e-22)
(0.26045 -0.0469964 -1.22709e-22)
(0.293969 -0.0462318 5.77948e-24)
(0.327327 -0.0451889 -3.72103e-23)
(0.360627 -0.0437959 -4.10879e-23)
(0.393065 -0.0422936 1.89537e-22)
(0.425535 -0.0404563 -1.61982e-22)
(0.456112 -0.0387546 1.43055e-23)
(0.487612 -0.0366441 -9.40039e-23)
(0.515364 -0.0350122 1.17894e-22)
(0.546425 -0.0327523 1.77006e-22)
(0.570149 -0.0314421 -1.0755e-22)
(0.602229 -0.0291095 6.80042e-23)
(0.620157 -0.0283285 7.64541e-23)
(0.656 -0.0260443 6.81012e-23)
(0.66548 -0.0258712 -3.20028e-23)
(0.709672 -0.0241563 2.48297e-23)
(-0.103646 0.0149671 2.53969e-20)
(-0.106262 0.0150432 -9.08968e-21)
(-0.108303 0.014623 6.33663e-21)
(-0.110111 0.0140448 -4.08156e-20)
(-0.111901 0.0133662 1.92958e-20)
(-0.113628 0.0126572 -2.5473e-20)
(-0.115268 0.0119569 2.84664e-20)
(-0.116816 0.011281 -2.67293e-20)
(-0.118267 0.0106352 -6.77418e-21)
(-0.119616 0.0100209 5.46877e-20)
(-0.120859 0.00943691 -3.01778e-20)
(-0.121994 0.00888067 2.59998e-20)
(-0.123016 0.00834887 -5.40037e-21)
(-0.12392 0.00783755 -3.06868e-23)
(-0.124702 0.00734234 -1.58232e-20)
(-0.125357 0.00685852 -6.85311e-21)
(-0.125876 0.00638111 -3.29232e-21)
(-0.126253 0.00590483 8.46214e-21)
(-0.12648 0.00542369 -2.10044e-20)
(-0.126547 0.00493026 1.02184e-20)
(-0.126442 0.00441648 -5.99334e-21)
(-0.126151 0.00387319 2.66919e-21)
(-0.125654 0.00328497 5.86799e-21)
(-0.124934 0.00264322 1.18901e-20)
(-0.123964 0.00194093 -7.70473e-21)
(-0.122698 0.00117352 -6.71817e-21)
(-0.121118 0.000279031 5.17294e-21)
(-0.119205 -0.000748421 7.92951e-22)
(-0.116887 -0.00191076 5.53583e-21)
(-0.114099 -0.00321399 -4.55452e-21)
(-0.110783 -0.00468077 -6.03417e-21)
(-0.106872 -0.00632677 9.73476e-21)
(-0.102287 -0.00816519 -8.40988e-21)
(-0.0969425 -0.0102067 5.73378e-21)
(-0.0907463 -0.0124588 2.20094e-21)
(-0.0835984 -0.0149246 -3.60107e-21)
(-0.0753997 -0.0176019 -2.13357e-21)
(-0.0660337 -0.0204928 2.92461e-21)
(-0.0553917 -0.0235572 -4.96347e-21)
(-0.0433818 -0.026778 1.34142e-21)
(-0.0299053 -0.0301347 -1.67952e-21)
(-0.01488 -0.0335883 6.0803e-22)
(0.00176847 -0.0370809 -5.49906e-22)
(0.0201203 -0.0405496 2.52153e-21)
(0.0401856 -0.0439434 -2.33273e-21)
(0.0619413 -0.0471865 1.47293e-21)
(0.0853837 -0.0501899 -2.614e-21)
(0.110438 -0.0529176 9.86404e-22)
(0.136994 -0.0552779 2.13912e-21)
(0.164916 -0.0572137 -1.5325e-21)
(0.194034 -0.0586873 -7.65468e-22)
(0.224138 -0.0596516 9.14197e-22)
(0.255007 -0.0601058 -5.03433e-22)
(0.286418 -0.0600292 1.72964e-22)
(0.318093 -0.0594824 -3.38891e-23)
(0.34988 -0.0584408 -4.58254e-23)
(0.381383 -0.0570578 8.75849e-23)
(0.412736 -0.0552385 -2.80092e-23)
(0.443154 -0.0532925 4.06329e-23)
(0.473547 -0.0509322 -1.99986e-22)
(0.502042 -0.0487504 4.2077e-22)
(0.5314 -0.0460673 -1.84794e-22)
(0.557125 -0.0439842 -8.63637e-23)
(0.586002 -0.0411367 -9.8835e-23)
(0.607886 -0.0394619 4.05488e-23)
(0.637686 -0.0365517 -6.12908e-23)
(0.654149 -0.0355345 -1.1163e-22)
(0.687448 -0.03272 6.97749e-23)
(0.696113 -0.0324515 6.8312e-23)
(0.73715 -0.0303635 -5.66956e-23)
(-0.0634699 0.0168865 -1.15203e-20)
(-0.0660181 0.0167288 1.04795e-20)
(-0.0674354 0.0163039 7.31556e-21)
(-0.0686206 0.0156882 -4.72032e-20)
(-0.0698307 0.0149222 4.89018e-20)
(-0.0709926 0.0141007 -1.5214e-22)
(-0.0720761 0.0132739 -3.33427e-20)
(-0.073072 0.0124644 2.08956e-20)
(-0.0739712 0.0116821 6.35252e-21)
(-0.0747644 0.0109303 6.73825e-21)
(-0.0754435 0.0102089 -2.54105e-20)
(-0.0760006 0.00951585 -2.2651e-20)
(-0.0764282 0.00884787 7.61864e-21)
(-0.0767183 0.00820085 2.09623e-20)
(-0.0768625 0.00757005 -1.29576e-20)
(-0.0768519 0.00695035 3.50566e-20)
(-0.0766767 0.00633639 -3.85077e-20)
(-0.0763268 0.00572272 4.25422e-20)
(-0.0757922 0.00510357 -1.16227e-20)
(-0.0750614 0.00447068 -3.03003e-20)
(-0.0741207 0.00381311 2.61843e-20)
(-0.0729591 0.00311765 -2.5235e-21)
(-0.0715544 0.0023711 -4.16192e-21)
(-0.0698791 0.00159395 1.29331e-20)
(-0.0679047 0.000730359 -8.95069e-21)
(-0.0656392 -0.000260199 -2.15785e-20)
(-0.0630352 -0.00141317 1.76343e-20)
(-0.0600282 -0.00266811 -4.19708e-21)
(-0.0565876 -0.00407274 -3.81635e-21)
(-0.0526589 -0.00564691 7.64009e-21)
(-0.048187 -0.00741289 1.52067e-20)
(-0.0431092 -0.00938835 -4.22111e-21)
(-0.0373558 -0.0115887 -2.79313e-20)
(-0.030851 -0.0140264 2.10078e-20)
(-0.0235128 -0.0167102 -1.05368e-20)
(-0.0152537 -0.0196438 3.34826e-21)
(-0.0059955 -0.0228277 8.21892e-21)
(0.00436813 -0.0262414 -3.14934e-21)
(0.015947 -0.029862 -8.11873e-23)
(0.0288042 -0.0336724 2.11088e-21)
(0.0430177 -0.0376365 -6.2943e-21)
(0.0586607 -0.0417088 -2.86601e-21)
(0.0757856 -0.0458106 6.88841e-21)
(0.0944467 -0.04987 1.61125e-21)
(0.114651 -0.0538459 -4.26331e-21)
(0.136367 -0.057632 1.49597e-21)
(0.159566 -0.0611353 -1.08265e-21)
(0.184167 -0.0642864 -2.35887e-21)
(0.210056 -0.0669971 -6.41294e-23)
(0.237092 -0.0691948 2.41264e-21)
(0.265106 -0.0708352 8.82557e-22)
(0.293896 -0.0718657 6.51555e-22)
(0.323251 -0.072289 -4.65727e-22)
(0.352964 -0.0720798 3.01522e-22)
(0.382772 -0.0713174 -4.20424e-22)
(0.412554 -0.0699686 4.04205e-23)
(0.441928 -0.0682254 8.82724e-23)
(0.471064 -0.0659687 2.76043e-23)
(0.499197 -0.0635757 -2.53489e-22)
(0.527256 -0.0606989 2.44748e-22)
(0.553426 -0.0580453 -2.34692e-22)
(0.580401 -0.0548124 1.512e-22)
(0.60388 -0.0522904 3.65775e-22)
(0.63034 -0.0488942 1.89345e-22)
(0.650203 -0.0468621 -4.03953e-23)
(0.677485 -0.0434307 2.78536e-23)
(0.692349 -0.0421705 1.01547e-22)
(0.722832 -0.0388995 4.83649e-23)
(0.730616 -0.038511 -4.18804e-23)
(0.768157 -0.0361163 2.93381e-23)
(-0.0145378 0.0176634 3.8532e-20)
(-0.0172639 0.0176912 -2.95979e-20)
(-0.0180039 0.0173198 4.89748e-20)
(-0.0186153 0.0166572 -1.84127e-20)
(-0.0192893 0.0158388 1.5135e-20)
(-0.0199285 0.0149414 -3.90233e-20)
(-0.020499 0.0140134 6.04552e-21)
(-0.0209879 0.013087 -1.67784e-21)
(-0.0213819 0.0121786 8.88308e-21)
(-0.0216677 0.0112946 2.49857e-20)
(-0.0218324 0.0104366 -2.02995e-20)
(-0.0218638 0.00960399 1.453e-20)
(-0.0217502 0.00879404 8.87537e-21)
(-0.0214799 0.00800296 3.61512e-21)
(-0.0210407 0.00722604 -2.57565e-20)
(-0.02042 0.00645805 1.49835e-20)
(-0.0196046 0.00569373 -2.18788e-20)
(-0.0185807 0.00492821 2.64272e-21)
(-0.0173366 0.00415612 -6.26744e-22)
(-0.0158611 0.00336565 2.92276e-20)
(-0.0141404 0.00254696 -2.50256e-20)
(-0.0121592 0.00171389 -3.48224e-21)
(-0.00986892 0.000831055 -6.1091e-21)
(-0.0072846 -0.000159047 2.67343e-20)
(-0.00441237 -0.00126085 -9.62646e-21)
(-0.00120308 -0.00249443 -9.42926e-21)
(0.00242791 -0.00383025 -5.92122e-21)
(0.00649801 -0.00530582 2.27261e-20)
(0.0110129 -0.00695494 -8.12632e-21)
(0.016041 -0.00879511 -1.11353e-20)
(0.02163 -0.0108487 -9.47838e-21)
(0.0278345 -0.0131358 2.65058e-20)
(0.034715 -0.0156742 -7.11392e-21)
(0.0423366 -0.018478 -2.42637e-21)
(0.050769 -0.0215572 -5.77574e-21)
(0.0600863 -0.0249157 -4.84392e-21)
(0.070359 -0.028555 4.91154e-21)
(0.0816652 -0.0324354 4.68944e-21)
(0.0940948 -0.0365519 -5.09694e-21)
(0.107708 -0.0408848 -8.03384e-21)
(0.122564 -0.0453815 1.04638e-20)
(0.138714 -0.0499898 -1.63769e-21)
(0.156193 -0.0546294 2.76868e-24)
(0.175031 -0.0592178 -2.16241e-21)
(0.195224 -0.0636851 3.4876e-21)
(0.216731 -0.0679252 -4.16183e-21)
(0.239504 -0.0718362 4.67181e-21)
(0.263455 -0.0753278 -2.23586e-22)
(0.288465 -0.0783073 -4.44796e-22)
(0.314391 -0.0806905 -1.09578e-21)
(0.341068 -0.0824279 -1.10906e-21)
(0.368305 -0.0834612 3.36287e-22)
(0.395903 -0.0837994 5.42335e-22)
(0.423677 -0.0834124 -1.1011e-21)
(0.451383 -0.0823995 5.07667e-22)
(0.478933 -0.0807186 -1.67285e-22)
(0.505962 -0.0786008 -7.09718e-23)
(0.532681 -0.0759019 -1.27711e-22)
(0.558344 -0.0730643 1.39893e-22)
(0.583901 -0.0696843 7.09956e-23)
(0.607596 -0.0665726 -2.1232e-22)
(0.632051 -0.0628194 8.19328e-23)
(0.653172 -0.059875 -1.39875e-22)
(0.677099 -0.0559744 -4.52701e-22)
(0.694863 -0.0535952 -3.75505e-23)
(0.719517 -0.049703 -8.29426e-23)
(0.732739 -0.048195 -2.81785e-22)
(0.760285 -0.0445426 5.22509e-24)
(0.767175 -0.0440127 7.75271e-24)
(0.801071 -0.0413752 1.40687e-24)
(0.0443482 0.0178438 2.03602e-20)
(0.0417262 0.0182408 4.22961e-20)
(0.040827 0.0177717 -4.97089e-20)
(0.0405653 0.0170486 -1.42583e-21)
(0.0403073 0.0162098 1.11139e-20)
(0.0400471 0.0152684 -1.0209e-20)
(0.039848 0.0142641 -2.13122e-20)
(0.0397339 0.0132389 -3.08225e-21)
(0.0397171 0.0122165 5.19468e-20)
(0.0398125 0.0112069 -1.66569e-21)
(0.0400364 0.0102145 -4.35002e-21)
(0.040405 0.00924045 -8.23342e-21)
(0.0409337 0.0082835 7.70761e-21)
(0.041638 0.00734058 -5.80352e-21)
(0.0425335 0.00640736 8.32087e-21)
(0.0436365 0.00547877 -2.23401e-20)
(0.0449644 0.0045497 -1.88942e-20)
(0.0465345 0.00361573 2.67725e-20)
(0.0483575 0.0026752 1.83782e-21)
(0.0504473 0.00172764 -1.33384e-20)
(0.0528437 0.000769054 3.07008e-20)
(0.0555365 -0.000264622 -4.42117e-21)
(0.0585081 -0.00137639 -2.13128e-21)
(0.0618136 -0.00260616 -2.75467e-20)
(0.0655093 -0.00392439 1.85526e-21)
(0.0695942 -0.00534287 2.45414e-20)
(0.0741068 -0.00687305 -1.00518e-20)
(0.0790828 -0.00858538 -1.66402e-20)
(0.0845487 -0.0104779 1.06363e-20)
(0.0905498 -0.0125762 -3.17086e-21)
(0.0971288 -0.0149045 3.31272e-21)
(0.104333 -0.0174849 1.11148e-20)
(0.112212 -0.0203364 -3.00031e-21)
(0.120821 -0.0234746 -1.5316e-20)
(0.130217 -0.0269098 1.63847e-20)
(0.14046 -0.0306456 3.28378e-21)
(0.151606 -0.0346821 4.46715e-21)
(0.163715 -0.0389901 -1.85748e-21)
(0.176854 -0.0435504 -2.00786e-20)
(0.191073 -0.0483332 9.64317e-21)
(0.206411 -0.0532871 1.58285e-21)
(0.2229 -0.0583521 -5.61965e-22)
(0.240555 -0.0634432 1.95175e-21)
(0.259386 -0.0684689 6.21674e-22)
(0.279374 -0.0733417 -1.23601e-21)
(0.300464 -0.0779484 6.09487e-22)
(0.322595 -0.0821785 8.79176e-22)
(0.345669 -0.0859261 -1.43614e-21)
(0.369567 -0.0890934 6.93074e-22)
(0.394144 -0.0915864 8.12578e-22)
(0.419243 -0.0933528 -9.81727e-22)
(0.444689 -0.0943293 -6.2999e-22)
(0.470295 -0.0945332 3.18045e-22)
(0.495906 -0.0939292 1.53493e-22)
(0.521298 -0.0926384 6.55875e-23)
(0.546423 -0.0906088 2.57934e-23)
(0.570934 -0.0881099 -1.14944e-22)
(0.595086 -0.0849733 2.60504e-22)
(0.618153 -0.0817018 1.37282e-22)
(0.641105 -0.0778408 1.63527e-22)
(0.662248 -0.0742916 -1.52155e-22)
(0.684122 -0.0700544 -1.81168e-22)
(0.702851 -0.0667098 3.46885e-22)
(0.724217 -0.0623541 7.16195e-23)
(0.739884 -0.0596418 1.67933e-22)
(0.761901 -0.0553512 3.23627e-22)
(0.773504 -0.0535944 -9.75144e-23)
(0.798114 -0.0496329 1.23882e-22)
(0.804135 -0.0489463 -3.07199e-23)
(0.834398 -0.046123 1.22893e-23)
(0.114236 0.0183909 -3.99936e-20)
(0.111839 0.0186435 4.9378e-20)
(0.110329 0.0179488 6.52896e-20)
(0.11001 0.0171385 -7.51537e-20)
(0.10987 0.0162689 -4.80996e-20)
(0.109718 0.0152865 3.40226e-20)
(0.109633 0.0142147 3.24706e-20)
(0.109654 0.0130994 4.72029e-20)
(0.10979 0.0119689 -5.51702e-20)
(0.11005 0.0108364 -3.83453e-22)
(0.110453 0.00970865 -4.40601e-20)
(0.111016 0.00858917 1.19905e-20)
(0.111758 0.00747851 3.49546e-20)
(0.112695 0.00637478 -2.69656e-21)
(0.113848 0.00527432 -2.0756e-20)
(0.115234 0.00417239 5.49176e-21)
(0.116876 0.00306394 1.1993e-20)
(0.118796 0.0019481 -2.17753e-20)
(0.121015 0.000839778 4.6396e-20)
(0.123545 -0.000286293 -2.18642e-20)
(0.12636 -0.00147827 -1.24166e-20)
(0.12949 -0.00276295 2.89021e-20)
(0.132997 -0.00411166 -2.83549e-20)
(0.13689 -0.00551708 9.57256e-21)
(0.141191 -0.00702468 3.78259e-21)
(0.145918 -0.00865792 1.22926e-20)
(0.151109 -0.0104284 -9.3658e-21)
(0.156797 -0.0123701 -1.47355e-20)
(0.163007 -0.0145035 3.92118e-21)
(0.169776 -0.0168543 -7.2924e-21)
(0.177141 -0.0194471 3.26572e-20)
(0.185141 -0.0223048 -1.28358e-20)
(0.193816 -0.0254477 -2.1565e-20)
(0.203211 -0.0288919 2.90019e-20)
(0.213368 -0.0326485 -1.81379e-20)
(0.224334 -0.0367206 -4.18069e-21)
(0.236151 -0.0411063 9.65901e-21)
(0.248858 -0.0457806 -3.78001e-21)
(0.262504 -0.0507184 8.02302e-21)
(0.277119 -0.0558838 -3.27741e-21)
(0.292726 -0.0612216 6.30528e-21)
(0.309337 -0.0666649 -1.38511e-20)
(0.326947 -0.0721243 9.02841e-21)
(0.345544 -0.0774999 5.01546e-21)
(0.365092 -0.082691 -9.3793e-21)
(0.385526 -0.0875767 3.38238e-23)
(0.40677 -0.0920386 5.49747e-21)
(0.428719 -0.0959589 -6.40691e-21)
(0.451254 -0.0992352 6.64794e-21)
(0.474232 -0.101766 -1.69171e-21)
(0.497507 -0.103498 2.11366e-22)
(0.520921 -0.104365 -2.39348e-22)
(0.544309 -0.104392 4.29519e-23)
(0.567548 -0.103541 -4.44184e-22)
(0.590435 -0.101954 4.97111e-22)
(0.612969 -0.0995694 2.98208e-23)
(0.634823 -0.0966934 -4.35745e-23)
(0.656296 -0.0931342 -1.70685e-23)
(0.676686 -0.0894491 -4.54247e-22)
(0.696978 -0.0851389 3.71739e-22)
(0.715543 -0.081181 -4.46718e-22)
(0.73483 -0.0765039 1.16009e-22)
(0.751191 -0.0727875 -4.74621e-22)
(0.770029 -0.0680303 1.01219e-22)
(0.783655 -0.0650042 4.15592e-23)
(0.803098 -0.0603776 -1.45309e-22)
(0.813152 -0.0583767 1.26323e-22)
(0.834915 -0.0541731 -1.25988e-22)
(0.840119 -0.0533219 -6.73992e-23)
(0.866875 -0.0503614 2.02616e-23)
(0.194282 0.0193926 -5.09868e-21)
(0.19182 0.0183557 -1.07457e-19)
(0.190928 0.0173625 1.18294e-19)
(0.190461 0.0163978 -6.01572e-20)
(0.190019 0.0153348 -5.21997e-21)
(0.189671 0.0141718 4.99316e-20)
(0.189475 0.0129509 -5.34114e-20)
(0.189431 0.0117005 -8.17327e-21)
(0.189544 0.010434 4.11158e-20)
(0.189827 0.0091596 -8.94418e-21)
(0.190297 0.00788244 -4.37968e-20)
(0.190971 0.00660477 7.70793e-20)
(0.19187 0.00532591 -2.04068e-20)
(0.193011 0.00404286 -3.38425e-20)
(0.194416 0.00275069 4.01256e-20)
(0.196111 0.00144422 5.50623e-21)
(0.198134 0.000129779 -1.80435e-20)
(0.200481 -0.00118886 -2.17451e-20)
(0.203131 -0.00257267 -2.66699e-20)
(0.206122 -0.0040245 1.41917e-20)
(0.2095 -0.00550288 1.00313e-20)
(0.213278 -0.00704501 1.75109e-20)
(0.217473 -0.00867478 -2.52314e-20)
(0.222115 -0.0104132 1.53229e-20)
(0.227226 -0.012277 -2.00933e-21)
(0.232834 -0.0142841 -1.38681e-20)
(0.238971 -0.0164653 9.62072e-21)
(0.24566 -0.0188445 1.12743e-21)
(0.252933 -0.021447 -2.13896e-20)
(0.26082 -0.0242979 6.38095e-21)
(0.269353 -0.027421 1.38881e-20)
(0.278562 -0.0308369 -8.79755e-21)
(0.28848 -0.0345624 4.42285e-21)
(0.299138 -0.0386087 1.01381e-20)
(0.310567 -0.0429784 -1.62107e-20)
(0.322795 -0.0476681 8.05974e-21)
(0.335844 -0.0526549 9.2868e-21)
(0.349739 -0.0579097 -7.98719e-21)
(0.364494 -0.0633917 1.28252e-21)
(0.380112 -0.0690418 -1.10097e-20)
(0.396583 -0.0747868 6.07298e-21)
(0.413886 -0.0805332 3.55259e-21)
(0.431984 -0.086174 1.40638e-21)
(0.450827 -0.0915981 -5.74788e-21)
(0.470335 -0.0966775 -1.22424e-21)
(0.490423 -0.101287 1.01959e-20)
(0.510979 -0.105301 -1.11476e-21)
(0.531885 -0.108612 -5.00729e-21)
(0.553006 -0.111114 3.65051e-23)
(0.574208 -0.112756 -6.60202e-22)
(0.595359 -0.113467 5.68274e-22)
(0.616313 -0.113286 2.07425e-22)
(0.636988 -0.112168 2.65125e-22)
(0.657207 -0.110278 -3.45616e-22)
(0.677015 -0.107544 -4.07434e-23)
(0.696108 -0.104306 -3.17547e-23)
(0.714828 -0.100351 3.22869e-23)
(0.732501 -0.0962828 5.45453e-23)
(0.750116 -0.0915651 -1.21366e-22)
(0.766121 -0.0872356 2.28641e-22)
(0.782857 -0.0821697 3.53408e-22)
(0.796912 -0.0781165 -1.42402e-22)
(0.813299 -0.0730151 5.40763e-22)
(0.824976 -0.0697002 -4.95105e-22)
(0.841955 -0.0647991 6.12419e-24)
(0.850557 -0.0625649 9.95828e-23)
(0.869621 -0.0581794 9.65125e-23)
(0.87407 -0.0571639 -2.49212e-23)
(0.897525 -0.0541062 -1.12461e-23)
(0.290097 0.0210663 -5.91961e-20)
(0.286326 0.0195671 2.66809e-20)
(0.284283 0.0182673 -1.81453e-20)
(0.282941 0.0171032 -1.68596e-20)
(0.281712 0.0158755 3.88724e-21)
(0.280628 0.0145556 -2.70021e-21)
(0.279762 0.0131785 8.01005e-21)
(0.279117 0.0117676 4.5039e-20)
(0.278682 0.0103328 -7.09054e-20)
(0.278465 0.00888101 5.37504e-20)
(0.278478 0.00741806 1.70237e-20)
(0.278738 0.005947 -8.51617e-20)
(0.279259 0.00446798 8.08823e-20)
(0.280061 0.0029785 -3.20085e-20)
(0.281163 0.00147368 1.49066e-21)
(0.282595 -5.12189e-05 2.11364e-20)
(0.2844 -0.00159302 -3.311e-20)
(0.286546 -0.00319316 1.53038e-20)
(0.289044 -0.00483811 -3.31542e-20)
(0.291939 -0.0065032 -1.34579e-20)
(0.295247 -0.00821629 5.15521e-20)
(0.298989 -0.0100028 -7.88848e-21)
(0.30319 -0.011877 6.19647e-21)
(0.307874 -0.0138585 1.6802e-20)
(0.313065 -0.0159679 -3.0464e-21)
(0.318788 -0.0182254 -1.41234e-20)
(0.325069 -0.0206576 -1.92129e-20)
(0.331933 -0.0232893 2.18569e-20)
(0.339404 -0.026146 5.16467e-22)
(0.347507 -0.0292527 -1.37741e-20)
(0.356266 -0.0326333 5.04671e-21)
(0.365702 -0.0363087 1.58002e-20)
(0.375838 -0.0402953 -3.12322e-20)
(0.386692 -0.0446043 7.3836e-21)
(0.39828 -0.0492378 1.06761e-20)
(0.410616 -0.0541907 3.43802e-21)
(0.423704 -0.0594411 -1.38007e-20)
(0.437549 -0.0649571 -9.10385e-23)
(0.452144 -0.0706938 -2.02248e-21)
(0.467472 -0.0765885 1.39192e-20)
(0.483505 -0.0825629 -8.82573e-21)
(0.500201 -0.0885194 -6.56307e-22)
(0.517503 -0.094345 6.04396e-21)
(0.535344 -0.0999211 -9.15428e-23)
(0.553634 -0.105114 -6.41084e-21)
(0.572276 -0.109793 8.67902e-21)
(0.591157 -0.113825 -1.45701e-21)
(0.610162 -0.117105 -4.97204e-21)
(0.629168 -0.119521 2.90748e-21)
(0.648058 -0.121027 -1.08186e-21)
(0.666728 -0.121548 -4.07964e-22)
(0.68506 -0.121137 -2.73939e-22)
(0.703011 -0.119745 5.39864e-22)
(0.720432 -0.117557 -8.18828e-22)
(0.737418 -0.114492 1.25024e-22)
(0.753689 -0.110919 1.82325e-23)
(0.769624 -0.106606 -6.05187e-23)
(0.784582 -0.102195 -2.20342e-22)
(0.799546 -0.0971209 2.18854e-22)
(0.813048 -0.0924645 -1.0737e-22)
(0.827304 -0.087067 -3.72298e-22)
(0.839148 -0.0827178 3.08704e-22)
(0.853193 -0.0773317 -2.62262e-22)
(0.863035 -0.0737586 5.19747e-23)
(0.877694 -0.068642 -5.75093e-23)
(0.884952 -0.066192 -1.02212e-24)
(0.901502 -0.0616779 -5.3907e-23)
(0.905264 -0.0605056 -2.88867e-24)
(0.925669 -0.0573831 -7.79752e-24)
(0.399311 0.0242998 3.35669e-20)
(0.393952 0.0222047 -3.30242e-20)
(0.390223 0.0204628 1.08374e-20)
(0.387429 0.0189671 2.91089e-20)
(0.384879 0.0174512 -5.54333e-20)
(0.382549 0.0158675 1.60813e-20)
(0.380523 0.0142453 8.29152e-20)
(0.378804 0.0125989 -2.60434e-20)
(0.377374 0.010931 -5.12378e-20)
(0.37623 0.00924522 4.45657e-20)
(0.37538 0.00754603 -1.33029e-20)
(0.374833 0.00583597 3.67296e-20)
(0.374603 0.00411512 -4.72944e-20)
(0.374702 0.00238095 -5.45288e-20)
(0.37515 0.000627488 9.01639e-20)
(0.375973 -0.00115413 -8.59809e-20)
(0.377197 -0.00298813 5.09671e-20)
(0.378812 -0.00487212 4.39466e-20)
(0.380852 -0.00676827 -8.58997e-20)
(0.383324 -0.0086964 6.75687e-20)
(0.386244 -0.0106773 -3.36268e-20)
(0.389636 -0.0127291 -2.7676e-20)
(0.393524 -0.0148696 5.70951e-21)
(0.397932 -0.017118 5.69589e-20)
(0.402883 -0.0194939 -7.07526e-20)
(0.408399 -0.0220181 6.63814e-20)
(0.414504 -0.0247151 1.69943e-20)
(0.421217 -0.0276096 -1.17883e-20)
(0.42856 -0.0307267 -4.97821e-20)
(0.43655 -0.034091 1.30249e-20)
(0.445205 -0.0377258 2.16019e-20)
(0.454537 -0.0416515 -2.18456e-20)
(0.464558 -0.0458841 1.64046e-20)
(0.475275 -0.0504341 -9.26131e-21)
(0.486689 -0.0553028 5.77937e-21)
(0.498798 -0.0604835 -5.85189e-21)
(0.511591 -0.0659543 3.6026e-21)
(0.525051 -0.0716811 1.19943e-21)
(0.539154 -0.0776156 -3.28371e-21)
(0.553863 -0.0836923 8.43967e-21)
(0.569128 -0.0898286 -1.04692e-20)
(0.584889 -0.095924 -3.83458e-21)
(0.601072 -0.101861 1.28081e-21)
(0.617594 -0.107514 1.36984e-22)
(0.634355 -0.112747 -2.83462e-21)
(0.651253 -0.117425 8.74597e-21)
(0.668175 -0.121413 -1.85989e-21)
(0.685013 -0.124605 -2.73892e-21)
(0.701662 -0.126888 -2.69735e-21)
(0.718024 -0.128223 5.03435e-21)
(0.734028 -0.128535 -2.51748e-22)
(0.749585 -0.127886 1.63205e-21)
(0.764697 -0.126226 -3.02462e-21)
(0.779243 -0.123759 1.4467e-21)
(0.793363 -0.120393 6.70136e-23)
(0.806802 -0.116524 -9.33298e-23)
(0.819973 -0.111901 -4.23867e-23)
(0.832266 -0.107197 2.24048e-22)
(0.844649 -0.101824 1.96326e-23)
(0.855742 -0.0968917 -1.13904e-23)
(0.867626 -0.0912237 3.89388e-22)
(0.877382 -0.086624 -1.29802e-22)
(0.88922 -0.0810131 1.46059e-22)
(0.89736 -0.0772168 -1.55187e-22)
(0.909861 -0.0719406 1.40206e-24)
(0.915892 -0.0692974 -4.25081e-23)
(0.93013 -0.0647008 1.00868e-22)
(0.933273 -0.0633852 -4.87025e-23)
(0.950898 -0.0602239 9.5177e-24)