/*--------------------------------*- C++ -*----------------------------------*\
  =========                 |
  \\      /  F ield         | OpenFOAM: The Open Source CFD Toolbox
   \\    /   O peration     | Website:  https://openfoam.org
    \\  /    A nd           | Version:  7
     \\/     M anipulation  |
\*---------------------------------------------------------------------------*/
FoamFile
{
    version     2.0;
    format      ascii;
    class       surfaceScalarField;
    location    "6";
    object      phi;
}
// * * * * * * * * * * * * * * * * * * * * * * * * * * * * * * * * * * * * * //

dimensions      [0 3 -1 0 0 0 0];

internalField   nonuniform List<scalar> 
612
(
0.000424727
-6.76238e-05
0.000440287
-7.59386e-05
0.00045823
-8.37543e-05
0.000478869
-9.1332e-05
0.000501027
-9.59245e-05
-9.91027e-05
0.00052494
0.000363707
-1.47509e-06
0.00036381
-1.45379e-06
0.00036391
-1.43303e-06
0.000364009
-1.41283e-06
0.000364107
-1.39323e-06
0.000364203
-1.37424e-06
0.000364298
-1.3559e-06
0.000364391
-1.33826e-06
0.000364483
-1.32137e-06
0.000364575
-1.3053e-06
0.000364665
-1.29013e-06
0.000364754
-1.27593e-06
0.000364842
-1.26284e-06
0.00036493
-1.25098e-06
0.000365017
-1.2405e-06
0.000365103
-1.2316e-06
0.000365189
-1.2245e-06
0.000365275
-1.21945e-06
0.000365362
-1.21676e-06
0.000365448
-1.21681e-06
0.000365536
-1.22001e-06
0.000365624
-1.22689e-06
0.000365714
-1.23804e-06
0.000365806
-1.25417e-06
0.0003659
-1.27612e-06
0.000365998
-1.30488e-06
0.0003661
-1.3416e-06
0.000366206
-1.38767e-06
0.000366319
-1.44468e-06
0.000366439
-1.51456e-06
0.000366568
-1.59954e-06
0.000366707
-1.70228e-06
0.000366859
-1.82588e-06
0.000367026
-1.97402e-06
0.000367211
-2.15102e-06
0.000367417
-2.36198e-06
0.00036765
-2.6129e-06
0.000367912
-2.91084e-06
0.000368212
-3.26412e-06
0.000368554
-3.68252e-06
0.000368948
-4.17756e-06
0.000369404
-4.76278e-06
0.000369933
-5.45411e-06
0.00037055
-6.27027e-06
0.000371272
-7.23322e-06
0.000372121
-8.36875e-06
0.00037312
-9.70709e-06
0.000374302
-1.12836e-05
0.000375704
-1.31396e-05
0.000377374
-1.53231e-05
0.000379369
-1.78899e-05
0.000381762
-2.09045e-05
0.000384641
-2.44403e-05
0.000388122
-2.85807e-05
0.000392345
-3.34178e-05
0.000397491
-3.90509e-05
0.000403785
-4.55812e-05
0.000411508
-5.3103e-05
0.000421005
-6.16813e-05
0.000432685
-7.13414e-05
0.000447005
-8.19435e-05
0.00046448
-9.34139e-05
0.000485342
-0.000104616
0.000510427
-0.000116416
0.000537695
-0.000123193
-0.000130691
0.000569284
0.000384043
-1.53631e-06
0.000384104
-1.51399e-06
0.000384163
-1.49226e-06
0.000384221
-1.47112e-06
0.000384278
-1.45062e-06
0.000384335
-1.43077e-06
0.000384391
-1.41163e-06
0.000384446
-1.39323e-06
0.0003845
-1.37563e-06
0.000384554
-1.35891e-06
0.000384607
-1.34314e-06
0.000384659
-1.32843e-06
0.000384711
-1.3149e-06
0.000384763
-1.30269e-06
0.000384814
-1.29197e-06
0.000384866
-1.28294e-06
0.000384917
-1.27583e-06
0.000384968
-1.27094e-06
0.00038502
-1.26858e-06
0.000385073
-1.26917e-06
0.000385126
-1.27315e-06
0.00038518
-1.28108e-06
0.000385236
-1.29361e-06
0.000385293
-1.3115e-06
0.000385352
-1.33565e-06
0.000385415
-1.36714e-06
0.00038548
-1.40721e-06
0.00038555
-1.45734e-06
0.000385625
-1.51928e-06
0.000385705
-1.59509e-06
0.000385793
-1.6872e-06
0.000385889
-1.79846e-06
0.000385995
-1.93226e-06
0.000386114
-2.09257e-06
0.000386247
-2.2841e-06
0.000386397
-2.51237e-06
0.000386568
-2.78391e-06
0.000386764
-3.10644e-06
0.000386989
-3.48904e-06
0.000387249
-3.94243e-06
0.00038755
-4.47928e-06
0.000387902
-5.11452e-06
0.000388314
-5.86579e-06
0.000388798
-6.75393e-06
0.000389368
-7.80355e-06
0.000390043
-9.04372e-06
0.000390845
-1.05088e-05
0.0003918
-1.22394e-05
0.000392945
-1.42836e-05
0.00039432
-1.66981e-05
0.00039598
-1.955e-05
0.000397993
-2.29183e-05
0.000400449
-2.68961e-05
0.000403461
-3.15926e-05
0.000407178
-3.71345e-05
0.000411795
-4.36676e-05
0.000417569
-5.13553e-05
0.00042484
-6.03739e-05
0.000434053
-7.08945e-05
0.00044578
-8.30685e-05
0.000460732
-9.68959e-05
0.000479749
-0.000112431
0.000503568
-0.000128435
0.000533733
-0.000146581
0.000567579
-0.000157039
-0.000174878
0.000611766
0.000399723
-1.55088e-06
0.000399737
-1.52823e-06
0.000399751
-1.50619e-06
0.000399764
-1.48478e-06
0.000399778
-1.46402e-06
0.000399791
-1.44394e-06
0.000399804
-1.42458e-06
0.000399817
-1.406e-06
0.000399829
-1.38826e-06
0.000399842
-1.37142e-06
0.000399854
-1.35558e-06
0.000399867
-1.34084e-06
0.000399879
-1.32732e-06
0.000399892
-1.31518e-06
0.000399904
-1.30459e-06
0.000399917
-1.29577e-06
0.00039993
-1.28895e-06
0.000399944
-1.28445e-06
0.000399958
-1.28259e-06
0.000399972
-1.28381e-06
0.000399988
-1.28858e-06
0.000400004
-1.29748e-06
0.000400022
-1.3112e-06
0.000400041
-1.33052e-06
0.000400062
-1.3564e-06
0.000400084
-1.38996e-06
0.00040011
-1.43251e-06
0.000400138
-1.48561e-06
0.00040017
-1.55108e-06
0.000400206
-1.6311e-06
0.000400247
-1.72822e-06
0.000400294
-1.84544e-06
0.000400348
-1.98633e-06
0.00040041
-2.15507e-06
0.000400483
-2.35663e-06
0.000400567
-2.59684e-06
0.000400666
-2.88262e-06
0.000400782
-3.22214e-06
0.000400918
-3.62504e-06
0.000401078
-4.10275e-06
0.000401268
-4.66876e-06
0.000401492
-5.33908e-06
0.000401759
-6.13266e-06
0.000402077
-7.072e-06
0.000402457
-8.18379e-06
0.000402913
-9.49979e-06
0.000403462
-1.10578e-05
0.000404126
-1.29029e-05
0.000404931
-1.50889e-05
0.000405913
-1.76804e-05
0.000407118
-2.07546e-05
0.000408604
-2.44045e-05
0.00041045
-2.87423e-05
0.000412761
-3.39033e-05
0.000415678
-4.00512e-05
0.000419394
-4.73837e-05
0.000424177
-5.61385e-05
0.000430402
-6.65991e-05
0.000438598
-7.90903e-05
0.000449507
-9.39776e-05
0.000464163
-0.000111552
0.000483893
-0.00013216
0.00051031
-0.000154852
0.000545632
-0.000181903
0.000588374
-0.000199781
-0.000238566
0.000652062
0.000410127
-1.51741e-06
0.000410093
-1.49517e-06
0.000410061
-1.47354e-06
0.000410029
-1.45253e-06
0.000409997
-1.43218e-06
0.000409965
-1.41252e-06
0.000409934
-1.39358e-06
0.000409904
-1.37543e-06
0.000409874
-1.35811e-06
0.000409844
-1.34171e-06
0.000409815
-1.32632e-06
0.000409786
-1.31203e-06
0.000409757
-1.29899e-06
0.00040973
-1.28733e-06
0.000409702
-1.27725e-06
0.000409675
-1.26896e-06
0.000409649
-1.26271e-06
0.000409624
-1.25879e-06
0.000409599
-1.25758e-06
0.000409574
-1.25948e-06
0.000409551
-1.26499e-06
0.000409528
-1.27471e-06
0.000409506
-1.28932e-06
0.000409485
-1.30964e-06
0.000409465
-1.33664e-06
0.000409447
-1.37145e-06
0.00040943
-1.41542e-06
0.000409414
-1.47015e-06
0.000409401
-1.53749e-06
0.000409389
-1.61966e-06
0.00040938
-1.71927e-06
0.000409374
-1.8394e-06
0.000409372
-1.98369e-06
0.000409373
-2.15644e-06
0.000409379
-2.36272e-06
0.000409391
-2.60855e-06
0.000409409
-2.90101e-06
0.000409436
-3.24853e-06
0.000409472
-3.66105e-06
0.000409519
-4.15036e-06
0.000409581
-4.73046e-06
0.00040966
-5.41796e-06
0.00040976
-6.23262e-06
0.000409886
-7.19795e-06
0.000410044
-8.34202e-06
0.000410242
-9.69834e-06
0.000410492
-1.13071e-05
0.000410805
-1.32165e-05
0.000411201
-1.54846e-05
0.000411703
-1.81819e-05
0.000412342
-2.13937e-05
0.000413162
-2.52244e-05
0.000414221
-2.98019e-05
0.000415603
-3.52846e-05
0.000417421
0.000419842
0.000423107
0.000427575
0.000433789
0.000442594
0.000455323
0.000474015
0.00050172
0.000541756
0.000596866
0.000680463
0.000414634
0.000414555
0.000414478
0.000414401
0.000414325
0.000414251
0.000414177
0.000414105
0.000414033
0.000413962
0.000413893
0.000413824
0.000413756
0.000413689
0.000413623
0.000413558
0.000413493
0.00041343
0.000413367
0.000413304
0.000413242
0.000413181
0.000413121
0.00041306
0.000413001
0.000412941
0.000412882
0.000412823
0.000412763
0.000412704
0.000412644
0.000412584
0.000412523
0.000412461
0.000412398
0.000412333
0.000412266
0.000412198
0.000412127
0.000412054
0.000411977
0.000411898
0.000411815
0.00041173
0.000411643
0.000411555
0.000411469
0.000411389
0.000411319
0.00041127
0.000411255
0.000411293
0.000411416
0.000548889
-9.90867e-05
0.000569902
-9.15504e-05
0.000587107
-8.08489e-05
-6.94231e-05
0.000600044
-0.000129847
0.000624918
-0.000116425
0.000643465
-9.93956e-05
-8.26024e-05
0.000650389
-0.00016847
0.00067664
-0.000142676
0.000692618
-0.000115373
-9.10023e-05
0.000694656
-0.000211064
0.000713082
-0.000161102
0.000717076
-0.000119367
-8.62674e-05
0.000707531
0.000698093
0.000675377
)
;

boundaryField
{
    inlet
    {
        type            calculated;
        value           nonuniform 0();
    }
    outlet
    {
        type            calculated;
        value           nonuniform 0();
    }
    wall
    {
        type            calculated;
        value           nonuniform 0();
    }
    wedge1
    {
        type            wedge;
        value           nonuniform List<scalar> 
344
(
1.49737e-16
-3.04872e-16
1.36473e-16
1.78352e-17
1.12571e-16
1.47548e-16
-3.00414e-16
1.34469e-16
1.76426e-17
1.10926e-16
1.45486e-16
-2.96023e-16
1.32577e-16
1.74069e-17
1.09376e-16
1.4335e-16
-2.91852e-16
1.3062e-16
1.72268e-17
1.07809e-16
1.41195e-16
-2.87873e-16
1.28747e-16
1.68706e-17
1.063e-16
1.39245e-16
-2.83865e-16
1.26958e-16
1.66461e-17
1.04824e-16
1.37357e-16
-2.80009e-16
1.25215e-16
1.63987e-17
1.03385e-16
1.35554e-16
-2.7626e-16
1.23579e-16
1.61847e-17
1.02051e-16
1.33806e-16
-2.72678e-16
1.21984e-16
1.60635e-17
1.00744e-16
1.32119e-16
-2.69253e-16
1.20499e-16
1.58519e-17
9.95475e-17
1.30534e-16
-2.66005e-16
1.19048e-16
1.57295e-17
9.83848e-17
1.29047e-16
-2.62926e-16
1.17723e-16
1.5539e-17
9.7337e-17
1.27646e-16
-2.60063e-16
1.16482e-16
1.5468e-17
9.63417e-17
1.26342e-16
-2.5744e-16
1.15347e-16
1.53056e-17
9.54417e-17
1.25186e-16
-2.55073e-16
1.14306e-16
1.51506e-17
9.46326e-17
1.24155e-16
-2.5303e-16
1.13433e-16
1.50377e-17
9.39857e-17
1.23281e-16
-2.5133e-16
1.12685e-16
1.50065e-17
9.3451e-17
1.22594e-16
-2.50013e-16
1.1216e-16
1.49247e-17
9.31124e-17
1.22121e-16
-2.4913e-16
1.11821e-16
1.49561e-17
9.29313e-17
1.21912e-16
-2.48768e-16
1.11762e-16
1.49551e-17
9.29994e-17
1.2198e-16
-2.49027e-16
1.11954e-16
1.50673e-17
9.33015e-17
1.2237e-16
-2.49992e-16
1.12445e-16
1.51239e-17
9.38847e-17
1.23163e-16
-2.51787e-16
1.13331e-16
1.52153e-17
9.47941e-17
1.24414e-16
-2.54533e-16
1.14693e-16
1.54186e-17
9.61346e-17
1.26182e-16
-2.58424e-16
1.16536e-16
1.57355e-17
9.79051e-17
1.28592e-16
-2.63625e-16
1.19031e-16
1.60711e-17
1.00265e-16
1.31726e-16
-2.70393e-16
1.22228e-16
1.65673e-17
1.03255e-16
1.35772e-16
-2.78934e-16
1.26315e-16
1.71423e-17
1.07041e-16
1.40708e-16
-2.89782e-16
1.31285e-16
1.78555e-17
1.11654e-16
1.46845e-16
-3.03138e-16
1.37456e-16
1.85775e-17
1.17327e-16
1.54483e-16
-3.19392e-16
1.45011e-16
1.95937e-17
1.24236e-16
1.63773e-16
-3.39156e-16
1.54205e-16
2.08068e-17
1.32611e-16
1.75026e-16
-3.63026e-16
1.65378e-16
2.23435e-17
1.42762e-16
1.88569e-16
-3.91764e-16
1.78758e-16
2.41848e-17
1.54929e-16
2.04818e-16
-4.26203e-16
1.94841e-16
2.63522e-17
1.69537e-16
2.2424e-16
-4.67373e-16
2.14038e-16
2.8964e-17
1.86954e-16
2.4743e-16
-5.16434e-16
2.36975e-16
3.20736e-17
2.0777e-16
2.75055e-16
-5.74804e-16
2.64256e-16
3.57915e-17
2.32525e-16
3.07865e-16
-6.4411e-16
2.9669e-16
4.01463e-17
2.61942e-16
3.46775e-16
-7.26336e-16
3.35178e-16
4.5334e-17
2.96885e-16
3.9284e-16
-8.23737e-16
3.80872e-16
5.15968e-17
3.3843e-16
4.47347e-16
-9.39015e-16
4.34996e-16
5.90091e-17
3.87694e-16
5.11744e-16
-1.07534e-15
4.99106e-16
6.78108e-17
4.46148e-16
5.87783e-16
-1.23647e-15
5.74948e-16
7.82061e-17
5.15438e-16
6.77464e-16
-1.42679e-15
6.64729e-16
9.0603e-17
5.9766e-16
7.83155e-16
-1.65148e-15
7.70898e-16
1.05265e-16
6.95191e-16
9.07632e-16
-1.91669e-15
8.96465e-16
1.22629e-16
8.10989e-16
1.05408e-15
-2.22954e-15
1.045e-15
1.43265e-16
9.48546e-16
1.22624e-15
-2.59847e-15
1.22077e-15
1.67885e-16
1.11215e-15
1.42844e-15
-3.03336e-15
1.42874e-15
1.97058e-16
1.30688e-15
1.66559e-15
-3.54585e-15
1.67487e-15
2.31816e-16
1.53907e-15
1.94336e-15
-4.14946e-15
1.96629e-15
2.73115e-16
1.81634e-15
2.26823e-15
-4.85986e-15
2.31157e-15
3.2246e-16
2.14829e-15
2.64706e-15
-5.69543e-15
2.72064e-15
3.81194e-16
2.54665e-15
3.08791e-15
-6.67675e-15
3.20558e-15
4.51514e-16
3.59884e-15
-7.8272e-15
3.78067e-15
5.35875e-16
4.18792e-15
-9.17226e-15
4.46255e-15
6.37216e-16
4.86238e-15
-1.07385e-14
5.27059e-15
7.59469e-16
5.62666e-15
-1.25504e-14
6.22588e-15
9.07041e-16
6.48234e-15
-1.4629e-14
7.35157e-15
1.08593e-15
9.60881e-16
7.41618e-15
-1.69677e-14
8.66317e-15
1.30228e-15
1.07807e-15
8.42536e-15
-1.95825e-14
1.01872e-14
1.56532e-15
1.19103e-15
9.41967e-15
-2.22548e-14
1.18357e-14
1.87259e-15
1.30317e-15
1.04766e-14
-2.53069e-14
1.38317e-14
2.26365e-15
1.39475e-15
1.12805e-14
-2.74329e-14
1.51809e-14
2.57409e-15
1.46892e-15
1.21344e-14
-3.06948e-14
1.80976e-14
3.34066e-15
1.49973e-15
1.24177e-14
-3.13271e-14
1.7847e-14
2.91966e-15
1.42552e-15
1.15748e-14
-2.82038e-14
1.50562e-14
2.16989e-15
1.29387e-15
1.02287e-14
-2.39207e-14
1.19584e-14
1.53864e-15
1.13795e-15
8.75645e-15
-1.96499e-14
9.1901e-15
1.05366e-15
)
;
    }
    wedge2
    {
        type            wedge;
        value           nonuniform List<scalar> 
344
(
1.50788e-16
-3.03936e-16
1.37175e-16
1.83988e-17
1.1296e-16
1.48617e-16
-2.99508e-16
1.35162e-16
1.80592e-17
1.11271e-16
1.46427e-16
-2.95234e-16
1.3314e-16
1.77728e-17
1.09576e-16
1.44415e-16
-2.90965e-16
1.31288e-16
1.74467e-17
1.07988e-16
1.42542e-16
-2.86743e-16
1.2946e-16
1.73133e-17
1.06438e-16
1.40578e-16
-2.82794e-16
1.27661e-16
1.70619e-17
1.04953e-16
1.38676e-16
-2.78951e-16
1.25936e-16
1.68496e-17
1.03535e-16
1.3682e-16
-2.75273e-16
1.24231e-16
1.662e-17
1.02123e-16
1.35049e-16
-2.71722e-16
1.2262e-16
1.63186e-17
1.00804e-16
1.33369e-16
-2.68327e-16
1.21045e-16
1.61257e-17
9.95033e-17
1.31749e-16
-2.65099e-16
1.19595e-16
1.58669e-17
9.83092e-17
1.30212e-16
-2.62076e-16
1.18193e-16
1.56992e-17
9.71549e-17
1.28787e-16
-2.59251e-16
1.16902e-16
1.5439e-17
9.61199e-17
1.27488e-16
-2.56655e-16
1.1572e-16
1.52998e-17
9.51829e-17
1.26293e-16
-2.54331e-16
1.1469e-16
1.51866e-17
9.43731e-17
1.25257e-16
-2.52284e-16
1.1377e-16
1.50706e-17
9.36487e-17
1.24388e-16
-2.50576e-16
1.13041e-16
1.49131e-17
9.30948e-17
1.23704e-16
-2.49269e-16
1.12451e-16
1.48593e-17
9.26692e-17
1.23232e-16
-2.4843e-16
1.12092e-16
1.47444e-17
9.24598e-17
1.2299e-16
-2.48115e-16
1.11936e-16
1.47321e-17
9.24334e-17
1.23044e-16
-2.48392e-16
1.12089e-16
1.46774e-17
9.26749e-17
1.23443e-16
-2.49377e-16
1.12595e-16
1.47687e-17
9.32201e-17
1.24217e-16
-2.51181e-16
1.13467e-16
1.49277e-17
9.41219e-17
1.25443e-16
-2.53963e-16
1.14752e-16
1.50966e-17
9.53913e-17
1.27218e-16
-2.57862e-16
1.16601e-16
1.52871e-17
9.71672e-17
1.29602e-16
-2.63104e-16
1.19022e-16
1.56271e-17
9.94531e-17
1.32735e-16
-2.69894e-16
1.22182e-16
1.59946e-17
1.02402e-16
1.36684e-16
-2.78572e-16
1.26144e-16
1.65132e-17
1.06076e-16
1.41778e-16
-2.89247e-16
1.31217e-16
1.71576e-17
1.10714e-16
1.48066e-16
-3.02475e-16
1.37437e-16
1.81042e-17
1.16404e-16
1.55672e-16
-3.1876e-16
1.45037e-16
1.91277e-17
1.23345e-16
1.64947e-16
-3.3854e-16
1.54258e-16
2.03898e-17
1.31754e-16
1.76168e-16
-3.62458e-16
1.6534e-16
2.18439e-17
1.41848e-16
1.89701e-16
-3.91208e-16
1.7874e-16
2.35978e-17
1.54009e-16
2.05944e-16
-4.25672e-16
1.94772e-16
2.57467e-17
1.68546e-16
2.25388e-16
-4.66839e-16
2.13976e-16
2.8298e-17
1.85961e-16
2.48566e-16
-5.15928e-16
2.3685e-16
3.13586e-17
2.06689e-16
2.76131e-16
-5.74319e-16
2.64115e-16
3.49982e-17
2.31406e-16
3.0889e-16
-6.43686e-16
2.96526e-16
3.94091e-17
2.60827e-16
3.47751e-16
-7.25926e-16
3.35025e-16
4.46539e-17
2.95791e-16
3.93804e-16
-8.2336e-16
3.8064e-16
5.0798e-17
3.37242e-16
4.48272e-16
-9.38675e-16
4.34721e-16
5.81291e-17
3.86465e-16
5.12659e-16
-1.07505e-15
4.98753e-16
6.68418e-17
4.44845e-16
5.88664e-16
-1.23621e-15
5.7459e-16
7.72438e-17
5.14139e-16
6.78331e-16
-1.42657e-15
6.64286e-16
8.95381e-17
5.96314e-16
7.84017e-16
-1.65131e-15
7.7044e-16
1.04187e-16
6.93855e-16
9.08461e-16
-1.9165e-15
8.96028e-16
1.21622e-16
8.0964e-16
1.0549e-15
-2.22935e-15
1.04459e-15
1.42307e-16
9.47198e-16
1.22704e-15
-2.59831e-15
1.22028e-15
1.66773e-16
1.11073e-15
1.42917e-15
-3.03326e-15
1.4282e-15
1.95941e-16
1.30544e-15
1.6663e-15
-3.54578e-15
1.6743e-15
2.30578e-16
1.53754e-15
1.94408e-15
-4.1494e-15
1.96572e-15
2.71906e-16
1.81481e-15
2.2688e-15
-4.85994e-15
2.31084e-15
3.21065e-16
2.14666e-15
2.64786e-15
-5.69537e-15
2.71992e-15
3.79945e-16
2.54499e-15
3.0887e-15
-6.67668e-15
3.20491e-15
4.50313e-16
3.59957e-15
-7.82716e-15
3.77999e-15
5.34608e-16
4.18856e-15
-9.17228e-15
4.46185e-15
6.35951e-16
4.86293e-15
-1.07387e-14
5.26971e-15
7.57946e-16
5.62711e-15
-1.25507e-14
6.22489e-15
9.05462e-16
6.48262e-15
-1.46295e-14
7.3504e-15
1.0841e-15
9.61847e-16
7.41632e-15
-1.69683e-14
8.66188e-15
1.30037e-15
1.07891e-15
8.42535e-15
-1.95832e-14
1.01856e-14
1.56316e-15
1.19176e-15
9.4195e-15
-2.22559e-14
1.18339e-14
1.87025e-15
1.30374e-15
1.04763e-14
-2.53082e-14
1.38297e-14
2.26111e-15
1.39514e-15
1.128e-14
-2.74344e-14
1.51787e-14
2.57137e-15
1.46917e-15
1.21336e-14
-3.06965e-14
1.80951e-14
3.33777e-15
1.49975e-15
1.24167e-14
-3.13291e-14
1.78444e-14
2.91676e-15
1.42537e-15
1.15736e-14
-2.82059e-14
1.50535e-14
2.1671e-15
1.29357e-15
1.02273e-14
-2.39229e-14
1.19557e-14
1.53605e-15
1.13753e-15
8.75496e-15
-1.96522e-14
9.18747e-15
1.05126e-15
)
;
    }
    axis
    {
        type            empty;
        value           nonuniform 0();
    }
    procBoundary14to8
    {
        type            processor;
        value           nonuniform List<scalar> 
71
(
5.44453e-05
6.03781e-05
6.58118e-05
7.06923e-05
7.37665e-05
7.51898e-05
1.37134e-06
1.35166e-06
1.33249e-06
1.31382e-06
1.29568e-06
1.27811e-06
1.26112e-06
1.24477e-06
1.22909e-06
1.21416e-06
1.20003e-06
1.1868e-06
1.17456e-06
1.16344e-06
1.15357e-06
1.14512e-06
1.13829e-06
1.13333e-06
1.1305e-06
1.13013e-06
1.13262e-06
1.13843e-06
1.14809e-06
1.16225e-06
1.18165e-06
1.2072e-06
1.23992e-06
1.28107e-06
1.33209e-06
1.39469e-06
1.47089e-06
1.56307e-06
1.67402e-06
1.80703e-06
1.96597e-06
2.15539e-06
2.38064e-06
2.64802e-06
2.9649e-06
3.33996e-06
3.78336e-06
4.30702e-06
4.92488e-06
5.65324e-06
6.51111e-06
7.52065e-06
8.70756e-06
1.01016e-05
1.17371e-05
1.36533e-05
1.58949e-05
1.85121e-05
2.15605e-05
2.51003e-05
2.91944e-05
3.39051e-05
3.92873e-05
4.53799e-05
5.21843e-05
-0.000411548
5.96609e-05
7.51376e-05
7.05381e-05
6.36433e-05
5.58335e-05
)
;
    }
    procBoundary14to9
    {
        type            processor;
        value           uniform 0.000600697;
    }
    procBoundary14to13
    {
        type            processor;
        value           nonuniform List<scalar> 5(-0.000363604 -0.000383982 -0.000399708 -0.00041016 -0.000414714);
    }
    procBoundary14to15
    {
        type            processor;
        value           nonuniform List<scalar> 4(0.000656644 0.000701018 0.000712341 0.000648599);
    }
    procBoundary14to20
    {
        type            processor;
        value           nonuniform List<scalar> 
71
(
-4.18698e-05
-4.98049e-05
-5.94035e-05
-7.10664e-05
-8.53045e-05
-0.000102783
-0.000124281
-0.000150852
-0.000182557
-0.000221939
-0.000254891
-0.000322163
-1.43741e-06
-1.41629e-06
-1.39576e-06
-1.37584e-06
-1.35655e-06
-1.33793e-06
-1.32003e-06
-1.30288e-06
-1.28655e-06
-1.27111e-06
-1.25666e-06
-1.2433e-06
-1.23116e-06
-1.22038e-06
-1.21114e-06
-1.20367e-06
-1.1982e-06
-1.19504e-06
-1.19454e-06
-1.19712e-06
-1.20326e-06
-1.21355e-06
-1.22868e-06
-1.24945e-06
-1.27683e-06
-1.31193e-06
-1.3561e-06
-1.41091e-06
-1.47822e-06
-1.56021e-06
-1.65948e-06
-1.77909e-06
-1.92266e-06
-2.09445e-06
-2.29954e-06
-2.54389e-06
-2.83459e-06
-3.18004e-06
-3.59018e-06
-4.07684e-06
-4.65405e-06
-5.33853e-06
-6.15019e-06
-7.11284e-06
-8.25492e-06
-9.61063e-06
-1.12211e-05
-1.31359e-05
-1.54153e-05
-1.81328e-05
-2.13783e-05
-2.52629e-05
-2.99249e-05
0.00041167
-3.55379e-05
-0.000238133
-0.000151664
-9.66511e-05
-5.94893e-05
)
;
    }
}


// ************************************************************************* //
