/*--------------------------------*- C++ -*----------------------------------*\
  =========                 |
  \\      /  F ield         | OpenFOAM: The Open Source CFD Toolbox
   \\    /   O peration     | Website:  https://openfoam.org
    \\  /    A nd           | Version:  7
     \\/     M anipulation  |
\*---------------------------------------------------------------------------*/
FoamFile
{
    version     2.0;
    format      ascii;
    class       volVectorField;
    location    "2";
    object      U;
}
// * * * * * * * * * * * * * * * * * * * * * * * * * * * * * * * * * * * * * //

dimensions      [0 1 -1 0 0 0 0];

internalField   nonuniform List<vector> 
344
(
(2.31796 0.0128234 4.69507e-16)
(2.31346 0.0137871 4.80423e-16)
(2.30857 0.0148721 4.85788e-16)
(2.30327 0.0160814 4.94919e-16)
(2.29751 0.0174173 5.04149e-16)
(2.29123 0.0188819 5.0463e-16)
(2.28441 0.0204766 5.12665e-16)
(2.277 0.0222024 5.16495e-16)
(2.26895 0.0240593 5.17404e-16)
(2.26023 0.0260466 5.17676e-16)
(2.25078 0.0281627 5.28111e-16)
(2.24059 0.0304048 5.39996e-16)
(2.2296 0.0327683 5.54614e-16)
(2.21779 0.0352472 5.70714e-16)
(2.20513 0.0378327 5.87604e-16)
(2.1916 0.0405132 6.12508e-16)
(2.17718 0.0432733 6.34785e-16)
(2.16187 0.0460923 6.46609e-16)
(2.14569 0.0489431 6.7446e-16)
(2.12864 0.0517905 7.09794e-16)
(2.11078 0.0545884 7.31305e-16)
(2.09217 0.0572776 7.63652e-16)
(2.0729 0.0597838 7.93364e-16)
(2.05308 0.0620161 8.402e-16)
(2.03289 0.0638678 8.69874e-16)
(2.01249 0.0652216 9.04743e-16)
(1.99212 0.0659577 9.55585e-16)
(1.972 0.0659674 1.01319e-15)
(1.95237 0.0651683 1.08101e-15)
(1.93349 0.0635192 1.15849e-15)
(1.91557 0.0610314 1.24453e-15)
(1.89879 0.0577719 1.33271e-15)
(1.88331 0.053859 1.4138e-15)
(1.86921 0.0494503 1.50271e-15)
(1.85655 0.0447252 1.59327e-15)
(1.84531 0.0398667 1.68584e-15)
(1.83546 0.0350443 1.77934e-15)
(1.82692 0.0304023 1.86525e-15)
(1.8196 0.0260522 1.94221e-15)
(1.81338 0.0220708 2.00995e-15)
(1.80814 0.0185019 2.06905e-15)
(1.80377 0.0153614 2.12047e-15)
(1.80014 0.0126427 2.15817e-15)
(1.79715 0.0103229 2.19595e-15)
(1.7947 0.00836886 2.22494e-15)
(1.79271 0.00674159 2.23316e-15)
(1.7911 0.00540008 2.23748e-15)
(1.78979 0.00430405 2.24022e-15)
(1.78874 0.00341565 2.24181e-15)
(1.7879 0.00270057 2.22514e-15)
(1.78723 0.00212853 2.20889e-15)
(1.78669 0.00167336 2.19541e-15)
(1.78627 0.00131285 2.17728e-15)
(1.78593 0.00102845 2.15992e-15)
(1.78566 0.000804808 2.13834e-15)
(1.78544 0.000629427 2.12e-15)
(1.78527 0.00049218 2.08069e-15)
(1.78513 0.000384949 2.05516e-15)
(1.78503 0.000301282 2.02926e-15)
(1.78494 0.000236046 2.00297e-15)
(1.78487 0.000185334 1.9776e-15)
(1.78482 0.000145657 1.94362e-15)
(1.78478 0.000116098 1.91742e-15)
(1.78473 8.86124e-05 1.88086e-15)
(2.24839 0.01157 5.38504e-16)
(2.2452 0.0121938 5.21809e-16)
(2.24178 0.0129431 5.58592e-16)
(2.2381 0.0138224 5.19563e-16)
(2.23411 0.0148363 5.41023e-16)
(2.22979 0.0159885 5.57809e-16)
(2.22508 0.0172825 5.72665e-16)
(2.21994 0.0187211 5.60061e-16)
(2.21434 0.0203064 5.8585e-16)
(2.20824 0.0220402 5.72324e-16)
(2.20159 0.0239234 5.91488e-16)
(2.19436 0.0259559 5.84659e-16)
(2.18651 0.0281369 6.08161e-16)
(2.17799 0.0304643 6.25514e-16)
(2.16879 0.0329347 6.39677e-16)
(2.15886 0.0355431 6.66013e-16)
(2.14819 0.0382821 6.61603e-16)
(2.13674 0.0411422 6.97821e-16)
(2.1245 0.0441103 6.97197e-16)
(2.11147 0.0471694 7.35801e-16)
(2.09764 0.0502974 7.46175e-16)
(2.08303 0.0534656 7.87056e-16)
(2.06767 0.0566371 8.21348e-16)
(2.0516 0.0597651 8.74953e-16)
(2.03488 0.0627901 8.59329e-16)
(2.01761 0.0656386 9.26706e-16)
(1.9999 0.068221 9.41301e-16)
(1.98189 0.0704323 1.01317e-15)
(1.96374 0.0721552 1.01235e-15)
(1.94566 0.0732666 1.08506e-15)
(1.92783 0.0736485 1.16045e-15)
(1.91048 0.0732025 1.25178e-15)
(1.89381 0.0718645 1.29095e-15)
(1.878 0.0696179 1.40315e-15)
(1.86321 0.0665016 1.46797e-15)
(1.84954 0.0626103 1.58102e-15)
(1.83708 0.0580864 1.66149e-15)
(1.82586 0.053106 1.77662e-15)
(1.81588 0.0478606 1.88565e-15)
(1.80708 0.0425392 1.98263e-15)
(1.79941 0.0373124 2.08759e-15)
(1.79279 0.0323216 2.1411e-15)
(1.78712 0.0276734 2.23652e-15)
(1.7823 0.0234386 2.28598e-15)
(1.77824 0.0196551 2.35112e-15)
(1.77483 0.016333 2.38468e-15)
(1.77199 0.0134607 2.43654e-15)
(1.76964 0.0110109 2.4735e-15)
(1.76771 0.00894678 2.50887e-15)
(1.76611 0.0072263 2.47572e-15)
(1.76481 0.00580592 2.49794e-15)
(1.76375 0.00464318 2.48401e-15)
(1.76289 0.00369846 2.49437e-15)
(1.76219 0.00293592 2.45025e-15)
(1.76163 0.00232396 2.44914e-15)
(1.76117 0.00183528 2.43498e-15)
(1.7608 0.00144673 2.42064e-15)
(1.76051 0.0011389 2.38509e-15)
(1.76027 0.00089574 2.36489e-15)
(1.76008 0.000704131 2.34475e-15)
(1.75992 0.00055342 2.30631e-15)
(1.7598 0.000435036 2.27902e-15)
(1.7597 0.000342144 2.2495e-15)
(1.75962 0.000269289 2.21967e-15)
(1.75956 0.000212297 2.19013e-15)
(1.75951 0.000167417 2.15024e-15)
(1.75947 0.000133714 2.12084e-15)
(1.75942 0.000102185 2.07948e-15)
(2.15149 0.0128506 5.65846e-16)
(2.14854 0.0135924 5.6323e-16)
(2.14535 0.0144783 5.6982e-16)
(2.14189 0.0155133 5.86661e-16)
(2.13812 0.0167016 5.83261e-16)
(2.13401 0.018047 5.86938e-16)
(2.1295 0.0195525 5.97804e-16)
(2.12457 0.0212205 5.9982e-16)
(2.11919 0.0230527 6.14573e-16)
(2.1133 0.0250498 6.17054e-16)
(2.10689 0.0272117 6.22769e-16)
(2.09991 0.0295371 6.54839e-16)
(2.09233 0.0320235 6.69173e-16)
(2.08413 0.0346667 6.83038e-16)
(2.07528 0.0374608 6.95264e-16)
(2.06576 0.0403975 7.20692e-16)
(2.05555 0.0434657 7.35492e-16)
(2.04465 0.0466512 7.62218e-16)
(2.03304 0.0499352 7.81838e-16)
(2.02075 0.0532939 8.07444e-16)
(2.00778 0.0566971 8.56231e-16)
(1.99418 0.0601065 8.84187e-16)
(1.97998 0.0634745 9.14939e-16)
(1.96526 0.0667417 9.55055e-16)
(1.9501 0.0698358 1.00844e-15)
(1.93462 0.0726701 1.05401e-15)
(1.91894 0.0751437 1.08859e-15)
(1.90321 0.0771435 1.13761e-15)
(1.8876 0.0785495 1.20543e-15)
(1.8723 0.0792436 1.25624e-15)
(1.85747 0.0791211 1.32128e-15)
(1.84329 0.0781048 1.40279e-15)
(1.8299 0.0761583 1.47394e-15)
(1.81743 0.0732953 1.57638e-15)
(1.80596 0.0695844 1.66551e-15)
(1.79554 0.0651449 1.7627e-15)
(1.78617 0.0601369 1.88902e-15)
(1.77784 0.0547459 1.98513e-15)
(1.7705 0.0491651 2.08364e-15)
(1.76409 0.0435786 2.17986e-15)
(1.75853 0.0381482 2.26882e-15)
(1.75375 0.0330045 2.34136e-15)
(1.74965 0.0282429 2.41952e-15)
(1.74616 0.0239241 2.47575e-15)
(1.74321 0.0200774 2.52734e-15)
(1.74072 0.0167063 2.58447e-15)
(1.73862 0.0137941 2.61108e-15)
(1.73687 0.0113104 2.63439e-15)
(1.73541 0.00921621 2.6526e-15)
(1.7342 0.00746822 2.66653e-15)
(1.73319 0.00602224 2.65928e-15)
(1.73236 0.00483554 2.64571e-15)
(1.73168 0.00386844 2.63346e-15)
(1.73112 0.00308511 2.62369e-15)
(1.73066 0.00245403 2.60052e-15)
(1.73028 0.00194795 2.57434e-15)
(1.72997 0.00154369 2.55333e-15)
(1.72972 0.00122184 2.52461e-15)
(1.72951 0.000966285 2.49782e-15)
(1.72935 0.000763793 2.47273e-15)
(1.72921 0.000603604 2.44019e-15)
(1.7291 0.000477019 2.41005e-15)
(1.72901 0.000377072 2.37944e-15)
(1.72894 0.000298174 2.34781e-15)
(1.72888 0.00023603 2.31751e-15)
(1.72884 0.000186752 2.28228e-15)
(1.7288 0.000149413 2.25099e-15)
(1.72876 0.000114283 2.2083e-15)
(2.04346 0.0139341 5.91003e-16)
(2.04078 0.0148035 5.84666e-16)
(2.03785 0.015834 6.14479e-16)
(2.03464 0.0170303 5.93688e-16)
(2.03112 0.0183963 6.16719e-16)
(2.02725 0.0199352 6.3325e-16)
(2.02299 0.0216494 6.57741e-16)
(2.01833 0.0235404 6.50989e-16)
(2.01321 0.0256087 6.75058e-16)
(2.00762 0.0278539 6.71645e-16)
(2.00153 0.0302741 6.98596e-16)
(1.99491 0.0328661 7.08776e-16)
(1.98773 0.035625 7.40791e-16)
(1.97999 0.0385438 7.70595e-16)
(1.97166 0.041613 7.93594e-16)
(1.96273 0.0448203 8.24643e-16)
(1.95321 0.0481497 8.26584e-16)
(1.94309 0.051581 8.69035e-16)
(1.93239 0.0550888 8.80243e-16)
(1.92114 0.0586412 9.27057e-16)
(1.90938 0.0621989 9.49466e-16)
(1.89715 0.0657135 1.0025e-15)
(1.88452 0.0691264 1.0493e-15)
(1.87158 0.0723671 1.10442e-15)
(1.85844 0.0753525 1.11671e-15)
(1.84521 0.0779872 1.19578e-15)
(1.83202 0.0801651 1.22839e-15)
(1.81903 0.0817733 1.31155e-15)
(1.80639 0.0826994 1.33882e-15)
(1.79424 0.0828405 1.42848e-15)
(1.78273 0.0821156 1.51509e-15)
(1.77196 0.0804768 1.61223e-15)
(1.76203 0.0779198 1.6766e-15)
(1.75298 0.0744897 1.79054e-15)
(1.74483 0.070281 1.86742e-15)
(1.73758 0.0654311 1.9779e-15)
(1.73119 0.0601085 2.06809e-15)
(1.72559 0.0544978 2.18055e-15)
(1.72072 0.0487834 2.28843e-15)
(1.71651 0.0431356 2.37573e-15)
(1.71287 0.0376997 2.4644e-15)
(1.70974 0.0325896 2.51041e-15)
(1.70706 0.0278858 2.58865e-15)
(1.70475 0.0236364 2.61665e-15)
(1.70279 0.0198614 2.67166e-15)
(1.70111 0.0165578 2.69714e-15)
(1.69967 0.013705 2.73198e-15)
(1.69846 0.0112707 2.7504e-15)
(1.69742 0.00921549 2.76869e-15)
(1.69655 0.00749653 2.73953e-15)
(1.69581 0.0060708 2.75221e-15)
(1.69519 0.00489699 2.72826e-15)
(1.69467 0.00393685 2.72305e-15)
(1.69423 0.00315594 2.68391e-15)
(1.69387 0.00252394 2.67304e-15)
(1.69357 0.00201462 2.65515e-15)
(1.69331 0.00160565 2.63545e-15)
(1.69311 0.00127823 2.59925e-15)
(1.69293 0.00101675 2.57348e-15)
(1.69279 0.000808302 2.54695e-15)
(1.69267 0.000642371 2.50919e-15)
(1.69258 0.000510403 2.48055e-15)
(1.6925 0.00040551 2.44942e-15)
(1.69243 0.00032214 2.41719e-15)
(1.69238 0.000255997 2.38578e-15)
(1.69234 0.000203168 2.34609e-15)
(1.69231 0.000162745 2.31531e-15)
(1.69227 0.000124527 2.27225e-15)
(1.9257 0.0148087 6.04075e-16)
(1.9233 0.0158122 6.05883e-16)
(1.92066 0.0169909 6.20664e-16)
(1.91773 0.0183488 6.39831e-16)
(1.9145 0.0198891 6.46271e-16)
(1.91092 0.0216139 6.56011e-16)
(1.90699 0.0235246 6.8059e-16)
(1.90266 0.0256213 6.90076e-16)
(1.89791 0.027903 7.06798e-16)
(1.89273 0.0303674 7.21799e-16)
(1.88708 0.0330104 7.3989e-16)
(1.88097 0.0358261 7.80532e-16)
(1.87437 0.0388064 8.01434e-16)
(1.86727 0.0419407 8.29069e-16)
(1.85968 0.0452153 8.49686e-16)
(1.8516 0.0486127 8.88801e-16)
(1.84303 0.0521112 9.10812e-16)
(1.834 0.0556839 9.45527e-16)
(1.82455 0.0592979 9.75576e-16)
(1.81471 0.062913 1.01211e-15)
(1.80453 0.0664809 1.07084e-15)
(1.79408 0.0699439 1.10822e-15)
(1.78345 0.0732342 1.15286e-15)
(1.77274 0.0762731 1.20565e-15)
(1.76204 0.0789718 1.2708e-15)
(1.75148 0.0812326 1.32507e-15)
(1.74119 0.0829523 1.37489e-15)
(1.73129 0.0840277 1.44218e-15)
(1.72191 0.0843634 1.52366e-15)
(1.71314 0.0838809 1.59123e-15)
(1.70506 0.0825286 1.67039e-15)
(1.69775 0.0802915 1.7614e-15)
(1.69122 0.0771968 1.84236e-15)
(1.68546 0.0733162 1.94209e-15)
(1.68045 0.0687626 2.02821e-15)
(1.67612 0.063682 2.12139e-15)
(1.67241 0.0582409 2.23028e-15)
(1.66925 0.0526132 2.31417e-15)
(1.66654 0.0469663 2.39706e-15)
(1.66422 0.0414498 2.47164e-15)
(1.66223 0.0361879 2.54612e-15)
(1.66052 0.0312748 2.59823e-15)
(1.65903 0.0267744 2.65141e-15)
(1.65773 0.0227222 2.68296e-15)
(1.65659 0.0191294 2.71573e-15)
(1.65559 0.0159874 2.74978e-15)
(1.65472 0.0132734 2.76014e-15)
(1.65395 0.0109547 2.76584e-15)
(1.65329 0.0089931 2.76826e-15)
(1.6527 0.00734803 2.76978e-15)
(1.6522 0.00597904 2.75705e-15)
(1.65176 0.00484756 2.73623e-15)
(1.65138 0.00391801 2.71724e-15)
(1.65106 0.00315836 2.70003e-15)
(1.65078 0.00254039 2.67335e-15)
(1.65054 0.00203964 2.64842e-15)
(1.65034 0.00163522 2.62335e-15)
(1.65018 0.00130949 2.59397e-15)
(1.65004 0.00104773 2.56507e-15)
(1.64992 0.000837731 2.53659e-15)
(1.64982 0.000669462 2.50418e-15)
(1.64974 0.000534735 2.47366e-15)
(1.64967 0.000426916 2.44311e-15)
(1.64961 0.000340619 2.41149e-15)
(1.64957 0.000271643 2.38031e-15)
(1.64953 0.000216153 2.34589e-15)
(1.64951 0.000173241 2.3145e-15)
(1.64947 0.000132532 2.27279e-15)
(1.7998 0.0154609 6.33496e-16)
(1.79772 0.0165982 6.29985e-16)
(1.7954 0.0179205 6.68234e-16)
(1.79281 0.0194307 6.51402e-16)
(1.78992 0.0211309 6.89477e-16)
(1.78673 0.0230221 7.10744e-16)
(1.7832 0.0251038 7.46844e-16)
(1.77932 0.0273745 7.46153e-16)
)
;

boundaryField
{
    inlet
    {
        type            uniformFixedValue;
        uniformValue    constant (1 0 0);
        value           nonuniform 0();
    }
    outlet
    {
        type            pressureInletOutletVelocity;
        value           nonuniform List<vector> 5((1.78473 8.86124e-05 1.88086e-15) (1.75942 0.000102185 2.07948e-15) (1.72876 0.000114283 2.2083e-15) (1.69227 0.000124527 2.27225e-15) (1.64947 0.000132532 2.27279e-15));
    }
    wall
    {
        type            fixedValue;
        value           nonuniform 0();
    }
    wedge1
    {
        type            wedge;
    }
    wedge2
    {
        type            wedge;
    }
    axis
    {
        type            empty;
    }
    procBoundary11to5
    {
        type            processor;
        value           nonuniform List<vector> 
69
(
(2.3888 0.0106843 4.01754e-16)
(2.38414 0.0114655 4.35668e-16)
(2.37911 0.0123465 4.16845e-16)
(2.37367 0.0133298 4.59236e-16)
(2.36777 0.0144181 4.37133e-16)
(2.36137 0.0156132 4.67361e-16)
(2.35442 0.0169169 4.50188e-16)
(2.34687 0.0183303 4.47488e-16)
(2.33869 0.0198542 4.41556e-16)
(2.32981 0.0214887 4.20961e-16)
(2.32021 0.0232331 4.63942e-16)
(2.30984 0.0250861 4.45306e-16)
(2.29864 0.0270452 4.98224e-16)
(2.2866 0.0291066 4.7142e-16)
(2.27366 0.0312648 5.20241e-16)
(2.25981 0.0335121 5.15641e-16)
(2.245 0.0358382 5.29728e-16)
(2.22923 0.0382288 5.28078e-16)
(2.21249 0.0406649 5.83167e-16)
(2.19477 0.043121 5.94895e-16)
(2.17611 0.0455633 6.20837e-16)
(2.15654 0.0479468 6.23793e-16)
(2.13612 0.0502133 6.94426e-16)
(2.11497 0.0522888 7.08182e-16)
(2.0932 0.0540835 7.24005e-16)
(2.071 0.0554938 7.39421e-16)
(2.04857 0.0564089 8.26372e-16)
(2.02616 0.0567218 8.37293e-16)
(2.00404 0.0563435 9.37149e-16)
(1.9825 0.055218 9.62287e-16)
(1.96181 0.0533351 1.06323e-15)
(1.94222 0.0507359 1.11441e-15)
(1.92395 0.0475122 1.16919e-15)
(1.90717 0.043796 1.24601e-15)
(1.89197 0.0397453 1.30728e-15)
(1.87839 0.0355261 1.42962e-15)
(1.86643 0.0312965 1.48296e-15)
(1.85603 0.0271937 1.59867e-15)
(1.84708 0.0233261 1.63828e-15)
(1.83947 0.0197705 1.7363e-15)
(1.83307 0.016573 1.77433e-15)
(1.82773 0.013753 1.81721e-15)
(1.82331 0.0113083 1.84022e-15)
(1.81969 0.00922091 1.90542e-15)
(1.81674 0.00746256 1.9192e-15)
(1.81434 0.00599898 1.92824e-15)
(1.81242 0.00479361 1.92643e-15)
(1.81087 0.0038102 1.95533e-15)
(1.80964 0.00301455 1.94444e-15)
(1.80866 0.00237552 1.93203e-15)
(1.80788 0.00186562 1.91002e-15)
(1.80727 0.00146106 1.91904e-15)
(1.80678 0.00114165 1.8931e-15)
(1.8064 0.000890544 1.88983e-15)
(1.80609 0.000693836 1.86058e-15)
(1.80586 0.000540196 1.8387e-15)
(1.80567 0.000420483 1.79811e-15)
(1.80552 0.00032738 1.77518e-15)
(1.80541 0.000255089 1.75187e-15)
(1.80532 0.000199013 1.72834e-15)
(1.80525 0.000155661 1.70501e-15)
(1.80519 0.000121933 1.67796e-15)
(1.80515 9.69851e-05 1.65472e-15)
(1.80509 7.39097e-05 1.62201e-15)
(2.33305 0.0101091 4.67378e-16)
(2.32964 0.0106247 4.68702e-16)
(2.32602 0.0112461 4.82331e-16)
(2.32214 0.0119776 4.79174e-16)
(2.32214 0.0119776 4.79174e-16)
)
;
    }
    procBoundary11to10
    {
        type            processor;
        value           nonuniform List<vector> 4((2.2514 0.0110664 5.01564e-16) (2.15424 0.0122477 5.57108e-16) (2.04593 0.0132207 5.55888e-16) (1.92787 0.0139756 5.92609e-16));
    }
    procBoundary11to16
    {
        type            processor;
        value           nonuniform List<vector> 2((1.80165 0.0145046 5.93026e-16) (1.66757 0.0158669 6.6789e-16));
    }
    procBoundary11to17
    {
        type            processor;
        value           nonuniform List<vector> 
68
(
(1.77507 0.0298311 7.80958e-16)
(1.77045 0.0324688 7.87326e-16)
(1.76543 0.0352806 8.24712e-16)
(1.76002 0.0382575 8.42409e-16)
(1.75421 0.0413877 8.83646e-16)
(1.748 0.0446561 9.24481e-16)
(1.74142 0.0480441 9.54974e-16)
(1.73447 0.0515288 1.00431e-15)
(1.72719 0.0550823 1.01588e-15)
(1.71959 0.0586709 1.06805e-15)
(1.71174 0.0622544 1.08877e-15)
(1.70368 0.0657851 1.14253e-15)
(1.69548 0.0692073 1.18069e-15)
(1.68722 0.0724565 1.24214e-15)
(1.67898 0.0754595 1.29128e-15)
(1.67086 0.0781347 1.36186e-15)
(1.66296 0.080394 1.38262e-15)
(1.65538 0.0821451 1.47052e-15)
(1.64823 0.0832962 1.51909e-15)
(1.6416 0.083762 1.61314e-15)
(1.63555 0.0834711 1.65188e-15)
(1.63016 0.0823738 1.7526e-15)
(1.62544 0.08045 1.83319e-15)
(1.6214 0.0777147 1.93385e-15)
(1.61801 0.0742213 1.99145e-15)
(1.61523 0.0700595 2.10002e-15)
(1.61297 0.0653509 2.16086e-15)
(1.61117 0.0602395 2.25789e-15)
(1.60974 0.0548809 2.32345e-15)
(1.6086 0.0494303 2.41079e-15)
(1.60767 0.0440325 2.49256e-15)
(1.6069 0.0388129 2.54952e-15)
(1.60624 0.0338728 2.61413e-15)
(1.60565 0.0292864 2.63624e-15)
(1.60512 0.0251018 2.68024e-15)
(1.60462 0.0213429 2.68746e-15)
(1.60414 0.0180136 2.71878e-15)
(1.6037 0.0151019 2.71689e-15)
(1.60327 0.0125839 2.73595e-15)
(1.60288 0.0104284 2.73631e-15)
(1.6025 0.00859988 2.74023e-15)
(1.60216 0.00706111 2.70177e-15)
(1.60185 0.00577545 2.70426e-15)
(1.60157 0.00470803 2.67678e-15)
(1.60131 0.00382675 2.66769e-15)
(1.60109 0.0031027 2.62479e-15)
(1.60089 0.00251034 2.61303e-15)
(1.60072 0.0020275 2.58891e-15)
(1.60057 0.00163514 2.5696e-15)
(1.60044 0.00131712 2.53261e-15)
(1.60033 0.0010599 2.50737e-15)
(1.60024 0.000852187 2.48127e-15)
(1.60016 0.000684638 2.445e-15)
(1.60009 0.000549583 2.41708e-15)
(1.60003 0.000440759 2.38776e-15)
(1.59999 0.00035305 2.3566e-15)
(1.59995 0.000282426 2.3263e-15)
(1.59992 0.000225206 2.28904e-15)
(1.5999 0.000180453 2.259e-15)
(1.59987 0.000137934 2.21878e-15)
(1.66585 0.0171266 6.54111e-16)
(1.66392 0.0185757 6.96533e-16)
(1.66173 0.0202159 7.03339e-16)
(1.6593 0.0220477 7.46122e-16)
(1.65659 0.0240703 7.42629e-16)
(1.6536 0.0262814 7.91039e-16)
(1.77507 0.0298311 7.80958e-16)
(1.65032 0.0286773 7.88994e-16)
)
;
    }
}


// ************************************************************************* //
