/*--------------------------------*- C++ -*----------------------------------*\
  =========                 |
  \\      /  F ield         | OpenFOAM: The Open Source CFD Toolbox
   \\    /   O peration     | Website:  https://openfoam.org
    \\  /    A nd           | Version:  7
     \\/     M anipulation  |
\*---------------------------------------------------------------------------*/
FoamFile
{
    version     2.0;
    format      ascii;
    class       volScalarField;
    location    "1.6";
    object      T;
}
// * * * * * * * * * * * * * * * * * * * * * * * * * * * * * * * * * * * * * //

dimensions      [0 0 0 1 0 0 0];

internalField   nonuniform List<scalar> 
100800
(
1
1
1
1
1
1
1
1
1
1
1
1
1
1
1
1
1
1
1
1
1
1
1
1
1
1
1
1
1
1
1
1
1
1
1
1
1
1
1
1
1
1
1
1
1
1
1
1
1
1
1
1
1
1
1
1
1
1
1
1
1
1
1
1.15335
2.40171
2.70145
2.69957
2.7001
2.70324
2.71077
2.72196
2.7341
2.74422
2.75021
2.75207
2.75215
2.7522
2.75269
2.7539
2.75609
2.75994
2.76569
2.7726
2.77941
2.78484
2.78804
2.7892
2.78899
2.78791
2.78595
2.78387
2.78277
2.7836
2.78744
2.79459
2.80318
2.81065
2.81565
2.8168
2.81625
2.81542
2.81508
2.81568
2.8179
2.82166
2.82582
2.82963
2.83247
2.83432
2.8358
2.8375
2.83996
2.84357
2.849
2.85787
2.87243
2.89292
2.9145
2.92926
2.93459
1
1
1
1
1
1
1
1
1
1
1
1
1
1
1
1
1
1
1
1
1
1
1
1
1
1
1
1
1
1
1
1
1
1
1
1
1
1
1
1
1
1
1
1
1
1
1
1
1
1
1
1
1
1
1
1
1
1
1
1
1
1
1
1.15099
2.4009
2.70097
2.69873
2.6992
2.7028
2.71102
2.72264
2.73475
2.74456
2.75038
2.75228
2.75236
2.75239
2.75278
2.75382
2.75592
2.75978
2.76564
2.77266
2.77952
2.78494
2.78807
2.78911
2.78879
2.7876
2.78565
2.78366
2.78266
2.78357
2.78749
2.79468
2.80328
2.8107
2.81562
2.81669
2.81608
2.81519
2.81481
2.81542
2.81771
2.82154
2.8257
2.82946
2.83229
2.83418
2.83575
2.83757
2.84007
2.84362
2.84897
2.85778
2.87233
2.89283
2.91437
2.9291
2.93435
1
1
1
1
1
1
1
1
1
1
1
1
1
1
1
1
1
1
1
1
1
1
1
1
1
1
1
1
1
1
1
1
1
1
1
1
1
1
1
1
1
1
1
1
1
1
1
1
1
1
1
1
1
1
1
1
1
1
1
1
1
1
1
1.14261
2.39461
2.69986
2.69727
2.69799
2.70247
2.7117
2.72379
2.73572
2.74507
2.75059
2.75247
2.75262
2.75265
2.75295
2.75382
2.75579
2.75962
2.76552
2.77262
2.77949
2.78488
2.78794
2.78885
2.7884
2.78709
2.78515
2.78329
2.78246
2.78347
2.78752
2.79475
2.80333
2.81069
2.8155
2.81649
2.81588
2.81492
2.81446
2.81505
2.8174
2.82134
2.8255
2.8292
2.83201
2.83395
2.83563
2.83764
2.84022
2.8437
2.84896
2.85771
2.87223
2.89271
2.91423
2.92896
2.93415
1
1
1
1
1
1
1
1
1
1
1
1
1
1
1
1
1
1
1
1
1
1
1
1
1
1
1
1
1
1
1
1
1
1
1
1
1
1
1
1
1
1
1
1
1
1
1
1
1
1
1
1
1
1
1
1
1
1
1
1
1
1
1
1.12507
2.37884
2.69776
2.69572
2.69713
2.70314
2.71342
2.72543
2.73679
2.74555
2.75072
2.75263
2.75287
2.75294
2.75319
2.75392
2.7558
2.75959
2.76544
2.77252
2.77936
2.78466
2.78756
2.78833
2.78779
2.7864
2.78453
2.78285
2.7822
2.78334
2.78754
2.79477
2.80331
2.8106
2.81526
2.81616
2.81553
2.81452
2.814
2.81456
2.81699
2.82101
2.82519
2.82881
2.83156
2.83356
2.83542
2.83765
2.84039
2.84384
2.84899
2.85765
2.87212
2.89257
2.91404
2.92874
2.93387
1
1
1
1
1
1
1
1
1
1
1
1
1
1
1
1
1
1
1
1
1
1
1
1
1
1
1
1
1
1
1
1
1
1
1
1
1
1
1
1
1
1
1
1
1
1
1
1
1
1
1
1
1
1
1
1
1
1
1
1
1
1
1
1.09349
2.3544
2.69616
2.69504
2.69749
2.70478
2.71538
2.72706
2.73789
2.74606
2.75075
2.75259
2.75291
2.75305
2.75338
2.75414
2.75603
2.75976
2.76543
2.7723
2.77896
2.78409
2.78685
2.78754
2.78699
2.78562
2.78388
2.78239
2.78192
2.78317
2.78749
2.7947
2.80317
2.81035
2.81485
2.81566
2.81506
2.81403
2.81348
2.81403
2.81649
2.82058
2.82476
2.82829
2.83096
2.83303
2.83508
2.83755
2.84049
2.844
2.84904
2.8576
2.872
2.89239
2.91379
2.92847
2.93354
1
1
1
1
1
1
1
1
1
1
1
1
1
1
1
1
1
1
1
1
1
1
1
1
1
1
1
1
1
1
1
1
1
1
1
1
1
1
1
1
1
1
1
1
1
1
1
1
1
1
1
1
1
1
1
1
1
1
1
1
1
1
1
1.04247
2.32926
2.69547
2.69525
2.69917
2.70715
2.71743
2.72859
2.73885
2.74637
2.75057
2.75224
2.75262
2.75288
2.75342
2.75444
2.75653
2.76024
2.76563
2.77204
2.77826
2.78306
2.78571
2.78645
2.78598
2.78477
2.78323
2.78193
2.7816
2.78295
2.78738
2.79455
2.80293
2.80996
2.81427
2.81503
2.81444
2.81344
2.81289
2.81345
2.81593
2.82004
2.82423
2.82766
2.83021
2.83232
2.83455
2.83726
2.84045
2.84409
2.84906
2.85754
2.87187
2.89217
2.91348
2.9281
2.93313
1
1
1
1
1
1
1
1
1
1
1
1
1
1
1
1
1
1
1
1
1
1
1
1
1
1
1
1
1
1
1
1
1
1
1
1
1
1
1
1
1
1
1
1
1
1
1
1
1
1
1
1
1
1
1
1
1
1
1
1
1
1
1
1.00138
2.29949
2.69298
2.69628
2.70151
2.70953
2.71942
2.73003
2.73954
2.74634
2.75001
2.7515
2.75198
2.75244
2.75329
2.75474
2.75721
2.76096
2.76598
2.7717
2.77721
2.78154
2.78412
2.78501
2.78475
2.78385
2.78262
2.78152
2.78129
2.78271
2.78723
2.79434
2.80259
2.80946
2.81356
2.81425
2.81367
2.81269
2.81219
2.81279
2.81527
2.8194
2.82362
2.82696
2.82938
2.83148
2.83382
2.83672
2.84022
2.84406
2.84901
2.85745
2.87171
2.89192
2.9131
2.92763
2.93261
1
1
1
1
1
1
1
1
1
1
1
1
1
1
1
1
1
1
1
1
1
1
1
1
1
1
1
1
1
1
1
1
1
1
1
1
1
1
1
1
1
1
1
1
1
1
1
1
1
1
1
1
1
1
1
1
1
1
1
1
1
1
1
1.00001
2.26523
2.69047
2.69756
2.70368
2.71186
2.72132
2.73119
2.73976
2.74579
2.74902
2.7504
2.75103
2.75172
2.75294
2.75491
2.75786
2.76171
2.76632
2.77125
2.77591
2.77965
2.78216
2.78326
2.78331
2.78285
2.782
2.78111
2.78097
2.78247
2.78705
2.79407
2.80217
2.80888
2.81278
2.81338
2.81276
2.81178
2.81133
2.812
2.81452
2.81868
2.82295
2.82623
2.82851
2.83054
2.83292
2.83595
2.83969
2.84378
2.84884
2.85729
2.87151
2.89163
2.91266
2.92706
2.93198
1
1
1
1
1
1
1
1
1
1
1
1
1
1
1
1
1
1
1
1
1
1
1
1
1
1
1
1
1
1
1
1
1
1
1
1
1
1
1
1
1
1
1
1
1
1
1
1
1
1
1
1
1
1
1
1
1
1
1
1
1
1
1
1
2.22599
2.68867
2.69861
2.70539
2.71384
2.72285
2.73181
2.7394
2.74469
2.74765
2.74907
2.74988
2.75084
2.75243
2.75491
2.75828
2.76223
2.76644
2.7706
2.77436
2.77746
2.77981
2.78119
2.7817
2.78166
2.78132
2.78073
2.78071
2.78231
2.78686
2.79375
2.80167
2.80825
2.81196
2.81243
2.81174
2.81071
2.81028
2.81106
2.81366
2.81788
2.82224
2.8255
2.82769
2.82959
2.83191
2.83498
2.83881
2.84315
2.84847
2.85699
2.87122
2.89129
2.91218
2.92643
2.93125
1
1
1
1
1
1
1
1
1
1
1
1
1
1
1
1
1
1
1
1
1
1
1
1
1
1
1
1
1
1
1
1
1
1
1
1
1
1
1
1
1
1
1
1
1
1
1
1
1
1
1
1
1
1
1
1
1
1
1
1
1
1
1
1
2.18192
2.6874
2.69908
2.70624
2.71502
2.72366
2.73181
2.7385
2.74318
2.74606
2.74763
2.74866
2.74989
2.75183
2.75474
2.7584
2.76238
2.76622
2.76964
2.77256
2.77506
2.77723
2.77883
2.77985
2.7804
2.78057
2.78037
2.78052
2.78222
2.78664
2.79335
2.80105
2.80752
2.81107
2.81144
2.81065
2.80952
2.80907
2.80993
2.81263
2.81695
2.82143
2.82475
2.82689
2.82865
2.83084
2.83384
2.83766
2.84221
2.84785
2.8565
2.87082
2.89089
2.91165
2.92575
2.93043
1
1
1
1
1
1
1
1
1
1
1
1
1
1
1
1
1
1
1
1
1
1
1
1
1
1
1
1
1
1
1
1
1
1
1
1
1
1
1
1
1
1
1
1
1
1
1
1
1
1
1
1
1
1
1
1
1
1
1
1
1
1
1
1
2.13324
2.6861
2.69889
2.70631
2.71538
2.72379
2.73133
2.73728
2.74161
2.74445
2.74616
2.74741
2.7489
2.75117
2.75442
2.75827
2.76216
2.76556
2.76832
2.77055
2.77257
2.77455
2.77633
2.7778
2.77896
2.77972
2.77996
2.78038
2.78214
2.78635
2.79284
2.80032
2.80667
2.81008
2.81037
2.80951
2.80827
2.80777
2.80868
2.81146
2.81588
2.82049
2.82395
2.82612
2.82776
2.82978
2.83261
2.83631
2.84098
2.8469
2.85572
2.8702
2.89033
2.91102
2.92497
2.9295
1
1
1
1
1
1
1
1
1
1
1
1
1
1
1
1
1
1
1
1
1
1
1
1
1
1
1
1
1
1
1
1
1
1
1
1
1
1
1
1
1
1
1
1
1
1
1
1
1
1
1
1
1
1
1
1
1
1
1
1
1
1
1
1
2.07887
2.68362
2.69771
2.70542
2.71487
2.72321
2.73045
2.73614
2.74029
2.74304
2.74477
2.74614
2.7478
2.75031
2.75376
2.75771
2.76138
2.76435
2.76656
2.76828
2.76997
2.77182
2.77379
2.77572
2.77748
2.77884
2.77956
2.78024
2.78202
2.78602
2.79227
2.7995
2.80568
2.80896
2.8092
2.80829
2.80697
2.80642
2.80734
2.81016
2.81464
2.81937
2.823
2.82529
2.82688
2.8287
2.83129
2.8348
2.8395
2.84562
2.85467
2.86936
2.88961
2.91029
2.92414
2.92853
1
1
1
1
1
1
1
1
1
1
1
1
1
1
1
1
1
1
1
1
1
1
1
1
1
1
1
1
1
1
1
1
1
1
1
1
1
1
1
1
1
1
1
1
1
1
1
1
1
1
1
1
1
1
1
1
1
1
1
1
1
1
1
1
2.01682
2.67827
2.69533
2.7034
2.71333
2.72196
2.7294
2.73514
2.73921
2.74183
2.74348
2.74482
2.7465
2.74908
2.75256
2.75642
2.75993
2.76261
2.76443
2.76579
2.76725
2.76907
2.77131
2.77374
2.77612
2.77802
2.77912
2.77999
2.78176
2.78558
2.7916
2.79856
2.80452
2.80766
2.80786
2.80694
2.80562
2.80506
2.80596
2.80875
2.81323
2.81804
2.82183
2.82431
2.82597
2.82762
2.82994
2.83323
2.83783
2.84404
2.85334
2.86825
2.88864
2.90939
2.92321
2.9275
1
1
1
1
1
1
1
1
1
1
1
1
1
1
1
1
1
1
1
1
1
1
1
1
1
1
1
1
1
1
1
1
1
1
1
1
1
1
1
1
1
1
1
1
1
1
1
1
1
1
1
1
1
1
1
1
1
1
1
1
1
1
1
1
1.94414
2.66867
2.69224
2.70093
2.71134
2.72039
2.72827
2.73426
2.73831
2.74079
2.74229
2.74344
2.74495
2.7473
2.75063
2.75439
2.75784
2.76036
2.76193
2.76304
2.76435
2.7663
2.76893
2.77203
2.77505
2.7774
2.77874
2.77967
2.78136
2.785
2.79084
2.79752
2.80321
2.8062
2.80634
2.80544
2.80419
2.80368
2.80457
2.80731
2.81171
2.81653
2.82046
2.82312
2.82489
2.82649
2.82854
2.83156
2.83597
2.84218
2.8517
2.86682
2.88738
2.90828
2.92218
2.92645
1
1
1
1
1
1
1
1
1
1
1
1
1
1
1
1
1
1
1
1
1
1
1
1
1
1
1
1
1
1
1
1
1
1
1
1
1
1
1
1
1
1
1
1
1
1
1
1
1
1
1
1
1
1
1
1
1
1
1
1
1
1
1
1
1.85952
2.65385
2.68937
2.6988
2.70925
2.71856
2.72668
2.73278
2.73683
2.73928
2.74073
2.7417
2.74295
2.74498
2.74807
2.7517
2.75513
2.75763
2.75909
2.76014
2.76139
2.76358
2.76678
2.77064
2.7743
2.77698
2.77838
2.77922
2.78076
2.78422
2.78989
2.79631
2.80173
2.80458
2.80464
2.80378
2.80268
2.80231
2.80322
2.80588
2.81015
2.81488
2.81886
2.82165
2.82357
2.82519
2.82707
2.82983
2.83397
2.84014
2.84981
2.86508
2.88584
2.90698
2.92105
2.92539
1
1
1
1
1
1
1
1
1
1
1
1
1
1
1
1
1
1
1
1
1
1
1
1
1
1
1
1
1
1
1
1
1
1
1
1
1
1
1
1
1
1
1
1
1
1
1
1
1
1
1
1
1
1
1
1
1
1
1
1
1
1
1
1
1.76452
2.63348
2.6874
2.69717
2.7073
2.71663
2.72465
2.73056
2.73448
2.73698
2.73848
2.73947
2.74064
2.7424
2.74514
2.74859
2.752
2.75452
2.75605
2.75714
2.75849
2.76101
2.76485
2.76947
2.77374
2.77666
2.778
2.77866
2.77996
2.78321
2.78875
2.79496
2.80012
2.80283
2.8028
2.80193
2.80096
2.80075
2.80169
2.80433
2.80847
2.81303
2.817
2.81992
2.82199
2.82371
2.82556
2.82808
2.83195
2.83797
2.84765
2.86303
2.88399
2.90545
2.91977
2.92428
1
1
1
1
1
1
1
1
1
1
1
1
1
1
1
1
1
1
1
1
1
1
1
1
1
1
1
1
1
1
1
1
1
1
1
1
1
1
1
1
1
1
1
1
1
1
1
1
1
1
1
1
1
1
1
1
1
1
1
1
1
1
1
1
1.65749
2.60585
2.68673
2.69584
2.70521
2.71417
2.72172
2.72722
2.73096
2.7336
2.73545
2.73678
2.73807
2.73973
2.74224
2.74549
2.74879
2.75132
2.75301
2.75425
2.75582
2.75868
2.76315
2.7685
2.77332
2.7764
2.77759
2.778
2.77901
2.782
2.78735
2.79334
2.79827
2.80085
2.80075
2.79985
2.79902
2.799
2.79999
2.80269
2.80675
2.81113
2.81502
2.81798
2.82015
2.822
2.8239
2.82624
2.82984
2.83563
2.84521
2.86063
2.88184
2.90368
2.91835
2.9231
1
1
1
1
1
1
1
1
1
1
1
1
1
1
1
1
1
1
1
1
1
1
1
1
1
1
1
1
1
1
1
1
1
1
1
1
1
1
1
1
1
1
1
1
1
1
1
1
1
1
1
1
1
1
1
1
1
1
1
1
1
1
1
1
1.54148
2.57033
2.68759
2.69414
2.70204
2.71034
2.71754
2.72275
2.72644
2.72935
2.73173
2.73368
2.7355
2.73745
2.73993
2.74296
2.74601
2.74839
2.75017
2.75153
2.75337
2.75671
2.76181
2.76776
2.77297
2.77607
2.77705
2.77718
2.77789
2.78058
2.78569
2.79145
2.79618
2.79866
2.79853
2.79763
2.7969
2.79697
2.79807
2.80087
2.80492
2.8091
2.81283
2.81582
2.81806
2.82003
2.82206
2.82437
2.8277
2.83318
2.84255
2.85795
2.87939
2.90167
2.91673
2.92177
1
1
1
1
1
1
1
1
1
1
1
1
1
1
1
1
1
1
1
1
1
1
1
1
1
1
1
1
1
1
1
1
1
1
1
1
1
1
1
1
1
1
1
1
1
1
1
1
1
1
1
1
1
1
1
1
1
1
1
1
1
1
1
1
1.41977
2.5257
2.68976
2.69166
2.69815
2.70552
2.71221
2.71729
2.72113
2.72452
2.72761
2.73053
2.73332
2.73593
2.73857
2.7413
2.74385
2.74586
2.74752
2.749
2.75122
2.75514
2.76086
2.76727
2.7727
2.77565
2.77633
2.77618
2.77661
2.77896
2.78375
2.78922
2.79376
2.79621
2.79611
2.79529
2.79461
2.79472
2.79591
2.7988
2.80286
2.80691
2.81049
2.81348
2.81579
2.81786
2.82005
2.82241
2.82549
2.83062
2.83969
2.85499
2.87664
2.89936
2.91485
2.92021
1
1
1
1
1
1
1
1
1
1
1
1
1
1
1
1
1
1
1
1
1
1
1
1
1
1
1
1
1
1
1
1
1
1
1
1
1
1
1
1
1
1
1
1
1
1
1
1
1
1
1
1
1
1
1
1
1
1
1
1
1
1
1
1
1.29188
2.46781
2.6903
2.68974
2.69477
2.70082
2.70695
2.71191
2.7159
2.71971
2.72369
2.72785
2.73188
2.73536
2.7382
2.74055
2.74246
2.74396
2.74533
2.74677
2.7493
2.75379
2.76004
2.76679
2.77235
2.77503
2.77534
2.775
2.77518
2.77713
2.78149
2.78663
2.79104
2.79348
2.79347
2.79279
2.79215
2.79222
2.79344
2.79641
2.80051
2.80454
2.80802
2.81097
2.81334
2.8155
2.81783
2.82028
2.82318
2.82797
2.8367
2.85184
2.87363
2.89675
2.91266
2.91832
1
1
1
1
1
1
1
1
1
1
1
1
1
1
1
1
1
1
1
1
1
1
1
1
1
1
1
1
1
1
1
1
1
1
1
1
1
1
1
1
1
1
1
1
1
1
1
1
1
1
1
1
1
1
1
1
1
1
1
1
1
1
1
1
1.16647
2.40188
2.69028
2.69068
2.69446
2.69878
2.70368
2.70815
2.71208
2.71604
2.72069
2.72589
2.7309
2.73501
2.738
2.73999
2.74121
2.7421
2.74306
2.74445
2.74735
2.75244
2.75912
2.76611
2.7718
2.77425
2.77422
2.77373
2.77369
2.77516
2.77897
2.78367
2.78789
2.79038
2.79053
2.79003
2.78949
2.78955
2.79077
2.79378
2.79794
2.80197
2.80539
2.80826
2.81068
2.81294
2.81538
2.81793
2.82074
2.82522
2.83361
2.84855
2.8704
2.89382
2.91009
2.916
1
1
1
1
1
1
1
1
1
1
1
1
1
1
1
1
1
1
1
1
1
1
1
1
1
1
1
1
1
1
1
1
1
1
1
1
1
1
1
1
1
1
1
1
1
1
1
1
1
1
1
1
1
1
1
1
1
1
1
1
1
1
1
1
1.03804
2.32864
2.69299
2.69291
2.69507
2.69818
2.70185
2.70576
2.70987
2.71448
2.71988
2.72575
2.73119
2.73552
2.73845
2.74005
2.74058
2.74083
2.74132
2.74252
2.74558
2.75107
2.7581
2.76534
2.77102
2.7733
2.77303
2.77226
2.77189
2.7729
2.77606
2.78025
2.78431
2.78696
2.78738
2.78708
2.78668
2.78673
2.78793
2.79094
2.79512
2.79917
2.80256
2.80538
2.80784
2.81019
2.8127
2.81535
2.81814
2.82238
2.83046
2.84515
2.86695
2.89054
2.90709
2.91318
1
1
1
1
1
1
1
1
1
1
1
1
1
1
1
1
1
1
1
1
1
1
1
1
1
1
1
1
1
1
1
1
1
1
1
1
1
1
1
1
1
1
1
1
1
1
1
1
1
1
1
1
1
1
1
1
1
1
1
1
1
1
1
1
1.00072
2.24473
2.69408
2.69417
2.6959
2.69871
2.70195
2.7055
2.70956
2.7144
2.72002
2.72601
2.73159
2.73597
2.73872
2.73987
2.73988
2.73971
2.73985
2.74081
2.74378
2.74935
2.75652
2.76388
2.76952
2.77178
2.77146
2.77055
2.76988
2.77047
2.77294
2.77654
2.7804
2.78327
2.78402
2.78391
2.78365
2.78374
2.78494
2.78796
2.79212
2.7962
2.79958
2.80234
2.8048
2.8072
2.80973
2.81246
2.81528
2.81937
2.82721
2.84163
2.86328
2.88693
2.90366
2.90986
1
1
1
1
1
1
1
1
1
1
1
1
1
1
1
1
1
1
1
1
1
1
1
1
1
1
1
1
1
1
1
1
1
1
1
1
1
1
1
1
1
1
1
1
1
1
1
1
1
1
1
1
1
1
1
1
1
1
1
1
1
1
1
1
1
2.13641
2.68949
2.69475
2.69607
2.69844
2.7014
2.70491
2.70911
2.71416
2.71994
2.726
2.73158
2.73592
2.73852
2.73936
2.73916
2.73875
2.73869
2.73936
2.742
2.74726
2.75429
2.76158
2.76723
2.76967
2.76949
2.7686
2.7677
2.76793
2.7697
2.77261
2.77619
2.77929
2.78042
2.78055
2.78044
2.78062
2.7819
2.78491
2.78899
2.79308
2.79642
2.79908
2.80149
2.80389
2.80644
2.80924
2.81214
2.81616
2.82381
2.83795
2.85936
2.88295
2.89977
2.90598
1
1
1
1
1
1
1
1
1
1
1
1
1
1
1
1
1
1
1
1
1
1
1
1
1
1
1
1
1
1
1
1
1
1
1
1
1
1
1
1
1
1
1
1
1
1
1
1
1
1
1
1
1
1
1
1
1
1
1
1
1
1
1
1
1
2.00309
2.67187
2.69316
2.69431
2.69669
2.69998
2.70389
2.70844
2.71371
2.71959
2.72554
2.73095
2.73515
2.7376
2.73835
2.73814
2.7377
2.73756
2.73803
2.74019
2.74482
2.75133
2.75829
2.76395
2.76678
2.76705
2.76636
2.76539
2.76527
2.76635
2.76854
2.77175
2.77493
2.77655
2.77704
2.77709
2.77743
2.77884
2.78179
2.78578
2.78979
2.79306
2.79558
2.79791
2.80027
2.80282
2.80565
2.80864
2.81266
2.82018
2.83403
2.85517
2.87863
2.89545
2.90161
1
1
1
1
1
1
1
1
1
1
1
1
1
1
1
1
1
1
1
1
1
1
1
1
1
1
1
1
1
1
1
1
1
1
1
1
1
1
1
1
1
1
1
1
1
1
1
1
1
1
1
1
1
1
1
1
1
1
1
1
1
1
1
1
1
1.85409
2.63965
2.68887
2.68918
2.69183
2.69586
2.70065
2.70586
2.71147
2.71732
2.7231
2.72834
2.7325
2.73513
2.73627
2.73638
2.73621
2.73616
2.73656
2.73825
2.74204
2.74774
2.75407
2.75966
2.76303
2.76404
2.76367
2.76279
2.76234
2.76288
2.76442
2.76721
2.77032
2.77241
2.77329
2.77361
2.77416
2.77572
2.77862
2.78251
2.78639
2.78952
2.79187
2.79406
2.79634
2.79885
2.80169
2.80474
2.80882
2.81623
2.8298
2.85063
2.8739
2.89067
2.89669
1
1
1
1
1
1
1
1
1
1
1
1
1
1
1
1
1
1
1
1
1
1
1
1
1
1
1
1
1
1
1
1
1
1
1
1
1
1
1
1
1
1
1
1
1
1
1
1
1
1
1
1
1
1
1
1
1
1
1
1
1
1
1
1
1
1.68762
2.59094
2.68078
2.68199
2.68573
2.69038
2.69589
2.70157
2.70722
2.71278
2.7182
2.72323
2.72748
2.73062
2.73256
2.73348
2.73384
2.73412
2.73465
2.73604
2.73901
2.74367
2.74918
2.75451
2.75842
2.76033
2.76055
2.75988
2.75924
2.75934
2.76036
2.76264
2.76557
2.76804
2.76932
2.76996
2.77079
2.77252
2.77539
2.77918
2.78285
2.78574
2.78789
2.78991
2.79208
2.79452
2.79731
2.80034
2.80449
2.81181
2.82513
2.84566
2.86877
2.88549
2.89137
1
1
1
1
1
1
1
1
1
1
1
1
1
1
1
1
1
1
1
1
1
1
1
1
1
1
1
1
1
1
1
1
1
1
1
1
1
1
1
1
1
1
1
1
1
1
1
1
1
1
1
1
1
1
1
1
1
1
1
1
1
1
1
1
1
1.4789
2.51533
2.67384
2.67269
2.67741
2.6831
2.68962
2.69585
2.70157
2.7069
2.71184
2.71642
2.72072
2.72445
2.72733
2.72926
2.73042
2.73121
2.73202
2.73332
2.73564
2.73928
2.74392
2.74882
2.75312
2.75599
2.75708
2.75669
2.75598
2.7557
2.75635
2.7581
2.7608
2.76356
2.76521
2.76614
2.76726
2.76919
2.77203
2.77569
2.77913
2.78172
2.78366
2.78548
2.78751
2.78987
2.79253
2.79546
2.79964
2.80687
2.81992
2.84017
2.86313
2.87981
2.88555
1
1
1
1
1
1
1
1
1
1
1
1
1
1
1
1
1
1
1
1
1
1
1
1
1
1
1
1
1
1
1
1
1
1
1
1
1
1
1
1
1
1
1
1
1
1
1
1
1
1
1
1
1
1
1
1
1
1
1
1
1
1
1
1
1
1.23755
2.42305
2.67261
2.66845
2.67242
2.67792
2.68422
2.69017
2.69551
2.70039
2.70487
2.70917
2.71348
2.7177
2.7214
2.72425
2.72623
2.72759
2.72876
2.73011
2.732
2.73479
2.73857
2.74299
2.74746
2.75117
2.75321
2.75338
2.75267
2.7521
2.75242
2.75367
2.75613
2.75898
2.76096
2.76221
2.76358
2.76564
2.76848
2.77199
2.77513
2.77739
2.77912
2.78072
2.78258
2.78479
2.78724
2.79007
2.79416
2.80124
2.81402
2.83403
2.85693
2.87365
2.87932
1
1
1
1
1
1
1
1
1
1
1
1
1
1
1
1
1
1
1
1
1
1
1
1
1
1
1
1
1
1
1
1
1
1
1
1
1
1
1
1
1
1
1
1
1
1
1
1
1
1
1
1
1
1
1
1
1
1
1
1
1
1
1
1
1
1.05264
2.34929
2.67427
2.66842
2.67192
2.67623
2.68159
2.68686
2.69162
2.69588
2.69985
2.70387
2.70809
2.71242
2.71639
2.7196
2.72196
2.72366
2.72507
2.72646
2.72813
2.73035
2.73343
2.73739
2.74184
2.74612
2.74906
2.74998
2.74935
2.74863
2.74859
2.74944
2.75162
2.75439
2.75662
2.75819
2.75976
2.76186
2.76467
2.76796
2.77079
2.77274
2.77421
2.77559
2.7773
2.77933
2.78151
2.7842
2.78811
2.79492
2.80737
2.82712
2.85001
2.86681
2.87247
1
1
1
1
1
1
1
1
1
1
1
1
1
1
1
1
1
1
1
1
1
1
1
1
1
1
1
1
1
1
1
1
1
1
1
1
1
1
1
1
1
1
1
1
1
1
1
1
1
1
1
1
1
1
1
1
1
1
1
1
1
1
1
1
1
1.00102
2.2416
2.6753
2.67493
2.67683
2.6798
2.68357
2.68764
2.69156
2.69497
2.69827
2.7017
2.70552
2.70958
2.71342
2.71657
2.71889
2.72055
2.72191
2.72319
2.7246
2.72638
2.7289
2.73238
2.73662
2.74108
2.74462
2.74624
2.74591
2.7452
2.74485
2.74546
2.74733
2.7499
2.75221
2.75406
2.75575
2.75781
2.76054
2.76357
2.76608
2.76771
2.76889
2.77004
2.77155
2.77334
2.77523
2.77768
2.78128
2.78772
2.79979
2.8193
2.84227
2.8593
2.86509
1
1
1
1
1
1
1
1
1
1
1
1
1
1
1
1
1
1
1
1
1
1
1
1
1
1
1
1
1
1
1
1
1
1
1
1
1
1
1
1
1
1
1
1
1
1
1
1
1
1
1
1
1
1
1
1
1
1
1
1
1
1
1
1
1
1
2.10172
2.67604
2.67974
2.68086
2.68279
2.68522
2.68842
2.69183
2.69508
2.69819
2.70131
2.70466
2.70814
2.7115
2.71435
2.71646
2.71794
2.71909
2.72015
2.72137
2.72302
2.72535
2.72854
2.73244
2.73662
2.74023
2.7422
2.74227
2.74169
2.74128
2.74172
2.74326
2.74561
2.74787
2.7498
2.75151
2.75354
2.75611
2.75883
2.76099
2.76226
2.76309
2.76403
2.7653
2.7668
2.76845
2.77057
2.7738
2.77976
2.79133
2.81046
2.83345
2.85072
2.85667
1
1
1
1
1
1
1
1
1
1
1
1
1
1
1
1
1
1
1
1
1
1
1
1
1
1
1
1
1
1
1
1
1
1
1
1
1
1
1
1
1
1
1
1
1
1
1
1
1
1
1
1
1
1
1
1
1
1
1
1
1
1
1
1
1
1
1.92357
2.64526
2.68167
2.68262
2.68417
2.68654
2.68955
2.6927
2.69564
2.69848
2.70138
2.70439
2.70748
2.71047
2.713
2.71477
2.71584
2.71656
2.71728
2.71831
2.72
2.72246
2.72563
2.72926
2.73294
2.73615
2.73807
2.73845
2.73804
2.73783
2.73827
2.73952
2.74158
2.74364
2.74544
2.74708
2.749
2.75134
2.75373
2.75552
2.75641
2.75686
2.7575
2.7585
2.75964
2.76097
2.76265
2.76533
2.77067
2.78159
2.80032
2.82341
2.84106
2.84733
1
1
1
1
1
1
1
1
1
1
1
1
1
1
1
1
1
1
1
1
1
1
1
1
1
1
1
1
1
1
1
1
1
1
1
1
1
1
1
1
1
1
1
1
1
1
1
1
1
1
1
1
1
1
1
1
1
1
1
1
1
1
1
1
1
1
1.70197
2.5732
2.67034
2.67389
2.67721
2.68131
2.6859
2.69042
2.69446
2.698
2.70111
2.70397
2.70682
2.70952
2.71177
2.71324
2.71395
2.71429
2.7147
2.71559
2.71739
2.72012
2.72344
2.72683
2.7299
2.73243
2.73396
2.73442
2.73424
2.73435
2.73495
2.73602
2.73779
2.73955
2.74108
2.74252
2.74421
2.74624
2.74827
2.74965
2.75014
2.75019
2.75043
2.75107
2.75187
2.75279
2.75398
2.75607
2.76069
2.77081
2.78886
2.81176
2.82961
2.83604
1
1
1
1
1
1
1
1
1
1
1
1
1
1
1
1
1
1
1
1
1
1
1
1
1
1
1
1
1
1
1
1
1
1
1
1
1
1
1
1
1
1
1
1
1
1
1
1
1
1
1
1
1
1
1
1
1
1
1
1
1
1
1
1
1
1
1.41273
2.46804
2.66131
2.66039
2.66521
2.67145
2.67789
2.68398
2.68959
2.6945
2.69847
2.70171
2.70464
2.70733
2.70959
2.71106
2.71164
2.71178
2.71205
2.71292
2.71488
2.71793
2.7215
2.72478
2.7273
2.72907
2.73002
2.73036
2.73041
2.73084
2.73167
2.73271
2.73423
2.73565
2.73678
2.73784
2.73916
2.7408
2.74241
2.74333
2.74343
2.74313
2.74291
2.74306
2.74341
2.7438
2.74436
2.74561
2.74914
2.75809
2.77527
2.79801
2.81624
2.8231
1
1
1
1
1
1
1
1
1
1
1
1
1
1
1
1
1
1
1
1
1
1
1
1
1
1
1
1
1
1
1
1
1
1
1
1
1
1
1
1
1
1
1
1
1
1
1
1
1
1
1
1
1
1
1
1
1
1
1
1
1
1
1
1
1
1
1.10768
2.36202
2.65897
2.65424
2.65689
2.66076
2.66705
2.67432
2.68147
2.68778
2.69286
2.69679
2.70017
2.70318
2.70572
2.70747
2.70825
2.70846
2.70877
2.70971
2.71188
2.71529
2.71925
2.72259
2.72473
2.72587
2.72623
2.72637
2.7265
2.72719
2.72827
2.72939
2.73075
2.73181
2.73247
2.73307
2.73389
2.73504
2.73614
2.73659
2.73633
2.73563
2.73488
2.73442
2.73417
2.73391
2.73373
2.73408
2.7364
2.74397
2.75989
2.7818
2.79966
2.80614
1
1
1
1
1
1
1
1
1
1
1
1
1
1
1
1
1
1
1
1
1
1
1
1
1
1
1
1
1
1
1
1
1
1
1
1
1
1
1
1
1
1
1
1
1
1
1
1
1
1
1
1
1
1
1
1
1
1
1
1
1
1
1
1
1
1
1.00286
2.26582
2.65142
2.64752
2.65238
2.65637
2.66164
2.66771
2.67398
2.68009
2.6854
2.68963
2.6934
2.69685
2.69993
2.70226
2.70353
2.70403
2.70451
2.70562
2.70799
2.71169
2.71607
2.71977
2.72182
2.72245
2.72241
2.72238
2.72248
2.72329
2.72457
2.72579
2.72703
2.72781
2.72803
2.72813
2.72837
2.72896
2.72947
2.72942
2.72884
2.72771
2.72639
2.72518
2.72415
2.72306
2.72188
2.72112
2.72182
2.72699
2.74056
2.76115
2.7787
2.78569
1
1
1
1
1
1
1
1
1
1
1
1
1
1
1
1
1
1
1
1
1
1
1
1
1
1
1
1
1
1
1
1
1
1
1
1
1
1
1
1
1
1
1
1
1
1
1
1
1
1
1
1
1
1
1
1
1
1
1
1
1
1
1
1
1
1
1
2.10558
2.6511
2.65538
2.65766
2.65886
2.66109
2.6645
2.66908
2.67409
2.67868
2.68253
2.68602
2.68951
2.69295
2.69588
2.69773
2.6986
2.69925
2.70047
2.70296
2.70673
2.71154
2.71582
2.71814
2.71849
2.71832
2.71818
2.71822
2.719
2.72034
2.72163
2.72284
2.72345
2.72338
2.72301
2.72264
2.72258
2.72247
2.72194
2.72086
2.71928
2.71737
2.71533
2.71333
2.71121
2.70878
2.70643
2.70536
2.70807
2.71876
2.73691
2.75146
2.75459
1
1
1
1
1
1
1
1
1
1
1
1
1
1
1
1
1
1
1
1
1
1
1
1
1
1
1
1
1
1
1
1
1
1
1
1
1
1
1
1
1
1
1
1
1
1
1
1
1
1
1
1
1
1
1
1
1
1
1
1
1
1
1
1
1
1
1
1.89135
2.61968
2.66234
2.66085
2.66155
2.66314
2.66578
2.66904
2.67244
2.67548
2.67809
2.68059
2.68341
2.68655
2.68956
2.69172
2.6928
2.69349
2.6946
2.69694
2.70056
2.70558
2.71044
2.71334
2.7139
2.71375
2.71361
2.71362
2.71429
2.71552
2.71677
2.718
2.71855
2.71834
2.71763
2.71665
2.71588
2.71508
2.71396
2.71238
2.71034
2.7078
2.70487
2.70177
2.6984
2.69444
2.69001
2.68643
2.68563
2.69051
2.70168
2.71054
2.71008
1
1
1
1
1
1
1
1
1
1
1
1
1
1
1
1
1
1
1
1
1
1
1
1
1
1
1
1
1
1
1
1
1
1
1
1
1
1
1
1
1
1
1
1
1
1
1
1
1
1
1
1
1
1
1
1
1
1
1
1
1
1
1
1
1
1
1
1.59772
2.52115
2.65761
2.65745
2.6597
2.66211
2.66521
2.66872
2.67184
2.67431
2.67614
2.67771
2.67951
2.68178
2.68431
2.68641
2.68749
2.68804
2.68882
2.69066
2.69377
2.69851
2.70362
2.70726
2.70853
2.70848
2.70846
2.7085
2.70902
2.71001
2.71112
2.71239
2.71298
2.71275
2.71187
2.71042
2.70889
2.70731
2.70554
2.70342
2.70087
2.69764
2.69378
2.68948
2.68464
2.67887
2.67199
2.66462
2.65899
2.65757
2.66032
2.66182
2.66172
1
1
1
1
1
1
1
1
1
1
1
1
1
1
1
1
1
1
1
1
1
1
1
1
1
1
1
1
1
1
1
1
1
1
1
1
1
1
1
1
1
1
1
1
1
1
1
1
1
1
1
1
1
1
1
1
1
1
1
1
1
1
1
1
1
1
1
1.23189
2.39493
2.64956
2.64542
2.64946
2.65516
2.66131
2.66622
2.66988
2.67247
2.67427
2.67567
2.67708
2.67881
2.68081
2.6826
2.68346
2.68368
2.68397
2.68503
2.68722
2.69112
2.69596
2.70012
2.70224
2.70261
2.70271
2.70284
2.70322
2.70387
2.70474
2.706
2.70666
2.70649
2.7056
2.70384
2.70159
2.69915
2.69665
2.69393
2.6908
2.68689
2.68209
2.67649
2.67
2.66217
2.65253
2.64111
2.6291
2.61691
2.59875
2.55049
2.41395
1
1
1
1
1
1
1
1
1
1
1
1
1
1
1
1
1
1
1
1
1
1
1
1
1
1
1
1
1
1
1
1
1
1
1
1
1
1
1
1
1
1
1
1
1
1
1
1
1
1
1
1
1
1
1
1
1
1
1
1
1
1
1
1
1
1
1
1.01354
2.28923
2.63681
2.63539
2.64036
2.64689
2.65428
2.66064
2.66535
2.66871
2.67111
2.67293
2.67451
2.67618
2.67803
2.67969
2.6805
2.68048
2.68037
2.68064
2.68173
2.68434
2.68834
2.69241
2.69517
2.69618
2.6964
2.69659
2.69684
2.69718
2.69776
2.69888
2.69959
2.69952
2.69871
2.69679
2.69395
2.69067
2.68737
2.68397
2.6802
2.67559
2.66981
2.66284
2.65457
2.6445
2.63191
2.61601
2.59629
2.57013
2.5307
2.45181
2.25166
1
1
1
1
1
1
1
1
1
1
1
1
1
1
1
1
1
1
1
1
1
1
1
1
1
1
1
1
1
1
1
1
1
1
1
1
1
1
1
1
1
1
1
1
1
1
1
1
1
1
1
1
1
1
1
1
1
1
1
1
1
1
1
1
1
1
1
1.00004
2.11838
2.62342
2.63603
2.63986
2.64386
2.6487
2.65424
2.65912
2.66303
2.66613
2.66866
2.67086
2.67294
2.67499
2.67673
2.67768
2.67771
2.67748
2.67727
2.67746
2.67874
2.68152
2.68495
2.68788
2.6894
2.68981
2.68996
2.69005
2.69019
2.69043
2.69123
2.69188
2.69187
2.69113
2.68915
2.68589
2.68191
2.6778
2.67365
2.66913
2.66374
2.65696
2.64858
2.63851
2.62614
2.61063
2.59017
2.56378
2.52555
2.47454
2.35943
2.16252
1
1
1
1
1
1
1
1
1
1
1
1
1
1
1
1
1
1
1
1
1
1
1
1
1
1
1
1
1
1
1
1
1
1
1
1
1
1
1
1
1
1
1
1
1
1
1
1
1
1
1
1
1
1
1
1
1
1
1
1
1
1
1
1
1
1
1
1
1.88869
2.59547
2.63855
2.63987
2.6426
2.64597
2.64932
2.65306
2.65678
2.66015
2.66318
2.66596
2.66858
2.67107
2.67311
2.67437
2.67476
2.67462
2.67431
2.67398
2.67434
2.67592
2.67842
2.68099
2.68264
2.68311
2.68314
2.68306
2.68302
2.68296
2.68326
2.68366
2.68357
2.68282
2.68081
2.67734
2.67289
2.66808
2.66311
2.65775
2.65144
2.64359
2.63382
2.62204
2.6075
2.58931
2.56509
2.53285
2.48834
2.41923
2.30005
2.12139
1
1
1
1
1
1
1
1
1
1
1
1
1
1
1
1
1
1
1
1
1
1
1
1
1
1
1
1
1
1
1
1
1
1
1
1
1
1
1
1
1
1
1
1
1
1
1
1
1
1
1
1
1
1
1
1
1
1
1
1
1
1
1
1
1
1
1
1
1.5521
2.49439
2.63659
2.63653
2.63903
2.64164
2.64476
2.64815
2.65153
2.6547
2.65771
2.66063
2.66347
2.66622
2.66852
2.67011
2.67095
2.6711
2.67096
2.67051
2.67047
2.67124
2.67291
2.67488
2.67629
2.67665
2.67653
2.67624
2.67592
2.67555
2.67533
2.67521
2.67486
2.67388
2.67177
2.66824
2.6636
2.6583
2.65257
2.64624
2.63885
2.62984
2.6187
2.60534
2.58894
2.56832
2.54127
2.50422
2.45493
2.37698
2.26719
2.12632
1
1
1
1
1
1
1
1
1
1
1
1
1
1
1
1
1
1
1
1
1
1
1
1
1
1
1
1
1
1
1
1
1
1
1
1
1
1
1
1
1
1
1
1
1
1
1
1
1
1
1
1
1
1
1
1
1
1
1
1
1
1
1
1
1
1
1
1
1.14151
2.35817
2.63453
2.62993
2.63136
2.63441
2.63911
2.64307
2.64669
2.64985
2.65269
2.65541
2.6581
2.66079
2.66318
2.66502
2.66623
2.6668
2.66698
2.66663
2.66651
2.66692
2.66803
2.66943
2.67048
2.67063
2.67036
2.66982
2.66914
2.66839
2.66761
2.66686
2.66592
2.66446
2.66209
2.65859
2.654
2.64847
2.64207
2.63476
2.62617
2.61592
2.60348
2.5887
2.57077
2.54821
2.51891
2.47975
2.42648
2.34958
2.25069
2.13506
1
1
1
1
1
1
1
1
1
1
1
1
1
1
1
1
1
1
1
1
1
1
1
1
1
1
1
1
1
1
1
1
1
1
1
1
1
1
1
1
1
1
1
1
1
1
1
1
1
1
1
1
1
1
1
1
1
1
1
1
1
1
1
1
1
1
1
1
1.00464
2.23192
2.61673
2.61674
2.62168
2.62711
2.63298
2.63782
2.64202
2.64544
2.64824
2.65071
2.65303
2.65536
2.65756
2.65943
2.6608
2.66169
2.66211
2.66202
2.66204
2.66238
2.66322
2.66425
2.66501
2.66503
2.66465
2.66389
2.66285
2.66165
2.66032
2.65886
2.65712
2.65491
2.65208
2.64854
2.64411
2.63855
2.63167
2.62344
2.61363
2.6021
2.58844
2.5724
2.55321
2.5293
2.49868
2.45797
2.4045
2.33259
2.24505
2.14626
1
1
1
1
1
1
1
1
1
1
1
1
1
1
1
1
1
1
1
1
1
1
1
1
1
1
1
1
1
1
1
1
1
1
1
1
1
1
1
1
1
1
1
1
1
1
1
1
1
1
1
1
1
1
1
1
1
1
1
1
1
1
1
1
1
1
1
1
0.999999
2.01455
2.59504
2.61751
2.62191
2.6255
2.62911
2.63329
2.63748
2.64104
2.64389
2.64624
2.64829
2.65028
2.65217
2.65385
2.65517
2.65614
2.65664
2.6568
2.65698
2.65736
2.65808
2.65892
2.65955
2.65954
2.65914
2.65828
2.65699
2.65541
2.65355
2.65135
2.64869
2.64555
2.6421
2.63839
2.63402
2.62849
2.62128
2.61226
2.60136
2.58865
2.57391
2.5568
2.53657
2.51179
2.48076
2.43908
2.38821
2.32214
2.24608
2.15783
1
1
1
1
1
1
1
1
1
1
1
1
1
1
1
1
1
1
1
1
1
1
1
1
1
1
1
1
1
1
1
1
1
1
1
1
1
1
1
1
1
1
1
1
1
1
1
1
1
1
1
1
1
1
1
1
1
1
1
1
1
1
1
1
1
1
1
1
0.999999
1.68179
2.52171
2.61816
2.61936
2.6217
2.62503
2.62932
2.6331
2.63642
2.63925
2.64164
2.64371
2.64556
2.64716
2.64853
2.64963
2.65039
2.65087
2.6511
2.65135
2.65176
2.65242
2.65323
2.65386
2.65391
2.65356
2.65272
2.65136
2.64954
2.64727
2.6444
2.64083
2.63675
2.63257
2.62847
2.62398
2.61839
2.61093
2.60128
2.58947
2.57577
2.56015
2.54216
2.52108
2.49584
2.4642
2.42448
2.37604
2.31494
2.24755
2.16892
1
1
1
1
1
1
1
1
1
1
1
1
1
1
1
1
1
1
1
1
1
1
1
1
1
1
1
1
1
1
1
1
1
1
1
1
1
1
1
1
1
1
1
1
1
1
1
1
1
1
1
1
1
1
1
1
1
1
1
1
1
1
1
1
1
1
1
1
1
1.25047
2.39162
2.61743
2.61222
2.61461
2.61931
2.6245
2.62837
2.63152
2.63421
2.63659
2.63877
2.6407
2.64218
2.64336
2.64418
2.6447
2.64503
2.6452
2.64539
2.64574
2.64629
2.64705
2.64775
2.64793
2.64765
2.64691
2.64562
2.64376
2.64124
2.63787
2.63357
2.62871
2.62379
2.61911
2.61423
2.60837
2.6006
2.59047
2.57801
2.56358
2.54729
2.52868
2.50701
2.48125
2.44989
2.41315
2.36594
2.30895
2.25003
2.18074
1
1
1
1
1
1
1
1
1
1
1
1
1
1
1
1
1
1
1
1
1
1
1
1
1
1
1
1
1
1
1
1
1
1
1
1
1
1
1
1
1
1
1
1
1
1
1
1
1
1
1
1
1
1
1
1
1
1
1
1
1
1
1
1
1
1
1
1
1
1.01517
2.26097
2.60242
2.60128
2.60674
2.61286
2.61873
2.62297
2.62621
2.62878
2.63111
2.6333
2.63526
2.63681
2.63797
2.63868
2.63903
2.63923
2.6393
2.63934
2.63952
2.63987
2.6405
2.64122
2.64153
2.64132
2.64069
2.63953
2.63773
2.63511
2.63144
2.62673
2.62136
2.61584
2.61046
2.60497
2.5986
2.59043
2.57991
2.56706
2.5522
2.53547
2.51647
2.49444
2.46821
2.43841
2.40223
2.35743
2.3075
2.25542
2.19138
1
1
1
1
1
1
1
1
1
1
1
1
1
1
1
1
1
1
1
1
1
1
1
1
1
1
1
1
1
1
1
1
1
1
1
1
1
1
1
1
1
1
1
1
1
1
1
1
1
1
1
1
1
1
1
1
1
1
1
1
1
1
1
1
1
1
1
1
1
1.00004
2.02817
2.57832
2.59923
2.60508
2.61026
2.61456
2.61794
2.62086
2.62328
2.62546
2.62753
2.62945
2.6311
2.63236
2.63309
2.63341
2.63354
2.63352
2.63338
2.63332
2.63339
2.63376
2.63433
2.63467
2.63451
2.63398
2.63295
2.63124
2.6286
2.62487
2.62007
2.61451
2.60861
2.6026
2.59635
2.58929
2.58062
2.56981
2.55676
2.5417
2.52473
2.50551
2.48329
2.45751
2.42798
2.39234
2.3523
2.30803
2.25941
2.19895
1
1
1
1
1
1
1
1
1
1
1
1
1
1
1
1
1
1
1
1
1
1
1
1
1
1
1
1
1
1
1
1
1
1
1
1