/*--------------------------------*- C++ -*----------------------------------*\
  =========                 |
  \\      /  F ield         | OpenFOAM: The Open Source CFD Toolbox
   \\    /   O peration     | Website:  https://openfoam.org
    \\  /    A nd           | Version:  7
     \\/     M anipulation  |
\*---------------------------------------------------------------------------*/
FoamFile
{
    version     2.0;
    format      ascii;
    class       volVectorField;
    location    "1.6";
    object      U;
}
// * * * * * * * * * * * * * * * * * * * * * * * * * * * * * * * * * * * * * //

dimensions      [0 1 -1 0 0 0 0];

internalField   nonuniform List<vector> 
100800
(
(3 6.09444e-19 0)
(3 2.88437e-17 0)
(3 5.44356e-17 0)
(3 -1.57146e-16 0)
(3 4.74579e-16 0)
(3 4.33174e-16 0)
(3 -1.04921e-16 0)
(3 -2.98634e-17 0)
(3 8.70823e-16 0)
(3 8.41608e-16 0)
(3 6.12061e-16 0)
(3 1.11661e-15 0)
(3 7.84977e-16 0)
(3 6.05587e-17 0)
(3 2.78301e-16 0)
(3 6.25754e-16 0)
(3 3.4865e-16 0)
(3 -1.18315e-16 0)
(3 -1.65209e-16 0)
(3 -2.76094e-17 0)
(3 -8.35292e-16 0)
(3 -1.06279e-15 0)
(3 -6.75113e-16 0)
(3 -8.57332e-17 0)
(3 8.40892e-16 0)
(3 7.23157e-16 0)
(3 2.12429e-16 0)
(3 2.87691e-16 0)
(3 5.05606e-16 0)
(3 3.47918e-16 0)
(3 1.69257e-16 0)
(3 1.73895e-16 0)
(3 1.88475e-16 0)
(3 1.17245e-16 0)
(3 1.0668e-16 0)
(3 2.70434e-16 0)
(3 8.38406e-16 0)
(3 7.08468e-16 0)
(3 -1.33579e-16 0)
(3 -2.30403e-16 0)
(3 -3.13487e-16 0)
(3 -9.51851e-16 0)
(3 -6.19336e-16 0)
(3 -7.07118e-16 0)
(3 -1.37204e-15 0)
(3 -1.7885e-15 0)
(3 -1.87387e-15 0)
(3 -1.67492e-15 0)
(3 -1.14039e-15 0)
(3 -9.73592e-16 0)
(3 -8.21176e-16 0)
(3 1.46774e-16 0)
(3 2.28331e-16 0)
(3 -3.56496e-16 0)
(3 2.53923e-16 0)
(3 9.71721e-16 0)
(3 1.55162e-15 0)
(3 1.7462e-16 0)
(3 -4.44359e-16 0)
(3 -4.49885e-16 0)
(3 -4.47807e-17 0)
(3 -3.1298e-16 0)
(3 -1.53953e-16 0)
(2.9142 0.000448916 0)
(1.00721 0.0038222 0)
(0.740099 0.00835561 0)
(0.722212 0.00497467 0)
(0.710614 0.00301109 0)
(0.70066 0.00253742 0)
(0.691491 0.00316611 0)
(0.682157 0.00444638 0)
(0.671642 0.00591555 0)
(0.659233 0.0069257 0)
(0.64556 0.00685388 0)
(0.632132 0.00585787 0)
(0.620365 0.00461994 0)
(0.610059 0.00407449 0)
(0.59978 0.00426125 0)
(0.588832 0.00485741 0)
(0.576875 0.00579554 0)
(0.563319 0.00680205 0)
(0.548174 0.00730955 0)
(0.532667 0.00689797 0)
(0.51809 0.00599834 0)
(0.504483 0.00546931 0)
(0.491319 0.00567797 0)
(0.477826 0.00639829 0)
(0.463424 0.00699618 0)
(0.449032 0.00686086 0)
(0.435685 0.00615904 0)
(0.423572 0.00567388 0)
(0.412294 0.00566796 0)
(0.40131 0.00587726 0)
(0.389141 0.00611875 0)
(0.37641 0.00619879 0)
(0.362605 0.00612185 0)
(0.349264 0.00594676 0)
(0.335354 0.00597176 0)
(0.321867 0.00631555 0)
(0.308512 0.00678489 0)
(0.295157 0.00698542 0)
(0.281963 0.00682953 0)
(0.268956 0.00667122 0)
(0.255607 0.00666691 0)
(0.241589 0.0067291 0)
(0.22741 0.00679519 0)
(0.213043 0.00685502 0)
(0.19853 0.00692784 0)
(0.183975 0.0070203 0)
(0.169218 0.007119 0)
(0.154271 0.00724979 0)
(0.139086 0.00739912 0)
(0.1236 0.0075541 0)
(0.107803 0.00772342 0)
(0.091757 0.00787456 0)
(0.0753092 0.00804237 0)
(0.0584371 0.00823443 0)
(0.0414439 0.00847041 0)
(0.0244683 0.00864873 0)
(0.00845401 0.00887005 0)
(3 8.21956e-17 0)
(3 3.37457e-16 0)
(3 4.70986e-16 0)
(3 3.26615e-16 0)
(3 8.4666e-16 0)
(3 1.23724e-15 0)
(3 8.89282e-16 0)
(3 1.05024e-15 0)
(3 1.32102e-15 0)
(3 1.58105e-15 0)
(3 1.83218e-15 0)
(3 3.2454e-15 0)
(3 3.11325e-15 0)
(3 1.93775e-15 0)
(3 2.22013e-15 0)
(3 3.24198e-15 0)
(3 2.54883e-15 0)
(3 1.85451e-15 0)
(3 2.37624e-16 0)
(3 -3.94072e-16 0)
(3 -4.82204e-16 0)
(3 -9.29703e-16 0)
(3 -5.49175e-16 0)
(3 2.04075e-16 0)
(3 8.38547e-16 0)
(3 9.00871e-16 0)
(3 3.7893e-16 0)
(3 9.79184e-17 0)
(3 1.36154e-16 0)
(3 2.282e-16 0)
(3 6.10499e-16 0)
(3 3.69435e-17 0)
(3 -3.1158e-16 0)
(3 -2.78835e-16 0)
(3 1.28476e-16 0)
(3 3.73959e-16 0)
(3 6.16628e-16 0)
(3 7.48059e-16 0)
(3 5.82498e-16 0)
(3 -3.93463e-17 0)
(3 -1.01037e-15 0)
(3 -2.63806e-15 0)
(3 -2.51604e-15 0)
(3 -3.12411e-15 0)
(3 -3.36503e-15 0)
(3 -3.53433e-15 0)
(3 -3.11418e-15 0)
(3 -1.54276e-15 0)
(3 -6.25309e-16 0)
(3 -5.85526e-16 0)
(3 -1.3968e-15 0)
(3 6.65437e-16 0)
(3 1.07315e-15 0)
(3 9.53561e-16 0)
(3 1.33546e-15 0)
(3 1.76227e-15 0)
(3 2.59311e-15 0)
(3 1.09804e-15 0)
(3 -1.83791e-16 0)
(3 2.53069e-16 0)
(3 1.08768e-15 0)
(3 9.5765e-16 0)
(3 1.16236e-15 0)
(2.91476 0.00315435 0)
(1.00672 0.0177036 0)
(0.73363 0.0230955 0)
(0.719411 0.0137291 0)
(0.709112 0.00920961 0)
(0.6994 0.00813918 0)
(0.690384 0.00986242 0)
(0.680905 0.0133107 0)
(0.669984 0.0172548 0)
(0.65743 0.0198797 0)
(0.64417 0.0197599 0)
(0.631206 0.0172755 0)
(0.619294 0.0141013 0)
(0.608142 0.0122848 0)
(0.597039 0.0124591 0)
(0.585537 0.0141723 0)
(0.573332 0.0169861 0)
(0.559954 0.0198467 0)
(0.545487 0.0211029 0)
(0.530956 0.0199825 0)
(0.516972 0.0178302 0)
(0.503151 0.0166801 0)
(0.489295 0.0172978 0)
(0.475131 0.0192242 0)
(0.460409 0.0207796 0)
(0.446057 0.0202407 0)
(0.433079 0.018211 0)
(0.421281 0.0168302 0)
(0.410241 0.0168301 0)
(0.399382 0.0174384 0)
(0.387267 0.0180833 0)
(0.37464 0.0183135 0)
(0.360967 0.0181318 0)
(0.347681 0.0177621 0)
(0.33366 0.0179318 0)
(0.319912 0.0190246 0)
(0.306304 0.0204478 0)
(0.292696 0.0210053 0)
(0.27944 0.0205051 0)
(0.266509 0.0200053 0)
(0.253312 0.019986 0)
(0.23945 0.0201874 0)
(0.225361 0.0204079 0)
(0.211097 0.0206268 0)
(0.196651 0.020855 0)
(0.182187 0.0210654 0)
(0.167645 0.021241 0)
(0.152862 0.0215225 0)
(0.137907 0.0219539 0)
(0.122645 0.0224901 0)
(0.107067 0.0230983 0)
(0.0912022 0.0236506 0)
(0.0749514 0.0242006 0)
(0.058313 0.0248169 0)
(0.0415171 0.0255991 0)
(0.0246349 0.0262275 0)
(0.00846653 0.0270003 0)
(3 1.21492e-16 0)
(3 2.26407e-16 0)
(3 2.87116e-17 0)
(3 2.17374e-17 0)
(3 8.61394e-17 0)
(3 5.86772e-17 0)
(3 -2.59121e-17 0)
(3 -2.59634e-16 0)
(3 3.63542e-17 0)
(3 6.24989e-16 0)
(3 1.18759e-15 0)
(3 9.07043e-16 0)
(3 9.91643e-16 0)
(3 1.11743e-15 0)
(3 2.64856e-15 0)
(3 3.61734e-15 0)
(3 3.13225e-15 0)
(3 2.70217e-15 0)
(3 1.47577e-15 0)
(3 -7.93464e-16 0)
(3 -5.34501e-16 0)
(3 4.76283e-16 0)
(3 1.3381e-15 0)
(3 1.89291e-16 0)
(3 -3.29495e-16 0)
(3 -2.27363e-16 0)
(3 -6.86432e-16 0)
(3 -9.02812e-16 0)
(3 -7.1648e-16 0)
(3 1.49862e-16 0)
(3 1.27752e-15 0)
(3 1.42896e-15 0)
(3 1.14579e-15 0)
(3 1.3904e-15 0)
(3 2.32813e-15 0)
(3 2.0839e-15 0)
(3 6.53744e-16 0)
(3 -4.51713e-16 0)
(3 -5.04135e-16 0)
(3 -1.58069e-15 0)
(3 -2.1457e-15 0)
(3 -1.54679e-15 0)
(3 -1.39677e-15 0)
(3 -1.37804e-15 0)
(3 -1.57655e-15 0)
(3 -6.92958e-16 0)
(3 -5.10656e-16 0)
(3 -7.60099e-16 0)
(3 -1.22533e-15 0)
(3 -1.80244e-15 0)
(3 -9.45179e-16 0)
(3 -3.88989e-16 0)
(3 4.22986e-17 0)
(3 1.65505e-15 0)
(3 2.45872e-15 0)
(3 2.64679e-15 0)
(3 1.90303e-15 0)
(3 1.21634e-15 0)
(3 1.04035e-15 0)
(3 1.58826e-15 0)
(3 6.98335e-16 0)
(3 -1.4998e-17 0)
(3 -9.28127e-16 0)
(2.91985 0.00797364 0)
(1.01179 0.0356249 0)
(0.732116 0.0351708 0)
(0.722211 0.0219847 0)
(0.711867 0.0151884 0)
(0.701374 0.0145951 0)
(0.691786 0.0179315 0)
(0.681622 0.0233873 0)
(0.670039 0.028977 0)
(0.657321 0.0324609 0)
(0.644501 0.0320775 0)
(0.632202 0.0286228 0)
(0.620361 0.0242008 0)
(0.608337 0.0215579 0)
(0.595993 0.0217284 0)
(0.583326 0.0242855 0)
(0.570355 0.0286088 0)
(0.556738 0.0328786 0)
(0.542652 0.0344732 0)
(0.529078 0.0326699 0)
(0.515912 0.0297656 0)
(0.502308 0.0284509 0)
(0.488169 0.0296839 0)
(0.473465 0.0325923 0)
(0.458318 0.0346703 0)
(0.443795 0.0334793 0)
(0.431017 0.0301909 0)
(0.419393 0.0280589 0)
(0.408556 0.02814 0)
(0.397813 0.0291286 0)
(0.385748 0.0301021 0)
(0.373254 0.0304555 0)
(0.359789 0.0302599 0)
(0.346671 0.0298341 0)
(0.33264 0.0302482 0)
(0.31864 0.0319587 0)
(0.304677 0.034136 0)
(0.290599 0.0349036 0)
(0.277015 0.0340347 0)
(0.263911 0.0332613 0)
(0.250665 0.0333015 0)
(0.23684 0.0336854 0)
(0.222761 0.0340205 0)
(0.208529 0.0343148 0)
(0.194028 0.0346358 0)
(0.179535 0.0349312 0)
(0.165064 0.0351855 0)
(0.150532 0.0356463 0)
(0.135783 0.0363466 0)
(0.120845 0.03722 0)
(0.105551 0.0382053 0)
(0.0899213 0.0391717 0)
(0.0739636 0.0401737 0)
(0.057718 0.0412479 0)
(0.0413077 0.0425117 0)
(0.0246945 0.043458 0)
(0.00845524 0.0446232 0)
(3 -2.8844e-16 0)
(3 -9.18753e-16 0)
(3 -7.65516e-16 0)
(3 -7.17264e-16 0)
(3 -5.96797e-16 0)
(3 -3.70197e-16 0)
(3 -6.84041e-16 0)
(3 -1.54083e-15 0)
(3 -1.00201e-15 0)
(3 -9.31681e-17 0)
(3 -3.41677e-17 0)
(3 -2.03974e-16 0)
(3 -1.20723e-16 0)
(3 2.997e-17 0)
(3 7.61958e-16 0)
(3 1.79036e-15 0)
(3 1.13978e-15 0)
(3 1.49357e-15 0)
(3 1.97264e-15 0)
(3 1.84903e-16 0)
(3 -1.92444e-16 0)
(3 4.09115e-16 0)
(3 4.98764e-16 0)
(3 -4.64629e-16 0)
(3 -7.28044e-16 0)
(3 -1.04905e-15 0)
(3 -1.02937e-15 0)
(3 -1.134e-15 0)
(3 -7.645e-16 0)
(3 -3.88991e-16 0)
(3 3.59691e-16 0)
(3 6.67644e-16 0)
(3 1.20891e-15 0)
(3 1.80338e-15 0)
(3 1.65587e-15 0)
(3 1.73616e-15 0)
(3 1.01207e-15 0)
(3 -9.55344e-16 0)
(3 -2.16029e-15 0)
(3 -2.02901e-15 0)
(3 -5.9827e-16 0)
(3 3.02779e-16 0)
(3 -1.022e-16 0)
(3 3.00088e-16 0)
(3 9.02292e-16 0)
(3 1.57398e-15 0)
(3 7.61961e-16 0)
(3 -1.0619e-15 0)
(3 -2.29187e-15 0)
(3 -3.70292e-15 0)
(3 -2.43822e-15 0)
(3 -1.49866e-15 0)
(3 -6.03772e-16 0)
(3 1.33027e-16 0)
(3 6.34811e-16 0)
(3 1.60587e-15 0)
(3 1.47259e-15 0)
(3 1.1102e-15 0)
(3 1.24394e-15 0)
(3 6.38978e-16 0)
(3 -2.815e-15 0)
(3 -2.58452e-15 0)
(3 -3.34976e-15 0)
(2.93214 0.0150464 0)
(1.02247 0.0531958 0)
(0.734656 0.0434293 0)
(0.727313 0.0288573 0)
(0.716677 0.021913 0)
(0.705452 0.02245 0)
(0.694796 0.0273682 0)
(0.683471 0.0340262 0)
(0.671352 0.0404371 0)
(0.658779 0.0441255 0)
(0.646447 0.0435344 0)
(0.634647 0.0396369 0)
(0.622802 0.0346949 0)
(0.610127 0.0316215 0)
(0.596772 0.0318915 0)
(0.583035 0.0352764 0)
(0.569251 0.0408719 0)
(0.555279 0.0460252 0)
(0.54147 0.0474254 0)
(0.528788 0.0448887 0)
(0.516332 0.0416049 0)
(0.502926 0.0405686 0)
(0.488618 0.0425474 0)
(0.473531 0.0463125 0)
(0.458059 0.0486041 0)
(0.443417 0.0466668 0)
(0.430787 0.0422569 0)
(0.419207 0.0394642 0)
(0.408474 0.039605 0)
(0.397763 0.0409104 0)
(0.385694 0.0420991 0)
(0.373295 0.0425741 0)
(0.360034 0.0424148 0)
(0.347115 0.0420833 0)
(0.333107 0.0428629 0)
(0.318856 0.0451922 0)
(0.304529 0.0480443 0)
(0.289927 0.0489775 0)
(0.275915 0.0477666 0)
(0.262476 0.0467839 0)
(0.249003 0.0469161 0)
(0.235061 0.0474882 0)
(0.220884 0.0479018 0)
(0.206525 0.0481967 0)
(0.191873 0.0485533 0)
(0.17724 0.0488845 0)
(0.162713 0.0491818 0)
(0.148293 0.0497128 0)
(0.133661 0.0506528 0)
(0.118969 0.0517714 0)
(0.103931 0.0530466 0)
(0.0885488 0.0544254 0)
(0.0729187 0.055917 0)
(0.0570953 0.0574788 0)
(0.0410896 0.0592119 0)
(0.0247581 0.0604204 0)
(0.00844526 0.0618788 0)
(3 -1.08466e-16 0)
(3 -1.37362e-16 0)
(3 3.66896e-17 0)
(3 -6.30297e-17 0)
(3 -1.47985e-16 0)
(3 -3.18448e-16 0)
(3 1.1727e-16 0)
(3 3.74601e-17 0)
(3 -4.12113e-18 0)
(3 1.29619e-15 0)
(3 8.94047e-16 0)
(3 5.77893e-16 0)
(3 -3.767e-16 0)
(3 -8.21712e-17 0)
(3 5.15849e-16 0)
(3 9.85491e-16 0)
(3 1.15409e-15 0)
(3 1.20215e-15 0)
(3 1.64395e-15 0)
(3 1.4964e-15 0)
(3 4.70331e-16 0)
(3 4.50339e-16 0)
(3 3.65183e-16 0)
(3 7.50321e-16 0)
(3 7.7688e-16 0)
(3 -1.27201e-16 0)
(3 -4.28251e-16 0)
(3 -9.19117e-16 0)
(3 -7.57891e-16 0)
(3 -7.43469e-16 0)
(3 -3.38754e-16 0)
(3 6.54239e-16 0)
(3 1.52831e-15 0)
(3 2.35393e-15 0)
(3 1.90219e-15 0)
(3 1.86028e-15 0)
(3 -9.23303e-17 0)
(3 -1.68027e-15 0)
(3 -2.35482e-15 0)
(3 -1.72834e-15 0)
(3 -4.22852e-17 0)
(3 -7.43048e-17 0)
(3 6.23013e-17 0)
(3 -6.17204e-16 0)
(3 1.97297e-16 0)
(3 1.34512e-16 0)
(3 -3.61232e-16 0)
(3 -1.11822e-15 0)
(3 -2.28775e-15 0)
(3 -2.61715e-15 0)
(3 -2.91402e-15 0)
(3 -2.87179e-15 0)
(3 -2.99991e-15 0)
(3 -1.703e-15 0)
(3 -3.55057e-16 0)
(3 1.39565e-15 0)
(3 2.07375e-15 0)
(3 2.1667e-15 0)
(3 8.03162e-16 0)
(3 -5.75119e-16 0)
(3 -2.18531e-15 0)
(3 -2.13198e-15 0)
(3 -1.91635e-15 0)
(2.94961 0.0164558 0)
(1.03722 0.0629862 0)
(0.741911 0.0492215 0)
(0.732773 0.0350847 0)
(0.720631 0.0316884 0)
(0.708554 0.0333344 0)
(0.697024 0.0381472 0)
(0.684967 0.0447014 0)
(0.672325 0.0512478 0)
(0.659449 0.0551675 0)
(0.647019 0.0547273 0)
(0.635379 0.0507149 0)
(0.62363 0.0455777 0)
(0.610824 0.0423332 0)
(0.597076 0.0427615 0)
(0.582888 0.0467915 0)
(0.568765 0.0533277 0)
(0.554661 0.0588704 0)
(0.541203 0.0597782 0)
(0.529225 0.0567233 0)
(0.517169 0.053482 0)
(0.503901 0.052995 0)
(0.489547 0.0558294 0)
(0.474267 0.0602068 0)
(0.458643 0.0623673 0)
(0.444035 0.0596606 0)
(0.431556 0.0543339 0)
(0.419988 0.0509894 0)
(0.409347 0.0511621 0)
(0.3987 0.0527215 0)
(0.386687 0.0540141 0)
(0.374434 0.0546112 0)
(0.361394 0.0545877 0)
(0.348658 0.0545095 0)
(0.334741 0.0557426 0)
(0.32034 0.0586634 0)
(0.305745 0.0620794 0)
(0.290713 0.0631247 0)
(0.276305 0.0616085 0)
(0.262481 0.0604964 0)
(0.248704 0.0607893 0)
(0.234553 0.0615953 0)
(0.220227 0.0620824 0)
(0.20564 0.0623617 0)
(0.190814 0.0627172 0)
(0.175944 0.0630726 0)
(0.161218 0.0634009 0)
(0.146696 0.063959 0)
(0.132123 0.0650345 0)
(0.117484 0.0662912 0)
(0.10263 0.0677549 0)
(0.0874654 0.0694863 0)
(0.0721278 0.0714504 0)
(0.0566473 0.0734832 0)
(0.0409471 0.0756287 0)
(0.0248292 0.0770223 0)
(0.00844883 0.0786747 0)
(3 4.35365e-17 0)
(3 2.54725e-16 0)
(3 7.83395e-16 0)
(3 7.98336e-16 0)
(3 3.53372e-16 0)
(3 -5.69402e-16 0)
(3 -2.94507e-16 0)
(3 2.30337e-17 0)
(3 -1.23722e-16 0)
(3 4.9016e-16 0)
(3 4.32267e-16 0)
(3 -4.11108e-16 0)
(3 -6.99701e-16 0)
(3 -1.17915e-15 0)
(3 -1.53724e-15 0)
(3 -6.88313e-16 0)
(3 8.43404e-16 0)
(3 3.03052e-16 0)
(3 -3.38302e-16 0)
(3 -4.76076e-17 0)
(3 -2.74071e-16 0)
(3 8.0491e-17 0)
(3 1.10421e-15 0)
(3 7.10436e-16 0)
(3 1.3284e-15 0)
(3 1.46421e-15 0)
(3 1.07099e-15 0)
(3 6.3252e-16 0)
(3 4.5658e-16 0)
(3 2.69313e-16 0)
(3 8.58363e-16 0)
(3 1.87668e-15 0)
(3 2.18875e-15 0)
(3 1.93178e-15 0)
(3 1.94658e-15 0)
(3 1.50681e-15 0)
(3 7.98346e-16 0)
(3 -2.5258e-17 0)
(3 -7.56994e-16 0)
(3 -6.5365e-16 0)
(3 -9.39135e-16 0)
(3 -7.58393e-16 0)
(3 -3.68444e-16 0)
(3 -7.79728e-16 0)
(3 -9.16577e-18 0)
(3 3.02721e-16 0)
(3 -5.11424e-16 0)
(3 -7.75631e-16 0)
(3 -1.63587e-15 0)
(3 -5.77034e-16 0)
(3 -6.55454e-16 0)
(3 -4.33871e-16 0)
(3 -8.75193e-16 0)
(3 -8.2013e-16 0)
(3 -6.83724e-16 0)
(3 -2.07205e-16 0)
(3 -1.65946e-17 0)
(3 7.09796e-16 0)
(3 1.34377e-16 0)
(3 -2.60417e-16 0)
(3 -1.27609e-16 0)
(3 -7.45632e-16 0)
(3 -1.42299e-15 0)
(2.96767 0.00503627 0)
(1.06697 0.0690665 0)
(0.749113 0.0567984 0)
(0.736166 0.0449263 0)
(0.723827 0.0435249 0)
(0.711574 0.0447993 0)
(0.699049 0.0491414 0)
(0.685778 0.0555053 0)
(0.672192 0.0621695 0)
(0.658787 0.0660345 0)
(0.646265 0.0655541 0)
(0.634966 0.0615296 0)
(0.623813 0.056422 0)
(0.611539 0.0532376 0)
(0.598023 0.0539426 0)
(0.583808 0.0586038 0)
(0.569518 0.0658156 0)
(0.555214 0.0712722 0)
(0.541904 0.0715488 0)
(0.530063 0.0683336 0)
(0.517885 0.0655619 0)
(0.504532 0.0658534 0)
(0.490193 0.0695375 0)
(0.474941 0.0742441 0)
(0.459409 0.075922 0)
(0.44505 0.0724333 0)
(0.432771 0.0663693 0)
(0.421229 0.0625572 0)
(0.410674 0.0627198 0)
(0.400122 0.0644824 0)
(0.388211 0.0657942 0)
(0.376102 0.0665303 0)
(0.363194 0.0667773 0)
(0.350488 0.067144 0)
(0.336592 0.0689287 0)
(0.322076 0.0724492 0)
(0.307276 0.0763285 0)
(0.291923 0.0773987 0)
(0.277189 0.0755678 0)
(0.262984 0.0743433 0)
(0.248892 0.0748236 0)
(0.234522 0.0759009 0)
(0.220062 0.0764742 0)
(0.205344 0.0767613 0)
(0.190457 0.0771266 0)
(0.175407 0.0775329 0)
(0.160465 0.0779201 0)
(0.145757 0.0785156 0)
(0.131173 0.0795893 0)
(0.116444 0.0809093 0)
(0.101759 0.0824786 0)
(0.0868077 0.0844553 0)
(0.0717273 0.0868227 0)
(0.0564761 0.0892755 0)
(0.040928 0.0917761 0)
(0.0249096 0.0933083 0)
(0.00846743 0.0951023 0)
(3 6.61852e-17 0)
(3 3.37927e-16 0)
(3 4.9426e-16 0)
(3 3.24977e-16 0)
(3 1.02038e-16 0)
(3 1.25365e-16 0)
(3 -5.02689e-16 0)
(3 -4.2622e-16 0)
(3 -8.83468e-17 0)
(3 -3.16636e-16 0)
(3 -9.05337e-16 0)
(3 -1.14301e-15 0)
(3 -8.49915e-17 0)
(3 -1.4088e-16 0)
(3 -4.79321e-16 0)
(3 -9.65221e-16 0)
(3 1.19677e-17 0)
(3 2.3081e-16 0)
(3 7.34135e-17 0)
(3 6.3709e-16 0)
(3 6.55489e-16 0)
(3 4.88367e-16 0)
(3 9.25303e-16 0)
(3 1.08185e-15 0)
(3 9.50243e-16 0)
(3 1.42476e-15 0)
(3 1.81763e-15 0)
(3 2.34044e-15 0)
(3 1.43372e-15 0)
(3 1.31999e-15 0)
(3 1.0328e-15 0)
(3 2.39993e-15 0)
(3 2.91432e-15 0)
(3 3.0303e-15 0)
(3 2.67453e-15 0)
(3 1.3613e-15 0)
(3 1.2137e-16 0)
(3 -1.51241e-15 0)
(3 -1.1799e-15 0)
(3 -1.06522e-15 0)
(3 -5.97719e-16 0)
(3 -7.30691e-18 0)
(3 -6.67434e-16 0)
(3 -7.13939e-16 0)
(3 -8.10846e-17 0)
(3 3.11375e-16 0)
(3 -5.74488e-17 0)
(3 5.40286e-16 0)
(3 4.72553e-16 0)
(3 -3.62369e-16 0)
(3 -6.25768e-16 0)
(3 -4.70579e-16 0)
(3 -1.8442e-16 0)
(3 4.36805e-16 0)
(3 1.10267e-15 0)
(3 9.7396e-16 0)
(3 1.25212e-15 0)
(3 -2.31914e-16 0)
(3 6.86515e-16 0)
(3 2.00949e-15 0)
(3 2.56453e-15 0)
(3 1.83978e-15 0)
(3 -2.24046e-15 0)
(2.99867 0.00158632 0)
(1.10313 0.07437 0)
(0.751767 0.0664626 0)
(0.737982 0.0557635 0)
(0.726694 0.0552523 0)
(0.71404 0.0565479 0)
(0.700312 0.0607462 0)
(0.685677 0.0671385 0)
(0.671147 0.0735399 0)
(0.657483 0.0766245 0)
(0.645297 0.0755913 0)
(0.634643 0.0715009 0)
(0.624183 0.0667308 0)
(0.61247 0.0640244 0)
(0.599283 0.0653024 0)
(0.585108 0.0707185 0)
(0.570605 0.0783628 0)
(0.55606 0.0832997 0)
(0.542799 0.0829324 0)
(0.530807 0.0798621 0)
(0.518357 0.0778509 0)
(0.504906 0.0790437 0)
(0.490754 0.0835005 0)
(0.475855 0.0882494 0)
(0.460683 0.089162 0)
(0.446726 0.0848957 0)
(0.434581 0.078248 0)
(0.422946 0.0740617 0)
(0.412301 0.074208 0)
(0.401717 0.076174 0)
(0.389845 0.0774925 0)
(0.377794 0.0784142 0)
(0.364901 0.0790544 0)
(0.352103 0.0800496 0)
(0.33814 0.0824605 0)
(0.323527 0.0865852 0)
(0.308641 0.0908338 0)
(0.29316 0.0918099 0)
(0.278283 0.0896134 0)
(0.263797 0.088261 0)
(0.249448 0.0889089 0)
(0.23491 0.0902677 0)
(0.220348 0.0909747 0)
(0.205584 0.0913248 0)
(0.190739 0.091746 0)
(0.175567 0.0922534 0)
(0.160386 0.0927507 0)
(0.145394 0.0933874 0)
(0.130711 0.0944807 0)
(0.115726 0.0957308 0)
(0.101201 0.0973216 0)
(0.0864779 0.0994444 0)
(0.0716163 0.102094 0)
(0.0564866 0.104866 0)
(0.0409632 0.107666 0)
(0.0249536 0.109318 0)
(0.00847621 0.111251 0)
(3 4.74019e-18 0)
(3 2.03597e-16 0)
(3 1.84539e-16 0)
(3 -3.1632e-16 0)
(3 -2.7839e-17 0)
(3 1.14782e-15 0)
(3 1.55648e-15 0)
(3 8.42791e-16 0)
(3 5.58075e-17 0)
(3 -6.49154e-16 0)
(3 -3.16061e-16 0)
(3 1.59502e-16 0)
(3 9.16308e-16 0)
(3 1.14356e-15 0)
(3 1.21012e-15 0)
(3 5.94258e-16 0)
(3 4.123e-16 0)
(3 1.91063e-16 0)
(3 4.87866e-16 0)
(3 8.81854e-16 0)
(3 1.13053e-15 0)
(3 1.35325e-15 0)
(3 7.00897e-16 0)
(3 5.00489e-16 0)
(3 5.48093e-16 0)
(3 3.28375e-16 0)
(3 6.36938e-16 0)
(3 6.01667e-16 0)
(3 2.08169e-16 0)
(3 2.64881e-16 0)
(3 3.90896e-16 0)
(3 1.85403e-15 0)
(3 1.81743e-15 0)
(3 1.74506e-15 0)
(3 7.98258e-16 0)
(3 -6.23152e-16 0)
(3 -1.25032e-15 0)
(3 -1.26057e-15 0)
(3 -1.1668e-15 0)
(3 -1.43645e-15 0)
(3 -1.38159e-15 0)
(3 -1.61992e-15 0)
(3 -1.47934e-15 0)
(3 -1.51609e-15 0)
(3 -1.20768e-15 0)
(3 -3.33727e-16 0)
(3 4.29018e-16 0)
(3 8.6297e-16 0)
(3 1.08495e-16 0)
(3 -6.67793e-16 0)
(3 -1.0761e-15 0)
(3 -6.98126e-16 0)
(3 1.06011e-16 0)
(3 3.56409e-16 0)
(3 1.41608e-15 0)
(3 1.61869e-15 0)
(3 1.70152e-15 0)
(3 1.32389e-15 0)
(3 1.24735e-15 0)
(3 1.22292e-15 0)
(3 9.9841e-16 0)
(3 8.70633e-16 0)
(3 -9.82302e-16 0)
(3 6.37782e-06 0)
(1.14706 0.086254 0)
(0.755383 0.0750507 0)
(0.740165 0.0652995 0)
(0.728815 0.0666234 0)
(0.71495 0.0686591 0)
(0.699871 0.0733587 0)
(0.684287 0.0797183 0)
(0.669528 0.0849028 0)
(0.656427 0.0865352 0)
(0.645209 0.0846 0)
(0.635304 0.0805494 0)
(0.625194 0.0765086 0)
(0.613613 0.0747906 0)
(0.600416 0.0770861 0)
(0.586066 0.0833964 0)
(0.571254 0.091068 0)
(0.556639 0.0949832 0)
(0.543568 0.0939287 0)
(0.531373 0.0912232 0)
(0.518609 0.0901796 0)
(0.505009 0.0923958 0)
(0.491009 0.0975525 0)
(0.476536 0.1021 0)
(0.461838 0.102105 0)
(0.448368 0.0971187 0)
(0.436355 0.0900034 0)
(0.424629 0.0855166 0)
(0.413838 0.0856393 0)
(0.403218 0.0878188 0)
(0.39144 0.0891991 0)
(0.379437 0.0903555 0)
(0.366511 0.0914832 0)
(0.353572 0.0932256 0)
(0.339493 0.096304 0)
(0.324792 0.101004 0)
(0.309909 0.105503 0)
(0.294448 0.106268 0)
(0.279566 0.103662 0)
(0.264868 0.102163 0)
(0.250284 0.102943 0)
(0.235592 0.104593 0)
(0.220903 0.105522 0)
(0.206129 0.106013 0)
(0.191359 0.106555 0)
(0.176138 0.107211 0)
(0.160734 0.107867 0)
(0.145398 0.108571 0)
(0.130472 0.109664 0)
(0.115309 0.110894 0)
(0.100867 0.112388 0)
(0.086395 0.114545 0)
(0.0717291 0.117332 0)
(0.0566598 0.120293 0)
(0.0410757 0.123334 0)
(0.0249997 0.125096 0)
(0.00847555 0.127197 0)
(3 -1.00041e-16 0)
(3 -4.91388e-16 0)
(3 -1.73844e-16 0)
(3 3.97219e-16 0)
(3 7.94143e-16 0)
(3 6.01917e-16 0)
(3 1.30508e-15 0)
(3 1.63912e-15 0)
(3 1.30184e-15 0)
(3 7.55193e-16 0)
(3 1.48247e-15 0)
(3 1.57068e-15 0)
(3 1.08366e-15 0)
(3 1.19763e-15 0)
(3 1.57672e-15 0)
(3 1.48301e-15 0)
(3 -2.99424e-16 0)
(3 -8.74733e-16 0)
(3 3.11885e-16 0)
(3 8.16319e-16 0)
(3 1.205e-15 0)
(3 1.18137e-15 0)
(3 7.66205e-16 0)
(3 5.22456e-16 0)
(3 2.22172e-17 0)
(3 6.71202e-17 0)
(3 -2.10352e-16 0)
(3 -9.68902e-16 0)
(3 -6.58019e-16 0)
(3 -7.62068e-16 0)
(3 -9.68652e-16 0)
(3 -4.24107e-17 0)
(3 9.48343e-17 0)
(3 -9.39792e-16 0)
(3 -3.42322e-15 0)
(3 -2.96169e-15 0)
(3 -2.26462e-15 0)
(3 -1.06591e-15 0)
(3 -9.19397e-16 0)
(3 -7.32602e-17 0)
(3 -1.26388e-15 0)
(3 -2.47997e-15 0)
(3 -2.53811e-15 0)
(3 -2.53198e-15 0)
(3 -1.75759e-15 0)
(3 -5.83522e-16 0)
(3 -1.85437e-16 0)
(3 2.24145e-16 0)
(3 -2.18935e-16 0)
(3 -5.86979e-16 0)
(3 -4.43e-16 0)
(3 6.23066e-17 0)
(3 4.76377e-16 0)
(3 1.20278e-15 0)
(3 1.21828e-15 0)
(3 1.05141e-15 0)
(3 1.6303e-15 0)
(3 1.75299e-15 0)
(3 1.04151e-15 0)
(3 4.44678e-17 0)
(3 -7.88694e-16 0)
(3 -7.82451e-16 0)
(3 -1.45473e-15 0)
(3 4.60291e-09 0)
(1.20325 0.0962753 0)
(0.760839 0.0825111 0)
(0.741938 0.0746383 0)
(0.729584 0.0781714 0)
(0.714096 0.0815406 0)
(0.698011 0.086799 0)
(0.682212 0.0923286 0)
(0.668287 0.0955307 0)
(0.656685 0.095279 0)
(0.646783 0.0925319 0)
(0.637272 0.0888964 0)
(0.62687 0.0860931 0)
(0.614792 0.0859008 0)
(0.601017 0.0895874 0)
(0.586166 0.0967294 0)
(0.571055 0.103781 0)
(0.556761 0.10618 0)
(0.544116 0.104465 0)
(0.531811 0.102378 0)
(0.518827 0.102497 0)
(0.505155 0.105865 0)
(0.491317 0.111596 0)
(0.477229 0.115659 0)
(0.463315 0.114676 0)
(0.450412 0.109001 0)
(0.438622 0.101489 0)
(0.426852 0.0967841 0)
(0.415833 0.0968921 0)
(0.405118 0.0993471 0)
(0.393395 0.100963 0)
(0.381333 0.102422 0)
(0.368306 0.104119 0)
(0.355181 0.106655 0)
(0.340982 0.110413 0)
(0.326236 0.115622 0)
(0.311437 0.120231 0)
(0.296095 0.120702 0)
(0.281278 0.117681 0)
(0.266377 0.11603 0)
(0.251516 0.116941 0)
(0.236645 0.118919 0)
(0.221769 0.12016 0)
(0.207022 0.120858 0)
(0.192266 0.121569 0)
(0.177117 0.122375 0)
(0.161564 0.123183 0)
(0.14588 0.12398 0)
(0.130564 0.125062 0)
(0.115379 0.126321 0)
(0.100827 0.12774 0)
(0.0865615 0.129821 0)
(0.0720642 0.132607 0)
(0.0570306 0.135635 0)
(0.0413378 0.138865 0)
(0.025128 0.140729 0)
(0.00848604 0.143032 0)
(3 -9.71413e-18 0)
(3 -3.21845e-16 0)
(3 -3.27142e-16 0)
(3 2.96586e-18 0)
(3 4.90245e-16 0)
(3 -6.52564e-17 0)
(3 -3.34187e-16 0)
(3 1.39373e-15 0)
(3 2.20135e-15 0)
(3 2.17583e-15 0)
(3 1.34354e-15 0)
(3 1.4451e-15 0)
(3 1.29676e-15 0)
(3 1.52823e-15 0)
(3 1.38167e-15 0)
(3 8.03956e-16 0)
(3 -1.01952e-15 0)
(3 -7.37114e-16 0)
(3 2.76951e-16 0)
(3 6.61799e-16 0)
(3 6.28768e-16 0)
(3 3.74426e-16 0)
(3 6.86371e-16 0)
(3 5.90024e-16 0)
(3 3.37462e-16 0)
(3 3.71631e-16 0)
(3 8.335e-16 0)
(3 8.11158e-16 0)
(3 -5.92339e-17 0)
(3 -1.10901e-16 0)
(3 1.80246e-16 0)
(3 -1.04961e-15 0)
(3 -1.05738e-15 0)
(3 -2.67619e-15 0)
(3 -2.82836e-15 0)
(3 -2.92097e-15 0)
(3 -2.52105e-15 0)
(3 -2.46054e-15 0)
(3 -1.95293e-15 0)
(3 -1.6229e-15 0)
(3 -8.05661e-16 0)
(3 -1.28558e-15 0)
(3 -2.10164e-15 0)
(3 -2.16271e-15 0)
(3 -1.33573e-15 0)
(3 -8.79837e-16 0)
(3 -6.34987e-16 0)
(3 -4.14296e-16 0)
(3 -1.29937e-16 0)
(3 -5.80941e-16 0)
(3 -2.524e-16 0)
(3 5.31541e-16 0)
(3 1.25306e-15 0)
(3 1.40877e-15 0)
(3 5.24347e-16 0)
(3 3.49734e-16 0)
(3 3.52258e-16 0)
(3 -8.21025e-17 0)
(3 1.58123e-16 0)
(3 -3.65427e-16 0)
(3 -9.94911e-16 0)
(3 -2.25073e-15 0)
(3 -2.58092e-15 0)
(3 2.29521e-13 0)
(1.27049 0.105722 0)
(0.76644 0.0899314 0)
(0.742602 0.0846844 0)
(0.729187 0.0905364 0)
(0.712564 0.0952574 0)
(0.696313 0.100418 0)
(0.681355 0.104005 0)
(0.669068 0.104685 0)
(0.659055 0.102665 0)
(0.649672 0.0997802 0)
(0.639763 0.0972532 0)
(0.628511 0.0961809 0)
(0.615474 0.0978407 0)
(0.600802 0.102987 0)
(0.585446 0.11046 0)
(0.570449 0.115995 0)
(0.557024 0.116598 0)
(0.544951 0.114566 0)
(0.53265 0.113348 0)
(0.519542 0.114803 0)
(0.505828 0.119404 0)
(0.492047 0.125471 0)
(0.478258 0.128734 0)
(0.465082 0.126777 0)
(0.452834 0.120519 0)
(0.441213 0.112759 0)
(0.429379 0.107953 0)
(0.418071 0.108062 0)
(0.407284 0.110865 0)
(0.39564 0.112906 0)
(0.383499 0.114705 0)
(0.370431 0.117001 0)
(0.357146 0.120297 0)
(0.34291 0.124707 0)
(0.328182 0.130328 0)
(0.313501 0.134916 0)
(0.298295 0.135054 0)
(0.283521 0.131658 0)
(0.268403 0.12988 0)
(0.25324 0.13095 0)
(0.238212 0.133278 0)
(0.223214 0.134889 0)
(0.20854 0.135829 0)
(0.193841 0.136722 0)
(0.178811 0.137649 0)
(0.163177 0.138579 0)
(0.147149 0.13949 0)
(0.131371 0.140615 0)
(0.115992 0.141987 0)
(0.10112 0.14339 0)
(0.0868887 0.14534 0)
(0.0724585 0.148035 0)
(0.0574278 0.151029 0)
(0.0416357 0.154391 0)
(0.0252922 0.156325 0)
(0.00848493 0.158843 0)
(3 9.39725e-17 0)
(3 4.54021e-16 0)
(3 4.98833e-16 0)
(3 7.67213e-16 0)
(3 2.32713e-16 0)
(3 -1.47531e-16 0)
(3 -4.97067e-16 0)
(3 3.34102e-17 0)
(3 1.74941e-16 0)
(3 -1.86176e-17 0)
(3 -5.88571e-17 0)
(3 -3.27417e-16 0)
(3 6.03448e-16 0)
(3 5.91308e-16 0)
(3 1.94448e-16 0)
(3 -8.15574e-16 0)
(3 -1.2881e-15 0)
(3 -9.09066e-16 0)
(3 -3.18272e-16 0)
(3 -8.16348e-17 0)
(3 -2.00292e-16 0)
(3 -7.96686e-16 0)
(3 -1.31165e-15 0)
(3 -9.60075e-16 0)
(3 7.28127e-16 0)
(3 1.82057e-15 0)
(3 1.5594e-15 0)
(3 1.82682e-15 0)
(3 1.1306e-15 0)
(3 1.15906e-15 0)
(3 8.8823e-16 0)
(3 -4.48544e-16 0)
(3 -1.64102e-15 0)
(3 -1.88066e-15 0)
(3 -1.38002e-15 0)
(3 -1.4449e-15 0)
(3 -1.47303e-15 0)
(3 -1.66564e-15 0)
(3 -2.47322e-15 0)
(3 -2.6811e-15 0)
(3 -5.62347e-16 0)
(3 -7.20974e-17 0)
(3 -1.8116e-16 0)
(3 -5.63383e-16 0)
(3 -1.12121e-15 0)
(3 -1.87114e-16 0)
(3 2.91546e-16 0)
(3 -3.9551e-17 0)
(3 -1.82272e-16 0)
(3 2.14268e-16 0)
(3 1.32329e-15 0)
(3 1.83949e-15 0)
(3 1.69872e-15 0)
(3 8.40006e-16 0)
(3 -9.78238e-16 0)
(3 -1.62594e-15 0)
(3 -1.11578e-15 0)
(3 -1.09464e-15 0)
(3 -3.03885e-16 0)
(3 9.03128e-16 0)
(3 -1.69688e-16 0)
(3 -2.97806e-15 0)
(3 -8.81687e-16 0)
(3 -4.6506e-15 0)
(1.35 0.115552 0)
(0.771612 0.098188 0)
(0.742455 0.0957127 0)
(0.728627 0.103329 0)
(0.711858 0.10894 0)
(0.696503 0.113095 0)
(0.683102 0.114123 0)
(0.672292 0.11218 0)
(0.662459 0.109547 0)
(0.652439 0.107474 0)
(0.641575 0.106482 0)
(0.629305 0.107357 0)
(0.615332 0.110898 0)
(0.600036 0.117185 0)
(0.584578 0.124023 0)
(0.57027 0.12721 0)
(0.558005 0.126216 0)
(0.546377 0.12432 0)
(0.534045 0.124315 0)
(0.520763 0.127329 0)
(0.506866 0.133113 0)
(0.49296 0.139087 0)
(0.479518 0.141182 0)
(0.46714 0.138305 0)
(0.455547 0.131675 0)
(0.444258 0.123812 0)
(0.432459 0.118988 0)
(0.421032 0.11913 0)
(0.410231 0.122304 0)
(0.398658 0.124881 0)
(0.386383 0.127096 0)
(0.37323 0.13003 0)
(0.359739 0.13407 0)
(0.345422 0.139114 0)
(0.330668 0.145065 0)
(0.316026 0.14954 0)
(0.300865 0.149354 0)
(0.286004 0.14566 0)
(0.270584 0.143804 0)
(0.255042 0.145077 0)
(0.239763 0.147765 0)
(0.224679 0.149772 0)
(0.209977 0.150988 0)
(0.195263 0.152069 0)
(0.180232 0.153098 0)
(0.164484 0.154123 0)
(0.148136 0.155148 0)
(0.131889 0.156347 0)
(0.116193 0.157882 0)
(0.100915 0.159324 0)
(0.0866131 0.161136 0)
(0.0722542 0.163679 0)
(0.0573323 0.166543 0)
(0.0416123 0.169958 0)
(0.0252938 0.171895 0)
(0.00841096 0.174601 0)
(3 1.27829e-16 0)
(3 4.24649e-16 0)
(3 3.23458e-16 0)
(3 1.17533e-16 0)
(3 -2.22769e-16 0)
(3 -1.38346e-16 0)
(3 -3.15033e-16 0)
(3 -4.89453e-16 0)
(3 -8.47027e-16 0)
(3 -1.19051e-15 0)
(3 -7.73602e-16 0)
(3 -1.22623e-15 0)
(3 -7.46338e-16 0)
(3 -8.66211e-16 0)
(3 -1.13641e-15 0)
(3 -1.21052e-15 0)
(3 -7.3621e-16 0)
(3 -9.23849e-16 0)
(3 -2.17233e-15 0)
(3 -2.54017e-15 0)
(3 -2.77319e-15 0)
(3 -2.83531e-15 0)
(3 -1.81571e-15 0)
(3 4.18039e-16 0)
(3 1.78689e-15 0)
(3 1.589e-15 0)
(3 1.37276e-15 0)
(3 1.3659e-15 0)
(3 1.84564e-15 0)
(3 1.76525e-15 0)
(3 6.96352e-16 0)
(3 -6.29475e-16 0)
(3 -1.68742e-15 0)
(3 -9.25358e-16 0)
(3 -5.78136e-16 0)
(3 -3.69462e-16 0)
(3 -2.33444e-16 0)
(3 -2.98098e-16 0)
(3 -2.73573e-16 0)
(3 -9.2895e-16 0)
(3 -1.57832e-15 0)
(3 5.91893e-16 0)
(3 5.08889e-16 0)
(3 4.52336e-16 0)
(3 1.99873e-16 0)
(3 -4.39719e-16 0)
(3 -5.2468e-16 0)
(3 2.46473e-16 0)
(3 5.30118e-16 0)
(3 1.57039e-15 0)
(3 2.17703e-15 0)
(3 1.21939e-15 0)
(3 5.70796e-16 0)
(3 -1.27894e-16 0)
(3 -7.82586e-16 0)
(3 -1.04428e-15 0)
(3 -7.24167e-16 0)
(3 3.9154e-16 0)
(3 4.75879e-16 0)
(3 7.45389e-16 0)
(3 8.81428e-16 0)
(3 -1.51271e-16 0)
(3 -1.7586e-15 0)
(3 -3.01761e-15 0)
(1.44458 0.126058 0)
(0.777212 0.107679 0)
(0.742214 0.107302 0)
(0.729167 0.116144 0)
(0.713231 0.121736 0)
(0.6993 0.124177 0)
(0.687131 0.122658 0)
(0.676053 0.119746 0)
(0.664985 0.117496 0)
(0.653537 0.116474 0)
(0.641337 0.117 0)
(0.628079 0.119686 0)
(0.613597 0.124797 0)
(0.598452 0.131505 0)
(0.583816 0.136573 0)
(0.571125 0.13714 0)
(0.560084 0.135067 0)
(0.54864 0.13388 0)
(0.536153 0.135479 0)
(0.52259 0.140247 0)
(0.508435 0.146995 0)
(0.494465 0.152196 0)
(0.48164 0.152739 0)
(0.470122 0.149035 0)
(0.459078 0.142293 0)
(0.447977 0.134609 0)
(0.436107 0.129956 0)
(0.424437 0.130277 0)
(0.413419 0.133864 0)
(0.401683 0.137042 0)
(0.389069 0.139783 0)
(0.375643 0.143389 0)
(0.361856 0.148149 0)
(0.347382 0.153781 0)
(0.332578 0.159967 0)
(0.31797 0.164247 0)
(0.302892 0.163733 0)
(0.288004 0.159789 0)
(0.272416 0.157881 0)
(0.256675 0.159377 0)
(0.241286 0.16243 0)
(0.226303 0.164832 0)
(0.211675 0.166319 0)
(0.197036 0.167574 0)
(0.181982 0.168679 0)
(0.166259 0.169751 0)
(0.149812 0.170872 0)
(0.133256 0.172153 0)
(0.117218 0.173854 0)
(0.101495 0.175407 0)
(0.0869286 0.177131 0)
(0.0724928 0.179545 0)
(0.0575903 0.182246 0)
(0.0418954 0.185664 0)