/*--------------------------------*- C++ -*----------------------------------*\
  =========                 |
  \\      /  F ield         | OpenFOAM: The Open Source CFD Toolbox
   \\    /   O peration     | Website:  https://openfoam.org
    \\  /    A nd           | Version:  7
     \\/     M anipulation  |
\*---------------------------------------------------------------------------*/
FoamFile
{
    version     2.0;
    format      ascii;
    class       volScalarField;
    location    "108.000116";
    object      p;
}
// * * * * * * * * * * * * * * * * * * * * * * * * * * * * * * * * * * * * * //

dimensions      [0 2 -2 0 0 0 0];

internalField   nonuniform List<scalar> 
5800
(
-0.31649
-0.318493
-0.319658
-0.320532
-0.321285
-0.32197
-0.322656
-0.323393
-0.324207
-0.325109
0.653545
0.636292
0.625708
0.614435
0.60006
0.582533
0.562285
0.539952
0.516177
0.491524
0.466465
0.653038
0.635802
0.625251
0.614025
0.599702
0.582227
0.562026
0.539735
0.515997
0.491375
0.466344
0.441296
0.416547
0.392353
0.368912
0.346372
0.324838
0.304402
0.285141
0.26708
0.647649
0.630572
0.620282
0.609408
0.595476
0.578389
0.558555
0.536602
0.513174
0.488836
0.464062
0.439246
0.414707
0.390701
0.367429
0.34504
0.323638
0.303309
0.284148
0.26623
0.637422
0.620645
0.610841
0.600618
0.587412
0.571048
0.551896
0.530576
0.50773
0.483923
0.459634
0.435257
0.411117
0.38747
0.364521
0.342424
0.321276
0.301158
0.282195
0.264561
0.622442
0.606103
0.597002
0.587724
0.57557
0.560256
0.542098
0.521699
0.4997
0.47667
0.453089
0.429356
0.405799
0.382679
0.360206
0.338537
0.317766
0.297961
0.279292
0.262072
0.602831
0.587064
0.578874
0.570822
0.560038
0.546091
0.52923
0.510034
0.489142
0.467125
0.44447
0.42158
0.398787
0.376358
0.354509
0.333404
0.313129
0.293738
0.275454
0.258768
0.578753
0.563685
0.556603
0.550044
0.540931
0.528657
0.513383
0.495661
0.476126
0.455354
0.433835
0.41198
0.390126
0.368546
0.347465
0.327054
0.307392
0.288515
0.270702
0.25466
0.550408
0.536157
0.530365
0.525548
0.518392
0.50808
0.49467
0.478681
0.460743
0.441434
0.421253
0.400617
0.379869
0.35929
0.339116
0.319524
0.300588
0.282321
0.265061
0.24976
0.51803
0.504708
0.50037
0.497522
0.492587
0.484508
0.473224
0.459212
0.443096
0.425459
0.406807
0.387564
0.368081
0.348649
0.329511
0.310857
0.292756
0.275194
0.258563
0.244086
0.481891
0.469599
0.466858
0.466183
0.463709
0.458113
0.449197
0.437389
0.423305
0.407535
0.390589
0.372903
0.354835
0.336684
0.318706
0.301104
0.283939
0.267172
0.25124
0.237658
0.442292
0.431118
0.430098
0.431773
0.431973
0.429085
0.422757
0.413363
0.401506
0.38778
0.372706
0.356727
0.340212
0.323469
0.306766
0.290319
0.274188
0.258301
0.243131
0.230502
0.399563
0.389588
0.390385
0.394556
0.397615
0.397635
0.394093
0.387299
0.377844
0.366325
0.353273
0.339139
0.324303
0.309083
0.293759
0.278564
0.263557
0.248629
0.234276
0.222646
0.354064
0.345352
0.348041
0.354822
0.360891
0.363989
0.363406
0.359378
0.352479
0.343311
0.332413
0.320247
0.307203
0.29361
0.279761
0.265904
0.252104
0.23821
0.224723
0.214122
0.306176
0.29878
0.303408
0.312879
0.322076
0.328392
0.330912
0.329791
0.325581
0.318888
0.31026
0.300169
0.289017
0.277142
0.264851
0.252411
0.239893
0.227101
0.214518
0.204963
0.256302
0.250262
0.256848
0.269053
0.28146
0.291098
0.296838
0.298739
0.297329
0.293215
0.286953
0.279029
0.269853
0.259775
0.249114
0.238159
0.226988
0.215361
0.203716
0.195205
0.204862
0.200205
0.208739
0.223687
0.239345
0.252378
0.261423
0.266433
0.267909
0.266456
0.26264
0.256955
0.249824
0.241608
0.232638
0.223224
0.213462
0.203057
0.192372
0.184888
0.152289
0.149028
0.159475
0.177134
0.196047
0.212509
0.224912
0.233092
0.237515
0.238783
0.237469
0.234079
0.229048
0.222745
0.215513
0.207686
0.199386
0.190259
0.180549
0.174046
0.0990273
0.0971607
0.109457
0.129758
0.151889
0.171776
0.187557
0.198939
0.206344
0.21037
0.211595
0.210539
0.207645
0.203292
0.197831
0.191624
0.184833
0.17705
0.168327
0.162719
0.0455245
0.045037
0.0590946
0.0819312
0.1072
0.130471
0.149615
0.1642
0.174597
0.181393
0.185176
0.18647
0.185734
0.183355
0.179688
0.175117
0.16987
0.16351
0.155801
0.150917
-0.00776957
-0.00690796
0.00879949
0.034027
0.0623122
0.0888849
0.111344
0.129103
0.142474
0.152032
0.158367
0.162013
0.163439
0.163043
0.16118
0.158246
0.154552
0.149721
0.143155
0.138687
-0.0604071
-0.0582439
-0.0410173
-0.01358
0.0175589
0.0473119
0.0730014
0.0938765
0.110177
0.122463
0.131325
0.137304
0.140881
0.142462
0.142404
0.141097
0.138931
0.135727
0.130614
0.125967
-0.111945
-0.108547
-0.0899508
-0.0605195
-0.0267299
0.00604188
0.0348426
0.058744
0.0779053
0.0928622
0.104205
0.11248
0.118177
0.121716
0.123453
0.123757
0.123047
0.121442
0.118352
0.113208
-0.161976
-0.157383
-0.137613
-0.10643
-0.07023
-0.0346402
-0.00288278
0.0239261
0.0458518
0.0634005
0.0771577
0.0876747
0.0954463
0.100905
0.104416
0.10632
0.107014
0.106855
0.105751
0.102355
-0.210262
-0.20425
-0.183651
-0.150961
-0.112627
-0.074458
-0.0399321
-0.0103638
0.0142053
0.0342442
0.0503306
0.0630167
0.0728021
0.080129
0.0853746
0.0888652
0.090953
0.0921111
0.0927156
0.0913777
-0.256283
-0.248822
-0.227773
-0.19379
-0.153621
-0.113146
-0.0760723
-0.0439209
-0.0168536
0.00555301
0.023864
0.0386306
0.0503547
0.059485
0.0664115
0.0714585
0.0749359
0.0773385
0.0793159
0.079641
-0.299574
-0.290872
-0.269475
-0.234676
-0.192932
-0.15045
-0.111082
-0.0765507
-0.0471534
-0.0225216
-0.00210809
0.0146345
0.028208
0.0390648
0.0476047
0.0541575
0.0590036
0.0626145
0.0657697
0.0674334
-0.339844
-0.330116
-0.308291
-0.273327
-0.230324
-0.186133
-0.144752
-0.108071
-0.0765333
-0.0498375
-0.02746
-0.00886078
0.00646011
0.0189553
0.0290306
0.037023
0.0431971
0.0479896
0.0522379
0.0551017
-0.376865
-0.366262
-0.344191
-0.309075
-0.265663
-0.219976
-0.176889
-0.138313
-0.104845
-0.0762629
-0.0520752
-0.0317521
-0.014798
-0.000762663
0.0107616
0.0201187
0.0275655
0.0335039
0.0387928
0.0427872
-0.410455
-0.399045
-0.376975
-0.341993
-0.298302
-0.251895
-0.207314
-0.167122
-0.131952
-0.101678
-0.0758469
-0.053945
-0.0354828
-0.0200146
-0.00713479
0.00350546
0.01216
0.0191954
0.0254693
0.0305316
-0.440436
-0.428277
-0.406424
-0.371934
-0.328312
-0.281438
-0.235906
-0.194362
-0.157733
-0.125974
-0.0986792
-0.0753546
-0.0555183
-0.038733
-0.0245979
-0.0127614
-0.00297096
0.00510317
0.0123011
0.0183683
-0.466673
-0.453831
-0.432375
-0.398696
-0.355569
-0.308597
-0.262455
-0.219896
-0.182079
-0.149056
-0.120487
-0.0959068
-0.0748373
-0.0568574
-0.0415736
-0.028633
-0.0177834
-0.00873359
-0.000673866
0.00633782
-0.489086
-0.475634
-0.454728
-0.422136
-0.379911
-0.333267
-0.286875
-0.243656
-0.204895
-0.170842
-0.141195
-0.115538
-0.0933803
-0.0743353
-0.0580144
-0.0440663
-0.0322381
-0.0222783
-0.0134192
-0.00552081
-0.507652
-0.49367
-0.473439
-0.442177
-0.401227
-0.355336
-0.309083
-0.265536
-0.226149
-0.191287
-0.160739
-0.134195
-0.111096
-0.0911221
-0.0738795
-0.0590243
-0.0463007
-0.0354993
-0.0259056
-0.017175
-0.522406
-0.507977
-0.488521
-0.458793
-0.419458
-0.37473
-0.329013
-0.285477
-0.245754
-0.210347
-0.17914
-0.151806
-0.127944
-0.107181
-0.0891345
-0.0734766
-0.0599421
-0.0483694
-0.0381125
-0.0285989
-0.533439
-0.518651
-0.500042
-0.472011
-0.434591
-0.391411
-0.346622
-0.303442
-0.26367
-0.227963
-0.196305
-0.168406
-0.143919
-0.122478
-0.103752
-0.0873986
-0.0731402
-0.060864
-0.0500242
-0.0397749
-0.540897
-0.525843
-0.508124
-0.481906
-0.446654
-0.405375
-0.361893
-0.319413
-0.279883
-0.244115
-0.212209
-0.183943
-0.158995
-0.137028
-0.117723
-0.100767
-0.0858829
-0.0729634
-0.0616162
-0.050705
-0.544976
-0.529755
-0.512943
-0.488604
-0.455714
-0.416648
-0.374832
-0.333392
-0.294395
-0.258809
-0.226858
-0.198398
-0.173148
-0.150795
-0.131039
-0.113592
-0.0981817
-0.0846583
-0.0728322
-0.06143
-0.545917
-0.530632
-0.514724
-0.492281
-0.461885
-0.425291
-0.385469
-0.345396
-0.30722
-0.272057
-0.240264
-0.211781
-0.186377
-0.163772
-0.143685
-0.125853
-0.110008
-0.0959775
-0.0836151
-0.0720226
-0.544003
-0.52876
-0.513735
-0.493156
-0.465322
-0.431401
-0.39386
-0.355462
-0.318385
-0.283883
-0.252445
-0.224107
-0.198696
-0.175967
-0.155664
-0.137543
-0.121354
-0.106911
-0.0940947
-0.08224
-0.539545
-0.524456
-0.510279
-0.491493
-0.466219
-0.435104
-0.400085
-0.363643
-0.327933
-0.294321
-0.263432
-0.235403
-0.210126
-0.187397
-0.166988
-0.148674
-0.132226
-0.117458
-0.104265
-0.092053
-0.532879
-0.518055
-0.504685
-0.487587
-0.464811
-0.436562
-0.40425
-0.370011
-0.335917
-0.303417
-0.273262
-0.245698
-0.220692
-0.198084
-0.177676
-0.159263
-0.142637
-0.127616
-0.114111
-0.10155
-0.524352
-0.509905
-0.497301
-0.481759
-0.461363
-0.435968
-0.406482
-0.374652
-0.342402
-0.311222
-0.28198
-0.255034
-0.230428
-0.208056
-0.18775
-0.169329
-0.152604
-0.1374
-0.123644
-0.110804
-0.514317
-0.500356
-0.488477
-0.474347
-0.456165
-0.433542
-0.406932
-0.377667
-0.347462
-0.317798
-0.28964
-0.263454
-0.239372
-0.217344
-0.197238
-0.178897
-0.16215
-0.146829
-0.132884
-0.119847
-0.503119
-0.489747
-0.47856
-0.465693
-0.449528
-0.429529
-0.405771
-0.379172
-0.351178
-0.32321
-0.296296
-0.271008
-0.247568
-0.225987
-0.206172
-0.187993
-0.1713
-0.155929
-0.14185
-0.128685
-0.491091
-0.478402
-0.46788
-0.456133
-0.441767
-0.424192
-0.403194
-0.379296
-0.35364
-0.327525
-0.302008
-0.27775
-0.255063
-0.234025
-0.21459
-0.196652
-0.180084
-0.164728
-0.150562
-0.137323
-0.47854
-0.466615
-0.456743
-0.445984
-0.433195
-0.417805
-0.399408
-0.378181
-0.354942
-0.330814
-0.306834
-0.283731
-0.261904
-0.241504
-0.222531
-0.20491
-0.188535
-0.173257
-0.159049
-0.14578
-0.465748
-0.454655
-0.445421
-0.435539
-0.424111
-0.410647
-0.394636
-0.375984
-0.355188
-0.333147
-0.31083
-0.289003
-0.268142
-0.248469
-0.230038
-0.212804
-0.196687
-0.181548
-0.167342
-0.154086
-0.452959
-0.442749
-0.434152
-0.425054
-0.414791
-0.402986
-0.389109
-0.372873
-0.354484
-0.334595
-0.314049
-0.293613
-0.273821
-0.254966
-0.237154
-0.220378
-0.20458
-0.189641
-0.175479
-0.162273
-0.440385
-0.431091
-0.423132
-0.414745
-0.405476
-0.395076
-0.383055
-0.369023
-0.352949
-0.335229
-0.316541
-0.297604
-0.278984
-0.261036
-0.243923
-0.227673
-0.212256
-0.197574
-0.183501
-0.170381
-0.428196
-0.419834
-0.412516
-0.404786
-0.396369
-0.387139
-0.376696
-0.364618
-0.350707
-0.335123
-0.31835
-0.301009
-0.283667
-0.266721
-0.250387
-0.234736
-0.219758
-0.205393
-0.191451
-0.178451
-0.416526
-0.409097
-0.402419
-0.395309
-0.387629
-0.379368
-0.370235
-0.359837
-0.347888
-0.334356
-0.319517
-0.303856
-0.287895
-0.272051
-0.256585
-0.241609
-0.227135
-0.213145
-0.199377
-0.186531
-0.405476
-0.398963
-0.392923
-0.386404
-0.379372
-0.371912
-0.363846
-0.354856
-0.344633
-0.333013
-0.320083
-0.306162
-0.291684
-0.277051
-0.262551
-0.248334
-0.234431
-0.220879
-0.207332
-0.194671
-0.395114
-0.389489
-0.384075
-0.378123
-0.371674
-0.364881
-0.357673
-0.349831
-0.341079
-0.331188
-0.320093
-0.307942
-0.295039
-0.281732
-0.268309
-0.25495
-0.241697
-0.22865
-0.215373
-0.202932
-0.385484
-0.380705
-0.3759
-0.370493
-0.364575
-0.358344
-0.351823
-0.344897
-0.337361
-0.328983
-0.319602
-0.309208
-0.297954
-0.286092
-0.273871
-0.261487
-0.248976
-0.236514
-0.223564
-0.211378
-0.376612
-0.372627
-0.368404
-0.363516
-0.358086
-0.352338
-0.346368
-0.340162
-0.333605
-0.326508
-0.318675
-0.309979
-0.300418
-0.290114
-0.279235
-0.267963
-0.25631
-0.244528
-0.231976
-0.220083
-0.368511
-0.365258
-0.361581
-0.357181
-0.352201
-0.346875
-0.341353
-0.335708
-0.32992
-0.323875
-0.317394
-0.310287
-0.302421
-0.293769
-0.284378
-0.274381
-0.263731
-0.252751
-0.240679
-0.229136
-0.361186
-0.358595
-0.355419
-0.35147
-0.346903
-0.341951
-0.336801
-0.331594
-0.326401
-0.321196
-0.315857
-0.310186
-0.303963
-0.297024
-0.289262
-0.280723
-0.271252
-0.261234
-0.249764
-0.238624
-0.35464
-0.352631
-0.349905
-0.346366
-0.342175
-0.337557
-0.332723
-0.327864
-0.323128
-0.318579
-0.314173
-0.309752
-0.305065
-0.299848
-0.293831
-0.286942
-0.278867
-0.270019
-0.259299
-0.248703
-0.34887
-0.347356
-0.345024
-0.341853
-0.338002
-0.333686
-0.329127
-0.324554
-0.320173
-0.316127
-0.31246
-0.309087
-0.30578
-0.302227
-0.298023
-0.292966
-0.286522
-0.279123
-0.269387
-0.259447
-0.343868
-0.342755
-0.340761
-0.337915
-0.334372
-0.330332
-0.326023
-0.321697
-0.317599
-0.31394
-0.310844
-0.308315
-0.306193
-0.304178
-0.301784
-0.298694
-0.294142
-0.288492
-0.280068
-0.271237
-0.339609
-0.338814
-0.337095
-0.334535
-0.331273
-0.327493
-0.323422
-0.319322
-0.315467
-0.312111
-0.309451
-0.307578
-0.306424
-0.305759
-0.30509
-0.304024
-0.301574
-0.298075
-0.291336
-0.283896
-0.336073
-0.335493
-0.333999
-0.331692
-0.32869
-0.325161
-0.321327
-0.317452
-0.313823
-0.310724
-0.3084
-0.307022
-0.306624
-0.307077
-0.307961
-0.308855
-0.308695
-0.307464
-0.303686
-0.297645
-0.333204
-0.332753
-0.331437
-0.329354
-0.326597
-0.323319
-0.319733
-0.316096
-0.312699
-0.309838
-0.307792
-0.306788
-0.306954
-0.308276
-0.31048
-0.31313
-0.315382
-0.316438
-0.316356
-0.311167
-0.330934
-0.330537
-0.329362
-0.327478
-0.324957
-0.321937
-0.318616
-0.315242
-0.312099
-0.309485
-0.307692
-0.306985
-0.307567
-0.309528
-0.312782
-0.316881
-0.321488
-0.324676
-0.328153
-0.324479
-0.329182
-0.328779
-0.327716
-0.326011
-0.323722
-0.320968
-0.317933
-0.314852
-0.311996
-0.309655
-0.308121
-0.307678
-0.308579
-0.310996
-0.315035
-0.320231
-0.326957
-0.331984
-0.338991
-0.337488
-0.327855
-0.327408
-0.326431
-0.324893
-0.322833
-0.320354
-0.317626
-0.314868
-0.312336
-0.310303
-0.309053
-0.308873
-0.310045
-0.312795
-0.317405
-0.323368
-0.331883
-0.338324
-0.34908
-0.349905
-0.326855
-0.326346
-0.325439
-0.32406
-0.322225
-0.320029
-0.317625
-0.315215
-0.313037
-0.311347
-0.310414
-0.310517
-0.311949
-0.314971
-0.320001
-0.326484
-0.336438
-0.343822
-0.358459
-0.36114
-0.326085
-0.325515
-0.324673
-0.323446
-0.321835
-0.319924
-0.317853
-0.315808
-0.314008
-0.312687
-0.312099
-0.312511
-0.314216
-0.317484
-0.322848
-0.329717
-0.340744
-0.348758
-0.366975
-0.37104
-0.325456
-0.324842
-0.324069
-0.322992
-0.321602
-0.319974
-0.318238
-0.316563
-0.315149
-0.314211
-0.313984
-0.314724
-0.316721
-0.320291
-0.325885
-0.333098
-0.344828
-0.353457
-0.374372
-0.379508
-0.32489
-0.324266
-0.32357
-0.322645
-0.32147
-0.32012
-0.318711
-0.3174
-0.316367
-0.315809
-0.315944
-0.317013
-0.319302
-0.323129
-0.328974
-0.336545
-0.348637
-0.358083
-0.38049
-0.386953
-0.324324
-0.323732
-0.32313
-0.322357
-0.321394
-0.32031
-0.319214
-0.318249
-0.317578
-0.317382
-0.31786
-0.319243
-0.32181
-0.32589
-0.331943
-0.33988
-0.352077
-0.362537
-0.385331
-0.393605
-0.323712
-0.323201
-0.322711
-0.322094
-0.321336
-0.320503
-0.319699
-0.319053
-0.318715
-0.318847
-0.319634
-0.321297
-0.324109
-0.328405
-0.334622
-0.342872
-0.355012
-0.366565
-0.388963
-0.399382
-0.323025
-0.322647
-0.322287
-0.32183
-0.321269
-0.320671
-0.320132
-0.319772
-0.319727
-0.320143
-0.321192
-0.323085
-0.326086
-0.330536
-0.336851
-0.345306
-0.357267
-0.369739
-0.391366
-0.403878
-0.322254
-0.322056
-0.321845
-0.32155
-0.321179
-0.320795
-0.320492
-0.320381
-0.320584
-0.321233
-0.322488
-0.324546
-0.327667
-0.332184
-0.338502
-0.347003
-0.358671
-0.37175
-0.392385
-0.406824
-0.321403
-0.321429
-0.321383
-0.321252
-0.321059
-0.32087
-0.320773
-0.320872
-0.321276
-0.322105
-0.323503
-0.325657
-0.328815
-0.333295
-0.339495
-0.347845
-0.359075
-0.37233
-0.391767
-0.407369
-0.320494
-0.320781
-0.320911
-0.320943
-0.320919
-0.320904
-0.320984
-0.321255
-0.321814
-0.322768
-0.324248
-0.326425
-0.32953
-0.333858
-0.339797
-0.34778
-0.358388
-0.371321
-0.389368
-0.405442
-0.319563
-0.320137
-0.320451
-0.320643
-0.320777
-0.320917
-0.321146
-0.321553
-0.322225
-0.323255
-0.324758
-0.326884
-0.329844
-0.333909
-0.339431
-0.346822
-0.356588
-0.368696
-0.385144
-0.318659
-0.319534
-0.320034
-0.320381
-0.320662
-0.320938
-0.321292
-0.321805
-0.322553
-0.323615
-0.325086
-0.327097
-0.329826
-0.333514
-0.338468
-0.345063
-0.353702
-0.364586
-0.3791
-0.317836
-0.319017
-0.3197
-0.320195
-0.320611
-0.321008
-0.321466
-0.32206
-0.322853
-0.323909
-0.325304
-0.327141
-0.329565
-0.332772
-0.337017
-0.342615
-0.349893
-0.359178
-0.371177
-0.317158
-0.318636
-0.319494
-0.320127
-0.320666
-0.321171
-0.321717
-0.322372
-0.323186
-0.324208
-0.325491
-0.327107
-0.329163
-0.331803
-0.335218
-0.339646
-0.345346
-0.35263
-0.361848
-0.316689
-0.318444
-0.319464
-0.320224
-0.320876
-0.321476
-0.322097
-0.322797
-0.323617
-0.324584
-0.325729
-0.327092
-0.328732
-0.330737
-0.333227
-0.336349
-0.340279
-0.345247
-0.351424
0.116798
0.119316
0.125889
0.131365
0.13886
0.143209
0.147635
0.14627
0.144378
0.133113
0.117917
0.120495
0.127341
0.13314
0.141225
0.146421
0.152112
0.152374
0.152753
0.144205
0.119016
0.121608
0.128729
0.134819
0.143508
0.149486
0.156403
0.158155
0.160581
0.154618
0.120076
0.122685
0.130091
0.136466
0.145741
0.152471
0.160549
0.163762
0.168023
0.164577
0.121094
0.123715
0.131404
0.138046
0.147879
0.155332
0.164496
0.169147
0.17508
0.17407
0.122067
0.124707
0.132664
0.139558
0.149923
0.158069
0.168238
0.174292
0.18176
0.183074
0.122992
0.125605
0.133873
0.141
0.151863
0.160678
0.171766
0.179178
0.188062
0.191575
0.123869
0.126485
0.134997
0.142365
0.153692
0.16315
0.175075
0.183784
0.193981
0.199555
0.124696
0.127306
0.13614
0.143656
0.155404
0.165477
0.178159
0.188092
0.199506
0.206995
0.12547
0.128056
0.136957
0.144864
0.156993
0.16765
0.181012
0.192087
0.204624
0.213876
0.126185
0.128756
0.137968
0.145979
0.158453
0.169662
0.183631
0.195755
0.20932
0.220181
0.126841
0.129397
0.138794
0.146994
0.15978
0.171502
0.186011
0.199085
0.213583
0.225892
0.127433
0.129974
0.139562
0.147913
0.160971
0.173163
0.188146
0.202068
0.217399
0.230995
0.127959
0.130485
0.140238
0.148729
0.162021
0.174636
0.190032
0.204696
0.220757
0.235477
0.128417
0.13093
0.140826
0.149439
0.162929
0.175914
0.191662
0.206961
0.223651
0.239329
0.128804
0.131305
0.141323
0.150039
0.163692
0.176991
0.193032
0.20886
0.226071
0.242544
0.129119
0.131611
0.141724
0.150525
0.164307
0.177862
0.194138
0.210386
0.228015
0.245119
0.12936
0.131843
0.142062
0.150898
0.164774
0.178522
0.194974
0.211536
0.229477
0.247052
0.129525
0.132002
0.142144
0.151151
0.165088
0.178965
0.195535
0.212307
0.230456
0.248343
0.129616
0.13209
0.142284
0.151289
0.165262
0.179208
0.195833
0.212711
0.230971
0.249014
0.0284307
0.0274875
0.0259476
0.024139
0.0222702
0.020479
0.0188281
0.0173487
0.0160418
0.0149012
0.0285227
0.0275754
0.026026
0.0242071
0.022327
0.0205255
0.0188645
0.017376
0.0160604
0.014912
0.0287017
0.0277459
0.0261789
0.02434
0.0224385
0.0206165
0.0189357
0.0174292
0.0160971
0.014934
0.0289629
0.0279949
0.0264029
0.0245348
0.022602
0.0207499
0.0190402
0.0175073
0.016151
0.0149666
0.0293026
0.0283191
0.0266949
0.024789
0.0228155
0.0209242
0.0191767
0.0176095
0.0162216
0.0150093
0.0297175
0.0287154
0.0270523
0.0251005
0.0230774
0.0211381
0.0193444
0.017735
0.0163084
0.015062
0.0302045
0.0291811
0.0274728
0.0254674
0.0233862
0.0213906
0.0195424
0.0178835
0.0164112
0.0151243
0.030761
0.0297139
0.0279543
0.0258882
0.0237409
0.021681
0.0197705
0.0180545
0.0165297
0.0151962
0.0313844
0.0303117
0.0284952
0.0263618
0.0241407
0.0220088
0.0200282
0.0182481
0.0166639
0.0152778
0.0320727
0.0309727
0.0290941
0.026887
0.0245848
0.0223737
0.0203154
0.0184641
0.0168139
0.0153692
0.0328237
0.0316953
0.0297495
0.0274631
0.025073
0.0227756
0.0206323
0.0187029
0.0169799
0.0154707
0.0336355
0.032478
0.0304605
0.0280894
0.0256049
0.0232145
0.020979
0.0189647
0.0171623
0.0155825
0.0345064
0.0333194
0.0312258
0.0287654
0.0261804
0.0236907
0.021356
0.0192499
0.0173615
0.0157052
0.0354344
0.0342181
0.0320447
0.0294908
0.0267997
0.0242046
0.0217637
0.0195592
0.0175781
0.0158392
0.0364181
0.0351731
0.0329161
0.0302653
0.0274629
0.0247566
0.0222027
0.0198933
0.0178129
0.0159854
0.0374556
0.036183
0.0338393
0.0310887
0.0281703
0.0253474
0.0226738
0.020253
0.0180667
0.0161445
0.0385454
0.0372467
0.0348135
0.0319609
0.0289223
0.0259777
0.023178
0.0206393
0.0183404
0.0163175
0.0396857
0.0383629
0.0358377
0.032882
0.0297194
0.0266483
0.0237163
0.0210534
0.0186351
0.0165054
0.0408748
0.0395304
0.0369113
0.033852
0.0305621
0.0273603
0.0242896
0.0214964
0.0189522
0.0167094
0.0421111
0.0407478
0.0380334
0.0348709
0.0314512
0.0281147
0.0248994
0.0219698
0.019293
0.0169309
0.0433927
0.0420137
0.039203
0.0359391
0.0323872
0.0289125
0.025547
0.0224751
0.019659
0.0171714
0.0447179
0.0433268
0.0404195
0.0370566
0.0333709
0.029755
0.0262338
0.0230139
0.0200519
0.0174325
0.0460848
0.0446853
0.0416818
0.0382236
0.034403
0.0306434
0.0269614
0.0235881
0.0204734
0.017716
0.0474914
0.0460877
0.042989
0.0394404
0.0354843
0.0315791
0.0277316
0.0241995
0.0209256
0.0180238
0.0489358
0.047532
0.0443402
0.0407072
0.0366155
0.0325634
0.028546
0.0248502
0.0214105
0.018358
0.050416
0.0490165
0.0457345
0.042024
0.0377973
0.0335978
0.0294066
0.0255424
0.0219303
0.0187207
0.0519297
0.0505391
0.0471707
0.0433911
0.0390304
0.0346838
0.0303155
0.0262783
0.0224873
0.0191144
0.0534749
0.0520977
0.0486479
0.0448083
0.0403154
0.035823
0.0312746
0.0270605
0.0230842
0.0195416
0.0550492
0.0536899
0.0501651
0.0462758
0.041653
0.037017
0.0322862
0.0278915
0.0237235
0.020005
0.0566505
0.0553135
0.051721
0.0477932
0.0430436
0.0382675
0.0333526
0.0287739
0.0244081
0.0205073
0.0582763
0.056966
0.0533147
0.0493603
0.044488
0.0395761
0.034476
0.0297104
0.0251407
0.0210517
0.0599242
0.0586449
0.054945
0.0509766
0.0459864
0.0409446
0.0356589
0.030704
0.0259246
0.0216412
0.0615918
0.0603475
0.0566106
0.0526416
0.0475393
0.0423746
0.0369037
0.0317576
0.0267628
0.0222791
0.0632765
0.0620713
0.0583104
0.0543543
0.0491471
0.043868
0.0382127
0.0328742
0.0276588
0.022969
0.0649757
0.0638134
0.060043
0.0561138
0.0508102
0.0454265
0.0395885
0.034057
0.0286159
0.0237145
0.0666869
0.0655712
0.061807
0.057919
0.0525288
0.0470515
0.0410336
0.0353092
0.0296379
0.0245193
0.0684075
0.067342
0.063601
0.0597683
0.0543031
0.0487448
0.0425502
0.0366341
0.0307285
0.0253873
0.0701348
0.0691229
0.0654233
0.0616603
0.0561334
0.0505077
0.0441409
0.0380351
0.0318916
0.0263228
0.0718661
0.0709112
0.0672725
0.0635932
0.0580197
0.0523415
0.0458081
0.0395157
0.0331312
0.0273299
0.0735988
0.0727043
0.0691466
0.065565
0.0599621
0.0542474
0.047554
0.0410793
0.0344514
0.028413
0.0753303
0.0744994
0.0710438
0.0675736
0.0619605
0.0562264
0.049381
0.0427295
0.0358565
0.0295767
0.0770579
0.076294
0.072962
0.0696167
0.0640147
0.0582791
0.0512913
0.0444699
0.0373508
0.0308257
0.0787791
0.0780854
0.0748992
0.071692
0.0661246
0.0604059
0.0532872
0.0463042
0.0389388
0.0321647
0.0804913
0.0798712
0.0768529
0.0737968
0.0682895
0.0626072
0.0553707
0.0482361
0.0406249
0.0335988
0.082192
0.081649
0.0788208
0.0759285
0.0705088
0.0648827
0.0575438
0.050269
0.0424137
0.035133
0.0838788
0.0834164
0.0808003
0.0780844
0.0727818
0.0672321
0.0598086
0.0524066
0.0443098
0.0367726
0.0855493
0.0851711
0.0827888
0.0802616
0.0751073
0.0696547
0.0621669
0.0546524
0.0463178
0.0385229
0.0872013
0.086911
0.0847834
0.0824572
0.077484
0.0721495
0.0646204
0.0570097
0.0484424
0.0403895
0.0888326
0.088634
0.0867813
0.0846683
0.0799102
0.0747151
0.0671709
0.0594817
0.0506882
0.0423779
0.0904411
0.0903381
0.0887794
0.086892
0.0823842
0.0773498
0.0698197
0.0620715
0.0530599
0.0444939
0.0920248
0.0920214
0.0907749
0.0891251
0.0849036
0.0800517
0.0725682
0.0647819
0.0555619
0.0467435
0.093582
0.093682
0.0927645
0.0913647
0.0874658
0.0828185
0.0754174
0.0676154
0.0581989
0.0491326
0.0951108
0.0953182
0.0947451
0.0936078
0.0900679
0.0856476
0.0783683
0.0705742
0.0609755
0.0516676
0.0966098
0.0969284
0.0967137
0.0958513
0.0927067
0.0885361
0.0814213
0.0736602
0.063896
0.0543548
0.0980775
0.098511
0.0986671
0.0980922
0.0953786
0.0914809
0.0845767
0.0768747
0.0669651
0.0572006
0.0995124
0.100065
0.100602
0.100327
0.0980795
0.0944785
0.0878345
0.0802187
0.0701872
0.0602118
0.100914
0.101588
0.102516
0.102554
0.100805
0.0975253
0.091194
0.0836927
0.0735671
0.0633951
0.10228
0.103079
0.104406
0.104769
0.103551
0.100617
0.0946542
0.0872965
0.0771097
0.0667572
0.10361
0.104538
0.106269
0.10697
0.106312
0.103751
0.0982136
0.0910295
0.0808202
0.0703051
0.104904
0.105963
0.108102
0.109152
0.109082
0.106921
0.10187
0.0948906
0.0847042
0.0740455
0.106161
0.107353
0.109904
0.111315
0.111858
0.110124
0.10562
0.0988779
0.0887682
0.0779846
0.10738
0.108707
0.11167
0.113454
0.114632
0.113355
0.109461
0.102989
0.0930194
0.0821278
0.108561
0.110024
0.1134
0.115567
0.117398
0.116609
0.113387
0.107223
0.0974666
0.0864786
0.109703
0.111304
0.115091
0.117651
0.120152
0.11988
0.117393
0.111575
0.102122
0.0910408
0.110807
0.112546
0.116741
0.119703
0.122886
0.123165
0.121471
0.116044
0.107001
0.0958254
0.111873
0.113749
0.118349
0.121721
0.125597
0.126459
0.125616
0.120628
0.112118
0.100846
0.1129
0.114914
0.119915
0.123704
0.128279
0.129759
0.129819
0.125323
0.117472
0.106059
0.113888
0.11604
0.121435
0.125649
0.130924
0.133052
0.134052
0.130108
0.123045
0.111266
0.114838
0.117122
0.1229
0.127533
0.133499
0.136294
0.138262
0.134953
0.12892
0.116338
0.115752
0.118152
0.124299
0.129329
0.135985
0.13947
0.142503
0.140004
0.135624
0.122411
0.0141552
0.0137277
0.0132991
0.012871
0.0124437
0.0120168
0.0115904
0.0111649
0.0107408
0.0103186
0.00989851
0.00948101
0.00906639
0.008655
0.00824716
0.00784319
0.00744342
0.00704814
0.00665765
0.00627225
0.0141613
0.0137324
0.0133025
0.0128736
0.0124453
0.0120173
0.0115896
0.0111627
0.0107369
0.0103128
0.00989069
0.00947094
0.00905389
0.00863991
0.00822934
0.00782251
0.00741976
0.0070214
0.00662771
0.00623897
0.0141746
0.0137419
0.0133082
0.0128754
0.0124432
0.0120111
0.0115792
0.0111478
0.0107175
0.0102887
0.00986183
0.00943726
0.00901534
0.00859644
0.00818092
0.00776914
0.00736144
0.00695817
0.00655965
0.00616622
0.014194
0.0137546
0.0133144
0.0128752
0.0124366
0.011998
0.0115595
0.0111215
0.0106845
0.010249
0.00981543
0.00938413
0.00895547
0.00852983
0.00810759
0.00768913
0.00727478
0.00686492
0.00645987
0.00605995
0.014219
0.0137704
0.0133211
0.0128732
0.012426
0.0119788
0.0115315
0.0110847
0.0106389
0.0101947
0.00975235
0.00931231
0.00887494
0.00844063
0.00800977
0.00758275
0.00715991
0.00674164
0.00632827
0.00592014
0.0142496
0.0137892
0.0133284
0.0128695
0.0124116
0.0119536
0.0114954
0.0110377
0.0105811
0.010126
0.00967294
0.00922222
0.00877424
0.00832939
0.00788809
0.00745071
0.00701763
0.00658923
0.00616586
0.00574787
0.0142857
0.013811
0.0133364
0.0128643
0.0123935
0.0119225
0.0114514
0.0109807
0.0105112
0.0100434
0.00957766
0.00911436
0.00865391
0.0081967
0.00774315
0.00729366
0.00684861
0.00640838
0.00597332
0.00554381
0.0143273
0.0138358
0.013345
0.0128577
0.0123718
0.0118858
0.0113997
0.0109141
0.0104297
0.00994717
0.00946684
0.0089891
0.00851432
0.00804294
0.00757536
0.007112
0.00665324
0.00619947
0.00575106
0.00530836
0.0143744
0.0138636
0.0133545
0.0128496
0.0123467
0.0118438
0.0113406
0.0108379
0.0103368
0.00983756
0.00934075
0.00884668
0.00835574
0.00786836
0.00738497
0.00690597
0.00643178
0.00596276
0.0054993
0.00504177
0.0144271
0.0138947
0.0133648
0.0128405
0.0123185
0.0117964
0.0112741
0.0107525
0.0102326
0.00971477
0.00919957
0.00868729
0.00817834
0.00767314
0.00717214
0.00667574
0.00618435
0.00569837
0.00521816
0.00474411
0.0144858
0.0139291
0.0133763
0.0128303
0.0122872
0.0117441
0.0112007
0.010658
0.0101173
0.00957896
0.00904344
0.00851106
0.00798223
0.00745737
0.00693693
0.00642134
0.00591099
0.00540629
0.00490762
0.00441534
0.0145507
0.0139673
0.0133892
0.0128195
0.0122532
0.0116869
0.0111203
0.0105547
0.0099911
0.00943027
0.00887249
0.0083181
0.00776748
0.00722109
0.00667937
0.00614275
0.00561164
0.00508644
0.00456753
0.00405529
0.0146222
0.0140096
0.0134038
0.0128082
0.0122167
0.0116252
0.0110334
0.0104426
0.00985419
0.00926884
0.00868682
0.00810845
0.00753412
0.00696428
0.00639939
0.00583988
0.00528616
0.00473864
0.00419769
0.0036637
0.014701
0.0140564
0.0134206
0.0127969
0.0121781
0.0115593
0.01094
0.010322
0.00970673
0.00909481
0.00848653
0.00788218
0.00728214
0.0066869
0.00609691
0.00551259
0.00493438
0.00436265
0.00379782
0.00324025
0.0147875
0.0141084
0.0134401
0.0127861
0.0121379
0.0114895
0.0108407
0.0101933
0.00954892
0.00890833
0.00827171
0.00763932
0.00701156
0.0063889
0.00577181
0.00516072
0.00455605
0.0039582
0.00336756
0.00278451
0.0148827
0.0141661
0.0134628
0.0127762
0.0120963
0.0114163
0.0107356
0.0100566
0.00938101
0.00870958
0.00804248
0.00737994
0.00672235
0.00607019
0.00542395
0.00478406
0.00415092
0.00352495
0.00290653
0.00229605
0.0149873
0.0142306
0.0134894
0.0127679
0.0120541
0.01134
0.0106253
0.00991233
0.00920325
0.00849876
0.00779898
0.0071041
0.00641451
0.00573072
0.0050532
0.00438239
0.00371871
0.00306255
0.0024143
0.00177435
0.0151024
0.0143025
0.0135207
0.0127618
0.0120118
0.0112614
0.0105101
0.00976089
0.00901598
0.00827611
0.00754136
0.00681187
0.00608805
0.00537039
0.0046594
0.0039555
0.0032591
0.00257061
0.0018904
0.00121888
0.0152292
0.014383
0.0135577
0.0127588
0.0119701
0.0111809
0.0103907
0.00960272
0.00881955
0.00804191
0.00726982
0.00650338
0.00574299
0.00498916
0.0042424
0.00350315
0.00277179
0.00204873
0.00133436
0.000629073
0.0153689
0.0144733
0.0136014
0.0127598
0.0119299
0.0110994
0.0102676
0.00943835
0.00861439
0.00779649
0.00698459
0.00617876
0.00537938
0.00458699
0.00380209
0.00302511
0.00225645
0.00149651
0.000745671
4.33433e-06
0.0155231
0.0145747
0.0136529
0.0127657
0.011892
0.0110176
0.0101416
0.00926836
0.00840097
0.00754023
0.00668596
0.00583819
0.00499731
0.00416385
0.00333833
0.00252117
0.00171278
0.000913533
0.000123821
-0.000655944
0.0156931
0.0146885
0.0137134
0.0127777
0.0118574
0.0109363
0.0100134
0.0090934
0.00817986
0.00727356
0.00637425
0.0054819
0.00459688
0.00371975
0.00285103
0.00199113
0.00114046
0.000299381
-0.000531707
-0.00135238
0.0158809
0.0148165
0.0137843
0.0127969
0.0118273
0.0108567
0.00988384
0.00891422
0.00795165
0.00699698
0.00604984
0.00511014
0.00417824
0.00325473
0.0023401
0.0014348
0.000539184
-0.000346357
-0.00122144
-0.00208562
0.0160883
0.0149604
0.0138672
0.0128248
0.0118027
0.0107797
0.00975393
0.00873162
0.00771704
0.00671105
0.00571317
0.00472323
0.00374159
0.00276885
0.00180551
0.000851996
-9.13293e-05