/*--------------------------------*- C++ -*----------------------------------*\
  =========                 |
  \\      /  F ield         | OpenFOAM: The Open Source CFD Toolbox
   \\    /   O peration     | Website:  https://openfoam.org
    \\  /    A nd           | Version:  7
     \\/     M anipulation  |
\*---------------------------------------------------------------------------*/
FoamFile
{
    version     2.0;
    format      ascii;
    class       surfaceScalarField;
    location    "74.999988";
    object      phi;
}
// * * * * * * * * * * * * * * * * * * * * * * * * * * * * * * * * * * * * * //

dimensions      [0 3 -1 0 0 0 0];

internalField   nonuniform List<scalar> 
11438
(
-0.000276131
-0.000578853
-0.000246138
-0.000756543
-0.000188133
-0.000890971
-0.000111114
-0.000981748
-0.00102829
0.0164748
-9.84629e-06
0.0164847
-9.85684e-06
0.0164945
-9.85488e-06
0.0165044
-9.83952e-06
0.0165142
-9.80984e-06
0.0165239
-9.76487e-06
0.0165337
-9.70361e-06
0.0165433
-9.62504e-06
0.0165528
-9.52813e-06
0.0165622
-9.41182e-06
0.0165715
-9.27505e-06
0.0165806
-9.11673e-06
0.0165895
-8.93577e-06
0.0165983
-8.73107e-06
0.0166068
-8.50153e-06
0.016615
-8.24607e-06
0.016623
-7.9636e-06
0.0166306
-7.65304e-06
0.016638
-7.31337e-06
0.0166449
-6.94354e-06
0.0166514
-6.5426e-06
0.0166576
-6.1096e-06
0.0166632
-5.64366e-06
0.0166683
-5.14395e-06
0.0166729
-4.60972e-06
0.016677
-4.04029e-06
0.0166804
-3.43508e-06
0.0166832
-2.79357e-06
0.0166853
-2.1154e-06
0.0166867
-1.40021e-06
0.0166874
-6.47827e-07
0.0166872
1.4195e-07
0.0166863
9.67192e-07
0.0166844
1.82976e-06
0.0166817
2.72847e-06
0.016678
3.66301e-06
0.0166734
4.63196e-06
0.0166678
5.6351e-06
0.0166611
6.67008e-06
0.0166534
7.73708e-06
0.0166445
8.83223e-06
0.0166346
9.95668e-06
0.0166235
1.11042e-05
0.0166112
1.2278e-05
0.0165977
1.34681e-05
0.0165831
1.46811e-05
0.0165672
1.59014e-05
0.01655
1.71418e-05
0.0165316
1.83774e-05
0.016512
1.96312e-05
0.0164911
2.08644e-05
0.016469
2.21153e-05
0.0164457
2.33255e-05
0.0164211
2.45546e-05
0.0163954
2.57185e-05
0.0163685
2.69041e-05
0.0163405
2.79961e-05
0.0163114
2.9112e-05
0.0162813
3.0106e-05
0.0162502
3.1119e-05
0.0162182
3.19918e-05
0.0161853
3.28579e-05
0.0161517
3.36006e-05
3.42354e-05
0.0161505
-1.95275e-05
0.0161601
-1.95489e-05
0.0161698
-1.95452e-05
0.0161795
-1.95147e-05
0.0161892
-1.94557e-05
0.0161988
-1.93661e-05
0.0162083
-1.92442e-05
0.0162178
-1.90878e-05
0.0162271
-1.88949e-05
0.0162364
-1.86635e-05
0.0162455
-1.83914e-05
0.0162545
-1.80765e-05
0.0162632
-1.77166e-05
0.0162718
-1.73097e-05
0.0162802
-1.68534e-05
0.0162883
-1.63457e-05
0.0162961
-1.57845e-05
0.0163036
-1.51675e-05
0.0163108
-1.44927e-05
0.0163176
-1.37582e-05
0.016324
-1.2962e-05
0.01633
-1.21022e-05
0.0163355
-1.11771e-05
0.0163406
-1.01851e-05
0.0163451
-9.12467e-06
0.0163491
-7.99451e-06
0.0163524
-6.79346e-06
0.0163551
-5.52051e-06
0.0163572
-4.17494e-06
0.0163586
-2.7561e-06
0.0163592
-1.26356e-06
0.016359
3.02958e-07
0.016358
1.93975e-06
0.0163562
3.65036e-06
0.0163535
5.4326e-06
0.0163499
7.28554e-06
0.0163453
9.20682e-06
0.0163398
1.11953e-05
0.0163332
1.32474e-05
0.0163256
1.5362e-05
0.0163168
1.75334e-05
0.016307
1.97611e-05
0.0162961
2.20366e-05
0.016284
2.43609e-05
0.0162708
2.67215e-05
0.0162563
2.9122e-05
0.0162407
3.15441e-05
0.0162238
3.39961e-05
0.0162058
3.64516e-05
0.0161865
3.89255e-05
0.016166
4.13816e-05
0.0161442
4.38424e-05
0.0161213
4.62615e-05
0.0160972
4.86681e-05
0.0160719
5.10089e-05
0.0160455
5.3312e-05
0.0160179
5.55311e-05
0.0159894
5.76709e-05
0.0159598
5.97258e-05
0.0159293
6.16284e-05
0.0158978
6.34818e-05
0.0158656
6.50535e-05
0.0158325
6.66812e-05
6.7811e-05
0.0158356
-2.90821e-05
0.0158451
-2.9113e-05
0.0158547
-2.91063e-05
0.0158643
-2.90595e-05
0.0158738
-2.89701e-05
0.0158832
-2.88351e-05
0.0158926
-2.86517e-05
0.015902
-2.84169e-05
0.0159112
-2.81277e-05
0.0159203
-2.7781e-05
0.0159293
-2.73737e-05
0.0159381
-2.69025e-05
0.0159468
-2.63644e-05
0.0159552
-2.5756e-05
0.0159634
-2.50742e-05
0.0159714
-2.43158e-05
0.0159791
-2.34775e-05
0.0159865
-2.25563e-05
0.0159936
-2.15491e-05
0.0160003
-2.04529e-05
0.0160066
-1.92649e-05
0.0160124
-1.79823e-05
0.0160179
-1.66025e-05
0.0160228
-1.51233e-05
0.0160272
-1.35423e-05
0.0160311
-1.18576e-05
0.0160344
-1.00675e-05
0.016037
-8.1706e-06
0.016039
-6.16578e-06
0.0160403
-4.05214e-06
0.0160409
-1.82907e-06
0.0160407
5.03571e-07
0.0160397
2.94114e-06
0.0160378
5.48795e-06
0.0160351
8.1411e-06
0.0160315
1.0899e-05
0.0160269
1.37584e-05
0.0160214
1.67173e-05
0.0160149
1.97707e-05
0.0160073
2.29163e-05
0.0159987
2.61467e-05
0.015989
2.94596e-05
0.0159782
3.28445e-05
0.0159663
3.63001e-05
0.0159532
3.98113e-05
0.0159389
4.33789e-05
0.0159235
4.69818e-05
0.0159069
5.06241e-05
0.015889
5.42776e-05
0.01587
5.79501e-05
0.0158498
6.1606e-05
0.0158284
6.52558e-05
0.0158058
6.88597e-05
0.015782
7.24241e-05
0.0157571
7.59161e-05
0.0157311
7.93203e-05
0.015704
8.26375e-05
0.0156759
8.57916e-05
0.0156467
8.88717e-05
0.0156167
9.16666e-05
0.0155857
9.44523e-05
0.015554
9.6755e-05
0.0155215
9.91989e-05
0.000100853
0.0155297
-3.854e-05
0.0155392
-3.85786e-05
0.0155487
-3.85673e-05
0.0155581
-3.85028e-05
0.0155675
-3.83814e-05
0.0155769
-3.81995e-05
0.0155862
-3.79532e-05
0.0155954
-3.76387e-05
0.0156045
-3.72519e-05
0.0156135
-3.67888e-05
0.0156224
-3.62451e-05
0.0156311
-3.56168e-05
0.0156397
-3.48996e-05
0.015648
-3.40893e-05
0.0156561
-3.31816e-05
0.015664
-3.21723e-05
0.0156715
-3.10572e-05
0.0156788
-2.98322e-05
0.0156858
-2.84933e-05
0.0156923
-2.70366e-05
0.0156985
-2.54583e-05
0.0157043
-2.37548e-05
0.0157096
-2.19227e-05
0.0157145
-1.99591e-05
0.0157188
-1.78608e-05
0.0157225
-1.56255e-05
0.0157257
-1.32509e-05
0.0157283
-1.07352e-05
0.0157302
-8.0769e-06
0.0157314
-5.27494e-06
0.0157319
-2.32849e-06
0.0157317
7.62269e-07
0.0157306
3.992e-06
0.0157287
7.36561e-06
0.015726
1.08794e-05
0.0157224
1.45312e-05
0.0157178
1.83169e-05
0.0157123
2.22334e-05
0.0157058
2.62747e-05
0.0156983
3.04369e-05
0.0156897
3.4711e-05
0.0156801
3.90933e-05
0.0156693
4.35709e-05
0.0156575
4.81403e-05
0.0156445
5.2784e-05
0.0156304
5.74999e-05
0.0156151
6.22644e-05
0.0155987
6.70773e-05
0.015581
7.19084e-05
0.0155622
7.67591e-05
0.0155422
8.15938e-05
0.0155211
8.64118e-05
0.0154988
9.11789e-05
0.0154753
9.58804e-05
0.0154507
0.000100502
0.0154251
0.000104987
0.0153983
0.00010938
0.0153706
0.000113531
0.0153418
0.000117614
0.0153122
0.000121285
0.0152817
0.000124981
0.0152504
0.000128003
0.0152184
0.000131242
0.000133411
0.0152325
-4.79298e-05
0.0152419
-4.79741e-05
0.0152512
-4.7956e-05
0.0152606
-4.78714e-05
0.0152699
-4.77158e-05
0.0152792
-4.74848e-05
0.0152885
-4.71734e-05
0.0152976
-4.67769e-05
0.0153066
-4.62903e-05
0.0153156
-4.57086e-05
0.0153243
-4.50265e-05
0.015333
-4.4239e-05
0.0153414
-4.33408e-05
0.0153496
-4.23266e-05
0.0153576
-4.11913e-05
0.0153654
-3.99295e-05
0.0153729
-3.85362e-05
0.0153801
-3.70063e-05
0.0153869
-3.53348e-05
0.0153934
-3.35169e-05
0.0153995
-3.15479e-05
0.0154051
-2.94236e-05
0.0154103
-2.71397e-05
0.0154151
-2.46925e-05
0.0154193
-2.20784e-05
0.015423
-1.92943e-05
0.0154261
-1.63377e-05
0.0154285
-1.32061e-05
0.0154303
-9.89798e-06
0.0154315
-6.41201e-06
0.0154319
-2.74722e-06
0.0154316
1.09566e-06
0.0154305
5.11123e-06
0.0154285
9.30432e-06
0.0154257
1.36707e-05
0.015422
1.82073e-05
0.0154175
2.29094e-05
0.0154119
2.77728e-05
0.0154054
3.27902e-05
0.0153979
3.79566e-05
0.0153893
4.32613e-05
0.0153797
4.86986e-05
0.015369
5.42539e-05
0.0153573
5.99214e-05
0.0153444
6.56812e-05
0.0153303
7.15284e-05
0.0153152
7.74365e-05
0.0152988
8.34018e-05
0.0152814
8.93915e-05
0.0152627
9.54013e-05
0.0152429
0.000101395
0.015222
0.000107361
0.0151999
0.000113271
0.0151767
0.00011909
0.0151523
0.000124819
0.015127
0.000130367
0.0151005
0.000135814
0.0150731
0.000140943
0.0150447
0.000146007
0.0150155
0.00015054
0.0149853
0.000155126
0.0149545
0.00015885
0.0149228
0.000162871
0.000165541
0.0149434
-5.72766e-05
0.0149527
-5.7324e-05
0.0149621
-5.72965e-05
0.0149714
-5.7189e-05
0.0149807
-5.69965e-05
0.0149899
-5.67133e-05
0.0149991
-5.63339e-05
0.0150081
-5.58524e-05
0.0150171
-5.52629e-05
0.015026
-5.45594e-05
0.0150347
-5.37357e-05
0.0150432
-5.27859e-05
0.0150516
-5.17035e-05
0.0150597
-5.04825e-05
0.0150677
-4.91165e-05
0.0150753
-4.75994e-05
0.0150827
-4.59252e-05
0.0150898
-4.40877e-05
0.0150966
-4.20812e-05
0.0151029
-3.98999e-05
0.0151089
-3.75384e-05
0.0151145
-3.49917e-05
0.0151196
-3.22547e-05
0.0151242
-2.9323e-05
0.0151284
-2.61926e-05
0.0151319
-2.28598e-05
0.0151349
-1.93216e-05
0.0151373
-1.55754e-05
0.015139
-1.16192e-05
0.01514
-7.45166e-06
0.0151404
-3.07165e-06
0.0151399
1.51931e-06
0.0151387
6.31617e-06
0.0151367
1.13233e-05
0.0151338
1.65358e-05
0.0151301
2.19502e-05
0.0151255
2.75605e-05
0.0151199
3.33619e-05
0.0151133
3.93455e-05
0.0151058
4.55053e-05
0.0150972
5.18286e-05
0.0150876
5.83086e-05
0.0150769
6.4928e-05
0.0150651
7.16795e-05
0.0150523
7.85401e-05
0.0150383
8.55028e-05
0.0150232
9.2538e-05
0.015007
9.96388e-05
0.0149896
0.000106769
0.0149711
0.00011392
0.0149514
0.000121054
0.0149306
0.00012815
0.0149087
0.000135182
0.0148857
0.0001421
0.0148616
0.000148917
0.0148365
0.000155508
0.0148103
0.000161989
0.0147832
0.000168078
0.0147551
0.000174104
0.0147261
0.000179479
0.0146963
0.000184938
0.0146658
0.000189348
0.0146346
0.000194136
0.000197289
0.0146622
-6.66029e-05
0.0146715
-6.66504e-05
0.0146808
-6.66102e-05
0.0146901
-6.64767e-05
0.0146993
-6.62437e-05
0.0147085
-6.59049e-05
0.0147176
-6.54538e-05
0.0147267
-6.48834e-05
0.0147356
-6.41871e-05
0.0147444
-6.33579e-05
0.0147531
-6.23886e-05
0.0147615
-6.12723e-05
0.0147698
-6.00017e-05
0.0147779
-5.85696e-05
0.0147858
-5.69689e-05
0.0147934
-5.51924e-05
0.0148007
-5.32331e-05
0.0148077
-5.10841e-05
0.0148143
-4.87388e-05
0.0148206
-4.61905e-05
0.0148265
-4.34332e-05
0.014832
-4.04608e-05
0.014837
-3.72679e-05
0.0148415
-3.38494e-05
0.0148455
-3.02006e-05
0.014849
-2.63175e-05
0.0148519
-2.21967e-05
0.0148541
-1.78352e-05
0.0148557
-1.32311e-05
0.0148567
-8.38273e-06
0.0148569
-3.28896e-06
0.0148564
2.04771e-06
0.0148551
7.62295e-06
0.0148529
1.34403e-05
0.01485
1.94943e-05
0.0148461
2.57807e-05
0.0148414
3.22928e-05
0.0148358
3.90246e-05
0.0148291
4.5966e-05
0.0148215
5.31097e-05
0.0148129
6.04415e-05
0.0148033
6.79528e-05
0.0147926
7.56241e-05
0.0147808
8.34465e-05
0.014768
9.13941e-05
0.014754
9.94578e-05
0.0147389
0.000107605
0.0147227
0.000115825
0.0147054
0.000124079
0.014687
0.000132354
0.0146674
0.00014061
0.0146468
0.000148818
0.014625
0.000156954
0.0146022
0.000164953
0.0145782
0.000172838
0.0145533
0.000180454
0.0145273
0.000187949
0.0145004
0.000194979
0.0144726
0.000201948
0.0144439
0.000208146
0.0144144
0.000214462
0.0143842
0.000219538
0.0143533
0.000225082
0.000228701
0.0143884
-7.59287e-05
0.0143978
-7.59729e-05
0.0144071
-7.59165e-05
0.0144163
-7.57531e-05
0.0144256
-7.54757e-05
0.0144347
-7.50771e-05
0.0144438
-7.45499e-05
0.0144528
-7.38863e-05
0.0144617
-7.30785e-05
0.0144705
-7.21187e-05
0.0144791
-7.0999e-05
0.0144875
-6.97111e-05
0.0144958
-6.82471e-05
0.0145038
-6.65987e-05
0.0145116
-6.4758e-05
0.0145191
-6.27168e-05
0.0145264
-6.04673e-05
0.0145333
-5.80017e-05
0.0145399
-5.53125e-05
0.0145461
-5.23924e-05
0.0145519
-4.92344e-05
0.0145572
-4.58319e-05
0.0145621
-4.21789e-05
0.0145666
-3.82696e-05
0.0145705
-3.4099e-05
0.0145738
-2.96625e-05
0.0145766
-2.49565e-05
0.0145787
-1.99779e-05
0.0145802
-1.47244e-05
0.014581
-9.19449e-06
0.0145811
-3.38692e-06
0.0145805
2.69457e-06
0.014579
9.04668e-06
0.0145768
1.56718e-05
0.0145737
2.25639e-05
0.0145698
2.97182e-05
0.014565
3.71267e-05
0.0145592
4.47827e-05
0.0145525
5.26747e-05
0.0145448
6.07943e-05
0.0145361
6.91252e-05
0.0145264
7.76577e-05
0.0145157
8.637e-05
0.0145039
9.52513e-05
0.014491
0.000104273
0.014477
0.000113424
0.014462
0.000122668
0.0144458
0.000131993
0.0144285
0.000141355
0.0144101
0.000150738
0.0143907
0.000160099
0.0143701
0.000169402
0.0143484
0.000178625
0.0143257
0.000187685
0.0143019
0.00019662
0.0142771
0.000205242
0.0142513
0.000213734
0.0142246
0.000221684
0.014197
0.00022958
0.0141685
0.000236582
0.0141393
0.000243738
0.0141093
0.000249462
0.0140787
0.000255749
0.000259816
0.0141219
-8.52719e-05
0.0141313
-8.53089e-05
0.0141406
-8.52323e-05
0.0141499
-8.50347e-05
0.0141591
-8.47085e-05
0.0141683
-8.42454e-05
0.0141773
-8.36371e-05
0.0141863
-8.28749e-05
0.0141952
-8.19504e-05
0.0142039
-8.08545e-05
0.0142125
-7.95784e-05
0.0142209
-7.81131e-05
0.0142291
-7.64497e-05
0.0142371
-7.45789e-05
0.0142448
-7.24919e-05
0.0142523
-7.01798e-05
0.0142595
-6.76338e-05
0.0142663
-6.48453e-05
0.0142728
-6.1806e-05
0.0142789
-5.85078e-05
0.0142846
-5.49432e-05
0.0142899
-5.1105e-05
0.0142947
-4.69863e-05
0.014299
-4.25811e-05
0.0143028
-3.78838e-05
0.014306
-3.28897e-05
0.0143087
-2.75947e-05
0.0143107
-2.19955e-05
0.0143121
-1.609e-05
0.0143127
-9.8765e-06
0.0143127
-3.35381e-06
0.0143119
3.47287e-06
0.0143104
1.06016e-05
0.014308
1.80333e-05
0.0143048
2.57614e-05
0.0143007
3.37803e-05
0.0142958
4.20812e-05
0.0142899
5.06563e-05
0.0142831
5.94927e-05
0.0142753
6.85809e-05
0.0142665
7.79028e-05
0.0142567
8.74474e-05
0.0142459
9.71904e-05
0.0142341
0.00010712
0.0142211
0.000117204
0.0142071
0.000127429
0.014192
0.000137757
0.0141759
0.000148172
0.0141586
0.000158627
0.0141402
0.000169102
0.0141208
0.000179552
0.0141002
0.000189934
0.0140786
0.000200225
0.014056
0.00021033
0.0140323
0.000220298
0.0140076
0.000229907
0.013982
0.000239378
0.0139555
0.00024823
0.013928
0.000257035
0.0138998
0.00026482
0.0138707
0.000272802
0.013841
0.000279153
0.0138106
0.000286172
0.000290667
0.0138623
-9.46484e-05
0.0138717
-9.4674e-05
0.013881
-9.45727e-05
0.0138903
-9.43362e-05
0.0138996
-9.3956e-05
0.0139087
-9.34231e-05
0.0139178
-9.27281e-05
0.0139268
-9.18617e-05
0.0139357
-9.08142e-05
0.0139444
-8.95759e-05
0.013953
-8.8137e-05
0.0139613
-8.64875e-05
0.0139695
-8.46177e-05
0.0139774
-8.25175e-05
0.0139851
-8.01771e-05
0.0139925
-7.75867e-05
0.0139996
-7.47369e-05
0.0140064
-7.16181e-05
0.0140128
-6.82214e-05
0.0140189
-6.45381e-05
0.0140245
-6.05599e-05
0.0140297
-5.62789e-05
0.0140344
-5.1688e-05
0.0140386
-4.67806e-05
0.0140422
-4.15507e-05
0.0140453
-3.59933e-05
0.0140478
-3.01042e-05
0.0140497
-2.38801e-05
0.0140509
-1.73187e-05
0.0140515
-1.04186e-05
0.0140513
-3.17829e-06
0.0140504
4.39501e-06
0.0140487
1.2301e-05
0.0140462
2.05391e-05
0.0140428
2.9102e-05
0.0140386
3.79835e-05
0.0140335
4.71735e-05
0.0140275
5.66634e-05
0.0140206
6.6439e-05
0.0140127
7.64895e-05
0.0140038
8.6795e-05
0.0139939
9.73432e-05
0.013983
0.000108107
0.013971
0.000119074
0.013958
0.000130209
0.013944
0.000141497
0.0139288
0.000152895
0.0139126
0.000164387
0.0138953
0.000175921
0.0138769
0.000187474
0.0138575
0.000198997
0.013837
0.000210441
0.0138154
0.000221785
0.0137928
0.000232917
0.0137692
0.000243901
0.0137447
0.000254478
0.0137191
0.000264911
0.0136927
0.000274646
0.0136654
0.000284344
0.0136373
0.000292892
0.0136084
0.000301685
0.013579
0.000308642
0.0135487
0.000316382
0.000321284
0.0136093
-0.000104072
0.0136188
-0.000104082
0.0136281
-0.000103951
0.0136375
-0.00010367
0.0136467
-0.000103231
0.0136559
-0.000102622
0.013665
-0.000101834
0.013674
-0.000100857
0.0136829
-9.96797e-05
0.0136916
-9.82919e-05
0.0137002
-9.66828e-05
0.0137085
-9.48417e-05
0.0137167
-9.27578e-05
0.0137246
-9.04202e-05
0.0137322
-8.78183e-05
0.0137396
-8.49416e-05
0.0137466
-8.17796e-05
0.0137533
-7.83224e-05
0.0137596
-7.45601e-05
0.0137656
-7.04833e-05
0.0137711
-6.60834e-05
0.0137762
-6.13518e-05
0.0137808
-5.6281e-05
0.0137849
-5.0864e-05
0.0137884
-4.50945e-05
0.0137914
-3.89674e-05
0.0137938
-3.24782e-05
0.0137955
-2.56237e-05
0.0137966
-1.84016e-05
0.013797
-1.08107e-05
0.0137966
-2.84936e-06
0.0137956
5.47291e-06
0.0137937
1.41578e-05
0.013791
2.32029e-05
0.0137876
3.26003e-05
0.0137832
4.23429e-05
0.0137779
5.24196e-05
0.0137718
6.28209e-05
0.0137647
7.35309e-05
0.0137566
8.4538e-05
0.0137476
9.58203e-05
0.0137376
0.000107364
0.0137266
0.000119141
0.0137145
0.000131136
0.0137014
0.000143311
0.0136873
0.00015565
0.013672
0.000168106
0.0136558
0.000180661
0.0136384
0.000193261
0.01362
0.000205877
0.0136006
0.000218458
0.0135801
0.000230949
0.0135585
0.00024333
0.013536
0.000255473
0.0135124
0.000267455
0.0134879
0.000278984
0.0134624
0.000290362
0.0134361
0.00030096
0.0134089
0.000311533
0.013381
0.000320824
0.0133523
0.000330414
0.013323
0.000337955
0.0132929
0.000346406
0.000351693
0.0133628
-0.000113556
0.0133722
-0.000113544
0.0133817
-0.000113378
0.013391
-0.000113048
0.0134004
-0.000112543
0.0134096
-0.000111852
0.0134187
-0.000110964
0.0134277
-0.000109869
0.0134366
-0.000108555
0.0134453
-0.00010701
0.0134539
-0.000105223
0.0134622
-0.000103182
0.0134703
-0.000100875
0.0134782
-9.82914e-05
0.0134858
-9.54191e-05
0.0134931
-9.2247e-05
0.0135001
-8.87638e-05
0.0135067
-8.49588e-05
0.013513
-8.08217e-05
0.0135188
-7.63425e-05
0.0135243
-7.15118e-05
0.0135292
-6.63209e-05
0.0135337
-6.07616e-05
0.0135377
-5.48267e-05
0.0135411
-4.85098e-05
0.0135439
-4.18054e-05
0.0135462
-3.47093e-05
0.0135478
-2.7218e-05
0.0135487
-1.93296e-05
0.0135489
-1.10429e-05
0.0135484
-2.35625e-06
0.0135472
6.71799e-06
0.0135452
1.61841e-05
0.0135423
2.60376e-05
0.0135386
3.62698e-05
0.0135341
4.68727e-05
0.0135287
5.78342e-05
0.0135224
6.91438e-05
0.0135151
8.07842e-05
0.0135069
9.27426e-05
0.0134977
0.000104995
0.0134876
0.000117528
0.0134764
0.000130309
0.0134642
0.000143322
0.013451
0.000156527
0.0134368
0.000169906
0.0134215
0.000183409
0.0134051
0.000197015
0.0133877
0.000210666
0.0133692
0.000224331
0.0133497
0.000237957
0.0133292
0.000251479
0.0133077
0.000264882
0.0132851
0.000278019
0.0132616
0.000290984
0.0132371
0.000303447
0.0132117
0.000315753
0.0131855
0.000327195
0.0131584
0.000338628
0.0131306
0.000348641
0.013102
0.000359013
0.0130728
0.000367116
0.013043
0.000376267
0.000381916
0.0131224
-0.000123109
0.0131319
-0.000123072
0.0131414
-0.000122865
0.0131508
-0.000122478
0.0131602
-0.000121901
0.0131694
-0.000121121
0.0131786
-0.000120127
0.0131876
-0.000118906
0.0131965
-0.000117446
0.0132052
-0.000115736
0.0132138
-0.000113762
0.0132221
-0.000111512
0.0132302
-0.000108973
0.0132381
-0.000106134
0.0132456
-0.000102982
0.0132529
-9.95041e-05
0.0132598
-9.56898e-05
0.0132664
-9.15272e-05
0.0132726
-8.70053e-05
0.0132783
-8.21136e-05
0.0132837
-7.68424e-05
0.0132885
-7.11823e-05
0.0132929
-6.51252e-05
0.0132967
-5.86633e-05
0.0133
-5.17903e-05
0.0133027
-4.45005e-05
0.0133048
-3.67896e-05
0.0133062
-2.86546e-05
0.013307
-2.00934e-05
0.013307
-1.11054e-05
0.0133064
-1.68838e-06
0.0133049
8.14125e-06
0.0133027
1.83915e-05
0.0132997
2.90553e-05
0.0132959
4.01231e-05
0.0132912
5.15861e-05
0.0132856
6.34308e-05
0.0132791
7.56461e-05
0.0132716
8.82131e-05
0.0132632
0.000101118
0.0132539
0.000114335
0.0132436
0.000127849
0.0132323
0.000141626
0.0132199
0.000155648
0.0132066
0.000169873
0.0131922
0.000184282
0.0131768
0.000198819
0.0131604
0.000213464
0.0131429
0.000228155
0.0131244
0.000242856
0.0131048
0.000257512
0.0130842
0.000272051
0.0130626
0.000286461
0.0130401
0.000300576
0.0130166
0.000314509
0.0129921
0.000327887
0.0129668
0.000341105
0.0129406
0.000353373
0.0129136
0.000365649
0.0128859
0.000376363
0.0128574
0.000387502
0.0128283
0.000396145
0.0127986
0.000405984
0.000411972
0.0128879
-0.000132743
0.0128975
-0.000132673
0.012907
-0.000132419
0.0129165
-0.00013197
0.0129259
-0.000131313
0.0129352
-0.000130437
0.0129444
-0.000129327
0.0129535
-0.000127973
0.0129624
-0.000126359
0.0129712
-0.000124474
0.0129797
-0.000122303
0.012988
-0.000119835
0.0129961
-0.000117054
0.0130039
-0.000113949
0.0130114
-0.000110507
0.0130187
-0.000106713
0.0130255
-0.000102557
0.013032
-9.8026e-05
0.0130381
-9.31085e-05
0.0130438
-8.77937e-05
0.013049
-8.20713e-05
0.0130538
-7.59318e-05
0.013058
-6.93666e-05
0.0130617
-6.2368e-05
0.0130649
-5.49294e-05
0.0130674
-4.70452e-05
0.0130693
-3.87114e-05
0.0130706
-2.99249e-05
0.0130712
-2.06842e-05
0.0130711
-1.09886e-05
0.0130702
-8.35238e-07
0.0130686
9.75324e-06
0.0130662
2.07912e-05
0.013063
3.22677e-05
0.013059
4.41721e-05
0.013054
5.6495e-05
0.0130483
6.92219e-05
0.0130416
8.23405e-05
0.0130339
9.58304e-05
0.0130254
0.000109677
0.0130159
0.000123853
0.0130054
0.000138341
0.0129939
0.000153106
0.0129814
0.000168129
0.0129679
0.000183364
0.0129534
0.000198791
0.0129379
0.000214352
0.0129213
0.000230024
0.0129037
0.000245741
0.0128851
0.000261465
0.0128655
0.000277138
0.0128449
0.00029268
0.0128232
0.000308082
0.0128007
0.000323161
0.0127771
0.000338045
0.0127527
0.000352323
0.0127274
0.000366437
0.0127012
0.00037951
0.0126743
0.000392615
0.0126466
0.000404007
0.0126182
0.0004159
0.0125893
0.000425058
0.0125597
0.000435576
0.000441877
0.0126591
-0.000142465
0.0126688
-0.000142357
0.0126784
-0.000142049
0.012688
-0.000141529
0.0126974
-0.000140785
0.0127068
-0.000139804
0.012716
-0.000138571
0.0127251
-0.000137074
0.0127341
-0.000135297
0.0127428
-0.000133227
0.0127514
-0.000130851
0.0127597
-0.000128153
0.0127678
-0.00012512
0.0127756
-0.000121738
0.012783
-0.000117994
0.0127902
-0.000113873
0.012797
-0.000109364
0.0128034
-0.000104453
0.0128095
-9.91283e-05
0.012815
-9.33789e-05
0.0128202
-8.71941e-05
0.0128248
-8.0564e-05
0.0128289
-7.348e-05
0.0128325
-6.59341e-05
0.0128355
-5.79199e-05
0.0128379
-4.94319e-05
0.0128396
-4.04662e-05
0.0128407
-3.102e-05
0.0128411
-2.10925e-05
0.0128408
-1.06834e-05
0.0128398
2.12954e-07
0.012838
1.15644e-05
0.0128353
2.33942e-05
0.0128319
3.56856e-05
0.0128277
4.84279e-05
0.0128226
6.16109e-05
0.0128166
7.52188e-05
0.0128097
8.92384e-05
0.0128018
0.000103648
0.0127931
0.000118431
0.0127834
0.00013356
0.0127727
0.000149016
0.0127611
0.000164761
0.0127484
0.000180776
0.0127348
0.000197011
0.0127201
0.000213447
0.0127044
0.00023002
0.0126878
0.000246708
0.0126701
0.000263439
0.0126513
0.000280173
0.0126316
0.00029685
0.0126109
0.000313381
0.0125893
0.000329761
0.0125666
0.000345788
0.0125431
0.00036161
0.0125186
0.000376769
0.0124933
0.000391763
0.0124672
0.000405623
0.0124403
0.00041954
0.0124127
0.000431589
0.0123844
0.00044422
0.0123555
0.000453869
0.0123261
0.000465056
0.000471643
0.0124358
-0.000152282
0.0124456
-0.000152128
0.0124553
-0.000151758
0.0124649
-0.000151161
0.0124745
-0.000150322
0.0124839
-0.000149227
0.0124932
-0.000147862
0.0125023
-0.000146212
0.0125113
-0.000144262
0.0125201
-0.000141998
0.0125286
-0.000139404
0.0125369
-0.000136466
0.012545
-0.000133169
0.0125527
-0.000129499
0.0125602
-0.000125441
0.0125673
-0.000120982
0.012574
-0.000116107
0.0125804
-0.000110804
0.0125863
-0.00010506
0.0125918
-9.88644e-05
0.0125968
-9.22053e-05
0.0126013
-8.50731e-05
0.0126053
-7.74588e-05
0.0126087
-6.93548e-05
0.0126116
-6.07545e-05
0.0126138
-5.16527e-05
0.0126154
-4.20456e-05
0.0126163
-3.19311e-05
0.0126165
-2.13083e-05
0.012616
-1.01775e-05
0.0126147
1.46082e-06
0.0126127
1.35868e-05
0.0126099
2.62104e-05
0.0126063
3.93193e-05
0.0126018
5.29009e-05
0.0125965
6.69442e-05
0.0125903
8.1432e-05
0.0125831
9.63502e-05
0.0125751
0.000111676
0.0125662
0.000127391
0.0125562
0.000143467
0.0125454
0.000159883
0.0125335
0.0001766
0.0125207
0.000193598
0.0125069
0.000210824
0.0124921
0.000228258
0.0124763
0.000245833
0.0124595
0.000263525
0.0124416
0.000281258
0.0124228
0.00029899
0.012403
0.000316657
0.0123822
0.000334165
0.0123605
0.00035151
0.0123378
0.00036847
0.0123142
0.000385214
0.0122897
0.000401239
0.0122644
0.000417098
0.0122383
0.000431725
0.0122114
0.000446438
0.0121839
0.000459122
0.0121556
0.000472477
0.0121269
0.000482591
0.0120975
0.000494436
0.000501282
0.0122179
-0.000162198
0.0122278
-0.000161992
0.0122376
-0.000161553
0.0122473
-0.00016087
0.0122569
-0.000159927
0.0122663
-0.000158709
0.0122757
-0.000157202
0.0122849
-0.000155389
0.0122939
-0.000153256
0.0123026
-0.000150786
0.0123112
-0.000147964
0.0123195
-0.000144774
0.0123275
-0.000141202
0.0123353
-0.000137231
0.0123427
-0.000132847
0.0123497
-0.000128036
0.0123564
-0.000122783
0.0123627
-0.000117075
0.0123685
-0.0001109
0.0123739
-0.000104245
0.0123788
-9.7099e-05
0.0123832
-8.94523e-05
0.012387
-8.1296e-05
0.0123903
-7.26224e-05
0.012393
-6.3425e-05
0.012395
-5.3699e-05
0.0123964
-4.3441e-05
0.0123971
-3.26491e-05
0.0123971
-2.13233e-05
0.0123964
-9.46446e-06
0.012395
2.92407e-06
0.0123927
1.58278e-05
0.0123897
2.92498e-05
0.0123858
4.31787e-05
0.0123811
5.7601e-05
0.0123756
7.25046e-05
0.0123691
8.7871e-05
0.0123618
0.000103685
0.0123535
0.000119923
0.0123444
0.000136566
0.0123342
0.000153582
0.0123232
0.000170952
0.0123111
0.000188633
0.0122981
0.000206605
0.0122841
0.000224812
0.0122692
0.000243233
0.0122532
0.000261799
0.0122362
0.000280483
0.0122183
0.000299207
0.0121994
0.000317925
0.0121794
0.000336571
0.0121586
0.000355041
0.0121367
0.000373338
0.012114
0.000391217
0.0120903
0.000408869
0.0120658
0.000425744
0.0120405
0.000442452
0.0120144
0.000457827
0.0119875
0.000473321
0.01196
0.000486617
0.0119318
0.000500681
0.0119032
0.000511233
0.0118739
0.000523725
0.0005308
0.0120051
-0.00017222
0.012015
-0.000171952
0.0120249
-0.000171437
0.0120347
-0.000170658
0.0120444
-0.000169602
0.0120539
-0.000168252
0.0120633
-0.000166592
0.0120725
-0.000164606
0.0120816
-0.000162278
0.0120904
-0.000159591
0.0120989
-0.000156528
0.0121072
-0.000153075
0.0121152
-0.000149214
0.0121229
-0.00014493
0.0121303
-0.000140207
0.0121373
-0.000135031
0.0121439
-0.000129388
0.0121501
-0.000123262
0.0121558
-0.000116641
0.0121611
-0.000109514
0.0121659
-0.000101868
0.0121701
-9.36947e-05
0.0121738
-8.49841e-05
0.0121769
-7.57289e-05
0.0121794
-6.59232e-05
0.0121813
-5.55624e-05
0.0121825
-4.46435e-05
0.012183
-3.31652e-05
0.0121828
-2.11282e-05
0.0121819
-8.53393e-06
0.0121802
4.61145e-06
0.0121777
1.82973e-05
0.0121744
3.25216e-05
0.0121703
4.7273e-05
0.0121654
6.25371e-05
0.0121596
7.83009e-05
0.0121529
9.45445e-05
0.0121454
0.000111252
0.0121369
0.000128398
0.0121275
0.000145963
0.0121172
0.000163913
0.0121059
0.000182229
0.0120937
0.000200865
0.0120805
0.000219802
0.0120663
0.00023898
0.0120511
0.000258378
0.012035
0.000277924
0.0120179
0.000297589
0.0119998
0.000317293
0.0119808
0.000336984
0.0119607
0.000356597
0.0119398
0.000376017
0.0119179
0.000395253
0.011895
0.000414038
0.0118713
0.000432585
0.0118468
0.000450292
0.0118214
0.000467836
0.0117953
0.000483939
0.0117684
0.000500197
0.0117409
0.000514081
0.0117128
0.000528841
0.0116842
0.000539803
0.011655
0.000552932
0.000560205
0.0117972
-0.000182349
0.0118073
-0.000182013
0.0118173
-0.000181411
0.0118271
-0.000180528
0.0118369
-0.000179349
0.0118465
-0.000177856
0.0118559
-0.000176033
0.0118652
-0.000173862
0.0118742
-0.000171327
0.0118831
-0.000168411
0.0118916
-0.000165096
0.0118999
-0.000161365
0.0119079
-0.000157203
0.0119156
-0.000152593
0.0119229
-0.000147518
0.0119298
-0.000141963
0.0119363
-0.000135914
0.0119424
-0.000129357
0.0119481
-0.000122278
0.0119532
-0.000114665
0.0119579
-0.000106506
0.011962
-9.77924e-05
0.0119655
-8.85149e-05
0.0119684
-7.86662e-05
0.0119707
-6.82406e-05
0.0119724
-5.7234e-05
0.0119734
-4.56441e-05
0.0119737
-3.34702e-05
0.0119733
-2.07138e-05
0.0119722
-7.37666e-06
0.0119702
6.53192e-06
0.0119675
2.10042e-05
0.011964
3.60345e-05
0.0119597
5.16108e-05
0.0119545
6.77177e-05
0.0119485
8.43412e-05
0.0119415
0.00010146
0.0119337
0.000119058
0.011925
0.000137107
0.0119154
0.000155588
0.0119048
0.000174466
0.0118934
0.00019372
0.0118809
0.000213302
0.0118675
0.000233194
0.0118532
0.000253333
0.0118378
0.000273699
0.0118216
0.000294213
0.0118043
0.000314849
0.0117861
0.00033552
0.0117669
0.000356174
0.0117467
0.000376741
0.0117257
0.0003971
0.0117036
0.000417262
0.0116807
0.000436938
0.011657
0.000456367
0.0116324
0.000474891
0.0116069
0.000493255
0.0115808
0.000510068
0.0115539
0.000527075
0.0115265
0.000541523
0.0114984
0.000556963
0.0114699
0.000568307
0.0114407
0.000582061
0.0005895
0.0115942
-0.000192588
0.0116043
-0.000192174
0.0116144
-0.000191477
0.0116244
-0.00019048
0.0116342
-0.000189167
0.0116438
-0.000187521
0.0116533
-0.000185523
0.0116626
-0.000183156
0.0116717
-0.000180402
0.0116805
-0.000177243
0.0116891
-0.000173663
0.0116974
-0.000169642
0.0117053
-0.000165165
0.011713
-0.000160214
0.0117202
-0.000154773
0.0117271
-0.000148826
0.0117335
-0.000142358
0.0117395
-0.000135354
0.011745
-0.000127802
0.0117501
-0.000119689
0.0117546
-0.000111004
0.0117585
-0.000101737
0.0117619
-9.188e-05
0.0117646
-8.14253e-05
0.0117668
-7.03681e-05
0.0117682
-5.87048e-05
0.011769
-4.64337e-05
0.0117691
-3.3555e-05
0.0117685
-2.00708e-05
0.0117671
-5.98356e-06
0.0117649
8.69429e-06
0.011762
2.39576e-05
0.0117582
3.97971e-05
0.0117536
5.62004e-05
0.0117482
7.31506e-05
0.0117419
9.06329e-05
0.0117347
0.000108625
0.0117267
0.000127109
0.0117177
0.000146056
0.0117079
0.000165448
0.0116971
0.000185245
0.0116854
0.000205429
0.0116727
0.000225949
0.0116591
0.000246786
0.0116446
0.000267875
0.0116291
0.000289197
0.0116126
0.000310669
0.0115952
0.000332264
0.0115769
0.000353891
0.0115575
0.000375496
0.0115373
0.000397007
0.0115161
0.000418292
0.011494
0.00043937
0.011471
0.000459925
0.0114471
0.000480222
0.0114225
0.000499548
0.011397
0.000518718
0.0113708
0.00053622
0.011344
0.000553961
0.0113165
0.000568948
0.0112884
0.000585053
0.01126
0.000596748
0.0112309
0.000611117
0.000618688
0.0113958
-0.000202938
0.011406
-0.000202438
0.0114162
-0.000201635
0.0114262
-0.000200514
0.0114361
-0.000199056
0.0114458
-0.000197245
0.0114554
-0.00019506
0.0114647
-0.000192484
0.0114738
-0.000189498
0.0114826
-0.000186085
0.0114912
-0.000182225
0.0114995
-0.0001779
0.0115074
-0.000173094
0.011515
-0.000167788
0.0115221
-0.000161966
0.0115289
-0.000155612
0.0115353
-0.00014871
0.0115412
-0.000141246
0.0115466
-0.000133207
0.0115515
-0.00012458
0.0115558
-0.000115355
0.0115596
-0.000105521
0.0115628
-9.50706e-05
0.0115654
-8.39975e-05
0.0115673
-7.22968e-05
0.0115686
-5.99657e-05
0.0115691
-4.70032e-05
0.011569
-3.34103e-05
0.0115681
-1.91902e-05
0.0115665
-4.34561e-06
0.0115641
1.11071e-05
0.0115608
2.71656e-05
0.0115568
4.38175e-05
0.011552
6.10493e-05
0.0115463
7.8843e-05
0.0115397
9.71826e-05
0.0115323
0.000116045
0.011524
0.000135411
0.0115148
0.000155251
0.0115047