/*--------------------------------*- C++ -*----------------------------------*\
  =========                 |
  \\      /  F ield         | OpenFOAM: The Open Source CFD Toolbox
   \\    /   O peration     | Website:  https://openfoam.org
    \\  /    A nd           | Version:  7
     \\/     M anipulation  |
\*---------------------------------------------------------------------------*/
FoamFile
{
    version     2.0;
    format      ascii;
    class       volVectorField;
    location    "7";
    object      U;
}
// * * * * * * * * * * * * * * * * * * * * * * * * * * * * * * * * * * * * * //

dimensions      [0 1 -1 0 0 0 0];

internalField   nonuniform List<vector> 
344
(
(1.06578 0.0291129 -2.87522e-16)
(1.06686 0.0286357 -2.72816e-16)
(1.06795 0.0281684 -2.63949e-16)
(1.06903 0.0277109 -2.5324e-16)
(1.07012 0.0272628 -2.44799e-16)
(1.0712 0.026824 -2.07537e-16)
(1.07229 0.0263943 -2.00522e-16)
(1.07337 0.0259734 -1.93678e-16)
(1.07446 0.0255611 -1.83558e-16)
(1.07554 0.0251573 -1.74704e-16)
(1.07662 0.0247617 -1.59173e-16)
(1.07771 0.0243742 -1.49832e-16)
(1.07878 0.0239946 -1.41114e-16)
(1.07986 0.0236226 -1.34676e-16)
(1.08094 0.0232582 -9.28755e-17)
(1.08201 0.0229011 -9.00805e-17)
(1.08308 0.0225512 -8.50317e-17)
(1.08414 0.0222082 -7.93356e-17)
(1.08521 0.0218721 -4.47072e-17)
(1.08626 0.0215427 -4.17814e-17)
(1.08732 0.0212198 -3.70132e-17)
(1.08837 0.0209032 -3.47393e-17)
(1.08942 0.0205928 1.20047e-18)
(1.09046 0.0202885 1.83104e-18)
(1.0915 0.0199901 6.95894e-18)
(1.09254 0.0196975 1.37252e-17)
(1.09357 0.0194105 2.01838e-17)
(1.09459 0.019129 2.41352e-17)
(1.09562 0.0188529 2.77992e-17)
(1.09663 0.0185821 3.09204e-17)
(1.09764 0.0183163 6.67868e-17)
(1.09865 0.0180556 6.40541e-17)
(1.09965 0.0177998 6.8893e-17)
(1.10064 0.0175487 7.75287e-17)
(1.10163 0.0173023 8.07506e-17)
(1.10262 0.0170604 8.77941e-17)
(1.1036 0.016823 9.0907e-17)
(1.10457 0.0165899 9.78472e-17)
(1.10553 0.016361 1.01818e-16)
(1.1065 0.0161363 1.35088e-16)
(1.10745 0.0159156 1.33068e-16)
(1.1084 0.0156988 1.38946e-16)
(1.10934 0.015486 1.41091e-16)
(1.11028 0.0152768 1.73004e-16)
(1.11121 0.0150714 1.7022e-16)
(0.916847 0.0404623 -6.56096e-16)
(0.918826 0.0397275 -6.36598e-16)
(0.920794 0.0390072 -6.25396e-16)
(0.922752 0.0383013 -6.02617e-16)
(0.924699 0.0376096 -5.86158e-16)
(0.926636 0.036932 -5.71464e-16)
(0.928562 0.0362682 -5.49473e-16)
(0.930477 0.0356181 -5.38266e-16)
(0.932382 0.0349815 -5.194e-16)
(0.934276 0.0343581 -5.09506e-16)
(0.936158 0.0337478 -4.91814e-16)
(0.93803 0.0331503 -4.83397e-16)
(0.93989 0.0325654 -4.61698e-16)
(0.941739 0.0319928 -4.47288e-16)
(0.943576 0.0314324 -4.29792e-16)
(0.945401 0.0308839 -4.19066e-16)
(0.947215 0.0303471 -3.95848e-16)
(0.949017 0.0298217 -3.85559e-16)
(0.950807 0.0293075 -3.67536e-16)
(0.952585 0.0288042 -3.58902e-16)
(0.954351 0.0283117 -3.41355e-16)
(0.956105 0.0278296 -3.28755e-16)
(0.957847 0.0273579 -3.08244e-16)
(0.959576 0.0268962 -3.03615e-16)
(0.961293 0.0264443 -2.87281e-16)
(0.962997 0.026002 -2.81107e-16)
(0.964689 0.0255691 -2.67677e-16)
(0.966368 0.0251454 -2.63666e-16)
(0.968035 0.0247306 -2.42118e-16)
(0.969689 0.0243246 -2.29372e-16)
(0.971331 0.0239272 -2.20345e-16)
(0.97296 0.0235381 -2.02236e-16)
(0.974576 0.0231572 -1.96649e-16)
(0.976179 0.0227842 -1.78812e-16)
(0.97777 0.022419 -1.73348e-16)
(0.979348 0.0220614 -1.59819e-16)
(0.980914 0.0217113 -1.55146e-16)
(0.982467 0.0213683 -1.3638e-16)
(0.984007 0.0210325 -1.28106e-16)
(0.985535 0.0207035 -1.1345e-16)
(0.98705 0.0203813 -1.09707e-16)
(0.988552 0.0200656 -9.26601e-17)
(0.990042 0.0197564 -8.43251e-17)
(0.99152 0.0194534 -6.97697e-17)
(0.992985 0.0191565 -7.01962e-17)
(0.994437 0.0188656 -5.09326e-17)
(0.995878 0.0185804 -4.21228e-17)
(0.997305 0.018301 -2.65784e-17)
(0.998721 0.0180271 -2.87519e-17)
(1.00012 0.0177586 -1.40354e-17)
(1.00152 0.0174954 -1.5503e-17)
(1.00289 0.0172374 -3.47821e-18)
(1.00426 0.0169843 -2.69438e-18)
(1.00562 0.0167362 1.38183e-17)
(1.00696 0.0164928 1.83017e-17)
(1.00829 0.0162542 2.54482e-17)
(1.00961 0.01602 4.06448e-17)
(1.01092 0.0157904 4.24964e-17)
(1.01221 0.015565 5.28515e-17)
(1.0135 0.0153439 5.04289e-17)
(1.01477 0.015127 6.32729e-17)
(1.01603 0.0149141 6.30644e-17)
(1.01728 0.0147051 7.66096e-17)
(1.01852 0.0145 8.18648e-17)
(1.01975 0.0142986 9.81988e-17)
(1.02096 0.0141009 9.5547e-17)
(1.02217 0.0139067 1.1292e-16)
(1.02336 0.0137161 1.16973e-16)
(0.853758 0.0388371 -6.4619e-16)
(0.856255 0.0381234 -6.31944e-16)
(0.858731 0.0374238 -6.14501e-16)
(0.861184 0.0367383 -5.96917e-16)
(0.863616 0.0360666 -5.80261e-16)
(0.866025 0.0354087 -5.64937e-16)
(0.868414 0.0347644 -5.51659e-16)
(0.870781 0.0341335 -5.33861e-16)
(0.873126 0.0335157 -5.23473e-16)
(0.87545 0.032911 -5.05991e-16)
(0.877754 0.032319 -4.96392e-16)
(0.880036 0.0317395 -4.79888e-16)
(0.882298 0.0311724 -4.64733e-16)
(0.884539 0.0306174 -4.49708e-16)
(0.88676 0.0300743 -4.4073e-16)
(0.88896 0.0295428 -4.20381e-16)
(0.89114 0.0290228 -4.02099e-16)
(0.893299 0.0285139 -3.90406e-16)
(0.895438 0.028016 -3.80682e-16)
(0.897558 0.0275288 -3.65287e-16)
(0.899657 0.0270521 -3.50404e-16)
(0.901737 0.0265857 -3.35857e-16)
(0.903797 0.0261294 -3.23803e-16)
(0.905838 0.0256828 -3.12484e-16)
(0.907859 0.0252459 -3.0662e-16)
(0.90986 0.0248184 -2.90067e-16)
(0.911843 0.0244 -2.84298e-16)
(0.913806 0.0239906 -2.70747e-16)
(0.915751 0.02359 -2.53763e-16)
(0.917677 0.0231979 -2.41152e-16)
(0.919584 0.0228142 -2.29426e-16)
(0.921473 0.0224387 -2.23151e-16)
(0.923343 0.0220711 -2.09252e-16)
(0.925195 0.0217113 -2.0072e-16)
(0.927028 0.0213591 -1.8755e-16)
(0.928844 0.0210143 -1.83301e-16)
(0.930642 0.0206767 -1.6747e-16)
(0.932423 0.0203462 -1.53283e-16)
(0.934185 0.0200226 -1.44745e-16)
(0.935931 0.0197057 -1.40321e-16)
(0.937659 0.0193954 -1.2478e-16)
(0.939369 0.0190914 -1.11883e-16)
(0.941063 0.0187937 -1.02631e-16)
(0.94274 0.0185022 -9.79378e-17)
(0.944401 0.0182165 -8.74879e-17)
(0.946045 0.0179367 -7.50306e-17)
(0.947672 0.0176625 -6.43446e-17)
(0.949283 0.0173939 -5.78901e-17)
(0.950878 0.0171306 -4.72895e-17)
(0.952457 0.0168726 -4.4592e-17)
(0.954021 0.0166198 -3.44486e-17)
(0.955568 0.0163719 -3.05655e-17)
(0.9571 0.0161289 -2.12037e-17)
(0.958617 0.0158907 -8.49046e-18)
(0.960119 0.0156571 -1.47959e-18)
(0.961605 0.0154281 5.58336e-18)
(0.963077 0.0152035 1.05427e-17)
(0.964533 0.0149832 2.21326e-17)
(0.965975 0.0147672 2.38701e-17)
(0.967403 0.0145552 3.11205e-17)
(0.968816 0.0143473 3.28588e-17)
(0.970215 0.0141432 4.24991e-17)
(0.9716 0.013943 5.34478e-17)
(0.972971 0.0137465 5.89736e-17)
(0.974328 0.0135537 6.48552e-17)
(0.975671 0.0133644 7.38754e-17)
(0.977001 0.0131786 8.367e-17)
(0.978318 0.0129962 9.14362e-17)
(0.795499 0.0363979 -6.16597e-16)
(0.798447 0.0357223 -6.02023e-16)
(0.801362 0.0350603 -5.88056e-16)
(0.804243 0.0344119 -5.70893e-16)
(0.807093 0.0337768 -5.56916e-16)
(0.80991 0.0331549 -5.411e-16)
(0.812696 0.0325461 -5.2593e-16)
(0.81545 0.03195 -5.13224e-16)
(0.818174 0.0313666 -5.00158e-16)
(0.820867 0.0307956 -4.87522e-16)
(0.82353 0.0302369 -4.75068e-16)
(0.826163 0.0296901 -4.6358e-16)
(0.828767 0.0291551 -4.48722e-16)
(0.831341 0.0286317 -4.34909e-16)
(0.833887 0.0281196 -4.20476e-16)
(0.836404 0.0276187 -4.05916e-16)
(0.838893 0.0271286 -3.94687e-16)
(0.841354 0.0266492 -3.80874e-16)
(0.843788 0.0261802 -3.67128e-16)
(0.846194 0.0257214 -3.57585e-16)
(0.848573 0.0252726 -3.3994e-16)
(0.850925 0.0248336 -3.2713e-16)
(0.853251 0.0244041 -3.17669e-16)
(0.855551 0.023984 -3.07498e-16)
(0.857825 0.023573 -2.96095e-16)
(0.860074 0.023171 -2.86096e-16)
(0.862298 0.0227776 -2.75612e-16)
(0.864496 0.0223927 -2.62783e-16)
(0.86667 0.0220162 -2.51641e-16)
(0.868819 0.0216478 -2.38683e-16)
(0.870945 0.0212872 -2.26826e-16)
(0.873046 0.0209345 -2.15486e-16)
(0.875124 0.0205892 -2.06672e-16)
(0.877179 0.0202514 -1.95371e-16)
(0.879211 0.0199207 -1.89955e-16)
(0.88122 0.0195971 -1.7867e-16)
(0.883207 0.0192802 -1.67553e-16)
(0.885171 0.0189701 -1.57858e-16)
(0.887114 0.0186665 -1.49774e-16)
(0.889035 0.0183692 -1.37202e-16)
(0.890934 0.0180782 -1.29653e-16)
(0.892812 0.0177932 -1.19419e-16)
(0.89467 0.0175141 -1.10127e-16)
(0.896507 0.0172407 -1.02162e-16)
(0.898323 0.016973 -9.33761e-17)
(0.900119 0.0167107 -8.34287e-17)
(0.901896 0.0164538 -7.24734e-17)
(0.903652 0.0162021 -6.37024e-17)
(0.90539 0.0159555 -5.55878e-17)
(0.907108 0.0157138 -4.99936e-17)
(0.908807 0.015477 -4.28318e-17)
(0.910487 0.0152449 -3.70118e-17)
(0.912149 0.0150174 -2.94116e-17)
(0.913793 0.0147944 -2.26607e-17)
(0.915419 0.0145758 -1.21514e-17)
(0.917026 0.0143614 -6.39382e-18)
(0.918616 0.0141513 2.88977e-18)
(0.920189 0.0139451 6.59608e-18)
(0.921745 0.013743 1.28613e-17)
(0.923283 0.0135447 1.97056e-17)
(0.924805 0.0133502 2.62195e-17)
(0.92631 0.0131594 3.36804e-17)
(0.927799 0.0129722 3.81376e-17)
(0.929271 0.0127885 4.42787e-17)
(0.930728 0.0126082 5.38427e-17)
(0.932169 0.0124312 6.00103e-17)
(0.933594 0.0122575 6.79113e-17)
(0.736673 0.0345627 -5.99977e-16)
(0.740054 0.0339141 -5.8845e-16)
(0.743392 0.0332787 -5.76183e-16)
(0.746686 0.0326564 -5.60095e-16)
(0.749938 0.0320469 -5.45955e-16)
(0.753149 0.0314503 -5.29112e-16)
(0.756318 0.0308662 -5.16135e-16)
(0.759446 0.0302945 -5.01293e-16)
(0.762534 0.029735 -4.90806e-16)
(0.765583 0.0291876 -4.77295e-16)
(0.768593 0.0286519 -4.67659e-16)
(0.771565 0.0281279 -4.57314e-16)
(0.774499 0.0276153 -4.44024e-16)
(0.777395 0.0271138 -4.2757e-16)
(0.780255 0.0266233 -4.16166e-16)
(0.783079 0.0261436 -4.07863e-16)
(0.785866 0.0256743 -3.95119e-16)
(0.788619 0.0252154 -3.78294e-16)
(0.791337 0.0247666 -3.67641e-16)
(0.794021 0.0243276 -3.61e-16)
(0.796671 0.0238983 -3.44123e-16)
(0.799288 0.0234784 -3.29088e-16)
(0.801872 0.0230678 -3.18444e-16)
(0.804423 0.0226662 -3.04584e-16)
(0.806943 0.0222734 -2.98006e-16)
(0.809431 0.0218892 -2.86618e-16)
(0.811889 0.0215134 -2.79816e-16)
(0.814316 0.0211459 -2.70247e-16)
(0.816712 0.0207863 -2.56659e-16)
(0.819079 0.0204346 -2.44245e-16)
(0.821417 0.0200905 -2.3051e-16)
(0.823726 0.0197539 -2.22638e-16)
(0.826007 0.0194246 -2.10205e-16)
(0.828259 0.0191023 -2.03694e-16)
(0.830484 0.018787 -1.92704e-16)
(0.832682 0.0184785 -1.86237e-16)
(0.834853 0.0181765 -1.78341e-16)
(0.836997 0.017881 -1.67538e-16)
(0.839116 0.0175917 -1.58488e-16)
(0.841208 0.0173086 -1.50699e-16)
(0.843275 0.0170314 -1.43267e-16)
(0.845318 0.0167601 -1.32483e-16)
(0.847335 0.0164945 -1.20057e-16)
(0.849329 0.0162343 -1.16788e-16)
(0.851298 0.0159796 -1.11085e-16)
(0.853244 0.0157302 -9.87403e-17)
(0.855166 0.0154859 -8.6458e-17)
(0.857066 0.0152465 -8.09001e-17)
(0.858943 0.0150121 -6.55827e-17)
(0.860798 0.0147825 -6.21848e-17)
(0.86263 0.0145575 -5.3395e-17)
(0.864441 0.014337 -5.14313e-17)
(0.866231 0.0141209 -4.64178e-17)
(0.868 0.0139092 -4.0245e-17)
(0.869748 0.0137016 -2.94382e-17)
(0.871475 0.0134982 -1.9165e-17)
(0.873182 0.0132987 -1.41606e-17)
(0.874869 0.0131032 -4.91247e-18)
(0.876537 0.0129115 -1.76989e-18)
(0.878185 0.0127234 7.42353e-18)
(0.879814 0.012539 9.26286e-18)
(0.881424 0.0123581 1.21527e-17)
(0.883016 0.0121807 1.84971e-17)
(0.884589 0.0120066 2.81141e-17)
(0.886145 0.0118358 3.32246e-17)
(0.887682 0.0116682 3.72726e-17)
(0.889202 0.0115038 4.64706e-17)
(0.679873 0.0326324 -5.89049e-16)
(0.683646 0.0320136 -5.73129e-16)
(0.687366 0.0314075 -5.63719e-16)
(0.691032 0.0308139 -5.47486e-16)
(0.694647 0.0302327 -5.32298e-16)
(0.698211 0.0296638 -5.23046e-16)
(0.701725 0.0291069 -5.06087e-16)
(0.705189 0.028562 -4.97181e-16)
(0.708605 0.0280288 -4.80793e-16)
(0.711973 0.0275072 -4.75469e-16)
(0.715294 0.0269969 -4.61252e-16)
(0.718569 0.0264977 -4.53093e-16)
(0.721798 0.0260095 -4.40286e-16)
(0.724982 0.0255321 -4.29491e-16)
(0.728123 0.0250652 -4.13122e-16)
(0.73122 0.0246086 -4.06888e-16)
(0.734274 0.0241621 -3.91142e-16)
(0.737286 0.0237255 -3.82781e-16)
(0.740258 0.0232986 -3.66708e-16)
(0.743188 0.0228811 -3.61343e-16)
(0.746079 0.022473 -3.44118e-16)
(0.74893 0.0220739 -3.38861e-16)
(0.751742 0.0216836 -3.21124e-16)
(0.754517 0.0213021 -3.1437e-16)
(0.757254 0.0209289 -3.00197e-16)
(0.759954 0.0205641 -2.97235e-16)
(0.762618 0.0202073 -2.79166e-16)
(0.765246 0.0198583 -2.75427e-16)
(0.767839 0.0195171 -2.62281e-16)
)
;

boundaryField
{
    inlet
    {
        type            uniformFixedValue;
        uniformValue    constant (1 0 0);
        value           nonuniform 0();
    }
    outlet
    {
        type            pressureInletOutletVelocity;
        value           nonuniform 0();
    }
    wall
    {
        type            fixedValue;
        value           nonuniform 0();
    }
    wedge1
    {
        type            wedge;
    }
    wedge2
    {
        type            wedge;
    }
    axis
    {
        type            empty;
    }
    procBoundary22to16
    {
        type            processor;
        value           nonuniform List<vector> 
69
(
(1.23272 0.0317116 -2.41846e-16)
(1.2327 0.0312147 -2.34415e-16)
(1.2327 0.0307278 -2.20668e-16)
(1.23272 0.0302505 -2.13862e-16)
(1.23276 0.0297827 -2.04234e-16)
(1.23282 0.0293242 -1.621e-16)
(1.2329 0.0288748 -1.54185e-16)
(1.23301 0.0284342 -1.43488e-16)
(1.23313 0.0280023 -1.33052e-16)
(1.23327 0.0275789 -1.17202e-16)
(1.23342 0.0271638 -1.1002e-16)
(1.2336 0.0267567 -9.81879e-17)
(1.23379 0.0263576 -9.14422e-17)
(1.23399 0.0259663 -8.46861e-17)
(1.23421 0.0255825 -3.66172e-17)
(1.23444 0.0252061 -3.25967e-17)
(1.23469 0.0248369 -2.14836e-17)
(1.23494 0.0244748 -1.53807e-17)
(1.23521 0.0241196 2.13877e-17)
(1.2355 0.0237712 2.30399e-17)
(1.23579 0.0234293 2.23482e-17)
(1.23609 0.0230939 2.75006e-17)
(1.23641 0.0227647 6.33145e-17)
(1.23673 0.0224418 6.76539e-17)
(1.23706 0.0221248 7.49571e-17)
(1.2374 0.0218137 8.2434e-17)
(1.23775 0.0215083 8.37007e-17)
(1.23811 0.0212085 8.82643e-17)
(1.23847 0.0209142 8.99951e-17)
(1.23884 0.0206253 9.40953e-17)
(1.23922 0.0203415 1.34122e-16)
(1.2396 0.0200629 1.36522e-16)
(1.23999 0.0197893 1.43341e-16)
(1.24039 0.0195206 1.48417e-16)
(1.24079 0.0192566 1.57156e-16)
(1.24119 0.0189973 1.63502e-16)
(1.2416 0.0187425 1.64473e-16)
(1.24202 0.0184922 1.67022e-16)
(1.24244 0.0182462 1.72584e-16)
(1.24286 0.0180044 2.0702e-16)
(1.24328 0.0177669 2.12067e-16)
(1.24371 0.0175334 2.17375e-16)
(1.24415 0.0173038 2.19858e-16)
(1.24458 0.0170781 2.51027e-16)
(1.24502 0.0168562 2.51263e-16)
(1.04238 0.0433574 -6.73637e-16)
(1.04329 0.0425886 -6.5547e-16)
(1.04422 0.0418347 -6.41225e-16)
(1.04516 0.0410958 -6.05654e-16)
(1.04611 0.0403715 -5.90859e-16)
(1.04707 0.0396617 -5.76589e-16)
(1.04805 0.0389662 -5.58082e-16)
(1.04903 0.0382848 -5.44424e-16)
(1.05003 0.0376173 -5.27749e-16)
(1.05103 0.0369635 -5.12449e-16)
(1.05204 0.0363231 -4.9982e-16)
(1.05307 0.0356959 -4.85165e-16)
(1.0541 0.0350817 -4.47916e-16)
(1.05513 0.0344802 -4.383e-16)
(1.05618 0.0338912 -4.27046e-16)
(1.05723 0.0333144 -4.126e-16)
(1.05828 0.0327497 -3.73743e-16)
(1.05934 0.0321967 -3.69903e-16)
(1.06041 0.0316553 -3.55828e-16)
(1.06147 0.0311251 -3.47026e-16)
(1.06255 0.0306061 -3.11077e-16)
(1.06362 0.0300978 -3.04032e-16)
(1.0647 0.0296002 -2.95815e-16)
(1.0647 0.0296002 -2.95815e-16)
)
;
    }
    procBoundary22to17
    {
        type            processor;
        value           uniform (1.11214 0.0148695 1.72902e-16);
    }
    procBoundary22to21
    {
        type            processor;
        value           nonuniform List<vector> 5((0.914858 0.0412117 -6.6969e-16) (0.851238 0.0395652 -6.63904e-16) (0.792518 0.0370873 -6.33291e-16) (0.792518 0.0370873 -6.33291e-16) (0.733247 0.0352246 -6.16833e-16));
    }
    procBoundary22to23
    {
        type            processor;
        value           nonuniform List<vector> 4((1.02455 0.0135289 1.25755e-16) (0.979621 0.0128171 9.19582e-17) (0.935004 0.012087 7.2567e-17) (0.890704 0.0113423 5.24682e-17));
    }
    procBoundary22to27
    {
        type            processor;
        value           uniform (0.676045 0.0332639 -5.98884e-16);
    }
    procBoundary22to28
    {
        type            processor;
        value           nonuniform List<vector> 
68
(
(0.770398 0.0191834 -2.47122e-16)
(0.772923 0.018857 -2.44216e-16)
(0.775414 0.0185377 -2.29035e-16)
(0.777872 0.0182254 -2.24677e-16)
(0.780298 0.0179199 -2.1035e-16)
(0.782692 0.0176211 -2.07621e-16)
(0.785055 0.0173287 -1.9362e-16)
(0.787386 0.0170426 -1.89734e-16)
(0.789688 0.0167627 -1.76799e-16)
(0.791959 0.0164888 -1.76637e-16)
(0.794202 0.0162207 -1.62001e-16)
(0.796415 0.0159583 -1.57482e-16)
(0.798599 0.0157016 -1.44399e-16)
(0.800756 0.0154502 -1.4264e-16)
(0.802885 0.0152041 -1.29038e-16)
(0.804987 0.0149632 -1.25652e-16)
(0.807063 0.0147274 -1.1209e-16)
(0.809112 0.0144964 -1.09346e-16)
(0.811135 0.0142702 -9.51719e-17)
(0.813132 0.0140487 -9.12664e-17)
(0.815105 0.0138317 -7.65433e-17)
(0.817052 0.0136192 -7.56424e-17)
(0.818976 0.013411 -6.45508e-17)
(0.820875 0.013207 -6.36571e-17)
(0.822751 0.0130071 -5.57503e-17)
(0.824604 0.0128112 -4.54514e-17)
(0.826434 0.0126192 -4.14726e-17)
(0.828241 0.0124311 -3.05736e-17)
(0.830026 0.0122466 -2.80872e-17)
(0.83179 0.0120658 -1.72216e-17)
(0.833531 0.0118885 -1.73863e-17)
(0.835252 0.0117147 -5.47545e-18)
(0.836952 0.0115442 -8.1625e-18)
(0.838631 0.011377 1.26148e-19)
(0.84029 0.011213 3.3532e-18)
(0.841928 0.0110521 1.54559e-17)
(0.843548 0.0108943 1.73254e-17)
(0.845148 0.0107394 2.76813e-17)
(0.625182 0.0306223 -5.69585e-16)
(0.629302 0.0300358 -5.54949e-16)
(0.633359 0.0294614 -5.50174e-16)
(0.637355 0.028899 -5.31324e-16)
(0.64129 0.0283483 -5.15005e-16)
(0.645166 0.0278094 -5.06209e-16)
(0.648983 0.027282 -4.90756e-16)
(0.652743 0.026766 -4.82891e-16)
(0.656446 0.0262611 -4.67286e-16)
(0.660095 0.0257673 -4.62467e-16)
(0.663688 0.0252843 -4.48882e-16)
(0.667229 0.024812 -4.46287e-16)
(0.670716 0.0243501 -4.3035e-16)
(0.674152 0.0238985 -4.21717e-16)
(0.677538 0.0234569 -4.06041e-16)
(0.680873 0.0230251 -4.07135e-16)
(0.68416 0.022603 -3.8625e-16)
(0.687398 0.0221904 -3.7722e-16)
(0.690589 0.021787 -3.61433e-16)
(0.693734 0.0213926 -3.62809e-16)
(0.696833 0.021007 -3.42698e-16)
(0.699888 0.0206301 -3.36146e-16)
(0.702898 0.0202617 -3.18889e-16)
(0.705865 0.0199015 -3.11026e-16)
(0.70879 0.0195493 -2.97225e-16)
(0.711672 0.019205 -2.93047e-16)
(0.714514 0.0188684 -2.78593e-16)
(0.717315 0.0185393 -2.82703e-16)
(0.770398 0.0191834 -2.47122e-16)
(0.720077 0.0182175 -2.62919e-16)
)
;
    }
}


// ************************************************************************* //
