/*--------------------------------*- C++ -*----------------------------------*\
  =========                 |
  \\      /  F ield         | OpenFOAM: The Open Source CFD Toolbox
   \\    /   O peration     | Website:  https://openfoam.org
    \\  /    A nd           | Version:  7
     \\/     M anipulation  |
\*---------------------------------------------------------------------------*/
FoamFile
{
    version     2.0;
    format      ascii;
    class       volScalarField;
    location    "1";
    object      p;
}
// * * * * * * * * * * * * * * * * * * * * * * * * * * * * * * * * * * * * * //

dimensions      [0 2 -2 0 0 0 0];

internalField   nonuniform List<scalar> 
344
(
-5.09684
-4.33707
-3.09526
-2.68702
-0.128765
-0.088496
-0.0566996
-0.0299537
-0.00817666
-2.63363
-2.24996
-2.35252
-2.51775
-2.91351
-3.54737
-4.32167
-5.06943
-5.41751
-5.21595
-4.68476
-4.07148
-3.35704
-2.29496
-1.14076
-0.242056
0.211475
0.38152
0.394596
0.226203
-0.202822
-0.936225
-1.82129
-2.60217
-3.2452
-3.8383
-4.40488
-4.87514
-5.28164
-5.6828
-6.05519
-6.40158
-6.70202
-6.94968
-7.15507
-7.29974
-7.36336
-7.37239
-7.34926
-7.26675
-7.12575
-6.95716
-6.73542
-6.36921
-5.8378
-5.22995
-4.70106
-4.3391
-4.05859
-3.69311
-3.15406
-2.4952
-1.81103
-1.2143
-0.816575
-0.602312
-0.481
-0.383693
-0.28372
-0.192745
-0.126033
-0.081521
-0.0505642
-0.027507
-0.00948009
-2.50374
-2.24297
-2.35429
-2.53496
-2.95965
-3.66399
-4.56656
-5.4264
-5.79199
-5.539
-4.96347
-4.31986
-3.53823
-2.4441
-1.34809
-0.523419
-0.0366363
0.141034
0.179144
0.00170674
-0.429878
-1.16221
-2.05082
-2.77625
-3.32371
-3.86652
-4.3953
-4.84011
-5.23544
-5.63454
-6.01238
-6.38128
-6.71321
-6.99492
-7.22107
-7.36881
-7.43056
-7.43057
-7.38658
-7.29616
-7.1539
-6.9689
-6.71534
-6.31794
-5.76958
-5.17255
-4.69325
-4.36494
-4.07343
-3.66418
-3.0819
-2.40159
-1.72667
-1.1717
-0.816066
-0.618249
-0.496649
-0.394208
-0.290931
-0.198873
-0.130835
-0.0847873
-0.0531897
-0.030331
-0.012801
-2.4388
-2.24626
-2.35475
-2.54023
-2.97299
-3.7
-4.65926
-5.56736
-5.93173
-5.66141
-5.07729
-4.42075
-3.60628
-2.5178
-1.46569
-0.677208
-0.202083
-0.0308888
0.00852784
-0.156092
-0.581952
-1.30057
-2.16762
-2.86415
-3.35603
-3.87022
-4.37743
-4.80772
-5.20201
-5.60439
-5.98982
-6.37253
-6.72082
-7.01838
-7.25483
-7.40258
-7.45814
-7.44941
-7.39893
-7.30373
-7.15746
-6.96339
-6.69228
-6.27184
-5.71322
-5.13549
-4.69513
-4.38241
-4.07378
-3.63552
-3.02852
-2.34164
-1.68184
-1.15566
-0.822032
-0.630419
-0.506592
-0.400724
-0.296245
-0.204101
-0.135204
-0.0879059
-0.0555241
-0.0324121
-0.014889
-2.38422
-2.2487
-2.34853
-2.53199
-2.96383
-3.70169
-4.69654
-5.63662
-6.0138
-5.7374
-5.15371
-4.48146
-3.64429
-2.57568
-1.57957
-0.835718
-0.410769
-0.232888
-0.194339
-0.357967
-0.776605
-1.46195
-2.28601
-2.9387
-3.38797
-3.8613
-4.35274
-4.765
-5.15948
-5.56839
-5.96513
-6.363
-6.72651
-7.03567
-7.27604
-7.4204
-7.47115
-7.45689
-7.40009
-7.30044
-7.15001
-6.94418
-6.6484
-6.20309
-5.64833
-5.10878
-4.70406
-4.39282
-4.05964
-3.59124
-2.96634
-2.28302
-1.64534
-1.14904
-0.832972
-0.644573
-0.517738
-0.408565
-0.302798
-0.210117
-0.14011
-0.0916084
-0.058484
-0.0350297
-0.0173567
-0.00323327
-2.33298
-2.23942
-2.33343
-2.5105
-2.93082
-3.6629
-4.67244
-5.63216
-6.01986
-5.75518
-5.17987
-4.497
-3.64508
-2.61351
-1.68864
-1.00815
-0.636145
-0.465885
-0.440746
-0.609301
-1.01327
-1.65374
-2.41748
-3.00841
-3.41672
-3.84886
-4.32339
-4.72148
-5.11738
-5.53107
-5.93637
-6.34668
-6.72186
-7.04153
-7.28517
-7.42526
-7.4717
-7.4526
-7.39066
-7.28507
-7.12707
-6.90655
-6.58539
-6.12403
-5.58761
-5.08974
-4.7094
-4.39102
-4.02996
-3.53433
-2.89762
-2.22397
-1.61244
-1.14582
-0.845294
-0.65927
-0.528951
-0.416069
-0.30882
-0.21585
-0.145339
-0.096089
-0.0622878
-0.0383129
-0.020262
-0.00587657
-2.29048
-2.2337
-2.31405
-2.48137
-2.87898
-3.58253
-4.57766
-5.54301
)
;

boundaryField
{
    inlet
    {
        type            zeroGradient;
    }
    outlet
    {
        type            fixedValue;
        value           nonuniform 0();
    }
    wall
    {
        type            zeroGradient;
    }
    wedge1
    {
        type            wedge;
    }
    wedge2
    {
        type            wedge;
    }
    axis
    {
        type            empty;
    }
    procBoundary21to15
    {
        type            processor;
        value           nonuniform List<scalar> 
70
(
-5.01221
-3.98055
-2.42123
-2.75944
-0.121462
-0.0892584
-0.0605066
-0.0321243
-0.00688518
-2.24116
-2.18596
-2.33788
-2.47847
-2.80545
-3.34022
-3.89903
-4.40156
-4.70585
-4.66914
-4.3064
-3.75768
-3.06872
-2.05097
-0.975806
-0.115822
0.373084
0.604233
0.556565
0.323024
-0.0787358
-0.733885
-1.53994
-2.31094
-3.02158
-3.67743
-4.2706
-4.7901
-5.23106
-5.62543
-6.00009
-6.35723
-6.64796
-6.86289
-7.03881
-7.16225
-7.20404
-7.20341
-7.19133
-7.13411
-6.99829
-6.82085
-6.6217
-6.31283
-5.82919
-5.23407
-4.67155
-4.26863
-3.98498
-3.65149
-3.14861
-2.51944
-1.85413
-1.25306
-0.829107
-0.596102
-0.465852
-0.366099
-0.270366
-0.187482
-0.187482
)
;
    }
    procBoundary21to16
    {
        type            processor;
        value           nonuniform List<scalar> 2(0.00915905 0.00514231);
    }
    procBoundary21to20
    {
        type            processor;
        value           uniform -5.55352;
    }
    procBoundary21to22
    {
        type            processor;
        value           nonuniform List<scalar> 5(0.0013314 -0.000838639 -0.000838639 0.00844926 0.00599058);
    }
    procBoundary21to27
    {
        type            processor;
        value           nonuniform List<scalar> 
67
(
-5.94058
-5.70338
-5.1475
-4.46385
-3.60902
-2.63215
-1.79246
-1.19093
-0.864637
-0.72514
-0.720463
-0.901819
-1.28929
-1.8753
-2.56093
-3.07878
-3.4395
-3.8355
-4.28366
-4.67205
-5.06982
-5.48757
-5.90087
-6.32376
-6.70762
-7.03331
-7.27828
-7.41515
-7.45962
-7.43667
-7.36977
-7.25777
-7.09059
-6.85125
-6.50689
-6.03982
-5.53088
-5.07275
-4.7078
-4.3754
-3.98262
-3.46186
-2.81754
-2.16029
-1.5805
-1.14475
-0.858941
-0.674312
-0.539784
-0.423097
-0.314822
-0.222169
-0.151585
-0.101666
-0.0669986
-0.0422333
-0.0235674
-0.00874426
-2.24955
-2.21039
-2.28518
-2.43341
-2.80284
-3.47079
-4.42695
-5.94058
-5.36076
)
;
    }
}


// ************************************************************************* //
