/*--------------------------------*- C++ -*----------------------------------*\
  =========                 |
  \\      /  F ield         | OpenFOAM: The Open Source CFD Toolbox
   \\    /   O peration     | Website:  https://openfoam.org
    \\  /    A nd           | Version:  7
     \\/     M anipulation  |
\*---------------------------------------------------------------------------*/
FoamFile
{
    version     2.0;
    format      ascii;
    class       volScalarField;
    location    "5.8";
    object      p;
}
// * * * * * * * * * * * * * * * * * * * * * * * * * * * * * * * * * * * * * //

dimensions      [0 2 -2 0 0 0 0];

internalField   nonuniform List<scalar> 
344
(
-0.856762
-0.834122
-0.810618
-0.786346
-0.761431
-0.736007
-0.710206
-0.684149
-0.657948
-0.631705
-0.605507
-0.579434
-0.553554
-0.527927
-0.502603
-0.477627
-0.453035
-0.42886
-0.405127
-0.381857
-0.359067
-0.336771
-0.314979
-0.293698
-0.272933
-0.252686
-0.232958
-0.213747
-0.195052
-0.176868
-0.15919
-0.142014
-0.125331
-0.109135
-0.0934185
-0.0781729
-0.0633898
-0.0490604
-0.0351756
-0.0217263
-0.00870327
0.00390278
0.0161012
0.0279012
0.0393122
0.0503432
0.0610033
0.0713015
0.0812466
0.0908473
0.100112
0.109049
0.117667
0.125974
0.133977
0.141685
0.149104
0.156242
-1.06583
-1.01122
-0.988188
-0.960606
-0.939475
-0.919166
-0.899077
-0.878375
-0.856785
-0.834238
-0.810787
-0.786544
-0.761644
-0.736225
-0.710423
-0.684362
-0.658154
-0.631902
-0.605695
-0.579612
-0.553721
-0.528083
-0.502749
-0.477762
-0.453161
-0.428976
-0.405233
-0.381954
-0.359156
-0.336852
-0.315052
-0.293763
-0.272991
-0.252738
-0.233003
-0.213787
-0.195086
-0.176897
-0.159215
-0.142034
-0.125347
-0.109147
-0.0934268
-0.0781778
-0.0633916
-0.0490592
-0.0351717
-0.0217199
-0.0086946
0.0039136
0.016114
0.0279159
0.0393285
0.050361
0.0610225
0.071322
0.0812683
0.09087
0.100136
0.109074
0.117693
0.126
0.134004
0.141712
0.149132
0.15627
-1.03382
-0.999265
-0.97992
-0.956336
-0.93697
-0.917671
-0.898164
-0.877811
-0.856441
-0.834036
-0.81068
-0.786502
-0.761647
-0.73626
-0.710479
-0.684433
-0.658235
-0.631989
-0.605785
-0.579702
-0.553811
-0.528171
-0.502834
-0.477843
-0.453238
-0.429048
-0.405301
-0.382017
-0.359213
-0.336904
-0.315099
-0.293806
-0.273029
-0.252771
-0.233032
-0.213812
-0.195107
-0.176914
-0.159228
-0.142043
-0.125353
-0.10915
-0.093427
-0.0781753
-0.0633864
-0.0490516
-0.0351618
-0.0217079
-0.00868052
0.00392953
0.0161316
0.0279351
0.0393492
0.0503831
0.0610459
0.0713465
0.0812938
0.0908966
0.100163
0.109102
0.117722
0.12603
0.134034
0.141743
0.149163
0.156302
-1.00762
-0.987447
-0.971497
-0.951591
-0.93394
-0.915695
-0.896826
-0.876877
-0.855774
-0.833553
-0.810328
-0.786246
-0.761461
-0.736128
-0.710389
-0.684374
-0.658201
-0.631973
-0.605784
-0.579712
-0.553828
-0.528194
-0.50286
-0.477872
-0.453267
-0.429078
-0.405329
-0.382044
-0.359239
-0.336928
-0.315121
-0.293825
-0.273045
-0.252784
-0.233043
-0.213819
-0.195112
-0.176916
-0.159227
-0.14204
-0.125347
-0.109142
-0.0934165
-0.0781626
-0.0633716
-0.0490348
-0.0351432
-0.0216875
-0.00865851
0.00395308
0.0161566
0.0279614
0.0393768
0.0504118
0.0610756
0.0713772
0.0813254
0.090929
0.100196
0.109136
0.117756
0.126065
0.13407
0.141778
0.149199
0.156338
-0.986185
-0.976243
-0.963285
-0.946598
-0.930538
-0.913357
-0.89515
-0.875641
-0.854841
-0.832835
-0.809769
-0.785806
-0.761114
-0.735853
-0.710171
-0.684202
-0.658065
-0.631866
-0.6057
-0.579647
-0.553778
-0.528155
-0.502831
-0.47785
-0.453251
-0.429065
-0.40532
-0.382036
-0.359232
-0.336921
-0.315114
-0.293817
-0.273037
-0.252775
-0.233032
-0.213807
-0.195098
-0.1769
-0.15921
-0.142021
-0.125327
-0.10912
-0.0933925
-0.078137
-0.0633445
-0.0490063
-0.0351132
-0.0216562
-0.00862603
0.00398673
0.0161914
0.0279972
0.0394135
0.0504494
0.061114
0.0714163
0.0813652
0.0909693
0.100237
0.109177
0.117798
0.126107
0.134112
0.141821
0.149242
0.156381
-0.96866
-0.965942
-0.955496
-0.941549
-0.92695
-0.910785
-0.893238
-0.874183
-0.853704
-0.831935
-0.809046
-0.785221
-0.760635
-0.73546
-0.709846
-0.683933
-0.657841
-0.63168
-0.605544
-0.579516
-0.553667
-0.528061
)
;

boundaryField
{
    inlet
    {
        type            zeroGradient;
    }
    outlet
    {
        type            fixedValue;
        value           nonuniform 0();
    }
    wall
    {
        type            zeroGradient;
    }
    wedge1
    {
        type            wedge;
    }
    wedge2
    {
        type            wedge;
    }
    axis
    {
        type            empty;
    }
    procBoundary27to21
    {
        type            processor;
        value           nonuniform List<scalar> 
67
(
-0.856337
-0.833659
-0.810148
-0.785886
-0.76099
-0.73559
-0.709814
-0.683783
-0.657608
-0.63139
-0.605216
-0.579166
-0.553307
-0.5277
-0.502395
-0.477436
-0.452862
-0.428702
-0.404983
-0.381726
-0.358949
-0.336665
-0.314884
-0.293613
-0.272857
-0.252618
-0.232898
-0.213695
-0.195007
-0.176829
-0.159157
-0.141986
-0.125308
-0.109117
-0.0934048
-0.0781631
-0.0633836
-0.0490575
-0.0351758
-0.0217293
-0.00870887
0.00389481
0.016091
0.0278891
0.0392982
0.0503276
0.0609862
0.071283
0.0812268
0.0908264
0.10009
0.109027
0.117644
0.12595
0.133952
0.141659
0.149078
0.156215
-1.10435
-1.02291
-0.995787
-0.964164
-0.941303
-0.920082
-0.899494
-0.878512
-0.878512
)
;
    }
    procBoundary27to22
    {
        type            processor;
        value           uniform 0.163106;
    }
    procBoundary27to28
    {
        type            processor;
        value           nonuniform List<scalar> 4(0.163135 0.163167 0.163204 0.163247);
    }
    procBoundary27to33
    {
        type            processor;
        value           nonuniform List<scalar> 
67
(
-0.50275
-0.47778
-0.45319
-0.429011
-0.405272
-0.381993
-0.359192
-0.336883
-0.315078
-0.293783
-0.273003
-0.252741
-0.232998
-0.213773
-0.195063
-0.176865
-0.159174
-0.141984
-0.125288
-0.109081
-0.0933525
-0.078096
-0.0633025
-0.0489633
-0.0350694
-0.0216116
-0.00858053
0.004033
0.0162383
0.0280448
0.0394617
0.0504982
0.0611633
0.0714661
0.0814154
0.0910198
0.100288
0.109228
0.117849
0.126158
0.134163
0.141873
0.149293
0.156433
-0.954372
-0.956693
-0.948289
-0.936629
-0.923331
-0.908106
-0.891192
-0.872586
-0.852434
-0.830909
-0.808207
-0.784527
-0.760058
-0.734976
-0.709438
-0.683587
-0.657546
-0.631427
-0.605326
-0.579327
-0.553503
-0.50275
-0.527917
)
;
    }
}


// ************************************************************************* //
