/*--------------------------------*- C++ -*----------------------------------*\
  =========                 |
  \\      /  F ield         | OpenFOAM: The Open Source CFD Toolbox
   \\    /   O peration     | Website:  https://openfoam.org
    \\  /    A nd           | Version:  7
     \\/     M anipulation  |
\*---------------------------------------------------------------------------*/
FoamFile
{
    version     2.0;
    format      ascii;
    class       volVectorField;
    location    "10";
    object      U;
}
// * * * * * * * * * * * * * * * * * * * * * * * * * * * * * * * * * * * * * //

dimensions      [0 1 -1 0 0 0 0];

internalField   nonuniform List<vector> 
344
(
(0.770398 0.0191834 -2.51082e-16)
(0.772923 0.018857 -2.47187e-16)
(0.775414 0.0185377 -2.3162e-16)
(0.777872 0.0182254 -2.29937e-16)
(0.780298 0.0179199 -2.14016e-16)
(0.782692 0.0176211 -2.12332e-16)
(0.785055 0.0173287 -1.99087e-16)
(0.787386 0.0170426 -2.00925e-16)
(0.789688 0.0167627 -1.85388e-16)
(0.791959 0.0164888 -1.82055e-16)
(0.794202 0.0162207 -1.66299e-16)
(0.796415 0.0159583 -1.66145e-16)
(0.798599 0.0157016 -1.53757e-16)
(0.800756 0.0154502 -1.50303e-16)
(0.802885 0.0152041 -1.33135e-16)
(0.804987 0.0149632 -1.29972e-16)
(0.807063 0.0147274 -1.17606e-16)
(0.809112 0.0144964 -1.15978e-16)
(0.811135 0.0142702 -9.86073e-17)
(0.813132 0.0140487 -9.70592e-17)
(0.815105 0.0138317 -8.33423e-17)
(0.817052 0.0136192 -8.16813e-17)
(0.818976 0.013411 -7.05435e-17)
(0.820875 0.013207 -7.0411e-17)
(0.822751 0.0130071 -5.89689e-17)
(0.824604 0.0128112 -4.73457e-17)
(0.826434 0.0126192 -4.68355e-17)
(0.828241 0.0124311 -3.68658e-17)
(0.830026 0.0122466 -3.39601e-17)
(0.83179 0.0120658 -2.08819e-17)
(0.833531 0.0118885 -2.22592e-17)
(0.835252 0.0117147 -1.2598e-17)
(0.836952 0.0115442 -1.17451e-17)
(0.838631 0.011377 -3.96499e-18)
(0.84029 0.011213 -1.45063e-18)
(0.841928 0.0110521 9.32678e-18)
(0.843548 0.0108943 1.34396e-17)
(0.845148 0.0107394 2.00882e-17)
(0.625182 0.0306223 -5.67261e-16)
(0.629302 0.0300358 -5.53114e-16)
(0.633359 0.0294614 -5.48971e-16)
(0.637355 0.028899 -5.29101e-16)
(0.64129 0.0283483 -5.14026e-16)
(0.645166 0.0278094 -5.04226e-16)
(0.648983 0.027282 -4.8998e-16)
(0.652743 0.026766 -4.82466e-16)
(0.656447 0.0262611 -4.6809e-16)
(0.660095 0.0257673 -4.61115e-16)
(0.663688 0.0252843 -4.47636e-16)
(0.667229 0.024812 -4.48048e-16)
(0.670716 0.0243501 -4.29246e-16)
(0.674152 0.0238985 -4.18639e-16)
(0.677538 0.0234569 -4.02925e-16)
(0.680873 0.0230251 -4.06533e-16)
(0.68416 0.022603 -3.86968e-16)
(0.687398 0.0221904 -3.77099e-16)
(0.690589 0.021787 -3.59615e-16)
(0.693734 0.0213926 -3.61803e-16)
(0.696833 0.021007 -3.41805e-16)
(0.699888 0.0206301 -3.33014e-16)
(0.702898 0.0202617 -3.18375e-16)
(0.705865 0.0199015 -3.11489e-16)
(0.70879 0.0195493 -2.98221e-16)
(0.711672 0.019205 -2.93611e-16)
(0.714514 0.0188684 -2.82733e-16)
(0.717315 0.0185393 -2.85709e-16)
(0.720077 0.0182175 -2.65728e-16)
(0.7228 0.0179029 -2.52349e-16)
(0.725485 0.0175952 -2.47542e-16)
(0.728132 0.0172943 -2.33122e-16)
(0.730742 0.0170001 -2.28733e-16)
(0.733316 0.0167123 -2.15611e-16)
(0.735854 0.0164309 -2.14415e-16)
(0.738357 0.0161556 -2.04024e-16)
(0.740825 0.0158862 -2.1157e-16)
(0.74326 0.0156228 -1.92532e-16)
(0.745662 0.015365 -1.86593e-16)
(0.748031 0.0151128 -1.73841e-16)
(0.750367 0.0148661 -1.79822e-16)
(0.752672 0.0146246 -1.63027e-16)
(0.754946 0.0143882 -1.55937e-16)
(0.75719 0.0141569 -1.41062e-16)
(0.759403 0.0139305 -1.46166e-16)
(0.761587 0.0137089 -1.2784e-16)
(0.763742 0.0134919 -1.25545e-16)
(0.765869 0.0132795 -1.08293e-16)
(0.767967 0.0130714 -1.07411e-16)
(0.770038 0.0128677 -9.23109e-17)
(0.772082 0.0126682 -9.06669e-17)
(0.774099 0.0124728 -8.10461e-17)
(0.77609 0.0122814 -8.66488e-17)
(0.778055 0.0120939 -7.00989e-17)
(0.779995 0.0119101 -5.97412e-17)
(0.781909 0.0117301 -5.78271e-17)
(0.783799 0.0115537 -4.83974e-17)
(0.785665 0.0113808 -4.44122e-17)
(0.787508 0.0112113 -3.47198e-17)
(0.789326 0.0110452 -3.3951e-17)
(0.791122 0.0108823 -2.45025e-17)
(0.792895 0.0107226 -3.05697e-17)
(0.794646 0.010566 -1.76567e-17)
(0.796375 0.0104125 -1.47986e-17)
(0.798082 0.0102619 -5.9524e-18)
(0.799769 0.0101141 -8.37372e-18)
(0.801434 0.0099692 3.84877e-18)
(0.572667 0.0285482 -5.47067e-16)
(0.577086 0.0279962 -5.32425e-16)
(0.581434 0.0274557 -5.28264e-16)
(0.585712 0.0269264 -5.09938e-16)
(0.589922 0.0264084 -4.94706e-16)
(0.594066 0.0259014 -4.87952e-16)
(0.598143 0.0254054 -4.72885e-16)
(0.602156 0.0249201 -4.67891e-16)
(0.606106 0.0244455 -4.52845e-16)
(0.609993 0.0239812 -4.47395e-16)
(0.61382 0.0235273 -4.34749e-16)
(0.617586 0.0230834 -4.34435e-16)
(0.621293 0.0226494 -4.18348e-16)
(0.624943 0.0222252 -4.08073e-16)
(0.628536 0.0218104 -3.93009e-16)
(0.632074 0.021405 -3.93314e-16)
(0.635557 0.0210087 -3.77454e-16)
(0.638986 0.0206214 -3.69783e-16)
(0.642363 0.0202428 -3.53023e-16)
(0.645688 0.0198728 -3.53937e-16)
(0.648962 0.0195111 -3.3798e-16)
(0.652187 0.0191576 -3.29376e-16)
(0.655363 0.0188121 -3.13329e-16)
(0.658491 0.0184744 -3.09913e-16)
(0.661572 0.0181443 -2.95241e-16)
(0.664607 0.0178217 -2.89702e-16)
(0.667597 0.0175063 -2.78991e-16)
(0.670542 0.017198 -2.82115e-16)
(0.673444 0.0168966 -2.65692e-16)
(0.676303 0.016602 -2.51498e-16)
(0.67912 0.016314 -2.47927e-16)
(0.681895 0.0160324 -2.33749e-16)
(0.68463 0.015757 -2.2922e-16)
(0.687326 0.0154878 -2.16365e-16)
(0.689982 0.0152245 -2.16692e-16)
(0.692601 0.014967 -2.05963e-16)
(0.695181 0.0147152 -2.11041e-16)
(0.697725 0.0144689 -1.95538e-16)
(0.700233 0.014228 -1.92759e-16)
(0.702704 0.0139923 -1.78443e-16)
(0.705141 0.0137618 -1.79502e-16)
(0.707544 0.0135362 -1.67166e-16)
(0.709913 0.0133155 -1.61865e-16)
(0.712249 0.0130995 -1.48093e-16)
(0.714553 0.0128882 -1.49656e-16)
(0.716824 0.0126813 -1.34027e-16)
(0.719064 0.0124788 -1.32478e-16)
(0.721274 0.0122806 -1.16824e-16)
(0.723453 0.0120865 -1.14263e-16)
(0.725602 0.0118965 -1.01199e-16)
(0.727722 0.0117105 -9.83077e-17)
(0.729814 0.0115283 -8.83375e-17)
(0.731877 0.0113499 -9.27156e-17)
(0.733913 0.0111751 -7.91535e-17)
(0.735921 0.0110039 -6.93932e-17)
(0.737903 0.0108362 -6.76388e-17)
(0.739858 0.0106719 -5.88098e-17)
(0.741788 0.0105109 -5.70446e-17)
(0.743692 0.0103531 -4.53808e-17)
(0.745571 0.0101985 -4.46335e-17)
(0.747425 0.0100469 -3.60333e-17)
(0.749256 0.00989826 -3.97321e-17)
(0.751062 0.00975257 -2.86103e-17)
(0.752845 0.00960973 -2.78408e-17)
(0.754606 0.00946965 -1.67234e-17)
(0.756343 0.00933226 -1.83096e-17)
(0.758059 0.00919752 -9.80379e-18)
(0.522377 0.0264265 -5.2587e-16)
(0.527045 0.0259109 -5.10082e-16)
(0.531635 0.025406 -5.06605e-16)
(0.536148 0.0249117 -4.88536e-16)
(0.540587 0.0244279 -4.74441e-16)
(0.544951 0.0239546 -4.71209e-16)
(0.549244 0.0234915 -4.53989e-16)
(0.553465 0.0230386 -4.51821e-16)
(0.557618 0.0225956 -4.35104e-16)
(0.561702 0.0221625 -4.32996e-16)
(0.565719 0.021739 -4.19017e-16)
(0.56967 0.021325 -4.21781e-16)
(0.573557 0.0209203 -4.05476e-16)
(0.577381 0.0205247 -3.98766e-16)
(0.581143 0.0201381 -3.81535e-16)
(0.584845 0.0197602 -3.81159e-16)
(0.588487 0.0193909 -3.64531e-16)
(0.59207 0.01903 -3.61559e-16)
(0.595597 0.0186774 -3.44502e-16)
(0.599067 0.0183327 -3.45053e-16)
(0.602482 0.017996 -3.29932e-16)
(0.605844 0.0176669 -3.25654e-16)
(0.609152 0.0173453 -3.06942e-16)
(0.612409 0.017031 -3.06203e-16)
(0.615615 0.0167239 -2.88558e-16)
(0.618771 0.0164238 -2.88247e-16)
(0.621878 0.0161304 -2.74519e-16)
(0.624937 0.0158438 -2.78401e-16)
(0.627949 0.0155636 -2.62908e-16)
(0.630915 0.0152898 -2.47754e-16)
(0.633836 0.0150221 -2.49548e-16)
(0.636712 0.0147604 -2.30593e-16)
(0.639545 0.0145046 -2.31857e-16)
(0.642336 0.0142546 -2.13037e-16)
(0.645084 0.0140101 -2.18489e-16)
(0.647792 0.0137711 -2.04888e-16)
(0.650459 0.0135373 -2.12476e-16)
(0.653086 0.0133088 -1.95933e-16)
(0.655675 0.0130852 -1.96278e-16)
(0.658226 0.0128666 -1.79949e-16)
(0.66074 0.0126528 -1.83272e-16)
(0.663217 0.0124436 -1.68781e-16)
(0.665658 0.012239 -1.69318e-16)
(0.668064 0.0120387 -1.50982e-16)
(0.670435 0.0118429 -1.54777e-16)
(0.672773 0.0116512 -1.36888e-16)
(0.675077 0.0114636 -1.40188e-16)
(0.677348 0.01128 -1.20369e-16)
(0.679588 0.0111003 -1.22371e-16)
(0.681795 0.0109243 -1.07073e-16)
(0.683972 0.0107521 -1.08785e-16)
(0.686119 0.0105835 -9.34614e-17)
(0.688235 0.0104184 -1.0193e-16)
(0.690323 0.0102567 -8.73956e-17)
(0.692382 0.0100983 -7.63579e-17)
(0.694412 0.00994315 -7.77223e-17)
(0.696415 0.00979119 -6.37961e-17)
(0.69839 0.00964231 -6.87839e-17)
(0.700339 0.00949643 -5.31511e-17)
(0.702261 0.00935349 -5.3688e-17)
(0.704157 0.0092134 -4.31246e-17)
(0.706028 0.0090761 -4.8521e-17)
(0.707875 0.0089415 -3.85178e-17)
(0.709696 0.00880956 -4.02135e-17)
(0.711494 0.00868019 -2.48888e-17)
(0.713267 0.00855334 -3.05677e-17)
(0.715018 0.00842894 -1.86858e-17)
(0.474349 0.0242741 -4.97423e-16)
(0.479214 0.0237963 -4.85521e-16)
(0.483995 0.0233285 -4.8678e-16)
(0.488694 0.0228706 -4.65677e-16)
(0.493311 0.0224225 -4.52627e-16)
(0.49785 0.0219842 -4.45088e-16)
(0.50231 0.0215554 -4.32386e-16)
(0.506695 0.021136 -4.27297e-16)
(0.511005 0.020726 -4.14455e-16)
(0.515241 0.0203251 -4.09368e-16)
(0.519406 0.0199332 -3.99048e-16)
(0.5235 0.0195501 -4.07242e-16)
(0.527525 0.0191757 -3.87192e-16)
(0.531483 0.0188098 -3.77597e-16)
(0.535374 0.0184523 -3.64765e-16)
(0.539201 0.0181029 -3.71673e-16)
(0.542963 0.0177616 -3.51331e-16)
(0.546664 0.017428 -3.41894e-16)
(0.550303 0.0171022 -3.30534e-16)
(0.553883 0.0167838 -3.38284e-16)
(0.557404 0.0164727 -3.17585e-16)
(0.560867 0.0161688 -3.09839e-16)
(0.564274 0.0158718 -2.94817e-16)
(0.567626 0.0155817 -2.91279e-16)
(0.570924 0.0152982 -2.78762e-16)
(0.574169 0.0150213 -2.74019e-16)
(0.577362 0.0147507 -2.64246e-16)
(0.580504 0.0144862 -2.75338e-16)
(0.583597 0.0142278 -2.56149e-16)
(0.58664 0.0139753 -2.39454e-16)
(0.589636 0.0137285 -2.3657e-16)
(0.592584 0.0134874 -2.24695e-16)
(0.595487 0.0132516 -2.19596e-16)
(0.598345 0.0130212 -2.08135e-16)
(0.601158 0.012796 -2.08079e-16)
(0.603929 0.0125758 -1.99859e-16)
(0.606656 0.0123606 -2.14826e-16)
(0.609343 0.0121501 -1.94493e-16)
(0.611988 0.0119444 -1.8908e-16)
(0.614594 0.0117432 -1.77973e-16)
(0.61716 0.0115464 -1.89467e-16)
(0.619688 0.0113539 -1.68398e-16)
(0.622178 0.0111657 -1.63779e-16)
(0.624631 0.0109816 -1.48798e-16)
(0.627048 0.0108014 -1.61183e-16)
(0.629429 0.0106252 -1.38699e-16)
(0.631776 0.0104528 -1.33495e-16)
(0.634088 0.010284 -1.20991e-16)
(0.636367 0.0101189 -1.18689e-16)
(0.638613 0.00995726 -1.06463e-16)
(0.640826 0.00979906 -1.06531e-16)
(0.643008 0.00964419 -9.64811e-17)
(0.645159 0.00949256 -1.11179e-16)
(0.647279 0.00934411 -9.11967e-17)
(0.649369 0.00919873 -7.93445e-17)
(0.65143 0.00905636 -7.69065e-17)
(0.653462 0.00891691 -6.85194e-17)
(0.655465 0.00878032 -6.78234e-17)
(0.657441 0.00864651 -5.64735e-17)
(0.659389 0.00851541 -5.49944e-17)
(0.661311 0.00838694 -4.85358e-17)
(0.663206 0.00826105 -6.05764e-17)
(0.665076 0.00813767 -4.42506e-17)
(0.666919 0.00801674 -4.15112e-17)
(0.668738 0.00789818 -3.14525e-17)
(0.670533 0.00778195 -4.33662e-17)
(0.672303 0.00766799 -2.61228e-17)
(0.428606 0.0221083 -4.68654e-16)
(0.433615 0.0216694 -4.58226e-16)
(0.438535 0.0212398 -4.59597e-16)
(0.443367 0.0208194 -4.40785e-16)
(0.448114 0.020408 -4.27996e-16)
(0.452777 0.0200056 -4.20252e-16)
(0.457358 0.019612 -4.10457e-16)
(0.461858 0.0192271 -4.03035e-16)
(0.466279 0.0188509 -3.92355e-16)
(0.470623 0.0184831 -3.86124e-16)
(0.474891 0.0181236 -3.80078e-16)
(0.479084 0.0177723 -3.85942e-16)
(0.483205 0.017429 -3.6701e-16)
(0.487255 0.0170936 -3.57624e-16)
(0.491235 0.0167659 -3.45966e-16)
(0.495146 0.0164457 -3.55224e-16)
(0.498991 0.0161329 -3.33093e-16)
(0.50277 0.0158274 -3.22428e-16)
(0.506484 0.0155289 -3.14043e-16)
(0.510136 0.0152373 -3.23039e-16)
(0.513727 0.0149525 -3.0254e-16)
(0.517257 0.0146743 -2.93563e-16)
(0.520728 0.0144025 -2.81236e-16)
(0.524141 0.014137 -2.77283e-16)
(0.527498 0.0138776 -2.6702e-16)
(0.5308 0.0136243 -2.61692e-16)
(0.534047 0.0133768 -2.54962e-16)
(0.537241 0.013135 -2.66267e-16)
(0.540382 0.0128987 -2.44496e-16)
(0.543473 0.0126679 -2.30714e-16)
(0.546514 0.0124424 -2.25435e-16)
(0.549506 0.012222 -2.15148e-16)
(0.552451 0.0120066 -2.09835e-16)
(0.555348 0.0117962 -2.0221e-16)
(0.558199 0.0115905 -1.98581e-16)
(0.561006 0.0113895 -1.93141e-16)
(0.563768 0.011193 -2.08747e-16)
(0.566487 0.0110009 -1.88748e-16)
)
;

boundaryField
{
    inlet
    {
        type            uniformFixedValue;
        uniformValue    constant (1 0 0);
        value           nonuniform 0();
    }
    outlet
    {
        type            pressureInletOutletVelocity;
        value           nonuniform 0();
    }
    wall
    {
        type            fixedValue;
        value           nonuniform 0();
    }
    wedge1
    {
        type            wedge;
    }
    wedge2
    {
        type            wedge;
    }
    axis
    {
        type            empty;
    }
    procBoundary28to22
    {
        type            processor;
        value           nonuniform List<vector> 
68
(
(0.81908 0.0204346 -2.47829e-16)
(0.821417 0.0200905 -2.32727e-16)
(0.823726 0.0197539 -2.2641e-16)
(0.826007 0.0194246 -2.15697e-16)
(0.828259 0.0191023 -2.07607e-16)
(0.830484 0.018787 -1.97561e-16)
(0.832682 0.0184785 -1.91641e-16)
(0.834853 0.0181765 -1.88973e-16)
(0.836997 0.017881 -1.7787e-16)
(0.839116 0.0175917 -1.64791e-16)
(0.841208 0.0173086 -1.55959e-16)
(0.843275 0.0170314 -1.50934e-16)
(0.845318 0.0167601 -1.41491e-16)
(0.847335 0.0164945 -1.28367e-16)
(0.849329 0.0162343 -1.19646e-16)
(0.851298 0.0159796 -1.14957e-16)
(0.853244 0.0157302 -1.04037e-16)
(0.855166 0.0154859 -9.16398e-17)
(0.857066 0.0152465 -8.28465e-17)
(0.858943 0.0150121 -7.36772e-17)
(0.860798 0.0147825 -6.97463e-17)
(0.86263 0.0145575 -5.83544e-17)
(0.864441 0.014337 -5.59591e-17)
(0.866231 0.0141209 -5.27097e-17)
(0.868 0.0139092 -4.43676e-17)
(0.869748 0.0137016 -3.51111e-17)
(0.871475 0.0134982 -2.28187e-17)
(0.873182 0.0132987 -2.19597e-17)
(0.874869 0.0131032 -1.05109e-17)
(0.876537 0.0129115 -6.70233e-18)
(0.878185 0.0127234 1.11569e-18)
(0.879814 0.012539 2.38719e-18)
(0.881424 0.0123581 6.31342e-18)
(0.883016 0.0121807 1.27367e-17)
(0.884589 0.0120066 2.42359e-17)
(0.886145 0.0118358 2.82319e-17)
(0.887682 0.0116682 3.32893e-17)
(0.889202 0.0115038 3.99486e-17)
(0.679873 0.0326324 -5.86535e-16)
(0.683646 0.0320136 -5.71923e-16)
(0.687366 0.0314075 -5.62043e-16)
(0.691032 0.0308139 -5.44952e-16)
(0.694647 0.0302327 -5.29712e-16)
(0.698211 0.0296638 -5.19771e-16)
(0.701725 0.0291069 -5.04336e-16)
(0.705189 0.028562 -4.96726e-16)
(0.708605 0.0280288 -4.80716e-16)
(0.711973 0.0275072 -4.73219e-16)
(0.715294 0.0269969 -4.58518e-16)
(0.718569 0.0264977 -4.51664e-16)
(0.721798 0.0260095 -4.37565e-16)
(0.724982 0.0255321 -4.28036e-16)
(0.728123 0.0250652 -4.13139e-16)
(0.73122 0.0246086 -4.08486e-16)
(0.734274 0.0241621 -3.91317e-16)
(0.737286 0.0237255 -3.81604e-16)
(0.740258 0.0232986 -3.64083e-16)
(0.743188 0.0228811 -3.61911e-16)
(0.746079 0.022473 -3.43883e-16)
(0.74893 0.0220739 -3.34718e-16)
(0.751742 0.0216836 -3.1997e-16)
(0.754517 0.0213021 -3.14607e-16)
(0.757254 0.0209289 -2.99736e-16)
(0.759954 0.0205641 -2.94506e-16)
(0.762618 0.0202073 -2.83152e-16)
(0.765246 0.0198583 -2.79328e-16)
(0.767839 0.0195171 -2.65578e-16)
(0.767839 0.0195171 -2.65578e-16)
)
;
    }
    procBoundary28to23
    {
        type            processor;
        value           uniform (0.846728 0.0105875 2.63114e-17);
    }
    procBoundary28to27
    {
        type            processor;
        value           nonuniform List<vector> 4((0.620999 0.0312209 -5.77253e-16) (0.568176 0.0291116 -5.54601e-16) (0.517629 0.0269529 -5.31099e-16) (0.469398 0.0247619 -5.04905e-16));
    }
    procBoundary28to29
    {
        type            processor;
        value           nonuniform List<vector> 4((0.803078 0.00982701 1.15528e-17) (0.759752 0.00906534 -3.56549e-18) (0.716745 0.00830693 -1.57374e-17) (0.67405 0.00755623 -2.04318e-17));
    }
    procBoundary28to33
    {
        type            processor;
        value           uniform (0.423506 0.0225564 -4.76213e-16);
    }
    procBoundary28to34
    {
        type            processor;
        value           nonuniform List<vector> 
68
(
(0.569164 0.0108131 -1.80043e-16)
(0.571799 0.0106295 -1.71524e-16)
(0.574393 0.01045 -1.84654e-16)
(0.576948 0.0102744 -1.63808e-16)
(0.579464 0.0101028 -1.57053e-16)
(0.581941 0.00993489 -1.45255e-16)
(0.584381 0.00977067 -1.56773e-16)
(0.586785 0.00961004 -1.36397e-16)
(0.589152 0.00945289 -1.29507e-16)
(0.591484 0.00929915 -1.17807e-16)
(0.593781 0.00914871 -1.14748e-16)
(0.596044 0.00900149 -1.06418e-16)
(0.598274 0.00885742 -1.03232e-16)
(0.600471 0.0087164 -9.61843e-17)
(0.602637 0.00857836 -1.08984e-16)
(0.60477 0.00844323 -9.21219e-17)
(0.606873 0.00831092 -7.99441e-17)
(0.608946 0.00818137 -7.60914e-17)
(0.610989 0.0080545 -6.93708e-17)
(0.613003 0.00793025 -6.73106e-17)
(0.614988 0.00780854 -5.92304e-17)
(0.616946 0.00768932 -5.44265e-17)
(0.618876 0.00757252 -5.1145e-17)
(0.620778 0.00745807 -6.33417e-17)
(0.622655 0.00734592 -4.6849e-17)
(0.624505 0.00723602 -4.24505e-17)
(0.626329 0.00712829 -3.66614e-17)
(0.628129 0.00702269 -4.70157e-17)
(0.629904 0.00691916 -2.98398e-17)
(0.385159 0.0199466 -4.38985e-16)
(0.390257 0.0195475 -4.30274e-16)
(0.395262 0.0191567 -4.27196e-16)
(0.400176 0.0187744 -4.13583e-16)
(0.405001 0.0184004 -4.02799e-16)
(0.409738 0.0180345 -3.94713e-16)
(0.41439 0.0176768 -3.85973e-16)
(0.418957 0.017327 -3.78185e-16)
(0.423443 0.0169852 -3.69647e-16)
(0.427848 0.016651 -3.6336e-16)
(0.432174 0.0163245 -3.56528e-16)
(0.436422 0.0160054 -3.58593e-16)
(0.440596 0.0156937 -3.44462e-16)
(0.444695 0.0153892 -3.36366e-16)
(0.448722 0.0150917 -3.25715e-16)
(0.452678 0.0148011 -3.28251e-16)
(0.456564 0.0145173 -3.12758e-16)
(0.460383 0.01424 -3.03548e-16)
(0.464135 0.0139693 -2.96966e-16)
(0.467822 0.0137048 -3.00428e-16)
(0.471445 0.0134466 -2.85043e-16)
(0.475006 0.0131943 -2.77716e-16)
(0.478507 0.012948 -2.67521e-16)
(0.481947 0.0127074 -2.63112e-16)
(0.485329 0.0124724 -2.53299e-16)
(0.488654 0.0122428 -2.47783e-16)
(0.491923 0.0120186 -2.42858e-16)
(0.495137 0.0117996 -2.46859e-16)
(0.498297 0.0115857 -2.32143e-16)
(0.501405 0.0113768 -2.19216e-16)
(0.504462 0.0111726 -2.12603e-16)
(0.507468 0.0109732 -2.04431e-16)
(0.510425 0.0107783 -1.99723e-16)
(0.513334 0.010588 -1.94012e-16)
(0.516196 0.0104019 -1.88781e-16)
(0.519011 0.0102201 -1.83933e-16)
(0.521781 0.0100424 -1.92487e-16)
(0.569164 0.0108131 -1.80043e-16)
(0.524507 0.00986878 -1.77698e-16)
)
;
    }
}


// ************************************************************************* //
