/*--------------------------------*- C++ -*----------------------------------*\
  =========                 |
  \\      /  F ield         | OpenFOAM: The Open Source CFD Toolbox
   \\    /   O peration     | Website:  https://openfoam.org
    \\  /    A nd           | Version:  7
     \\/     M anipulation  |
\*---------------------------------------------------------------------------*/
FoamFile
{
    version     2.0;
    format      ascii;
    class       volVectorField;
    location    "20";
    object      U;
}
// * * * * * * * * * * * * * * * * * * * * * * * * * * * * * * * * * * * * * //

dimensions      [0 1 -1 0 0 0 0];

internalField   nonuniform List<vector> 
433
(
(1.09258 -0.000528572 0)
(1.09321 -0.000419094 0)
(1.09371 -0.000311144 0)
(1.09407 -0.000205507 0)
(1.09429 -0.000102956 0)
(1.09437 -4.23635e-06 0)
(1.09429 8.99896e-05 0)
(1.09407 0.000179089 0)
(1.09368 0.000262515 0)
(1.09314 0.000339882 0)
(1.09245 0.000410816 0)
(1.0916 0.000475316 0)
(1.0906 0.00053301 0)
(1.08944 0.000584719 0)
(1.08818 0.000629303 0)
(1.0867 0.000669836 0)
(1.08523 0.000701823 0)
(1.08337 0.00073483 0)
(1.08185 0.000753929 0)
(1.07936 0.000785486 0)
(1.07825 0.000789804 0)
(1.07431 0.000825102 0)
(1.09348 -0.00155727 0)
(1.09409 -0.00123168 0)
(1.09457 -0.000910847 0)
(1.09492 -0.000597085 0)
(1.09512 -0.000292688 0)
(1.09518 1.504e-07 0)
(1.09509 0.000279419 0)
(1.09484 0.000543296 0)
(1.09443 0.000790192 0)
(1.09387 0.00101896 0)
(1.09316 0.00122857 0)
(1.09229 0.00141894 0)
(1.09128 0.00158919 0)
(1.0901 0.00174138 0)
(1.08882 0.00187301 0)
(1.08733 0.00199153 0)
(1.08585 0.00208685 0)
(1.08398 0.00218151 0)
(1.08246 0.00224165 0)
(1.07995 0.00232816 0)
(1.07884 0.00235089 0)
(1.07489 0.00244536 0)
(1.09519 -0.00252166 0)
(1.09577 -0.00198497 0)
(1.09622 -0.0014567 0)
(1.09654 -0.000940719 0)
(1.09671 -0.00044076 0)
(1.09673 3.96052e-05 0)
(1.09659 0.000497059 0)
(1.09631 0.000928692 0)
(1.09586 0.00133198 0)
(1.09526 0.00170509 0)
(1.09451 0.00204644 0)
(1.09361 0.00235587 0)
(1.09256 0.00263231 0)
(1.09136 0.00287866 0)
(1.09005 0.00309202 0)
(1.08853 0.00328254 0)
(1.08703 0.00343787 0)
(1.08513 0.00358754 0)
(1.0836 0.00368943 0)
(1.08107 0.00382145 0)
(1.07996 0.00387019 0)
(1.07599 0.00401169 0)
(1.09763 -0.00340743 0)
(1.09818 -0.00266322 0)
(1.09858 -0.00193194 0)
(1.09885 -0.00121888 0)
(1.09897 -0.000529198 0)
(1.09893 0.000132219 0)
(1.09874 0.000760879 0)
(1.0984 0.00135287 0)
(1.0979 0.00190484 0)
(1.09724 0.00241439 0)
(1.09644 0.00287955 0)
(1.09548 0.00330018 0)
(1.09439 0.00367514 0)
(1.09314 0.00400829 0)
(1.09179 0.00429642 0)
(1.09024 0.00455251 0)
(1.08871 0.00476197 0)
(1.08678 0.00496154 0)
(1.08523 0.00510053 0)
(1.08267 0.00527486 0)
(1.08156 0.00534553 0)
(1.07755 0.00553267 0)
(1.10075 -0.00420174 0)
(1.10124 -0.00325261 0)
(1.10159 -0.00232194 0)
(1.10179 -0.00141647 0)
(1.10184 -0.000542689 0)
(1.10173 0.0002933 0)
(1.10147 0.00108594 0)
(1.10105 0.00183043 0)
(1.10048 0.00252276 0)
(1.09976 0.00316011 0)
(1.09888 0.00374025 0)
(1.09786 0.00426327 0)
(1.09671 0.00472806 0)
(1.0954 0.00513964 0)
(1.094 0.00549454 0)
(1.0924 0.00580886 0)
(1.09083 0.00606553 0)
(1.08887 0.00630925 0)
(1.0873 0.0064797 0)
(1.0847 0.00669276 0)
(1.08358 0.00678101 0)
(1.07954 0.00701259 0)
(1.10448 -0.00489262 0)
(1.1049 -0.0037405 0)
(1.10518 -0.00261368 0)
(1.1053 -0.00152027 0)
(1.10526 -0.000468022 0)
(1.10507 0.000535847 0)
(1.10472 0.00148485 0)
(1.10421 0.00237348 0)
(1.10355 0.00319718 0)
(1.10274 0.00395295 0)
(1.10178 0.00463845 0)
(1.10068 0.00525421 0)
(1.09946 0.00579928 0)
(1.09808 0.0062801 0)
(1.09663 0.00669294 0)
(1.09497 0.00705738 0)
(1.09335 0.00735364 0)
(1.09135 0.0076351 0)
(1.08975 0.00783095 0)
(1.08711 0.00807855 0)
(1.08598 0.00818043 0)
(1.08189 0.00845465 0)
(1.10877 -0.00546858 0)
(1.10911 -0.00411513 0)
(1.10929 -0.00279529 0)
(1.10931 -0.0015185 0)
(1.10918 -0.000293679 0)
(1.10888 0.000870983 0)
(1.10843 0.00196822 0)
(1.10782 0.00299199 0)
(1.10705 0.00393743 0)
(1.10614 0.0048015 0)
(1.10509 0.00558202 0)
(1.1039 0.00628012 0)
(1.10259 0.00689521 0)
(1.10114 0.00743537 0)
(1.09961 0.00789667 0)
(1.09789 0.00830257 0)
(1.09623 0.00863024 0)
(1.09417 0.00894264 0)
(1.09254 0.00915739 0)
(1.08986 0.0094352 0)
(1.08872 0.00954658 0)
(1.08458 0.00986169 0)
(1.11356 -0.00591846 0)
(1.1138 -0.00436533 0)
(1.11388 -0.00285582 0)
(1.11379 -0.00140057 0)
(1.11354 -9.55156e-06 0)
(1.11312 0.00130824 0)
(1.11254 0.00254494 0)
(1.11181 0.00369418 0)
(1.11093 0.00475099 0)
(1.10991 0.00571256 0)
(1.10875 0.00657704 0)
(1.10746 0.00734645 0)
(1.10605 0.00802071 0)
(1.10451 0.0086098 0)
(1.10291 0.0091096 0)
(1.10112 0.0095479 0)
(1.0994 0.00989843 0)
(1.09728 0.0102347 0)
(1.09562 0.0104616 0)
(1.09289 0.0107653 0)
(1.09174 0.0108818 0)
(1.08754 0.0112365 0)
(1.11881 -0.00623125 0)
(1.11893 -0.00448048 0)
(1.11888 -0.00278513 0)
(1.11866 -0.00115695 0)
(1.11828 0.000393229 0)
(1.11773 0.00185575 0)
(1.11701 0.00322239 0)
(1.11615 0.00448668 0)
(1.11514 0.00564379 0)
(1.11399 0.00669139 0)
(1.11271 0.0076282 0)
(1.1113 0.00845736 0)
(1.1098 0.00917946 0)
(1.10816 0.0098067 0)
(1.10648 0.0103348 0)
(1.10461 0.0107961 0)
(1.10283 0.0111608 0)
(1.10064 0.0115139 0)
(1.09894 0.011746 0)
(1.09615 0.0120715 0)
(1.09499 0.0121885 0)
(1.09073 0.012582 0)
(1.12446 -0.00639619 0)
(1.12444 -0.00445043 0)
(1.12425 -0.00257379 0)
(1.12389 -0.000779008 0)
(1.12335 0.000922427 0)
(1.12265 0.00252044 0)
(1.12178 0.00400667 0)
(1.12077 0.00537482 0)
(1.11961 0.00662048 0)
(1.11832 0.00774204 0)
(1.11691 0.00873904 0)
(1.11539 0.00961598 0)
(1.11377 0.0103744 0)
(1.11203 0.0110287 0)
(1.11025 0.0115747 0)
(1.1083 0.0120499 0)
(1.10645 0.01242 0)
(1.10419 0.0127829 0)
(1.10245 0.0130134 0)
(1.0996 0.0133568 0)
(1.09842 0.0134695 0)
(1.09408 0.0139017 0)
(1.13046 -0.00640272 0)
(1.13029 -0.0042655 0)
(1.12993 -0.0022131 0)
(1.1294 -0.000258971 0)
(1.1287 0.00158485 0)
(1.12782 0.00330819 0)
(1.12679 0.00490284 0)
(1.12562 0.00636293 0)
(1.1243 0.00768475 0)
(1.12286 0.0088677 0)
(1.12131 0.00991241 0)
(1.11965 0.0108249 0)
(1.1179 0.0116079 0)
(1.11605 0.0122784 0)
(1.11418 0.0128322 0)
(1.11213 0.0133118 0)
(1.1102 0.0136791 0)
(1.10787 0.0140449 0)
(1.10608 0.0142672 0)
(1.10314 0.0146248 0)
(1.10196 0.0147287 0)
(1.09751 0.0152001 0)
(1.13675 -0.00624053 0)
(1.1364 -0.00391648 0)
(1.13587 -0.00169495 0)
(1.13515 0.000410126 0)
(1.13426 0.00238648 0)
(1.1332 0.00422408 0)
(1.13198 0.00591518 0)
(1.13063 0.00745466 0)
(1.12914 0.0088398 0)
(1.12754 0.0100713 0)
(1.12583 0.011151 0)
(1.12402 0.0120869 0)
(1.12215 0.012883 0)
(1.12017 0.0135588 0)
(1.11818 0.0141105 0)
(1.11603 0.0145856 0)
(1.11402 0.0149424 0)
(1.11159 0.0153042 0)
(1.10975 0.0155125 0)
(1.10672 0.0158806 0)
(1.1055 0.0159712 0)
(1.10094 0.0164826 0)
(1.14327 -0.0058995 0)
(1.14273 -0.00339448 0)
(1.142 -0.0010116 0)
(1.14107 0.0012349 0)
(1.13997 0.00333294 0)
(1.13871 0.00527292 0)
(1.13729 0.00704785 0)
(1.13574 0.00865367 0)
(1.13407 0.010089 0)
(1.13228 0.0113559 0)
(1.1304 0.0124582 0)
(1.12844 0.0134054 0)
(1.12641 0.0142035 0)
(1.1243 0.0148741 0)
(1.12219 0.0154146 0)
(1.11991 0.0158766 0)
(1.1178 0.0162159 0)
(1.11526 0.016567 0)
(1.11335 0.0167563 0)
(1.1102 0.0171307 0)
(1.10895 0.0172044 0)
(1.10425 0.0177559 0)
(1.14997 -0.00536938 0)
(1.14921 -0.00269055 0)
(1.14825 -0.000155252 0)
(1.1471 0.00222217 0)
(1.14577 0.00443015 0)
(1.14428 0.0064599 0)
(1.14264 0.00830555 0)
(1.14087 0.00996439 0)
(1.13899 0.0114366 0)
(1.13701 0.0127262 0)
(1.13494 0.0138387 0)
(1.1328 0.0147856 0)
(1.13061 0.0155751 0)
(1.12833 0.0162304 0)
(1.12608 0.0167515 0)
(1.12366 0.0171919 0)
(1.12143 0.0175078 0)
(1.11876 0.0178411 0)
(1.11675 0.0180079 0)
(1.11346 0.0183832 0)
(1.11217 0.0184374 0)
(1.10727 0.0190276 0)
(1.15678 -0.00463923 0)
(1.15576 -0.00179492 0)
(1.15455 0.000882693 0)
(1.15314 0.00337964 0)
(1.15156 0.00568516 0)
(1.14981 0.00779164 0)
(1.14793 0.00969464 0)
(1.14593 0.0113931 0)
(1.14381 0.0128893 0)
(1.14161 0.0141888 0)
(1.13933 0.0152997 0)
(1.13698 0.0162352 0)
(1.1346 0.0170061 0)
(1.13214 0.0176368 0)
(1.12971 0.0181307 0)
(1.12713 0.0185413 0)
(1.12475 0.0188289 0)
(1.12191 0.0191367 0)
(1.11979 0.0192786 0)
(1.11632 0.0196475 0)
(1.11497 0.0196811 0)
(1.10985 0.0203059 0)
(1.16359 -0.00369636 0)
(1.1623 -0.000695534 0)
(1.16079 0.00211321 0)
(1.1591 0.00471742 0)
(1.15723 0.00710757 0)
(1.15521 0.00927742 0)
(1.15305 0.0112243 0)
(1.15077 0.0129492 0)
(1.1484 0.0144564 0)
(1.14594 0.0157537 0)
(1.14342 0.0168516 0)
(1.14083 0.0177649 0)
(1.13823 0.0185078 0)
(1.13555 0.0191047 0)
(1.13292 0.0195645 0)
(1.13014 0.019937 0)
(1.12758 0.0201922 0)
(1.12454 0.0204655 0)
(1.12227 0.0205817 0)
(1.11859 0.0209337 0)
(1.11715 0.0209475 0)
(1.11176 0.0215983 0)
(1.17031 -0.00252492 0)
(1.16869 0.000621765 0)
(1.16686 0.00355023 0)
(1.16484 0.00624922 0)
(1.16265 0.00871078 0)
(1.1603 0.0109305 0)
(1.15783 0.0129079 0)
(1.15524 0.0146459 0)
(1.15256 0.0161515 0)
(1.14981 0.0174344 0)
(1.14701 0.0185082 0)
(1.14415 0.0193888 0)
(1.14128 0.0200946 0)
(1.13835 0.0206484 0)
(1.13548 0.0210671 0)
(1.13245 0.0213926 0)
(1.12967 0.0216116 0)
(1.1264 0.0218397 0)
(1.12395 0.0219305 0)
(1.12002 0.0222513 0)
(1.11847 0.0222484 0)
(1.11277 0.0229108 0)
(1.17677 -0.00110367 0)
(1.17478 0.00217738 0)
(1.17258 0.00521336 0)
(1.17018 0.00799407 0)
(1.16761 0.0105133 0)
(1.16489 0.012769 0)
(1.16205 0.014763 0)
(1.15911 0.0165008 0)
(1.15608 0.0179918 0)
(1.15299 0.0192481 0)
(1.14985 0.0202863 0)
(1.14668 0.0211233 0)
(1.1435 0.0217823 0)
(1.14027 0.0222833 0)
(1.13711 0.0226537 0)
(1.1338 0.022922 0)
(1.13076 0.0231009 0)
(1.12723 0.0232707 0)
(1.12455 0.0233374 0)
(1.12035 0.0236079 0)
(1.11866 0.0235941 0)
(1.11263 0.0242463 0)
(1.18278 0.000595327 0)
(1.18035 0.003999 0)
(1.1777 0.00712899 0)
(1.17486 0.00997708 0)
(1.17186 0.0125394 0)
(1.16871 0.0148162 0)
(1.16544 0.0168121 0)
(1.16208 0.0185351 0)
(1.15865 0.0199976 0)
(1.15516 0.021214 0)
(1.15165 0.0222042 0)
(1.1481 0.0229857 0)
(1.14456 0.0235872 0)
(1.14099 0.0240242 0)
(1.1375 0.0243379 0)
(1.13387 0.0245373 0)
(1.13054 0.0246714 0)
(1.12671 0.0247671 0)
(1.12378 0.0248114 0)
(1.11928 0.0250073 0)
(1.11743 0.024991 0)
(1.11106 0.0256038 0)
(1.18804 0.00260863 0)
(1.18509 0.00612079 0)
(1.18193 0.00932952 0)
(1.17857 0.0122289 0)
(1.17505 0.0148176 0)
(1.1714 0.0170987 0)
(1.16764 0.0190797 0)
(1.1638 0.0207717 0)
(1.1599 0.02219 0)
(1.15597 0.0233512 0)
(1.15201 0.024279 0)
(1.14805 0.024991 0)
(1.14411 0.0255225 0)
(1.14016 0.0258825 0)
(1.1363 0.0261294 0)
)
;

boundaryField
{
    inlet
    {
        type            uniformFixedValue;
        uniformValue    constant (1 0 0);
        value           nonuniform 0();
    }
    outlet
    {
        type            pressureInletOutletVelocity;
        value           nonuniform List<vector> 
19
(
(1.07431 0.000825102 0)
(1.07489 0.00244536 0)
(1.07599 0.00401169 0)
(1.07755 0.00553267 0)
(1.07954 0.00701259 0)
(1.08189 0.00845465 0)
(1.08458 0.00986169 0)
(1.08754 0.0112365 0)
(1.09073 0.012582 0)
(1.09408 0.0139017 0)
(1.09751 0.0152001 0)
(1.10094 0.0164826 0)
(1.10425 0.0177559 0)
(1.10727 0.0190276 0)
(1.10985 0.0203059 0)
(1.11176 0.0215983 0)
(1.11277 0.0229108 0)
(1.11263 0.0242463 0)
(1.11106 0.0256038 0)
)
;
    }
    cylinder
    {
        type            fixedValue;
        value           nonuniform 0();
    }
    top
    {
        type            symmetryPlane;
    }
    bottom
    {
        type            symmetryPlane;
    }
    defaultFaces
    {
        type            empty;
    }
    procBoundary5to4
    {
        type            processor;
        value           nonuniform List<vector> 
21
(
(1.09183 -0.000638799 0)
(1.09274 -0.00188527 0)
(1.09448 -0.00306297 0)
(1.09696 -0.00415923 0)
(1.10012 -0.00516252 0)
(1.10392 -0.00606175 0)
(1.10828 -0.00684595 0)
(1.11317 -0.0075041 0)
(1.11852 -0.00802504 0)
(1.1243 -0.0083975 0)
(1.13044 -0.00861014 0)
(1.1369 -0.00865163 0)
(1.14361 -0.00851063 0)
(1.15053 -0.00817557 0)
(1.15757 -0.00763421 0)
(1.16466 -0.00687267 0)
(1.17169 -0.00587403 0)
(1.17852 -0.00461627 0)
(1.18496 -0.00307006 0)
(1.19073 -0.00119676 0)
(1.19217 0.00497953 0)
)
;
    }
    procBoundary5to11
    {
        type            processor;
        value           nonuniform List<vector> 
22
(
(1.13233 0.0262461 0)
(1.12867 0.0263293 0)
(1.12453 0.0263325 0)
(1.12133 0.0263562 0)
(1.11654 0.0264482 0)
(1.11451 0.0264406 0)
(1.10783 0.0269767 0)
(1.18861 0.00858319 0)
(1.18484 0.0118522 0)
(1.18088 0.0147834 0)
(1.17677 0.0173785 0)
(1.17254 0.0196438 0)
(1.16822 0.0215901 0)
(1.16384 0.0232315 0)
(1.15942 0.0245867 0)
(1.15498 0.0256746 0)
(1.15055 0.0265229 0)
(1.14613 0.0271489 0)
(1.14176 0.0275955 0)
(1.1374 0.0278633 0)
(1.13233 0.0262461 0)
(1.13315 0.028031 0)
)
;
    }
}


// ************************************************************************* //
