/*--------------------------------*- C++ -*----------------------------------*\
  =========                 |
  \\      /  F ield         | OpenFOAM: The Open Source CFD Toolbox
   \\    /   O peration     | Website:  https://openfoam.org
    \\  /    A nd           | Version:  7
     \\/     M anipulation  |
\*---------------------------------------------------------------------------*/
FoamFile
{
    version     2.0;
    format      ascii;
    class       volVectorField;
    location    "5";
    object      U;
}
// * * * * * * * * * * * * * * * * * * * * * * * * * * * * * * * * * * * * * //

dimensions      [0 1 -1 0 0 0 0];

internalField   nonuniform List<vector> 
344
(
(0.92546 -0.0132768 6.56838e-15)
(0.921982 -0.0127459 6.30141e-15)
(0.918636 -0.0122489 6.51105e-15)
(0.915413 -0.0117828 6.69674e-15)
(0.912307 -0.0113451 6.85981e-15)
(0.909311 -0.0109335 7.0349e-15)
(0.906418 -0.0105458 7.1712e-15)
(0.903624 -0.0101802 7.33096e-15)
(0.900922 -0.00983494 7.51507e-15)
(0.898309 -0.00950844 7.62707e-15)
(0.89578 -0.0091993 7.73427e-15)
(0.89333 -0.00890624 7.27231e-15)
(0.890955 -0.00862809 7.42724e-15)
(0.888652 -0.00836377 7.59775e-15)
(0.886418 -0.00811233 7.73627e-15)
(0.884248 -0.00787286 7.86774e-15)
(0.882141 -0.00764457 7.9752e-15)
(0.880094 -0.00742671 8.0865e-15)
(0.878103 -0.0072186 8.21312e-15)
(0.876167 -0.00701962 8.31774e-15)
(0.874283 -0.00682919 8.40087e-15)
(0.872448 -0.00664679 8.51224e-15)
(1.00326 -0.0355528 -6.81512e-18)
(1.03324 -0.100629 4.61225e-17)
(1.08115 -0.15061 5.45564e-17)
(1.13035 -0.181049 4.42566e-16)
(1.1712 -0.194804 8.72598e-16)
(1.20021 -0.196328 6.53754e-16)
(1.21723 -0.189899 1.07794e-15)
(1.2239 -0.17893 9.35662e-16)
(1.22248 -0.165799 8.85287e-16)
(1.21514 -0.152027 1.17992e-15)
(1.20373 -0.138522 1.14891e-15)
(1.18969 -0.125777 1.1246e-15)
(1.17412 -0.114024 1.40332e-15)
(1.15779 -0.103341 1.7607e-15)
(1.14126 -0.0937166 1.26807e-15)
(1.12489 -0.0850918 1.52204e-15)
(1.10895 -0.077386 1.90236e-15)
(1.09358 -0.070511 1.66652e-15)
(1.07888 -0.0643794 1.92594e-15)
(1.06489 -0.0589086 2.23928e-15)
(1.05162 -0.0540231 1.99564e-15)
(1.03908 -0.0496549 2.26658e-15)
(1.02725 -0.0457434 2.5604e-15)
(1.01609 -0.0422352 2.72969e-15)
(1.00557 -0.0390832 3.03994e-15)
(0.995666 -0.0362462 3.34632e-15)
(0.986329 -0.033688 3.64644e-15)
(0.977527 -0.0313768 3.88003e-15)
(0.969224 -0.0292849 3.63246e-15)
(0.961387 -0.027388 3.80787e-15)
(0.953983 -0.0256646 4.04428e-15)
(0.946982 -0.0240959 4.29661e-15)
(0.940354 -0.0226655 4.52597e-15)
(0.934074 -0.0213586 4.73104e-15)
(0.928117 -0.0201624 4.55347e-15)
(0.92246 -0.0190657 4.72101e-15)
(0.917082 -0.0180582 4.94577e-15)
(0.911963 -0.017131 5.1887e-15)
(0.907086 -0.0162763 5.39155e-15)
(0.902434 -0.015487 5.56361e-15)
(0.897991 -0.0147568 5.35465e-15)
(0.893744 -0.0140801 5.49998e-15)
(0.88968 -0.0134519 5.70014e-15)
(0.885787 -0.0128678 5.87796e-15)
(0.882053 -0.0123238 6.05228e-15)
(0.87847 -0.0118163 6.20079e-15)
(0.875027 -0.011342 6.08966e-15)
(0.871716 -0.0108982 6.18039e-15)
(0.86853 -0.0104822 6.33989e-15)
(0.86546 -0.0100916 6.48302e-15)
(0.8625 -0.00972443 6.64326e-15)
(0.859645 -0.00937872 6.79304e-15)
(0.856887 -0.00905277 6.95246e-15)
(0.854223 -0.00874503 7.09262e-15)
(0.851646 -0.00845409 7.22856e-15)
(0.849153 -0.00817868 7.32268e-15)
(0.846739 -0.00791764 7.00155e-15)
(0.8444 -0.00766992 7.07205e-15)
(0.842132 -0.00743456 7.19664e-15)
(0.839933 -0.00721069 7.33373e-15)
(0.837798 -0.00699752 7.46384e-15)
(0.835725 -0.00679432 7.58083e-15)
(0.833711 -0.00660042 7.67801e-15)
(0.831753 -0.00641522 7.78452e-15)
(0.82985 -0.00623815 7.89059e-15)
(0.827998 -0.00606872 7.98453e-15)
(0.826195 -0.00590643 8.07695e-15)
(1.00472 -0.0419216 -1.11943e-17)
(1.04179 -0.113691 1.0324e-17)
(1.09525 -0.165478 5.61762e-17)
(1.14593 -0.193529 3.94109e-16)
(1.18389 -0.202974 7.75867e-16)
(1.20708 -0.199942 6.90646e-16)
(1.21688 -0.189564 9.99795e-16)
(1.21605 -0.175558 7.64659e-16)
(1.20755 -0.16029 8.00572e-16)
(1.1939 -0.145141 1.07279e-15)
(1.17707 -0.130841 1.05979e-15)
(1.15848 -0.117727 1.05245e-15)
(1.13914 -0.105901 1.32814e-15)
(1.11973 -0.0953428 1.61939e-15)
(1.1007 -0.0859701 1.1396e-15)
(1.08232 -0.0776734 1.43814e-15)
(1.06475 -0.0703368 1.77759e-15)
(1.04808 -0.0638487 1.45839e-15)
(1.03235 -0.0581056 1.78459e-15)
(1.01754 -0.0530149 2.07053e-15)
(1.00363 -0.0484948 1.75035e-15)
(0.990581 -0.0444735 2.08011e-15)
(0.978354 -0.0408885 2.36738e-15)
(0.966895 -0.0376858 2.46249e-15)
(0.956154 -0.0348184 2.84313e-15)
(0.946082 -0.0322456 3.1527e-15)
(0.936629 -0.0299322 3.41811e-15)
(0.927751 -0.0278476 3.65093e-15)
(0.919404 -0.025965 3.42133e-15)
(0.911548 -0.0242615 3.57078e-15)
(0.904145 -0.0227168 3.80018e-15)
(0.897162 -0.0213131 4.04582e-15)
(0.890566 -0.0200351 4.27328e-15)
(0.884328 -0.0188692 4.45604e-15)
(0.878421 -0.0178035 4.31341e-15)
(0.87282 -0.0168275 4.48928e-15)
(0.867503 -0.0159318 4.689e-15)
(0.862449 -0.0151085 4.89119e-15)
(0.857639 -0.0143501 5.10827e-15)
(0.853056 -0.0136503 5.25841e-15)
(0.848684 -0.0130034 5.11162e-15)
(0.844507 -0.0124044 5.23133e-15)
(0.840514 -0.0118486 5.39239e-15)
(0.836692 -0.0113321 5.56966e-15)
(0.833029 -0.0108513 5.73639e-15)
(0.829516 -0.010403 5.87068e-15)
(0.826142 -0.00998421 5.87869e-15)
(0.8229 -0.00959244 5.86714e-15)
(0.81978 -0.00922535 6.00322e-15)
(0.816777 -0.00888084 6.15061e-15)
(0.813882 -0.00855704 6.30241e-15)
(0.81109 -0.00825225 6.44821e-15)
(0.808395 -0.00796495 6.59086e-15)
(0.805792 -0.00769375 6.75111e-15)
(0.803275 -0.0074374 6.88461e-15)
(0.800841 -0.00719478 6.95032e-15)
(0.798484 -0.00696485 6.69704e-15)
(0.796202 -0.00674668 6.73611e-15)
(0.793989 -0.00653942 6.84503e-15)
(0.791844 -0.0063423 6.97311e-15)
(0.789762 -0.00615462 7.07342e-15)
(0.78774 -0.00597573 7.19376e-15)
(0.785777 -0.00580504 7.28647e-15)
(0.783869 -0.00564202 7.39648e-15)
(0.782013 -0.00548617 7.50223e-15)
(0.780209 -0.00533705 7.57784e-15)
(0.778452 -0.00519422 7.66366e-15)
(1.00685 -0.0502127 -1.41463e-17)
(1.05276 -0.128845 3.25675e-19)
(1.11119 -0.181218 7.79766e-17)
(1.16138 -0.20526 4.40881e-16)
(1.19394 -0.209174 7.83352e-16)
(1.20908 -0.20096 6.82353e-16)
(1.21002 -0.186495 9.79626e-16)
(1.20069 -0.169618 7.71151e-16)
(1.18465 -0.152529 7.32623e-16)
(1.1646 -0.136363 1.01861e-15)
(1.1425 -0.12162 9.75517e-16)
(1.11966 -0.10845 1.01643e-15)
(1.09694 -0.0968171 1.31892e-15)
(1.07487 -0.0866044 1.56801e-15)
(1.05375 -0.0776619 1.11169e-15)
(1.03376 -0.069836 1.46361e-15)
(1.01495 -0.0629821 1.7399e-15)
(0.997333 -0.0569702 1.38273e-15)
(0.980882 -0.051686 1.68965e-15)
(0.965543 -0.0470304 1.97365e-15)
(0.951253 -0.0429184 1.66023e-15)
(0.937941 -0.0392771 1.98126e-15)
(0.925537 -0.0360442 2.27848e-15)
(0.913974 -0.0331666 2.44421e-15)
(0.903185 -0.0305985 2.76227e-15)
(0.893108 -0.028301 3.01299e-15)
(0.883685 -0.0262405 3.26944e-15)
(0.874862 -0.0243881 3.46906e-15)
(0.866591 -0.0227189 3.17319e-15)
(0.858826 -0.0212113 3.39262e-15)
(0.851526 -0.0198466 3.61994e-15)
(0.844653 -0.0186085 3.84908e-15)
(0.838174 -0.0174828 4.07417e-15)
(0.832055 -0.0164573 4.23543e-15)
(0.826271 -0.0155209 4.06264e-15)
(0.820793 -0.0146643 4.27801e-15)
(0.815599 -0.0138791 4.47869e-15)
(0.810668 -0.0131578 4.67993e-15)
(0.805979 -0.012494 4.85841e-15)
(0.801515 -0.011882 4.9982e-15)
(0.79726 -0.0113166 4.79676e-15)
(0.793199 -0.0107933 4.99823e-15)
(0.789319 -0.0103081 5.15714e-15)
(0.785606 -0.00985736 5.31033e-15)
(0.782051 -0.00943799 5.46899e-15)
(0.778642 -0.00904709 5.58391e-15)
(0.775371 -0.00868212 5.47144e-15)
(0.772228 -0.00834078 5.58379e-15)
(0.769205 -0.00802103 5.6931e-15)
(0.766296 -0.00772103 5.84519e-15)
(0.763493 -0.00743913 5.99128e-15)
(0.76079 -0.00717383 6.12282e-15)
(0.758182 -0.0069238 6.27312e-15)
(0.755664 -0.00668782 6.41193e-15)
(0.753229 -0.0064648 6.53551e-15)
(0.750875 -0.00625374 6.5993e-15)
(0.748597 -0.00605374 6.34161e-15)
(0.74639 -0.00586399 6.42163e-15)
(0.744252 -0.00568375 6.5195e-15)
(0.742178 -0.00551234 6.64924e-15)
(0.740166 -0.00534914 6.73436e-15)
(0.738214 -0.00519359 6.84399e-15)
(0.736317 -0.00504519 6.94336e-15)
(0.734474 -0.00490345 7.034e-15)
(0.732683 -0.00476796 7.14076e-15)
(0.73094 -0.00463831 7.2147e-15)
(0.729244 -0.00451415 7.28366e-15)
(1.00994 -0.0610347 -1.817e-18)
(1.06655 -0.146169 -1.76021e-19)
(1.12846 -0.197257 1.17046e-16)
(1.17527 -0.215357 3.71769e-16)
(1.19941 -0.212548 6.63159e-16)
(1.20414 -0.198744 6.66946e-16)
(1.19476 -0.180307 8.4439e-16)
(1.17626 -0.16094 7.07491e-16)
(1.15253 -0.142499 6.74623e-16)
(1.1263 -0.125777 8.62331e-16)
(1.09936 -0.110999 8.8477e-16)
(1.07279 -0.0981126 9.94271e-16)
(1.04723 -0.0869475 1.17966e-15)
(1.02303 -0.0772964 1.40705e-15)
(1.00034 -0.0689527 1.15695e-15)
(0.979193 -0.0617278 1.34695e-15)
(0.959565 -0.0554564 1.55763e-15)
(0.941385 -0.0499968 1.24008e-15)
(0.924564 -0.0452289 1.51631e-15)
(0.909003 -0.0410518 1.76684e-15)
(0.894603 -0.0373802 1.46722e-15)
(0.881269 -0.0341428 1.76385e-15)
(0.868908 -0.0312793 2.04519e-15)
(0.857436 -0.0287389 2.24908e-15)
(0.846774 -0.0264785 2.5186e-15)
(0.83685 -0.0244617 2.75611e-15)
(0.827599 -0.0226572 2.98032e-15)
(0.818961 -0.0210385 3.15347e-15)
(0.810883 -0.0195826 2.83902e-15)
(0.803316 -0.0182701 3.07076e-15)
(0.796215 -0.0170838 3.2827e-15)
(0.789541 -0.0160091 3.51467e-15)
(0.783259 -0.0150334 3.72767e-15)
(0.777336 -0.0141454 3.85237e-15)
(0.771742 -0.0133356 3.77872e-15)
(0.766451 -0.0125955 3.94298e-15)
(0.76144 -0.0119176 4.12693e-15)
(0.756685 -0.0112954 4.29488e-15)
(0.752169 -0.0107233 4.45934e-15)
(0.747872 -0.0101961 4.60064e-15)
(0.743779 -0.00970934 4.48995e-15)
(0.739875 -0.00925908 4.59319e-15)
(0.736146 -0.00884181 4.74358e-15)
(0.732581 -0.00845438 4.90131e-15)
(0.729168 -0.00809401 5.04571e-15)
(0.725897 -0.00775822 5.12933e-15)
(0.722758 -0.0074448 5.03056e-15)
(0.719744 -0.00715175 5.13489e-15)
(0.716847 -0.0068773 5.26074e-15)
(0.714058 -0.00661986 5.40931e-15)
(0.711372 -0.00637799 5.5496e-15)
(0.708783 -0.00615041 5.65502e-15)
(0.706285 -0.00593595 5.81837e-15)
(0.703873 -0.00573356 5.93136e-15)
(0.701543 -0.00554231 6.03834e-15)
(0.699289 -0.00536133 6.09007e-15)
(0.697108 -0.00518984 5.92245e-15)
(0.694996 -0.00502716 5.9695e-15)
(0.69295 -0.00487263 6.02267e-15)
(0.690966 -0.00472568 6.14615e-15)
(0.689041 -0.00458577 6.2443e-15)
(0.687173 -0.00445243 6.34419e-15)
(0.685359 -0.00432521 6.43072e-15)
(0.683596 -0.00420371 6.51651e-15)
(0.681883 -0.00408756 6.60995e-15)
(0.680216 -0.00397642 6.68953e-15)
(0.678595 -0.00386998 6.7521e-15)
(1.01432 -0.075125 -7.28116e-18)
(1.08338 -0.165525 -1.53147e-17)
(1.14594 -0.212678 -8.93776e-18)
(1.18548 -0.222688 3.7965e-16)
(1.19777 -0.212167 6.37135e-16)
(1.18987 -0.192708 6.6503e-16)
(1.1691 -0.17073 7.61278e-16)
(1.14117 -0.149486 6.03631e-16)
(1.11005 -0.13031 6.12508e-16)
(1.07822 -0.113572 7.76187e-16)
(1.04713 -0.0991991 8.11257e-16)
(1.01754 -0.0869426 9.70851e-16)
(0.989845 -0.0765101 1.09381e-15)
(0.964158 -0.0676205 1.27843e-15)
(0.94047 -0.0600249 1.14319e-15)
(0.918694 -0.0535114 1.26436e-15)
(0.898705 -0.0479035 1.43306e-15)
(0.880363 -0.0430552 1.23034e-15)
(0.863526 -0.0388461 1.3944e-15)
(0.848055 -0.0351772 1.59623e-15)
(0.833822 -0.0319666 1.41199e-15)
(0.820709 -0.0291466 1.61201e-15)
(0.808606 -0.0266609 1.87407e-15)
(0.797417 -0.0244623 2.10238e-15)
(0.787053 -0.0225114 2.34113e-15)
(0.777436 -0.0207749 2.56347e-15)
(0.768494 -0.0192245 2.75509e-15)
(0.760164 -0.0178365 2.88423e-15)
(0.75239 -0.0165904 2.65095e-15)
(0.745121 -0.0154687 2.79883e-15)
(0.738311 -0.0144564 2.99954e-15)
(0.731921 -0.0135405 3.22148e-15)
(0.725913 -0.0127099 3.42814e-15)
(0.720255 -0.0119549 3.55143e-15)
(0.714917 -0.0112669 3.50194e-15)
(0.709872 -0.0106387 3.63803e-15)
(0.705098 -0.0100638 3.80817e-15)
(0.700573 -0.00953657 3.97242e-15)
(0.696276 -0.00905201 4.1122e-15)
(0.692191 -0.00860576 4.24023e-15)
(0.688301 -0.00819397 4.1498e-15)
(0.684593 -0.00781323 4.23083e-15)
(0.681053 -0.00746052 4.36883e-15)
(0.677669 -0.00713316 4.53191e-15)
(0.674431 -0.00682876 4.65838e-15)
(0.671329 -0.00654521 4.72106e-15)
(0.668353 -0.00628061 4.58335e-15)
(0.665495 -0.00603326 4.70043e-15)
(0.662749 -0.00580165 4.83725e-15)
(0.660106 -0.00558443 5.00374e-15)
(0.657561 -0.00538038 5.12661e-15)
(0.655109 -0.0051884 5.2427e-15)
(0.652742 -0.0050075 5.37554e-15)
(0.650458 -0.00483681 5.49102e-15)
)
;

boundaryField
{
    inlet
    {
        type            uniformFixedValue;
        uniformValue    constant (1 0 0);
        value           uniform (1 0 0);
    }
    outlet
    {
        type            pressureInletOutletVelocity;
        value           nonuniform 0();
    }
    wall
    {
        type            fixedValue;
        value           nonuniform 0();
    }
    wedge1
    {
        type            wedge;
    }
    wedge2
    {
        type            wedge;
    }
    axis
    {
        type            empty;
    }
    procBoundary30to24
    {
        type            processor;
        value           nonuniform List<vector> 
68
(
(0.970445 -0.0147735 6.80346e-15)
(0.966969 -0.0141856 6.45239e-15)
(0.963621 -0.0136348 6.70116e-15)
(0.960394 -0.0131182 6.91015e-15)
(0.957282 -0.0126327 7.08122e-15)
(0.954278 -0.012176 7.25009e-15)
(0.951376 -0.0117457 7.41859e-15)
(0.948572 -0.0113398 7.58272e-15)
(0.945859 -0.0109564 7.74245e-15)
(0.943234 -0.0105936 7.87343e-15)
(0.940691 -0.0102501 7.99558e-15)
(0.938227 -0.00992443 7.41054e-15)
(0.935838 -0.00961522 7.65725e-15)
(0.93352 -0.00932134 7.84987e-15)
(0.931271 -0.00904171 7.97844e-15)
(0.929086 -0.00877537 8.12039e-15)
(0.926964 -0.00852142 8.23954e-15)
(0.9249 -0.00827904 8.36683e-15)
(0.922894 -0.00804747 8.47786e-15)
(0.920942 -0.00782603 8.59238e-15)
(0.919041 -0.00761409 8.67715e-15)
(0.917191 -0.00741106 8.78744e-15)
(1.00229 -0.0306251 -1.43174e-18)
(1.02666 -0.0894677 4.47961e-17)
(1.06905 -0.136922 6.90307e-17)
(1.11553 -0.168476 6.07282e-16)
(1.15733 -0.185394 1.10499e-15)
(1.19017 -0.190744 8.08316e-16)
(1.21277 -0.187945 1.30085e-15)
(1.22578 -0.179998 1.09225e-15)
(1.23072 -0.16917 9.73035e-16)
(1.22934 -0.157031 1.38747e-15)
(1.22327 -0.144601 1.26304e-15)
(1.2139 -0.132496 1.18636e-15)
(1.20232 -0.121061 1.58662e-15)
(1.18935 -0.110465 1.99653e-15)
(1.17564 -0.100767 1.26543e-15)
(1.16162 -0.0919628 1.69189e-15)
(1.14761 -0.0840092 2.124e-15)
(1.13385 -0.0768461 1.83091e-15)
(1.12047 -0.0704057 2.15675e-15)
(1.10756 -0.064619 2.50136e-15)
(1.09519 -0.0594197 2.18579e-15)
(1.08338 -0.0547458 2.54161e-15)
(1.07215 -0.0505407 2.83149e-15)
(1.06148 -0.0467532 3.04046e-15)
(1.05136 -0.0433374 3.35402e-15)
(1.04178 -0.0402525 3.64847e-15)
(1.0327 -0.0374623 3.90969e-15)
(1.02411 -0.0349346 4.17967e-15)
(1.01597 -0.0326411 3.82625e-15)
(1.00827 -0.0305566 4.0892e-15)
(1.00096 -0.028659 4.34391e-15)
(0.994038 -0.0269285 4.58231e-15)
(0.987466 -0.0253478 4.84562e-15)
(0.981225 -0.0239014 5.06469e-15)
(0.975293 -0.0225757 4.73902e-15)
(0.969649 -0.0213586 5.01299e-15)
(0.964274 -0.0202392 5.26699e-15)
(0.959151 -0.019208 5.50513e-15)
(0.954263 -0.0182565 5.72892e-15)
(0.949594 -0.0173769 5.91559e-15)
(0.94513 -0.0165625 5.57751e-15)
(0.940858 -0.0158073 5.81743e-15)
(0.936766 -0.0151057 6.03768e-15)
(0.932842 -0.0144529 6.23943e-15)
(0.929077 -0.0138446 6.4119e-15)
(0.929077 -0.0138446 6.4119e-15)
)
;
    }
    procBoundary30to25
    {
        type            processor;
        value           uniform (0.870662 -0.00647192 8.56692e-15);
    }
    procBoundary30to31
    {
        type            processor;
        value           nonuniform List<vector> 4((0.82444 -0.00575087 8.12043e-15) (0.776742 -0.00505732 7.70488e-15) (0.727594 -0.00439514 7.30454e-15) (0.677017 -0.00376796 6.7685e-15));
    }
    procBoundary30to36
    {
        type            processor;
        value           nonuniform List<vector> 
68
(
(0.648251 -0.00467551 5.57865e-15)
(0.646117 -0.00452288 5.62044e-15)
(0.644052 -0.00437827 5.48456e-15)
(0.642052 -0.00424108 5.51179e-15)
(0.640115 -0.00411077 5.56824e-15)
(0.638237 -0.00398685 5.67726e-15)
(0.636415 -0.00386887 5.76633e-15)
(0.634647 -0.00375643 5.86048e-15)
(0.63293 -0.00364914 5.95592e-15)
(0.631262 -0.00354668 6.03103e-15)
(0.629641 -0.00344873 6.10673e-15)
(0.628064 -0.00335501 6.19926e-15)
(0.626529 -0.00326524 6.2487e-15)
(1.02032 -0.0933186 -2.38761e-18)
(1.10307 -0.186413 -9.75444e-18)
(1.16162 -0.226136 7.86343e-17)
(1.18901 -0.22591 2.82182e-16)
(1.18594 -0.207112 4.91687e-16)
(1.16361 -0.182402 6.60436e-16)
(1.13099 -0.157677 6.9781e-16)
(1.094 -0.135392 4.87042e-16)
(1.05628 -0.116212 5.45613e-16)
(1.01979 -0.100043 7.14706e-16)
(0.985507 -0.0865191 7.34287e-16)
(0.953816 -0.0752212 9.82667e-16)
(0.924793 -0.0657598 1.0565e-15)
(0.898341 -0.0578026 1.22675e-15)
(0.874287 -0.0510759 1.08393e-15)
(0.852427 -0.0453584 1.20443e-15)
(0.83255 -0.0404721 1.35332e-15)
(0.814456 -0.036274 1.18035e-15)
(0.797958 -0.0326488 1.32468e-15)
(0.782887 -0.0295033 1.48615e-15)
(0.769091 -0.0267618 1.32223e-15)
(0.756435 -0.0243623 1.52821e-15)
(0.744799 -0.0222537 1.77742e-15)
(0.734076 -0.0203937 1.99524e-15)
(0.724173 -0.0187473 2.22406e-15)
(0.715006 -0.017285 2.4214e-15)
(0.706502 -0.0159821 2.58607e-15)
(0.698596 -0.0148176 2.67501e-15)
(0.691231 -0.0137738 2.38154e-15)
(0.684355 -0.0128356 2.56615e-15)
(0.677922 -0.01199 2.7696e-15)
(0.671892 -0.0112258 2.98194e-15)
(0.66623 -0.0105336 3.17111e-15)
(0.660902 -0.00990486 3.27916e-15)
(0.655879 -0.00933254 3.19554e-15)
(0.651137 -0.00881032 3.34263e-15)
(0.646652 -0.00833274 3.52089e-15)
(0.642402 -0.00789503 3.6704e-15)
(0.63837 -0.00749297 3.81985e-15)
(0.634538 -0.00712289 3.89543e-15)
(0.63089 -0.00678155 3.78653e-15)
(0.627414 -0.00646606 3.89157e-15)
(0.624097 -0.00617391 4.03377e-15)
(0.620927 -0.00590283 4.19232e-15)
(0.617894 -0.00565083 4.30854e-15)
(0.614988 -0.00541614 4.35328e-15)
(0.612202 -0.00519718 4.12906e-15)
(0.609527 -0.00499253 4.30754e-15)
(0.606956 -0.00480093 4.45864e-15)
(0.604483 -0.00462125 4.62563e-15)
(0.602101 -0.00445248 4.72216e-15)
(0.599806 -0.0042937 4.85049e-15)
(0.597592 -0.0041441 4.95759e-15)
(0.648251 -0.00467551 5.57865e-15)
(0.595455 -0.00400294 5.0755e-15)
)
;
    }
}


// ************************************************************************* //
