0.185737 	0.468339 	5.12063e-19 	1.05525 	-0.0292186 	1.87113e-15
0.188513 	0.475337 	1.00207e-18 	1.05395 	-0.0303077 	6.63559e-17
0.191288 	0.482335 	1.15649e-18 	1.02117 	-0.029504 	-2.11891e-16
0.194063 	0.489332 	1.54415e-18 	0.866697 	-0.0250818 	1.1194e-16
0.196838 	0.49633 	1.93914e-18 	0.388814 	-0.00807785 	-2.77286e-16
