0.145026 	0.482335 	-1.01551e-18 	1.03167 	-0.0323461 	-2.37556e-16
0.14713 	0.489332 	-1.84532e-19 	0.923492 	-0.0299068 	1.59574e-16
0.149234 	0.49633 	6.26892e-19 	0.49674 	-0.0125386 	-6.84083e-16
