/*--------------------------------*- C++ -*----------------------------------*\
  =========                 |
  \\      /  F ield         | OpenFOAM: The Open Source CFD Toolbox
   \\    /   O peration     | Website:  https://openfoam.org
    \\  /    A nd           | Version:  7
     \\/     M anipulation  |
\*---------------------------------------------------------------------------*/
FoamFile
{
    version     2.0;
    format      ascii;
    class       surfaceScalarField;
    location    "18";
    object      phi;
}
// * * * * * * * * * * * * * * * * * * * * * * * * * * * * * * * * * * * * * //

dimensions      [0 3 -1 0 0 0 0];

internalField   nonuniform List<scalar> 
806
(
-0.00045158
0.000943439
0.00105198
-0.000315287
0.000759209
-0.000342302
0.000864412
-0.000370669
0.000971806
-0.000400386
0.0010817
-0.00043202
0.00119381
0.00130759
-0.0002551
0.000577323
-0.000278654
0.00067851
-0.000300013
0.000780567
-0.000320743
0.000885142
-0.000342032
0.000993095
-0.000364894
0.00110456
-0.00039026
0.00121918
-0.000418997
0.00133632
-0.000451886
0.00145529
0.00157539
-0.000414661
0.000376846
-0.000406888
0.000467258
-0.000392368
0.000562801
-0.000376479
0.000662622
-0.000362907
0.000766995
-0.000353927
0.000876162
-0.000350801
0.000989969
-0.000354138
0.0011079
-0.000364178
0.00122922
-0.000380984
0.00135313
-0.000404561
0.00147887
-0.000434929
0.00160576
0.00173328
-0.000581965
0.000221885
-0.000548471
0.000261531
-0.000497939
0.000326314
-0.00044856
0.000417879
-0.000405829
0.00052007
-0.000370961
0.000627754
-0.000344152
0.000740186
-0.000325359
0.00085737
-0.000314475
0.000979085
-0.000311342
0.00110476
-0.000315765
0.00123364
-0.000327543
0.00136491
-0.00034651
0.00149783
-0.000372566
0.00163182
-0.000405695
0.00176641
-0.000445977
0.00190137
0.00203664
-0.000181513
0.00100501
-0.000343611
0.000521299
-0.000366362
0.000262441
-0.000333691
0.000189214
-0.000283347
0.000211187
-0.0002409
0.000283866
-0.000213694
0.000390673
-0.000199211
0.000505588
-0.000193996
0.000622539
-0.000194929
0.000741118
-0.000199949
0.00086239
-0.000208046
0.000987182
-0.000218987
0.00111571
-0.000233019
0.00124767
-0.000250642
0.00138253
-0.000272457
0.00151965
-0.000299079
0.00165844
-0.000331084
0.00179842
-0.000368989
0.00193928
-0.000413235
0.00208089
-0.000464164
0.00222335
0.00236701
-0.000226034
0.00256209
-0.000212841
0.0016746
-0.00013177
0.000923944
-4.12822e-05
0.000430811
3.95451e-05
0.000181614
9.7758e-05
0.000131001
0.000109246
0.000199699
8.86322e-05
0.000304479
5.66112e-05
0.000422694
2.06647e-05
0.000541534
-1.48753e-05
0.000658079
-4.77551e-05
0.000773999
-7.71737e-05
0.000891808
-0.000103332
0.00101334
-0.000127073
0.00113945
-0.000149597
0.0012702
-0.000172245
0.00140518
-0.000196345
0.00154375
-0.000223116
0.00168521
-0.000253615
0.00182892
-0.000288712
0.00197437
-0.00032908
0.00212125
-0.000375174
0.00226944
-0.000427202
0.00241903
-0.000485062
0.00257032
0.00272378
-0.00192672
0.00330607
-0.00131842
0.00270707
-0.000663472
0.00190714
-0.000148975
0.0011601
0.000167814
0.000607154
0.000307145
0.00029148
0.00031593
0.000172828
0.000267967
0.000178965
0.000204412
0.000263253
0.000140489
0.000368402
8.66535e-05
0.00047653
4.39465e-05
0.000584241
1.03624e-05
0.000691663
-1.64981e-05
0.000800859
-3.86838e-05
0.000913994
-5.78493e-05
0.00103251
-7.53825e-05
0.00115698
-9.25155e-05
0.00128733
-0.000110382
0.00142304
-0.000130031
0.0015634
-0.000152417
0.00170759
-0.000178378
0.00185488
-0.000208622
0.00200462
-0.000243697
0.00215633
-0.000283968
0.00230971
-0.000329584
0.00246465
-0.00038044
0.00262117
-0.000436124
0.00277947
-0.000496209
0.00293779
0.00309564
-0.000559842
-0.00358669
0.00312537
-0.00313885
0.00299078
-0.00232275
0.00248996
-0.00144603
0.00183035
-0.000753274
0.00121439
-0.000319713
0.000726543
-0.000113205
0.000400646
-5.06339e-05
0.000228909
-5.57218e-05
0.000177916
-8.77733e-05
0.000211016
-0.000103861
0.000279341
-0.000106545
0.000371087
-0.000100461
0.000470446
-8.94603e-05
0.00057324
-7.69433e-05
0.000679146
-6.54944e-05
0.00078941
-5.67683e-05
0.000905268
-5.1632e-05
0.00102737
-5.04294e-05
0.00115578
-5.32357e-05
0.00129014
-6.00501e-05
0.00142986
-7.09084e-05
0.00157426
-8.59274e-05
0.00172261
-0.0001053
0.00187425
-0.000129261
0.00202858
-0.000158036
0.0021851
-0.000191785
0.00234346
-0.000230553
0.00250342
-0.000274224
0.00266484
-0.000322479
0.00282772
-0.00037509
0.0029904
0.00315209
-0.000431547
0.00014749
0.00158372
0.000999862
0.002273
0.00147297
0.00251767
0.00152286
0.00244007
0.00120933
0.00214389
0.000743753
0.00167996
0.00031064
0.00115966
5.63687e-06
0.000705649
-0.000160583
0.000395129
-0.000224865
0.000242199
-0.000229641
0.000215792
-0.000205117
0.000254817
-0.000161064
0.000327034
-0.000116578
0.00042596
-7.92649e-05
0.000535926
-4.99862e-05
0.000649867
-2.80556e-05
0.000767479
-1.24945e-05
0.000889706
-2.41871e-06
0.00101729
2.87728e-06
0.00115048
3.91178e-06
0.0012891
1.01848e-06
0.00143275
-5.64817e-06
0.00158092
-1.60938e-05
0.00173306
-3.04472e-05
0.0018886
-4.89107e-05
0.00204704
-7.17045e-05
0.0022079
-9.90102e-05
0.00237077
-0.000130922
0.00253533
-0.000167412
0.00270133
-0.000208294
0.0028686
-0.000253503
0.00303561
0.00320135
-0.000302762
-0.000136756
-0.00228685
0.0013861
-0.00113238
0.00279668
0.000173143
0.00361745
0.00145222
0.00367156
0.00246356
0.00305238
0.00305924
0.00211838
0.00307789
0.00121111
0.00258723
0.00053166
0.00183911
0.000128024
0.00110929
-4.65167e-05
0.000569669
-7.35607e-05
0.000269243
-3.29274e-05
0.000175159
2.40008e-05
0.000197889
6.84774e-05
0.000282557
9.4727e-05
0.000399711
0.000107119
0.000523534
0.000109817
0.000647168
0.000106829
0.000770468
0.000101113
0.000895422
9.44632e-05
0.00102394
8.77082e-05
0.00115724
8.09956e-05
0.00129581
7.40385e-05
0.00143971
6.63027e-05
0.00158866
5.7138e-05
0.00174222
4.58681e-05
0.00189987
3.18547e-05
0.00206105
1.45419e-05
0.00222521
-6.51111e-06
0.00239182
-3.16097e-05
0.00256043
-6.09114e-05
0.00273064
-9.44237e-05
0.00290211
-0.000132323
0.00307351
0.00324378
-0.000174754
0.00443448
-0.00200869
0.00342357
-0.00192618
0.00262323
-0.00148651
0.00209762
-0.000606775
0.00165428
0.000616482
0.00113677
0.00196974
0.000500048
0.00310028
-6.61386e-05
0.00362543
-0.000401334
0.00341308
-0.000473123
0.00265902
-0.000359882
0.00172586
-0.000173568
0.000922972
3.56675e-06
0.000392534
0.000147471
0.000125338
0.000241981
8.06487e-05
0.000281853
0.000158017
0.000280673
0.000283737
0.000263956
0.000416428
0.000241114
0.000546377
0.000217361
0.000670921
0.000195539
0.00079229
0.000177034
0.000913927
0.000162256
0.00103872
0.000150961
0.00116853
0.000142492
0.00130428
0.000135957
0.00144624
0.000130362
0.00159425
0.000124707
0.00174788
0.000118043
0.00190654
0.00010952
0.00206958
9.84108e-05
0.00223632
8.41274e-05
0.0024061
6.62304e-05
0.00257832
4.443e-05
0.00275244
1.86051e-05
0.00292794
-1.14679e-05
0.00310358
0.00327831
-4.5997e-05
0.00228813
-0.00357175
0.00361341
-0.00341111
0.00439968
-0.00279496
0.00447551
-0.00200201
0.00376979
-0.000780799
0.00240125
0.000761763
0.000725902
0.00229183
-0.000739235
0.00343488
-0.00157734
0.00393839
-0.00170236
0.00375046
-0.00132285
0.00303357
-0.000763216
0.00209939
-0.000264285
0.00122693
7.32429e-05
0.000585443
0.000253392
0.000212385
0.000301099
7.76308e-05
0.000290608
9.11399e-05
0.000261654
0.000186972
0.000230026
0.000315365
0.000204917
0.000441536
0.000187798
0.000563496
0.000177392
0.000681327
0.000171899
0.000797783
0.000169815
0.000916011
0.000170059
0.00103848
0.000171853
0.00116674
0.000174579
0.00130156
0.000177674
0.00144315
0.000180578
0.00159135
0.00018271
0.00174575
0.000183473
0.00190577
0.000182278
0.00207077
0.000178569
0.00224003
0.000171849
0.00241283
0.000161704
0.00258847
0.000147827
0.00276631
0.000130036
0.00294573
0.000108088
0.00312553
0.00330449
8.19068e-05
-0.00160417
-0.00338716
-0.00363161
-0.00281679
-0.00210199
-0.0020301
-0.00085269
-0.00251221
0.00124388
-0.0030325
0.00281212
-0.00310504
0.00350741
-0.00260992
0.00344327
-0.00178428
0.00292482
-0.000955963
0.00220525
-0.000328548
0.00147197
2.69004e-05
0.000871485
0.000165478
0.000446866
0.000171856
0.000206008
0.000127537
0.000121949
6.93689e-05
0.000149308
3.20254e-05
0.000224315
2.91141e-05
0.000318276
4.0849e-05
0.000429801
6.12319e-05
0.000543113
8.58202e-05
0.000656738
0.000111389
0.000772215
0.000135884
0.000891515
0.000158253
0.00101611
0.000178147
0.00114684
0.000195617
0.00128409
0.000210857
0.00142791
0.000224036
0.00157817
0.000235211
0.00173457
0.000244294
0.00189669
0.000251072
0.00206399
0.000255242
0.00223586
0.000256454
0.00241161
0.000254364
0.00259056
0.000248667
0.00277201
0.000239136
0.00295526
0.000225324
0.00313934
0.00332322
0.000206602
-0.00372936
-0.0023325
-0.000758975
0.000634844
0.00154951
0.00191282
0.00179542
0.00140135
0.000961224
0.000602142
0.000358909
0.000214426
0.000266433
0.000140554
0.00022318
0.000109627
0.000255242
0.000104189
0.000323714
0.000112193
0.000421798
0.000125873
0.000529433
0.000142446
0.000640166
0.000160595
0.000754066
0.000179551
0.000872559
0.000198797
0.000996863
0.000217967
0.00112767
0.000236797
0.00126526
0.000255076
0.00140963
0.000272596
0.00156065
0.000289108
0.00171806
0.000304302
0.0018815
0.000317812
0.00205048
0.000329225
0.00222445
0.000338113
0.00240272
0.000344063
0.00258461
0.000346706
0.00276937
0.000345764
0.0029562
0.000340913
0.00314419
0.00333225
0.000331877
6.9556e-05
0.000116205
0.000165891
0.000195579
0.000212972
0.000223151
0.000229845
0.000236094
0.000243919
0.000254351
0.000986431
0.000267657
0.00111437
0.000283597
0.00124932
0.000301645
0.00139158
0.000321148
0.00154115
0.000341387
0.00169782
0.000361659
0.00186123
0.000381282
0.00203086
0.00039961
0.00220612
0.00041604
0.00238629
0.000430025
0.00257062
0.000441092
0.0027583
0.000448871
0.00294842
0.000452936
0.00314013
0.00333243
0.000265918
0.000285866
0.000308235
0.000332599
0.000358424
0.000385154
0.000412191
0.000438923
0.000464745
0.000489065
0.000511322
0.00254837
0.000531003
0.00273862
0.000547679
0.00293175
0.000560859
0.00312695
0.00332335
0.00058739
0.000615833
0.000641573
0.000664081
0.0066538
0.000666198
0.00674873
0.000534906
0.00684168
0.000401934
0.000268424
0.00628834
0.00639169
0.00649087
0.00658454
0.00667607
0.00675728
0.00682975
)
;

boundaryField
{
    inlet
    {
        type            calculated;
        value           nonuniform 0();
    }
    outlet
    {
        type            calculated;
        value           nonuniform 0();
    }
    cylinder
    {
        type            calculated;
        value           uniform 0;
    }
    top
    {
        type            symmetryPlane;
        value           nonuniform 0();
    }
    bottom
    {
        type            symmetryPlane;
        value           nonuniform 0();
    }
    defaultFaces
    {
        type            empty;
        value           nonuniform 0();
    }
    procBoundary7to1
    {
        type            processor;
        value           nonuniform List<scalar> 
13
(
0.000452758
0.000569941
0.000682704
-0.000762133
-0.000629837
-0.000494881
-0.000358049
0.0069313
-0.000137533
6.96655e-07
0.000134138
0.000268422
0.0068932
)
;
    }
    procBoundary7to6
    {
        type            processor;
        value           nonuniform List<scalar> 
24
(
-0.000928209
-0.00103166
-0.000471898
-0.00116218
-0.00127322
-0.00046639
-0.0014224
-0.00153767
-0.000489606
-0.00169606
-0.000472156
-0.00186109
-0.00198904
-0.000493578
-0.00217242
-0.00230921
-0.000521962
-0.00251246
-0.00266061
-0.000548237
-0.0028777
-0.003032
-0.00655786
-0.00618198
)
;
    }
    procBoundary7to8
    {
        type            processor;
        value           nonuniform List<scalar> 
24
(
0.000205556
0.000294026
0.000404404
0.000519255
0.000633471
0.000747817
0.000864734
-0.000248662
0.000969174
0.00109442
0.00122695
0.00136722
0.00151532
0.00167109
0.00183419
0.00200413
0.0021803
0.00236197
-0.000556696
0.00251767
0.00271018
0.00290601
0.00310444
0.00330472
)
;
    }
    procBoundary7to13
    {
        type            processor;
        value           nonuniform List<scalar> 
38
(
-0.000734528
0.000436351
-0.000837397
-0.000549332
0.000290607
-0.000654955
-0.00037073
0.000227109
-0.00047503
-0.000228827
0.000408544
-0.000295025
-0.000619448
-0.000359201
0.000588907
-0.00023969
-0.00243564
-0.000204054
-0.00168779
-0.00359247
9.95828e-05
-0.00331537
-0.00298991
0.00221312
-0.00343862
0.00345123
-0.00265866
0.0012277
0.000927455
-0.000390474
0.00269518
0.00119591
0.00293709
0.00210504
-0.00512097
0.00208582
-0.000821417
0.00206276
)
;
    }
    procBoundary7to14
    {
        type            processor;
        value           nonuniform List<scalar> 
20
(
-0.000458591
-0.00178877
-0.00316666
-0.00360978
-0.00271681
0.00472715
-0.00185048
-0.000152982
0.0012386
0.00211359
0.0025286
0.00256151
0.00232265
0.00186604
0.00131161
0.000805948
0.00044924
-6.88013e-05
0.000265678
0.000176531
)
;
    }
}


// ************************************************************************* //
