/*--------------------------------*- C++ -*----------------------------------*\
  =========                 |
  \\      /  F ield         | OpenFOAM: The Open Source CFD Toolbox
   \\    /   O peration     | Website:  https://openfoam.org
    \\  /    A nd           | Version:  7
     \\/     M anipulation  |
\*---------------------------------------------------------------------------*/
FoamFile
{
    version     2.0;
    format      ascii;
    class       volScalarField;
    location    "3";
    object      p;
}
// * * * * * * * * * * * * * * * * * * * * * * * * * * * * * * * * * * * * * //

dimensions      [0 2 -2 0 0 0 0];

internalField   nonuniform List<scalar> 
346
(
0.266883
0.265386
0.263815
0.262172
0.260457
0.258672
0.256819
0.254898
0.252912
0.25086
0.248745
0.166796
0.173415
0.179775
0.18588
0.191739
0.197356
0.202739
0.207892
0.212822
0.217534
0.222034
0.226326
0.230416
0.234309
0.23801
0.241523
0.244853
0.248004
0.250981
0.253787
0.256427
0.258905
0.261224
0.263389
0.265402
0.267268
0.268989
0.270569
0.272011
0.273319
0.274495
0.275542
0.276463
0.277261
0.277939
0.278498
0.278943
0.279275
0.279496
0.279609
0.279617
0.279521
0.279323
0.279026
0.278632
0.278142
0.277559
0.276884
0.27612
0.275267
0.274329
0.273305
0.272199
0.271011
0.269743
0.268397
0.266974
0.265476
0.263904
0.262259
0.260543
0.258757
0.256902
0.25498
0.252992
0.250939
0.248823
0.167069
0.173683
0.180037
0.186137
0.191991
0.197603
0.20298
0.208129
0.213054
0.217762
0.222257
0.226545
0.230631
0.23452
0.238216
0.241725
0.245051
0.248199
0.251172
0.253974
0.256611
0.259085
0.261401
0.263562
0.265572
0.267435
0.269153
0.27073
0.272169
0.273474
0.274647
0.275691
0.27661
0.277405
0.27808
0.278638
0.27908
0.279409
0.279628
0.279739
0.279744
0.279646
0.279446
0.279147
0.278751
0.278259
0.277674
0.276998
0.276231
0.275377
0.274436
0.273411
0.272303
0.271114
0.269844
0.268497
0.267072
0.265572
0.263999
0.262352
0.260635
0.258847
0.256991
0.255068
0.253078
0.251024
0.248907
0.167369
0.173977
0.180325
0.186419
0.192267
0.197873
0.203245
0.208389
0.213309
0.218011
0.222501
0.226784
0.230865
0.234749
0.238442
0.241946
0.245268
0.248411
0.25138
0.254178
0.256811
0.259281
0.261594
0.263751
0.265757
0.267616
0.269331
0.270905
0.272341
0.273642
0.274812
0.275854
0.276769
0.277562
0.278234
0.278788
0.279228
0.279555
0.279771
0.27988
0.279882
0.279782
0.27958
0.279278
0.27888
0.278386
0.277799
0.27712
0.276352
0.275495
0.274553
0.273526
0.272416
0.271224
0.269953
0.268604
0.267177
0.265676
0.2641
0.262452
0.260733
0.258944
0.257087
0.255162
0.253171
0.251115
0.248996
0.167723
0.174324
0.180665
0.186752
0.192593
0.198192
0.203558
0.208694
0.213608
0.218304
0.222788
0.227065
0.231141
0.235019
0.238706
0.242205
0.245522
0.24866
0.251624
0.254417
0.257045
0.259511
0.261819
0.263972
0.265974
0.267829
0.269539
0.271109
0.272541
0.273839
0.275005
0.276043
0.276955
0.277744
0.278413
0.278964
0.2794
0.279724
0.279937
0.280043
0.280043
0.279939
0.279734
0.27943
0.279029
0.278533
0.277943
0.277262
0.276491
0.275632
0.274688
0.273658
0.272546
0.271352
0.270079
0.268728
0.267299
0.265796
0.264218
0.262568
0.260847
0.259057
0.257197
0.255271
0.253278
0.251221
0.2491
0.168144
0.174736
0.181067
0.187146
0.192978
0.19857
0.203927
0.209056
0.213962
0.218651
0.223128
0.227398
0.231466
0.235338
0.239018
0.242511
0.245821
0.248953
0.251911
0.254699
0.257321
0.259782
0.262084
0.264232
0.266229
0.268078
0.269784
0.271349
0.272777
0.27407
0.275232
0.276265
0.277173
0.277958
0.278623
0.27917
0.279603
0.279923
0.280132
0.280234
0.280231
0.280124
0.279916
0.279609
0.279204
0.278705
0.278112
0.277428
0.276654
0.275793
0.274845
0.273813
0.272698
0.271502
0.270226
0.268872
0.267442
0.265936
0.264356
0.262704
0.260981
0.259188
0.257326
0.255397
0.253403
0.251344
0.249221
)
;

boundaryField
{
    inlet
    {
        type            zeroGradient;
    }
    outlet
    {
        type            fixedValue;
        value           nonuniform 0();
    }
    wall
    {
        type            zeroGradient;
    }
    wedge1
    {
        type            wedge;
    }
    wedge2
    {
        type            wedge;
    }
    axis
    {
        type            empty;
    }
    procBoundary46to40
    {
        type            processor;
        value           nonuniform List<scalar> 
68
(
0.266798
0.265303
0.263733
0.262091
0.260378
0.258594
0.256742
0.254822
0.252837
0.250786
0.248672
0.166546
0.173171
0.179535
0.185645
0.191508
0.19713
0.202517
0.207674
0.212608
0.217325
0.221828
0.226125
0.230219
0.234116
0.23782
0.241337
0.24467
0.247825
0.250805
0.253614
0.256258
0.258739
0.261061
0.263228
0.265244
0.267113
0.268837
0.27042
0.271865
0.273175
0.274353
0.275403
0.276326
0.277127
0.277807
0.278369
0.278815
0.279149
0.279373
0.279488
0.279498
0.279404
0.279208
0.278913
0.278521
0.278033
0.277451
0.276779
0.276016
0.275165
0.274228
0.273206
0.272101
0.270915
0.269649
0.268304
0.268304
)
;
    }
    procBoundary46to41
    {
        type            processor;
        value           uniform 0.246567;
    }
    procBoundary46to45
    {
        type            processor;
        value           nonuniform List<scalar> 5(0.159909 0.160188 0.160494 0.160857 0.161286);
    }
    procBoundary46to47
    {
        type            processor;
        value           nonuniform List<scalar> 5(0.246644 0.246726 0.246815 0.246917 0.247036);
    }
}


// ************************************************************************* //
