/*--------------------------------*- C++ -*----------------------------------*\
  =========                 |
  \\      /  F ield         | OpenFOAM: The Open Source CFD Toolbox
   \\    /   O peration     | Website:  https://openfoam.org
    \\  /    A nd           | Version:  7
     \\/     M anipulation  |
\*---------------------------------------------------------------------------*/
FoamFile
{
    version     2.0;
    format      ascii;
    class       volVectorField;
    location    "3";
    object      U;
}
// * * * * * * * * * * * * * * * * * * * * * * * * * * * * * * * * * * * * * //

dimensions      [0 1 -1 0 0 0 0];

internalField   nonuniform List<vector> 
346
(
(0.209517 0.00124282 -6.79476e-17)
(0.210691 0.00122241 -6.66991e-17)
(0.211846 0.00120242 -6.0238e-17)
(0.212982 0.00118284 -6.11276e-17)
(0.2141 0.00116367 -5.01285e-17)
(0.215201 0.0011449 -4.18691e-17)
(0.216283 0.00112652 -3.97524e-17)
(0.217349 0.00110854 -4.08454e-17)
(0.218398 0.00109094 -3.37194e-17)
(0.219431 0.00107372 -2.59649e-17)
(0.220448 0.00105688 -2.55068e-17)
(0.0731266 0.00247316 -2.14265e-16)
(0.0759977 0.00242065 -2.08146e-16)
(0.0788087 0.00236931 -2.03729e-16)
(0.0815611 0.00231913 -2.01563e-16)
(0.0842561 0.0022701 -2.00194e-16)
(0.086895 0.00222221 -2.01354e-16)
(0.0894792 0.00217544 -1.97035e-16)
(0.0920099 0.00212977 -1.97811e-16)
(0.0944883 0.00208518 -1.92107e-16)
(0.0969157 0.00204166 -1.9193e-16)
(0.0992932 0.00199919 -1.83709e-16)
(0.101622 0.00195775 -1.79517e-16)
(0.103904 0.00191732 -1.77619e-16)
(0.106139 0.00187787 -1.79301e-16)
(0.108328 0.00183938 -1.72554e-16)
(0.110474 0.00180184 -1.68073e-16)
(0.112577 0.00176523 -1.65896e-16)
(0.114637 0.00172951 -1.67152e-16)
(0.116657 0.00169468 -1.61169e-16)
(0.118637 0.0016607 -1.57504e-16)
(0.120577 0.00162757 -1.56275e-16)
(0.12248 0.00159525 -1.57499e-16)
(0.124345 0.00156374 -1.53663e-16)
(0.126174 0.001533 -1.56089e-16)
(0.127968 0.00150302 -1.4824e-16)
(0.129727 0.00147379 -1.48555e-16)
(0.131453 0.00144527 -1.4021e-16)
(0.133145 0.00141746 -1.33481e-16)
(0.134806 0.00139033 -1.31247e-16)
(0.136435 0.00136387 -1.30228e-16)
(0.138034 0.00133805 -1.33e-16)
(0.139603 0.00131287 -1.27569e-16)
(0.141143 0.0012883 -1.29428e-16)
(0.142655 0.00126433 -1.22284e-16)
(0.144139 0.00124094 -1.2322e-16)
(0.145596 0.00121811 -1.13941e-16)
(0.147027 0.00119583 -1.08188e-16)
(0.148431 0.00117408 -1.03604e-16)
(0.149811 0.00115285 -1.07252e-16)
(0.151166 0.00113212 -9.96869e-17)
(0.152497 0.00111188 -9.48186e-17)
(0.153805 0.00109211 -9.27761e-17)
(0.155089 0.00107279 -9.47587e-17)
(0.156352 0.00105392 -8.77266e-17)
(0.157592 0.00103548 -8.27069e-17)
(0.158811 0.00101745 -8.12414e-17)
(0.160009 0.000999832 -8.3753e-17)
(0.161187 0.000982599 -7.91949e-17)
(0.162344 0.000965745 -8.193e-17)
(0.163482 0.000949257 -7.53056e-17)
(0.164601 0.000933126 -7.57817e-17)
(0.165701 0.000917338 -6.58909e-17)
(0.166783 0.000901886 -6.00758e-17)
(0.167847 0.000886759 -5.72953e-17)
(0.168893 0.000871947 -5.52159e-17)
(0.169922 0.000857443 -5.7427e-17)
(0.170934 0.000843241 -5.32264e-17)
(0.171929 0.000829334 -5.34462e-17)
(0.172908 0.000815714 -4.8066e-17)
(0.173871 0.000802375 -4.9182e-17)
(0.174819 0.000789313 -3.92851e-17)
(0.175752 0.000776523 -3.40799e-17)
(0.176669 0.000764001 -3.10655e-17)
(0.177572 0.000751744 -3.21916e-17)
(0.178461 0.00073975 -2.51094e-17)
(0.179336 0.000728016 -2.11926e-17)
(0.180197 0.000716542 -1.91039e-17)
(0.0534793 0.00151809 -1.59951e-16)
(0.0558107 0.00148566 -1.60616e-16)
(0.0580928 0.00145396 -1.57342e-16)
(0.0603269 0.00142298 -1.55589e-16)
(0.0625139 0.00139272 -1.54277e-16)
(0.0646551 0.00136316 -1.48897e-16)
(0.0667514 0.0013343 -1.50594e-16)
(0.0688038 0.00130612 -1.45594e-16)
(0.0708135 0.00127862 -1.46992e-16)
(0.0727815 0.00125177 -1.4071e-16)
(0.0747086 0.00122558 -1.40643e-16)
(0.076596 0.00120003 -1.3946e-16)
(0.0784445 0.0011751 -1.35825e-16)
(0.0802552 0.00115078 -1.29764e-16)
(0.0820289 0.00112706 -1.32367e-16)
(0.0837665 0.00110393 -1.29874e-16)
(0.0854689 0.00108137 -1.27573e-16)
(0.087137 0.00105937 -1.20432e-16)
(0.0887716 0.00103791 -1.22937e-16)
(0.0903735 0.00101699 -1.21416e-16)
(0.0919436 0.000996585 -1.20001e-16)
(0.0934825 0.000976688 -1.12916e-16)
(0.0949912 0.000957286 -1.16194e-16)
(0.0964703 0.000938367 -1.1094e-16)
(0.0979206 0.000919918 -1.13136e-16)
(0.0993427 0.000901927 -1.05727e-16)
(0.100737 0.000884382 -1.06912e-16)
(0.102105 0.000867272 -1.02839e-16)
(0.103447 0.000850585 -1.01042e-16)
(0.104763 0.00083431 -9.92589e-17)
(0.106055 0.000818436 -9.30636e-17)
(0.107322 0.000802953 -9.59723e-17)
(0.108566 0.000787849 -9.01885e-17)
(0.109786 0.000773114 -9.27751e-17)
(0.110984 0.000758738 -8.51989e-17)
(0.11216 0.000744711 -8.65295e-17)
(0.113314 0.000731023 -8.30577e-17)
(0.114448 0.000717663 -7.9026e-17)
(0.115561 0.000704623 -7.35298e-17)
(0.116654 0.000691892 -7.58939e-17)
(0.117727 0.000679462 -7.31216e-17)
(0.118782 0.000667323 -6.96169e-17)
(0.119818 0.000655467 -6.25884e-17)
(0.120836 0.000643884 -6.54095e-17)
(0.121836 0.000632566 -6.39778e-17)
(0.122818 0.000621505 -6.14484e-17)
(0.123784 0.000610693 -5.5475e-17)
(0.124733 0.000600122 -5.8367e-17)
(0.125665 0.000589784 -5.46541e-17)
(0.126582 0.000579672 -5.51877e-17)
(0.127483 0.00056978 -4.90841e-17)
(0.128369 0.0005601 -4.9156e-17)
(0.129241 0.000550626 -4.62169e-17)
(0.130097 0.000541353 -4.31722e-17)
(0.130939 0.000532273 -4.20877e-17)
(0.131768 0.000523383 -3.5532e-17)
(0.132582 0.000514678 -3.93486e-17)
(0.133383 0.000506154 -3.18079e-17)
(0.134172 0.000497807 -3.41724e-17)
(0.134947 0.000489632 -2.93199e-17)
(0.135709 0.000481626 -2.96929e-17)
(0.13646 0.000473787 -2.56611e-17)
(0.137198 0.000466112 -2.24784e-17)
(0.137924 0.000458599 -1.56395e-17)
(0.138639 0.000451247 -1.72653e-17)
(0.139342 0.000444053 -1.52986e-17)
(0.140035 0.000437018 -1.3747e-17)
(0.0357748 0.000774745 -1.1176e-16)
(0.0375105 0.000758093 -1.13038e-16)
(0.0392092 0.000741817 -1.11597e-16)
(0.0408719 0.000725913 -1.10703e-16)
(0.0424993 0.000710379 -1.08988e-16)
(0.0440922 0.00069521 -1.03684e-16)
(0.0456514 0.000680399 -1.05922e-16)
(0.0471778 0.000665943 -1.01539e-16)
(0.048672 0.000651835 -1.03293e-16)
(0.050135 0.000638069 -9.74348e-17)
(0.0515673 0.000624639 -9.91703e-17)
(0.0529699 0.000611538 -9.90329e-17)
(0.0543433 0.000598759 -9.61572e-17)
(0.0556883 0.000586295 -8.8981e-17)
(0.0570057 0.000574141 -9.29557e-17)
(0.058296 0.000562288 -9.2115e-17)
(0.05956 0.000550729 -8.93665e-17)
(0.0607982 0.000539459 -8.31119e-17)
(0.0620114 0.00052847 -8.69468e-17)
(0.0632002 0.000517756 -8.67781e-17)
(0.0643651 0.00050731 -8.45896e-17)
(0.0655068 0.000497124 -7.87992e-17)
(0.0666258 0.000487193 -8.04679e-17)
(0.0677226 0.000477511 -7.601e-17)
(0.0687979 0.000468071 -7.79614e-17)
(0.0698522 0.000458866 -7.18744e-17)
(0.070886 0.000449891 -7.5265e-17)
(0.0718998 0.000441139 -7.28606e-17)
(0.0728941 0.000432605 -7.24652e-17)
(0.0738693 0.000424283 -6.92115e-17)
(0.074826 0.000416168 -6.43296e-17)
(0.0757646 0.000408253 -6.70927e-17)
(0.0766855 0.000400533 -6.09822e-17)
(0.0775892 0.000393003 -6.34267e-17)
(0.0784761 0.000385657 -5.72573e-17)
(0.0793465 0.000378491 -6.00595e-17)
(0.080201 0.000371499 -5.83637e-17)
(0.0810399 0.000364675 -5.50161e-17)
(0.0818635 0.000358016 -4.95036e-17)
(0.0826722 0.000351516 -5.24557e-17)
(0.0834664 0.00034517 -5.11174e-17)
(0.0842464 0.000338974 -4.82189e-17)
(0.0850125 0.000332923 -4.14386e-17)
(0.0857651 0.000327013 -4.51091e-17)
(0.0865044 0.000321239 -4.50208e-17)
(0.0872308 0.000315596 -4.29422e-17)
(0.0879446 0.000310082 -3.58764e-17)
(0.088646 0.000304691 -4.01846e-17)
(0.0893354 0.00029942 -3.58149e-17)
(0.0900129 0.000294264 -3.75614e-17)
(0.0906788 0.000289221 -3.13447e-17)
(0.0913334 0.000284287 -3.37871e-17)
(0.091977 0.000279459 -3.23723e-17)
(0.0926097 0.000274733 -3.0464e-17)
(0.0932318 0.000270106 -2.87499e-17)
(0.0938435 0.000265576 -2.23238e-17)
(0.094445 0.000261141 -2.66785e-17)
(0.0950366 0.000256798 -2.01143e-17)
(0.0956184 0.000252545 -2.25916e-17)
(0.0961907 0.00024838 -1.70058e-17)
(0.0967535 0.000244301 -1.98955e-17)
(0.0973073 0.000240306 -1.80779e-17)
(0.097852 0.000236396 -1.55009e-17)
(0.098388 0.000232567 -7.54058e-18)
(0.0989154 0.00022882 -1.15799e-17)
(0.0994344 0.000225154 -1.05263e-17)
(0.0999451 0.000221567 -8.74038e-18)
(0.0199735 0.00026914 -6.4121e-17)
(0.0210582 0.000263312 -6.71855e-17)
(0.0221197 0.000257616 -6.63274e-17)
(0.0231584 0.000252051 -6.62298e-17)
(0.0241749 0.000246617 -6.45554e-17)
(0.0251696 0.000241312 -5.82162e-17)
(0.0261432 0.000236133 -6.18895e-17)
(0.027096 0.000231079 -5.67574e-17)
(0.0280286 0.000226148 -6.0664e-17)
(0.0289416 0.000221337 -5.45129e-17)
(0.0298352 0.000216645 -5.89595e-17)
(0.0307102 0.000212068 -5.88101e-17)
(0.0315668 0.000207605 -5.68391e-17)
(0.0324055 0.000203253 -4.94097e-17)
(0.0332269 0.000199009 -5.50393e-17)
(0.0340312 0.000194872 -5.46755e-17)
(0.034819 0.000190838 -5.18197e-17)
(0.0355907 0.000186906 -4.47983e-17)
(0.0363466 0.000183072 -5.14508e-17)
(0.0370872 0.000179335 -5.13344e-17)
(0.0378127 0.000175692 -4.99263e-17)
(0.0385237 0.00017214 -4.18624e-17)
(0.0392205 0.000168678 -4.68014e-17)
(0.0399034 0.000165303 -4.05292e-17)
(0.0405727 0.000162013 -4.50495e-17)
(0.0412289 0.000158806 -3.75757e-17)
(0.0418722 0.000155679 -4.46441e-17)
(0.042503 0.000152631 -4.38359e-17)
(0.0431215 0.000149659 -4.30058e-17)
(0.0437281 0.000146761 -4.06012e-17)
(0.0443231 0.000143936 -3.3554e-17)
(0.0449067 0.000141181 -3.87457e-17)
(0.0454793 0.000138494 -3.10738e-17)
(0.0460411 0.000135874 -3.61609e-17)
(0.0465923 0.000133318 -2.91194e-17)
(0.0471333 0.000130825 -3.48579e-17)
(0.0476643 0.000128394 -3.36477e-17)
(0.0481855 0.000126021 -3.25031e-17)
(0.0486972 0.000123706 -2.46817e-17)
(0.0491995 0.000121447 -3.02581e-17)
(0.0496928 0.000119242 -3.05632e-17)
(0.0501771 0.000117089 -2.80954e-17)
(0.0506529 0.000114987 -1.93821e-17)
(0.0511201 0.000112934 -2.64021e-17)
(0.0515791 0.000110929 -2.6716e-17)
(0.05203 0.00010897 -2.39445e-17)
(0.052473 0.000107056 -1.63063e-17)
(0.0529083 0.000105185 -2.29457e-17)
(0.053336 0.000103356 -1.68411e-17)
(0.0537564 0.000101568 -2.13817e-17)
(0.0541695 9.98186e-05 -1.35702e-17)
(0.0545756 9.81074e-05 -1.9144e-17)
(0.0549748 9.6433e-05 -1.9534e-17)
(0.0553672 9.47943e-05 -1.76849e-17)
(0.055753 9.31901e-05 -1.69429e-17)
(0.0561323 9.16196e-05 -8.9406e-18)
(0.0565053 9.00821e-05 -1.46855e-17)
(0.0568721 8.85767e-05 -7.05079e-18)
(0.0572327 8.71024e-05 -1.27977e-17)
(0.0575874 8.56584e-05 -5.32134e-18)
(0.0579363 8.42444e-05 -1.11477e-17)
(0.0582795 8.28595e-05 -1.03724e-17)
(0.0586171 8.15035e-05 -7.87649e-18)
(0.0589491 8.01759e-05 1.25414e-19)
(0.0592759 7.88763e-05 -6.11947e-18)
(0.0595974 7.76045e-05 -6.61126e-18)
(0.0599137 7.63602e-05 -4.05728e-18)
(0.00603813 4.00921e-05 -2.12252e-17)
(0.00641715 3.92119e-05 -2.20077e-17)
(0.00678795 3.8352e-05 -2.16879e-17)
(0.00715072 3.75123e-05 -2.18074e-17)
(0.00750565 3.66926e-05 -2.13582e-17)
(0.00785293 3.58925e-05 -1.93403e-17)
(0.00819272 3.51119e-05 -2.01549e-17)
(0.00852523 3.43503e-05 -1.88653e-17)
(0.00885061 3.36075e-05 -1.98427e-17)
(0.00916905 3.28831e-05 -1.83009e-17)
(0.00948072 3.21768e-05 -1.90507e-17)
(0.00978577 3.14882e-05 -1.92938e-17)
(0.0100844 3.08168e-05 -1.88869e-17)
(0.0103767 3.01624e-05 -1.59013e-17)
(0.0106629 2.95246e-05 -1.82691e-17)
(0.0109432 2.89029e-05 -1.78781e-17)
(0.0112176 2.8297e-05 -1.70975e-17)
(0.0114863 2.77065e-05 -1.48502e-17)
(0.0117495 2.7131e-05 -1.70023e-17)
(0.0120073 2.65702e-05 -1.71008e-17)
(0.0122599 2.60236e-05 -1.62e-17)
(0.0125073 2.5491e-05 -1.4377e-17)
(0.0127497 2.4972e-05 -1.50841e-17)
(0.0129873 2.44662e-05 -1.36764e-17)
(0.0132201 2.39733e-05 -1.47537e-17)
(0.0134483 2.34929e-05 -1.26222e-17)
(0.0136719 2.30247e-05 -1.49795e-17)
(0.0138912 2.25684e-05 -1.42769e-17)
(0.0141062 2.21237e-05 -1.38141e-17)
(0.014317 2.16902e-05 -1.33148e-17)
(0.0145237 2.12677e-05 -1.11516e-17)
(0.0147265 2.08558e-05 -1.26231e-17)
(0.0149253 2.04543e-05 -1.00635e-17)
(0.0151204 2.00628e-05 -1.153e-17)
(0.0153118 1.96812e-05 -9.6681e-18)
(0.0154997 1.9309e-05 -1.11954e-17)
(0.015684 1.8946e-05 -1.13904e-17)
(0.0158649 1.8592e-05 -1.10586e-17)
(0.0160424 1.82468e-05 -7.65379e-18)
(0.0162167 1.79099e-05 -1.0556e-17)
(0.0163878 1.75812e-05 -9.95803e-18)
(0.0165559 1.72605e-05 -9.17771e-18)
(0.0167208 1.69474e-05 -6.89048e-18)
(0.0168829 1.66418e-05 -8.67204e-18)
(0.017042 1.63434e-05 -8.49453e-18)
(0.0171983 1.6052e-05 -7.88659e-18)
(0.0173519 1.57673e-05 -5.46744e-18)
(0.0175028 1.54892e-05 -7.16225e-18)
(0.017651 1.52173e-05 -5.43214e-18)
(0.0177967 1.49516e-05 -6.92143e-18)
(0.0179398 1.46918e-05 -4.63085e-18)
(0.0180805 1.44377e-05 -6.67867e-18)
(0.0182188 1.41891e-05 -5.96047e-18)
(0.0183547 1.39459e-05 -5.85336e-18)
(0.0184883 1.37078e-05 -5.1183e-18)
(0.0186197 1.34748e-05 -2.78753e-18)
(0.0187488 1.32467e-05 -4.76582e-18)
(0.0188758 1.30233e-05 -2.62384e-18)
(0.0190006 1.28046e-05 -3.85593e-18)
(0.0191234 1.25904e-05 -1.68738e-18)
(0.0192442 1.23806e-05 -3.87711e-18)
(0.0193629 1.21751e-05 -3.20942e-18)
(0.0194797 1.19738e-05 -2.82752e-18)
(0.0195946 1.17767e-05 -1.41994e-19)
(0.0197077 1.15837e-05 -1.96357e-18)
(0.0198189 1.13947e-05 -2.40434e-18)
(0.0199283 1.12097e-05 -1.34942e-18)
)
;

boundaryField
{
    inlet
    {
        type            uniformFixedValue;
        uniformValue    constant (1 0 0);
        value           nonuniform 0();
    }
    outlet
    {
        type            pressureInletOutletVelocity;
        value           nonuniform 0();
    }
    wall
    {
        type            fixedValue;
        value           uniform (0 0 0);
    }
    wedge1
    {
        type            wedge;
    }
    wedge2
    {
        type            wedge;
    }
    axis
    {
        type            empty;
    }
    procBoundary46to40
    {
        type            processor;
        value           nonuniform List<vector> 
68
(
(0.248352 0.00170941 -8.16935e-17)
(0.249689 0.00168146 -8.18377e-17)
(0.251004 0.00165409 -7.34995e-17)
(0.252298 0.00162728 -7.45715e-17)
(0.253571 0.00160103 -6.22037e-17)
(0.254824 0.00157532 -4.97849e-17)
(0.256058 0.00155016 -4.80348e-17)
(0.257272 0.00152553 -5.04387e-17)
(0.258468 0.00150142 -4.10953e-17)
(0.259645 0.00147784 -3.12275e-17)
(0.260803 0.00145479 -3.03102e-17)
(0.0947577 0.00362426 -2.634e-16)
(0.098112 0.00354778 -2.56212e-16)
(0.101397 0.00347299 -2.49788e-16)
(0.104614 0.00339988 -2.47403e-16)
(0.107765 0.00332844 -2.46464e-16)
(0.110851 0.00325864 -2.47447e-16)
(0.113873 0.00319046 -2.43103e-16)
(0.116833 0.00312388 -2.4278e-16)
(0.119733 0.00305887 -2.37812e-16)
(0.122574 0.00299541 -2.36312e-16)
(0.125357 0.00293347 -2.26514e-16)
(0.128084 0.00287301 -2.20601e-16)
(0.130755 0.00281402 -2.19014e-16)
(0.133373 0.00275646 -2.20764e-16)
(0.135939 0.00270029 -2.1333e-16)
(0.138453 0.0026455 -2.06799e-16)
(0.140917 0.00259204 -2.05242e-16)
(0.143332 0.0025399 -2.05944e-16)
(0.1457 0.00248903 -1.98859e-16)
(0.148021 0.00243941 -1.92892e-16)
(0.150297 0.00239102 -1.92316e-16)
(0.152529 0.00234381 -1.94139e-16)
(0.154718 0.00229776 -1.9036e-16)
(0.156864 0.00225284 -1.91642e-16)
(0.158969 0.00220903 -1.85068e-16)
(0.161035 0.00216629 -1.83989e-16)
(0.163061 0.0021246 -1.7375e-16)
(0.165048 0.00208394 -1.64921e-16)
(0.166999 0.00204427 -1.6163e-16)
(0.168913 0.00200556 -1.60653e-16)
(0.170791 0.00196781 -1.62895e-16)
(0.172635 0.00193096 -1.58822e-16)
(0.174445 0.00189502 -1.59538e-16)
(0.176222 0.00185994 -1.5269e-16)
(0.177967 0.0018257 -1.51475e-16)
(0.17968 0.00179229 -1.4074e-16)
(0.181362 0.00175967 -1.32119e-16)
(0.183015 0.00172783 -1.29358e-16)
(0.184638 0.00169674 -1.31713e-16)
(0.186232 0.00166638 -1.24207e-16)
(0.187798 0.00163673 -1.17468e-16)
(0.189337 0.00160776 -1.15285e-16)
(0.19085 0.00157946 -1.16409e-16)
(0.192336 0.00155181 -1.09244e-16)
(0.193796 0.00152478 -1.02305e-16)
(0.195232 0.00149836 -1.00624e-16)
(0.196643 0.00147252 -1.03892e-16)
(0.19803 0.00144725 -9.94829e-17)
(0.199393 0.00142254 -1.00504e-16)
(0.200734 0.00139836 -9.44213e-17)
(0.202052 0.00137469 -9.38169e-17)
(0.203349 0.00135154 -8.29638e-17)
(0.204624 0.00132887 -7.42276e-17)
(0.205877 0.00130667 -7.06039e-17)
(0.207111 0.00128494 -6.86013e-17)
(0.208324 0.00126366 -7.27596e-17)
(0.208324 0.00126366 -7.27596e-17)
)
;
    }
    procBoundary46to41
    {
        type            processor;
        value           uniform (0.221449 0.00104042 -2.63253e-17);
    }
    procBoundary46to45
    {
        type            processor;
        value           nonuniform List<vector> 5((0.0701943 0.00252685 -2.1505e-16) (0.0510977 0.00155125 -1.64705e-16) (0.0340013 0.000791776 -1.15842e-16) (0.0188649 0.000275103 -6.89239e-17) (0.0056507 4.09929e-05 -2.25111e-17));
    }
    procBoundary46to47
    {
        type            processor;
        value           nonuniform List<vector> 5((0.181045 0.000705327 -2.04732e-17) (0.140716 0.000430142 -7.12672e-18) (0.100448 0.000218062 -2.01331e-18) (0.060225 7.5144e-05 3.12143e-18) (0.0200359 1.10289e-05 5.39082e-19));
    }
}


// ************************************************************************* //
