/*--------------------------------*- C++ -*----------------------------------*\
  =========                 |
  \\      /  F ield         | OpenFOAM: The Open Source CFD Toolbox
   \\    /   O peration     | Website:  https://openfoam.org
    \\  /    A nd           | Version:  7
     \\/     M anipulation  |
\*---------------------------------------------------------------------------*/
FoamFile
{
    version     2.0;
    format      ascii;
    class       volScalarField;
    location    "83.00012";
    object      p;
}
// * * * * * * * * * * * * * * * * * * * * * * * * * * * * * * * * * * * * * //

dimensions      [0 2 -2 0 0 0 0];

internalField   nonuniform List<scalar> 
5800
(
-0.22592
-0.226435
-0.226882
-0.227231
-0.227443
-0.227476
-0.22729
-0.226866
-0.226174
-0.218344
-0.22008
-0.221133
-0.22196
-0.222684
-0.223329
-0.223933
-0.224523
-0.22511
-0.225693
-0.226262
-0.226795
-0.227267
-0.227646
-0.227893
-0.227966
-0.227817
-0.227427
-0.226764
-0.21901
-0.220682
-0.221699
-0.222499
-0.223201
-0.223829
-0.224421
-0.225003
-0.225587
-0.226172
-0.226749
-0.227296
-0.22779
-0.228196
-0.228477
-0.228587
-0.228469
-0.228094
-0.227466
-0.219923
-0.221504
-0.222469
-0.223229
-0.223898
-0.224498
-0.225067
-0.225632
-0.226205
-0.226786
-0.227364
-0.22792
-0.22843
-0.228861
-0.229172
-0.229316
-0.229223
-0.228838
-0.22829
-0.221059
-0.222528
-0.223426
-0.224133
-0.224756
-0.225318
-0.225854
-0.226392
-0.226944
-0.227511
-0.228083
-0.228641
-0.229162
-0.229611
-0.229946
-0.230122
-0.230055
-0.22961
-0.229261
-0.222395
-0.223731
-0.224549
-0.225193
-0.225758
-0.226268
-0.22676
-0.227259
-0.227779
-0.228322
-0.228877
-0.229427
-0.229949
-0.23041
-0.230763
-0.230964
-0.230935
-0.23033
-0.230418
-0.226515
-0.223902
-0.225091
-0.225818
-0.226386
-0.226882
-0.227328
-0.227761
-0.228208
-0.228682
-0.229186
-0.229712
-0.230243
-0.230755
-0.231216
-0.231576
-0.231788
-0.23184
-0.230885
-0.231804
-0.225985
-0.225549
-0.226583
-0.227211
-0.227693
-0.228105
-0.228473
-0.228832
-0.22921
-0.229623
-0.230073
-0.230554
-0.231049
-0.231537
-0.231986
-0.232339
-0.232526
-0.232745
-0.231193
-0.233332
-0.225255
-0.22731
-0.228185
-0.228706
-0.229091
-0.229408
-0.229681
-0.229949
-0.230241
-0.230572
-0.230949
-0.231367
-0.231809
-0.232253
-0.232672
-0.233003
-0.233105
-0.23355
-0.231507
-0.23429
-0.224648
-0.229159
-0.229877
-0.230285
-0.230563
-0.23077
-0.230932
-0.23109
-0.231274
-0.231503
-0.231786
-0.232119
-0.232486
-0.232867
-0.233234
-0.233526
-0.233588
-0.234048
-0.231628
-0.235191
-0.223644
-0.231076
-0.231642
-0.231934
-0.232095
-0.232177
-0.23221
-0.232236
-0.232289
-0.232394
-0.232559
-0.232783
-0.233054
-0.233348
-0.233638
-0.233865
-0.233831
-0.234378
-0.231335
-0.235979
-0.222277
-0.233049
-0.233472
-0.233644
-0.233678
-0.233619
-0.233502
-0.233374
-0.233273
-0.233227
-0.233249
-0.233341
-0.23349
-0.233674
-0.233862
-0.234004
-0.23381
-0.234499
-0.230643
-0.23646
-0.220701
-0.235073
-0.235364
-0.235413
-0.235308
-0.235091
-0.234804
-0.234498
-0.234218
-0.233995
-0.23385
-0.233784
-0.233788
-0.233838
-0.233898
-0.233935
-0.233531
-0.234334
-0.229644
-0.236371
-0.21917
-0.237154
-0.237323
-0.237245
-0.236988
-0.236598
-0.236116
-0.235609
-0.235124
-0.2347
-0.234361
-0.234115
-0.233951
-0.233844
-0.233751
-0.233655
-0.233018
-0.233804
-0.228481
-0.235397
-0.217895
-0.239309
-0.239363
-0.239152
-0.23873
-0.238144
-0.237451
-0.236717
-0.236001
-0.235352
-0.234797
-0.234348
-0.233996
-0.233712
-0.23344
-0.233172
-0.232301
-0.232833
-0.227274
-0.233301
-0.216829
-0.241565
-0.241508
-0.241153
-0.240551
-0.239752
-0.238822
-0.237838
-0.23687
-0.235973
-0.235182
-0.234511
-0.233951
-0.233468
-0.23299
-0.232496
-0.231393
-0.231378
-0.226018
-0.230099
-0.215605
-0.243957
-0.243785
-0.243278
-0.242477
-0.241443
-0.240255
-0.239
-0.237758
-0.236594
-0.235549
-0.234639
-0.233852
-0.233145
-0.232429
-0.231635
-0.230272
-0.229449
-0.224532
-0.226061
-0.213755
-0.246533
-0.246234
-0.245558
-0.244539
-0.243249
-0.241781
-0.240235
-0.238702
-0.237256
-0.235942
-0.234776
-0.23374
-0.232775
-0.23177
-0.230595
-0.228878
-0.227087
-0.222547
-0.221467
-0.211021
-0.249347
-0.2489
-0.248035
-0.246775
-0.245206
-0.243438
-0.241584
-0.239746
-0.238003
-0.236406
-0.234966
-0.233653
-0.232382
-0.231016
-0.22936
-0.227143
-0.224327
-0.219855
-0.216367
-0.207491
-0.252456
-0.251832
-0.250751
-0.249225
-0.247355
-0.245269
-0.243091
-0.240933
-0.238882
-0.236987
-0.235249
-0.233617
-0.231974
-0.230149
-0.2279
-0.225015
-0.221194
-0.216392
-0.210753
-0.203479
-0.255923
-0.255082
-0.253753
-0.251935
-0.249742
-0.247318
-0.244802
-0.242314
-0.239943
-0.237729
-0.235658
-0.233647
-0.231543
-0.22914
-0.226171
-0.222471
-0.217701
-0.212237
-0.205123
-0.198891
-0.25981
-0.258701
-0.257089
-0.25495
-0.25241
-0.249631
-0.246765
-0.243935
-0.241226
-0.238664
-0.236208
-0.233737
-0.231059
-0.227946
-0.224135
-0.21952
-0.213839
-0.207524
-0.199914
-0.192982
-0.264176
-0.26274
-0.260807
-0.258317
-0.255406
-0.252256
-0.249026
-0.245839
-0.242767
-0.239814
-0.236899
-0.233862
-0.23048
-0.226524
-0.221769
-0.21619
-0.209618
-0.202561
-0.194438
-0.186937
-0.269076
-0.267249
-0.264953
-0.26208
-0.258775
-0.255236
-0.251627
-0.248061
-0.24459
-0.241181
-0.237711
-0.233981
-0.229757
-0.224836
-0.219071
-0.212516
-0.20512
-0.197381
-0.188854
-0.181005
-0.274559
-0.272271
-0.26957
-0.266284
-0.262561
-0.258615
-0.254606
-0.250631
-0.246706
-0.242753
-0.238604
-0.234039
-0.228837
-0.222856
-0.216047
-0.208546
-0.200395
-0.19207
-0.183196
-0.175062
-0.280666
-0.277845
-0.274697
-0.270968
-0.266804
-0.262431
-0.257995
-0.253563
-0.249105
-0.244493
-0.239523
-0.233972
-0.227672
-0.220567
-0.212717
-0.204323
-0.195493
-0.186656
-0.177474
-0.169135
-0.287428
-0.284004
-0.280369
-0.276169
-0.271542
-0.266716
-0.261815
-0.256858
-0.251761
-0.246347
-0.240395
-0.233715
-0.226221
-0.217964
-0.209102
-0.199881
-0.190443
-0.181151
-0.1717
-0.163167
-0.294868
-0.290772
-0.286613
-0.281919
-0.276804
-0.271493
-0.266069
-0.260493
-0.254621
-0.24824
-0.24114
-0.233202
-0.22445
-0.215045
-0.205222
-0.195241
-0.185254
-0.175552
-0.165857
-0.157142
-0.302993
-0.298163
-0.29345
-0.288239
-0.282611
-0.27677
-0.270744
-0.264424
-0.25761
-0.250079
-0.241671
-0.232374
-0.222335
-0.211812
-0.201087
-0.190408
-0.179922
-0.169842
-0.159926
-0.151033
-0.311797
-0.306178
-0.300886
-0.295139
-0.288966
-0.282533
-0.275796
-0.268574
-0.260628
-0.251759
-0.241902
-0.231177
-0.219855
-0.208262
-0.196695
-0.185377
-0.174431
-0.164002
-0.153883
-0.144817
-0.321253
-0.314801
-0.308913
-0.302611
-0.295852
-0.288742
-0.281154
-0.272841
-0.263555
-0.253168
-0.24175
-0.229567
-0.216991
-0.204385
-0.192037
-0.180128
-0.168757
-0.158004
-0.147704
-0.138471
-0.331313
-0.323995
-0.317501
-0.310624
-0.303222
-0.295323
-0.286711
-0.277092
-0.266255
-0.254193
-0.24114
-0.227502
-0.21372
-0.200165
-0.187091
-0.174638
-0.162873
-0.151822
-0.141361
-0.131973
-0.3419
-0.333699
-0.326596
-0.319119
-0.310997
-0.302164
-0.292324
-0.281171
-0.268584
-0.254725
-0.240004
-0.224942
-0.210016
-0.195576
-0.181831
-0.168876
-0.156748
-0.145427
-0.134829
-0.125301
-0.352909
-0.343825
-0.336111
-0.327999
-0.319058
-0.309119
-0.297824
-0.284906
-0.270398
-0.254662
-0.238278
-0.221846
-0.205846
-0.190585
-0.176221
-0.162808
-0.15035
-0.138792
-0.128083
-0.118433
-0.364199
-0.35425
-0.345929
-0.337134
-0.327248
-0.316001
-0.303012
-0.288116
-0.271554
-0.253909
-0.2359
-0.218171
-0.201171
-0.185155
-0.170227
-0.156399
-0.143648
-0.131889
-0.121099
-0.11135
-0.375599
-0.364818
-0.355892
-0.346351
-0.33537
-0.322594
-0.307673
-0.290618
-0.27192
-0.252376
-0.23281
-0.213868
-0.195949
-0.179245
-0.163808
-0.149614
-0.13661
-0.124692
-0.113853
-0.104032
-0.386897
-0.375338
-0.365807
-0.355438
-0.34319
-0.328654
-0.311584
-0.292234
-0.27137
-0.249979
-0.228946
-0.208887
-0.190134
-0.172812
-0.156925
-0.142417
-0.129207
-0.117176
-0.106323
-0.0964629
-0.397853
-0.385584
-0.375443
-0.364147
-0.350444
-0.333923
-0.314522
-0.292794
-0.269787
-0.246637
-0.224248
-0.203176
-0.183676
-0.165812
-0.149542
-0.134777
-0.121412
-0.109319
-0.0984871
-0.0886266
-0.408193
-0.395297
-0.384534
-0.372197
-0.356847
-0.338138
-0.31627
-0.292143
-0.267064
-0.242275
-0.218654
-0.19668
-0.17653
-0.158205
-0.141621
-0.126663
-0.113201
-0.101099
-0.0903299
-0.0805136
-0.417619
-0.40419
-0.392788
-0.379286
-0.362101
-0.341034
-0.316626
-0.290138
-0.263104
-0.236819
-0.212104
-0.189348
-0.168648
-0.149948
-0.133128
-0.118047
-0.104552
-0.0924992
-0.0818392
-0.0721237
-0.425814
-0.411955
-0.399888
-0.385095
-0.365908
-0.342364
-0.315404
-0.28665
-0.257816
-0.2302
-0.204541
-0.181129
-0.159988
-0.141008
-0.124035
-0.108904
-0.0954437
-0.0835024
-0.0730066
-0.0634617
-0.432448
-0.418269
-0.405508
-0.389303
-0.367979
-0.341895
-0.312439
-0.281567
-0.251119
-0.222354
-0.19591
-0.171979
-0.15051
-0.13135
-0.114315
-0.0992148
-0.0858599
-0.0740928
-0.0638207
-0.0545218
-0.437191
-0.422803
-0.409318
-0.391593
-0.36804
-0.33942
-0.307587
-0.274792
-0.242943
-0.213226
-0.186164
-0.161855
-0.140182
-0.120951
-0.103948
-0.088963
-0.0757869
-0.0642579
-0.0542661
-0.0452696
-0.439716
-0.425233
-0.410995
-0.391669
-0.365845
-0.33476
-0.300728
-0.266243
-0.233228
-0.202766
-0.175264
-0.150726
-0.128978
-0.109788
-0.0929185
-0.0781367
-0.0652151
-0.0539946
-0.0443402
-0.0356293
-0.439715
-0.425246
-0.410236
-0.389259
-0.361183
-0.327768
-0.291767
-0.255856
-0.221926
-0.190937
-0.163177
-0.138566
-0.116878
-0.0978471
-0.0812144
-0.0667266
-0.0541404
-0.0433073
-0.034071
-0.0255449
-0.436902
-0.422555
-0.406764
-0.384125
-0.353875
-0.318328
-0.280632
-0.243585
-0.209003
-0.177711
-0.149881
-0.125358
-0.103867
-0.085118
-0.0688296
-0.0547286
-0.0425723
-0.0322048
-0.0234631
-0.0151322
-0.431024
-0.416902
-0.40034
-0.37607
-0.343786
-0.306359
-0.267278
-0.229403
-0.194439
-0.163071
-0.135363
-0.111091
-0.0899401
-0.0716
-0.0557742
-0.0421524
-0.0305369
-0.0207249
-0.0123991
-0.00455437
-0.421869
-0.408071
-0.390767
-0.364945
-0.330821
-0.291811
-0.251683
-0.213299
-0.178228
-0.147013
-0.119617
-0.0957627
-0.0751127
-0.0573102
-0.0420768
-0.029043
-0.0180217
-0.00883316
-0.000971863
0.00624901
-0.40927
-0.395889
-0.377897
-0.350645
-0.314928
-0.274671
-0.233851
-0.195282
-0.160377
-0.129541
-0.102661
-0.0793932
-0.0594253
-0.0422886
-0.0277256
-0.0153876
-0.00505529
0.00345768
0.0107702
0.0173018
-0.39311
-0.380235
-0.361634
-0.333117
-0.296097
-0.254957
-0.213811
-0.175377
-0.140905
-0.110687
-0.0845493
-0.0620552
-0.042856
-0.0265308
-0.0127581
-0.00121113
0.00834233
0.0161188
0.0228024
0.0285959
-0.373327
-0.361041
-0.341934
-0.312356
-0.27436
-0.232719
-0.191614
-0.153631
-0.119864
-0.0905425
-0.0652933
-0.0437367
-0.0254641
-0.0100719
0.00279341
0.0134539
0.0221441
0.0291182
0.0351035
0.0401069
-0.349913
-0.338294
-0.31881
-0.288408
-0.249791
-0.208041
-0.167338
-0.130124
-0.0973641
-0.0690957
-0.0449473
-0.0244903
-0.00729472
0.00704292
0.0188901
0.0285695
0.0363163
0.042422
0.0476446
0.0518013
-0.322916
-0.312035
-0.292327
-0.261372
-0.222508
-0.181023
-0.141077
-0.104955
-0.0734341
-0.0464428
-0.0235778
-0.00437882
0.0115981
0.0247619
0.0354862
0.0440931
0.0508196
0.0559931
0.0603895
0.0636388
-0.29244
-0.282361
-0.262609
-0.231404
-0.192648
-0.151771
-0.112961
-0.0782203
-0.0481772
-0.0226711
-0.00126394
0.0165255
0.0311509
0.0430266
0.0525288
0.0599765
0.0656103
0.0697922
0.0733006
0.075578
-0.25864
-0.249421
-0.229836
-0.198677
-0.160298
-0.120479
-0.0831353
-0.0500474
-0.0217083
0.00211886
0.0219037
0.0381411
0.0512912
0.0617719
0.0699585
0.0761653
0.0806403
0.0837802
0.0863442
0.0875843
-0.221703
-0.213425
-0.194222
-0.163276
-0.125697
-0.0873635
-0.0517679
-0.0205824
0.00584332
0.0278139
0.0458239
0.0603773
0.0719382
0.0809253
0.0877098
0.0925994
0.0958584
0.0979186
0.0994841
0.0996146
-0.181815
-0.174663
-0.155913
-0.125395
-0.0892147
-0.0526135
-0.0190422
0.0100128
0.0343358
0.0542884
0.070385
0.083135
0.0930038
0.100408
0.105711
0.109216
0.111215
0.112165
0.112646
0.111526
-0.139209
-0.133455
-0.115001
-0.0856325
-0.0510302
-0.0164532
0.0148424
0.0415637
0.0636149
0.0814059
0.0954658
0.106307
0.114393
0.120137
0.123889
0.125955
0.126668
0.126466
0.125665
0.122979
-0.0942213
-0.0899758
-0.0722001
-0.0441418
-0.0114059
0.0208756
0.0496736
0.0738831
0.0935154
0.10902
0.120937
0.129778
0.136005
0.14002
0.142166
0.14276
0.142179
0.140748
0.138334
0.133699
-0.0475608
-0.0444491
-0.0277438
-0.00122371
0.0293725
0.0591183
0.0852274
0.106774
0.123863
0.136977
0.146662
0.153428
0.157731
0.159964
0.160462
0.159568
0.157677
0.154895
0.15061
0.144327
0.000658408
0.00258984
0.0180413
0.0427865
0.0710025
0.0980082
0.121269
0.140028
0.154474
0.165114
0.172497
0.17713
0.179461
0.179872
0.178696
0.176298
0.173048
0.168772
0.162611
0.156879
0.0500485
0.050721
0.0647825
0.0875398
0.11317
0.137269
0.157556
0.173433
0.18516
0.193264
0.198295
0.200754
0.201079
0.199643
0.196779
0.192859
0.188179
0.182381
0.174878
0.169381
0.100176
0.0995395
0.112088
0.132677
0.155555
0.176618
0.193838
0.206768
0.215726
0.221256
0.223905
0.224166
0.222468
0.219176
0.214622
0.209167
0.203031
0.195799
0.18724
0.181374
0.150605
0.14863
0.159557
0.177832
0.19783
0.215768
0.229866
0.239811
0.245977
0.248916
0.249172
0.24723
0.243509
0.238364
0.232126
0.225135
0.217549
0.208982
0.199479
0.192936
0.200898
0.19757
0.206789
0.22264
0.239671
0.254433
0.265384
0.272338
0.275713
0.276068
0.273942
0.26981
0.264081
0.257104
0.249199
0.240684
0.231679
0.221848
0.211419
0.204032
0.250617
0.245936
0.253382
0.266736
0.280754
0.292326
0.300141
0.304127
0.304738
0.302539
0.298061
0.291771
0.284066
0.275287
0.265745
0.255735
0.245352
0.234317
0.222971
0.214656
0.299328
0.293306
0.298943
0.309761
0.320761
0.329166
0.333888
0.334957
0.332857
0.328156
0.321377
0.312977
0.303345
0.292811
0.281674
0.270209
0.258498
0.246309
0.234056
0.224773
0.346606
0.33927
0.343084
0.351367
0.35938
0.36468
0.366383
0.364612
0.359879
0.35275
0.343741
0.333299
0.321803
0.309571
0.296895
0.284028
0.271043
0.257755
0.244616
0.234345
0.392037
0.383425
0.385432
0.391217
0.396313
0.398601
0.397391
0.392886
0.385621
0.376159
0.365009
0.352609
0.339326
0.325471
0.311322
0.297116
0.282919
0.268588
0.254594
0.243334
0.435223
0.425389
0.425631
0.428987
0.431272
0.430676
0.426686
0.419578
0.409904
0.398225
0.385043
0.370784
0.355808
0.340415
0.324871
0.309399
0.29406
0.27875
0.263939
0.251704
0.475789
0.464797
0.46334
0.464372
0.463986
0.460664
0.454055
0.444499
0.432561
0.418801
0.403711
0.387709
0.371146
0.354312
0.337463
0.320806
0.304404
0.288185
0.272601
0.259419
0.513379
0.501307
0.498243
0.497086
0.494201
0.488339
0.479298
0.46747
0.453435
0.437746
0.42089
0.403276
0.385244
0.367079
0.349024
0.331274
0.313892
0.29684
0.280536
0.266448
0.547668
0.534603
0.530047
0.526867
0.521683
0.513495
0.502229
0.488329
0.472379
0.454932
0.436466
0.417382
0.398015
0.378638
0.359486
0.34074
0.322471
0.304667
0.287702
0.272762
0.578356
0.564397
0.558486
0.553474
0.546218
0.535941
0.522682
0.506925
0.489262
0.470242
0.450335
0.429938
0.409376
0.388917
0.368785
0.349151
0.330092
0.311622
0.294062
0.278336
0.605178
0.590433
0.583323
0.576694
0.567618
0.555508
0.540506
0.523125
0.503964
0.483569
0.462405
0.440861
0.419257
0.397853
0.376866
0.356458
0.336712
0.317665
0.299582
0.28315
0.6279
0.612487
0.60435
0.596341
0.585715
0.572051
0.555569
0.536812
0.516383
0.494824
0.472595
0.45008
0.427593
0.405391
0.38368
0.362618
0.342293
0.32276
0.304232
0.287187
0.646326
0.630369
0.621393
0.612258
0.600371
0.585443
0.567761
0.547889
0.526431
0.503928
0.480836
0.457534
0.434333
0.411483
0.389186
0.367594
0.346802
0.326878
0.307987
0.290433
0.660296
0.643927
0.63431
0.624318
0.611472
0.595585
0.576993
0.556274
0.534037
0.510818
0.487072
0.463174
0.439432
0.416092
0.393351
0.371358
0.350212
0.329994
0.310827
0.292879
0.669691
0.653044
0.642994
0.632424
0.618932
0.6024
0.583196
0.561909
0.539147
0.515448
0.491262
0.466964
0.442858
0.419188
0.39615
0.373887
0.352504
0.332089
0.312736
0.29452
0.468878
0.444589
0.420754
0.397565
0.375167
0.353665
0.333151
0.313704
0.29535
-0.231663
-0.231527
-0.23081
-0.22942
-0.230735
-0.2274
-0.229172
-0.22784
-0.224822
-0.226737
-0.22585
-0.221718
-0.223454
-0.223045
-0.222374
-0.218025
-0.219425
-0.219487
-0.219188
-0.213767
-0.214863
-0.215306
-0.215306
-0.215194
-0.209283
-0.210146
-0.210697
-0.210849
-0.210991
-0.211078
-0.205129
-0.205691
-0.205816
-0.205767
-0.205934
-0.206121
-0.199228
-0.201398
-0.201752
-0.201919
-0.202266
-0.20259
-0.202753
-0.194208
-0.196907
-0.197346
-0.197523
-0.197955
-0.1984
-0.198677
-0.18925
-0.192252
-0.192659
-0.192802
-0.193302
-0.193859
-0.194242
-0.184305
-0.187464
-0.187871
-0.188022
-0.188593
-0.189255
-0.18974
-0.179229
-0.182549
-0.183026
-0.183217
-0.183856
-0.184612
-0.185193
-0.174054
-0.177555
-0.178143
-0.178392
-0.179094
-0.179934
-0.180608
-0.168871
-0.172518
-0.173236
-0.173559
-0.174323
-0.175241
-0.176004
-0.163712
-0.167467
-0.168321
-0.16873
-0.169558
-0.170551
-0.171399
-0.15859
-0.162425
-0.163416
-0.163918
-0.164812
-0.165877
-0.166807
-0.153526
-0.157416
-0.158535
-0.159134
-0.160094
-0.161227
-0.162236
-0.148531
-0.152453
-0.153692
-0.154386
-0.155412
-0.15661
-0.157694
-0.143608
-0.147549
-0.148897
-0.149682
-0.150772
-0.152033
-0.153188
-0.138764
-0.14271
-0.144157
-0.14503
-0.146182
-0.147502
-0.148723
-0.134006
-0.137943
-0.139482
-0.140438
-0.141648
-0.143022
-0.144306
-0.129338
-0.133256
-0.134877
-0.135912
-0.137177
-0.1386
-0.139942
-0.124768
-0.128656
-0.13035
-0.131459
-0.132773
-0.134242
-0.135636
-0.120301
-0.124148
-0.125906
-0.127083
-0.128443
-0.129952
-0.131393
-0.115942
-0.119738
-0.121552
-0.12279
-0.124191
-0.125734
-0.127217
-0.111694
-0.115431
-0.117291
-0.118584
-0.120021
-0.121594
-0.123113
-0.107559
-0.111231
-0.113127
-0.114468
-0.115935
-0.117533
-0.119083
-0.10354
-0.10714
-0.109063
-0.110446
-0.111938
-0.113556
-0.115131
-0.099635
-0.103159
-0.105101
-0.106518
-0.108031
-0.109663
-0.111259
-0.0958456
-0.0992891
-0.101243
-0.102689
-0.104217
-0.105859
-0.10747
-0.0921713
-0.0955311
-0.0974893
-0.0989577
-0.100497
-0.102145
-0.103766
-0.088612
-0.0918851
-0.0938417
-0.0953268
-0.0968725
-0.0985213
-0.100149
-0.0851671
-0.0883512
-0.0903004
-0.0917968
-0.0933448
-0.0949908
-0.0966197
-0.0818358
-0.0849289
-0.0868654
-0.0883684
-0.0899146
-0.091554
-0.0931801
-0.078617
-0.0816178
-0.0835367
-0.0850416
-0.0865825
-0.0882118
-0.0898312
-0.0755095
-0.078417
-0.080314
-0.0818166
-0.0833487
-0.0849646
-0.0865738
-0.0725116
-0.0753252
-0.0771964
-0.0786928
-0.0802131
-0.0818126
-0.0834082
-0.0696216
-0.0723413
-0.0741833
-0.0756699
-0.0771754
-0.0787558
-0.0803348
-0.0668376
-0.0694635
-0.0712733
-0.0727469
-0.0742351
-0.0757939
-0.0773536
-0.0641573
-0.0666903
-0.0684652
-0.0699228
-0.0713914
-0.0729264
-0.0744644
-0.0615787
-0.0640195
-0.0657574
-0.0671965
-0.0686433
-0.0701527
-0.0716667
-0.0590994
-0.0614494
-0.0631484
-0.0645665
-0.0659898
-0.0674719
-0.0689601
-0.0567171
-0.0589777
-0.0606363
-0.0620316
-0.0634297
-0.064883
-0.0663437
-0.0544294
-0.0566022
-0.0582193
-0.0595899
-0.0609615
-0.0623849
-0.0638166
-0.0522338
-0.0543208
-0.0558954
-0.0572399
-0.0585839
-0.0599764
-0.0613779
-0.050128
-0.0521311
-0.0536627
-0.0549799
-0.0562953
-0.057656
-0.0590265
-0.0481096
-0.0500309
-0.0515191
-0.052808
-0.0540941
-0.0554225
-0.0567611
-0.0461762
-0.048018
-0.0494626
-0.0507224
-0.0519786
-0.0532743
-0.0545805
-0.0443254
-0.0460901
-0.0474912
-0.0487212
-0.0499472
-0.0512099
-0.0524834
-0.042555
-0.0442449
-0.0456028
-0.0468028
-0.0479983
-0.0492279
-0.0504685
-0.0408628
-0.0424804
-0.0437954
-0.0449651
-0.04613
-0.0473267
-0.0485342
-0.0392466
-0.0407943
-0.0420671
-0.0432064
-0.0443409
-0.0455047
-0.0466794
-0.0377043
-0.0391847
-0.0404159
-0.0415249
-0.0426292
-0.0437605
-0.0449025
-0.0362339
-0.0376496
-0.03884
-0.039919
-0.0409933
-0.0420926
-0.0432022
-0.0348336
-0.0361871
-0.0373376
-0.0383869
-0.0394316
-0.0404994
-0.0415772
-0.0335014
-0.0347954
-0.035907
-0.036927
-0.0379427
-0.0389796
-0.0400262
-0.0322358
-0.0334727
-0.0345466
-0.0355379
-0.0365252
-0.0375319
-0.0385479
-0.031035
-0.0322174
-0.0332548
-0.034218
-0.0351776
-0.036155
-0.0371412
-0.0298976
-0.0310281
-0.0320302
-0.0329661
-0.0338988
-0.0348476
-0.0358049
-0.0288221
-0.0299033
-0.0308714
-0.0317808
-0.0326874
-0.0336087
-0.034538
-0.0278074
-0.0288418
-0.0297773
-0.0306611
-0.0315426
-0.0324373
-0.0333396
-0.0268523
-0.0278424
-0.0287467
-0.0296059
-0.0304632
-0.0313325
-0.0322089
-0.0259558
-0.0269041
-0.0277787
-0.0286143
-0.0294485
-0.0302935
-0.0311451
-0.025117
-0.026026
-0.0268725
-0.0276857
-0.0284978
-0.0293196
-0.0301476
-0.0243352
-0.0252075
-0.0260274
-0.0268193
-0.0276105
-0.0284105
-0.0292161
-0.0236099
-0.024448
-0.025243
-0.0260148
-0.0267864
-0.0275657
-0.0283503
-0.0229408
-0.0237472
-0.0245189
-0.0252719
-0.0260251
-0.0267852
-0.0275502
-0.0223276
-0.0231049
-0.0238551
-0.0245906
-0.0253267
-0.026069
-0.0268157
-0.0217704
-0.0225212
-0.0232517
-0.0239711
-0.0246915
-0.0254174
-0.0261474
-0.0212695
-0.0219964
-0.022709
-0.0234138
-0.02412
-0.024831
-0.0255458
-0.0208255
-0.0215311
-0.0222277
-0.0229194
-0.0236129
-0.0243107
-0.0250118
-0.0204391
-0.0211261
-0.0218087
-0.022489
-0.0231713
-0.0238575
-0.0245467
-0.0201115
-0.0207828
-0.0214535
-0.022124
-0.0227968
-0.023473
-0.0241521
-0.0198441
-0.0205025
-0.0211634
-0.021826
-0.0224911
-0.0231592
-0.02383
-0.0196387
-0.0202872
-0.0209407
-0.0215971
-0.0222563
-0.0229182
-0.0235827
-0.0194995
-0.0201413
-0.0207897
-0.0214419
-0.0220969
-0.0227546
-0.0234146
-0.0194223
-0.0200616
-0.0207083
-0.021359
-0.0220125
-0.0226685
-0.0233266
-0.0664304
-0.0745888
-0.0825216
-0.0902303
-0.0977223
-0.105009
-0.112103
-0.119018
-0.12577
-0.132375
-0.138849
-0.145207
-0.151465
-0.157633
-0.163719
-0.169728
-0.17563
-0.181578
-0.187118
-0.194128
-0.0634526
-0.0713546
-0.0790512
-0.0865481
-0.0938536
-0.100978
-0.107931
-0.114725
-0.121373
-0.127886
-0.134279
-0.140563
-0.146749
-0.152846
-0.158851
-0.164813
-0.170603
-0.176711
-0.182077
-0.189575
-0.060608
-0.0682077
-0.0756186
-0.0828489
-0.0899067
-0.0968005
-0.10354
-0.110134
-0.116593
-0.122929
-0.12915
-0.13527
-0.141293
-0.147244
-0.1531
-0.158992
-0.16467
-0.170886
-0.176222
-0.183628
-0.0578782
-0.0652029
-0.0723583
-0.0793522
-0.0861917
-0.0928847
-0.0994394
-0.105865
-0.11217
-0.118365
-0.124458
-0.130465
-0.136385
-0.142267
-0.148051
-0.153948
-0.15958
-0.165816
-0.171192
-0.178212
-0.0552807
-0.0623487
-0.0692671
-0.0760423
-0.0826812
-0.0891914
-0.0955806
-0.101858
-0.108031
-0.114112
-0.120106
-0.126034
-0.131886
-0.13773
-0.143465
-0.149348
-0.15492
-0.16105
-0.166427
-0.172973
-0.0528144
-0.0596337
-0.0663204
-0.0728802
-0.0793196
-0.0856462
-0.0918674
-0.0979921
-0.104027
-0.109985
-0.115868
-0.121702
-0.127463
-0.133232
-0.138876
-0.144673
-0.150152
-0.156099
-0.161485
-0.167669
-0.0504688
-0.0570456
-0.0635045
-0.0698506
-0.07609
-0.08223
-0.0882774
-0.0942409
-0.100126
-0.105945
-0.111697
-0.11741
-0.12305
-0.128707
-0.134233
-0.139906
-0.145309
-0.151079
-0.156502
-0.162437
-0.0482355
-0.0545765
-0.0608127
-0.0669488
-0.0729901
-0.0789436
-0.0848152
-0.0906136
-0.0963421
-0.102015
-0.107625
-0.113206
-0.118715
-0.124248
-0.129664
-0.135213
-0.140561
-0.146169
-0.1516
-0.15732
-0.0461081
-0.0522206
-0.0582399
-0.0641703
-0.0700165
-0.0757854
-0.0814819
-0.0871144
-0.092685
-0.0982081
-0.103675
-0.10912
-0.114501
-0.11991
-0.125224
-0.130643
-0.135927
-0.141369
-0.146749
-0.152282
-0.0440813
-0.0499724
-0.0557804
-0.0615096
-0.0671643
-0.0727507
-0.0782732
-0.0837402
-0.0891526
-0.0945252
-0.0998483
-0.105156
-0.110409
-0.115687
-0.120891
-0.126168
-0.131363
-0.13664
-0.141938
-0.147318
-0.04215
-0.0478265
-0.053429
-0.0589615
-0.064428
-0.0698344
-0.0751845
-0.0804864
-0.0857406
-0.0909613
-0.0961392
-0.101305
-0.106426
-0.111563
-0.116649
-0.121777
-0.126868
-0.131995
-0.137197
-0.142438
-0.040309
-0.0457777
-0.0511804
-0.0565209
-0.0618029
-0.0670319
-0.0722114
-0.0773492
-0.0824453
-0.0875129
-0.092544
-0.0975637
-0.102548
-0.107542
-0.112503
-0.117486
-0.122466
-0.127451
-0.13254
-0.137641
-0.0385537
-0.0438211
-0.0490297
-0.0541831
-0.0592845
-0.0643392
-0.0693504
-0.0743251
-0.0792639
-0.0841778
-0.0890613
-0.0939338
-0.0987804
-0.10363
-0.108464
-0.113305
-0.118163
-0.123007
-0.127971
-0.132929
-0.0368796
-0.0419523
-0.0469725
-0.0519436
-0.0568685
-0.0617521
-0.0665976
-0.0714111
-0.0761937
-0.0809545
-0.0856906
-0.090416
-0.0951237
-0.09983
-0.104532
-0.109231
-0.113959
-0.118663
-0.123495
-0.12831
-0.0352823
-0.0401668
-0.0450045
-0.0497982
-0.0545508
-0.0592669
-0.0639496
-0.0686042
-0.0732322
-0.0778411
-0.0824303
-0.0870092
-0.0915767
-0.0961401
-0.100706
-0.105265
-0.109859
-0.114424
-0.119122
-0.123792
-0.0337578
-0.0384606
-0.0431215
-0.0477428
-0.0523275
-0.0568799
-0.0614029
-0.0659011
-0.0703767
-0.0748353
-0.0792783
-0.0837117
-0.0881383
-0.0925592
-0.0969881
-0.101407
-0.105865
-0.110291
-0.114853
-0.119379
-0.0323031
-0.0368303
-0.0413197
-0.0457736
-0.0501949
-0.0545874
-0.0589541
-0.0632989
-0.0676243
-0.0719346
-0.0762327
-0.0805218
-0.0848076
-0.0890874
-0.0933785
-0.0976583
-0.101981
-0.106268
-0.110692
-0.115075
-0.030914
-0.0352719
-0.0395953
-0.0438868
-0.0481493
-0.0523861
-0.0565999
-0.0607944
-0.0649722
-0.0691367
-0.0732915
-0.0774382
-0.081584
-0.0857241
-0.0898776
-0.0940195
-0.0982046
-0.102355
-0.106639
-0.110882
-0.0295874
-0.0337823
-0.0379449
-0.042079
-0.0461872
-0.0502724
-0.0543371
-0.0583845
-0.0624176
-0.0664389
-0.0704525
-0.074459
-0.0784663
-0.0824682
-0.0864846
-0.0904897
-0.0945381
-0.0985526
-0.102697
-0.106802
-0.0283215
-0.0323586
-0.0363657
-0.0403472
-0.0443056
-0.0482432
-0.0521626
-0.0560664
-0.0599578
-0.0638388
-0.0677136
-0.0715822
-0.0754526
-0.0793183
-0.0831988
-0.0870688
-0.0909811
-0.0948613
-0.0988666
-0.102835
-0.0271141
-0.0309983
-0.0348549
-0.0386885
-0.0425013
-0.0462954
-0.0500733
-0.0538372
-0.0575901
-0.0613338
-0.0650725
-0.0688057
-0.0725414
-0.076273
-0.0800193
-0.0837559
-0.0875333
-0.0912806
-0.0951474
-0.0989806
-0.025961
-0.0296977
-0.0334092
-0.0370996
-0.0407713
-0.0444261
-0.0480662
-0.0516938
-0.0553117
-0.0589213
-0.0625266
-0.0661272
-0.0697307
-0.0733305
-0.0769447
-0.0805499
-0.084194
-0.0878101
-0.0915399
-0.0952387
-0.0248602
-0.0284544
-0.0320256
-0.0355776
-0.0391126
-0.0426322
-0.0461386
-0.0496335
-0.0531198
-0.0565986
-0.0600737
-0.0635447
-0.0670185
-0.0704892
-0.0739735
-0.0774496
-0.0809624
-0.0844492
-0.0880438
-0.0916094
-0.0238093
-0.027266
-0.0307018
-0.0341198
-0.0375224
-0.040911
-0.0442875
-0.0476536
-0.0510117
-0.0543631
-0.0577113
-0.0610556
-0.0644027
-0.067747
-0.071104
-0.0744535
-0.0778374
-0.0811969
-0.0846588
-0.0880926
-0.022806
-0.02613
-0.0294349
-0.0327236
-0.035998
-0.0392597
-0.0425102
-0.0457512
-0.0489849
-0.0522123
-0.0554368
-0.0586577
-0.0618812
-0.0651019
-0.0683345
-0.07156
-0.0748177
-0.0780521
-0.0813839
-0.0846879
-0.0218479
-0.025044
-0.0282226
-0.0313863
-0.0345369
-0.0376757
-0.0408042
-0.0439239
-0.0470367
-0.0501437
-0.0532478
-0.0563485
-0.0594515
-0.0625519
-0.065663
-0.0687673
-0.0719017
-0.0750136
-0.0782181
-0.0813948
-0.0209329
-0.0240057
-0.0270625
-0.0301056
-0.0331365
-0.0361564
-0.0391668
-0.0421689
-0.0451646
-0.0481547
-0.0511419
-0.0541258
-0.0571115
-0.0600946
-0.0630875
-0.0660736
-0.0690876
-0.07208
-0.0751601
-0.0782123
-0.0200591
-0.0230131
-0.0259525
-0.0288791
-0.0317944
-0.0346995
-0.0375956
-0.0404839
-0.043366
-0.0462428
-0.0491166
-0.051987
-0.0548589
-0.0577279
-0.0606057
-0.0634768
-0.0663737
-0.0692495
-0.0722083
-0.0751391
-0.0192245
-0.0220643
-0.0248904
-0.0277047
-0.0305085
-0.0333026
-0.0360882
-0.0388664
-0.0416386
-0.0444055
-0.0471694
-0.0499299
-0.0526912
-0.0554495
-0.0582156
-0.0609748
-0.0637579
-0.0665203
-0.069361
-0.0721737
-0.0184276
-0.0211573
-0.0238743
-0.0265803
-0.0292764
-0.0319634
-0.0346423
-0.037314
-0.0399799
-0.0426406
-0.0452981
-0.0479519
-0.0506062
-0.0532571
-0.0559148
-0.0585655
-0.061238
-0.0638903
-0.0666163
-0.0693143
-0.0176666
-0.0202903
-0.0229023
-0.0255039
-0.0280962
-0.0306798
-0.0332557
-0.0358246
-0.0383877
-0.0409456
-0.0435002
-0.0460509
-0.0486015
-0.0511484
-0.0537011
-0.0562466
-0.058812
-0.0613576
-0.0639722
-0.066559
-0.0169401
-0.0194618
-0.0219725
-0.0244735
-0.0269657
-0.0294497
-0.0319262
-0.0343958
-0.0368597
-0.0393184
-0.0417734
-0.0442244
-0.0466747
-0.0491211
-0.0515721
-0.0540158
-0.0564775
-0.0589198
-0.0614266
-0.0639058
-0.0162466
-0.0186701
-0.0210833
-0.0234875
-0.0258833
-0.0282711
-0.0306517
-0.0330256
-0.0353938
-0.0377566
-0.0401155
-0.0424702
-0.0448236
-0.0471728
-0.0495256
-0.0518709
-0.0542323
-0.0565747
-0.0589772
-0.0613523
-0.0155846
-0.0179135
-0.020233
-0.022544
-0.0248469
-0.0271422
-0.0294304
-0.0317119
-0.0339878
-0.0362581
-0.0385244
-0.0407861
-0.043046
-0.0453013
-0.0475593
-0.0498096
-0.0520741
-0.05432
-0.0566217
-0.0588965
-0.0149528
-0.0171906
-0.0194199
-0.0216412
-0.0238548
-0.026061
-0.0282601
-0.0304528
-0.0326396
-0.0348209
-0.0369978
-0.0391698
-0.0413395
-0.0435043
-0.0456708
-0.0478295
-0.0500005
-0.0521534
-0.0543578
-0.0565358
-0.0143506
-0.0165007
-0.0186431
-0.0207781
-0.0229056
-0.0250259
-0.0271394
-0.0292464
-0.0313475
-0.0334429
-0.0355336
-0.0376193
-0.0397021
-0.0417796
-0.043858
-0.0459283
-0.0480093
-0.0500725
-0.0521832
-0.0542681
-0.0137741
-0.015841
-0.0179005
-0.0199526
-0.0219974
-0.0240352
-0.0260662
-0.0280908
-0.0301094
-0.0321222
-0.03413
-0.0361324
-0.0381315
-0.0401251
-0.0421186
-0.0441038
-0.0460981
-0.0480751
-0.0500955
-0.0520908
-0.0132206
-0.01521
-0.0171906
-0.0191632
-0.0211286
-0.023087
-0.0250389
-0.0269842
-0.0289235
-0.0308568
-0.0327848
-0.0347072
-0.0366259
-0.0385386
-0.0404504
-0.0423539
-0.0442648
-0.0461587
-0.0480923
-0.0500016
-0.012696
-0.0146091
-0.0165133
-0.0184093
-0.0202982
-0.0221804
-0.024056
-0.0259252
-0.0277882
-0.029645
-0.0314963
-0.0333418
-0.035183
-0.037018
-0.0388514
-0.0406762
-0.042507
-0.0443212
-0.0461715
-0.047998
-0.0121993
-0.0140375
-0.0158675
-0.0176898
-0.0195052
-0.021314
-0.0231163
-0.0249122
-0.0267018
-0.0284851
-0.0302627
-0.0320342
-0.0338011
-0.0355614
-0.0373195