/*--------------------------------*- C++ -*----------------------------------*\
  =========                 |
  \\      /  F ield         | OpenFOAM: The Open Source CFD Toolbox
   \\    /   O peration     | Website:  https://openfoam.org
    \\  /    A nd           | Version:  7
     \\/     M anipulation  |
\*---------------------------------------------------------------------------*/
FoamFile
{
    version     2.0;
    format      ascii;
    class       volScalarField;
    location    "45";
    object      p;
}
// * * * * * * * * * * * * * * * * * * * * * * * * * * * * * * * * * * * * * //

dimensions      [0 2 -2 0 0 0 0];

internalField   nonuniform List<scalar> 
15000
(
-0.226045
-0.226277
-0.226504
-0.226713
-0.226918
-0.227122
-0.227325
-0.227524
-0.227719
-0.227911
-0.228099
-0.228282
-0.228461
-0.228634
-0.228803
-0.228966
-0.229125
-0.229279
-0.229428
-0.229572
-0.229713
-0.229849
-0.229982
-0.230112
-0.230239
-0.230363
-0.230485
-0.230607
-0.230727
-0.230848
-0.23097
-0.231095
-0.231225
-0.231361
-0.231507
-0.231667
-0.23185
-0.232038
-0.232164
-0.232526
-0.226067
-0.226299
-0.226525
-0.226734
-0.226938
-0.227142
-0.227344
-0.227542
-0.227737
-0.227929
-0.228116
-0.228298
-0.228475
-0.228648
-0.228816
-0.228978
-0.229136
-0.229288
-0.229436
-0.229579
-0.229718
-0.229852
-0.229983
-0.23011
-0.230235
-0.230356
-0.230476
-0.230594
-0.230711
-0.230828
-0.230946
-0.231067
-0.231191
-0.231323
-0.231463
-0.231617
-0.231795
-0.231977
-0.232096
-0.232452
-0.226156
-0.226387
-0.226612
-0.226819
-0.227022
-0.227225
-0.227426
-0.227623
-0.227817
-0.228006
-0.228192
-0.228372
-0.228548
-0.228719
-0.228885
-0.229045
-0.2292
-0.22935
-0.229495
-0.229635
-0.229771
-0.229902
-0.230029
-0.230153
-0.230273
-0.23039
-0.230505
-0.230617
-0.230729
-0.23084
-0.230951
-0.231065
-0.231183
-0.231306
-0.231439
-0.231585
-0.231755
-0.231929
-0.232039
-0.232389
-0.226312
-0.226541
-0.226764
-0.226969
-0.22717
-0.227371
-0.22757
-0.227765
-0.227956
-0.228144
-0.228327
-0.228505
-0.228678
-0.228846
-0.229009
-0.229166
-0.229318
-0.229464
-0.229605
-0.229741
-0.229872
-0.229999
-0.230121
-0.230239
-0.230353
-0.230463
-0.230571
-0.230677
-0.23078
-0.230883
-0.230985
-0.23109
-0.231197
-0.231311
-0.231433
-0.231569
-0.231729
-0.231894
-0.231993
-0.232335
-0.226534
-0.22676
-0.22698
-0.227183
-0.227382
-0.22758
-0.227776
-0.227968
-0.228157
-0.228341
-0.228521
-0.228696
-0.228866
-0.22903
-0.229189
-0.229342
-0.229489
-0.22963
-0.229766
-0.229897
-0.230022
-0.230142
-0.230257
-0.230367
-0.230474
-0.230576
-0.230675
-0.23077
-0.230864
-0.230955
-0.231046
-0.231138
-0.231233
-0.231334
-0.231442
-0.231565
-0.231713
-0.231867
-0.231952
-0.232286
-0.22682
-0.227043
-0.22726
-0.22746
-0.227656
-0.227851
-0.228043
-0.228232
-0.228417
-0.228598
-0.228774
-0.228945
-0.22911
-0.22927
-0.229423
-0.229571
-0.229712
-0.229848
-0.229977
-0.2301
-0.230218
-0.23033
-0.230437
-0.230538
-0.230634
-0.230726
-0.230814
-0.230897
-0.230978
-0.231056
-0.231132
-0.231209
-0.231289
-0.231373
-0.231465
-0.231572
-0.231705
-0.231845
-0.231914
-0.232239
-0.227171
-0.22739
-0.227604
-0.227799
-0.227992
-0.228183
-0.228372
-0.228557
-0.228737
-0.228914
-0.229085
-0.229251
-0.229411
-0.229564
-0.229712
-0.229853
-0.229988
-0.230116
-0.230237
-0.230352
-0.230461
-0.230563
-0.230659
-0.230749
-0.230834
-0.230913
-0.230987
-0.231056
-0.231121
-0.231182
-0.231241
-0.231299
-0.231359
-0.231424
-0.231496
-0.231583
-0.231698
-0.231823
-0.231872
-0.232187
-0.227585
-0.2278
-0.228009
-0.228201
-0.228389
-0.228576
-0.22876
-0.22894
-0.229116
-0.229288
-0.229453
-0.229613
-0.229767
-0.229914
-0.230055
-0.230188
-0.230314
-0.230434
-0.230546
-0.230651
-0.230748
-0.230839
-0.230923
-0.231
-0.231071
-0.231134
-0.231192
-0.231244
-0.23129
-0.231332
-0.23137
-0.231406
-0.231443
-0.231483
-0.231531
-0.231594
-0.231688
-0.231793
-0.23182
-0.232124
-0.228062
-0.228272
-0.228476
-0.228664
-0.228847
-0.229029
-0.229208
-0.229384
-0.229554
-0.229719
-0.229879
-0.230032
-0.230178
-0.230318
-0.23045
-0.230575
-0.230692
-0.230801
-0.230902
-0.230996
-0.231081
-0.231158
-0.231228
-0.231289
-0.231343
-0.23139
-0.231428
-0.23146
-0.231484
-0.231502
-0.231516
-0.231526
-0.231535
-0.231546
-0.231565
-0.2316
-0.231668
-0.23175
-0.23175
-0.232041
-0.2286
-0.228805
-0.229004
-0.229187
-0.229365
-0.229542
-0.229716
-0.229885
-0.23005
-0.230208
-0.230361
-0.230506
-0.230645
-0.230776
-0.230899
-0.231013
-0.23112
-0.231217
-0.231306
-0.231386
-0.231457
-0.231519
-0.231572
-0.231616
-0.231651
-0.231677
-0.231694
-0.231702
-0.231701
-0.231692
-0.231676
-0.231655
-0.231632
-0.23161
-0.231594
-0.231595
-0.231631
-0.231686
-0.231654
-0.231927
-0.229198
-0.229398
-0.229592
-0.22977
-0.229943
-0.230115
-0.230282
-0.230445
-0.230603
-0.230754
-0.230899
-0.231036
-0.231166
-0.231287
-0.231399
-0.231503
-0.231597
-0.231682
-0.231756
-0.231821
-0.231876
-0.231921
-0.231955
-0.23198
-0.231993
-0.231996
-0.231988
-0.231969
-0.231939
-0.231899
-0.23185
-0.231793
-0.231732
-0.23167
-0.231613
-0.231573
-0.231571
-0.231592
-0.231523
-0.231774
-0.229858
-0.230052
-0.230241
-0.230413
-0.230581
-0.230747
-0.230908
-0.231064
-0.231214
-0.231357
-0.231493
-0.231621
-0.231741
-0.231851
-0.231952
-0.232043
-0.232124
-0.232194
-0.232253
-0.232301
-0.232338
-0.232363
-0.232377
-0.232379
-0.232368
-0.232345
-0.232309
-0.232259
-0.232197
-0.232122
-0.232034
-0.231937
-0.231831
-0.231723
-0.231618
-0.23153
-0.231481
-0.231462
-0.231348
-0.231568
-0.230578
-0.230767
-0.23095
-0.231117
-0.231279
-0.231438
-0.231592
-0.231741
-0.231883
-0.232017
-0.232144
-0.232262
-0.23237
-0.232469
-0.232557
-0.232634
-0.232699
-0.232753
-0.232795
-0.232825
-0.232842
-0.232846
-0.232837
-0.232814
-0.232776
-0.232724
-0.232657
-0.232574
-0.232475
-0.23236
-0.23223
-0.232085
-0.23193
-0.231768
-0.231607
-0.23146
-0.231356
-0.231288
-0.231123
-0.231289
-0.23136
-0.231544
-0.231721
-0.231882
-0.232037
-0.232189
-0.232336
-0.232476
-0.23261
-0.232735
-0.232851
-0.232958
-0.233054
-0.23314
-0.233213
-0.233275
-0.233324
-0.233361
-0.233384
-0.233393
-0.233388
-0.233369
-0.233334
-0.233284
-0.233218
-0.233134
-0.233033
-0.232913
-0.232774
-0.232615
-0.232436
-0.232239
-0.232026
-0.231803
-0.231577
-0.231361
-0.231189
-0.231063
-0.230835
-0.230873
-0.232205
-0.232382
-0.232553
-0.232708
-0.232857
-0.233001
-0.23314
-0.233272
-0.233396
-0.23351
-0.233615
-0.23371
-0.233793
-0.233864
-0.233922
-0.233968
-0.233999
-0.234016
-0.234018
-0.234005
-0.233977
-0.233932
-0.23387
-0.233791
-0.233693
-0.233575
-0.233437
-0.233277
-0.233094
-0.232887
-0.232655
-0.2324
-0.232124
-0.23183
-0.231529
-0.231234
-0.230981
-0.230783
-0.230478
-0.230254
-0.233114
-0.233285
-0.23345
-0.233597
-0.233739
-0.233876
-0.234006
-0.234128
-0.234241
-0.234345
-0.234437
-0.234519
-0.234587
-0.234643
-0.234684
-0.234711
-0.234723
-0.234719
-0.234699
-0.234663
-0.234608
-0.234536
-0.234445
-0.234335
-0.234203
-0.234049
-0.233871
-0.233668
-0.233438
-0.233179
-0.23289
-0.232571
-0.232224
-0.231853
-0.231466
-0.231081
-0.230737
-0.23045
-0.230062
-0.229959
-0.234089
-0.234254
-0.234411
-0.234552
-0.234686
-0.234814
-0.234934
-0.235046
-0.235148
-0.235239
-0.235319
-0.235385
-0.235438
-0.235477
-0.2355
-0.235507
-0.235498
-0.235472
-0.235428
-0.235365
-0.235284
-0.235182
-0.23506
-0.234916
-0.234749
-0.234557
-0.234337
-0.234089
-0.233809
-0.233495
-0.233144
-0.232757
-0.232333
-0.231875
-0.231393
-0.230904
-0.230452
-0.230048
-0.229536
-0.229493
-0.235133
-0.235291
-0.235441
-0.235574
-0.235699
-0.235818
-0.235928
-0.236029
-0.236118
-0.236196
-0.236261
-0.236311
-0.236347
-0.236367
-0.23637
-0.236356
-0.236324
-0.236274
-0.236204
-0.236114
-0.236003
-0.235871
-0.235716
-0.235537
-0.235332
-0.2351
-0.234837
-0.234541
-0.234209
-0.233838
-0.233423
-0.232963
-0.232456
-0.231905
-0.231316
-0.230708
-0.230129
-0.229589
-0.228922
-0.228838
-0.23625
-0.2364
-0.236542
-0.236666
-0.236782
-0.23689
-0.236989
-0.237077
-0.237153
-0.237216
-0.237265
-0.237298
-0.237315
-0.237315
-0.237297
-0.237259
-0.237203
-0.237126
-0.237028
-0.236909
-0.236767
-0.236602
-0.236413
-0.236197
-0.235954
-0.23568
-0.235372
-0.235028
-0.234643
-0.234212
-0.233731
-0.233195
-0.232601
-0.231949
-0.231243
-0.230502
-0.229775
-0.229073
-0.228219
-0.228037
-0.237442
-0.237583
-0.237716
-0.237831
-0.237937
-0.238034
-0.23812
-0.238195
-0.238256
-0.238302
-0.238333
-0.238348
-0.238344
-0.238322
-0.23828
-0.238218
-0.238135
-0.23803
-0.237902
-0.237752
-0.237577
-0.237378
-0.237152
-0.236898
-0.236615
-0.236298
-0.235945
-0.235551
-0.235112
-0.234622
-0.234073
-0.233459
-0.232776
-0.232018
-0.231187
-0.230299
-0.229402
-0.228508
-0.227424
-0.227085
-0.238713
-0.238845
-0.238968
-0.239073
-0.239167
-0.239251
-0.239324
-0.239384
-0.239428
-0.239457
-0.239469
-0.239462
-0.239436
-0.23939
-0.239323
-0.239233
-0.239121
-0.238986
-0.238827
-0.238643
-0.238434
-0.238198
-0.237934
-0.237641
-0.237315
-0.236955
-0.236556
-0.236112
-0.235619
-0.235069
-0.234453
-0.233762
-0.232987
-0.232121
-0.231159
-0.230111
-0.229024
-0.227906
-0.226538
-0.225972
-0.240069
-0.24019
-0.240302
-0.240395
-0.240477
-0.240547
-0.240605
-0.240648
-0.240674
-0.240684
-0.240674
-0.240645
-0.240594
-0.240522
-0.240426
-0.240307
-0.240164
-0.239996
-0.239803
-0.239583
-0.239337
-0.239062
-0.238758
-0.238424
-0.238055
-0.23765
-0.237204
-0.236711
-0.236164
-0.235555
-0.234873
-0.234106
-0.233242
-0.232266
-0.231169
-0.229952
-0.228658
-0.227283
-0.225571
-0.224686
-0.241513
-0.241623
-0.241722
-0.241803
-0.24187
-0.241926
-0.241966
-0.241991
-0.241997
-0.241985
-0.241952
-0.241897
-0.24182
-0.241719
-0.241593
-0.241442
-0.241265
-0.241062
-0.240831
-0.240573
-0.240287
-0.239971
-0.239625
-0.239247
-0.238834
-0.238383
-0.237889
-0.237346
-0.236747
-0.23608
-0.235334
-0.234493
-0.233542
-0.23246
-0.231228
-0.229837
-0.228319
-0.226659
-0.22454
-0.223216
-0.243051
-0.243148
-0.243234
-0.2433
-0.243353
-0.243391
-0.243413
-0.243417
-0.243402
-0.243365
-0.243307
-0.243224
-0.243117
-0.242985
-0.242826
-0.24264
-0.242426
-0.242184
-0.241913
-0.241614
-0.241285
-0.240925
-0.240535
-0.240111
-0.239651
-0.239152
-0.238609
-0.238016
-0.237364
-0.236641
-0.235833
-0.234922
-0.233888
-0.232704
-0.231341
-0.229776
-0.228027
-0.226056
-0.223466
-0.221558
-0.244689
-0.244772
-0.244843
-0.244894
-0.244929
-0.244949
-0.24495
-0.244932
-0.244892
-0.24483
-0.244742
-0.24463
-0.24449
-0.244323
-0.244128
-0.243903
-0.243649
-0.243365
-0.243051
-0.242707
-0.242331
-0.241925
-0.241486
-0.241013
-0.240504
-0.239956
-0.239362
-0.238718
-0.238012
-0.237234
-0.236367
-0.23539
-0.234279
-0.233
-0.231514
-0.229782
-0.227799
-0.225503
-0.222388
-0.219722
-0.246434
-0.246502
-0.246556
-0.24659
-0.246607
-0.246605
-0.246584
-0.246541
-0.246474
-0.246383
-0.246264
-0.246118
-0.245943
-0.245738
-0.245503
-0.245236
-0.244938
-0.244608
-0.244247
-0.243854
-0.243429
-0.242971
-0.242481
-0.241956
-0.241394
-0.240793
-0.240146
-0.239448
-0.238689
-0.237856
-0.236932
-0.235895
-0.234713
-0.233351
-0.231756
-0.229871
-0.227667
-0.225051
-0.221383
-0.217783
-0.248294
-0.248345
-0.248381
-0.248396
-0.248392
-0.248367
-0.248321
-0.248251
-0.248155
-0.248031
-0.247878
-0.247696
-0.247481
-0.247235
-0.246956
-0.246643
-0.246297
-0.245918
-0.245505
-0.245058
-0.244579
-0.244066
-0.24352
-0.242939
-0.242321
-0.241663
-0.240961
-0.240208
-0.239394
-0.238507
-0.237529
-0.236435
-0.235194
-0.233762
-0.232079
-0.230069
-0.227673
-0.224769
-0.220568
-0.215864
-0.250278
-0.25031
-0.250326
-0.25032
-0.250293
-0.250243
-0.250169
-0.250069
-0.249941
-0.249782
-0.249592
-0.249368
-0.249111
-0.24882
-0.248493
-0.24813
-0.247732
-0.247298
-0.246829
-0.246325
-0.245787
-0.245215
-0.244608
-0.243966
-0.243287
-0.24257
-0.241809
-0.240998
-0.240128
-0.239188
-0.238159
-0.237017
-0.23573
-0.234252
-0.232515
-0.230424
-0.227887
-0.224726
-0.21992
-0.213808
-0.252395
-0.252406
-0.2524
-0.252371
-0.252319
-0.252242
-0.252138
-0.252004
-0.25184
-0.251643
-0.251411
-0.251144
-0.25084
-0.250499
-0.25012
-0.249703
-0.249248
-0.248755
-0.248226
-0.24766
-0.247058
-0.246421
-0.245749
-0.245042
-0.244299
-0.243518
-0.242694
-0.241823
-0.240898
-0.239905
-0.238831
-0.237654
-0.236343
-0.234857
-0.233128
-0.231058
-0.228523
-0.225199
-0.219545
-0.211444
-0.254657
-0.254645
-0.254615
-0.25456
-0.25448
-0.254373
-0.254235
-0.254066
-0.253863
-0.253623
-0.253347
-0.253032
-0.252677
-0.252282
-0.251847
-0.251371
-0.250854
-0.250298
-0.249703
-0.24907
-0.2484
-0.247694
-0.246953
-0.246176
-0.245364
-0.244515
-0.243626
-0.242694
-0.241711
-0.24067
-0.239559
-0.238361
-0.237057
-0.23562
-0.234009
-0.232171
-0.230044
-0.227246
-0.222021
-0.214743
-0.257075
-0.257039
-0.256981
-0.256899
-0.256788
-0.256647
-0.256473
-0.256264
-0.256018
-0.255734
-0.255408
-0.255041
-0.254631
-0.254178
-0.253682
-0.253142
-0.25256
-0.251936
-0.251271
-0.250566
-0.249823
-0.249044
-0.248228
-0.247378
-0.246493
-0.245573
-0.244617
-0.243621
-0.242582
-0.241495
-0.240353
-0.23915
-0.23788
-0.236542
-0.235147
-0.233746
-0.232459
-0.231351
-0.231416
-0.243111
-0.259664
-0.2596
-0.259512
-0.259399
-0.259255
-0.259078
-0.258864
-0.258612
-0.258319
-0.257985
-0.257606
-0.257183
-0.256714
-0.256198
-0.255637
-0.255029
-0.254376
-0.253679
-0.252939
-0.252159
-0.251339
-0.250481
-0.249588
-0.248661
-0.2477
-0.246707
-0.24568
-0.24462
-0.243525
-0.242393
-0.241225
-0.240022
-0.238796
-0.237571
-0.236401
-0.235407
-0.234833
-0.234973
-0.237057
-0.250653
-0.262438
-0.262342
-0.262222
-0.262075
-0.261894
-0.261676
-0.261419
-0.26112
-0.260777
-0.260388
-0.259953
-0.259469
-0.258936
-0.258354
-0.257722
-0.257042
-0.256315
-0.255541
-0.254722
-0.253862
-0.252961
-0.252022
-0.251047
-0.25004
-0.249
-0.24793
-0.246832
-0.245706
-0.244553
-0.243377
-0.242182
-0.24098
-0.239795
-0.238668
-0.237682
-0.236991
-0.236878
-0.237693
-0.240327
-0.252213
-0.265412
-0.265282
-0.265125
-0.26494
-0.264719
-0.264457
-0.264152
-0.263802
-0.263404
-0.262958
-0.262461
-0.261912
-0.261311
-0.260657
-0.259952
-0.259195
-0.258389
-0.257534
-0.256633
-0.255689
-0.254704
-0.25368
-0.252622
-0.251531
-0.25041
-0.249262
-0.24809
-0.246895
-0.245683
-0.244459
-0.243234
-0.242024
-0.240862
-0.239801
-0.238936
-0.238426
-0.238538
-0.239596
-0.242174
-0.251845
-0.268602
-0.268433
-0.268236
-0.26801
-0.267744
-0.267434
-0.267077
-0.266671
-0.266215
-0.265706
-0.265143
-0.264525
-0.263852
-0.263123
-0.262339
-0.261502
-0.260613
-0.259674
-0.258687
-0.257656
-0.256583
-0.255472
-0.254327
-0.253151
-0.251946
-0.250718
-0.249469
-0.248204
-0.246928
-0.24565
-0.244383
-0.243149
-0.241982
-0.240942
-0.240118
-0.239657
-0.23978
-0.240743
-0.242862
-0.250165
-0.272024
-0.271812
-0.271569
-0.271298
-0.270983
-0.27062
-0.270207
-0.269742
-0.269222
-0.268647
-0.268013
-0.267322
-0.266572
-0.265764
-0.264899
-0.263977
-0.263002
-0.261975
-0.260899
-0.259778
-0.258616
-0.257415
-0.256181
-0.254916
-0.253626
-0.252314
-0.250985
-0.249643
-0.248297
-0.246954
-0.24563
-0.244347
-0.24314
-0.242063
-0.241195
-0.240656
-0.240612
-0.241236
-0.242669
-0.247692
-0.275693
-0.275434
-0.275141
-0.274819
-0.274451
-0.274031
-0.273557
-0.273028
-0.27244
-0.271793
-0.271085
-0.270316
-0.269486
-0.268595
-0.267644
-0.266635
-0.26557
-0.264452
-0.263285
-0.262072
-0.260817
-0.259524
-0.258198
-0.256843
-0.255464
-0.254064
-0.252649
-0.251224
-0.249795
-0.248373
-0.246971
-0.245609
-0.244318
-0.243143
-0.242147
-0.241418
-0.241068
-0.241197
-0.241837
-0.244797
-0.279625
-0.279312
-0.278964
-0.278587
-0.278161
-0.27768
-0.27714
-0.276542
-0.275882
-0.275159
-0.274372
-0.273522
-0.272607
-0.271629
-0.270589
-0.269489
-0.268332
-0.267121
-0.26586
-0.264552
-0.263203
-0.261815
-0.260395
-0.258945
-0.257472
-0.255979
-0.25447
-0.252951
-0.251426
-0.249905
-0.248398
-0.246922
-0.245499
-0.244165
-0.242963
-0.241952
-0.241195
-0.240738
-0.240552
-0.241722
-0.283833
-0.283461
-0.283052
-0.282615
-0.282126
-0.281578
-0.280968
-0.280296
-0.279559
-0.278757
-0.277887
-0.276951
-0.275948
-0.27488
-0.273748
-0.272555
-0.271303
-0.269996
-0.268638
-0.267233
-0.265786
-0.264301
-0.262782
-0.261234
-0.259661
-0.258066
-0.256453
-0.254825
-0.253186
-0.251542
-0.249899
-0.248269
-0.246666
-0.245114
-0.243638
-0.242271
-0.241041
-0.239955
-0.238958
-0.238622
-0.288328
-0.287891
-0.287416
-0.286914
-0.286357
-0.285737
-0.285052
-0.284302
-0.283484
-0.282597
-0.281641
-0.280616
-0.279522
-0.27836
-0.277133
-0.275844
-0.274495
-0.273089
-0.271632
-0.270128
-0.26858
-0.266993
-0.265372
-0.263719
-0.262037
-0.26033
-0.258599
-0.256844
-0.255068
-0.253272
-0.251459
-0.249632
-0.247801
-0.245975
-0.244168
-0.24239
-0.240648
-0.238924
-0.237159
-0.235584
-0.293121
-0.292613
-0.292066
-0.291494
-0.290864
-0.290167
-0.289402
-0.288569
-0.287666
-0.286692
-0.285645
-0.284527
-0.283339
-0.282081
-0.280756
-0.279368
-0.277919
-0.276413
-0.274854
-0.273246
-0.271594
-0.2699
-0.268169
-0.266403
-0.264602
-0.262769
-0.260902
-0.258999
-0.257059
-0.255079
-0.253057
-0.250992
-0.248885
-0.246737
-0.24455
-0.242324
-0.24005
-0.237702
-0.235226
-0.232649
-0.298218
-0.297633
-0.297008
-0.29636
-0.295653
-0.294875
-0.294026
-0.293106
-0.292114
-0.291047
-0.289907
-0.288694
-0.287408
-0.286051
-0.284627
-0.283137
-0.281585
-0.279976
-0.278311
-0.276596
-0.274834
-0.273027
-0.271178
-0.269287
-0.267354
-0.265377
-0.263352
-0.261275
-0.259141
-0.256942
-0.254672
-0.252325
-0.249897
-0.247383
-0.24478
-0.24208
-0.239271
-0.236326
-0.233203
-0.22982
-0.303624
-0.302957
-0.302248
-0.301519
-0.300729
-0.299865
-0.298928
-0.297918
-0.296833
-0.295671
-0.294434
-0.293122
-0.291737
-0.290279
-0.288752
-0.287158
-0.285501
-0.283784
-0.28201
-0.280183
-0.278304
-0.276375
-0.274397
-0.272367
-0.270283
-0.268141
-0.265934
-0.263653
-0.26129
-0.258834
-0.256276
-0.253606
-0.250816
-0.2479
-0.244851
-0.241664
-0.238325
-0.234818
-0.231109
-0.227078
-0.309339
-0.308583
-0.307785
-0.306971
-0.306094
-0.305141
-0.304112
-0.303007
-0.301826
-0.300567
-0.29923
-0.297817
-0.296329
-0.294768
-0.293136
-0.291435
-0.28967
-0.287841
-0.285953
-0.284006
-0.282002
-0.27994
-0.277818
-0.275632
-0.273377
-0.271045
-0.268626
-0.266108
-0.26348
-0.260728
-0.25784
-0.254806
-0.251618
-0.248269
-0.244756
-0.241075
-0.237221
-0.233186
-0.228949
-0.224389
-0.315361
-0.31451
-0.313618
-0.312714
-0.311746
-0.310699
-0.309575
-0.308373
-0.307093
-0.305734
-0.304296
-0.30278
-0.301187
-0.29952
-0.29778
-0.29597
-0.294091
-0.292146
-0.290136
-0.288061
-0.28592
-0.283711
-0.281428
-0.279066
-0.276614
-0.274063
-0.271399
-0.268608
-0.265676
-0.262588
-0.259331
-0.255897
-0.252279
-0.248474
-0.244483
-0.24031
-0.235957
-0.231427
-0.226712
-0.22171
-0.32168
-0.32073
-0.319739
-0.318742
-0.317679
-0.316536
-0.315313
-0.314012
-0.31263
-0.311169
-0.309627
-0.308007
-0.306308
-0.304532
-0.302682
-0.300758
-0.298761
-0.296693
-0.294553
-0.292339
-0.290047
-0.287673
-0.285209
-0.282645
-0.279968
-0.277165
-0.274221
-0.271118
-0.267842
-0.264378
-0.260716
-0.256849
-0.252774
-0.248495
-0.24402
-0.23936
-0.234527
-0.229534
-0.224384
-0.219
-0.328286
-0.327231
-0.326137
-0.325043
-0.323883
-0.32264
-0.321317
-0.319914
-0.31843
-0.316865
-0.315219
-0.313491
-0.311684
-0.309797
-0.307833
-0.30579
-0.303669
-0.30147
-0.299188
-0.296821
-0.294362
-0.291803
-0.289133
-0.286338
-0.283405
-0.280315
-0.277051
-0.273598
-0.269938
-0.266062
-0.26196
-0.257631
-0.253079
-0.248315
-0.243354
-0.238216
-0.232922
-0.227494
-0.221944
-0.216219
-0.335159
-0.333996
-0.332795
-0.331602
-0.330342
-0.328998
-0.327573
-0.326068
-0.32448
-0.32281
-0.321057
-0.319222
-0.317304
-0.315303
-0.31322
-0.311053
-0.3088
-0.306459
-0.304023
-0.301486
-0.29884
-0.296071
-0.293167
-0.29011
-0.286884
-0.283469
-0.279847
-0.276003
-0.271922
-0.267597
-0.263026
-0.258213
-0.253169
-0.247914
-0.242471
-0.236867
-0.231131
-0.225293
-0.219371
-0.213332
-0.342276
-0.341002
-0.339691
-0.338396
-0.337036
-0.33559
-0.334062
-0.332453
-0.330762
-0.328986
-0.327126
-0.32518
-0.323149
-0.321031
-0.318824
-0.316525
-0.314131
-0.311634
-0.309029
-0.306303
-0.303445
-0.30044
-0.29727
-0.293916
-0.29036
-0.28658
-0.282561
-0.278287
-0.27375
-0.268946
-0.26388
-0.258565
-0.25302
-0.247273
-0.241355
-0.235299
-0.229142
-0.222916
-0.216644
-0.210309
-0.349608
-0.348219
-0.346798
-0.3454
-0.343938
-0.34239
-0.340759
-0.339047
-0.337251
-0.335369
-0.333401
-0.331344
-0.329197
-0.326956
-0.324619
-0.322179
-0.319631
-0.316965
-0.31417
-0.311233
-0.308137
-0.304864
-0.301394
-0.297707
-0.293781
-0.289598
-0.285142
-0.280403
-0.275377
-0.270067
-0.264488
-0.258659
-0.25261
-0.246375
-0.239992
-0.2335
-0.226939
-0.220345
-0.213744
-0.207126
-0.357118
-0.355613
-0.354079
-0.352579
-0.351016
-0.349366
-0.347633
-0.345818
-0.343917
-0.34193
-0.339852
-0.337682
-0.335415
-0.333047
-0.330571
-0.32798
-0.325264
-0.32241
-0.319405
-0.31623
-0.312866
-0.309293
-0.305487
-0.301427
-0.297092
-0.292467
-0.287538
-0.2823
-0.276758
-0.270923
-0.264817
-0.258469
-0.251917
-0.245201
-0.238366
-0.231455
-0.224509
-0.217567
-0.210653
-0.203761
-0.364762
-0.363142
-0.361496
-0.359893
-0.358229
-0.356479
-0.354645
-0.352728
-0.350725
-0.348631
-0.346444
-0.344157
-0.341766
-0.339263
-0.336639
-0.333884
-0.330983
-0.327922
-0.324681
-0.32124
-0.317577
-0.313667
-0.309488
-0.305016
-0.300235
-0.29513
-0.289694
-0.283931
-0.27785
-0.271475
-0.264834
-0.257967
-0.250918
-0.243734
-0.236462
-0.22915
-0.221838
-0.214565
-0.207354
-0.200197
-0.372491
-0.370755
-0.368998
-0.367295
-0.365533
-0.363684
-0.361751
-0.359735
-0.357629
-0.35543
-0.35313
-0.350724
-0.348203
-0.345558
-0.342774
-0.33984
-0.336736
-0.333444
-0.329941
-0.326204
-0.322206
-0.317924
-0.313333
-0.308412
-0.303147
-0.297529
-0.291559
-0.285246
-0.278612
-0.271687
-0.264511
-0.25713
-0.249594
-0.241956
-0.234266
-0.22657
-0.218911
-0.211326
-0.203832
-0.19642
-0.380248
-0.378397
-0.376532
-0.374731
-0.372873
-0.370929
-0.3689
-0.366786
-0.364579
-0.362274
-0.359861
-0.357332
-0.354674
-0.351876
-0.34892
-0.345789
-0.342461
-0.338913
-0.335119
-0.331053
-0.326687
-0.321995
-0.316955
-0.311549
-0.305767
-0.299608
-0.293079
-0.2862
-0.279002
-0.271526
-0.263818
-0.255932
-0.247925
-0.23985
-0.23176
-0.223701
-0.215714
-0.207833
-0.200071
-0.192416
-0.387967
-0.386006
-0.384035
-0.382139
-0.38019
-0.378154
-0.376033
-0.373823
-0.371517
-0.369105
-0.366577
-0.363919
-0.361118
-0.358155
-0.355012
-0.351666
-0.348091
-0.34426
-0.340145
-0.335716
-0.330945
-0.325808
-0.320284
-0.31436
-0.308033
-0.301307
-0.294203
-0.286748
-0.278983
-0.270958
-0.262728
-0.254352
-0.24589
-0.237399
-0.22893
-0.220528
-0.212231
-0.204073
-0.196058
-0.188173
-0.395578
-0.39351
-0.391438
-0.389453
-0.387417
-0.385294
-0.383083
-0.380781
-0.378377
-0.375858
-0.37321
-0.370419
-0.367464
-0.364325
-0.360978
-0.357396
-0.353549
-0.349407
-0.344939
-0.340115
-0.334906
-0.329289
-0.323249
-0.316779
-0.309882
-0.302573
-0.294881
-0.286846
-0.278517
-0.269953
-0.261215
-0.252367
-0.243471
-0.234584
-0.225758
-0.217034
-0.208448
-0.200031
-0.191778
-0.183678
-0.403004
-0.400834
-0.398667
-0.396598
-0.394481
-0.392275
-0.389979
-0.387587
-0.385086
-0.382459
-0.379689
-0.376757
-0.373639
-0.370309
-0.36674
-0.3629
-0.358756
-0.354275
-0.349423
-0.34417
-0.33849
-0.332364
-0.32578
-0.318739
-0.311254
-0.303351
-0.295068
-0.286455
-0.277571
-0.268482
-0.259254
-0.249955
-0.240648
-0.23139
-0.222229
-0.213205
-0.20435
-0.195693
-0.187219
-0.17892
-0.41016
-0.407895
-0.405641
-0.403494
-0.401301
-0.399018
-0.396642
-0.394164
-0.391566
-0.38883
-0.385933
-0.382852
-0.379559
-0.376024
-0.372214
-0.368093
-0.363626
-0.358777
-0.353511
-0.3478
-0.34162
-0.334956
-0.327805
-0.320176
-0.312092
-0.303589
-0.294717
-0.285536
-0.276112
-0.266516
-0.256821
-0.247096
-0.237403
-0.227797
-0.218325
-0.209024
-0.199922
-0.191045
-0.182366
-0.173888
-0.416959
-0.414607
-0.412272
-0.410055
-0.407793
-0.40544
-0.402988
-0.400426
-0.397733
-0.394885
-0.391856
-0.388618
-0.385139
-0.381382
-0.377311
-0.372887
-0.368071
-0.362826
-0.357119
-0.350921
-0.344215
-0.336991
-0.329256
-0.321028
-0.31234
-0.303241
-0.293789
-0.284054
-0.274109
-0.264031
-0.253894
-0.243769
-0.233716
-0.22379
-0.214032
-0.204476
-0.19515
-0.186073
-0.177209
-0.168571
-0.423307
-0.420877
-0.41847
-0.416191
-0.413868
-0.41145
-0.408927
-0.406284
-0.403496
-0.400534
-0.397369
-0.393964
-0.390285
-0.38629
-0.381939
-0.377189
-0.372
-0.366334
-0.360158
-0.353451
-0.346198
-0.338399
-0.330068
-0.321237
-0.311948
-0.302261
-0.292244
-0.281975
-0.271534
-0.261
-0.250451
-0.239954
-0.22957
-0.21935
-0.209332
-0.199547
-0.190018
-0.180764
-0.171733
-0.162959
-0.429107
-0.426609
-0.42414
-0.421807
-0.419431
-0.416955
-0.414367
-0.411646
-0.408763
-0.405684
-0.402375
-0.398795
-0.394903
-0.390654
-0.386003
-0.380906
-0.37532
-0.36921
-0.362546
-0.355309
-0.347494
-0.339109
-0.33018
-0.320747
-0.310867
-0.300607
-0.290047
-0.279269
-0.26836
-0.257401
-0.24647
-0.235633
-0.224948
-0.214462
-0.204211
-0.194221
-0.184514
-0.175104
-0.165927
-0.157039
-0.434261
-0.431705
-0.429185
-0.426808
-0.424387
-0.421859
-0.41921
-0.416414
-0.413436
-0.410238
-0.406779
-0.403014
-0.398896
-0.394377
-0.389408
-0.383944
-0.377942
-0.371369
-0.364198
-0.356418
-0.348032
-0.339058
-0.329532
-0.319508
-0.309052
-0.298241
-0.287164
-0.275908
-0.264563
-0.253213
-0.241932
-0.230787
-0.219831
-0.209109
-0.198652
-0.188484
-0.178625
-0.169083
-0.159781
-0.150804
-0.438668
-0.436066
-0.433506
-0.431094
-0.428636
-0.426065
-0.42336
-0.420491
-0.417418
-0.414098
-0.410482
-0.406522
-0.402167
-0.397363
-0.39206
-0.386211
-0.379776
-0.372724
-0.365034
-0.356703
-0.347743
-0.338184
-0.328072
-0.317473
-0.306463
-0.295129
-0.283566
-0.271866
-0.260121
-0.248414
-0.236819
-0.225399
-0.214205
-0.203277
-0.192644
-0.182324
-0.172337
-0.162687
-0.153284
-0.144243
-0.442228
-0.439592
-0.437004
-0.434567
-0.432081
-0.429473
-0.426717
-0.423778
-0.42061
-0.417163
-0.413386
-0.409222
-0.404617
-0.399515
-0.393864
-0.387617
-0.380736
-0.373195
-0.36498
-0.356096
-0.346567
-0.336432
-0.325751
-0.314599
-0.303064
-0.29124
-0.279226
-0.26712
-0.255012
-0.242986
-0.231114
-0.219454
-0.208055
-0.196952
-0.186171
-0.175729
-0.165641
-0.155909
-0.146427
-0.137348
-0.444841
-0.442184
-0.43958
-0.437129
-0.434623
-0.431985
-0.429183
-0.426177
-0.422913
-0.419338
-0.415392
-0.411018
-0.406153
-0.400742
-0.394732
-0.388076
-0.380741
-0.372705
-0.363965
-0.354533
-0.344445
-0.333752
-0.322525
-0.31085
-0.298823
-0.286546
-0.274121
-0.261648
-0.249219
-0.236914
-0.224802
-0.212939
-0.201368
-0.190123
-0.179224
-0.168687
-0.158525
-0.148737
-0.139202
-0.130112
-0.44641
-0.443746
-0.441137
-0.438682
-0.436166
-0.433505
-0.430663
-0.427591
-0.424233
-0.420526
-0.416408
-0.411815
-0.406684
-0.400956
-0.394578
-0.387507
-0.379714
-0.371185
-0.361924
-0.351956
-0.341326
-0.330099
-0.318356
-0.306193
-0.293713
-0.281023
-0.26823
-0.255434
-0.242725
-0.230181
-0.217869
-0.205839
-0.194132
-0.182777
-0.171792
-0.16119
-0.150983
-0.141165
-0.131602
-0.122528
-0.446843
-0.444184
-0.441584
-0.439135
-0.436617
-0.433941
-0.431063
-0.427929
-0.424475
-0.420636
-0.416342
-0.411525
-0.406122
-0.400071
-0.393321
-0.385834
-0.377586
-0.368569
-0.3588
-0.348314
-0.337167
-0.325435
-0.313212
-0.300599
-0.287708
-0.274651
-0.261536
-0.248462
-0.235517
-0.222778
-0.210305
-0.198147
-0.186339
-0.174908
-0.163868
-0.15323
-0.143007
-0.133185
-0.12362
-0.114592
-0.446049
-0.44341
-0.440831
-0.438399
-0.435888
-0.433203
-0.430294
-0.427101
-0.423554
-0.41958
-0.415108
-0.410066
-0.404387
-0.398011
-0.39089
-0.38299
-0.374293
-0.364802
-0.354543
-0.343562
-0.331928
-0.319728
-0.307064
-0.294046
-0.280792
-0.267415
-0.254025
-0.240719
-0.227585
-0.214693
-0.2021
-0.189852
-0.177981
-0.166507
-0.155446
-0.144803
-0.134592
-0.124795
-0.115256
-0.106299
-0.443948
-0.441342
-0.438796
-0.43639
-0.433895
-0.431209
-0.428274
-0.425025
-0.421386
-0.417279
-0.412628
-0.407359
-0.401405
-0.394706
-0.387219
-0.378913
-0.369781
-0.359834
-0.349109
-0.337664
-0.325579
-0.312952
-0.299891
-0.286517
-0.272948
-0.259302
-0.245686
-0.232198
-0.21892
-0.205919
-0.19325
-0.180951
-0.169053
-0.157572
-0.146521
-0.135905
-0.125734
-0.11599
-0.106508
-0.097643
-0.440463
-0.437903
-0.435402
-0.433034
-0.430563
-0.427882
-0.424927
-0.421626
-0.417897
-0.413659
-0.408831
-0.403337
-0.39711
-0.390094
-0.382249
-0.373552
-0.364002
-0.353624
-0.342463
-0.33059
-0.318095
-0.305085
-0.291678
-0.277997
-0.264167
-0.250303
-0.236514
-0.222892
-0.209518
-0.196454
-0.183749
-0.171441
-0.159553
-0.148101
-0.137093
-0.126533
-0.116431
-0.106767
-0.0973671
-0.0885973
-0.435526
-0.433026
-0.430583
-0.428261
-0.425822
-0.423153
-0.420184
-0.416835
-0.413021
-0.408654
-0.403652
-0.397938
-0.391446
-0.384123
-0.375933
-0.366863
-0.35692
-0.346139
-0.334578
-0.322317
-0.309457
-0.296114
-0.282413
-0.26848
-0.254442
-0.240414
-0.226503
-0.212799
-0.199376
-0.186295
-0.173599
-0.161321
-0.149483
-0.138097
-0.127166
-0.116692
-0.106685
-0.09712
-0.0877939
-0.0790644
-0.429079
-0.426651
-0.424277
-0.422011
-0.419613
-0.416963
-0.413985
-0.410594
-0.406699
-0.402208
-0.397038
-0.391112
-0.384365
-0.376747
-0.368232
-0.358811
-0.348504
-0.337355
-0.325433
-0.31283
-0.299655
-0.286032
-0.27209
-0.257962
-0.243771
-0.229635
-0.215655
-0.201919
-0.188497
-0.175445
-0.162802
-0.150597
-0.138848
-0.127564
-0.116748
-0.106395
-0.0965159
-0.0870724
-0.0777999
-0.0689878
-0.421072
-0.418729
-0.416436
-0.414235
-0.411885
-0.409262
-0.406281
-0.402854
-0.398883
-0.394275
-0.388945
-0.382817
-0.375828
-0.367935
-0.359115
-0.349372
-0.338734
-0.327256
-0.315018
-0.302121
-0.288684
-0.274836
-0.260711
-0.246444
-0.232158
-0.217968
-0.203974
-0.190257
-0.176885
-0.163908
-0.151362
-0.139272
-0.127654
-0.116514
-0.105849
-0.0956576
-0.0859469
-0.0766642
-0.0675194
-0.0589593
-0.411467
-0.40922
-0.407018
-0.404891
-0.402597
-0.400007
-0.397031
-0.393574
-0.389534
-0.384819
-0.379339
-0.373022
-0.365808
-0.35766
-0.348564
-0.33853
-0.327598
-0.315834
-0.303328
-0.29019
-0.276545
-0.26253
-0.248281
-0.233933
-0.219609
-0.205421
-0.191465
-0.17782
-0.164546
-0.151691
-0.139288
-0.127357
-0.115911
-0.104953
-0.0944809
-0.0844898
-0.0749858
-0.0658997
-0.0569421
-0.0487344
-0.400235
-0.398096