/*--------------------------------*- C++ -*----------------------------------*\
  =========                 |
  \\      /  F ield         | OpenFOAM: The Open Source CFD Toolbox
   \\    /   O peration     | Website:  https://openfoam.org
    \\  /    A nd           | Version:  7
     \\/     M anipulation  |
\*---------------------------------------------------------------------------*/
FoamFile
{
    version     2.0;
    format      ascii;
    class       volScalarField;
    location    "12";
    object      p;
}
// * * * * * * * * * * * * * * * * * * * * * * * * * * * * * * * * * * * * * //

dimensions      [0 2 -2 0 0 0 0];

internalField   nonuniform List<scalar> 
435
(
-0.129662
-0.137296
-0.14477
-0.116528
-0.123621
-0.130598
-0.137467
-0.144242
-0.150934
-0.157558
-0.164129
-0.170667
-0.104653
-0.111224
-0.117708
-0.124114
-0.130452
-0.136732
-0.142966
-0.149164
-0.155343
-0.0938873
-0.0999556
-0.10596
-0.111908
-0.117807
-0.123663
-0.129487
-0.135288
-0.141076
-0.0840961
-0.0896889
-0.0952339
-0.100736
-0.106202
-0.111638
-0.117049
-0.122445
-0.127832
-0.0751799
-0.0803231
-0.0854302
-0.0905053
-0.095553
-0.100578
-0.105585
-0.11058
-0.115569
-0.0670404
-0.0717635
-0.0764588
-0.0811295
-0.0857791
-0.0904109
-0.0950288
-0.0996369
-0.10424
-0.0596044
-0.0639364
-0.0682467
-0.0725377
-0.0768119
-0.0810719
-0.0853205
-0.0895607
-0.0937956
-0.0528042
-0.0567745
-0.0607274
-0.0646648
-0.0685885
-0.0725004
-0.0764025
-0.080297
-0.0841862
-0.0465842
-0.050221
-0.0538437
-0.0574536
-0.061052
-0.0646404
-0.0682201
-0.0717927
-0.0753599
-0.0408937
-0.0442243
-0.0475431
-0.0508513
-0.0541495
-0.057439
-0.0607206
-0.0639955
-0.0672647
-0.0356865
-0.0387369
-0.0417775
-0.0448087
-0.0478313
-0.050846
-0.0538533
-0.0568542
-0.0598493
-0.0309253
-0.0337194
-0.0365052
-0.0392829
-0.0420529
-0.0448156
-0.0475714
-0.0503208
-0.0530644
-0.0265683
-0.0291297
-0.0316837
-0.0342303
-0.0367698
-0.0393024
-0.0418284
-0.044348
-0.0468616
-0.0225899
-0.0249389
-0.0272811
-0.0296167
-0.0319458
-0.0342683
-0.0365843
-0.038894
-0.0411974
-0.0189532
-0.0211097
-0.02326
-0.0254041
-0.0275419
-0.0296733
-0.0317983
-0.0339168
-0.0360289
-0.0156396
-0.0176205
-0.0195958
-0.0215652
-0.0235286
-0.0254858
-0.0274367
-0.029381
-0.0313188
-0.0126175
-0.0144396
-0.0162564
-0.0180675
-0.0198728
-0.021672
-0.0234648
-0.0252511
-0.0270306
-0.00986838
-0.0115464
-0.0132194
-0.0148869
-0.0165487
-0.0182044
-0.0198538
-0.0214966
-0.0231326
-0.00737063
-0.00891827
-0.010461
-0.0119985
-0.0135304
-0.0150563
-0.0165758
-0.0180887
-0.0195947
-0.00510659
-0.00653637
-0.00796144
-0.00938136
-0.0107957
-0.0122042
-0.0136063
-0.0150018
-0.0163902
-0.00305959
-0.00438301
-0.00570184
-0.00701564
-0.00832398
-0.00962645
-0.0109226
-0.0122122
-0.0134947
-0.00121495
-0.00244257
-0.00366572
-0.00488395
-0.00609682
-0.00730389
-0.00850476
-0.00969904
-0.0108863
0.000440831
-0.000700763
-0.00183801
-0.00297045
-0.00409762
-0.0052191
-0.00633447
-0.00744333
-0.00854529
0.00191968
0.000854988
-0.000205432
-0.00126114
-0.0023117
-0.00335668
-0.00439567
-0.00542826
-0.00645408
0.00323186
0.00223566
0.00124363
0.000256205
-0.000726199
-0.00170316
-0.00267427
-0.00363914
-0.00459738
0.00438647
0.00345087
0.00251932
0.00159225
0.00067005
-0.000246853
-0.00115807
-0.00206321
-0.00296192
0.00539108
0.00450858
0.00363001
0.00275578
0.00188628
0.0010219
0.000163039
-0.000689952
-0.00153671
0.00625205
0.00541546
0.00458268
0.00375409
0.00293008
0.00211102
0.00129727
0.000489181
-0.000312915
0.00697309
0.0061755
0.00538161
0.00459177
0.00380634
0.00302568
0.0022501
0.00147996
0.000715547
0.00755765
0.00679215
0.00603022
0.0052722
0.00451842
0.0037692
0.00302485
0.00228567
0.00155196
0.00800365
0.00726369
0.0065272
0.00579447
0.00506579
0.00434146
0.00362174
0.00290692
0.00219725
0.00831142
0.00758936
0.00687065
0.00615556
0.00544435
0.00473729
0.00403461
0.00333658
0.00264342
0.00846948
0.00775988
0.00705351
0.00635058
0.00565127
0.0049558
0.00426434
0.00357709
0.00289422
-0.105692
-0.11387
-0.121857
-0.0868077
-0.0944572
-0.101954
-0.109309
-0.077366
-0.0843532
-0.0912243
-0.0979893
-0.0688476
-0.0752362
-0.0815349
-0.0877492
-0.0611386
-0.0669777
-0.0727466
-0.0784505
-0.0541665
-0.0594954
-0.0647702
-0.0699968
-0.047807
-0.0526764
-0.0574999
-0.0622867
-0.0420138
-0.0464541
-0.0508656
-0.0552483
-0.0367158
-0.0407688
-0.0448032
-0.0488145
-0.0318699
-0.0355746
-0.0392623
-0.0429318
-0.0274366
-0.0308223
-0.0341936
-0.0375505
-0.0233739
-0.0264698
-0.0295537
-0.0326256
-0.0196548
-0.0224888
-0.0253109
-0.0281225
-0.0162243
-0.0188343
-0.0214243
-0.0240002
-0.0131504
-0.0155074
-0.0178706
-0.0202336
-0.0102719
-0.0124482
-0.0146214
-0.0167903
-0.00766547
-0.00966563
-0.0116617
-0.0136532
-0.00528325
-0.00712283
-0.00895873
-0.0107905
-0.00311351
-0.00480772
-0.00649861
-0.00818566
-0.00113986
-0.00270262
-0.00426235
-0.00581851
0.000650741
-0.000793325
-0.0022346
-0.00367252
0.00227071
0.000933672
-0.000400783
-0.00173203
0.00373096
0.00249025
0.00125191
1.66888e-05
0.00504184
0.00388774
0.00273541
0.00158633
0.00621147
0.00513437
0.00405992
0.00298817
0.00724862
0.00624026
0.00523476
0.00423176
0.00816026
0.00721293
0.00626798
0.00532566
0.00895179
0.00805784
0.00716615
0.00627708
0.00962844
0.00878064
0.00793506
0.00709205
0.0101928
0.00938425
0.00857785
0.007774
0.0106484
0.00987213
0.00909799
0.00832638
0.0109919
0.0102412
0.00949272
0.00874676
0.0112276
0.0104949
0.00976447
0.00903655
0.011336
0.0106156
0.00989756
0.00918211
)
;

boundaryField
{
    inlet
    {
        type            zeroGradient;
    }
    outlet
    {
        type            fixedValue;
        value           nonuniform 0();
    }
    cylinder
    {
        type            zeroGradient;
    }
    top
    {
        type            symmetryPlane;
    }
    bottom
    {
        type            symmetryPlane;
    }
    defaultFaces
    {
        type            empty;
    }
    procBoundary32to26
    {
        type            processor;
        value           nonuniform List<scalar> 
15
(
-0.14424
-0.152422
-0.160385
-0.152096
-0.152096
-0.15929
-0.166365
-0.17334
-0.180235
-0.187071
-0.118255
-0.127167
-0.135826
-0.0973093
-0.0973093
)
;
    }
    procBoundary32to31
    {
        type            processor;
        value           nonuniform List<scalar> 
33
(
-0.0789847
-0.0702349
-0.06239
-0.055236
-0.0487816
-0.0428838
-0.0375473
-0.0326499
-0.0281503
-0.0240377
-0.0202678
-0.0168147
-0.0136355
-0.0107573
-0.00808784
-0.00566007
-0.0034397
-0.00141602
0.000425695
0.00209728
0.00361001
0.00497379
0.00619803
0.00729039
0.00825867
0.00910935
0.00984751
0.010478
0.0110032
0.0114266
0.0117445
0.0119622
0.0120587
)
;
    }
    procBoundary32to33
    {
        type            processor;
        value           nonuniform List<scalar> 
33
(
-0.17719
-0.161518
-0.146865
-0.133221
-0.120559
-0.108842
-0.0980287
-0.0880724
-0.0789232
-0.0705295
-0.0628394
-0.0558026
-0.0493694
-0.0434948
-0.0381346
-0.03325
-0.0288033
-0.0247614
-0.0210934
-0.0177713
-0.0147699
-0.0120663
-0.00963999
-0.00747275
-0.00554863
-0.00385382
-0.0023769
-0.00110869
-4.28186e-05
0.000824002
0.00149298
0.00195536
0.00221591
)
;
    }
}


// ************************************************************************* //
