/*--------------------------------*- C++ -*----------------------------------*\
  =========                 |
  \\      /  F ield         | OpenFOAM: The Open Source CFD Toolbox
   \\    /   O peration     | Website:  https://openfoam.org
    \\  /    A nd           | Version:  7
     \\/     M anipulation  |
\*---------------------------------------------------------------------------*/
FoamFile
{
    version     2.0;
    format      ascii;
    class       volVectorField;
    location    "67.999456";
    object      U;
}
// * * * * * * * * * * * * * * * * * * * * * * * * * * * * * * * * * * * * * //

dimensions      [0 1 -1 0 0 0 0];

internalField   nonuniform List<vector> 
5800
(
(-0.000609733 0.000874992 -2.04909e-21)
(-0.00365182 0.00219596 -7.2316e-21)
(-0.00991517 0.00317913 1.31579e-21)
(-0.018242 0.00388022 4.98539e-21)
(-0.0281053 0.00434139 2.12485e-21)
(-0.0390878 0.00460334 -5.18126e-21)
(-0.050784 0.00470558 -1.64727e-21)
(-0.0628509 0.00468411 -6.47271e-22)
(-0.0750113 0.00456993 -5.95947e-21)
(-0.0870461 0.00438787 -1.14892e-21)
(0.00706379 0.00864097 -6.32942e-21)
(0.0374232 0.0193289 -2.1534e-20)
(0.0932682 0.0247473 3.94085e-21)
(0.158114 0.0264679 1.43074e-20)
(0.22468 0.0259583 5.87234e-21)
(0.289453 0.0243723 -1.40299e-20)
(0.350697 0.0224391 -4.26027e-21)
(0.407927 0.0205101 -1.71118e-21)
(0.461194 0.0187059 -8.59334e-21)
(0.510677 0.0170486 -7.63665e-21)
(0.556581 0.0155323 -9.56924e-21)
(0.00706335 -0.00861963 6.32949e-21)
(0.0374222 -0.0192823 2.15342e-20)
(0.0932669 -0.0246882 -3.9409e-21)
(0.158112 -0.0264048 -1.43075e-20)
(0.224678 -0.0258961 -5.87239e-21)
(0.289452 -0.0243131 1.403e-20)
(0.350695 -0.0223836 4.26032e-21)
(0.407926 -0.0204585 1.71121e-21)
(0.461192 -0.0186582 1.43635e-20)
(0.510675 -0.0170045 2.5256e-21)
(0.556579 -0.0154919 9.56937e-21)
(0.599109 -0.0141101 -1.38116e-21)
(0.638467 -0.012849 4.4991e-21)
(0.67485 -0.0116985 -7.57792e-21)
(0.708448 -0.0106493 9.09437e-21)
(0.739447 -0.00969269 9.267e-21)
(0.768025 -0.00882056 2.58734e-21)
(0.794333 -0.00802092 -1.31176e-20)
(0.818491 -0.00727698 1.0544e-20)
(0.840647 -0.00659423 -1.51611e-21)
(0.00839133 -0.0257973 -9.30452e-21)
(0.0403202 -0.0577303 -1.39768e-20)
(0.0968877 -0.0739381 -4.27515e-21)
(0.161914 -0.0790992 -1.23702e-20)
(0.228351 -0.0775905 2.73358e-21)
(0.292853 -0.0728576 -1.78755e-20)
(0.353784 -0.0670822 -6.50611e-21)
(0.41071 -0.0613173 -1.39285e-20)
(0.463694 -0.0559247 7.64104e-21)
(0.512921 -0.050971 -1.80051e-20)
(0.558593 -0.0464393 -5.47191e-20)
(0.600914 -0.0422993 8.67609e-21)
(0.640084 -0.0385206 -1.20186e-20)
(0.676298 -0.0350734 7.09529e-21)
(0.709744 -0.0319291 -1.68416e-20)
(0.740605 -0.0290623 1.73736e-21)
(0.769062 -0.0264484 -8.61522e-21)
(0.795271 -0.0240515 4.88148e-20)
(0.819337 -0.0218221 -4.74055e-21)
(0.841358 -0.0197787 5.98541e-21)
(0.0110299 -0.0427271 -2.84939e-20)
(0.046084 -0.0956904 -2.78441e-20)
(0.104095 -0.122633 6.3761e-21)
(0.169486 -0.13126 1.3524e-20)
(0.23567 -0.128806 5.63226e-21)
(0.299633 -0.120981 -1.73835e-20)
(0.359943 -0.111409 -2.48799e-20)
(0.41626 -0.101847 5.23954e-20)
(0.468683 -0.092899 -1.42296e-20)
(0.517399 -0.0846782 1.84043e-20)
(0.562609 -0.0771571 2.87077e-20)
(0.604514 -0.0702855 4.89626e-21)
(0.643309 -0.0640129 8.03568e-21)
(0.679186 -0.0582901 1.73283e-20)
(0.712329 -0.0530699 -1.78231e-20)
(0.742916 -0.0483099 1.68517e-20)
(0.771132 -0.0439694 -1.98345e-21)
(0.797141 -0.039988 -4.77109e-20)
(0.821026 -0.0362865 3.16813e-20)
(0.84278 -0.0329021 -2.57263e-20)
(0.0149437 -0.0592471 2.18917e-20)
(0.0546477 -0.132842 -3.49665e-20)
(0.114816 -0.170408 5.14142e-20)
(0.180761 -0.182536 -2.31952e-20)
(0.246577 -0.179227 1.2169e-19)
(0.309742 -0.168404 7.14092e-20)
(0.369127 -0.15512 -4.364e-20)
(0.42454 -0.141831 -1.02366e-19)
(0.476125 -0.129389 4.0005e-20)
(0.52408 -0.117956 2.69483e-20)
(0.568602 -0.107494 3.57922e-20)
(0.609885 -0.0979348 -6.97723e-20)
(0.648121 -0.0892078 -8.0766e-20)
(0.683496 -0.0812447 6.07564e-20)
(0.716187 -0.0739801 4.70524e-20)
(0.746367 -0.0673554 -1.6036e-20)
(0.774222 -0.061313 3.47634e-20)
(0.799933 -0.0557683 2.09678e-21)
(0.823547 -0.0506161 -5.15325e-20)
(0.844908 -0.0459218 -1.6185e-20)
(0.0200801 -0.0751996 -8.07132e-20)
(0.0659129 -0.168873 -2.23239e-20)
(0.128944 -0.216904 -7.74936e-20)
(0.195641 -0.232583 2.22273e-20)
(0.260987 -0.228543 -1.15379e-19)
(0.323106 -0.214856 -6.81693e-20)
(0.381274 -0.197975 7.94232e-20)
(0.435492 -0.181057 9.74597e-20)
(0.48597 -0.165205 -8.63384e-20)
(0.53292 -0.150636 2.25572e-20)
(0.576532 -0.137302 -3.15717e-20)
(0.616995 -0.125116 1.21586e-19)
(0.654492 -0.113989 -3.84552e-20)
(0.689203 -0.103835 -1.35165e-20)
(0.721296 -0.0945697 -7.81393e-21)
(0.750936 -0.0861195 -2.71573e-20)
(0.778313 -0.0784098 -6.6289e-20)
(0.803627 -0.0713312 -1.36159e-21)
(0.826884 -0.0647575 1.83275e-20)
(0.847737 -0.0587939 -1.72739e-20)
(0.0263698 -0.0904336 -5.26642e-20)
(0.0797499 -0.203481 -2.22259e-20)
(0.146338 -0.261776 1.25232e-19)
(0.213994 -0.281064 6.88021e-20)
(0.278785 -0.276452 2.83786e-20)
(0.339628 -0.26007 -8.73783e-20)
(0.396299 -0.23974 -1.00326e-19)
(0.449042 -0.219317 1.19114e-20)
(0.498154 -0.200165 2.29759e-20)
(0.54386 -0.182555 1.73036e-20)
(0.586349 -0.166436 5.63562e-20)
(0.625797 -0.151701 -1.24115e-19)
(0.662381 -0.138245 1.76355e-21)
(0.696271 -0.125961 4.31995e-20)
(0.727625 -0.114751 2.60778e-21)
(0.756598 -0.104525 -8.48438e-21)
(0.783383 -0.0951921 -2.19032e-20)
(0.808201 -0.0866169 8.11944e-20)
(0.831017 -0.0786574 -3.50719e-20)
(0.851257 -0.0714726 2.85411e-20)
(0.0337277 -0.104806 8.34872e-20)
(0.0959984 -0.236378 -4.41228e-20)
(0.166822 -0.304688 -5.08191e-20)
(0.235659 -0.327656 -4.70568e-20)
(0.299831 -0.322663 -9.29521e-20)
(0.359187 -0.30379 -1.1971e-20)
(0.414096 -0.28019 1.5962e-20)
(0.465098 -0.256413 -3.63891e-20)
(0.512594 -0.234091 5.22361e-20)
(0.55683 -0.213557 4.39235e-21)
(0.597989 -0.194757 -2.20873e-20)
(0.636237 -0.177567 1.0072e-19)
(0.671739 -0.161864 2.97602e-20)
(0.704658 -0.147527 -2.90669e-20)
(0.735137 -0.134439 6.45927e-20)
(0.763319 -0.122498 -6.82832e-20)
(0.789401 -0.111594 -7.35368e-21)
(0.813628 -0.101568 8.53603e-21)
(0.835923 -0.0922639 9.48312e-20)
(0.855458 -0.0839115 -5.30736e-20)
(0.0420535 -0.118184 2.85657e-20)
(0.114469 -0.26729 3.34265e-20)
(0.190188 -0.345324 1.46996e-19)
(0.260442 -0.372049 6.21475e-20)
(0.323956 -0.366895 2.12966e-19)
(0.381638 -0.345769 1.78669e-20)
(0.434543 -0.319108 9.9497e-20)
(0.483552 -0.292154 6.9105e-20)
(0.529195 -0.266814 -1.48104e-19)
(0.571744 -0.243492 -2.35575e-20)
(0.611377 -0.222132 -5.51497e-20)
(0.648248 -0.202596 -6.84273e-20)
(0.68251 -0.184745 2.25684e-20)
(0.714312 -0.16844 7.0458e-20)
(0.743787 -0.153552 -6.19203e-20)
(0.771062 -0.139965 -5.45285e-20)
(0.796333 -0.127554 5.32798e-20)
(0.819876 -0.116129 -7.12454e-20)
(0.841576 -0.105527 -1.02656e-19)
(0.860326 -0.0960641 -2.77259e-20)
(0.0512333 -0.130446 -8.20491e-20)
(0.134944 -0.295964 -8.3732e-20)
(0.216196 -0.383384 -4.37586e-20)
(0.288121 -0.413949 -1.03816e-19)
(0.350969 -0.408882 -5.07921e-20)
(0.406818 -0.385774 -1.20663e-19)
(0.457495 -0.356289 -1.04743e-19)
(0.504279 -0.326358 3.91821e-20)
(0.547847 -0.298174 6.05434e-20)
(0.588506 -0.272217 -1.06031e-19)
(0.626428 -0.248435 6.61252e-20)
(0.661755 -0.226676 -4.43535e-20)
(0.694625 -0.206787 -5.9364e-20)
(0.725176 -0.188613 -6.22851e-20)
(0.753525 -0.172013 1.75276e-19)
(0.779781 -0.15686 7.8051e-20)
(0.80414 -0.143011 1.88896e-20)
(0.82691 -0.130247 -8.12688e-20)
(0.847944 -0.118397 1.70391e-19)
(0.865843 -0.107885 6.35404e-20)
(0.0611405 -0.141482 -1.06842e-19)
(0.157182 -0.322169 1.22411e-19)
(0.244579 -0.41859 1.2009e-19)
(0.318445 -0.453081 1.26092e-19)
(0.38065 -0.448375 7.58508e-20)
(0.434541 -0.423586 1.83717e-20)
(0.482794 -0.391542 1.21018e-19)
(0.527138 -0.358858 -1.46729e-19)
(0.568426 -0.328021 -4.1079e-20)
(0.607007 -0.299599 -3.46214e-20)
(0.643047 -0.273547 1.53179e-19)
(0.676674 -0.249703 -2.12769e-20)
(0.708013 -0.227897 1.80374e-20)
(0.737185 -0.207964 3.89948e-21)
(0.764293 -0.18975 6.24164e-20)
(0.789428 -0.173117 -7.81058e-20)
(0.81278 -0.157908 1.57386e-20)
(0.834689 -0.143874 1.78679e-19)
(0.854994 -0.130831 -2.56526e-20)
(0.871991 -0.119329 -1.1506e-19)
(0.0716374 -0.151198 -6.38859e-20)
(0.180916 -0.345696 2.13518e-20)
(0.275038 -0.45069 -1.27534e-19)
(0.351136 -0.48919 -6.27216e-20)
(0.41276 -0.485141 -8.33625e-20)
(0.4646 -0.459 -6.73668e-21)
(0.510263 -0.424689 -1.62231e-19)
(0.551976 -0.389496 1.42992e-19)
(0.590797 -0.356217 6.26506e-20)
(0.627126 -0.325516 2.64926e-20)
(0.661127 -0.29736 -1.48719e-19)
(0.692913 -0.271579 2.65165e-20)
(0.722591 -0.247991 -1.87949e-20)
(0.750269 -0.226417 -8.09054e-20)
(0.776031 -0.206694 -7.56407e-20)
(0.799948 -0.188677 1.24239e-19)
(0.822204 -0.172195 6.29534e-20)
(0.843172 -0.156964 -3.62137e-20)
(0.862691 -0.142787 -1.01247e-19)
(0.878747 -0.130356 1.50776e-20)
(0.0825767 -0.159515 8.64774e-20)
(0.205857 -0.366363 3.94262e-20)
(0.307252 -0.479455 4.86495e-20)
(0.385893 -0.522047 5.43269e-20)
(0.447034 -0.518968 -5.78434e-20)
(0.496772 -0.49183 1.27333e-19)
(0.539709 -0.455568 -1.26187e-19)
(0.578626 -0.418131 -5.18811e-21)
(0.614814 -0.382636 1.00655e-19)
(0.648735 -0.349856 2.11185e-20)
(0.680556 -0.319775 8.86317e-20)
(0.710371 -0.292217 -3.73204e-20)
(0.738272 -0.266989 2.33827e-20)
(0.764349 -0.243902 1.49197e-19)
(0.78867 -0.222784 -8.88911e-21)
(0.811284 -0.203485 -4.3882e-20)
(0.832361 -0.185822 -9.2898e-20)
(0.852312 -0.169476 -1.52786e-19)
(0.870995 -0.154227 -2.36977e-20)
(0.886085 -0.140928 1.53733e-19)
(0.0938034 -0.16637 1.00916e-19)
(0.231701 -0.384018 3.98196e-21)
(0.340874 -0.504687 -1.86576e-19)
(0.42239 -0.551445 7.45266e-20)
(0.48319 -0.549666 1.61405e-22)
(0.530817 -0.521909 7.94815e-20)
(0.570927 -0.484034 7.58848e-20)
(0.606909 -0.444636 -6.88102e-21)
(0.640319 -0.407167 -4.27623e-20)
(0.671696 -0.372519 -1.48987e-19)
(0.701211 -0.340703 4.5541e-20)
(0.728942 -0.311537 1.88302e-19)
(0.754962 -0.284821 -1.32272e-19)
(0.779345 -0.260357 -1.09388e-19)
(0.80214 -0.237965 -6.86721e-20)
(0.823372 -0.21749 -1.6448e-19)
(0.843196 -0.198745 4.84204e-20)
(0.862061 -0.181373 2.3018e-19)
(0.879862 -0.165118 -3.46138e-20)
(0.893978 -0.151011 -4.33266e-20)
(0.105156 -0.171717 4.23969e-20)
(0.258123 -0.398537 -6.65335e-20)
(0.375538 -0.52622 5.82026e-20)
(0.460278 -0.577204 -9.41587e-20)
(0.520924 -0.577065 1.03876e-19)
(0.566477 -0.549088 -1.03873e-19)
(0.603698 -0.509958 -2.53429e-20)
(0.636636 -0.4689 1.1191e-19)
(0.667146 -0.429711 -8.62824e-20)
(0.695864 -0.393419 9.57354e-20)
(0.722965 -0.360066 -1.1349e-19)
(0.748514 -0.329471 -6.54556e-20)
(0.772564 -0.301426 -4.6272e-20)
(0.79517 -0.275726 7.1782e-20)
(0.816365 -0.252186 1.44217e-20)
(0.836147 -0.230649 8.82332e-20)
(0.854651 -0.210925 -5.91165e-20)
(0.872365 -0.192622 -3.99459e-21)
(0.889249 -0.175433 9.03508e-20)
(0.902395 -0.160576 -4.09897e-20)
(0.116471 -0.175528 -9.89013e-21)
(0.28479 -0.40983 -3.95982e-20)
(0.410857 -0.543916 -7.52923e-21)
(0.499191 -0.599174 -2.20185e-20)
(0.559916 -0.601022 -7.11925e-20)
(0.603481 -0.57324 -6.16196e-20)
(0.637793 -0.533233 -4.0715e-20)
(0.667609 -0.490829 -5.63647e-20)
(0.695124 -0.450186 1.16478e-19)
(0.721085 -0.412482 1.25801e-20)
(0.745684 -0.3778 1.7933e-19)
(0.768968 -0.345959 5.54532e-20)
(0.790973 -0.31675 6.04272e-20)
(0.811734 -0.289963 -9.66119e-20)
(0.831266 -0.265405 1.47112e-19)
(0.849541 -0.242923 -2.63428e-20)
(0.866665 -0.222329 -1.52065e-20)
(0.883167 -0.203196 -1.29549e-19)
(0.899104 -0.185155 6.01825e-20)
(0.911305 -0.169602 -4.8342e-20)
(0.12758 -0.177795 -8.11046e-20)
(0.311355 -0.417838 -3.5616e-20)
(0.446432 -0.557677 -5.34814e-20)
(0.538744 -0.617234 -4.66597e-20)
(0.599829 -0.621417 -1.19155e-20)
(0.641546 -0.59426 1.24862e-19)
(0.672972 -0.553768 1.06125e-19)
(0.699623 -0.510347 9.01076e-20)
(0.724073 -0.468526 -9.15119e-20)
(0.747204 -0.429649 -5.29233e-20)
(0.769229 -0.393849 -1.88436e-19)
(0.790185 -0.360954 1.47151e-19)
(0.810084 -0.330751 -5.6373e-20)
(0.828944 -0.303026 1.02131e-19)
(0.846763 -0.277586 -7.58415e-20)
(0.863484 -0.254277 2.78634e-20)
(0.879176 -0.232918 -3.67726e-20)
(0.894406 -0.21306 1.1577e-19)
(0.909372 -0.194254 -9.13491e-20)
(0.920677 -0.178069 -4.02437e-20)
(0.138317 -0.178529 9.13666e-20)
(0.33747 -0.422541 -3.42906e-20)
(0.481848 -0.567437 6.44629e-20)
(0.578537 -0.631295 6.70048e-20)
(0.640313 -0.638159 -2.06758e-20)
(0.680377 -0.612065 -1.34374e-19)
(0.708987 -0.571494 9.6466e-20)
(0.732466 -0.527396 -1.87344e-20)
(0.753808 -0.48468 2.98396e-20)
(0.774058 -0.444876 3.58336e-20)
(0.793461 -0.408174 -7.42123e-20)
(0.81204 -0.374418 -1.74636e-19)
(0.829788 -0.343394 7.57467e-21)
(0.846704 -0.314887 -1.72092e-20)
(0.862772 -0.288701 5.08945e-21)
(0.877906 -0.264687 8.84202e-20)
(0.892121 -0.242681 -8.52321e-20)
(0.906013 -0.222219 -1.30555e-19)
(0.919986 -0.202769 -3.41234e-20)
(0.930485 -0.186018 6.86264e-20)
(0.148517 -0.177757 7.9687e-21)
(0.362782 -0.423952 -3.95392e-20)
(0.516684 -0.573169 8.5157e-21)
(0.618159 -0.6413 -5.08461e-20)
(0.681005 -0.65118 -2.05235e-20)
(0.719667 -0.626596 -1.428e-20)
(0.745584 -0.586362 2.24639e-20)
(0.765921 -0.541935 -6.85392e-20)
(0.784144 -0.498615 -1.59064e-20)
(0.801485 -0.45813 4.45016e-20)
(0.818234 -0.420748 2.96901e-20)
(0.834407 -0.386325 1.09286e-19)
(0.849976 -0.354655 1.08284e-19)
(0.864919 -0.325522 -2.75461e-20)
(0.87921 -0.298727 7.59053e-21)
(0.892739 -0.274125 3.02266e-20)
(0.905451 -0.251563 1.1132e-19)
(0.917928 -0.230574 1.3037e-19)
(0.930861 -0.210553 1.45766e-19)
(0.940724 -0.193334 -1.84987e-20)
(0.158021 -0.175529 -1.24975e-20)
(0.386939 -0.422121 2.48666e-20)
(0.550514 -0.574883 2.54377e-20)
(0.657186 -0.647225 1.89058e-20)
(0.72153 -0.660443 -4.28443e-20)
(0.759105 -0.637814 1.36737e-19)
(0.782502 -0.598343 -3.98835e-20)
(0.79977 -0.553944 1.13874e-20)
(0.814891 -0.510312 -5.9098e-20)
(0.82932 -0.469398 -6.03605e-21)
(0.843406 -0.431554 9.99154e-20)
(0.857161 -0.396662 -5.01357e-20)
(0.870536 -0.36452 -1.81011e-20)
(0.883492 -0.334917 -4.5166e-20)
(0.895989 -0.307655 4.32568e-20)
(0.907906 -0.282591 -8.58032e-20)
(0.919105 -0.259596 3.33192e-20)
(0.930069 -0.238243 -2.15559e-20)
(0.941812 -0.217922 9.4839e-21)
(0.951351 -0.200545 4.2222e-20)
(0.166674 -0.171913 -7.0191e-21)
(0.409596 -0.417136 9.69684e-22)
(0.582909 -0.572627 -2.42656e-21)
(0.695191 -0.649082 -9.74834e-21)
(0.761506 -0.66594 1.80301e-20)
(0.798368 -0.645709 -8.61985e-20)
(0.819476 -0.60743 -8.86181e-21)
(0.833792 -0.563419 -4.80994e-20)
(0.845861 -0.519772 7.43937e-20)
(0.857398 -0.478679 5.68031e-20)
(0.86883 -0.440592 -9.53494e-20)
(0.880173 -0.405425 7.33363e-20)
(0.89136 -0.372985 -6.16675e-20)
(0.902327 -0.343067 1.39375e-20)
(0.913025 -0.315474 -1.94688e-19)
(0.923336 -0.29006 6.64545e-21)
(0.933062 -0.266697 -6.6647e-20)
(0.942483 -0.244947 -9.64263e-20)
(0.95281 -0.224144 -5.74437e-20)
(0.962656 -0.206393 -9.26908e-20)
(0.174347 -0.167002 1.43393e-20)
(0.430412 -0.409113 -2.0808e-20)
(0.613444 -0.56649 9.14861e-21)
(0.731739 -0.646918 1.07609e-20)
(0.800544 -0.667689 -1.65402e-23)
(0.837131 -0.650291 4.02209e-20)
(0.856241 -0.613635 -2.08411e-20)
(0.867765 -0.570377 -1.54948e-20)
(0.876865 -0.52701 -8.72767e-21)
(0.885557 -0.485987 -3.50983e-20)
(0.894367 -0.447874 2.47984e-20)
(0.903321 -0.412623 -7.01822e-20)
(0.912338 -0.380056 6.02559e-20)
(0.921331 -0.349975 6.03731e-20)
(0.930235 -0.322189 1.08226e-19)
(0.938948 -0.296548 3.66363e-20)
(0.947265 -0.27292 7.44197e-20)
(0.955214 -0.250972 8.18641e-20)
(0.963624 -0.230613 7.33789e-20)
(0.973235 -0.214046 3.6714e-20)
(0.180968 -0.160912 4.08472e-20)
(0.449049 -0.398177 -1.33544e-20)
(0.641702 -0.556608 -1.66413e-20)
(0.766397 -0.640815 -2.79359e-20)
(0.838251 -0.665738 6.97825e-21)
(0.875063 -0.651593 -1.40593e-20)
(0.892527 -0.616989 1.69496e-20)
(0.90147 -0.574849 -6.97169e-21)
(0.907719 -0.532059 -3.05743e-20)
(0.913637 -0.49135 -1.01981e-20)
(0.919874 -0.453423 8.23323e-20)
(0.926481 -0.418276 1.92318e-20)
(0.933362 -0.385748 1.33798e-20)
(0.94041 -0.355654 -4.90786e-20)
(0.94754 -0.327811 -1.47743e-19)
(0.954662 -0.302064 4.60639e-20)
(0.961605 -0.278277 3.03852e-20)
(0.968235 -0.256226 -8.51658e-20)
(0.974886 -0.236098 -4.77232e-20)
(0.982919 -0.218742 -2.30128e-20)
(0.186395 -0.153612 -4.75766e-20)
(0.465235 -0.384451 3.1519e-20)
(0.667274 -0.543189 -6.71798e-20)
(0.798743 -0.630893 2.65587e-21)
(0.874231 -0.660165 1.78038e-20)
(0.911832 -0.649673 -1.27337e-20)
(0.928066 -0.617544 9.45641e-21)
(0.934688 -0.576886 1.09497e-21)
(0.938239 -0.534967 3.04774e-20)
(0.941481 -0.494812 2.69789e-20)
(0.945218 -0.457276 -5.46941e-20)
(0.949534 -0.422415 -9.59351e-20)
(0.954329 -0.390089 3.54099e-20)
(0.959476 -0.360125 2.87887e-20)
(0.964866 -0.332353 7.67672e-20)
(0.970412 -0.306617 -9.81499e-21)
(0.975997 -0.282765 8.43946e-22)
(0.981435 -0.260648 2.84283e-21)
(0.986644 -0.240633 -7.467e-21)
(0.992814 -0.222822 -1.11807e-19)
(0.190445 -0.145293 6.61226e-20)
(0.478725 -0.368328 7.15838e-20)
(0.689712 -0.526403 7.07961e-20)
(0.828405 -0.617303 1.69177e-20)
(0.908099 -0.651075 -2.45261e-20)
(0.947102 -0.644609 -1.95523e-20)
(0.962587 -0.615369 -1.14054e-20)
(0.967204 -0.576554 -1.56693e-22)
(0.968251 -0.535794 -9.0639e-21)
(0.968939 -0.496428 -1.38026e-20)
(0.970266 -0.459481 5.00022e-21)
(0.972366 -0.425081 4.14498e-20)
(0.975138 -0.393111 -3.58595e-20)
(0.978438 -0.363415 2.81847e-21)
(0.982139 -0.335837 -1.89856e-20)
(0.986145 -0.310223 -1.06417e-20)
(0.990389 -0.286407 5.83565e-21)
(0.994699 -0.264297 -1.80908e-20)
(0.998724 -0.244408 1.73637e-20)
(1.00327 -0.226409 1.0379e-19)
(0.19307 -0.136195 4.7792e-20)
(0.489291 -0.350026 -1.38325e-19)
(0.708626 -0.506487 7.14648e-20)
(0.854858 -0.600258 2.07959e-20)
(0.939501 -0.638578 -4.87245e-20)
(0.980545 -0.636495 2.48085e-20)
(0.995822 -0.610546 1.59624e-21)
(0.998806 -0.573932 -1.29893e-20)
(0.997581 -0.534618 1.92892e-21)
(0.995867 -0.496267 5.50219e-22)
(0.994894 -0.460099 -5.57979e-21)
(0.994868 -0.426324 1.24688e-20)
(0.995692 -0.394859 2.23051e-20)
(0.997214 -0.365563 -3.70994e-20)
(0.999287 -0.338295 1.98554e-20)
(1.00181 -0.312911 -6.71858e-21)
(1.00474 -0.289239 2.04995e-20)
(1.00794 -0.267221 -3.3246e-22)
(1.01089 -0.247482 2.35413e-20)
(1.01403 -0.229441 -3.04971e-20)
(0.194247 -0.126485 -6.1369e-21)
(0.496697 -0.329812 -5.35752e-20)
(0.723806 -0.483741 -4.45163e-20)
(0.877631 -0.579956 2.67159e-20)
(0.967975 -0.622863 -5.31547e-21)
(1.01184 -0.625433 2.64067e-20)
(1.0275 -0.603175 1.25149e-20)
(1.02928 -0.569112 3.04434e-21)
(1.02606 -0.531525 1.32728e-21)
(1.02213 -0.494409 -2.06962e-21)
(1.01898 -0.459199 -1.07309e-21)
(1.01694 -0.426205 -4.39222e-21)
(1.0159 -0.395383 6.97316e-21)
(1.01572 -0.366611 -4.41874e-22)
(1.01624 -0.339765 -2.70119e-20)
(1.01734 -0.314715 4.92925e-20)
(1.01899 -0.291288 -2.41445e-20)
(1.02109 -0.269444 -2.33418e-20)
(1.02301 -0.249867 -1.03478e-20)
(1.02485 -0.23188 -1.8097e-20)
(0.193956 -0.116296 -1.84662e-20)
(0.500766 -0.307989 1.14821e-19)
(0.734969 -0.458472 3.83831e-20)
(0.896442 -0.556669 -1.05416e-19)
(0.993064 -0.604108 -1.91355e-20)
(1.04062 -0.611572 3.16228e-20)
(1.05736 -0.593359 1.35445e-20)
(1.05843 -0.562199 3.43203e-20)
(1.05354 -0.526613 -2.1472e-21)
(1.04759 -0.490944 3.17045e-21)
(1.04243 -0.456862 2.26579e-21)
(1.03847 -0.424794 8.68677e-21)
(1.03568 -0.394744 1.19528e-21)
(1.03389 -0.366612 1.39489e-20)
(1.03293 -0.340292 -9.50209e-21)
(1.03268 -0.315671 -6.2771e-20)
(1.03311 -0.292582 -2.95364e-20)
(1.03412 -0.270984 3.07021e-20)
(1.03502 -0.251586 1.55616e-20)
(1.03564 -0.233735 -6.75553e-21)
(0.192184 -0.105769 1.08062e-19)
(0.501385 -0.284886 -1.53804e-19)
(0.741829 -0.431031 -1.37185e-19)
(0.910989 -0.530675 1.65429e-19)
(1.01443 -0.582528 4.11548e-20)
(1.0665 -0.595075 -2.6192e-20)
(1.08512 -0.581227 -4.53073e-20)
(1.08604 -0.553303 -4.4214e-20)
(1.07985 -0.519991 2.75634e-20)
(1.07213 -0.485972 6.99907e-21)
(1.06512 -0.453175 7.59551e-21)
(1.0594 -0.422167 4.29309e-21)
(1.05496 -0.393006 -3.5316e-21)
(1.05165 -0.365621 3.0621e-21)
(1.04929 -0.339922 1.11652e-20)
(1.04776 -0.315817 3.34409e-20)
(1.04702 -0.293151 1.54815e-20)
(1.04699 -0.271868 -5.27749e-20)
(1.04691 -0.252679 -1.08419e-20)
(1.04639 -0.235045 1.56239e-20)
(0.188944 -0.0950639 -1.17951e-19)
(0.49849 -0.260848 1.13978e-19)
(0.744158 -0.401795 -4.87914e-22)
(0.920934 -0.502282 -3.7613e-20)
(1.03175 -0.558357 -5.92382e-21)
(1.08915 -0.576112 -8.31559e-21)
(1.11049 -0.566924 -4.29325e-20)
(1.11192 -0.54255 4.19092e-20)
(1.10485 -0.511771 -5.04803e-20)
(1.09565 -0.479599 3.15431e-21)
(1.08697 -0.448234 -2.38632e-21)
(1.07962 -0.418405 -7.23614e-22)
(1.07365 -0.390242 -3.01788e-21)
(1.06893 -0.363699 7.98174e-23)
(1.06527 -0.338708 1.94914e-21)
(1.06254 -0.315199 -5.55365e-21)
(1.0607 -0.29303 1.40351e-20)
(1.05965 -0.272128 3.24432e-21)
(1.05864 -0.253187 1.17227e-21)
(1.05708 -0.235845 -2.5945e-20)
(0.184281 -0.0843436 1.81931e-20)
(0.492071 -0.23623 3.3037e-20)
(0.741797 -0.371162 6.06792e-20)
(0.92597 -0.471832 -3.18617e-20)
(1.04467 -0.531844 -8.75354e-20)
(1.10826 -0.554869 2.41625e-20)
(1.13319 -0.550596 3.74413e-20)
(1.13585 -0.530066 2.15858e-20)
(1.1284 -0.502077 4.49152e-20)
(1.118 -0.471937 -9.64344e-21)
(1.10789 -0.442136 -3.46214e-21)
(1.09906 -0.413599 3.87401e-21)
(1.0917 -0.386528 -8.88165e-21)
(1.08568 -0.36091 -7.33282e-21)
(1.08081 -0.336706 -5.04587e-23)
(1.07697 -0.313863 3.30195e-22)
(1.07408 -0.29226 -1.38549e-20)
(1.07207 -0.2718 7.36096e-21)
(1.07019 -0.253144 1.31247e-20)
(1.06768 -0.236154 -9.56329e-22)
(0.178264 -0.07377 3.32228e-20)
(0.482175 -0.211394 6.71618e-21)
(0.734654 -0.339548 -8.48895e-20)
(0.925849 -0.439692 1.03351e-19)
(1.05284 -0.503267 1.88552e-20)
(1.12347 -0.531543 -9.64677e-20)
(1.15294 -0.532396 3.02479e-20)
(1.15761 -0.515989 -3.18542e-20)
(1.15036 -0.491026 3.7573e-22)
(1.13913 -0.463094 4.64553e-21)
(1.12779 -0.434996 1.02635e-20)
(1.11767 -0.40784 2.70594e-21)
(1.10906 -0.381945 1.77727e-20)
(1.10184 -0.357326 1.12881e-21)
(1.09588 -0.333975 -4.15407e-21)
(1.091 -0.311858 9.14386e-22)
(1.08714 -0.290882 -2.49097e-21)
(1.08422 -0.270921 -2.882e-22)
(1.08152 -0.252584 1.66464e-21)
(1.07815 -0.235995 5.99031e-21)
(0.17099 -0.063497 -3.86757e-20)
(0.468909 -0.186699 2.01328e-21)
(0.722708 -0.307383 1.77548e-20)
(0.920378 -0.406251 -4.26709e-20)
(1.05596 -0.472921 8.07922e-20)
(1.13445 -0.506341 3.95594e-20)
(1.16944 -0.512472 -3.6923e-20)
(1.17699 -0.500445 -2.077e-20)
(1.17057 -0.478743 1.58716e-20)
(1.15895 -0.453193 -1.88561e-20)
(1.14664 -0.426907 1.47056e-20)
(1.1354 -0.401234 8.40048e-22)
(1.12567 -0.376579 9.10829e-22)
(1.11738 -0.353011 -5.56123e-21)
(1.11042 -0.330576 1.0267e-20)
(1.1046 -0.309238 -1.45509e-21)
(1.09984 -0.288939 4.42611e-23)
(1.09607 -0.269528 1.99099e-21)
(1.09263 -0.251543 -3.89703e-21)
(1.08848 -0.235384 -3.03947e-22)
(0.16258 -0.0536676 6.39749e-20)
(0.452443 -0.162495 7.26554e-20)
(0.706013 -0.275104 5.12293e-20)
(0.909424 -0.37192 -8.34899e-21)
(1.05372 -0.441124 8.24539e-21)
(1.14086 -0.479484 -7.90885e-22)
(1.18239 -0.49098 7.92599e-20)
(1.19375 -0.483557 -2.12799e-20)
(1.18886 -0.465348 1.17978e-20)
(1.17732 -0.44235 -5.70893e-20)
(1.16437 -0.417993 9.96191e-21)
(1.15221 -0.393866 1.84522e-20)
(1.14149 -0.3705 -5.82436e-21)
(1.13226 -0.348055 1.20974e-20)
(1.1244 -0.326576 -9.1917e-21)
(1.11773 -0.306051 1.20012e-20)
(1.11216 -0.286476 1.33499e-21)
(1.1076 -0.267666 -2.0439e-21)
(1.10349 -0.250058 -5.13489e-22)
(1.09863 -0.234352 -2.90125e-21)
(0.153175 -0.0444099 -1.20631e-19)
(0.433008 -0.13912 2.91315e-20)
(0.684705 -0.243149 -1.17119e-20)
(0.892926 -0.337119 -7.56718e-20)
(1.0459 -0.408208 -2.37767e-20)
(1.14236 -0.451203 -4.52288e-20)
(1.19146 -0.468075 -3.55094e-20)
(1.20766 -0.465445 -3.41932e-20)
(1.20509 -0.45095 2.99565e-20)
(1.19416 -0.430675 1.10441e-20)
(1.1809 -0.408355 -3.35415e-20)
(1.16805 -0.385833 -4.18924e-21)
(1.15651 -0.36381 -2.10519e-21)
(1.14647 -0.342521 -1.05091e-20)
(1.1378 -0.322028 -1.20954e-21)
(1.13037 -0.302367 -1.96298e-21)
(1.12407 -0.28354 -1.00137e-20)
(1.11877 -0.265367 1.91316e-21)
(1.11409 -0.248166 3.31589e-21)
(1.10861 -0.232915 -5.98717e-22)
(0.142937 -0.0358348 4.13442e-21)
(0.410894 -0.116881 -5.23854e-20)
(0.659006 -0.211945 2.3452e-20)
(0.870903 -0.302283 -1.58062e-20)
(1.0323 -0.374523 1.85477e-20)
(1.13863 -0.421738 7.46051e-20)
(1.1963 -0.443917 -3.21339e-20)
(1.21842 -0.446225 6.78108e-20)
(1.21907 -0.435651 2.38859e-21)
(1.20937 -0.418271 2.67165e-20)
(1.19618 -0.398093 2.70836e-21)
(1.18287 -0.377238 1.59193e-20)
(1.1707 -0.356594 2.75274e-21)
(1.15997 -0.336485 3.99407e-22)
(1.15061 -0.31701 -1.6184e-20)
(1.14253 -0.298229 2.53966e-21)
(1.13556 -0.280163 9.85823e-21)
(1.12959 -0.262692 3.50145e-22)
(1.12434 -0.245906 -2.08839e-21)
(1.11845 -0.231123 9.39634e-22)
(0.132043 -0.028033 1.43968e-20)
(0.386448 -0.0960586 4.17586e-20)
(0.629225 -0.181902 4.38953e-20)
(0.843464 -0.267847 -1.24436e-20)
(1.01278 -0.340432 5.17138e-20)
(1.12936 -0.391341 -1.0088e-20)
(1.19657 -0.418662 7.30471e-20)
(1.22573 -0.426 -8.49106e-20)
(1.23059 -0.41954 -1.39065e-20)
(1.22281 -0.405228 -1.2561e-20)
(1.21014 -0.387303 -1.35328e-20)
(1.19666 -0.368173 -1.87874e-21)
(1.18403 -0.348936 5.71212e-21)
(1.17274 -0.330023 -1.47689e-20)
(1.16281 -0.311583 1.11258e-20)
(1.15416 -0.293695 -4.72797e-21)
(1.14662 -0.276408 -2.41614e-21)
(1.14007 -0.25964 -3.29402e-21)
(1.13424 -0.243342 -2.3168e-21)
(1.12812 -0.228997 -4.40187e-21)
(0.120678 -0.0210731 6.63729e-20)
(0.360064 -0.0768908 -6.31888e-20)
(0.595758 -0.153402 7.47958e-21)
(0.810819 -0.234241 -8.3953e-21)
(0.98728 -0.306311 -1.96089e-20)
(1.11427 -0.360278 -3.67284e-20)
(1.19188 -0.39247 -4.44463e-21)
(1.22925 -0.404868 2.13548e-20)
(1.23939 -0.402691 8.25293e-21)
(1.23436 -0.391623 -1.06625e-20)
(1.22273 -0.376069 1.14474e-20)
(1.20938 -0.358723 -9.88942e-22)
(1.19648 -0.340916 -1.88832e-20)
(1.18478 -0.323208 2.55437e-20)
(1.17439 -0.305811 6.82451e-21)
(1.16526 -0.288824 -3.35828e-21)
(1.15724 -0.272321 4.20494e-21)
(1.15019 -0.256258 4.72477e-21)
(1.14386 -0.24053 4.18744e-21)
(1.13748 -0.226625 3.99036e-21)
(0.109036 -0.0150004 -6.82021e-20)
(0.332173 -0.0595711 5.14977e-20)
(0.559084 -0.126787 2.18389e-20)
(0.773286 -0.201886 -4.40881e-20)
(0.955831 -0.272543 -9.31581e-21)
(1.09311 -0.328825 -3.35321e-20)
(1.18186 -0.365506 1.30131e-20)
(1.22859 -0.382916 -2.06246e-20)
(1.24518 -0.385164 1.10633e-21)
(1.24381 -0.377517 2.65966e-21)
(1.23385 -0.364463 5.77475e-21)
(1.22101 -0.348968 -1.84309e-20)
(1.20806 -0.332612 1.82356e-20)
(1.19608 -0.316112 -1.22595e-20)
(1.18534 -0.299754 -2.63248e-21)
(1.17582 -0.28367 9.45361e-22)
(1.1674 -0.267952 -3.05314e-21)
(1.15993 -0.252595 -7.49331e-21)
(1.15318 -0.237461 -1.59918e-22)
(1.14648 -0.223976 -4.10383e-21)
(0.0973073 -0.00983638 -8.15212e-21)
(0.303238 -0.0442423 -2.38033e-20)
(0.519759 -0.102357 -8.10401e-21)
(0.731293 -0.171181 1.27005e-20)
(0.91857 -0.239519 -7.26598e-21)
(1.06572 -0.297275 7.62942e-21)
(1.16612 -0.33794 1.69737e-20)
(1.22333 -0.360225 1.4402e-20)
(1.24761 -0.367 1.10833e-20)
(1.25095 -0.362951 -2.4068e-21)
(1.24338 -0.352541 -5.52718e-21)
(1.23148 -0.338973 6.80618e-21)
(1.21875 -0.324094 -3.00415e-21)
(1.20666 -0.3088 4.16899e-21)
(1.19567 -0.293474 -1.92133e-21)
(1.18585 -0.278285 4.76078e-21)
(1.1771 -0.263347 -1.3875e-21)
(1.16929 -0.248692 4.45184e-21)
(1.16218 -0.234142 -1.3398e-21)
(1.15518 -0.221061 2.33488e-22)
(0.0856792 -0.00557865 -9.86548e-23)
(0.273733 -0.0309928 -9.78643e-23)
(0.478401 -0.0803491 -2.71278e-21)
(0.685385 -0.142492 1.33477e-20)
(0.875756 -0.207631 8.45142e-21)
(1.032 -0.265936 -6.31928e-21)
(1.1443 -0.309955 -4.62558e-21)
(1.21298 -0.336874 -1.34021e-21)
(1.24624 -0.348223 -6.38147e-21)
(1.25548 -0.347942 -4.11543e-22)
(1.25115 -0.340336 2.66688e-22)
(1.24074 -0.328792 -2.58432e-21)
(1.22853 -0.315424 -1.56595e-21)
(1.21651 -0.301336 -3.49445e-21)
(1.20539 -0.287026 -3.72012e-21)
(1.19536 -0.272718 -2.91649e-22)
(1.18636 -0.258549 1.32937e-21)
(1.17827 -0.244584 1.35479e-21)
(1.17087 -0.230608 1.43974e-21)
(1.16363 -0.217918 2.08316e-21)
(0.0743269 -0.00220251 9.21877e-21)
(0.244135 -0.0198558 -1.42498e-21)
(0.435676 -0.0609419 -2.41099e-21)
(0.636215 -0.116144 6.04485e-21)
(0.827792 -0.177262 1.21118e-20)
(0.991953 -0.235136 -5.33639e-21)
(1.11606 -0.281753 -4.3263e-21)
(1.19706 -0.312945 -8.0141e-21)
(1.2406 -0.328844 -7.18138e-21)
(1.25701 -0.332485 1.34082e-21)
(1.25694 -0.327859 -1.1822e-21)
(1.24868 -0.318458 -5.41267e-22)
(1.23737 -0.306652 -2.77855e-21)
(1.22562 -0.293773 -4.46154e-21)
(1.21451 -0.280466 -1.08583e-21)
(1.20436 -0.26702 -3.57051e-22)
(1.19518 -0.253599 -7.45941e-23)
(1.18687 -0.24031 9.33712e-22)
(1.17925 -0.226903 3.39066e-21)
(1.17184 -0.214578 2.81782e-21)
(0.0634096 0.000337153 -5.52611e-21)
(0.214905 -0.0108092 -8.02294e-21)
(0.392278 -0.0442422 -1.0685e-20)
(0.584535 -0.0924092 1.40152e-20)
(0.775228 -0.148784 1.35071e-20)
(0.945737 -0.205218 2.59951e-22)
(1.08115 -0.25356 5.13538e-21)
(1.17504 -0.288528 1.42182e-20)
(1.2301 -0.308865 1.53761e-20)
(1.25508 -0.316549 9.96075e-21)
(1.26044 -0.315094 -2.42742e-20)
(1.25513 -0.307982 9.93724e-21)
(1.2452 -0.297812 -4.66235e-21)
(1.234 -0.28616 1.00173e-20)
(1.22304 -0.27384 -6.60074e-22)
(1.21286 -0.261233 -1.57919e-21)
(1.20358 -0.248538 1.03224e-21)
(1.19512 -0.235906 9.75041e-21)
(1.18732 -0.223066 -3.38946e-21)
(1.17982 -0.211072 3.24832e-22)
(0.0530661 0.002103 -1.69879e-20)
(0.186475 -0.00377969 3.86937e-20)
(0.348905 -0.0302852 3.84595e-21)
(0.531176 -0.0714939 -4.82887e-20)
(0.71877 -0.122537 -9.00252e-21)
(0.893677 -0.17654 2.08477e-20)
(1.03942 -0.225633 -4.81107e-20)
(1.14642 -0.26374 -4.34555e-22)
(1.21411 -0.288286 4.45961e-21)
(1.24911 -0.300085 -9.03844e-22)
(1.26123 -0.301992 1.289e-20)
(1.25986 -0.297349 -2.24419e-20)
(1.25192 -0.288919 3.5902e-21)
(1.2416 -0.278528 -8.4822e-21)
(1.23097 -0.26719 -7.03517e-21)
(1.22088 -0.255401 6.46497e-21)
(1.21157 -0.243406 -7.58396e-22)
(1.20301 -0.231407 -1.53633e-20)
(1.19509 -0.219134 4.33253e-22)
(1.18755 -0.207429 -7.77705e-21)
(0.0434113 0.00317179 1.31888e-20)
(0.159234 0.00135283 -2.14443e-20)
(0.306236 -0.0190339 -1.7013e-21)
(0.477018 -0.0535312 -3.97693e-20)