/*--------------------------------*- C++ -*----------------------------------*\
  =========                 |
  \\      /  F ield         | OpenFOAM: The Open Source CFD Toolbox
   \\    /   O peration     | Website:  https://openfoam.org
    \\  /    A nd           | Version:  7
     \\/     M anipulation  |
\*---------------------------------------------------------------------------*/
FoamFile
{
    version     2.0;
    format      ascii;
    class       surfaceScalarField;
    location    "13";
    object      phi;
}
// * * * * * * * * * * * * * * * * * * * * * * * * * * * * * * * * * * * * * //

dimensions      [0 3 -1 0 0 0 0];

internalField   nonuniform List<scalar> 
812
(
0.00131884
0.00203242
0.00145063
0.00145214
0.0249802
-8.71865e-05
0.0250744
-9.41631e-05
0.0251754
-0.000101027
0.0252832
-0.000107768
0.0253976
-0.000114375
0.0255184
-0.000120835
0.0256455
-0.000127139
0.0257788
-0.000133274
0.025918
-0.000139228
0.026063
-0.000144984
-0.000150517
0.0241282
-0.000171697
0.0242195
-0.000185396
0.0243173
-0.000198874
0.0244217
-0.000212108
0.0245324
-0.000225076
0.0246493
-0.000237758
0.0247723
-0.000250131
0.0249012
-0.000262173
0.0250358
-0.000273858
0.025176
-0.000285153
-0.000296009
0.0233217
-0.000253947
0.0234105
-0.000274142
0.0235056
-0.000294009
0.023607
-0.000313515
0.0237146
-0.000332629
0.0238281
-0.000351318
0.0239475
-0.000369551
0.0240727
-0.000387294
0.0242033
-0.00040451
0.0243393
-0.000421149
-0.000437137
0.0225569
-0.000334272
0.0226435
-0.000360756
0.0227363
-0.000386808
0.0228352
-0.000412386
0.02294
-0.000437448
0.0230507
-0.000461952
0.023167
-0.000485857
0.0232888
-0.000509118
0.023416
-0.000531686
0.0235483
-0.000553495
-0.000574444
0.0218304
-0.000412966
0.0219152
-0.000445551
0.022006
-0.000477603
0.0221026
-0.000509072
0.0222051
-0.000539905
0.0223132
-0.000570051
0.0224268
-0.000599458
0.0225457
-0.000628072
0.0226699
-0.000655833
0.0227991
-0.000682656
-0.000708413
0.021139
-0.000490288
0.0212223
-0.000528803
0.0213114
-0.000566687
0.0214062
-0.000603881
0.0215066
-0.000640324
0.0216125
-0.000675955
0.0217238
-0.000710712
0.0218402
-0.00074453
0.0219617
-0.00077734
0.0220881
-0.000809038
-0.000839467
0.0204803
-0.00056647
0.0205623
-0.000610757
0.0206499
-0.000654319
0.0207431
-0.000697087
0.0208418
-0.000738993
0.0209458
-0.000779966
0.021055
-0.000819934
0.0211693
-0.000858825
0.0212885
-0.000896554
0.0214125
-0.000933003
-0.00096798
0.0198518
-0.000641718
0.0199327
-0.000691631
0.0200191
-0.000740729
0.020111
-0.000788935
0.0202081
-0.000836169
0.0203105
-0.000882354
0.020418
-0.000927409
0.0205304
-0.00097125
0.0206477
-0.00101378
0.0207695
-0.00105487
-0.00109428
0.0192515
-0.000716217
0.0193315
-0.000771622
0.0194169
-0.000826125
0.0195076
-0.000879641
0.0196035
-0.000932081
0.0197045
-0.00098336
0.0198105
-0.00103339
0.0199213
-0.00108207
0.0200368
-0.0011293
0.0201569
-0.00117493
-0.00121868
0.0186773
-0.000790132
0.0187566
-0.000850905
0.0188411
-0.000910694
0.0189309
-0.000969402
0.0190257
-0.00102694
0.0191256
-0.0010832
0.0192303
-0.0011381
0.0193397
-0.00119152
0.0194538
-0.00124336
0.0195723
-0.00129343
-0.00134143
0.0181275
-0.000863614
0.0182062
-0.00092964
0.0182901
-0.000994601
0.0183791
-0.00105839
0.0184731
-0.00112092
0.018572
-0.00118207
0.0186756
-0.00124174
0.0187839
-0.00129981
0.0188967
-0.00135616
0.0190139
-0.0014106
-0.00146276
0.0176005
-0.000936799
0.0176788
-0.00100797
0.0177622
-0.001078
0.0178506
-0.00114677
0.0179438
-0.00121419
0.0180419
-0.00128013
0.0181446
-0.00134448
0.018252
-0.00140713
0.0183637
-0.00146791
0.0184798
-0.00152664
-0.00158289
0.0170947
-0.00100981
0.0171728
-0.00108602
0.0172558
-0.00116101
0.0173437
-0.00123468
0.0174364
-0.00130689
0.0175338
-0.00137754
0.0176358
-0.0014465
0.0177423
-0.00151363
0.0178532
-0.00157878
0.0179683
-0.00164172
-0.00170199
0.0166089
-0.00108275
0.0166868
-0.0011639
0.0167696
-0.00124377
0.0168571
-0.00132223
0.0169494
-0.00139916
0.0170463
-0.00147443
0.0171477
-0.00154791
0.0172535
-0.00161946
0.0173636
-0.0016889
0.0174779
-0.001756
-0.00182023
0.0161417
-0.00115572
0.0162196
-0.00124172
0.0163022
-0.00132637
0.0163895
-0.00140954
0.0164814
-0.0014911
0.0165779
-0.00157092
0.0166788
-0.00164885
0.0167841
-0.00172474
0.0168936
-0.00179841
0.0170072
-0.0018696
-0.00193772
0.015692
-0.0012288
0.0157699
-0.00131956
0.0158524
-0.00140891
0.0159396
-0.00149671
0.0160313
-0.00158282
0.0161275
-0.0016671
0.016228
-0.00174941
0.0163329
-0.00182958
0.0164419
-0.00190741
0.0165549
-0.00198263
-0.00205459
0.0152587
-0.00130208
0.0153366
-0.0013975
0.0154192
-0.00149146
0.0155063
-0.00158381
0.0155979
-0.00167439
0.0156938
-0.00176307
0.0157941
-0.00184968
0.0158986
-0.00193406
0.0160071
-0.00201599
0.0161197
-0.00209517
-0.0021709
0.0148408
-0.00137562
0.0149189
-0.00147563
0.0150015
-0.00157411
0.0150886
-0.00167091
0.0151801
-0.00176589
0.0152759
-0.00185888
0.015376
-0.00194973
0.0154802
-0.00203824
0.0155884
-0.0021242
0.0157005
-0.00220728
-0.00228672
0.0144374
-0.00144949
0.0145157
-0.00155399
0.0145985
-0.00165691
0.0146857
-0.00175809
0.0147772
-0.00185738
0.0148729
-0.00195461
0.0149728
-0.0020496
0.0150767
-0.00214217
0.0151846
-0.00223207
0.0152963
-0.00231897
-0.00240203
0.0140477
-0.00152375
0.0141263
-0.00163264
0.0142093
-0.00173991
0.0142966
-0.00184538
0.0143881
-0.00194889
0.0144838
-0.00205027
0.0145835
-0.00214932
0.0146872
-0.00224585
0.0147947
-0.00233959
0.0149059
-0.00243019
-0.00251677
0.013671
-0.00159843
0.0137499
-0.00171163
0.0138332
-0.00182315
0.0139206
-0.00193281
0.0140122
-0.00204044
0.0141077
-0.00214585
0.0142073
-0.00224885
0.0143106
-0.0023492
0.0144177
-0.00244663
0.0145282
-0.00254078
-0.00263071
0.0133066
-0.00167358
0.0133859
-0.00179097
0.0134694
-0.00190663
0.0135569
-0.00202036
0.0136485
-0.00213197
0.0137439
-0.00224127
0.0138431
-0.00234804
0.0139459
-0.00245202
0.0140522
-0.00255292
0.0141617
-0.00265035
-0.00274336
0.0129538
-0.00174917
0.0130334
-0.00187063
0.0131171
-0.00199028
0.0132047
-0.00210792
0.013296
-0.00222334
0.0133911
-0.0023363
0.0134896
-0.00244658
0.0135915
-0.00255389
0.0136964
-0.00265788
0.0138043
-0.00275817
-0.00285382
0.0126119
-0.00182513
0.0126918
-0.00195048
0.0127754
-0.00207393
0.0128628
-0.00219524
0.0129536
-0.00231418
0.0130478
-0.00243047
0.013145
-0.00254385
0.0132451
-0.00265399
0.0133477
-0.00276049
0.0134525
-0.00286296
-0.00296055
0.0122801
-0.00190126
0.0123598
-0.00203025
0.0124431
-0.00215719
0.0125297
-0.00228181
0.0126193
-0.00240381
0.0127117
-0.0025229
0.0128066
-0.00263873
0.0129035
-0.00275092
0.0130021
-0.00285903
0.0131017
-0.00296263
-0.00306108
0.0119569
-0.00197714
0.0120361
-0.00210937
0.0121182
-0.00223933
0.0122031
-0.00236667
0.0122903
-0.00249106
0.0123795
-0.00261209
0.0124701
-0.00272938
0.0125617
-0.00284247
0.0126535
-0.00295084
0.0127449
-0.00305403
-0.00315178
0.0116407
-0.00205198
0.0117182
-0.00218684
0.011798
-0.00231908
0.0118795
-0.00244826
0.0119625
-0.00257397
0.0120461
-0.00269571
0.0121297
-0.002813
0.0122125
-0.00292531
0.0122937
-0.00303204
0.0123724
-0.00313272
-0.00322768
0.0113287
-0.00212447
0.0114029
-0.00226104
0.0114782
-0.00239443
0.0115541
-0.00252415
0.0116298
-0.00264964
0.0117044
-0.00277032
0.011777
-0.00288559
0.0118465
-0.00299488
0.011912
-0.0030975
0.0119723
-0.00319299
-0.00328253
0.0110167
-0.00219255
0.0110851
-0.00232946
0.0111531
-0.00246242
0.0112198
-0.00259082
0.0112841
-0.00271399
0.011345
-0.00283125
0.0114014
-0.00294192
0.0114519
-0.00304536
0.0114952
-0.00314089
0.0115303
-0.00322803
-0.00330917
0.010699
-0.00225322
0.0107581
-0.00238855
0.0108146
-0.00251892
0.0108674
-0.00264358
0.0109152
-0.00276176
0.0109566
-0.0028727
0.0109904
-0.00297567
0.011015
-0.00307004
0.0110293
-0.00315516
0.0110319
-0.00323062
-0.00330032
0.010368
-0.00230236
0.0104131
-0.00243365
0.0104529
-0.0025587
0.0104859
-0.00267666
0.0105109
-0.00278671
0.0105262
-0.00288805
0.0105305
-0.00297997
0.0105224
-0.00306194
0.0105007
-0.0031334
0.0104641
-0.00319405
-0.00324961
0.0100138
-0.00233478
0.0100392
-0.00245906
0.0100561
-0.00257563
0.0100631
-0.00268362
0.0100586
-0.00278219
0.0100411
-0.00287061
0.0100094
-0.00294827
0.00996231
-0.00301483
0.00989881
-0.00306991
0.00981808
-0.00311331
-0.0031528
0.00962519
-0.00234452
0.00962465
-0.00245852
0.00961232
-0.0025633
0.00958674
-0.00265803
0.00954654
-0.00274199
0.00949051
-0.00281457
0.00941763
-0.00287539
0.00932718
-0.00292438
0.00921862
-0.00296135
0.00909152
-0.00298621
-0.0030088
0.00919044
-0.00232541
0.00915783
-0.00242591
0.00911038
-0.00251584
0.00904686
-0.00259452
0.00896628
-0.00266141
0.00886787
-0.00271616
0.00875116
-0.00275868
0.00861599
-0.00278921
0.00846235
-0.00280771
0.00829025
-0.00281412
-0.00282015
0.00869906
-0.00227194
0.00862938
-0.00235623
0.00854251
-0.00242897
0.00843771
-0.00248973
0.00831456
-0.00253826
0.00817293
-0.00257453
0.008013
-0.00259875
0.00783526
-0.00261147
0.00764022
-0.00261266
0.00742819
-0.0026021
-0.00259295
0.00814375
-0.00218027
0.00803408
-0.00224656
0.007906
-0.0023009
0.00775946
-0.00234318
0.00759472
-0.00237352
0.00741241
-0.00239222
0.00721343
-0.00239977
0.00699884
-0.00239688
0.00676951
-0.00238333
0.0065258
-0.00235839
-0.00233607
0.0075227
-0.00204909
0.00737296
-0.00209682
0.00720496
-0.00213289
0.00701937
-0.00215759
0.00681724
-0.00217139
0.00659993
-0.00217491
0.00636899
-0.00216883
0.00612596
-0.00215385
0.00587189
-0.00212927
0.00560689
-0.00209339
0.00684102
-0.00188031
0.00665448
-0.00191028
0.00645116
-0.00192958
0.00623243
-0.00193886
0.00599998
-0.00193894
0.00575575
-0.00193068
0.00550177
-0.00191485
0.00523991
0.00497136
0.00630898
-0.00165439
0.00610723
-0.00167856
0.00588978
-0.00169284
0.00565822
-0.00169802
0.00541443
-0.00169506
0.0051605
0.00489866
0.00557221
0.00534428
0.00510358
0.00485215
)
;

boundaryField
{
    inlet
    {
        type            calculated;
        value           nonuniform 0();
    }
    outlet
    {
        type            calculated;
        value           nonuniform 0();
    }
    cylinder
    {
        type            calculated;
        value           nonuniform 0();
    }
    top
    {
        type            symmetryPlane;
        value           nonuniform 0();
    }
    bottom
    {
        type            symmetryPlane;
        value           uniform 0;
    }
    defaultFaces
    {
        type            empty;
        value           nonuniform 0();
    }
    procBoundary3to2
    {
        type            processor;
        value           nonuniform List<scalar> 
33
(
-0.0248931
-0.0240437
-0.0232395
-0.0224766
-0.0217517
-0.0210617
-0.0204041
-0.0197766
-0.019177
-0.0186034
-0.018054
-0.0175273
-0.0170217
-0.016536
-0.0160688
-0.0156189
-0.0151854
-0.0147672
-0.0143635
-0.0139734
-0.0135963
-0.0132314
-0.0128782
-0.012536
-0.0122039
-0.0118811
-0.0115659
-0.0112562
-0.0109486
-0.0106384
-0.0103189
-0.00998137
-0.00961545
)
;
    }
    procBoundary3to4
    {
        type            processor;
        value           nonuniform List<scalar> 
24
(
0.0262136
0.0253215
0.0244804
0.0236856
0.022933
0.0222192
0.021541
0.0208958
0.0202812
0.019695
0.0191352
0.0185999
0.0180874
0.0175962
0.0171247
0.0166717
0.016236
0.0158163
0.0154116
0.0150207
0.0146422
0.0142744
0.0139147
0.0135593
)
;
    }
    procBoundary3to8
    {
        type            processor;
        value           nonuniform List<scalar> 
11
(
-0.00196414
-0.00216421
-0.001441
-0.00920955
-0.00875253
-0.00823542
-0.00765388
-0.00700979
0.00183921
-0.0064938
-0.0057856
)
;
    }
    procBoundary3to9
    {
        type            processor;
        value           nonuniform List<scalar> 
16
(
-0.00119174
0.00183703
-0.00131714
0.00189743
-0.00144658
-0.00143502
-0.00206005
-0.00189199
-0.00186071
0.00469574
-0.00181778
-0.00168501
-0.00166884
0.00463112
-0.00164731
0.0045921
)
;
    }
    procBoundary3to10
    {
        type            processor;
        value           nonuniform List<scalar> 
13
(
0.0132023
0.0128356
0.0124483
0.0120271
0.0115569
0.011023
0.0104134
0.00972127
0.00894752
0.00810161
0.007201
0.00626891
0.00533088
)
;
    }
}


// ************************************************************************* //
