0.167813 	0.482335 	-1.86263e-18 	0.354985 	-0.0114016 	2.32369e-16
0.170247 	0.489332 	-2.17926e-18 	0.217302 	-0.00396962 	1.40035e-16
0.172682 	0.49633 	-2.19785e-18 	0.0738759 	-0.00058699 	3.63192e-17
