0.104021 	0.49633 	2.0618e-19 	0.0992247 	-0.00141364 	4.29613e-17
