/*--------------------------------*- C++ -*----------------------------------*\
  =========                 |
  \\      /  F ield         | OpenFOAM: The Open Source CFD Toolbox
   \\    /   O peration     | Website:  https://openfoam.org
    \\  /    A nd           | Version:  7
     \\/     M anipulation  |
\*---------------------------------------------------------------------------*/
FoamFile
{
    version     2.0;
    format      ascii;
    class       volScalarField;
    location    "3";
    object      p;
}
// * * * * * * * * * * * * * * * * * * * * * * * * * * * * * * * * * * * * * //

dimensions      [1 -1 -2 0 0 0 0];

internalField   nonuniform List<scalar> 
4116
(
1.07619
1.07342
1.07001
1.0652
1.05735
1.04845
1.04466
1.04307
1.04142
1.03968
1.0379
1.03628
1.03509
1.03326
1.03151
1.03218
1.04904
1.12834
1.35286
1.70818
2.15598
2.32148
2.35708
2.40235
2.44372
2.46375
2.47618
2.47872
2.46405
2.43549
2.40846
2.39146
2.37839
2.37724
2.38308
2.38091
2.3684
2.34989
2.32674
2.30681
2.29548
2.28799
2.28395
2.28402
2.28561
2.28352
2.27723
2.27182
2.26801
2.2662
2.26571
2.26492
2.26466
2.26261
2.25675
2.25121
2.247
2.2441
2.24539
2.25515
2.26588
2.26633
2.26312
2.25907
2.25283
2.24023
2.21454
2.18591
2.173
2.16827
2.16458
2.16201
2.16045
2.16129
2.1606
2.15492
2.14751
2.139
2.12737
2.10976
2.0883
2.07241
2.0667
2.06533
2.06406
2.0636
2.06596
2.07047
2.07048
2.06978
2.06922
2.06975
2.07641
2.09209
2.10788
2.1181
2.11972
2.11647
2.11099
2.0985
2.06612
2.02184
1.99565
1.98794
1.98549
1.98414
1.98257
1.9796
1.97556
1.97249
1.97045
1.96913
1.96827
1.96702
1.96606
1.96481
1.96253
1.95922
1.95439
1.94967
1.9458
1.94463
1.94913
1.9707
2.04107
2.21288
2.47085
2.86025
3.22199
3.52583
3.78581
3.85917
3.85317
3.83627
3.83882
3.85124
3.85865
3.86769
3.86746
3.86287
3.85381
3.84619
3.8389
3.83267
3.83505
3.83743
3.83151
1.07486
1.07179
1.06849
1.06426
1.05688
1.04798
1.04452
1.04295
1.04127
1.03945
1.0376
1.03618
1.03583
1.03464
1.03265
1.02999
1.02947
1.03299
1.062
1.17647
1.47427
1.8378
2.22994
2.37356
2.38687
2.39697
2.41477
2.43321
2.4419
2.44347
2.43305
2.41122
2.38647
2.36944
2.35359
2.34211
2.33983
2.33534
2.32254
2.30668
2.29152
2.28075
2.27225
2.26782
2.26985
2.27164
2.27008
2.26727
2.26407
2.2607
2.25777
2.25467
2.25263
2.25202
2.24947
2.24322
2.23766
2.23478
2.23708
2.24751
2.26013
2.26291
2.25981
2.25553
2.25031
2.24044
2.21875
2.1858
2.16131
2.15167
2.14668
2.1423
2.13886
2.13768
2.1401
2.13952
2.13376
2.12626
2.1175
2.10635
2.09046
2.07502
2.06476
2.05979
2.05743
2.05598
2.05634
2.05997
2.06592
2.06891
2.07016
2.07447
2.08439
2.09183
2.09743
2.10419
2.10647
2.10312
2.0972
2.08559
2.0604
2.02326
1.99376
1.98154
1.97769
1.97532
1.97296
1.97078
1.96914
1.96754
1.96676
1.96639
1.96511
1.96376
1.96232
1.96075
1.95889
1.95812
1.95788
1.96119
1.97681
2.03063
2.17323
2.39158
2.72966
3.09955
3.38624
3.686
3.80836
3.82871
3.86234
3.88727
3.90635
3.90373
3.9158
3.92358
3.91722
3.88983
3.86295
3.84269
3.82554
3.81706
3.82015
3.83564
3.85103
3.86274
3.86194
1.07338
1.07043
1.06753
1.06384
1.05709
1.04879
1.0455
1.04379
1.04193
1.03993
1.03778
1.03574
1.03476
1.03398
1.03311
1.03164
1.03062
1.02863
1.02662
1.03367
1.08547
1.24919
1.60106
1.95752
2.28187
2.42427
2.42166
2.40518
2.39396
2.39066
2.38423
2.3811
2.38255
2.37439
2.35656
2.34073
2.32784
2.31483
2.3051
2.2969
2.28617
2.27601
2.26704
2.25908
2.25564
2.25621
2.2574
2.25849
2.25866
2.25649
2.25179
2.24558
2.24027
2.23927
2.23974
2.23742
2.23313
2.22945
2.23044
2.23805
2.24959
2.25598
2.25401
2.24896
2.24356
2.23522
2.21731
2.18448
2.1514
2.13692
2.13085
2.12624
2.12223
2.11904
2.11976
2.12387
2.1221
2.11603
2.10874
2.10039
2.09238
2.08089
2.06528
2.05262
2.04862
2.047
2.04651
2.04948
2.05998
2.0707
2.07852
2.08489
2.0863
2.08572
2.08638
2.08938
2.09135
2.08786
2.08094
2.07044
2.05363
2.02847
1.99846
1.9776
1.97064
1.9677
1.96516
1.9626
1.9603
1.95879
1.96066
1.96308
1.96193
1.96087
1.96029
1.96113
1.96378
1.97812
2.02299
2.14335
2.36195
2.66815
3.05076
3.3521
3.64415
3.8117
3.8433
3.84247
3.83392
3.85924
3.89227
3.93302
3.97054
3.9801
3.97594
3.95035
3.90927
3.8629
3.82093
3.80229
3.7997
3.80976
3.8354
3.87049
3.89684
3.91056
3.90415
1.07417
1.07241
1.06993
1.06552
1.05746
1.04901
1.04571
1.04377
1.04158
1.03922
1.03697
1.03498
1.03365
1.03273
1.03225
1.0324
1.03272
1.03069
1.02647
1.02319
1.02284
1.03739
1.12319
1.34594
1.73018
2.07024
2.31465
2.43181
2.44214
2.40586
2.3616
2.34703
2.33271
2.32458
2.32528
2.3322
2.33017
2.31661
2.30546
2.29559
2.28176
2.26879
2.25827
2.24915
2.24478
2.24554
2.24716
2.24892
2.25023
2.24834
2.24362
2.23835
2.23367
2.23113
2.23148
2.23277
2.23128
2.22853
2.22785
2.23092
2.23844
2.24608
2.24617
2.24009
2.23352
2.22582
2.21056
2.18054
2.14652
2.12748
2.11958
2.11433
2.1097
2.10581
2.10411
2.1083
2.11243
2.10864
2.1026
2.09621
2.08814
2.07726
2.06182
2.04874
2.04465
2.043
2.04219
2.04549
2.06123
2.07967
2.0841
2.08265
2.08143
2.07941
2.07649
2.07408
2.07365
2.07103
2.0652
2.05774
2.04788
2.03151
2.00333
1.97387
1.96231
1.95921
1.957
1.95466
1.95271
1.95336
1.95848
1.96193
1.96142
1.96197
1.96843
1.99705
2.08532
2.28072
2.55956
2.94428
3.27931
3.55827
3.79143
3.87673
3.87974
3.86854
3.85898
3.8712
3.88218
3.92271
3.96947
3.99362
3.99773
3.9899
3.96794
3.92381
3.86037
3.81673
3.80062
3.79587
3.80214
3.83222
3.88635
3.91814
3.92197
3.92243
3.90963
1.07747
1.07582
1.07262
1.06572
1.05496
1.04744
1.04492
1.04296
1.04087
1.03887
1.03716
1.0357
1.03405
1.0323
1.03095
1.03089
1.03221
1.03186
1.02827
1.02405
1.02048
1.01803
1.02235
1.05099
1.18655
1.46929
1.84808
2.14556
2.33785
2.39712
2.40812
2.39394
2.34487
2.30829
2.29272
2.29121
2.30025
2.3056
2.30738
2.30008
2.28311
2.2661
2.25401
2.24311
2.23566
2.23507
2.23701
2.23765
2.23796
2.2366
2.23351
2.23111
2.22847
2.22492
2.22358
2.22533
2.228
2.22936
2.22837
2.22714
2.22828
2.23232
2.23517
2.23085
2.22271
2.2127
2.19742
2.17338
2.14443
2.12258
2.11222
2.10642
2.1013
2.0962
2.09226
2.09414
2.10105
2.10178
2.09642
2.09019
2.08292
2.07271
2.05865
2.04844
2.04534
2.04364
2.04286
2.04619
2.06038
2.07703
2.07928
2.07691
2.0745
2.07101
2.06556
2.06048
2.05761
2.05558
2.0513
2.04601
2.03944
2.02757
2.00353
1.97298
1.95719
1.95244
1.95026
1.9482
1.94673
1.94913
1.95923
1.97103
1.99188
2.04931
2.2011
2.44608
2.81468
3.18292
3.47013
3.71865
3.80598
3.82958
3.87079
3.87781
3.89311
3.90701
3.93113
3.96201
3.97883
3.98612
3.98764
3.9884
3.98439
3.96554
3.92483
3.87225
3.83295
3.81636
3.81517
3.82465
3.84865
3.87984
3.90064
3.91303
3.91513
3.91413
3.89825
1.07773
1.07518
1.07141
1.06459
1.05431
1.04813
1.04594
1.044
1.04208
1.04042
1.03835
1.03597
1.03358
1.03113
1.02886
1.02783
1.02936
1.03111
1.02926
1.02599
1.02279
1.01955
1.01744
1.01802
1.02939
1.0783
1.26193
1.59707
1.96766
2.17843
2.32345
2.35771
2.35188
2.34247
2.3201
2.30029
2.29038
2.28739
2.29049
2.29045
2.281
2.26448
2.25001
2.23805
2.22925
2.22667
2.2272
2.22666
2.22541
2.22366
2.22307
2.22411
2.22375
2.22071
2.21782
2.21798
2.22171
2.22647
2.22809
2.22562
2.22125
2.21835
2.2198
2.21922
2.21092
2.19999
2.18637
2.16715
2.1425
2.12086
2.10881
2.10199
2.09578
2.08933
2.08384
2.08318
2.08846
2.09275
2.08955
2.0836
2.07646
2.06641
2.05509
2.04892
2.04616
2.04438
2.0433
2.04463
2.05581
2.07225
2.07352
2.07039
2.06765
2.06401
2.05782
2.05116
2.04762
2.04495
2.04007
2.03434
2.0279
2.0179
1.99985
1.97407
1.95552
1.94961
1.94742
1.94649
1.94684
1.95837
2.00557
2.13132
2.35316
2.67903
3.08075
3.40749
3.69174
3.81181
3.84608
3.85389
3.82488
3.82449
3.84681
3.88212
3.94734
4.00525
4.02061
4.01568
4.00645
3.99943
3.99027
3.97352
3.94741
3.91863
3.89392
3.87415
3.85986
3.86037
3.86982
3.87917
3.88014
3.87742
3.87665
3.88167
3.89027
3.8988
3.89276
1.07671
1.07449
1.07191
1.06765
1.05885
1.05029
1.04711
1.04484
1.04234
1.03955
1.03669
1.03428
1.03206
1.02974
1.02758
1.02611
1.0267
1.02898
1.03001
1.02783
1.02476
1.02182
1.01965
1.01898
1.01707
1.01782
1.03614
1.1141
1.34958
1.73223
2.09934
2.20618
2.26146
2.30168
2.30397
2.29789
2.29644
2.2966
2.29248
2.28789
2.27688
2.26104
2.24803
2.2366
2.22805
2.22424
2.21882
2.21179
2.20846
2.20975
2.21383
2.21821
2.21894
2.21455
2.2097
2.20909
2.21435
2.22323
2.22743
2.22208
2.2131
2.20573
2.20397
2.20622
2.20067
2.18933
2.17602
2.15954
2.14002
2.12178
2.10856
2.09968
2.09213
2.0849
2.0789
2.07587
2.07636
2.07942
2.08018
2.076
2.06971
2.06069
2.05279
2.0492
2.04645
2.04415
2.0426
2.04285
2.05122
2.06516
2.06768
2.06514
2.06262
2.05905
2.05383
2.04661
2.0389
2.03343
2.02779
2.02072
2.01226
2.00205
1.98917
1.97348
1.95705
1.95357
1.95767
1.98038
2.06031
2.25693
2.54583
2.95053
3.32355
3.64574
3.84704
3.89896
3.90103
3.86708
3.82907
3.82986
3.82844
3.83996
3.88036
3.94398
3.99941
4.02997
4.03616
4.03038
4.01561
3.99038
3.96903
3.95305
3.93969
3.92594
3.91972
3.92341
3.9235
3.91405
3.89871
3.8863
3.87461
3.86369
3.85916
3.86056
3.86776
3.88532
3.89699
1.07848
1.07684
1.07469
1.07012
1.0599
1.04917
1.04513
1.0428
1.04022
1.03756
1.03513
1.03312
1.0315
1.02994
1.02824
1.02657
1.02571
1.02666
1.02807
1.0271
1.02467
1.02278
1.02258
1.02275
1.01988
1.01646
1.01407
1.017
1.05104
1.18341
1.47583
1.83447
2.19641
2.26361
2.25287
2.25854
2.26611
2.27707
2.27568
2.27265
2.26672
2.25983
2.25333
2.24427
2.23088
2.22017
2.21086
2.20279
2.2001
2.20216
2.20418
2.20473
2.20403
2.20189
2.20158
2.20652
2.21503
2.2223
2.22254
2.21268
2.20051
2.19136
2.18891
2.19307
2.19355
2.18381
2.1706
2.15463
2.13657
2.12096
2.10873
2.09882
2.09007
2.08165
2.0745
2.06959
2.06731
2.06716
2.06693
2.06556
2.06115
2.05498
2.05046
2.04728
2.04458
2.04255
2.04154
2.04394
2.0507
2.05639
2.05852
2.05948
2.05812
2.05418
2.04905
2.04214
2.0316
2.01989
2.01056
2.00276
1.99469
1.98956
1.98228
1.97763
1.99129
2.04391
2.19712
2.45511
2.81161
3.20939
3.54023
3.84469
3.96376
3.98008
3.95739
3.90433
3.88678
3.87449
3.8602
3.85829
3.86717
3.87998
3.90099
3.93446
3.98027
4.01992
4.02709
4.0194
4.00972
4.00174
3.98944
3.97731
3.97136
3.9732
3.97793
3.97551
3.96197
3.93341
3.90226
3.88045
3.86961
3.86419
3.86016
3.86002
3.86649
3.87448
3.88097
1.08072
1.07838
1.07462
1.06794
1.0579
1.04872
1.04361
1.04133
1.03959
1.03805
1.03604
1.03384
1.03187
1.03001
1.02809
1.02616
1.02443
1.02328
1.02352
1.02423
1.02463
1.02587
1.02689
1.02516
1.02219
1.01902
1.01538
1.01109
1.0084
1.01737
1.08126
1.27779
1.6549
1.95154
2.20507
2.28922
2.2916
2.28033
2.26362
2.25246
2.25115
2.25106
2.24626
2.23851
2.22844
2.21764
2.20814
2.20233
2.19981
2.19647
2.19012
2.1839
2.18307
2.18814
2.19759
2.20839
2.21675
2.21912
2.21257
2.19982
2.18819
2.18059
2.17781
2.18124
2.18637
2.18106
2.16768
2.15108
2.13345
2.12
2.10866
2.09743
2.08706
2.07848
2.07119
2.06484
2.05968
2.05556
2.05289
2.0516
2.05061
2.0484
2.04591
2.04324
2.04072
2.03972
2.04275
2.04865
2.05175
2.05066
2.04893
2.04988
2.05248
2.04957
2.04301
2.03522
2.02373
2.00881
1.99724
1.98979
1.98817
1.99588
2.03421
2.14719
2.38682
2.70088
3.10799
3.44311
3.7541
3.94798
4.02096
4.0394
4.02258
3.98688
3.95615
3.92131
3.91288
3.90738
3.89529
3.88109
3.87168
3.87457
3.88288
3.89611
3.92799
3.98417
4.02382
4.03059
4.02914
4.02934
4.0254
4.02028
4.01668
4.0147
4.00976
3.99839
3.97731
3.94362
3.90763
3.88883
3.88159
3.87794
3.87776
3.88181
3.87928
3.87128
3.86465
1.08051
1.0761
1.07061
1.06438
1.05768
1.05126
1.04639
1.04303
1.04111
1.03925
1.03693
1.03394
1.03078
1.02835
1.02619
1.02407
1.02211
1.02078
1.02146
1.02431
1.02813
1.02904
1.02728
1.02517
1.02309
1.02114
1.01841
1.01559
1.01189
1.00571
1.00534
1.0268
1.13931
1.39315
1.78225
2.04977
2.21911
2.28683
2.29614
2.29347
2.28504
2.26188
2.23522
2.22243
2.21439
2.20846
2.20783
2.20504
2.19304
2.18143
2.1703
2.1629
2.16868
2.1841
2.19898
2.20821
2.21026
2.20599
2.19788
2.18937
2.18194
2.17484
2.1694
2.17014
2.17791
2.17897
2.16651
2.14998
2.13352
2.11903
2.10562
2.09417
2.08452
2.076
2.06766
2.05891
2.05038
2.04365
2.0404
2.04052
2.04131
2.04046
2.03844
2.03635
2.03572
2.03997
2.04868
2.05336
2.05016
2.04506
2.04125
2.03944
2.04184
2.04157
2.03521
2.02878
2.01581
1.99939
1.99661
2.01645
2.09047
2.29155
2.58058
2.97097
3.34738
3.66376
3.8564
3.95971
4.06483
4.08366
4.07805
4.06043
4.03296
4.00157
3.97024
3.94567
3.93073
3.91973
3.90684
3.88753
3.87086
3.86614
3.86657
3.87473
3.89857
3.95416
4.02323
4.05546
4.0594
4.05612
4.04979
4.04268
4.03534
4.02775
4.01978
4.00915
3.99187
3.96223
3.92404
3.90298
3.89757
3.89506
3.89447
3.89004
3.88132
3.86433
3.83668
1.07603
1.07143
1.06717
1.06353
1.06067
1.05704
1.05147
1.04547
1.04102
1.0378
1.03468
1.03152
1.02859
1.02615
1.02425
1.0225
1.02103
1.0206
1.0222
1.02509
1.02827
1.02908
1.0276
1.02625
1.02525
1.0241
1.02235
1.01987
1.01568
1.00766
1.00044
0.991888
0.999252
1.04398
1.21668
1.55818
1.93411
2.10033
2.20481
2.27942
2.28414
2.27009
2.25386
2.23986
2.22139
2.20875
2.20131
2.1921
2.17941
2.16879
2.16098
2.1627
2.17253
2.18227
2.18765
2.18973
2.19012
2.1906
2.19167
2.18973
2.18178
2.17003
2.15992
2.15913
2.17019
2.17613
2.16522
2.1486
2.13182
2.1171
2.10403
2.09247
2.0821
2.07193
2.06115
2.05017
2.04027
2.03379
2.03238
2.0335
2.03295
2.03011
2.02723
2.0272
2.03333
2.04624
2.05636
2.05471
2.04718
2.04018
2.03527
2.03151
2.0319
2.03479
2.02743
2.02127
2.0367
2.08726
2.23309
2.48764
2.82728
3.22046
3.5501
3.82519
3.90831
4.00082
4.05702
4.08748
4.10458
4.10925
4.10373
4.07485
4.03285
3.99969
3.97363
3.95527
3.943
3.9267
3.90533
3.88721
3.87884
3.87697
3.87856
3.88652
3.90712
3.93824
3.98296
4.03617
4.06598
4.06906
4.06296
4.05445
4.04791
4.04374
4.03823
4.02935
4.01492
3.98986
3.95408
3.9223
3.90494
3.89844
3.8926
3.8833
3.86922
3.84837
3.81594
1.07282
1.06987
1.06756
1.06513
1.06159
1.05718
1.05233
1.04646
1.03982
1.03478
1.03169
1.02961
1.02774
1.02581
1.024
1.02247
1.02109
1.02014
1.02083
1.02493
1.02885
1.03025
1.03011
1.02911
1.02773
1.02602
1.02382
1.02053
1.01611
1.00978
1.00281
0.994571
0.989542
0.983315
0.998112
1.08228
1.32462
1.6886
2.07539
2.21124
2.21509
2.22818
2.23424
2.23198
2.22005
2.20148
2.18263
2.17351
2.16723
2.16407
2.16658
2.17095
2.17249
2.16936
2.16647
2.16979
2.17879
2.18761
2.19137
2.18668
2.17368
2.1591
2.14921
2.15249
2.16727
2.17425
2.1639
2.14794
2.13139
2.1162
2.10207
2.08976
2.07832
2.06509
2.05131
2.03918
2.03088
2.02804
2.02916
2.02893
2.02424
2.01819
2.01507
2.01961
2.03526
2.0544
2.06003
2.05244
2.04279
2.03654
2.03384
2.03642
2.02823
2.03325
2.07992
2.21127
2.48177
2.79139
3.16377
3.47179
3.76837
3.89465
3.99231
4.0499
4.06303
4.08561
4.11371
4.12814
4.11826
4.10229
4.07853
4.04076
4.00211
3.98158
3.97078
3.95845
3.94115
3.92315
3.91448
3.91188
3.90879
3.90984
3.91992
3.93063
3.93581
3.93909
3.95066
3.98381
4.03754
4.07435
4.07601
4.07108
4.06783
4.06382
4.05667
4.04564
4.02995
4.00653
3.9755
3.94453
3.92069
3.90519
3.89118
3.87469
3.85587
3.83513
3.80739
1.0736
1.07149
1.06829
1.06435
1.06094
1.05769
1.05365
1.04846
1.04115
1.03439
1.03179
1.03013
1.02843
1.02649
1.024
1.0213
1.01948
1.0182
1.01869
1.02553
1.03312
1.03338
1.032
1.03031
1.02849
1.02631
1.02362
1.02024
1.01662
1.01234
1.0066
0.998928
0.989814
0.981829
0.971464
0.969668
1.00386
1.16246
1.51196
1.84689
2.11052
2.23069
2.23912
2.22765
2.20846
2.18426
2.16736
2.159
2.15734
2.1616
2.165
2.16437
2.15901
2.15177
2.15208
2.16358
2.17624
2.18221
2.17944
2.16917
2.15711
2.14893
2.14813
2.15498
2.16727
2.17297
2.16382
2.14875
2.13144
2.11427
2.09888
2.08459
2.06964
2.05386
2.03932
2.02888
2.02705
2.02978
2.0295
2.02313
2.01399
2.00743
2.00713
2.01715
2.03888
2.05802
2.05953
2.05048
2.046
2.04577
2.0409
2.06161
2.14095
2.36277
2.68269
3.07157
3.4255
3.70531
3.90525
4.00357
4.08324
4.09606
4.10595
4.11951
4.12418
4.12091
4.10852
4.08963
4.07009
4.04843
4.02689
3.99813
3.97528
3.96964
3.96593
3.95805
3.95198
3.94957
3.94797
3.95142
3.95423
3.95695
3.95875
3.95564
3.94748
3.93652
3.93494
3.94967
3.99874
4.06556
4.08982
4.08786
4.08406
4.07889
4.07087
4.06014
4.045
4.02345
3.9964
3.97015
3.94925
3.92729
3.90318
3.87687
3.85023
3.82622
3.8029
1.07396
1.07034
1.06634
1.06247
1.06025
1.05854
1.05641
1.05206
1.0444
1.03667
1.03247
1.03008
1.02781
1.02529
1.0225
1.02014
1.01851
1.01752
1.01853
1.02689
1.03486
1.03411
1.03206
1.03023
1.02833
1.02623
1.024
1.02153
1.01855
1.0144
1.00806
0.999882
0.990721
0.981615
0.972119
0.965178
0.958839
0.971686
1.05095
1.28721
1.66451
1.96163
2.13798
2.20971
2.21188
2.1937
2.17911
2.17275
2.16704
2.1599
2.15174
2.14531
2.14046
2.14002
2.14934
2.16032
2.1632
2.16018
2.15632
2.15404
2.15426
2.15536
2.15633
2.15985
2.16866
2.17393
2.16474
2.14912
2.13124
2.11022
2.09024
2.07369
2.05783
2.04262
2.03056
2.0272
2.02946
2.02873
2.02222
2.01292
2.00581
2.00411
2.00893
2.01903
2.03838
2.05598
2.06666
2.05489
2.06128
2.11435
2.26805
2.56058
2.90228
3.29435
3.56662
3.80769
3.92561
4.04483
4.11518
4.14452
4.17922
4.185
4.17081
4.14832
4.11864
4.0944
4.07513
4.05831
4.03741
4.00751
3.97981
3.96642
3.96556
3.96593
3.96415
3.96483
3.97142
3.97702
3.97998
3.98521
3.99333
3.99542
3.98664
3.96894
3.94693
3.93718
3.93679
3.94835
3.98354
4.04282
4.08739
4.09525
4.09234
4.08657
4.07656
4.06232
4.04487
4.02573
4.00803
3.99246
3.97433
3.95049
3.92259
3.89063
3.85749
3.82982
3.80954
1.07132
1.06748
1.06483
1.06298
1.06127
1.05916
1.05632
1.05239
1.04589
1.03714
1.03148
1.02854
1.02607
1.02378
1.02183
1.02019
1.01899
1.01864
1.02034
1.02501
1.0319
1.03405
1.03218
1.03053
1.02899
1.02734
1.02556
1.02326
1.01986
1.01493
1.00838
1.00074
0.992419
0.983591
0.97539
0.968045
0.959114
0.949327
0.951761
0.986234
1.12262
1.44019
1.82366
2.04837
2.10023
2.13478
2.16369
2.17403
2.16908
2.15691
2.14448
2.14009
2.13787
2.13817
2.14207
2.14259
2.14109
2.14345
2.15074
2.15895
2.16309
2.16224
2.16026
2.16269
2.17234
2.17558
2.16347
2.14732
2.12644
2.09932
2.07806
2.0628
2.04809
2.03529
2.02927
2.02934
2.02778
2.02065
2.01144
2.00505
2.00594
2.00849
2.01398
2.02756
2.05593
2.06212
2.08638
2.18349
2.44504
2.76686
3.17877
3.48541
3.72672
3.85981
3.94397
4.03701
4.08666
4.15686
4.21175
4.22745
4.21971
4.19388
4.16171
4.13526
4.11801
4.10391
4.08256
4.04743
4.0041
3.96968
3.95522
3.95599
3.96443
3.96957
3.96892
3.97149
3.98332
4.00225
4.01765
4.02448
4.02022
4.00814
3.98955
3.96664
3.95488
3.95181
3.95537
3.96644
3.98525
4.01874
4.06481
4.09409
4.09954
4.09502
4.08624
4.07298
4.05589
4.03526
4.01097
3.98583
3.96255
3.93986
3.91574
3.88882
3.86476
3.84542
3.82813
1.07083
1.0681
1.06642
1.06488
1.06302
1.0607
1.05817
1.0539
1.0462
1.03672
1.0301
1.02725
1.02546
1.02383
1.02236
1.02118
1.0206
1.02049
1.0205
1.02143
1.02598
1.03284
1.03344
1.03173
1.03033
1.02879
1.02696
1.02452
1.0209
1.01569
1.00906
1.00193
0.995267
0.988755
0.979795
0.967411
0.956527
0.947925
0.94402
0.941573
0.950765
1.02384
1.22839
1.57115
1.89413
2.11278
2.14353
2.14436
2.1452
2.13488
2.13004
2.13371
2.13379
2.12953
2.12538
2.12268
2.12737
2.14306
2.15877
2.16609
2.16544
2.15939
2.15616
2.16354
2.17492
2.17067
2.15665
2.14058
2.11849
2.08946
2.0686
2.05543
2.04298
2.03333
2.02893
2.0248
2.01786
2.00953
2.00701
2.00818
2.01191
2.01985
2.03902
2.05028
2.09603
2.2596
2.55826
2.95727
3.36391
3.62391
3.83342
3.90309
4.00618
4.04147
4.08743
4.11558
4.11951
4.13944
4.17161
4.1927
4.18907
4.18775
4.18686
4.17813
4.1558
4.11804
4.065
4.00678
3.96869
3.95506
3.95037
3.95771
3.97421
3.98725
3.9927
3.99787
4.00633
4.0202
4.0367
4.04435
4.03386
4.01762
3.99884
3.98327
3.97806
3.97842
3.98049
3.9798
3.97962
3.98691
4.01359
4.05382
4.08493
4.10063
4.10082
4.09678
4.09051
4.07537
4.04331
3.99245
3.94088
3.90732
3.89043
3.88199
3.8764
3.87195
3.85708
1.07279
1.07159
1.07016
1.06861
1.06684
1.06427
1.05916
1.05179
1.04417
1.03715
1.03106
1.02739
1.02566
1.02435
1.02316
1.02217
1.0214
1.02087
1.0205
1.02029
1.02199
1.0287
1.03438
1.0334
1.03161
1.0299
1.02799
1.0255
1.02197
1.01694
1.01076
1.00469
0.998688
0.990338
0.977919
0.963914
0.954072
0.94832
0.943513
0.937323
0.931787
0.934247
0.958766
1.09169
1.37962
1.75821
1.98895
2.1324
2.14868
2.13596
2.13815
2.13907
2.13047
2.11971
2.11385
2.11085
2.12006
2.143
2.15823
2.16188
2.15818
2.15172
2.153
2.16471
2.17071
2.16084
2.14663
2.13102
2.11189
2.08664
2.0636
2.05066
2.03963
2.03001
2.02211
2.01415
2.01051
2.01039
2.01359
2.02288
2.03159
2.04104
2.10402
2.31005
2.64989
3.13123
3.46317
3.73696
3.854
3.96268
4.03203
4.06253
4.09741
4.08744
4.08111
4.06956
4.06763
4.0981
4.1536
4.19656
4.21579
4.22455
4.22048
4.19912
4.14994
4.07947
4.0142
3.97631
3.96481
3.96253
3.96717
3.98071
3.99717
4.00828
4.01143
4.01234
4.0145
4.01921
4.02782
4.03806
4.04205
4.03874
4.0344
4.02956
4.02298
4.01211
3.9948
3.97291
3.96042
3.95662
3.9676
4.0163
4.07884
4.11066
4.11805
4.12068
4.11976
4.10634
4.0616
3.97763
3.90887
3.88515
3.87759
3.87654
3.88732
3.8983
3.88513
1.06957
1.06826
1.06707
1.06559
1.06394
1.06147
1.05609
1.04849
1.04268
1.03816
1.03368
1.02919
1.02632
1.025
1.02386
1.02284
1.02199
1.0213
1.02074
1.02025
1.02028
1.02368
1.03166
1.03426
1.03232
1.03054
1.02862
1.02623
1.02303
1.01883
1.01413
1.00883
1.00185
0.991532
0.977462
0.963118
0.95389
0.947737
0.941276
0.933424
0.928948
0.928048
0.927826
0.938853
1.00059
1.21945
1.55851
1.90682
2.00654
2.08001
2.13569
2.13827
2.12724
2.12055
2.11618
2.11492
2.12271
2.13506
2.14148
2.14587
2.15015
2.15382
2.1581
2.16133
2.15932
2.15061
2.14076
2.12996
2.11514
2.09078
2.06149
2.04509
2.03463
2.02358
2.01497
2.01069
2.01179
2.02354
2.03124
2.04536
2.12383
2.33391
2.76144
3.20957
3.58082
3.81485
3.89287
4.01249
4.0234
4.05325
4.03615
4.03758
4.06359
4.05972
4.06104
4.07319
4.09878
4.13919
4.18567
4.21368
4.22126
4.21754
4.20318
4.17108
4.11182
4.03842
3.99596
3.98456
3.98131
3.9837
3.98937
3.99962
4.01011
4.01744
4.02064
4.02041
4.01882
4.01813
4.02172
4.03382
4.0526
4.06471
4.0633
4.05753
4.04715
4.02529
3.99071
3.95838
3.94281
3.93813
3.95053
4.01013
4.09307
4.12801
4.13477
4.13795
4.1346
4.11517
4.05223
3.94998
3.89429
3.88432
3.8808
3.88637
3.90461
3.9227
3.90807
1.06911
1.06788
1.06675
1.06539
1.06311
1.05819
1.05184
1.04695
1.04319
1.04008
1.03667
1.03219
1.0279
1.02589
1.02474
1.02367
1.02266
1.02171
1.0209
1.02032
1.02003
1.02077
1.02526
1.03238
1.03321
1.03135
1.0292
1.02686
1.02432
1.02165
1.01823
1.01295
1.0046
0.992635
0.978468
0.96474
0.952154
0.943163
0.936829
0.931602
0.928995
0.927934
0.926844
0.927071
0.929138
0.959045
1.07437
1.36569
1.70545
2.01124
2.08699
2.08322
2.09721
2.1045
2.10474
2.11198
2.11887
2.11914
2.12081
2.13213
2.14863
2.15703
2.15843
2.15562
2.15379
2.1522
2.14691
2.1389
2.12566
2.09858
2.06157
2.04073
2.03171
2.0227
2.0146
2.01532
2.02132
2.04483
2.13158
2.37414
2.81602
3.29083
3.71832
3.83442
3.96654
4.0074
4.02121
4.02432
3.98863
3.98873
3.9835
4.0149
4.06922
4.09132
4.10117
4.11343
4.13684
4.16783
4.18956
4.19656
4.19694
4.19037
4.17318
4.14109
4.08957
4.03312
4.00847
4.00163
3.99941
3.99773
3.99906
4.00611
4.01644
4.02372
4.02732
4.02834
4.02805
4.02671
4.02749
4.03708
4.05466
4.06851
4.06721
4.05922
4.04206
4.01256
3.97707
3.95667
3.95005
3.95284
3.97683
4.02861
4.09518
4.12835
4.12893
4.12459
4.11378
4.08642
4.0294
3.95175
3.90627
3.89638
3.89289
3.895
3.90286
3.91504
3.90732
1.06902
1.06835
1.06695
1.06444
1.05971
1.05304
1.04848
1.04654
1.0451
1.04325
1.0403
1.03556
1.02983
1.02679
1.0255
1.02432
1.02317
1.02219
1.02153
1.02102
1.02046
1.02
1.02076
1.02679
1.03331
1.03242
1.03039
1.0284
1.02626
1.02381
1.02074
1.01599
1.0078
0.995775
0.981238
0.96395
0.946731
0.936369
0.933183
0.932008
0.930978
0.929863
0.928848
0.926739
0.925598
0.926339
0.935371
1.00091
1.19793
1.56147
1.82444
2.02046
2.106
2.10573
2.10635
2.11303
2.10995
2.10542
2.10666
2.12059
2.14023
2.15002
2.15245
2.15397
2.15765
2.15777
2.1521
2.14447
2.13138
2.10094
2.05765
2.03413
2.02564
2.02027
2.01362
2.02766
2.11206
2.38373
2.828
3.36516
3.70663
3.91832
4.01831
4.03502
4.0429
4.01249
3.98749
3.95218
3.93807
3.9619
4.01245
4.05896
4.09112
4.10827
4.11772
4.13274
4.16025
4.18238
4.18692
4.18377
4.17813
4.16514
4.14331
4.11633
4.08474
4.0476
4.02252
4.01442
4.00818
4.00305
4.00487
4.01705
4.03092
4.03605
4.03701
4.03488
4.0321
4.02893
4.03024
4.03653
4.04351
4.04408
4.04017
4.03246
4.0216
4.01115
4.00428
4.00365
4.01097
4.02374
4.04059
4.06049
4.08435
4.1027
4.10123
4.09222
4.07896
4.06019
4.03157
3.98296
3.92976
3.90843
3.8999
3.8911
3.88344
3.88501
3.89358
1.07141
1.06795
1.06406
1.05923
1.05416
1.05062
1.04857
1.04693
1.04522
1.04338
1.04117
1.03818
1.03386
1.02859
1.0261
1.0249
1.02372
1.02248
1.02121
1.02005
1.01924
1.01865
1.0184
1.02088
1.02852
1.03341
1.03274
1.03127
1.0295
1.02693
1.02321
1.01813
1.01115
1.00071
0.983349
0.959402
0.941018
0.933952
0.931502
0.929971
0.928793
0.9279
0.927174
0.925881
0.92461
0.923793
0.923442
0.926711
0.952676
1.06963
1.33841
1.70081
1.91027
2.02194
2.10546
2.11513
2.10411
2.10538
2.11152
2.12493
2.136
2.1403
2.14448
2.15315
2.16034
2.15839
2.15245
2.14434
2.12824
2.09271
2.04473
2.02543
2.01874
2.02645
2.09758
2.34401
2.81301
3.3825
3.71756
3.95814
4.01677
4.07085
4.06196
4.04706
4.01356
3.95516
3.93711
3.93803
3.96484
4.01815
4.05473
4.06209
4.06843
4.08686
4.11979
4.16132
4.18939
4.19353
4.18543
4.1742
4.15957
4.14171
4.12585
4.11375
4.09755
4.06764
4.03687
4.02366
4.01668
4.01475
4.02291
4.03942
4.04666
4.04447
4.03755
4.02696
4.01971
4.01551
4.01699
4.01994
4.01484
4.00801
4.00622
4.01197
4.02759
4.04759
4.06025
4.06631
4.07081
4.07289
4.06837
4.05959
4.05538
4.06497
4.07303
4.07437
4.06949
4.06093
4.04372
3.9994
3.93561
3.89711
3.87911
3.86462
3.85343
3.85982
3.89146
1.06829
1.06376
1.05861
1.05438
1.05193
1.05041
1.04887
1.04718
1.04571
1.04439
1.04303
1.04104
1.03708
1.03058
1.02662
1.02519
1.02393
1.0227
1.02119
1.01957
1.01823
1.01703
1.01606
1.01653
1.02295
1.03281
1.03535
1.03414
1.03235
1.02995
1.02655
1.02214
1.01593
1.00436
0.980401
0.951083
0.937109
0.933006
0.931265
0.929964
0.928794
0.928021
0.927535
0.926298
0.924914
0.923772
0.922622
0.923229
0.923894
0.932122
0.990007
1.17381
1.50045
1.84528
2.03695
2.03921
2.06051
2.0848
2.10326
2.11989
2.12616
2.12837
2.13652
2.15421
2.16019
2.15594
2.14974
2.14026
2.12089
2.08968
2.04712
2.03934
2.08836
2.30746
2.78376
3.30224
3.7779
3.98496
4.03454
4.08839
4.08322
4.07116
4.02354
3.97762
3.94893
3.94133
3.95337
3.98041
4.02057
4.04444
4.04
4.03231
4.03992
4.07598
4.13561
4.18195
4.19484
4.19159
4.17997
4.16501
4.15278
4.14431
4.13672
4.12775
4.10922
4.07166
4.041
4.03442
4.03328
4.03934
4.05256
4.05701
4.05209
4.03921
4.01778
4.00222
3.9962
3.99399
3.99478
3.99511
3.99428
3.99565
4.00155
4.01666
4.0428
4.07264
4.09332
4.09908
4.09381
4.08439
4.0733
4.06496
4.0718
4.08936
4.09158
4.08277
4.07115
4.05487
4.02655
3.97431
3.90977
3.87338
3.85832
3.84858
3.84669
3.86466
3.90062
1.06169
1.05774
1.05522
1.05346
1.05201
1.0509
1.04989
1.04865
1.04738
1.046
1.04437
1.04226
1.03901
1.03413
1.0289
1.02587
1.02405
1.02229
1.02042
1.01874
1.01734
1.01597
1.01482
1.01496
1.02018
1.03115
1.03705
1.03615
1.03445
1.03261
1.03032
1.02696
1.02042
1.0049
0.973863
0.943565
0.934883
0.933841
0.93297
0.931854
0.930831
0.930277
0.930069
0.928886
0.92746
0.926244
0.924993
0.923242
0.921699
0.92132
0.923744
0.945907
1.06469
1.33259
1.65558
1.89562
2.06562
2.08697
2.09782
2.10818
2.11005
2.11158
2.12167
2.14148
2.15403
2.15177
2.14656
2.1376
2.12265
2.09696
2.12482
2.29661
2.68733
3.29217
3.70185
3.9328
4.06176
4.06955
4.07323
4.06704
4.04195
4.00866
3.96399
3.94868
3.95063
3.96301
3.98475
4.01566
4.03088
4.02424
4.01479
4.01533
4.03726
4.09036
4.14702
4.17436
4.18086
4.17936
4.17218
4.16683
4.16304
4.15698
4.14663
4.12923
4.10144
4.06795
4.05463
4.05523
4.05931
4.06722
4.06844
4.06126
4.04256
4.01224
3.98836
3.98082
3.97906
3.98054
3.98302
3.98589
3.99101
3.99892
4.00954
4.02427
4.04438
4.06572
4.08423
4.09798
4.10066
4.09497
4.09005
4.09646
4.11272
4.11138
4.09878
4.08022
4.05406
4.02242
3.98581
3.94144
3.89693
3.87469
3.86662
3.8643
3.86932
3.88143
3.89085
1.05685
1.05521
1.05439
1.05415
1.05412
1.05424
1.05413
1.05299
1.05141
1.04959
1.04746
1.04489
1.04125
1.03599
1.03116
1.02769
1.02477
1.02199
1.01964
1.01817
1.01702
1.01596
1.01517
1.01536
1.019
1.0271
1.03639
1.0382
1.03701
1.03583
1.03426
1.03126
1.02395
1.00334
0.965642
0.940907
0.935263
0.932638
0.930775
0.929511
0.928416
0.927686
0.927627
0.926851
0.925362
0.924116
0.923047
0.92206
0.920893
0.919764
0.91967
0.919134
0.927563
0.977769
1.16031
1.47424
1.81249
1.96003
2.07289
2.11681
2.10938
2.1114
2.12497
2.13449
2.14058
2.14824
2.1475
2.14667
2.18457
2.34228
2.69807
3.24912
3.6734
4.00703
4.07412
4.08518
4.0856
4.05615
4.02848
3.99347
3.97071
3.95512
3.95073
3.95771
3.97698
4.004
4.02338
4.0264
4.01607
4.0064
4.00599
4.01834
4.05137
4.09621
4.12897
4.14311
4.15158
4.16338
4.18206
4.18988
4.18458
4.17683
4.16536
4.14405
4.11284
4.08857
4.07743
4.07445
4.07474
4.07167
4.06132
4.03964
4.01007
3.98692
3.97704
3.97509
3.97634
3.97836
3.98032
3.98407
3.99055
3.99909
4.00871
4.01913
4.02976
4.03962
4.05186
4.07037
4.09231
4.1099
4.12443
4.13678
4.13179
4.11766
4.09984
4.07677
4.0458
4.01016
3.97621
3.94292
3.91059
3.89251
3.88537
3.88268
3.88115
3.87324
3.86013
1.0549
1.05319
1.05183
1.05077
1.05059
1.05158
1.05212
1.05122
1.04974
1.04809
1.04639
1.04451
1.04206
1.03823
1.03209
1.02674
1.02365
1.02109
1.01927
1.01796
1.0168
1.0158
1.01509
1.01493
1.01727
1.02494
1.0355
1.04009
1.03991
1.03909
1.03763
1.0347
1.02604
1.00039
0.959377
0.938492
0.93438
0.932082
0.930532
0.929312
0.928209
0.927409
0.927234
0.926821
0.925334
0.924015
0.922941
0.922061
0.921237
0.920103
0.918959
0.918234
0.915868
0.915922
0.938657
1.03836
1.30687
1.65223
1.9343
2.00772
2.04196
2.09273
2.11184
2.11427
2.13029
2.1513
2.20499
2.37802
2.73507
3.22583
3.73796
4.02801
4.07815
4.07338
4.07323
4.06327
4.0382
4.0071
3.98043
3.94983
3.9439
3.9483
3.96037
3.98514
4.01815
4.03763
4.03834
4.02618
4.00916
4.00563
4.01069
4.03081
4.06093
4.08616
4.09871
4.10693
4.11844
4.14007
4.17648
4.20468
4.20934
4.20729
4.19492
4.16847
4.13552
4.10627
4.08701
4.07568
4.06565
4.05082
4.02896
4.00748
3.99755
3.99429
3.99141
3.98847
3.98684
3.9848
3.98418
3.98615
3.98999
3.99368
3.99773
4.00239
4.00667
4.01132
4.0201
4.03864
4.06899
4.10483
4.13681
4.15628
4.16007
4.15217
4.13513
4.10797
4.07383
4.0367
4.00054
3.96501
3.92897
3.90797
3.89793
3.88844
3.87566
3.85685
3.83814
1.05426
1.05271
1.05139
1.05041
1.05026
1.05161
1.05244
1.05153
1.05016
1.04877
1.04735
1.04578
1.0435
1.03911
1.03219
1.02684