/*--------------------------------*- C++ -*----------------------------------*\
  =========                 |
  \\      /  F ield         | OpenFOAM: The Open Source CFD Toolbox
   \\    /   O peration     | Website:  https://openfoam.org
    \\  /    A nd           | Version:  7
     \\/     M anipulation  |
\*---------------------------------------------------------------------------*/
FoamFile
{
    version     2.0;
    format      ascii;
    class       volScalarField;
    location    "6";
    object      p;
}
// * * * * * * * * * * * * * * * * * * * * * * * * * * * * * * * * * * * * * //

dimensions      [0 2 -2 0 0 0 0];

internalField   nonuniform List<scalar> 
433
(
-152.65
-129.359
-212.22
-178.926
-146.856
-117.342
-91.4428
-69.688
-52.0913
-38.2903
-27.7214
-19.8242
-14.0811
-10.0191
-7.22547
-5.3538
-4.12728
-3.3332
-2.82206
-2.48992
-2.267
-2.108
-1.9848
-1.88062
-1.78597
-1.6958
-1.60771
-1.52068
-1.43445
-1.34918
-1.26264
-1.17679
-1.09159
1.44794
1.81208
4.31203
6.75652
7.88714
7.55285
6.30169
4.69172
3.08439
1.68605
0.564708
-0.285659
-0.895601
-1.30451
-1.55495
-1.6949
-1.75864
-1.77121
-1.75078
-1.70993
-1.65689
-1.59678
-1.53264
-1.46628
-1.39876
-1.33073
-1.26256
-1.19468
-1.12479
-1.05486
-0.985721
201.574
170.6
143.177
117.678
93.7185
72.0449
53.4559
38.3191
26.574
17.7655
11.3565
6.83801
3.75788
1.7157
0.40274
-0.408211
-0.884808
-1.14665
-1.27536
-1.32444
-1.32754
-1.30503
-1.26871
-1.22518
-1.17797
-1.12893
-1.07893
-1.02855
-0.975509
-0.92171
-0.868911
98.2503
80.4747
64.0187
49.0552
36.1865
25.8244
17.9089
12.0182
7.7469
4.72705
2.64289
1.23745
0.312984
-0.275672
-0.63726
-0.849445
-0.965808
-1.02229
-1.0423
-1.04058
-1.02614
-1.00431
-0.97814
-0.949333
-0.918812
-0.887007
-0.854295
-0.818274
-0.780788
-0.744459
-109.735
-91.332
-74.6329
-59.8132
-46.8815
-35.8746
-26.8071
-19.5493
-13.9302
-9.72608
-6.68844
-4.56624
-3.12457
-2.1796
-1.58333
-1.22079
-1.00802
-0.88697
-0.819466
-0.781571
-0.758967
-0.743492
-0.730728
-0.718435
-0.705528
-0.691454
-0.676146
-0.657014
-0.635768
-0.615802
-152.658
-121.717
-94.3842
-71.311
-52.6078
-37.9484
-26.7521
-18.4316
-12.4216
-8.21788
-5.34781
-3.4428
-2.21904
-1.45944
-1.00508
-0.744359
-0.602098
-0.529575
-0.496389
-0.484265
-0.482617
-0.485544
-0.489889
-0.493993
-0.496925
-0.498389
-0.495678
-0.490325
-0.486371
-1.52862
1.96495
3.72061
4.12686
3.77757
3.08202
2.32525
1.64654
1.10546
0.700409
0.408938
0.207995
0.0740576
-0.013694
-0.0720802
-0.113202
-0.144977
-0.172108
-0.19708
-0.220976
-0.244086
-0.266315
-0.287366
-0.306811
-0.324483
-0.33771
-0.347835
-0.359411
119.858
95.6244
73.8625
55.2397
40.0911
28.3366
19.5326
13.1483
8.66931
5.59041
3.53514
2.20411
1.36493
0.849366
0.536006
0.344805
0.224507
0.14359
0.0836418
0.0345025
-0.00904956
-0.0494428
-0.0875685
-0.123483
-0.15719
-0.186115
-0.211412
-0.238004
52.6251
39.1919
28.5142
20.4184
14.4103
10.0461
6.94559
4.7792
3.29557
2.29885
1.63918
1.2043
0.918695
0.726547
0.591682
0.49087
0.409635
0.339408
0.27541
0.215195
0.15768
0.102591
0.0501442
0.000427036
-0.0440542
-0.0842405
-0.12526
-47.036
-35.1139
-25.3595
-17.6623
-11.8108
-7.52839
-4.50756
-2.43542
-1.07212
-0.215248
0.283162
0.549592
0.669436
0.700158
0.679222
0.629834
0.565789
0.495015
0.421965
0.349125
0.277979
0.209569
0.144319
0.0847493
0.0301998
-34.4799
-23.5477
-15.5241
-9.81619
-5.8475
-3.16611
-1.41774
-0.3207
0.327649
0.683707
0.854198
0.91034
0.898496
0.847806
0.776025
0.693696
0.606979
0.519453
0.433298
6.51441
5.09252
3.99084
3.16543
2.56877
2.15294
1.86693
1.6661
1.51649
1.39558
1.28773
1.18443
1.08162
0.977955
20.4605
14.2734
9.90835
6.91548
4.92033
3.62032
2.78491
2.24304
1.88827
1.64049
7.17329
5.58261
4.43632
3.61528
3.02509
0.00141677
-0.0269444
-0.072656
0.0204999
-0.00583154
-0.0482353
-0.108455
-0.181782
-0.264385
-0.343515
-0.400978
-0.404371
-0.25627
0.0397545
0.0155583
-0.0240759
-0.0793525
-0.14877
-0.229824
-0.313143
-0.385098
-0.418965
-0.325927
0.0591661
0.0372071
0.00118547
-0.0497154
-0.115075
-0.194485
-0.282039
-0.369173
-0.435524
-0.401788
0.0787194
0.0590891
0.0269011
-0.0196033
-0.0807213
-0.158332
-0.24999
-0.352604
-0.452729
-0.481223
0.0983977
0.0811762
0.0529006
0.0107525
-0.045727
-0.121326
-0.216776
-0.334766
-0.469189
-0.561565
0.118184
0.103441
0.0791613
0.0417271
-0.0101794
-0.0834349
-0.182079
-0.315014
-0.483459
-0.640089
0.138059
0.125854
0.105654
0.0732011
0.0255929
-0.0447412
-0.145722
-0.292752
-0.494084
-0.714027
0.158004
0.148387
0.132341
0.104987
0.0624616
-0.00493717
-0.110672
-0.267723
-0.499734
-0.780689
0.178001
0.171009
0.159185
0.13704
0.0998293
0.0360077
-0.0703661
-0.238355
-0.498594
-0.837383
)
;

boundaryField
{
    inlet
    {
        type            zeroGradient;
    }
    outlet
    {
        type            fixedValue;
        value           nonuniform 0();
    }
    cylinder
    {
        type            zeroGradient;
    }
    top
    {
        type            symmetryPlane;
    }
    bottom
    {
        type            symmetryPlane;
    }
    defaultFaces
    {
        type            empty;
    }
    procBoundary12to6
    {
        type            processor;
        value           nonuniform List<scalar> 
35
(
-0.0244366
0.349988
0.270184
0.196404
-0.0244366
0.128343
0.873547
0.769236
0.666098
0.349988
0.56526
1.45289
1.29789
0.873547
1.15992
2.59405
2.26951
2.01487
1.45289
1.80459
-0.6828
0.613282
2.59405
1.35877
-0.0174808
-0.0477665
-0.0966716
-0.136989
-0.136989
-0.214081
-0.298198
-0.37336
-0.417387
-0.392972
-0.195402
)
;
    }
    procBoundary12to13
    {
        type            processor;
        value           nonuniform List<scalar> 
26
(
-245.617
5.44392
238.017
118.013
118.013
-129.373
-186.051
-186.051
-6.33973
-6.33973
146.155
68.5094
68.5094
-61.0389
-61.0389
-67.5411
-48.9512
-48.9512
8.15959
8.15959
29.0433
29.0433
9.35818
9.35818
-5.98071
-2.77529
)
;
    }
    procBoundary12to18
    {
        type            processor;
        value           nonuniform List<scalar> 
42
(
89.5436
73.8263
-107.59
-107.59
-87.8821
-70.4851
-55.4526
-42.7971
-32.4591
-24.237
-17.8842
-13.1201
-9.65054
-7.19572
-5.50582
-4.37
-3.61956
-3.12745
-2.79706
-2.56596
-2.39355
-2.25392
-2.13165
-2.0181
-1.90877
-1.80161
-1.69589
-1.59151
-1.48879
-1.38566
-1.28412
-1.18324
0.198029
0.193691
0.186138
0.169324
0.137649
0.0779543
-0.0281153
-0.204765
-0.489489
-0.881233
)
;
    }
    procBoundary12to19
    {
        type            processor;
        value           uniform -176.953;
    }
}


// ************************************************************************* //
