0.166074 	0.477336 	1.91965e-18 	1.06471 	-0.0243365 	-3.78727e-16
0.167813 	0.482335 	9.63337e-19 	1.03489 	-0.0235223 	1.9097e-15
0.169552 	0.487333 	3.86307e-19 	0.93187 	-0.019924 	-8.64541e-16
0.171291 	0.492331 	2.13776e-19 	0.680592 	-0.0113715 	-5.0905e-16
0.17303 	0.49733 	-1.07188e-18 	0.240628 	-0.00143879 	-2.95699e-16
