/*--------------------------------*- C++ -*----------------------------------*\
  =========                 |
  \\      /  F ield         | OpenFOAM: The Open Source CFD Toolbox
   \\    /   O peration     | Website:  https://openfoam.org
    \\  /    A nd           | Version:  7
     \\/     M anipulation  |
\*---------------------------------------------------------------------------*/
FoamFile
{
    version     2.0;
    format      ascii;
    class       volVectorField;
    location    "66.999856";
    object      U;
}
// * * * * * * * * * * * * * * * * * * * * * * * * * * * * * * * * * * * * * //

dimensions      [0 1 -1 0 0 0 0];

internalField   nonuniform List<vector> 
5800
(
(0.0154665 -0.00324939 -4.19481e-22)
(0.0215666 -0.009702 -1.28844e-20)
(0.0337421 -0.0160143 1.91013e-20)
(0.0519411 -0.0220874 6.14034e-21)
(0.0760818 -0.0278153 -1.62619e-20)
(0.0227657 -0.00289859 2.39004e-21)
(0.0274629 -0.00272639 2.19416e-21)
(0.0320011 -0.00262378 -4.0861e-21)
(0.0365129 -0.0025606 1.93371e-21)
(0.041039 -0.00252514 -1.11825e-21)
(0.045617 -0.00251188 -3.79861e-22)
(0.0502847 -0.00251579 2.17168e-21)
(0.0550728 -0.00253262 -3.12997e-21)
(0.060006 -0.00255915 1.36551e-21)
(0.0651049 -0.00259283 1.24643e-21)
(0.0703866 -0.00263155 -2.55685e-21)
(0.0758652 -0.00267357 -3.39249e-23)
(0.081552 -0.0027174 2.04653e-21)
(0.0874561 -0.00276175 -1.60952e-22)
(0.093584 -0.00280552 -8.30202e-22)
(0.0999403 -0.00284776 7.24725e-22)
(0.106527 -0.00288767 -3.39928e-22)
(0.113346 -0.00292457 4.53748e-22)
(0.120396 -0.00295789 -3.33721e-22)
(0.127674 -0.00298719 -2.19176e-22)
(0.135176 -0.00301212 9.30101e-22)
(0.142897 -0.00303244 -2.79472e-22)
(0.150831 -0.00304796 -6.02037e-22)
(0.158972 -0.00305861 3.91556e-22)
(0.16731 -0.00306434 1.21602e-22)
(0.175837 -0.00306519 -4.63339e-22)
(0.184544 -0.00306123 5.26174e-22)
(0.193421 -0.00305257 -4.246e-22)
(0.202457 -0.00303937 -2.85085e-22)
(0.211643 -0.00302179 8.1902e-22)
(0.220967 -0.00300004 -5.60314e-22)
(0.230419 -0.00297432 -9.05327e-23)
(0.239987 -0.00294487 1.13259e-22)
(0.249661 -0.00291192 6.31363e-24)
(0.259428 -0.00287571 2.70603e-22)
(0.269279 -0.00283648 -3.47864e-22)
(0.279202 -0.00279449 2.88236e-22)
(0.289187 -0.00274996 -3.16449e-24)
(0.299222 -0.00270316 -1.68899e-23)
(0.309298 -0.00265431 -2.95433e-23)
(0.319404 -0.00260366 1.78478e-22)
(0.32953 -0.00255142 -7.16194e-24)
(0.339667 -0.00249782 -7.04936e-23)
(0.349805 -0.00244307 -3.11213e-23)
(0.359936 -0.00238738 1.72507e-23)
(0.370051 -0.00233094 -8.84427e-23)
(0.380142 -0.00227393 1.09256e-22)
(0.390201 -0.00221655 -2.76277e-23)
(0.40022 -0.00215894 5.60309e-23)
(0.410193 -0.00210128 -1.83565e-23)
(0.420112 -0.0020437 1.58036e-24)
(0.429972 -0.00198635 6.59658e-24)
(0.439767 -0.00192936 -2.9805e-23)
(0.449491 -0.00187285 3.273e-23)
(0.45914 -0.00181693 -2.77236e-23)
(0.46871 -0.0017617 2.42398e-24)
(0.478195 -0.00170725 1.61981e-23)
(0.487593 -0.00165367 -7.24829e-25)
(0.496899 -0.00160104 -5.94374e-24)
(0.506114 -0.00154942 -2.94655e-24)
(0.515226 -0.00149889 -1.33239e-24)
(0.524257 -0.0014494 3.22399e-24)
(0.53315 -0.00140122 -2.48342e-24)
(0.542028 -0.00135367 -1.45551e-24)
(0.550612 -0.00130846 2.83046e-25)
(0.559508 -0.00126088 -2.47666e-25)
(0.567399 -0.00122209 -5.48092e-26)
(0.577071 -0.0011638 8.85449e-25)
(0.58267 -0.00115003 3.01428e-25)
(0.596227 -0.0010373 -9.18611e-25)
(0.0289928 -0.0086511 -9.21135e-22)
(0.0335828 -0.0081434 -1.56723e-21)
(0.0380276 -0.00784149 -1.44541e-21)
(0.0424787 -0.00765483 2.33954e-22)
(0.046953 -0.00755009 -9.85786e-22)
(0.0514825 -0.00751142 8.06132e-21)
(0.0561049 -0.00752384 -5.84916e-21)
(0.0608501 -0.00757481 4.20525e-21)
(0.0657419 -0.0076547 -3.21409e-21)
(0.0708002 -0.00775593 -2.09529e-21)
(0.0760415 -0.00787222 2.11745e-21)
(0.0814795 -0.00799831 2.03643e-21)
(0.0871252 -0.00812975 -4.53288e-21)
(0.0929872 -0.00826268 1.03741e-21)
(0.0990718 -0.00839382 -1.78659e-21)
(0.105383 -0.00852032 1.86198e-21)
(0.111923 -0.00863976 -4.28987e-22)
(0.118693 -0.00875014 3.29005e-21)
(0.125692 -0.00884977 -1.37846e-21)
(0.132916 -0.00893734 4.34805e-22)
(0.140361 -0.00901181 6.79492e-22)
(0.148024 -0.00907245 -2.16054e-21)
(0.155896 -0.00911876 2.65013e-22)
(0.163972 -0.00915046 -3.16697e-22)
(0.172244 -0.00916748 9.42421e-24)
(0.180702 -0.0091699 2.39277e-22)
(0.189337 -0.00915794 9.21207e-22)
(0.19814 -0.00913196 -3.25786e-22)
(0.207101 -0.0090924 -6.80299e-22)
(0.21621 -0.00903978 1.2305e-21)
(0.225455 -0.00897468 -2.03188e-21)
(0.234826 -0.00889775 5.10957e-22)
(0.244311 -0.00880966 1.62727e-21)
(0.253901 -0.00871111 -1.07787e-21)
(0.263585 -0.00860283 -4.12508e-22)
(0.27335 -0.00848553 6.14428e-22)
(0.283187 -0.00835997 -9.95591e-22)
(0.293085 -0.00822686 1.3866e-21)
(0.303034 -0.00808693 -5.78483e-22)
(0.313022 -0.0079409 -1.57271e-22)
(0.323041 -0.00778946 1.20477e-22)
(0.333081 -0.00763329 -2.22206e-24)
(0.343131 -0.00747305 5.56573e-23)
(0.353183 -0.00730938 -2.09207e-23)
(0.363228 -0.00714288 1.25121e-22)
(0.373257 -0.00697414 -7.51842e-23)
(0.383263 -0.00680373 1.27866e-22)
(0.393238 -0.00663216 -1.77349e-22)
(0.403174 -0.00645993 -3.95265e-23)
(0.413064 -0.00628753 -5.81799e-23)
(0.422902 -0.00611539 1.61142e-22)
(0.432682 -0.00594392 -1.8503e-22)
(0.442398 -0.00577353 -4.64451e-23)
(0.452045 -0.00560455 5.15883e-23)
(0.461617 -0.00543734 -9.50202e-24)
(0.471111 -0.00527219 -1.34034e-23)
(0.480522 -0.00510938 -5.95951e-24)
(0.489847 -0.00494918 5.75816e-24)
(0.499082 -0.0047918 -2.72573e-23)
(0.508227 -0.00463744 1.93732e-23)
(0.517271 -0.00448632 2.77984e-24)
(0.526235 -0.00433834 -8.24551e-25)
(0.535062 -0.00419425 5.6673e-24)
(0.543876 -0.00405204 -3.44493e-24)
(0.552397 -0.00391687 -1.07492e-25)
(0.561231 -0.00377458 -6.93983e-26)
(0.569065 -0.00365866 -4.95717e-25)
(0.578674 -0.00348431 1.40526e-24)
(0.58423 -0.00344328 8.64322e-25)
(0.597706 -0.00310661 7.9429e-24)
(0.0414137 -0.0142684 3.74567e-23)
(0.045789 -0.0134513 4.76913e-21)
(0.0500457 -0.0129679 8.88281e-22)
(0.0543731 -0.0126666 -9.25063e-21)
(0.0587417 -0.0124978 -5.54632e-21)
(0.0631721 -0.0124372 5.1099e-21)
(0.0677021 -0.0124604 1.15243e-20)
(0.0723601 -0.0125471 -6.38217e-21)
(0.0771678 -0.0126814 -2.32633e-21)
(0.0821436 -0.0128509 1.30403e-21)
(0.0873032 -0.0130451 2.79467e-21)
(0.0926593 -0.0132555 -3.79451e-21)
(0.0982221 -0.0134745 4.11179e-21)
(0.103999 -0.0136957 -3.55569e-21)
(0.109996 -0.0139137 6.78909e-21)
(0.116217 -0.0141237 -6.45076e-21)
(0.122663 -0.0143219 1.06974e-21)
(0.129334 -0.0145048 -8.26544e-21)
(0.13623 -0.0146698 3.09542e-21)
(0.143345 -0.0148146 -2.04769e-21)
(0.150678 -0.0149377 9.93764e-22)
(0.158222 -0.0150378 7.18463e-21)
(0.165971 -0.0151141 -3.79484e-21)
(0.173919 -0.0151662 1.22679e-21)
(0.182057 -0.015194 -3.21695e-21)
(0.190376 -0.0151976 2.70996e-21)
(0.198869 -0.0151775 -3.57031e-21)
(0.207525 -0.0151342 1.52801e-21)
(0.216334 -0.0150685 -3.85576e-22)
(0.225288 -0.0149811 1.08849e-21)
(0.234374 -0.0148732 1.01702e-21)
(0.243584 -0.0147457 1.27976e-21)
(0.252906 -0.0145998 -1.11766e-21)
(0.26233 -0.0144366 2.00929e-22)
(0.271845 -0.0142573 -5.33432e-22)
(0.281441 -0.0140631 9.9407e-22)
(0.291107 -0.0138552 -5.41973e-22)
(0.300833 -0.0136349 2.3273e-22)
(0.310609 -0.0134033 -1.06136e-21)
(0.320424 -0.0131616 2.3682e-22)
(0.33027 -0.012911 3.77271e-22)
(0.340136 -0.0126525 -6.76156e-22)
(0.350014 -0.0123873 5.06155e-22)
(0.359895 -0.0121165 5.32405e-22)
(0.369769 -0.0118409 -3.52831e-22)
(0.379629 -0.0115616 -9.82802e-23)
(0.389466 -0.0112796 -2.88767e-22)
(0.399274 -0.0109956 6.45453e-23)
(0.409045 -0.0107105 8.72874e-23)
(0.418772 -0.0104251 1.775e-22)
(0.428449 -0.0101402 -1.9366e-22)
(0.43807 -0.0098563 1.2045e-22)
(0.447629 -0.0095742 7.64135e-23)
(0.457121 -0.00929445 -8.05848e-23)
(0.466541 -0.0090176 5.14621e-24)
(0.475886 -0.00874416 5.92266e-23)
(0.48515 -0.00847459 -2.15573e-23)
(0.494331 -0.00820931 1.33213e-24)
(0.503424 -0.00794872 2.98553e-23)
(0.51243 -0.0076931 -5.35084e-25)
(0.521338 -0.00744285 2.99687e-23)
(0.530169 -0.00719778 -2.14823e-23)
(0.538866 -0.00695918 -6.12974e-24)
(0.547552 -0.00672366 1.25731e-23)
(0.555949 -0.00649988 -3.46624e-24)
(0.564661 -0.00626417 8.54016e-25)
(0.57238 -0.00607245 3.6488e-25)
(0.581866 -0.00578362 -5.84235e-24)
(0.587335 -0.00571612 -2.17006e-24)
(0.600652 -0.00516008 -1.37088e-23)
(0.0599604 -0.0196556 2.3131e-23)
(0.064014 -0.0185716 -1.81783e-20)
(0.0679849 -0.0179364 -3.83451e-21)
(0.0721212 -0.0175358 1.98957e-20)
(0.076326 -0.0173123 -1.39983e-20)
(0.0806031 -0.0172363 2.39376e-21)
(0.0849903 -0.0172749 8.20591e-21)
(0.0895138 -0.0174003 -6.84107e-21)
(0.0941921 -0.0175913 -6.28654e-21)
(0.0990417 -0.0178305 1.03417e-20)
(0.104076 -0.0181037 3.15539e-21)
(0.109308 -0.0183988 -3.7997e-21)
(0.114744 -0.0187053 -3.69175e-21)
(0.120392 -0.0190145 2.71057e-22)
(0.126257 -0.0193186 7.87674e-21)
(0.13234 -0.0196111 -4.0057e-21)
(0.138643 -0.0198867 -4.38851e-22)
(0.145165 -0.0201407 -4.03989e-21)
(0.151903 -0.0203695 -2.16123e-22)
(0.158856 -0.02057 1.59376e-21)
(0.166018 -0.0207402 3.70205e-21)
(0.173383 -0.0208784 -4.02089e-21)
(0.180946 -0.0209835 3.28906e-21)
(0.1887 -0.021055 -1.85041e-21)
(0.196637 -0.0210928 -8.21318e-22)
(0.204749 -0.0210972 -3.55424e-22)
(0.213027 -0.0210687 2.02498e-21)
(0.221462 -0.0210082 2.09325e-21)
(0.230046 -0.0209166 -4.02257e-21)
(0.238767 -0.0207952 -7.71564e-22)
(0.247618 -0.0206453 3.53617e-21)
(0.256587 -0.0204684 -1.18383e-21)
(0.265665 -0.0202661 -2.00075e-21)
(0.274841 -0.0200398 8.63178e-22)
(0.284106 -0.0197913 -1.08561e-21)
(0.293449 -0.0195223 1.10214e-21)
(0.30286 -0.0192343 -5.94131e-22)
(0.312331 -0.0189291 2.21668e-21)
(0.32185 -0.0186083 2.21274e-22)
(0.331409 -0.0182735 -1.43117e-22)
(0.340998 -0.0179263 -6.6741e-22)
(0.350608 -0.0175683 -9.79692e-22)
(0.36023 -0.0172009 -2.2029e-22)
(0.369856 -0.0168257 1.04265e-21)
(0.379477 -0.016444 1.12144e-22)
(0.389085 -0.0160571 -3.89845e-22)
(0.398674 -0.0156663 9.0985e-23)
(0.408235 -0.0152728 5.4436e-23)
(0.417761 -0.0148778 3.20171e-22)
(0.427247 -0.0144824 -1.75028e-22)
(0.436685 -0.0140875 -1.06615e-22)
(0.44607 -0.0136941 1.87152e-23)
(0.455397 -0.0133031 2.83945e-22)
(0.46466 -0.0129154 -1.52532e-22)
(0.473856 -0.0125316 -1.57775e-22)
(0.482979 -0.0121525 5.25832e-23)
(0.492025 -0.0117788 1.77052e-23)
(0.500993 -0.011411 4.34169e-24)
(0.509876 -0.0110497 -7.92941e-23)
(0.518677 -0.0106953 3.6936e-23)
(0.527384 -0.0103483 -8.06367e-24)
(0.536018 -0.0100085 8.23906e-24)
(0.544522 -0.00967768 -1.44546e-23)
(0.55302 -0.00935106 -1.17496e-23)
(0.561234 -0.0090409 4.85335e-24)
(0.569764 -0.00871393 -7.37332e-25)
(0.577315 -0.0084486 -1.96959e-24)
(0.586618 -0.00804788 5.8955e-24)
(0.591958 -0.0079552 1.0337e-24)
(0.605038 -0.0071873 2.23443e-23)
(0.0845272 -0.02471 1.92288e-20)
(0.0881537 -0.023417 -7.14135e-21)
(0.0917369 -0.0226723 4.29662e-21)
(0.095609 -0.0221953 -2.95002e-20)
(0.0995864 -0.0219318 1.37162e-20)
(0.103651 -0.0218509 -1.75745e-20)
(0.10784 -0.0219125 1.94659e-20)
(0.112178 -0.0220821 -1.77576e-20)
(0.116679 -0.0223336 -4.10636e-21)
(0.121355 -0.0226454 3.49328e-20)
(0.126219 -0.0229995 -1.90949e-20)
(0.13128 -0.0233803 1.56965e-20)
(0.136545 -0.0237747 -3.5747e-21)
(0.142018 -0.0241714 -3.28101e-22)
(0.147702 -0.0245607 -9.16527e-21)
(0.153599 -0.0249344 -3.80773e-21)
(0.159708 -0.0252857 -1.72053e-21)
(0.166028 -0.025609 4.43961e-21)
(0.172555 -0.0258995 -1.05611e-20)
(0.179287 -0.0261538 5.23126e-21)
(0.186219 -0.0263691 -2.70721e-21)
(0.193345 -0.0265436 1.41909e-21)
(0.200658 -0.0266761 2.74955e-21)
(0.208153 -0.0267659 5.14795e-21)
(0.215821 -0.0268129 -3.27798e-21)
(0.223656 -0.0268176 -2.66963e-21)
(0.231648 -0.0267807 2.08554e-21)
(0.23979 -0.0267032 3.19811e-22)
(0.248073 -0.0265865 1.99078e-21)
(0.256487 -0.0264321 -1.62784e-21)
(0.265025 -0.0262417 -2.00875e-21)
(0.273675 -0.0260172 3.17337e-21)
(0.28243 -0.0257605 -2.63844e-21)
(0.291279 -0.0254736 1.75294e-21)
(0.300214 -0.0251585 6.1328e-22)
(0.309224 -0.0248175 -1.04574e-21)
(0.318301 -0.0244525 -5.90395e-22)
(0.327434 -0.0240657 7.67061e-22)
(0.336616 -0.0236591 -1.28566e-21)
(0.345838 -0.0232348 3.4212e-22)
(0.355089 -0.0227948 -4.15167e-22)
(0.364362 -0.0223411 1.50085e-22)
(0.373649 -0.0218755 -1.32635e-22)
(0.382941 -0.0213998 6.10146e-22)
(0.39223 -0.0209159 -5.66972e-22)
(0.401509 -0.0204254 3.64546e-22)
(0.410771 -0.01993 -6.76057e-22)
(0.420008 -0.0194311 2.35966e-22)
(0.429215 -0.0189302 6.01839e-22)
(0.438384 -0.0184287 -4.60726e-22)
(0.44751 -0.0179279 -2.82342e-22)
(0.456587 -0.0174289 3.51038e-22)
(0.46561 -0.0169329 -2.49036e-22)
(0.474574 -0.016441 1.24359e-22)
(0.483475 -0.0159541 1.91753e-23)
(0.492308 -0.0154732 2.77926e-23)
(0.501071 -0.0149989 -1.45198e-22)
(0.509759 -0.0145322 4.66071e-23)
(0.518368 -0.0140736 -2.0349e-24)
(0.526901 -0.0136238 5.37769e-23)
(0.535344 -0.0131833 -8.03418e-23)
(0.54372 -0.012752 2.96076e-23)
(0.551973 -0.0123321 8.13829e-24)
(0.560224 -0.0119174 5.98398e-24)
(0.568198 -0.0115239 -5.72844e-25)
(0.576492 -0.0111086 2.15338e-24)
(0.583821 -0.0107727 -1.13517e-24)
(0.592885 -0.0102637 4.81509e-24)
(0.598059 -0.0101475 -4.9197e-24)
(0.610827 -0.00917805 -5.52473e-23)
(0.114967 -0.0293189 -8.84436e-21)
(0.118062 -0.0278898 7.78555e-21)
(0.121152 -0.027091 5.15859e-21)
(0.124681 -0.026569 -3.4067e-20)
(0.128361 -0.0262865 3.47701e-20)
(0.132148 -0.0262167 -4.03447e-22)
(0.136079 -0.0263129 -2.28209e-20)
(0.140176 -0.0265355 1.40188e-20)
(0.144447 -0.026854 4.00387e-21)
(0.1489 -0.0272432 4.07366e-21)
(0.153545 -0.0276813 -1.60359e-20)
(0.158388 -0.0281498 -1.3616e-20)
(0.163432 -0.0286329 4.93167e-21)
(0.168681 -0.0291171 1.23822e-20)
(0.174135 -0.0295907 -7.28766e-21)
(0.179794 -0.0300441 1.93578e-20)
(0.185656 -0.0304692 -2.07918e-20)
(0.191719 -0.0308594 2.22573e-20)
(0.197978 -0.0312094 -6.21338e-21)
(0.204431 -0.0315152 -1.49543e-20)
(0.211071 -0.0317736 1.26005e-20)
(0.217894 -0.0319826 -1.31712e-21)
(0.224893 -0.0321408 -1.97088e-21)
(0.232062 -0.0322478 5.4579e-21)
(0.239394 -0.0323034 -3.95371e-21)
(0.246881 -0.0323081 -8.71974e-21)
(0.254517 -0.032263 6.98026e-21)
(0.262293 -0.0321694 -1.61445e-21)
(0.270202 -0.0320287 -1.37203e-21)
(0.278235 -0.031843 2.67476e-21)
(0.286384 -0.0316142 4.99874e-21)
(0.294641 -0.0313446 -1.57661e-21)
(0.302996 -0.0310364 -8.77713e-21)
(0.311442 -0.030692 6.41148e-21)
(0.319969 -0.030314 -3.08559e-21)
(0.328569 -0.0299047 9.79886e-22)
(0.337234 -0.0294668 2.23126e-21)
(0.345955 -0.0290027 -8.69889e-22)
(0.354722 -0.0285148 -3.79167e-23)
(0.363529 -0.0280057 5.11316e-22)
(0.372367 -0.0274777 -1.56312e-21)
(0.381228 -0.0269331 -6.88271e-22)
(0.390103 -0.0263743 1.66377e-21)
(0.398987 -0.0258033 3.88534e-22)
(0.40787 -0.0252224 -1.03015e-21)
(0.416746 -0.0246335 3.70439e-22)
(0.425609 -0.0240385 -2.66162e-22)
(0.434451 -0.0234394 -6.26911e-22)
(0.443266 -0.0228377 -4.78593e-23)
(0.452049 -0.0222353 7.03941e-22)
(0.460794 -0.0216335 2.9814e-22)
(0.469495 -0.0210339 2.92688e-22)
(0.478147 -0.0204379 -1.601e-22)
(0.486747 -0.0198466 2.73553e-22)
(0.495288 -0.0192613 -3.53986e-22)
(0.503769 -0.0186831 1.76679e-22)
(0.512184 -0.0181129 -1.53698e-22)
(0.520532 -0.0175516 8.73539e-24)
(0.528807 -0.0170001 9.15857e-23)
(0.537013 -0.0164591 -7.95051e-23)
(0.545135 -0.0159294 4.07832e-23)
(0.553197 -0.0154105 -2.82933e-23)
(0.561142 -0.0149054 -4.2156e-23)
(0.569093 -0.0144065 -1.4133e-23)
(0.576775 -0.0139336 1.93966e-24)
(0.584779 -0.0134337 -2.34307e-25)
(0.59184 -0.0130309 -1.81374e-24)
(0.600611 -0.0124182 5.58993e-24)
(0.605582 -0.0122807 3.00126e-24)
(0.61797 -0.0111224 2.667e-23)
(0.151082 -0.0333595 2.96061e-20)
(0.153547 -0.0318808 -2.22244e-20)
(0.156037 -0.0310968 3.62803e-20)
(0.159137 -0.030571 -1.36126e-20)
(0.162444 -0.0302985 1.05892e-20)
(0.165883 -0.0302622 -2.73037e-20)
(0.169492 -0.0304105 4.37312e-21)
(0.173288 -0.0306991 -9.22555e-22)
(0.177273 -0.0310944 5.98582e-21)
(0.18145 -0.031568 1.59591e-20)
(0.185824 -0.0320952 -1.2926e-20)
(0.190398 -0.0326546 8.81469e-21)
(0.195171 -0.033228 5.0366e-21)
(0.200143 -0.0337999 1.74636e-21)
(0.205314 -0.0343571 -1.48951e-20)
(0.21068 -0.0348887 8.21358e-21)
(0.216239 -0.0353856 -1.18972e-20)
(0.221986 -0.0358405 1.47696e-21)
(0.227918 -0.0362476 -2.45248e-22)
(0.23403 -0.0366025 1.43535e-20)
(0.240316 -0.0369019 -1.22036e-20)
(0.246771 -0.0371437 -1.56155e-21)
(0.253389 -0.0373265 -2.6114e-21)
(0.260165 -0.0374497 1.16538e-20)
(0.267091 -0.0375136 -4.20913e-21)
(0.274162 -0.0375187 -3.85158e-21)
(0.281371 -0.0374662 -2.23313e-21)
(0.288711 -0.0373578 8.57775e-21)
(0.296174 -0.0371952 -3.10644e-21)
(0.303753 -0.0369806 -3.93259e-21)
(0.311441 -0.0367163 -3.1026e-21)
(0.319231 -0.0364049 8.6583e-21)
(0.327114 -0.036049 -2.35921e-21)
(0.335083 -0.0356514 -8.03389e-22)
(0.34313 -0.0352149 -1.71525e-21)
(0.351247 -0.0347423 -1.33821e-21)
(0.359427 -0.0342365 1.37725e-21)
(0.367661 -0.0337005 1.23597e-21)
(0.375943 -0.0331369 -1.32635e-21)
(0.384264 -0.0325487 -1.99334e-21)
(0.392617 -0.0319386 2.60228e-21)
(0.400995 -0.0313092 -3.98481e-22)
(0.40939 -0.0306632 8.91377e-25)
(0.417795 -0.0300031 -5.17859e-22)
(0.426204 -0.0293313 8.42396e-22)
(0.43461 -0.0286502 -1.01678e-21)
(0.443006 -0.0279619 1.17496e-21)
(0.451387 -0.0272686 -3.47493e-23)
(0.459747 -0.0265724 -1.00604e-22)
(0.468079 -0.025875 -3.04895e-22)
(0.47638 -0.0251784 -3.59178e-22)
(0.484642 -0.0244841 1.24821e-22)
(0.492863 -0.0237938 2.90638e-22)
(0.501037 -0.023109 -6.5362e-22)
(0.509161 -0.0224309 4.5043e-22)
(0.517231 -0.0217609 -2.37136e-22)
(0.525242 -0.0211001 8.68322e-23)
(0.533194 -0.0204497 4.82093e-23)
(0.541081 -0.0198104 -7.96139e-23)
(0.548905 -0.0191832 -1.56369e-23)
(0.556654 -0.0185691 4.49257e-23)
(0.56435 -0.0179675 -1.47276e-23)
(0.571938 -0.017382 1.84486e-23)
(0.579539 -0.0168034 3.76111e-23)
(0.586881 -0.0162556 3.02543e-24)
(0.594549 -0.0156756 1.29655e-24)
(0.601296 -0.0152103 5.4695e-25)
(0.609726 -0.0144992 -3.87297e-24)
(0.614462 -0.0143428 -2.78201e-24)
(0.626404 -0.0130107 -1.64549e-24)
(0.192622 -0.0367022 1.5709e-20)
(0.194361 -0.0352721 3.18705e-20)
(0.196143 -0.0345843 -3.73111e-20)
(0.198727 -0.0341062 -8.78366e-22)
(0.201583 -0.0338816 8.04212e-21)
(0.204599 -0.0339094 -7.09739e-21)
(0.207819 -0.0341337 -1.43542e-20)
(0.211252 -0.0345067 -1.59592e-21)
(0.214892 -0.0349927 3.4391e-20)
(0.218737 -0.0355611 -1.34775e-21)
(0.222785 -0.0361845 -2.95926e-21)
(0.227034 -0.0368394 -5.18323e-21)
(0.231481 -0.0375056 4.54399e-21)
(0.236122 -0.0381661 -3.52868e-21)
(0.240952 -0.0388064 4.62303e-21)
(0.245968 -0.0394149 -1.25055e-20)
(0.251163 -0.0399817 -9.99426e-21)
(0.256534 -0.0404991 1.43232e-20)
(0.262075 -0.0409611 9.08675e-22)
(0.267781 -0.0413631 -6.57954e-21)
(0.273648 -0.0417018 1.47428e-20)
(0.279669 -0.0419751 -2.35276e-21)
(0.285839 -0.0421816 -1.19564e-21)
(0.292153 -0.042321 -1.20692e-20)
(0.298606 -0.0423936 9.69957e-22)
(0.305191 -0.0424001 1.00175e-20)
(0.311903 -0.0423421 -4.07967e-21)
(0.318736 -0.0422211 -6.2415e-21)
(0.325684 -0.0420394 4.04141e-21)
(0.33274 -0.0417993 -1.02652e-21)
(0.339897 -0.0415035 1.22188e-21)
(0.34715 -0.0411548 3.65129e-21)
(0.354492 -0.0407561 -9.85804e-22)
(0.361915 -0.0403105 -4.59975e-21)
(0.369414 -0.0398212 4.86079e-21)
(0.37698 -0.0392912 8.84325e-22)
(0.384607 -0.0387239 1.14783e-21)
(0.392289 -0.0381223 -5.74927e-22)
(0.400018 -0.0374897 -5.17858e-21)
(0.407788 -0.0368292 2.47124e-21)
(0.415591 -0.0361439 3.94434e-22)
(0.423422 -0.0354368 -1.35333e-22)
(0.431272 -0.0347107 4.69598e-22)
(0.439137 -0.0339686 1.48457e-22)
(0.44701 -0.0332132 -2.98156e-22)
(0.454885 -0.032447 1.46024e-22)
(0.462755 -0.0316726 2.21859e-22)
(0.470616 -0.0308924 -3.68871e-22)
(0.478461 -0.0301086 1.92525e-22)
(0.486286 -0.0293234 2.57835e-22)
(0.494085 -0.0285387 -3.02694e-22)
(0.501855 -0.0277566 -2.51563e-22)
(0.509589 -0.0269788 1.07876e-22)
(0.517285 -0.0262069 5.48729e-23)
(0.524938 -0.0254426 1.73162e-23)
(0.532545 -0.0246871 1.27251e-22)
(0.540102 -0.023942 -5.00391e-23)
(0.547608 -0.0232083 -3.20267e-22)
(0.555057 -0.0224873 -5.01774e-23)
(0.562452 -0.0217796 -3.59407e-23)
(0.569781 -0.0210868 4.27665e-23)
(0.577067 -0.0204078 3.00809e-23)
(0.584252 -0.0197473 -4.34137e-23)
(0.591459 -0.0190942 -4.21054e-24)
(0.598419 -0.0184766 -1.10424e-23)
(0.605708 -0.0178216 -6.68725e-24)
(0.612104 -0.0172989 -1.6502e-24)
(0.620149 -0.0164957 8.15953e-24)
(0.624621 -0.0163228 -1.01352e-24)
(0.63606 -0.014834 9.33148e-24)
(0.239269 -0.0392123 -3.11013e-20)
(0.240194 -0.0379384 3.81239e-20)
(0.241169 -0.0374399 4.83794e-20)
(0.243149 -0.0370719 -5.57044e-20)
(0.245474 -0.0369435 -3.41712e-20)
(0.247995 -0.0370753 2.46192e-20)
(0.250756 -0.0374071 2.25293e-20)
(0.253761 -0.0378888 3.14405e-20)
(0.256997 -0.0384841 -3.70484e-20)
(0.260451 -0.0391609 -2.76018e-22)
(0.264116 -0.03989 -2.7626e-20)
(0.267984 -0.0406465 7.98609e-21)
(0.272046 -0.041409 2.13248e-20)
(0.276296 -0.0421594 -1.65679e-21)
(0.280725 -0.0428829 -1.18142e-20)
(0.285327 -0.0435672 3.32249e-21)
(0.290095 -0.0442024 6.64869e-21)
(0.295024 -0.0447806 -1.13497e-20)
(0.300108 -0.0452958 2.39007e-20)
(0.305342 -0.0457435 -1.11021e-20)
(0.310721 -0.0461205 -5.91365e-21)
(0.316239 -0.0464248 1.35644e-20)
(0.321893 -0.0466553 -1.29031e-20)
(0.327677 -0.0468117 4.34453e-21)
(0.333588 -0.0468945 1.64741e-21)
(0.339619 -0.0469047 4.96379e-21)
(0.345766 -0.0468439 -3.81409e-21)
(0.352025 -0.0467139 -5.562e-21)
(0.35839 -0.0465172 1.57982e-21)
(0.364856 -0.0462564 -2.43789e-21)
(0.371417 -0.0459342 1.114e-20)
(0.378069 -0.0455539 -4.37305e-21)
(0.384804 -0.0451185 -6.77211e-21)
(0.391618 -0.0446314 8.88606e-21)
(0.398505 -0.044096 -5.37747e-21)
(0.405458 -0.0435157 -1.11232e-21)
(0.412472 -0.0428941 2.70513e-21)
(0.41954 -0.0422346 -9.84194e-22)
(0.426657 -0.0415407 2.08783e-21)
(0.433817 -0.0408159 -8.3117e-22)
(0.441012 -0.0400634 1.54714e-21)
(0.448238 -0.0392866 -3.35377e-21)
(0.455489 -0.0384887 2.1766e-21)
(0.462758 -0.0376727 1.19665e-21)
(0.47004 -0.0368418 -2.24577e-21)
(0.47733 -0.0359987 -8.37048e-24)
(0.484622 -0.0351462 1.3543e-21)
(0.491911 -0.034287 -1.66057e-21)
(0.499191 -0.0334236 1.77595e-21)
(0.506458 -0.0325583 -4.62621e-22)
(0.513708 -0.0316935 8.07379e-23)
(0.520935 -0.0308311 -7.40689e-23)
(0.528136 -0.0299732 1.38075e-23)
(0.535307 -0.0291216 -2.83426e-22)
(0.542444 -0.0282781 3.37045e-22)
(0.549544 -0.0274443 1.11726e-22)
(0.556603 -0.0266216 4.92686e-23)
(0.56362 -0.0258115 -5.59484e-24)
(0.57059 -0.0250151 2.29603e-22)
(0.577516 -0.0242334 -1.5245e-22)
(0.584384 -0.023468 1.22163e-22)
(0.591219 -0.0227178 -1.72708e-23)
(0.597964 -0.0219882 5.89524e-23)
(0.60474 -0.0212663 -1.16452e-23)
(0.611281 -0.0205848 -2.35456e-24)
(0.618155 -0.0198603 2.8401e-24)
(0.624166 -0.0192856 -8.03429e-25)
(0.631788 -0.0183973 -1.20929e-23)
(0.635973 -0.0182107 2.39268e-24)
(0.646857 -0.0165835 1.95975e-23)
(0.290669 -0.0397507 -4.77745e-21)
(0.290748 -0.0395458 -8.11929e-20)
(0.292043 -0.0393617 8.75116e-20)
(0.293763 -0.0393889 -4.41175e-20)
(0.295717 -0.0396742 -3.67279e-21)
(0.297954 -0.0401533 3.44332e-20)
(0.300472 -0.0407744 -3.6692e-20)
(0.303243 -0.0415021 -5.26918e-21)
(0.306247 -0.042304 2.67255e-20)
(0.309469 -0.0431504 -6.03918e-21)
(0.312895 -0.0440159 -2.71989e-20)
(0.31651 -0.044879 4.66443e-20)
(0.320304 -0.0457215 -1.27303e-20)
(0.324266 -0.0465286 -1.97518e-20)
(0.328387 -0.0472883 2.23508e-20)
(0.33266 -0.047991 2.44424e-21)
(0.337078 -0.048629 -1.00815e-20)
(0.341635 -0.0491967 -1.14211e-20)
(0.346327 -0.0496898 -1.32122e-20)
(0.351148 -0.0501053 7.15822e-21)
(0.356095 -0.0504416 4.77078e-21)
(0.361163 -0.0506976 7.82743e-21)
(0.366349 -0.0508733 -1.12713e-20)
(0.37165 -0.0509693 6.49836e-21)
(0.37706 -0.0509868 -9.62994e-22)
(0.382578 -0.0509275 -5.53362e-21)
(0.388198 -0.0507936 3.71177e-21)
(0.393917 -0.0505875 3.60537e-22)
(0.399731 -0.0503119 -7.53498e-21)
(0.405634 -0.04997 2.37665e-21)
(0.411624 -0.049565 4.64004e-21)
(0.417694 -0.0491003 -2.78847e-21)
(0.423841 -0.0485795 1.38543e-21)
(0.430059 -0.0480061 2.94974e-21)
(0.436344 -0.0473838 -4.64854e-21)
(0.44269 -0.0467165 2.24437e-21)
(0.449091 -0.0460078 2.43114e-21)
(0.455544 -0.0452615 -2.12587e-21)
(0.462041 -0.0444812 3.04924e-22)
(0.468579 -0.0436705 -2.71319e-21)
(0.475152 -0.0428331 1.49604e-21)
(0.481754 -0.0419723 8.523e-22)
(0.48838 -0.0410916 3.34334e-22)
(0.495025 -0.0401942 -1.37418e-21)
(0.501685 -0.0392831 -3.07368e-22)
(0.508354 -0.0383615 2.5241e-21)
(0.515027 -0.0374321 -2.24787e-22)
(0.521699 -0.0364978 -1.29689e-21)
(0.528367 -0.035561 1.47848e-23)
(0.535026 -0.0346243 -2.07459e-22)
(0.541672 -0.0336899 1.93136e-22)
(0.5483 -0.03276 9.69e-23)
(0.554907 -0.0318367 1.8517e-22)
(0.561491 -0.0309219 -1.90331e-22)
(0.568046 -0.0300173 -1.64269e-23)
(0.574571 -0.0291245 -1.81077e-22)
(0.581064 -0.0282451 3.01148e-24)
(0.58752 -0.0273805 -1.92665e-23)
(0.593942 -0.0265316 3.4149e-23)
(0.600317 -0.0257004 -7.03909e-23)
(0.606669 -0.0248855 -7.15382e-23)
(0.612942 -0.0240932 2.08705e-23)
(0.619255 -0.0233088 -5.03561e-23)
(0.625348 -0.0225694 3.67991e-23)
(0.631775 -0.0217816 -2.03285e-24)
(0.637375 -0.0211608 -3.80337e-24)
(0.644543 -0.0201949 8.27559e-24)
(0.648422 -0.0199973 1.141e-24)
(0.658706 -0.0182515 -1.20619e-23)
(0.345331 -0.0405827 -4.66196e-20)
(0.344445 -0.0407859 2.00779e-20)
(0.344989 -0.0408709 -1.38401e-20)
(0.346041 -0.0411242 -1.23248e-20)
(0.347369 -0.0416225 2.89574e-21)
(0.349025 -0.0422962 -1.78285e-21)
(0.350998 -0.043093 5.56251e-21)
(0.353247 -0.0439799 2.98553e-20)
(0.355743 -0.0449261 -4.66463e-20)
(0.35846 -0.045903 3.445e-20)
(0.361379 -0.0468859 1.0099e-20)
(0.36448 -0.0478545 -5.20447e-20)
(0.367749 -0.0487917 4.82169e-20)
(0.371173 -0.0496836 -1.89613e-20)
(0.374741 -0.0505192 7.05495e-22)
(0.378446 -0.0512895 1.13165e-20)
(0.38228 -0.0519877 -1.79412e-20)
(0.386238 -0.0526085 7.89671e-21)
(0.390315 -0.0531482 -1.6634e-20)
(0.394508 -0.0536043 -6.09416e-21)
(0.398812 -0.0539751 2.46808e-20)
(0.403227 -0.05426 -3.7443e-21)
(0.407748 -0.0544591 2.65381e-21)
(0.412373 -0.0545732 6.97072e-21)
(0.417099 -0.0546036 -1.61533e-21)
(0.421924 -0.054552 -5.86265e-21)
(0.426845 -0.0544208 -7.37607e-21)
(0.43186 -0.0542125 8.16015e-21)
(0.436964 -0.05393 3.95167e-23)
(0.442154 -0.0535764 -4.814e-21)
(0.447428 -0.0531553 1.69487e-21)
(0.452781 -0.0526702 4.95249e-21)
(0.45821 -0.0521246 -9.65797e-21)
(0.46371 -0.0515226 2.32612e-21)
(0.469278 -0.050868 3.09685e-21)
(0.474909 -0.0501646 9.08495e-22)
(0.480598 -0.0494165 -3.72109e-21)
(0.486342 -0.0486276 1.44596e-23)
(0.492135 -0.0478018 -4.75215e-22)
(0.497973 -0.046943 3.4623e-21)
(0.503851 -0.0460548 -2.16235e-21)
(0.509765 -0.0451411 -1.51197e-22)
(0.515709 -0.0442055 1.44601e-21)
(0.52168 -0.0432513 -1.84642e-23)
(0.527673 -0.042282 -1.54593e-21)
(0.533682 -0.0413008 2.14303e-21)
(0.539705 -0.0403107 -3.29626e-22)
(0.545736 -0.0393147 -1.30955e-21)
(0.551771 -0.0383156 8.12012e-22)
(0.557806 -0.037316 -3.1481e-22)
(0.563838 -0.0363184 -1.40748e-22)
(0.569863 -0.0353253 -1.15646e-22)
(0.575876 -0.0343387 2.78212e-22)
(0.581876 -0.0333607 -4.87879e-22)
(0.587859 -0.0323934 1.06995e-22)
(0.593821 -0.0314384 -6.14663e-23)
(0.599762 -0.0304974 2.16135e-22)
(0.605677 -0.0295721 1.28101e-22)
(0.611568 -0.0286634 -1.13327e-22)
(0.617424 -0.0277734 5.27498e-23)
(0.623268 -0.0269007 8.25357e-23)
(0.629044 -0.0260525 -4.63381e-23)
(0.63487 -0.0252121 3.04891e-23)
(0.640491 -0.0244215 -1.84981e-24)
(0.646449 -0.0235768 2.76002e-24)
(0.651617 -0.0229161 -2.05997e-24)
(0.658304 -0.0218807 -9.29774e-24)
(0.661863 -0.0216747 -1.52544e-24)
(0.671512 -0.0198306 -6.12648e-24)
(0.403642 -0.0403198 2.65813e-20)
(0.401756 -0.0410537 -2.52296e-20)
(0.401508 -0.0415035 8.48423e-21)
(0.40185 -0.0420641 2.14475e-20)
(0.40251 -0.0428435 -3.97538e-20)
(0.403541 -0.0437651 1.18712e-20)
(0.404921 -0.0447775 5.69462e-20)
(0.406595 -0.0458526 -1.83305e-20)
(0.408522 -0.0469634 -3.39234e-20)
(0.41067 -0.0480841 2.86923e-20)
(0.413013 -0.0491931 -8.67299e-21)
(0.415528 -0.0502725 2.21192e-20)
(0.418197 -0.0513076 -2.86957e-20)
(0.421005 -0.0522865 -3.13967e-20)
(0.423944 -0.0531997 5.14785e-20)
(0.427003 -0.0540394 -4.74642e-20)
(0.430176 -0.0547999 2.78542e-20)
(0.43346 -0.0554766 2.26481e-20)
(0.436849 -0.0560664 -4.3667e-20)
(0.440342 -0.0565671 3.33787e-20)
(0.443937 -0.0569775 -1.62371e-20)
(0.44763 -0.0572971 -1.24932e-20)
(0.451422 -0.057526 3.03391e-21)
(0.455309 -0.0576652 2.46194e-20)
(0.459292 -0.0577161 -2.94772e-20)
(0.463367 -0.0576804 2.68935e-20)
(0.467534 -0.0575605 6.13105e-21)
(0.47179 -0.0573591 -4.91914e-21)
(0.476134 -0.0570791 -1.80351e-20)
(0.480563 -0.0567238 4.74437e-21)
(0.485074 -0.0562966 7.21852e-21)
(0.489665 -0.0558013 -7.07331e-21)
(0.494332 -0.0552416 5.12055e-21)
(0.499073 -0.0546216 -2.80439e-21)
(0.503884 -0.0539452 1.66714e-21)
(0.508762 -0.0532167 -1.63905e-21)
(0.513702 -0.05244 9.88059e-22)
(0.518701 -0.0516194 2.99524e-22)
(0.523756 -0.0507589 -8.53203e-22)
(0.528861 -0.0498627 2.07756e-21)
(0.534013 -0.0489346 -2.59098e-21)
(0.539208 -0.0479787 -9.22244e-22)
(0.544441 -0.0469986 3.11388e-22)
(0.549708 -0.0459982 2.98724e-23)
(0.555006 -0.0449809 -7.00054e-22)
(0.56033 -0.0439502 2.1365e-21)
(0.565676 -0.0429093 -4.57858e-22)
(0.571039 -0.0418615 -7.22999e-22)
(0.576417 -0.0408097 -8.01795e-22)
(0.581805 -0.0397567 1.47432e-21)
(0.5872 -0.0387052 -5.7644e-23)
(0.592598 -0.0376577 6.92447e-22)
(0.597996 -0.0366167 -1.34465e-21)
(0.603391 -0.0355843 7.72095e-22)
(0.608779 -0.0345626 1.10564e-22)
(0.614159 -0.0335536 -1.29141e-22)
(0.619528 -0.0325591 1.86979e-22)
(0.624882 -0.0315807 -2.6008e-22)
(0.630225 -0.0306198 3.30327e-24)
(0.635543 -0.0296785 -9.4065e-24)
(0.64086 -0.0287552 -1.00971e-22)
(0.646121 -0.0278582 2.27587e-23)
(0.651444 -0.0269687 -1.77558e-23)
(0.656577 -0.0261336 1.34676e-23)
(0.662048 -0.0252388 -2.91939e-24)
(0.666769 -0.0245445 1.93162e-24)
(0.672957 -0.0234481 8.7144e-24)
(0.676188 -0.0232361 -2.9704e-24)
(0.685172 -0.0213144 3.2301e-24)
(0.462113 -0.0402628 -2.9761e-20)
(0.46107 -0.0411822 3.04511e-20)
(0.460692 -0.0421399 -6.52822e-20)
(0.460668 -0.0432735 9.60856e-21)
(0.461046 -0.0444981 2.57888e-20)
(0.461794 -0.045766 -1.29252e-20)
(0.462841 -0.0470574 -7.45683e-21)
(0.464138 -0.0483518 9.74571e-21)