/*--------------------------------*- C++ -*----------------------------------*\
  =========                 |
  \\      /  F ield         | OpenFOAM: The Open Source CFD Toolbox
   \\    /   O peration     | Website:  https://openfoam.org
    \\  /    A nd           | Version:  7
     \\/     M anipulation  |
\*---------------------------------------------------------------------------*/
FoamFile
{
    version     2.0;
    format      ascii;
    class       volScalarField;
    location    "4";
    object      p;
}
// * * * * * * * * * * * * * * * * * * * * * * * * * * * * * * * * * * * * * //

dimensions      [0 2 -2 0 0 0 0];

internalField   nonuniform List<scalar> 
433
(
0.000514839
-0.000554102
-0.00161571
-0.00266601
-0.00369979
-0.00471104
-0.00569339
-0.00664017
-0.00754446
-0.00839913
-0.00919687
-0.00993042
-0.0105927
-0.011177
-0.0116769
-0.0120867
-0.0124016
-0.0126177
0.000167686
-0.000911609
-0.00197848
-0.00303413
-0.00407322
-0.00508853
-0.00607316
-0.00702035
-0.00792316
-0.00877432
-0.00956644
-0.0102921
-0.0109443
-0.0115163
-0.0120017
-0.0123948
-0.012691
-0.0128868
-0.000496323
-0.00159728
-0.00267487
-0.00374137
-0.00479113
-0.00581452
-0.0068036
-0.00775153
-0.0086513
-0.00949549
-0.0102765
-0.0109868
-0.0116191
-0.0121668
-0.0126236
-0.0129842
-0.0132442
-0.0134004
-0.00146891
-0.00260051
-0.00369284
-0.00477444
-0.00583905
-0.00687341
-0.00786811
-0.00881616
-0.00971048
-0.0105434
-0.0113071
-0.0119942
-0.0125961
-0.0131072
-0.0135214
-0.0138335
-0.0140398
-0.0141375
-0.00274306
-0.00391425
-0.00502494
-0.00612547
-0.00720864
-0.00825627
-0.00925705
-0.0102038
-0.0110894
-0.0119058
-0.0126447
-0.0132982
-0.0138597
-0.0143216
-0.0146785
-0.0149258
-0.0150603
-0.0150803
-0.00432152
-0.00554059
-0.00667246
-0.00779502
-0.00889963
-0.00996192
-0.0109682
-0.0119112
-0.0127838
-0.0135774
-0.0142833
-0.0148935
-0.015401
-0.0157992
-0.0160825
-0.0162472
-0.016291
-0.0162133
-0.00621171
-0.00748667
-0.00864182
-0.0097888
-0.0109169
-0.0119943
-0.0130044
-0.0139399
-0.0147937
-0.015557
-0.0162203
-0.0167745
-0.0172137
-0.0175318
-0.0177237
-0.0177866
-0.0177193
-0.0175226
-0.00842634
-0.00976486
-0.0109446
-0.0121176
-0.0132704
-0.014362
-0.0153728
-0.0162954
-0.0171228
-0.0178465
-0.0184587
-0.0189395
-0.0192936
-0.0195133
-0.0195942
-0.0195342
-0.0193337
-0.0189952
-0.0109825
-0.012392
-0.0135968
-0.0147965
-0.0159742
-0.0170779
-0.0180844
-0.0189864
-0.0197764
-0.0204443
-0.0209786
-0.0213822
-0.0216367
-0.0217391
-0.0216875
-0.0214815
-0.0211237
-0.020619
-0.0139015
-0.0153891
-0.0166184
-0.0178445
-0.0190461
-0.0201586
-0.0211547
-0.0220274
-0.0227698
-0.0233715
-0.0238229
-0.0241174
-0.0242471
-0.0242079
-0.0239985
-0.0236208
-0.0230794
-0.0223821
-0.0172084
-0.0187808
-0.020033
-0.0212842
-0.0225073
-0.0236233
-0.0246006
-0.0254329
-0.0261134
-0.0266317
-0.0269774
-0.0271435
-0.0271242
-0.0269168
-0.0265222
-0.0259443
-0.0251906
-0.0242724
-0.0209323
-0.0225958
-0.0238678
-0.0251411
-0.0263818
-0.027494
-0.0284416
-0.029219
-0.02982
-0.0302345
-0.0304516
-0.0304641
-0.0302682
-0.0298636
-0.0292532
-0.0284441
-0.0274471
-0.0262775
-0.0251059
-0.0268662
-0.0281532
-0.0294442
-0.0306964
-0.0317952
-0.0326995
-0.0334047
-0.0339056
-0.0341915
-0.0342532
-0.0340835
-0.0336803
-0.0330458
-0.0321862
-0.0311119
-0.0298382
-0.0283847
-0.0297661
-0.0316278
-0.0329231
-0.0342251
-0.0354806
-0.0365535
-0.0373975
-0.03801
-0.0383868
-0.0385169
-0.038392
-0.0380068
-0.0373613
-0.0364608
-0.035315
-0.0339388
-0.0323523
-0.0305806
-0.0349534
-0.0369201
-0.0382145
-0.0395184
-0.0407661
-0.0417972
-0.0425603
-0.0430552
-0.0432796
-0.0432227
-0.0428765
-0.0422382
-0.0413115
-0.040105
-0.0386328
-0.036915
-0.0349774
-0.0328513
-0.0407128
-0.0427862
-0.0440675
-0.0453614
-0.0465867
-0.0475565
-0.0482139
-0.0485619
-0.0485998
-0.0483197
-0.0477133
-0.046781
-0.0455302
-0.043974
-0.042132
-0.0400301
-0.0377007
-0.0351822
-0.0470931
-0.049273
-0.0505252
-0.0517933
-0.0529781
-0.0538624
-0.0543849
-0.0545524
-0.0543665
-0.0538209
-0.0529101
-0.0516377
-0.0500156
-0.0480624
-0.0458036
-0.0432723
-0.0405083
-0.0375579
-0.0541479
-0.056431
-0.0576334
-0.0588557
-0.0599768
-0.0607465
-0.0610988
-0.0610467
-0.0605943
-0.0597368
-0.0584723
-0.0568092
-0.0547645
-0.0523631
-0.0496376
-0.046629
-0.0433857
-0.0399626
-0.0619352
-0.0643141
-0.0654404
-0.0665914
-0.0676205
-0.0682402
-0.0683813
-0.0680626
-0.0672957
-0.0660751
-0.0644035
-0.0622947
-0.0597721
-0.0568677
-0.0536226
-0.0500865
-0.0463174
-0.0423799
-0.0705176
-0.0729793
-0.0739963
-0.0750444
-0.0759464
-0.0763748
-0.0762577
-0.075622
-0.0744841
-0.072843
-0.0707055
-0.0680914
-0.0650315
-0.0615662
-0.0577457
-0.0536299
-0.0492872
-0.044793
-0.0799623
-0.0824863
-0.0833521
-0.0842579
-0.0849901
-0.0851778
-0.0847496
-0.083738
-0.0821687
-0.0800443
-0.077377
-0.0741938
-0.0705336
-0.0664463
-0.0619925
-0.057243
-0.052278
-0.0471844
-0.0420536
-0.0903397
-0.0928949
-0.0935581
-0.0942734
-0.0947844
-0.0946722
-0.0938652
-0.092419
-0.0903534
-0.0876785
-0.0844135
-0.0805934
-0.0762668
-0.0714937
-0.0663465
-0.0609082
-0.0552716
-0.0495363
-0.0438054
-0.101721
-0.104263
-0.104662
-0.105129
-0.105358
-0.104881
-0.103631
-0.101673
-0.0990385
-0.0957405
-0.0918055
-0.0872775
-0.0822154
-0.0766909
-0.0707888
-0.0646059
-0.0582486
-0.0518299
-0.0454657
-0.114176
-0.116641
-0.116702
-0.116853
-0.116729
-0.115812
-0.114041
-0.111496
-0.108216
-0.104218
-0.0995373
-0.0942276
-0.0883591
-0.0820162
-0.0752974
-0.0683142
)
;

boundaryField
{
    inlet
    {
        type            zeroGradient;
    }
    outlet
    {
        type            fixedValue;
        value           nonuniform 0();
    }
    cylinder
    {
        type            zeroGradient;
    }
    top
    {
        type            symmetryPlane;
    }
    bottom
    {
        type            symmetryPlane;
    }
    defaultFaces
    {
        type            empty;
    }
    procBoundary4to3
    {
        type            processor;
        value           nonuniform List<scalar> 
24
(
0.00128995
0.000959921
0.000334701
-0.000580683
-0.00177829
-0.00326084
-0.00503492
-0.00711228
-0.0095088
-0.0122443
-0.0153421
-0.0188296
-0.0227375
-0.0271002
-0.0319561
-0.0373472
-0.04332
-0.049925
-0.0572176
-0.0652587
-0.0741153
-0.0838623
-0.0945845
-0.106378
)
;
    }
    procBoundary4to5
    {
        type            processor;
        value           nonuniform List<scalar> 
21
(
-0.0127327
-0.0129799
-0.0134511
-0.0141258
-0.0149861
-0.0160156
-0.0171997
-0.0185242
-0.0199755
-0.0215401
-0.0232043
-0.0249542
-0.0267755
-0.0286535
-0.0305728
-0.0325178
-0.0344723
-0.0364199
-0.0383439
-0.0402274
-0.0402274
)
;
    }
    procBoundary4to10
    {
        type            processor;
        value           nonuniform List<scalar> 
20
(
-0.0611878
-0.0540458
-0.0470169
-0.127759
-0.130062
-0.129706
-0.129462
-0.128902
-0.127459
-0.125086
-0.121872
-0.117865
-0.113088
-0.107584
-0.101418
-0.0946713
-0.0874426
-0.0798457
-0.0611878
-0.0720077
)
;
    }
    procBoundary4to11
    {
        type            processor;
        value           nonuniform List<scalar> 3(-0.036978 -0.0381821 -0.0392699);
    }
}


// ************************************************************************* //
