/*--------------------------------*- C++ -*----------------------------------*\
  =========                 |
  \\      /  F ield         | OpenFOAM: The Open Source CFD Toolbox
   \\    /   O peration     | Website:  https://openfoam.org
    \\  /    A nd           | Version:  7
     \\/     M anipulation  |
\*---------------------------------------------------------------------------*/
FoamFile
{
    version     2.0;
    format      ascii;
    class       surfaceScalarField;
    location    "4";
    object      phi;
}
// * * * * * * * * * * * * * * * * * * * * * * * * * * * * * * * * * * * * * //

dimensions      [0 3 -1 0 0 0 0];

internalField   nonuniform List<scalar> 
823
(
0.0257531
-2.42636e-05
0.0257766
-2.35436e-05
0.0257992
-2.26031e-05
0.0258207
-2.14193e-05
0.0258406
-1.99678e-05
0.0258588
-1.82288e-05
0.025875
-1.6186e-05
0.0258889
-1.3826e-05
0.0259
-1.1139e-05
0.0259081
-8.11983e-06
0.0259129
-4.76834e-06
0.025914
-1.08806e-06
0.0259111
2.89249e-06
0.0259039
7.16737e-06
0.0258922
1.17031e-05
0.0258758
1.64617e-05
0.0258544
2.13972e-05
2.64553e-05
0.0248707
-4.77584e-05
0.0248935
-4.63108e-05
0.0249153
-4.44241e-05
0.024936
-4.20538e-05
0.0249551
-3.91519e-05
0.0249726
-3.56792e-05
0.024988
-3.16042e-05
0.0250011
-2.69012e-05
0.0250115
-2.15512e-05
0.0250189
-1.55444e-05
0.025023
-8.88155e-06
0.0250235
-1.56873e-06
0.0250201
6.33226e-06
0.0250124
1.48137e-05
0.0250003
2.38057e-05
0.0249836
3.32319e-05
0.024962
4.30002e-05
5.30019e-05
0.0240338
-7.05877e-05
0.0240558
-6.83664e-05
0.0240769
-6.54889e-05
0.0240967
-6.18875e-05
0.0241151
-5.74907e-05
0.0241316
-5.22408e-05
0.0241461
-4.60916e-05
0.0241582
-3.90056e-05
0.0241676
-3.09558e-05
0.024174
-2.19291e-05
0.024177
-1.19282e-05
0.0241764
-9.62913e-07
0.0241719
1.08698e-05
0.0241632
2.356e-05
0.02415
3.69976e-05
0.0241321
5.10667e-05
0.0241095
6.56269e-05
8.05131e-05
0.0232385
-9.28336e-05
0.0232599
-8.97677e-05
0.0232802
-8.58242e-05
0.0232992
-8.09127e-05
0.0233167
-7.49381e-05
0.0233323
-6.78249e-05
0.0233457
-5.95131e-05
0.0233566
-4.99544e-05
0.0233648
-3.91148e-05
0.0233698
-2.69792e-05
0.0233715
-1.35529e-05
0.0233694
1.12651e-06
0.0233633
1.69792e-05
0.0233529
3.39373e-05
0.023338
5.18669e-05
0.0233185
7.06086e-05
0.0232941
8.99701e-05
0.000109727
0.0224818
-0.00011457
0.0225026
-0.000110562
0.0225222
-0.000105449
0.0225404
-9.9117e-05
0.0225569
-9.14472e-05
0.0225715
-8.23469e-05
0.0225837
-7.17433e-05
0.0225933
-5.95787e-05
0.0226
-4.58135e-05
0.0226035
-3.04324e-05
0.0226034
-1.34462e-05
0.0225994
5.08152e-06
0.0225913
2.50716e-05
0.0225788
4.64096e-05
0.0225618
6.8927e-05
0.02254
9.24167e-05
0.0225133
0.00011663
0.000141278
0.0217612
-0.000135858
0.0217814
-0.000130788
0.0218003
-0.000124376
0.0218177
-0.000116484
0.0218332
-0.00010697
0.0218466
-9.5724e-05
0.0218575
-8.26623e-05
0.0218656
-6.77189e-05
0.0218707
-5.08507e-05
0.0218723
-3.20444e-05
0.0218702
-1.13162e-05
0.021864
1.1233e-05
0.0218536
3.55252e-05
0.0218386
6.13974e-05
0.0218189
8.86387e-05
0.0217943
0.000116989
0.0217648
0.000146138
0.000175725
0.0210742
-0.000156753
0.0210939
-0.000150478
0.0211122
-0.000142612
0.0211287
-0.000132994
0.0211431
-0.000121455
0.0211553
-0.000107873
0.0211648
-9.21514e-05
0.0211713
-7.42196e-05
0.0211745
-5.40331e-05
0.021174
-3.15836e-05
0.0211696
-6.88759e-06
0.0211609
1.98913e-05
0.0211478
4.8691e-05
0.0211299
7.9288e-05
0.0211071
0.000111423
0.0210793
0.000144777
0.0210465
0.000178969
0.000213564
0.020419
-0.000177307
0.0204382
-0.00016966
0.0204557
-0.000160161
0.0204713
-0.00014862
0.0204847
-0.000134849
0.0204956
-0.000118706
0.0205035
-0.000100091
0.0205082
-7.89254e-05
0.0205093
-5.5168e-05
0.0205066
-2.88177e-05
0.0204996
8.47046e-08
0.0204881
3.13579e-05
0.0204719
6.49022e-05
0.0204508
0.000100446
0.0204245
0.000137672
0.0203931
0.000176195
0.0203565
0.000215558
0.000255241
0.0197936
-0.000197565
0.0198123
-0.000188358
0.0198291
-0.00017702
0.0198438
-0.000163336
0.0198561
-0.000147092
0.0198655
-0.000128136
0.0198718
-0.000106358
0.0198745
-8.16809e-05
0.0198734
-5.40657e-05
0.0198681
-2.35205e-05
0.0198584
9.8551e-06
0.0198438
4.59233e-05
0.0198242
8.44782e-05
0.0197994
0.000125215
0.0197694
0.000167753
0.0197339
0.00021163
0.0196932
0.000256304
0.000301161
0.0191964
-0.000217572
0.0192146
-0.000206591
0.0192308
-0.000193184
0.0192445
-0.000177107
0.0192556
-0.000158122
0.0192635
-0.000136067
0.019268
-0.000110828
0.0192686
-8.23289e-05
0.0192651
-5.05388e-05
0.019257
-1.54718e-05
0.0192442
2.27014e-05
0.0192262
6.38621e-05
0.019203
0.000107724
0.0191743
0.000153926
0.01914
0.000202014
0.0191002
0.000251442
0.0190549
0.000301575
0.000351694
0.0186258
-0.00023737
0.0186436
-0.000224378
0.0186591
-0.000208643
0.0186719
-0.000189895
0.0186816
-0.000167871
0.018688
-0.0001424
0.0186905
-0.000113368
0.0186889
-8.07043e-05
0.0186827
-4.43909e-05
0.0186717
-4.44759e-06
0.0186555
3.88688e-05
0.0186339
8.54564e-05
0.0186067
0.000134943
0.0185737
0.000186899
0.018535
0.000240789
0.0184904
0.000295973
0.0184403
0.000351712
0.000407177
0.0180806
-0.000257002
0.018098
-0.000241734
0.0181127
-0.000223385
0.0181245
-0.000201657
0.0181329
-0.000176264
0.0181375
-0.000147028
0.018138
-0.000113838
0.0181339
-7.66328e-05
0.0181249
-3.54069e-05
0.0181107
9.74059e-06
0.018091
5.86233e-05
0.0180655
0.000110987
0.018034
0.00016643
0.0179964
0.000224441
0.0179528
0.000284393
0.0179032
0.000345542
0.0178479
0.000407034
0.000467917
0.0175594
-0.000276506
0.0175764
-0.000258669
0.0175904
-0.00023739
0.0176011
-0.000212343
0.017608
-0.000183219
0.0176108
-0.000149837
0.0176091
-0.000112096
0.0176024
-6.99456e-05
0.0175904
-2.33944e-05
0.0175728
2.73773e-05
0.0175492
8.22019e-05
0.0175194
0.000140724
0.0174834
0.000202474
0.017441
0.000266852
0.0173922
0.00033313
0.0173373
0.000400449
0.0172765
0.000467831
0.000534191
0.0170611
-0.000295921
0.0170776
-0.00027519
0.0170908
-0.000250635
0.0171004
-0.000221896
0.0171058
-0.000188645
0.0171067
-0.000150705
0.0171026
-0.000107985
0.0170931
-6.04572e-05
0.0170778
-8.13738e-06
0.0170565
4.86861e-05
0.0170289
0.000109865
0.0169946
0.000174939
0.0169538
0.000243356
0.0169062
0.00031442
0.016852
0.000387288
0.0167915
0.000460976
0.016725
0.000534372
0.000606248
0.0165844
-0.000315279
0.0166005
-0.000291298
0.016613
-0.000263084
0.0166213
-0.000230248
0.0166251
-0.000192441
0.0166239
-0.000149494
0.0166173
-0.000101334
0.0166048
-4.79554e-05
0.0165861
1.05393e-05
0.0165608
7.39202e-05
0.0165288
0.000141877
0.0164899
0.000213906
0.0164439
0.000289357
0.0163909
0.000367423
0.016331
0.000447139
0.0162646
0.000527384
0.0161921
0.000606899
0.000684305
0.0161284
-0.000334606
0.0161441
-0.000306983
0.0161557
-0.000274693
0.0161628
-0.000237317
0.0161648
-0.000194491
0.0161614
-0.000146058
0.016152
-9.19712e-05
0.0161363
-3.225e-05
0.0161139
3.29182e-05
0.0160845
0.000103309
0.0160479
0.000178495
0.0160039
0.000257891
0.0159526
0.000340744
0.0158939
0.000426128
0.0158281
0.000512939
0.0157555
0.000599911
0.0156768
0.000685629
0.000768551
0.0156921
-0.000353917
0.0157073
-0.00032222
0.015718
-0.000285399
0.0157237
-0.000243004
0.0157239
-0.00019466
0.015718
-0.00014023
0.0157058
-7.97023e-05
0.0156866
-1.31128e-05
0.0156603
5.92296e-05
0.0156265
0.000137111
0.015585
0.000219983
0.0155357
0.000307164
0.0154787
0.000397787
0.015414
0.000490792
0.015342
0.000584931
0.0152632
0.000678779
0.0151781
0.000770753
0.000859141
0.0152744
-0.000373208
0.0152892
-0.000336962
0.0152989
-0.000295114
0.0153031
-0.000247183
0.0153012
-0.000192785
0.0152928
-0.000131812
0.0152774
-6.42901e-05
0.0152546
9.65529e-06
0.0152241
8.97421e-05
0.0151856
0.000175601
0.015139
0.000266618
0.0150841
0.000362001
0.0150212
0.000460751
0.0149503
0.000561667
0.0148719
0.000663344
0.0147865
0.000764186
0.0146948
0.000862433
0.000956195
0.0148746
-0.000392444
0.0148888
-0.000351127
0.0148974
-0.000303713
0.0148999
-0.000249689
0.0148958
-0.000188669
0.0148845
-0.00012058
0.0148657
-4.54955e-05
0.014839
3.63702e-05
0.014804
0.000124724
0.0147606
0.000219066
0.0147085
0.00031869
0.0146478
0.000422681
0.0145787
0.000529902
0.0145013
0.000638997
0.0144163
0.000748389
0.0143242
0.000856305
0.0142258
0.000960798
0.00105979
0.0144917
-0.000411539
0.0145051
-0.000364579
0.0145124
-0.000311015
0.014513
-0.000250301
0.0145064
-0.000182054
0.0144921
-0.000106253
0.0144696
-2.30099e-05
0.0144386
6.73442e-05
0.0143988
0.0001645
0.0143501
0.000267828
0.0142923
0.000376511
0.0142254
0.000489502
0.0141498
0.000605513
0.0140658
0.000723018
0.0139739
0.000840262
0.013875
0.00095528
0.0137698
0.00106593
0.00116995
0.0141246
-0.000430325
0.0141371
-0.000377095
0.0141429
-0.000316749
0.0141413
-0.000248706
0.0141318
-0.000172597
0.014114
-8.84573e-05
0.0140875
3.52062e-06
0.0140519
0.000102962
0.0140069
0.00020945
0.0139525
0.000322254
0.0138886
0.000440429
0.0138153
0.00056278
0.013733
0.000687857
0.013642
0.000813955
0.0135432
0.000939126
0.0134372
0.00106121
0.0133253
0.00117786
0.0132086
0.00128661
0.00138494
0.0137723
-0.000448501
0.0137835
-0.000388322
0.0137873
-0.000320515
0.0137831
-0.000244467
0.0137703
-0.000159835
0.0137486
-6.67202e-05
0.0137175
3.45847e-05
0.0136768
0.000143689
0.0136262
0.000260026
0.0135657
0.000382764
0.0134953
0.000510819
0.0134152
0.000642839
0.0133259
0.000777196
0.0132279
0.000911994
0.0131219
0.00104508
0.013009
0.00117409
0.0128904
0.00129648
0.0127674
0.00140959
0.00151071
0.0134332
-0.000465561
0.0134426
-0.000397707
0.0134438
-0.000321722
0.0134363
-0.000236965
0.0134196
-0.000143139
0.0133933
-4.04158e-05
0.0133571
7.08025e-05
0.0133107
0.000190093
0.0132539
0.000316752
0.0131869
0.000449826
0.0131096
0.000588079
0.0130225
0.00072999
0.0129259
0.000873744
0.0128207
0.00101724
0.0127076
0.00115813
0.0125879
0.00129382
0.0124628
0.0123339
0.0131052
0.0131119
0.0131097
0.013098
0.0130766
0.0130449
0.0130028
0.01295
0.0128866
0.0128125
0.012728
0.0126335
0.0125296
0.0124172
0.0122973
)
;

boundaryField
{
    inlet
    {
        type            calculated;
        value           nonuniform 0();
    }
    outlet
    {
        type            calculated;
        value           nonuniform 0();
    }
    cylinder
    {
        type            calculated;
        value           nonuniform 0();
    }
    top
    {
        type            symmetryPlane;
        value           nonuniform 0();
    }
    bottom
    {
        type            symmetryPlane;
        value           uniform 0;
    }
    defaultFaces
    {
        type            empty;
        value           nonuniform 0();
    }
    procBoundary4to3
    {
        type            processor;
        value           nonuniform List<scalar> 
24
(
-0.0257288
-0.0248472
-0.0240109
-0.0232162
-0.0224601
-0.0217399
-0.0210533
-0.0203984
-0.0197733
-0.0191763
-0.018606
-0.018061
-0.0175399
-0.0170417
-0.0165651
-0.0161091
-0.0156727
-0.0152551
-0.0148554
-0.0144726
-0.0141058
-0.0137541
-0.0134161
-0.01309
)
;
    }
    procBoundary4to5
    {
        type            processor;
        value           nonuniform List<scalar> 
21
(
0.0258279
0.0249354
0.024082
0.0232649
0.0224818
0.0217303
0.0210086
0.0203148
0.0196473
0.0190044
0.0183848
0.0177872
0.0172103
0.0166529
0.016114
0.0155926
0.0150875
0.0145977
0.0141222
0.0136597
-0.00126498
)
;
    }
    procBoundary4to10
    {
        type            processor;
        value           nonuniform List<scalar> 
20
(
0.00142157
0.00153853
0.00164183
-0.000480695
-0.000404422
-0.000319518
-0.000225337
-0.000121668
-8.73386e-06
0.000112915
0.000242852
0.000380219
0.000523925
0.000672577
0.000824474
0.000977603
0.00112966
0.00127807
0.012171
0.00142004
)
;
    }
    procBoundary4to11
    {
        type            processor;
        value           nonuniform List<scalar> 3(0.0130887 0.0126416 0.0122028);
    }
}


// ************************************************************************* //
