0.0826367 	0.499829 	1.00497e-18 	0.114806 	-0.00216734 	2.0836e-17
