/*--------------------------------*- C++ -*----------------------------------*\
  =========                 |
  \\      /  F ield         | OpenFOAM: The Open Source CFD Toolbox
   \\    /   O peration     | Website:  https://openfoam.org
    \\  /    A nd           | Version:  7
     \\/     M anipulation  |
\*---------------------------------------------------------------------------*/
FoamFile
{
    version     2.0;
    format      ascii;
    class       volScalarField;
    location    "213";
    object      p;
}
// * * * * * * * * * * * * * * * * * * * * * * * * * * * * * * * * * * * * * //

dimensions      [0 2 -2 0 0 0 0];

internalField   nonuniform List<scalar> 
12400
(
-0.383845
-0.38664
-0.388338
-0.389648
-0.390987
-0.392494
-0.394265
-0.39634
-0.398695
-0.401239
-0.403811
-0.406156
-0.407916
-0.408623
-0.407729
-0.404679
-0.399088
-0.391064
-0.381353
-0.370905
-0.393563
-0.396203
-0.397908
-0.39937
-0.401009
-0.402986
-0.405409
-0.408327
-0.411725
-0.415515
-0.419522
-0.423451
-0.426854
-0.429107
-0.429409
-0.426838
-0.420525
-0.410024
-0.395646
-0.377379
-0.403686
-0.406076
-0.407736
-0.409316
-0.411231
-0.413657
-0.416714
-0.42046
-0.424887
-0.429911
-0.435337
-0.440839
-0.445877
-0.449669
-0.451158
-0.449052
-0.441981
-0.428897
-0.409753
-0.383218
-0.41407
-0.416121
-0.417684
-0.41934
-0.42149
-0.424326
-0.427976
-0.432505
-0.437909
-0.444104
-0.450888
-0.457877
-0.464458
-0.469683
-0.472245
-0.470484
-0.462542
-0.446714
-0.422848
-0.387918
-0.424555
-0.426189
-0.427599
-0.429283
-0.431616
-0.434802
-0.438978
-0.444212
-0.450503
-0.457762
-0.46577
-0.474098
-0.482047
-0.488508
-0.49192
-0.490277
-0.481283
-0.462493
-0.434102
-0.390719
-0.434965
-0.436121
-0.437327
-0.438984
-0.441434
-0.444892
-0.449502
-0.455334
-0.462384
-0.470556
-0.479606
-0.489059
-0.49813
-0.505544
-0.509496
-0.507659
-0.497405
-0.475344
-0.442909
-0.390759
-0.445125
-0.445764
-0.44672
-0.44829
-0.450779
-0.454415
-0.459345
-0.465641
-0.473292
-0.482187
-0.492059
-0.50238
-0.512259
-0.520289
-0.524418
-0.522024
-0.510343
-0.484661
-0.448406
-0.388601
-0.454874
-0.454975
-0.455644
-0.457066
-0.45951
-0.463214
-0.468334
-0.474936
-0.483005
-0.49241
-0.502851
-0.513752
-0.524092
-0.532385
-0.536308
-0.532952
-0.519317
-0.490586
-0.450559
-0.38445
-0.464068
-0.46364
-0.463992
-0.465206
-0.467515
-0.47117
-0.476332
-0.483072
-0.491359
-0.501044
-0.511791
-0.522955
-0.533446
-0.541592
-0.544948
-0.540298
-0.524608
-0.492752
-0.449343
-0.378923
-0.472599
-0.471671
-0.471687
-0.472637
-0.47472
-0.478204
-0.48326
-0.489956
-0.498258
-0.507992
-0.518783
-0.529911
-0.540213
-0.547869
-0.550303
-0.544066
-0.526215
-0.491355
-0.445141
-0.372269
-0.480394
-0.479017
-0.478692
-0.479326
-0.481097
-0.484288
-0.489086
-0.495563
-0.503678
-0.513236
-0.523833
-0.534638
-0.544444
-0.551289
-0.552477
-0.544399
-0.524289
-0.486746
-0.438321
-0.36475
-0.487426
-0.485667
-0.485003
-0.48528
-0.486659
-0.489445
-0.493841
-0.499933
-0.507672
-0.51684
-0.526953
-0.537248
-0.546292
-0.552032
-0.551674
-0.541546
-0.519112
-0.479334
-0.429321
-0.356593
-0.49371
-0.491647
-0.490656
-0.490543
-0.491463
-0.493742
-0.49761
-0.503166
-0.510364
-0.518969
-0.528462
-0.537966
-0.545992
-0.550354
-0.548175
-0.535827
-0.511063
-0.469572
-0.418671
-0.348005
-0.499305
-0.497019
-0.495721
-0.495195
-0.495601
-0.497292
-0.500523
-0.505418
-0.511936
-0.519819
-0.528518
-0.537047
-0.543827
-0.546556
-0.542299
-0.527608
-0.500597
-0.457947
-0.406933
-0.339201
-0.504312
-0.501879
-0.500295
-0.499343
-0.499198
-0.500238
-0.502752
-0.506888
-0.512615
-0.519657
-0.527407
-0.534788
-0.5401
-0.540943
-0.534378
-0.517286
-0.488214
-0.444982
-0.394637
-0.330392
-0.508865
-0.506351
-0.5045
-0.503118
-0.5024
-0.502751
-0.504494
-0.507805
-0.512657
-0.518756
-0.525427
-0.531483
-0.5351
-0.533808
-0.524748
-0.505279
-0.474425
-0.431207
-0.382208
-0.321724
-0.513128
-0.510577
-0.508478
-0.506667
-0.505369
-0.505016
-0.505961
-0.508404
-0.512327
-0.517395
-0.522855
-0.527401
-0.529083
-0.525421
-0.513746
-0.492025
-0.459739
-0.417095
-0.369881
-0.313199
-0.517286
-0.514716
-0.512378
-0.510145
-0.508273
-0.50722
-0.507365
-0.508925
-0.511872
-0.515825
-0.519931
-0.522755
-0.522259
-0.51603
-0.501723
-0.477974
-0.444653
-0.403031
-0.357622
-0.304666
-0.521529
-0.518933
-0.516354
-0.513707
-0.511279
-0.509545
-0.508902
-0.509574
-0.511505
-0.514247
-0.516831
-0.517704
-0.514797
-0.505878
-0.489043
-0.463575
-0.429669
-0.38933
-0.345269
-0.296116
-0.526048
-0.523388
-0.520556
-0.517503
-0.51454
-0.512152
-0.510744
-0.510522
-0.511386
-0.512795
-0.513662
-0.512348
-0.506842
-0.495206
-0.476058
-0.449243
-0.415241
-0.376313
-0.333162
-0.288038
-0.531016
-0.528228
-0.525121
-0.521666
-0.518188
-0.515177
-0.513019
-0.511888
-0.51161
-0.511535
-0.510468
-0.506748
-0.498524
-0.484249
-0.463082
-0.435308
-0.401649
-0.364238
-0.322721
-0.281053
-0.536585
-0.533581
-0.530164
-0.526306
-0.522331
-0.518715
-0.515813
-0.513734
-0.512206
-0.510467
-0.507248
-0.500944
-0.48997
-0.473226
-0.450372
-0.422
-0.388959
-0.353057
-0.314175
-0.276099
-0.542869
-0.53955
-0.53578
-0.531508
-0.527042
-0.522827
-0.519162
-0.516063
-0.513146
-0.509544
-0.50397
-0.494967
-0.481298
-0.462322
-0.438113
-0.409435
-0.377151
-0.342821
-0.306345
-0.270994
-0.54995
-0.546207
-0.542034
-0.537331
-0.532364
-0.527536
-0.52306
-0.518837
-0.514361
-0.50869
-0.500591
-0.488844
-0.472612
-0.451676
-0.426409
-0.397638
-0.366173
-0.333301
-0.298962
-0.265978
-0.557872
-0.553597
-0.548967
-0.543806
-0.538317
-0.532836
-0.527467
-0.52198
-0.515751
-0.507813
-0.497067
-0.482604
-0.463995
-0.441373
-0.415296
-0.38657
-0.355909
-0.324361
-0.291853
-0.260766
-0.566647
-0.56174
-0.556601
-0.550946
-0.544895
-0.538695
-0.53232
-0.525394
-0.517204
-0.50682
-0.493357
-0.476266
-0.455498
-0.431446
-0.404754
-0.37615
-0.34624
-0.315852
-0.284902
-0.255429
-0.576261
-0.570633
-0.564934
-0.558746
-0.552078
-0.545066
-0.537531
-0.528961
-0.518596
-0.505618
-0.489425
-0.469844
-0.447145
-0.421887
-0.394722
-0.366274
-0.33704
-0.307657
-0.27804
-0.249928
-0.586679
-0.580254
-0.573951
-0.567187
-0.559828
-0.551877
-0.542995
-0.532553
-0.519804
-0.50412
-0.485238
-0.463336
-0.438927
-0.41265
-0.385114
-0.356828
-0.328188
-0.29967
-0.2712
-0.244258
-0.597832
-0.590559
-0.583618
-0.576228
-0.568086
-0.559038
-0.548587
-0.536028
-0.520701
-0.502248
-0.480761
-0.456726
-0.430811
-0.403669
-0.375831
-0.347697
-0.319572
-0.291799
-0.264326
-0.238393
-0.609645
-0.601485
-0.593879
-0.585809
-0.576768
-0.56643
-0.554159
-0.539233
-0.521167
-0.499928
-0.475959
-0.449981
-0.422742
-0.394857
-0.366766
-0.338767
-0.311089
-0.283963
-0.257364
-0.23231
-0.622009
-0.612946
-0.604653
-0.595839
-0.585756
-0.573904
-0.559542
-0.542011
-0.521083
-0.497092
-0.470788
-0.443054
-0.414651
-0.386123
-0.357814
-0.329935
-0.302645
-0.276089
-0.250267
-0.225986
-0.63479
-0.624825
-0.615827
-0.606191
-0.594899
-0.58128
-0.564548
-0.544198
-0.520339
-0.493671
-0.465198
-0.435885
-0.406457
-0.377369
-0.348872
-0.321101
-0.294155
-0.268109
-0.242988
-0.219395
-0.647822
-0.636972
-0.627256
-0.616704
-0.604004
-0.588346
-0.568973
-0.545635
-0.518827
-0.489597
-0.459128
-0.428403
-0.398075
-0.368499
-0.339842
-0.312175
-0.285543
-0.259966
-0.235486
-0.212514
-0.660902
-0.649204
-0.638751
-0.62717
-0.612845
-0.594867
-0.572608
-0.546164
-0.516446
-0.484798
-0.452511
-0.420532
-0.389415
-0.359419
-0.330634
-0.303074
-0.276739
-0.251604
-0.227723
-0.205322
-0.673794
-0.661299
-0.650089
-0.637347
-0.621159
-0.600588
-0.57524
-0.545634
-0.513094
-0.479198
-0.445273
-0.412188
-0.380388
-0.350039
-0.321162
-0.293724
-0.267681
-0.242976
-0.219664
-0.197799
-0.686229
-0.673002
-0.661006
-0.646953
-0.628659
-0.605245
-0.576661
-0.543903
-0.508676
-0.472719
-0.437336
-0.403287
-0.370907
-0.340274
-0.311349
-0.284056
-0.258314
-0.234039
-0.211278
-0.189926
-0.697904
-0.684022
-0.671204
-0.655678
-0.63504
-0.608574
-0.576673
-0.540835
-0.503095
-0.465279
-0.428617
-0.393746
-0.360889
-0.330046
-0.301125
-0.274011
-0.248588
-0.224755
-0.202537
-0.181687
-0.708493
-0.694041
-0.680358
-0.663192
-0.639991
-0.610316
-0.575089
-0.536305
-0.496259
-0.456796
-0.419037
-0.383485
-0.350257
-0.319284
-0.290426
-0.263535
-0.238462
-0.215091
-0.193416
-0.173071
-0.71765
-0.702721
-0.688124
-0.669152
-0.643202
-0.610229
-0.57174
-0.530195
-0.488077
-0.447189
-0.408516
-0.372426
-0.338939
-0.307923
-0.279197
-0.252581
-0.227897
-0.205018
-0.183897
-0.164071
-0.725018
-0.709708
-0.694146
-0.673216
-0.644379
-0.608089
-0.566471
-0.522399
-0.478466
-0.436382
-0.39698
-0.360499
-0.326871
-0.295907
-0.26739
-0.24111
-0.216863
-0.194511
-0.173963
-0.154687
-0.73024
-0.714645
-0.698068
-0.675052
-0.643245
-0.603697
-0.559149
-0.512822
-0.467346
-0.424301
-0.384362
-0.347643
-0.313998
-0.283188
-0.254965
-0.229089
-0.205333
-0.18355
-0.163602
-0.144913
-0.732963
-0.717181
-0.699545
-0.674347
-0.639553
-0.596878
-0.549658
-0.501381
-0.454648
-0.410884
-0.370601
-0.333803
-0.300272
-0.269728
-0.241889
-0.216491
-0.193287
-0.172125
-0.152809
-0.134724
-0.732853
-0.716979
-0.698251
-0.670819
-0.63309
-0.587492
-0.537906
-0.488007
-0.440314
-0.396075
-0.355649
-0.318935
-0.285656
-0.255492
-0.228134
-0.203294
-0.18071
-0.16023
-0.141598
-0.124084
-0.729601
-0.713727
-0.693893
-0.664221
-0.623678
-0.575424
-0.523819
-0.472646
-0.424296
-0.379832
-0.339467
-0.303007
-0.270119
-0.240455
-0.213679
-0.18948
-0.167601
-0.147866
-0.129972
-0.113021
-0.722932
-0.707148
-0.686213
-0.65435
-0.611182
-0.560593
-0.507348
-0.455262
-0.406562
-0.362123
-0.322025
-0.28599
-0.253638
-0.224598
-0.198524
-0.175046
-0.153976
-0.135047
-0.117846
-0.101648
-0.712611
-0.697005
-0.675
-0.641046
-0.595504
-0.542951
-0.488468
-0.435836
-0.387093
-0.342929
-0.303302
-0.267865
-0.236215
-0.207918
-0.182686
-0.160039
-0.139805
-0.121746
-0.105288
-0.0899227
-0.698451
-0.683107
-0.660093
-0.624202
-0.576592
-0.522479
-0.467175
-0.414367
-0.365884
-0.322244
-0.283297
-0.248631
-0.217878
-0.190473
-0.16613
-0.144425
-0.125119
-0.107979
-0.0923289
-0.0778441
-0.680317
-0.665318
-0.641382
-0.603758
-0.554433
-0.499191
-0.443489
-0.390869
-0.342945
-0.300087
-0.262045
-0.228366
-0.198589
-0.172225
-0.148897
-0.128221
-0.109931
-0.0937698
-0.0789873
-0.06543
-0.658127
-0.643553
-0.618814
-0.579703
-0.529051
-0.473132
-0.417456
-0.365376
-0.318311
-0.276514
-0.239572
-0.207036
-0.178404
-0.153201
-0.13101
-0.111455
-0.0942641
-0.0791446
-0.0652831
-0.0527064
-0.631857
-0.617787
-0.592387
-0.55207
-0.500509
-0.444383
-0.389147
-0.33795
-0.29208
-0.25153
-0.215903
-0.184685
-0.157356
-0.133439
-0.112499
-0.0941584
-0.0781465
-0.0641307
-0.0512429
-0.0397028
-0.601539
-0.588048
-0.562156
-0.520946
-0.468925
-0.413051
-0.358653
-0.308702
-0.264253
-0.225207
-0.191094
-0.161365
-0.13549
-0.112984
-0.0934036
-0.0763697
-0.061613
-0.0487608
-0.0369001
-0.026453
-0.567262
-0.55442
-0.528233
-0.486501
-0.434499
-0.379206
-0.326048
-0.27769
-0.234941
-0.197624
-0.165214
-0.13714
-0.112861
-0.091887
-0.0737701
-0.0581322
-0.0447039
-0.0330736
-0.0222956
-0.012997
-0.529162
-0.517042
-0.490796
-0.448964
-0.397418
-0.34287
-0.291479
-0.245037
-0.20425
-0.168873
-0.138347
-0.112083
-0.0895356
-0.070208
-0.0536526
-0.0394951
-0.0274643
-0.0171128
-0.00747675
0.000617423
-0.48741
-0.476119
-0.45008
-0.40846
-0.357342
-0.304657
-0.25516
-0.210888
-0.172299
-0.13906
-0.110587
-0.0862796
-0.0655879
-0.0480139
-0.0331117
-0.0205132
-0.00994327
-0.000923392
0.00750978
0.0143413
-0.442223
-0.431907
-0.406289
-0.364865
-0.315198
-0.264488
-0.217252
-0.1754
-0.139222
-0.108304
-0.0820389
-0.0598224
-0.0411012
-0.0253789
-0.0122145
-0.00124741
0.0078059
0.0154514
0.022626
0.0281361
-0.393848
-0.384681
-0.35946
-0.318948
-0.271033
-0.2226
-0.177938
-0.138743
-0.105168
-0.0767347
-0.0528197
-0.0328143
-0.0161667
-0.00238395
0.00896562
0.0182354
0.025727
0.0319687
0.0378309
0.0419614
-0.342557
-0.334766
-0.310081
-0.270967
-0.225092
-0.179243
-0.137422
-0.101097
-0.0702966
-0.0444949
-0.0230542
-0.0053661
0.00911796
0.020884
0.0303505
0.0378675
0.0437677
0.0485807
0.0530317
0.0556603
-0.288786
-0.282436
-0.258659
-0.221169
-0.177654
-0.134674
-0.095926
-0.0626559
-0.0347802
-0.0117357
0.00712369
0.022404
0.0346484
0.0443325
0.0518598
0.0575869
0.0618883
0.0652308
0.0680293
0.0687921
-0.233191
-0.227944
-0.205465
-0.169881
-0.129022
-0.0891636
-0.0536851
-0.0236243
0.0012005
0.0213829
0.0375726
0.0503712
0.0603143
0.0678641
0.0734119
0.0773366
0.0800516
0.0818381
0.0825808
0.0809672
-0.175913
-0.171843
-0.150859
-0.117455
-0.0795133
-0.0429893
-0.0109431
0.0157832
0.0374565
0.0546937
0.0681448
0.0784051
0.086
0.0913771
0.0949224
0.0970493
0.0981758
0.0982584
0.096646
0.0932015
-0.117368
-0.114577
-0.0952417
-0.0642571
-0.0294552
0.00356131
0.0320482
0.0553449
0.073792
0.0880238
0.0986877
0.106371
0.111586
0.114768
0.116303
0.116633
0.116114
0.114318
0.110412
0.108382
-0.0580143
-0.0565717
-0.0390274
-0.0106623
0.0208186
0.050195
0.0750312
0.0948339
0.110007
0.121196
0.129045
0.13413
0.136951
0.137931
0.137461
0.135981
0.133732
0.130081
0.124716
0.123272
0.00169107
0.00173782
0.0173659
0.0429484
0.0709709
0.0966154
0.117745
0.13402
0.145897
0.154031
0.159057
0.161542
0.161972
0.160761
0.158298
0.155002
0.151008
0.145674
0.13921
0.137344
0.0612885
0.0599097
0.0735188
0.0961938
0.120664
0.142525
0.159928
0.172672
0.181258
0.186347
0.188565
0.188466
0.186525
0.183144
0.17871
0.173605
0.167898
0.161032
0.153558
0.150795
0.120319
0.117501
0.129014
0.148696
0.169563
0.18763
0.20132
0.210559
0.215886
0.217964
0.217408
0.214761
0.210485
0.204973
0.198599
0.191711
0.184346
0.176047
0.167537
0.163656
0.17833
0.174072
0.18344
0.200083
0.217339
0.231637
0.241662
0.247453
0.24958
0.248702
0.245429
0.240289
0.23373
0.226136
0.217867
0.209241
0.200281
0.190618
0.18105
0.175952
0.234875
0.229193
0.236394
0.249991
0.263667
0.274262
0.280704
0.28313
0.282139
0.278388
0.272473
0.264911
0.256138
0.246526
0.23642
0.226114
0.215624
0.204655
0.194025
0.187667
0.28952
0.282444
0.287486
0.298068
0.308238
0.31523
0.318199
0.317374
0.313374
0.30685
0.298389
0.288495
0.277592
0.26604
0.254169
0.24225
0.230301
0.218084
0.206409
0.198776
0.341849
0.333421
0.336341
0.343978
0.35075
0.354275
0.353914
0.349976
0.343097
0.333924
0.323031
0.310912
0.297978
0.284577
0.271024
0.257571
0.244239
0.230839
0.218148
0.209251
0.391464
0.38174
0.382602
0.387399
0.39092
0.391144
0.387623
0.380737
0.371133
0.359453
0.346262
0.33204
0.317188
0.302042
0.286902
0.272003
0.25737
0.242858
0.229196
0.219061
0.437987
0.42704
0.425934
0.42803
0.42848
0.425599
0.419115
0.409468
0.397314
0.38329
0.36795
0.351763
0.33512
0.318345
0.301723
0.285475
0.269631
0.254088
0.239507
0.228177
0.481071
0.468981
0.466024
0.465589
0.463179
0.45742
0.448194
0.435994
0.421485
0.405297
0.387974
0.369974
0.351679
0.333401
0.315413
0.297922
0.280966
0.264475
0.249038
0.236571
0.520391
0.507255
0.502586
0.499821
0.49479
0.486402
0.474678
0.460155
0.443504
0.425347
0.40622
0.386573
0.366776
0.347134
0.327905
0.309284
0.291319
0.273971
0.257749
0.244218
0.555658
0.54158
0.53536
0.530492
0.523105
0.512363
0.498404
0.481804
0.463239
0.443324
0.422588
0.40147
0.380334
0.359473
0.339137
0.319507
0.300644
0.282534
0.265604
0.251095
0.586612
0.571709
0.564118
0.557396
0.547942
0.535138
0.519227
0.500813
0.480577
0.459128
0.436987
0.414586
0.39228
0.370356
0.349052
0.328543
0.308896
0.290124
0.27257
0.257184
0.61303
0.597426
0.588662
0.580356
0.569143
0.554588
0.53702
0.51707
0.495418
0.472669
0.449338
0.42585
0.402553
0.379729
0.357605
0.336349
0.316038
0.296706
0.278618
0.262468
0.634725
0.61855
0.608825
0.599224
0.586574
0.570594
0.551679
0.530481
0.507678
0.483874
0.459576
0.435205
0.411104
0.387547
0.364755
0.34289
0.322039
0.302251
0.283725
0.266936
0.651547
0.63494
0.624475
0.613879
0.600131
0.583062
0.56312
0.54097
0.517292
0.492683
0.467649
0.442604
0.417889
0.393773
0.37047
0.348138
0.326874
0.306737
0.287871
0.270577
0.663386
0.646488
0.635515
0.624236
0.609734
0.591923
0.571281
0.548483
0.524209
0.499053
0.473517
0.448014
0.422878
0.398379
0.374726
0.352073
0.330522
0.310145
0.291043
0.273386
0.67017
0.653127
0.641883
0.630237
0.615336
0.597132
0.576122
0.552984
0.528397
0.502955
0.477155
0.45141
0.426053
0.401349
0.377507
0.354679
0.332971
0.312462
0.293228
0.275355
0.671869
0.654827
0.64355
0.631859
0.616913
0.598669
0.577625
0.554457
0.529844
0.504377
0.478553
0.452784
0.427402
0.402674
0.378806
0.355951
0.334215
0.313682
0.294421
0.276484
0.668493
0.651597
0.640527
0.62911
0.614473
0.596542
0.575797
0.552908
0.528553
0.503321
0.477713
0.452138
0.42693
0.402356
0.378625
0.355889
0.334255
0.313807
0.294624
0.276775
0.660091
0.643486
0.632858
0.62203
0.608052
0.590782
0.570665
0.548361
0.524545
0.499809
0.474651
0.449486
0.424648
0.400406
0.376972
0.354501
0.333098
0.312843
0.293843
0.276231
0.646754
0.630581
0.620622
0.61069
0.597714
0.581445
0.56228
0.540861
0.517862
0.493874
0.4694
0.444856
0.42058
0.396845
0.373866
0.351804
0.330757
0.310801
0.292087
0.274857
0.628612
0.613007
0.603936
0.595194
0.58355
0.568613
0.550714
0.530474
0.508559
0.485568
0.462003
0.438287
0.41476
0.391702
0.369334
0.34782
0.327253
0.3077
0.28937
0.27266
0.605832
0.590924
0.582947
0.575676
0.56568
0.552393
0.536063
0.517281
0.496713
0.474955
0.452519
0.42983
0.407234
0.385017
0.363408
0.342578
0.322612
0.303564
0.285711
0.269649
0.578619
0.564531
0.557838
0.5523
0.544249
0.532915
0.518441
0.501387
0.482412
0.462118
0.441019
0.419547
0.398057
0.376838
0.356132
0.336115
0.316866
0.298422
0.281134
0.265837
0.547216
0.534059
0.528825
0.525258
0.519429
0.510329
0.497984
0.482912
0.465765
0.447149
0.427585
0.407512
0.387292
0.367222
0.347554
0.328475
0.310054
0.292308
0.275669
0.261239
0.511896
0.499775
0.49615
0.494769
0.491416
0.484811
0.474846
0.461993
0.446893
0.430157
0.412314
0.393809
0.375013
0.356233
0.337732
0.319707
0.302219
0.285262
0.269346
0.255875
0.472968
0.461972
0.460089
0.461081
0.460427
0.456554
0.4492
0.438782
0.425932
0.411262
0.39531
0.378531
0.361303
0.343944
0.326728
0.309866
0.29341
0.277328
0.262203
0.249766
0.430767
0.420978
0.420941
0.424463
0.426703
0.425772
0.421236
0.41345
0.403031
0.390597
0.376692
0.361781
0.346252
0.330433
0.314611
0.299012
0.283681
0.268552
0.254277
0.242936
0.385657
0.377141
0.379032
0.385206
0.390503
0.392694
0.391158
0.386176
0.378351
0.368302
0.356583
0.343669
0.329957
0.315787
0.301457
0.287211
0.27309
0.258988
0.245613
0.235412
0.338027
0.330836
0.33471
0.343625
0.352106
0.357567
0.359184
0.357155
0.352063
0.34453
0.335119
0.324313
0.312523
0.300095
0.287347
0.274535
0.261699
0.248689
0.236254
0.227222
0.288283
0.28246
0.288341
0.300049
0.311805
0.320651
0.325545
0.326592
0.32435
0.319442
0.31244
0.303839
0.294058
0.283456
0.272363
0.261056
0.249575
0.237716
0.226248
0.218396
0.236854
0.232423
0.240309
0.254825
0.269907
0.282218
0.290481
0.294699
0.295399
0.293204
0.288695
0.282376
0.274677
0.265969
0.256595
0.246854
0.236789
0.226134
0.215647
0.208963
0.184177
0.181153
0.191013
0.208312
0.22673
0.24255
0.254243
0.261698
0.265406
0.265989
0.264035
0.260057
0.2545
0.247739
0.240133
0.232008
0.223417
0.214015
0.204503
0.198948
0.130704
0.129084
0.14086
0.160879
0.182602
0.201935
0.217085
0.227814
0.234571
0.237974
0.238616
0.237022
0.233645
0.228873
0.223071
0.216597
0.209533
0.201444
0.192888
0.188372
0.0768906
0.0766576
0.0902653
0.112902
0.137858
0.160668
0.179267
0.193277
0.203098
0.209338
0.212597
0.213409
0.212238
0.209479
0.205504
0.200702
0.19521
0.188515
0.180891
0.177223
0.0231937
0.024317
0.0396478
0.064761
0.0928339
0.119046
0.141052
0.158319
0.171191
0.180263
0.186137
0.189358
0.190401
0.189668
0.187531
0.184401
0.180506
0.175333
0.168709
0.165492
-0.0299301
-0.0275004
-0.0105748
0.0168379
0.0478687
0.0773677
0.102701
0.123172
0.139054
0.150927
0.159395
0.16501
0.168257
0.169547
0.169252
0.167782
0.165466
0.161955
0.156632
0.153052
-0.0820271
-0.0783651
-0.0599889
-0.0304896
0.00329858
0.0359278
0.064474
0.0880624
0.106889
0.12151
0.132529
0.140503
0.145927
0.149224
0.150763
0.150935
0.150124
0.148303
0.144985
0.140332
-0.132667
-0.127846
-0.108192
-0.0768513
-0.0405454
-0.00498291
0.0266255
0.0532159
0.0748938
0.0921864
0.105693
0.115974
0.123532
0.128801
0.132156
0.133958
0.134594
0.134316
0.133047
0.129873
-0.181566
-0.17546
-0.154806
-0.121889
-0.0833396
-0.0450814
-0.0105974
0.0188498
0.0432608
0.0631258
0.079036
0.091554
0.101187
0.10838
0.113516
0.116938
0.119002
0.120122
0.120653
0.119445
-0.228334
-0.22082
-0.199519
-0.165266
-0.12477
-0.0840958
-0.0469575
-0.0148268
0.0121748
0.0344915
0.052703
0.067371
0.0790049
0.0880581
0.0949244
0.0999402
0.103426
0.10585
0.107835
0.108227
-0.272395
-0.263668
-0.241996
-0.206702
-0.164531
-0.121771
-0.0822301
-0.0476146
-0.0181887
0.00643866
0.0268309
0.0435459
0.0570934
0.0679308
0.0764616
0.0830234
0.0879086
0.0915871
0.0948077
0.0965014
-0.313461
-0.303698
-0.28152
-0.246154
-0.202341
-0.157875
-0.116203
-0.0793262
-0.0476645
-0.0208866
0.00154898
0.020193
0.0355529
0.0480871
0.0582054
0.0662494
0.0724945
0.0773917
0.0817504
0.0846308
-0.351287
-0.340642
-0.318147
-0.282456
-0.238335
-0.192194
-0.148672
-0.109788
-0.0760996
-0.0473487
-0.0230226
-0.00258145
0.0144776
0.028611
0.0402307
0.0496832
0.0572345
0.0633114
0.0687489
0.072757
-0.385665
-0.374232
-0.351698
-0.316032
-0.271613
-0.22452
-0.179455
-0.138838
-0.103354
-0.0728237
-0.0467736
-0.0246793
-0.00604547
0.0095799
0.0226078
0.0333881
0.0421819
0.0493877
0.0558434
0.06092
-0.416413
-0.404259
-0.381912
-0.346665
-0.30222
-0.254552
-0.208379
-0.166331
-0.129299
-0.0972
-0.0696046
-0.0460119
-0.0259372
-0.00893538
0.00540072
0.0174221
0.027387
0.0356617
0.04307
0.0491541
-0.44339
-0.43058
-0.408598
-0.374105
-0.330063
-0.282202
-0.235297
-0.192138
-0.153826
-0.12038
-0.0914273
-0.0665004
-0.045127
-0.0268712
-0.0113334
0.00183704
0.0128963
0.0221752
0.0304709
0.0375023
-0.466505
-0.453114
-0.431647
-0.398203
-0.354988
-0.307362
-0.260106
-0.21618
-0.176828
-0.142281
-0.112166
-0.086076
-0.0635537
-0.0441711
-0.0275438
-0.0133208
-0.00124806
0.00896834
0.0180883
0.0260062
-0.485725
-0.471833
-0.451012
-0.418875
-0.376878
-0.32992
-0.282708
-0.238352
-0.198279
-0.162821
-0.131756
-0.104681
-0.0811658
-0.0607846
-0.043188
-0.0280105
-0.0150083
-0.00392366
0.00595819
0.0147011
-0.501077
-0.486766
-0.466696
-0.436089
-0.395665
-0.349795
-0.303028
-0.258585
-0.218081
-0.181983
-0.150167
-0.122266
-0.0979222
-0.0766678
-0.058231
-0.0421954
-0.0283522
-0.0164706
-0.0058909
0.00361675
-0.512643
-0.498
-0.47876
-0.44986
-0.411327
-0.366942
-0.321021
-0.276839
-0.236195
-0.19971
-0.167359
-0.138836
-0.113776
-0.0917871
-0.072645
-0.0558426
-0.0412539
-0.0286455
-0.0174379
-0.00722208
-0.520566
-0.505679
-0.487319
-0.460255
-0.423881
-0.381351
-0.336663
-0.293095
-0.252604
-0.215976
-0.183297
-0.154329
-0.128738
-0.106184
-0.0863637
-0.0689287
-0.0536938
-0.0404225
-0.0286642
-0.0177987
-0.525036
-0.509998
-0.492543
-0.467393
-0.433391
-0.393044
-0.349958
-0.30735
-0.267306
-0.230777
-0.197973
-0.168734
-0.142771
-0.119773
-0.0994347
-0.0814737
-0.0656472
-0.0517813
-0.0395423
-0.0281165
-0.526295
-0.511203
-0.494656
-0.471444
-0.439963
-0.402077
-0.360933
-0.319619
-0.280312
-0.244124
-0.211396
-0.182056
-0.155868
-0.132551
-0.11183
-0.0934362
-0.0771234
-0.0627415
-0.0500041
-0.0382194
-0.524623
-0.509578
-0.493923
-0.472625
-0.443748
-0.40854
-0.369642
-0.329937
-0.29165
-0.256039
-0.223584
-0.19431
-0.16804
-0.144531
-0.123536
-0.104806
-0.0881056
-0.0732874
-0.060121
-0.048012
-0.520334
-0.505442
-0.490649
-0.471198
-0.444937
-0.412558
-0.376163
-0.338357
-0.301359
-0.266555
-0.234564
-0.205517
-0.179303
-0.155724
-0.134561
-0.115589
-0.0985883
-0.0834141
-0.0698867
-0.0574382
-0.513769
-0.499134
-0.485167
-0.467459
-0.443762
-0.414291
-0.380598
-0.34495
-0.309495
-0.275717
-0.244373
-0.215705
-0.189681
-0.166148
-0.144918
-0.125795
-0.108576
-0.0931183
-0.0792856
-0.0665295
-0.505282
-0.491012
-0.47783
-0.461733
-0.440488
-0.413928
-0.383075
-0.349802
-0.316123
-0.28358
-0.253055
-0.224913
-0.199202
-0.175824
-0.154626
-0.135438
-0.118078
-0.102404
-0.0883213
-0.0753212
-0.495233
-0.481431
-0.468997
-0.454364
-0.43541
-0.411691
-0.383743
-0.353014
-0.321318
-0.290203
-0.260663
-0.233182
-0.2079
-0.184779
-0.163704
-0.144534
-0.127107
-0.111285
-0.0970056
-0.0838283
-0.483976
-0.470743
-0.459024
-0.445701
-0.428841
-0.407825
-0.382776
-0.354704
-0.325163
-0.295653
-0.267253
-0.240561
-0.215815
-0.193045
-0.172178
-0.153103
-0.13568
-0.119775
-0.105351
-0.0920547
-0.471853
-0.459281
-0.448253
-0.436092
-0.421104
-0.402596
-0.380366
-0.355002
-0.327749
-0.300002
-0.272884
-0.2471
-0.22299
-0.200657
-0.180077
-0.161168
-0.143817
-0.127893
-0.113372
-0.100006
-0.459185
-0.447355
-0.437001
-0.425864
-0.412521
-0.396285
-0.376724
-0.354051
-0.329173
-0.303319
-0.277615
-0.252852
-0.229471
-0.207654
-0.187432
-0.168756
-0.151539
-0.135657
-0.121085
-0.107696
-0.446262
-0.435241
-0.425553
-0.415324
-0.403403
-0.389175
-0.372076
-0.35201
-0.32954
-0.305679
-0.281503
-0.257865
-0.235299
-0.214074
-0.194276
-0.175895
-0.15887
-0.14309
-0.128511
-0.115142
-0.433342
-0.423181
-0.414158
-0.40474
-0.394037
-0.381546
-0.366657
-0.349046
-0.328958
-0.307153
-0.284603
-0.262185
-0.240517
-0.219952
-0.200641
-0.182614
-0.165836
-0.150214
-0.135674
-0.122367
-0.420642
-0.411378
-0.403023
-0.394341
-0.384679
-0.373662
-0.360704
-0.345339
-0.327545
-0.307812
-0.286961
-0.265851
-0.24516
-0.225323
-0.206559
-0.188941
-0.172464
-0.157056
-0.1426
-0.129394
-0.408342
-0.399993
-0.392312
-0.384313
-0.375543
-0.365759
-0.354444
-0.341073
-0.325423
-0.307728
-0.288621
-0.268893
-0.249257
-0.230215
-0.212057
-0.194905
-0.178781
-0.163643
-0.149318
-0.136253
-0.396581
-0.38915
-0.382148
-0.374797
-0.366803
-0.35804
-0.348089
-0.336434
-0.322723
-0.306976
-0.289618
-0.271333
-0.252823
-0.234646
-0.217158
-0.200531
-0.184813
-0.170002
-0.155859
-0.142975
-0.385458
-0.378935
-0.372615
-0.365888
-0.358583
-0.350666
-0.341824
-0.331596
-0.319579
-0.305633
-0.289986
-0.273178
-0.255863
-0.238626
-0.221876
-0.205838
-0.190585
-0.176164
-0.162256
-0.149596
-0.375036
-0.369398
-0.363759
-0.357643
-0.350964
-0.343753
-0.335798
-0.326719
-0.316125
-0.303783
-0.289757
-0.274429
-0.258368
-0.242147
-0.226213
-0.21084
-0.196119
-0.182155
-0.168545
-0.156156
-0.365346
-0.360566
-0.3556
-0.350083
-0.343983
-0.337372
-0.330118
-0.321937
-0.312488
-0.301514
-0.288968
-0.275082
-0.260313
-0.245186
-0.230157
-0.215539
-0.201433
-0.188005
-0.174763
-0.162701
-0.356396
-0.352441
-0.348132
-0.3432
-0.337644
-0.331551
-0.324851
-0.317349
-0.308782
-0.298919
-0.287664
-0.275135
-0.261666
-0.247705
-0.23368
-0.219924
-0.206533
-0.193739
-0.180955
-0.169282
-0.348179
-0.345011
-0.341337
-0.336967
-0.331922
-0.326284
-0.320024
-0.313021
-0.305101
-0.296092
-0.285904
-0.274596
-0.262394
-0.249651
-0.236732
-0.223966
-0.211418
-0.199381
-0.187163
-0.175964
-0.340684
-0.338261
-0.335188
-0.331351
-0.32678
-0.321543
-0.315633
-0.308988
-0.301514
-0.29312
-0.283763
-0.273493
-0.262473
-0.250967
-0.239248
-0.227615
-0.216066
-0.204944
-0.193443
-0.182811
-0.333904
-0.332179
-0.329665
-0.326319
-0.322179
-0.317292
-0.311661
-0.305264
-0.298076
-0.290088
-0.281327
-0.271884
-0.261908
-0.251604
-0.241154
-0.230799
-0.220435
-0.210431
-0.19983
-0.18994
-0.327843
-0.326762
-0.324756
-0.321849
-0.31809
-0.313503
-0.30809
-0.301857
-0.294832
-0.287076
-0.2787
-0.26986
-0.260741
-0.251544
-0.242378
-0.233429
-0.224449
-0.215823
-0.206393
-0.197415
-0.322519
-0.322022
-0.320461
-0.317939
-0.314507
-0.310168
-0.304921
-0.298787
-0.291832
-0.284174
-0.275999
-0.267545
-0.25907
-0.250816
-0.24288
-0.23541
-0.228016
-0.221046
-0.21312
-0.205548
-0.317965
-0.317973
-0.316802
-0.314603
-0.311446
-0.307308
-0.302182
-0.2961
-0.289148
-0.281489
-0.273369
-0.265106
-0.257046
-0.249521
-0.242676
-0.236673
-0.231001
-0.226022
-0.219968
-0.214251
-0.314216
-0.314645
-0.313798
-0.311874
-0.308943
-0.304968
-0.299934
-0.293871
-0.286882
-0.279156
-0.270984
-0.262747
-0.254884
-0.247837
-0.241869
-0.237196
-0.233324
-0.230434
-0.227152
-0.223578
-0.311304
-0.312064
-0.311479
-0.309783
-0.307045
-0.303208
-0.298248
-0.292198
-0.285159
-0.277335
-0.269042
-0.26071
-0.252855
-0.246027
-0.240662
-0.23705
-0.234965
-0.234125
-0.23416
-0.232422
-0.309248
-0.310248
-0.309868
-0.308362
-0.305794
-0.302089
-0.297213
-0.291187
-0.284112
-0.276194
-0.267758
-0.259258
-0.251266
-0.244426
-0.239367
-0.236443
-0.235962
-0.236934
-0.240111
-0.24069
-0.308045
-0.3092
-0.308977
-0.307633
-0.305223
-0.301657
-0.296886
-0.290922
-0.283857
-0.275886
-0.267329
-0.258646
-0.250437
-0.243408
-0.238374
-0.235731
-0.236507
-0.238862
-0.245006
-0.248351
-0.307669
-0.308906
-0.308801
-0.3076
-0.305345
-0.301933
-0.297304
-0.291455
-0.284466
-0.276514
-0.267904
-0.259078
-0.250642
-0.243331
-0.238109
-0.235381
-0.237004
-0.24013
-0.249241
-0.255245
-0.308073
-0.30934
-0.309322
-0.308251
-0.306153
-0.302916
-0.298469
-0.292797
-0.285963
-0.278123
-0.269554
-0.260674
-0.252067
-0.244473
-0.23895
-0.235883
-0.237975
-0.241183
-0.253263
-0.261293
-0.309195
-0.310461
-0.310513
-0.309563
-0.307625
-0.304583
-0.300357
-0.294923
-0.288323
-0.280694
-0.272278
-0.263458
-0.254784
-0.246981
-0.241146
-0.237649
-0.23988
-0.24269
-0.257399
-0.266528
-0.310967
-0.312226
-0.31234
-0.311506
-0.309734
-0.306902
-0.30293
-0.297785
-0.291493
-0.284166
-0.276013
-0.267373
-0.258755
-0.250863
-0.244779
-0.240913
-0.242999
-0.24536
-0.261822
-0.271386
-0.313326
-0.314592
-0.314771
-0.314054
-0.312449
-0.309841
-0.306149
-0.301335
-0.295411
-0.288464
-0.280667
-0.272316
-0.263877
-0.256023
-0.249793
-0.245712
-0.247434
-0.24963
-0.266682
-0.27668
-0.316217
-0.317523
-0.31778
-0.317182
-0.31575
-0.313375
-0.309982
-0.305531
-0.300025
-0.29352
-0.286157
-0.278184
-0.270029
-0.262326
-0.256055
-0.251899
-0.25316
-0.255535
-0.272233
-0.283074
-0.319607
-0.320997
-0.321348
-0.320877
-0.319623
-0.31749
-0.314414
-0.310354
-0.305302
-0.299292
-0.292426
-0.284901
-0.277118
-0.269659
-0.263437
-0.259309
-0.260087
-0.262835
-0.278721
-0.290675
-0.323481
-0.325001
-0.325468