/*--------------------------------*- C++ -*----------------------------------*\
  =========                 |
  \\      /  F ield         | OpenFOAM: The Open Source CFD Toolbox
   \\    /   O peration     | Website:  https://openfoam.org
    \\  /    A nd           | Version:  7
     \\/     M anipulation  |
\*---------------------------------------------------------------------------*/
FoamFile
{
    version     2.0;
    format      ascii;
    class       volScalarField;
    location    "13";
    object      p;
}
// * * * * * * * * * * * * * * * * * * * * * * * * * * * * * * * * * * * * * //

dimensions      [0 2 -2 0 0 0 0];

internalField   nonuniform List<scalar> 
433
(
-525.658
-495.976
-468.408
-437.812
-400.151
-356.42
-308.113
-258.374
-210.9
-168.688
-133.126
-104.11
-80.494
-61.033
-44.9801
-32.0401
-22.027
-14.6316
-9.36494
-5.74093
-3.34155
-1.80361
-0.857775
-0.300834
0.0113743
99.9212
100.262
100.555
98.6148
95.7909
95.6979
98.9146
103.194
104.866
100.96
90.8218
76.408
60.604
45.82
33.3691
23.5869
16.2611
10.966
7.23861
4.69775
3.02575
1.96662
1.32265
0.946821
0.735259
545.553
524.083
504.75
476.399
435.305
387.87
338.617
290.745
245.954
204.886
167.597
134.068
104.665
79.714
59.2123
42.8591
30.1858
20.6766
13.7802
8.97019
5.73734
3.64636
2.35752
1.59665
1.16346
152.98
144.812
134.359
116.023
89.9024
62.2335
37.8702
18.5591
4.2154
-5.58038
-11.37
-13.3878
-12.4633
-9.87236
-6.82611
-4.12449
-2.09528
-0.739989
0.0962134
0.580146
0.838781
0.964487
1.01658
1.02294
1.0118
0.994873
-479.778
-454.82
-432.315
-408.543
-380.325
-348.357
-312.869
-275.325
-238.046
-202.543
-169.085
-137.942
-109.324
-83.6861
-61.636
-43.6028
-29.5965
-19.2213
-11.8579
-6.85316
-3.58173
-1.51591
-0.26772
0.454428
0.848408
1.04627
-352.822
-331.803
-312.589
-291.215
-263.854
-230.174
-191.142
-149.806
-110.301
-77.0817
-52.5054
-36.1652
-25.8625
-19.0497
-13.9807
-9.90095
-6.64153
-4.12698
-2.26735
-0.932863
-0.014825
0.58212
0.94988
1.16786
1.28848
1.34719
356.03
345.104
335.392
319.76
297.157
273.354
250.637
228.533
205.193
179.442
151.794
123.764
97.3262
74.045
54.6546
39.2683
27.5549
18.93
12.7792
8.54459
5.73902
3.95497
2.8727
2.24252
1.89166
1.70589
1.61222
479.102
457.93
437.229
406.864
363.721
314.841
266.218
221.423
181.566
146.734
116.735
91.357
70.4555
53.5918
40.143
29.5279
21.2801
15.0285
10.4517
7.23952
5.06577
3.66372
2.80219
2.2972
2.01579
1.86803
1.79486
-116.411
-112.241
-110.748
-113.472
-118.753
-122.955
-123.18
-119.033
-111.615
-102.054
-90.7836
-77.6865
-63.3904
-49.0873
-36.0421
-25.1197
-16.5971
-10.3112
-5.88294
-2.87778
-0.903535
0.347705
1.10102
1.53429
1.77354
1.89693
1.95318
1.97234
-551.774
-521.14
-492.905
-462.068
-424.833
-382.384
-335.859
-287.947
-241.586
-198.993
-161.174
-128.277
-99.8675
-75.5226
-55.0982
-38.5744
-25.7969
-16.3725
-9.70147
-5.15002
-2.16384
-0.280725
0.871758
1.54555
1.91614
2.10347
2.18553
2.21059
2.20687
-77.286
-69.1159
-61.8419
-54.8198
-45.5633
-31.6582
-13.1128
7.62089
26.1571
38.377
42.5544
39.9944
33.6178
26.2408
19.6096
14.3637
10.472
7.71705
5.83444
4.57732
3.761
3.24779
2.92795
2.73379
2.61587
2.54177
2.49201
2.45533
2.42538
518.733
499.772
483.087
458.302
422.338
381.468
339.043
296.865
255.716
216.251
179.032
144.632
113.79
87.2129
65.2023
47.6164
34.0409
23.8962
16.5594
11.4452
8.01616
5.80214
4.43865
3.62207
3.15133
2.89039
2.7496
2.67348
2.62957
2.59998
306.549
291.877
275.85
250.747
215.153
175.959
138.874
106.596
79.7331
58.2394
41.7459
29.92
22.0314
16.9319
13.5123
10.9979
8.98156
7.32016
5.99156
4.98596
4.24993
3.73736
3.40037
3.18371
3.04753
2.96303
2.90931
-368.613
-350.703
-335.229
-320.032
-302.535
-282.278
-258.473
-231.783
-203.872
-176.261
-149.328
-123.224
-98.3137
-75.356
-55.2399
-38.6139
-25.6389
-16.0036
-9.1564
-4.48962
-1.41144
0.534939
1.71051
-472.32
-445.143
-420.114
-392.357
-357.975
-317.206
-271.317
-223.313
-177.113
-136.437
-103.332
-77.8446
-58.4933
-43.4123
-31.2963
-21.5608
-13.9782
-8.31967
-4.25022
214.299
209.94
205.76
197.382
185.313
174.369
166.141
159.378
150.968
138.369
121.056
100.824
80.2717
61.5524
45.8389
536.357
514.329
493.959
464.219
421.381
372.217
322.021
274.341
230.64
191.22
155.967
124.725
48.4466
44.8095
38.7682
26.3955
8.31229
-10.1794
-24.9602
-34.8559
-524.116
-495.982
-470.317
-276.345
-263.825
-253.974
)
;

boundaryField
{
    inlet
    {
        type            zeroGradient;
    }
    outlet
    {
        type            fixedValue;
        value           nonuniform 0();
    }
    cylinder
    {
        type            zeroGradient;
    }
    top
    {
        type            symmetryPlane;
    }
    bottom
    {
        type            symmetryPlane;
    }
    defaultFaces
    {
        type            empty;
    }
    procBoundary21to15
    {
        type            processor;
        value           nonuniform List<scalar> 
26
(
-245.94
-237.383
-226.613
-212.04
-193.968
-173.915
-153.229
-132.166
-110.766
-89.5239
-69.4385
-51.6383
-36.8888
-25.3943
-16.8805
-10.8426
-6.73066
-4.01263
-2.2821
-1.22984
-0.616073
-0.271491
384.937
366.847
347.942
-245.94
)
;
    }
    procBoundary21to16
    {
        type            processor;
        value           uniform 0.175019;
    }
    procBoundary21to22
    {
        type            processor;
        value           nonuniform List<scalar> 
16
(
0.619848
0.92946
0.92946
0.976564
1.13319
1.36873
1.36873
1.5664
1.76013
1.76013
1.97181
1.97181
2.18988
2.3987
2.3987
2.57551
)
;
    }
    procBoundary21to27
    {
        type            processor;
        value           nonuniform List<scalar> 
37
(
2.87239
2.84362
2.81797
2.39545
2.77232
2.96271
2.87239
3.04625
-1.4277
0.461329
1.67828
2.39545
2.42765
33.4153
24.0319
17.1995
-1.4277
12.3659
97.7212
75.0797
33.4153
56.6079
-40.445
-42.4366
-41.401
97.7212
-37.3921
-442.711
-409.812
-372.658
-331.841
-40.445
-289.282
-245.862
-229.85
-442.711
-215.525
)
;
    }
}


// ************************************************************************* //
