/*--------------------------------*- C++ -*----------------------------------*\
  =========                 |
  \\      /  F ield         | OpenFOAM: The Open Source CFD Toolbox
   \\    /   O peration     | Website:  https://openfoam.org
    \\  /    A nd           | Version:  7
     \\/     M anipulation  |
\*---------------------------------------------------------------------------*/
FoamFile
{
    version     2.0;
    format      ascii;
    class       volVectorField;
    location    "9";
    object      U;
}
// * * * * * * * * * * * * * * * * * * * * * * * * * * * * * * * * * * * * * //

dimensions      [0 1 -1 0 0 0 0];

internalField   nonuniform List<vector> 
15600
(
(0.6407 -1.81452 -1.49217e-18)
(1.41448 -2.79118 5.37368e-18)
(1.56536 -1.82361 -1.48995e-18)
(0.889813 -0.120623 -4.07734e-19)
(-0.474852 1.98177 -2.00602e-18)
(-1.98596 4.421 1.31266e-18)
(-3.3431 6.28032 -3.01208e-18)
(-4.20171 6.62286 2.91622e-18)
(-4.36856 5.37262 -7.38607e-19)
(-3.91916 3.34884 -1.37913e-18)
(-3.11176 1.48783 1.56098e-18)
(-2.22714 0.247403 -3.07009e-19)
(-1.46071 -0.376711 -1.08186e-18)
(-0.895195 -0.573391 5.33675e-19)
(-0.521056 -0.535035 1.392e-19)
(-0.291176 -0.399248 -2.91572e-19)
(-0.158036 -0.248434 6.17291e-19)
(-0.084505 -0.124681 -1.97881e-19)
(-0.0449314 -0.0416514 -1.78904e-19)
(-0.0242949 0.00502636 9.55176e-20)
(-0.0145934 0.0264052 2.67042e-20)
(-0.0114618 0.0333034 -4.68942e-20)
(-0.0122684 0.0334236 -1.53253e-20)
(-0.0152893 0.0311817 2.45104e-20)
(-0.0193333 0.0286662 -1.30322e-20)
(-0.0234881 0.0265917 1.49392e-20)
(-0.0272553 0.0250519 -1.16624e-20)
(-0.0305853 0.0239296 -1.3273e-20)
(-0.0335795 0.0231102 -3.73137e-21)
(-0.0363379 0.0225142 1.49297e-20)
(-0.0389517 0.0220873 5.77613e-21)
(-0.0414908 0.0217957 -2.39655e-20)
(-0.044004 0.0216192 1.35169e-20)
(-0.0465202 0.0215473 2.56458e-20)
(-0.0490519 0.0215753 -3.28135e-20)
(-0.051601 0.0217038 9.58294e-21)
(-0.0541693 0.021945 2.00362e-21)
(-0.0567266 0.0223488 9.27225e-22)
(-0.0592814 0.0224409 -1.29494e-20)
(-0.0618075 0.0214267 2.49397e-20)
(-0.128541 -2.59036 -6.3003e-19)
(-0.603661 -2.56403 2.62686e-18)
(-1.60144 1.66298 2.0955e-19)
(-2.76319 6.27105 -4.30842e-18)
(-3.84139 9.31921 9.89554e-19)
(-4.71041 10.7849 1.50457e-18)
(-5.06192 10.3096 -3.6212e-18)
(-4.76592 7.85963 2.58828e-18)
(-3.96709 4.19055 8.12435e-19)
(-2.95908 0.603698 -1.3712e-18)
(-1.99523 -1.83686 -6.40387e-19)
(-1.19996 -2.8294 2.25983e-18)
(-0.603301 -2.71905 1.12336e-20)
(-0.203029 -2.05998 -1.17397e-18)
(0.0224232 -1.2977 -1.17314e-19)
(0.116666 -0.670958 -1.15215e-19)
(0.131922 -0.250705 5.42519e-19)
(0.108204 -0.0145407 -3.24661e-20)
(0.072693 0.0922221 2.58498e-20)
(0.0397518 0.122922 5.57522e-20)
(0.014323 0.116579 1.43457e-20)
(-0.00330828 0.0970286 -2.12697e-20)
(-0.0148953 0.0763109 -2.10664e-20)
(-0.0223014 0.0592904 3.49995e-20)
(-0.0268336 0.0469891 -3.11696e-20)
(-0.0297288 0.0387777 -2.28583e-20)
(-0.0319155 0.0335494 1.35608e-20)
(-0.033844 0.0302817 -2.20091e-20)
(-0.0357125 0.0282699 -2.05141e-20)
(-0.0376207 0.0270439 -3.89663e-21)
(-0.0396135 0.0263046 -2.1003e-20)
(-0.0416972 0.0258668 1.23487e-20)
(-0.0438607 0.0256224 -2.13189e-21)
(-0.046087 0.0255113 1.75154e-20)
(-0.0483585 0.0255038 -4.88748e-20)
(-0.050659 0.0255889 3.85652e-20)
(-0.0529795 0.0257748 -9.02945e-21)
(-0.0552954 0.0261118 4.10332e-21)
(-0.0575683 0.0261192 9.82542e-21)
(-0.0597995 0.0250115 -4.59617e-20)
(-0.813979 0.428811 9.16009e-18)
(-1.91914 1.31013 4.39113e-18)
(-2.89442 2.7384 -1.58645e-17)
(-3.09195 4.80909 8.07569e-18)
(-2.4336 6.35502 -8.75232e-18)
(-1.31089 6.25409 2.24581e-17)
(0.0643401 4.49557 -5.55697e-18)
(1.34995 1.75771 -3.27596e-19)
(2.24498 -1.13488 -4.47123e-19)
(2.6011 -3.48302 6.95341e-18)
(2.45422 -4.83313 -1.05348e-17)
(1.99968 -5.07773 3.08381e-21)
(1.46045 -4.45116 -6.39936e-19)
(0.984381 -3.37488 4.38116e-18)
(0.618735 -2.25119 -2.32487e-18)
(0.354425 -1.32874 -5.46542e-19)
(0.173993 -0.688568 1.33684e-18)
(0.0610384 -0.302124 -5.97439e-19)
(-0.00351259 -0.0980539 5.97565e-19)
(-0.0369258 -0.00527504 -1.86679e-19)
(-0.0511195 0.0290161 -1.66367e-19)
(-0.0542219 0.0371745 -7.38988e-20)
(-0.0519098 0.0361124 1.52304e-19)
(-0.0476221 0.0332864 -8.01901e-21)
(-0.0434767 0.0311129 1.75439e-20)
(-0.0403392 0.0299069 -3.2307e-21)
(-0.0384603 0.0293686 3.21472e-20)
(-0.0377186 0.0291876 -3.59815e-20)
(-0.0378277 0.0291511 2.50179e-20)
(-0.0385782 0.0291469 1.09204e-20)
(-0.0397914 0.0291315 2.01758e-20)
(-0.0413194 0.0291006 -4.53093e-21)
(-0.0430479 0.0290668 -2.66485e-20)
(-0.0448964 0.0290476 -1.35321e-20)
(-0.0468106 0.0290611 1.25933e-20)
(-0.0487546 0.0291259 1.5302e-20)
(-0.0507093 0.0292676 4.87852e-20)
(-0.052657 0.0295463 -4.20078e-20)
(-0.0545085 0.0294822 5.25078e-20)
(-0.0563057 0.0282996 -4.63484e-20)
(-0.301209 2.04207 -1.52073e-19)
(0.0509274 1.37769 -3.02984e-18)
(1.0633 -2.00698 1.58006e-18)
(2.51473 -3.83036 -9.32951e-20)
(3.98639 -3.78327 1.3392e-18)
(5.25606 -3.28877 -8.94031e-19)
(5.97775 -2.80377 4.53683e-19)
(6.03354 -2.49047 -1.13696e-18)
(5.52647 -2.48416 3.01766e-19)
(4.65425 -2.76082 1.003e-18)
(3.62155 -3.11612 -2.38182e-18)
(2.59549 -3.30307 2.07617e-18)
(1.6968 -3.16262 -2.17226e-18)
(0.998395 -2.7051 1.01187e-18)
(0.516032 -2.07544 -3.96336e-19)
(0.22303 -1.44377 1.96336e-19)
(0.0686252 -0.92325 4.64435e-20)
(-0.00176474 -0.551437 -2.44293e-20)
(-0.0285068 -0.312711 -1.12985e-19)
(-0.0352436 -0.170222 -2.20919e-20)
(-0.0344627 -0.0883624 1.59625e-20)
(-0.0319249 -0.041563 1.0854e-20)
(-0.0299601 -0.014044 -2.82057e-21)
(-0.0291454 0.00286352 -1.60059e-20)
(-0.0293025 0.0137106 1.62575e-20)
(-0.0301728 0.0208185 -1.98109e-20)
(-0.0314861 0.0254646 -1.3556e-20)
(-0.0330097 0.0284402 -1.29544e-20)
(-0.0346275 0.0302637 -5.03283e-21)
(-0.0362743 0.0313119 6.82253e-21)
(-0.0379264 0.0318616 -1.67213e-20)
(-0.0395666 0.0321115 1.60389e-20)
(-0.041185 0.0321972 -6.87046e-21)
(-0.0427754 0.0322091 1.22246e-20)
(-0.0443333 0.0322073 -8.27571e-21)
(-0.0458552 0.0322338 -1.07531e-20)
(-0.0473414 0.0323273 -7.33291e-21)
(-0.0487977 0.0325544 -5.57976e-21)
(-0.0500873 0.0324377 2.11888e-20)
(-0.0513111 0.0312095 -1.98685e-20)
(0.812269 -0.273079 5.25238e-18)
(2.32772 -2.25766 2.18312e-17)
(3.56064 -4.71643 2.38122e-17)
(3.94032 -5.3504 -2.71191e-17)
(3.34141 -3.86357 -7.16875e-18)
(2.24482 -1.11747 2.30958e-17)
(0.862593 1.70007 -5.0029e-18)
(-0.409195 3.50027 -2.07752e-18)
(-1.21446 3.84089 -3.11354e-18)
(-1.47043 3.06166 -1.69488e-18)
(-1.33337 1.82103 -7.41834e-18)
(-1.03097 0.645042 1.41005e-17)
(-0.732194 -0.1998 7.33423e-18)
(-0.504468 -0.651238 -7.73473e-18)
(-0.345318 -0.772155 4.51064e-18)
(-0.233251 -0.682923 -6.68483e-18)
(-0.152482 -0.507035 1.51884e-18)
(-0.0945672 -0.329933 6.57809e-19)
(-0.0544677 -0.190654 -3.45877e-19)
(-0.0285665 -0.0961377 4.45828e-19)
(-0.0143305 -0.0381943 -5.08044e-19)
(-0.00907943 -0.00498293 8.41406e-20)
(-0.00961999 0.0134077 -3.91701e-20)
(-0.013049 0.0235218 1.75781e-19)
(-0.0174978 0.0291106 -1.53644e-20)
(-0.0219277 0.0322331 -4.76221e-21)
(-0.0258764 0.0339702 -6.18956e-21)
(-0.0292227 0.0348805 4.52365e-20)
(-0.0319608 0.035292 1.71725e-21)
(-0.0341831 0.0354061 -3.58981e-21)
(-0.0360042 0.0353566 1.33764e-20)
(-0.037531 0.035229 1.04105e-20)
(-0.0388461 0.0350777 -1.07359e-20)
(-0.0400073 0.0349384 8.04612e-21)
(-0.041052 0.0348361 -7.66901e-20)
(-0.042003 0.0347924 1.20477e-20)
(-0.0428755 0.0348352 5.51038e-20)
(-0.0436951 0.0350249 -2.91055e-20)
(-0.0442709 0.0348864 -3.25857e-20)
(-0.0447773 0.0336566 7.25853e-20)
(0.851682 -2.3468 1.60586e-17)
(1.29177 -2.72522 -1.81638e-17)
(0.530517 -0.0140912 5.31268e-18)
(-0.952746 2.86037 1.49013e-17)
(-2.80725 4.97311 -1.49835e-17)
(-4.63814 6.69405 8.49657e-19)
(-5.98834 7.49107 4.40025e-18)
(-6.41129 6.74811 4.03407e-18)
(-5.83081 4.60283 -3.74873e-18)
(-4.59355 2.00977 2.15654e-18)
(-3.18291 -0.0288247 2.67332e-18)
(-1.94612 -1.10254 -4.38261e-18)
(-1.03157 -1.36475 1.48834e-19)
(-0.444412 -1.17003 -8.51022e-19)
(-0.119836 -0.817401 3.14886e-18)
(0.0249462 -0.477894 -1.82093e-18)
(0.0658476 -0.220376 1.27176e-18)
(0.0602826 -0.0538988 2.32999e-19)
(0.0411537 0.0379809 1.43146e-19)
(0.022072 0.0781847 7.77377e-21)
(0.00709807 0.0879473 -4.66831e-19)
(-0.00381598 0.0830073 2.3591e-19)
(-0.0120292 0.0730749 3.5792e-20)
(-0.0184973 0.0631204 -2.33769e-20)
(-0.0234418 0.0550727 -4.95898e-20)
(-0.0270512 0.0491623 9.57667e-20)
(-0.0296848 0.0450169 8.56759e-20)
(-0.0316291 0.0421889 -1.36015e-19)
(-0.0330905 0.0402871 8.95639e-20)
(-0.0341987 0.0390148 -1.81454e-20)
(-0.0350523 0.0381588 -1.36637e-19)
(-0.0357198 0.0375759 8.59761e-20)
(-0.036244 0.0371738 -1.88635e-19)
(-0.0366492 0.036898 7.7082e-20)
(-0.0369479 0.0367209 9.89958e-20)
(-0.0371456 0.0366362 2.46062e-20)
(-0.0372461 0.0366595 -5.08614e-20)
(-0.0372799 0.0368453 2.76713e-19)
(-0.0369869 0.0367308 4.24809e-20)
(-0.0366282 0.0355621 -4.20215e-20)
(-0.0749871 -2.01489 1.24153e-17)
(-0.930713 -2.06501 -5.02335e-17)
(-2.7485 1.28649 4.22445e-17)
(-4.4688 5.36833 7.1036e-19)
(-5.51956 8.31341 1.67121e-19)
(-5.92356 9.57344 -3.64386e-17)
(-5.44512 8.81959 6.88621e-18)
(-4.17063 6.27951 6.07858e-18)
(-2.51595 2.79596 -6.60969e-19)
(-0.984441 -0.504515 8.49059e-18)
(0.0881184 -2.74017 -1.40062e-17)
(0.647096 -3.61939 2.48222e-17)
(0.81541 -3.40359 -1.83509e-17)
(0.756693 -2.60306 -2.43041e-18)
(0.592506 -1.68198 1.66247e-18)
(0.402628 -0.914697 3.89737e-18)
(0.236708 -0.390545 -2.28321e-18)
(0.114294 -0.0879183 -9.02932e-19)
(0.0336006 0.0563239 2.92393e-18)
(-0.0142625 0.10649 -4.32192e-19)
(-0.0389093 0.110116 5.89348e-19)
(-0.0489716 0.095936 -4.09501e-19)
(-0.0507495 0.0787698 -3.3429e-19)
(-0.0485273 0.0645832 6.20337e-19)
(-0.0451962 0.054544 -2.03346e-19)
(-0.0420883 0.0479882 -1.17121e-19)
(-0.0394969 0.0439465 1.0344e-19)
(-0.0374687 0.0414957 4.6123e-20)
(-0.0359611 0.0400334 -4.74632e-20)
(-0.034879 0.0391566 4.86152e-20)
(-0.0340915 0.0386109 -2.35669e-20)
(-0.033478 0.0382516 5.17145e-20)
(-0.0329404 0.0380001 -1.94702e-19)
(-0.0324028 0.0378198 1.78786e-19)
(-0.0318102 0.0377011 1.86671e-19)
(-0.0311258 0.0376538 -3.48129e-19)
(-0.0303277 0.037708 3.36678e-19)
(-0.0294412 0.0379296 -3.48988e-19)
(-0.0281231 0.0378884 -9.69152e-20)
(-0.0267446 0.0368475 -2.04229e-19)
(-1.04721 1.30392 5.14829e-18)
(-1.91712 1.6589 -1.67586e-17)
(-2.14856 0.885991 2.86443e-17)
(-1.70275 1.18262 1.6479e-17)
(-0.610652 2.05079 -1.61879e-17)
(0.953246 2.10981 -4.90619e-18)
(2.64131 1.24114 -2.36134e-17)
(4.0147 -0.153321 7.78838e-18)
(4.80244 -1.68612 2.00323e-17)
(4.93832 -3.04356 1.63739e-17)
(4.50822 -3.94773 -1.72845e-17)
(3.7055 -4.21396 5.48058e-18)
(2.76622 -3.85552 7.2654e-18)
(1.88445 -3.0808 -1.14287e-18)
(1.17108 -2.17887 -1.46894e-17)
(0.655394 -1.3798 5.51628e-18)
(0.317393 -0.789755 -1.08752e-18)
(0.116332 -0.41152 2.26501e-18)
(0.00926284 -0.195497 -1.25921e-18)
(-0.0406103 -0.0831519 1.949e-18)
(-0.0595852 -0.0285895 -8.18679e-19)
(-0.062808 -0.00237659 8.63806e-21)
(-0.0588008 0.0112348 2.20569e-19)
(-0.0526559 0.0193399 4.59121e-19)
(-0.0467989 0.0248431 -5.116e-19)
(-0.0419774 0.0289419 8.37096e-20)
(-0.0383242 0.0320156 1.45135e-19)
(-0.0356219 0.0342385 -3.17501e-19)
(-0.0335223 0.035786 2.13965e-19)
(-0.03187 0.0367885 3.99744e-19)
(-0.0305025 0.0373826 -4.62782e-20)
(-0.0292623 0.0376945 -8.00598e-19)
(-0.0280355 0.0378249 4.65909e-19)
(-0.0267397 0.0378539 -3.32268e-19)
(-0.0253178 0.0378469 -1.59337e-19)
(-0.0237341 0.0378611 6.45185e-19)
(-0.021966 0.0379578 -3.87606e-19)
(-0.0200451 0.0382184 -8.57958e-20)
(-0.0175358 0.0382499 5.81179e-19)
(-0.0149693 0.0372857 -4.06595e-19)
(-0.0699717 1.34834 1.48658e-17)
(1.28701 -0.186645 1.7856e-18)
(3.48938 -3.95331 -7.82055e-19)
(5.20247 -5.68671 1.21388e-17)
(5.96714 -4.98944 -2.02617e-17)
(6.1121 -3.26051 -1.82986e-17)
(5.63669 -1.39586 2.2644e-17)
(4.74606 -0.00956678 1.53943e-17)
(3.77106 0.551497 -1.43842e-17)
(2.92602 0.342012 1.50234e-19)
(2.2536 -0.298563 -1.78449e-17)
(1.70156 -0.983206 2.2127e-17)
(1.2233 -1.43696 -1.10224e-17)
(0.811288 -1.55428 -8.71223e-19)
(0.484253 -1.38943 6.41201e-18)
(0.254873 -1.07801 -5.99237e-18)
(0.114551 -0.748933 1.2895e-18)
(0.0390949 -0.477354 1.75231e-18)
(0.00408219 -0.284008 -4.40156e-19)
(-0.00901031 -0.159011 -3.77363e-19)
(-0.012764 -0.0827062 1.15033e-19)
(-0.0143108 -0.0371845 3.65156e-20)
(-0.0163039 -0.0099123 1.98059e-19)
(-0.018709 0.00694156 -1.16664e-19)
(-0.0210293 0.0178344 -1.69592e-19)
(-0.0229389 0.0250846 2.64741e-19)
(-0.0243089 0.0299174 -4.5264e-19)
(-0.0251033 0.0331069 -2.22423e-19)
(-0.0253128 0.035131 -4.70561e-19)
(-0.0249961 0.0363397 1.23672e-18)
(-0.0242195 0.0370035 -4.72303e-19)
(-0.0230383 0.0373156 -6.61285e-21)
(-0.0214932 0.0374149 -3.52384e-19)
(-0.019611 0.0374033 -1.15728e-19)
(-0.0174093 0.0373593 -6.20917e-19)
(-0.0149024 0.0373488 -2.31213e-19)
(-0.0121021 0.0374402 4.32756e-19)
(-0.00907371 0.0377129 -1.21755e-19)
(-0.00531434 0.0378001 4.91262e-19)
(-0.00145273 0.0368911 -4.24181e-19)
(1.16093 -0.98127 -8.80439e-18)
(2.65162 -2.12122 5.5483e-17)
(3.27515 -2.55995 -6.59039e-17)
(2.71596 -2.09977 8.02807e-17)
(1.03531 -0.667528 -6.16919e-17)
(-1.15408 1.55822 2.95655e-17)
(-3.27373 3.60623 -2.62729e-17)
(-4.63837 4.49874 -2.14004e-17)
(-4.89432 3.99598 3.93178e-17)
(-4.23842 2.67228 -7.2776e-19)
(-3.15577 1.2852 -3.04961e-17)
(-2.07242 0.261222 3.10993e-17)
(-1.21617 -0.329115 -1.33794e-17)
(-0.642229 -0.57456 -2.78621e-19)
(-0.303958 -0.58922 -1.27692e-18)
(-0.125652 -0.477744 5.65747e-18)
(-0.0429138 -0.324784 2.0375e-18)
(-0.00834867 -0.184275 -3.89922e-18)
(0.00514799 -0.0801078 6.75804e-19)
(0.00916699 -0.0147093 -1.05807e-18)
(0.00852022 0.0205562 -3.03662e-19)
(0.0052475 0.0366075 -2.8553e-20)
(0.000445351 0.042314 -1.24227e-20)
(-0.00481408 0.0433608 -3.12804e-20)
(-0.00966649 0.0427005 2.94303e-19)
(-0.0136589 0.0415984 1.20385e-19)
(-0.0165741 0.0405171 -1.10981e-18)
(-0.018379 0.0395919 1.24348e-18)
(-0.0191284 0.0388292 -3.40615e-19)
(-0.0189483 0.0381995 -3.49663e-19)
(-0.0179788 0.0376691 1.09105e-19)
(-0.0163419 0.0372126 2.75013e-19)
(-0.0141317 0.0368188 -2.79559e-19)
(-0.0114156 0.0364915 1.03824e-18)
(-0.00824132 0.0362492 2.73933e-19)
(-0.00464712 0.036125 5.28625e-19)
(-0.000662567 0.0361726 -4.30661e-19)
(0.0036167 0.0364635 8.29618e-19)
(0.00875355 0.0366681 -7.97863e-20)
(0.0139866 0.0359451 -3.42648e-19)
(1.05706 -2.52024 -1.25523e-18)
(0.975959 -2.72604 1.08685e-18)
(-1.09834 0.670897 4.22288e-18)
(-3.63634 4.1719 -5.0355e-18)
(-5.85791 6.34737 -1.62436e-19)
(-7.58831 7.52348 5.94513e-18)
(-8.34742 7.43319 8.05722e-18)
(-7.79081 5.83539 -1.04694e-17)
(-6.12112 3.13645 6.69185e-18)
(-4.01467 0.362514 -7.35915e-18)
(-2.14352 -1.53965 1.28914e-18)
(-0.839237 -2.26748 -1.24671e-18)
(-0.0950465 -2.10428 -4.83653e-18)
(0.239523 -1.52569 3.83891e-18)
(0.324317 -0.898021 -6.70568e-19)
(0.284916 -0.403092 -5.66562e-19)
(0.202471 -0.0834153 -1.20094e-18)
(0.121833 0.0874485 1.00216e-18)
(0.0612478 0.156335 -1.02945e-18)
(0.0227529 0.166714 3.88493e-19)
(0.00079718 0.14972 3.69906e-19)
(-0.010943 0.124121 6.11984e-19)
(-0.0169286 0.0996138 -5.77509e-19)
(-0.019754 0.0799373 -7.42079e-20)
(-0.0208371 0.0654929 -6.74221e-19)
(-0.0208924 0.0554171 9.88149e-19)
(-0.0202629 0.0485893 1.02204e-19)
(-0.0190963 0.0440093 -1.24325e-19)
(-0.017452 0.0409244 -1.16999e-19)
(-0.0153444 0.0388095 2.70134e-19)
(-0.012778 0.0373167 -7.60603e-19)
(-0.00974859 0.0362242 -1.01793e-19)
(-0.00624876 0.0354005 -7.14248e-19)
(-0.00227207 0.0347786 6.29973e-19)
(0.00218255 0.0343385 -9.70963e-19)
(0.00710509 0.034096 7.85823e-19)
(0.0124802 0.0341038 -1.90592e-19)
(0.0182029 0.034436 -1.16427e-18)
(0.0249115 0.0348254 1.49656e-18)
(0.0316972 0.0344181 -2.45359e-19)
(-0.44534 -0.809197 3.21808e-17)
(-1.64507 -0.692167 -3.93944e-18)
(-3.55856 1.11445 -5.26255e-17)
(-5.16919 3.79429 2.29445e-17)
(-5.78833 5.96653 -4.68279e-17)
(-5.36096 6.61959 5.94744e-17)
(-3.87574 5.58642 -4.19089e-17)
(-1.76035 3.32911 3.03693e-18)
(0.359179 0.610635 4.86108e-17)
(1.94121 -1.79925 -3.70486e-17)
(2.72345 -3.34293 -1.66565e-18)
(2.77307 -3.83009 7.55293e-18)
(2.35677 -3.44848 3.6839e-18)
(1.75577 -2.60459 1.5794e-17)
(1.16613 -1.68945 -7.0127e-18)
(0.686725 -0.940439 -8.26772e-18)
(0.346273 -0.431736 1.30479e-17)
(0.131877 -0.136504 -1.8028e-18)
(0.0130339 0.00876691 -2.79556e-18)
(-0.0429274 0.0652145 -1.02009e-18)
(-0.0624462 0.0771455 3.37644e-18)
(-0.0634808 0.0714626 -2.29643e-18)
(-0.0567177 0.0616919 -1.07358e-19)
(-0.0479446 0.0530257 4.31003e-20)
(-0.0396285 0.0467128 -4.10665e-19)
(-0.0323975 0.0425005 1.19672e-18)
(-0.0262325 0.0397399 -7.73419e-19)
(-0.0209125 0.0378406 3.40005e-19)
(-0.0161224 0.0364271 -3.03622e-19)
(-0.011575 0.0352816 6.02112e-19)
(-0.00702952 0.0342949 1.42175e-19)
(-0.00230382 0.0334189 1.08089e-18)
(0.00274024 0.032643 -1.46797e-18)
(0.008201 0.0319835 3.65801e-19)
(0.0141409 0.0314776 -1.44906e-19)
(0.0205872 0.0311825 3.06691e-19)
(0.0275459 0.0311871 1.88698e-18)
(0.0349078 0.0315928 -1.32379e-18)
(0.0433981 0.0322267 -6.8907e-20)
(0.0519423 0.032229 8.16239e-19)
(-1.2027 1.65914 1.04998e-17)
(-1.22438 1.39639 -8.72015e-18)
(0.187672 -0.861256 3.69528e-17)
(1.74673 -1.61541 -2.52984e-17)
(3.12011 -0.938574 9.73622e-19)
(4.49505 -0.285649 -1.15081e-17)
(5.59323 -0.0439195 1.03115e-17)
(6.15931 -0.205074 6.29102e-18)
(6.17264 -0.731393 -6.86172e-18)
(5.74129 -1.49577 5.11283e-18)
(4.99516 -2.24508 2.59432e-18)
(4.0594 -2.71433 -2.05101e-19)
(3.05965 -2.75449 -1.74475e-18)
(2.12404 -2.40689 -1.02239e-18)
(1.34777 -1.8506 9.77908e-19)
(0.77532 -1.27619 -5.51401e-19)
(0.399463 -0.8031 -3.67275e-19)
(0.177233 -0.468656 3.73173e-19)
(0.057143 -0.257466 -3.67613e-19)
(-0.00190182 -0.134151 9.364e-19)
(-0.0268949 -0.064739 -1.74825e-18)
(-0.0341982 -0.0255211 7.68842e-19)
(-0.033688 -0.00281981 -5.06143e-19)
(-0.0303219 0.0108197 -9.80032e-20)
(-0.0261699 0.0193043 5.36794e-19)
(-0.0218986 0.0246302 8.8509e-20)
(-0.0175747 0.0278553 -1.00889e-19)
(-0.0131365 0.0296298 8.03643e-19)
(-0.00849399 0.0304058 9.84169e-19)
(-0.0035582 0.030515 -1.75755e-19)
(0.00175446 0.0302025 4.42594e-19)
(0.00751628 0.0296498 -4.68274e-19)
(0.0137902 0.0289934 1.39517e-18)
(0.0206307 0.0283436 -1.70604e-18)
(0.0280767 0.0278001 -2.55004e-20)
(0.0361432 0.0274662 1.05721e-18)
(0.0448294 0.0274736 -4.51812e-19)
(0.054007 0.0279611 -1.98991e-18)
(0.0644866 0.0288789 1.90095e-18)
(0.0750042 0.0293693 1.41212e-18)
(0.473977 0.496394 -3.36511e-17)
(2.63813 -1.05915 9.51474e-17)
(5.24565 -3.78954 -1.72255e-17)
(6.4997 -4.7374 6.99513e-18)
(6.03803 -3.60071 -6.94463e-17)
(4.59995 -1.34649 5.93722e-17)
(2.66461 0.9591 -2.31872e-17)
(0.87068 2.46774 -1.59684e-18)
(-0.269725 2.82421 4.14544e-17)
(-0.664546 2.25305 -5.30528e-17)
(-0.558292 1.24781 1.50488e-17)
(-0.268938 0.245665 6.91351e-19)
(-0.0188566 -0.49065 8.68666e-18)
(0.111015 -0.870843 4.65188e-18)
(0.13578 -0.936011 -1.08411e-17)
(0.104036 -0.80211 -1.54267e-18)
(0.058349 -0.592323 7.59808e-18)
(0.0229137 -0.390584 -4.52837e-18)
(0.00288505 -0.23397 -2.72632e-19)
(-0.00575358 -0.127147 3.12347e-19)
(-0.00874093 -0.0603318 -6.92622e-19)
(-0.00997894 -0.0210628 -1.10266e-19)
(-0.0106365 0.00121401 5.2282e-19)
(-0.0107607 0.0136997 5.31124e-20)
(-0.0101523 0.0206669 1.24639e-19)
(-0.00867848 0.0245006 -7.77371e-19)
(-0.00626262 0.0264687 -5.66586e-19)
(-0.00287476 0.0272919 6.19151e-19)
(0.00144721 0.0274072 -1.211e-18)
(0.00663139 0.0270766 -9.24169e-19)
(0.0126234 0.0264775 1.19396e-18)
(0.019388 0.0257337 3.12153e-19)
(0.0269096 0.0249388 6.29158e-19)
(0.0351885 0.024176 1.19044e-19)
(0.0442328 0.0235353 9.69521e-20)
(0.0540414 0.0231263 -1.43135e-18)
(0.0646068 0.0231056 7.03366e-19)
(0.0757823 0.0236466 1.61007e-18)
(0.0884724 0.0248531 -2.27602e-18)
(0.101203 0.0258863 2.20994e-18)
(1.59042 -1.5176 2.26789e-17)
(2.59047 -1.9162 -1.84593e-17)
(1.79459 -0.558555 2.40458e-18)
(0.0443207 0.862865 -1.39767e-18)
(-2.27307 2.00375 5.2609e-17)
(-4.78717 3.25957 -3.27435e-17)
(-6.81367 4.10824 -1.63023e-17)
(-7.58251 3.92011 3.26629e-17)
(-6.88761 2.67245 -5.22707e-18)
(-5.24753 1.02615 7.32172e-18)
(-3.42339 -0.280918 6.5072e-18)
(-1.92691 -0.947297 -2.02793e-17)
(-0.91652 -1.08109 1.88497e-17)
(-0.337455 -0.923501 -5.02683e-18)
(-0.0613901 -0.666863 2.86358e-18)
(0.035947 -0.418594 -6.80748e-18)
(0.0450637 -0.223041 -3.50612e-18)
(0.0235808 -0.0892835 2.66663e-18)
(0.00138635 -0.00916969 1.38445e-19)
(-0.0121753 0.0315512 -3.10873e-19)
(-0.0174096 0.0472133 -3.28957e-19)
(-0.0176522 0.0493028 3.59733e-19)
(-0.015802 0.0454731 -4.45211e-19)
(-0.0130463 0.0401552 1.12601e-18)
(-0.00963584 0.0353396 -1.32681e-18)
(-0.00558035 0.0315718 -4.12421e-19)
(-0.000902258 0.0287498 9.46792e-19)
(0.00444439 0.0266476 -4.04777e-19)
(0.0104956 0.0250321 8.47781e-19)
(0.0172612 0.023714 8.07538e-19)
(0.0247688 0.0225718 -8.96798e-19)
(0.0330478 0.0215321 -9.23509e-19)
(0.0421311 0.0205638 4.19859e-18)
(0.0520561 0.019679 5.4868e-18)
(0.0628584 0.018932 -1.71971e-18)
(0.0745568 0.0184231 -1.66149e-18)
(0.0871617 0.0183271 2.46749e-18)
(0.100525 0.0188545 -1.30435e-18)
(0.115668 0.0202995 2.39339e-18)
(0.13089 0.0218649 -9.47814e-19)
(1.09967 -2.2816 -2.42651e-17)
(0.647175 -2.70523 1.04944e-17)
(-2.29499 0.120128 -1.77312e-17)
(-5.53828 3.42972 3.50328e-17)
(-7.88246 5.68328 -1.23975e-17)
(-9.21994 6.74562 -1.30628e-17)
(-9.12293 6.41673 2.88532e-18)
(-7.51868 4.71662 -3.05999e-17)
(-4.94165 2.16248 2.73665e-17)
(-2.28317 -0.353835 -2.68833e-17)
(-0.278976 -2.05688 7.24091e-18)
(0.820682 -2.67625 1.5676e-17)
(1.17179 -2.44064 -1.03792e-17)
(1.07588 -1.78404 1.44548e-17)
(0.794646 -1.07824 -1.83662e-17)
(0.494914 -0.522318 -1.11147e-17)
(0.257339 -0.165364 1.01326e-17)
(0.0993865 0.0230236 -6.70868e-18)
(0.00947063 0.0983745 -2.29026e-19)
(-0.0328469 0.111101 3.78433e-18)
(-0.0466796 0.0962878 -3.15644e-18)
(-0.0453406 0.0743822 1.03555e-18)
(-0.0370577 0.0549884 2.91502e-18)
(-0.0265846 0.0408861 -9.04603e-19)
(-0.0161344 0.0316899 -1.89644e-18)
(-0.00634665 0.0260674 1.7218e-18)
(0.00282973 0.0227457 2.74785e-19)
(0.0116699 0.0207704 -7.33817e-19)
(0.0204709 0.0194966 -6.19502e-19)
(0.0294897 0.0185391 1.72006e-18)
(0.0389462 0.0176888 -3.22634e-18)
(0.0490209 0.016847 1.78147e-18)
(0.059859 0.0159867 -1.6484e-18)
(0.0715762 0.0151308 4.42029e-18)
(0.0842643 0.0143448 2.37184e-18)
(0.0979835 0.0137408 1.28528e-18)
(0.11278 0.013518 6.9681e-19)
(0.128523 0.013925 6.00439e-19)
(0.146384 0.0154781 4.62152e-19)
(0.164435 0.0174579 1.27126e-19)
(-1.08412 0.21318 1.52264e-17)
(-2.20879 0.155903 8.18433e-18)
(-3.04759 0.103295 -5.7614e-17)
(-3.59992 1.17508 5.57622e-17)
(-3.43517 2.63005 -2.50263e-17)
(-2.28159 3.22405 -2.83112e-17)
(-0.352664 2.79125 9.33122e-17)
(1.74654 1.64749 -3.3769e-17)
(3.47649 0.184022 -2.96276e-17)
(4.51774 -1.2361 2.18153e-19)
(4.76925 -2.29491 1.74591e-17)
(4.3444 -2.77743 -8.54415e-18)
(3.50533 -2.67684 -4.2251e-17)
(2.5386 -2.17941 2.36431e-17)
(1.66076 -1.54413 -8.69882e-18)
(0.978157 -0.973087 -1.26407e-18)
(0.510342 -0.555751 1.07659e-17)
(0.226364 -0.292868 1.23947e-18)
(0.0736297 -0.146521 -1.38732e-19)
(0.00251124 -0.0731808 -1.89793e-18)
(-0.0232728 -0.0385219 -1.72729e-18)
(-0.0265915 -0.0214481 1.15045e-18)
(-0.020267 -0.0115072 3.55278e-18)
(-0.0107461 -0.00446927 -3.33233e-18)
(-0.000823931 0.00103003 9.34064e-19)
(0.00871155 0.00534702 -2.5007e-19)
(0.0179033 0.00857888 6.01961e-19)
(0.0270452 0.0107916 3.07427e-20)
(0.0364372 0.0121118 1.28007e-18)
(0.0463274 0.0127068 1.9933e-19)
(0.0569108 0.0127528 -4.92472e-19)
(0.06834 0.0124086 -1.12775e-18)
(0.0807372 0.0118077 4.63817e-18)
(0.0942024 0.0110635 -2.1076e-18)
(0.108819 0.010286 1.15587e-19)
(0.124654 0.00960037 -4.89359e-19)
(0.141779 0.00921104 -2.61573e-18)
(0.160087 0.00937074 3.03958e-18)
(0.180959 0.0108326 -5.87685e-19)
(0.202256 0.0130415 1.27999e-18)
(-0.933368 1.36555 4.33575e-18)
(0.387557 0.510466 -1.09463e-17)
(3.51844 -2.23205 -3.1841e-18)
(5.79573 -3.19251 4.71847e-18)
(6.66709 -2.2485 7.05711e-18)
(6.82656 -0.745675 -1.54858e-18)
(6.40176 0.57599 -2.1355e-17)
(5.58534 1.34813 1.09846e-17)
(4.70153 1.41303 9.3888e-18)
(3.95759 0.872775 -7.68103e-18)
(3.3739 0.0336672 -1.16034e-17)
(2.85742 -0.767125 1.10853e-17)
(2.33205 -1.28764 -2.80629e-18)
(1.78564 -1.44764 4.99853e-18)
(1.26809 -1.31639 -2.30331e-18)
(0.838377 -1.03369 -9.05715e-19)
(0.523694 -0.726698 1.86064e-18)
(0.315576 -0.470894 -6.47692e-19)
(0.189091 -0.288056 -6.48572e-19)
(0.117463 -0.16901 2.3632e-18)
(0.0788604 -0.0956601 -5.95161e-19)
(0.0582029 -0.0518955 -7.2639e-19)
(0.0470427 -0.0260314 1.89692e-18)
(0.0414501 -0.010563 -1.17059e-18)
(0.0396709 -0.00115918 5.75156e-19)
(0.0408474 0.00455142 -1.46936e-18)
(0.0444811 0.00791319 9.81458e-19)
(0.0502553 0.00970806 -2.53968e-19)
(0.057962 0.0104575 4.3124e-20)
(0.0674037 0.0105293 2.84239e-19)
(0.0784272 0.0101791 1.03304e-19)
(0.0909217 0.00957843 1.88012e-18)
(0.104822 0.00884275 -2.33493e-18)
(0.120111 0.00805247 6.44511e-19)
(0.136801 0.00726978 -2.05701e-18)
(0.154928 0.00655378 3.45528e-18)
(0.174573 0.00603458 -1.58728e-18)
(0.195677 0.0058691 4.2845e-18)
(0.219991 0.00701908 -1.28536e-18)
(0.245224 0.00926484 3.95395e-19)
(1.15915 -0.161103 2.16897e-17)
(3.40954 -1.06408 1.82963e-17)
(5.19947 -2.15301 9.19199e-18)
(5.33425 -2.35485 4.4737e-17)
(3.6548 -1.45806 -4.48078e-18)
(0.940155 0.282431 1.14237e-17)
(-1.94757 1.99619 -1.12003e-17)
(-4.00671 2.88758 6.03844e-18)
(-4.67523 2.7225 -2.02431e-17)
(-4.14124 1.87168 2.63505e-17)
(-3.00679 0.878745 3.65422e-18)
(-1.82178 0.0806035 1.18224e-17)
(-0.886103 -0.42087 1.12422e-17)
(-0.283505 -0.648533 -5.06437e-17)
(0.0310844 -0.665223 1.87973e-17)
(0.152433 -0.550778 -4.18682e-18)
(0.169475 -0.387377 3.1059e-18)
(0.14511 -0.233984 -4.18251e-18)
(0.113849 -0.117496 5.88866e-19)
(0.0888737 -0.0420607 -3.69e-19)
(0.0721404 -0.000126316 -6.46716e-20)
(0.0617766 0.0193582 -9.35304e-19)
(0.0557522 0.0260317 -3.27645e-19)
(0.0528725 0.0263104 -1.12354e-18)
(0.0527107 0.023855 2.49376e-18)
(0.0551722 0.0206652 -9.26581e-19)
(0.0601417 0.0175702 9.44843e-19)
(0.0673579 0.0148012 1.5055e-18)
(0.0766444 0.0124412 -2.73636e-18)
(0.0878472 0.0105067 3.90252e-18)
(0.1008 0.00894919 -3.10695e-18)
(0.115384 0.00771225 2.51524e-18)
(0.131525 0.00674279 -4.77082e-18)
(0.149192 0.00599394 -2.03289e-19)
(0.168393 0.00542481 1.6023e-18)
(0.189165 0.00499399 1.01942e-18)
(0.211616 0.00470522 3.36068e-18)
(0.235748 0.00450627 -2.38599e-18)
(0.264142 0.00551192 3.0328e-19)
(0.294531 0.00735818 -1.77839e-18)
(1.9925 -1.81212 1.75711e-18)
(2.39077 -2.00836 -3.78731e-18)
(-0.089081 0.134723 -1.19866e-17)
(-3.16112 2.10016 -6.39118e-18)
(-5.88931 3.11434 9.85432e-18)
(-8.23475 3.70619 -3.36023e-18)
(-9.59553 3.72719 -1.79474e-18)
(-9.32336 2.89312 1.55131e-19)
(-7.45369 1.3214 1.88194e-18)
(-4.81716 -0.361703 2.90941e-18)
(-2.40342 -1.49265 2.49033e-18)
(-0.748458 -1.84128 -1.82807e-18)
(0.126794 -1.60412 1.01867e-18)
(0.452422 -1.11583 3.54551e-20)
(0.473734 -0.628905 -3.50498e-19)
(0.367416 -0.260774 1.75725e-18)
(0.23543 -0.0312743 3.19526e-19)
(0.12787 0.0878446 -1.86681e-18)
(0.0591579 0.133992 1.19587e-18)
(0.0242066 0.137717 6.82203e-19)
(0.0122384 0.120965 2.36272e-19)
(0.0133438 0.0975148 8.64211e-19)
(0.0207559 0.0746134 -5.04126e-19)
(0.0306775 0.0552053 2.0845e-18)
(0.0416019 0.0401464 -1.48593e-18)
(0.0531991 0.0290791 5.37531e-19)
(0.0654544 0.021081 -1.32985e-18)
(0.0785292 0.0153497 1.11492e-18)
(0.0925731 0.0112922 -1.64957e-18)
(0.107747 0.00846503 -2.71487e-18)
(0.124169 0.00654261 -5.71135e-19)
(0.141931 0.00529959 -2.35436e-18)
(0.161121 0.00459347 2.69756e-18)
(0.181826 0.00433602 -1.25558e-18)
(0.204143 0.00447179 -3.50966e-18)
(0.228173 0.00494516 -1.48951e-18)
(0.2541 0.00571817 5.4729e-18)
(0.282005 0.00645874 1.4444e-18)
(0.315608 0.00856791 -7.19516e-18)
(0.350415 0.0110608 -4.64911e-18)
(0.591704 -1.51344 -4.03018e-18)
(-0.174195 -2.09279 5.28639e-18)
(-2.99922 -0.672654 3.91e-17)
(-6.06719 1.62081 2.92865e-17)
(-8.08348 3.60024 -4.09722e-17)
(-8.71234 4.55937 -4.50305e-17)
(-7.65272 4.30626 9.889e-18)
(-5.20648 3.01499 1.2241e-17)
(-2.17259 1.15661 5.22247e-17)
(0.536829 -0.663133 -1.75896e-17)
(2.29146 -1.93589 -3.5954e-17)
(2.95579 -2.43132 4.46165e-17)
(2.78763 -2.24835 -1.51497e-17)
(2.18576 -1.68843 -8.48159e-18)
(1.48388 -1.06055 -9.86532e-19)
(0.879336 -0.552002 -6.52167e-18)
(0.44621 -0.21739 7.80537e-18)
(0.179094 -0.0343694 -3.96794e-18)
(0.0380498 0.044718 9.84659e-19)
(-0.0212718 0.0653548 -5.03607e-18)
(-0.0343511 0.059537 5.06202e-18)
(-0.0248707 0.0454939 -3.5266e-18)
(-0.00626669 0.0317208 5.01748e-18)
(0.0148901 0.0212598 2.87884e-18)
(0.0358008 0.0142331 -6.50025e-18)
(0.0556549 0.00963294 4.8253e-18)
(0.0745793 0.00660813 -1.51825e-18)
(0.0930711 0.00457661 -8.26795e-19)
(0.111657 0.00319683 5.74292e-19)
(0.130746 0.00225402 -2.24308e-18)
(0.150699 0.00167036 -8.36538e-20)
(0.171818 0.00144386 3.38276e-18)
(0.194359 0.0015984 -8.74243e-19)
(0.218557 0.00217407 -3.25786e-19)
(0.244655 0.00321476 -2.52743e-18)
(0.272948 0.00474684 -7.05211e-19)
(0.303899 0.00678616 6.4764e-18)
(0.338441 0.00930886 -3.71731e-18)
(0.377621 0.0100724 -1.20639e-18)
(0.426733 0.00962593 3.03196e-18)
(-1.59517 0.768155 2.17035e-17)
(-1.90958 0.393429 -1.6788e-17)
(-0.649005 -0.973888 -1.13746e-17)
(0.370139 -0.893184 -8.73616e-18)
(1.11012 0.334233 7.82314e-19)
(2.22691 1.38445 2.8425e-17)
(3.56257 1.86498 -2.39309e-17)
(4.71343 1.77643 -3.96591e-18)
(5.46147 1.20618 1.02652e-17)
(5.74502 0.323612 -1.70889e-17)
(5.55705 -0.602478 1.26848e-17)
(4.93939 -1.29501 5.17591e-18)
(4.0142 -1.59235 -3.54112e-17)
(2.97279 -1.51504 8.92295e-18)
(2.00436 -1.21513 3.73984e-18)
(1.23262 -0.859152 4.72788e-19)
(0.695219 -0.553317 7.13195e-18)
(0.362907 -0.335553 -1.1369e-17)
(0.179017 -0.198801 5.15956e-18)
(0.0888798 -0.119622 -5.79161e-19)
(0.0519963 -0.0752928 1.73198e-18)
(0.0428345 -0.0498806 -3.31592e-18)
(0.0470611 -0.0342235 1.84883e-18)
(0.0575894 -0.023761 -3.94657e-18)
(0.0711365 -0.0165138 3.81766e-18)
(0.0863973 -0.0114487 -1.76759e-18)
(0.103002 -0.00800947 -1.02357e-18)
(0.120801 -0.00583753 5.11598e-18)
(0.139843 -0.00454239 -1.94553e-18)