/*--------------------------------*- C++ -*----------------------------------*\
  =========                 |
  \\      /  F ield         | OpenFOAM: The Open Source CFD Toolbox
   \\    /   O peration     | Website:  https://openfoam.org
    \\  /    A nd           | Version:  7
     \\/     M anipulation  |
\*---------------------------------------------------------------------------*/
FoamFile
{
    version     2.0;
    format      ascii;
    class       volVectorField;
    location    "0.7";
    object      U;
}
// * * * * * * * * * * * * * * * * * * * * * * * * * * * * * * * * * * * * * //

dimensions      [0 1 -1 0 0 0 0];

internalField   nonuniform List<vector> 
4116
(
(3.20441 -0.251116 0)
(3.20486 -0.250512 0)
(3.20522 -0.24941 0)
(3.20508 -0.248409 0)
(3.20408 -0.247702 0)
(3.20157 -0.247404 0)
(3.19884 -0.247202 0)
(3.19808 -0.247086 0)
(3.198 -0.247104 0)
(3.19781 -0.247117 0)
(3.19771 -0.247045 0)
(3.19864 -0.247063 0)
(3.20131 -0.247434 0)
(3.20354 -0.247932 0)
(3.20384 -0.24844 0)
(3.20387 -0.248737 0)
(3.20336 -0.249141 0)
(3.2008 -0.248674 0)
(3.19646 -0.247515 0)
(3.19511 -0.247065 0)
(3.19506 -0.246619 0)
(3.1958 -0.245666 0)
(3.19803 -0.244564 0)
(3.20071 -0.243786 0)
(3.20226 -0.243582 0)
(3.20257 -0.243604 0)
(3.20273 -0.243805 0)
(3.20292 -0.244168 0)
(3.20236 -0.244854 0)
(3.19994 -0.24607 0)
(3.19516 -0.247658 0)
(3.18839 -0.248175 0)
(3.18312 -0.249428 0)
(3.18253 -0.249074 0)
(3.18387 -0.246313 0)
(3.18548 -0.241309 0)
(3.18668 -0.232905 0)
(3.18668 -0.220355 0)
(3.18412 -0.20152 0)
(3.17674 -0.17234 0)
(3.1636 -0.131671 0)
(3.1475 -0.0842508 0)
(3.13124 -0.0373106 0)
(3.11772 0.00102781 0)
(3.10913 0.0250551 0)
(3.10475 0.0363448 0)
(3.10255 0.0406225 0)
(3.10136 0.0419821 0)
(3.10079 0.0423237 0)
(3.10026 0.0424858 0)
(3.0998 0.0428382 0)
(3.09998 0.0435694 0)
(3.1005 0.0447483 0)
(3.10049 0.0456685 0)
(3.09999 0.0460975 0)
(3.0993 0.0462851 0)
(3.09852 0.0463765 0)
(3.09768 0.0465305 0)
(3.09682 0.0469099 0)
(3.09618 0.0470696 0)
(3.0953 0.0471927 0)
(3.09451 0.047687 0)
(3.094 0.0483201 0)
(3.09349 0.0487875 0)
(3.09317 0.0493741 0)
(3.09326 0.0497266 0)
(3.09351 0.0499602 0)
(3.09306 0.0502166 0)
(3.09239 0.0503717 0)
(3.09177 0.0505327 0)
(3.09104 0.0507431 0)
(3.09028 0.0508555 0)
(3.08943 0.0506649 0)
(3.08822 0.0499386 0)
(3.08715 0.0494976 0)
(3.08643 0.0495366 0)
(3.0859 0.0495609 0)
(3.0854 0.0496348 0)
(3.08504 0.0498085 0)
(3.08486 0.0503733 0)
(3.08497 0.0517456 0)
(3.08522 0.0539538 0)
(3.08526 0.0560593 0)
(3.08495 0.0574955 0)
(3.08446 0.0584781 0)
(3.08394 0.0591386 0)
(3.08344 0.0594023 0)
(3.08313 0.0594337 0)
(3.08265 0.0593738 0)
(3.08168 0.059131 0)
(3.08054 0.058837 0)
(3.07963 0.0586961 0)
(3.07927 0.0587197 0)
(3.07894 0.0587635 0)
(3.07881 0.0587789 0)
(3.07929 0.0590202 0)
(3.08012 0.0601286 0)
(3.08103 0.062278 0)
(3.08186 0.0648679 0)
(3.08235 0.0670855 0)
(3.08225 0.0684088 0)
(3.08177 0.0688617 0)
(3.0814 0.0689371 0)
(3.08021 0.0685217 0)
(3.07809 0.0674243 0)
(3.07592 0.0660552 0)
(3.07475 0.0651506 0)
(3.07433 0.0646741 0)
(3.07412 0.06444 0)
(3.07388 0.0643626 0)
(3.07364 0.0643294 0)
(3.07398 0.0647687 0)
(3.07471 0.0663775 0)
(3.07505 0.0684603 0)
(3.0747 0.0697208 0)
(3.07427 0.0701633 0)
(3.07368 0.0704657 0)
(3.07291 0.0707384 0)
(3.07242 0.0709066 0)
(3.07202 0.0710465 0)
(3.07152 0.0713865 0)
(3.07131 0.0720676 0)
(3.07166 0.0733878 0)
(3.07276 0.0757834 0)
(3.07441 0.0788355 0)
(3.07542 0.0808409 0)
(3.07546 0.0813436 0)
(3.07534 0.0813033 0)
(3.07479 0.0808163 0)
(3.07352 0.0796594 0)
(3.07179 0.0777668 0)
(3.06987 0.0755221 0)
(3.06794 0.0738815 0)
(3.06599 0.0734191 0)
(3.0641 0.0743111 0)
(3.06312 0.0756066 0)
(3.06281 0.0763494 0)
(3.06301 0.077475 0)
(3.06521 0.0802298 0)
(3.07 0.0864339 0)
(3.07579 0.0936997 0)
(3.07832 0.0968035 0)
(3.07844 0.0966857 0)
(3.07828 0.0963194 0)
(3.07745 0.0960006 0)
(3.07516 0.0988856 0)
(3.07817 0.0938284 0)
(3.2047 -0.24241 0)
(3.20531 -0.241634 0)
(3.20611 -0.240704 0)
(3.20655 -0.239729 0)
(3.20573 -0.238674 0)
(3.20214 -0.237688 0)
(3.19728 -0.237266 0)
(3.19563 -0.237415 0)
(3.19562 -0.237629 0)
(3.19563 -0.237702 0)
(3.19573 -0.237953 0)
(3.19621 -0.238552 0)
(3.1978 -0.238784 0)
(3.20033 -0.238464 0)
(3.20105 -0.238389 0)
(3.20165 -0.238414 0)
(3.20204 -0.238124 0)
(3.20058 -0.237073 0)
(3.19707 -0.235212 0)
(3.19549 -0.234014 0)
(3.19527 -0.23402 0)
(3.19531 -0.234354 0)
(3.19608 -0.235162 0)
(3.19796 -0.236869 0)
(3.20101 -0.238522 0)
(3.20329 -0.238609 0)
(3.20376 -0.238565 0)
(3.2039 -0.23823 0)
(3.20299 -0.237178 0)
(3.20043 -0.234793 0)
(3.19553 -0.23306 0)
(3.18867 -0.230454 0)
(3.18645 -0.225457 0)
(3.187 -0.223709 0)
(3.189 -0.221797 0)
(3.1917 -0.219415 0)
(3.19409 -0.216696 0)
(3.19626 -0.21404 0)
(3.19886 -0.210352 0)
(3.20012 -0.205182 0)
(3.1961 -0.197567 0)
(3.18772 -0.183278 0)
(3.17686 -0.159177 0)
(3.16236 -0.123838 0)
(3.14505 -0.0799529 0)
(3.1286 -0.0353933 0)
(3.11604 0.000757728 0)
(3.10797 0.0248647 0)
(3.10357 0.0382088 0)
(3.10164 0.0441576 0)
(3.10112 0.0462141 0)
(3.10111 0.0473251 0)
(3.10128 0.0486857 0)
(3.10091 0.0492619 0)
(3.10037 0.0494995 0)
(3.09975 0.049742 0)
(3.09904 0.0500687 0)
(3.09789 0.0503532 0)
(3.0965 0.0503766 0)
(3.09601 0.0502459 0)
(3.09541 0.0499698 0)
(3.09486 0.0497077 0)
(3.09448 0.0497648 0)
(3.0943 0.0501895 0)
(3.09433 0.0511894 0)
(3.09411 0.0524272 0)
(3.09354 0.053168 0)
(3.09285 0.0534064 0)
(3.09216 0.0535513 0)
(3.09144 0.05364 0)
(3.09056 0.0535154 0)
(3.08959 0.0530574 0)
(3.08863 0.0526366 0)
(3.08745 0.0526684 0)
(3.08685 0.05282 0)
(3.08622 0.0529408 0)
(3.0857 0.053049 0)
(3.08545 0.0532189 0)
(3.08558 0.0537143 0)
(3.08608 0.0548936 0)
(3.0868 0.0568403 0)
(3.08721 0.0589279 0)
(3.08687 0.060256 0)
(3.08625 0.0607534 0)
(3.08567 0.0608345 0)
(3.08514 0.0607661 0)
(3.08423 0.0605971 0)
(3.08325 0.0603316 0)
(3.08227 0.0596236 0)
(3.0813 0.0588019 0)
(3.08056 0.0583549 0)
(3.08022 0.0583177 0)
(3.07978 0.0585645 0)
(3.07974 0.0592219 0)
(3.08033 0.0606271 0)
(3.08142 0.0630509 0)
(3.08262 0.0660182 0)
(3.08335 0.0685188 0)
(3.08342 0.0699681 0)
(3.0832 0.0705463 0)
(3.08302 0.0707018 0)
(3.08256 0.0706612 0)
(3.0813 0.0700751 0)
(3.07908 0.0687408 0)
(3.0767 0.0669542 0)
(3.07534 0.0655972 0)
(3.07475 0.0648899 0)
(3.07459 0.0647251 0)
(3.07438 0.0646849 0)
(3.0744 0.0649416 0)
(3.07502 0.0659752 0)
(3.07627 0.067961 0)
(3.07689 0.0697418 0)
(3.07646 0.0703888 0)
(3.07601 0.0705554 0)
(3.07547 0.0708234 0)
(3.07467 0.0712696 0)
(3.07419 0.0717716 0)
(3.07364 0.0724398 0)
(3.07313 0.0733925 0)
(3.07288 0.0747518 0)
(3.07318 0.0767793 0)
(3.07422 0.0794771 0)
(3.07549 0.0819404 0)
(3.07596 0.0830337 0)
(3.07586 0.0831007 0)
(3.07563 0.0826545 0)
(3.07486 0.0817066 0)
(3.07358 0.0806099 0)
(3.07188 0.0793234 0)
(3.06994 0.0778758 0)
(3.06795 0.0760499 0)
(3.0666 0.0741873 0)
(3.06608 0.073274 0)
(3.06528 0.0727814 0)
(3.06467 0.0732971 0)
(3.06539 0.0755598 0)
(3.06821 0.0808383 0)
(3.07331 0.0895019 0)
(3.07782 0.0970367 0)
(3.07879 0.0994026 0)
(3.07862 0.0995195 0)
(3.07755 0.0981386 0)
(3.07639 0.0953353 0)
(3.07528 0.0921853 0)
(3.07406 0.0892439 0)
(3.07747 0.0748134 0)
(3.20559 -0.233178 0)
(3.20618 -0.232824 0)
(3.20703 -0.232062 0)
(3.20754 -0.231034 0)
(3.2069 -0.22972 0)
(3.20335 -0.228385 0)
(3.19817 -0.227617 0)
(3.19633 -0.227384 0)
(3.19651 -0.22725 0)
(3.1969 -0.227119 0)
(3.19731 -0.227016 0)
(3.1985 -0.226933 0)
(3.20082 -0.227019 0)
(3.20287 -0.227443 0)
(3.20342 -0.22763 0)
(3.20382 -0.227793 0)
(3.20387 -0.227821 0)
(3.2024 -0.227028 0)
(3.19874 -0.224931 0)
(3.19576 -0.223184 0)
(3.19529 -0.222852 0)
(3.19528 -0.222817 0)
(3.1955 -0.222668 0)
(3.19644 -0.223342 0)
(3.19912 -0.226525 0)
(3.20314 -0.229726 0)
(3.20493 -0.228967 0)
(3.20504 -0.227452 0)
(3.20485 -0.225731 0)
(3.20412 -0.223971 0)
(3.20203 -0.221676 0)
(3.19649 -0.220399 0)
(3.18984 -0.221163 0)
(3.18818 -0.221605 0)
(3.18851 -0.22172 0)
(3.18977 -0.222608 0)
(3.1914 -0.224789 0)
(3.19225 -0.227351 0)
(3.19289 -0.2298 0)
(3.19276 -0.233089 0)
(3.19365 -0.233153 0)
(3.1936 -0.229513 0)
(3.1917 -0.221526 0)
(3.18756 -0.208698 0)
(3.18019 -0.189613 0)
(3.16965 -0.161374 0)
(3.15636 -0.12418 0)
(3.14257 -0.082494 0)
(3.12986 -0.0392983 0)
(3.1188 -0.000206007 0)
(3.11045 0.0283085 0)
(3.10536 0.0440944 0)
(3.10276 0.0503278 0)
(3.10151 0.0520964 0)
(3.10077 0.0525055 0)
(3.10022 0.0526545 0)
(3.09949 0.0527195 0)
(3.09813 0.0526878 0)
(3.09674 0.0526268 0)
(3.09628 0.0526559 0)
(3.09556 0.0528735 0)
(3.09485 0.0533113 0)
(3.09445 0.0538701 0)
(3.09455 0.054453 0)
(3.09483 0.05478 0)
(3.09445 0.0547719 0)
(3.09401 0.0546105 0)
(3.09352 0.0543907 0)
(3.09287 0.0542282 0)
(3.09218 0.0540838 0)
(3.09103 0.0538089 0)
(3.0898 0.0533342 0)
(3.08903 0.0531607 0)
(3.08837 0.0534236 0)
(3.08764 0.0540793 0)
(3.0871 0.0546322 0)
(3.08674 0.0552614 0)
(3.08678 0.0563945 0)
(3.08738 0.0581711 0)
(3.08815 0.0602214 0)
(3.08843 0.0618041 0)
(3.08811 0.0625153 0)
(3.08764 0.0627427 0)
(3.08711 0.062845 0)
(3.0865 0.0629445 0)
(3.08542 0.0630192 0)
(3.08391 0.0628406 0)
(3.08258 0.0623003 0)
(3.08145 0.0621383 0)
(3.08079 0.0622638 0)
(3.08032 0.0625078 0)
(3.07992 0.0628387 0)
(3.08015 0.0633475 0)
(3.08123 0.064709 0)
(3.0829 0.0671195 0)
(3.08426 0.0696345 0)
(3.08468 0.0711549 0)
(3.08449 0.0717023 0)
(3.08423 0.071815 0)
(3.08394 0.0718152 0)
(3.08321 0.0715955 0)
(3.08198 0.0709529 0)
(3.07999 0.0698544 0)
(3.07771 0.0686033 0)
(3.07592 0.067737 0)
(3.07505 0.0673573 0)
(3.07477 0.0673344 0)
(3.0745 0.0673689 0)
(3.07462 0.0676476 0)
(3.07561 0.0688404 0)
(3.0773 0.0713363 0)
(3.07793 0.0734083 0)
(3.07745 0.0739616 0)
(3.07697 0.0741694 0)
(3.07638 0.0745832 0)
(3.07582 0.0749462 0)
(3.07525 0.0753659 0)
(3.07476 0.0760218 0)
(3.07443 0.0769965 0)
(3.07439 0.0785132 0)
(3.07485 0.0806964 0)
(3.07575 0.0832091 0)
(3.07634 0.0849539 0)
(3.07627 0.0854442 0)
(3.07611 0.0853248 0)
(3.07544 0.0845287 0)
(3.07431 0.0832664 0)
(3.07307 0.0817462 0)
(3.07186 0.0801224 0)
(3.07067 0.0787772 0)
(3.06912 0.07801 0)
(3.06705 0.078113 0)
(3.0654 0.0792085 0)
(3.06484 0.0800506 0)
(3.06456 0.0810897 0)
(3.06599 0.0830691 0)
(3.06988 0.0881686 0)
(3.07555 0.0956508 0)
(3.07924 0.100249 0)
(3.07973 0.100746 0)
(3.07967 0.100339 0)
(3.07909 0.100149 0)
(3.07754 0.101504 0)
(3.07457 0.102792 0)
(3.07111 0.099167 0)
(3.06438 0.0898385 0)
(3.05483 0.054433 0)
(3.20866 -0.225323 0)
(3.20916 -0.225178 0)
(3.21002 -0.224796 0)
(3.2107 -0.224264 0)
(3.21008 -0.223204 0)
(3.20616 -0.221158 0)
(3.19975 -0.218871 0)
(3.19737 -0.217794 0)
(3.19768 -0.217647 0)
(3.19793 -0.217525 0)
(3.19824 -0.217241 0)
(3.19879 -0.216966 0)
(3.19983 -0.217111 0)
(3.20126 -0.21813 0)
(3.20183 -0.218924 0)
(3.202 -0.219073 0)
(3.2021 -0.219028 0)
(3.2014 -0.218346 0)
(3.19868 -0.216532 0)
(3.19438 -0.214292 0)
(3.19268 -0.213222 0)
(3.19275 -0.212874 0)
(3.19311 -0.212445 0)
(3.19424 -0.212032 0)
(3.19681 -0.212388 0)
(3.20124 -0.21459 0)
(3.20512 -0.216309 0)
(3.20599 -0.215956 0)
(3.20574 -0.215588 0)
(3.20544 -0.215456 0)
(3.20355 -0.215467 0)
(3.19761 -0.216088 0)
(3.19 -0.216672 0)
(3.18771 -0.216585 0)
(3.18761 -0.216552 0)
(3.18787 -0.216647 0)
(3.18884 -0.216589 0)
(3.19018 -0.215201 0)
(3.19223 -0.212938 0)
(3.19462 -0.20873 0)
(3.19706 -0.204446 0)
(3.19803 -0.202164 0)
(3.19824 -0.200039 0)
(3.19753 -0.196887 0)
(3.19563 -0.192186 0)
(3.19253 -0.185788 0)
(3.18723 -0.178043 0)
(3.17923 -0.166009 0)
(3.1714 -0.146002 0)
(3.16242 -0.116641 0)
(3.15034 -0.0780716 0)
(3.13521 -0.0341021 0)
(3.12036 0.00659187 0)
(3.10963 0.035316 0)
(3.10372 0.0501654 0)
(3.10085 0.0552866 0)
(3.0991 0.0561068 0)
(3.09766 0.0557278 0)
(3.09696 0.0555082 0)
(3.09657 0.0555699 0)
(3.09589 0.0556874 0)
(3.09536 0.055767 0)
(3.09524 0.0561933 0)
(3.09533 0.0572148 0)
(3.09499 0.0577888 0)
(3.09453 0.0579046 0)
(3.09398 0.0581011 0)
(3.09331 0.0583609 0)
(3.09238 0.058501 0)
(3.09149 0.0581569 0)
(3.09068 0.0575678 0)
(3.09014 0.0573636 0)
(3.08923 0.0574708 0)
(3.0885 0.0577801 0)
(3.08803 0.0582639 0)
(3.08776 0.0589677 0)
(3.08791 0.0600593 0)
(3.08858 0.0618669 0)
(3.08918 0.0639417 0)
(3.08907 0.0651338 0)
(3.08866 0.0654817 0)
(3.08836 0.0656503 0)
(3.08771 0.0659305 0)
(3.08698 0.065824 0)
(3.08629 0.0651678 0)
(3.08534 0.0642918 0)
(3.08409 0.0634528 0)
(3.08299 0.0630214 0)
(3.08245 0.0630991 0)
(3.0817 0.0638225 0)
(3.08129 0.0648805 0)
(3.08141 0.0663266 0)
(3.08238 0.0683738 0)
(3.08409 0.0707515 0)
(3.08535 0.0726411 0)
(3.08536 0.0735355 0)
(3.08496 0.0737945 0)
(3.08466 0.0738492 0)
(3.08445 0.0738495 0)
(3.08386 0.0734256 0)
(3.0827 0.0724612 0)
(3.08084 0.0712993 0)
(3.07866 0.0701746 0)
(3.07679 0.0691973 0)
(3.07587 0.0687512 0)
(3.07556 0.0688486 0)
(3.07512 0.0692375 0)
(3.07503 0.0698045 0)
(3.0759 0.0710354 0)
(3.07809 0.0734942 0)
(3.07939 0.0757047 0)
(3.07896 0.0762276 0)
(3.07847 0.0764261 0)
(3.07793 0.0767859 0)
(3.07735 0.077354 0)
(3.07684 0.0780882 0)
(3.07644 0.0790896 0)
(3.07622 0.080428 0)
(3.07626 0.0822047 0)
(3.07662 0.0843377 0)
(3.07706 0.086259 0)
(3.07705 0.0871568 0)
(3.07692 0.0872229 0)
(3.07646 0.0867157 0)
(3.07543 0.085671 0)
(3.07411 0.08456 0)
(3.07282 0.0834486 0)
(3.07152 0.082275 0)
(3.07014 0.0810204 0)
(3.06896 0.0794417 0)
(3.06798 0.0777556 0)
(3.06747 0.0768682 0)
(3.0669 0.0770643 0)
(3.06698 0.0787413 0)
(3.06901 0.0829516 0)
(3.07349 0.0907932 0)
(3.07842 0.0993041 0)
(3.08008 0.103044 0)
(3.08004 0.103539 0)
(3.07911 0.102658 0)
(3.07796 0.100177 0)
(3.07692 0.0972691 0)
(3.0761 0.093632 0)
(3.07356 0.0883988 0)
(3.06352 0.0778869 0)
(3.04227 0.0530131 0)
(3.01723 0.0145307 0)
(3.20661 -0.216218 0)
(3.2071 -0.216043 0)
(3.20796 -0.215553 0)
(3.20867 -0.214843 0)
(3.20906 -0.21401 0)
(3.20747 -0.212812 0)
(3.20178 -0.210628 0)
(3.19702 -0.208917 0)
(3.19681 -0.208424 0)
(3.19734 -0.208305 0)
(3.1978 -0.208233 0)
(3.19828 -0.208261 0)
(3.19934 -0.208554 0)
(3.20133 -0.209078 0)
(3.20301 -0.209496 0)
(3.20336 -0.209849 0)
(3.20325 -0.210039 0)
(3.20244 -0.21002 0)
(3.19962 -0.208581 0)
(3.19527 -0.205703 0)
(3.19288 -0.203862 0)
(3.19274 -0.203308 0)
(3.19292 -0.202972 0)
(3.19382 -0.202234 0)
(3.19578 -0.201797 0)
(3.19935 -0.20249 0)
(3.20377 -0.205152 0)
(3.20569 -0.207173 0)
(3.20573 -0.207556 0)
(3.20543 -0.207904 0)
(3.20362 -0.208139 0)
(3.19795 -0.207327 0)
(3.1911 -0.206052 0)
(3.18957 -0.20589 0)
(3.18863 -0.205632 0)
(3.18821 -0.20512 0)
(3.18985 -0.204517 0)
(3.19382 -0.203255 0)
(3.19687 -0.201695 0)
(3.19764 -0.201148 0)
(3.1984 -0.201226 0)
(3.19829 -0.202125 0)
(3.19737 -0.203615 0)
(3.19509 -0.206465 0)
(3.19148 -0.210739 0)
(3.18735 -0.21381 0)
(3.18583 -0.213485 0)
(3.18591 -0.208954 0)
(3.18524 -0.201352 0)
(3.18388 -0.190484 0)
(3.18106 -0.174868 0)
(3.17519 -0.151211 0)
(3.16463 -0.116194 0)
(3.14966 -0.0715858 0)
(3.13231 -0.024279 0)
(3.11571 0.0165571 0)
(3.1043 0.0429663 0)
(3.09911 0.0548093 0)
(3.09725 0.0584715 0)
(3.09653 0.0592786 0)
(3.09623 0.0594197 0)
(3.09581 0.0596416 0)
(3.0958 0.0600003 0)
(3.09564 0.060175 0)
(3.09534 0.0602876 0)
(3.09489 0.0604255 0)
(3.09428 0.0604277 0)
(3.09373 0.0604934 0)
(3.09281 0.0606515 0)
(3.09203 0.0606875 0)
(3.09146 0.0607897 0)
(3.09049 0.0612339 0)
(3.08972 0.0617356 0)
(3.08916 0.0622853 0)
(3.08883 0.0629379 0)
(3.08896 0.0638306 0)
(3.08968 0.0651588 0)
(3.09027 0.0664017 0)
(3.09007 0.0669256 0)
(3.08966 0.0669784 0)
(3.08925 0.0669692 0)
(3.08885 0.0670673 0)
(3.08819 0.0673035 0)
(3.08724 0.0675319 0)
(3.08616 0.067452 0)
(3.08509 0.0672479 0)
(3.08449 0.0672335 0)
(3.08369 0.0674473 0)
(3.08284 0.0678869 0)
(3.0823 0.0686908 0)
(3.08239 0.0701513 0)
(3.08337 0.0723254 0)
(3.08474 0.0745896 0)
(3.08531 0.0758647 0)
(3.08515 0.0761654 0)
(3.08497 0.0761331 0)
(3.08468 0.0759134 0)
(3.08429 0.0755098 0)
(3.08384 0.0749362 0)
(3.08291 0.0740986 0)
(3.08128 0.0728319 0)
(3.07942 0.0714556 0)
(3.07771 0.0704036 0)
(3.07673 0.0702691 0)
(3.07638 0.0706467 0)
(3.0759 0.0715526 0)
(3.07565 0.0726248 0)
(3.07604 0.0741596 0)
(3.07776 0.0765483 0)
(3.07986 0.078998 0)
(3.07997 0.079977 0)
(3.0795 0.0802555 0)
(3.07901 0.0805937 0)
(3.07849 0.0811791 0)
(3.07811 0.0820226 0)
(3.07792 0.0832168 0)
(3.07794 0.0847692 0)
(3.0781 0.0865923 0)
(3.07828 0.088275 0)
(3.07817 0.0893041 0)
(3.07792 0.0895176 0)
(3.07751 0.0891263 0)
(3.07654 0.0880725 0)
(3.07534 0.0868662 0)
(3.07411 0.0857079 0)
(3.07301 0.0845568 0)
(3.07187 0.0835993 0)
(3.07055 0.0829152 0)
(3.06917 0.0827325 0)
(3.06794 0.0831485 0)
(3.06723 0.083879 0)
(3.06699 0.0847296 0)
(3.06785 0.0866001 0)
(3.07072 0.0908348 0)
(3.0757 0.0977727 0)
(3.08014 0.103378 0)
(3.08117 0.104528 0)
(3.08115 0.10421 0)
(3.08066 0.103972 0)
(3.07929 0.105123 0)
(3.07655 0.106984 0)
(3.07339 0.104824 0)
(3.0683 0.0968009 0)
(3.05653 0.0778575 0)
(3.03351 0.0432646 0)
(3.00883 0.0107893 0)
(3.00065 0.000571037 0)
(3.20735 -0.205901 0)
(3.20778 -0.205673 0)
(3.20834 -0.205555 0)
(3.20877 -0.205403 0)
(3.20884 -0.204917 0)
(3.20746 -0.203958 0)
(3.20283 -0.202476 0)
(3.1984 -0.201033 0)
(3.19801 -0.200286 0)
(3.19878 -0.199911 0)
(3.19975 -0.199699 0)
(3.20054 -0.199589 0)
(3.20206 -0.19943 0)
(3.20253 -0.199534 0)
(3.20223 -0.200037 0)
(3.20186 -0.200454 0)
(3.20136 -0.200682 0)
(3.20064 -0.200775 0)
(3.19888 -0.200358 0)
(3.1962 -0.198494 0)
(3.19347 -0.195926 0)
(3.19264 -0.194549 0)
(3.1927 -0.194058 0)
(3.19295 -0.193699 0)
(3.19383 -0.193388 0)
(3.19624 -0.193649 0)
(3.20163 -0.194545 0)
(3.20757 -0.19621 0)
(3.20889 -0.197037 0)
(3.20872 -0.197549 0)
(3.20699 -0.198254 0)
(3.2008 -0.197347 0)
(3.19194 -0.194993 0)
(3.18871 -0.193616 0)
(3.18851 -0.193153 0)
(3.18872 -0.1921 0)
(3.18957 -0.191265 0)
(3.19149 -0.192175 0)
(3.19446 -0.194925 0)
(3.19639 -0.196881 0)
(3.19703 -0.197148 0)
(3.1975 -0.197378 0)
(3.19629 -0.197633 0)
(3.19336 -0.196785 0)
(3.19035 -0.194306 0)
(3.18932 -0.192162 0)
(3.18988 -0.18607 0)
(3.19167 -0.180607 0)
(3.19247 -0.177437 0)
(3.1936 -0.17445 0)
(3.19458 -0.170334 0)
(3.19445 -0.164776 0)
(3.19283 -0.157948 0)
(3.1861 -0.147865 0)
(3.17537 -0.129592 0)
(3.16122 -0.0990773 0)
(3.14342 -0.0564406 0)
(3.12461 -0.00954682 0)
(3.10957 0.0286722 0)
(3.10103 0.0511635 0)
(3.09767 0.06058 0)
(3.09672 0.063186 0)
(3.09633 0.0638827 0)
(3.09589 0.0639038 0)
(3.09549 0.0639913 0)
(3.09508 0.0642177 0)
(3.09446 0.0644347 0)
(3.09373 0.0645616 0)
(3.093 0.0648545 0)
(3.09249 0.0649898 0)
(3.09171 0.0652125 0)
(3.09097 0.0654969 0)
(3.09031 0.06605 0)
(3.08986 0.0667901 0)
(3.0899 0.067702 0)
(3.09048 0.0689682 0)
(3.09063 0.0700684 0)
(3.09027 0.0703869 0)
(3.09001 0.0704877 0)
(3.0895 0.0705425 0)
(3.08911 0.0703266 0)
(3.0886 0.07014 0)
(3.08802 0.0700664 0)
(3.08722 0.0699912 0)
(3.08655 0.0699105 0)
(3.08602 0.0700964 0)
(3.08515 0.0709557 0)
(3.08447 0.0719735 0)
(3.08394 0.0729429 0)
(3.08376 0.0740885 0)
(3.08438 0.0755178 0)
(3.08554 0.0767251 0)
(3.08582 0.0770854 0)
(3.08557 0.0770452 0)
(3.08541 0.076957 0)
(3.08512 0.076801 0)
(3.08464 0.0765031 0)
(3.08396 0.0761172 0)
(3.08295 0.0756511 0)
(3.08154 0.075095 0)
(3.07971 0.0743698 0)
(3.07793 0.0737013 0)
(3.07715 0.0736095 0)
(3.07673 0.07402 0)
(3.07644 0.0748249 0)
(3.07647 0.0758314 0)
(3.07683 0.0772061 0)
(3.07795 0.0791261 0)
(3.07988 0.0814103 0)
(3.08089 0.0828308 0)
(3.08066 0.0833811 0)
(3.08024 0.0838199 0)
(3.07981 0.0844165 0)
(3.07951 0.0852901 0)
(3.0795 0.086555 0)
(3.07973 0.0882403 0)
(3.0799 0.0899522 0)
(3.0797 0.0910831 0)
(3.07937 0.0914946 0)
(3.07893 0.0914523 0)
(3.07785 0.0906781 0)
(3.0765 0.0895284 0)
(3.0753 0.088509 0)
(3.07425 0.0875774 0)
(3.0732 0.086503 0)
(3.07206 0.0850855 0)
(3.07086 0.0836301 0)
(3.06974 0.0827221 0)
(3.06912 0.0824535 0)
(3.06896 0.0825893 0)
(3.06913 0.0837674 0)
(3.07052 0.087241 0)
(3.07402 0.0939633 0)
(3.07888 0.10208 0)
(3.08137 0.106826 0)
(3.08144 0.107626 0)
(3.08072 0.107035 0)
(3.07958 0.104914 0)
(3.07856 0.102055 0)
(3.07764 0.0987136 0)
(3.07587 0.0938227 0)
(3.06819 0.0854763 0)
(3.05021 0.0641853 0)
(3.02333 0.029272 0)
(3.00404 0.00501668 0)
(3.00014 0.000182832 0)
(3 7.45597e-07 0)
(3.20888 -0.196736 0)
(3.20968 -0.196617 0)
(3.21023 -0.196641 0)
(3.21053 -0.196742 0)
(3.21043 -0.196927 0)
(3.20911 -0.197191 0)
(3.20513 -0.196218 0)
(3.19997 -0.194123 0)
(3.19864 -0.192907 0)
(3.19915 -0.192231 0)
(3.19957 -0.191558 0)
(3.19965 -0.190771 0)
(3.19953 -0.190454 0)
(3.19955 -0.190524 0)
(3.19996 -0.190766 0)
(3.20033 -0.191257 0)
(3.2003 -0.191628 0)
(3.20023 -0.191884 0)
(3.19998 -0.192168 0)
(3.19881 -0.191909 0)
(3.19609 -0.18967 0)
(3.19394 -0.186921 0)
(3.19367 -0.185485 0)
(3.19397 -0.184761 0)
(3.19468 -0.184077 0)
(3.19697 -0.183395 0)
(3.20134 -0.183891 0)
(3.20495 -0.186213 0)
(3.20584 -0.187127 0)
(3.20587 -0.187361 0)
(3.20521 -0.187863 0)
(3.20214 -0.187964 0)
(3.19539 -0.186135 0)
(3.18972 -0.183573 0)
(3.18863 -0.182709 0)
(3.18843 -0.182328 0)
(3.18878 -0.18172 0)
(3.19027 -0.18161 0)
(3.19274 -0.182438 0)
(3.1957 -0.184564 0)
(3.19724 -0.186773 0)
(3.19696 -0.18748 0)
(3.19666 -0.187424 0)
(3.19618 -0.186371 0)
(3.19532 -0.184059 0)
(3.19416 -0.181657 0)
(3.19306 -0.180302 0)
(3.19247 -0.180033 0)
(3.19238 -0.180565 0)
(3.19213 -0.181988 0)
(3.19136 -0.18475 0)
(3.18971 -0.188014 0)
(3.18768 -0.190909 0)
(3.18712 -0.189912 0)
(3.1859 -0.184652 0)
(3.18278 -0.174375 0)
(3.17754 -0.156972 0)
(3.16858 -0.129891 0)
(3.15436 -0.0899138 0)
(3.13674 -0.0407684 0)
(3.11985 0.00667034 0)
(3.10726 0.041373 0)
(3.10018 0.0595532 0)
(3.09721 0.0659612 0)
(3.09593 0.0674655 0)
(3.09501 0.0681206 0)
(3.09452 0.0686137 0)
(3.09413 0.0689058 0)
(3.09332 0.069216 0)
(3.09274 0.0695239 0)
(3.09211 0.0696728 0)
(3.09146 0.0699387 0)
(3.09092 0.0704075 0)
(3.09071 0.0708354 0)
(3.09118 0.07149 0)
(3.09176 0.0721576 0)
(3.09126 0.0722516 0)
(3.09088 0.072243 0)
(3.09046 0.0724291 0)
(3.08981 0.0726521 0)
(3.08948 0.0727172 0)
(3.08877 0.0727244 0)
(3.08809 0.0729047 0)
(3.08733 0.0735959 0)
(3.08696 0.07409 0)
(3.08634 0.0746959 0)
(3.08569 0.075471 0)
(3.08523 0.076478 0)
(3.08504 0.0778077 0)
(3.08517 0.0793103 0)
(3.08535 0.0801397 0)
(3.08541 0.0800678 0)
(3.08559 0.0795882 0)
(3.08553 0.0789613 0)
(3.08519 0.0786533 0)
(3.0849 0.0783308 0)
(3.08441 0.0779431 0)
(3.08339 0.0772404 0)
(3.082 0.0762751 0)
(3.0802 0.0755147 0)
(3.07874 0.0751412 0)
(3.07817 0.0753914 0)
(3.07767 0.076444 0)
(3.07742 0.0779453 0)
(3.07747 0.0793683 0)
(3.07778 0.0808799 0)
(3.0785 0.0826253 0)
(3.0798 0.0846169 0)
(3.08108 0.0862453 0)
(3.08136 0.0871128 0)
(3.08111 0.0876859 0)
(3.08077 0.0883195 0)
(3.08052 0.0891768 0)
(3.08056 0.0903229 0)
(3.08086 0.0917076 0)
(3.08099 0.0928168 0)
(3.08078 0.0932901 0)
(3.08059 0.0933542 0)
(3.07996 0.0930135 0)
(3.07864 0.0921683 0)
(3.07709 0.0912183 0)
(3.0758 0.0903307 0)
(3.07472 0.089461 0)
(3.07369 0.0885865 0)
(3.07259 0.0877099 0)
(3.07133 0.0869138 0)
(3.07019 0.0864694 0)
(3.06983 0.0864316 0)
(3.0695 0.0869081 0)
(3.07003 0.0883642 0)
(3.07219 0.0920309 0)
(3.07643 0.0985995 0)
(3.08104 0.1051 0)
(3.0828 0.107808 0)
(3.08277 0.108143 0)
(3.08253 0.108175 0)
(3.08129 0.109214 0)
(3.07855 0.111194 0)
(3.07546 0.109834 0)
(3.07114 0.103145 0)
(3.06135 0.0872065 0)
(3.04098 0.0552117 0)
(3.01432 0.0181741 0)
(3.00144 0.00185809 0)
(3.00002 3.47907e-05 0)
(3 6.83346e-08 0)
(3 8.47112e-12 0)
(3.20653 -0.188652 0)
(3.20739 -0.188472 0)
(3.20782 -0.188691 0)
(3.20773 -0.189174 0)
(3.20713 -0.18944 0)
(3.20616 -0.188897 0)
(3.2047 -0.188526 0)
(3.20258 -0.188033 0)
(3.2002 -0.185901 0)
(3.1993 -0.184184 0)
(3.19927 -0.183102 0)
(3.19942 -0.181994 0)
(3.19993 -0.180754 0)
(3.20043 -0.180331 0)
(3.20062 -0.180486 0)
(3.20094 -0.181148 0)
(3.2009 -0.181871 0)
(3.20078 -0.182101 0)
(3.20039 -0.182361 0)
(3.19978 -0.182729 0)
(3.19864 -0.182393 0)
(3.19654 -0.180329 0)
(3.19597 -0.178008 0)
(3.19634 -0.177069 0)
(3.19677 -0.176362 0)
(3.19767 -0.175411 0)
(3.19967 -0.17549 0)
(3.20326 -0.176561 0)
(3.20524 -0.177764 0)
(3.20548 -0.178078 0)
(3.20539 -0.178607 0)
(3.20364 -0.179243 0)
(3.19876 -0.17847 0)
(3.19243 -0.175301 0)
(3.18982 -0.17309 0)
(3.18962 -0.172434 0)
(3.18996 -0.171593 0)
(3.19132 -0.170639 0)
(3.19293 -0.170526 0)
(3.19419 -0.17144 0)
(3.19537 -0.17277 0)
(3.19597 -0.174159 0)
(3.19582 -0.175338 0)
(3.19532 -0.176236 0)
(3.19478 -0.176871 0)
(3.19377 -0.177393 0)
(3.19267 -0.177152 0)
(3.192 -0.176255 0)
(3.19135 -0.175379 0)
(3.19039 -0.174144 0)
(3.18938 -0.172518 0)
(3.18887 -0.171037 0)
(3.18949 -0.167003 0)
(3.19115 -0.16271 0)
(3.19152 -0.160933 0)
(3.19142 -0.158867 0)
(3.19153 -0.155003 0)
(3.19112 -0.149311 0)
(3.18817 -0.141837 0)
(3.17937 -0.127921 0)
(3.1673 -0.102383 0)
(3.15184 -0.064241 0)
(3.13301 -0.0177033 0)
(3.11524 0.0254577 0)
(3.10368 0.0536105 0)
(3.09776 0.0670596 0)
(3.09507 0.0716545 0)
(3.09412 0.0727615 0)
(3.09351 0.0731249 0)
(3.09303 0.0734845 0)
(3.09252 0.0737273 0)
(3.09191 0.0741341 0)
(3.09142 0.0747903 0)
(3.09132 0.075442 0)
(3.09158 0.0756654 0)
(3.0919 0.0757543 0)
(3.09128 0.0757384 0)
(3.09084 0.0757745 0)
(3.09043 0.0758952 0)
(3.09014 0.0758844 0)
(3.08968 0.0758256 0)
(3.0891 0.0759097 0)
(3.08844 0.076292 0)
(3.08792 0.0769477 0)
(3.08753 0.0776784 0)
(3.0871 0.078432 0)
(3.08668 0.0792517 0)
(3.08645 0.0800775 0)
(3.08649 0.0807294 0)
(3.08635 0.0808914 0)
(3.08604 0.08081 0)
(3.08581 0.0807446 0)
(3.08547 0.0809469 0)
(3.08491 0.0812694 0)
(3.08421 0.0813854 0)
(3.08355 0.0811625 0)
(3.08284 0.080552 0)
(3.08189 0.0797326 0)
(3.08054 0.0790458 0)
(3.07962 0.0786742 0)
(3.07911 0.078979 0)
(3.07862 0.0800272 0)
(3.07859 0.0813287 0)
(3.07875 0.0826482 0)
(3.07895 0.0840458 0)
(3.07937 0.0857024 0)
(3.08024 0.0876542 0)
(3.0814 0.0894649 0)
(3.08204 0.0905978 0)
(3.08201 0.0912324 0)
(3.08177 0.0917953 0)
(3.08156 0.0924796 0)
(3.08154 0.0933336 0)
(3.08166 0.0942441 0)
(3.08155 0.0948805 0)
(3.08133 0.0950709 0)
(3.08107 0.0950328 0)
(3.0803 0.0944049 0)
(3.07912 0.0933937 0)
(3.07785 0.0923848 0)
(3.07664 0.0915673 0)
(3.07551 0.090926 0)
(3.07439 0.0904075 0)
(3.0732 0.0898987 0)
(3.07192 0.089522 0)
(3.07106 0.0894222 0)
(3.07069 0.0896756 0)
(3.07043 0.0905756 0)
(3.07118 0.0927567 0)
(3.07388 0.0975286 0)
(3.07877 0.104676 0)
(3.08279 0.110251 0)
(3.08345 0.111819 0)
(3.08316 0.111585 0)
(3.08232 0.109538 0)
(3.08116 0.106676 0)
(3.07993 0.103721 0)
(3.07786 0.0993742 0)
(3.07123 0.0920978 0)
(3.05563 0.073468 0)
(3.03006 0.0390818 0)
(3.00708 0.00904589 0)
(3.00039 0.000534836 0)
(3 4.70128e-06 0)
(3 3.6587e-09 0)
(3 4.18492e-13 0)
(3 -1.57171e-14 0)
(3.20913 -0.177981 0)
(3.20964 -0.177479 0)
(3.20962 -0.177248 0)
(3.20895 -0.177537 0)
(3.2076 -0.178356 0)
(3.20541 -0.179608 0)
(3.20305 -0.180338 0)
(3.20259 -0.179357 0)
(3.20234 -0.178684 0)
(3.20168 -0.177374 0)
(3.20126 -0.175812 0)
(3.20186 -0.174971 0)
(3.20237 -0.173851 0)
(3.20272 -0.172218 0)
(3.20291 -0.172192 0)
(3.203 -0.172686 0)
(3.20279 -0.173411 0)
(3.20256 -0.173861 0)
(3.20231 -0.173943 0)
(3.20193 -0.173678 0)
(3.20134 -0.173516 0)
(3.20008 -0.172567 0)
(3.19772 -0.169706 0)
(3.19688 -0.167627 0)
(3.19749 -0.166868 0)
(3.19816 -0.166468 0)
(3.20017 -0.166001 0)
(3.20276 -0.166351 0)
(3.20331 -0.168311 0)
(3.20288 -0.169673 0)
(3.20242 -0.170004 0)
(3.20128 -0.169895 0)
(3.19933 -0.169948 0)
(3.19603 -0.168789 0)
(3.19271 -0.16594 0)
(3.19186 -0.164334 0)
(3.19175 -0.163714 0)
(3.19158 -0.162997 0)
(3.19188 -0.162975 0)
(3.19279 -0.163542 0)
(3.19364 -0.164779 0)
(3.1939 -0.165785 0)
(3.19395 -0.166414 0)
(3.19404 -0.166761 0)
(3.19407 -0.166907 0)
(3.19399 -0.167048 0)
(3.19351 -0.167121 0)
(3.19268 -0.166441 0)
(3.19228 -0.16509 0)
(3.1927 -0.163512 0)
(3.19336 -0.161679 0)
(3.19367 -0.160289 0)
(3.19364 -0.159993 0)
(3.19247 -0.16096 0)
(3.1908 -0.163436 0)
(3.18963 -0.166898 0)
(3.18821 -0.171473 0)
(3.18634 -0.176197 0)
(3.18592 -0.177982 0)
(3.18635 -0.174793 0)
(3.18473 -0.166289 0)
(3.18112 -0.151549 0)
(3.1741 -0.127793 0)
(3.16142 -0.0914312 0)
(3.14343 -0.04451 0)
(3.12433 0.00307076 0)
(3.10859 0.0414684 0)
(3.099 0.0648103 0)
(3.09483 0.0742228 0)
(3.09341 0.0765856 0)
(3.09293 0.0770023 0)
(3.09267 0.0771525 0)
(3.09228 0.0776058 0)
(3.09225 0.0781133 0)
(3.09225 0.0782476 0)
(3.09209 0.0782192 0)
(3.0916 0.0785669 0)
(3.09097 0.0787204 0)
(3.09053 0.0791204 0)
(3.09025 0.079382 0)
(3.08985 0.079427 0)
(3.08923 0.0797844 0)
(3.08848 0.0805405 0)
(3.08803 0.081404 0)
(3.08779 0.0821255 0)
(3.0876 0.0826673 0)
(3.08741 0.0830977 0)
(3.08717 0.08338 0)
(3.08688 0.0833567 0)
(3.08663 0.0831031 0)
(3.08641 0.0826392 0)
(3.08608 0.082037 0)
(3.0854 0.0816365 0)
(3.0849 0.081454 0)
(3.08452 0.0813878 0)
(3.08382 0.0814438 0)
(3.0828 0.0814029 0)
(3.08167 0.0813957 0)
(3.08105 0.0817245 0)
(3.08037 0.0826707 0)
(3.07994 0.0838826 0)
(3.07978 0.0853002 0)
(3.07979 0.0867748 0)
(3.07989 0.0879846 0)
(3.08013 0.0891219 0)
(3.08075 0.0905875 0)
(3.08188 0.0923213 0)
(3.08282 0.0937044 0)
(3.08298 0.094486 0)
(3.08275 0.0949879 0)
(3.08247 0.0954772 0)
(3.08228 0.0960646 0)
(3.08216 0.0966204 0)
(3.08197 0.0968582 0)
(3.08183 0.0968394 0)
(3.0814 0.0964456 0)
(3.08049 0.0955939 0)
(3.07922 0.0946548 0)
(3.07807 0.0936885 0)
(3.07712 0.0927799 0)
(3.07627 0.0918675 0)
(3.07532 0.0909679 0)
(3.07428 0.0900813 0)
(3.07337 0.0894753 0)
(3.07285 0.0893869 0)
(3.07208 0.090005 0)
(3.07202 0.0917646 0)
(3.07346 0.0951815 0)
(3.07693 0.101346 0)
(3.08141 0.108706 0)
(3.08363 0.113097 0)
(3.08388 0.114082 0)
(3.08366 0.114298 0)
(3.08292 0.114783 0)
(3.08132 0.115275 0)
(3.07882 0.11368 0)
(3.07446 0.108132 0)
(3.06516 0.0941611 0)
(3.0462 0.0643708 0)
(3.01916 0.0253074 0)
(3.00269 0.00357497 0)
(3.00007 0.000109635 0)
(3 4.34213e-07 0)
(3 1.28867e-10 0)
(3 2.94996e-15 0)
(3 -1.45838e-14 0)
(3 -1.3184e-14 0)
(3.21231 -0.170931 0)
(3.21276 -0.170026 0)
(3.21275 -0.169298 0)
(3.21209 -0.169165 0)
(3.2107 -0.169809 0)
(3.20858 -0.170967 0)
(3.20515 -0.171322 0)
(3.20301 -0.170039 0)
(3.20369 -0.169545 0)
(3.20397 -0.169461 0)
(3.20419 -0.168696 0)
(3.20392 -0.166603 0)
(3.20265 -0.165061 0)
(3.20106 -0.164324 0)
(3.20049 -0.163832 0)
(3.20072 -0.163929 0)
(3.20079 -0.164043 0)
(3.20065 -0.16454 0)
(3.20007 -0.165067 0)
(3.19973 -0.165118 0)
(3.19986 -0.164375 0)
(3.20068 -0.16355 0)
(3.20127 -0.162969 0)
(3.2012 -0.161207 0)
(3.20015 -0.158952 0)