/*--------------------------------*- C++ -*----------------------------------*\
  =========                 |
  \\      /  F ield         | OpenFOAM: The Open Source CFD Toolbox
   \\    /   O peration     | Website:  https://openfoam.org
    \\  /    A nd           | Version:  7
     \\/     M anipulation  |
\*---------------------------------------------------------------------------*/
FoamFile
{
    version     2.0;
    format      ascii;
    class       volScalarField;
    location    "62.99979";
    object      p;
}
// * * * * * * * * * * * * * * * * * * * * * * * * * * * * * * * * * * * * * //

dimensions      [0 2 -2 0 0 0 0];

internalField   nonuniform List<scalar> 
23200
(
-0.218559
-0.220333
-0.221408
-0.222249
-0.222984
-0.223636
-0.224241
-0.224828
-0.225407
-0.225976
-0.226523
-0.227028
-0.227464
-0.227797
-0.227992
-0.228007
-0.227801
-0.227358
-0.226647
-0.225577
-0.218829
-0.220573
-0.22163
-0.222458
-0.223181
-0.223823
-0.22442
-0.224999
-0.225571
-0.226135
-0.226677
-0.227179
-0.227612
-0.227945
-0.228139
-0.228153
-0.227942
-0.227489
-0.226768
-0.225579
-0.219363
-0.221047
-0.22207
-0.222871
-0.223571
-0.224193
-0.224772
-0.225336
-0.225895
-0.226447
-0.226981
-0.227475
-0.227904
-0.228233
-0.228425
-0.228436
-0.228213
-0.227734
-0.227009
-0.225549
-0.220146
-0.221745
-0.222716
-0.223478
-0.224144
-0.224735
-0.225287
-0.225827
-0.226365
-0.226899
-0.227418
-0.227901
-0.228321
-0.228644
-0.228832
-0.228838
-0.228599
-0.228069
-0.227386
-0.225442
-0.22116
-0.222649
-0.223555
-0.224266
-0.224885
-0.225434
-0.225949
-0.226456
-0.226963
-0.227471
-0.227968
-0.228432
-0.228839
-0.229152
-0.229331
-0.229332
-0.229079
-0.22845
-0.227931
-0.225183
-0.222379
-0.223739
-0.224568
-0.225215
-0.225776
-0.226272
-0.226738
-0.227199
-0.227667
-0.228138
-0.228603
-0.229041
-0.229427
-0.229725
-0.22989
-0.229882
-0.22963
-0.228806
-0.228688
-0.224657
-0.223776
-0.224994
-0.225734
-0.226306
-0.226796
-0.227227
-0.227631
-0.228034
-0.228448
-0.228871
-0.229293
-0.229694
-0.230049
-0.230324
-0.230468
-0.230439
-0.230234
-0.229032
-0.229704
-0.223758
-0.225324
-0.226389
-0.227031
-0.227518
-0.227925
-0.228276
-0.228604
-0.228934
-0.229279
-0.229639
-0.230004
-0.230355
-0.230668
-0.230909
-0.231021
-0.230937
-0.230874
-0.229054
-0.230895
-0.222722
-0.226994
-0.227904
-0.22844
-0.228831
-0.229143
-0.229399
-0.229634
-0.229873
-0.230132
-0.230412
-0.230703
-0.230989
-0.231243
-0.231436
-0.231505
-0.231306
-0.231468
-0.229113
-0.231599
-0.221863
-0.228762
-0.229518
-0.229944
-0.230229
-0.230431
-0.230576
-0.230699
-0.230829
-0.230981
-0.231161
-0.23136
-0.231561
-0.23174
-0.231866
-0.231882
-0.231634
-0.231776
-0.229042
-0.232298
-0.220662
-0.230609
-0.231216
-0.231527
-0.231696
-0.231774
-0.23179
-0.231781
-0.23178
-0.231804
-0.231862
-0.231948
-0.232045
-0.232128
-0.232169
-0.232109
-0.231758
-0.231972
-0.228616
-0.232958
-0.219171
-0.232524
-0.232989
-0.233181
-0.233224
-0.233163
-0.23303
-0.232868
-0.232712
-0.232586
-0.232499
-0.232449
-0.232421
-0.232388
-0.232321
-0.232171
-0.231657
-0.23201
-0.227848
-0.233388
-0.21754
-0.2345
-0.234833
-0.234904
-0.234809
-0.234592
-0.234291
-0.233953
-0.233618
-0.233316
-0.233061
-0.232853
-0.232679
-0.23251
-0.232314
-0.232057
-0.231338
-0.231813
-0.226825
-0.233325
-0.216022
-0.236545
-0.236755
-0.236699
-0.236454
-0.236064
-0.235573
-0.235035
-0.234498
-0.233997
-0.233551
-0.233163
-0.232822
-0.232498
-0.232151
-0.231765
-0.23082
-0.231299
-0.225687
-0.232445
-0.214831
-0.238672
-0.238767
-0.238578
-0.23817
-0.237587
-0.236885
-0.236124
-0.235361
-0.234637
-0.233978
-0.233391
-0.232864
-0.232367
-0.231846
-0.231298
-0.230131
-0.230383
-0.224554
-0.230495
-0.213926
-0.240908
-0.24089
-0.240559
-0.239971
-0.239177
-0.238242
-0.237235
-0.236223
-0.235257
-0.234366
-0.233561
-0.232831
-0.23214
-0.231422
-0.23066
-0.229281
-0.229016
-0.22342
-0.227473
-0.212931
-0.24329
-0.243155
-0.242667
-0.241883
-0.240858
-0.239667
-0.238393
-0.237113
-0.235884
-0.234745
-0.233706
-0.232755
-0.231848
-0.230902
-0.229858
-0.228242
-0.227204
-0.222101
-0.223638
-0.211362
-0.24586
-0.245595
-0.244939
-0.243937
-0.242657
-0.24119
-0.23963
-0.238063
-0.236557
-0.235153
-0.233866
-0.232673
-0.231517
-0.230296
-0.228892
-0.226952
-0.224985
-0.220318
-0.21927
-0.20894
-0.248672
-0.248256
-0.24741
-0.246167
-0.244611
-0.242847
-0.240982
-0.239114
-0.237317
-0.235636
-0.234081
-0.232619
-0.23117
-0.229604
-0.227744
-0.225339
-0.222388
-0.217849
-0.214421
-0.205734
-0.251784
-0.251186
-0.250123
-0.248615
-0.246759
-0.244678
-0.242493
-0.24031
-0.23821
-0.236237
-0.234391
-0.232619
-0.230812
-0.228807
-0.226382
-0.223345
-0.219432
-0.214614
-0.209075
-0.202028
-0.255253
-0.254433
-0.253122
-0.251322
-0.249143
-0.246728
-0.244207
-0.241698
-0.239281
-0.236995
-0.234823
-0.232684
-0.230432
-0.227872
-0.224757
-0.220944
-0.216122
-0.210678
-0.2037
-0.197716
-0.259142
-0.25805
-0.256455
-0.254333
-0.251808
-0.249039
-0.246171
-0.243322
-0.240572
-0.237944
-0.235396
-0.232809
-0.230001
-0.226756
-0.222831
-0.218138
-0.212439
-0.206172
-0.198712
-0.192
-0.263507
-0.262086
-0.260169
-0.257695
-0.254799
-0.251659
-0.248428
-0.245225
-0.242117
-0.239104
-0.236107
-0.232969
-0.229477
-0.225415
-0.220577
-0.214951
-0.208387
-0.201397
-0.193424
-0.186126
-0.268403
-0.266589
-0.264308
-0.261451
-0.25816
-0.254632
-0.251023
-0.247443
-0.24394
-0.240479
-0.236937
-0.233122
-0.22881
-0.22381
-0.217988
-0.211413
-0.204045
-0.196384
-0.188003
-0.180339
-0.273879
-0.271603
-0.268916
-0.265645
-0.261936
-0.258
-0.253992
-0.250005
-0.246053
-0.242055
-0.237848
-0.233215
-0.227947
-0.221911
-0.21507
-0.20757
-0.199461
-0.191219
-0.182485
-0.174522
-0.279976
-0.277167
-0.274031
-0.270316
-0.266166
-0.261802
-0.257369
-0.252928
-0.248448
-0.2438
-0.238785
-0.233185
-0.226839
-0.219701
-0.211839
-0.203462
-0.194684
-0.185934
-0.176884
-0.168703
-0.286725
-0.283312
-0.279689
-0.275503
-0.270888
-0.266072
-0.261173
-0.256211
-0.251099
-0.24566
-0.239676
-0.232964
-0.225444
-0.217173
-0.208317
-0.199125
-0.189745
-0.18054
-0.171215
-0.162828
-0.294149
-0.290065
-0.285918
-0.281236
-0.276134
-0.270832
-0.265413
-0.259835
-0.253955
-0.247559
-0.240442
-0.232489
-0.223728
-0.214325
-0.204521
-0.194578
-0.184653
-0.175038
-0.165461
-0.156883
-0.302256
-0.297439
-0.292738
-0.287538
-0.281922
-0.276092
-0.270072
-0.263755
-0.256942
-0.249407
-0.240996
-0.231698
-0.221665
-0.211158
-0.200461
-0.189829
-0.179407
-0.169414
-0.159609
-0.150843
-0.311041
-0.305436
-0.300156
-0.29442
-0.288259
-0.281838
-0.275111
-0.267897
-0.25996
-0.251099
-0.241252
-0.23054
-0.219236
-0.207669
-0.196139
-0.184871
-0.173992
-0.163647
-0.153634
-0.144687
-0.320478
-0.31404
-0.308164
-0.301874
-0.295127
-0.28803
-0.280457
-0.272159
-0.262891
-0.252523
-0.241126
-0.228967
-0.216419
-0.203849
-0.191543
-0.179689
-0.168386
-0.157715
-0.147514
-0.138393
-0.330518
-0.323215
-0.316733
-0.309868
-0.302479
-0.294596
-0.286003
-0.276408
-0.265598
-0.253566
-0.240544
-0.22694
-0.213194
-0.19968
-0.186655
-0.174259
-0.162561
-0.15159
-0.141224
-0.131941
-0.341086
-0.332901
-0.32581
-0.318345
-0.310238
-0.301426
-0.291611
-0.280489
-0.267938
-0.254118
-0.239437
-0.224416
-0.209533
-0.195139
-0.181446
-0.16855
-0.15649
-0.145247
-0.134738
-0.125308
-0.352077
-0.343009
-0.335308
-0.327209
-0.318286
-0.308371
-0.297108
-0.28423
-0.269766
-0.254078
-0.237741
-0.221356
-0.205404
-0.190193
-0.175884
-0.16253
-0.15014
-0.138657
-0.128033
-0.118476
-0.363351
-0.353418
-0.34511
-0.33633
-0.326465
-0.315248
-0.302297
-0.28745
-0.27094
-0.253348
-0.235393
-0.217716
-0.200768
-0.184805
-0.169933
-0.156166
-0.143481
-0.131795
-0.121086
-0.111424
-0.374737
-0.363973
-0.35506
-0.345535
-0.334579
-0.321839
-0.306964
-0.289965
-0.271326
-0.251841
-0.232333
-0.213447
-0.195583
-0.178934
-0.163554
-0.149421
-0.136482
-0.124636
-0.113873
-0.104135
-0.386024
-0.374481
-0.364964
-0.354614
-0.342395
-0.327902
-0.310886
-0.291598
-0.270799
-0.249471
-0.2285
-0.2085
-0.189803
-0.172538
-0.15671
-0.142262
-0.129116
-0.117154
-0.106373
-0.0965916
-0.396972
-0.384719
-0.374592
-0.363318
-0.34965
-0.333179
-0.313838
-0.292178
-0.269241
-0.246159
-0.223833
-0.202821
-0.18338
-0.165574
-0.149362
-0.134658
-0.121355
-0.109328
-0.0985657
-0.088779
-0.407308
-0.394427
-0.38368
-0.371368
-0.356058
-0.337405
-0.315605
-0.291551
-0.266545
-0.241826
-0.21827
-0.196358
-0.176267
-0.158
-0.141475
-0.126576
-0.113176
-0.101137
-0.0904344
-0.0806882
-0.416734
-0.403319
-0.391933
-0.378461
-0.361322
-0.340318
-0.315983
-0.289572
-0.262613
-0.2364
-0.211752
-0.189058
-0.168418
-0.149777
-0.133015
-0.117991
-0.104556
-0.0925645
-0.081968
-0.0723189
-0.424934
-0.411088
-0.399039
-0.38428
-0.365145
-0.341669
-0.314787
-0.286112
-0.257355
-0.229811
-0.20422
-0.180871
-0.159789
-0.140867
-0.123952
-0.108878
-0.0954758
-0.0835935
-0.0731582
-0.0636762
-0.431577
-0.417411
-0.404669
-0.388502
-0.367235
-0.341225
-0.31185
-0.28106
-0.25069
-0.221998
-0.195621
-0.171752
-0.150343
-0.131241
-0.114262
-0.0992177
-0.0859188
-0.0742083
-0.0639941
-0.0547547
-0.436334
-0.421958
-0.408494
-0.390812
-0.36732
-0.338778
-0.307029
-0.274317
-0.242547
-0.212902
-0.185907
-0.16166
-0.140047
-0.120872
-0.103924
-0.0889936
-0.0758715
-0.0643969
-0.0544605
-0.0455207
-0.438879
-0.424406
-0.410192
-0.390912
-0.365155
-0.334151
-0.300205
-0.265803
-0.232866
-0.202476
-0.175039
-0.150563
-0.128873
-0.109739
-0.0929233
-0.0781943
-0.0653246
-0.0541562
-0.0445548
-0.0358991
-0.438902
-0.424443
-0.409459
-0.388531
-0.360526
-0.327194
-0.29128
-0.255452
-0.221599
-0.19068
-0.162985
-0.138434
-0.116803
-0.0978272
-0.0812472
-0.0668107
-0.0542743
-0.0434912
-0.0343055
-0.0258333
-0.436118
-0.42178
-0.406017
-0.38343
-0.353255
-0.317793
-0.280183
-0.243218
-0.208711
-0.177488
-0.149723
-0.125258
-0.103823
-0.0851271
-0.0688898
-0.0548378
-0.0427308
-0.0324113
-0.0237176
-0.0154361
-0.430274
-0.416161
-0.399629
-0.375414
-0.343205
-0.305864
-0.266869
-0.229074
-0.194184
-0.162884
-0.135238
-0.111024
-0.0899265
-0.0716375
-0.0558612
-0.0422852
-0.0307202
-0.020953
-0.0126732
-0.0048748
-0.421157
-0.407367
-0.390095
-0.36433
-0.330283
-0.291359
-0.251315
-0.213009
-0.178011
-0.146861
-0.119526
-0.095727
-0.0751296
-0.0573754
-0.042191
-0.0292019
-0.0182274
-0.00908239
-0.00126497
0.00591168
-0.4086
-0.395227
-0.377268
-0.350075
-0.314436
-0.274263
-0.233526
-0.195033
-0.160198
-0.129424
-0.102603
-0.0793882
-0.0594732
-0.042383
-0.0278662
-0.0155721
-0.00528342
0.00318762
0.0104582
0.0169475
-0.392486
-0.379618
-0.361051
-0.332594
-0.295652
-0.254594
-0.213529
-0.175169
-0.140764
-0.110608
-0.0845246
-0.0620829
-0.0429336
-0.0266539
-0.0129252
-0.00142057
0.00809164
0.015828
0.0224714
0.0282246
-0.372751
-0.360473
-0.341401
-0.311883
-0.273964
-0.232404
-0.191377
-0.153465
-0.119761
-0.0905
-0.0653034
-0.0437969
-0.0255717
-0.0102235
0.00259984
0.0132198
0.0218708
0.0288067
0.0347536
0.0397185
-0.349388
-0.337777
-0.318328
-0.287987
-0.249445
-0.207773
-0.167145
-0.129999
-0.0973009
-0.0690894
-0.0449922
-0.024583
-0.00743234
0.00686307
0.0186701
0.0283109
0.0360204
0.0420898
0.0472756
0.0513957
-0.322445
-0.311572
-0.291899
-0.261005
-0.222214
-0.180805
-0.14093
-0.104873
-0.0734105
-0.0464732
-0.0236572
-0.0045039
0.0114303
0.0245538
0.0352398
0.04381
0.0505011
0.0556401
0.0600015
0.063216
-0.292024
-0.281953
-0.262236
-0.23109
-0.192405
-0.151602
-0.112859
-0.0781803
-0.0481932
-0.0227383
-0.00137795
0.0163681
0.0309529
0.0427904
0.0522561
0.059669
0.0652692
0.0694183
0.0728933
0.0751377
-0.25828
-0.249069
-0.229519
-0.198418
-0.16011
-0.120358
-0.0830793
-0.0500499
-0.021764
0.0020148
0.0217552
0.0379514
0.051063
0.0615075
0.0696596
0.0758333
0.0802765
0.0833855
0.0859176
0.0871266
-0.221402
-0.213131
-0.193962
-0.163075
-0.12556
-0.0872922
-0.0517576
-0.0206275
0.00574812
0.0276729
0.045641
0.0601555
0.07168
0.0806328
0.0873846
0.092243
0.095472
0.0975028
0.099038
0.0991392
-0.181573
-0.174428
-0.155713
-0.125248
-0.0891303
-0.0525913
-0.0190774
0.00992545
0.0342012
0.0541107
0.0701677
0.082881
0.0927156
0.100088
0.10536
0.108835
0.110806
0.111728
0.11218
0.111033
-0.139027
-0.133279
-0.114857
-0.0855411
-0.0509982
-0.0164797
0.0147618
0.0414342
0.063441
0.0811917
0.0952144
0.106021
0.114075
0.119788
0.123512
0.12555
0.126236
0.126008
0.12518
0.122468
-0.0940968
-0.089859
-0.0721145
-0.0441057
-0.0114259
0.0208007
0.0495481
0.0737119
0.0933027
0.10877
0.120652
0.12946
0.135657
0.139644
0.141762
0.14233
0.141724
0.140267
0.137828
0.133173
-0.0474959
-0.0443906
-0.0277157
-0.00124254
0.0293011
0.0589956
0.0850574
0.106561
0.123611
0.13669
0.146343
0.153079
0.157354
0.15956
0.160033
0.159114
0.157199
0.154393
0.150086
0.143785
0.000664554
0.00259031
0.0180126
0.0427135
0.0708803
0.0978382
0.121055
0.139775
0.154184
0.164792
0.172145
0.176749
0.179054
0.17944
0.17824
0.175819
0.172547
0.168249
0.162067
0.156317
0.0499967
0.0506639
0.0646977
0.0874135
0.112998
0.137052
0.157298
0.173139
0.184832
0.192906
0.19791
0.200342
0.200643
0.199184
0.196298
0.192356
0.187655
0.181836
0.174315
0.168799
0.100067
0.0994255
0.111948
0.132498
0.155333
0.176355
0.193538
0.206434
0.215361
0.220863
0.223486
0.223723
0.222002
0.218689
0.214114
0.20864
0.202483
0.195233
0.186658
0.180773
0.15044
0.14846
0.159363
0.177602
0.197561
0.21546
0.229523
0.239438
0.245575
0.248488
0.248721
0.246756
0.243014
0.23785
0.231593
0.224583
0.216979
0.208395
0.198876
0.192315
0.200678
0.197345
0.206541
0.222359
0.239354
0.254081
0.265
0.271926
0.275275
0.275606
0.273458
0.269306
0.263558
0.256562
0.24864
0.240108
0.231086
0.221239
0.210796
0.203391
0.250343
0.245657
0.253082
0.266405
0.280391
0.29193
0.299717
0.303676
0.304264
0.302043
0.297546
0.291237
0.283515
0.274719
0.265161
0.255135
0.244737
0.233687
0.222327
0.213996
0.299001
0.292975
0.298592
0.309382
0.320352
0.328728
0.333424
0.334469
0.332348
0.327627
0.32083
0.312414
0.302766
0.292216
0.281064
0.269585
0.257859
0.245657
0.233392
0.224092
0.346226
0.338886
0.342683
0.350941
0.358927
0.3642
0.36588
0.364088
0.359335
0.352188
0.343163
0.332706
0.321195
0.30895
0.29626
0.28338
0.270382
0.257081
0.243931
0.233645
0.391606
0.382992
0.384983
0.390744
0.395816
0.39808
0.396849
0.392325
0.385042
0.375565
0.364401
0.351987
0.338691
0.324823
0.310662
0.296444
0.282235
0.267893
0.253888
0.242614
0.434743
0.424906
0.425133
0.428469
0.430732
0.430115
0.426106
0.418982
0.409292
0.397599
0.384404
0.370133
0.355145
0.339741
0.324186
0.308702
0.293353
0.278033
0.263212
0.250963
0.47526
0.464266
0.462796
0.46381
0.463404
0.460064
0.453438
0.443867
0.431916
0.418143
0.403042
0.387029
0.370456
0.353612
0.336753
0.320086
0.303674
0.287446
0.271853
0.258658
0.512803
0.500729
0.497653
0.496481
0.493578
0.487701
0.478644
0.466804
0.452757
0.437058
0.420191
0.402567
0.384527
0.366353
0.348289
0.33053
0.313139
0.29608
0.279767
0.265667
0.547045
0.533979
0.529413
0.526219
0.52102
0.512818
0.501541
0.487629
0.471669
0.454213
0.435738
0.416646
0.39727
0.377886
0.358726
0.339973
0.321696
0.303885
0.286912
0.271961
0.577688
0.563728
0.557808
0.552785
0.545516
0.535227
0.521958
0.506192
0.48852
0.469492
0.449578
0.429174
0.408605
0.38814
0.368
0.34836
0.329295
0.310818
0.293251
0.277516
0.604465
0.58972
0.582602
0.575964
0.566877
0.554758
0.539747
0.522359
0.503191
0.48279
0.461619
0.440069
0.418459
0.39705
0.376057
0.355644
0.335892
0.316839
0.29875
0.28231
0.627143
0.61173
0.603587
0.595571
0.584937
0.571265
0.554776
0.536014
0.515579
0.494015
0.471781
0.449261
0.42677
0.404562
0.382847
0.36178
0.34145
0.321912
0.303379
0.286327
0.645526
0.62957
0.620589
0.611449
0.599555
0.584622
0.566935
0.547058
0.525596
0.503089
0.479993
0.456688
0.433483
0.41063
0.388329
0.366733
0.345936
0.326009
0.307114
0.289553
0.659455
0.643086
0.633466
0.62347
0.610619
0.594729
0.576134
0.555412
0.533172
0.509951
0.486202
0.462301
0.438556
0.415213
0.39247
0.370474
0.349325
0.329103
0.309933
0.29198
0.668808
0.652161
0.64211
0.631537
0.618043
0.60151
0.582304
0.561015
0.538252
0.514552
0.490364
0.466065
0.441957
0.418286
0.395245
0.37298
0.351595
0.331177
0.311821
0.2936
0.673505
0.656719
0.64645
0.635588
0.62177
0.604913
0.585401
0.563827
0.540802
0.51686
0.492453
0.467952
0.443662
0.419826
0.396636
0.374236
0.352733
0.332217
0.312768
0.294411
0.673506
0.656719
0.646451
0.635588
0.62177
0.604913
0.585401
0.563827
0.540802
0.51686
0.492453
0.467952
0.443662
0.419826
0.396636
0.374236
0.352733
0.332217
0.312768
0.294411
0.66881
0.652162
0.642111
0.631538
0.618044
0.601511
0.582304
0.561015
0.538253
0.514552
0.490364
0.466065
0.441956
0.418285
0.395245
0.372979
0.351594
0.331177
0.311821
0.2936
0.659457
0.643088
0.633468
0.623471
0.610621
0.59473
0.576134
0.555413
0.533172
0.509951
0.486202
0.462301
0.438556
0.415213
0.39247
0.370473
0.349324
0.329103
0.309932
0.291979
0.64553
0.629573
0.620592
0.611451
0.599557
0.584624
0.566936
0.547059
0.525597
0.503089
0.479993
0.456688
0.433483
0.410629
0.388328
0.366732
0.345936
0.326008
0.307113
0.289553
0.627147
0.611734
0.603591
0.595574
0.584939
0.571267
0.554778
0.536015
0.51558
0.494015
0.471781
0.449261
0.426769
0.404562
0.382846
0.361779
0.34145
0.321912
0.303379
0.286326
0.60447
0.589724
0.582606
0.575968
0.56688
0.554761
0.539749
0.52236
0.503192
0.48279
0.46162
0.440069
0.418459
0.39705
0.376056
0.355643
0.335891
0.316838
0.298749
0.282309
0.577693
0.563733
0.557813
0.552789
0.54552
0.53523
0.52196
0.506193
0.488521
0.469492
0.449578
0.429174
0.408605
0.388139
0.368
0.348359
0.329294
0.310817
0.29325
0.277515
0.547051
0.533984
0.529418
0.526224
0.521024
0.512821
0.501543
0.48763
0.47167
0.454213
0.435738
0.416646
0.39727
0.377885
0.358725
0.339972
0.321695
0.303884
0.286912
0.27196
0.51281
0.500735
0.497659
0.496486
0.493582
0.487704
0.478647
0.466806
0.452758
0.437058
0.420191
0.402567
0.384526
0.366352
0.348288
0.330528
0.313138
0.296078
0.279766
0.265666
0.475267
0.464272
0.462802
0.463815
0.463408
0.460067
0.45344
0.443869
0.431917
0.418144
0.403042
0.387029
0.370455
0.353611
0.336752
0.320085
0.303672
0.287445
0.271852
0.258657
0.43475
0.424913
0.425139
0.428474
0.430736
0.430118
0.426108
0.418983
0.409293
0.397599
0.384403
0.370132
0.355144
0.339739
0.324184
0.308701
0.293352
0.278032
0.263211
0.250962
0.391613
0.382998
0.384988
0.390749
0.395819
0.398083
0.396851
0.392326
0.385043
0.375565
0.3644
0.351985
0.338689
0.324821
0.31066
0.296442
0.282233
0.267891
0.253887
0.242612
0.346233
0.338892
0.342688
0.350946
0.35893
0.364203
0.365882
0.364089
0.359335
0.352188
0.343162
0.332705
0.321193
0.308948
0.296258
0.283378
0.27038
0.257079
0.243929
0.233643
0.299007
0.29298
0.298597
0.309386
0.320355
0.328731
0.333425
0.334469
0.332347
0.327626
0.320829
0.312412
0.302763
0.292213
0.281062
0.269582
0.257857
0.245655
0.23339
0.224091
0.250348
0.245662
0.253087
0.266409
0.280393
0.291932
0.299717
0.303676
0.304263
0.302042
0.297544
0.291234
0.283512
0.274716
0.265158
0.255132
0.244734
0.233684
0.222325
0.213994
0.200682
0.197349
0.206544
0.222362
0.239356
0.254082
0.265
0.271925
0.275273
0.275604
0.273456
0.269303
0.263555
0.256559
0.248637
0.240105
0.231083
0.221237
0.210794
0.203389
0.150443
0.148463
0.159365
0.177604
0.197562
0.215461
0.229523
0.239436
0.245573
0.248486
0.248717
0.246753
0.243011
0.237847
0.231589
0.22458
0.216975
0.208392
0.198874
0.192312
0.100069
0.099427
0.111949
0.132498
0.155333
0.176354
0.193537
0.206431
0.215358
0.22086
0.223482
0.223719
0.221998
0.218685
0.21411
0.208636
0.20248
0.19523
0.186655
0.180771
0.0499971
0.0506638
0.0646973
0.0874127
0.112997
0.13705
0.157295
0.173135
0.184828
0.192902
0.197905
0.200337
0.200638
0.199179
0.196293
0.192352
0.187651
0.181832
0.174312
0.168797
0.000663143
0.00258844
0.0180105
0.0427112
0.0708775
0.0978348
0.121051
0.13977
0.154179
0.164786
0.172139
0.176744
0.179048
0.179435
0.178235
0.175814
0.172543
0.168245
0.162064
0.156314
-0.0474994
-0.0443944
-0.0277198
-0.0012467
0.0292966
0.0589907
0.0850521
0.106555
0.123605
0.136684
0.146336
0.153072
0.157347
0.159554
0.160027
0.159108
0.157194
0.154389
0.150082
0.143782
-0.0941027
-0.0898651
-0.0721207
-0.0441119
-0.0114322
0.0207942
0.0495414
0.0737048
0.0932954
0.108762
0.120644
0.129453
0.13565
0.139637
0.141756
0.142325
0.141718
0.140263
0.137825
0.133169
-0.139035
-0.133288
-0.114866
-0.0855495
-0.0510064
-0.016488
0.0147534
0.0414257
0.0634325
0.0811832
0.095206
0.106013
0.114067
0.119781
0.123505
0.125544
0.126231
0.126003
0.125176
0.122465
-0.181584
-0.174439
-0.155724
-0.125259
-0.0891407
-0.0526015
-0.0190876
0.00991538
0.0341912
0.0541009
0.0701582
0.0828719
0.0927069
0.10008
0.105353
0.108829
0.1108
0.111723
0.112175
0.11103
-0.221416
-0.213145
-0.193976
-0.163088
-0.125572
-0.0873046
-0.0517696
-0.0206393
0.00573665
0.0276618
0.0456303
0.0601453
0.0716704
0.0806239
0.0873765
0.0922357
0.0954656
0.0974973
0.0990335
0.0991356
-0.258298
-0.249087
-0.229536
-0.198434
-0.160125
-0.120373
-0.0830933
-0.0500635
-0.0217771
0.00200226
0.0217433
0.0379401
0.0510525
0.0614978
0.0696508
0.0758255
0.0802697
0.0833797
0.0859129
0.0871229
-0.292044
-0.281974
-0.262256
-0.23111
-0.192423
-0.151619
-0.112875
-0.0781958
-0.048208
-0.0227523
-0.00139122
0.0163556
0.0309414
0.0427798
0.0522466
0.0596606
0.0652619
0.0694123
0.0728885
0.0751341
-0.322469
-0.311596
-0.291922
-0.261027
-0.222235
-0.180824
-0.140949
-0.10489
-0.0734271
-0.0464888
-0.0236719
-0.00451753
0.0114177
0.0245424
0.0352296
0.0438011
0.0504935
0.0556338
0.0599965
0.0632123
-0.349416
-0.337805
-0.318355
-0.288013
-0.249469
-0.207796
-0.167166
-0.130019
-0.0973194
-0.0691067
-0.0450083
-0.0245979
-0.00744594
0.00685079
0.0186592
0.0283014
0.0360124
0.0420832
0.0472705
0.051392
-0.372782
-0.360504
-0.341431
-0.311912
-0.273991
-0.232429
-0.1914
-0.153487
-0.119782
-0.090519
-0.0653211
-0.0438131
-0.0255863
-0.0102367
0.00258821
0.0132097
0.0218624
0.0287999
0.0347485
0.0397149
-0.39252
-0.379654
-0.361085
-0.332627
-0.295683
-0.254623
-0.213555
-0.175193
-0.140787
-0.110629
-0.0845438
-0.0621004
-0.0429494
-0.0266681
-0.0129376
-0.00143115
0.00808288
0.015821
0.0224663
0.0282211
-0.408638
-0.395266
-0.377306
-0.350111
-0.314469
-0.274294
-0.233555
-0.19506
-0.160222
-0.129447
-0.102624
-0.0794072
-0.0594901
-0.0423981
-0.0278793
-0.0155832
-0.0052925
0.00318052
0.010453
0.0169441
-0.421199
-0.40741
-0.390137
-0.36437
-0.33032
-0.291393
-0.251347
-0.213039
-0.178037
-0.146885
-0.119548
-0.0957473
-0.0751477
-0.0573915
-0.0422047
-0.0292136
-0.0182368
-0.00908958
-0.00127002
0.00590859
-0.43032
-0.416208
-0.399674
-0.375457
-0.343246
-0.305901
-0.266903
-0.229106
-0.194213
-0.162911
-0.135262
-0.111045
-0.0899459
-0.0716545
-0.0558758
-0.0422974
-0.0307298
-0.0209602
-0.012678
-0.00487757
-0.436168
-0.42183
-0.406067
-0.383477
-0.353299
-0.317833
-0.280221
-0.243253
-0.208743
-0.177517
-0.149748
-0.125282
-0.103843
-0.085145
-0.068905
-0.0548504
-0.0427407
-0.0324186
-0.0237222
-0.0154385
-0.438955
-0.424497
-0.409511
-0.388581
-0.360573
-0.327239
-0.29132
-0.255489
-0.221633
-0.190711
-0.163013
-0.138459
-0.116825
-0.097846
-0.0812631
-0.0668237
-0.0542845
-0.0434985
-0.0343099
-0.025835
-0.438936
-0.424463
-0.410248
-0.390966
-0.365206
-0.334199
-0.300248
-0.265843
-0.232902
-0.202509
-0.175069
-0.150589
-0.128896
-0.109759
-0.0929399
-0.0782078
-0.0653349
-0.0541633
-0.0445589
-0.0359002
-0.436394
-0.422018
-0.408554
-0.390869
-0.367375
-0.338829
-0.307076
-0.27436
-0.242586
-0.212937
-0.185939
-0.161688
-0.140071
-0.120893
-0.103942
-0.0890075
-0.0758819
-0.0644039
-0.0544641
-0.0455211
-0.431641
-0.417474
-0.404732
-0.388562
-0.367292
-0.341278
-0.3119
-0.281106
-0.250731
-0.222035
-0.195654
-0.171782
-0.150369
-0.131263
-0.11428
-0.0992319
-0.0859292
-0.074215
-0.0639972
-0.0547543
-0.425
-0.411154
-0.399104
-0.384343
-0.365206
-0.341726
-0.314839
-0.286161
-0.257399
-0.229851
-0.204255
-0.180903
-0.159816
-0.14089
-0.123971
-0.108893
-0.0954862
-0.0835998
-0.0731606
-0.0636748
-0.416803
-0.403387
-0.392001
-0.378527
-0.361386
-0.340378
-0.316039
-0.289623
-0.26266
-0.236442
-0.211789
-0.189091
-0.168446
-0.149801
-0.133034
-0.118006
-0.104566
-0.0925704
-0.0819695
-0.0723162
-0.407379
-0.394497
-0.383749
-0.371437
-0.356124
-0.337468
-0.315664
-0.291605
-0.266595
-0.24187
-0.21831
-0.196393
-0.176297
-0.158025
-0.141495
-0.126592
-0.113186
-0.101142
-0.090435
-0.0806842
-0.397045
-0.384791
-0.374664
-0.363388
-0.349718
-0.333244
-0.3139
-0.292235
-0.269293
-0.246205
-0.223875
-0.202858
-0.183412
-0.165601
-0.149383
-0.134673
-0.121365
-0.109332
-0.0985652
-0.0887736
-0.386099
-0.374555
-0.365037
-0.354686
-0.342466
-0.327969
-0.31095
-0.291657
-0.270853
-0.249521
-0.228545
-0.208539
-0.189836
-0.172566
-0.156732
-0.142278
-0.129126
-0.117158
-0.106371
-0.0965844
-0.374813
-0.364048
-0.355135
-0.345609
-0.334652
-0.321909
-0.307031
-0.290027
-0.271384
-0.251893
-0.23238
-0.213488
-0.195619
-0.178963
-0.163577
-0.149437
-0.136492
-0.124639
-0.11387
-0.104126
-0.363429
-0.353495
-0.345186
-0.336405
-0.326539
-0.31532
-0.302366
-0.287514
-0.271
-0.253403
-0.235442
-0.217759
-0.200805
-0.184836
-0.169956
-0.156182
-0.14349
-0.131798
-0.121081
-0.111413
-0.352155
-0.343087
-0.335385
-0.327286
-0.318361
-0.308445
-0.297179
-0.284297
-0.269829
-0.254135
-0.237793
-0.221402
-0.205443
-0.190225
-0.175909
-0.162548
-0.150149
-0.138658
-0.128027
-0.118462
-0.341165
-0.33298
-0.325887
-0.318422
-0.310315
-0.301501
-0.291684
-0.280558
-0.268004
-0.254179
-0.239493
-0.224465
-0.209575
-0.195173
-0.181472
-0.168568
-0.156499
-0.145247
-0.13473
-0.125292
-0.330597
-0.323294
-0.316812
-0.309946
-0.302557
-0.294672
-0.286078
-0.276479
-0.265666
-0.253629
-0.240603
-0.226991
-0.213239
-0.199717
-0.186682
-0.174277
-0.16257
-0.151589
-0.141213
-0.131921
-0.320558
-0.314119
-0.308243
-0.301952
-0.295205
-0.288107
-0.280532
-0.272232
-0.262962
-0.25259
-0.241188
-0.229022
-0.216467
-0.203887
-0.191573
-0.179708
-0.168394
-0.157713
-0.147501
-0.13837
-0.311121
-0.305515
-0.300235
-0.294499
-0.288338
-0.281915
-0.275188
-0.267973
-0.260034
-0.251169
-0.241317
-0.230599
-0.219287
-0.20771
-0.19617
-0.184891
-0.174001
-0.163644
-0.153619
-0.14466
-0.302337
-0.297519
-0.292817
-0.287617
-0.282001
-0.27617
-0.27015
-0.263833
-0.257017
-0.24948
-0.241065
-0.231761
-0.22172
-0.211203
-0.200495
-0.18985
-0.179416
-0.169409
-0.15959
-0.150811
-0.29423
-0.290145
-0.285998
-0.281315
-0.276213
-0.270911
-0.265492
-0.259914
-0.254033
-0.247635
-0.240515
-0.232556
-0.223787
-0.214374
-0.204557
-0.194601
-0.184662
-0.175032
-0.16544
-0.156847
-0.286806
-0.283393
-0.279769
-0.275582
-0.270967
-0.266151
-0.261253
-0.256291
-0.251179
-0.245739
-0.239753
-0.233036
-0.225507
-0.217226
-0.208357
-0.19915
-0.189754
-0.180533
-0.171189
-0.162786
-0.280057
-0.277247
-0.274111
-0.270396
-0.266245
-0.261882
-0.257449
-0.25301
-0.24853
-0.243883
-0.238865
-0.233261
-0.226907
-0.219759
-0.211883
-0.203491
-0.194694
-0.185925
-0.176855
-0.168654
-0.27396
-0.271683
-0.268995
-0.265724
-0.262015
-0.25808
-0.254074
-0.250089
-0.246137
-0.24214
-0.237932
-0.233296
-0.22802
-0.221974
-0.215119
-0.207601
-0.199472
-0.191209
-0.182452
-0.174466
-0.268484
-0.266669
-0.264387
-0.26153
-0.25824
-0.254713
-0.251105
-0.247528
-0.244027
-0.240567
-0.237025
-0.233207
-0.228889
-0.223878
-0.218043
-0.211448
-0.204059
-0.196373
-0.187965
-0.180275
-0.263587
-0.262165
-0.260248
-0.257774
-0.254879
-0.25174
-0.248511
-0.245311
-0.242205
-0.239194
-0.236198
-0.233058
-0.229561
-0.22549
-0.220637
-0.214992
-0.208403
-0.201385
-0.193382
-0.186053
-0.259221
-0.258129
-0.256533
-0.254412
-0.251888
-0.24912
-0.246254
-0.243409
-0.240662
-0.238037
-0.23549
-0.232903
-0.23009
-0.226837
-0.222897
-0.218184
-0.212459
-0.20616
-0.198666
-0.191916
-0.255332
-0.25451
-0.253199
-0.251399
-0.249222
-0.246808
-0.244291
-0.241785
-0.239372
-0.23709
-0.23492
-0.232781
-0.230525
-0.227958
-0.224829
-0.220995
-0.216145
-0.210667
-0.203649
-0.19762
-0.251861
-0.251261
-0.250198
-0.248691
-0.246837
-0.244758
-0.242576
-0.240397
-0.238301
-0.236332
-0.234489
-0.232719
-0.230909
-0.228898
-0.226459
-0.223402
-0.21946
-0.214605
-0.209022
-0.201922
-0.248747
-0.24833
-0.247484
-0.246242
-0.244687
-0.242926
-0.241065
-0.239201
-0.237408
-0.235732
-0.234181
-0.23272
-0.23127
-0.229698
-0.227826
-0.225401
-0.222421
-0.217842
-0.214368
-0.205621
-0.245932
-0.245666
-0.24501
-0.244009
-0.242731
-0.241267
-0.23971
-0.238148
-0.236647
-0.235249
-0.233965
-0.232775
-0.231619
-0.230393
-0.228977
-0.227018
-0.225022
-0.220315
-0.219218
-0.208824
-0.243358
-0.243222
-0.242735
-0.241952
-0.240929
-0.239741
-0.238472
-0.237196
-0.235973
-0.234838
-0.233804
-0.232856
-0.231949
-0.230998
-0.229945
-0.228311
-0.227244
-0.222102
-0.223587
-0.211243
-0.240972
-0.240954
-0.240623
-0.240036
-0.239245
-0.238313
-0.237311
-0.236304
-0.235342
-0.234457
-0.233656
-0.232929
-0.232239
-0.231518
-0.230747
-0.229351
-0.229058
-0.223424
-0.227423
-0.212809
-0.238731
-0.238826
-0.238638
-0.238232
-0.237651
-0.236953
-0.236196
-0.235437
-0.234719
-0.234065
-0.233483
-0.232959
-0.232462
-0.231939
-0.231383
-0.230201
-0.230424
-0.224559
-0.230446
-0.213801
-0.236598
-0.23681
-0.236755
-0.236512
-0.236125
-0.235637
-0.235103
-0.234571
-0.234074
-0.233633
-0.23325
-0.232912
-0.232589
-0.232239
-0.231846
-0.230887
-0.231339
-0.225691
-0.232396
-0.214704
-0.234549
-0.234883
-0.234955
-0.234862
-0.234648
-0.23435
-0.234016
-0.233686
-0.233388
-0.233138
-0.232934
-0.232762
-0.232595
-0.232397
-0.232132
-0.231399
-0.23185
-0.226826
-0.233275
-0.215891
-0.232567
-0.233034
-0.233228
-0.233272
-0.233214
-0.233085
-0.232926
-0.232774
-0.232652
-0.232569
-0.232523
-0.232497
-0.232466
-0.232396
-0.232239
-0.231712
-0.232041
-0.227843
-0.233336
-0.217406
-0.230647
-0.231256
-0.231569
-0.23174
-0.23182
-0.231839
-0.231834
-0.231836
-0.231864
-0.231926
-0.232015
-0.232114
-0.232198
-0.232236
-0.232169
-0.231805
-0.231996
-0.228606
-0.232903
-0.219033
-0.228795
-0.229553
-0.22998
-0.230267
-0.230472
-0.230619
-0.230746
-0.230879
-0.231035
-0.231217
-0.231419
-0.231623
-0.231801
-0.231925
-0.231933
-0.231674
-0.231793
-0.229025
-0.23224
-0.220523
-0.227021
-0.227934
-0.228472
-0.228865
-0.229179