/*--------------------------------*- C++ -*----------------------------------*\
  =========                 |
  \\      /  F ield         | OpenFOAM: The Open Source CFD Toolbox
   \\    /   O peration     | Website:  https://openfoam.org
    \\  /    A nd           | Version:  7
     \\/     M anipulation  |
\*---------------------------------------------------------------------------*/
FoamFile
{
    version     2.0;
    format      ascii;
    class       volVectorField;
    location    "1.5";
    object      U;
}
// * * * * * * * * * * * * * * * * * * * * * * * * * * * * * * * * * * * * * //

dimensions      [0 1 -1 0 0 0 0];

internalField   nonuniform List<vector> 
344
(
(-1.07768 -1.90955 -5.69308e-15)
(-0.922734 -1.59328 -7.55462e-15)
(-0.698162 -1.25017 -6.19165e-15)
(-0.679374 -1.08117 -5.4361e-15)
(-0.555516 -0.870262 -5.98309e-15)
(-0.550407 -0.720141 -5.69471e-15)
(-0.624314 -0.535034 -7.34959e-15)
(-0.611602 -0.323754 -5.32494e-15)
(-0.608583 -0.0921238 -6.87693e-15)
(-0.528752 0.205552 -3.2389e-15)
(-0.451942 0.517209 -5.83656e-15)
(-0.424793 0.835633 -6.32358e-15)
(-0.395829 1.12429 -7.99057e-15)
(-0.354467 1.3455 -7.75851e-15)
(-0.178561 1.42466 -7.95719e-15)
(-0.0318538 1.35746 -9.71183e-15)
(-0.0513301 1.33322 -9.20949e-15)
(-0.144291 1.33042 -8.44697e-15)
(-0.0884262 1.24516 -4.33047e-15)
(-0.00622993 1.1313 -4.7151e-15)
(0.0687297 1.0394 -1.98813e-15)
(0.169785 0.948751 -5.38643e-16)
(0.254309 0.870728 1.7484e-16)
(0.291917 0.813134 -2.85763e-16)
(0.269614 0.770845 8.33918e-16)
(0.204654 0.72523 1.00886e-16)
(0.106829 0.655536 9.3558e-16)
(0.00705791 0.554077 7.0911e-16)
(-0.0656404 0.433814 1.06349e-15)
(-0.113798 0.312269 8.97716e-16)
(-0.157127 0.186827 1.87097e-15)
(-0.210638 0.0439067 1.08031e-15)
(-0.274562 -0.12973 1.52287e-15)
(-0.333069 -0.332786 4.52321e-17)
(-0.366347 -0.545205 1.74816e-15)
(-0.366315 -0.738218 1.33468e-15)
(-0.348436 -0.894869 2.4229e-15)
(-0.336199 -1.0165 2.69624e-15)
(-0.343098 -1.11137 1.90471e-15)
(-0.36973 -1.18651 1.36758e-15)
(-0.409318 -1.25094 -3.35517e-16)
(-0.460322 -1.29996 -2.59344e-15)
(-0.531664 -1.32967 -4.4358e-15)
(-0.625999 -1.33369 -5.33645e-15)
(-0.254696 -0.0157097 -7.99847e-16)
(-0.880564 0.259016 -6.2614e-16)
(-1.17411 0.544565 2.45907e-16)
(-0.908832 0.383977 -9.51787e-16)
(-0.800967 0.334053 -2.02719e-15)
(-0.884865 0.506563 -1.81981e-15)
(-0.41488 0.264996 -1.79476e-15)
(-0.5323 0.316128 -4.38639e-15)
(-0.271335 0.227798 -4.75257e-15)
(-0.389015 0.209748 -3.49915e-15)
(-0.353811 0.158822 -1.88614e-15)
(-0.489487 0.117179 -2.47917e-15)
(-0.558305 0.123058 -1.36628e-15)
(-0.603633 0.190747 -1.27918e-15)
(-0.627306 0.225793 -2.26524e-15)
(-0.668892 0.0784173 -2.47161e-15)
(-0.666398 -0.322737 -2.92178e-15)
(-0.722723 -0.880372 -2.6822e-15)
(-0.861562 -1.34683 -2.13067e-15)
(-0.995401 -1.56046 -3.40642e-15)
(-0.989055 -1.61133 -4.24348e-15)
(-0.979563 -1.75447 -2.73271e-15)
(-1.25365 -1.86984 -7.02444e-15)
(-1.17449 -1.5654 -1.22768e-14)
(-0.980724 -1.25854 -1.07895e-14)
(-1.01019 -1.11386 -5.73045e-15)
(-0.767196 -0.862964 -6.49515e-15)
(-0.792454 -0.696386 -7.36776e-15)
(-0.865199 -0.508367 -6.13247e-15)
(-0.829024 -0.320501 -4.69235e-15)
(-0.874816 -0.107948 -7.15692e-15)
(-0.845331 0.202992 -4.68939e-15)
(-0.816103 0.509353 -7.73376e-15)
(-0.740892 0.822043 -6.70798e-15)
(-0.67608 1.06655 -8.05994e-15)
(-0.534615 1.26894 -7.20309e-15)
(-0.38549 1.33684 -8.94395e-15)
(-0.266343 1.32295 -9.72251e-15)
(-0.29832 1.33399 -8.76559e-15)
(-0.320468 1.29694 -6.51513e-15)
(-0.197055 1.18892 -4.02677e-15)
(-0.0916485 1.08086 -3.56863e-15)
(0.0287336 0.985995 -1.35385e-15)
(0.151444 0.901978 -7.08467e-17)
(0.242172 0.838665 5.47272e-16)
(0.275524 0.797826 3.26099e-16)
(0.25866 0.770474 1.02369e-16)
(0.189028 0.736037 -3.14737e-16)
(0.0853641 0.672728 1.39153e-16)
(-0.0120323 0.56822 -8.46258e-16)
(-0.0780849 0.439657 -2.31786e-15)
(-0.11838 0.3138 -1.93793e-15)
(-0.157717 0.190942 -2.63094e-15)
(-0.214105 0.0554698 -1.35051e-15)
(-0.285185 -0.113946 -3.51982e-15)
(-0.355128 -0.318059 -1.73554e-15)
(-0.399249 -0.537585 -2.75508e-15)
(-0.403944 -0.737554 -1.41934e-15)
(-0.378123 -0.893253 -1.64405e-15)
(-0.350834 -1.00691 -9.90473e-16)
(-0.350558 -1.09081 -5.43847e-16)
(-0.381868 -1.15698 -5.27658e-16)
(-0.437308 -1.21322 -2.38768e-15)
(-0.51148 -1.25311 -5.01916e-15)
(-0.604956 -1.2739 -5.94518e-15)
(-0.72135 -1.2747 -7.73172e-15)
(-0.235361 0.187568 -1.15701e-15)
(-0.786323 0.383337 -6.72857e-16)
(-1.06606 0.575677 -2.59487e-16)
(-0.820773 0.323389 -3.83352e-16)
(-0.870973 0.319971 -2.07806e-15)
(-0.864667 0.425102 -2.71803e-15)
(-0.440397 0.185308 -9.8678e-16)
(-0.467954 0.277574 -3.41478e-15)
(-0.185977 0.200113 -4.31095e-15)
(-0.285443 0.206495 -4.25085e-15)
(-0.256779 0.16925 -2.70441e-15)
(-0.386015 0.15412 -2.41774e-15)
(-0.471149 0.160072 -1.39506e-15)
(-0.532193 0.215395 -1.39947e-15)
(-0.539499 0.237897 -7.29144e-16)
(-0.559682 0.0882534 2.26069e-16)
(-0.561041 -0.282793 3.59985e-17)
(-0.619525 -0.788603 -6.06575e-16)
(-0.761757 -1.2339 -1.37716e-15)
(-0.961848 -1.48649 -6.62806e-16)
(-0.988192 -1.55499 -5.90818e-16)
(-0.988218 -1.68634 -2.72149e-16)
(-1.31748 -1.79827 -3.96256e-15)
(-1.41162 -1.538 -7.72557e-15)
(-1.25475 -1.26146 -6.91918e-15)
(-1.3202 -1.16867 -4.20824e-15)
(-0.994657 -0.887639 -9.88032e-15)
(-1.08112 -0.703292 -5.39389e-15)
(-1.08967 -0.504417 -6.85449e-15)
(-1.04102 -0.300394 -5.67482e-15)
(-1.13996 -0.10566 -7.53942e-15)
(-1.09572 0.17987 -5.91727e-15)
(-1.04262 0.458418 -7.32379e-15)
(-0.995835 0.75336 -7.04694e-15)
(-0.87376 1.01457 -8.51024e-15)
(-0.790498 1.1905 -8.36608e-15)
(-0.564431 1.27912 -9.33974e-15)
(-0.530856 1.2952 -9.88692e-15)
(-0.549558 1.30603 -7.16136e-15)
(-0.445985 1.24015 -5.61143e-15)
(-0.296179 1.12385 -3.58991e-15)
(-0.148906 1.01598 -2.63679e-15)
(0.00959504 0.919611 -6.75731e-16)
(0.145462 0.8426 -1.04305e-16)
(0.239252 0.794905 6.99027e-16)
(0.277508 0.776538 1.90427e-16)
(0.259231 0.771251 -2.76665e-16)
(0.185155 0.75684 -1.27903e-16)
(0.0831845 0.702153 3.85662e-16)
(-0.013195 0.592654 4.05374e-16)
(-0.0700347 0.454484 1.31706e-15)
(-0.0954209 0.325514 4.07586e-16)
(-0.123162 0.20914 1.36248e-15)
(-0.17505 0.0845063 1.13813e-15)
(-0.250559 -0.0778823 1.90442e-15)
(-0.332878 -0.282705 1.39946e-16)
(-0.39756 -0.509561 1.09208e-15)
(-0.42455 -0.719343 7.62348e-16)
(-0.40818 -0.880147 1.50313e-15)
(-0.372566 -0.988413 2.25916e-15)
(-0.35851 -1.06109 2.0467e-15)
(-0.384035 -1.11673 2.2911e-15)
(-0.446432 -1.16522 1.82896e-15)
(-0.537181 -1.19865 1.12202e-16)
(-0.650637 -1.2117 -1.52957e-15)
(-0.788695 -1.20266 -4.56985e-15)
(-0.214101 0.335571 -7.70402e-16)
(-0.681106 0.508947 -4.50383e-16)
(-0.944118 0.604117 1.01239e-15)
(-0.734791 0.29427 8.04104e-16)
(-0.864028 0.305463 -1.32417e-15)
(-0.766419 0.354808 -2.42759e-15)
(-0.466663 0.10709 -1.4354e-16)
(-0.410045 0.208663 -2.7064e-15)
(-0.0719846 0.15863 -3.27549e-15)
(-0.117008 0.210422 -4.68677e-15)
(-0.0883736 0.208969 -2.21683e-15)
(-0.23287 0.192686 -2.93597e-15)
(-0.341597 0.177935 -1.52849e-15)
(-0.4042 0.206354 -9.78195e-16)
(-0.397347 0.222425 -8.21595e-16)
(-0.399751 0.0888007 -1.0143e-15)
(-0.406148 -0.259205 -2.93966e-15)
(-0.493352 -0.754591 -1.63033e-15)
(-0.676604 -1.18185 -2.57377e-15)
(-0.928517 -1.43703 -2.35898e-15)
(-1.00423 -1.50632 -2.49829e-15)
(-0.995061 -1.57986 -1.04681e-15)
(-1.31494 -1.68067 -2.34413e-15)
(-1.54535 -1.46718 -6.54367e-15)
(-1.48046 -1.23653 -7.27425e-15)
(-1.61035 -1.17394 -7.67541e-15)
(-1.3143 -0.860232 -1.07097e-14)
(-1.43425 -0.679726 -5.29183e-15)
(-1.35382 -0.501037 -6.61369e-15)
(-1.2951 -0.286238 -5.48878e-15)
(-1.40551 -0.108128 -8.04821e-15)
(-1.30859 0.183901 -4.14735e-15)
(-1.31193 0.45325 -9.41013e-15)
(-1.25072 0.732949 -7.62871e-15)
(-1.1203 0.96066 -8.90572e-15)
(-0.938464 1.12778 -8.34261e-15)
(-0.858074 1.21064 -1.01059e-14)
(-0.775205 1.26727 -8.54417e-15)
(-0.753547 1.25129 -5.43244e-15)
(-0.541959 1.16305 -4.43636e-15)
(-0.36708 1.04958 -3.27667e-15)
(-0.172614 0.94114 -1.58423e-15)
(0.00153337 0.851699 -3.01449e-16)
(0.140869 0.792034 1.28521e-16)
(0.23384 0.765885 2.21861e-16)
(0.27435 0.764107 1.04308e-16)
(0.261044 0.772693 -1.19734e-16)
(0.196071 0.770213 -6.10747e-16)
(0.0919084 0.719582 -1.6381e-16)
(0.00254083 0.602686 -4.65663e-16)
(-0.030235 0.451666 -1.69698e-15)
(-0.0282955 0.318559 -1.34746e-15)
(-0.0356253 0.209622 -2.47688e-15)
(-0.0774006 0.0971875 -2.05733e-15)
(-0.151784 -0.055208 -2.88435e-15)
(-0.242381 -0.258607 -2.07867e-15)
(-0.329957 -0.490714 -3.09162e-15)
(-0.393201 -0.711336 -2.10307e-15)
(-0.411374 -0.881177 -2.05433e-15)
(-0.388237 -0.988999 -2.20907e-15)
(-0.367559 -1.04949 -1.60482e-15)
(-0.384288 -1.08883 -4.54182e-16)
(-0.446355 -1.12255 -7.421e-17)
(-0.547861 -1.14608 -1.73771e-15)
(-0.674327 -1.15241 -4.37388e-15)
(-0.82346 -1.13462 -4.79918e-15)
(-0.151592 0.465895 -1.14761e-15)
(-0.554087 0.598637 -5.44456e-16)
(-0.795825 0.629589 8.40322e-16)
(-0.618979 0.279209 6.2149e-16)
(-0.790458 0.284446 -5.25258e-17)
(-0.617503 0.299639 -1.95536e-15)
(-0.404846 0.0503149 -1.49575e-15)
(-0.366518 0.119882 -1.14786e-15)
(0.0128264 0.100975 -1.13195e-15)
(0.0189916 0.211364 -5.27012e-15)
(0.0347077 0.212296 -3.89329e-15)
(-0.0867078 0.217781 -2.22089e-15)
(-0.192056 0.214384 -1.647e-15)
(-0.276578 0.220322 -2.00403e-15)
(-0.267815 0.2147 -1.59005e-15)
(-0.231683 0.077639 4.8627e-16)
(-0.240553 -0.237547 4.45167e-16)
(-0.322471 -0.660883 -8.38104e-17)
(-0.510857 -1.06279 -1.78617e-15)
(-0.80683 -1.35545 -1.03525e-15)
(-0.956128 -1.48246 2.40327e-16)
(-0.95968 -1.52239 3.32378e-16)
(-1.2365 -1.55928 -1.41019e-15)
(-1.61416 -1.38554 -3.25569e-15)
(-1.63317 -1.22046 -4.90164e-15)
(-1.79786 -1.19682 -5.84595e-15)
(-1.61486 -0.85285 -9.39462e-15)
(-1.72473 -0.689051 -7.19021e-15)
(-1.64984 -0.501342 -8.4196e-15)
(-1.59829 -0.256504 -1.01835e-14)
(-1.69667 -0.11239 -8.39076e-15)
(-1.54517 0.184178 -9.09396e-15)
(-1.58723 0.425799 -1.0033e-14)
(-1.43448 0.682133 -7.98134e-15)
(-1.32202 0.884869 -1.02139e-14)
(-1.24007 1.06298 -8.87031e-15)
(-1.07884 1.17028 -8.77716e-15)
(-1.06119 1.20922 -6.53434e-15)
(-0.849775 1.17332 -4.22731e-15)
(-0.629002 1.06859 -3.65686e-15)
(-0.397967 0.960283 -2.37293e-15)
(-0.183257 0.856451 -9.37166e-16)
(0.00146233 0.779352 -2.49962e-16)
(0.147198 0.733827 3.39784e-16)
(0.242688 0.720397 2.29158e-16)
(0.291603 0.736026 -3.73683e-17)
(0.290187 0.768407 -9.62857e-17)
(0.223505 0.788587 -7.39065e-16)
(0.12212 0.745995 4.30015e-16)
(0.053915 0.616992 -3.74486e-17)
(0.0537573 0.449693 3.98176e-16)
(0.0905823 0.313458 4.26812e-16)
(0.111472 0.215586 8.29409e-17)
(0.0889323 0.12001 6.53095e-16)
(0.0255811 -0.0171438 1.41049e-15)
(-0.0663154 -0.212437 3.68113e-16)
(-0.175371 -0.443939 -8.45488e-17)
(-0.287601 -0.671935 5.67397e-16)
(-0.366782 -0.854673 1.24393e-15)
(-0.386057 -0.970071 1.13405e-15)
(-0.376926 -1.02509 1.1443e-15)
(-0.388668 -1.05019 2.56321e-15)
(-0.445573 -1.06784 2.40806e-15)
(-0.550311 -1.07977 2.61202e-15)
(-0.6867 -1.08021 7.9695e-16)
(-0.841168 -1.05765 -3.69887e-15)
(-0.0868001 0.563593 -7.71758e-16)
(-0.367223 0.676023 -6.76002e-16)
(-0.603497 0.660371 5.71172e-16)
(-0.430772 0.288643 8.00419e-16)
(-0.651951 0.258383 4.31929e-16)
(-0.435302 0.245738 1.97361e-16)
(-0.246114 0.0125042 1.86942e-16)
(-0.246514 0.0444015 -6.02852e-16)
(0.0679184 0.0213891 6.36143e-16)
(0.169107 0.181597 -3.59168e-15)
(0.259993 0.235951 -5.43347e-15)
(0.144355 0.2709 -3.89022e-15)
(0.0100875 0.253056 -2.86952e-15)
(-0.0978343 0.22677 -1.35591e-15)
(-0.0967853 0.197259 -2.00195e-15)
(-0.0425175 0.0751219 -1.44101e-15)
(-0.0410014 -0.204876 -6.54772e-16)
(-0.120814 -0.597182 -2.83846e-15)
(-0.34719 -0.973171 -1.65279e-15)
(-0.65685 -1.26352 -1.94419e-15)
(-0.879285 -1.42209 -3.37676e-15)
(-0.93884 -1.44427 -3.10072e-15)
(-1.13692 -1.41022 -2.26022e-15)
(-1.59406 -1.23189 -2.16013e-15)
(-1.765 -1.1426 -3.15818e-15)
(-1.92719 -1.15261 -3.69136e-15)
(-1.87726 -0.810533 -7.17397e-15)
(-1.98606 -0.695231 -8.29787e-15)
(-1.93803 -0.513139 -8.86863e-15)
(-1.8801 -0.253448 -9.14832e-15)
(-1.98416 -0.146181 -9.31582e-15)
(-1.80533 0.156831 -8.98067e-15)
(-1.81299 0.3972 -1.00435e-14)
(-1.72465 0.628017 -8.8506e-15)
(-1.61056 0.855522 -9.16894e-15)
(-1.48262 1.00721 -7.93779e-15)
)
;

boundaryField
{
    inlet
    {
        type            uniformFixedValue;
        uniformValue    constant (1 0 0);
        value           nonuniform 0();
    }
    outlet
    {
        type            pressureInletOutletVelocity;
        value           nonuniform 0();
    }
    wall
    {
        type            fixedValue;
        value           uniform (0 0 0);
    }
    wedge1
    {
        type            wedge;
    }
    wedge2
    {
        type            wedge;
    }
    axis
    {
        type            empty;
    }
    procBoundary33to27
    {
        type            processor;
        value           nonuniform List<vector> 
67
(
(-0.916972 -1.92505 -8.72811e-15)
(-0.688029 -1.54763 -1.19743e-14)
(-0.446081 -1.18954 -6.67399e-15)
(-0.405417 -1.06333 -2.43445e-15)
(-0.33624 -0.879024 -2.39696e-15)
(-0.350708 -0.716549 -1.04679e-15)
(-0.409912 -0.54165 -8.30642e-15)
(-0.328507 -0.328416 -4.11156e-15)
(-0.291303 -0.0738527 -6.08554e-15)
(-0.233785 0.236423 -3.48397e-15)
(-0.15143 0.557051 -4.54333e-15)
(-0.117471 0.862481 -5.07283e-15)
(-0.0735174 1.1307 -7.74119e-15)
(-0.0775934 1.38093 -8.00338e-15)
(-0.0063248 1.51135 -8.07705e-15)
(0.179917 1.41788 -9.2552e-15)
(0.187421 1.32486 -9.28971e-15)
(0.0595423 1.33044 -9.53699e-15)
(0.0323239 1.2882 -5.27033e-15)
(0.0962792 1.17724 -5.47486e-15)
(0.13439 1.0848 -2.75587e-15)
(0.197566 0.999537 -1.19184e-15)
(0.266493 0.909948 -3.21352e-17)
(0.305514 0.832667 -1.13624e-16)
(0.291576 0.768074 2.40034e-16)
(0.224967 0.704208 -5.88633e-16)
(0.133144 0.626765 -8.88129e-16)
(0.0392331 0.527853 -9.43182e-16)
(-0.0354919 0.413604 -2.30468e-15)
(-0.089206 0.294162 -1.43491e-15)
(-0.135027 0.164893 -1.84852e-15)
(-0.186744 0.0155333 -1.89407e-15)
(-0.244017 -0.162295 -2.3491e-15)
(-0.2951 -0.363747 -1.55405e-15)
(-0.323481 -0.571549 -2.23314e-15)
(-0.327765 -0.760556 -2.28303e-16)
(-0.323618 -0.91767 -2.08166e-15)
(-0.323876 -1.04286 -8.30575e-16)
(-0.332945 -1.14121 -6.3942e-16)
(-0.34825 -1.21989 -1.62473e-15)
(-0.367835 -1.28729 -5.62597e-15)
(-0.396081 -1.34044 -6.99832e-15)
(-0.445242 -1.37375 -7.81371e-15)
(-0.50948 -1.3794 -7.38146e-15)
(-0.296612 -0.154398 -1.2696e-15)
(-0.963147 0.0557578 -6.65658e-16)
(-1.24154 0.519445 -3.95278e-17)
(-1.01831 0.498982 -3.64785e-16)
(-0.684439 0.3591 -1.25251e-15)
(-0.827901 0.555498 -2.13626e-15)
(-0.499374 0.338393 -1.64124e-15)
(-0.544371 0.334703 -4.57059e-15)
(-0.375811 0.245875 -3.86781e-15)
(-0.505436 0.189789 -2.07616e-15)
(-0.445723 0.136894 -4.09002e-16)
(-0.574249 0.0969082 -3.41882e-15)
(-0.635372 0.119202 -1.16385e-15)
(-0.699176 0.204949 -1.54528e-15)
(-0.745663 0.24508 -1.55889e-16)
(-0.780354 0.0896643 4.3575e-16)
(-0.753146 -0.32235 -5.9016e-17)
(-0.77273 -0.883407 -3.74036e-16)
(-0.878847 -1.35147 -1.73728e-15)
(-0.952869 -1.57619 -2.31671e-16)
(-0.922928 -1.6367 -2.50141e-15)
(-0.894182 -1.80323 -1.94574e-15)
(-0.894182 -1.80323 -1.94574e-15)
)
;
    }
    procBoundary33to28
    {
        type            processor;
        value           uniform (-0.717411 -1.27381 -3.78209e-15);
    }
    procBoundary33to34
    {
        type            processor;
        value           nonuniform List<vector> 4((-0.85005 -1.22603 -7.36225e-15) (-0.948069 -1.15577 -5.89951e-15) (-1.00236 -1.0823 -4.13995e-15) (-1.02132 -1.00287 -5.23276e-15));
    }
    procBoundary33to39
    {
        type            processor;
        value           nonuniform List<vector> 
67
(
(-1.36251 1.10794 -7.1173e-15)
(-1.20716 1.13036 -4.84505e-15)
(-0.911311 1.06192 -3.61761e-15)
(-0.668021 0.966834 -2.78948e-15)
(-0.402614 0.862823 -1.98935e-15)
(-0.179251 0.773526 -5.6918e-16)
(0.00886771 0.712579 1.54227e-16)
(0.147398 0.686221 4.8663e-16)
(0.245459 0.691692 3.71814e-16)
(0.307758 0.722749 -8.65732e-17)
(0.31436 0.768178 -7.97692e-16)
(0.261233 0.799327 -1.7645e-16)
(0.182052 0.756941 -6.08181e-16)
(0.138215 0.611643 -7.83567e-16)
(0.184107 0.425821 -1.14759e-15)
(0.27197 0.286997 -1.96858e-15)
(0.332023 0.202581 -2.1131e-15)
(0.338858 0.124636 -2.87804e-15)
(0.297256 0.00439582 -3.57101e-15)
(0.217136 -0.1782 -3.43542e-15)
(0.0944858 -0.401156 -3.00063e-15)
(-0.0705535 -0.627602 -2.88572e-15)
(-0.232886 -0.824933 -2.88115e-15)
(-0.329873 -0.958428 -2.63378e-15)
(-0.359732 -1.018 -1.96647e-15)
(-0.380141 -1.03225 -1.43264e-15)
(-0.43397 -1.03179 -1.45885e-15)
(-0.536474 -1.02661 6.93489e-16)
(-0.679023 -1.01565 -8.46055e-16)
(-0.842268 -0.985095 -1.21786e-15)
(-0.0422705 0.621369 -1.08608e-15)
(-0.192882 0.73646 -1.17466e-15)
(-0.387673 0.690421 -5.79499e-16)
(-0.200245 0.302156 -1.80499e-16)
(-0.444297 0.238653 -3.55318e-16)
(-0.242569 0.183901 4.49179e-16)
(-0.0404884 -0.0193651 -8.71562e-16)
(-0.0452587 0.00163675 -5.14042e-16)
(0.160203 -0.0439313 1.62976e-15)
(0.305192 0.13163 -2.03116e-15)
(0.444336 0.232205 -4.30998e-15)
(0.350664 0.290963 -4.26766e-15)
(0.224552 0.28611 -1.85551e-15)
(0.115661 0.244636 -1.7821e-15)
(0.0808067 0.181674 -1.31589e-15)
(0.144085 0.0509763 -3.42061e-16)
(0.17897 -0.195585 5.79155e-16)
(0.0821601 -0.524541 1.38306e-16)
(-0.11034 -0.847886 -2.55701e-15)
(-0.428325 -1.14445 -6.7928e-16)
(-0.722384 -1.35321 -8.4502e-16)
(-0.861381 -1.40356 -2.68259e-16)
(-1.0169 -1.30192 -1.98578e-15)
(-1.46682 -1.10134 -2.05755e-15)
(-1.73141 -1.06629 -3.17283e-15)
(-1.95661 -1.09564 -3.48729e-15)
(-2.0469 -0.767677 -7.47997e-15)
(-2.22179 -0.662521 -4.32271e-15)
(-2.23287 -0.491053 -6.13137e-15)
(-2.20708 -0.218658 -7.62831e-15)
(-2.30484 -0.149719 -6.21105e-15)
(-2.09899 0.14775 -8.47762e-15)
(-2.11976 0.395305 -8.88277e-15)
(-2.00756 0.59967 -6.14539e-15)
(-1.87543 0.786361 -8.45298e-15)
(-1.36251 1.10794 -7.1173e-15)
(-1.70985 0.945344 -5.78001e-15)
)
;
    }
}


// ************************************************************************* //
