/*--------------------------------*- C++ -*----------------------------------*\
  =========                 |
  \\      /  F ield         | OpenFOAM: The Open Source CFD Toolbox
   \\    /   O peration     | Website:  https://openfoam.org
    \\  /    A nd           | Version:  7
     \\/     M anipulation  |
\*---------------------------------------------------------------------------*/
FoamFile
{
    version     2.0;
    format      ascii;
    class       volScalarField;
    location    "1";
    object      p;
}
// * * * * * * * * * * * * * * * * * * * * * * * * * * * * * * * * * * * * * //

dimensions      [0 2 -2 0 0 0 0];

internalField   nonuniform List<scalar> 
346
(
4.57279
4.56462
4.55651
4.54846
4.54046
4.53251
6.24014
5.80156
5.64581
5.50921
5.41739
5.35202
5.30174
5.26162
5.22828
5.19969
5.17455
5.15198
5.13139
5.11234
5.09453
5.07772
5.06174
5.04645
5.03174
5.01754
5.00376
4.99035
4.97728
4.9645
4.95198
4.9397
4.92763
4.91575
4.90406
4.89253
4.88115
4.86992
4.85882
4.84786
4.83701
4.82628
4.81566
4.80515
4.79473
4.78442
4.77421
4.76409
4.75407
4.74414
4.7343
4.72455
4.71489
4.70533
4.69585
4.68647
4.67718
4.66799
4.65889
4.64988
4.64096
4.63214
4.62341
4.61476
4.6062
4.59773
4.58934
4.58102
4.57278
4.56461
4.5565
4.54845
4.54046
4.53251
6.43822
5.82374
5.64865
5.50341
5.40997
5.34524
5.29595
5.25676
5.2242
5.19624
5.17161
5.14947
5.12921
5.11045
5.09287
5.07626
5.06044
5.04529
5.03071
5.0166
5.00291
4.98959
4.97658
4.96386
4.9514
4.93916
4.92713
4.9153
4.90363
4.89213
4.88079
4.86958
4.85851
4.84756
4.83673
4.82602
4.81541
4.80491
4.79451
4.78422
4.77401
4.76391
4.75389
4.74397
4.73414
4.7244
4.71475
4.7052
4.69573
4.68636
4.67708
4.6679
4.6588
4.6498
4.64089
4.63208
4.62335
4.61471
4.60616
4.59769
4.58931
4.581
4.57276
4.56459
4.55649
4.54844
4.54045
4.53251
6.69134
5.83458
5.64189
5.49243
5.39976
5.33687
5.28922
5.25131
5.21973
5.19254
5.1685
5.14682
5.12694
5.10848
5.09115
5.07475
5.05911
5.04411
5.02964
5.01565
5.00205
4.98881
4.97587
4.96322
4.9508
4.93862
4.92663
4.91483
4.9032
4.89173
4.88041
4.86923
4.85818
4.84725
4.83644
4.82575
4.81516
4.80467
4.79429
4.784
4.77381
4.76371
4.75371
4.7438
4.73398
4.72425
4.71461
4.70506
4.6956
4.68624
4.67697
4.66779
4.65871
4.64971
4.64081
4.63201
4.62329
4.61466
4.60611
4.59765
4.58927
4.58097
4.57274
4.56457
4.55647
4.54843
4.54044
4.5325
7.03271
5.82121
5.6159
5.47223
5.38487
5.32581
5.28081
5.24473
5.21446
5.18822
5.16492
5.1438
5.12437
5.10626
5.08923
5.07306
5.05762
5.04279
5.02847
5.01459
5.0011
4.98795
4.97509
4.9625
4.95015
4.93801
4.92608
4.91432
4.90273
4.89129
4.88
4.86885
4.85782
4.84691
4.83612
4.82545
4.81487
4.8044
4.79403
4.78376
4.77358
4.7635
4.7535
4.7436
4.73379
4.72407
4.71444
4.7049
4.69546
4.6861
4.67684
4.66767
4.65859
4.64961
4.64072
4.63192
4.62321
4.61458
4.60605
4.59759
4.58922
4.58092
4.5727
4.56454
4.55645
4.54841
4.54043
4.53249
7.44891
5.76862
5.56428
5.44055
5.36454
5.31168
5.27044
5.23679
5.2082
5.18316
5.16075
5.14031
5.12141
5.10372
5.08703
5.07114
5.05593
5.04129
5.02713
5.0134
5.00003
4.98698
4.97421
4.9617
4.94941
4.93734
4.92545
4.91374
4.90219
4.8908
4.87954
4.86841
4.85741
4.84653
4.83577
4.82511
4.81455
4.8041
4.79375
4.78349
4.77332
4.76325
4.75327
4.74338
4.73358
4.72387
4.71425
4.70472
4.69528
4.68594
4.67669
4.66753
4.65846
4.64948
4.6406
4.63181
4.62311
4.61449
4.60597
4.59752
4.58916
4.58087
4.57265
4.5645
4.55641
4.54838
4.5404
4.53247
)
;

boundaryField
{
    inlet
    {
        type            zeroGradient;
    }
    outlet
    {
        type            fixedValue;
        value           nonuniform 0();
    }
    wall
    {
        type            zeroGradient;
    }
    wedge1
    {
        type            wedge;
    }
    wedge2
    {
        type            wedge;
    }
    axis
    {
        type            empty;
    }
    procBoundary42to36
    {
        type            processor;
        value           nonuniform List<scalar> 
69
(
4.5728
4.56462
4.55651
4.54845
4.54046
4.53251
6.08158
5.77318
5.63709
5.51129
5.4226
5.35751
5.30679
5.26603
5.23208
5.20295
5.17736
5.15441
5.13351
5.1142
5.09616
5.07917
5.06303
5.0476
5.03277
5.01846
5.0046
4.99111
4.97797
4.96513
4.95256
4.94023
4.92812
4.91621
4.90448
4.89292
4.88151
4.87026
4.85914
4.84815
4.83729
4.82654
4.8159
4.80538
4.79495
4.78463
4.7744
4.76427
4.75424
4.7443
4.73445
4.72469
4.71502
4.70545
4.69597
4.68658
4.67728
4.66808
4.65897
4.64995
4.64103
4.6322
4.62345
4.6148
4.60624
4.59776
4.58936
4.58104
4.58104
)
;
    }
    procBoundary42to37
    {
        type            processor;
        value           uniform 4.52461;
    }
    procBoundary42to43
    {
        type            processor;
        value           nonuniform List<scalar> 5(4.52461 4.52461 4.52461 4.5246 4.52458);
    }
}


// ************************************************************************* //
