/*--------------------------------*- C++ -*----------------------------------*\
  =========                 |
  \\      /  F ield         | OpenFOAM: The Open Source CFD Toolbox
   \\    /   O peration     | Website:  https://openfoam.org
    \\  /    A nd           | Version:  7
     \\/     M anipulation  |
\*---------------------------------------------------------------------------*/
FoamFile
{
    version     2.0;
    format      ascii;
    class       surfaceScalarField;
    location    "1";
    object      phi;
}
// * * * * * * * * * * * * * * * * * * * * * * * * * * * * * * * * * * * * * //

dimensions      [0 3 -1 0 0 0 0];

internalField   nonuniform List<scalar> 
618
(
6.01983e-05
-1.74097e-07
6.01425e-05
-1.49861e-07
6.00955e-05
-1.27422e-07
6.00565e-05
-1.0685e-07
6.00247e-05
-8.81837e-08
-7.14263e-08
0.000191484
-0.000135658
0.000186104
-0.00011581
0.000170171
-8.3549e-05
0.000153224
-5.79842e-05
0.000138401
-4.09809e-05
0.000126159
-3.0036e-05
0.000116183
-2.27827e-05
0.000108022
-1.77935e-05
0.000101281
-1.42375e-05
9.56516e-05
-1.16223e-05
9.08993e-05
-9.64661e-06
8.68467e-05
-8.11964e-06
8.33591e-05
-6.9163e-06
8.03328e-05
-5.95208e-06
7.76873e-05
-5.16831e-06
7.5359e-05
-4.52327e-06
7.32973e-05
-3.98662e-06
7.14614e-05
-3.5359e-06
6.98184e-05
-3.15414e-06
6.83408e-05
-2.82839e-06
6.70062e-05
-2.54855e-06
6.57958e-05
-2.3067e-06
6.46938e-05
-2.09653e-06
6.36868e-05
-1.91298e-06
6.27635e-05
-1.75192e-06
6.19141e-05
-1.60999e-06
6.11304e-05
-1.48441e-06
6.04052e-05
-1.37286e-06
5.97322e-05
-1.27344e-06
5.9106e-05
-1.18451e-06
5.85219e-05
-1.1047e-06
5.79759e-05
-1.03286e-06
5.74642e-05
-9.67984e-07
5.69836e-05
-9.09229e-07
5.65315e-05
-8.55856e-07
5.61052e-05
-8.07221e-07
5.57028e-05
-7.62759e-07
5.53221e-05
-7.2197e-07
5.49615e-05
-6.84404e-07
5.46197e-05
-6.49651e-07
5.42952e-05
-6.17338e-07
5.39871e-05
-5.87121e-07
5.36944e-05
-5.58679e-07
5.34162e-05
-5.3172e-07
5.3152e-05
-5.05972e-07
5.29013e-05
-4.8119e-07
5.26637e-05
-4.57156e-07
5.24387e-05
-4.33682e-07
5.22264e-05
-4.10609e-07
5.20263e-05
-3.87816e-07
5.18385e-05
-3.65212e-07
5.16627e-05
-3.42743e-07
5.1499e-05
-3.20391e-07
5.13472e-05
-2.98168e-07
5.12071e-05
-2.76117e-07
5.10786e-05
-2.54305e-07
5.09614e-05
-2.32823e-07
5.08553e-05
-2.11774e-07
5.076e-05
-1.91276e-07
5.0675e-05
-1.71446e-07
5.05999e-05
-1.52404e-07
5.05341e-05
-1.34263e-07
5.04771e-05
-1.17123e-07
5.04284e-05
-1.01072e-07
5.03871e-05
-8.61806e-08
5.03528e-05
-7.2498e-08
5.03246e-05
-6.00543e-08
-4.88546e-08
0.000187783
-0.000149241
0.000171788
-9.98145e-05
0.000149585
-6.13456e-05
0.000130443
-3.88427e-05
0.000115498
-2.60356e-05
0.000103962
-1.84999e-05
9.49524e-05
-1.37734e-05
8.77858e-05
-1.0627e-05
8.19801e-05
-8.43174e-06
7.71987e-05
-6.84089e-06
7.32039e-05
-5.65179e-06
6.98243e-05
-4.74008e-06
6.69341e-05
-4.02605e-06
6.44387e-05
-3.45674e-06
6.22663e-05
-2.99583e-06
6.03607e-05
-2.61776e-06
5.86782e-05
-2.30411e-06
5.71836e-05
-2.0413e-06
5.58487e-05
-1.81917e-06
5.46502e-05
-1.62996e-06
5.35694e-05
-1.46769e-06
5.25903e-05
-1.32764e-06
5.16999e-05
-1.20609e-06
5.0887e-05
-1.10006e-06
5.01422e-05
-1.00712e-06
4.94575e-05
-9.25289e-07
4.8826e-05
-8.5295e-07
4.82419e-05
-7.88751e-07
4.77e-05
-7.31567e-07
4.7196e-05
-6.80453e-07
4.67259e-05
-6.34615e-07
4.62864e-05
-5.93376e-07
4.58746e-05
-5.56161e-07
4.54878e-05
-5.22476e-07
4.51239e-05
-4.91895e-07
4.47807e-05
-4.64047e-07
4.44565e-05
-4.38607e-07
4.41499e-05
-4.15286e-07
4.38593e-05
-3.93824e-07
4.35836e-05
-3.73987e-07
4.33218e-05
-3.55559e-07
4.30731e-05
-3.38342e-07
4.28365e-05
-3.22151e-07
4.26116e-05
-3.06815e-07
4.23978e-05
-2.92179e-07
4.21947e-05
-2.78097e-07
4.2002e-05
-2.64444e-07
4.18195e-05
-2.51109e-07
4.16468e-05
-2.37997e-07
4.14841e-05
-2.25037e-07
4.1331e-05
-2.12173e-07
4.11877e-05
-1.99373e-07
4.10539e-05
-1.86622e-07
4.09296e-05
-1.73927e-07
4.08148e-05
-1.61309e-07
4.07093e-05
-1.48807e-07
4.0613e-05
-1.36471e-07
4.05256e-05
-1.24361e-07
4.04468e-05
-1.12544e-07
4.03765e-05
-1.01089e-07
4.03141e-05
-9.00651e-08
4.02594e-05
-7.95389e-08
4.02119e-05
-6.95707e-08
4.0171e-05
-6.02131e-08
4.01363e-05
-5.15092e-08
4.01073e-05
-4.34907e-08
4.00835e-05
-3.61781e-08
-2.95766e-08
0.000173854
-0.000146331
0.000145527
-7.14872e-05
0.00011959
-3.5408e-05
0.000100938
-2.01913e-05
8.77563e-05
-1.28537e-05
7.81411e-05
-8.88468e-06
7.08829e-05
-6.51528e-06
6.52337e-05
-4.97783e-06
6.07248e-05
-3.92277e-06
5.70508e-05
-3.16687e-06
5.40055e-05
-2.60651e-06
5.1445e-05
-2.17957e-06
4.92658e-05
-1.84685e-06
4.73917e-05
-1.58261e-06
4.57652e-05
-1.36939e-06
4.43424e-05
-1.19497e-06
4.30889e-05
-1.0506e-06
4.19775e-05
-9.29873e-07
4.09863e-05
-8.28014e-07
4.00977e-05
-7.41386e-07
3.92972e-05
-6.6719e-07
3.85728e-05
-6.03237e-07
3.79145e-05
-5.47793e-07
3.7314e-05
-4.99475e-07
3.6764e-05
-4.57162e-07
3.62587e-05
-4.1994e-07
3.57928e-05
-3.87061e-07
3.53619e-05
-3.57902e-07
3.49623e-05
-3.31946e-07
3.45906e-05
-3.08761e-07
3.4244e-05
-2.87981e-07
3.39199e-05
-2.69297e-07
3.36162e-05
-2.52446e-07
3.33309e-05
-2.37202e-07
3.30624e-05
-2.23371e-07
3.28091e-05
-2.10785e-07
3.25698e-05
-1.99295e-07
3.23433e-05
-1.88771e-07
3.21286e-05
-1.79095e-07
3.19247e-05
-1.7016e-07
3.1731e-05
-1.61869e-07
3.15468e-05
-1.5413e-07
3.13715e-05
-1.46861e-07
3.12047e-05
-1.39984e-07
3.1046e-05
-1.33425e-07
3.0895e-05
-1.2712e-07
3.07515e-05
-1.2101e-07
3.06155e-05
-1.15042e-07
3.04866e-05
-1.09173e-07
3.0365e-05
-1.03368e-07
3.02504e-05
-9.76018e-08
3.01429e-05
-9.18564e-08
3.00424e-05
-8.61245e-08
2.99489e-05
-8.04074e-08
2.98623e-05
-7.4714e-08
2.97825e-05
-6.90608e-08
2.97095e-05
-6.34699e-08
2.96431e-05
-5.79682e-08
2.95832e-05
-5.25858e-08
2.95294e-05
-4.73546e-08
2.94817e-05
-4.23065e-08
2.94396e-05
-3.74727e-08
2.94029e-05
-3.28816e-08
2.93713e-05
-2.85587e-08
2.93443e-05
-2.4525e-08
2.93216e-05
-2.07968e-08
2.93028e-05
-1.73853e-08
-1.42942e-08
0.000141644
-0.000108646
0.000102929
-3.27721e-05
7.92142e-05
-1.16933e-05
6.4845e-05
-5.82218e-06
5.55255e-05
-3.53409e-06
4.90249e-05
-2.38412e-06
4.42374e-05
-1.72783e-06
4.05692e-05
-1.30956e-06
3.76725e-05
-1.02609e-06
3.53304e-05
-8.24811e-07
3.34005e-05
-6.7658e-07
3.17852e-05
-5.64232e-07
3.04154e-05
-4.77045e-07
2.92408e-05
-4.08045e-07
2.82239e-05
-3.52529e-07
2.73362e-05
-3.0723e-07
2.65554e-05
-2.69816e-07
2.58641e-05
-2.3859e-07
2.52484e-05
-2.12288e-07
2.4697e-05
-1.89952e-07
2.42006e-05
-1.70848e-07
2.37518e-05
-1.54402e-07
2.33442e-05
-1.4016e-07
2.29725e-05
-1.27762e-07
2.26322e-05
-1.16915e-07
2.23197e-05
-1.07381e-07
2.20316e-05
-9.89669e-08
2.17652e-05
-9.15104e-08
2.15181e-05
-8.48779e-08
2.12883e-05
-7.89573e-08
2.1074e-05
-7.36543e-08
2.08736e-05
-6.88893e-08
2.06857e-05
-6.45944e-08
2.05092e-05
-6.07118e-08
2.0343e-05
-5.71917e-08
2.01862e-05
-5.3991e-08
2.0038e-05
-5.10717e-08
1.98976e-05
-4.84006e-08
1.97645e-05
-4.59477e-08
1.9638e-05
-4.36857e-08
1.95177e-05
-4.15899e-08
1.94033e-05
-3.9637e-08
1.92942e-05
-3.78057e-08
1.91903e-05
-3.60758e-08
1.90913e-05
-3.44287e-08
1.8997e-05
-3.28472e-08
1.89073e-05
-3.13158e-08
1.88221e-05
-2.98209e-08
1.87413e-05
-2.83506e-08
1.86648e-05
-2.68954e-08
1.85927e-05
-2.54481e-08
1.85248e-05
-2.40037e-08
1.84612e-05
-2.25596e-08
1.84019e-05
-2.11155e-08
1.83469e-05
-1.96733e-08
1.82961e-05
-1.82368e-08
1.82494e-05
-1.68112e-08
1.82069e-05
-1.54034e-08
1.81683e-05
-1.40209e-08
1.81336e-05
-1.2672e-08
1.81027e-05
-1.13651e-08
1.80753e-05
-1.01083e-08
1.80513e-05
-8.90955e-09
1.80306e-05
-7.77576e-09
1.80127e-05
-6.71302e-09
1.79977e-05
-5.72606e-09
1.79851e-05
-4.81863e-09
-3.99208e-09
7.32478e-05
4.04757e-05
2.87824e-05
2.29602e-05
1.94261e-05
1.7042e-05
1.53142e-05
1.40046e-05
1.29785e-05
1.21537e-05
1.14771e-05
1.09129e-05
1.04359e-05
1.00278e-05
9.6753e-06
9.36807e-06
9.09825e-06
8.85966e-06
8.64737e-06
8.45742e-06
8.28657e-06
8.13217e-06
7.99201e-06
7.86425e-06
7.74733e-06
7.63995e-06
7.54098e-06
7.44947e-06
7.3646e-06
7.28564e-06
7.21198e-06
7.1431e-06
7.0785e-06
7.01779e-06
6.9606e-06
6.90661e-06
6.85554e-06
6.80713e-06
6.76119e-06
6.7175e-06
6.67591e-06
6.63627e-06
6.59847e-06
6.56239e-06
6.52796e-06
6.49512e-06
6.4638e-06
6.43398e-06
6.40563e-06
6.37873e-06
6.35329e-06
6.32928e-06
6.30672e-06
6.28561e-06
6.26593e-06
6.2477e-06
6.23089e-06
6.21548e-06
6.20146e-06
6.18879e-06
6.17742e-06
6.16732e-06
6.15841e-06
6.15063e-06
6.14392e-06
6.13819e-06
6.13337e-06
)
;

boundaryField
{
    inlet
    {
        type            calculated;
        value           nonuniform List<scalar> 5(-0.000171636 -0.0001742 -0.000176765 -0.000179329 -0.000181894);
    }
    outlet
    {
        type            calculated;
        value           nonuniform 0();
    }
    wall
    {
        type            calculated;
        value           uniform 0;
    }
    wedge1
    {
        type            wedge;
        value           nonuniform List<scalar> 
346
(
5.8496e-15
6.55216e-15
2.02276e-14
5.49121e-15
-1.53575e-14
6.18625e-15
5.62081e-15
1.36543e-14
2.91002e-15
-6.24199e-15
4.86698e-15
3.83917e-15
7.79738e-15
1.30551e-15
-2.12147e-15
3.57444e-15
2.58444e-15
4.7393e-15
7.04518e-16
-9.89772e-16
2.60946e-15
1.7894e-15
3.11021e-15
4.41223e-16
-5.89115e-16
1.94837e-15
1.2938e-15
2.18323e-15
3.03975e-16
-3.97618e-16
1.49489e-15
9.73111e-16
1.61438e-15
2.23433e-16
-2.90607e-16
1.17636e-15
7.55864e-16
1.24053e-15
1.71517e-16
-2.22773e-16
9.46207e-16
6.02574e-16
9.81788e-16
1.3592e-16
-1.76751e-16
7.75343e-16
4.90611e-16
7.95311e-16
1.10375e-16
-1.43909e-16
6.45417e-16
4.06471e-16
6.56474e-16
9.13803e-17
-1.19546e-16
5.44473e-16
3.41666e-16
5.50314e-16
7.68435e-17
-1.00923e-16
4.64609e-16
2.90726e-16
4.67333e-16
6.54552e-17
-8.63322e-17
4.00424e-16
2.50005e-16
4.01277e-16
5.637e-17
-7.46661e-17
3.48146e-16
2.16988e-16
3.47873e-16
4.90137e-17
-6.5174e-17
3.04997e-16
1.8981e-16
3.04075e-16
4.2945e-17
-5.73588e-17
2.69038e-16
1.67231e-16
2.67764e-16
3.79041e-17
-5.08326e-17
2.38817e-16
1.48313e-16
2.37378e-16
3.36901e-17
-4.53181e-17
2.13149e-16
1.32254e-16
2.11649e-16
3.00809e-17
-4.06472e-17
1.91226e-16
1.18569e-16
1.89747e-16
2.70103e-17
-3.66351e-17
1.72398e-16
1.06847e-16
1.70991e-16
2.43917e-17
-3.31612e-17
1.56069e-16
9.66687e-17
1.54745e-16
2.20854e-17
-3.0165e-17
1.41861e-16
8.7827e-17
1.40649e-16
2.00866e-17
-2.75432e-17
1.29432e-16
8.01045e-17
1.28348e-16
1.83443e-17
-2.52396e-17
1.18537e-16
7.33374e-17
1.17563e-16
1.68071e-17
-2.32141e-17
1.08926e-16
6.73745e-17
1.08065e-16
1.54556e-17
-2.14191e-17
1.00419e-16
6.21018e-17
9.96661e-17
1.42601e-17
-1.98234e-17
9.28692e-17
5.74277e-17
9.22144e-17
1.32011e-17
-1.83997e-17
8.61733e-17
5.32944e-17
8.55912e-17
1.22651e-17
-1.71234e-17
8.01193e-17
4.95397e-17
7.96368e-17
1.14112e-17
-1.59827e-17
7.46821e-17
4.61752e-17
7.42925e-17
1.06434e-17
-1.49563e-17
6.97868e-17
4.31463e-17
6.94826e-17
9.95129e-18
-1.40296e-17
6.5367e-17
4.04139e-17
6.51403e-17
9.32685e-18
-1.31909e-17
6.13702e-17
3.79433e-17
6.121e-17
8.76104e-18
-1.24295e-17
5.77528e-17
3.57135e-17
5.76354e-17
8.24379e-18
-1.17403e-17
5.44298e-17
3.36582e-17
5.4389e-17
7.78068e-18
-1.11036e-17
5.13849e-17
3.17809e-17
5.14144e-17
7.35392e-18
-1.05237e-17
4.8594e-17
3.00589e-17
4.86837e-17
6.96028e-18
-9.99276e-18
4.60235e-17
2.84757e-17
4.61705e-17
6.59801e-18
-9.50355e-18
4.36503e-17
2.70129e-17
4.38468e-17
6.26242e-18
-9.05135e-18
4.14579e-17
2.56683e-17
4.16842e-17
5.94898e-18
-8.63453e-18
3.93811e-17
2.43872e-17
3.96728e-17
5.66378e-18
-8.23706e-18
3.74191e-17
2.31812e-17
3.77691e-17
5.38981e-18
-7.86759e-18
3.55608e-17
2.20386e-17
3.59646e-17
5.12997e-18
-7.51726e-18
3.37898e-17
2.0951e-17
3.42432e-17
4.88226e-18
-7.18273e-18
3.20963e-17
1.99129e-17
3.25911e-17
4.64714e-18
-6.86042e-18
3.04785e-17
1.89239e-17
3.09959e-17
4.41935e-18
-6.54709e-18
2.88461e-17
1.79183e-17
2.94181e-17
4.19441e-18
-6.24049e-18
2.7245e-17
1.69326e-17
2.78643e-17
3.9688e-18
-5.93924e-18
2.56673e-17
1.59607e-17
2.63275e-17
3.74515e-18
-5.64108e-18
2.4106e-17
1.49985e-17
2.48023e-17
3.52369e-18
-5.34343e-18
2.25572e-17
1.40438e-17
2.32849e-17
3.30349e-18
-5.04556e-18
2.10196e-17
1.30943e-17
2.17731e-17
3.08409e-18
-4.74705e-18
1.9494e-17
1.21523e-17
2.02679e-17
2.86603e-18
-4.44777e-18
1.79841e-17
1.12194e-17
1.87722e-17
2.64904e-18
-4.14834e-18
1.65001e-17
1.02994e-17
1.72917e-17
2.43436e-18
-3.8493e-18
1.50545e-17
9.40825e-18
1.58258e-17
2.21896e-18
-3.55647e-18
1.36173e-17
8.51093e-18
1.43984e-17
2.01522e-18
-3.25813e-18
1.22156e-17
7.64104e-18
1.29959e-17
1.81174e-18
-2.96914e-18
1.08651e-17
6.79896e-18
1.16355e-17
1.61245e-18
-2.6873e-18
9.56916e-18
5.98959e-18
1.03231e-17
1.4181e-18
-2.41537e-18
8.33985e-18
5.21958e-18
9.07215e-18
1.23253e-18
-2.15336e-18
-7.47659e-17
7.18276e-18
4.49497e-18
7.88918e-18
1.05786e-18
-1.90277e-18
-6.42595e-17
6.10077e-18
3.81532e-18
6.77932e-18
8.93473e-19
-1.66574e-18
-5.45536e-17
5.10012e-18
3.18438e-18
5.74569e-18
7.38208e-19
-1.44468e-18
-4.5677e-17
4.18314e-18
2.60711e-18
4.79583e-18
5.97364e-19
-1.23826e-18
-3.76415e-17
3.35452e-18
2.08483e-18
3.93309e-18
4.69702e-19
-1.04833e-18
-3.04377e-17
2.6218e-18
1.62365e-18
3.16049e-18
3.57967e-19
-8.74437e-19
)
;
    }
    wedge2
    {
        type            wedge;
        value           nonuniform List<scalar> 
346
(
5.8496e-15
6.55216e-15
2.02276e-14
5.49121e-15
-1.53575e-14
6.18625e-15
5.62081e-15
1.36543e-14
2.91002e-15
-6.24199e-15
4.86702e-15
3.83919e-15
7.79741e-15
1.30554e-15
-2.12146e-15
3.5745e-15
2.5845e-15
4.73934e-15
7.04542e-16
-9.89764e-16
2.60955e-15
1.78948e-15
3.11027e-15
4.41256e-16
-5.89103e-16
1.94847e-15
1.29388e-15
2.18329e-15
3.04009e-16
-3.97607e-16
1.49502e-15
9.73218e-16
1.61445e-15
2.23475e-16
-2.90593e-16
1.17647e-15
7.55952e-16
1.24058e-15
1.71545e-16
-2.22773e-16
9.46312e-16
6.02659e-16
9.81851e-16
1.35957e-16
-1.76739e-16
7.7549e-16
4.90732e-16
7.95394e-16
1.10423e-16
-1.43892e-16
6.4556e-16
4.06585e-16
6.56556e-16
9.14293e-17
-1.19531e-16
5.44658e-16
3.41806e-16
5.50413e-16
7.69013e-17
-1.00903e-16
4.64838e-16
2.9091e-16
4.67462e-16
6.55307e-17
-8.63071e-17
4.00674e-16
2.50205e-16
4.01413e-16
5.64497e-17
-7.46394e-17
3.48359e-16
2.17142e-16
3.47982e-16
4.90707e-17
-6.5161e-17
3.05244e-16
1.90007e-16
3.04211e-16
4.30231e-17
-5.7334e-17
2.69305e-16
1.67442e-16
2.67908e-16
3.79845e-17
-5.08066e-17
2.39045e-16
1.48473e-16
2.37466e-16
3.37284e-17
-4.53151e-17
2.13417e-16
1.32462e-16
2.11788e-16
3.01574e-17
-4.06236e-17
1.91513e-16
1.18794e-16
1.89899e-16
2.70942e-17
-3.66096e-17
1.72651e-16
1.07025e-16
1.7109e-16
2.44369e-17
-3.31559e-17
1.56374e-16
9.69083e-17
1.54908e-16
2.21777e-17
-3.01364e-17
1.42222e-16
8.81165e-17
1.4085e-16
2.02037e-17
-2.7506e-17
1.29861e-16
8.04404e-17
1.28579e-16
1.84716e-17
-2.52013e-17
1.18988e-16
7.36976e-17
1.17817e-16
1.69565e-17
-2.31655e-17
1.09402e-16
6.77557e-17
1.08334e-16
1.56147e-17
-2.13663e-17
1.00912e-16
6.24954e-17
9.99441e-17
1.44245e-17
-1.97692e-17
9.33555e-17
5.78145e-17
9.24876e-17
1.33623e-17
-1.83463e-17
8.65783e-17
5.36088e-17
8.5824e-17
1.24056e-17
-1.7076e-17
8.05748e-17
4.99048e-17
7.98952e-17
1.15649e-17
-1.59315e-17
7.51861e-17
4.65759e-17
7.45764e-17
1.08109e-17
-1.49008e-17
7.0331e-17
4.35792e-17
6.97876e-17
1.0132e-17
-1.39704e-17
6.5942e-17
4.08706e-17
6.54627e-17
9.51771e-18
-1.3128e-17
6.1957e-17
3.84132e-17
6.15437e-17
8.9611e-18
-1.23635e-17
5.83199e-17
3.61663e-17
5.79883e-17
8.4584e-18
-1.16638e-17
5.50289e-17
3.41423e-17
5.47385e-17
7.99198e-18
-1.10332e-17
5.20239e-17
3.22903e-17
5.17752e-17
7.56901e-18
-1.04533e-17
4.92612e-17
3.05907e-17
4.90595e-17
7.18328e-18
-9.91951e-18
4.67133e-17
2.90225e-17
4.65578e-17
6.82802e-18
-9.42793e-18
4.43479e-17
2.75696e-17
4.42434e-17
6.50019e-18
-8.97299e-18
4.21308e-17
2.62028e-17
4.20947e-17
6.19716e-18
-8.54678e-18
4.00807e-17
2.49478e-17
4.00753e-17
5.90625e-18
-8.15646e-18
3.8155e-17
2.37661e-17
3.81855e-17
5.63828e-18
-7.78502e-18
3.6325e-17
2.26445e-17
3.63941e-17
5.38462e-18
-7.43347e-18
3.45708e-17
2.15689e-17
3.46804e-17
5.14195e-18
-7.09778e-18
3.28691e-17
2.0524e-17
3.30246e-17
4.90495e-18
-6.77478e-18
3.11927e-17
1.94919e-17
3.14096e-17
4.67451e-18
-6.46152e-18
2.96067e-17
1.85223e-17
2.98487e-17
4.45132e-18
-6.15479e-18
2.80445e-17
1.75659e-17
2.83135e-17
4.23566e-18
-5.8513e-18
2.64977e-17
1.66182e-17
2.6794e-17
4.02236e-18
-5.54949e-18
2.49619e-17
1.5676e-17
2.52831e-17
3.8093e-18
-5.24908e-18
2.34345e-17
1.47371e-17
2.3777e-17
3.59619e-18
-4.94885e-18
2.19145e-17
1.38025e-17
2.22751e-17
3.38303e-18
-4.64829e-18
2.04037e-17
1.2871e-17
2.07776e-17
3.16941e-18
-4.34748e-18
1.89045e-17
1.19448e-17
1.92876e-17
2.95638e-18
-4.0467e-18
1.74166e-17
1.1026e-17
1.78086e-17
2.74398e-18
-3.74705e-18
1.59398e-17
1.01065e-17
1.63534e-17
2.53698e-18
-3.44507e-18
1.45188e-17
9.23006e-18
1.49127e-17
2.32511e-18
-3.15538e-18
1.31422e-17
8.37308e-18
1.35161e-17
2.1221e-18
-2.8664e-18
1.18105e-17
7.54532e-18
1.21632e-17
1.92644e-18
-2.58391e-18
1.05365e-17
6.75196e-18
1.08648e-17
1.73987e-18
-2.30876e-18
9.32289e-18
5.99586e-18
9.62335e-18
1.56093e-18
-2.04454e-18
-7.35649e-17
8.17761e-18
5.27949e-18
8.44687e-18
1.38965e-18
-1.79308e-18
-6.30425e-17
7.10907e-18
4.61063e-18
7.34282e-18
1.2286e-18
-1.55531e-18
-5.33218e-17
6.11992e-18
3.99138e-18
6.31841e-18
1.08053e-18
-1.33143e-18
-4.44308e-17
5.21396e-18
3.4209e-18
5.37365e-18
9.41339e-19
-1.12485e-18
-3.63872e-17
4.38979e-18
2.90027e-18
4.51e-18
8.13105e-19
-9.35335e-19
-2.91985e-17
3.63993e-18
2.42369e-18
3.72558e-18
6.93325e-19
-7.6393e-19
)
;
    }
    axis
    {
        type            empty;
        value           nonuniform 0();
    }
    procBoundary42to36
    {
        type            processor;
        value           nonuniform List<scalar> 
69
(
2.39392e-07
2.05628e-07
1.74419e-07
1.45858e-07
1.19992e-07
9.68202e-08
0.00011581
0.00012119
9.94826e-05
7.49305e-05
5.5804e-05
4.22779e-05
3.27589e-05
2.59549e-05
2.09783e-05
1.72516e-05
1.43989e-05
1.21722e-05
1.04039e-05
8.97834e-06
7.81386e-06
6.85161e-06
6.04833e-06
5.37171e-06
4.79722e-06
4.30595e-06
3.88313e-06
3.5171e-06
3.19855e-06
2.91997e-06
2.67524e-06
2.45933e-06
2.2681e-06
2.0981e-06
1.94644e-06
1.81068e-06
1.68876e-06
1.57894e-06
1.4797e-06
1.38976e-06
1.308e-06
1.23345e-06
1.16525e-06
1.10264e-06
1.04493e-06
9.91505e-07
9.41788e-07
8.95259e-07
8.51433e-07
8.09865e-07
7.70146e-07
7.31905e-07
6.94815e-07
6.58594e-07
6.23006e-07
5.87869e-07
5.53052e-07
5.18479e-07
4.84122e-07
4.50007e-07
4.162e-07
3.82809e-07
3.4997e-07
3.17846e-07
2.8661e-07
2.56445e-07
2.27528e-07
-6.02636e-05
2.00029e-07
)
;
    }
    procBoundary42to37
    {
        type            processor;
        value           uniform 5.99993e-05;
    }
    procBoundary42to43
    {
        type            processor;
        value           nonuniform List<scalar> 5(5.03021e-05 4.00642e-05 2.92875e-05 1.79748e-05 6.12938e-06);
    }
}


// ************************************************************************* //
