/*--------------------------------*- C++ -*----------------------------------*\
  =========                 |
  \\      /  F ield         | OpenFOAM: The Open Source CFD Toolbox
   \\    /   O peration     | Website:  https://openfoam.org
    \\  /    A nd           | Version:  7
     \\/     M anipulation  |
\*---------------------------------------------------------------------------*/
FoamFile
{
    version     2.0;
    format      ascii;
    class       volScalarField;
    location    "2.9";
    object      p;
}
// * * * * * * * * * * * * * * * * * * * * * * * * * * * * * * * * * * * * * //

dimensions      [1 -1 -2 0 0 0 0];

internalField   nonuniform List<scalar> 
197568
(
1
1
1
1
1
1
1
1
1
1
1
1
1
1
1
1
1
1
1
1
1
1
1
1
1
1
1
1
1
1
1
1
1
1
1
1
1
1
1
1
1
1
1
1
1
1
1
1
1
1
1
1
1
1
1
1
1
1
1
1
1
1
1
1
1
1
1
1
1
1
1
1
1
1
1
1
1
1
1
1
1
1
1
1
1
1
3.75441
9.85256
10.4046
10.4182
10.4641
10.5072
10.5532
10.594
10.6284
10.658
10.6865
10.718
10.7516
10.7857
10.8217
10.8586
10.8941
10.9267
10.9546
10.9766
10.9926
11.0029
11.0165
11.0471
11.0952
11.1541
11.2119
11.251
11.2624
11.2583
11.2619
11.2879
11.333
11.3797
11.4103
11.4185
11.4166
11.4182
11.4352
11.4721
11.5183
11.5603
11.5878
11.601
11.6081
11.6187
11.6392
11.6673
11.6934
11.7085
11.7147
11.7216
11.7358
11.7632
11.8008
11.8376
11.8617
11.8696
11.8699
11.8721
11.8837
11.9056
11.9293
11.9434
11.9455
11.9423
11.9422
11.9516
11.9705
11.9918
12.0068
12.013
12.0139
12.0145
12.0172
12.021
12.0254
12.0303
12.0385
12.051
12.0654
12.0771
1
1
1
1
1
1
1
1
1
1
1
1
1
1
1
1
1
1
1
1
1
1
1
1
1
1
1
1
1
1
1
1
1
1
1
1
1
1
1
1
1
1
1
1
1
1
1
1
1
1
1
1
1
1
1
1
1
1
1
1
1
1
1
1
1
1
1
1
1
1
1
1
1
1
1
1
1
1
1
1
1
1
1
1
1
1
3.73438
9.84775
10.4135
10.4291
10.466
10.5043
10.5458
10.5849
10.621
10.6541
10.6857
10.7179
10.7515
10.785
10.8189
10.8543
10.8908
10.9262
10.9574
10.9799
10.9943
11.0034
11.0167
11.0485
11.0984
11.156
11.2097
11.2453
11.2572
11.256
11.2633
11.292
11.3358
11.3791
11.4064
11.4142
11.4144
11.4186
11.438
11.4752
11.5194
11.5584
11.5837
11.5967
11.6055
11.6188
11.6419
11.6707
11.6954
11.7079
11.7122
11.7184
11.7331
11.7619
11.8008
11.8378
11.8609
11.8678
11.8678
11.8707
11.8836
11.9065
11.9296
11.9423
11.943
11.94
11.9411
11.9522
11.972
11.9924
12.0055
12.0103
12.0115
12.0133
12.0172
12.0216
12.0252
12.0287
12.0361
12.0489
12.0645
12.0773
1
1
1
1
1
1
1
1
1
1
1
1
1
1
1
1
1
1
1
1
1
1
1
1
1
1
1
1
1
1
1
1
1
1
1
1
1
1
1
1
1
1
1
1
1
1
1
1
1
1
1
1
1
1
1
1
1
1
1
1
1
1
1
1
1
1
1
1
1
1
1
1
1
1
1
1
1
1
1
1
1
1
1
1
1
1
3.68936
9.84708
10.4172
10.4338
10.465
10.5008
10.54
10.5772
10.6122
10.646
10.68
10.7153
10.7514
10.7857
10.8176
10.8503
10.887
10.9246
10.9583
10.9821
10.9952
11.0034
11.0165
11.0507
11.1023
11.1576
11.2063
11.2371
11.2483
11.2502
11.2637
11.297
11.3398
11.3787
11.401
11.4071
11.4094
11.4172
11.4408
11.4793
11.5217
11.5568
11.5784
11.5903
11.6007
11.6177
11.6447
11.6754
11.6986
11.7076
11.7089
11.7137
11.7286
11.7596
11.8006
11.8382
11.86
11.8651
11.8643
11.8678
11.8826
11.9073
11.9303
11.9412
11.9398
11.9362
11.9384
11.9517
11.9734
11.9932
12.0039
12.0067
12.0075
12.0106
12.0166
12.0224
12.0255
12.0272
12.0333
12.0461
12.0632
12.0778
1
1
1
1
1
1
1
1
1
1
1
1
1
1
1
1
1
1
1
1
1
1
1
1
1
1
1
1
1
1
1
1
1
1
1
1
1
1
1
1
1
1
1
1
1
1
1
1
1
1
1
1
1
1
1
1
1
1
1
1
1
1
1
1
1
1
1
1
1
1
1
1
1
1
1
1
1
1
1
1
1
1
1
1
1
1
3.62639
9.83902
10.4133
10.4348
10.468
10.5027
10.5402
10.575
10.607
10.6385
10.6722
10.7092
10.7483
10.7848
10.8162
10.8473
10.8844
10.9228
10.9569
10.9809
10.9945
11.0038
11.0189
11.0558
11.1067
11.1571
11.1989
11.2255
11.2379
11.2452
11.2669
11.3036
11.3432
11.3759
11.3929
11.3984
11.4036
11.4163
11.4444
11.4837
11.5232
11.5537
11.5717
11.5828
11.5955
11.6173
11.6488
11.6806
11.7013
11.7062
11.7045
11.7076
11.723
11.7566
11.8002
11.8383
11.8583
11.8613
11.8597
11.8638
11.881
11.9079
11.9306
11.9394
11.936
11.9315
11.935
11.9511
11.9748
11.9935
12.0015
12.0023
12.0025
12.0071
12.0156
12.0228
12.0252
12.0251
12.0292
12.042
12.0607
12.0772
1
1
1
1
1
1
1
1
1
1
1
1
1
1
1
1
1
1
1
1
1
1
1
1
1
1
1
1
1
1
1
1
1
1
1
1
1
1
1
1
1
1
1
1
1
1
1
1
1
1
1
1
1
1
1
1
1
1
1
1
1
1
1
1
1
1
1
1
1
1
1
1
1
1
1
1
1
1
1
1
1
1
1
1
1
1
3.5429
9.8171
10.4018
10.4312
10.4729
10.5109
10.5473
10.5787
10.6061
10.6326
10.6629
10.6994
10.7411
10.7816
10.8157
10.8475
10.8842
10.9204
10.9516
10.9747
10.9902
11.0034
11.0239
11.0632
11.111
11.1545
11.1886
11.2119
11.2269
11.2417
11.2719
11.3101
11.3451
11.3705
11.3829
11.3887
11.397
11.4153
11.4476
11.487
11.5233
11.5494
11.5645
11.5754
11.5908
11.6172
11.6524
11.6844
11.7024
11.7038
11.6996
11.7011
11.7169
11.7528
11.7987
11.8372
11.8557
11.857
11.8547
11.8593
11.8784
11.9074
11.93
11.9368
11.9319
11.9267
11.9311
11.9497
11.975
11.9929
11.9984
11.9974
11.9972
12.0031
12.0141
12.0225
12.0242
12.0224
12.0248
12.0375
12.0575
12.0755
1
1
1
1
1
1
1
1
1
1
1
1
1
1
1
1
1
1
1
1
1
1
1
1
1
1
1
1
1
1
1
1
1
1
1
1
1
1
1
1
1
1
1
1
1
1
1
1
1
1
1
1
1
1
1
1
1
1
1
1
1
1
1
1
1
1
1
1
1
1
1
1
1
1
1
1
1
1
1
1
1
1
1
1
1
1
3.44073
9.76034
10.3889
10.4261
10.4775
10.5201
10.5571
10.5848
10.606
10.6268
10.6539
10.6904
10.7347
10.7793
10.8169
10.8503
10.8844
10.9155
10.9414
10.9626
10.9818
11.0026
11.0309
11.0716
11.1138
11.1489
11.1758
11.1977
11.2177
11.2422
11.2791
11.3157
11.3446
11.3626
11.3712
11.3783
11.3907
11.4147
11.4499
11.4884
11.5214
11.5439
11.5575
11.5694
11.588
11.6178
11.6545
11.6854
11.7011
11.7002
11.6948
11.6959
11.712
11.7487
11.7954
11.8339
11.8517
11.8526
11.8503
11.8552
11.8752
11.9051
11.9275
11.933
11.9276
11.9224
11.9276
11.9474
11.9734
11.9906
11.9944
11.9924
11.9922
11.9992
12.0119
12.0211
12.0221
12.019
12.0201
12.0326
12.0531
12.0722
1
1
1
1
1
1
1
1
1
1
1
1
1
1
1
1
1
1
1
1
1
1
1
1
1
1
1
1
1
1
1
1
1
1
1
1
1
1
1
1
1
1
1
1
1
1
1
1
1
1
1
1
1
1
1
1
1
1
1
1
1
1
1
1
1
1
1
1
1
1
1
1
1
1
1
1
1
1
1
1
1
1
1
1
1
1
3.31661
9.69158
10.3811
10.4227
10.4806
10.5272
10.5642
10.5878
10.6028
10.6187
10.6452
10.6845
10.7324
10.7805
10.8207
10.8537
10.8826
10.9067
10.9276
10.949
10.9741
11.0036
11.0391
11.0789
11.114
11.1403
11.1617
11.1849
11.2123
11.2469
11.2869
11.3189
11.3402
11.3514
11.3578
11.3673
11.3854
11.4148
11.4516
11.4879
11.5172
11.5371
11.5508
11.5654
11.5872
11.6185
11.6541
11.6829
11.6965
11.6951
11.6901
11.6921
11.7089
11.745
11.7901
11.8275
11.8453
11.8476
11.8466
11.8523
11.8723
11.9013
11.9224
11.9272
11.9223
11.9183
11.9247
11.945
11.9703
11.9863
11.9893
11.9871
11.9876
11.9958
12.0094
12.0185
12.0188
12.0149
12.0154
12.0275
12.0477
12.0671
1
1
1
1
1
1
1
1
1
1
1
1
1
1
1
1
1
1
1
1
1
1
1
1
1
1
1
1
1
1
1
1
1
1
1
1
1
1
1
1
1
1
1
1
1
1
1
1
1
1
1
1
1
1
1
1
1
1
1
1
1
1
1
1
1
1
1
1
1
1
1
1
1
1
1
1
1
1
1
1
1
1
1
1
1
1
3.1704
9.6081
10.378
10.425
10.485
10.5325
10.5671
10.5857
10.5949
10.6093
10.6395
10.6838
10.735
10.7849
10.8255
10.8555
10.8771
10.8941
10.9128
10.9378
10.9699
11.0073
11.0464
11.0823
11.1093
11.1278
11.1471
11.1755
11.2117
11.2544
11.2938
11.3196
11.3322
11.3374
11.3433
11.3566
11.3818
11.416
11.4528
11.4856
11.5108
11.5291
11.5447
11.5631
11.5879
11.619
11.6515
11.6768
11.6888
11.6887
11.6864
11.6906
11.7082
11.742
11.783
11.8173
11.8359
11.8412
11.8432
11.8512
11.8709
11.8968
11.915
11.9189
11.9157
11.9142
11.9225
11.9428
11.9661
11.9802
11.9826
11.9812
11.9832
11.9928
12.0065
12.0148
12.0143
12.01
12.0102
12.022
12.0414
12.0602
1
1
1
1
1
1
1
1
1
1
1
1
1
1
1
1
1
1
1
1
1
1
1
1
1
1
1
1
1
1
1
1
1
1
1
1
1
1
1
1
1
1
1
1
1
1
1
1
1
1
1
1
1
1
1
1
1
1
1
1
1
1
1
1
1
1
1
1
1
1
1
1
1
1
1
1
1
1
1
1
1
1
1
1
1
1
3.00723
9.5104
10.3817
10.4317
10.4906
10.5361
10.5663
10.579
10.5831
10.6
10.637
10.687
10.7408
10.7907
10.8293
10.8539
10.8664
10.8797
10.9021
10.9335
10.9713
11.0121
11.0495
11.079
11.0974
11.1118
11.1342
11.1708
11.2162
11.2627
11.2983
11.3161
11.32
11.3214
11.3286
11.3478
11.3802
11.4178
11.4531
11.4816
11.5029
11.5207
11.539
11.5615
11.5887
11.6185
11.6464
11.6672
11.6781
11.681
11.6831
11.691
11.7097
11.7401
11.775
11.8047
11.8232
11.8327
11.8399
11.8519
11.8712
11.8922
11.9055
11.9079
11.9069
11.9091
11.9203
11.9408
11.9613
11.9726
11.9746
11.9745
11.9787
11.99
12.0033
12.0101
12.009
12.0045
12.0047
12.016
12.0343
12.0522
1
1
1
1
1
1
1
1
1
1
1
1
1
1
1
1
1
1
1
1
1
1
1
1
1
1
1
1
1
1
1
1
1
1
1
1
1
1
1
1
1
1
1
1
1
1
1
1
1
1
1
1
1
1
1
1
1
1
1
1
1
1
1
1
1
1
1
1
1
1
1
1
1
1
1
1
1
1
1
1
1
1
1
1
1
1
2.83037
9.40323
10.3787
10.434
10.4937
10.5373
10.5632
10.5704
10.5712
10.593
10.6376
10.692
10.7465
10.7936
10.8273
10.8447
10.8512
10.8679
10.8989
10.9366
10.9772
11.0161
11.0481
11.0686
11.0794
11.0944
11.1242
11.1707
11.2231
11.2695
11.2987
11.3077
11.3048
11.3047
11.3149
11.3416
11.3803
11.4196
11.4524
11.4764
11.4945
11.5124
11.5338
11.5599
11.5885
11.6163
11.6395
11.6558
11.666
11.6724
11.6796
11.6918
11.712
11.7388
11.7669
11.7906
11.8082
11.8221
11.8364
11.8536
11.8725
11.888
11.8952
11.8954
11.8961
11.9028
11.9183
11.9391
11.9562
11.9642
11.9656
11.9669
11.9737
11.9869
11.9993
12.0045
12.0025
11.9978
11.9982
12.0092
12.0264
12.043
1
1
1
1
1
1
1
1
1
1
1
1
1
1
1
1
1
1
1
1
1
1
1
1
1
1
1
1
1
1
1
1
1
1
1
1
1
1
1
1
1
1
1
1
1
1
1
1
1
1
1
1
1
1
1
1
1
1
1
1
1
1
1
1
1
1
1
1
1
1
1
1
1
1
1
1
1
1
1
1
1
1
1
1
1
1
2.64249
9.27894
10.3766
10.4334
10.4937
10.5367
10.5605
10.5637
10.5632
10.591
10.6415
10.6971
10.7491
10.7907
10.818
10.8296
10.8363
10.8625
10.9031
10.9451
10.9847
11.0179
11.0413
11.0519
11.0578
11.0783
11.1183
11.1733
11.2288
11.2722
11.2944
11.2948
11.288
11.2891
11.3051
11.3392
11.3819
11.4204
11.4499
11.4699
11.4859
11.5044
11.5283
11.557
11.586
11.6115
11.6308
11.6441
11.6542
11.6637
11.6756
11.6923
11.7135
11.737
11.7587
11.7766
11.7924
11.81
11.8314
11.8541
11.8732
11.8833
11.884
11.8819
11.884
11.8951
11.915
11.9363
11.9503
11.9552
11.956
11.9587
11.9684
11.9833
11.9945
11.998
11.9954
11.9906
11.9912
12.002
12.018
12.0333
1
1
1
1
1
1
1
1
1
1
1
1
1
1
1
1
1
1
1
1
1
1
1
1
1
1
1
1
1
1
1
1
1
1
1
1
1
1
1
1
1
1
1
1
1
1
1
1
1
1
1
1
1
1
1
1
1
1
1
1
1
1
1
1
1
1
1
1
1
1
1
1
1
1
1
1
1
1
1
1
1
1
1
1
1
1
2.44928
9.12832
10.3778
10.4301
10.4893
10.5315
10.555
10.5569
10.5595
10.594
10.6472
10.6999
10.7464
10.7807
10.8018
10.8121
10.8253
10.8626
10.9105
10.9535
10.9894
11.0154
11.0297
11.0323
11.0377
11.0681
11.1169
11.1757
11.2303
11.2684
11.2834
11.2784
11.2715
11.2774
11.3013
11.341
11.384
11.4198
11.4455
11.4627
11.478
11.4975
11.5231
11.5524
11.5806
11.6039
11.6209
11.6332
11.6437
11.6553
11.6707
11.6904
11.7125
11.7336
11.7507
11.7641
11.778
11.798
11.8247
11.8521
11.8714
11.8779
11.8735
11.8692
11.8722
11.8869
11.9103
11.9319
11.9437
11.9465
11.9466
11.9507
11.9628
11.978
11.9878
11.99
11.9867
11.9822
11.9834
11.9939
12.0088
12.0225
1
1
1
1
1
1
1
1
1
1
1
1
1
1
1
1
1
1
1
1
1
1
1
1
1
1
1
1
1
1
1
1
1
1
1
1
1
1
1
1
1
1
1
1
1
1
1
1
1
1
1
1
1
1
1
1
1
1
1
1
1
1
1
1
1
1
1
1
1
1
1
1
1
1
1
1
1
1
1
1
1
1
1
1
1
1
2.25356
8.94793
10.3871
10.4268
10.4817
10.5203
10.5434
10.5489
10.5594
10.5993
10.6511
10.6988
10.7388
10.7662
10.7839
10.7972
10.8201
10.8662
10.9165
10.9574
10.9882
11.007
11.0152
11.0147
11.0261
11.0656
11.1179
11.1751
11.2253
11.2568
11.2656
11.2601
11.2579
11.2717
11.3027
11.3443
11.3843
11.4157
11.438
11.4538
11.47
11.491
11.5171
11.5456
11.5718
11.5938
11.6107
11.6242
11.6363
11.6494
11.6657
11.6859
11.7077
11.7271
11.7415
11.7525
11.7657
11.787
11.8167
11.8467
11.8658
11.8699
11.8633
11.8577
11.8616
11.8784
11.9033
11.9245
11.9352
11.9374
11.9379
11.9438
11.9571
11.9712
11.9792
11.9805
11.9769
11.9733
11.9755
11.9857
11.9993
12.0111
1
1
1
1
1
1
1
1
1
1
1
1
1
1
1
1
1
1
1
1
1
1
1
1
1
1
1
1
1
1
1
1
1
1
1
1
1
1
1
1
1
1
1
1
1
1
1
1
1
1
1
1
1
1
1
1
1
1
1
1
1
1
1
1
1
1
1
1
1
1
1
1
1
1
1
1
1
1
1
1
1
1
1
1
1
1
2.05522
8.73926
10.402
10.4239
10.4738
10.5068
10.5288
10.5409
10.5612
10.6031
10.6514
10.6944
10.728
10.7504
10.7679
10.7877
10.8202
10.8702
10.9184
10.9553
10.9802
10.9933
10.9997
11.003
11.0237
11.0684
11.1193
11.1712
11.2145
11.2387
11.2436
11.2416
11.2492
11.2724
11.3078
11.3474
11.3826
11.409
11.4286
11.4446
11.4632
11.4859
11.5115
11.5368
11.5597
11.5803
11.5984
11.6148
11.6297
11.6442
11.6602
11.679
11.6989
11.7167
11.7302
11.7414
11.7557
11.7785
11.809
11.8386
11.8565
11.8594
11.8527
11.8476
11.8526
11.87
11.8942
11.9144
11.925
11.9283
11.9305
11.9382
11.9511
11.9624
11.9683
11.9688
11.9657
11.9639
11.9671
11.977
11.989
11.9988
1
1
1
1
1
1
1
1
1
1
1
1
1
1
1
1
1
1
1
1
1
1
1
1
1
1
1
1
1
1
1
1
1
1
1
1
1
1
1
1
1
1
1
1
1
1
1
1
1
1
1
1
1
1
1
1
1
1
1
1
1
1
1
1
1
1
1
1
1
1
1
1
1
1
1
1
1
1
1
1
1
1
1
1
1
1
1.86442
8.50211
10.4073
10.4173
10.4635
10.493
10.5161
10.5356
10.5639
10.6052
10.6479
10.6844
10.7126
10.7344
10.7569
10.7854
10.8254
10.8734
10.9149
10.944
10.9623
10.9743
10.9857
10.9992
11.0296
11.075
11.1201
11.1627
11.196
11.2138
11.2194
11.2273
11.247
11.2775
11.3132
11.3475
11.3761
11.3974
11.4158
11.434
11.4563
11.481
11.5053
11.5271
11.5464
11.5658
11.5856
11.6056
11.624
11.6404
11.6561
11.6722
11.6884
11.7037
11.7171
11.7303
11.7477
11.7723
11.8017
11.8282
11.8434
11.8459
11.8409
11.8381
11.8446
11.8615
11.8834
11.9021
11.9135
11.9193
11.9243
11.9335
11.9443
11.9517
11.9553
11.9552
11.9536
11.954
11.9585
11.9678
11.9778
11.9855
1
1
1
1
1
1
1
1
1
1
1
1
1
1
1
1
1
1
1
1
1
1
1
1
1
1
1
1
1
1
1
1
1
1
1
1
1
1
1
1
1
1
1
1
1
1
1
1
1
1
1
1
1
1
1
1
1
1
1
1
1
1
1
1
1
1
1
1
1
1
1
1
1
1
1
1
1
1
1
1
1
1
1
1
1
1
1.6858
8.23088
10.3996
10.4101
10.455
10.4836
10.5098
10.5345
10.5654
10.6027
10.6391
10.6704
10.6967
10.7219
10.7521
10.7891
10.8333
10.8767
10.9087
10.9278
10.9412
10.9558
10.9759
11.0013
11.0392
11.0818
11.1189
11.1494
11.1727
11.1874
11.1993
11.2202
11.2505
11.2844
11.317
11.3448
11.3664
11.3837
11.4023
11.4239
11.4498
11.4756
11.4983
11.5168
11.5332
11.5511
11.5718
11.5947
11.6167
11.6359
11.6519
11.6655
11.6771
11.6886
11.7015
11.7177
11.7394
11.7666
11.7947
11.8167
11.8281
11.8298
11.8275
11.8281
11.8365
11.8526
11.872
11.8891
11.9016
11.9106
11.9187
11.9284
11.9359
11.9391
11.9403
11.9399
11.9405
11.9436
11.9495
11.9579
11.9656
11.9714
1
1
1
1
1
1
1
1
1
1
1
1
1
1
1
1
1
1
1
1
1
1
1
1
1
1
1
1
1
1
1
1
1
1
1
1
1
1
1
1
1
1
1
1
1
1
1
1
1
1
1
1
1
1
1
1
1
1
1
1
1
1
1
1
1
1
1
1
1
1
1
1
1
1
1
1
1
1
1
1
1
1
1
1
1
1
1.51736
7.92006
10.3915
10.4087
10.4498
10.4791
10.5076
10.5352
10.5656
10.5982
10.6291
10.657
10.6841
10.7144
10.7517
10.7949
10.839
10.876
10.8984
10.9101
10.922
10.9413
10.9707
11.0069
11.0474
11.0839
11.1108
11.1306
11.1481
11.1646
11.1869
11.2197
11.2563
11.289
11.3164
11.337
11.3532
11.369
11.3893
11.414
11.442
11.468
11.4896
11.5063
11.5211
11.5376
11.5579
11.582
11.6071
11.6298
11.6475
11.6593
11.6664
11.6734
11.6845
11.703
11.7297
11.7602
11.7874
11.8053
11.8126
11.813
11.8126
11.8167
11.8272
11.8427
11.8599
11.8758
11.8894
11.9015
11.9124
11.9214
11.9252
11.9247
11.9237
11.9236
11.9269
11.9328
11.9398
11.9472
11.9526
11.9565
1
1
1
1
1
1
1
1
1
1
1
1
1
1
1
1
1
1
1
1
1
1
1
1
1
1
1
1
1
1
1
1
1
1
1
1
1
1
1
1
1
1
1
1
1
1
1
1
1
1
1
1
1
1
1
1
1
1
1
1
1
1
1
1
1
1
1
1
1
1
1
1
1
1
1
1
1
1
1
1
1
1
1
1
1
1
1.35413
7.56765
10.3826
10.4064
10.4415
10.4726
10.5038
10.5331
10.5626
10.5919
10.6196
10.6462
10.6751
10.7096
10.751
10.7964
10.8385
10.8697
10.8858
10.8946
10.9078
10.9319
10.9683
11.01
11.0494
11.0791
11.0968
11.1097
11.1262
11.1485
11.182
11.2226
11.2601
11.2891
11.3102
11.3248
11.3384
11.355
11.3777
11.4042
11.4324
11.4575
11.4787
11.4957
11.5104
11.5257
11.5445
11.5681
11.5951
11.6211
11.6415
11.6528
11.6564
11.659
11.6676
11.6873
11.718
11.7519
11.7791
11.7938
11.7974
11.7962
11.7965
11.8029
11.8154
11.8311
11.8477
11.8634
11.878
11.8922
11.905
11.9125
11.9125
11.9091
11.9064
11.9071
11.9129
11.9213
11.9294
11.9354
11.9385
11.9406
1
1
1
1
1
1
1
1
1
1
1
1
1
1
1
1
1
1
1
1
1
1
1
1
1
1
1
1
1
1
1
1
1
1
1
1
1
1
1
1
1
1
1
1
1
1
1
1
1
1
1
1
1
1
1
1
1
1
1
1
1
1
1
1
1
1
1
1
1
1
1
1
1
1
1
1
1
1
1
1
1
1
1
1
1
1
1.19569
7.19575
10.3811
10.4037
10.433
10.466
10.4988
10.5295
10.5586
10.5858
10.6115
10.6384
10.6693
10.7057
10.7468
10.79
10.8292
10.8571
10.8719
10.8825
10.8997
10.9277
10.966
11.0073
11.0433
11.0672
11.0797
11.0904
11.1094
11.1393
11.1805
11.2239
11.2593
11.2832
11.2985
11.3097
11.3237
11.343
11.3678
11.3945
11.4208
11.4444
11.4658
11.4842
11.5
11.5147
11.5318
11.5543
11.5816
11.6097
11.6327
11.6448
11.646
11.6456
11.6524
11.6721
11.705
11.7412
11.7686
11.7812
11.7824
11.7797
11.7799
11.7873
11.8013
11.818
11.8353
11.8518
11.8673
11.8822
11.8952
11.901
11.8981
11.8925
11.8887
11.8906
11.8984
11.909
11.9177
11.9224
11.9232
11.9236
1
1
1
1
1
1
1
1
1
1
1
1
1
1
1
1
1
1
1
1
1
1
1
1
1
1
1
1
1
1
1
1
1
1
1
1
1
1
1
1
1
1
1
1
1
1
1
1
1
1
1
1
1
1
1
1
1
1
1
1
1
1
1
1
1
1
1
1
1
1
1
1
1
1
1
1
1
1
1
1
1
1
1
1
1
1
1.0433
6.81487
10.3356
10.3826
10.4164
10.4552
10.4892
10.5199
10.5482
10.5742
10.6009
10.6314
10.6661
10.7036
10.7421
10.7807
10.8153
10.8405
10.8566
10.8721
10.8951
10.9257
10.9629
11.001
11.0321
11.0514
11.0624
11.075
11.0986
11.1342
11.1786
11.2209
11.2527
11.2717
11.283
11.2936
11.3099
11.3324
11.3584
11.3841
11.4081
11.4299
11.4513
11.4712
11.4883
11.5031
11.5195
11.5414
11.5688
11.5972
11.6208
11.6331
11.6337
11.6325
11.6389
11.6589
11.6921
11.7281
11.7549
11.7666
11.7666
11.7632
11.763
11.7707
11.7856
11.8038
11.8225
11.8404
11.8567
11.8711
11.8826
11.8868
11.8823
11.8751
11.871
11.8739
11.8835
11.8955
11.9046
11.9081
11.9067
11.9058
1
1
1
1
1
1
1
1
1
1
1
1
1
1
1
1
1
1
1
1
1
1
1
1
1
1
1
1
1
1
1
1
1
1
1
1
1
1
1
1
1
1
1
1
1
1
1
1
1
1
1
1
1
1
1
1
1
1
1
1
1
1
1
1
1
1
1
1
1
1
1
1
1
1
1
1
1
1
1
1
1
1
1
1
1
1
1.00111
6.34796
10.2719
10.3635
10.403
10.4472
10.4824
10.5131
10.5406
10.5669
10.5943
10.6262
10.662
10.6985
10.7336
10.7673
10.7977
10.8219
10.8415
10.8637
10.8914
10.9223
10.956
10.9896
11.0164
11.0339
11.0475
11.065
11.0928
11.1306
11.1739
11.2126
11.24
11.2556
11.2659
11.278
11.2969
11.3214
11.3478
11.3725
11.3954
11.4164
11.4372
11.4568
11.474
11.4892
11.5067
11.5297
11.5575
11.5848
11.6062
11.617
11.6184
11.6185
11.6265
11.6478
11.6802
11.7137
11.738
11.7487
11.7489
11.7461
11.7464
11.7543
11.7697
11.7888
11.8089
11.8281
11.8449
11.8582
11.8673
11.8701
11.8651
11.8574
11.8534
11.8571
11.8678
11.8806
11.8897
11.8923
11.8891
11.8873
1
1
1
1
1
1
1
1
1
1
1
1
1
1
1
1
1
1
1
1
1
1
1
1
1
1
1
1
1
1
1
1
1
1
1
1
1
1
1
1
1
1
1
1
1
1
1
1
1
1
1
1
1
1
1
1
1
1
1
1
1
1
1
1
1
1
1
1
1
1
1
1
1
1
1
1
1
1
1
1
1
1
1
1
1
1
1
5.80273
10.2051
10.3467
10.3885
10.4363
10.4722
10.5033
10.5311
10.558
10.5874
10.6209
10.6564
10.6905
10.722
10.7518
10.7807
10.8069
10.8319
10.8593
10.8887
10.9172
10.9459
10.9746
10.9989
11.0176
11.0368
11.0603
11.0904
11.1267
11.1654
11.1989
11.2224
11.2375
11.2497
11.2643
11.2843
11.3084
11.3341
11.3591
11.383
11.4051
11.4248
11.4417
11.4567
11.472
11.4918
11.518
11.5472
11.5728
11.59
11.5979
11.5997
11.6031
11.6151
11.6387
11.6691
11.6979
11.7178
11.7268
11.7283
11.7276
11.7301
11.7392
11.7546
11.7737
11.7941
11.8138
11.8307
11.8428
11.8498
11.8515
11.8469
11.8396
11.8358
11.8399
11.851
11.8641
11.873
11.8749
11.8706
11.8684
1
1
1
1
1
1
1
1
1
1
1
1
1
1
1
1
1
1
1
1
1
1
1
1
1
1
1
1
1
1
1
1
1
1
1
1
1
1
1
1
1
1
1
1
1
1
1
1
1
1
1
1
1
1
1
1
1
1
1
1
1
1
1
1
1
1
1
1
1
1
1
1
1
1
1
1
1
1
1
1
1
1
1
1
1
1
1
5.22952
10.1325
10.3344
10.3784
10.427
10.4632
10.4942
10.5216
10.5494
10.5794
10.6124
10.6466
10.6787
10.7079
10.7362
10.7658
10.7956
10.8256
10.8561
10.8846
10.9091
10.9325
10.958
10.9823
11.005
11.0312
11.0597
11.0901
11.122
11.1534
11.1805
11.2017
11.2196
11.236
11.253
11.2715
11.2927
11.3169
11.3435
11.371
11.3957
11.4144
11.4273
11.4381
11.4522
11.4746
11.5049
11.5366
11.5606
11.5733
11.5771
11.5791
11.5867
11.6042
11.6302
11.658
11.6808
11.6949
11.7018
11.705
11.7083
11.7148
11.7259
11.7407
11.7582
11.7776
11.7969
11.8133
11.8245
11.8302
11.8315
11.8282
11.8219
11.8183
11.8221
11.8328
11.8457
11.8543
11.856
11.8511
11.8492
1
1
1
1
1
1
1
1
1
1
1
1
1
1
1
1
1
1
1
1
1
1
1
1
1
1
1
1
1
1
1
1
1
1
1
1
1
1
1
1
1
1
1
1
1
1
1
1
1
1
1
1
1
1
1
1
1
1
1
1
1
1
1
1
1
1
1
1
1
1
1
1
1
1
1
1
1
1
1
1
1
1
1
1
1
1
1
4.64879
10.0172
10.3257
10.3724
10.4188
10.4548
10.4859
10.5134
10.541
10.5717
10.6045
10.6366
10.6669
10.6951
10.7234
10.7541
10.7872
10.8202
10.8511
10.877
10.8977
10.9174
10.9417
10.9684
10.9969
11.029
11.0599
11.087
11.1117
11.1352
11.158
11.1809
11.2046
11.2262
11.2441
11.259
11.2751
11.2971
11.326
11.3582
11.3864
11.4046
11.4135
11.4195
11.4315
11.4556
11.4895
11.5235
11.5469
11.5562
11.5567
11.5589
11.5708
11.5933
11.6209
11.645
11.6612
11.6696
11.6744
11.6799
11.6887
11.7008
11.7139
11.7271
11.7418
11.759
11.7771
11.7928
11.8036
11.8091
11.8106
11.8091
11.8044
11.8005
11.8035
11.8131
11.8252
11.8337
11.8355
11.8306
11.8295
1
1
1
1
1
1
1
1
1
1
1
1
1
1
1
1
1
1
1
1
1
1
1
1
1
1
1
1
1
1
1
1
1
1
1
1
1
1
1
1
1
1
1
1
1
1
1
1
1
1
1
1
1
1
1
1
1
1
1
1
1
1
1
1
1
1
1
1
1
1
1
1
1
1
1
1
1
1
1
1
1
1
1
1
1
1
1
4.07531
9.84587
10.3221
10.3689
10.4125
10.4476
10.4775
10.504
10.5313
10.5624
10.5954
10.627
10.6566
10.685
10.7137
10.7446
10.7791
10.8135
10.8436
10.8669
10.8854
10.9037
10.9282
10.9578
10.9911
11.0259
11.0553
11.077
11.095
11.1137
11.1362
11.1638
11.1933
11.2181
11.2348
11.2447
11.2562
11.2768
11.3082
11.3445
11.3755
11.3936
11.3998
11.4021
11.4123
11.4365
11.4716
11.5065
11.5297
11.5376
11.5372
11.5407
11.5564
11.582
11.6083
11.6277
11.6381
11.6421
11.6459
11.6549
11.6704
11.6879
11.7021
11.7127
11.7237
11.7381
11.7546
11.7696
11.7804
11.7865
11.7891
11.7896
11.7866
11.7824
11.7839
11.7917
11.8027
11.8112
11.8135
11.8093
11.8093
1
1
1
1
1
1
1
1
1
1
1
1
1
1
1
1
1
1
1
1
1
1
1
1
1
1
1
1
1
1
1
1
1
1
1
1
1
1
1
1
1
1
1
1
1
1
1
1
1
1
1
1
1
1
1
1
1
1
1
1
1
1
1
1
1
1
1
1
1
1
1
1
1
1
1
1
1
1
1
1
1
1
1
1
1
1
1
3.51446
9.62085
10.3205
10.3636
10.4066
10.4414
10.4716
10.4978
10.5235
10.5532
10.5863
10.6179
10.6473
10.6762
10.7051
10.7355
10.7694
10.804
10.8333
10.8554
10.8738
10.8931
10.9179
10.9492
10.9841
11.0179
11.0436
11.0611
11.0761
11.0941
11.1189
11.1504
11.1825
11.2074
11.2221
11.2287
11.2387
11.2597
11.2925
11.3297
11.361
11.3786
11.384
11.3854
11.3956
11.419
11.4522
11.4854
11.5082
11.517
11.5186
11.5256
11.5443
11.5695
11.5915
11.6053
11.6113
11.6131
11.618
11.632
11.6539
11.6751
11.6886
11.696
11.7035
11.7151
11.73
11.7444
11.7555
11.7628
11.7671
11.7696
11.7682
11.764
11.7633
11.7686
11.7785
11.7866
11.7898
11.7868
11.7882
1
1
1
1
1
1
1
1
1
1
1
1
1
1
1
1
1
1
1
1
1
1
1
1
1
1
1
1
1
1
1
1
1
1
1
1
1
1
1
1
1
1
1
1
1
1
1
1
1
1
1
1
1
1
1
1
1
1
1
1
1
1
1
1
1
1
1
1
1
1
1
1
1
1
1
1
1
1
1
1
1
1
1
1
1
1
1
2.9578
9.35065
10.3248
10.3603
10.4022
10.4358
10.4659
10.4922
10.5166
10.5438
10.5761
10.6083
10.6388
10.6685
10.698
10.7279
10.7596
10.7924
10.8207
10.8433
10.8635
10.8846
10.9095
10.9407
10.9743
11.0047
11.0271
11.0434
11.0592
11.0793
11.1062
11.1382
11.1688
11.1918
11.2055
11.213
11.2253
11.2475
11.279
11.3132
11.3417
11.3587
11.3657
11.3702
11.3823
11.4037
11.4319
11.4606
11.4824
11.4941
11.5012
11.5137
11.5335
11.5543
11.5692
11.5773
11.5811
11.5836
11.5924
11.6128
11.6392
11.661
11.672
11.6759
11.6807
11.6903
11.704
11.7179
11.7294
11.7378
11.744
11.7483
11.7485
11.7445
11.7414
11.7442
11.7526
11.7604
11.7645
11.7631
11.766
1
1
1
1
1
1
1
1
1
1
1
1
1
1
1
1
1
1
1
1
1
1
1
1
1
1
1
1
1
1
1
1
1
1
1
1
1
1
1
1
1
1
1
1
1
1
1
1
1
1
1
1
1
1
1
1
1
1
1
1
1
1
1
1
1
1
1
1
1
1
1
1
1
1
1
1
1
1
1
1
1
1
1
1
1
1
1
2.42937
9.00614
10.3407
10.3603
10.3997
10.4296
10.4577
10.4814
10.5051
10.5321
10.565
10.5985
10.6309
10.6619
10.6917
10.72
10.748
10.7779
10.8059
10.8302
10.8534
10.8771
10.9023
10.9319
10.9621
10.9879
11.0085
11.0265
11.0455
11.0685
11.0959
11.1251
11.1514
11.172
11.187
11.1992
11.2159
11.2386
11.2663
11.2942
11.3178
11.3345
11.3461
11.3567
11.3715
11.3895
11.4105
11.4333
11.454
11.4703
11.4855
11.5043
11.5223
11.5351
11.5417
11.5448
11.5486
11.5549
11.571
11.5973
11.625
11.6439
11.651
11.6522
11.6554
11.6642
11.6772
11.6908
11.7024
11.7117
11.7197
11.7257
11.7273
11.7235
11.7183
11.7188
11.7254
11.7324
11.7375
11.7377
11.7421
1
1
1
1
1
1
1
1
1
1
1
1
1
1
1
1
1
1
1
1
1
1
1
1
1
1
1
1
1
1
1
1
1
1
1
1
1
1
1
1
1
1
1
1
1
1
1
1
1
1
1
1
1
1
1
1
1
1
1
1
1
1
1
1
1
1
1
1
1
1
1
1
1
1
1
1
1
1
1
1
1
1
1
1
1
1
1
1.95133
8.57277
10.3778
10.3658
10.4001
10.4262
10.4539
10.4775
10.4991
10.523
10.5531
10.5867
10.6203
10.6527
10.6832
10.7107
10.7361
10.7635
10.7912
10.8167
10.843
10.8691
10.8944
10.9215
10.9479
10.9701
10.9904
11.0111
11.0336
11.0589
11.0856
11.1108
11.1324
11.151
11.1687
11.1871
11.2082
11.2301
11.2523
11.2731
11.2917
11.309
11.3265
11.3439
11.3608
11.3743
11.3877
11.4047
11.425
11.4478
11.4718
11.4948
11.5079
11.5112
11.5103
11.5094
11.5155
11.5292
11.5541
11.584
11.6092
11.6226
11.6253
11.6252
11.6283
11.6371
11.6499
11.663
11.6744
11.6844
11.6937
11.701
11.7039
11.7006
11.6941
11.6925
11.6969
11.703
11.7087
11.7107
11.7166
1
1
1
1
1
1
1
1
1
1
1
1
1
1
1
1
1
1
1
1
1
1
1
1
1
1
1
1
1
1
1
1
1
1
1
1
1
1
1
1
1
1
1
1
1
1
1
1
1
1
1
1
1
1
1
1
1
1
1
1
1
1
1
1
1
1
1
1
1
1
1
1
1
1
1
1
1
1
1
1
1
1
1
1
1
1
1
1.55256
8.0385
10.4056
10.3615
10.3893
10.4124
10.4397
10.4656
10.4889
10.513
10.5423
10.5755
10.6091
10.6417
10.6726
10.7001
10.7247
10.7502
10.7773
10.8037
10.8307
10.8577
10.8833
10.9088
10.9331
10.9534
10.974
10.9968
11.0215
11.048
11.0735
11.0952
11.1137
11.1316
11.1521
11.1752
11.1985
11.2186
11.2358
11.251
11.2665
11.2855
11.3079
11.3301
11.3471
11.3559
11.3634
11.3764
11.398
11.4278
11.4591
11.4819
11.4884
11.4834
11.4756
11.4733
11.4841
11.508
11.5407
11.5705
11.5898
11.5966
11.5959
11.5956
11.5999
11.6095
11.6221
11.6344
11.6453
11.6558
11.666
11.6742
11.678
11.6755
11.6687
11.6653
11.6672
11.6721
11.678
11.6815
11.6889
1
1
1
1
1
1
1
1
1
1
1
1
1
1
1
1
1
1
1
1
1
1
1
1
1
1
1
1
1
1
1
1
1
1
1
1
1
1
1
1
1
1
1
1
1
1
1
1
1
1
1
1
1
1
1
1
1
1
1
1
1
1
1
1
1
1
1
1
1
1
1
1
1
1
1
1
1
1
1
1
1
1
1
1
1
1
1
1.25439
7.47003
10.3855
10.3572
10.3802
10.4067
10.4343
10.4568
10.4767
10.4983
10.5255
10.5582
10.5928
10.6267
10.6597
10.6885
10.7139
10.7389
10.7649
10.7906
10.8172
10.8438
10.8693
10.8942
10.9184
10.9393
10.9603
10.9832
11.0072
11.033
11.0577
11.0786
11.0971
11.116
11.1384
11.1625
11.1846
11.202
11.216
11.229
11.2445
11.2658
11.2906
11.3136
11.3284
11.3335
11.3379
11.3502
11.3751
11.41
11.4445
11.4641
11.4637
11.4518
11.4391
11.4391
11.4574
11.4915
11.5279
11.554
11.5656
11.5658
11.5637
11.5646
11.5708
11.5816
11.5935
11.6045
11.6147
11.6255
11.6365
11.6452
11.6496
11.648
11.6418
11.637
11.6366
11.64
11.6455
11.6506
11.659
1
1
1
1
1
1
1
1
1
1
1
1
1
1
1
1
1
1
1
1
1
1
1
1
1
1
1
1
1
1
1
1
1
1
1
1
1
1
1
1
1
1
1
1
1
1
1
1
1
1
1
1
1
1
1
1
1
1
1
1
1
1
1
1
1
1
1
1
1
1
1
1
1
1
1
1
1
1
1
1
1
1
1
1
1
1
1
1.02519
6.8298
10.3135
10.3169
10.3398
10.3738
10.4085
10.4407
10.4698
10.497
10.5235
10.5513
10.5801
10.6102
10.6422
10.6728
10.7011
10.7282
10.7545
10.7784
10.802
10.8269
10.8526
10.8781
10.9038
10.9269
10.9486
10.97
10.991
11.0144
11.0388
11.0611
11.0829
11.1044
11.1269
11.1483
11.1661
11.1802
11.1933
11.2079
11.2265
11.25
11.2739
11.2939
11.3048
11.3075
11.3122
11.3275
11.3566
11.3933
11.4252
11.44
11.434
11.4176
11.4035
11.409
11.4366
11.4775
11.5129
11.5322
11.5359
11.5322
11.5299
11.533
11.5418
11.5532
11.5637
11.573
11.5825
11.5937
11.6052
11.614
11.6186
11.6181
11.6129
11.6073
11.6048
11.6066
11.6115
11.6174
11.6261
1
1
1
1
1
1
1
1
1
1
1
1
1
1
1
1
1
1
1
1
1
1
1
1
1
1
1
1
1
1
1
1
1
1
1
1
1
1
1
1
1
1
1
1
1
1
1
1
1
1
1
1
1
1
1
1
1
1
1
1
1
1
1
1
1
1
1
1
1
1
1
1
1
1
1
1
1
1
1
1
1
1
1
1
1
1
1
1.0003
6.08186
10.1986
10.2783
10.3177
10.3576
10.3908
10.4218
10.4499
10.4772
10.5061
10.5364
10.5661
10.5954
10.6273
10.6582
10.6874
10.715
10.7412
10.7645
10.7864
10.8094
10.8336
10.8595
10.8876
10.9141
10.9371
10.9568
10.9741
10.9938
11.0176
11.043
11.07
11.0946
11.1158
11.1323
11.1442
11.1551
11.1693
11.1884
11.2113
11.2357
11.2563
11.2709
11.2774
11.2799
11.2881
11.3084
11.3407
11.3753
11.4007
11.4094
11.3997
11.3825
11.372
11.3849
11.4203
11.4623
11.4927
11.5047
11.5019
11.4964
11.4955
11.5016
11.5126
11.5237
11.5321
11.5396
11.5486
11.5602
11.572
11.5806
11.5849
11.5853
11.5816
11.5761
11.5721
11.5722
11.5762
11.5824
11.5901
1
1
1
1
1
1
1
1
1
1
1
1
1
1
1
1
1
1
1
1
1
1
1
1
1
1
1
1
1
1
1
1
1
1
1
1
1
1
1
1
1
1
1
1
1
1
1
1
1
1
1
1
1
1
1
1
1
1
1
1
1
1
1
1
1
1
1
1
1
1
1
1
1
1
1
1
1
1
1
1
1
1
1
1
1
1
1
1
5.2761
10.0474
10.2476
10.2919
10.3377
10.3752
10.4103
10.4422
10.4715
10.4998
10.5261
10.5505
10.5764
10.6081
10.6409
10.6727
10.7032
10.7305
10.7529
10.7717
10.7921
10.8143
10.8394
10.8685
10.8978
10.9226
10.9421
10.9574
10.974
10.9968
11.0244
11.0558
11.0829
11.1022
11.1143
11.121
11.1296
11.1459
11.1697
11.1963
11.22
11.2361
11.2453
11.2484
11.2529
11.2666
11.2921
11.3245
11.3539
11.3713
11.3739
11.3628
11.3484
11.3461
11.3666
11.4053
11.4432
11.4658
11.4713
11.4654
11.4598
11.4616
11.4708
11.4829
11.4924
11.4985
11.5045
11.5134
11.5254
11.5371
11.545
11.5487
11.5498
11.5475
11.5428
11.5383
11.5368
11.5394
11.5447
11.5505
1
1
1
1
1
1
1
1
1
1
1
1
1
1
1
1
1
1
1
1
1
1
1
1
1
1
1
1
1
1
1
1
1
1
1
1
1
1
1
1
1
1
1
1
1
1
1
1
1
1
1
1
1
1
1
1
1
1
1
1
1
1
1
1
1
1
1
1
1
1
1
1
1
1
1
1
1
1
1
1
1
1
1
1
1
1
1
1
4.44251
9.86241
10.2322
10.2849
10.3231
10.3575
10.3933
10.4273
10.4594
10.489
10.5154
10.5391
10.5647
10.5956
10.6265
10.6556
10.684
10.7111
10.7349
10.755
10.7758
10.7967
10.8195
10.8474
10.8776
10.9041
10.9248
10.9406
10.9562
10.9779
11.006
11.0388
11.0668
11.0848
11.0943
11.098
11.1064
11.1242
11.151
11.1791
11.2009
11.2127
11.218
11.2202
11.2285
11.2481
11.2763
11.3053
11.3275
11.3379
11.3359
11.3258
11.3178
11.3255
11.3519
11.3879
11.4177
11.4327
11.4334
11.4273
11.4237
11.4285
11.4399
11.4512
11.4586
11.4628
11.4679
11.4769
11.4891
11.5002
11.5067
11.5096
11.511
11.5103
11.5073
11.5033
11.5007
11.5011
11.5047
11.5077
1
1
1
1
1
1
1
1
1
1
1
1
1
1
1
1
1
1
1
1
1
1
1
1
1
1
1
1
1
1
1
1
1
1
1
1
1
1
1
1
1
1
1
1
1
1
1
1
1
1
1
1
1
1
1
1
1
1
1
1
1
1
1
1
1
1
1
1
1
1
1
1
1
1
1
1
1
1
1
1
1
1
1
1
1
1
1
1
3.61447
9.59371
10.2264
10.2802
10.3226
10.3567
10.3875
10.4174
10.4468
10.4746
10.5005
10.5253
10.552
10.5828
10.6133
10.6411
10.6681
10.6942
10.7176
10.7382
10.7596
10.7812
10.8024
10.8275
10.8557
10.8819
10.9046
10.9234
10.9398
10.9607
10.9872
11.0182
11.0453
11.0627
11.072
11.0762
11.086
11.1045
11.1313
11.1584
11.1778
11.1868
11.1905
11.1941
11.207
11.2305
11.2581
11.2818
11.2965
11.3013
11.2973
11.2906
11.2926
11.3094
11.3369
11.365
11.3854
11.3943
11.393
11.3887
11.3888
11.3964
11.4077
11.4168
11.4223
11.4254
11.4304
11.4396
11.4514
11.461
11.4657
11.4677
11.4692
11.4701