# Force coefficients
# liftDir     : (0.000000e+00 1.000000e+00 0.000000e+00)
# dragDir     : (1.000000e+00 0.000000e+00 0.000000e+00)
# pitchAxis   : (0.000000e+00 0.000000e+00 1.000000e+00)
# magUInf     : 1.000000e+00
# lRef        : 1.000000e+00
# Aref        : 1.000000e-01
# CofR        : (0.000000e+00 0.000000e+00 0.000000e+00)
# Time        	Cm            	Cd            	Cl            	Cl(f)         	Cl(r)         
0.00125       	0.000000e+00	0.000000e+00	0.000000e+00	0.000000e+00	0.000000e+00
0.0025        	0.000000e+00	0.000000e+00	0.000000e+00	0.000000e+00	0.000000e+00
0.00375       	0.000000e+00	0.000000e+00	0.000000e+00	0.000000e+00	0.000000e+00
0.005         	0.000000e+00	0.000000e+00	0.000000e+00	0.000000e+00	0.000000e+00
0.00625       	0.000000e+00	0.000000e+00	0.000000e+00	0.000000e+00	0.000000e+00
0.0075        	0.000000e+00	0.000000e+00	0.000000e+00	0.000000e+00	0.000000e+00
