/*--------------------------------*- C++ -*----------------------------------*\
  =========                 |
  \\      /  F ield         | OpenFOAM: The Open Source CFD Toolbox
   \\    /   O peration     | Website:  https://openfoam.org
    \\  /    A nd           | Version:  7
     \\/     M anipulation  |
\*---------------------------------------------------------------------------*/
FoamFile
{
    version     2.0;
    format      ascii;
    class       volVectorField;
    location    "22";
    object      U;
}
// * * * * * * * * * * * * * * * * * * * * * * * * * * * * * * * * * * * * * //

dimensions      [0 1 -1 0 0 0 0];

internalField   nonuniform List<vector> 
435
(
(1.16413 -0.0223903 0)
(1.15974 -0.0236955 0)
(1.15532 -0.0247296 0)
(1.15092 -0.0255191 0)
(1.14653 -0.0260822 0)
(1.14219 -0.0264589 0)
(1.13786 -0.0266529 0)
(1.13365 -0.0267363 0)
(1.12936 -0.0266682 0)
(1.12539 -0.0265907 0)
(1.121 -0.0263781 0)
(1.11755 -0.0262651 0)
(1.11257 -0.0260874 0)
(1.11038 -0.0259952 0)
(1.10356 -0.0261993 0)
(1.1853 -0.00552765 0)
(1.18216 -0.00870404 0)
(1.17882 -0.0115688 0)
(1.17533 -0.0141205 0)
(1.1717 -0.016362 0)
(1.16797 -0.0183005 0)
(1.16416 -0.0199466 0)
(1.16029 -0.0213153 0)
(1.15639 -0.0224231 0)
(1.15247 -0.0232927 0)
(1.14855 -0.0239421 0)
(1.14465 -0.0244046 0)
(1.14074 -0.0246911 0)
(1.13693 -0.0248551 0)
(1.13302 -0.0248853 0)
(1.1294 -0.0248693 0)
(1.12533 -0.0247688 0)
(1.12218 -0.0246799 0)
(1.1175 -0.024637 0)
(1.11551 -0.0245291 0)
(1.109 -0.0248534 0)
(1.18059 -0.0034222 0)
(1.17796 -0.00652044 0)
(1.17515 -0.00933459 0)
(1.17217 -0.0118606 0)
(1.16905 -0.0140984 0)
(1.16582 -0.0160524 0)
(1.16249 -0.0177303 0)
(1.15909 -0.0191441 0)
(1.15565 -0.0203079 0)
(1.15217 -0.0212408 0)
(1.14867 -0.0219606 0)
(1.14519 -0.0224943 0)
(1.14167 -0.0228586 0)
(1.13824 -0.0230913 0)
(1.13468 -0.0232047 0)
(1.13141 -0.0232427 0)
(1.12767 -0.0232345 0)
(1.12481 -0.0231715 0)
(1.12045 -0.0232312 0)
(1.11864 -0.023121 0)
(1.11249 -0.0235224 0)
(1.17504 -0.00161909 0)
(1.17286 -0.00462416 0)
(1.17049 -0.0073718 0)
(1.16795 -0.00985567 0)
(1.16527 -0.0120734 0)
(1.16246 -0.0140264 0)
(1.15956 -0.0157201 0)
(1.15657 -0.0171635 0)
(1.15352 -0.0183684 0)
(1.15044 -0.0193507 0)
(1.14731 -0.0201273 0)
(1.14419 -0.0207201 0)
(1.14103 -0.0211497 0)
(1.13793 -0.0214415 0)
(1.13471 -0.021625 0)
(1.13174 -0.0217114 0)
(1.12832 -0.021778 0)
(1.12572 -0.0217426 0)
(1.12167 -0.0218771 0)
(1.12004 -0.0217755 0)
(1.11427 -0.022218 0)
(1.16897 -8.35811e-05 0)
(1.16717 -0.0029823 0)
(1.16518 -0.00564943 0)
(1.16301 -0.00807674 0)
(1.1607 -0.0102596 0)
(1.15827 -0.0121973 0)
(1.15572 -0.0138927 0)
(1.15309 -0.015352 0)
(1.15039 -0.0165851 0)
(1.14764 -0.0176046 0)
(1.14484 -0.0184265 0)
(1.14203 -0.0190681 0)
(1.13917 -0.0195526 0)
(1.13637 -0.0198954 0)
(1.13344 -0.020138 0)
(1.13074 -0.0202683 0)
(1.1276 -0.0203948 0)
(1.12523 -0.0203889 0)
(1.12148 -0.0205753 0)
(1.11999 -0.0204904 0)
(1.11459 -0.020946 0)
(1.16259 0.00121167 0)
(1.16112 -0.00156853 0)
(1.15945 -0.00414214 0)
(1.15762 -0.00649935 0)
(1.15563 -0.00863378 0)
(1.15351 -0.0105425 0)
(1.15128 -0.0122263 0)
(1.14895 -0.013689 0)
(1.14654 -0.0149381 0)
(1.14408 -0.0159838 0)
(1.14156 -0.0168405 0)
(1.13902 -0.0175218 0)
(1.13642 -0.0180516 0)
(1.13387 -0.0184385 0)
(1.13118 -0.0187307 0)
(1.12872 -0.0189014 0)
(1.12582 -0.0190757 0)
(1.12364 -0.0191007 0)
(1.12015 -0.0193208 0)
(1.11878 -0.0192583 0)
(1.11371 -0.0197068 0)
(1.15608 0.00228706 0)
(1.15489 -0.000363182 0)
(1.15351 -0.00283073 0)
(1.15196 -0.00510472 0)
(1.15026 -0.00717731 0)
(1.14842 -0.00904383 0)
(1.14645 -0.010703 0)
(1.14439 -0.0121566 0)
(1.14224 -0.0134101 0)
(1.14002 -0.014471 0)
(1.13774 -0.0153523 0)
(1.13543 -0.0160643 0)
(1.13305 -0.0166307 0)
(1.13071 -0.0170552 0)
(1.12823 -0.0173886 0)
(1.12595 -0.0175963 0)
(1.12325 -0.0178083 0)
(1.12123 -0.0178646 0)
(1.11796 -0.0181054 0)
(1.11668 -0.0180681 0)
(1.1119 -0.0184965 0)
(1.14954 0.00315774 0)
(1.1486 0.000648405 0)
(1.14748 -0.00170114 0)
(1.14619 -0.00387919 0)
(1.14474 -0.00587677 0)
(1.14314 -0.00768777 0)
(1.14142 -0.00930923 0)
(1.13959 -0.0107411 0)
(1.13766 -0.0119869 0)
(1.13566 -0.013052 0)
(1.13358 -0.0139474 0)
(1.13146 -0.014681 0)
(1.12927 -0.0152752 0)
(1.1271 -0.0157306 0)
(1.12479 -0.0160974 0)
(1.12266 -0.016338 0)
(1.12014 -0.0165796 0)
(1.11823 -0.0166663 0)
(1.11516 -0.0169185 0)
(1.11394 -0.016907 0)
(1.1094 -0.0173082 0)
(1.14307 0.00383542 0)
(1.14236 0.00147705 0)
(1.14147 -0.000743231 0)
(1.14041 -0.00281308 0)
(1.13918 -0.00472272 0)
(1.13781 -0.00646497 0)
(1.1363 -0.00803553 0)
(1.13468 -0.00943273 0)
(1.13295 -0.0106584 0)
(1.13114 -0.011716 0)
(1.12924 -0.0126147 0)
(1.12729 -0.0133601 0)
(1.12526 -0.013973 0)
(1.12324 -0.0144519 0)
(1.12107 -0.0148443 0)
(1.11907 -0.015113 0)
(1.11668 -0.0153772 0)
(1.11487 -0.015492 0)
(1.11194 -0.0157492 0)
(1.11077 -0.0157622 0)
(1.10643 -0.0161333 0)
(1.13675 0.00432985 0)
(1.13625 0.00213122 0)
(1.13556 5.07127e-05 0)
(1.13471 -0.00189926 0)
(1.13369 -0.00370848 0)
(1.13251 -0.00536899 0)
(1.1312 -0.00687546 0)
(1.12977 -0.00822494 0)
(1.12822 -0.00941778 0)
(1.12658 -0.0104558 0)
(1.12484 -0.0113462 0)
(1.12304 -0.0120931 0)
(1.12115 -0.0127149 0)
(1.11925 -0.0132091 0)
(1.11721 -0.0136191 0)
(1.11531 -0.0139103 0)
(1.11303 -0.0141904 0)
(1.11129 -0.0143298 0)
(1.10849 -0.0145873 0)
(1.10735 -0.0146221 0)
(1.10317 -0.0149631 0)
(1.13065 0.00464999 0)
(1.13032 0.00261884 0)
(1.12982 0.000687539 0)
(1.12915 -0.0011318 0)
(1.12832 -0.00282878 0)
(1.12733 -0.00439504 0)
(1.1262 -0.00582449 0)
(1.12494 -0.00711322 0)
(1.12356 -0.00826033 0)
(1.12207 -0.00926628 0)
(1.12048 -0.0101366 0)
(1.11881 -0.0108741 0)
(1.11705 -0.0114945 0)
(1.11526 -0.0119951 0)
(1.11333 -0.0124142 0)
(1.11151 -0.012721 0)
(1.10933 -0.0130108 0)
(1.10765 -0.0131697 0)
(1.10494 -0.0134242 0)
(1.10382 -0.0134769 0)
(1.09977 -0.0137891 0)
(1.12481 0.00480475 0)
(1.12465 0.00294765 0)
(1.12432 0.00117384 0)
(1.12382 -0.000505067 0)
(1.12315 -0.00207884 0)
(1.12233 -0.00353896 0)
(1.12137 -0.00487893 0)
(1.12026 -0.00609416 0)
(1.11903 -0.00718278 0)
(1.11769 -0.00814418 0)
(1.11623 -0.00898237 0)
(1.11469 -0.00969898 0)
(1.11304 -0.0103073 0)
(1.11135 -0.0108046 0)
(1.10951 -0.0112241 0)
(1.10777 -0.011539 0)
(1.10567 -0.011832 0)
(1.10404 -0.0120047 0)
(1.10141 -0.0122529 0)
(1.10031 -0.0123192 0)
(1.09635 -0.0126041 0)
(1.11931 0.00480334 0)
(1.11929 0.00312575 0)
(1.1191 0.00151663 0)
(1.11875 -1.30529e-05 0)
(1.11824 -0.00145353 0)
(1.11758 -0.00279643 0)
(1.11676 -0.0040351 0)
(1.1158 -0.00516456 0)
(1.11471 -0.00618224 0)
(1.11349 -0.00708672 0)
(1.11216 -0.00788069 0)
(1.11073 -0.0085649 0)
(1.10918 -0.00915037 0)
(1.10759 -0.00963428 0)
(1.10583 -0.0100452 0)
(1.10416 -0.0103598 0)
(1.10213 -0.0106494 0)
(1.10054 -0.0108293 0)
(1.09798 -0.0110682 0)
(1.09689 -0.0111433 0)
(1.09301 -0.0114024 0)
(1.11419 0.00465541 0)
(1.11429 0.00316182 0)
(1.11424 0.00172368 0)
(1.11402 0.000351028 0)
(1.11364 -0.000946999 0)
(1.11311 -0.00216242 0)
(1.11243 -0.0032887 0)
(1.1116 -0.00432074 0)
(1.11064 -0.0052555 0)
(1.10954 -0.00609103 0)
(1.10832 -0.00682893 0)
(1.10699 -0.00746928 0)
(1.10554 -0.008021 0)
(1.10403 -0.00848134 0)
(1.10236 -0.00887447 0)
(1.10074 -0.00918034 0)
(1.09878 -0.00945977 0)
(1.09722 -0.00964013 0)
(1.09472 -0.00986612 0)
(1.09365 -0.00994526 0)
(1.08983 -0.0101792 0)
(1.1095 0.00437109 0)
(1.10971 0.00306528 0)
(1.10977 0.00180355 0)
(1.10967 0.000594907 0)
(1.10941 -0.000552353 0)
(1.109 -0.00163085 0)
(1.10844 -0.00263442 0)
(1.10773 -0.00355805 0)
(1.10688 -0.00439853 0)
(1.10589 -0.00515357 0)
(1.10477 -0.00582396 0)
(1.10354 -0.00640925 0)
(1.10217 -0.00691656 0)
(1.10074 -0.00734322 0)
(1.09914 -0.00770942 0)
(1.09758 -0.00799791 0)
(1.09567 -0.00826029 0)
(1.09415 -0.00843429 0)
(1.09169 -0.00864363 0)
(1.09063 -0.00872232 0)
(1.08687 -0.00893088 0)
(1.1053 0.00396099 0)
(1.1056 0.00284623 0)
(1.10576 0.00176577 0)
(1.10576 0.000727433 0)
(1.1056 -0.000261474 0)
(1.1053 -0.00119437 0)
(1.10484 -0.00206562 0)
(1.10423 -0.00287059 0)
(1.10348 -0.00360609 0)
(1.10259 -0.00426971 0)
(1.10156 -0.00486168 0)
(1.10041 -0.00538117 0)
(1.09912 -0.00583378 0)
(1.09776 -0.00621691 0)
(1.09622 -0.00654728 0)
(1.09471 -0.00680998 0)
(1.09285 -0.00704848 0)
(1.09136 -0.00720946 0)
(1.08895 -0.00739816 0)
(1.0879 -0.00747211 0)
(1.08419 -0.00765455 0)
(1.10164 0.00343624 0)
(1.10202 0.00251561 0)
(1.10225 0.0016209 0)
(1.10234 0.000758687 0)
(1.10227 -6.48575e-05 0)
(1.10206 -0.000844104 0)
(1.10169 -0.00157416 0)
(1.10117 -0.00225092 0)
(1.1005 -0.00287143 0)
(1.09969 -0.00343339 0)
(1.09874 -0.00393665 0)
(1.09767 -0.0043802 0)
(1.09645 -0.00476836 0)
(1.09514 -0.00509862 0)
(1.09365 -0.00538464 0)
(1.09219 -0.00561352 0)
(1.09038 -0.00582152 0)
(1.08891 -0.00596315 0)
(1.08654 -0.00612716 0)
(1.0855 -0.00619239 0)
(1.08183 -0.00634747 0)
(1.09858 0.00280859 0)
(1.09902 0.00208523 0)
(1.09932 0.00138068 0)
(1.09947 0.000700149 0)
(1.09948 4.85712e-05 0)
(1.09933 -0.000569506 0)
(1.09904 -0.00115009 0)
(1.09859 -0.00168976 0)
(1.09799 -0.002186 0)
(1.09725 -0.0026368 0)
(1.09637 -0.00304183 0)
(1.09535 -0.00340003 0)
(1.09419 -0.00371468 0)
(1.09294 -0.00398338 0)
(1.0915 -0.00421711 0)
(1.09007 -0.00440469 0)
(1.08829 -0.00457598 0)
(1.08685 -0.00469238 0)
(1.08452 -0.00482778 0)
(1.08348 -0.00488052 0)
(1.07985 -0.00500693 0)
(1.09618 0.00209061 0)
(1.09666 0.00156811 0)
(1.09701 0.0010583 0)
(1.09721 0.000564982 0)
(1.09727 9.17591e-05 0)
(1.09719 -0.000358012 0)
(1.09695 -0.000781363 0)
(1.09656 -0.00117572 0)
(1.09602 -0.00153917 0)
(1.09533 -0.00187011 0)
(1.09449 -0.00216822 0)
(1.09353 -0.00243251 0)
(1.09241 -0.00266543 0)
(1.09119 -0.00286473 0)
(1.08979 -0.00303899 0)
(1.08839 -0.00317855 0)
(1.08665 -0.00330757 0)
(1.08523 -0.00339333 0)
(1.08292 -0.00349677 0)
(1.08189 -0.00353298 0)
(1.07828 -0.00362991 0)
(1.0945 0.00129614 0)
(1.09501 0.000978808 0)
(1.09539 0.000668811 0)
(1.09563 0.000368456 0)
(1.09573 7.99574e-05 0)
(1.09568 -0.00019462 0)
(1.09548 -0.000453441 0)
(1.09513 -0.000694892 0)
(1.09463 -0.000917779 0)
(1.09398 -0.00112104 0)
(1.09318 -0.0013045 0)
(1.09225 -0.00146737 0)
(1.09116 -0.00161136 0)
(1.08997 -0.00173446 0)
(1.08859 -0.00184301 0)
(1.08722 -0.00192885 0)
(1.08549 -0.00201071 0)
(1.08408 -0.00206141 0)
(1.0818 -0.00212996 0)
(1.08077 -0.00214587 0)
(1.07719 -0.00221239 0)
(1.09362 0.000440834 0)
(1.09415 0.000334067 0)
(1.09454 0.000229698 0)
(1.0948 0.000128507 0)
(1.09492 3.12425e-05 0)
(1.09489 -6.13968e-05 0)
(1.09471 -0.000148787 0)
(1.09438 -0.000230375 0)
(1.0939 -0.000305757 0)
(1.09327 -0.000374554 0)
(1.09249 -0.000436725 0)
(1.09157 -0.00049193 0)
(1.0905 -0.000540869 0)
(1.08933 -0.000582595 0)
(1.08796 -0.000619737 0)
(1.0866 -0.000648585 0)
(1.08489 -0.000677186 0)
(1.08348 -0.000693262 0)
(1.08121 -0.000718525 0)
(1.08018 -0.000720911 0)
(1.07661 -0.000746447 0)
)
;

boundaryField
{
    inlet
    {
        type            uniformFixedValue;
        uniformValue    constant (1 0 0);
        value           nonuniform 0();
    }
    outlet
    {
        type            pressureInletOutletVelocity;
        value           nonuniform List<vector> 
21
(
(1.10356 -0.0261993 0)
(1.109 -0.0248534 0)
(1.11249 -0.0235224 0)
(1.11427 -0.022218 0)
(1.11459 -0.020946 0)
(1.11371 -0.0197068 0)
(1.1119 -0.0184965 0)
(1.1094 -0.0173082 0)
(1.10643 -0.0161333 0)
(1.10317 -0.0149631 0)
(1.09977 -0.0137891 0)
(1.09635 -0.0126041 0)
(1.09301 -0.0114024 0)
(1.08983 -0.0101792 0)
(1.08687 -0.00893088 0)
(1.08419 -0.00765455 0)
(1.08183 -0.00634747 0)
(1.07985 -0.00500693 0)
(1.07828 -0.00362991 0)
(1.07719 -0.00221239 0)
(1.07661 -0.000746447 0)
)
;
    }
    cylinder
    {
        type            fixedValue;
        value           nonuniform 0();
    }
    top
    {
        type            symmetryPlane;
    }
    bottom
    {
        type            symmetryPlane;
    }
    defaultFaces
    {
        type            empty;
    }
    procBoundary35to29
    {
        type            processor;
        value           nonuniform List<vector> 
22
(
(1.16192 -0.0250762 0)
(1.15695 -0.0262954 0)
(1.152 -0.0272346 0)
(1.14708 -0.027924 0)
(1.1422 -0.0283819 0)
(1.1374 -0.0286555 0)
(1.13265 -0.0287401 0)
(1.12804 -0.0287287 0)
(1.12339 -0.0285456 0)
(1.11907 -0.0283977 0)
(1.11437 -0.0280514 0)
(1.11064 -0.0279153 0)
(1.10541 -0.0275679 0)
(1.10303 -0.0275073 0)
(1.09598 -0.0275426 0)
(1.18879 -0.00797639 0)
(1.18503 -0.0112126 0)
(1.18109 -0.0141089 0)
(1.177 -0.0166666 0)
(1.17279 -0.0188919 0)
(1.16849 -0.0207952 0)
(1.16849 -0.0207952 0)
)
;
    }
    procBoundary35to34
    {
        type            processor;
        value           nonuniform List<vector> 
20
(
(1.18823 -0.00204568 0)
(1.18299 -4.82042e-05 0)
(1.17701 0.00163319 0)
(1.17056 0.00303498 0)
(1.16386 0.00418546 0)
(1.15706 0.00510591 0)
(1.15028 0.0058124 0)
(1.14359 0.00631763 0)
(1.13707 0.00663255 0)
(1.13079 0.00676739 0)
(1.1248 0.00673229 0)
(1.11916 0.00653753 0)
(1.11392 0.00619367 0)
(1.10913 0.00571146 0)
(1.10485 0.00510185 0)
(1.10112 0.00437602 0)
(1.09801 0.0035454 0)
(1.09556 0.00262195 0)
(1.09386 0.00161845 0)
(1.09296 0.000549209 0)
)
;
    }
}


// ************************************************************************* //
