/*--------------------------------*- C++ -*----------------------------------*\
  =========                 |
  \\      /  F ield         | OpenFOAM: The Open Source CFD Toolbox
   \\    /   O peration     | Website:  https://openfoam.org
    \\  /    A nd           | Version:  7
     \\/     M anipulation  |
\*---------------------------------------------------------------------------*/
FoamFile
{
    version     2.0;
    format      ascii;
    class       surfaceScalarField;
    location    "6";
    object      phi;
}
// * * * * * * * * * * * * * * * * * * * * * * * * * * * * * * * * * * * * * //

dimensions      [0 3 -1 0 0 0 0];

internalField   nonuniform List<scalar> 
809
(
0.00151204
0.0020672
-0.000555159
-2.97882e-05
0.000346214
-0.000901373
0.000519359
-0.000202933
0.00011336
0.00188412
0.00313216
-0.00145256
0.000551184
-0.00333431
0.00167882
-0.00401398
0.00256379
-0.00346742
0.0025856
-0.00234948
0.00164995
0.000144644
-0.00147215
0.00202334
-0.00320017
0.00340683
-0.00364716
0.00301078
-0.00323242
0.00217086
-0.00292068
0.0013382
-0.00304867
0.000272635
-0.003422
-0.000985968
-0.00219807
0.00076295
0.00126039
0.00188189
0.00228789
0.00248306
0.00240961
0.00232911
0.00232482
0.00156917
0.00209814
0.00040727
0.00143454
-0.000916412
0.000337714
-0.00205296
-0.00106152
-0.0026631
-0.00245181
-0.00339829
0.00185488
-0.00059449
0.00403354
0.000109228
0.00451703
0.00192612
0.00368526
0.00315659
0.00260571
0.00317768
0.00178136
0.00225889
0.00126915
0.000849919
0.000881592
-0.000673958
0.000454625
-0.00202484
3.28278e-05
-0.00297649
-0.000272489
-0.0033462
-0.00310913
0.000204813
-0.000799303
0.000397815
-8.37738e-05
0.000421406
0.00190252
0.000562854
0.00301514
0.00117611
0.00256443
0.00221341
0.00122159
0.00332221
-0.000258884
0.00407528
-0.00142703
0.00419084
-0.0021404
0.00363452
-0.00242017
0.00264487
-0.00235655
0.00156263
-0.00202688
0.000649631
-0.00153534
-0.00102511
-0.00149422
0.000694918
-0.00336956
0.00179157
-0.00387968
0.00241265
-0.00313484
0.0022703
-0.00194651
0.0013761
-0.000753623
2.87021e-05
0.000295681
-0.00130819
0.00110024
-0.00223159
0.00154908
-0.00258924
0.00158459
-0.00245568
0.00124488
-0.00201684
0.000703033
-0.00148504
0.000155716
-0.000988026
-0.000267916
-0.000601478
-0.000527824
-0.00035258
-0.000229507
-0.00142574
0.00212066
-0.00319237
0.0035582
-0.00386376
0.00308404
-0.00373233
0.00213887
-0.00355767
0.00120144
-0.00356084
3.18735e-05
-0.00357303
-0.001296
-0.00330888
-0.00249574
-0.00268848
-0.00320965
-0.00187107
-0.00327309
-0.00109968
-0.00278822
-0.000557432
-0.0020273
-0.000282027
-0.00126343
-0.000221066
-0.000662439
-0.000272598
-0.000301048
-0.000362539
-0.000139566
-0.000447871
-0.000117765
-0.000182925
0.000837395
0.00128326
0.00182333
0.00257226
0.0019319
0.00297547
0.00118097
0.0028898
3.19651e-05
0.00235045
-0.00114124
0.00120508
-0.00205334
-0.000383898
-0.00246128
-0.0020878
-0.0023365
-0.00333443
-0.00181402
-0.00379557
-0.00113843
-0.0034638
-0.000536386
-0.00262934
-0.000129919
-0.0016699
7.25329e-05
-0.000864891
0.000107361
-0.000335877
3.78698e-05
-7.00744e-05
-5.75915e-05
-2.23032e-05
-0.000139888
-0.000100628
-0.000210467
-0.000217732
-0.00026142
-0.000345861
-0.000469223
0.00187485
-0.000591582
0.00420982
0.000237289
0.00507506
0.00211023
0.00477896
0.0031859
0.00414347
0.00298594
0.00343854
0.00191001
0.00271491
0.000339733
0.00186718
-0.00124008
0.00100846
-0.00247571
0.000261307
-0.00304842
-0.000283384
-0.00291911
-0.0006047
-0.00230803
-0.000741348
-0.00153325
-0.000751546
-0.000854692
-0.000685123
-0.0004023
-0.000559971
-0.000195226
-0.000441948
-0.000140327
-0.000361845
-0.000180731
-0.000314399
-0.000265178
-0.000291791
-0.000368469
-0.000288945
-0.00047207
-0.000300313
-0.000573076
-0.000673287
0.000367438
-0.000959021
0.00130685
-0.000702124
0.00279018
0.000626896
0.00473232
0.00124376
0.00685136
0.000866906
0.00858564
0.000175726
0.00939423
-0.00046886
0.00906992
-0.000915765
0.00773254
-0.00113832
0.00582038
-0.00113625
0.00381529
-0.000914023
0.0020785
-0.000571239
0.000793867
-0.000248616
-1.6226e-05
-4.45995e-05
-0.000432513
1.39871e-05
-0.000591563
-3.61758e-05
-0.000605877
-0.000126013
-0.000554189
-0.000232419
-0.000500067
-0.0003193
-0.000458499
-0.000410037
-0.000433866
-0.000496703
-0.000424059
-0.000582883
-0.00042532
-0.000672026
-0.000434473
-0.000765649
-0.000863611
-0.00167519
0.000716173
-0.00360593
0.00122862
-0.00382309
0.000844049
-0.00248424
-9.50884e-05
-0.000464682
-0.00115266
0.00170973
-0.00199869
0.00359154
-0.00235067
0.00480964
-0.00213386
0.00513921
-0.0014679
0.00461906
-0.000616102
0.00355545
0.000149592
0.00233866
0.000645548
0.00126666
0.000823383
0.000474751
0.000747311
-4.24956e-05
0.000531234
-0.000360418
0.000281747
-0.000527769
4.13388e-05
-0.000598541
-0.000161648
-0.000609577
-0.000308264
-0.000598899
-0.000420716
-0.000580953
-0.000514649
-0.000562698
-0.000601138
-0.000547951
-0.000686772
-0.00053906
-0.00077454
-0.00120647
0.00192264
-0.00288075
0.0029029
-0.00398254
0.00194584
-0.00463193
0.000554302
-0.00504445
-0.000740134
-0.00503099
-0.00201215
-0.00440302
-0.00297864
-0.00325447
-0.00328241
-0.00195882
-0.00276355
-0.000880382
-0.00169454
-0.000166536
-0.000564254
0.000215994
0.000263019
0.000359695
0.000679681
0.000339582
0.000767424
0.000212396
0.000658421
5.48644e-05
0.000439278
-0.000109146
0.00020535
-0.000253553
-1.72414e-05
-0.000359154
-0.000202663
-0.000430869
-0.000349
-0.00047575
-0.000469768
-0.000502248
-0.000574639
-0.000518399
0.00109607
0.000826573
0.00216579
0.00183318
0.00178953
0.00232211
0.000150996
0.00219283
-0.00198362
0.00139449
-0.00398545
-1.03274e-05
-0.00534534
-0.00161874
-0.00581464
-0.00281311
-0.00541751
-0.00316069
-0.00441277
-0.00269928
-0.00316712
-0.0018099
-0.0020105
-0.000893608
-0.00114433
-0.000186489
-0.000613299
0.000236396
-0.000349934
0.000395056
-0.000275281
0.000364624
-0.000283829
0.000213898
-0.000328642
2.75716e-05
-0.000377572
-0.000153734
-0.000415306
-0.000311266
-0.000442007
-0.000443067
0.00184823
-0.00102165
0.00438248
-0.000701082
0.00583977
0.000864821
0.00632529
0.00170731
0.00622608
0.0014937
0.00552687
0.000688876
0.00426966
-0.000361526
0.00268854
-0.001232
0.00120552
-0.00167766
8.29826e-05
-0.00157674
-0.000639275
-0.00108764
-0.0010618
-0.000471081
-0.00129185
4.35603e-05
-0.00138054
0.00032508
-0.00133804
0.000352556
-0.00120868
0.00023527
-0.00103833
4.35498e-05
-0.000864625
-0.000146136
-0.000723441
-0.000294917
-0.000618581
1.22141e-05
-0.00103387
0.000749048
-0.00143792
0.00272347
-0.0011096
0.00568494
-0.00125416
0.0089146
-0.00173596
0.0115136
-0.00191012
0.0128001
-0.00164807
0.0125981
-0.00103
0.0111199
-0.000199445
0.00888435
0.00065884
0.00640768
0.00138903
0.00410188
0.00183472
0.00223131
0.00191413
0.000897395
0.001659
5.43408e-05
0.00119561
-0.000385491
0.000675102
-0.000565035
0.000223094
-0.000608063
-0.000103108
-0.00184888
0.000815008
-0.00411061
0.000823817
-0.00468412
-0.000536094
-0.00363827
-0.00230001
-0.00169523
-0.003679
0.000692743
-0.00429809
0.00297336
-0.00392869
0.00460893
-0.00266557
0.00529161
-0.000882128
0.00501589
0.000934567
0.00411015
0.00229477
0.00299874
0.00294612
0.00199417
0.0029187
0.0012262
0.00242696
0.000683685
0.00173813
0.000294516
0.00106427
2.46121e-05
0.000492997
-0.000838198
0.00165321
-0.00224741
0.00223302
-0.0036989
0.000915404
-0.0052099
-0.000789013
-0.00667201
-0.00221689
-0.00762639
-0.00334371
-0.00775368
-0.0038014
-0.00709222
-0.00332703
-0.00595852
-0.00201583
-0.00463685
-0.000387105
-0.00330771
0.000965627
-0.00209338
0.00173179
-0.0010949
0.00192022
-0.000381926
0.00171399
2.55326e-05
0.00133067
0.00020503
0.00130421
0.000348994
0.00261432
0.000922917
0.00219219
0.00133754
0.00018431
0.00121886
-0.00253481
0.000502226
-0.00526538
-0.000613132
-0.00738962
-0.00167716
-0.00849193
-0.00222472
-0.00844473
-0.00206304
-0.00744438
-0.00138745
-0.00591904
-0.000559718
-0.00431882
0.00013157
-0.00295908
0.000560485
-0.00196276
0.000717672
0.00179697
-0.00144798
0.0044599
-0.00174001
0.0063217
-0.000524262
0.00732719
0.000213375
0.00766497
0.000164441
0.00722384
-0.000172005
0.00604452
-0.000497833
0.00441021
-0.000590408
0.00274673
-0.000399563
0.00131877
4.05159e-05
0.000200843
0.000558206
-0.000632977
0.00096539
-0.00120685
0.00113436
-0.000362327
-0.00108565
-0.000184248
-0.00191809
0.00139881
-0.00210732
0.00421732
-0.00260514
0.00753874
-0.00315698
0.0104818
-0.00311511
0.0123351
-0.00235106
0.012792
-0.0010473
0.0118792
0.000513232
0.00998129
0.0019384
0.00760336
0.00293614
0.00522746
0.00334129
-0.00186652
0.000780871
-0.00433433
0.000549723
-0.00526318
-0.00117848
-0.00463598
-0.00323233
-0.0031002
-0.00469276
-0.00105279
-0.00516252
0.00102848
-0.00443233
0.00263297
-0.00265179
0.00350673
-0.000360522
0.00362274
0.00182239
0.00322537
0.00333351
0.00394398
-0.000738611
0.00151948
-0.00211186
0.00192297
-0.00372198
0.000431641
-0.00557422
-0.00138009
-0.00751876
-0.00274823
-0.00905809
-0.00362319
-0.00979105
-0.00369937
-0.00958609
-0.00285675
-0.00861632
-0.0013303
-0.00711816
0.000324228
-0.00536181
0.00157715
0.00127183
0.000247649
0.00254853
0.000646273
0.00204983
0.000930342
-0.000109007
0.000778749
-0.00302546
0.00016823
-0.00595339
-0.00069526
-0.00824047
-0.00141229
-0.00943819
-0.00165903
-0.00941701
-0.00135148
-0.00839311
-0.00069967
0.00177879
-0.00153114
0.00443101
-0.00200595
0.00624118
-0.000879825
0.00712588
-0.000105957
0.00732451
-3.03992e-05
0.00679864
-0.000169389
0.00563445
-0.000248095
0.00408041
-0.000104987
0.00248554
0.000243385
0.000712634
-0.000312905
-0.00121824
-0.000118978
-0.00219987
0.00137224
-0.00237105
0.00403389
-0.0027676
0.00720627
-0.00320277
0.010068
-0.00303112
0.0119313
-0.00211144
0.01247
-0.000643627
0.0116662
0.00104715
-0.00183525
0.000617007
-0.00429769
0.000262568
-0.00520604
-0.0014627
-0.00449548
-0.00347816
-0.00283093
-0.00486732
-0.000661715
-0.00520034
0.00150879
-0.00428194
0.00316456
-0.00229939
0.000140036
-0.000891635
0.00150864
-0.00248882
0.00185975
-0.00419605
0.000244541
-0.00600287
-0.00167134
-0.00782717
-0.00304302
-0.00922593
-0.00380158
-0.00983487
-0.003673
-0.00952924
-0.00260502
-0.000914887
0.00105496
0.000453679
0.00199727
0.000917445
0.00120583
0.00103597
-0.00118692
-0.00426808
-0.00725398
-0.00945826
-0.0104592
0.00184825
0.00449587
)
;

boundaryField
{
    inlet
    {
        type            calculated;
        value           nonuniform 0();
    }
    outlet
    {
        type            calculated;
        value           nonuniform 0();
    }
    cylinder
    {
        type            calculated;
        value           uniform 0;
    }
    top
    {
        type            symmetryPlane;
        value           nonuniform 0();
    }
    bottom
    {
        type            symmetryPlane;
        value           nonuniform 0();
    }
    defaultFaces
    {
        type            empty;
        value           nonuniform 0();
    }
    procBoundary19to12
    {
        type            processor;
        value           uniform -0.0101847;
    }
    procBoundary19to13
    {
        type            processor;
        value           nonuniform List<scalar> 10(0.000721418 3.8131e-05 -0.000815676 -0.00146872 -0.0016041 -0.00118935 -0.00139457 -0.00173018 0.00607783 -0.000545984);
    }
    procBoundary19to18
    {
        type            processor;
        value           nonuniform List<scalar> 
25
(
-0.000416127
-0.000510789
-0.000589789
-0.000313191
-0.000159744
8.12482e-05
0.000884773
0.000211115
0.000486913
-0.00129291
0.000660816
-0.00152811
0.00103893
0.00319966
0.00316216
0.00262267
-0.00361717
0.00219935
-0.00681055
-5.40574e-06
0.00107324
0.00986708
0.00251177
0.00407167
-0.00847432
)
;
    }
    procBoundary19to24
    {
        type            processor;
        value           nonuniform List<scalar> 8(-0.000537491 -0.000865181 -0.000670621 -0.000530706 -0.000762234 -0.000462559 -0.000554088 -0.000550859);
    }
    procBoundary19to25
    {
        type            processor;
        value           nonuniform List<scalar> 
38
(
-0.00193607
0.000424033
-0.00248682
0.0045838
-0.00147812
-0.00264971
-0.000369092
-0.00276789
-0.00143456
-0.00105956
0.0013593
0.00238303
-0.00360696
0.00306195
0.00336916
-0.00263398
0.00365152
0.00323086
-0.000394216
0.00244834
0.00164884
2.59013e-05
0.000612488
0.000351443
-0.00064976
0.000203096
0.000238331
-0.000503276
0.000288311
0.000396813
0.000504278
-0.000296474
0.000584444
0.000693699
-0.000320724
0.000774802
0.000878666
-0.000449528
)
;
    }
}


// ************************************************************************* //
