/*--------------------------------*- C++ -*----------------------------------*\
  =========                 |
  \\      /  F ield         | OpenFOAM: The Open Source CFD Toolbox
   \\    /   O peration     | Website:  https://openfoam.org
    \\  /    A nd           | Version:  7
     \\/     M anipulation  |
\*---------------------------------------------------------------------------*/
FoamFile
{
    version     2.0;
    format      ascii;
    class       volVectorField;
    location    "1.8";
    object      U;
}
// * * * * * * * * * * * * * * * * * * * * * * * * * * * * * * * * * * * * * //

dimensions      [0 1 -1 0 0 0 0];

internalField   nonuniform List<vector> 
4116
(
(2.93308 -0.169136 0)
(2.93385 -0.167829 0)
(2.93424 -0.166985 0)
(2.93534 -0.166105 0)
(2.93709 -0.165917 0)
(2.93857 -0.167697 0)
(2.94002 -0.169953 0)
(2.94152 -0.171095 0)
(2.94301 -0.171354 0)
(2.94435 -0.171223 0)
(2.9456 -0.170361 0)
(2.9468 -0.169098 0)
(2.94734 -0.167107 0)
(2.9465 -0.165334 0)
(2.94636 -0.164759 0)
(2.94867 -0.165072 0)
(2.95181 -0.165582 0)
(2.95499 -0.166204 0)
(2.95777 -0.166791 0)
(2.95998 -0.166628 0)
(2.96325 -0.165948 0)
(2.96726 -0.165751 0)
(2.96961 -0.166518 0)
(2.97017 -0.166812 0)
(2.97182 -0.167316 0)
(2.97379 -0.16666 0)
(2.97368 -0.163819 0)
(2.97078 -0.159736 0)
(2.96809 -0.156663 0)
(2.96715 -0.155596 0)
(2.9667 -0.156711 0)
(2.96556 -0.160555 0)
(2.96454 -0.164376 0)
(2.96644 -0.166261 0)
(2.96911 -0.1667 0)
(2.97151 -0.166953 0)
(2.97422 -0.166972 0)
(2.97868 -0.166293 0)
(2.98419 -0.164997 0)
(2.9892 -0.164216 0)
(2.99095 -0.16365 0)
(2.99079 -0.16308 0)
(2.9899 -0.161689 0)
(2.98837 -0.160089 0)
(2.98717 -0.159558 0)
(2.98688 -0.159789 0)
(2.98724 -0.15985 0)
(2.98768 -0.159847 0)
(2.98767 -0.160307 0)
(2.98909 -0.160524 0)
(2.99323 -0.160459 0)
(2.99644 -0.160604 0)
(2.99962 -0.16094 0)
(3.00233 -0.159607 0)
(3.00452 -0.157491 0)
(3.00655 -0.157101 0)
(3.00766 -0.157157 0)
(3.01011 -0.157566 0)
(3.01291 -0.158425 0)
(3.01389 -0.1588 0)
(3.01511 -0.159498 0)
(3.01497 -0.160061 0)
(3.01155 -0.159536 0)
(3.0075 -0.158228 0)
(3.00728 -0.15806 0)
(3.00871 -0.158582 0)
(3.00985 -0.158547 0)
(3.01088 -0.157747 0)
(3.01305 -0.156975 0)
(3.01537 -0.156711 0)
(3.01765 -0.156563 0)
(3.0201 -0.15642 0)
(3.02265 -0.156326 0)
(3.02508 -0.156309 0)
(3.02709 -0.156314 0)
(3.02776 -0.155074 0)
(3.02678 -0.153067 0)
(3.02541 -0.152904 0)
(3.02495 -0.154478 0)
(3.02493 -0.156081 0)
(3.02492 -0.157293 0)
(3.02487 -0.158149 0)
(3.02513 -0.159506 0)
(3.02635 -0.160343 0)
(3.0281 -0.159674 0)
(3.03084 -0.159026 0)
(3.03348 -0.1587 0)
(3.0357 -0.158184 0)
(3.03814 -0.157554 0)
(3.04115 -0.156856 0)
(3.04672 -0.156015 0)
(3.05036 -0.155264 0)
(3.05221 -0.15526 0)
(3.05477 -0.15521 0)
(3.05658 -0.154756 0)
(3.05711 -0.153778 0)
(3.05459 -0.15335 0)
(3.04895 -0.152451 0)
(3.04415 -0.150413 0)
(3.0431 -0.150637 0)
(3.04429 -0.152054 0)
(3.04621 -0.152969 0)
(3.04866 -0.153138 0)
(3.05122 -0.152983 0)
(3.05325 -0.152859 0)
(3.05564 -0.153023 0)
(3.05872 -0.153203 0)
(3.06107 -0.15289 0)
(3.06341 -0.151474 0)
(3.06513 -0.150132 0)
(3.06693 -0.149094 0)
(3.06702 -0.14796 0)
(3.06475 -0.147283 0)
(3.06447 -0.147721 0)
(3.06497 -0.14918 0)
(3.06564 -0.150565 0)
(3.0675 -0.151411 0)
(3.06995 -0.151917 0)
(3.07218 -0.15251 0)
(3.07397 -0.152938 0)
(3.07584 -0.152669 0)
(3.07772 -0.151954 0)
(3.07932 -0.151358 0)
(3.081 -0.150927 0)
(3.08261 -0.150559 0)
(3.08307 -0.149549 0)
(3.08099 -0.147534 0)
(3.07856 -0.145524 0)
(3.08011 -0.145346 0)
(3.08175 -0.14582 0)
(3.08325 -0.146959 0)
(3.08451 -0.147653 0)
(3.08678 -0.148534 0)
(3.08909 -0.149006 0)
(3.09147 -0.149366 0)
(3.09413 -0.149629 0)
(3.09705 -0.149989 0)
(3.09952 -0.150751 0)
(3.10124 -0.151115 0)
(3.10291 -0.151188 0)
(3.10418 -0.15083 0)
(3.10487 -0.150154 0)
(3.10557 -0.149308 0)
(3.10624 -0.148206 0)
(3.10573 -0.146353 0)
(3.10265 -0.143037 0)
(3.09861 -0.141861 0)
(2.93535 -0.163919 0)
(2.93588 -0.162748 0)
(2.93636 -0.16219 0)
(2.93764 -0.161336 0)
(2.93943 -0.160282 0)
(2.94096 -0.16066 0)
(2.94159 -0.163343 0)
(2.94239 -0.165438 0)
(2.94395 -0.165851 0)
(2.94596 -0.165435 0)
(2.94821 -0.165147 0)
(2.95037 -0.164732 0)
(2.95129 -0.163095 0)
(2.9495 -0.160373 0)
(2.94708 -0.158231 0)
(2.94878 -0.157928 0)
(2.952 -0.15826 0)
(2.95475 -0.158602 0)
(2.95711 -0.158824 0)
(2.95915 -0.158569 0)
(2.96221 -0.158361 0)
(2.9663 -0.159357 0)
(2.97136 -0.161299 0)
(2.97287 -0.162306 0)
(2.97397 -0.16288 0)
(2.97572 -0.162275 0)
(2.97644 -0.159123 0)
(2.97491 -0.154607 0)
(2.97117 -0.151255 0)
(2.96682 -0.15145 0)
(2.96356 -0.154444 0)
(2.96319 -0.157255 0)
(2.96527 -0.158387 0)
(2.96768 -0.158714 0)
(2.96974 -0.158807 0)
(2.97185 -0.158861 0)
(2.97429 -0.158914 0)
(2.97798 -0.159143 0)
(2.98278 -0.159355 0)
(2.98791 -0.15891 0)
(2.99165 -0.157982 0)
(2.99233 -0.157469 0)
(2.99222 -0.157388 0)
(2.99164 -0.156816 0)
(2.99053 -0.155552 0)
(2.98938 -0.154209 0)
(2.98831 -0.153266 0)
(2.98793 -0.153046 0)
(2.98925 -0.15392 0)
(2.99169 -0.154231 0)
(2.99395 -0.153754 0)
(2.99617 -0.153742 0)
(2.99987 -0.15405 0)
(3.00307 -0.154172 0)
(3.00576 -0.152897 0)
(3.00815 -0.150969 0)
(3.00994 -0.150693 0)
(3.01181 -0.151294 0)
(3.01359 -0.152826 0)
(3.01458 -0.153557 0)
(3.01585 -0.154898 0)
(3.01612 -0.156187 0)
(3.01395 -0.156377 0)
(3.01064 -0.155385 0)
(3.01014 -0.1541 0)
(3.01149 -0.153253 0)
(3.01268 -0.152295 0)
(3.01343 -0.151026 0)
(3.0151 -0.150079 0)
(3.01726 -0.149842 0)
(3.01941 -0.149841 0)
(3.02165 -0.149923 0)
(3.02382 -0.14995 0)
(3.02569 -0.149798 0)
(3.02736 -0.149559 0)
(3.02866 -0.149364 0)
(3.029 -0.148806 0)
(3.02805 -0.148084 0)
(3.02631 -0.14853 0)
(3.02466 -0.15 0)
(3.02398 -0.151605 0)
(3.02393 -0.153004 0)
(3.02497 -0.154087 0)
(3.02733 -0.154508 0)
(3.0297 -0.154243 0)
(3.03248 -0.153839 0)
(3.03496 -0.15292 0)
(3.03707 -0.151612 0)
(3.03905 -0.150562 0)
(3.04178 -0.149622 0)
(3.04576 -0.148156 0)
(3.0484 -0.14743 0)
(3.05099 -0.147662 0)
(3.05375 -0.147851 0)
(3.05588 -0.147849 0)
(3.05725 -0.147799 0)
(3.05538 -0.148642 0)
(3.04896 -0.148951 0)
(3.04443 -0.146967 0)
(3.04438 -0.146557 0)
(3.04603 -0.147628 0)
(3.04805 -0.147865 0)
(3.04961 -0.147225 0)
(3.05068 -0.147217 0)
(3.05369 -0.147282 0)
(3.05604 -0.147226 0)
(3.05824 -0.146282 0)
(3.06087 -0.145258 0)
(3.06352 -0.14459 0)
(3.06593 -0.144512 0)
(3.06793 -0.144662 0)
(3.06895 -0.144336 0)
(3.06658 -0.142661 0)
(3.06389 -0.143046 0)
(3.06456 -0.144957 0)
(3.06526 -0.146106 0)
(3.06634 -0.146904 0)
(3.06796 -0.147422 0)
(3.06986 -0.147581 0)
(3.07204 -0.146988 0)
(3.07451 -0.146115 0)
(3.07662 -0.1457 0)
(3.07863 -0.14547 0)
(3.08054 -0.145165 0)
(3.08208 -0.144816 0)
(3.08317 -0.144828 0)
(3.08303 -0.144577 0)
(3.08163 -0.142309 0)
(3.08148 -0.139906 0)
(3.08239 -0.139381 0)
(3.08275 -0.14033 0)
(3.08332 -0.141481 0)
(3.08513 -0.142169 0)
(3.08736 -0.14277 0)
(3.08987 -0.14335 0)
(3.09244 -0.144022 0)
(3.09484 -0.144848 0)
(3.0972 -0.145548 0)
(3.10038 -0.145877 0)
(3.10235 -0.145763 0)
(3.10357 -0.145668 0)
(3.10593 -0.145557 0)
(3.10809 -0.145055 0)
(3.10972 -0.143871 0)
(3.11018 -0.14194 0)
(3.10767 -0.13852 0)
(3.10176 -0.13706 0)
(2.93484 -0.157093 0)
(2.93515 -0.157052 0)
(2.93551 -0.156804 0)
(2.93593 -0.1563 0)
(2.9367 -0.155315 0)
(2.93775 -0.155134 0)
(2.93901 -0.157008 0)
(2.94006 -0.158727 0)
(2.94204 -0.158878 0)
(2.94488 -0.158379 0)
(2.94785 -0.158256 0)
(2.95083 -0.158614 0)
(2.95308 -0.158884 0)
(2.95292 -0.157479 0)
(2.9502 -0.154559 0)
(2.95072 -0.152498 0)
(2.95382 -0.152536 0)
(2.95632 -0.152692 0)
(2.95875 -0.15276 0)
(2.96097 -0.152587 0)
(2.96385 -0.152349 0)
(2.96814 -0.152591 0)
(2.97195 -0.15388 0)
(2.97304 -0.154317 0)
(2.97366 -0.154646 0)
(2.97546 -0.154712 0)
(2.97748 -0.153583 0)
(2.97775 -0.151436 0)
(2.97334 -0.149828 0)
(2.96516 -0.150308 0)
(2.96202 -0.151345 0)
(2.96395 -0.15135 0)
(2.9669 -0.151241 0)
(2.96957 -0.150941 0)
(2.97245 -0.15089 0)
(2.97527 -0.151356 0)
(2.97875 -0.152287 0)
(2.98171 -0.152759 0)
(2.98418 -0.152738 0)
(2.98723 -0.152507 0)
(2.99068 -0.151746 0)
(2.99214 -0.151172 0)
(2.9921 -0.151057 0)
(2.99189 -0.150878 0)
(2.99124 -0.150126 0)
(2.98905 -0.148707 0)
(2.98813 -0.147879 0)
(2.98951 -0.147951 0)
(2.99152 -0.147942 0)
(2.99433 -0.148102 0)
(2.99727 -0.148846 0)
(3.00015 -0.148514 0)
(3.00227 -0.147495 0)
(3.00369 -0.146469 0)
(3.00524 -0.145784 0)
(3.00697 -0.145346 0)
(3.00875 -0.144935 0)
(3.01037 -0.145069 0)
(3.0116 -0.146217 0)
(3.01255 -0.147615 0)
(3.01376 -0.148805 0)
(3.01468 -0.150132 0)
(3.01455 -0.15176 0)
(3.01347 -0.152987 0)
(3.013 -0.152351 0)
(3.01422 -0.150894 0)
(3.01564 -0.149001 0)
(3.01638 -0.14671 0)
(3.01731 -0.145059 0)
(3.01926 -0.144516 0)
(3.02137 -0.144407 0)
(3.02361 -0.144586 0)
(3.02592 -0.144947 0)
(3.0282 -0.145192 0)
(3.02967 -0.144361 0)
(3.03049 -0.143244 0)
(3.03028 -0.142412 0)
(3.02857 -0.142242 0)
(3.02598 -0.143217 0)
(3.02414 -0.144876 0)
(3.02369 -0.14717 0)
(3.02472 -0.149004 0)
(3.02667 -0.149218 0)
(3.02886 -0.148256 0)
(3.03215 -0.147818 0)
(3.03467 -0.147712 0)
(3.03705 -0.147309 0)
(3.0401 -0.146226 0)
(3.04239 -0.144536 0)
(3.04459 -0.143257 0)
(3.04707 -0.142581 0)
(3.05091 -0.142289 0)
(3.05356 -0.14235 0)
(3.05575 -0.142581 0)
(3.058 -0.1429 0)
(3.05898 -0.14329 0)
(3.05687 -0.144664 0)
(3.05042 -0.145317 0)
(3.0446 -0.142648 0)
(3.04322 -0.14068 0)
(3.0439 -0.140539 0)
(3.04503 -0.140594 0)
(3.04616 -0.140425 0)
(3.04875 -0.140358 0)
(3.05154 -0.140295 0)
(3.05362 -0.140055 0)
(3.05623 -0.139176 0)
(3.05967 -0.138545 0)
(3.06255 -0.138088 0)
(3.06486 -0.137969 0)
(3.06695 -0.137875 0)
(3.06845 -0.137755 0)
(3.06805 -0.137568 0)
(3.06541 -0.137656 0)
(3.06524 -0.138786 0)
(3.06617 -0.13972 0)
(3.0673 -0.140356 0)
(3.06876 -0.140991 0)
(3.07045 -0.141399 0)
(3.07296 -0.141084 0)
(3.07552 -0.140622 0)
(3.07769 -0.140375 0)
(3.07966 -0.140163 0)
(3.08137 -0.139879 0)
(3.08274 -0.139451 0)
(3.08356 -0.138551 0)
(3.0834 -0.136981 0)
(3.08176 -0.135668 0)
(3.07951 -0.135382 0)
(3.07917 -0.135311 0)
(3.08061 -0.135291 0)
(3.08268 -0.135412 0)
(3.08479 -0.135726 0)
(3.08686 -0.136369 0)
(3.08927 -0.137176 0)
(3.09158 -0.137902 0)
(3.09371 -0.138708 0)
(3.09594 -0.139358 0)
(3.10013 -0.139927 0)
(3.10319 -0.13981 0)
(3.10405 -0.139527 0)
(3.10562 -0.138701 0)
(3.10784 -0.138095 0)
(3.11026 -0.137854 0)
(3.11202 -0.137295 0)
(3.11097 -0.134643 0)
(3.10614 -0.132821 0)
(2.93752 -0.151956 0)
(2.93746 -0.151814 0)
(2.93696 -0.151197 0)
(2.93638 -0.150242 0)
(2.93689 -0.149195 0)
(2.93864 -0.148938 0)
(2.94059 -0.150471 0)
(2.94234 -0.151937 0)
(2.94431 -0.152385 0)
(2.94664 -0.152496 0)
(2.9494 -0.152638 0)
(2.95232 -0.152743 0)
(2.95452 -0.152358 0)
(2.95514 -0.151049 0)
(2.95302 -0.148761 0)
(2.9498 -0.14706 0)
(2.95132 -0.146607 0)
(2.95385 -0.146697 0)
(2.95611 -0.14676 0)
(2.95818 -0.146779 0)
(2.96041 -0.146762 0)
(2.96388 -0.146626 0)
(2.96981 -0.147162 0)
(2.97453 -0.148471 0)
(2.97534 -0.148712 0)
(2.97692 -0.149064 0)
(2.97906 -0.149334 0)
(2.97991 -0.149202 0)
(2.97506 -0.148171 0)
(2.96465 -0.146771 0)
(2.9625 -0.146039 0)
(2.96514 -0.145772 0)
(2.9678 -0.145249 0)
(2.97128 -0.144609 0)
(2.97461 -0.143903 0)
(2.97838 -0.143613 0)
(2.98176 -0.143694 0)
(2.98363 -0.144389 0)
(2.98582 -0.145158 0)
(2.98939 -0.145577 0)
(2.99317 -0.14605 0)
(2.99527 -0.146889 0)
(2.99543 -0.147141 0)
(2.99503 -0.147369 0)
(2.99344 -0.14673 0)
(2.99067 -0.144687 0)
(2.98876 -0.14235 0)
(2.9888 -0.141875 0)
(2.99027 -0.142315 0)
(2.99224 -0.142291 0)
(2.99552 -0.141214 0)
(2.9996 -0.140169 0)
(3.00284 -0.139611 0)
(3.00569 -0.139522 0)
(3.00786 -0.139451 0)
(3.00879 -0.138765 0)
(3.00858 -0.138309 0)
(3.0098 -0.138836 0)
(3.01135 -0.13931 0)
(3.01231 -0.140579 0)
(3.01283 -0.142418 0)
(3.01276 -0.144776 0)
(3.01251 -0.146597 0)
(3.013 -0.146763 0)
(3.01426 -0.145893 0)
(3.01555 -0.14403 0)
(3.01624 -0.141805 0)
(3.01618 -0.140156 0)
(3.01612 -0.13933 0)
(3.01722 -0.138772 0)
(3.01944 -0.138461 0)
(3.02226 -0.138493 0)
(3.0248 -0.138501 0)
(3.02729 -0.138278 0)
(3.02992 -0.138276 0)
(3.0316 -0.138245 0)
(3.03294 -0.137991 0)
(3.03119 -0.138016 0)
(3.02776 -0.139085 0)
(3.02535 -0.140459 0)
(3.02519 -0.141741 0)
(3.02686 -0.142372 0)
(3.02863 -0.142405 0)
(3.03026 -0.142072 0)
(3.03206 -0.140519 0)
(3.0349 -0.139304 0)
(3.03739 -0.138738 0)
(3.04015 -0.138392 0)
(3.04361 -0.137847 0)
(3.04656 -0.13614 0)
(3.04783 -0.1354 0)
(3.05029 -0.13532 0)
(3.05305 -0.135808 0)
(3.05538 -0.136625 0)
(3.05725 -0.137248 0)
(3.05792 -0.137211 0)
(3.05568 -0.13872 0)
(3.05095 -0.141153 0)
(3.0474 -0.14001 0)
(3.04627 -0.137012 0)
(3.04644 -0.135061 0)
(3.04726 -0.134623 0)
(3.04818 -0.134755 0)
(3.05011 -0.134583 0)
(3.05294 -0.13463 0)
(3.05531 -0.134743 0)
(3.05813 -0.13431 0)
(3.06074 -0.133537 0)
(3.06371 -0.133355 0)
(3.06646 -0.133385 0)
(3.06888 -0.133481 0)
(3.07077 -0.13385 0)
(3.0707 -0.134245 0)
(3.06775 -0.133748 0)
(3.06688 -0.13378 0)
(3.06783 -0.134627 0)
(3.06896 -0.135359 0)
(3.07039 -0.136091 0)
(3.072 -0.136413 0)
(3.07399 -0.136017 0)
(3.07617 -0.135492 0)
(3.07825 -0.135165 0)
(3.08023 -0.134896 0)
(3.0821 -0.134598 0)
(3.08382 -0.134345 0)
(3.08526 -0.134169 0)
(3.08581 -0.133457 0)
(3.0839 -0.131917 0)
(3.07961 -0.130175 0)
(3.07876 -0.129389 0)
(3.08039 -0.129438 0)
(3.08212 -0.129531 0)
(3.08422 -0.129763 0)
(3.08686 -0.130344 0)
(3.08954 -0.130797 0)
(3.09193 -0.131399 0)
(3.09409 -0.132137 0)
(3.09621 -0.132754 0)
(3.10038 -0.13362 0)
(3.10505 -0.134628 0)
(3.10657 -0.134791 0)
(3.10811 -0.134655 0)
(3.11026 -0.134195 0)
(3.11218 -0.133379 0)
(3.11334 -0.131778 0)
(3.11184 -0.128711 0)
(3.1069 -0.127093 0)
(2.93932 -0.146433 0)
(2.93918 -0.146445 0)
(2.93864 -0.146251 0)
(2.93803 -0.145709 0)
(2.93826 -0.145258 0)
(2.94006 -0.144928 0)
(2.94229 -0.14496 0)
(2.9425 -0.144672 0)
(2.94483 -0.144665 0)
(2.94808 -0.144942 0)
(2.95123 -0.145859 0)
(2.95405 -0.146699 0)
(2.95694 -0.146989 0)
(2.9589 -0.146582 0)
(2.9576 -0.144539 0)
(2.95256 -0.141186 0)
(2.95208 -0.13926 0)
(2.95464 -0.139066 0)
(2.9567 -0.139023 0)
(2.95852 -0.138804 0)
(2.96033 -0.13867 0)
(2.96337 -0.139132 0)
(2.9684 -0.141027 0)
(2.97286 -0.142484 0)
(2.97376 -0.14278 0)
(2.97569 -0.144032 0)
(2.97825 -0.146058 0)
(2.98015 -0.147941 0)
(2.97784 -0.147952 0)
(2.96834 -0.143778 0)
(2.96155 -0.140033 0)
(2.96277 -0.138809 0)
(2.96522 -0.138255 0)
(2.96804 -0.137963 0)
(2.97143 -0.137395 0)
(2.97501 -0.136495 0)
(2.97833 -0.135683 0)
(2.98214 -0.136016 0)
(2.98586 -0.136877 0)
(2.98966 -0.137558 0)
(2.9934 -0.138964 0)
(2.99595 -0.140705 0)
(2.9964 -0.141374 0)
(2.99616 -0.141946 0)
(2.99497 -0.142727 0)
(2.9927 -0.141419 0)
(2.991 -0.138391 0)
(2.99034 -0.136189 0)
(2.99136 -0.135967 0)
(2.9952 -0.136722 0)
(2.99808 -0.136608 0)
(3.00124 -0.135167 0)
(3.00426 -0.134048 0)
(3.00734 -0.133602 0)
(3.0097 -0.133543 0)
(3.01125 -0.133341 0)
(3.01183 -0.132927 0)
(3.01115 -0.132427 0)
(3.00989 -0.134168 0)
(3.00977 -0.137203 0)
(3.00967 -0.139124 0)
(3.00993 -0.140285 0)
(3.01143 -0.140936 0)
(3.01419 -0.141049 0)
(3.0165 -0.140548 0)
(3.01839 -0.139984 0)
(3.01964 -0.138566 0)
(3.01944 -0.136013 0)
(3.01824 -0.133266 0)
(3.01884 -0.131742 0)
(3.02108 -0.131219 0)
(3.02353 -0.131219 0)
(3.02558 -0.131329 0)
(3.0278 -0.131897 0)
(3.02975 -0.132583 0)
(3.03167 -0.133612 0)
(3.03178 -0.133966 0)
(3.02867 -0.133907 0)
(3.02564 -0.134828 0)
(3.02565 -0.136444 0)
(3.02702 -0.136757 0)
(3.02889 -0.136265 0)
(3.03071 -0.135807 0)
(3.03267 -0.135678 0)
(3.03491 -0.135167 0)
(3.03802 -0.134814 0)
(3.04064 -0.13432 0)
(3.04264 -0.133565 0)
(3.04517 -0.131966 0)
(3.04696 -0.130166 0)
(3.04973 -0.129246 0)
(3.05279 -0.128614 0)
(3.055 -0.128681 0)
(3.05669 -0.129329 0)
(3.05806 -0.130175 0)
(3.05762 -0.131047 0)
(3.05401 -0.133956 0)
(3.05029 -0.137144 0)
(3.04955 -0.137202 0)
(3.04994 -0.135224 0)
(3.05044 -0.132372 0)
(3.05077 -0.130162 0)
(3.05105 -0.128978 0)
(3.05248 -0.128202 0)
(3.0545 -0.127672 0)
(3.05622 -0.127376 0)
(3.05818 -0.127499 0)
(3.06067 -0.127868 0)
(3.06327 -0.128033 0)
(3.06552 -0.128247 0)
(3.06757 -0.128518 0)
(3.06943 -0.128803 0)
(3.07045 -0.128942 0)
(3.0692 -0.128825 0)
(3.06662 -0.129024 0)
(3.0667 -0.129759 0)
(3.06762 -0.130301 0)
(3.06872 -0.130657 0)
(3.07029 -0.13065 0)
(3.0722 -0.130208 0)
(3.07416 -0.12976 0)
(3.07612 -0.129574 0)
(3.07822 -0.129427 0)
(3.08036 -0.129114 0)
(3.08228 -0.128586 0)
(3.0839 -0.128014 0)
(3.08544 -0.127692 0)
(3.08569 -0.127489 0)
(3.08225 -0.126167 0)
(3.08032 -0.124347 0)
(3.08126 -0.124 0)
(3.08266 -0.124191 0)
(3.08513 -0.124742 0)
(3.08804 -0.125045 0)
(3.09068 -0.125495 0)
(3.09314 -0.126067 0)
(3.09532 -0.126655 0)
(3.09744 -0.127112 0)
(3.10124 -0.127752 0)
(3.10586 -0.12842 0)
(3.10809 -0.128519 0)
(3.10941 -0.128402 0)
(3.11166 -0.128501 0)
(3.11379 -0.12873 0)
(3.11536 -0.12813 0)
(3.11449 -0.125486 0)
(3.10991 -0.123636 0)
(2.93823 -0.14053 0)
(2.93812 -0.140539 0)
(2.93756 -0.14038 0)
(2.93674 -0.140199 0)
(2.9364 -0.140433 0)
(2.93713 -0.139605 0)
(2.9383 -0.138164 0)
(2.93949 -0.13771 0)
(2.94198 -0.137528 0)
(2.94702 -0.137701 0)
(2.95092 -0.13838 0)
(2.95436 -0.139573 0)
(2.95716 -0.140634 0)
(2.95969 -0.141079 0)
(2.96058 -0.141272 0)
(2.95732 -0.138742 0)
(2.95506 -0.134654 0)
(2.95695 -0.133451 0)
(2.95902 -0.13331 0)
(2.96104 -0.132915 0)
(2.96288 -0.13261 0)
(2.96594 -0.132823 0)
(2.97054 -0.1337 0)
(2.97412 -0.134498 0)
(2.97497 -0.134775 0)
(2.97685 -0.136542 0)
(2.97885 -0.139935 0)
(2.98002 -0.143032 0)
(2.97934 -0.144193 0)
(2.97384 -0.141431 0)
(2.96556 -0.135461 0)
(2.96369 -0.131955 0)
(2.96577 -0.130914 0)
(2.96828 -0.130214 0)
(2.97152 -0.129483 0)
(2.97521 -0.128726 0)
(2.97931 -0.128487 0)
(2.98418 -0.129476 0)
(2.98819 -0.130745 0)
(2.99208 -0.13136 0)
(2.99587 -0.13265 0)
(2.99799 -0.135137 0)
(2.99821 -0.136315 0)
(2.99774 -0.136857 0)
(2.99625 -0.137312 0)
(2.99433 -0.136792 0)
(2.9929 -0.135908 0)
(2.99324 -0.134567 0)
(2.99492 -0.131884 0)
(2.99651 -0.129309 0)
(2.99833 -0.12831 0)
(3.00083 -0.127963 0)
(3.00336 -0.127519 0)
(3.00575 -0.127377 0)
(3.00799 -0.127502 0)
(3.00968 -0.127641 0)
(3.01054 -0.127637 0)
(3.0098 -0.127986 0)
(3.00829 -0.129154 0)
(3.0087 -0.130814 0)
(3.00931 -0.13264 0)
(3.00992 -0.133947 0)
(3.01187 -0.134319 0)
(3.01403 -0.133626 0)
(3.01616 -0.133487 0)
(3.01858 -0.134145 0)
(3.02083 -0.134776 0)
(3.02183 -0.134193 0)
(3.02169 -0.131501 0)
(3.02257 -0.128232 0)
(3.02379 -0.126068 0)
(3.0254 -0.125333 0)
(3.02806 -0.12563 0)
(3.03039 -0.126403 0)
(3.03211 -0.127406 0)
(3.03282 -0.12815 0)
(3.03095 -0.128852 0)
(3.02673 -0.129522 0)
(3.02365 -0.129863 0)
(3.02379 -0.130314 0)
(3.02566 -0.130524 0)
(3.02762 -0.130561 0)
(3.02992 -0.130366 0)
(3.03234 -0.129185 0)
(3.03541 -0.128162 0)
(3.03797 -0.128083 0)
(3.04054 -0.127949 0)
(3.04514 -0.127309 0)
(3.04813 -0.126246 0)
(3.04947 -0.125805 0)
(3.05201 -0.124376 0)
(3.05422 -0.123054 0)
(3.05618 -0.122423 0)
(3.05748 -0.122591 0)
(3.05698 -0.123732 0)
(3.05368 -0.127438 0)
(3.0503 -0.130889 0)
(3.04967 -0.132079 0)
(3.05087 -0.131496 0)
(3.0521 -0.129749 0)
(3.05267 -0.127203 0)
(3.05294 -0.124702 0)
(3.05339 -0.122547 0)
(3.05366 -0.120896 0)
(3.05486 -0.120739 0)
(3.05783 -0.121438 0)
(3.06056 -0.122195 0)
(3.06269 -0.122497 0)
(3.06428 -0.122095 0)
(3.0663 -0.122106 0)
(3.06837 -0.12258 0)
(3.07026 -0.123357 0)
(3.07157 -0.124303 0)
(3.07123 -0.124729 0)
(3.06851 -0.123965 0)
(3.0683 -0.123368 0)
(3.06954 -0.123272 0)
(3.07074 -0.123343 0)
(3.07225 -0.123521 0)
(3.07382 -0.123378 0)
(3.07512 -0.123499 0)
(3.07641 -0.123949 0)
(3.07798 -0.123963 0)
(3.08009 -0.123271 0)
(3.08226 -0.122621 0)
(3.08426 -0.122553 0)
(3.08635 -0.122917 0)
(3.08764 -0.12287 0)
(3.0852 -0.121052 0)
(3.08008 -0.119176 0)
(3.07881 -0.1188 0)
(3.08012 -0.11918 0)
(3.08231 -0.119728 0)
(3.08503 -0.120084 0)
(3.08764 -0.120459 0)
(3.09006 -0.120873 0)
(3.09235 -0.121248 0)
(3.09462 -0.121523 0)
(3.09846 -0.121917 0)
(3.10356 -0.122666 0)
(3.10691 -0.123065 0)
(3.10817 -0.123046 0)
(3.11062 -0.123415 0)
(3.11312 -0.123884 0)
(3.11507 -0.12392 0)
(3.11551 -0.123361 0)
(3.11345 -0.121156 0)
(2.94085 -0.133913 0)
(2.94073 -0.134052 0)
(2.93991 -0.134127 0)
(2.93851 -0.134163 0)
(2.93716 -0.134045 0)
(2.93676 -0.132982 0)
(2.93776 -0.132145 0)
(2.94021 -0.132141 0)
(2.94392 -0.132025 0)
(2.94872 -0.132197 0)
(2.9531 -0.132885 0)
(2.95674 -0.133743 0)
(2.95971 -0.134192 0)
(2.96087 -0.133825 0)
(2.96114 -0.13302 0)
(2.96023 -0.131419 0)
(2.95662 -0.128546 0)
(2.9556 -0.126973 0)
(2.95788 -0.126706 0)
(2.95984 -0.126472 0)
(2.96175 -0.126216 0)
(2.96443 -0.126292 0)
(2.96868 -0.127126 0)
(2.9716 -0.128461 0)
(2.97245 -0.128934 0)
(2.97446 -0.130888 0)
(2.97651 -0.134151 0)
(2.97769 -0.13704 0)
(2.97789 -0.138528 0)
(2.97633 -0.138266 0)
(2.97175 -0.134673 0)
(2.96762 -0.128898 0)
(2.96876 -0.125555 0)
(2.97174 -0.12436 0)
(2.97453 -0.123234 0)
(2.97742 -0.121663 0)
(2.98062 -0.121288 0)
(2.98366 -0.122451 0)
(2.98659 -0.124411 0)
(2.98961 -0.125368 0)
(2.99362 -0.12551 0)
(2.99639 -0.127511 0)
(2.99638 -0.130561 0)
(2.99581 -0.13143 0)
(2.99419 -0.132281 0)
(2.99267 -0.13132 0)
(2.99266 -0.128932 0)
(2.99398 -0.12711 0)
(2.99624 -0.125896 0)
(2.99908 -0.12455 0)
(3.00187 -0.123016 0)
(3.00378 -0.121566 0)
(3.00513 -0.120606 0)
(3.0068 -0.120499 0)
(3.00892 -0.120899 0)
(3.01077 -0.121103 0)
(3.01172 -0.121148 0)
(3.0108 -0.121627 0)
(3.00793 -0.123714 0)
(3.00754 -0.125123 0)
(3.00825 -0.126435 0)
(3.00876 -0.127791 0)
(3.01101 -0.128387 0)
(3.01493 -0.128656 0)
(3.01826 -0.129169 0)
(3.02037 -0.129068 0)
(3.02144 -0.127904 0)
(3.02261 -0.125958 0)
(3.02323 -0.12358 0)
(3.02331 -0.121433 0)
(3.02364 -0.12038 0)
(3.02487 -0.119931 0)
(3.02675 -0.120165 0)
(3.0287 -0.120844 0)
(3.0302 -0.121434 0)
(3.03043 -0.122049 0)
(3.02857 -0.123555 0)
(3.02599 -0.125294 0)
(3.02384 -0.125037 0)
(3.02403 -0.124412 0)
(3.02683 -0.124765 0)
(3.02912 -0.12503 0)
(3.03123 -0.12501 0)
(3.03329 -0.123842 0)
(3.03626 -0.122166 0)
(3.03905 -0.121395 0)
(3.04118 -0.120587 0)
(3.04451 -0.119974 0)
(3.04896 -0.119201 0)
(3.05129 -0.11803 0)
(3.05334 -0.117038 0)
(3.05529 -0.116266 0)
(3.05712 -0.115756 0)
(3.05787 -0.115982 0)
(3.05371 -0.11925 0)
(3.04841 -0.123862 0)
(3.0486 -0.125907 0)
(3.05056 -0.126744 0)
(3.05256 -0.126594 0)
(3.05447 -0.126037 0)
(3.05576 -0.124328 0)
(3.05605 -0.121898 0)
(3.05645 -0.119487 0)
(3.05708 -0.117267 0)
(3.05731 -0.115661 0)
(3.05706 -0.115358 0)
(3.05966 -0.115906 0)
(3.0627 -0.116148 0)
(3.06517 -0.116755 0)
(3.06728 -0.117301 0)
(3.06974 -0.117629 0)
(3.07188 -0.118245 0)
(3.07341 -0.119427 0)
(3.07303 -0.120785 0)
(3.07048 -0.120415 0)
(3.07055 -0.118973 0)
(3.07196 -0.118749 0)
(3.07324 -0.118682 0)
(3.07457 -0.118663 0)
(3.0762 -0.118466 0)
(3.07799 -0.118349 0)
(3.07867 -0.118448 0)
(3.08006 -0.118418 0)
(3.08149 -0.118061 0)
(3.08299 -0.117542 0)
(3.08506 -0.117404 0)
(3.08735 -0.117599 0)
(3.08903 -0.11741 0)
(3.08772 -0.116134 0)
(3.08203 -0.113411 0)
(3.07931 -0.111873 0)
(3.08061 -0.111979 0)
(3.08262 -0.112455 0)
(3.08507 -0.112756 0)
(3.08748 -0.113049 0)
(3.08983 -0.113416 0)
(3.0922 -0.113855 0)
(3.09454 -0.114309 0)
(3.09831 -0.114982 0)
(3.10376 -0.116178 0)
(3.10813 -0.117049 0)
(3.10949 -0.117176 0)
(3.11199 -0.117819 0)
(3.11435 -0.118395 0)
(3.11584 -0.118695 0)
(3.11615 -0.118546 0)
(3.11608 -0.116642 0)
(2.94302 -0.128689 0)
(2.94302 -0.128869 0)
(2.94259 -0.128963 0)
(2.94163 -0.128981 0)
(2.94052 -0.129367 0)
(2.94014 -0.12886 0)
(2.94083 -0.127193 0)
(2.94242 -0.125782 0)
(2.94468 -0.125691 0)
(2.9474 -0.126609 0)
(2.95073 -0.127166 0)
(2.95405 -0.127212 0)
(2.95666 -0.126774 0)
(2.95948 -0.12623 0)
(2.96177 -0.126186 0)
(2.96345 -0.125938 0)
(2.96132 -0.124324 0)
(2.95784 -0.12139 0)
(2.95936 -0.12042 0)
(2.96119 -0.12022 0)
(2.96285 -0.119825 0)
(2.9648 -0.119733 0)
(2.9685 -0.12044 0)
(2.97181 -0.121083 0)
(2.97293 -0.121308 0)
(2.97526 -0.122826 0)
(2.97719 -0.125573 0)
(2.97799 -0.128213 0)
(2.97817 -0.129929 0)
(2.97768 -0.130867 0)
(2.97559 -0.130605 0)
(2.97218 -0.127513 0)
(2.97198 -0.12228 0)
(2.97465 -0.118592 0)
(2.97669 -0.116394 0)
(2.97947 -0.115355 0)
(2.98309 -0.114883 0)
(2.98667 -0.115598 0)
(2.9889 -0.116291 0)
(2.9898 -0.117598 0)
(2.99112 -0.119313 0)
(2.99344 -0.120868 0)
(2.99494 -0.123413 0)
(2.99488 -0.125475 0)
(2.99434 -0.126487 0)
(2.99383 -0.1276 0)
(2.99538 -0.12593 0)
(2.99722 -0.122762 0)
(2.99831 -0.119703 0)
(2.99882 -0.116805 0)
(2.99975 -0.114745 0)
(3.00241 -0.114247 0)
(3.0058 -0.114696 0)
(3.00875 -0.115031 0)
(3.01065 -0.114875 0)
(3.01123 -0.11468 0)
(3.01012 -0.115736 0)
(3.00763 -0.117629 0)
(3.0068 -0.118688 0)
(3.00805 -0.119094 0)
(3.00901 -0.119955 0)
(3.00949 -0.12167 0)
(3.01112 -0.122302 0)
(3.01402 -0.121708 0)
(3.01714 -0.121657 0)
(3.02051 -0.122247 0)
(3.02353 -0.122222 0)
(3.02603 -0.121378 0)
(3.02766 -0.120174 0)
(3.0276 -0.117844 0)
(3.02645 -0.115214 0)
(3.02611 -0.113697 0)
(3.02705 -0.11369 0)
(3.02814 -0.114667 0)
(3.02873 -0.116093 0)
(3.02811 -0.117322 0)
(3.02572 -0.119212 0)
(3.02425 -0.120939 0)
(3.02431 -0.121465 0)
(3.02464 -0.120489 0)
(3.02695 -0.119562 0)
(3.03011 -0.119482 0)
(3.03251 -0.11923 0)
(3.03482 -0.118201 0)
(3.03784 -0.117293 0)
(3.04077 -0.116464 0)
(3.04339 -0.115429 0)
(3.04692 -0.113961 0)
(3.04981 -0.111196 0)
(3.05105 -0.109868 0)
(3.05326 -0.108823 0)
(3.05583 -0.108572 0)
(3.05762 -0.10901 0)
(3.05634 -0.109862 0)
(3.05026 -0.11407 0)
(3.04676 -0.119177 0)
(3.04697 -0.120679 0)
(3.04958 -0.121206 0)
(3.05181 -0.121291 0)
(3.05374 -0.120504 0)
(3.05633 -0.117981 0)
(3.05736 -0.116426 0)
(3.05861 -0.114326 0)
(3.05946 -0.112062 0)
(3.05974 -0.11095 0)
(3.05968 -0.110296 0)
(3.06029 -0.109286 0)
(3.06175 -0.10917 0)
(3.06404 -0.1103 0)
(3.06621 -0.111579 0)
(3.06814 -0.112419 0)
(3.07011 -0.113183 0)
(3.07171 -0.114029 0)
(3.0724 -0.114545 0)
(3.07182 -0.114263 0)
(3.0702 -0.114021 0)
(3.0705 -0.113921 0)
(3.07176 -0.11374 0)
(3.07321 -0.113529 0)
(3.07474 -0.112756 0)
(3.07563 -0.111284 0)
(3.07668 -0.110635 0)
(3.07843 -0.110657 0)
(3.08032 -0.110773 0)
(3.08196 -0.110997 0)
(3.08366 -0.111681 0)
(3.08555 -0.112663 0)
(3.0872 -0.1131 0)
(3.08723 -0.112476 0)
(3.08434 -0.110441 0)
(3.082 -0.10775 0)
(3.08275 -0.106935 0)
(3.08495 -0.107356 0)
(3.08718 -0.107624 0)
(3.08944 -0.107864 0)
(3.09175 -0.108196 0)
(3.09415 -0.108662 0)
(3.09653 -0.109166 0)
(3.09983 -0.109743 0)
(3.10495 -0.110979 0)
(3.10965 -0.112239 0)
(3.11109 -0.112435 0)
(3.11348 -0.113096 0)
(3.11559 -0.11346 0)
(3.11705 -0.113861 0)
(3.11751 -0.115019 0)
(3.11817 -0.114273 0)
(2.94122 -0.122398 0)
(2.94056 -0.123425 0)
(2.94016 -0.123181 0)
(2.93953 -0.122112 0)
(2.93964 -0.121377 0)
(2.94092 -0.121539 0)
(2.94319 -0.121455 0)
(2.94592 -0.120698 0)
(2.94831 -0.119666 0)
(2.94992 -0.118872 0)
(2.95158 -0.118618 0)
(2.95338 -0.119051 0)
(2.95509 -0.119792 0)
(2.95735 -0.12035 0)
(2.95976 -0.120347 0)
(2.96143 -0.120253 0)
(2.96192 -0.119614 0)
(2.96036 -0.117264 0)
(2.96092 -0.115343 0)
(2.96273 -0.114979 0)
(2.96407 -0.114508 0)
(2.96609 -0.113986 0)
(2.96882 -0.114169 0)
(2.96979 -0.114659 0)
(2.97078 -0.115075 0)
(2.97286 -0.116911 0)
(2.9744 -0.11945 0)
(2.97503 -0.121224 0)
(2.97537 -0.121999 0)
(2.97629 -0.1223 0)
(2.97723 -0.122383 0)
(2.97763 -0.120627 0)
(2.97703 -0.116216 0)
(2.97537 -0.111606 0)
(2.97584 -0.10993 0)
(2.97797 -0.109596 0)
(2.97994 -0.109418 0)
(2.98307 -0.109363 0)
(2.98603 -0.109536 0)
(2.98878 -0.11045 0)
(2.99122 -0.111786 0)
(2.99368 -0.112633 0)
(2.99557 -0.114172 0)
(2.99621 -0.118047 0)
(2.99659 -0.120148 0)
(2.99688 -0.120469 0)
(2.99864 -0.119547 0)
(3.00073 -0.117266 0)
(3.00193 -0.115054 0)
(3.00221 -0.112975 0)
(3.0025 -0.110933 0)
(3.00434 -0.109482 0)
(3.00719 -0.108948 0)
(3.00976 -0.108915 0)
(3.01137 -0.109024 0)
(3.0111 -0.10949 0)
(3.00842 -0.110597 0)
(3.00718 -0.112488 0)
(3.00798 -0.113541 0)
(3.00916 -0.113992 0)
(3.01094 -0.1149 0)
(3.01213 -0.116234 0)
(3.01386 -0.116881 0)
(3.01627 -0.11604 0)
(3.01893 -0.114586 0)
(3.02151 -0.114213 0)
(3.02426 -0.114518 0)
(3.02672 -0.11485 0)
(3.02875 -0.114436 0)
(3.02978 -0.113738 0)
(3.02949 -0.112051 0)
(3.02902 -0.110021 0)
(3.02927 -0.109101 0)
(3.02988 -0.109158 0)
(3.02941 -0.109994 0)
(3.02649 -0.112553 0)
(3.02348 -0.114741 0)
(3.02293 -0.115456 0)
(3.02362 -0.115734 0)
(3.02507 -0.115621 0)
(3.02814 -0.115044 0)
(3.03006 -0.113837 0)
(3.03128 -0.112255 0)
(3.03434 -0.110066 0)
(3.03786 -0.10947 0)
(3.04039 -0.109066 0)
(3.04445 -0.108559 0)
(3.04902 -0.106329 0)
(3.051 -0.105287 0)
(3.05334 -0.104755 0)
(3.05622 -0.104346 0)
(3.05842 -0.10424 0)
(3.05837 -0.104894 0)
(3.05375 -0.106897 0)
(3.04647 -0.110465 0)
(3.04556 -0.113817 0)
(3.04849 -0.114376 0)
(3.05036 -0.114699 0)
(3.05221 -0.11505 0)
(3.05465 -0.114839 0)
(3.05798 -0.112967 0)
(3.05958 -0.111137 0)
(3.06044 -0.109752 0)
(3.06115 -0.106915 0)
(3.06113 -0.104761 0)
(3.0613 -0.104272 0)
(3.06216 -0.104018 0)
(3.06357 -0.104002 0)
(3.0656 -0.104534 0)
(3.06746 -0.105128 0)
(3.06884 -0.105907 0)
(3.07005 -0.107343 0)
(3.07138 -0.10881 0)
(3.07293 -0.109518 0)
(3.07409 -0.1096 0)
(3.07353 -0.109243 0)
(3.0724 -0.108061 0)
(3.07328 -0.107523 0)
(3.07459 -0.107228 0)
(3.07604 -0.106702 0)
(3.07768 -0.106253 0)
(3.07854 -0.106127 0)
(3.08009 -0.10615 0)
(3.08221 -0.105794 0)
(3.08403 -0.105014 0)
(3.08529 -0.104962 0)
(3.0861 -0.106156 0)
(3.08635 -0.107403 0)
(3.08643 -0.106976 0)
(3.08588 -0.104978 0)
(3.0837 -0.102509 0)
(3.08193 -0.101676 0)
(3.0833 -0.101868 0)
(3.08537 -0.10223 0)
(3.08743 -0.102508 0)
(3.08963 -0.102882 0)
(3.09195 -0.103471 0)
(3.0943 -0.10414 0)
(3.0972 -0.104708 0)
(3.10206 -0.105698 0)
(3.10697 -0.10689 0)
(3.10855 -0.10699 0)
(3.11123 -0.107399 0)
(3.11336 -0.107845 0)
(3.11484 -0.108818 0)
(3.11571 -0.109751 0)
(3.11766 -0.108653 0)
(2.94155 -0.115154 0)
(2.94169 -0.117056 0)
(2.94125 -0.117572 0)
(2.94131 -0.117885 0)
(2.94272 -0.11747 0)
(2.94444 -0.116582 0)
(2.94591 -0.11583 0)
(2.94786 -0.115352 0)
(2.95055 -0.114591 0)
(2.95279 -0.113375 0)
(2.95474 -0.112566 0)
(2.95646 -0.112182 0)
(2.95783 -0.112412 0)
(2.95832 -0.11286 0)
(2.95904 -0.113019 0)
(2.96063 -0.113597 0)
(2.96218 -0.113903 0)
(2.96262 -0.112742 0)
(2.96124 -0.109766 0)
(2.96174 -0.108183 0)
(2.96303 -0.10797 0)
(2.96409 -0.107853 0)
(2.96589 -0.108222 0)