/*--------------------------------*- C++ -*----------------------------------*\
  =========                 |
  \\      /  F ield         | OpenFOAM: The Open Source CFD Toolbox
   \\    /   O peration     | Website:  https://openfoam.org
    \\  /    A nd           | Version:  7
     \\/     M anipulation  |
\*---------------------------------------------------------------------------*/
FoamFile
{
    version     2.0;
    format      ascii;
    class       surfaceScalarField;
    location    "2";
    object      phi;
}
// * * * * * * * * * * * * * * * * * * * * * * * * * * * * * * * * * * * * * //

dimensions      [0 3 -1 0 0 0 0];

internalField   nonuniform List<scalar> 
612
(
0.000356718
-7.2638e-05
0.000362135
-0.000109183
0.000373552
-9.51104e-05
0.000372706
-0.000136583
0.000405615
-0.000132069
0.000401176
-0.000185462
0.000438358
-0.000172261
0.00043644
-0.000264146
0.000508492
-0.000251293
0.000496981
-0.000399325
0.000610203
-0.000361216
-0.000725333
0.000819531
0.000359116
2.64699e-06
0.000356656
-3.72491e-06
0.000359831
4.30425e-06
0.000356124
-5.55766e-06
0.000359967
5.64793e-06
0.000356319
-6.15802e-06
0.000359613
5.61072e-06
0.000356565
-5.63157e-06
0.000359744
4.98835e-06
0.000356506
-4.9831e-06
0.000359787
4.06954e-06
0.000356663
-4.25655e-06
0.000359883
3.55824e-06
0.000356315
-4.66524e-06
0.000360436
4.19575e-06
0.000356178
-5.20751e-06
0.000360156
3.69462e-06
0.000356637
-4.44883e-06
0.000360266
3.05371e-06
0.000356774
-4.65644e-06
0.000360145
2.97807e-06
0.000358183
-4.41157e-06
0.000359347
1.66011e-06
0.000358882
-3.74167e-06
0.000359661
-9.09117e-08
0.000359227
-2.38083e-06
0.000359886
-2.81254e-06
0.000358575
-2.27054e-06
0.000362056
-2.8922e-06
0.000357261
-4.75248e-06
0.000362213
-2.9326e-06
0.000357935
-6.66593e-06
0.0003623
-2.79111e-06
0.000357495
-8.95279e-06
0.000362907
-4.33395e-06
0.000357974
-9.76371e-06
0.000363155
-6.42127e-06
0.000358929
-1.24277e-05
0.000363467
-8.7826e-06
0.000359041
-1.57549e-05
0.000366099
-1.09213e-05
0.000358592
-2.09664e-05
0.000367394
-1.49572e-05
0.000359211
-2.57159e-05
0.000370387
-2.05649e-05
0.000361584
-3.14597e-05
0.000370181
-2.92294e-05
0.000367949
-3.77313e-05
0.00037201
-4.00515e-05
0.000375754
-4.62163e-05
0.000374921
-5.3848e-05
0.000381409
-5.84447e-05
0.000385951
-6.84347e-05
0.000386698
-7.68544e-05
0.00040086
-8.68005e-05
0.000393776
-0.000102099
0.000409565
-0.000110899
0.000408116
-0.000135134
0.000420584
-0.000144537
0.00041661
-0.000181488
0.000436374
-0.000192026
0.000427771
-0.000255543
0.000441591
-0.000265113
0.000424243
-0.000381976
0.000504156
-0.000441129
0.000439069
-0.000660245
0.00097054
-0.000626409
0.000808393
-0.000197563
0.000741906
-0.00013861
2.01353e-06
-0.00018734
-0.000384903
-0.000523513
0.000129067
2.21699e-06
0.000128535
-3.19312e-06
0.000129273
3.56611e-06
0.000128381
-4.66565e-06
0.00012938
4.6491e-06
0.000128393
-5.17145e-06
0.000129376
4.62783e-06
0.000128462
-4.71711e-06
0.00012943
4.01972e-06
0.000128526
-4.07858e-06
0.000129407
3.18813e-06
0.00012865
-3.49964e-06
0.000129421
2.78797e-06
0.000128604
-3.84904e-06
0.000129575
3.2249e-06
0.000128602
-4.23468e-06
0.000129523
2.77435e-06
0.000128713
-3.63863e-06
0.000129607
2.15918e-06
0.000128642
-3.69088e-06
0.000129733
1.88616e-06
0.000128758
-3.43577e-06
0.000129728
6.90196e-07
0.000128867
-2.88138e-06
0.000129703
-9.26188e-07
0.000129215
-1.89335e-06
0.000129498
-3.09502e-06
0.000129372
-2.14537e-06
0.000129659
-3.17841e-06
0.000129305
-4.39858e-06
0.000129701
-3.32887e-06
0.000129213
-6.17804e-06
0.000130007
-3.58549e-06
0.000129142
-8.08745e-06
0.000130087
-5.27884e-06
0.000129367
-9.04396e-06
0.00013036
-7.41396e-06
0.000129497
-1.1565e-05
0.000130609
-9.89449e-06
0.000129692
-1.48381e-05
0.000131127
-1.23565e-05
0.000129951
-1.97898e-05
0.00013149
-1.64969e-05
0.000130368
-2.45935e-05
0.000132087
-2.22841e-05
0.000130998
-3.03705e-05
0.00013272
-3.09518e-05
0.000131807
-3.68179e-05
0.000133444
-4.16881e-05
0.000133132
-4.59047e-05
0.000134076
-5.47924e-05
0.000134694
-5.90627e-05
0.000135154
-6.88944e-05
0.000136083
-7.77833e-05
0.000136871
-8.75889e-05
0.000136916
-0.000102143
0.000139416
-0.0001134
0.000137242
-0.00013296
0.000142022
-0.000149318
0.00013773
-0.000177195
0.000143367
-0.000197663
0.000135333
-0.000247509
0.000140806
-0.000270586
0.000126392
-0.000367562
9.39353e-05
-0.000408673
-0.00056631
0.000131726
1.81182e-06
0.000131241
-2.7086e-06
0.000131876
2.93124e-06
0.00013112
-3.90958e-06
0.00013197
3.79859e-06
0.000131104
-4.30476e-06
0.000131991
3.74019e-06
0.000131146
-3.87173e-06
0.000132026
3.13973e-06
0.000131211
-3.26346e-06
0.000131993
2.40564e-06
0.000131314
-2.82049e-06
0.000131993
2.10957e-06
0.000131293
-3.14936e-06
0.000132088
2.42992e-06
0.0001313
-3.44703e-06
0.000132051
2.02313e-06
0.000131387
-2.97427e-06
0.000132106
1.44068e-06
0.000131373
-2.95839e-06
0.000132178
1.08163e-06
0.000131511
-2.76896e-06
0.000132146
5.51947e-08
0.000131637
-2.37307e-06
0.000132099
-1.38814e-06
0.000131893
-1.68711e-06
0.000131984
-3.1857e-06
0.00013195
-2.11112e-06
0.000132156
-3.38499e-06
0.000131839
-4.0817e-06
0.000132214
-3.70374e-06
0.000131738
-5.70186e-06
0.000132426
-4.27385e-06
0.000131664
-7.32461e-06
0.000132491
-6.10639e-06
0.000131799
-8.35172e-06
0.000132677
-8.29183e-06
0.0001319
-1.07879e-05
0.000132844
-1.08389e-05
0.000132018
-1.40116e-05
0.000133232
-1.35709e-05
0.000132111
-1.86686e-05
0.000133549
-1.79348e-05
0.00013233
-2.33752e-05
0.000134006
-2.39597e-05
0.000132844
-2.92085e-05
0.000134187
-3.22948e-05
0.000133814
-3.64449e-05
0.000134555
-4.24294e-05
0.00013494
-4.62894e-05
0.000135162
-5.50143e-05
0.000135934
-5.98344e-05
0.000136773
-6.9734e-05
0.000137039
-7.80492e-05
0.000138682
-8.92318e-05
0.000138587
-0.000102049
0.000140365
-0.000115178
0.000140566
-0.000133161
0.000142198
-0.00015095
0.000140612
-0.000175609
0.000143222
-0.000200272
0.000136081
-0.000240368
0.000136254
-0.000270759
0.000115491
-0.000346798
0.000107492
-0.000400674
-0.000458819
0.000134316
1.44916e-06
0.000133883
-2.2756e-06
0.000134434
2.38072e-06
0.000133772
-3.24795e-06
0.00013452
3.05041e-06
0.000133739
-3.52343e-06
0.000134545
2.93401e-06
0.000133771
-3.09803e-06
0.000134556
2.3552e-06
0.000133837
-2.54508e-06
0.000134514
1.72917e-06
0.000133921
-2.2275e-06
0.000134508
1.5225e-06
0.000133898
-2.53967e-06
0.000134577
1.75146e-06
0.000133899
-2.76884e-06
0.000134547
1.37475e-06
0.000133966
-2.39304e-06
0.00013458
8.26237e-07
0.000133959
-2.33735e-06
0.00013464
4.00667e-07
0.000134037
-2.16563e-06
0.000134636
-5.44407e-07
0.000134151
-1.88759e-06
0.000134557
-1.7942e-06
0.000134395
-1.52498e-06
0.000134408
-3.19936e-06
0.000134483
-2.18535e-06
0.000134478
-3.38054e-06
0.000134407
-4.01096e-06
0.00013451
-3.80658e-06
0.000134287
-5.47884e-06
0.000134668
-4.6545e-06
0.000134213
-6.86962e-06
0.000134687
-6.58043e-06
0.000134308
-7.97315e-06
0.000134819
-8.80232e-06
0.000134363
-1.03325e-05
0.000134935
-1.14103e-05
0.000134449
-1.35258e-05
0.000135229
-1.43505e-05
0.000134517
-1.79566e-05
0.000135471
-1.88887e-05
0.000134736
-2.26409e-05
0.000135797
-2.502e-05
0.000135177
-2.85889e-05
0.000136147
-3.32645e-05
0.000135769
-3.6067e-05
0.000136656
-4.33166e-05
0.000136773
-4.64067e-05
0.000137229
-5.54701e-05
0.000137949
-6.05539e-05
0.00013823
-7.0015e-05
0.000139201
-7.90203e-05
0.00013979
-8.98209e-05
0.000139828
-0.000102086
0.000141398
-0.000116748
0.000139611
-0.000131374
0.000141722
-0.00015306
0.000137979
-0.000171867
0.00013994
0.000131566
0.000129773
0.000113422
6.54287e-05
0.000136892
0.0001365
0.000136982
0.000136401
0.000137054
0.000136361
0.000137073
0.000136387
0.000137066
0.000136449
0.000137021
0.000136511
0.000137014
0.000136487
0.000137059
0.000136486
0.000137026
0.000136541
0.000137034
0.000136554
0.000137052
0.00013664
0.000137019
0.000136739
0.000136944
0.000136915
0.000136836
0.000136941
0.000136897
0.00013684
0.000136919
0.000136717
0.000137007
0.000136651
0.000136988
0.000136705
0.000137062
0.000136738
0.000137116
0.000136796
0.000137314
0.000136839
0.000137474
0.00013703
0.000137692
0.00013743
0.000137855
0.000138099
0.000138192
0.000138813
0.00013895
0.000139365
0.000140155
0.000140072
0.000140958
0.000141192
0.000141024
0.000142078
0.000140628
)
;

boundaryField
{
    inlet
    {
        type            calculated;
        value           nonuniform 0();
    }
    outlet
    {
        type            calculated;
        value           nonuniform 0();
    }
    wall
    {
        type            calculated;
        value           uniform 0;
    }
    wedge1
    {
        type            wedge;
        value           nonuniform List<scalar> 
344
(
-3.00084e-17
3.63978e-17
-5.39891e-17
6.33846e-17
-7.60885e-17
7.37049e-17
-7.50666e-17
6.6474e-17
-6.47542e-17
5.62364e-17
-5.18775e-17
4.46642e-17
-4.48246e-17
5.21139e-17
-5.98978e-17
6.63046e-17
-6.06686e-17
6.122e-17
-5.64875e-17
6.92575e-17
-6.5285e-17
6.92207e-17
-5.42399e-17
5.75349e-17
-2.64505e-17
2.49365e-17
3.1778e-17
-3.71339e-18
4.65133e-17
2.2532e-17
3.97465e-17
5.48108e-17
2.45768e-17
8.90091e-17
4.40453e-17
8.35922e-17
6.6596e-17
1.13763e-16
8.24475e-17
1.43926e-16
9.88405e-17
1.99557e-16
1.19063e-16
2.766e-16
1.16663e-16
3.8164e-16
1.53151e-16
4.52753e-16
2.73521e-16
4.62055e-16
5.1238e-16
4.44404e-16
7.5118e-16
6.06299e-16
4.23806e-15
8.20794e-16
7.56769e-15
1.01214e-15
6.83724e-15
9.1202e-16
8.69025e-15
1.35034e-15
8.78145e-15
1.3873e-15
1.31356e-14
1.62678e-15
1.01826e-14
1.96206e-15
1.87904e-14
2.29693e-15
1.40354e-14
2.72847e-15
2.99766e-14
3.34342e-15
1.56046e-14
4.04904e-15
5.04175e-14
7.26251e-15
1.06423e-16
8.04573e-17
-2.75309e-16
4.86712e-17
-1.41555e-16
-1.12093e-16
3.89467e-16
-7.76143e-17
1.648e-16
1.30893e-16
-4.35085e-16
8.10662e-17
-2.0288e-16
-1.65675e-16
5.57567e-16
-1.10688e-16
2.09874e-16
1.69441e-16
-5.4896e-16
1.0121e-16
-2.23942e-16
-1.84494e-16
6.12718e-16
-1.18706e-16
2.05861e-16
1.63498e-16
-5.26381e-16
9.22321e-17
-2.06284e-16
-1.65222e-16
5.44882e-16
-1.01738e-16
1.83014e-16
1.37937e-16
-4.35603e-16
7.09731e-17
-1.81278e-16
-1.37483e-16
4.49928e-16
-8.08442e-17
1.53292e-16
1.09236e-16
-3.34378e-16
5.12094e-17
-1.56633e-16
-1.1676e-16
3.90774e-16
-7.09455e-17
1.36755e-16
9.84165e-17
-3.01277e-16
4.78414e-17
-1.69474e-16
-1.31632e-16
4.39373e-16
-8.30685e-17
1.54123e-16
1.16263e-16
-3.40453e-16
5.67418e-17
-1.81308e-16
-1.47699e-16
4.75901e-16
-9.12675e-17
1.29363e-16
1.00588e-16
-2.72429e-16
4.30623e-17
-1.51238e-16
-1.28485e-16
4.06529e-16
-7.87496e-17
9.86912e-17
7.70776e-17
-1.74237e-16
2.35595e-17
-1.49185e-16
-1.30593e-16
3.87492e-16
-7.64655e-17
8.48442e-17
6.88137e-17
-1.01577e-16
9.51463e-18
-1.31666e-16
-1.23028e-16
3.41577e-16
-7.08361e-17
3.22645e-17
2.95804e-17
6.25929e-17
-2.17724e-17
-1.09078e-16
-1.00733e-16
2.95332e-16
-5.85633e-17
-2.80927e-17
-3.53096e-17
2.4617e-16
-6.84229e-17
-7.83158e-17
-5.28315e-17
2.53492e-16
-4.34675e-17
-9.82387e-17
-1.24975e-16
4.56851e-16
-1.16393e-16
-1.0368e-16
-5.36228e-17
3.58894e-16
-6.91026e-17
-8.28298e-17
-1.36126e-16
4.75714e-16
-1.21726e-16
-1.98033e-16
-1.35281e-16
6.47766e-16
-1.35239e-16
-9.30574e-17
-1.41245e-16
5.52022e-16
-1.36581e-16
-2.6062e-16
-2.10043e-16
8.65322e-16
-1.9038e-16
-1.06574e-16
-1.51849e-16
6.85318e-16
-1.69725e-16
-3.38559e-16
-2.79945e-16
1.0849e-15
-2.39853e-16
-1.63477e-16
-2.21452e-16
9.79639e-16
-2.3955e-16
-3.78991e-16
-3.12728e-16
1.23959e-15
-2.82394e-16
-2.40766e-16
-3.0152e-16
1.32881e-15
-3.16164e-16
-4.71005e-16
-4.11907e-16
1.58162e-15
-3.70867e-16
-3.39042e-16
-3.90895e-16
1.74164e-15
-4.06861e-16
-5.97008e-16
-5.3544e-16
2.05849e-15
-4.88947e-16
-4.25183e-16
-4.88476e-16
2.18476e-15
-5.12716e-16
-7.89037e-16
-7.22755e-16
2.72825e-15
-6.52227e-16
-6.03577e-16
-6.33465e-16
2.92221e-15
-6.69859e-16
-9.33761e-16
-9.32435e-16
3.35299e-15
-8.37605e-16
-8.85766e-16
-8.17824e-16
3.9739e-15
-8.76016e-16
-1.09632e-15
-1.18858e-15
4.15499e-15
-1.06898e-15
-1.27088e-15
-1.11651e-15
5.27986e-15
-1.17038e-15
-1.32417e-15
-1.44796e-15
5.32396e-15
-1.33379e-15
-1.66871e-15
-1.53778e-15
6.68214e-15
-1.56032e-15
-1.74481e-15
-1.73989e-15
7.12129e-15
-1.67003e-15
-2.065e-15
-2.11368e-15
8.2374e-15
-2.05527e-15
-2.3875e-15
-2.13905e-15
9.57398e-15
-2.12839e-15
-2.49691e-15
-2.73309e-15
1.02636e-14
-2.61899e-15
-3.11944e-15
-2.82959e-15
1.2299e-14
-2.81279e-15
-3.33822e-15
-3.34174e-15
1.36532e-14
-3.25181e-15
-3.87314e-15
-3.87149e-15
1.53872e-14
-3.73749e-15
-4.44118e-15
-4.23159e-15
1.78533e-14
-4.18741e-15
-5.12135e-15
-4.93236e-15
2.03853e-14
-4.68076e-15
-5.51476e-15
-5.83104e-15
2.23429e-14
-5.68383e-15
-7.10399e-15
-6.24507e-15
2.75786e-14
-5.88766e-15
-7.136e-15
-7.78448e-15
2.93549e-14
-9.77246e-15
-8.71756e-15
3.63103e-14
-9.79823e-15
-1.03468e-14
3.99274e-14
-1.41457e-14
-1.2854e-14
4.9505e-14
-1.62023e-14
-1.41814e-14
5.83619e-14
-2.05702e-14
-1.83601e-14
5.83746e-14
4.91578e-14
4.78946e-15
4.85011e-14
-4.32453e-15
3.2898e-14
-2.31172e-15
2.50953e-14
-3.4197e-15
)
;
    }
    wedge2
    {
        type            wedge;
        value           nonuniform List<scalar> 
344
(
-2.88381e-17
3.94429e-17
-5.30211e-17
6.60194e-17
-7.50853e-17
7.5974e-17
-7.38764e-17
6.85358e-17
-6.36342e-17
5.74462e-17
-5.07613e-17
4.52319e-17
-4.37662e-17
5.24912e-17
-5.84753e-17
6.62222e-17
-5.93997e-17
6.05631e-17
-5.55898e-17
6.83752e-17
-6.47253e-17
6.87284e-17
-5.43155e-17
5.76628e-17
-2.71575e-17
2.5832e-17
3.03728e-17
-2.53347e-18
4.51126e-17
2.35218e-17
3.86765e-17
5.54223e-17
2.33847e-17
8.98137e-17
4.25712e-17
8.44811e-17
6.49395e-17
1.14354e-16
8.14029e-17
1.4365e-16
9.83918e-17
1.98948e-16
1.19151e-16
2.75685e-16
1.16958e-16
3.79683e-16
1.5435e-16
4.49484e-16
2.74969e-16
4.59486e-16
5.12547e-16
4.433e-16
7.49486e-16
6.0427e-16
4.24119e-15
8.17414e-16
7.56695e-15
1.00772e-15
6.83674e-15
9.05622e-16
8.68897e-15
1.3422e-15
8.77839e-15
1.37646e-15
1.31315e-14
1.61226e-15
1.01752e-14
1.94993e-15
1.87827e-14
2.27734e-15
1.40193e-14
2.72314e-15
2.99657e-14
3.33986e-15
1.55951e-14
4.03397e-15
5.04025e-14
7.25217e-15
1.09574e-16
8.21986e-17
-2.71755e-16
5.38283e-17
-1.39432e-16
-1.10523e-16
3.93104e-16
-7.3365e-17
1.68115e-16
1.32493e-16
-4.31815e-16
8.61263e-17
-2.01049e-16
-1.64373e-16
5.6105e-16
-1.06773e-16
2.12951e-16
1.71143e-16
-5.46043e-16
1.05648e-16
-2.22307e-16
-1.83305e-16
6.15993e-16
-1.15147e-16
2.08955e-16
1.6519e-16
-5.23692e-16
9.66189e-17
-2.04545e-16
-1.64163e-16
5.47934e-16
-9.8266e-17
1.85688e-16
1.39299e-16
-4.33139e-16
7.49636e-17
-1.79683e-16
-1.3673e-16
4.52581e-16
-7.77312e-17
1.55582e-16
1.1033e-16
-3.32229e-16
5.47451e-17
-1.55069e-16
-1.16172e-16
3.93246e-16
-6.78973e-17
1.39099e-16
9.92723e-17
-2.99261e-16
5.10303e-17
-1.68024e-16
-1.31151e-16
4.41749e-16
-8.01822e-17
1.56711e-16
1.17012e-16
-3.38536e-16
6.00826e-17
-1.79818e-16
-1.47329e-16
4.78232e-16
-8.83603e-17
1.31695e-16
1.01141e-16
-2.70715e-16
4.61002e-17
-1.49733e-16
-1.28286e-16
4.08639e-16
-7.59215e-17
1.00674e-16
7.74405e-17
-1.727e-16
2.62032e-17
-1.47535e-16
-1.30421e-16
3.89488e-16
-7.37421e-17
8.64457e-17
6.89278e-17
-1.00329e-16
1.1727e-17
-1.29926e-16
-1.22958e-16
3.43428e-16
-6.82368e-17
3.38239e-17
2.94423e-17
6.36703e-17
-1.97588e-17
-1.07136e-16
-1.00685e-16
2.97096e-16
-5.59081e-17
-2.68477e-17
-3.5539e-17
2.47306e-16
-6.65283e-17
-7.6169e-17
-5.28e-17
2.5521e-16
-4.07659e-17
-9.73092e-17
-1.25311e-16
4.57979e-16
-1.14734e-16
-1.01509e-16
-5.37065e-17
3.60528e-16
-6.64655e-17
-8.20364e-17
-1.36522e-16
4.76714e-16
-1.20298e-16
-1.96244e-16
-1.35425e-16
6.49211e-16
-1.33085e-16
-9.23182e-17
-1.41766e-16
5.52816e-16
-1.35342e-16
-2.58855e-16
-2.10373e-16
8.66638e-16
-1.88363e-16
-1.0585e-16
-1.52488e-16
6.85994e-16
-1.68684e-16
-3.37163e-16
-2.80582e-16
1.08601e-15
-2.383e-16
-1.62988e-16
-2.22368e-16
9.80102e-16
-2.3887e-16
-3.77899e-16
-3.13667e-16
1.24038e-15
-2.81312e-16
-2.40426e-16
-3.02703e-16
1.32905e-15
-3.1585e-16
-4.70361e-16
-4.13188e-16
1.5821e-15
-3.70387e-16
-3.38921e-16
-3.92318e-16
1.7417e-15
-4.06907e-16
-5.96501e-16
-5.36954e-16
2.05877e-15
-4.88725e-16
-4.25139e-16
-4.89928e-16
2.18484e-15
-5.12977e-16
-7.8884e-16
-7.24358e-16
2.72842e-15
-6.52523e-16
-6.03683e-16
-6.3502e-16
2.92231e-15
-6.7045e-16
-9.33891e-16
-9.34166e-16
3.35295e-15
-8.38543e-16
-8.86246e-16
-8.19633e-16
3.97377e-15
-8.77206e-16
-1.09693e-15
-1.19056e-15
4.15468e-15
-1.07063e-15
-1.27179e-15
-1.11839e-15
5.27955e-15
-1.17205e-15
-1.32489e-15
-1.44992e-15
5.32354e-15
-1.33587e-15
-1.66967e-15
-1.53949e-15
6.68186e-15
-1.5624e-15
-1.74589e-15
-1.74153e-15
7.1207e-15
-1.67261e-15
-2.06584e-15
-2.11537e-15
8.23685e-15
-2.0579e-15
-2.38925e-15
-2.14061e-15
9.57282e-15
-2.13151e-15
-2.49759e-15
-2.73483e-15
1.02623e-14
-2.62226e-15
-3.12185e-15
-2.83174e-15
1.22968e-14
-2.81653e-15
-3.33949e-15
-3.3436e-15
1.36507e-14
-3.25544e-15
-3.87623e-15
-3.87501e-15
1.53835e-14
-3.74149e-15
-4.44373e-15
-4.23457e-15
1.785e-14
-4.19031e-15
-5.12519e-15
-4.9372e-15
2.03814e-14
-4.68465e-15
-5.51942e-15
-5.83472e-15
2.23399e-14
-5.68605e-15
-7.10741e-15
-6.24896e-15
2.75759e-14
-5.89001e-15
-7.14097e-15
-7.78731e-15
2.93533e-14
-9.77345e-15
-8.7175e-15
3.63101e-14
-9.79652e-15
-1.03487e-14
3.99265e-14
-1.41504e-14
-1.28594e-14
4.94996e-14
-1.62074e-14
-1.41857e-14
5.83578e-14
-2.05719e-14
-1.83623e-14
5.83737e-14
4.91482e-14
4.78774e-15
4.84887e-14
-4.33421e-15
3.28896e-14
-2.31436e-15
2.50816e-14
-3.43008e-15
)
;
    }
    axis
    {
        type            empty;
        value           nonuniform 0();
    }
    procBoundary20to14
    {
        type            processor;
        value           nonuniform List<scalar> 
71
(
6.64692e-05
0.000103767
8.36929e-05
0.00013743
9.91594e-05
0.000189902
0.000135079
0.000266064
0.000179241
0.000410836
0.000247994
0.000516005
-4.62966e-06
6.18442e-06
-7.47919e-06
9.26478e-06
-9.49106e-06
9.80604e-06
-8.90488e-06
8.67952e-06
-8.167e-06
8.22103e-06
-7.35098e-06
7.38048e-06
-6.77782e-06
8.23359e-06
-8.31726e-06
9.46593e-06
-7.67309e-06
7.96831e-06
-6.6833e-06
8.14842e-06
-6.34925e-06
6.37386e-06
-2.82406e-06
4.20641e-06
-6.87413e-07
2.81409e-06
2.1538e-06
3.58183e-06
-5.88617e-07
9.54742e-06
-2.0201e-06
1.09443e-05
-1.57399e-06
1.37583e-05
-1.07862e-06
1.46966e-05
1.24093e-06
1.66531e-05
4.24517e-06
2.01804e-05
3.86327e-06
2.84742e-05
6.15497e-06
3.3899e-05
9.38874e-06
4.02627e-05
2.0632e-05
3.99641e-05
3.59901e-05
4.24726e-05
5.46805e-05
5.19567e-05
6.38927e-05
-0.00035055
7.61079e-05
0.0004754
0.00035971
0.000205097
9.20376e-05
)
;
    }
    procBoundary20to15
    {
        type            processor;
        value           uniform 0.000647854;
    }
    procBoundary20to19
    {
        type            processor;
        value           nonuniform List<scalar> 5(-0.000357133 -0.000128637 -0.00013132 -0.000133953 -0.000136565);
    }
    procBoundary20to21
    {
        type            processor;
        value           uniform -0.000521499;
    }
    procBoundary20to26
    {
        type            processor;
        value           nonuniform List<scalar> 
67
(
-0.000202233
-0.000231994
-0.000268967
-0.000330446
-0.000352681
-0.00039339
1.12218e-06
-1.88322e-06
1.89841e-06
-2.66704e-06
2.39784e-06
-2.83108e-06
2.22201e-06
-2.41194e-06
1.67677e-06
-1.9286e-06
1.15734e-06
-1.71752e-06
1.01939e-06
-2.01263e-06
1.18003e-06
-2.19658e-06
8.34703e-07
-1.90768e-06
3.336e-07
-1.85808e-06
-9.68381e-08
-1.75328e-06
-9.24072e-07
-1.60778e-06
-1.99908e-06
-1.49541e-06
-3.1202e-06
-2.29075e-06
-3.33685e-06
-3.95327e-06
-3.8862e-06
-5.27669e-06
-4.94444e-06
-6.51394e-06
-6.9172e-06
-7.6896e-06
-9.16015e-06
-1.00076e-05
-1.17889e-05
-1.32059e-05
-1.48686e-05
-1.74818e-05
-1.95229e-05
-2.21972e-05
-2.5682e-05
-2.83272e-05
-3.36894e-05
-3.63107e-05
-4.341e-05
-4.70276e-05
-5.56071e-05
-6.09685e-05
-7.08056e-05
-7.89371e-05
-9.07063e-05
-0.000102321
-0.000116581
-0.000132429
-0.00015161
0.000140672
-0.000171911
)
;
    }
}


// ************************************************************************* //
