/*--------------------------------*- C++ -*----------------------------------*\
  =========                 |
  \\      /  F ield         | OpenFOAM: The Open Source CFD Toolbox
   \\    /   O peration     | Website:  https://openfoam.org
    \\  /    A nd           | Version:  7
     \\/     M anipulation  |
\*---------------------------------------------------------------------------*/
FoamFile
{
    version     2.0;
    format      ascii;
    class       surfaceScalarField;
    location    "22";
    object      phi;
}
// * * * * * * * * * * * * * * * * * * * * * * * * * * * * * * * * * * * * * //

dimensions      [0 3 -1 0 0 0 0];

internalField   nonuniform List<scalar> 
819
(
0.0244941
6.58837e-06
0.0244949
-8.16131e-07
0.0245032
-8.25751e-06
-1.57291e-05
0.0245189
0.0236536
1.25667e-05
0.0236548
-1.99695e-06
0.0236632
-1.66365e-05
-3.13298e-05
0.0236788
0.0228552
1.78255e-05
0.0228569
-3.67582e-06
0.0228656
-2.52866e-05
-4.69729e-05
0.0228812
0.0220956
2.22456e-05
0.0220979
-5.98648e-06
0.0221069
-3.43581e-05
-6.28249e-05
0.0221228
0.0213716
2.57348e-05
0.0213746
-9.03436e-06
0.0213843
-4.39709e-05
-7.90208e-05
0.0214005
0.0206806
2.82069e-05
0.0206845
-1.29181e-05
0.0206948
-5.42363e-05
-9.56844e-05
0.0207115
0.0200203
2.95861e-05
0.0200251
-1.77243e-05
0.0200361
-6.52522e-05
-0.000112925
0.0200534
0.0193885
2.98013e-05
0.0193943
-2.35336e-05
0.0194061
-7.71086e-05
-0.000130843
0.0194241
0.0187832
2.87866e-05
0.0187901
-3.04204e-05
0.0188028
-8.98892e-05
-0.000149531
0.0188215
0.0182026
2.64772e-05
0.0182107
-3.84567e-05
0.0182245
-0.000103673
-0.000169075
0.018244
0.0176452
2.28105e-05
0.0176545
-4.77117e-05
0.0176694
-0.000118536
-0.000189559
0.0176898
0.0171095
1.77225e-05
0.01712
-5.82548e-05
0.017136
-0.000134553
-0.000211062
0.0171575
0.016594
1.11496e-05
0.0166059
-7.01563e-05
0.0166231
-0.000151798
-0.000233662
0.0166457
0.0160974
3.0378e-06
0.0161107
-8.34886e-05
0.0161293
-0.000170345
-0.000257438
0.0161531
0.0156187
-6.73803e-06
0.0156335
-9.83176e-05
0.0156534
-0.000190266
-0.000282463
0.0156784
0.0151566
-1.82024e-05
0.015173
-0.000114726
0.0151944
-0.000211641
-0.000308819
0.0152207
0.0147102
-3.14489e-05
0.0147283
-0.00013279
0.0147512
-0.000234548
-0.000336583
0.0147789
0.0142786
-4.65582e-05
0.0142984
-0.000152594
0.0143229
-0.00025907
-0.000365839
0.0143522
0.0138609
-6.36215e-05
0.0138825
-0.000174226
0.0139088
-0.000285294
-0.000396671
0.0139396
0.0134564
-8.27385e-05
0.01348
-0.000197783
0.013508
-0.000313312
-0.000429169
0.0135405
0.0130644
-0.000104018
0.01309
-0.000223364
0.0131199
-0.000343221
-0.000463427
0.0131541
0.0126843
-0.000127558
0.012712
-0.00025107
0.0127439
-0.000375121
-0.000499542
0.01278
0.0123156
-0.000153474
0.0123455
-0.00028101
0.0123795
-0.000409114
-0.000537611
0.0124176
0.0119578
-0.000181903
0.0119901
-0.000313313
0.0120263
-0.000445319
-0.000577743
0.0120665
0.0116106
-0.000212971
0.0116454
-0.000348093
0.0116839
-0.000483845
-0.000620041
0.0117262
0.0112736
-0.000246822
0.011311
-0.000385483
0.011352
-0.000524808
-0.000664604
0.0113965
0.0109466
-0.00028358
0.0109867
-0.000425594
0.0110302
-0.000568301
-0.000711503
0.0110771
0.0106294
-0.000323362
0.0106723
-0.000468518
0.0107184
-0.000614393
-0.000760776
0.0107677
0.0103216
-0.000366301
0.0103674
-0.000514351
0.0104162
-0.00066313
-0.000812406
0.0104678
0.0100227
-0.000412538
0.0100716
-0.000563157
0.0101229
-0.000714487
-0.000866272
0.0101768
0.00973276
-0.000461969
0.00978437
-0.00061477
0.0098381
-0.000768213
-0.000921999
0.00989383
0.00945037
-0.000514569
0.00950459
-0.000668996
0.00956029
-0.000823913
-0.000978957
0.00961725
0.00917443
0.00923073
0.00928758
-0.000880765
-0.001036
0.00934462
0.0090168
0.00907202
0.0245421
-2.32178e-05
0.0245728
-3.07116e-05
0.024611
-3.8199e-05
0.0246567
-4.56678e-05
0.0247098
-5.31066e-05
0.0247703
-6.05032e-05
0.0248381
-6.78461e-05
0.0249133
-7.51234e-05
-8.23238e-05
0.0237016
-4.60536e-05
0.0237317
-6.07853e-05
0.023769
-7.55016e-05
0.0238135
-9.01794e-05
0.0238652
-0.000104796
0.023924
-0.000119327
0.0239899
-0.000133751
0.0240628
-0.000148044
-0.000162183
0.0229038
-6.87014e-05
0.0229335
-9.04381e-05
0.0229701
-0.000112149
0.0230138
-0.000133801
0.0230643
-0.000155359
0.0231218
-0.000176789
0.0231861
-0.000198058
0.0232572
-0.000219132
-0.000239977
0.0221454
-9.13435e-05
0.0221749
-0.000119869
0.0222111
-0.000148358
0.022254
-0.000176766
0.0223037
-0.000205048
0.0223601
-0.000233159
0.0224231
-0.000261056
0.0224927
-0.000288694
-0.000316029
0.0214232
-0.00011413
0.0214526
-0.000149245
0.0214886
-0.000184311
0.0215311
-0.000219273
0.0215801
-0.000254078
0.0216356
-0.000288669
0.0216976
-0.000322994
0.0217659
-0.000356998
-0.000390627
0.0207345
-0.000137199
0.020764
-0.000178716
0.0207999
-0.000220171
0.0208421
-0.000261501
0.0208907
-0.000302642
0.0209455
-0.000343528
0.0210066
-0.000384097
0.0210739
-0.000424283
-0.000464025
0.0200769
-0.00016067
0.0201066
-0.000208414
0.0201425
-0.000256085
0.0201846
-0.000303609
0.0202328
-0.000350911
0.0202872
-0.00039792
0.0203477
-0.00044456
0.0204142
-0.000490761
-0.000536448
0.0194481
-0.000184655
0.0194781
-0.000238463
0.0195142
-0.000292185
0.0195563
-0.000345738
0.0196045
-0.000399041
0.0196585
-0.00045201
0.0197186
-0.000504563
0.0197844
-0.000556619
-0.000608096
0.0188461
-0.000209255
0.0188766
-0.000268972
0.0189131
-0.000328591
0.0189553
-0.00038802
0.0190035
-0.00044717
0.0190574
-0.000505949
0.0191171
-0.000564266
0.0191825
-0.000622031
-0.000679153
0.0182693
-0.000234565
0.0183004
-0.000300044
0.0183372
-0.000365414
0.0183798
-0.000430575
0.018428
-0.000495429
0.018482
-0.000559875
0.0185415
-0.000623815
0.0186066
-0.000687151
-0.000749783
0.017716
-0.000260674
0.0177477
-0.000331776
0.017785
-0.000402758
0.017828
-0.000473513
0.0178765
-0.000543934
0.0179305
-0.000613913
0.01799
-0.000683344
0.018055
-0.00075212
-0.000820134
0.0171845
-0.000287668
0.017217
-0.00036426
0.017255
-0.000440721
0.0172984
-0.000516938
0.0173473
-0.000592795
0.0174015
-0.000668179
0.0174612
-0.000742974
0.0175261
-0.000817067
-0.000890343
0.0166737
-0.00031563
0.016707
-0.000397581
0.0167457
-0.000479394
0.0167897
-0.000560945
0.016839
-0.000642115
0.0168936
-0.00072278
0.0169534
-0.000802819
0.0170185
-0.000882109
-0.00096053
0.0161821
-0.000344641
0.0162163
-0.000431826
0.0162558
-0.000518865
0.0163005
-0.000605629
0.0163503
-0.000691989
0.0164054
-0.000777816
0.0164655
-0.000862981
0.0165308
-0.000947355
-0.00103081
0.0157086
-0.000374777
0.0157438
-0.000467073
0.0157842
-0.000559217
0.0158296
-0.000651074
0.0158801
-0.000742506
0.0159357
-0.000833379
0.0159963
-0.000923556
0.0160618
-0.0010129
-0.00110128
0.0152521
-0.000406121
0.0152884
-0.000503407
0.0153297
-0.000600536
0.015376
-0.000697365
0.0154273
-0.000793753
0.0154834
-0.000889558
0.0155445
-0.000984636
0.0156105
-0.00107885
-0.00117205
0.0148116
-0.000438751
0.0148491
-0.000540906
0.0148914
-0.0006429
0.0149387
-0.000744586
0.0149907
-0.000845814
0.0150476
-0.000946436
0.0151093
-0.0010463
0.0151757
-0.00114527
-0.00124318
0.0143862
-0.00047275
0.0144249
-0.000579653
0.0144684
-0.000686392
0.0145166
-0.000792816
0.0145696
-0.000898768
0.0146272
-0.0010041
0.0146896
-0.00110864
0.0147566
-0.00121225
-0.00131477
0.013975
-0.000508202
0.0140151
-0.000619729
0.0140598
-0.000731094
0.0141091
-0.000842137
0.0141631
-0.000952697
0.0142216
-0.00106261
0.0142847
-0.00117173
0.0143523
-0.00127988
-0.0013869
0.0135775
-0.000545193
0.013619
-0.000661221
0.0136649
-0.000777088
0.0137154
-0.00089263
0.0137704
-0.00100768
0.0138299
-0.00112207
0.0138938
-0.00123564
0.0139621
-0.00134821
-0.00145962
0.0131927
-0.000583815
0.0132357
-0.000704216
0.0132831
-0.000824461
0.0133349
-0.000944378
0.013391
-0.0010638
0.0134515
-0.00118254
0.0135163
-0.00130044
0.0135854
-0.00141733
-0.00153302
0.0128204
-0.000624161
0.0128649
-0.000748804
0.0129138
-0.000873296
0.0129669
-0.000997462
0.0130242
-0.00112112
0.0130857
-0.0012441
0.0131515
-0.00136622
0.0132215
-0.00148729
-0.00160714
0.0124598
-0.000666324
0.012506
-0.000795074
0.0125564
-0.000923681
0.0126109
-0.00105196
0.0126695
-0.00117973
0.0127322
-0.00130681
0.012799
-0.00143301
0.0128699
-0.00155814
-0.00168201
0.0121105
-0.000710404
0.0121586
-0.000843116
0.0122106
-0.000975694
0.0122666
-0.00110795
0.0123265
-0.00123969
0.0123904
-0.00137072
0.0124583
-0.00150085
0.01253
-0.00162987
-0.00175759
0.0117723
-0.000756494
0.0118222
-0.000893013
0.0118759
-0.0010294
0.0119334
-0.00116547
0.0119947
-0.00130101
0.0120598
-0.00143583
0.0121287
-0.0015697
0.0122013
-0.00170243
-0.00183377
0.0114447
-0.000804675
0.0114965
-0.000944824
0.011552
-0.00108485
0.011611
-0.00122454
0.0116737
-0.00136368
0.0117399
-0.00150206
0.0118096
-0.00163944
0.0118828
-0.00177559
-0.00191025
0.0111274
-0.000854993
0.0111812
-0.000998563
0.0112383
-0.001142
0.0112989
-0.00128507
0.0113627
-0.00142755
0.0114299
-0.00156919
0.0115002
-0.00170974
0.0115735
-0.00184891
-0.00198642
0.0108201
-0.000907446
0.0108758
-0.00105418
0.0109345
-0.00120073
0.0109963
-0.00134687
0.0110611
-0.00149231
0.0111287
-0.00163679
0.0111989
-0.00178
0.0112716
-0.00192161
-0.00206125
0.0105223
-0.000961941
0.0105796
-0.00111148
0.0106396
-0.00126076
0.0107023
-0.0014095
0.0107673
-0.00155738
0.0108346
-0.00170406
0.0109038
-0.00184918
0.0109745
-0.00199233
-0.00213306
0.0102331
-0.00101824
0.0102917
-0.0011701
0.0103525
-0.00132153
0.0104152
-0.00147219
0.0104795
-0.00162171
0.0105451
-0.00176966
0.0106115
-0.00191559
0.0106782
-0.00205899
-0.0021993
0.00995139
-0.0010758
0.0100106
-0.00122928
0.0100711
-0.00138204
0.0101325
-0.00153366
0.0101945
-0.00168367
0.0102564
-0.00183156
0.0103176
-0.00197674
0.0103772
-0.0021186
-0.00225645
0.00967518
-0.00113373
0.00973372
-0.00128781
0.00979239
-0.00144072
0.00985064
-0.00159191
0.00990778
-0.00174082
0.00996302
-0.00188679
0.0100154
-0.00202914
0.0100639
-0.0021671
-0.00229987
0.0094014
-0.00119051
0.00945735
-0.00134376
0.0095118
0.00956394
0.00961285
0.00965747
0.00969662
0.00972899
0.00912529
)
;

boundaryField
{
    inlet
    {
        type            calculated;
        value           nonuniform 0();
    }
    outlet
    {
        type            calculated;
        value           nonuniform 0();
    }
    cylinder
    {
        type            calculated;
        value           nonuniform 0();
    }
    top
    {
        type            symmetryPlane;
        value           nonuniform 0();
    }
    bottom
    {
        type            symmetryPlane;
        value           uniform 0;
    }
    defaultFaces
    {
        type            empty;
        value           nonuniform 0();
    }
    procBoundary2to1
    {
        type            processor;
        value           nonuniform List<scalar> 
33
(
-0.0245007
-0.0236596
-0.0228605
-0.0221
-0.0213751
-0.0206831
-0.0200217
-0.0193887
-0.0187822
-0.0182003
-0.0176416
-0.0171044
-0.0165874
-0.0160893
-0.0156089
-0.0151451
-0.014697
-0.0142635
-0.0138438
-0.0134373
-0.0130431
-0.0126607
-0.0122897
-0.0119294
-0.0115795
-0.0112397
-0.0109099
-0.0105896
-0.0102786
-0.00997651
-0.00968333
-0.00939777
-0.00911897
)
;
    }
    procBoundary2to3
    {
        type            processor;
        value           nonuniform List<scalar> 
33
(
0.0249956
0.0241427
0.023335
0.0225687
0.0218405
0.0211473
0.0204866
0.0198561
0.0192536
0.0186773
0.0181254
0.0175963
0.0170887
0.0166011
0.0161323
0.0156812
0.0152468
0.0148282
0.0144244
0.0140348
0.0136588
0.0132956
0.0129447
0.0126056
0.0122774
0.0119593
0.0116497
0.0113464
0.0110463
0.0107444
0.0104343
0.0101073
0.00975321
)
;
    }
    procBoundary2to8
    {
        type            processor;
        value           nonuniform List<scalar> 
15
(
-0.00057003
-0.000725297
-0.0089603
-0.000937264
-0.00109122
-0.00149516
-0.00164406
-0.00178973
-0.00193141
-0.00206829
-0.00219948
-0.00232409
-0.00124378
0.00917583
-0.0013943
)
;
    }
}


// ************************************************************************* //
