/*--------------------------------*- C++ -*----------------------------------*\
  =========                 |
  \\      /  F ield         | OpenFOAM: The Open Source CFD Toolbox
   \\    /   O peration     | Website:  https://openfoam.org
    \\  /    A nd           | Version:  7
     \\/     M anipulation  |
\*---------------------------------------------------------------------------*/
FoamFile
{
    version     2.0;
    format      ascii;
    class       surfaceScalarField;
    location    "8";
    object      phi;
}
// * * * * * * * * * * * * * * * * * * * * * * * * * * * * * * * * * * * * * //

dimensions      [0 3 -1 0 0 0 0];

internalField   nonuniform List<scalar> 
60711
(
2.55637e-06
-7.4011e-11
2.55659e-06
-2.20983e-10
2.55696e-06
-3.66892e-10
2.55747e-06
-5.11679e-10
2.55812e-06
-6.54777e-10
2.55892e-06
-7.95323e-10
2.55985e-06
-9.32524e-10
2.56092e-06
-1.06577e-09
2.56211e-06
-1.19459e-09
2.56343e-06
-1.31858e-09
2.56487e-06
-1.4374e-09
2.56642e-06
-1.55072e-09
2.56808e-06
-1.65827e-09
2.56984e-06
-1.75981e-09
2.57169e-06
-1.85516e-09
2.57364e-06
-1.94419e-09
2.57566e-06
-2.02683e-09
2.57777e-06
-2.10307e-09
2.57994e-06
-2.17294e-09
2.58218e-06
-2.23651e-09
2.58447e-06
-2.29389e-09
2.58682e-06
-2.34523e-09
2.58921e-06
-2.39072e-09
2.59164e-06
-2.43056e-09
2.5941e-06
-2.46498e-09
2.5966e-06
-2.49422e-09
2.59911e-06
-2.51856e-09
2.60165e-06
-2.53826e-09
2.60421e-06
-2.5536e-09
2.60677e-06
-2.56487e-09
2.60934e-06
-2.57235e-09
2.61192e-06
-2.57631e-09
2.6145e-06
-2.57705e-09
2.61707e-06
-2.57481e-09
2.61964e-06
-2.56987e-09
2.6222e-06
-2.56248e-09
2.62476e-06
-2.55287e-09
2.6273e-06
-2.54128e-09
2.62983e-06
-2.52792e-09
2.63234e-06
-2.51298e-09
2.63484e-06
-2.49667e-09
2.63731e-06
-2.47916e-09
2.63978e-06
-2.46062e-09
2.64222e-06
-2.44119e-09
2.64464e-06
-2.42101e-09
2.64704e-06
-2.40022e-09
2.64942e-06
-2.37893e-09
2.65177e-06
-2.35724e-09
2.65411e-06
-2.33526e-09
2.65642e-06
-2.31307e-09
2.65871e-06
-2.29075e-09
2.66098e-06
-2.26836e-09
2.66323e-06
-2.24598e-09
2.66545e-06
-2.22365e-09
2.66765e-06
-2.20143e-09
2.66983e-06
-2.17935e-09
2.67199e-06
-2.15746e-09
2.67412e-06
-2.13579e-09
2.67624e-06
-2.11436e-09
2.67833e-06
-2.0932e-09
2.6804e-06
-2.07233e-09
2.68246e-06
-2.05176e-09
2.68449e-06
-2.03152e-09
2.6865e-06
-2.0116e-09
2.68849e-06
-1.99203e-09
2.69046e-06
-1.9728e-09
2.69242e-06
-1.95392e-09
2.69435e-06
-1.93539e-09
2.69627e-06
-1.91722e-09
2.69817e-06
-1.8994e-09
2.70005e-06
-1.88194e-09
2.70192e-06
-1.86483e-09
2.70377e-06
-1.84807e-09
2.7056e-06
-1.83165e-09
2.70741e-06
-1.81557e-09
2.70921e-06
-1.79983e-09
2.711e-06
-1.78442e-09
2.71277e-06
-1.76933e-09
2.71452e-06
-1.75456e-09
2.71626e-06
-1.74011e-09
2.71799e-06
-1.72596e-09
2.7197e-06
-1.71211e-09
2.7214e-06
-1.69856e-09
2.72308e-06
-1.68529e-09
2.72475e-06
-1.6723e-09
2.72641e-06
-1.65958e-09
2.72806e-06
-1.64713e-09
2.7297e-06
-1.63494e-09
2.73132e-06
-1.623e-09
2.73293e-06
-1.6113e-09
2.73453e-06
-1.59985e-09
2.73612e-06
-1.58863e-09
2.7377e-06
-1.57764e-09
2.73926e-06
-1.56686e-09
2.74082e-06
-1.5563e-09
2.74237e-06
-1.54596e-09
2.7439e-06
-1.53581e-09
2.74543e-06
-1.52586e-09
2.74694e-06
-1.51611e-09
2.74845e-06
-1.50654e-09
2.74995e-06
-1.49715e-09
2.75144e-06
-1.48794e-09
2.75291e-06
-1.4789e-09
2.75438e-06
-1.47003e-09
2.75585e-06
-1.46133e-09
2.7573e-06
-1.45278e-09
2.75874e-06
-1.44438e-09
2.76018e-06
-1.43614e-09
2.76161e-06
-1.42804e-09
2.76303e-06
-1.42008e-09
2.76444e-06
-1.41227e-09
2.76584e-06
-1.40458e-09
2.76724e-06
-1.39703e-09
2.76863e-06
-1.38961e-09
2.77001e-06
-1.38231e-09
2.77139e-06
-1.37514e-09
2.77276e-06
-1.36808e-09
2.77412e-06
-1.36114e-09
2.77547e-06
-1.35431e-09
2.77682e-06
-1.34759e-09
2.77816e-06
-1.34098e-09
2.77949e-06
-1.33448e-09
2.78082e-06
-1.32807e-09
2.78214e-06
-1.32177e-09
2.78346e-06
-1.31557e-09
2.78477e-06
-1.30947e-09
2.78607e-06
-1.30346e-09
2.78737e-06
-1.29754e-09
2.78866e-06
-1.29171e-09
2.78995e-06
-1.28598e-09
2.79123e-06
-1.28033e-09
2.7925e-06
-1.27476e-09
2.79377e-06
-1.26929e-09
2.79504e-06
-1.26389e-09
2.7963e-06
-1.25858e-09
2.79755e-06
-1.25335e-09
2.7988e-06
-1.2482e-09
2.80004e-06
-1.24313e-09
2.80128e-06
-1.23814e-09
2.80251e-06
-1.23323e-09
2.80374e-06
-1.22839e-09
2.80496e-06
-1.22363e-09
2.80618e-06
-1.21894e-09
2.8074e-06
-1.21433e-09
2.80861e-06
-1.2098e-09
2.80981e-06
-1.20534e-09
2.81101e-06
-1.20096e-09
2.81221e-06
-1.19665e-09
2.8134e-06
-1.19242e-09
2.81459e-06
-1.18826e-09
2.81577e-06
-1.18418e-09
2.81695e-06
-1.18017e-09
2.81813e-06
-1.17624e-09
2.8193e-06
-1.17239e-09
2.82047e-06
-1.16862e-09
2.82164e-06
-1.16493e-09
2.8228e-06
-1.16132e-09
2.82396e-06
-1.15779e-09
2.82511e-06
-1.15435e-09
2.82626e-06
-1.15099e-09
2.82741e-06
-1.14772e-09
2.82855e-06
-1.14454e-09
2.82969e-06
-1.14145e-09
2.83083e-06
-1.13846e-09
2.83197e-06
-1.13556e-09
2.8331e-06
-1.13277e-09
2.83423e-06
-1.13007e-09
2.83536e-06
-1.12749e-09
2.83648e-06
-1.12502e-09
2.83761e-06
-1.12266e-09
2.83873e-06
-1.12042e-09
2.83985e-06
-1.11831e-09
2.84096e-06
-1.11633e-09
2.84208e-06
-1.11448e-09
2.84319e-06
-1.11278e-09
2.8443e-06
-1.11122e-09
2.84541e-06
-1.10982e-09
2.84652e-06
-1.10858e-09
2.84763e-06
-1.10751e-09
2.84873e-06
-1.10662e-09
2.84984e-06
-1.10592e-09
2.85094e-06
-1.10541e-09
2.85205e-06
-1.10512e-09
2.85315e-06
-1.10504e-09
2.85426e-06
-1.10519e-09
2.85536e-06
-1.10559e-09
2.85647e-06
-1.10625e-09
2.85758e-06
-1.10717e-09
2.85869e-06
-1.10838e-09
2.8598e-06
-1.1099e-09
2.86091e-06
-1.11173e-09
2.86202e-06
-1.11391e-09
2.86314e-06
-1.11644e-09
2.86426e-06
-1.11935e-09
2.86538e-06
-1.12266e-09
2.86651e-06
-1.1264e-09
2.86764e-06
-1.13059e-09
2.86877e-06
-1.13526e-09
2.86991e-06
-1.14044e-09
2.87106e-06
-1.14615e-09
2.87221e-06
-1.15244e-09
2.87337e-06
-1.15932e-09
2.87454e-06
-1.16685e-09
2.87571e-06
-1.17507e-09
2.8769e-06
-1.184e-09
2.87809e-06
-1.1937e-09
2.8793e-06
-1.20422e-09
2.88051e-06
-1.2156e-09
2.88174e-06
-1.22789e-09
2.88298e-06
-1.24116e-09
2.88424e-06
-1.25547e-09
2.88551e-06
-1.27087e-09
2.88679e-06
-1.28744e-09
2.8881e-06
-1.30525e-09
2.88942e-06
-1.32437e-09
2.89077e-06
-1.34488e-09
2.89214e-06
-1.36688e-09
2.89353e-06
-1.39045e-09
2.89494e-06
-1.41569e-09
2.89638e-06
-1.4427e-09
2.89786e-06
-1.47159e-09
2.89936e-06
-1.50247e-09
2.90089e-06
-1.53548e-09
2.90246e-06
-1.57073e-09
2.90407e-06
-1.60836e-09
2.90572e-06
-1.64853e-09
2.90741e-06
-1.69137e-09
2.90915e-06
-1.73706e-09
2.91094e-06
-1.78576e-09
2.91277e-06
-1.83766e-09
2.91467e-06
-1.89294e-09
2.91662e-06
-1.95181e-09
2.91863e-06
-2.01448e-09
2.92071e-06
-2.08116e-09
2.92287e-06
-2.15211e-09
2.92509e-06
-2.22755e-09
2.9274e-06
-2.30775e-09
2.92979e-06
-2.39299e-09
2.93228e-06
-2.48354e-09
2.93486e-06
-2.57971e-09
2.93754e-06
-2.6818e-09
2.94033e-06
-2.79015e-09
2.94323e-06
-2.90509e-09
2.94626e-06
-3.02698e-09
2.94942e-06
-3.15618e-09
2.95271e-06
-3.29307e-09
2.95615e-06
-3.43805e-09
2.95974e-06
-3.59152e-09
2.96349e-06
-3.75391e-09
2.96742e-06
-3.92563e-09
2.97153e-06
-4.10712e-09
2.97583e-06
-4.29884e-09
2.98033e-06
-4.50123e-09
2.98504e-06
-4.71474e-09
2.98998e-06
-4.93984e-09
2.99516e-06
-5.17698e-09
3.00058e-06
-5.42661e-09
3.00627e-06
-5.68916e-09
3.01224e-06
-5.96505e-09
3.01849e-06
-6.2547e-09
3.02505e-06
-6.55848e-09
3.03193e-06
-6.87674e-09
3.03914e-06
-7.20978e-09
3.0467e-06
-7.55785e-09
3.05462e-06
-7.92117e-09
3.06292e-06
-8.29986e-09
3.07161e-06
-8.69398e-09
3.08071e-06
-9.1035e-09
3.09024e-06
-9.52829e-09
3.10021e-06
-9.9681e-09
3.11063e-06
-1.04226e-08
3.12153e-06
-1.08912e-08
3.1329e-06
-1.13733e-08
3.14477e-06
-1.18681e-08
3.15714e-06
-1.23747e-08
3.17003e-06
-1.28917e-08
3.18345e-06
-1.34179e-08
3.1974e-06
-1.39516e-08
3.21189e-06
-1.44912e-08
3.22693e-06
-1.50345e-08
3.24251e-06
-1.55795e-08
3.25863e-06
-1.61236e-08
3.2753e-06
-1.66643e-08
3.29249e-06
-1.71988e-08
3.31022e-06
-1.77241e-08
3.32846e-06
-1.8237e-08
3.34719e-06
-1.87342e-08
3.3664e-06
-1.92126e-08
3.38607e-06
-1.96685e-08
3.40617e-06
-2.00987e-08
3.42667e-06
-2.04996e-08
3.44754e-06
-2.0868e-08
3.46874e-06
-2.12006e-08
3.49023e-06
-2.14945e-08
3.51198e-06
-2.17467e-08
3.53393e-06
-2.1955e-08
3.55605e-06
-2.21169e-08
3.57828e-06
-2.22308e-08
3.60058e-06
-2.22953e-08
-2.23094e-08
3.62289e-06
7.66911e-06
-2.95626e-10
7.66977e-06
-8.84423e-10
7.67088e-06
-1.47147e-09
7.67242e-06
-2.05233e-09
7.67439e-06
-2.62499e-09
7.67678e-06
-3.18703e-09
7.67958e-06
-3.73589e-09
7.68279e-06
-4.26923e-09
7.68638e-06
-4.78502e-09
7.69034e-06
-5.28152e-09
7.69466e-06
-5.75725e-09
7.69932e-06
-6.21087e-09
7.7043e-06
-6.64129e-09
7.70959e-06
-7.04757e-09
7.71516e-06
-7.42901e-09
7.72101e-06
-7.78513e-09
7.72709e-06
-8.11565e-09
7.73341e-06
-8.42051e-09
7.73994e-06
-8.69982e-09
7.74666e-06
-8.95388e-09
7.75355e-06
-9.18316e-09
7.76059e-06
-9.38826e-09
7.76777e-06
-9.56991e-09
7.77507e-06
-9.72893e-09
7.78247e-06
-9.86625e-09
7.78996e-06
-9.98287e-09
7.79752e-06
-1.00799e-08
7.80514e-06
-1.01583e-08
7.8128e-06
-1.02193e-08
7.8205e-06
-1.0264e-08
7.82822e-06
-1.02935e-08
7.83596e-06
-1.03091e-08
7.84369e-06
-1.03116e-08
7.85142e-06
-1.03024e-08
7.85913e-06
-1.02823e-08
7.86682e-06
-1.02525e-08
7.87448e-06
-1.02137e-08
7.88211e-06
-1.01671e-08
7.88969e-06
-1.01134e-08
7.89723e-06
-1.00535e-08
7.90472e-06
-9.98802e-09
7.91216e-06
-9.91778e-09
7.91955e-06
-9.84342e-09
7.92687e-06
-9.76553e-09
7.93413e-06
-9.68468e-09
7.94134e-06
-9.60138e-09
7.94847e-06
-9.51609e-09
7.95554e-06
-9.42924e-09
7.96255e-06
-9.34122e-09
7.96949e-06
-9.25236e-09
7.97636e-06
-9.16299e-09
7.98317e-06
-9.07338e-09
7.9899e-06
-8.98379e-09
7.99658e-06
-8.89442e-09
8.00318e-06
-8.80548e-09
8.00972e-06
-8.71713e-09
8.01619e-06
-8.62953e-09
8.0226e-06
-8.54281e-09
8.02894e-06
-8.45707e-09
8.03522e-06
-8.37241e-09
8.04143e-06
-8.28891e-09
8.04759e-06
-8.20663e-09
8.05368e-06
-8.12564e-09
8.05972e-06
-8.04598e-09
8.06569e-06
-7.96767e-09
8.07161e-06
-7.89075e-09
8.07747e-06
-7.81523e-09
8.08328e-06
-7.74113e-09
8.08903e-06
-7.66844e-09
8.09473e-06
-7.59718e-09
8.10037e-06
-7.52733e-09
8.10597e-06
-7.45889e-09
8.11151e-06
-7.39184e-09
8.11701e-06
-7.32618e-09
8.12245e-06
-7.26188e-09
8.12785e-06
-7.19892e-09
8.1332e-06
-7.13728e-09
8.13851e-06
-7.07695e-09
8.14377e-06
-7.01789e-09
8.14899e-06
-6.96008e-09
8.15417e-06
-6.90349e-09
8.15931e-06
-6.84811e-09
8.1644e-06
-6.79389e-09
8.16946e-06
-6.74083e-09
8.17448e-06
-6.68887e-09
8.17945e-06
-6.63801e-09
8.1844e-06
-6.58822e-09
8.1893e-06
-6.53946e-09
8.19417e-06
-6.49171e-09
8.199e-06
-6.44494e-09
8.2038e-06
-6.39913e-09
8.20857e-06
-6.35426e-09
8.2133e-06
-6.31029e-09
8.218e-06
-6.2672e-09
8.22267e-06
-6.22498e-09
8.22731e-06
-6.18359e-09
8.23191e-06
-6.14301e-09
8.23649e-06
-6.10323e-09
8.24104e-06
-6.06421e-09
8.24556e-06
-6.02595e-09
8.25005e-06
-5.98841e-09
8.25451e-06
-5.95157e-09
8.25895e-06
-5.91543e-09
8.26336e-06
-5.87995e-09
8.26774e-06
-5.84513e-09
8.2721e-06
-5.81094e-09
8.27643e-06
-5.77737e-09
8.28074e-06
-5.7444e-09
8.28503e-06
-5.71201e-09
8.28929e-06
-5.68019e-09
8.29352e-06
-5.64892e-09
8.29774e-06
-5.6182e-09
8.30193e-06
-5.588e-09
8.3061e-06
-5.55831e-09
8.31024e-06
-5.52912e-09
8.31437e-06
-5.50042e-09
8.31847e-06
-5.47219e-09
8.32256e-06
-5.44443e-09
8.32662e-06
-5.41712e-09
8.33066e-06
-5.39025e-09
8.33468e-06
-5.36381e-09
8.33869e-06
-5.3378e-09
8.34267e-06
-5.31219e-09
8.34664e-06
-5.28699e-09
8.35058e-06
-5.26219e-09
8.35451e-06
-5.23777e-09
8.35842e-06
-5.21373e-09
8.36232e-06
-5.19007e-09
8.36619e-06
-5.16676e-09
8.37005e-06
-5.14382e-09
8.37389e-06
-5.12122e-09
8.37771e-06
-5.09898e-09
8.38152e-06
-5.07707e-09
8.38531e-06
-5.05549e-09
8.38909e-06
-5.03425e-09
8.39285e-06
-5.01333e-09
8.39659e-06
-4.99273e-09
8.40032e-06
-4.97245e-09
8.40404e-06
-4.95248e-09
8.40774e-06
-4.93283e-09
8.41142e-06
-4.91348e-09
8.41509e-06
-4.89444e-09
8.41875e-06
-4.8757e-09
8.42239e-06
-4.85726e-09
8.42602e-06
-4.83913e-09
8.42964e-06
-4.82129e-09
8.43324e-06
-4.80376e-09
8.43683e-06
-4.78653e-09
8.44041e-06
-4.76959e-09
8.44397e-06
-4.75296e-09
8.44752e-06
-4.73663e-09
8.45106e-06
-4.72061e-09
8.45459e-06
-4.7049e-09
8.45811e-06
-4.6895e-09
8.46162e-06
-4.67441e-09
8.46511e-06
-4.65964e-09
8.46859e-06
-4.6452e-09
8.47207e-06
-4.63108e-09
8.47553e-06
-4.6173e-09
8.47898e-06
-4.60387e-09
8.48243e-06
-4.59079e-09
8.48586e-06
-4.57806e-09
8.48928e-06
-4.5657e-09
8.4927e-06
-4.55372e-09
8.49611e-06
-4.54214e-09
8.4995e-06
-4.53095e-09
8.50289e-06
-4.52018e-09
8.50628e-06
-4.50984e-09
8.50965e-06
-4.49994e-09
8.51302e-06
-4.4905e-09
8.51638e-06
-4.48155e-09
8.51974e-06
-4.47309e-09
8.52308e-06
-4.46516e-09
8.52643e-06
-4.45776e-09
8.52977e-06
-4.45093e-09
8.5331e-06
-4.44469e-09
8.53643e-06
-4.43908e-09
8.53975e-06
-4.43411e-09
8.54308e-06
-4.42982e-09
8.5464e-06
-4.42625e-09
8.54971e-06
-4.42343e-09
8.55303e-06
-4.42139e-09
8.55634e-06
-4.42019e-09
8.55966e-06
-4.41987e-09
8.56297e-06
-4.42046e-09
8.56629e-06
-4.42203e-09
8.56961e-06
-4.42463e-09
8.57293e-06
-4.42831e-09
8.57626e-06
-4.43313e-09
8.57958e-06
-4.43916e-09
8.58292e-06
-4.44648e-09
8.58626e-06
-4.45514e-09
8.58961e-06
-4.46524e-09
8.59297e-06
-4.47686e-09
8.59633e-06
-4.49008e-09
8.59971e-06
-4.505e-09
8.6031e-06
-4.52172e-09
8.60651e-06
-4.54036e-09
8.60993e-06
-4.56102e-09
8.61337e-06
-4.58383e-09
8.61682e-06
-4.60891e-09
8.6203e-06
-4.63641e-09
8.6238e-06
-4.66648e-09
8.62732e-06
-4.69927e-09
8.63088e-06
-4.73494e-09
8.63446e-06
-4.77368e-09
8.63807e-06
-4.81567e-09
8.64171e-06
-4.86111e-09
8.64539e-06
-4.91021e-09
8.64912e-06
-4.96321e-09
8.65288e-06
-5.02034e-09
8.65669e-06
-5.08186e-09
8.66055e-06
-5.14803e-09
8.66447e-06
-5.21914e-09
8.66844e-06
-5.29551e-09
8.67247e-06
-5.37745e-09
8.67657e-06
-5.46531e-09
8.68074e-06
-5.55945e-09
8.68498e-06
-5.66025e-09
8.68931e-06
-5.76814e-09
8.69372e-06
-5.88354e-09
8.69822e-06
-6.00691e-09
8.70283e-06
-6.13875e-09
8.70754e-06
-6.27956e-09
8.71236e-06
-6.42989e-09
8.7173e-06
-6.59033e-09
8.72237e-06
-6.76148e-09
8.72758e-06
-6.944e-09
8.73293e-06
-7.13855e-09
8.73844e-06
-7.34587e-09
8.74411e-06
-7.56672e-09
8.74996e-06
-7.80189e-09
8.756e-06
-8.05224e-09
8.76224e-06
-8.31865e-09
8.76869e-06
-8.60207e-09
8.77536e-06
-8.90347e-09
8.78228e-06
-9.2239e-09
8.78945e-06
-9.56444e-09
8.79689e-06
-9.92623e-09
8.80462e-06
-1.03105e-08
8.81266e-06
-1.07184e-08
8.82102e-06
-1.11513e-08
8.82973e-06
-1.16106e-08
8.8388e-06
-1.20976e-08
8.84826e-06
-1.26139e-08
8.85812e-06
-1.31609e-08
8.86843e-06
-1.37403e-08
8.87919e-06
-1.43536e-08
8.89044e-06
-1.50025e-08
8.9022e-06
-1.56888e-08
8.91451e-06
-1.64141e-08
8.92739e-06
-1.71804e-08
8.94088e-06
-1.79893e-08
8.955e-06
-1.88428e-08
8.96981e-06
-1.97426e-08
8.98532e-06
-2.06905e-08
9.00158e-06
-2.16884e-08
9.01863e-06
-2.27381e-08
9.03651e-06
-2.38412e-08
9.05525e-06
-2.49993e-08
9.07491e-06
-2.6214e-08
9.09552e-06
-2.74867e-08
9.11713e-06
-2.88185e-08
9.13978e-06
-3.02107e-08
9.16352e-06
-3.16639e-08
9.1884e-06
-3.31787e-08
9.21446e-06
-3.47553e-08
9.24175e-06
-3.63938e-08
9.27032e-06
-3.80934e-08
9.3002e-06
-3.98534e-08
9.33145e-06
-4.16722e-08
9.36411e-06
-4.35479e-08
9.39821e-06
-4.54778e-08
9.4338e-06
-4.74587e-08
9.47092e-06
-4.94867e-08
9.50958e-06
-5.1557e-08
9.54983e-06
-5.36642e-08
9.59168e-06
-5.5802e-08
9.63515e-06
-5.79634e-08
9.68026e-06
-6.01402e-08
9.727e-06
-6.23237e-08
9.77538e-06
-6.45043e-08
9.82539e-06
-6.66713e-08
9.877e-06
-6.88136e-08
9.9302e-06
-7.09192e-08
9.98494e-06
-7.29756e-08
1.00412e-05
-7.49695e-08
1.00988e-05
-7.68877e-08
1.01579e-05
-7.87162e-08
1.02182e-05
-8.04413e-08
1.02798e-05
-8.20494e-08
1.03424e-05
-8.3527e-08
1.04061e-05
-8.48613e-08
1.04707e-05
-8.604e-08
1.0536e-05
-8.7052e-08
1.06019e-05
-8.78871e-08
1.06683e-05
-8.85365e-08
1.07351e-05
-8.89931e-08
1.0802e-05
-8.92512e-08
-8.9307e-08
1.0869e-05
1.27819e-05
-6.66682e-10
1.2783e-05
-1.99504e-09
1.27848e-05
-3.32001e-09
1.27874e-05
-4.63104e-09
1.27907e-05
-5.92276e-09
1.27947e-05
-7.18989e-09
1.27994e-05
-8.42713e-09
1.28047e-05
-9.62941e-09
1.28107e-05
-1.07922e-08
1.28174e-05
-1.19114e-08
1.28246e-05
-1.29835e-08
1.28324e-05
-1.40057e-08
1.28407e-05
-1.49752e-08
1.28496e-05
-1.58902e-08
1.28589e-05
-1.6749e-08
1.28687e-05
-1.75506e-08
1.28788e-05
-1.82943e-08
1.28894e-05
-1.898e-08
1.29003e-05
-1.9608e-08
1.29115e-05
-2.0179e-08
1.2923e-05
-2.0694e-08
1.29348e-05
-2.11545e-08
1.29468e-05
-2.15621e-08
1.2959e-05
-2.19186e-08
1.29714e-05
-2.22263e-08
1.29839e-05
-2.24873e-08
1.29965e-05
-2.2704e-08
1.30092e-05
-2.2879e-08
1.3022e-05
-2.30147e-08
1.30348e-05
-2.31138e-08
1.30477e-05
-2.31788e-08
1.30606e-05
-2.32123e-08
1.30735e-05
-2.32167e-08
1.30864e-05
-2.31945e-08
1.30993e-05
-2.31481e-08
1.31121e-05
-2.30796e-08
1.31249e-05
-2.29913e-08
1.31376e-05
-2.28853e-08
1.31503e-05
-2.27634e-08
1.31628e-05
-2.26275e-08
1.31753e-05
-2.24793e-08
1.31877e-05
-2.23205e-08
1.32e-05
-2.21523e-08
1.32123e-05
-2.19764e-08
1.32244e-05
-2.17938e-08
1.32364e-05
-2.16058e-08
1.32483e-05
-2.14133e-08
1.32601e-05
-2.12174e-08
1.32717e-05
-2.10189e-08
1.32833e-05
-2.08186e-08
1.32948e-05
-2.06171e-08
1.33061e-05
-2.04152e-08
1.33173e-05
-2.02133e-08
1.33284e-05
-2.0012e-08
1.33394e-05
-1.98116e-08
1.33503e-05
-1.96126e-08
1.33611e-05
-1.94154e-08
1.33718e-05
-1.92201e-08
1.33824e-05
-1.90271e-08
1.33928e-05
-1.88365e-08
1.34032e-05
-1.86485e-08
1.34135e-05
-1.84633e-08
1.34236e-05
-1.8281e-08
1.34337e-05
-1.81018e-08
1.34436e-05
-1.79255e-08
1.34535e-05
-1.77524e-08
1.34633e-05
-1.75825e-08
1.34729e-05
-1.74158e-08
1.34825e-05
-1.72522e-08
1.3492e-05
-1.70919e-08
1.35014e-05
-1.69347e-08
1.35107e-05
-1.67808e-08
1.352e-05
-1.66299e-08
1.35291e-05
-1.64822e-08
1.35382e-05
-1.63376e-08
1.35472e-05
-1.61959e-08
1.35561e-05
-1.60573e-08
1.3565e-05
-1.59216e-08
1.35737e-05
-1.57887e-08
1.35824e-05
-1.56587e-08
1.35911e-05
-1.55314e-08
1.35996e-05
-1.54068e-08
1.36081e-05
-1.52849e-08
1.36165e-05
-1.51655e-08
1.36249e-05
-1.50486e-08
1.36332e-05
-1.49342e-08
1.36414e-05
-1.48222e-08
1.36496e-05
-1.47125e-08
1.36577e-05
-1.46051e-08
1.36658e-05
-1.45e-08
1.36738e-05
-1.43969e-08
1.36817e-05
-1.4296e-08
1.36896e-05
-1.41971e-08
1.36974e-05
-1.41002e-08
1.37052e-05
-1.40052e-08
1.37129e-05
-1.39121e-08
1.37206e-05
-1.38208e-08
1.37282e-05
-1.37314e-08
1.37358e-05
-1.36436e-08
1.37434e-05
-1.35575e-08
1.37508e-05
-1.34731e-08
1.37583e-05
-1.33902e-08
1.37657e-05
-1.33089e-08
1.3773e-05
-1.32291e-08
1.37803e-05
-1.31508e-08
1.37876e-05
-1.30739e-08
1.37948e-05
-1.29984e-08
1.3802e-05
-1.29242e-08
1.38091e-05
-1.28514e-08
1.38162e-05
-1.27798e-08
1.38233e-05
-1.27095e-08
1.38303e-05
-1.26404e-08
1.38373e-05
-1.25724e-08
1.38442e-05
-1.25056e-08
1.38512e-05
-1.244e-08
1.3858e-05
-1.23754e-08
1.38649e-05
-1.23119e-08
1.38717e-05
-1.22495e-08
1.38784e-05
-1.2188e-08
1.38852e-05
-1.21276e-08
1.38919e-05
-1.20681e-08
1.38986e-05
-1.20096e-08
1.39052e-05
-1.1952e-08
1.39118e-05
-1.18953e-08
1.39184e-05
-1.18395e-08
1.39249e-05
-1.17846e-08
1.39315e-05
-1.17305e-08
1.39379e-05
-1.16773e-08
1.39444e-05
-1.16249e-08
1.39508e-05
-1.15732e-08
1.39572e-05
-1.15224e-08
1.39636e-05
-1.14724e-08
1.39699e-05
-1.14231e-08
1.39763e-05
-1.13745e-08
1.39826e-05
-1.13267e-08
1.39888e-05
-1.12797e-08
1.39951e-05
-1.12333e-08
1.40013e-05
-1.11877e-08
1.40075e-05
-1.11428e-08
1.40136e-05
-1.10986e-08
1.40198e-05
-1.1055e-08
1.40259e-05
-1.10122e-08
1.4032e-05
-1.097e-08
1.40381e-05
-1.09286e-08
1.40441e-05
-1.08877e-08
1.40501e-05
-1.08476e-08
1.40561e-05
-1.08082e-08
1.40621e-05
-1.07694e-08
1.40681e-05
-1.07313e-08
1.4074e-05
-1.06939e-08
1.40799e-05
-1.06571e-08
1.40858e-05
-1.06211e-08
1.40917e-05
-1.05857e-08
1.40976e-05
-1.05511e-08
1.41034e-05
-1.05171e-08
1.41093e-05
-1.04839e-08
1.41151e-05
-1.04514e-08
1.41209e-05
-1.04196e-08
1.41266e-05
-1.03886e-08
1.41324e-05
-1.03583e-08
1.41381e-05
-1.03289e-08
1.41438e-05
-1.03003e-08
1.41495e-05
-1.02724e-08
1.41552e-05
-1.02455e-08
1.41609e-05
-1.02194e-08
1.41666e-05
-1.01942e-08
1.41722e-05
-1.01699e-08
1.41779e-05
-1.01466e-08
1.41835e-05
-1.01244e-08
1.41891e-05
-1.01031e-08
1.41947e-05
-1.00829e-08
1.42003e-05
-1.00639e-08
1.42059e-05
-1.0046e-08
1.42114e-05
-1.00293e-08
1.4217e-05
-1.00139e-08
1.42226e-05
-9.99984e-09
1.42281e-05
-9.98716e-09
1.42337e-05
-9.97594e-09
1.42392e-05
-9.96625e-09
1.42447e-05
-9.95816e-09
1.42502e-05
-9.95176e-09
1.42558e-05
-9.94713e-09
1.42613e-05
-9.94436e-09
1.42668e-05
-9.94357e-09
1.42723e-05
-9.94484e-09
1.42779e-05
-9.9483e-09
1.42834e-05
-9.95406e-09
1.42889e-05
-9.96225e-09
1.42945e-05
-9.97302e-09
1.43e-05
-9.9865e-09
1.43056e-05
-1.00029e-08
1.43111e-05
-1.00222e-08
1.43167e-05
-1.00449e-08
1.43223e-05
-1.00709e-08
1.43279e-05
-1.01005e-08
1.43336e-05
-1.01339e-08
1.43392e-05
-1.01714e-08
1.43449e-05
-1.02132e-08
1.43506e-05
-1.02595e-08
1.43563e-05
-1.03106e-08
1.43621e-05
-1.03669e-08
1.43679e-05
-1.04286e-08
1.43737e-05
-1.0496e-08
1.43796e-05
-1.05696e-08
1.43855e-05
-1.06496e-08
1.43914e-05
-1.07365e-08
1.43975e-05
-1.08307e-08
1.44035e-05
-1.09326e-08
1.44097e-05
-1.10428e-08
1.44159e-05
-1.11617e-08
1.44221e-05
-1.12899e-08
1.44285e-05
-1.1428e-08
1.44349e-05
-1.15765e-08
1.44414e-05
-1.17361e-08
1.4448e-05
-1.19075e-08
1.44547e-05
-1.20914e-08
1.44616e-05
-1.22886e-08
1.44685e-05
-1.24998e-08
1.44756e-05
-1.27261e-08
1.44828e-05
-1.29683e-08
1.44901e-05
-1.32273e-08
1.44976e-05
-1.35042e-08
1.45053e-05
-1.38001e-08
1.45131e-05
-1.41162e-08
1.45211e-05
-1.44537e-08
1.45294e-05
-1.48139e-08
1.45378e-05
-1.51981e-08
1.45465e-05
-1.56078e-08
1.45554e-05
-1.60446e-08
1.45645e-05
-1.651e-08
1.4574e-05
-1.70058e-08
1.45837e-05
-1.75338e-08
1.45937e-05
-1.80959e-08
1.46041e-05
-1.86941e-08
1.46148e-05
-1.93304e-08
1.46259e-05
-2.00072e-08
1.46375e-05
-2.07267e-08
1.46494e-05
-2.14914e-08
1.46618e-05
-2.23038e-08
1.46746e-05
-2.31666e-08
1.4688e-05
-2.40827e-08
1.47019e-05
-2.50549e-08
1.47164e-05
-2.60864e-08
1.47314e-05
-2.71802e-08
1.47472e-05
-2.83398e-08
1.47636e-05
-2.95685e-08
1.47807e-05
-3.08698e-08
1.47986e-05
-3.22475e-08
1.48173e-05
-3.37053e-08
1.48369e-05
-3.52471e-08
1.48573e-05
-3.68767e-08
1.48787e-05
-3.85984e-08
1.49012e-05
-4.0416e-08
1.49247e-05
-4.23338e-08
1.49493e-05
-4.43559e-08
1.49751e-05
-4.64864e-08
1.50021e-05
-4.87294e-08
1.50305e-05
-5.10888e-08
1.50602e-05
-5.35686e-08
1.50914e-05
-5.61724e-08
1.5124e-05
-5.89036e-08
1.51583e-05
-6.17655e-08
1.51943e-05
-6.47609e-08
1.52319e-05
-6.78922e-08
1.52714e-05
-7.11612e-08
1.53128e-05
-7.45693e-08
1.53562e-05
-7.81171e-08
1.54016e-05
-8.18044e-08
1.54491e-05
-8.56301e-08
1.54989e-05
-8.95921e-08
1.55509e-05
-9.36873e-08
1.56053e-05
-9.79113e-08
1.5662e-05
-1.02258e-07
1.57213e-05
-1.06721e-07
1.57831e-05
-1.1129e-07
1.58475e-05
-1.15956e-07
1.59146e-05
-1.20706e-07
1.59843e-05
-1.25526e-07
1.60567e-05
-1.304e-07
1.61319e-05
-1.3531e-07
1.62098e-05
-1.40237e-07
1.62904e-05
-1.45157e-07
1.63738e-05
-1.50049e-07
1.64599e-05
-1.54885e-07
1.65486e-05
-1.5964e-07
1.66399e-05
-1.64285e-07
1.67337e-05
-1.68789e-07
1.683e-05
-1.73123e-07
1.69285e-05
-1.77256e-07
1.70292e-05
-1.81156e-07
1.7132e-05
-1.84792e-07
1.72366e-05
-1.88134e-07
1.73429e-05
-1.91152e-07
1.74507e-05
-1.93818e-07
1.75597e-05
-1.96108e-07
1.76698e-05
-1.97998e-07
1.77808e-05
-1.99468e-07
1.78923e-05
-2.00502e-07
1.80041e-05
-2.01087e-07
-2.01214e-07
1.8116e-05
1.78946e-05
-1.18962e-09
1.78962e-05
-3.55991e-09
1.78988e-05
-5.92414e-09
1.79024e-05
-8.26368e-09
1.7907e-05
-1.05683e-08
1.79127e-05
-1.28285e-08
1.79193e-05
-1.50348e-08
1.79268e-05
-1.71785e-08
1.79353e-05
-1.92513e-08
1.79446e-05
-2.12462e-08
1.79548e-05
-2.31568e-08
1.79658e-05
-2.49777e-08
1.79775e-05
-2.67044e-08
1.79899e-05
-2.83333e-08
1.80031e-05
-2.98615e-08
1.80168e-05
-3.12873e-08
1.80311e-05
-3.26096e-08
1.8046e-05
-3.38281e-08
1.80613e-05
-3.49435e-08
1.80771e-05
-3.5957e-08
1.80933e-05
-3.68706e-08
1.81098e-05
-3.76868e-08
1.81266e-05
-3.84085e-08
1.81438e-05
-3.90393e-08
1.81611e-05
-3.95828e-08
1.81787e-05
-4.00433e-08
1.81964e-05
-4.04249e-08
1.82142e-05
-4.07323e-08
1.82322e-05
-4.09698e-08
1.82502e-05
-4.11422e-08
1.82683e-05
-4.1254e-08
1.82864e-05
-4.13097e-08
1.83045e-05
-4.1314e-08
1.83226e-05
-4.1271e-08
1.83406e-05
-4.11851e-08
1.83586e-05
-4.10602e-08
1.83765e-05
-4.09002e-08
1.83943e-05
-4.07088e-08
1.8412e-05
-4.04894e-08
1.84297e-05
-4.02453e-08
1.84472e-05
-3.99795e-08
1.84645e-05
-3.96948e-08
1.84818e-05
-3.9394e-08
1.84989e-05
-3.90793e-08
1.85158e-05
-3.8753e-08
1.85327e-05
-3.84171e-08
1.85493e-05
-3.80736e-08
1.85658e-05
-3.7724e-08
1.85822e-05
-3.73699e-08
1.85984e-05
-3.70128e-08
1.86144e-05
-3.66537e-08
1.86303e-05
-3.62939e-08
1.8646e-05
-3.59342e-08
1.86616e-05
-3.55757e-08
1.8677e-05
-3.52189e-08
1.86922e-05
-3.48647e-08
1.87073e-05
-3.45136e-08
1.87223e-05
-3.4166e-08
1.87371e-05
-3.38225e-08
1.87517e-05
-3.34835e-08
1.87662e-05
-3.31491e-08
1.87806e-05
-3.28197e-08
1.87948e-05
-3.24955e-08
1.88089e-05
-3.21766e-08
1.88228e-05
-3.18632e-08
1.88366e-05
-3.15555e-08
1.88503e-05
-3.12533e-08
1.88638e-05
-3.09569e-08
1.88772e-05
-3.06661e-08
1.88905e-05
-3.03811e-08
1.89037e-05
-3.01018e-08
1.89167e-05
-2.98281e-08
1.89297e-05
-2.956e-08
1.89425e-05
-2.92974e-08
1.89552e-05
-2.90403e-08
1.89678e-05
-2.87886e-08
1.89803e-05
-2.85422e-08
1.89926e-05
-2.8301e-08
1.90049e-05
-2.80649e-08
1.90171e-05
-2.78338e-08
1.90292e-05
-2.76076e-08
1.90411e-05
-2.73862e-08
1.9053e-05
-2.71695e-08
1.90648e-05
-2.69574e-08
1.90765e-05
-2.67498e-08
1.90881e-05
-2.65465e-08
1.90997e-05
-2.63474e-08
1.91111e-05
-2.61525e-08
1.91224e-05
-2.59617e-08
1.91337e-05
-2.57748e-08
1.91449e-05
-2.55917e-08
1.9156e-05
-2.54123e-08
1.91671e-05
-2.52366e-08
1.9178e-05
-2.50644e-08
1.91889e-05
-2.48956e-08
1.91997e-05
-2.47302e-08
1.92105e-05
-2.4568e-08
1.92212e-05
-2.4409e-08
1.92318e-05
-2.42531e-08
1.92423e-05
-2.41001e-08
1.92528e-05
-2.39501e-08
1.92632e-05
-2.38028e-08
1.92736e-05
-2.36584e-08
1.92838e-05
-2.35166e-08
1.92941e-05
-2.33774e-08
1.93042e-05
-2.32407e-08
1.93144e-05
-2.31065e-08
1.93244e-05
-2.29747e-08
1.93344e-05
-2.28453e-08
1.93443e-05
-2.27181e-08
1.93542e-05
-2.25931e-08
1.9364e-05
-2.24703e-08
1.93738e-05
-2.23495e-08
1.93835e-05
-2.22309e-08
1.93932e-05
-2.21142e-08
1.94028e-05
-2.19994e-08
1.94124e-05
-2.18866e-08
1.94219e-05
-2.17756e-08
1.94314e-05
-2.16664e-08
1.94409e-05
-2.1559e-08
1.94502e-05
-2.14533e-08
1.94596e-05
-2.13493e-08
1.94689e-05
-2.12469e-08
1.94781e-05
-2.11462e-08
1.94873e-05
-2.1047e-08
1.94965e-05
-2.09494e-08
1.95056e-05
-2.08533e-08
1.95147e-05
-2.07587e-08
1.95237e-05
-2.06655e-08
1.95327e-05
-2.05737e-08
1.95417e-05
-2.04834e-08
1.95506e-05
-2.03944e-08
1.95595e-05
-2.03068e-08
1.95684e-05
-2.02206e-08
1.95772e-05
-2.01356e-08
1.95859e-05
-2.0052e-08
1.95947e-05
-1.99696e-08
1.96034e-05
-1.98885e-08
1.9612e-05
-1.98086e-08
1.96207e-05
-1.973e-08
1.96293e-05
-1.96526e-08
1.96378e-05
-1.95765e-08
1.96464e-05
-1.95015e-08
1.96549e-05
-1.94278e-08
1.96633e-05
-1.93553e-08
1.96718e-05
-1.92839e-08
1.96802e-05
-1.92138e-08
1.96886e-05
-1.91449e-08
1.96969e-05
-1.90771e-08
1.97052e-05
-1.90106e-08
1.97135e-05
-1.89453e-08
1.97218e-05
-1.88812e-08
1.973e-05
-1.88183e-08
1.97382e-05
-1.87567e-08
1.97464e-05
-1.86963e-08
1.97545e-05
-1.86372e-08
1.97627e-05
-1.85794e-08
1.97708e-05
-1.85229e-08
1.97788e-05
-1.84677e-08
1.97869e-05
-1.84139e-08
1.97949e-05
-1.83616e-08
1.98029e-05
-1.83106e-08
1.98109e-05
-1.82611e-08
1.98189e-05
-1.82131e-08
1.98268e-05
-1.81667e-08
1.98348e-05
-1.81219e-08
1.98427e-05
-1.80787e-08
1.98506e-05
-1.80373e-08
1.98584e-05
-1.79976e-08
1.98663e-05
-1.79597e-08
1.98741e-05
-1.79238e-08
1.9882e-05
-1.78899e-08
1.98898e-05
-1.7858e-08
1.98976e-05
-1.78283e-08
1.99054e-05
-1.78008e-08
1.99131e-05
-1.77757e-08
1.99209e-05
-1.7753e-08
1.99287e-05
-1.7733e-08
1.99364e-05
-1.77156e-08
1.99442e-05
-1.77011e-08
1.99519e-05
-1.76896e-08
1.99596e-05
-1.76813e-08
1.99674e-05
-1.76762e-08
1.99751e-05
-1.76746e-08
1.99828e-05
-1.76767e-08
1.99906e-05
-1.76827e-08
1.99983e-05
-1.76927e-08
2.0006e-05
-1.77071e-08
2.00138e-05
-1.7726e-08
2.00216e-05
-1.77497e-08
2.00293e-05
-1.77786e-08
2.00371e-05
-1.78128e-08
2.00449e-05
-1.78527e-08
2.00528e-05
-1.78986e-08
2.00606e-05
-1.7951e-08
2.00685e-05
-1.80101e-08
2.00764e-05
-1.80763e-08
2.00843e-05
-1.81502e-08
2.00923e-05
-1.82321e-08
2.01003e-05
-1.83226e-08
2.01084e-05
-1.84222e-08
2.01165e-05
-1.85313e-08
2.01246e-05
-1.86507e-08
2.01328e-05
-1.87809e-08
2.01411e-05
-1.89225e-08
2.01495e-05
-1.90764e-08
2.01579e-05
-1.92432e-08
2.01664e-05
-1.94237e-08
2.01749e-05
-1.96188e-08
2.01836e-05
-1.98294e-08
2.01924e-05
-2.00565e-08
2.02012e-05
-2.0301e-08
2.02102e-05
-2.0564e-08
2.02193e-05
-2.08467e-08
2.02286e-05
-2.11503e-08
2.0238e-05
-2.14761e-08
2.02475e-05
-2.18254e-08
2.02572e-05
-2.21997e-08
2.02671e-05
-2.26006e-08
2.02771e-05
-2.30296e-08
2.02874e-05
-2.34885e-08
2.02979e-05
-2.39792e-08
2.03086e-05
-2.45035e-08
2.03195e-05
-2.50636e-08
2.03307e-05
-2.56616e-08
2.03422e-05
-2.62998e-08
2.0354e-05
-2.69807e-08
2.03661e-05
-2.77068e-08
2.03785e-05
-2.84808e-08
2.03913e-05
-2.93057e-08
2.04045e-05
-3.01845e-08
2.04181e-05
-3.11203e-08
2.04321e-05
-3.21165e-08
2.04466e-05
-3.31767e-08
2.04616e-05
-3.43047e-08
2.04771e-05
-3.55043e-08
2.04931e-05
-3.67797e-08
2.05098e-05
-3.81353e-08
2.0527e-05
-3.95756e-08
2.0545e-05
-4.11053e-08
2.05636e-05
-4.27295e-08
2.0583e-05
-4.44533e-08
2.06032e-05
-4.62822e-08
2.06243e-05
-4.82218e-08
2.06462e-05
-5.02781e-08
2.06691e-05
-5.24571e-08
2.0693e-05
-5.47651e-08
2.07179e-05
-5.72087e-08
2.0744e-05
-5.97945e-08
2.07713e-05
-6.25294e-08
2.07999e-05
-6.54206e-08
2.08297e-05
-6.84752e-08
2.0861e-05
-7.17004e-08
2.08938e-05
-7.51036e-08
2.09281e-05
-7.86923e-08
2.09641e-05
-8.24737e-08
2.10018e-05
-8.64553e-08
2.10414e-05
-9.0644e-08
2.10829e-05
-9.5047e-08
2.11264e-05
-9.96708e-08
2.1172e-05
-1.04522e-07
2.12198e-05
-1.09605e-07
2.127e-05
-1.14927e-07
2.13226e-05
-1.20491e-07
2.13777e-05
-1.26301e-07
2.14355e-05
-1.32359e-07
2.14961e-05
-1.38666e-07
2.15595e-05
-1.45223e-07
2.16259e-05
-1.52028e-07
2.16954e-05
-1.59076e-07
2.1768e-05
-1.66364e-07
2.1844e-05
-1.73882e-07
2.19234e-05
-1.81621e-07
2.20062e-05
-1.89568e-07
2.20926e-05
-1.97707e-07
2.21827e-05
-2.06021e-07
2.22765e-05
-2.14487e-07
2.2374e-05
-2.23081e-07
2.24754e-05
-2.31773e-07
2.25806e-05
-2.40532e-07
2.26897e-05
-2.49323e-07
2.28027e-05
-2.58107e-07