/*--------------------------------*- C++ -*----------------------------------*\
  =========                 |
  \\      /  F ield         | OpenFOAM: The Open Source CFD Toolbox
   \\    /   O peration     | Website:  https://openfoam.org
    \\  /    A nd           | Version:  7
     \\/     M anipulation  |
\*---------------------------------------------------------------------------*/
FoamFile
{
    version     2.0;
    format      ascii;
    class       volScalarField;
    location    "100.999584";
    object      p;
}
// * * * * * * * * * * * * * * * * * * * * * * * * * * * * * * * * * * * * * //

dimensions      [0 2 -2 0 0 0 0];

internalField   nonuniform List<scalar> 
5800
(
-0.329398
-0.32115
-0.311825
-0.301834
-0.291493
-0.0115737
-0.0118811
-0.0121821
-0.0124759
-0.0127617
-0.0130387
-0.0133059
-0.0135626
-0.0138079
-0.0140407
-0.0142602
-0.0144654
-0.0146552
-0.0148288
-0.014985
-0.0151228
-0.0152413
-0.0153394
-0.0154161
-0.0154704
-0.0155014
-0.0155082
-0.0154897
-0.0154453
-0.0153741
-0.0152753
-0.0151483
-0.0149925
-0.0148074
-0.0145926
-0.0143479
-0.0140731
-0.0137683
-0.0134336
-0.0130693
-0.012676
-0.0122545
-0.0118057
-0.0113308
-0.0108314
-0.0103091
-0.00976634
-0.00920511
-0.00862867
-0.00803953
-0.00744194
-0.00683876
-0.00623536
-0.0056348
-0.0050436
-0.00446475
-0.00390548
-0.00336882
-0.00286187
-0.00238798
-0.00195215
-0.0015589
-0.00120784
-0.000906763
-0.000644742
-0.000436625
-0.000254603
-0.000127476
-8.86387e-06
-0.01166
-0.011968
-0.0122695
-0.0125638
-0.0128499
-0.0131271
-0.0133945
-0.0136513
-0.0138965
-0.0141291
-0.0143483
-0.014553
-0.0147423
-0.0149151
-0.0150704
-0.0152072
-0.0153245
-0.0154213
-0.0154966
-0.0155493
-0.0155786
-0.0155834
-0.015563
-0.0155163
-0.0154428
-0.0153415
-0.0152119
-0.0150533
-0.0148653
-0.0146475
-0.0143997
-0.0141216
-0.0138134
-0.0134752
-0.0131073
-0.0127103
-0.0122848
-0.0118321
-0.0113531
-0.0108496
-0.0103231
-0.00977598
-0.00921037
-0.00862953
-0.00803595
-0.00743398
-0.00682644
-0.00621884
-0.00561418
-0.00501918
-0.00443676
-0.00387446
-0.0033351
-0.00282621
-0.0023509
-0.00191462
-0.00152168
-0.00117202
-0.000873422
-0.000614847
-0.000411677
-0.000235031
-0.000115404
-3.41979e-06
-0.0118263
-0.0121358
-0.0124386
-0.0127339
-0.0130208
-0.0132987
-0.0135665
-0.0138235
-0.0140686
-0.0143009
-0.0145195
-0.0147234
-0.0149116
-0.015083
-0.0152366
-0.0153715
-0.0154866
-0.0155808
-0.0156532
-0.0157028
-0.0157287
-0.0157298
-0.0157053
-0.0156544
-0.0155763
-0.0154702
-0.0153355
-0.0151715
-0.0149779
-0.0147543
-0.0145003
-0.0142159
-0.013901
-0.013556
-0.013181
-0.0127768
-0.0123439
-0.0118834
-0.0113965
-0.0108849
-0.0103501
-0.00979466
-0.00922053
-0.00863111
-0.0080289
-0.00741836
-0.00680234
-0.0061865
-0.00557388
-0.0049714
-0.00438209
-0.00381371
-0.00326921
-0.00275634
-0.00227841
-0.00184106
-0.00144889
-0.00110179
-0.000808127
-0.000556222
-0.000362593
-0.000196677
-9.1041e-05
6.8671e-06
-0.0120708
-0.0123824
-0.012687
-0.0129837
-0.0132718
-0.0135505
-0.0138189
-0.014076
-0.014321
-0.0145528
-0.0147705
-0.0149731
-0.0151596
-0.0153289
-0.01548
-0.015612
-0.0157237
-0.0158142
-0.0158824
-0.0159274
-0.0159481
-0.0159438
-0.0159135
-0.0158563
-0.0157714
-0.0156582
-0.015516
-0.0153442
-0.0151424
-0.0149101
-0.0146472
-0.0143535
-0.014029
-0.013674
-0.0132887
-0.0128738
-0.0124299
-0.0119582
-0.0114598
-0.0109364
-0.0103895
-0.00982179
-0.00923519
-0.00863319
-0.00801835
-0.00739523
-0.00676676
-0.0061388
-0.00551447
-0.00490097
-0.00430148
-0.00372413
-0.00317202
-0.00265322
-0.00217139
-0.00173237
-0.00134132
-0.000997909
-0.000711505
-0.000469379
-0.000289806
-0.00013973
-5.47227e-05
2.19637e-05
-0.0123899
-0.0127042
-0.0130112
-0.0133098
-0.0135994
-0.0138792
-0.0141482
-0.0144055
-0.0146503
-0.0148813
-0.0150978
-0.0152987
-0.0154829
-0.0156494
-0.0157972
-0.0159253
-0.0160326
-0.016118
-0.0161807
-0.0162196
-0.0162337
-0.0162222
-0.0161841
-0.0161187
-0.0160251
-0.0159026
-0.0157506
-0.0155685
-0.015356
-0.0151125
-0.0148379
-0.0145321
-0.0141951
-0.0138271
-0.0134284
-0.0129997
-0.0125416
-0.0120553
-0.0115419
-0.0110031
-0.0104406
-0.0098568
-0.00925395
-0.00863554
-0.00800419
-0.00736461
-0.00671984
-0.00607598
-0.00543629
-0.0048083
-0.0041954
-0.00360619
-0.00304397
-0.00251727
-0.00203022
-0.00158889
-0.00119922
-0.000860571
-0.000583672
-0.000354376
-0.000193321
-6.41743e-05
-6.48699e-06
4.19638e-05
-0.0127818
-0.0130994
-0.0134092
-0.0137101
-0.0140014
-0.0142824
-0.0145522
-0.0148097
-0.015054
-0.0152841
-0.0154989
-0.0156976
-0.0158789
-0.0160419
-0.0161855
-0.0163087
-0.0164104
-0.0164897
-0.0165455
-0.0165768
-0.0165827
-0.0165622
-0.0165146
-0.016439
-0.0163346
-0.0162007
-0.0160367
-0.015842
-0.0156163
-0.0153591
-0.0150703
-0.0147497
-0.0143974
-0.0140136
-0.0135986
-0.013153
-0.0126776
-0.0121735
-0.0116418
-0.0110842
-0.0105025
-0.00989916
-0.00927641
-0.00863789
-0.00798626
-0.00732646
-0.00666162
-0.00599814
-0.00533945
-0.00469351
-0.00406404
-0.00346002
-0.00288517
-0.00234852
-0.00185486
-0.00141049
-0.0010224
-0.000689491
-0.00042429
-0.000210832
-7.27772e-05
3.03215e-05
5.38931e-05
6.70189e-05
-0.0132448
-0.0135663
-0.0138793
-0.0141827
-0.014476
-0.0147584
-0.0150289
-0.0152865
-0.0155302
-0.0157589
-0.0159717
-0.0161676
-0.0163453
-0.016504
-0.0166425
-0.0167598
-0.0168548
-0.0169266
-0.0169741
-0.0169964
-0.0169924
-0.0169614
-0.0169024
-0.0168147
-0.0166975
-0.0165501
-0.0163719
-0.0161624
-0.0159212
-0.0156479
-0.0153424
-0.0150044
-0.0146342
-0.0142318
-0.0137977
-0.0133324
-0.0128367
-0.0123117
-0.0117585
-0.0111789
-0.0105747
-0.00994837
-0.0093022
-0.00863996
-0.00796439
-0.00728066
-0.00659202
-0.00590525
-0.00522396
-0.0045566
-0.00390731
-0.00328544
-0.00269534
-0.00214663
-0.00164487
-0.00119665
-0.000810217
-0.00048396
-0.00023261
-3.79766e-05
7.25234e-05
0.000144383
0.000126834
9.73399e-05
-0.0137779
-0.0141037
-0.0144202
-0.0147265
-0.0150219
-0.0153057
-0.0155768
-0.0158343
-0.0160772
-0.0163042
-0.0165145
-0.0167069
-0.0168804
-0.0170339
-0.0171663
-0.0172766
-0.0173638
-0.0174267
-0.0174645
-0.0174762
-0.0174608
-0.0174175
-0.0173453
-0.0172436
-0.0171116
-0.0169486
-0.0167541
-0.0165276
-0.0162686
-0.0159768
-0.0156521
-0.0152944
-0.0149037
-0.0144802
-0.0140243
-0.0135366
-0.0130177
-0.0124689
-0.0118913
-0.0112866
-0.0106566
-0.010004
-0.009331
-0.00864152
-0.00793842
-0.0072271
-0.00651097
-0.0057972
-0.00508969
-0.00439742
-0.00372502
-0.00308199
-0.00247397
-0.001911
-0.00139952
-0.000946481
-0.000561699
-0.0002429
-7.52031e-06
0.000165311
0.000243595
0.000278888
0.000212917
0.000133212
-0.0143805
-0.014711
-0.0150314
-0.0153407
-0.0156382
-0.0159233
-0.016195
-0.0164522
-0.0166938
-0.0169187
-0.0171258
-0.0173141
-0.0174825
-0.0176299
-0.0177552
-0.0178574
-0.0179354
-0.0179882
-0.0180148
-0.0180143
-0.0179858
-0.0179284
-0.0178412
-0.0177236
-0.0175748
-0.0173943
-0.0171813
-0.0169356
-0.0166566
-0.0163441
-0.0159979
-0.015618
-0.0152045
-0.0147574
-0.0142772
-0.0137644
-0.0132197
-0.0126444
-0.0120394
-0.0114067
-0.0107479
-0.0100657
-0.00936255
-0.0086424
-0.00790821
-0.00716567
-0.00641833
-0.00567385
-0.00493637
-0.0042155
-0.00351607
-0.00284909
-0.00222038
-0.00164077
-0.00111781
-0.000658825
-0.000275546
3.51013e-05
0.000252421
0.000400468
0.000441736
0.00043496
0.000312884
0.000174992
-0.0150522
-0.0153877
-0.0157122
-0.0160246
-0.0163243
-0.0166107
-0.0168827
-0.0171393
-0.0173792
-0.0176014
-0.0178047
-0.0179881
-0.0181505
-0.0182907
-0.0184078
-0.0185006
-0.0185681
-0.0186093
-0.0186232
-0.0186089
-0.0185655
-0.0184922
-0.0183882
-0.0182528
-0.0180853
-0.017885
-0.0176516
-0.0173845
-0.0170834
-0.016748
-0.0163781
-0.0159738
-0.0155351
-0.0150621
-0.0145551
-0.0140148
-0.0134418
-0.0128373
-0.0122023
-0.0115386
-0.010848
-0.0101333
-0.00939668
-0.00864249
-0.00787369
-0.00709629
-0.00631403
-0.00553505
-0.00476381
-0.00401057
-0.00328068
-0.00258623
-0.00193379
-0.00133493
-0.000798495
-0.000332263
4.98145e-05
0.000351744
0.000548954
0.000669231
0.000668509
0.000613952
0.000427632
0.00022311
-0.015793
-0.0161338
-0.0164625
-0.0167781
-0.0170799
-0.0173674
-0.0176395
-0.017895
-0.0181327
-0.0183515
-0.0185503
-0.0187279
-0.0188833
-0.0190153
-0.0191228
-0.0192049
-0.0192605
-0.0192885
-0.0192881
-0.0192583
-0.0191983
-0.0191073
-0.0189845
-0.0188293
-0.018641
-0.0184191
-0.0181631
-0.0178726
-0.0175473
-0.0171869
-0.0167912
-0.0163603
-0.0158942
-0.015393
-0.0148571
-0.0142869
-0.0136832
-0.013047
-0.0123794
-0.0116821
-0.0109569
-0.0102065
-0.00943333
-0.00864176
-0.00783486
-0.00701898
-0.00619803
-0.0053807
-0.00457178
-0.00378235
-0.00301825
-0.00229265
-0.00161325
-0.000992321
-0.000440193
3.48313e-05
0.000416192
0.000708991
0.000884088
0.000973611
0.000925734
0.000817437
0.000558212
0.000278072
-0.0166032
-0.0169496
-0.0172827
-0.0176013
-0.0179051
-0.0181934
-0.0184652
-0.0187191
-0.018954
-0.0191687
-0.019362
-0.0195328
-0.0196801
-0.0198026
-0.0198993
-0.0199692
-0.0200113
-0.0200245
-0.0200081
-0.019961
-0.0198825
-0.0197719
-0.0196283
-0.0194513
-0.0192403
-0.0189947
-0.0187141
-0.0183981
-0.0180465
-0.0176591
-0.0172356
-0.0167761
-0.0162805
-0.0157491
-0.015182
-0.0145799
-0.0139432
-0.0132731
-0.0125703
-0.0118369
-0.0110743
-0.0102854
-0.00947255
-0.00864033
-0.00779185
-0.00693383
-0.00607034
-0.00521073
-0.00436012
-0.00353047
-0.0027282
-0.00196753
-0.00125779
-0.000611662
-4.13474e-05
0.000444269
0.000825603
0.00110904
0.00126009
0.00131588
0.00121547
0.00104721
0.000705825
0.00034046
-0.0174836
-0.0178356
-0.018173
-0.0184946
-0.0188001
-0.0190889
-0.0193598
-0.0196115
-0.0198428
-0.0200525
-0.0202394
-0.0204023
-0.0205401
-0.0206518
-0.0207363
-0.0207925
-0.0208194
-0.0208161
-0.0207817
-0.0207155
-0.0206165
-0.0204843
-0.020318
-0.0201172
-0.0198813
-0.01961
-0.0193027
-0.0189593
-0.0185794
-0.018163
-0.0177097
-0.0172197
-0.0166928
-0.0161292
-0.0155291
-0.014893
-0.0142213
-0.013515
-0.0127749
-0.0120028
-0.0112002
-0.01037
-0.00951453
-0.00863841
-0.00774487
-0.00684103
-0.00593112
-0.00502518
-0.0041287
-0.00325465
-0.00241007
-0.00161001
-0.000866425
-0.000191592
0.000399711
0.000898005
0.00128024
0.0015543
0.00167943
0.00169856
0.00154002
0.0013053
0.000871823
0.000410934
-0.0184347
-0.0187925
-0.0191342
-0.0194585
-0.0197654
-0.0200541
-0.0203235
-0.0205723
-0.0207992
-0.0210029
-0.0211821
-0.0213359
-0.021463
-0.0215624
-0.0216329
-0.0216736
-0.0216836
-0.0216619
-0.0216077
-0.0215202
-0.0213989
-0.0212429
-0.0210518
-0.0208251
-0.0205624
-0.0202632
-0.0199274
-0.0195545
-0.0191444
-0.018697
-0.0182122
-0.0176899
-0.0171299
-0.0165323
-0.0158974
-0.0152255
-0.0145169
-0.0137725
-0.012993
-0.01218
-0.0113349
-0.0104608
-0.00955961
-0.0086364
-0.00769433
-0.00674092
-0.00578061
-0.00482415
-0.00387746
-0.00295468
-0.00206374
-0.0012228
-0.000438231
0.000269355
0.000884745
0.00139811
0.00178246
0.00204737
0.00214483
0.0021244
0.0019019
0.00159393
0.00105771
0.000490237
-0.0194578
-0.0198213
-0.020167
-0.0204938
-0.0208015
-0.0210896
-0.0213569
-0.0216019
-0.0218233
-0.0220198
-0.0221902
-0.0223334
-0.0224482
-0.0225336
-0.0225885
-0.0226119
-0.0226029
-0.0225608
-0.0224847
-0.0223739
-0.0222279
-0.0220461
-0.021828
-0.0215733
-0.0212816
-0.0209526
-0.0205861
-0.0201819
-0.0197398
-0.0192598
-0.0187416
-0.0181853
-0.0175906
-0.0169575
-0.0162862
-0.0155769
-0.0148298
-0.0140454
-0.0132245
-0.0123686
-0.0114787
-0.010558
-0.00960832
-0.00863485
-0.00764076
-0.00663401
-0.0056192
-0.0046079
-0.00360642
-0.00263018
-0.00168769
-0.000797742
2.89576e-05
0.000772799
0.00141557
0.00194674
0.0023347
0.00259099
0.00265917
0.00259638
0.00230386
0.00191555
0.00126516
0.000579201
-0.020554
-0.0209231
-0.0212726
-0.0216014
-0.0219094
-0.0221962
-0.0224604
-0.0227006
-0.0229153
-0.0231034
-0.0232635
-0.0233945
-0.0234953
-0.0235649
-0.0236022
-0.0236063
-0.0235763
-0.0235115
-0.0234113
-0.023275
-0.0231021
-0.0228922
-0.0226449
-0.02236
-0.0220372
-0.0216763
-0.0212772
-0.0208398
-0.0203639
-0.0198495
-0.0192965
-0.0187046
-0.0180738
-0.0174039
-0.0166949
-0.0159468
-0.0151596
-0.0143338
-0.0134698
-0.0125689
-0.0116321
-0.0106623
-0.00966136
-0.0086345
-0.00758489
-0.00652096
-0.00544746
-0.00437684
-0.0033158
-0.00228111
-0.00128196
-0.000338666
0.000535589
0.00132006
0.00199397
0.00254609
0.00293953
0.00318805
0.00322549
0.00311767
0.00274886
0.00227285
0.00149597
0.000678754
-0.0217247
-0.0220993
-0.0224522
-0.0227824
-0.02309
-0.0233745
-0.0236347
-0.0238689
-0.0240757
-0.0242538
-0.024402
-0.0245191
-0.024604
-0.0246558
-0.0246733
-0.0246559
-0.0246027
-0.0245129
-0.0243862
-0.0242219
-0.0240198
-0.0237794
-0.0235006
-0.0231832
-0.0228271
-0.0224323
-0.0219987
-0.0215263
-0.0210149
-0.0204647
-0.0198753
-0.0192467
-0.0185785
-0.0178706
-0.0171227
-0.0163346
-0.0155062
-0.0146376
-0.013729
-0.0127815
-0.0117957
-0.0107746
-0.00971962
-0.00863629
-0.00752765
-0.00640264
-0.00526613
-0.00413154
-0.00300595
-0.00190764
-0.000846495
0.00015526
0.00108256
0.00191243
0.00262169
0.00319835
0.00359952
0.00384152
0.00384699
0.00369166
0.00324005
0.00266873
0.00175215
0.000789921
-0.0229716
-0.0233512
-0.0237071
-0.024038
-0.0243444
-0.0246257
-0.0248807
-0.0251076
-0.0253049
-0.0254714
-0.0256059
-0.0257071
-0.025774
-0.0258057
-0.0258013
-0.0257599
-0.0256809
-0.0255637
-0.0254079
-0.0252131
-0.0249792
-0.0247058
-0.0243931
-0.0240409
-0.0236494
-0.0232186
-0.0227486
-0.0222394
-0.0216911
-0.0211035
-0.0204766
-0.0198101
-0.0191035
-0.0183567
-0.0175691
-0.0167402
-0.0158696
-0.0149572
-0.0140027
-0.0130071
-0.0119705
-0.0108958
-0.00978424
-0.00864139
-0.00747019
-0.00628012
-0.00507616
-0.00387278
-0.00267745
-0.00151007
-0.000381319
0.000684581
0.00167091
0.00255114
0.0033004
0.0039057
0.0043173
0.00455447
0.00452697
0.00432188
0.00378079
0.00310632
0.00203583
0.000913837
-0.0242964
-0.0246807
-0.0250388
-0.0253697
-0.0256739
-0.0259508
-0.0261992
-0.0264172
-0.0266035
-0.0267565
-0.0268751
-0.0269583
-0.027005
-0.0270142
-0.0269852
-0.0269173
-0.0268098
-0.0266625
-0.0264749
-0.0262469
-0.0259784
-0.0256696
-0.0253204
-0.0249311
-0.0245019
-0.024033
-0.0235247
-0.0229771
-0.0223904
-0.0217643
-0.0210987
-0.0203934
-0.0196479
-0.0188615
-0.0180336
-0.0171634
-0.0162499
-0.0152929
-0.0142916
-0.0132465
-0.0121576
-0.0110272
-0.00985657
-0.00865119
-0.00741389
-0.00615471
-0.00487871
-0.00360153
-0.00233101
-0.00108889
0.000113382
0.0012495
0.00230178
0.00323718
0.00403164
0.00467025
0.00509546
0.00532999
0.00526883
0.00501204
0.00437461
0.00358895
0.00234932
0.00105175
-0.0257009
-0.0260894
-0.026449
-0.0267789
-0.0270797
-0.0273509
-0.0275912
-0.0277987
-0.0279719
-0.0281094
-0.02821
-0.0282727
-0.0282966
-0.0282807
-0.0282244
-0.028127
-0.0279882
-0.0278078
-0.0275854
-0.0273213
-0.0270156
-0.0266684
-0.0262802
-0.0258513
-0.0253822
-0.0248732
-0.0243248
-0.0237372
-0.0231105
-0.022445
-0.0217401
-0.0209955
-0.0202104
-0.0193843
-0.0185158
-0.017604
-0.0166475
-0.0156454
-0.0145965
-0.013501
-0.0123582
-0.0111704
-0.00993821
-0.00866733
-0.00736036
-0.00602794
-0.00467518
-0.00331899
-0.00196759
-0.000644758
0.000637174
0.00184958
0.00297681
0.0039711
0.00481685
0.00549403
0.00593655
0.00617115
0.00607601
0.00576595
0.0050252
0.0041202
0.0026951
0.00120504
-0.0271873
-0.0275793
-0.0279396
-0.0282673
-0.0285634
-0.0288274
-0.0290578
-0.0292529
-0.0294109
-0.0295305
-0.0296106
-0.0296503
-0.0296485
-0.0296046
-0.0295179
-0.029388
-0.0292148
-0.028998
-0.0287378
-0.0284345
-0.0280884
-0.0277001
-0.0272701
-0.0267991
-0.0262878
-0.0257367
-0.0251465
-0.0245174
-0.0238499
-0.0231439
-0.022399
-0.0216147
-0.0207901
-0.0199242
-0.0190153
-0.0180621
-0.0170625
-0.0160153
-0.0149185
-0.0137719
-0.012574
-0.0113271
-0.010031
-0.00869173
-0.0073115
-0.00590162
-0.0044672
-0.00302658
-0.00158832
-0.00017847
0.00118952
0.00248293
0.00367419
0.00475223
0.00565735
0.00637897
0.00684302
0.007081
0.00695194
0.00658752
0.00573636
0.00470385
0.00307581
0.00137521
-0.0287578
-0.0291525
-0.0295123
-0.0298366
-0.0301264
-0.0303815
-0.0306002
-0.0307806
-0.030921
-0.0310203
-0.0310772
-0.0310908
-0.0310603
-0.0309852
-0.0308648
-0.0306991
-0.0304879
-0.0302315
-0.02993
-0.0295842
-0.0291946
-0.0287621
-0.0282875
-0.0277719
-0.027216
-0.0266208
-0.0259871
-0.0253153
-0.0246059
-0.0238588
-0.0230737
-0.0222498
-0.0213859
-0.0204806
-0.0195319
-0.0185378
-0.0174957
-0.0164036
-0.0152589
-0.0140607
-0.0128069
-0.0114992
-0.0101372
-0.00872658
-0.00726944
-0.00577778
-0.00425666
-0.00272596
-0.00119458
0.000309002
0.00177044
0.00315414
0.00443508
0.0055857
0.00655486
0.00732687
0.00781717
0.00806248
0.00790001
0.00748072
0.00651202
0.00534389
0.00349422
0.00156393
-0.0304147
-0.0308111
-0.0311692
-0.0314886
-0.0317705
-0.0320147
-0.0322194
-0.0323828
-0.0325031
-0.0325791
-0.0326097
-0.0325941
-0.0325316
-0.0324217
-0.0322641
-0.0320589
-0.0318061
-0.0315063
-0.03116
-0.0307681
-0.0303317
-0.0298518
-0.0293297
-0.0287666
-0.0281639
-0.0275226
-0.0268438
-0.0261282
-0.0253761
-0.0245876
-0.0237623
-0.0228991
-0.0219966
-0.0210529
-0.0200653
-0.0190314
-0.0179476
-0.0168114
-0.0156191
-0.0143692
-0.0130589
-0.0116892
-0.010259
-0.00877434
-0.00723664
-0.00565878
-0.00404572
-0.00241907
-0.000787987
0.00081635
0.00237887
0.00386081
0.00523643
0.00647002
0.00751014
0.00833921
0.00886106
0.00911836
0.00892353
0.00844951
0.00735615
0.00604449
0.00395329
0.00177301
-0.0321603
-0.0325574
-0.0329125
-0.0332253
-0.0334973
-0.0337284
-0.0339168
-0.0340605
-0.0341578
-0.0342074
-0.0342084
-0.0341601
-0.0340618
-0.0339134
-0.0337147
-0.0334659
-0.0331676
-0.0328204
-0.0324253
-0.0319837
-0.0314967
-0.0309661
-0.0303934
-0.0297803
-0.0291283
-0.028439
-0.0277137
-0.0269531
-0.0261579
-0.0253279
-0.0244627
-0.0235611
-0.0226211
-0.0216403
-0.0206154
-0.0195432
-0.0184192
-0.01724
-0.016001
-0.0146997
-0.0133324
-0.0118996
-0.0103994
-0.00883778
-0.00721583
-0.00554722
-0.00383681
-0.0021081
-0.000370467
0.00134196
0.00301344
0.0046016
0.00607906
0.00740468
0.0085236
0.00941711
0.00997651
0.0102512
0.0100256
0.0094978
0.00827275
0.00681
0.00445605
0.00200445
-0.0339975
-0.0343939
-0.0347443
-0.0350486
-0.0353086
-0.0355243
-0.0356936
-0.0358147
-0.0358857
-0.0359055
-0.0358733
-0.0357884
-0.0356504
-0.0354593
-0.0352152
-0.0349186
-0.0345704
-0.0341716
-0.0337236
-0.0332281
-0.0326869
-0.0321019
-0.0314754
-0.0308094
-0.0301059
-0.0293667
-0.0285933
-0.027787
-0.0269484
-0.0260773
-0.025173
-0.0242341
-0.0232582
-0.0222423
-0.0211822
-0.0200737
-0.0189115
-0.017691
-0.0164064
-0.0150545
-0.0136301
-0.0121333
-0.0105613
-0.00892001
-0.00721004
-0.00544602
-0.00363265
-0.00179553
5.57954e-05
0.00188393
0.00367256
0.00537519
0.00696269
0.00838928
0.00959538
0.0105614
0.011165
0.0114631
0.0112092
0.0106294
0.00926579
0.00764492
0.00500568
0.00226045
-0.0359287
-0.0363231
-0.036667
-0.0369607
-0.0372064
-0.0374038
-0.0375513
-0.0376464
-0.0376877
-0.0376739
-0.0376044
-0.0374788
-0.0372967
-0.0370584
-0.0367643
-0.0364152
-0.0360124
-0.0355574
-0.035052
-0.0344983
-0.0338987
-0.0332558
-0.0325721
-0.0318503
-0.0310928
-0.0303018
-0.0294793
-0.0286267
-0.0277446
-0.026833
-0.0258909
-0.0249165
-0.0239069
-0.0228582
-0.0217655
-0.0206235
-0.0194257
-0.0181661
-0.0168378
-0.0154362
-0.0139551
-0.0123936
-0.0107481
-0.00902443
-0.00722261
-0.00535839
-0.00343624
-0.00148411
0.000488338
0.00244008
0.00435438
0.00618007
0.00788643
0.00942317
0.0107253
0.0117724
0.0124275
0.0127562
0.0124769
0.0118479
0.0103391
0.00855384
0.0056054
0.00254341
-0.0379569
-0.0383475
-0.038683
-0.0389638
-0.0391924
-0.0393688
-0.039491
-0.0395567
-0.0395644
-0.039513
-0.0394019
-0.0392308
-0.0389999
-0.0387095
-0.0383604
-0.0379538
-0.0374914
-0.0369751
-0.0364075
-0.0357911
-0.0351288
-0.034424
-0.0336796
-0.032899
-0.0320851
-0.0312407
-0.0303679
-0.0294685
-0.0285432
-0.0275922
-0.026614
-0.0256064
-0.0245658
-0.0234876
-0.0223657
-0.0211935
-0.0199632
-0.0186675
-0.0172977
-0.015848
-0.0143106
-0.0126842
-0.0109635
-0.00915479
-0.00725722
-0.00528784
-0.00325085
-0.00117688
0.00092443
0.00300798
0.00505677
0.00701443
0.00884888
0.0105038
0.0119127
0.01305
0.0137647
0.0141316
0.0138309
0.0131565
0.0114965
0.00954142
0.00625848
0.00285602
-0.040085
-0.0404701
-0.0407948
-0.0410601
-0.0412688
-0.0414209
-0.0415142
-0.0415467
-0.0415165
-0.0414229
-0.0412655
-0.0410441
-0.0407592
-0.0404113
-0.0400018
-0.0395322
-0.0390047
-0.038422
-0.0377869
-0.0371028
-0.0363734
-0.0356024
-0.0347937
-0.0339512
-0.0330785
-0.0321788
-0.0312549
-0.0303086
-0.0293409
-0.0283519
-0.0273399
-0.026302
-0.0252339
-0.0241299
-0.0229828
-0.0217846
-0.0205257
-0.0191973
-0.0177888
-0.0162931
-0.0147006
-0.0130089
-0.0112117
-0.00931517
-0.00731786
-0.00523818
-0.00308008
-0.000877135
0.00136107
0.00358491
0.00577733
0.00787622
0.00984862
0.0116329
0.0131568
0.0143938
0.0151768
0.0155904
0.015273
0.0145583
0.0127415
0.0106123
0.00696816
0.00320121
-0.0423161
-0.0426935
-0.043005
-0.043252
-0.0434376
-0.0435618
-0.0436224
-0.0436173
-0.0435448
-0.0434042
-0.0431952
-0.0429181
-0.0425735
-0.0421625
-0.0416866
-0.0411482
-0.0405498
-0.0398948
-0.0391867
-0.0384297
-0.0376282
-0.0367866
-0.0359098
-0.0350023
-0.0340684
-0.0331119
-0.032136
-0.0311429
-0.0301336
-0.0291089
-0.0280659
-0.0270012
-0.0259098
-0.0247847
-0.0236173
-0.0223979
-0.0211152
-0.0197582
-0.0183146
-0.0167753
-0.0151289
-0.0133721
-0.011497
-0.00951003
-0.00740885
-0.00521355
-0.00292778
-0.00058846
0.00179497
0.00416786
0.00651336
0.00876297
0.0108834
0.0128067
0.014456
0.0158025
0.0166631
0.0171327
0.0168046
0.0160555
0.0140771
0.0117709
0.00773764
0.00358223
-0.0446534
-0.0450209
-0.0453164
-0.0455419
-0.0457008
-0.0457933
-0.0458171
-0.0457697
-0.0456499
-0.045457
-0.0451909
-0.0448522
-0.0444419
-0.0439615
-0.043413
-0.0427993
-0.0421238
-0.0413902
-0.0406032
-0.0397677
-0.0388888
-0.0379721
-0.0370231
-0.0360472
-0.0350496
-0.0340349
-0.0330065
-0.0319672
-0.0309172
-0.0298599
-0.0287893
-0.0277021
-0.0265922
-0.0254515
-0.0242695
-0.0230348
-0.0217337
-0.0203532
-0.0188785
-0.0172987
-0.0156002
-0.0137785
-0.0118244
-0.00974417
-0.00753486
-0.00521838
-0.0027981
-0.000314703
0.00222259
0.00475356
0.00726184
0.00967188
0.0119505
0.0140228
0.015808
0.0172744
0.0182226
0.018758
0.0184262
0.0176498
0.0155064
0.0130215
0.00857
0.00400269
-0.0471
-0.0474551
-0.0477317
-0.0479323
-0.0480608
-0.0481174
-0.0480996
-0.0480051
-0.0478325
-0.0475815
-0.0472524
-0.0468458
-0.0463632
-0.0458066
-0.0451787
-0.0444829
-0.0437234
-0.0429047
-0.0420324
-0.0411122
-0.0401505
-0.0391536
-0.0381282
-0.0370807
-0.036017
-0.0349425
-0.0338616
-0.0327774
-0.0316924
-0.0306019
-0.0295071
-0.0284023
-0.0272799
-0.02613
-0.0249402
-0.0236968
-0.0223837
-0.0209854
-0.0194845
-0.0178678
-0.0161194
-0.0142334
-0.012199
-0.0100228
-0.00770086
-0.0052574
-0.00269546
-5.99727e-05
0.00264014
0.00533846
0.00801943
0.0105998
0.013047
0.0152783
0.0172102
0.0188069
0.0198533
0.0204649
0.0201377
0.0193422
0.0170317
0.0143678
0.00946819
0.00446653
-0.0496595
-0.0499993
-0.0502537
-0.0504258
-0.0505198
-0.0505359
-0.0504716
-0.0503245
-0.0500934
-0.0497782
-0.0493794
-0.0488981
-0.0483362
-0.0476962
-0.0469815
-0.0461962
-0.0453453
-0.0444344
-0.0434699
-0.0424587
-0.0414082
-0.040326
-0.0392197
-0.038097
-0.0369647
-0.0358292
-0.0346954
-0.0335669
-0.0324455
-0.0313292
-0.0302159
-0.0290997
-0.0279715
-0.0268198
-0.0256299
-0.0243856
-0.0230679
-0.0216586
-0.020137
-0.0184876
-0.0166918
-0.0147423
-0.0126265
-0.0103514
-0.00791221
-0.00533564
-0.00262456
0.000171372
0.00304356
0.00591876
0.0087825
0.0115431
0.0141693
0.0165699
0.0186592
0.0203969
0.0215526
0.0222512
0.0219382
0.0211323
0.018655
0.015813
0.010435
0.00497799
-0.0523352
-0.0526568
-0.0528855
-0.053025
-0.05308
-0.0530507
-0.0529345
-0.0527291
-0.0524332
-0.0520471
-0.0515716
-0.0510083
-0.0503595
-0.0496283
-0.0488189
-0.0479362
-0.0469861
-0.0459752
-0.0449112
-0.0438021
-0.0426565
-0.0414833
-0.0402916
-0.03909
-0.0378867
-0.0366888
-0.0355023
-0.034331
-0.0331768
-0.0320384
-0.0309125
-0.0297917
-0.0286657
-0.0275208
-0.0263397
-0.0251034
-0.0237894
-0.0223766
-0.0208407
-0.0191634
-0.0173232
-0.0153113
-0.013113
-0.010736
-0.00817459
-0.00545846
-0.00259036
0.000374731
0.00342855
0.0064904
0.00954712
0.012498
0.0153136
0.0178937
0.0201511
0.0220406
0.0233168
0.0241137
0.0238259
0.0230189
0.0203777
0.0173589
0.0114731
0.00554156
-0.0551308
-0.055431
-0.0556301
-0.0557326
-0.0557439
-0.055664
-0.0554901
-0.05522
-0.0548527
-0.0543885
-0.0538288
-0.0531756
-0.0524317
-0.0516009
-0.0506883
-0.0496996
-0.0486419
-0.0475229
-0.0463515
-0.0451371
-0.0438897
-0.0426197
-0.0413375
-0.0400532
-0.0387763
-0.0375151
-0.0362762
-0.0350641
-0.0338809
-0.0327256
-0.0315935
-0.0304761
-0.0293611
-0.0282327
-0.0270705
-0.0258522
-0.0245517
-0.023144
-0.021601
-0.0199013
-0.0180201
-0.0159469
-0.0136651
-0.0111828
-0.00849402
-0.00563147
-0.00259808
0.000545279
0.0037906
0.00704909
0.0103091
0.0134604
0.0164755
0.0192454
0.021681
0.0237335
0.0251412
0.0260483
0.0257977
0.0249995
0.0222005
0.0190064
0.0125849
0.00616179
-0.0580499
-0.058325
-0.0584905
-0.0585515
-0.0585139
-0.0583777
-0.05814
-0.0577985
-0.0573525
-0.0568027
-0.0561507
-0.0553991
-0.0545513
-0.053612
-0.0525871
-0.0514833
-0.0503088
-0.0490729
-0.0477856
-0.046458
-0.0451017
-0.0437286
-0.0423507
-0.0409799
-0.0396268
-0.0383012
-0.0370106
-0.0357603
-0.0345524
-0.0333859
-0.0322552
-0.0311502
-0.0300565
-0.0289557
-0.0278238
-0.0266349
-0.0253585
-0.0239656
-0.0224236
-0.0207077
-0.0187892
-0.0166561
-0.0142896
-0.0116988
-0.00887686
-0.0058606
-0.00265316
0.000677983
0.00412497
0.00759034
0.0110639
0.0144257
0.0176503
0.02062
0.0232435
0.0254703
0.02702
0.0280499
0.0278493
0.02707
0.0241234
0.0207542
0.0137732
0.00684293
-0.0610963
-0.0613426
-0.0614699
-0.0614845
-0.0613925
-0.061194
-0.0608859
-0.0604659
-0.0599335
-0.0592898
-0.0585369
-0.0576779
-0.0567169
-0.0556595
-0.0545124
-0.0532837
-0.0519829
-0.0506205
-0.0492084
-0.0477591
-0.0462861
-0.0448032
-0.0433243
-0.0418627
-0.0404309
-0.03904
-0.0376988
-0.0364132
-0.0351857
-0.0340147
-0.0328935
-0.0318113
-0.0307506
-0.0296896
-0.028601
-0.0274542
-0.0262141
-0.0248468
-0.0233149
-0.0215895
-0.0196381
-0.0174466
-0.0149942
-0.0122909
-0.00932983
-0.00615202
-0.00276131
0.000767616
0.00442676
0.00810945
0.0118068
0.0153893
0.0188326
0.0220125
0.024833
0.0272452
0.0289462
0.0301125
0.0299746
0.0292251
0.0261451
0.0225993
0.0150404
0.00758852
-0.0642738
-0.0644872
-0.0645717
-0.0645346
-0.0643824
-0.0641151
-0.0637295
-0.0632234
-0.0625965
-0.0618502
-0.0609872
-0.0600111
-0.0589269
-0.057741
-0.0564614
-0.0550973
-0.0536597
-0.0521608
-0.0506141
-0.0490342
-0.0474364
-0.0458366
-0.0442506
-0.042694
-0.0411809
-0.0397241
-0.0383335
-0.037016
-0.0357743
-0.0346064
-0.0335049
-0.0324569
-0.031442
-0.0304349
-0.0294038
-0.0283135
-0.0271231
-0.0257936
-0.0242818
-0.0225544
-0.0205747
-0.0183265
-0.0157867
-0.0129669
-0.00985998
-0.00651221
-0.0029284
0.000808783
0.00469087
0.00860157
0.0125329
0.0163461
0.0200169
0.0234172
0.0264416
0.0290519
0.0309114
0.0322295
0.0321657
0.0314579
0.0282632
0.0245357
0.0163896
0.00840074
-0.0675863
-0.0677625
-0.0677992
-0.0677047
-0.0674861
-0.0671433
-0.0666728
-0.0660725
-0.0653424
-0.0644842
-0.0635012
-0.0623978
-0.0611797
-0.0598544
-0.0584311
-0.0569204
-0.055335
-0.0536887
-0.0519971
-0.0502769
-0.0485455
-0.0468212
-0.0451221
-0.0434659
-0.0418688
-0.0403453
-0.038907
-0.0375616
-0.0363121
-0.0351562
-0.034085
-0.0330841
-0.0321294
-0.0311918
-0.0302344
-0.0292165
-0.0280908
-0.0268124
-0.0253318
-0.0236108
-0.0216077
-0.0193045
-0.0166756
-0.0137346
-0.0104747
-0.00694787
-0.00316054
0.000795937
0.00491208
0.0090617
0.0132369
0.0172909
0.0211971
0.024828
0.0280617
0.0308835
0.0329058
0.0343934
0.0344127
0.0337605
0.0304734
0.0265551
0.0178241
0.00927969
-0.0710378
-0.0711721
-0.0711558
-0.0709981
-0.0707066
-0.070281
-0.0697177
-0.0690146
-0.0681721
-0.0671922
-0.0660789
-0.0648372
-0.0634739
-0.0619975
-0.0604186
-0.0587494
-0.0570042
-0.055199
-0.0533515
-0.0514806
-0.0496064
-0.0477495
-0.0459307
-0.04417
-0.0424861
-0.0408955
-0.0394114
-0.0380425
-0.0367924
-0.0356583
-0.0346305
-0.0336903
-0.0328118
-0.031961
-0.0310951
-0.0301672
-0.0291229
-0.0279104
-0.0264732
-0.0247675
-0.0227466
-0.0203899
-0.0176699
-0.0146025
-0.0111817
-0.00746595
-0.00346398
0.000723403
0.00508503
0.00948471
0.0139134
0.0182184
0.0223667
0.0262388
0.0296851
0.0327329
0.0349184
0.0365966
0.036703
0.0361235
0.0327692
0.0286462
0.0193476
0.0102228
-0.0746322
-0.07472
-0.0746449
-0.0744178
-0.0740466
-0.0735307
-0.0728663
-0.0720514
-0.0710866
-0.0699747
-0.0687201
-0.0673285
-0.0658079
-0.064168
-0.0624208
-0.0605803
-0.0586627
-0.0566863
-0.054671
-0.0526385
-0.0506114
-0.0486134
-0.0466678
-0.0447976
-0.0430241
-0.041366
-0.0398382
-0.038451
-0.0372082
-0.0361067
-0.035135
-0.0342721
-0.0334879
-0.0327431
-0.0319887
-0.0311703
-0.0302258
-0.0290955
-0.027715
-0.0260344
-0.0240012
-0.0215927
-0.0187793
-0.0155796
-0.011989
-0.00807364
-0.00384514
0.000585406
0.0052043
0.00986538
0.0145571
0.0191229
0.0235191
0.027643
0.0313028
0.0345926
0.0369366
0.0388306
0.0390218
0.0385368
0.0351411
0.0307948
0.0209647
0.0112243
-0.0783738
-0.0784098
-0.0782703
-0.0779673
-0.0775091
-0.0768949
-0.0761207
-0.0751845
-0.0740873
-0.0728324
-0.0714247
-0.0698711
-0.0681804
-0.0663638
-0.0644348
-0.0624095
-0.0603061
-0.0581453
-0.0559496
-0.0537437
-0.0515531
-0.0494047
-0.0473249
-0.0453399
-0.0434737
-0.0417477
-0.040179
-0.038779
-0.0375524
-0.0364955
-0.0355948
-0.0348268
-0.0341567
-0.0335392
-0.0329181
-0.0322309
-0.0314065
-0.0303762
-0.029067
-0.027422
-0.0253825
-0.0229237
-0.0200138
-0.0166751
-0.0129051
-0.00877834
-0.00431055
0.000376094
0.00526441
0.0101985
0.0151623
0.0199987
0.0246475
0.0290339
0.0329053
0.0364546
0.0389471
0.0410865
0.0413519
0.040989
0.0375763
0.032985
0.0226803
0.0122761
-0.0822456
-0.0820356
-0.0816499
-0.0810973
-0.0803765
-0.0794833
-0.0784159
-0.0771755
-0.0757659
-0.074193
-0.0724643
-0.07059
-0.0685828
-0.0664578
-0.0642332
-0.0619297
-0.0595704
-0.057181
-0.054789
-0.0524237
-0.050115
-0.0478931
-0.0457875
-0.0438255
-0.0420314
-0.0404245
-0.0390181
-0.0378174
-0.0368182
-0.0360052
-0.0353516
-0.0348172