/*--------------------------------*- C++ -*----------------------------------*\
  =========                 |
  \\      /  F ield         | OpenFOAM: The Open Source CFD Toolbox
   \\    /   O peration     | Website:  https://openfoam.org
    \\  /    A nd           | Version:  7
     \\/     M anipulation  |
\*---------------------------------------------------------------------------*/
FoamFile
{
    version     2.0;
    format      ascii;
    class       volVectorField;
    location    "0.2";
    object      U;
}
// * * * * * * * * * * * * * * * * * * * * * * * * * * * * * * * * * * * * * //

dimensions      [0 1 -1 0 0 0 0];

internalField   nonuniform List<vector> 
344
(
(1.22286 1.05945e-09 2.98919e-16)
(1.22286 9.98346e-10 2.99684e-16)
(1.22286 8.38783e-10 2.8504e-16)
(1.22286 6.96354e-10 3.43929e-16)
(1.22286 5.43054e-10 3.18744e-16)
(1.22286 3.97641e-10 3.08567e-16)
(1.22286 -3.57398e-11 2.83753e-16)
(1.22286 -1.15179e-10 3.24735e-16)
(1.22286 -1.92773e-09 2.98333e-16)
(1.22286 -3.61492e-09 2.85606e-16)
(1.22286 -2.70116e-09 2.67924e-16)
(1.22286 -2.00007e-09 3.11626e-16)
(1.22286 -1.69982e-09 2.93698e-16)
(1.22286 -1.60749e-09 2.80462e-16)
(1.22286 -1.64796e-09 2.6856e-16)
(1.22286 -1.69145e-09 2.60119e-16)
(1.22286 -1.81358e-09 2.41188e-16)
(1.22286 -1.67612e-09 2.29085e-16)
(1.22286 -1.79805e-09 2.05963e-16)
(1.22286 -2.39329e-09 2.3472e-16)
(1.22286 -2.6443e-09 2.17694e-16)
(1.22286 -2.6429e-09 2.00747e-16)
(1.22286 -2.45944e-09 1.92758e-16)
(1.22286 -2.19423e-09 1.81332e-16)
(1.22286 -1.84458e-09 1.75434e-16)
(1.22286 -1.54714e-09 1.66563e-16)
(1.22286 -1.16042e-09 1.63801e-16)
(1.22286 -9.92464e-10 1.52795e-16)
(1.22286 -1.31384e-09 1.80899e-16)
(1.22286 -1.66584e-09 1.70609e-16)
(1.22286 -1.98577e-09 1.63504e-16)
(1.22286 -2.19924e-09 1.52607e-16)
(1.22286 -2.24181e-09 1.66953e-16)
(1.22286 -2.10101e-09 1.53797e-16)
(1.22286 -1.8732e-09 1.43407e-16)
(1.22286 -1.65329e-09 1.33648e-16)
(1.22286 -1.58976e-09 1.46326e-16)
(1.22286 -1.7338e-09 1.35521e-16)
(1.22286 -1.94416e-09 1.30877e-16)
(1.22286 -2.15498e-09 1.21606e-16)
(1.22286 -2.36321e-09 1.12584e-16)
(1.22286 -2.60431e-09 1.03679e-16)
(1.22286 -2.89808e-09 9.43954e-17)
(1.22286 -3.18096e-09 8.48852e-17)
(1.22286 -3.39038e-09 7.54595e-17)
(1.22286 -3.4919e-09 6.65856e-17)
(1.22286 -3.63991e-09 5.90112e-17)
(1.22286 -3.76338e-09 5.21668e-17)
(1.22286 -4.2655e-09 4.52176e-17)
(1.22286 -4.01197e-09 3.95093e-17)
(1.22286 -4.4997e-09 3.37936e-17)
(1.21809 3.16815e-09 3.12971e-16)
(1.21809 2.6553e-09 2.84173e-16)
(1.21809 9.6986e-10 3.10077e-16)
(1.21809 -3.11325e-10 3.04094e-16)
(1.21809 -9.63248e-10 3.16394e-16)
(1.21809 -1.2496e-09 2.91411e-16)
(1.21809 -1.33159e-09 2.95741e-16)
(1.21809 -1.27725e-09 2.69375e-16)
(1.21809 -1.17646e-09 2.64446e-16)
(1.21809 -1.10274e-09 2.31091e-16)
(1.21809 -1.0303e-09 2.43866e-16)
(1.21809 -8.75214e-10 2.32839e-16)
(1.21809 -6.13122e-10 2.23183e-16)
(1.21809 -2.28538e-10 2.28417e-16)
(1.21809 1.96127e-10 2.05118e-16)
(1.21809 5.58445e-10 2.1306e-16)
(1.21809 7.45242e-10 1.95157e-16)
(1.21809 7.45874e-10 2.1052e-16)
(1.21809 7.05411e-10 1.86819e-16)
(1.21809 6.87579e-10 2.06757e-16)
(1.21809 6.23426e-10 2.04583e-16)
(1.21809 5.83532e-10 2.11612e-16)
(1.21809 2.81559e-10 1.85343e-16)
(1.21809 4.55855e-10 1.95671e-16)
(1.21809 -1.69942e-09 1.86794e-16)
(1.21809 -3.19287e-09 1.95135e-16)
(1.21809 -1.44409e-09 1.73009e-16)
(1.21809 -7.69949e-10 1.92629e-16)
(1.21809 -7.29804e-10 1.91738e-16)
(1.21809 -8.90278e-10 1.97043e-16)
(1.21809 -1.16036e-09 1.82442e-16)
(1.21809 -1.39426e-09 1.8478e-16)
(1.21809 -1.75342e-09 1.63087e-16)
(1.21809 -1.57617e-09 1.62285e-16)
(1.21809 -1.91092e-09 1.39278e-16)
(1.21809 -3.04207e-09 1.46053e-16)
(1.21809 -3.36843e-09 1.4009e-16)
(1.21809 -3.22905e-09 1.29639e-16)
(1.21809 -2.85806e-09 1.30493e-16)
(1.21809 -2.44952e-09 1.17982e-16)
(1.21809 -1.95696e-09 1.20776e-16)
(1.21809 -1.57973e-09 1.11513e-16)
(1.21809 -9.59313e-10 1.14018e-16)
(1.21809 -7.20179e-10 1.02809e-16)
(1.21809 -1.36299e-09 1.11846e-16)
(1.21809 -1.94051e-09 1.09331e-16)
(1.21809 -2.36021e-09 1.11366e-16)
(1.21809 -2.54997e-09 1.01175e-16)
(1.21809 -2.48933e-09 1.04535e-16)
(1.21809 -2.20008e-09 9.88016e-17)
(1.21809 -1.81852e-09 9.81544e-17)
(1.21809 -1.4285e-09 8.84346e-17)
(1.21809 -1.25823e-09 9.24679e-17)
(1.21809 -1.4137e-09 8.89922e-17)
(1.21809 -1.6721e-09 9.03908e-17)
(1.21809 -1.95646e-09 8.21086e-17)
(1.21809 -2.2557e-09 8.00353e-17)
(1.21809 -2.60096e-09 7.08665e-17)
(1.21809 -3.01087e-09 6.39361e-17)
(1.21809 -3.41984e-09 6.00212e-17)
(1.21809 -3.7672e-09 5.16841e-17)
(1.21809 -4.01239e-09 4.51641e-17)
(1.21809 -4.30983e-09 3.99596e-17)
(1.21809 -4.5758e-09 3.51467e-17)
(1.21809 -5.25084e-09 2.92651e-17)
(1.21809 -5.17114e-09 2.54115e-17)
(1.21809 -5.84587e-09 2.1657e-17)
(1.21475 3.20516e-09 2.02969e-16)
(1.21475 2.01316e-09 2.09542e-16)
(1.21475 3.89875e-11 2.24293e-16)
(1.21475 -1.21073e-09 2.23773e-16)
(1.21475 -1.64795e-09 2.11069e-16)
(1.21475 -1.75124e-09 2.169e-16)
(1.21475 -1.70221e-09 1.9786e-16)
(1.21475 -1.5498e-09 2.02822e-16)
(1.21475 -1.38925e-09 1.7672e-16)
(1.21475 -1.28261e-09 1.72699e-16)
(1.21475 -1.17406e-09 1.74567e-16)
(1.21475 -9.98985e-10 1.67831e-16)
(1.21475 -7.62275e-10 1.66308e-16)
(1.21475 -4.16427e-10 1.46099e-16)
(1.21475 -2.97852e-12 1.4864e-16)
(1.21475 3.18878e-10 1.34185e-16)
(1.21475 4.97083e-10 1.43197e-16)
(1.21475 5.56597e-10 1.34755e-16)
(1.21475 6.10035e-10 1.38467e-16)
(1.21475 6.63022e-10 1.46831e-16)
(1.21475 6.5272e-10 1.51607e-16)
(1.21475 6.76758e-10 1.36561e-16)
(1.21475 5.33992e-10 1.36745e-16)
(1.21475 8.27448e-10 1.38281e-16)
(1.21475 -8.15101e-10 1.35675e-16)
(1.21475 -1.85703e-09 1.2628e-16)
(1.21475 -2.67511e-10 1.26017e-16)
(1.21475 1.10097e-10 1.36553e-16)
(1.21475 -1.47306e-10 1.41375e-16)
(1.21475 -5.14851e-10 1.32079e-16)
(1.21475 -9.12499e-10 1.35405e-16)
(1.21475 -1.24931e-09 1.23668e-16)
(1.21475 -1.72911e-09 1.20803e-16)
(1.21475 -1.50525e-09 1.08454e-16)
(1.21475 -1.99131e-09 1.04809e-16)
(1.21475 -3.46393e-09 1.04764e-16)
(1.21475 -3.80579e-09 1.01133e-16)
(1.21475 -3.54756e-09 9.58045e-17)
(1.21475 -3.05085e-09 8.38654e-17)
(1.21475 -2.56459e-09 8.50355e-17)
(1.21475 -2.0058e-09 7.68515e-17)
(1.21475 -1.593e-09 8.19287e-17)
(1.21475 -8.09343e-10 7.48078e-17)
(1.21475 -5.2569e-10 7.62907e-17)
(1.21475 -1.3992e-09 8.16369e-17)
(1.21475 -2.12589e-09 8.0332e-17)
(1.21475 -2.59395e-09 7.34637e-17)
(1.21475 -2.75263e-09 7.49868e-17)
(1.21475 -2.62028e-09 7.62753e-17)
(1.21475 -2.24445e-09 7.28201e-17)
(1.21475 -1.77922e-09 6.63759e-17)
(1.21475 -1.28523e-09 6.58619e-17)
(1.21475 -1.04928e-09 6.76532e-17)
(1.21475 -1.21916e-09 6.71381e-17)
(1.21475 -1.51412e-09 6.29426e-17)
(1.21475 -1.84763e-09 6.29261e-17)
(1.21475 -2.19791e-09 5.72314e-17)
(1.21475 -2.59164e-09 5.40836e-17)
(1.21475 -3.05273e-09 4.92862e-17)
(1.21475 -3.52149e-09 4.31267e-17)
(1.21475 -3.93884e-09 3.96299e-17)
(1.21475 -4.26737e-09 3.48995e-17)
(1.21475 -4.64563e-09 3.07678e-17)
(1.21475 -5.01368e-09 2.70193e-17)
(1.21475 -5.75453e-09 2.132e-17)
(1.21475 -5.92161e-09 1.87625e-17)
(1.21475 -6.64073e-09 1.59644e-17)
(1.21031 2.90834e-09 1.44572e-16)
(1.21031 5.16508e-10 1.40495e-16)
(1.21031 -1.42813e-09 1.4615e-16)
(1.21031 -2.33272e-09 1.48246e-16)
(1.21031 -2.43247e-09 1.52809e-16)
(1.21031 -2.26845e-09 1.49446e-16)
(1.21031 -2.0642e-09 1.46069e-16)
(1.21031 -1.8293e-09 1.42244e-16)
(1.21031 -1.62659e-09 1.30441e-16)
(1.21031 -1.48477e-09 1.22167e-16)
(1.21031 -1.35788e-09 1.1448e-16)
(1.21031 -1.17907e-09 1.10833e-16)
(1.21031 -9.24085e-10 1.10745e-16)
(1.21031 -5.69762e-10 1.04796e-16)
(1.21031 -1.65664e-10 9.83094e-17)
(1.21031 1.04924e-10 9.46189e-17)
(1.21031 2.40506e-10 9.43439e-17)
(1.21031 3.77325e-10 9.80982e-17)
(1.21031 5.29217e-10 9.50847e-17)
(1.21031 6.32707e-10 9.95337e-17)
(1.21031 6.73467e-10 1.00973e-16)
(1.21031 7.60508e-10 9.82328e-17)
(1.21031 8.31929e-10 9.30792e-17)
(1.21031 1.21855e-09 8.95943e-17)
(1.21031 6.96144e-10 9.04005e-17)
(1.21031 4.91821e-10 8.73675e-17)
(1.21031 1.34749e-09 8.56453e-17)
(1.21031 1.08144e-09 9.01183e-17)
(1.21031 4.31978e-10 9.68302e-17)
(1.21031 -1.71669e-10 9.32539e-17)
(1.21031 -6.79428e-10 9.24452e-17)
(1.21031 -1.12113e-09 8.84863e-17)
(1.21031 -1.71818e-09 8.61106e-17)
(1.21031 -1.4292e-09 8.00801e-17)
(1.21031 -2.12033e-09 7.39744e-17)
(1.21031 -3.98601e-09 6.82522e-17)
(1.21031 -4.29305e-09 6.61798e-17)
(1.21031 -3.86546e-09 6.32618e-17)
(1.21031 -3.22122e-09 5.8326e-17)
(1.21031 -2.65778e-09 5.61645e-17)
(1.21031 -2.04259e-09 5.36209e-17)
(1.21031 -1.60525e-09 5.50127e-17)
(1.21031 -6.1377e-10 5.43447e-17)
(1.21031 -2.78965e-10 5.26947e-17)
(1.21031 -1.45724e-09 5.42697e-17)
(1.21031 -2.36449e-09 5.41072e-17)
(1.21031 -2.88063e-09 5.31844e-17)
(1.21031 -2.99725e-09 5.17109e-17)
(1.21031 -2.77002e-09 5.04713e-17)
(1.21031 -2.28145e-09 4.76786e-17)
(1.21031 -1.713e-09 4.68978e-17)
(1.21031 -1.09048e-09 4.58696e-17)
(1.21031 -7.84404e-10 4.52232e-17)
(1.21031 -9.89398e-10 4.59902e-17)
(1.21031 -1.33568e-09 4.58889e-17)
(1.21031 -1.72827e-09 4.51632e-17)
(1.21031 -2.13354e-09 4.21859e-17)
(1.21031 -2.57607e-09 3.86326e-17)
(1.21031 -3.08906e-09 3.60422e-17)
(1.21031 -3.61676e-09 3.20962e-17)
(1.21031 -4.09793e-09 2.87633e-17)
(1.21031 -4.50319e-09 2.54981e-17)
(1.21031 -4.95315e-09 2.2413e-17)
(1.21031 -5.43537e-09 1.96401e-17)
(1.21031 -6.24103e-09 1.50136e-17)
(1.21031 -6.70826e-09 1.28707e-17)
(1.21031 -7.47656e-09 1.09276e-17)
(1.2045 2.87888e-09 8.93043e-17)
(1.2045 -1.43893e-09 8.18562e-17)
(1.2045 -3.25333e-09 7.82115e-17)
(1.2045 -3.61671e-09 8.28179e-17)
(1.2045 -3.27797e-09 9.75769e-17)
(1.2045 -2.80041e-09 8.97199e-17)
(1.2045 -2.42431e-09 9.81888e-17)
(1.2045 -2.09034e-09 8.6979e-17)
(1.2045 -1.84223e-09 8.98837e-17)
(1.2045 -1.67346e-09 7.29885e-17)
(1.2045 -1.5342e-09 5.91921e-17)
(1.2045 -1.35179e-09 5.92344e-17)
(1.2045 -1.07722e-09 6.17553e-17)
(1.2045 -7.12663e-10 6.72174e-17)
(1.2045 -3.14944e-10 5.46847e-17)
(1.2045 -7.69562e-11 5.97152e-17)
(1.2045 6.24341e-11 5.45639e-17)
(1.2045 2.6989e-10 6.29501e-17)
(1.2045 4.72463e-10 5.92572e-17)
(1.2045 6.09001e-10 5.48293e-17)
(1.2045 6.96295e-10 5.75966e-17)
(1.2045 8.34556e-10 6.46401e-17)
(1.2045 1.1326e-09 5.47401e-17)
(1.2045 1.56738e-09 4.2485e-17)
(1.2045 2.39087e-09 4.86187e-17)
(1.2045 3.32807e-09 5.2941e-17)
(1.2045 3.16976e-09 4.91171e-17)
(1.2045 2.02292e-09 4.66501e-17)
(1.2045 9.77979e-10 5.29441e-17)
(1.2045 1.64739e-10 6.08187e-17)
(1.2045 -4.74786e-10 5.41707e-17)
(1.2045 -1.00987e-09 5.88198e-17)
(1.2045 -1.74478e-09 5.32545e-17)
(1.2045 -1.44132e-09 5.20851e-17)
(1.2045 -2.44615e-09 4.40042e-17)
(1.2045 -4.69807e-09 3.51254e-17)
(1.2045 -4.83926e-09 3.51032e-17)
(1.2045 -4.15325e-09 3.48584e-17)
(1.2045 -3.35256e-09 3.54997e-17)
(1.2045 -2.72227e-09 3.03495e-17)
(1.2045 -2.05501e-09 3.39161e-17)
(1.2045 -1.63141e-09 3.06253e-17)
(1.2045 -3.80428e-10 3.51194e-17)
(1.2045 2.42964e-11 3.24333e-17)
(1.2045 -1.5227e-09 3.02668e-17)
(1.2045 -2.61056e-09 3.11753e-17)
(1.2045 -3.15937e-09 3.46896e-17)
(1.2045 -3.24667e-09 3.18561e-17)
(1.2045 -2.97803e-09 2.76841e-17)
(1.2045 -2.41809e-09 2.64939e-17)
(1.2045 -1.74567e-09 2.93485e-17)
(1.2045 -9.50835e-10 2.66026e-17)
(1.2045 -5.19087e-10 2.54771e-17)
(1.2045 -7.29138e-10 2.80091e-17)
(1.2045 -1.10051e-09 2.98434e-17)
(1.2045 -1.54984e-09 2.79064e-17)
(1.2045 -2.02507e-09 2.81876e-17)
(1.2045 -2.55185e-09 2.49606e-17)
(1.2045 -3.1263e-09 2.32581e-17)
(1.2045 -3.71721e-09 2.22277e-17)
(1.2045 -4.25787e-09 1.86821e-17)
(1.2045 -4.75487e-09 1.67742e-17)
(1.2045 -5.29365e-09 1.48719e-17)
(1.2045 -5.89869e-09 1.29456e-17)
(1.2045 -6.75671e-09 9.22068e-18)
(1.2045 -7.46369e-09 7.65814e-18)
(1.2045 -8.31612e-09 6.47424e-18)
(1.19699 3.5158e-09 2.38497e-18)
(1.19699 -3.20565e-09 2.42033e-17)
(1.19699 -5.08922e-09 7.90905e-18)
(1.19699 -4.84712e-09 2.27794e-17)
(1.19699 -4.03862e-09 1.16699e-17)
(1.19699 -3.26355e-09 3.54397e-17)
(1.19699 -2.723e-09 1.4603e-17)
(1.19699 -2.33694e-09 3.54339e-17)
(1.19699 -2.07017e-09 1.2539e-17)
(1.19699 -1.88057e-09 2.69202e-17)
(1.19699 -1.70149e-09 3.93289e-18)
(1.19699 -1.4773e-09 1.23498e-17)
(1.19699 -1.16648e-09 1.81301e-17)
(1.19699 -7.88439e-10 1.93375e-18)
(1.19699 -4.05551e-10 1.52985e-17)
(1.19699 -1.91706e-10 -3.56595e-18)
(1.19699 -6.8622e-11 1.67651e-17)
(1.19699 1.5063e-10 3.58234e-18)
(1.19699 3.95293e-10 2.27288e-17)
(1.19699 6.01432e-10 1.02788e-17)
(1.19699 7.63952e-10 1.77998e-17)
(1.19699 9.4274e-10 3.42815e-18)
(1.19699 1.36142e-09 1.70303e-17)
(1.19699 1.80334e-09 2.90841e-18)
(1.19699 4.15684e-09 6.80562e-18)
)
;

boundaryField
{
    inlet
    {
        type            uniformFixedValue;
        uniformValue    constant (1 0 0);
        value           nonuniform 0();
    }
    outlet
    {
        type            pressureInletOutletVelocity;
        value           nonuniform List<vector> 5((1.22286 -4.4997e-09 3.37936e-17) (1.21809 -5.84587e-09 2.1657e-17) (1.21475 -6.64073e-09 1.59644e-17) (1.21031 -7.47656e-09 1.09276e-17) (1.2045 -8.31612e-09 6.47424e-18));
    }
    wall
    {
        type            fixedValue;
        value           nonuniform 0();
    }
    wedge1
    {
        type            wedge;
    }
    wedge2
    {
        type            wedge;
    }
    axis
    {
        type            empty;
    }
    procBoundary23to17
    {
        type            processor;
        value           nonuniform List<vector> 
68
(
(1.22583 1.08917e-09 4.77524e-16)
(1.22583 1.04669e-09 4.61701e-16)
(1.22583 8.89994e-10 4.42295e-16)
(1.22583 6.91126e-10 5.21998e-16)
(1.22583 4.47242e-10 4.96553e-16)
(1.22583 1.75431e-10 4.79527e-16)
(1.22583 -2.47469e-10 4.5327e-16)
(1.22583 -6.55253e-10 4.90299e-16)
(1.22583 -1.6944e-09 4.65613e-16)
(1.22583 -2.68344e-09 4.38076e-16)
(1.22583 -2.54632e-09 4.1731e-16)
(1.22583 -2.23507e-09 4.6046e-16)
(1.22583 -2.09381e-09 4.42358e-16)
(1.22583 -2.05365e-09 4.27711e-16)
(1.22583 -2.04999e-09 4.15463e-16)
(1.22583 -2.03679e-09 3.91214e-16)
(1.22583 -2.04583e-09 3.68181e-16)
(1.22583 -1.99546e-09 3.41145e-16)
(1.22583 -2.04801e-09 3.18819e-16)
(1.22583 -2.27387e-09 3.51374e-16)
(1.22583 -2.38062e-09 3.32822e-16)
(1.22583 -2.34089e-09 3.19369e-16)
(1.22583 -2.19788e-09 3.02688e-16)
(1.22583 -1.99943e-09 2.9464e-16)
(1.22583 -1.75635e-09 2.78274e-16)
(1.22583 -1.52809e-09 2.7001e-16)
(1.22583 -1.30997e-09 2.54717e-16)
(1.22583 -1.23086e-09 2.44133e-16)
(1.22583 -1.39677e-09 2.749e-16)
(1.22583 -1.64017e-09 2.66222e-16)
(1.22583 -1.87476e-09 2.54663e-16)
(1.22583 -2.04555e-09 2.42508e-16)
(1.22583 -2.10994e-09 2.52426e-16)
(1.22583 -2.05272e-09 2.35916e-16)
(1.22583 -1.92002e-09 2.16991e-16)
(1.22583 -1.79009e-09 2.05805e-16)
(1.22583 -1.75958e-09 2.16098e-16)
(1.22583 -1.86675e-09 2.03959e-16)
(1.22583 -2.04492e-09 1.9363e-16)
(1.22583 -2.22322e-09 1.82973e-16)
(1.22583 -2.36978e-09 1.67916e-16)
(1.22583 -2.49585e-09 1.54808e-16)
(1.22583 -2.62751e-09 1.43749e-16)
(1.22583 -2.76224e-09 1.2747e-16)
(1.22583 -2.88213e-09 1.13117e-16)
(1.22583 -2.96285e-09 1.02342e-16)
(1.22583 -3.05274e-09 9.17949e-17)
(1.22583 -3.118e-09 8.27707e-17)
(1.22583 -3.32962e-09 7.32947e-17)
(1.22583 -3.26679e-09 6.4691e-17)
(1.22583 -3.43063e-09 5.60119e-17)
(1.22286 2.15622e-09 4.60135e-16)
(1.22286 2.36764e-09 4.25063e-16)
(1.22286 1.57478e-09 5.0229e-16)
(1.22286 6.54549e-10 4.75851e-16)
(1.22286 -8.25942e-11 4.57184e-16)
(1.22286 -5.27635e-10 4.35772e-16)
(1.22286 -7.4925e-10 4.1431e-16)
(1.22286 -8.13213e-10 3.94124e-16)
(1.22286 -7.98377e-10 3.72471e-16)
(1.22286 -7.74649e-10 3.38158e-16)
(1.22286 -7.66271e-10 3.99427e-16)
(1.22286 -6.64204e-10 3.68704e-16)
(1.22286 -3.65435e-10 3.47052e-16)
(1.22286 7.38521e-11 3.39116e-16)
(1.22286 5.01834e-10 3.18962e-16)
(1.22286 8.95074e-10 3.10404e-16)
(1.22286 8.95074e-10 3.10404e-16)
)
;
    }
    procBoundary23to22
    {
        type            processor;
        value           nonuniform List<vector> 4((1.21809 2.89473e-09 2.9972e-16) (1.21475 3.28391e-09 2.19108e-16) (1.21031 3.72778e-09 1.46785e-16) (1.2045 4.65609e-09 7.89786e-17));
    }
    procBoundary23to28
    {
        type            processor;
        value           uniform (1.19699 6.05769e-09 1.8449e-17);
    }
    procBoundary23to29
    {
        type            processor;
        value           nonuniform List<vector> 
68
(
(1.19699 5.97602e-09 -1.12239e-18)
(1.19699 4.54646e-09 1.27752e-17)
(1.19699 2.76487e-09 5.9211e-18)
(1.19699 1.41875e-09 1.40151e-17)
(1.19699 4.68825e-10 7.64992e-18)
(1.19699 -3.07306e-10 1.8301e-17)
(1.19699 -9.19121e-10 9.17955e-18)
(1.19699 -1.80559e-09 2.1838e-17)
(1.19699 -1.60642e-09 7.76187e-18)
(1.19699 -3.05197e-09 1.68984e-17)
(1.19699 -5.59587e-09 3.87681e-18)
(1.19699 -5.39464e-09 6.82495e-18)
(1.19699 -4.36281e-09 1.08896e-17)
(1.19699 -3.41045e-09 -1.03298e-18)
(1.19699 -2.74652e-09 7.24889e-18)
(1.19699 -2.05099e-09 6.61925e-19)
(1.19699 -1.68777e-09 7.92867e-18)
(1.19699 -1.12252e-10 1.84857e-18)
(1.19699 3.7741e-10 1.179e-17)
(1.19699 -1.62953e-09 7.41777e-18)
(1.19699 -2.88126e-09 1.06949e-17)
(1.19699 -3.42391e-09 4.98265e-18)
(1.19699 -3.471e-09 1.15283e-17)
(1.19699 -3.20361e-09 5.6195e-18)
(1.19699 -2.61384e-09 8.19032e-18)
(1.19699 -1.85201e-09 4.02631e-18)
(1.19699 -8.57907e-10 9.57513e-18)
(1.19699 -2.71259e-10 6.26882e-18)
(1.19699 -4.76009e-10 1.058e-17)
(1.19699 -8.57955e-10 7.83239e-18)
(1.19699 -1.33285e-09 1.2629e-17)
(1.19699 -1.8676e-09 9.13162e-18)
(1.19699 -2.47931e-09 1.22336e-17)
(1.19699 -3.1335e-09 1.26285e-17)
(1.19699 -3.79547e-09 8.60398e-18)
(1.19699 -4.42046e-09 9.48677e-18)
(1.19699 -5.02256e-09 8.89981e-18)
(1.19699 -5.66468e-09 7.91941e-18)
(1.19699 -6.39797e-09 7.21224e-18)
(1.19699 -7.2941e-09 3.4019e-18)
(1.19699 -8.20503e-09 3.18134e-18)
(1.19699 -9.13074e-09 2.66291e-18)
(1.18741 5.57123e-09 -4.03622e-17)
(1.18741 -4.30769e-09 -2.25891e-17)
(1.18741 -6.51117e-09 -5.6195e-17)
(1.18741 -5.8181e-09 -2.67234e-17)
(1.18741 -4.62168e-09 -3.0516e-17)
(1.18741 -3.61191e-09 -1.05967e-17)
(1.18741 -2.92769e-09 -2.52318e-17)
(1.18741 -2.54453e-09 -8.46309e-18)
(1.18741 -2.29792e-09 -2.15039e-17)
(1.18741 -2.08902e-09 -9.14798e-18)
(1.18741 -1.84601e-09 -4.7013e-17)
(1.18741 -1.54557e-09 -2.83367e-17)
(1.18741 -1.19084e-09 -1.72312e-17)
(1.18741 -7.99598e-10 -2.86899e-17)
(1.18741 -4.5199e-10 -1.6784e-17)
(1.18741 -2.87248e-10 -2.98912e-17)
(1.18741 -2.05058e-10 -1.35539e-17)
(1.18741 -1.08473e-12 -2.24282e-17)
(1.18741 3.02249e-10 -9.61672e-18)
(1.18741 6.13682e-10 -3.41379e-17)
(1.18741 8.7382e-10 -1.6003e-17)
(1.18741 1.08282e-09 -2.5741e-17)
(1.18741 1.48786e-09 -1.49858e-17)
(1.18741 1.87707e-09 -4.07227e-17)
(1.19699 5.97602e-09 -1.12239e-18)
(1.18741 5.01911e-09 -2.44314e-17)
)
;
    }
}


// ************************************************************************* //
