/*--------------------------------*- C++ -*----------------------------------*\
  =========                 |
  \\      /  F ield         | OpenFOAM: The Open Source CFD Toolbox
   \\    /   O peration     | Website:  https://openfoam.org
    \\  /    A nd           | Version:  7
     \\/     M anipulation  |
\*---------------------------------------------------------------------------*/
FoamFile
{
    version     2.0;
    format      ascii;
    class       volVectorField;
    location    "3.8";
    object      U;
}
// * * * * * * * * * * * * * * * * * * * * * * * * * * * * * * * * * * * * * //

dimensions      [0 1 -1 0 0 0 0];

internalField   nonuniform List<vector> 
100800
(
(3 -1.08007e-17 0)
(3 2.10691e-16 0)
(3 2.12545e-16 0)
(3 4.98533e-17 0)
(3 -5.09399e-16 0)
(3 -4.23942e-16 0)
(3 1.37688e-16 0)
(3 1.34929e-16 0)
(3 3.71244e-16 0)
(3 2.87979e-16 0)
(3 1.35132e-16 0)
(3 8.51295e-17 0)
(3 5.21198e-18 0)
(3 -1.97301e-16 0)
(3 -5.99666e-16 0)
(3 -3.21567e-16 0)
(3 1.6825e-16 0)
(3 2.31081e-16 0)
(3 -1.43267e-17 0)
(3 -9.10346e-16 0)
(3 -4.0839e-16 0)
(3 9.41214e-16 0)
(3 1.98341e-15 0)
(3 2.42191e-15 0)
(3 2.12704e-15 0)
(3 1.46693e-15 0)
(3 1.25258e-15 0)
(3 6.01469e-16 0)
(3 3.98228e-16 0)
(3 2.81349e-16 0)
(3 3.77479e-16 0)
(3 3.84084e-16 0)
(3 5.70031e-16 0)
(3 5.84746e-16 0)
(3 -2.26232e-16 0)
(3 -7.92583e-16 0)
(3 -3.7286e-16 0)
(3 9.40498e-17 0)
(3 -1.14987e-16 0)
(3 -3.30721e-17 0)
(3 1.30036e-15 0)
(3 2.29247e-15 0)
(3 1.9671e-15 0)
(3 8.7756e-16 0)
(3 7.75293e-16 0)
(3 4.29103e-16 0)
(3 6.91121e-16 0)
(3 1.90652e-17 0)
(3 -2.70654e-16 0)
(3 -1.20233e-16 0)
(3 7.24069e-16 0)
(3 7.79933e-16 0)
(3 3.90053e-16 0)
(3 8.16061e-17 0)
(3 -8.16396e-16 0)
(3 6.08648e-17 0)
(3 4.86124e-16 0)
(3 9.8399e-17 0)
(3 -6.68259e-16 0)
(3 -1.24354e-15 0)
(3 -1.72862e-15 0)
(1.58679 0.00227734 0)
(0.793378 0.00152503 0)
(0.761131 0.00480045 0)
(0.749453 0.00597275 0)
(0.734272 0.0062206 0)
(0.719606 0.00651755 0)
(0.704283 0.00661462 0)
(0.689131 0.00616261 0)
(0.675607 0.00489892 0)
(0.664744 0.00373963 0)
(0.655622 0.00363016 0)
(0.646552 0.00407105 0)
(0.636454 0.00476643 0)
(0.624805 0.00560465 0)
(0.611496 0.0063994 0)
(0.596893 0.00685687 0)
(0.582 0.00661271 0)
(0.568126 0.0056484 0)
(0.556481 0.0045945 0)
(0.546399 0.00434825 0)
(0.5364 0.00474087 0)
(0.525251 0.00541463 0)
(0.512532 0.00619027 0)
(0.498359 0.00673006 0)
(0.483673 0.00653128 0)
(0.470383 0.00560853 0)
(0.458835 0.00499576 0)
(0.447703 0.00522934 0)
(0.435663 0.00591478 0)
(0.422455 0.00643631 0)
(0.408873 0.00638795 0)
(0.395792 0.00608826 0)
(0.383099 0.00604991 0)
(0.370315 0.00621012 0)
(0.357321 0.00629869 0)
(0.344152 0.00628387 0)
(0.330768 0.00630451 0)
(0.317142 0.0064153 0)
(0.303374 0.00656166 0)
(0.289556 0.0066827 0)
(0.275908 0.00674731 0)
(0.262536 0.00675444 0)
(0.249304 0.00673504 0)
(0.235926 0.00674182 0)
(0.22222 0.00681114 0)
(0.208236 0.00693152 0)
(0.194102 0.00706245 0)
(0.179868 0.00713546 0)
(0.165452 0.00713522 0)
(0.150699 0.00713104 0)
(0.135596 0.00720569 0)
(0.120309 0.00738117 0)
(0.105069 0.00759736 0)
(0.0898805 0.00780593 0)
(0.074496 0.00792931 0)
(0.0585485 0.00802431 0)
(0.041909 0.00818812 0)
(0.0249797 0.00829736 0)
(0.00833926 0.00841511 0)
(3 -4.86707e-17 0)
(3 4.22244e-16 0)
(3 3.55591e-16 0)
(3 -3.97647e-16 0)
(3 -4.17771e-16 0)
(3 -4.55348e-17 0)
(3 2.44698e-16 0)
(3 1.77918e-16 0)
(3 4.30639e-16 0)
(3 6.52503e-16 0)
(3 3.53707e-16 0)
(3 4.74735e-17 0)
(3 -6.97326e-16 0)
(3 -1.5535e-15 0)
(3 -1.60342e-15 0)
(3 -1.21962e-15 0)
(3 -2.80705e-16 0)
(3 1.64356e-16 0)
(3 1.95001e-16 0)
(3 2.56498e-16 0)
(3 8.52372e-16 0)
(3 1.82837e-15 0)
(3 2.71325e-15 0)
(3 3.1925e-15 0)
(3 2.40516e-15 0)
(3 1.00935e-15 0)
(3 6.28833e-16 0)
(3 -3.40095e-16 0)
(3 -2.34083e-16 0)
(3 7.14083e-17 0)
(3 3.46564e-16 0)
(3 5.11992e-16 0)
(3 6.9258e-17 0)
(3 -5.34557e-16 0)
(3 -1.49729e-15 0)
(3 -2.15276e-15 0)
(3 -1.05181e-15 0)
(3 4.109e-16 0)
(3 2.49311e-19 0)
(3 4.38166e-16 0)
(3 1.93257e-15 0)
(3 2.85842e-15 0)
(3 2.63923e-15 0)
(3 1.85202e-15 0)
(3 1.34312e-15 0)
(3 8.55511e-16 0)
(3 8.98958e-16 0)
(3 6.10766e-16 0)
(3 1.03813e-16 0)
(3 3.0195e-16 0)
(3 4.47822e-16 0)
(3 5.73313e-16 0)
(3 3.46686e-16 0)
(3 1.13673e-16 0)
(3 -1.92178e-16 0)
(3 1.71939e-16 0)
(3 6.18699e-16 0)
(3 4.31796e-16 0)
(3 -1.52553e-16 0)
(3 -1.15013e-15 0)
(3 -1.92751e-15 0)
(1.5927 0.0119611 0)
(0.790959 0.00831627 0)
(0.757449 0.0127432 0)
(0.746722 0.017107 0)
(0.731915 0.0178224 0)
(0.717904 0.0187668 0)
(0.703239 0.0191806 0)
(0.688498 0.0182556 0)
(0.674695 0.0154867 0)
(0.662838 0.0120457 0)
(0.652652 0.0105273 0)
(0.64323 0.0113863 0)
(0.633262 0.0134339 0)
(0.622035 0.0159957 0)
(0.609339 0.0184506 0)
(0.595383 0.0199719 0)
(0.580919 0.0196066 0)
(0.566986 0.0173364 0)
(0.554738 0.0144016 0)
(0.543842 0.0130364 0)
(0.533437 0.0137657 0)
(0.522328 0.0156907 0)
(0.509938 0.0179884 0)
(0.4963 0.0195995 0)
(0.482119 0.0192453 0)
(0.469008 0.0169632 0)
(0.457094 0.0152493 0)
(0.44548 0.0156951 0)
(0.433285 0.0175517 0)
(0.420142 0.0190122 0)
(0.406768 0.0188971 0)
(0.393862 0.0181539 0)
(0.381173 0.0181439 0)
(0.368303 0.0186838 0)
(0.355208 0.0189594 0)
(0.342017 0.0188607 0)
(0.32873 0.0188129 0)
(0.315261 0.019057 0)
(0.301609 0.01945 0)
(0.287828 0.0198622 0)
(0.274095 0.0202236 0)
(0.260568 0.0204393 0)
(0.247261 0.0204464 0)
(0.234007 0.0203515 0)
(0.220551 0.0203789 0)
(0.206759 0.0206523 0)
(0.192661 0.0210498 0)
(0.17832 0.0214066 0)
(0.163788 0.0215686 0)
(0.149114 0.0215912 0)
(0.134325 0.0217061 0)
(0.119419 0.0220826 0)
(0.1044 0.0226869 0)
(0.0892638 0.0233421 0)
(0.0738925 0.0238636 0)
(0.0580856 0.0242338 0)
(0.0417822 0.0246941 0)
(0.0250959 0.0250085 0)
(0.0084384 0.0254128 0)
(3 -3.05794e-17 0)
(3 4.11407e-17 0)
(3 -1.40688e-16 0)
(3 -5.04055e-16 0)
(3 -3.43529e-17 0)
(3 -1.41447e-16 0)
(3 -4.97439e-17 0)
(3 8.72528e-16 0)
(3 1.11858e-15 0)
(3 5.83919e-16 0)
(3 2.48815e-16 0)
(3 -9.17643e-16 0)
(3 -2.11844e-15 0)
(3 -1.98458e-15 0)
(3 -1.93026e-15 0)
(3 -2.34348e-15 0)
(3 -1.64139e-15 0)
(3 -8.37316e-16 0)
(3 -3.95093e-16 0)
(3 6.85648e-16 0)
(3 1.61459e-15 0)
(3 2.16015e-15 0)
(3 2.55354e-15 0)
(3 2.69477e-15 0)
(3 2.1827e-15 0)
(3 1.64518e-15 0)
(3 1.0009e-15 0)
(3 -5.95876e-17 0)
(3 9.00597e-18 0)
(3 6.04718e-16 0)
(3 6.15487e-16 0)
(3 8.96711e-16 0)
(3 8.25027e-16 0)
(3 -1.05265e-15 0)
(3 -1.0005e-15 0)
(3 -1.14103e-15 0)
(3 -1.03551e-15 0)
(3 -5.42575e-16 0)
(3 4.07526e-16 0)
(3 1.44271e-15 0)
(3 2.58232e-15 0)
(3 2.04037e-15 0)
(3 1.8792e-15 0)
(3 2.14507e-15 0)
(3 1.96317e-15 0)
(3 1.8292e-15 0)
(3 1.78532e-15 0)
(3 1.88011e-15 0)
(3 1.59976e-15 0)
(3 9.98281e-16 0)
(3 2.82941e-16 0)
(3 3.04926e-16 0)
(3 4.86712e-17 0)
(3 2.6321e-16 0)
(3 5.58626e-16 0)
(3 8.71208e-16 0)
(3 5.84888e-16 0)
(3 3.55593e-16 0)
(3 1.69108e-16 0)
(3 -3.87812e-17 0)
(3 -1.02177e-15 0)
(1.6111 0.0224547 0)
(0.791903 0.0161097 0)
(0.755452 0.0216331 0)
(0.745506 0.0280562 0)
(0.731243 0.02934 0)
(0.717969 0.0307102 0)
(0.704058 0.0312907 0)
(0.689918 0.0300995 0)
(0.676112 0.0265705 0)
(0.663211 0.021901 0)
(0.65139 0.0190631 0)
(0.640753 0.0196084 0)
(0.630405 0.0223684 0)
(0.619404 0.0261666 0)
(0.60736 0.0299445 0)
(0.594255 0.0323705 0)
(0.580567 0.0321418 0)
(0.567039 0.0292119 0)
(0.554462 0.025126 0)
(0.542661 0.0227509 0)
(0.531418 0.0234037 0)
(0.520002 0.0261244 0)
(0.507713 0.0295634 0)
(0.49446 0.0320099 0)
(0.480751 0.0316287 0)
(0.467964 0.0284718 0)
(0.45586 0.0259514 0)
(0.443774 0.0265301 0)
(0.431354 0.0292979 0)
(0.418149 0.0314805 0)
(0.40486 0.0312469 0)
(0.392076 0.0301288 0)
(0.379389 0.0302031 0)
(0.366431 0.0311368 0)
(0.353181 0.0316442 0)
(0.339855 0.0315476 0)
(0.326549 0.031495 0)
(0.313197 0.0318131 0)
(0.299679 0.0323665 0)
(0.285937 0.032921 0)
(0.272077 0.0334319 0)
(0.25828 0.033848 0)
(0.244712 0.0340581 0)
(0.231411 0.0340854 0)
(0.218165 0.0341266 0)
(0.20464 0.0344037 0)
(0.190642 0.0348924 0)
(0.176201 0.0353406 0)
(0.1615 0.0356391 0)
(0.146805 0.0358396 0)
(0.132266 0.0361469 0)
(0.117775 0.0367239 0)
(0.103106 0.037542 0)
(0.0881346 0.0384887 0)
(0.0728379 0.0393657 0)
(0.0572205 0.0401797 0)
(0.0412592 0.0410546 0)
(0.0249644 0.0415892 0)
(0.00849524 0.0422188 0)
(3 6.72436e-17 0)
(3 -4.60662e-16 0)
(3 -6.23773e-16 0)
(3 -3.09012e-16 0)
(3 9.17696e-17 0)
(3 3.34965e-16 0)
(3 6.30643e-16 0)
(3 1.08104e-15 0)
(3 9.94136e-17 0)
(3 -3.51403e-16 0)
(3 -4.25052e-16 0)
(3 -9.17884e-16 0)
(3 -7.16781e-16 0)
(3 -8.07847e-16 0)
(3 -1.0979e-15 0)
(3 -1.30252e-15 0)
(3 -1.15207e-15 0)
(3 -1.18623e-15 0)
(3 -1.01157e-15 0)
(3 2.37372e-16 0)
(3 9.64788e-16 0)
(3 1.54545e-15 0)
(3 3.05432e-15 0)
(3 3.26684e-15 0)
(3 2.32296e-15 0)
(3 9.78314e-16 0)
(3 -1.12218e-17 0)
(3 3.14693e-16 0)
(3 9.04678e-16 0)
(3 9.35911e-16 0)
(3 7.4245e-16 0)
(3 8.10161e-16 0)
(3 1.17176e-15 0)
(3 8.91129e-16 0)
(3 -3.32465e-16 0)
(3 -1.35069e-15 0)
(3 -1.83845e-15 0)
(3 -1.7577e-15 0)
(3 -1.02606e-16 0)
(3 1.38464e-15 0)
(3 2.80199e-15 0)
(3 1.89311e-15 0)
(3 1.65815e-15 0)
(3 1.65077e-15 0)
(3 2.14319e-15 0)
(3 2.06849e-15 0)
(3 1.89745e-15 0)
(3 1.63633e-15 0)
(3 1.91311e-15 0)
(3 1.89683e-15 0)
(3 1.16474e-15 0)
(3 6.89468e-16 0)
(3 3.30997e-16 0)
(3 1.61843e-16 0)
(3 1.08144e-15 0)
(3 1.1712e-15 0)
(3 2.91093e-16 0)
(3 -4.38148e-19 0)
(3 -1.37357e-16 0)
(3 -8.63495e-17 0)
(3 -2.93634e-15 0)
(1.64057 0.0338766 0)
(0.794232 0.0254648 0)
(0.753307 0.0300572 0)
(0.744914 0.0378131 0)
(0.732031 0.0400095 0)
(0.719862 0.0418116 0)
(0.706793 0.0424804 0)
(0.693211 0.0413129 0)
(0.679251 0.0379156 0)
(0.665414 0.0329747 0)
(0.652189 0.029048 0)
(0.640217 0.0287717 0)
(0.629388 0.0316531 0)
(0.618635 0.0360852 0)
(0.60736 0.0407064 0)
(0.595236 0.0438027 0)
(0.582429 0.0438751 0)
(0.569313 0.0409539 0)
(0.556284 0.0365121 0)
(0.54356 0.0333488 0)
(0.531332 0.0336498 0)
(0.519504 0.0367768 0)
(0.507321 0.0409853 0)
(0.494485 0.0440022 0)
(0.481258 0.0436994 0)
(0.468698 0.0401422 0)
(0.45634 0.0371264 0)
(0.443726 0.0377891 0)
(0.43101 0.0412441 0)
(0.417672 0.0439747 0)
(0.404384 0.0436041 0)
(0.391639 0.0421851 0)
(0.378893 0.0423723 0)
(0.365823 0.04369 0)
(0.352377 0.0444569 0)
(0.338827 0.0444338 0)
(0.325358 0.0444431 0)
(0.311979 0.0448514 0)
(0.298507 0.0454296 0)
(0.284754 0.0460147 0)
(0.270718 0.0466249 0)
(0.256589 0.0472409 0)
(0.242652 0.0477401 0)
(0.22911 0.0480099 0)
(0.215869 0.0481256 0)
(0.202495 0.0483292 0)
(0.188557 0.0486965 0)
(0.173995 0.0491442 0)
(0.159109 0.0495454 0)
(0.144334 0.0499614 0)
(0.129907 0.050515 0)
(0.115677 0.051289 0)
(0.101284 0.0522515 0)
(0.0864909 0.0533584 0)
(0.0712912 0.0545121 0)
(0.0559746 0.0557876 0)
(0.0404658 0.0571478 0)
(0.0246263 0.0579808 0)
(0.00845017 0.058863 0)
(3 1.18159e-16 0)
(3 -1.90962e-16 0)
(3 -3.51318e-16 0)
(3 -1.30758e-16 0)
(3 9.90306e-16 0)
(3 1.27237e-15 0)
(3 1.17097e-15 0)
(3 4.61774e-16 0)
(3 -9.50012e-16 0)
(3 -9.69336e-16 0)
(3 -1.30824e-15 0)
(3 -1.42308e-15 0)
(3 -9.22202e-16 0)
(3 -6.29171e-16 0)
(3 -9.25572e-16 0)
(3 -1.13406e-15 0)
(3 -1.47453e-15 0)
(3 -1.51589e-15 0)
(3 -1.49168e-15 0)
(3 -1.26058e-15 0)
(3 -5.89301e-16 0)
(3 4.93226e-16 0)
(3 8.16133e-16 0)
(3 1.17637e-15 0)
(3 1.65339e-15 0)
(3 2.11555e-15 0)
(3 1.49244e-15 0)
(3 1.55847e-15 0)
(3 1.23107e-15 0)
(3 9.37244e-16 0)
(3 2.39969e-16 0)
(3 4.70281e-16 0)
(3 1.25271e-15 0)
(3 4.76126e-16 0)
(3 -3.92747e-16 0)
(3 -1.61332e-15 0)
(3 -2.47664e-15 0)
(3 -2.16664e-15 0)
(3 -3.53935e-16 0)
(3 2.87503e-15 0)
(3 3.06933e-15 0)
(3 2.47836e-15 0)
(3 1.94327e-15 0)
(3 1.82787e-15 0)
(3 1.9881e-15 0)
(3 1.14679e-15 0)
(3 7.43024e-16 0)
(3 7.03086e-16 0)
(3 1.25621e-15 0)
(3 1.86148e-15 0)
(3 1.25954e-15 0)
(3 4.98142e-16 0)
(3 1.07906e-16 0)
(3 1.09859e-17 0)
(3 1.79612e-16 0)
(3 2.92903e-16 0)
(3 4.54243e-16 0)
(3 -2.0349e-17 0)
(3 1.61774e-18 0)
(3 -2.6583e-16 0)
(3 -1.63691e-15 0)
(1.6831 0.0463342 0)
(0.798347 0.0369976 0)
(0.750129 0.0377648 0)
(0.743386 0.0460148 0)
(0.732206 0.0495147 0)
(0.721113 0.0522025 0)
(0.70865 0.0532939 0)
(0.695332 0.0526374 0)
(0.681125 0.0498958 0)
(0.666488 0.0452918 0)
(0.652187 0.0404884 0)
(0.639051 0.0386314 0)
(0.62775 0.0407706 0)
(0.6175 0.0453048 0)
(0.607324 0.0504334 0)
(0.596474 0.0541428 0)
(0.584668 0.0548851 0)
(0.572004 0.0526511 0)
(0.558535 0.048586 0)
(0.545024 0.0448609 0)
(0.531871 0.0443701 0)
(0.519729 0.0473921 0)
(0.507878 0.0519635 0)
(0.495653 0.055373 0)
(0.482974 0.0553691 0)
(0.47059 0.0518907 0)
(0.458029 0.0486547 0)
(0.444979 0.0493417 0)
(0.432019 0.0532729 0)
(0.418577 0.056415 0)
(0.405272 0.0559393 0)
(0.392538 0.0543029 0)
(0.379757 0.0546057 0)
(0.366644 0.0562679 0)
(0.353066 0.0572987 0)
(0.339306 0.0574203 0)
(0.325592 0.0576065 0)
(0.312045 0.0581949 0)
(0.298516 0.0588216 0)
(0.284756 0.0593388 0)
(0.270633 0.0599378 0)
(0.256275 0.0607222 0)
(0.242007 0.0615277 0)
(0.228132 0.0621225 0)
(0.214688 0.0624023 0)
(0.201299 0.0625314 0)
(0.187416 0.0627075 0)
(0.172834 0.0630448 0)
(0.157841 0.0635344 0)
(0.142936 0.064161 0)
(0.128394 0.0649538 0)
(0.114108 0.0658626 0)
(0.0997356 0.0668478 0)
(0.084997 0.0680076 0)
(0.0699041 0.0693851 0)
(0.0548226 0.0710905 0)
(0.0397154 0.0729412 0)
(0.0242392 0.0740602 0)
(0.00834196 0.0751528 0)
(3 2.69469e-16 0)
(3 4.28658e-16 0)
(3 6.61772e-16 0)
(3 4.81946e-16 0)
(3 5.07463e-16 0)
(3 9.17185e-16 0)
(3 7.57004e-16 0)
(3 -6.00187e-17 0)
(3 -4.1976e-16 0)
(3 -5.10051e-16 0)
(3 -6.30006e-16 0)
(3 -6.47675e-16 0)
(3 -8.62077e-16 0)
(3 -8.6518e-16 0)
(3 -1.00343e-15 0)
(3 -1.23913e-15 0)
(3 -2.23793e-15 0)
(3 -2.3654e-15 0)
(3 -2.05919e-15 0)
(3 -1.72417e-15 0)
(3 -1.18286e-15 0)
(3 -7.18709e-16 0)
(3 -7.91828e-16 0)
(3 -2.89446e-16 0)
(3 1.65123e-15 0)
(3 1.49375e-15 0)
(3 1.28564e-15 0)
(3 5.98089e-17 0)
(3 9.22753e-17 0)
(3 1.95997e-16 0)
(3 7.32299e-16 0)
(3 1.33835e-15 0)
(3 1.33177e-15 0)
(3 -7.2059e-16 0)
(3 -1.14308e-15 0)
(3 -9.80911e-16 0)
(3 -5.30467e-17 0)
(3 -7.00987e-16 0)
(3 4.78099e-16 0)
(3 1.98899e-15 0)
(3 2.16292e-15 0)
(3 1.92974e-15 0)
(3 1.9215e-15 0)
(3 2.21367e-15 0)
(3 2.02601e-15 0)
(3 -1.69149e-16 0)
(3 -7.6987e-16 0)
(3 -7.12637e-17 0)
(3 9.24218e-16 0)
(3 7.76783e-16 0)
(3 3.9964e-17 0)
(3 -3.64896e-16 0)
(3 -1.73112e-16 0)
(3 7.29306e-16 0)
(3 1.05353e-15 0)
(3 7.19451e-16 0)
(3 2.82806e-16 0)
(3 -6.4627e-16 0)
(3 -8.52313e-16 0)
(3 -8.90251e-17 0)
(3 1.5526e-15 0)
(1.73931 0.0586906 0)
(0.803838 0.0519006 0)
(0.747167 0.0446935 0)
(0.740857 0.0525212 0)
(0.731185 0.0577476 0)
(0.721149 0.0617884 0)
(0.709328 0.0637835 0)
(0.696444 0.0639387 0)
(0.682474 0.0620698 0)
(0.667722 0.0581617 0)
(0.652881 0.0530688 0)
(0.638813 0.0495075 0)
(0.626512 0.0499776 0)
(0.616143 0.0538605 0)
(0.606691 0.0591529 0)
(0.596867 0.0635337 0)
(0.585904 0.0654123 0)
(0.573636 0.0644114 0)
(0.559975 0.0612542 0)
(0.54587 0.0573064 0)
(0.531945 0.0556363 0)
(0.519405 0.0578798 0)
(0.507917 0.0623968 0)
(0.496375 0.06615 0)
(0.484248 0.0667549 0)
(0.472012 0.063797 0)
(0.459368 0.0605617 0)
(0.446073 0.0611842 0)
(0.433023 0.0653634 0)
(0.419586 0.0687836 0)
(0.406298 0.0682824 0)
(0.393576 0.0665403 0)
(0.380824 0.0669542 0)
(0.367826 0.0688863 0)
(0.354323 0.0701321 0)
(0.340542 0.0704 0)
(0.326689 0.0708144 0)
(0.312976 0.0716805 0)
(0.299369 0.0724483 0)
(0.285678 0.0729075 0)
(0.271701 0.0734206 0)
(0.257411 0.0742699 0)
(0.243045 0.0753034 0)
(0.22892 0.0762037 0)
(0.215186 0.0767209 0)
(0.201633 0.0768887 0)
(0.187788 0.0769308 0)
(0.173321 0.0771591 0)
(0.158348 0.0776992 0)
(0.143282 0.0785007 0)
(0.128425 0.079504 0)
(0.113768 0.0805316 0)
(0.0991106 0.0815132 0)
(0.0843006 0.0826894 0)
(0.0692383 0.0842224 0)
(0.0542804 0.0862718 0)
(0.0393346 0.0885444 0)
(0.0239919 0.0898913 0)
(0.00822319 0.0911784 0)
(3 -1.41463e-16 0)
(3 -6.87143e-17 0)
(3 2.72536e-16 0)
(3 1.21689e-16 0)
(3 -5.35841e-16 0)
(3 -1.96456e-16 0)
(3 4.53999e-17 0)
(3 -2.08959e-16 0)
(3 3.14904e-16 0)
(3 4.35042e-16 0)
(3 8.34044e-16 0)
(3 9.17376e-16 0)
(3 7.11236e-16 0)
(3 3.63989e-16 0)
(3 2.96168e-16 0)
(3 -2.89897e-16 0)
(3 -1.05049e-15 0)
(3 -9.16264e-16 0)
(3 -6.78337e-16 0)
(3 -8.03949e-16 0)
(3 -7.99777e-16 0)
(3 -1.48455e-15 0)
(3 -2.29327e-15 0)
(3 -2.19675e-15 0)
(3 -4.6175e-16 0)
(3 -4.7004e-16 0)
(3 -9.10184e-17 0)
(3 -5.52938e-16 0)
(3 -8.72358e-16 0)
(3 -8.46769e-16 0)
(3 2.96537e-16 0)
(3 9.61119e-16 0)
(3 1.22594e-15 0)
(3 7.49718e-16 0)
(3 -1.91176e-16 0)
(3 1.39975e-16 0)
(3 6.17867e-16 0)
(3 7.51982e-16 0)
(3 9.59352e-16 0)
(3 1.06562e-15 0)
(3 1.10112e-15 0)
(3 9.04215e-16 0)
(3 1.6603e-15 0)
(3 2.55341e-15 0)
(3 2.7388e-15 0)
(3 1.40536e-15 0)
(3 9.18486e-16 0)
(3 8.9652e-17 0)
(3 -5.09535e-16 0)
(3 -1.0338e-15 0)
(3 -1.4024e-15 0)
(3 -1.16581e-15 0)
(3 -6.76332e-16 0)
(3 -5.31197e-16 0)
(3 -2.62041e-16 0)
(3 4.09719e-16 0)
(3 2.15828e-16 0)
(3 -2.24398e-16 0)
(3 -7.91992e-16 0)
(3 -4.95655e-17 0)
(3 -1.47832e-15 0)
(1.80664 0.0699549 0)
(0.810056 0.0692387 0)
(0.747736 0.0530998 0)
(0.73854 0.0589204 0)
(0.729361 0.0648833 0)
(0.720342 0.0703017 0)
(0.70948 0.0735559 0)
(0.69742 0.0747538 0)
(0.68412 0.0739431 0)
(0.669696 0.0710327 0)
(0.654647 0.0663034 0)
(0.63982 0.0616052 0)
(0.626259 0.0599945 0)
(0.614859 0.0624324 0)
(0.605282 0.0672977 0)
(0.596059 0.0722397 0)
(0.585909 0.0753533 0)
(0.574307 0.0759018 0)
(0.561069 0.0739387 0)
(0.546893 0.070283 0)
(0.53264 0.0674861 0)
(0.519559 0.0684075 0)
(0.508141 0.0723989 0)
(0.497084 0.0764048 0)
(0.485338 0.077827 0)
(0.473145 0.0757104 0)
(0.460488 0.0726592 0)
(0.447135 0.0731644 0)
(0.434157 0.077391 0)
(0.420833 0.0809575 0)
(0.407591 0.080522 0)
(0.394847 0.0788091 0)
(0.382127 0.0793656 0)
(0.369345 0.0815057 0)
(0.356111 0.082876 0)
(0.342537 0.0832256 0)
(0.328732 0.0838324 0)
(0.314931 0.0850159 0)
(0.301216 0.0860571 0)
(0.287545 0.0865948 0)
(0.273776 0.0870293 0)
(0.259737 0.0878162 0)
(0.245452 0.0889347 0)
(0.231141 0.0900588 0)
(0.217014 0.0908579 0)
(0.20306 0.0912575 0)
(0.189021 0.0913924 0)
(0.174583 0.0916188 0)
(0.159626 0.0921918 0)
(0.144328 0.0931115 0)
(0.128978 0.0942481 0)
(0.113721 0.0953592 0)
(0.0985794 0.0963606 0)
(0.0835616 0.0975458 0)
(0.068623 0.0991589 0)
(0.053732 0.101419 0)
(0.0388345 0.103992 0)
(0.0236081 0.105514 0)
(0.00800947 0.107018 0)
(3 -2.99551e-16 0)
(3 -2.51673e-16 0)
(3 -1.54276e-16 0)
(3 -6.68933e-17 0)
(3 2.93029e-17 0)
(3 2.56904e-17 0)
(3 2.64416e-17 0)
(3 -1.70499e-16 0)
(3 1.0797e-16 0)
(3 3.23646e-16 0)
(3 1.8069e-16 0)
(3 -5.71829e-16 0)
(3 -9.87368e-16 0)
(3 -1.31884e-15 0)
(3 -7.94482e-16 0)
(3 -3.18675e-16 0)
(3 -4.49351e-16 0)
(3 -5.93656e-16 0)
(3 -6.04865e-16 0)
(3 -5.93914e-16 0)
(3 -3.26012e-16 0)
(3 -9.01845e-16 0)
(3 -1.22826e-15 0)
(3 -1.05816e-15 0)
(3 -1.31271e-15 0)
(3 -1.03852e-15 0)
(3 -9.52292e-16 0)
(3 -1.73034e-16 0)
(3 5.32844e-16 0)
(3 9.25684e-17 0)
(3 -1.03263e-15 0)
(3 -1.1146e-15 0)
(3 -5.01203e-16 0)
(3 5.13708e-16 0)
(3 8.93764e-16 0)
(3 1.1355e-15 0)
(3 6.91087e-16 0)
(3 1.03597e-15 0)
(3 4.6779e-16 0)
(3 1.52732e-16 0)
(3 3.04204e-16 0)
(3 7.26982e-16 0)
(3 9.6318e-16 0)
(3 6.38905e-16 0)
(3 1.69739e-16 0)
(3 9.9802e-16 0)
(3 1.02262e-15 0)
(3 5.75377e-16 0)
(3 -5.2341e-16 0)
(3 -8.5675e-16 0)
(3 -5.52809e-16 0)
(3 8.46546e-16 0)
(3 5.96426e-16 0)
(3 -9.50854e-16 0)
(3 -1.38689e-15 0)
(3 -2.81319e-16 0)
(3 7.45265e-16 0)
(3 5.63037e-17 0)
(3 -7.08807e-16 0)
(3 -6.20727e-16 0)
(3 -1.89486e-15 0)
(1.88349 0.0804919 0)
(0.818404 0.0847937 0)
(0.751448 0.064967 0)
(0.737942 0.0667513 0)
(0.727501 0.0718725 0)
(0.718839 0.0777935 0)
(0.709033 0.0822119 0)
(0.697991 0.0847206 0)
(0.685597 0.0851934 0)
(0.671854 0.0835642 0)
(0.657052 0.0797285 0)
(0.641909 0.0747182 0)
(0.627403 0.0713157 0)
(0.614709 0.0718343 0)
(0.604209 0.0755627 0)
(0.594934 0.0805065 0)
(0.585305 0.0846402 0)
(0.574351 0.0867378 0)
(0.561749 0.086243 0)
(0.547745 0.0833562 0)
(0.533484 0.0798801 0)
(0.519922 0.0792537 0)
(0.508157 0.0822997 0)
(0.497267 0.086417 0)
(0.485723 0.0887296 0)
(0.473508 0.0876295 0)
(0.460917 0.0848694 0)
(0.447701 0.085201 0)
(0.43495 0.0893008 0)
(0.421831 0.0928944 0)
(0.408627 0.0926032 0)
(0.395745 0.0910492 0)
(0.382901 0.091827 0)
(0.370212 0.0941997 0)
(0.357241 0.0956586 0)
(0.343968 0.0960079 0)
(0.33034 0.0967108 0)
(0.316522 0.098154 0)
(0.302669 0.0995414 0)
(0.288859 0.100349 0)
(0.275128 0.100877 0)
(0.261304 0.10162 0)
(0.247195 0.102704 0)
(0.232799 0.103926 0)
(0.218309 0.104971 0)
(0.20389 0.105722 0)
(0.189522 0.106187 0)
(0.175037 0.106595 0)
(0.16018 0.107211 0)
(0.144822 0.108128 0)
(0.129123 0.109259 0)
(0.113394 0.110384 0)
(0.0978747 0.111412 0)
(0.0827213 0.112601 0)
(0.0678938 0.11422 0)
(0.0530936 0.116519 0)
(0.0382543 0.11925 0)
(0.023085 0.120879 0)
(0.00774464 0.122629 0)
(3 3.95084e-16 0)
(3 1.88382e-16 0)
(3 1.44736e-16 0)
(3 5.00471e-16 0)
(3 6.66762e-16 0)
(3 5.23776e-16 0)
(3 8.45507e-18 0)
(3 -4.94849e-19 0)
(3 -4.51487e-18 0)
(3 -6.07273e-17 0)
(3 -4.82535e-16 0)
(3 -1.55815e-15 0)
(3 -1.97289e-15 0)
(3 -1.58798e-15 0)
(3 -1.0662e-15 0)
(3 -1.50662e-16 0)
(3 1.06708e-16 0)
(3 -1.11826e-16 0)
(3 -1.85844e-16 0)
(3 2.24801e-16 0)
(3 2.28071e-16 0)
(3 7.59792e-17 0)
(3 8.7538e-17 0)
(3 1.18391e-16 0)
(3 -2.95177e-16 0)
(3 1.02377e-15 0)
(3 3.45202e-16 0)
(3 1.18541e-16 0)
(3 6.9995e-16 0)
(3 1.5802e-15 0)
(3 1.00527e-16 0)
(3 -1.01692e-15 0)
(3 -1.35833e-15 0)
(3 -8.62761e-16 0)
(3 2.89769e-16 0)
(3 1.41738e-15 0)
(3 1.61131e-15 0)
(3 1.99516e-15 0)
(3 1.53602e-15 0)
(3 -1.04155e-16 0)
(3 -1.16344e-15 0)
(3 -5.43279e-16 0)
(3 -7.07513e-16 0)
(3 -1.06798e-15 0)
(3 -1.65712e-15 0)
(3 -1.60691e-15 0)
(3 -1.19394e-15 0)
(3 -1.50395e-15 0)
(3 -1.90321e-15 0)
(3 -1.64439e-15 0)
(3 -2.99895e-16 0)
(3 1.36091e-15 0)
(3 9.03277e-16 0)
(3 3.46707e-16 0)
(3 -1.3926e-15 0)
(3 -1.1696e-15 0)
(3 4.40323e-16 0)
(3 4.24718e-16 0)
(3 -9.27624e-17 0)
(3 -8.01202e-16 0)
(3 -6.55916e-17 0)
(1.97373 0.0903828 0)
(0.831001 0.09627 0)
(0.75499 0.0806349 0)
(0.739021 0.0769478 0)
(0.726485 0.0795138 0)
(0.71741 0.0849762 0)
(0.708309 0.0899454 0)
(0.698328 0.0935198 0)
(0.687027 0.0953875 0)
(0.674281 0.0952975 0)
(0.660149 0.0927851 0)
(0.645139 0.0882693 0)
(0.630121 0.0838235 0)
(0.616254 0.0822859 0)
(0.604522 0.0845486 0)
(0.594517 0.0888757 0)
(0.584939 0.0935185 0)
(0.574486 0.0969279 0)
(0.562498 0.0979841 0)
(0.548927 0.0962608 0)
(0.534813 0.0927001 0)
(0.520978 0.0906704 0)
(0.508631 0.0924703 0)
(0.497569 0.0964505 0)
(0.486063 0.0995654 0)
(0.473716 0.0995394 0)
(0.461089 0.0971603 0)
(0.447985 0.097285 0)
(0.435404 0.101136 0)
(0.422464 0.104687 0)
(0.409245 0.104585 0)
(0.396132 0.103243 0)
(0.383021 0.104277 0)
(0.370236 0.106945 0)
(0.357397 0.108551 0)
(0.344424 0.108867 0)
(0.331084 0.109549 0)
(0.317372 0.11113 0)
(0.30344 0.112823 0)
(0.289426 0.113992 0)
(0.275538 0.114795 0)
(0.261763 0.115637 0)
(0.24785 0.11668 0)
(0.23357 0.117886 0)
(0.218966 0.119087 0)
(0.204287 0.120186 0)
(0.189679 0.121085 0)
(0.175124 0.121816 0)
(0.160367 0.122534 0)
(0.145086 0.123399 0)
(0.12926 0.124448 0)
(0.113266 0.125547 0)
(0.0975206 0.1266 0)
(0.0822598 0.127792 0)
(0.0674622 0.129362 0)
(0.0526855 0.131574 0)
(0.0378177 0.134352 0)
(0.0226449 0.136056 0)
(0.00754596 0.138078 0)
(3 -3.25736e-18 0)
(3 -2.8912e-18 0)
(3 -8.05544e-17 0)
(3 -7.22287e-17 0)
(3 -3.8175e-16 0)
(3 -7.22611e-16 0)
(3 -4.46359e-16 0)
(3 -1.30462e-16 0)
(3 -1.47604e-16 0)
(3 -9.80407e-16 0)
(3 -8.31963e-16 0)
(3 -8.97997e-16 0)
(3 -7.31054e-16 0)
(3 -7.73291e-17 0)
(3 3.91557e-16 0)
(3 3.28158e-16 0)
(3 5.56167e-16 0)
(3 5.20693e-16 0)
(3 5.56966e-16 0)
(3 7.13798e-16 0)
(3 8.86042e-17 0)
(3 2.70764e-16 0)
(3 -1.70748e-16 0)
(3 -5.16805e-16 0)
(3 -6.71316e-16 0)
(3 4.58793e-16 0)
(3 5.12993e-16 0)
(3 8.44871e-16 0)
(3 1.05315e-15 0)
(3 1.02349e-15 0)
(3 -1.32753e-16 0)
(3 -1.97034e-15 0)
(3 -2.98192e-15 0)
(3 -2.46965e-15 0)
(3 1.86129e-16 0)
(3 1.36282e-15 0)
(3 2.41716e-15 0)
(3 2.48849e-15 0)
(3 7.37822e-16 0)
(3 -4.65922e-17 0)
(3 -8.33633e-16 0)
(3 -1.17709e-15 0)
(3 -1.1196e-15 0)
(3 -1.4405e-15 0)
(3 -2.65117e-15 0)
(3 -2.8983e-15 0)
(3 -2.58804e-15 0)
(3 -1.79868e-15 0)
(3 -1.78458e-15 0)
(3 5.50881e-16 0)
(3 7.45996e-16 0)
(3 5.69093e-17 0)
(3 -7.00356e-17 0)
(3 -1.15945e-15 0)
(3 -1.91111e-15 0)
(3 -1.57617e-15 0)
(3 -8.60373e-16 0)
(3 4.92307e-16 0)
(3 3.42422e-17 0)
(3 4.14664e-16 0)
(3 -1.59285e-15 0)
(2.08059 0.09766 0)
(0.846709 0.104454 0)
(0.757049 0.0978955 0)
(0.7406 0.0893249 0)
(0.725988 0.0882819 0)
(0.716007 0.0921458 0)
(0.707113 0.0970461 0)
(0.697885 0.101368 0)
(0.687568 0.104505 0)
(0.675906 0.105955 0)
(0.662767 0.105069 0)
(0.64844 0.101648 0)
(0.633554 0.0970534 0)
(0.619102 0.093948 0)
(0.606249 0.0942401 0)
(0.595329 0.0975821 0)
(0.585452 0.102208 0)
(0.575346 0.106529 0)
(0.563973 0.109044 0)
(0.551026 0.108695 0)
(0.537143 0.105626 0)
(0.523282 0.102575 0)
(0.51038 0.103037 0)
(0.498935 0.106648 0)
(0.487405 0.110426 0)
(0.474909 0.111488 0)
(0.462148 0.109602 0)
(0.449068 0.109508 0)
(0.436534 0.113018 0)
(0.42376 0.116485 0)
(0.410545 0.116577 0)
(0.397247 0.115436 0)
(0.383871 0.11669 0)
(0.370876 0.119669 0)
(0.357978 0.121532 0)
(0.345142 0.12188 0)
(0.332064 0.122479 0)
(0.318541 0.124064 0)
(0.304592 0.125961 0)
(0.290356 0.127481 0)
(0.276139 0.128661 0)
(0.262134 0.129755 0)
(0.248215 0.13085 0)
(0.234061 0.13202 0)
(0.219503 0.133293 0)
(0.204711 0.134671 0)
(0.189911 0.135985 0)
(0.175188 0.137099 0)
(0.160382 0.137994 0)
(0.145165 0.13883 0)
(0.129398 0.139784 0)
(0.113369 0.140837 0)
(0.0975534 0.141891 0)
(0.0822145 0.143081 0)
(0.067337 0.144544 0)
(0.0524968 0.146589 0)
(0.0375727 0.14938 0)
(0.0223908 0.151175 0)
(0.00745286 0.153491 0)
(3 -6.5484e-17 0)
(3 -1.03176e-16 0)
(3 -1.16912e-16 0)
(3 -8.00088e-16 0)
(3 -1.26551e-15 0)
(3 -1.46695e-15 0)
(3 -9.1551e-16 0)
(3 -1.49246e-16 0)
(3 -4.18823e-17 0)
(3 -5.57959e-16 0)
(3 -7.64511e-16 0)
(3 -3.74248e-16 0)
(3 -3.5314e-16 0)
(3 -1.30876e-16 0)
(3 -7.36645e-17 0)
(3 5.45195e-18 0)
(3 3.60268e-17 0)
(3 -3.78127e-16 0)
(3 -5.39166e-16 0)
(3 2.32137e-16 0)
(3 8.71614e-16 0)
(3 5.7142e-16 0)
(3 6.33188e-17 0)
(3 -6.58327e-16 0)
(3 -6.52527e-16 0)
(3 -5.65093e-16 0)
(3 4.68197e-16 0)
(3 1.93048e-15 0)
(3 1.5629e-15 0)
(3 5.45849e-16 0)
(3 -5.87878e-17 0)
(3 -1.53635e-15 0)
(3 -2.05258e-15 0)
(3 -9.7145e-16 0)
(3 1.17242e-15 0)
(3 1.16009e-15 0)
(3 1.41334e-15 0)
(3 1.13517e-15 0)
(3 -3.09681e-17 0)
(3 3.00187e-16 0)
(3 3.69231e-16 0)
(3 -9.48705e-17 0)
(3 4.74029e-17 0)
(3 -2.33477e-16 0)
(3 -1.22923e-15 0)
(3 -7.10465e-16 0)
(3 -7.03643e-16 0)
(3 -1.83653e-15 0)
(3 -1.66915e-15 0)
(3 -4.37381e-16 0)
(3 7.83437e-16 0)
(3 6.02301e-16 0)
(3 1.44503e-16 0)
(3 -1.19667e-15 0)
(3 -1.21216e-15 0)
(3 -1.25575e-15 0)
(3 -1.27572e-15 0)
(3 -2.05325e-16 0)
(3 -1.32321e-16 0)
(3 1.59627e-15 0)
(3 4.99681e-16 0)
(2.20205 0.103084 0)
(0.862708 0.114563 0)
(0.758756 0.11419 0)
(0.743387 0.103151 0)
(0.727216 0.0988445 0)
(0.715262 0.100006 0)
(0.705725 0.104078 0)
(0.696448 0.108624 0)
(0.686575 0.112744 0)
(0.675636 0.115676 0)
(0.663348 0.116463 0)
(0.649878 0.114505 0)
(0.635653 0.110478 0)
(0.621338 0.106541 0)
(0.607913 0.10504 0)
(0.596148 0.106768 0)
(0.585825 0.110848 0)
(0.575887 0.115677 0)
(0.565083 0.119479 0)
(0.552694 0.120623 0)
(0.539098 0.118507 0)
(0.525262 0.114982 0)
(0.511913 0.114158 0)
(0.499982 0.117156 0)
(0.488464 0.121386 0)
(0.475978 0.123438 0)
(0.463166 0.122132 0)
(0.450171 0.121831 0)
(0.437737 0.124978 0)
(0.425302 0.128378 0)
(0.412343 0.128632 0)
(0.399139 0.127615 0)
(0.385726 0.128977 0)
(0.372583 0.132222 0)
(0.3595 0.134473 0)
(0.346555 0.13506 0)
(0.333557 0.135659 0)
(0.320216 0.137171 0)
(0.306323 0.13914 0)
(0.291917 0.140927 0)
(0.277313 0.142484 0)
(0.262875 0.14394 0)
(0.248708 0.145239 0)
(0.234594 0.146438 0)
(0.220217 0.147717 0)
(0.20551 0.149243 0)
(0.190635 0.150862 0)
(0.175731 0.152323 0)
(0.160761 0.153451 0)
(0.145534 0.154337 0)
(0.129908 0.155245 0)
(0.114009 0.156254 0)
(0.0982004 0.157278 0)
(0.0827525 0.158425 0)
(0.0676669 0.159753 0)
(0.0526379 0.16162 0)
(0.037614 0.164445 0)
(0.0223877 0.166373 0)
(0.00749318 0.168977 0)
(3 9.17637e-17 0)
(3 3.87348e-17 0)
(3 -1.59309e-16 0)
(3 -4.12397e-16 0)
(3 -6.00983e-16 0)
(3 -6.55208e-16 0)
(3 -4.84188e-16 0)
(3 -7.99632e-17 0)
(3 -7.8023e-17 0)
(3 3.04534e-16 0)
(3 -2.12863e-16 0)
(3 -3.63292e-16 0)
(3 -3.06165e-17 0)
(3 -4.74327e-16 0)
(3 -3.68643e-16 0)
(3 -4.02809e-17 0)
(3 -3.97938e-16 0)
(3 -3.80778e-16 0)
(3 -3.38647e-16 0)
(3 5.09046e-16 0)
(3 1.57365e-15 0)
(3 1.50513e-15 0)
(3 6.40676e-16 0)
(3 -4.01937e-16 0)
(3 -2.35063e-16 0)
(3 1.28939e-16 0)
(3 1.2569e-15 0)
(3 1.48816e-15 0)
(3 1.28285e-15 0)
(3 1.11239e-15 0)
(3 9.25677e-16 0)
(3 5.48138e-17 0)
(3 -2.37298e-16 0)
(3 -6.45275e-16 0)
(3 -7.13041e-16 0)
(3 9.70265e-16 0)
(3 1.65368e-15 0)
(3 1.47463e-15 0)
(3 1.00016e-15 0)
(3 5.72758e-16 0)
(3 1.78648e-15 0)
(3 2.38521e-15 0)
(3 2.43086e-15 0)
(3 1.52059e-15 0)
(3 1.80761e-16 0)
(3 2.0927e-16 0)
(3 -6.23871e-16 0)
(3 -1.34905e-15 0)
(3 -1.28789e-15 0)
(3 -2.05113e-15 0)
(3 -9.14969e-16 0)
(3 1.30443e-16 0)
(3 1.84914e-16 0)
(3 4.34097e-17 0)
(3 -4.09767e-16 0)
(3 -1.12289e-15 0)
(3 -7.91805e-16 0)
(3 -2.69841e-16 0)
(3 -1.40936e-16 0)
(3 6.49378e-16 0)
(3 2.74581e-15 0)
(2.33836 0.106376 0)
(0.882915 0.125495 0)
(0.762936 0.128023 0)
(0.749306 0.116791 0)
(0.732225 0.111214 0)
(0.718046 0.109515 0)
(0.706593 0.112011 0)
(0.696659 0.116253 0)
(0.686946 0.12081 0)
(0.676747 0.124807 0)
(0.66538 0.126983 0)
(0.652756 0.12641 0)
(0.639162 0.123317 0)
(0.625031 0.119296 0)
(0.611148 0.116553 0)
(0.59838 0.116694 0)
(0.587106 0.119789 0)
(0.576796 0.124678 0)
(0.566201 0.129485 0)
(0.554189 0.132097 0)
(0.540766 0.131238 0)
(0.526968 0.127767 0)
(0.513409 0.125827 0)
(0.501121 0.127981 0)
(0.489799 0.132356 0)
(0.477637 0.135187 0)
(0.464954 0.134475 0)
(0.452074 0.133975 0)
(0.439635 0.136802 0)
(0.427413 0.140272 0)
(0.41465 0.140777 0)
(0.401584 0.139844 0)
(0.388213 0.141194 0)
(0.374941 0.144601 0)
(0.36156 0.147288 0)
(0.348244 0.148335 0)
(0.335036 0.149154 0)
(0.32177 0.150657 0)
(0.308076 0.152584 0)
(0.29374 0.154473 0)
(0.278959 0.156288 0)
(0.264162 0.158093 0)
(0.249666 0.159709 0)
(0.235476 0.161076 0)
(0.221295 0.162386 0)
(0.206813 0.163958 0)
(0.191965 0.165744 0)
(0.176881 0.167467 0)
(0.161652 0.168852 0)
(0.146281 0.169894 0)