/*--------------------------------*- C++ -*----------------------------------*\
  =========                 |
  \\      /  F ield         | OpenFOAM: The Open Source CFD Toolbox
   \\    /   O peration     | Website:  https://openfoam.org
    \\  /    A nd           | Version:  7
     \\/     M anipulation  |
\*---------------------------------------------------------------------------*/
FoamFile
{
    version     2.0;
    format      ascii;
    class       surfaceScalarField;
    location    "75.999588";
    object      phi;
}
// * * * * * * * * * * * * * * * * * * * * * * * * * * * * * * * * * * * * * //

dimensions      [0 3 -1 0 0 0 0];

internalField   nonuniform List<scalar> 
11411
(
-3.80337e-06
-5.33588e-07
-1.43047e-05
-1.43939e-06
-3.1179e-05
-2.24942e-06
-5.40811e-05
-2.95227e-06
-8.26518e-05
-3.54369e-06
-0.000116541
-4.02817e-06
-0.000155431
-4.41758e-06
-0.000199048
-4.72793e-06
-0.000247183
-4.97419e-06
-5.16386e-06
-4.0138e-05
-1.22477e-07
-0.000138825
-2.95211e-07
-0.000279487
-4.12234e-07
-0.000447874
-4.82742e-07
-0.000633925
-5.21289e-07
-0.000832012
-5.41945e-07
-0.00103993
-5.54492e-07
-0.00125747
-5.63885e-07
-0.00148527
-5.71877e-07
-0.00172427
-5.78881e-07
-5.84978e-07
-4.01379e-05
4.00154e-05
-0.000138825
9.8392e-05
-0.000279486
0.000140249
-0.000447873
0.000167905
-0.000633923
0.000185528
-0.00083201
0.000197545
-0.00103993
0.000207366
-0.00125747
0.000216971
-0.00148526
0.000227224
-0.00172427
0.000238425
-0.00197554
0.000250689
-0.00224023
0.000264103
-0.00251958
0.000278752
-0.0028149
0.000294722
-0.0031276
0.000312102
-0.0034592
0.000330992
-0.00381131
0.000351496
-0.00418557
0.00037365
-0.00458356
0.000397375
0.000422941
-0.00500712
-3.99331e-05
7.99485e-05
-0.000138213
0.000196672
-0.0002784
0.000280436
-0.000446324
0.000335828
-0.000631943
0.000371147
-0.000829622
0.000395225
-0.00103714
0.000414887
-0.00125427
0.000434102
-0.00148166
0.000454605
-0.00172023
0.000477
-0.00197106
0.00050152
-0.00223529
0.000528337
-0.00251416
0.00055762
-0.00280899
0.000589544
-0.00312117
0.000624287
-0.00345222
0.000662046
-0.00380376
0.000703032
-0.00417743
0.000747321
-0.00457481
0.000794758
0.000845872
-0.00499775
-3.95242e-05
0.000119473
-0.00013699
0.000294137
-0.000276231
0.000419678
-0.000443229
0.000502826
-0.000627985
0.000555903
-0.000824851
0.000592091
-0.00103157
0.00062161
-0.0012479
0.000650425
-0.00147445
0.000681157
-0.00171217
0.00071472
-0.00196211
0.000751466
-0.00222543
0.000791652
-0.00250334
0.000835534
-0.00279717
0.000883372
-0.00310832
0.000935433
-0.00343828
0.000992014
-0.00378868
0.00105343
-0.00416117
0.00111981
-0.00455733
0.00119092
0.00126754
-0.004979
-3.89129e-05
0.000158386
-0.000135159
0.000390383
-0.000272982
0.000557501
-0.00043859
0.000668433
-0.000622053
0.000739366
-0.000817698
0.000787736
-0.00102322
0.000827135
-0.00123834
0.000865537
-0.00146365
0.000906468
-0.00170009
0.000951158
-0.0019487
0.00100009
-0.00221064
0.00105359
-0.00248713
0.00111202
-0.00277947
0.00117571
-0.00308906
0.00124502
-0.00341739
0.00132035
-0.00376608
0.00140212
-0.00413679
0.00149051
-0.00453112
0.00158526
0.00168728
-0.00495087
-3.81013e-05
0.000196487
-0.000132725
0.000485006
-0.000268658
0.000693435
-0.000432411
0.000832186
-0.000614149
0.000921104
-0.000808167
0.000981755
-0.0010121
0.00103107
-0.0012256
0.00107904
-0.00144926
0.00113013
-0.00168399
0.00118589
-0.00193085
0.00124694
-0.00219096
0.0013137
-0.00246554
0.0013866
-0.00275589
0.00146606
-0.00306341
0.00155254
-0.00338958
0.00164652
-0.00373599
0.00174853
-0.00410432
0.00185884
-0.0044962
0.00197713
0.00210444
-0.00491336
-3.70925e-05
0.000233579
-0.000129693
0.000577606
-0.000263264
0.000827007
-0.000424698
0.00099362
-0.000604279
0.00110068
-0.000796265
0.00117374
-0.000998207
0.00123301
-0.0012097
0.00129053
-0.0014313
0.00135172
-0.00166391
0.0014185
-0.00190856
0.0014916
-0.00216639
0.00157153
-0.0024386
0.0016588
-0.00272648
0.00175394
-0.00303141
0.00185747
-0.00335487
0.00196998
-0.00369844
0.00209211
-0.0040638
0.0022242
-0.00445259
0.00236593
0.00251834
-0.00486649
-3.58901e-05
0.000269469
-0.00012607
0.000667787
-0.00025681
0.000957746
-0.000415459
0.00115227
-0.000592447
0.00127767
-0.000781995
0.00136329
-0.000981556
0.00143257
-0.00119065
0.00149963
-0.00140978
0.00157086
-0.00163985
0.00164857
-0.00188187
0.00173362
-0.00213697
0.00182662
-0.00240633
0.00192817
-0.00269125
0.00203886
-0.00299309
0.00215931
-0.00331331
0.0022902
-0.00365347
0.00243227
-0.00401526
0.00258598
-0.00440034
0.002751
0.0029283
-0.0048103
-3.44989e-05
0.000303968
-0.000121866
0.000755154
-0.000249305
0.00108518
-0.000404701
0.00130767
-0.000578663
0.00145164
-0.000765368
0.00154999
-0.000962156
0.00162936
-0.00116845
0.00170592
-0.00138472
0.00178713
-0.00161183
0.00187568
-0.0018508
0.00197259
-0.00210272
0.00207855
-0.00236879
0.00219423
-0.00265026
0.00232033
-0.0029485
0.00245755
-0.00326494
0.00260664
-0.00360114
0.00276847
-0.00395878
0.00294362
-0.00433951
0.00313174
0.00333365
-0.00474486
-3.29243e-05
0.000336893
-0.000117092
0.000839322
-0.00024076
0.00120885
-0.000392435
0.00145934
-0.000562934
0.00162213
-0.000746391
0.00173345
-0.000940018
0.00182298
-0.00114313
0.00190904
-0.00135615
0.00200014
-0.00157989
0.00209943
-0.00181538
0.00220807
-0.00206369
0.00232686
-0.002326
0.00245654
-0.00260355
0.00259788
-0.00289769
0.00275168
-0.00320983
0.00291879
-0.00354152
0.00310016
-0.00389441
0.00329651
-0.00427019
0.00350751
0.00373374
-0.00467027
-3.11725e-05
0.000368065
-0.000111759
0.000919909
-0.000231191
0.00132828
-0.000378673
0.00160682
-0.000545271
0.00178873
-0.000725076
0.00191326
-0.000915155
0.00201306
-0.00111471
0.00210859
-0.00132407
0.00220951
-0.00154406
0.00231941
-0.00177565
0.00243966
-0.00201992
0.00257113
-0.00227801
0.00271463
-0.00255118
0.00287104
-0.00284072
0.00304123
-0.00314805
0.00322612
-0.00347467
0.00342678
-0.00382225
0.00364409
-0.00419246
0.00387773
0.00412791
-0.00458663
-2.92507e-05
0.000397316
-0.000105883
0.000996541
-0.000220614
0.00144302
-0.00036343
0.00174964
-0.000525686
0.00195099
-0.000701433
0.002089
-0.000887584
0.00219921
-0.00108319
0.0023042
-0.00128853
0.00241484
-0.00150436
0.00253524
-0.00173165
0.00266695
-0.00197145
0.00281093
-0.0022249
0.00296808
-0.0024932
0.00313935
-0.00277767
0.00332569
-0.00307967
0.00352812
-0.00340069
0.00374781
-0.00374239
0.00398578
-0.00410644
0.00424178
0.00451556
-0.00449409
-2.71672e-05
0.000424483
-9.94798e-05
0.00106885
-0.000209047
0.00155258
-0.000346723
0.00188731
-0.000504192
0.00210846
-0.000675478
0.00226029
-0.000857319
0.00238106
-0.00104862
0.0024955
-0.00124955
0.00261577
-0.00146083
0.00274653
-0.00168342
0.00288954
-0.00191834
0.00304585
-0.0021667
0.00321644
-0.0024297
0.00340235
-0.00270861
0.0036046
-0.00300478
0.00382429
-0.00331967
0.0040627
-0.00365493
0.00432104
-0.00401225
0.0045991
0.00489611
-0.00439279
-2.49309e-05
0.000449414
-9.25685e-05
0.00113649
-0.000196514
0.00165653
-0.000328572
0.00201937
-0.000480807
0.00226069
-0.000647224
0.00242671
-0.000824379
0.00255821
-0.001011
0.00268212
-0.00120716
0.00281192
-0.00141352
0.0029529
-0.00163101
0.00310703
-0.00186064
0.00327547
-0.0021035
0.0034593
-0.00236075
0.0036596
-0.00263364
0.00387749
-0.00292348
0.00411413
-0.00323172
0.00437093
-0.00355999
0.00464931
-0.00391002
0.00494912
0.00526899
-0.0042829
-2.25522e-05
0.000471966
-8.51711e-05
0.00119911
-0.00018304
0.0017544
-0.000308999
0.00214533
-0.000455548
0.00240724
-0.000616688
0.00258785
-0.000788785
0.00273031
-0.000970372
0.00286371
-0.00116139
0.00300294
-0.00136247
0.00315398
-0.00157449
0.00331905
-0.00179843
0.00349942
-0.00203537
0.00369623
-0.00228643
0.00391067
-0.00255285
0.0041439
-0.00283589
0.00439717
-0.00313695
0.00467199
-0.00345768
0.00497004
-0.00379989
0.00529133
0.00563371
-0.00416461
-2.00422e-05
0.000492008
-7.73119e-05
0.00125638
-0.000168655
0.00184574
-0.000288032
0.00226471
-0.000428437
0.00254765
-0.000583891
0.0027433
-0.000750557
0.00289698
-0.000926757
0.00303991
-0.00111229
0.00318848
-0.00130773
0.00334941
-0.0015139
0.00352522
-0.00173178
0.00371729
-0.00196239
0.00392685
-0.00220684
0.00415513
-0.00246634
0.0044034
-0.0027421
0.00467294
-0.00303547
0.00496536
-0.00334811
0.00528268
-0.00368198
0.0056252
0.00598981
-0.00403808
-1.74134e-05
0.000509422
-6.90186e-05
0.00130799
-0.000153392
0.00193011
-0.000265702
0.00237702
-0.000399499
0.00268144
-0.000548853
0.00289265
-0.00070972
0.00305784
-0.000880187
0.00321037
-0.0010599
0.0033682
-0.00124934
0.00353885
-0.00144931
0.00372519
-0.00166074
0.00392873
-0.00188464
0.00415074
-0.00212209
0.00439257
-0.00237423
0.00465555
-0.00264228
0.00494098
-0.00292746
0.00525054
-0.00323142
0.00558665
-0.00355643
0.00595021
0.00633692
-0.00390354
-1.46791e-05
0.000524101
-6.03226e-05
0.00135363
-0.00013729
0.00200708
-0.000242045
0.00248177
-0.000368764
0.00280816
-0.000511599
0.00303549
-0.000666299
0.00321254
-0.000830694
0.00337477
-0.00100426
0.00354176
-0.00118737
0.00372196
-0.00138079
0.00391861
-0.00158542
0.00413336
-0.00180223
0.00436755
-0.00203226
0.0046226
-0.00227664
0.00489993
-0.00253653
0.00520087
-0.00281301
0.00552702
-0.0031076
0.00588123
-0.00342312
0.00626573
0.00667497
-0.00376117
-1.18541e-05
0.000535955
-5.1259e-05
0.00139303
-0.000120395
0.00207622
-0.000217102
0.00257848
-0.000336265
0.00292733
-0.000472157
0.00317138
-0.000620321
0.00336071
-0.000778314
0.00353276
-0.000945404
0.00370885
-0.00112187
0.00389842
-0.00130841
0.00410516
-0.00150589
0.00433084
-0.00171525
0.00457691
-0.0019375
0.00484484
-0.00217372
0.00513615
-0.00242507
0.00545223
-0.00269255
0.0057945
-0.0029772
0.00616588
-0.00328237
0.00657089
0.00700418
-0.00361158
-8.95475e-06
0.00054491
-4.18671e-05
0.00142595
-0.000102757
0.00213711
-0.000190924
0.00266665
-0.000302044
0.00303844
-0.00043056
0.0032999
-0.00057182
0.00350197
-0.000723083
0.00368403
-0.000883392
0.00386916
-0.0010529
0.00406793
-0.00123224
0.0042845
-0.00142225
0.00452085
-0.00162381
0.00477848
-0.0018379
0.00505893
-0.00206555
0.0053638
-0.00230792
0.00569459
-0.00256592
0.0060525
-0.00283973
0.0064397
-0.00313212
0.00686329
0.00732636
-0.0034543
-6.00119e-06
0.000550911
-3.219e-05
0.00145213
-8.44318e-05
0.00218935
-0.000163567
0.00274578
-0.000266147
0.00314102
-0.000386845
0.00342059
-0.000520828
0.00363595
-0.000665041
0.00382824
-0.00081827
0.00402239
-0.00098052
0.00423018
-0.00115236
0.00445634
-0.00133458
0.00470306
-0.00152803
0.00497193
-0.00173363
0.00526453
-0.00195236
0.00558253
-0.00218538
0.00592762
-0.00243393
0.00630105
-0.00269818
0.00670394
-0.00297643
0.00714153
0.00764346
-0.00329353
-3.03512e-06
0.000553946
-2.22702e-05
0.00147137
-6.54821e-05
0.00223256
-0.000135098
0.0028154
-0.00022863
0.00323456
-0.000341058
0.00353302
-0.000467386
0.00376228
-0.00060423
0.00396508
-0.000750092
0.00416825
-0.000904806
0.00438489
-0.00106886
0.00462039
-0.00124298
0.00487718
-0.001428
0.00515695
-0.0016248
0.00546132
-0.00183429
0.00579202
-0.00205755
0.00615087
-0.00229586
0.00653936
-0.00255055
0.00695863
-0.00282345
0.00741443
0.00792265
-0.00310264
-2.86236e-07
0.000554232
-1.21264e-05
0.00148321
-4.59769e-05
0.00226641
-0.00010559
0.00287501
-0.00018956
0.00331853
-0.000293252
0.00363671
-0.00041154
0.00388057
-0.000540697
0.00409424
-0.000678913
0.00430647
-0.000825823
0.0045318
-0.000981815
0.00477639
-0.00114757
0.00504294
-0.00132387
0.00533325
-0.00151155
0.00564901
-0.00171148
0.00599196
-0.00192465
0.00636403
-0.00215225
0.00676697
-0.00239577
0.00720215
-0.0026558
0.00767447
0.00819753
-0.00293067
3.10863e-06
0.000551124
-1.60343e-06
0.00148792
-2.59679e-05
0.00229078
-7.51205e-05
0.00292416
-0.000149016
0.00339242
-0.000243491
0.00373119
-0.000353341
0.00399042
-0.000474494
0.00421539
-0.000604792
0.00443676
-0.000743645
0.00467065
-0.00089132
0.00492406
-0.00104844
0.00520005
-0.00121573
0.00550055
-0.00139401
0.00582728
-0.00158411
0.00618206
-0.00178692
0.00656685
-0.00200362
0.00698366
-0.0022358
0.00743433
-0.00248469
0.00792335
0.00846019
-0.00274736
6.06254e-06
0.000545061
8.44039e-06
0.00148554
-5.2654e-06
0.00230448
-4.37981e-05
0.0029627
-0.000107097
0.00345572
-0.000191856
0.00381595
-0.000292854
0.00409142
-0.000405679
0.00432822
-0.000527793
0.00455888
-0.000658346
0.00480121
-0.000797465
0.00506318
-0.000945697
0.00534829
-0.00110374
0.00565859
-0.00127235
0.00599589
-0.00145233
0.00636204
-0.00164457
0.00675908
-0.00185017
0.00718927
-0.00207072
0.00765488
-0.00230701
0.00815964
0.00870934
-0.00255616
8.88947e-06
0.000536172
1.85991e-05
0.00147583
1.49147e-05
0.00230817
-1.16003e-05
0.00298921
-6.39266e-05
0.00350805
-0.000138446
0.00389047
-0.000230156
0.00418313
-0.000334316
0.00443238
-0.000447984
0.00467255
-0.000570006
0.00492323
-0.000700344
0.00519352
-0.000839463
0.0054874
-0.000988007
0.00580713
-0.0011467
0.00615459
-0.00131632
0.00653166
-0.00149771
0.00694048
-0.00169195
0.00738351
-0.00190043
0.00786336
-0.00212374
0.00838295
0.00894501
-0.00235942
1.16072e-05
0.000524564
2.8641e-05
0.0014588
3.53211e-05
0.00230149
2.06621e-05
0.00300387
-1.96138e-05
0.00354832
-8.33813e-05
0.00395423
-0.00016534
0.00426508
-0.000260483
0.00452752
-0.000365439
0.0047775
-0.000478709
0.0050365
-0.000600058
0.00531487
-0.00072985
0.0056172
-0.000868674
0.00594596
-0.00101721
0.00630312
-0.00117621
0.00669066
-0.0013465
0.00711076
-0.00152905
0.00756607
-0.0017251
0.0080594
-0.0019351
0.00859296
0.00916725
-0.00215734
1.42627e-05
0.000510302
3.85263e-05
0.00143454
5.57711e-05
0.00228424
5.32597e-05
0.00300638
2.54484e-05
0.00357613
-2.6824e-05
0.00400651
-9.85189e-05
0.00433678
-0.000184267
0.00461327
-0.000280238
0.00487347
-0.000384544
0.0051408
-0.000496707
0.00542703
-0.000616975
0.00573746
-0.000745874
0.00607486
-0.000884042
0.00644129
-0.00103219
0.0068388
-0.0011911
0.00726967
-0.00136167
0.00773665
-0.00154495
0.00824268
-0.00174135
0.00878936
0.00937566
-0.00194976
1.6798e-05
0.000493504
4.8144e-05
0.00140319
7.60384e-05
0.00225635
8.61483e-05
0.00299627
7.11644e-05
0.00359112
3.10431e-05
0.00404663
-2.98324e-05
0.00439765
-0.000105778
0.00468921
-0.000192473
0.00496017
-0.000287607
0.00523594
-0.000390401
0.00552982
-0.000500961
0.00584802
-0.000619744
0.00619364
-0.000747338
0.00656889
-0.000884407
0.00697587
-0.00103169
0.00741695
-0.00119002
0.00789497
-0.00136026
0.00841292
-0.00154279
0.00897189
0.00956984
-0.00173698
1.91637e-05
0.00047434
5.73664e-05
0.00136499
9.59228e-05
0.00221779
0.00011898
0.00297322
0.000117483
0.00359262
9.0034e-05
0.00407408
4.05741e-05
0.00444711
-2.51799e-05
0.00475497
-0.000102252
0.00503724
-0.000188005
0.00532169
-0.000281252
0.00562307
-0.000381935
0.00594871
-0.000490431
0.00630214
-0.000607263
0.00668572
-0.000733048
0.00710166
-0.000868478
0.00755238
-0.00101429
0.00804078
-0.00117123
0.00856987
-0.00133969
0.00914034
0.0097495
-0.00151934
2.13244e-05
0.000453016
6.60817e-05
0.00132023
0.000115207
0.00216866
0.000151469
0.00293695
0.000164013
0.00358007
0.000149959
0.00408813
0.000112535
0.00448454
5.75199e-05
0.00480998
-9.87159e-06
0.00510463
-8.587e-05
0.00539769
-0.000169392
0.00570659
-0.000260028
0.00603934
-0.000358089
0.0064002
-0.000463983
0.00679161
-0.000578295
0.00721597
-0.000701655
0.00767575
-0.000834711
0.00817384
-0.000978128
0.00871329
-0.00113231
0.00929452
0.00991435
-0.00129716
2.3249e-05
0.000429767
7.41746e-05
0.00126931
0.00013366
0.00210918
0.000183299
0.00288731
0.000210414
0.00355296
0.000210473
0.00408807
0.000185791
0.00450922
0.000142081
0.00485369
8.50935e-05
0.00516162
1.86386e-05
0.00546414
-5.49966e-05
0.00578023
-0.00013539
0.00611974
-0.000222887
0.0064877
-0.000317665
0.00688639
-0.000420342
0.00731865
-0.000531435
0.00778684
-0.000651523
0.00829393
-0.000781194
0.00884296
-0.000920927
0.00943425
0.0100641
-0.0010707
2.49099e-05
0.000404857
8.15301e-05
0.00121269
0.000151042
0.00203967
0.000214118
0.00282424
0.00025629
0.00351079
0.000271205
0.00407315
0.000260037
0.00452039
0.000228241
0.00488549
0.000181952
0.00520791
0.000125742
0.00552035
6.19811e-05
0.00584399
-8.44644e-06
0.00619017
-8.50216e-05
0.00656427
-0.000168508
0.00696988
-0.000259402
0.00740954
-0.000358029
0.00788547
-0.000464981
0.00840088
-0.000580689
0.00895867
-0.000705852
0.00955942
0.0101986
-0.000840305
2.62827e-05
0.000378574
8.80359e-05
0.00115093
0.000167102
0.0019606
0.000243544
0.0027478
0.000301188
0.00345314
0.000331714
0.00404263
0.0003349
0.0045172
0.000315735
0.00490465
0.000280647
0.005243
0.000234837
0.00556616
0.000181372
0.00589746
0.000121554
0.00624998
5.54845e-05
0.00663034
-1.69077e-05
0.00704227
-9.57178e-05
0.00748835
-0.000181675
0.00797142
-0.000275369
0.00849457
-0.000376862
0.00906016
-0.000487333
0.00966989
0.0103175
-0.000606268
2.73472e-05
0.000351227
9.35862e-05
0.00108469
0.000181585
0.0018726
0.000271164
0.00265822
0.000344597
0.00337971
0.00039148
0.00399575
0.000409934
0.00449875
0.000404223
0.00491036
0.000380934
0.00526629
0.000345896
0.0056012
0.00030285
0.0059405
0.000253549
0.00629928
0.000198509
0.00668538
0.000137672
0.00710311
7.06405e-05
0.00755538
-2.98392e-06
0.00804505
-8.30252e-05
0.00857461
-0.000170142
0.00914728
-0.000265528
0.00976527
0.0104211
-0.000369089
2.80879e-05
0.000323139
9.80851e-05
0.0010147
0.00019424
0.00177645
0.000296541
0.00255592
0.000385943
0.00329031
0.000449897
0.00393179
0.000484594
0.00446405
0.000493278
0.00490168
0.000482503
0.00527706
0.000458686
0.00562502
0.000426292
0.0059729
0.000387655
0.00633792
0.00034363
0.0067294
0.000294322
0.00715241
0.000239534
0.00761017
0.000178999
0.00810558
0.000112186
0.00864143
3.89211e-05
0.00922054
-3.98925e-05
0.00984409
0.0105105
-0.000129352
2.84954e-05
0.000294644
0.000101452
0.000941739
0.000204826
0.00167307
0.000319223
0.00244152
0.000424597
0.00318493
0.000506265
0.00385012
0.000558229
0.00441209
0.000582373
0.00487754
0.000584968
0.00527446
0.000572929
0.00563706
0.000551498
0.00599433
0.00052368
0.00636574
0.000490747
0.00676234
0.000453039
0.00719012
0.000410479
0.00765273
0.000362827
0.00815323
0.000309809
0.00869444
0.00025127
0.00927908
0.000186405
0.00990895
0.0105827
0.000114216
2.85671e-05
0.000266076
0.000103626
0.000866679
0.000213125
0.00156357
0.000338755
0.00231589
0.000459884
0.00306381
0.000559789
0.00375022
0.000630063
0.00434181
0.000670857
0.00483674
0.000687842
0.00525748
0.000688284
0.00563661
0.000678216
0.00600439
0.00066141
0.00638255
0.000639667
0.00678408
0.000613617
0.00721617
0.000583325
0.00768302
0.000548653
0.00818791
0.000509392
0.0087337
0.000465316
0.00932316
0.000416051
0.00995822
0.0106374
0.000361348
2.83079e-05
0.000237769
0.000104572
0.000790416
0.000218953
0.00144919
0.000354702
0.00218014
0.000491091
0.00292742
0.000609579
0.00363173
0.000699185
0.00425221
0.000757935
0.00477799
0.000790516
0.0052249
0.000804321
0.00562281
0.000806142
0.00600257
0.000800608
0.00638808
0.000790171
0.00679452
0.000775833
0.00723051
0.000757854
0.007701
0.00073621
0.00820955
0.000710751
0.00875916
0.00068133
0.00935258
0.000647737
0.00999181
0.0106757
0.000609437
2.77306e-05
0.000210038
0.000104281
0.000713866
0.000222178
0.0013313
0.000366667
0.00203565
0.000517499
0.00277659
0.000654664
0.00349456
0.000764539
0.00414233
0.000842643
0.00469989
0.000892224
0.00517532
0.000920489
0.00559454
0.000934894
0.00598817
0.000940996
0.00638198
0.000942021
0.00679349
0.000939458
0.00723307
0.000933826
0.00770663
0.000925235
0.00821814
0.000913623
0.00877077
0.000898909
0.00936729
0.000880834
0.0100099
0.0106977
0.000858863
2.6856e-05
0.000183182
0.000102777
0.000637945
0.000222726
0.00121135
0.00037432
0.00188406
0.000538408
0.0026125
0.000694011
0.00333896
0.000824929
0.00401142
0.000923828
0.00460099
0.000992011
0.00510713
0.00103609
0.00555047
0.00106399
0.00596026
0.00108224
0.00636373
0.00109495
0.00678078
0.00110425
0.00722378
0.00111099
0.00769989
0.00111546
0.00821367
0.0011177
0.00876853
0.00111768
0.00936731
0.00111513
0.0100124
0.0107033
0.00110951
2.57125e-05
0.000157469
0.000100118
0.000563539
0.000220595
0.00109087
0.000377423
0.00172723
0.000553181
0.00243674
0.000726561
0.00316558
0.000879026
0.00385895
0.00100013
0.00447988
0.0010887
0.00501857
0.00115022
0.00548895
0.00119281
0.00591767
0.0012239
0.00633264
0.00124865
0.00675603
0.00126993
0.00720249
0.00128908
0.00768074
0.00130662
0.00819613
0.0013227
0.00875245
0.00133737
0.00935265
0.00135039
0.00999942
0.0106926
0.00136112
2.43351e-05
0.000133134
9.63925e-05
0.000491482
0.00021586
0.000971402
0.000375859
0.00156723
0.000561289
0.00225131
0.000751278
0.00297559
0.000925401
0.00368483
0.00106999
0.0043353
0.00118085
0.00490771
0.00126174
0.00540805
0.00132055
0.00585886
0.00136546
0.00628773
0.00140274
0.00671875
0.00143622
0.00716901
0.00146784
0.00764912
0.00149844
0.00816553
0.00152834
0.00872254
0.00155768
0.00932331
0.00158633
0.00997076
0.0106654
0.00161349
2.2764e-05
0.00011037
9.17196e-05
0.000422526
0.000208679
0.000854443
0.000369653
0.00140626
0.000562365
0.0020586
0.000767217
0.00277074
0.000962574
0.00348947
0.00113164
0.00416623
0.00126673
0.00477261
0.00136921
0.00530557
0.00144613
0.00578194
0.00150618
0.00622768
0.00155675
0.00666819
0.00160276
0.007123
0.00164695
0.00760493
0.00169063
0.00812185
0.00173434
0.00867884
0.00177832
0.00927933
0.0018226
0.00992647
0.0106218
0.00186622
2.10434e-05
8.93269e-05
8.62436e-05
0.000357326
0.000199285
0.000741401
0.000358986
0.00124655
0.000556252
0.00186133
0.000773604
0.00255339
0.00098909
0.00327399
0.00118315
0.00397217
0.00134433
0.00461143
0.00147084
0.00517907
0.00156819
0.00568459
0.00164513
0.00615074
0.00171005
0.00660327
0.00176914
0.00706391
0.00182611
0.00754796
0.0018829
0.00806507
0.00194039
0.00862135
0.00199896
0.00922075
0.00205886
0.00986658
0.0105618
0.0021189
1.92191e-05
7.01078e-05
8.01274e-05
0.000296418
0.000187982
0.000633547
0.000344198
0.00109034
0.000543044
0.00166249
0.000769924
0.00232651
0.00100363
0.00304028
0.00122254
0.00375326
0.00141134
0.00442263
0.00156443
0.00502598
0.00168494
0.00556408
0.00178102
0.00605467
0.00186181
0.00652247
0.0019348
0.00699092
0.00200491
0.00747784
0.00207492
0.00799506
0.00214618
0.00855009
0.0022193
0.00914763
0.00229475
0.00979113
0.0104854
0.00237117
1.73369e-05
5.27709e-05
7.35452e-05
0.000240209
0.000175126
0.000531967
0.000325779
0.000939684
0.000523111
0.00146515
0.000756008
0.00209361
0.00100513
0.00279116
0.00124782
0.00351057
0.00146522
0.00420524
0.00164738
0.00484381
0.00179412
0.00541734
0.00191215
0.00593664
0.00201088
0.00642374
0.00209902
0.00690278
0.00218289
0.00739398
0.00226633
0.00791162
0.00235139
0.00846502
0.00243901
0.00906002
0.00252996
0.00970018
0.0103927
0.00262266
1.54405e-05
3.73304e-05
6.6674e-05
0.000188976
0.00016111
0.000437531
0.00030434
0.000796454
0.0004971
0.00127239
0.000732102
0.00185861
0.000992947
0.00253031
0.00125725
0.00324627
0.00150331
0.00395917
0.00171667
0.00463046
0.00189291
0.0052411
0.00203627
0.00579328
0.00215567
0.00630434
0.00226077
0.00679768
0.00235938
0.00729537
0.00245669
0.00781431
0.00255567
0.00836604
0.00265774
0.00895794
0.00276413
0.00959379
0.0102838
0.00287302
1.35699e-05
2.37605e-05
5.96855e-05
0.00014286
0.00014634
0.000350877
0.000280586
0.000662208
0.000465906
0.00108707
0.000698902
0.00162561
0.000966976
0.00226224
0.00124946
0.00296379
0.00152305
0.00368559
0.00176898
0.00438452
0.00197793
0.00503215
0.00215046
0.00562075
0.00229401
0.00616079
0.00241862
0.00667307
0.0025335
0.00718048
0.00264542
0.0077024
0.00275859
0.00825287
0.00287514
0.00884139
0.00299691
0.00947202
0.0101588
0.00312188
1.17599e-05
1.20006e-05
5.2739e-05
0.000101881
0.000131216
0.0002724
0.000255264
0.00053816
0.000430618
0.00091172
0.000657544
0.00139869
0.000927773
0.00199201
0.00122376
0.0026678
0.00152218
0.00338716
0.00180086
0.00410585
0.00204522
0.00478779
0.00225104
0.00541493
0.00242297
0.00598886
0.0025705
0.00652553
0.00270395
0.00704704
0.00283173
0.00757462
0.00295964
0.00812495
0.00309081
0.00871022
0.00322794
0.00933489
0.0100179
0.00336888
1.00396e-05
1.96102e-06
4.59758e-05
6.59449e-05
0.000116115
0.000202261
0.000229129
0.000425146
0.000392449
0.0007484
0.000609541
0.0011816
0.000876586
0.00172496
0.00118028
0.00236411
0.00149914
0.0030683
0.00180903
0.00379595
0.00209046
0.00450637
0.00233354
0.00517185
0.00253867
0.00578373
0.00271354
0.00635066
0.00286881
0.00689178
0.00301444
0.00742898
0.00315811
0.00798129
0.00330426
0.00856407
0.00345682
0.00918233
0.00986103
0.00361365
8.43218e-06
-6.47116e-06
3.95157e-05
3.48613e-05
0.000101371
0.000140406
0.000202895
0.000323622
0.00035265
0.000598645
0.000556672
0.000977574
0.000815317
0.00146632
0.00112019
0.00205923
0.00145337
0.00273513
0.00179082
0.00345851
0.00210923
0.00418796
0.00239276
0.00488831
0.00263619
0.0055403
0.00284376
0.00614309
0.00302528
0.00671025
0.00319181
0.00726246
0.00335294
0.00782017
0.00351483
0.00840217
0.00368306
0.0090141
0.0096883
0.0038558
6.9541e-06
-1.34253e-05
3.34558e-05
8.3596e-06
8.72703e-05
8.65912e-05
0.000177208
0.000233684
0.000312434
0.000463419
0.000500847
0.00078916
0.000746377
0.00122079
0.00104565
0.00175997
0.00138563
0.00239514
0.00174464
0.00309949
0.00209755
0.00383504
0.00242312
0.00456275
0.00270955
0.00525387
0.00295586
0.00589677
0.00316937
0.00649675
0.00336115
0.00707068
0.00354251
0.0076388
0.00372158
0.00822311
0.00390605
0.00882964
0.00949948
0.00409486
5.61755e-06
-1.90428e-05
2.78707e-05
-1.38936e-05
7.40475e-05
4.04145e-05
0.000152622
0.00015511
0.000272907
0.000343134
0.000443964
0.000618103
0.000672489
0.000992265
0.000959699
0.00147276
0.00129816
0.00205668
0.00167056
0.00272709
0.00205254
0.00345306
0.00241913
0.00419616
0.0027519
0.0049211
0.0030431
0.00560557
0.00329545
0.0062444
0.00351843
0.0068477
0.00372428
0.00743295
0.00392301
0.00802438
0.00412491
0.00862773
0.00929413
0.00433027
4.43007e-06
-2.34729e-05
2.28141e-05
-3.22777e-05
6.18811e-05
1.34751e-06
0.000129587
8.74038e-05
0.000235025
0.000237696
0.000387782
0.000465346
0.000596443
0.000783604
0.000866009
0.00120319
0.00119457
0.00172812
0.00157061
0.00235104
0.0019732
0.00305047
0.00237634
0.00379302
0.00275618
0.00454127
0.0030974
0.00526435
0.00339607
0.00594573
0.00365779
0.00658598
0.00389422
0.00719652
0.00411666
0.00780194
0.0043382
0.00840619
0.00907108
0.00456125
3.39528e-06
-2.68681e-05
1.83202e-05
-4.72026e-05
5.08975e-05
-3.12298e-05
0.000108444
2.9857e-05
0.000199558
0.000146582
0.000333825
0.000331079
0.000520879
0.00059655
0.00076848
0.000955588
0.00107955
0.00141706
0.00144884
0.00198175
0.00186105
0.00263827
0.00229235
0.00336171
0.00271605
0.00411756
0.00310991
0.00487049
0.00346187
0.00559377
0.00377106
0.00627679
0.00404623
0.00692135
0.00429856
0.00754961
0.0045436
0.00816115
0.00882835
0.00478633
2.51326e-06
-2.93814e-05
1.44048e-05
-5.90942e-05
4.11721e-05
-5.79971e-05
8.94247e-05
-1.83956e-05
0.000167078
6.89282e-05
0.000283316
0.000214842
0.000448096
0.000431769
0.000670884
0.0007328
0.000958324
0.00112962
0.00131101
0.00162906
0.00172041
0.00222887
0.00216785
0.00291428
0.00262738
0.00365803
0.00307221
0.00442567
0.00348207
0.00518391
0.00384751
0.00591135
0.00417142
0.00659744
0.00446229
0.00725874
0.00473707
0.00788637
0.00856171
0.00500371
1.78058e-06
-3.1162e-05
1.10657e-05
-6.83793e-05
3.27309e-05
-7.96623e-05
7.26521e-05
-5.83168e-05
0.000137956
3.62384e-06
0.000237144
0.000115654
0.000379933
0.00028898
0.000576543
0.000536191
0.000836081
0.000870079
0.00116388
0.00130127
0.00155814
0.00183461
0.00200725
0.00246516
0.00248973
0.00317556
0.00297804
0.00393735
0.00344583
0.00471612
0.00387423
0.00548295
0.00425753
0.00621413
0.00459829
0.00691798
0.00491177
0.00757289
0.00826459
0.00520888
1.18987e-06
-3.23519e-05
8.28264e-06
-7.54721e-05
2.55512e-05
-9.69308e-05
5.81464e-05
-9.0912e-05
0.000112363
-5.05925e-05
0.000195853
3.21637e-05
0.000317696
0.000167137
0.000488098
0.000365789
0.000717435
0.000640742
0.00101433
0.00100437
0.00138272
0.00146621
0.00181853
0.00202935
0.00230742
0.00268667
0.00282556
0.00341922
0.00334446
0.00419721
0.00383765
0.00498976
0.00428923
0.00576256
0.00469241
0.0065148
0.00505787
0.00720743
0.00792786
0.00539461
7.29618e-07
-3.30815e-05
6.01722e-06
-8.07597e-05
1.9564e-05
-0.000110478
4.58283e-05
-0.000117176
9.02801e-05
-9.50443e-05
0.000159652
-3.72087e-05
0.000262139
6.46506e-05
0.000407386
0.000220542
0.000606045
0.000442084
0.000868578
0.000741838
0.00120307
0.00113172
0.00161213
0.0016203
0.00208962
0.00220918
0.00261889
0.00288994
0.0031744
0.0036417
0.00372621
0.00443795
0.00424987
0.0052389
0.00472669
0.00603798
0.00515702
0.0067771
0.00752712
0.00555775
3.84082e-07
-3.34656e-05
4.21375e-06
-8.45893e-05
1.46572e-05
-0.000120921
3.55298e-05
-0.000138049
7.15205e-05
-0.000131035
0.000128443
-9.41309e-05
0.000213492
-2.03988e-05
0.000335413
9.8621e-05
0.000504403
0.000273093
0.000731525
0.000514717
0.0010273
0.000835946
0.00139932
0.00124828
0.00184901
0.00175949
0.00236857
0.00237038
0.00293953
0.00307075
0.00353477
0.0038427
0.00412336
0.00465032
0.0046838
0.00547754
0.00518352
0.00627738
0.00706022
0.00565042
1.34093e-07
-3.35997e-05
2.80135e-06
-8.72566e-05
1.06824e-05
-0.000128802
2.70082e-05
-0.000154375
5.57532e-05
-0.00015978
0.000101863
-0.00014024
0.00017152
-9.00567e-05
0.000272404
-2.26228e-06
0.000413799
0.000131697
0.000606444
0.000322072
0.000861789
0.000580601
0.00119044
0.000919625
0.00159961
0.00135033
0.0020899
0.00188009
0.00265197
0.00250868
0.00326721
0.00322746
0.00390322
0.00401431
0.00453796
0.0048428
0.00513801
0.00567733
0.0065606
0.00563763
-4.70276e-08
-3.35526e-05
1.69792e-06
-8.90015e-05
7.46512e-06
-0.000134569
1.99665e-05
-0.000166876
4.25413e-05
-0.000182355
7.93491e-05
-0.000177048
0.00013562
-0.000146328
0.000217926
-8.45683e-05
0.000334425
1.51989e-05
0.000494934
0.000161562
0.000710705
0.00036483
0.000993581
0.000636749
0.00135432
0.000989586
0.00180003
0.00143437
0.0023303
0.00197842
0.00293747
0.00262028
0.00359485
0.00335693
0.00428164
0.00415602
0.00497852
0.00498045
0.0059735
0.00556562
-1.74473e-07
-3.33782e-05
8.17881e-07
-8.99939e-05
4.81778e-06
-0.000138569
1.40779e-05
-0.000176136
3.13847e-05
-0.000199662
6.02098e-05
-0.000205873
0.000104926
-0.000191045
0.000171065
-0.000150707
0.00026559
-7.93257e-05