/*--------------------------------*- C++ -*----------------------------------*\
  =========                 |
  \\      /  F ield         | OpenFOAM: The Open Source CFD Toolbox
   \\    /   O peration     | Website:  https://openfoam.org
    \\  /    A nd           | Version:  7
     \\/     M anipulation  |
\*---------------------------------------------------------------------------*/
FoamFile
{
    version     2.0;
    format      ascii;
    class       surfaceScalarField;
    location    "91";
    object      phi;
}
// * * * * * * * * * * * * * * * * * * * * * * * * * * * * * * * * * * * * * //

dimensions      [0 3 -1 0 0 0 0];

internalField   nonuniform List<scalar> 
24510
(
-4.69467e-06
-8.24765e-06
1.29423e-05
-1.74166e-05
-1.19404e-05
2.46624e-05
-3.76004e-05
-3.81799e-06
2.40018e-05
-6.47462e-05
1.54476e-05
1.16982e-05
-9.84178e-05
4.45593e-05
-1.08878e-05
-0.00013825
8.20324e-05
-4.22e-05
-0.000183938
0.000126704
-8.10157e-05
-0.000235212
0.000178278
-0.000127005
-0.000291802
0.000237744
-0.000181154
-0.000353404
0.000307528
-0.000245925
-0.000419633
0.000391347
-0.000325118
-0.000489952
0.000493864
-0.000423545
-0.000563565
0.000620261
-0.000546648
-0.000639265
0.00077583
-0.000700131
-0.000715238
0.000965508
-0.000889534
-0.000788883
0.00119315
-0.0011195
-0.000856703
0.00146031
-0.00139249
-0.000914569
0.0017646
-0.00170674
-0.000957886
0.00209696
-0.00205365
0.00243837
-0.00241404
-0.000982224
-4.41573e-06
-3.83192e-06
-1.63645e-05
8.38552e-09
-3.5279e-05
1.50965e-05
-6.06473e-05
4.08159e-05
-9.20134e-05
7.59253e-05
-0.000128977
0.000118996
-0.000171172
0.000168899
-0.000218224
0.00022533
-0.000269698
0.000289219
-0.000325051
0.00036288
-0.000383571
0.000449866
-0.000444303
0.000554596
-0.000505946
0.000681904
-0.000566688
0.000836573
-0.000624009
0.00102283
-0.000674469
0.00124361
-0.000713511
0.00149936
-0.00073561
0.0017867
-0.00073489
0.00209624
0.0024055
-0.000702017
-4.05413e-06
2.22209e-07
-1.50171e-05
1.09714e-05
-3.23297e-05
3.24091e-05
-5.54671e-05
6.39533e-05
-8.39434e-05
0.000104402
-0.000117306
0.000152359
-0.000155101
0.000206694
-0.00019682
0.000267049
-0.000241831
0.000334229
-0.000289306
0.000410356
-0.000338156
0.000498717
-0.000386951
0.00060339
-0.000433802
0.000728756
-0.00047621
0.00087898
-0.000510837
0.00105746
-0.000533288
0.00126606
-0.000537785
0.00150385
-0.000516903
0.00176582
-0.000464189
0.00204353
0.0023037
-0.000362389
-3.63575e-06
3.85796e-06
-1.34627e-05
2.07983e-05
-2.89318e-05
4.78782e-05
-4.9499e-05
8.45204e-05
-7.4634e-05
0.000129537
-0.000103812
0.000181536
-0.00013647
0.000239352
-0.00017194
0.000302519
-0.000209363
0.000371652
-0.000247601
0.000448594
-0.000285154
0.00053627
-0.00032007
0.000638306
-0.000349827
0.000758513
-0.000371177
0.00090033
-0.000379903
0.00106618
-0.000370604
0.00125676
-0.000336356
0.00146961
-0.000267244
0.00169671
-0.000156357
0.00193264
0.00213264
1.47053e-05
-3.18844e-06
7.0464e-06
-1.17976e-05
2.94076e-05
-2.52822e-05
6.13627e-05
-4.30655e-05
0.000102304
-6.4556e-05
0.000151027
-8.91351e-05
0.000206115
-0.000116109
0.000266326
-0.00014463
0.00033104
-0.000173593
0.000400616
-0.000201533
0.000476534
-0.000226518
0.000561256
-0.000246056
0.000657843
-0.000256964
0.000769421
-0.000255222
0.000898588
-0.000235707
0.00104667
-0.000192014
0.00121307
-0.000116288
0.00139388
2.35213e-06
0.00157807
0.000174168
0.00176083
0.0018825
0.000424312
-2.74102e-06
9.78741e-06
-1.0121e-05
3.67875e-05
-2.15834e-05
7.28252e-05
-3.65014e-05
0.000117222
-5.42012e-05
0.000168727
-7.39487e-05
0.000225863
-9.48986e-05
0.000287276
-0.000116005
0.000352146
-0.000135907
0.000420517
-0.000152802
0.000493429
-0.000164329
0.000572783
-0.00016745
0.000660964
-0.00015832
0.000760291
-0.000132162
0.00087243
-8.29125e-05
0.000997417
-3.22329e-06
0.00113338
0.00011544
0.00127522
0.000287564
0.00140594
0.000515677
0.00153271
0.00155593
0.000842242
-2.3211e-06
1.21085e-05
-8.52837e-06
4.29948e-05
-1.80325e-05
8.23293e-05
-3.0134e-05
0.000129323
-4.40539e-05
0.000182647
-5.89208e-05
0.00024073
-7.37183e-05
0.000302074
-8.71887e-05
0.000365617
-9.77065e-05
0.000431035
-0.000103136
0.000498859
-0.000100694
0.00057034
-8.68188e-05
0.000647089
-5.70013e-05
0.000730474
-5.65964e-06
0.000821088
7.3801e-05
0.000917956
0.000190026
0.00101715
0.000351712
0.00111353
0.000576779
0.00118087
0.000861354
0.00124814
0.00115503
0.00126225
-1.95344e-06
1.40619e-05
-7.10563e-06
4.8147e-05
-1.48074e-05
9.00311e-05
-2.42611e-05
0.000138777
-3.45589e-05
0.000192944
-4.46707e-05
0.000250841
-5.33908e-05
0.000310794
-5.92374e-05
0.000371463
-6.03169e-05
0.000432115
-5.41673e-05
0.000492709
-3.7594e-05
0.000553767
-6.5264e-06
0.000616021
4.40699e-05
0.000679877
0.000120479
0.000744679
0.000230351
0.000808084
0.000383093
0.000864412
0.00058729
0.000909335
0.000865324
0.000902841
0.00120465
0.000908809
0.000679874
0.00167981
-1.6582e-06
1.57201e-05
-5.92273e-06
5.24115e-05
-1.20534e-05
9.61617e-05
-1.91279e-05
0.000145852
-2.60856e-05
0.000199902
-3.17171e-05
0.000256473
-3.46105e-05
0.000313687
-3.30474e-05
0.0003699
-2.48604e-05
0.000423928
-7.26192e-06
0.000475111
2.33163e-05
0.000523189
7.14181e-05
0.00056792
0.00014272
0.000608576
0.000244146
0.000643252
0.000384062
0.000668168
0.000573056
0.000675419
0.000819607
0.000662784
0.0011509
0.000571547
0.00154539
0.000514318
0.000127089
0.00209817
-1.44933e-06
1.71695e-05
-5.02757e-06
5.59898e-05
-9.87015e-06
0.000101004
-1.49033e-05
0.000150885
-1.88903e-05
0.000203889
-2.0422e-05
0.000258005
-1.78635e-05
0.000311129
-9.23993e-06
0.000361277
7.89316e-06
0.000406794
3.66575e-05
0.000446346
8.10328e-05
0.000478814
0.000146038
0.000502914
0.000237938
0.000516676
0.000364414
0.000516776
0.000534654
0.000497929
0.00076047
0.000449603
0.00105117
0.000372084
0.00143764
0.000185081
0.00189262
5.93328e-05
-0.000510934
0.00253064
-1.33298e-06
1.85025e-05
-4.4403e-06
5.90971e-05
-8.29894e-06
0.000104863
-1.16569e-05
0.000154243
-1.30785e-05
0.000205311
-1.09325e-05
0.000255859
-3.33056e-06
0.000303527
1.19535e-05
0.000345993
3.77077e-05
0.00038104
7.74178e-05
0.000406636
0.00013551
0.000420722
0.000217565
0.000420859
0.000330554
0.000403688
0.000483079
0.000364251
0.000685466
0.000295541
0.000950805
0.000184264
0.00129108
3.18066e-05
0.00173766
-0.000261499
0.0022658
-0.000468809
-0.00124294
0.00299782
-1.30627e-06
1.98087e-05
-4.14885e-06
6.19397e-05
-7.31245e-06
0.000108027
-9.34035e-06
0.00015627
-8.57299e-06
0.000204543
-3.13006e-06
0.000250416
9.14173e-06
0.000291255
3.08216e-05
0.000324313
6.50506e-05
0.000346811
0.000115778
0.000355908
0.000188005
0.000348495
0.000288049
0.000320815
0.00042383
0.000267907
0.000605197
0.000182884
0.000844135
5.66034e-05
0.00115501
-0.000126613
0.00155448
-0.000367663
0.0020692
-0.00077622
0.00268793
-0.00108754
-0.00207147
0.00351645
-1.3565e-06
2.11652e-05
-4.10609e-06
6.46893e-05
-6.80843e-06
0.000110729
-7.77439e-06
0.000157236
-5.0922e-06
0.000201861
3.40118e-06
0.000241922
2.01983e-05
0.000274458
4.82619e-05
0.000296249
9.12248e-05
0.000303848
0.000153648
0.000293485
0.000241322
0.000260822
0.000361589
0.000200547
0.000523692
0.000105804
0.000739123
-3.25468e-05
0.00102203
-0.000226302
0.00138796
-0.000492547
0.00185837
-0.000838074
0.00245005
-0.0013679
0.00317274
-0.00181022
-0.00298132
0.0040826
-1.4611e-06
2.26263e-05
-4.22995e-06
6.74581e-05
-6.60959e-06
0.000113109
-6.64748e-06
0.000157274
-2.13959e-06
0.000197353
9.40781e-06
0.000230375
3.09002e-05
0.000252966
6.58076e-05
0.000261342
0.000118412
0.000251244
0.000194115
0.000217782
0.000299794
0.000155143
0.000444187
5.6154e-05
0.000638246
-8.8255e-05
0.000895388
-0.000289689
0.00123183
-0.000562745
0.00166395
-0.00092467
0.00221444
-0.00138857
0.00288716
-0.00204061
0.00371055
-0.00263362
-0.00393337
0.0046626
-1.58867e-06
2.4215e-05
-4.40728e-06
7.02767e-05
-6.47171e-06
0.000115173
-5.5304e-06
0.000156333
9.60571e-07
0.000190862
1.59099e-05
0.000215426
4.27343e-05
0.000226141
8.55697e-05
0.000218506
0.000149565
0.000187249
0.000241242
0.000126105
0.000368899
2.74856e-05
0.000542991
-0.000117938
0.000776374
-0.000321638
0.00108418
-0.000597495
0.00148348
-0.00096204
0.00199014
-0.00143134
0.00262124
-0.00201966
0.00336704
-0.00278641
0.00426192
-0.0035285
-0.00487187
0.00520042
-1.70127e-06
2.59163e-05
-4.50198e-06
7.30774e-05
-6.10059e-06
0.000116772
-3.90355e-06
0.000154136
5.04065e-06
0.000181918
2.4148e-05
0.000196318
5.74897e-05
0.000192799
0.000110059
0.000165937
0.000188115
0.000109193
0.000299582
1.46378e-05
0.000454431
-0.000127363
0.000664923
-0.00032843
0.000945502
-0.000602217
0.00131197
-0.000963966
0.00177962
-0.00142968
0.00236075
-0.00201247
0.00305962
-0.00271854
0.00385382
-0.0035806
0.00476657
-0.00444125
-0.00574272
0.00563742
-1.75807e-06
2.76743e-05
-4.36755e-06
7.56869e-05
-5.17859e-06
0.000117583
-1.19961e-06
0.000150157
1.09956e-05
0.000169723
3.54585e-05
0.000171855
7.70746e-05
0.000151183
0.000141896
0.000101116
0.000237517
1.35713e-05
0.000373451
-0.000121296
0.000561366
-0.000315279
0.000814965
-0.000582029
0.00114918
-0.00093643
0.00157835
-0.00139314
0.00211242
-0.00196375
0.00275539
-0.00265544
0.00349485
-0.003458
0.00429812
-0.00438387
0.00516616
-0.00530929
-0.00651035
0.00593379
-1.71981e-06
2.93941e-05
-3.86207e-06
7.78292e-05
-3.39949e-06
0.00011712
3.11456e-06
0.000143643
1.96916e-05
0.000153146
5.11264e-05
0.000140421
0.000103284
9.90257e-05
0.000183452
2.09486e-05
0.000300696
-0.000103673
0.000466103
-0.000286703
0.000692676
-0.000541851
0.000994563
-0.000883916
0.00138522
-0.00132708
0.00187442
-0.00188234
0.00246322
-0.00255256
0.00314291
-0.00333513
0.00388568
-0.00420077
0.00465331
-0.0051515
0.00542674
-0.00608273
-0.00716282
0.00607922
-1.55336e-06
3.09475e-05
-2.86328e-06
7.91391e-05
-4.82638e-07
0.000114739
9.52809e-06
0.000133632
3.18777e-05
0.000130796
7.22324e-05
0.000100066
0.000137566
3.36923e-05
0.000236498
-7.79834e-05
0.000379536
-0.000246712
0.000579018
-0.000486185
0.00084842
-0.000811253
0.00120066
-0.00123616
0.00164509
-0.00177151
0.00218355
-0.0024208
0.00280581
-0.00317482
0.00348921
-0.00401854
0.00419685
-0.00490841
0.00489083
-0.00584548
0.00554538
-0.00673728
-0.00770863
0.00609119
-1.23593e-06
3.21834e-05
-1.2847e-06
7.91879e-05
3.73788e-06
0.000109717
1.83836e-05
0.000118987
4.80987e-05
0.000101081
9.95289e-05
4.86357e-05
0.000180833
-4.76115e-05
0.000301935
-0.000199085
0.00047452
-0.000419298
0.000711473
-0.000723138
0.00102536
-0.00112514
0.00142565
-0.00163645
0.00191479
-0.00226064
0.00248422
-0.00299024
0.00311233
-0.00380292
0.00376608
-0.00467229
0.00440854
-0.00555087
0.00500704
-0.00644398
0.00553945
-0.00726969
-0.00817428
0.00600511
-7.56137e-07
3.29396e-05
9.23587e-07
7.75081e-05
9.40821e-06
0.000101232
2.98902e-05
9.85045e-05
6.86527e-05
6.23189e-05
0.00013337
-1.60815e-05
0.000233365
-0.000147606
0.000379668
-0.000345388
0.000584597
-0.000624227
0.000860478
-0.000999019
0.00121714
-0.0014818
0.00165821
-0.00207752
0.00217703
-0.00277947
0.00275429
-0.00356749
0.00335981
-0.00440844
0.00395748
-0.00526997
0.00451831
-0.0061117
0.00501971
-0.00694538
0.0054565
-0.00770648
-0.00854869
0.00583091
-1.16706e-07
3.30563e-05
3.7691e-06
7.36223e-05
1.65487e-05
8.84526e-05
4.41011e-05
7.09521e-05
9.35878e-05
1.28322e-05
0.000173706
-9.61995e-05
0.000294805
-0.000268706
0.00046862
-0.000519203
0.000707252
-0.000862859
0.00102101
-0.00131278
0.00141495
-0.00187575
0.00188484
-0.0025474
0.00241424
-0.00330887
0.00297531
-0.00412856
0.00353475
-0.00496788
0.00406112
-0.00579635
0.00453695
-0.00658752
0.00495078
-0.0073592
0.00531935
-0.00807505
-0.00886864
0.0056393
6.84829e-07
3.23715e-05
7.24105e-06
6.70661e-05
2.51258e-05
7.05678e-05
6.09438e-05
3.51341e-05
0.000122734
-4.89583e-05
0.00022013
-0.000193595
0.000364228
-0.000412804
0.000566842
-0.000721816
0.000838719
-0.00113474
0.00118646
-0.00166052
0.00160852
-0.0022978
0.0020918
-0.00303068
0.00261153
-0.0038286
0.00313579
-0.00465282
0.00363426
-0.00546634
0.00408527
-0.00624737
0.00448275
-0.006985
0.00482803
-0.00770448
0.00513873
-0.00838575
-0.00914692
0.00541702
1.62423e-06
3.07472e-05
1.12972e-05
5.73932e-05
3.50597e-05
4.68053e-05
8.0256e-05
-1.00622e-05
0.000155758
-0.00012446
0.00027195
-0.000309788
0.000440237
-0.00058109
0.000671657
-0.000953236
0.000974248
-0.00143733
0.00134924
-0.00203552
0.00178729
-0.00273585
0.00226713
-0.00351052
0.00275898
-0.00432044
0.00323218
-0.00512602
0.00366401
-0.00589817
0.00404394
-0.0066273
0.00437567
-0.00731673
0.00466684
-0.00799564
0.00493645
-0.00865536
-0.00939757
0.00518709
2.69634e-06
2.80509e-05
1.58972e-05
4.41923e-05
4.6251e-05
1.64515e-05
0.000101823
-6.56338e-05
0.000192206
-0.000214844
0.000328247
-0.000445828
0.000521039
-0.000773883
0.000779794
-0.00121199
0.0011084
-0.00176594
0.00150145
-0.00242856
0.00194177
-0.00317618
0.00240226
-0.00397102
0.00285258
-0.00477076
0.00326775
-0.00554119
0.00363469
-0.00626511
0.00395269
-0.0069453
0.0042315
-0.00759555
0.00448183
-0.00824597
0.00472059
-0.00889412
-0.00962474
0.00494776
3.8926e-06
2.41583e-05
2.10052e-05
2.70796e-05
5.8597e-05
-2.11402e-05
0.000125397
-0.000132434
0.000231539
-0.000320985
0.000387904
-0.000602194
0.000604496
-0.000990475
0.000887517
-0.00149501
0.00123543
-0.00211385
0.00163566
-0.00282879
0.00206462
-0.00360513
0.00249287
-0.00439928
0.00289366
-0.00517154
0.00325022
-0.00589775
0.00355868
-0.00657357
0.00382535
-0.00721197
0.00406281
-0.00783301
0.00428183
-0.00846498
0.0044963
-0.0091086
-0.00983274
0.0047043
5.21002e-06
1.89483e-05
2.6593e-05
5.69666e-06
7.19957e-05
-6.65429e-05
0.000150705
-0.000211143
0.00027312
-0.000443401
0.000449606
-0.000778679
0.000688153
-0.00122902
0.000990786
-0.00179764
0.00134972
-0.00247279
0.00174576
-0.00322482
0.00215145
-0.00401083
0.00253879
-0.00478661
0.00288744
-0.0055202
0.00318928
-0.00619959
0.00344771
-0.00683199
0.00367308
-0.00743734
0.00387826
-0.0080382
0.00407265
-0.00865937
0.00426697
-0.00930292
-0.0100235
0.00445777
6.64935e-06
1.22989e-05
3.26365e-05
-2.02905e-05
8.63366e-05
-0.000120243
0.000177426
-0.000302233
0.000316198
-0.000582172
0.00051182
-0.000974301
0.00076929
-0.00148649
0.0010855
-0.00211386
0.00144633
-0.00283361
0.00182755
-0.00360605
0.00220102
-0.00438429
0.00254313
-0.00512873
0.00284121
-0.00581827
0.00309463
-0.00645301
0.00331165
-0.00704901
0.00350412
-0.00762981
0.00368369
-0.00821777
0.0038578
-0.00883348
0.00403431
-0.00947943
-0.0101983
0.00420904
8.21209e-06
4.08684e-06
3.91069e-05
-5.11854e-05
0.000101483
-0.000182619
0.000205168
-0.000405918
0.000359874
-0.000736878
0.000572806
-0.00118723
0.000845045
-0.00175873
0.00116784
-0.00243665
0.00152146
-0.00318723
0.00187908
-0.00396366
0.00221473
-0.00471995
0.00251109
-0.00542509
0.00276281
-0.00607
0.00297493
-0.00666513
0.00315822
-0.0072323
0.00332429
-0.00779588
0.00348282
-0.0083763
0.00363933
-0.00898999
0.00379938
-0.00963949
-0.0103575
0.00395859
9.89688e-06
-5.81004e-06
4.59597e-05
-8.72482e-05
0.000117253
-0.000253913
0.00023344
-0.000522104
0.000403091
-0.000906529
0.000630661
-0.0014148
0.000912602
-0.00204067
0.0012346
-0.00275865
0.00157285
-0.00352549
0.00190049
-0.00429131
0.00219598
-0.00501544
0.00244875
-0.00567785
0.00265962
-0.00628087
0.00283724
-0.00684275
0.00299308
-0.00738814
0.00313748
-0.00794028
0.00327799
-0.00851681
0.00341847
-0.00913047
0.00356277
-0.00978379
-0.0105014
0.00370669
1.16963e-05
-1.75064e-05
5.31253e-05
-0.000128677
0.000133406
-0.000334193
0.000261645
-0.000650344
0.000444659
-0.00108954
0.000683429
-0.00165357
0.000969424
-0.00232667
0.00128349
-0.00307272
0.00159977
-0.00384177
0.00189366
-0.0045852
0.00214924
-0.00527102
0.00236223
-0.00589084
0.00253801
-0.00645666
0.00268704
-0.00699177
0.00282025
-0.00752135
0.00294624
-0.00806627
0.00307062
-0.00864119
0.00319596
-0.00925581
0.00332488
-0.0099127
-0.0106301
0.00345356
1.35948e-05
-3.11012e-05
6.05043e-05
-0.000175587
0.000149633
-0.000423322
0.000289087
-0.000789798
0.000483306
-0.00128376
0.000729243
-0.00189951
0.00101349
-0.00261092
0.00131333
-0.00337256
0.00160294
-0.00413137
0.00186162
-0.00484388
0.00207936
-0.00548875
0.00225709
-0.00606857
0.00240314
-0.00660271
0.00252838
-0.00711701
0.00264249
-0.00763545
0.00275224
-0.00817602
0.00286162
-0.00875058
0.0029723
-0.00936649
0.00308601
-0.0100264
-0.0107435
0.00319943
1.55677e-05
-4.66689e-05
6.79662e-05
-0.000227985
0.00016557
-0.000520926
0.000315004
-0.000939232
0.000517762
-0.00148652
0.000766486
-0.00214823
0.00104346
-0.00288789
0.001324
-0.0036531
0.00158412
-0.00439149
0.00180798
-0.00506775
0.00199102
-0.00567179
0.00213809
-0.00621564
0.00225904
-0.00672365
0.00236419
-0.00722217
0.00246165
-0.00773291
0.00255654
-0.00827091
0.0026516
-0.00884564
0.00274784
-0.00946274
0.0028464
-0.010125
-0.0108416
0.00294448
1.75818e-05
-6.42507e-05
7.53539e-05
-0.000285757
0.000180811
-0.000626383
0.000338612
-0.00109703
0.00054686
-0.00169477
0.000793919
-0.00239529
0.00105872
-0.00315269
0.00131628
-0.00391065
0.00154579
-0.004621
0.0017365
-0.00525846
0.00188843
-0.00582372
0.00200909
-0.0063363
0.00210871
-0.00682327
0.00219651
-0.00730997
0.00227898
-0.00781538
0.00235987
-0.00835179
0.00244096
-0.00892673
0.00252288
-0.00954465
0.00260632
-0.0102084
-0.0109242
0.00268895
1.95968e-05
-8.38475e-05
8.24908e-05
-0.000348651
0.000194928
-0.00073882
0.000359156
-0.00126126
0.000569618
-0.00190523
0.000810766
-0.00263644
0.00105939
-0.00340132
0.00129165
-0.00414291
0.00149077
-0.00482011
0.00165075
-0.00541844
0.00177521
-0.00594819
0.00187313
-0.00643422
0.00195437
-0.0069045
0.00202677
-0.00738238
0.00209535
-0.00788396
0.00216273
-0.00841917
0.00223006
-0.00899406
0.00229768
-0.00961227
0.00236599
-0.0102767
-0.0109913
0.00243307
2.15672e-05
-0.000105415
8.919e-05
-0.000416274
0.000207499
-0.000857129
0.000375964
-0.00142973
0.000585315
-0.00211458
0.000816738
-0.00286786
0.00104616
-0.00363074
0.00125205
-0.00434881
0.00142191
-0.00498998
0.00155395
-0.00555047
0.00165432
-0.00604856
0.00173255
-0.00651246
0.00179763
-0.00696958
0.00185598
-0.00744073
0.00191135
-0.00793933
0.00196552
-0.00847334
0.00201917
-0.00904771
0.0020725
-0.0096656
0.00212566
-0.0103299
-0.0110427
0.00217709
2.34445e-05
-0.000128859
9.52646e-05
-0.000488094
0.000218135
-0.000979999
0.000388492
-0.00160008
0.000593522
-0.00231961
0.000811996
-0.00308634
0.00102017
-0.00383891
0.0011996
-0.00452823
0.00134196
-0.00513234
0.00144888
-0.00565739
0.00152812
-0.0061278
0.0015891
-0.00657343
0.00163964
-0.00702012
0.00168485
-0.00748594
0.00172743
-0.0079819
0.00176854
-0.00851446
0.00180858
-0.00908774
0.00184759
-0.00970461
0.0018856
-0.0103679
-0.0110784
0.00192129
2.51796e-05
-0.000154039
0.000100537
-0.000563451
0.0002265
-0.00110596
0.000396351
-0.00176993
0.000594111
-0.00251737
0.000797082
-0.00328931
0.000982849
-0.00402468
0.00113644
-0.00468183
0.00125337
-0.00524927
0.00133785
-0.00574187
0.00139848
-0.00618843
0.00144407
-0.00661902
0.00148123
-0.00705728
0.00151389
-0.00751861
0.00154394
-0.00801195
0.00157209
-0.00854261
0.00159852
-0.00911417
0.00162322
-0.00972931
0.00164606
-0.0103907
-0.0110983
0.00166595
2.67248e-05
-0.000180764
0.000104848
-0.000641575
0.000232329
-0.00123344
0.000399323
-0.00193693
0.000587228
-0.00270528
0.000772817
-0.0034749
0.000935759
-0.00418762
0.00106465
-0.00481072
0.00115829
-0.00534291
0.00122274
-0.00580631
0.0012668
-0.00623249
0.00129842
-0.00665064
0.00132301
-0.00708187
0.00134351
-0.0075391
0.00136117
-0.00802961
0.00137641
-0.00855785
0.00138925
-0.00912702
0.00139963
-0.00973969
0.00140731
-0.0103984
-0.0111024
0.00141137
2.80361e-05
-0.0002088
0.000108066
-0.000721605
0.000235439
-0.00136082
0.000397359
-0.00209885
0.000573251
-0.00288117
0.000740211
-0.00364186
0.00088049
-0.0043279
0.000986106
-0.00491634
0.00105855
-0.00541536
0.00110506
-0.00585282
0.00113419
-0.00626163
0.00115288
-0.00666933
0.00116545
-0.00709444
0.00117402
-0.00754767
0.00117939
-0.00803498
0.00118175
-0.00856021
0.00118102
-0.00912629
0.00117709
-0.00973577
0.00116964
-0.0103909
-0.0110906
0.00115785
2.90749e-05
-0.000237875
0.000110086
-0.000802616
0.000235734
-0.00148646
0.000390568
-0.00225368
0.000552735
-0.00304334
0.000700373
-0.00378949
0.00081857
-0.00444609
0.000902469
-0.00500024
0.000955662
-0.00546855
0.000985987
-0.00588314
0.00100146
-0.0062771
0.00100799
-0.00667585
0.0010089
-0.00709536
0.00100571
-0.00754447
0.000998847
-0.00802813
0.000988351
-0.00854971
0.000974075
-0.00911202
0.000955857
-0.00971755
0.000933325
-0.0103684
-0.011063
0.00090572
2.98094e-05
-0.000267684
0.000110844
-0.00088365
0.000233204
-0.00160882
0.000379189
-0.00239967
0.000526355
-0.0031905
0.000654434
-0.00391757
0.000751416
-0.00454308
0.00081518
-0.005064
0.000850856
-0.00550422
0.000866453
-0.00589874
0.000869252
-0.0062799
0.000864143
-0.00667074
0.000853666
-0.00708488
0.000838804
-0.00752961
0.000819766
-0.00800909
0.000796454
-0.0085264
0.000768654
-0.00908422
0.000736167
-0.00968506
0.000698634
-0.0103309
-0.0110196
0.000655262
3.02156e-05
-0.0002979
0.000110305
-0.000963739
0.000227915
-0.00172643
0.000363565
-0.00253532
0.000494854
-0.00332179
0.000603497
-0.00402622
0.000680303
-0.00461988
0.000725454
-0.00510915
0.000745128
-0.0055239
0.000747173
-0.00590078
0.000738035
-0.00627077
0.000721683
-0.00665439
0.000699984
-0.00706318
0.000673537
-0.00750316
0.00064237
-0.00797792
0.000606288
-0.00849032
0.000565022
-0.00904295
0.000518309
-0.00963835
0.00046572
-0.0102783
-0.0109607
0.000406752
3.02781e-05
-0.000328178
0.000108471
-0.00104193
0.000220001
-0.00183796
0.000344113
-0.00265943
0.000459001
-0.00343668
0.000548598
-0.00411581
0.000606347
-0.00467763
0.000634302
-0.00513711
0.000639271
-0.00552887
0.000628702
-0.00589022
0.000608185
-0.00625025
0.00058087
-0.00662708
0.000548076
-0.00703039
0.000510113
-0.0074652
0.000466869
-0.00793468
0.000418073
-0.00844152
0.000363426
-0.0089883
0.000302648
-0.00957757
0.00023479
-0.0102104
-0.010886
0.000160149
2.99898e-05
-0.000358168
0.000105376
-0.00111732
0.000209649
-0.00194224
0.000321294
-0.00277108
0.000419551
-0.00353494
0.000490682
-0.00418694
0.000530511
-0.00471746
0.000542555
-0.00514915
0.00053391
-0.00552022
0.000511475
-0.00586778
0.00048
-0.00621877
0.000441928
-0.00658901
0.000398142
-0.0069866
0.000348731
-0.00741579
0.000293468
-0.00787941
0.000232017
-0.00838007
0.000164048
-0.00892033
8.92876e-05
-0.00950281
8.17976e-06
-0.0101293
-0.0107936
-8.42591e-05
2.93516e-05
-0.000387519
0.000101078
-0.00118905
0.000197086
-0.00203824
0.000295587
-0.00286958
0.000377225
-0.00361657
0.000430593
-0.00424031
0.000453609
-0.00474048
0.000450887
-0.00514643
0.000429541
-0.00549888
0.000395829
-0.00583407
0.000353718
-0.00617666
0.000305051
-0.00654034
0.000250363
-0.00693192
0.000189582
-0.00735501
0.000122355
-0.00781219
4.82792e-05
-0.00830599
-3.30075e-05
-0.00883905
-0.000121541
-0.00941428
-0.000218857
-0.010032
-0.0106881
-0.000324375
2.83719e-05
-0.000415891
9.56609e-05
-0.00125633
0.000182563
-0.00212515
0.000267473
-0.00295449
0.000332691
-0.00368179
0.000369069
-0.00427669
0.000376326
-0.00474773
0.000359841
-0.00512995
0.000326551
-0.00546559
0.000282034
-0.00578955
0.00022954
-0.00612417
0.000170414
-0.00648121
0.00010489
-0.00686639
3.2738e-05
-0.00728285
-4.62798e-05
-0.00773317
-0.000132669
-0.0082196
-0.000226885
-0.00874483
-0.000329471
-0.00931169
-0.000441218
-0.00992027
-0.0105674
-0.000561845
2.70656e-05
-0.000442957
8.92215e-05
-0.00131849
0.000166346
-0.00220227
0.000237414
-0.00302555
0.000286553
-0.00373093
0.000306749
-0.00429689
0.000299225
-0.00474021
0.000269856
-0.00510058
0.00022525
-0.00542098
0.000170302
-0.0057346
0.000107639
-0.00606151
3.80972e-05
-0.00641167
-3.81224e-05
-0.00679017
-0.00012131
-0.00719967
-0.000212054
-0.00764242
-0.000310813
-0.00812085
-0.000418042
-0.0086376
-0.000534337
-0.00919539
-0.00066026
-0.00979434
-0.0104317
-0.000796
2.54529e-05
-0.00046841
8.187e-05
-0.00137491
0.000148703
-0.0022691
0.000205847
-0.0030827
0.000239352
-0.00376443
0.000244175
-0.00430171
0.000222772
-0.00471881
0.000181278
-0.00505908
0.000125884
-0.00536559
6.078e-05
-0.0056695
-1.19964e-05
-0.00598873
-9.15633e-05
-0.0063321
-0.000178328
-0.00670341
-0.000272652
-0.00710534
-0.000375009
-0.00754007
-0.000485951
-0.0080099
-0.000606027
-0.00851753
-0.000735828
-0.00906559
-0.00087585
-0.00965432
-0.0102811
-0.00102641
2.35585e-05
-0.000491968
7.37235e-05
-0.00142507
0.000129896
-0.00232528
0.000173174
-0.00312598
0.000191561
-0.00378282
0.000181807
-0.00429196
0.000147338
-0.00468434
9.43881e-05
-0.00500613
2.86046e-05
-0.0052998
-4.63043e-05
-0.00559459
-0.000128739
-0.00590629
-0.00021853
-0.00624231
-0.000315812
-0.00660613
-0.000421086
-0.00700007
-0.000534903
-0.00742625
-0.000657867
-0.00788694
-0.000790601
-0.00838479
-0.000933733
-0.00892246
-0.00108772
-0.00950033
-0.010116
-0.00125283
2.14108e-05
-0.000513379
6.49028e-05
-0.00146856
0.000110179
-0.00237055
0.000139764
-0.00315556
0.000143597
-0.00378666
0.000120018
-0.00426838
7.32244e-05
-0.00463754
9.3523e-06
-0.00494226
-6.63069e-05
-0.00522414
-0.000150811
-0.00551009
-0.000242977
-0.00581413
-0.000342719
-0.00614257
-0.000450365
-0.00649848
-0.000566441
-0.00688399
-0.000691552
-0.00730114
-0.000826358
-0.00775213
-0.000971551
-0.0082396
-0.00112783
-0.00876619
-0.00129561
-0.00933255
-0.00993665
-0.00147498
1.90416e-05
-0.000532421
5.55295e-05
-0.00150505
8.97935e-05
-0.00240482
0.000105953
-0.00317172
9.58193e-05
-0.00377652
5.90824e-05
-0.00423164
7.17431e-07
-0.00457918
-7.34687e-05
-0.00486807
-0.000158803
-0.00513881
-0.00025273
-0.00541616
-0.000354431
-0.00571243
-0.00046399
-0.00603301
-0.000581842
-0.00638063
-0.000708559
-0.00675728
-0.000844788
-0.00716491
-0.000991236
-0.00760569
-0.00114867
-0.00808216
-0.00131788
-0.00859698
-0.00149925
-0.00915118
-0.00974329
-0.00169261
1.64863e-05
-0.000548907
4.57227e-05
-0.00153429
6.89641e-05
-0.00242806
7.20344e-05
-0.00317479
4.85251e-05
-0.00375301
-1.60611e-07
-0.00418295
-6.99127e-05
-0.00450943
-0.000154131
-0.00478386
-0.000248804
-0.00504414
-0.000351933
-0.00531303
-0.000462996
-0.00560136
-0.00058222
-0.00591379
-0.000710114
-0.00625273
-0.000847294
-0.00662009
-0.000994447
-0.00701776
-0.00115232
-0.00744781
-0.00132176
-0.00791272
-0.00150367
-0.00841507
-0.00169841
-0.00895644
-0.00953623
-0.00190547
1.37867e-05
-0.000562694
3.55988e-05
-0.0015561
4.78946e-05
-0.00244035
3.82637e-05
-0.00316516
2.46162e-06
-0.00371721
-5.8833e-05
-0.00412166
-0.000138796
-0.00442946
-0.000232483
-0.00469017
-0.000336203
-0.00494042
-0.000448328
-0.00520091
-0.000568577
-0.00548112
-0.000697295
-0.00578507
-0.000835051
-0.00611498
-0.000982505
-0.00647264
-0.00114037
-0.00685989
-0.00130945
-0.00727874
-0.00149064
-0.00773153
-0.00168499
-0.00822072
-0.00189286
-0.00874857
-0.00931581
-0.00211329
1.09839e-05
-0.000573677
2.52704e-05
-0.00157039
2.67747e-05
-0.00244186
5.26985e-06
-0.00314366
-4.36795e-05
-0.00366826
-0.000115662
-0.00404968
-0.000205604
-0.00433952
-0.000308416
-0.00458736
-0.000420915
-0.00482792
-0.00054183
-0.00507999
-0.000671081
-0.00535186
-0.000809108
-0.00564704
-0.000956534
-0.00596755
-0.00111405
-0.00631512
-0.00128242
-0.00669152
-0.00146245
-0.00709871
-0.00165513
-0.00753884
-0.00186167
-0.00801418
-0.00208242
-0.00852782
-0.00908246
-0.00231576
8.08039e-06
-0.000581758
1.48352e-05
-0.00157714
5.98026e-06
-0.002433
-2.82029e-05
-0.00310947
-8.82869e-05
-0.00360818
-0.000170817
-0.00396715
-0.000270249
-0.00424009
-0.000381848
-0.00447576
-0.00050287
-0.00470689
-0.000632365
-0.0049505
-0.00077042
-0.00521381
-0.000917556
-0.00549991
-0.00107444
-0.00581066
-0.00124181
-0.00614775
-0.00142044
-0.0065129
-0.00161116
-0.00690798
-0.00181506
-0.00733495
-0.00203348
-0.00779576
-0.00226683
-0.00829448
-0.00883667
-0.00251262
5.09119e-06
-0.000586849
4.3074e-06
-0.00157636
-1.52779e-05
-0.00241342
-6.06131e-05
-0.00306414
-0.000131652
-0.00353714
-0.000224178
-0.00387462
-0.000332657
-0.00413161
-0.000452712
-0.0043557
-0.000582006
-0.0045776
-0.000719862
-0.00481264
-0.000866509
-0.00506716
-0.00102254
-0.00534388
-0.00118866
-0.00564454
-0.00136564
-0.00597077
-0.00155429
-0.00632426
-0.00175545
-0.00670682
-0.00197025
-0.00712015
-0.00220018
-0.00756582
-0.0024458
-0.00804886
-0.00857838
-0.00270409
1.87287e-06
-0.000588722
-6.29784e-06
-0.00156819
-3.60682e-05
-0.00238365
-9.21836e-05
-0.00300802
-0.000173644
-0.00345568
-0.000275656
-0.00377261
-0.000392761
-0.00401451
-0.000520955
-0.00422751
-0.000658265
-0.00444029
-0.000804253
-0.00466665
-0.000959269
-0.00491215
-0.00112396
-0.00517918
-0.00129908
-0.00546942
-0.00148543
-0.00578442
-0.00168384
-0.00612585
-0.0018952
-0.00649546
-0.00212065
-0.0068947
-0.00236168
-0.00732479
-0.00261916
-0.00779138
-0.00830722
-0.00289032
-1.38287e-06
-0.000587339
-1.68987e-05
-0.00155267
-5.63119e-05
-0.00234424
-0.000122813
-0.00294152
-0.000214168
-0.00336432
-0.000325173
-0.0036616
-0.000450508
-0.00388917
-0.000586529
-0.00409149
-0.000731596
-0.00429522
-0.000885475
-0.00451278
-0.00104862
-0.004749
-0.00122173
-0.00500608
-0.00140559
-0.00528556
-0.00160104
-0.00558897
-0.00180895
-0.00591794
-0.00203029
-0.00627412
-0.00226626
-0.00665873
-0.00251821
-0.00707284
-0.00278639
-0.0075232
-0.00802499
-0.00306863
-4.29915e-06
-0.00058304
-2.71988e-05
-0.00152977
-7.60131e-05
-0.00229542
-0.000152413
-0.00286512
-0.000253142
-0.00326359
-0.000372671
-0.00354207
-0.000505852
-0.00375599
-0.000649392
-0.00394795
-0.000801949
-0.00414267
-0.000963467
-0.00435126
-0.00113448
-0.00457799
-0.00131574
-0.00482482
-0.00150807
-0.00509323
-0.00171233
-0.0053847
-0.00192947
-0.00570081
-0.00216055
-0.00604304
-0.00240683
-0.00641245
-0.00266958
-0.00681009
-0.0029509
-0.00724188
-0.00774196
-0.00323393
-7.34348e-06
-0.000575696
-3.72649e-05
-0.00149985
-9.51066e-05
-0.00223758
-0.000180914
-0.00277931
-0.000290504
-0.003154
-0.000418102
-0.00341448
-0.000558756
-0.00361534
-0.000709506
-0.0037972
-0.000869279
-0.00398289
-0.00103817
-0.00418237
-0.00121678
-0.00439937
-0.00140591
-0.00463569
-0.00160641
-0.00489273
-0.00181919
-0.00517193
-0.00204524
-0.00547476
-0.00228572
-0.00580256
-0.0025418
-0.00615637
-0.00281321
-0.00653868