/*--------------------------------*- C++ -*----------------------------------*\
  =========                 |
  \\      /  F ield         | OpenFOAM: The Open Source CFD Toolbox
   \\    /   O peration     | Website:  https://openfoam.org
    \\  /    A nd           | Version:  7
     \\/     M anipulation  |
\*---------------------------------------------------------------------------*/
FoamFile
{
    version     2.0;
    format      ascii;
    class       volScalarField;
    location    "12";
    object      p;
}
// * * * * * * * * * * * * * * * * * * * * * * * * * * * * * * * * * * * * * //

dimensions      [0 2 -2 0 0 0 0];

internalField   nonuniform List<scalar> 
433
(
-0.301547
-0.300681
-0.314972
-0.308581
-0.300006
-0.298266
-0.316603
-0.30909
-0.298421
-0.294717
-0.295782
-0.287429
-0.282493
-0.337424
-0.303968
-0.295144
-0.283216
-0.271228
-0.341008
-0.305996
-0.296525
-0.284477
-0.272447
-0.260467
-0.248248
-0.235868
-0.223354
-0.210774
-0.198206
-0.185735
-0.17344
-0.161396
-0.149667
-0.138311
-0.127371
-0.116885
-0.343412
-0.308058
-0.297817
-0.285627
-0.273596
-0.261649
-0.24947
-0.237129
-0.224648
-0.212085
-0.199521
-0.187036
-0.174713
-0.162628
-0.150849
-0.139433
-0.128429
-0.117874
-0.344141
-0.310303
-0.299156
-0.286735
-0.274728
-0.262841
-0.250722
-0.238436
-0.225999
-0.213467
-0.200913
-0.188422
-0.176075
-0.16395
-0.152119
-0.140641
-0.129568
-0.118941
-0.341236
-0.312233
-0.30042
-0.28775
-0.275807
-0.264029
-0.252009
-0.239806
-0.227441
-0.214961
-0.202437
-0.189953
-0.177591
-0.165432
-0.153549
-0.142007
-0.13086
-0.120152
-0.327137
-0.310334
-0.300535
-0.287974
-0.276222
-0.264646
-0.252778
-0.240691
-0.228426
-0.216026
-0.203561
-0.191114
-0.178769
-0.166608
-0.154706
-0.143132
-0.131941
-0.121181
-0.288203
-0.302084
-0.300018
-0.288083
-0.276528
-0.265119
-0.253306
-0.24121
-0.228919
-0.216487
-0.203992
-0.191519
-0.179154
-0.166978
-0.155067
-0.143486
-0.132291
-0.121528
-0.111233
-0.279068
-0.293395
-0.293552
-0.282407
-0.271566
-0.260919
-0.24973
-0.238152
-0.226324
-0.214312
-0.202196
-0.190064
-0.178001
-0.166092
-0.154413
-0.143033
-0.132009
-0.12139
-0.111216
-0.273476
-0.284691
-0.285599
-0.275449
-0.265318
-0.255417
-0.244906
-0.233924
-0.222642
-0.211136
-0.199486
-0.18778
-0.176105
-0.164543
-0.153173
-0.142064
-0.131277
-0.120863
-0.110864
-0.268314
-0.275774
-0.277012
-0.268029
-0.258614
-0.24942
-0.239605
-0.229253
-0.21855
-0.207584
-0.196433
-0.185184
-0.173926
-0.162742
-0.151709
-0.1409
-0.130376
-0.12019
-0.110388
-0.262409
-0.26653
-0.267563
-0.259752
-0.251128
-0.242664
-0.233598
-0.223944
-0.213887
-0.203522
-0.192927
-0.182191
-0.1714
-0.160639
-0.149986
-0.139513
-0.129287
-0.119361
-0.109783
-0.255004
-0.256643
-0.257113
-0.250435
-0.24271
-0.235029
-0.226765
-0.217878
-0.208536
-0.198841
-0.188869
-0.178706
-0.168441
-0.158156
-0.147933
-0.137844
-0.127956
-0.118327
-0.109007
-0.24577
-0.245871
-0.245679
-0.24009
-0.233367
-0.226527
-0.219111
-0.21105
-0.202487
-0.193522
-0.184232
-0.174702
-0.165018
-0.155264
-0.145519
-0.13586
-0.126353
-0.11706
-0.108033
-0.234674
-0.23411
-0.23336
-0.228807
-0.22316
-0.217217
-0.210683
-0.203492
-0.195757
-0.187574
-0.179019
-0.170173
-0.161121
-0.151946
-0.142728
-0.133542
-0.124459
-0.11554
-0.106841
-0.22194
-0.221398
-0.220311
-0.21674
-0.212197
-0.20719
-0.201559
-0.195263
-0.188391
-0.181027
-0.173247
-0.165127
-0.15675
-0.148198
-0.139548
-0.130878
-0.122258
-0.113751
-0.105416
-0.207965
-0.207898
-0.206738
-0.204095
-0.200638
-0.19658
-0.191854
-0.186459
-0.180463
-0.17394
-0.166959
-0.159594
-0.151925
-0.144029
-0.135985
-0.127866
-0.119744
-0.111684
-0.103745
-0.193232
-0.19387
-0.192883
-0.191106
-0.188675
-0.185548
-0.181711
-0.1772
-0.172073
-0.166392
-0.160219
-0.153624
-0.146681
-0.139466
-0.132052
-0.124513
-0.116919
-0.109336
-0.101823
-0.178228
-0.179623
-0.178993
-0.178012
-0.176516
-0.174271
-0.171285
-0.167624
-0.16334
-0.158482
-0.15311
-0.147284
-0.141072
-0.134548
-0.127781
-0.120842
-0.113798
-0.106714
-0.0996516
-0.163374
-0.165464
-0.165298
-0.165032
-0.16436
-0.162925
-0.160734
-0.157871
-0.154387
-0.150321
-0.145723
-0.140652
-0.135164
-0.129329
-0.123213
-0.116882
-0.110402
-0.103835
-0.0972412
-0.149001
-0.151663
-0.151994
-0.152352
-0.152385
-0.151669
-0.150203
-0.148077
-0.145337
-0.142017
-0.138156
-0.133805
-0.129025
-0.123868
-0.118396
-0.112673
-0.106761
-0.10072
-0.0946078
-0.135335
-0.138425
-0.13923
-0.140115
-0.140735
-0.140643
-0.139822
-0.13836
-0.136301
-0.133671
-0.130502
-0.126838
-0.12273
-0.118227
-0.113384
-0.10826
-0.102913
-0.0973989
-0.0917736
-0.122511
-0.125888
-0.127109
-0.128424
-0.129519
-0.129954
-0.129695
-0.128823
-0.127377
-0.125375
-0.122845
-0.119822
-0.116348
-0.112469
-0.108232
-0.10369
-0.0988965
-0.0939039
-0.0887646
-0.110586
-0.114131
-0.115691
-0.117345
-0.118816
-0.119684
-0.119905
-0.119547
-0.118644
-0.117208
-0.115259
-0.112826
-0.109943
-0.106651
-0.102991
-0.0990087
-0.0947517
-0.090269
-0.0856094
-0.0995691
-0.103183
)
;

boundaryField
{
    inlet
    {
        type            zeroGradient;
    }
    outlet
    {
        type            fixedValue;
        value           nonuniform 0();
    }
    cylinder
    {
        type            zeroGradient;
    }
    top
    {
        type            symmetryPlane;
    }
    bottom
    {
        type            symmetryPlane;
    }
    defaultFaces
    {
        type            empty;
    }
    procBoundary28to22
    {
        type            processor;
        value           nonuniform List<scalar> 
26
(
-0.302806
-0.302293
-0.302293
-0.314023
-0.308604
-0.308604
-0.320272
-0.333119
-0.301974
-0.293652
-0.281853
-0.269948
-0.259243
-0.259243
-0.247003
-0.234598
-0.222064
-0.209475
-0.196912
-0.18446
-0.172198
-0.160197
-0.148522
-0.137225
-0.12635
-0.115931
)
;
    }
    procBoundary28to23
    {
        type            processor;
        value           nonuniform List<scalar> 3(-0.106879 -0.107798 -0.10879);
    }
    procBoundary28to27
    {
        type            processor;
        value           nonuniform List<scalar> 10(-0.322591 -0.319142 -0.310058 -0.310058 -0.297211 -0.297211 -0.34851 -0.363073 -0.358617 -0.342753);
    }
    procBoundary28to29
    {
        type            processor;
        value           nonuniform List<scalar> 
20
(
-0.109916
-0.110888
-0.110888
-0.101432
-0.101514
-0.10131
-0.101002
-0.10059
-0.100036
-0.0993145
-0.0984084
-0.0973007
-0.0959783
-0.0944334
-0.0926643
-0.0906758
-0.0884789
-0.08609
-0.0835295
-0.0808206
)
;
    }
    procBoundary28to33
    {
        type            processor;
        value           nonuniform List<scalar> 
15
(
-0.327217
-0.310141
-0.291332
-0.271435
-0.250948
-0.230425
-0.210389
-0.191252
-0.1733
-0.156677
-0.141415
-0.127469
-0.114753
-0.103162
-0.0925941
)
;
    }
    procBoundary28to34
    {
        type            processor;
        value           nonuniform List<scalar> 
20
(
-0.105005
-0.106915
-0.108673
-0.109891
-0.110513
-0.110595
-0.110166
-0.109232
-0.107806
-0.105911
-0.103574
-0.100829
-0.0977114
-0.09426
-0.0905178
-0.0865286
-0.0823371
-0.0894333
-0.105005
-0.0930428
)
;
    }
}


// ************************************************************************* //
