/*--------------------------------*- C++ -*----------------------------------*\
  =========                 |
  \\      /  F ield         | OpenFOAM: The Open Source CFD Toolbox
   \\    /   O peration     | Website:  https://openfoam.org
    \\  /    A nd           | Version:  7
     \\/     M anipulation  |
\*---------------------------------------------------------------------------*/
FoamFile
{
    version     2.0;
    format      ascii;
    class       volScalarField;
    location    "3";
    object      p;
}
// * * * * * * * * * * * * * * * * * * * * * * * * * * * * * * * * * * * * * //

dimensions      [0 2 -2 0 0 0 0];

internalField   nonuniform List<scalar> 
344
(
0.238471
0.236076
0.233623
0.231114
0.22855
0.225931
0.223259
0.220535
0.217759
0.214933
0.212058
0.209134
0.206163
0.203145
0.200081
0.196973
0.19382
0.190624
0.187385
0.184105
0.180783
0.17742
0.174017
0.170574
0.167093
0.163572
0.160013
0.156416
0.15278
0.149108
0.145397
0.14165
0.137865
0.134042
0.130183
0.126286
0.122352
0.11838
0.114371
0.110324
0.106239
0.102116
0.0979546
0.0937552
0.0895173
0.085241
0.080926
0.0765724
0.0721801
0.0677492
0.0632797
0.0587717
0.0542252
0.0496404
0.0450175
0.0403558
0.0356569
0.0309165
0.0261437
0.0213149
0.016484
0.0115201
0.00675416
0.00150394
0.247513
0.245358
0.243141
0.240863
0.238525
0.236128
0.233674
0.231163
0.228597
0.225977
0.223303
0.220577
0.2178
0.214973
0.212096
0.209171
0.206199
0.20318
0.200115
0.197005
0.193852
0.190655
0.187416
0.184134
0.180812
0.177449
0.174045
0.170603
0.167121
0.1636
0.160041
0.156444
0.152809
0.149137
0.145427
0.14168
0.137896
0.134074
0.130215
0.126319
0.122386
0.118415
0.114407
0.110361
0.106277
0.102155
0.0979954
0.093797
0.0895601
0.0852847
0.0809706
0.0766179
0.0722264
0.0677963
0.0633277
0.0588206
0.0542752
0.0496916
0.0450703
0.0404108
0.0357144
0.0309781
0.0262089
0.0213884
0.0165599
0.011616
0.00683338
0.00162849
0.247579
0.245422
0.243203
0.240922
0.238582
0.236184
0.233728
0.231215
0.228648
0.226026
0.22335
0.220623
0.217844
0.215015
0.212137
0.209211
0.206237
0.203217
0.200151
0.197041
0.193886
0.190689
0.187449
0.184167
0.180844
0.17748
0.174076
0.170633
0.167151
0.163631
0.160072
0.156475
0.15284
0.149168
0.145459
0.141713
0.137929
0.134108
0.13025
0.126355
0.122423
0.118453
0.114446
0.110401
0.106318
0.102197
0.098038
0.0938405
0.0896045
0.0853299
0.0810166
0.0766645
0.0722738
0.0678443
0.0633764
0.05887
0.0543255
0.0497431
0.0451233
0.0404659
0.0357721
0.0310399
0.0262747
0.0214629
0.0166377
0.0117151
0.00691663
0.00176172
0.247647
0.245488
0.243266
0.240984
0.238642
0.236242
0.233784
0.23127
0.2287
0.226076
0.223399
0.22067
0.21789
0.21506
0.21218
0.209253
0.206278
0.203256
0.200189
0.197078
0.193922
0.190724
0.187483
0.1842
0.180877
0.177513
0.174109
0.170666
0.167183
0.163663
0.160104
0.156507
0.152873
0.149201
0.145493
0.141747
0.137964
0.134144
0.130286
0.126392
0.122461
0.118492
0.114485
0.110441
0.106359
0.102239
0.0980804
0.0938835
0.0896482
0.0853741
0.0810613
0.0767097
0.0723194
0.0678904
0.0634228
0.058917
0.0543732
0.0497917
0.0451731
0.0405177
0.0358264
0.0310983
0.0263374
0.0215343
0.0167135
0.0118125
0.00700022
0.00189894
0.247715
0.245553
0.24333
0.241045
0.238702
0.236299
0.23384
0.231323
0.228752
0.226127
0.223448
0.220718
0.217936
0.215104
0.212223
0.209294
0.206318
0.203296
0.200228
0.197115
0.193959
0.19076
0.187518
0.184235
0.180911
0.177546
0.174142
0.170698
0.167216
0.163695
0.160137
0.15654
0.152906
0.149235
0.145526
0.141781
0.137998
0.134179
0.130322
0.126428
0.122497
0.118529
0.114523
0.110479
0.106398
0.102278
0.0981202
0.0939237
0.0896887
0.0854149
0.0811022
0.0767508
0.0723606
0.0679317
0.0634642
0.0589586
0.0544152
0.0498344
0.0452169
0.0405631
0.0358742
0.0311499
0.0263934
0.0215989
0.0167835
0.0119039
0.00708065
0.00203536
0.247779
0.245616
0.24339
0.241104
0.238758
0.236354
0.233893
0.231375
)
;

boundaryField
{
    inlet
    {
        type            zeroGradient;
    }
    outlet
    {
        type            fixedValue;
        value           uniform 0;
    }
    wall
    {
        type            zeroGradient;
    }
    wedge1
    {
        type            wedge;
    }
    wedge2
    {
        type            wedge;
    }
    axis
    {
        type            empty;
    }
    procBoundary11to5
    {
        type            processor;
        value           nonuniform List<scalar> 
69
(
0.238423
0.23603
0.233579
0.231072
0.228509
0.225891
0.22322
0.220497
0.217723
0.214898
0.212024
0.209101
0.206131
0.203114
0.200052
0.196944
0.193792
0.190597
0.187359
0.184079
0.180757
0.177395
0.173992
0.17055
0.167068
0.163547
0.159988
0.156391
0.152755
0.149082
0.145371
0.141623
0.137837
0.134014
0.130154
0.126256
0.122321
0.118348
0.114338
0.11029
0.106204
0.10208
0.0979175
0.0937171
0.0894783
0.0852009
0.080885
0.0765305
0.0721374
0.0677055
0.0632351
0.0587261
0.0541786
0.0495924
0.044968
0.0403042
0.0356029
0.0308588
0.0260829
0.0212465
0.0164141
0.0114318
0.00668265
0.00139214
0.247452
0.245299
0.243083
0.240807
0.240807
)
;
    }
    procBoundary11to10
    {
        type            processor;
        value           nonuniform List<scalar> 4(0.249605 0.249673 0.249743 0.249813);
    }
    procBoundary11to16
    {
        type            processor;
        value           nonuniform List<scalar> 2(0.249879 0.247838);
    }
    procBoundary11to17
    {
        type            processor;
        value           nonuniform List<scalar> 
68
(
0.228802
0.226175
0.223495
0.220763
0.21798
0.215147
0.212265
0.209335
0.206358
0.203334
0.200265
0.197152
0.193995
0.190795
0.187552
0.184269
0.180944
0.177579
0.174175
0.170731
0.167249
0.163728
0.160169
0.156572
0.152939
0.149267
0.145559
0.141814
0.138031
0.134212
0.130356
0.126462
0.122532
0.118564
0.114558
0.110514
0.106433
0.102313
0.0981554
0.093959
0.0897238
0.0854499
0.0811371
0.0767854
0.0723949
0.0679658
0.0634982
0.0589924
0.0544491
0.0498686
0.0452519
0.0405995
0.0359127
0.031192
0.0264399
0.0216537
0.0168444
0.0119855
0.00715487
0.00216657
0.245673
0.243446
0.241158
0.238811
0.236405
0.233942
0.228802
0.231423
)
;
    }
}


// ************************************************************************* //
