/*--------------------------------*- C++ -*----------------------------------*\
  =========                 |
  \\      /  F ield         | OpenFOAM: The Open Source CFD Toolbox
   \\    /   O peration     | Website:  https://openfoam.org
    \\  /    A nd           | Version:  7
     \\/     M anipulation  |
\*---------------------------------------------------------------------------*/
FoamFile
{
    version     2.0;
    format      ascii;
    class       volScalarField;
    location    "0.5";
    object      p;
}
// * * * * * * * * * * * * * * * * * * * * * * * * * * * * * * * * * * * * * //

dimensions      [0 2 -2 0 0 0 0];

internalField   nonuniform List<scalar> 
344
(
3.98238
3.98166
3.98094
3.98022
3.9795
3.97878
3.97806
3.97734
3.97661
3.97589
3.97517
3.97445
3.97373
4.05573
4.05369
4.05008
4.04542
4.0404
4.03562
4.03124
4.02703
4.02298
4.0193
4.01591
4.0128
4.01036
4.00889
4.00814
4.00771
4.00736
4.00702
4.00667
4.00628
4.00582
4.0053
4.00473
4.00414
4.00351
4.00286
4.0022
4.00152
4.00084
4.00016
3.99947
3.99878
3.99808
3.99739
3.99668
3.99598
3.99527
3.99457
3.99386
3.99314
3.99243
3.99172
3.991
3.99029
3.98957
3.98885
3.98813
3.98742
3.9867
3.98598
3.98526
3.98454
3.98382
3.9831
3.98238
3.98166
3.98094
3.98022
3.9795
3.97878
3.97806
3.97734
3.97661
3.97589
3.97517
3.97445
3.97373
4.05818
4.05575
4.05155
4.04631
4.04091
4.03594
4.03141
4.027
4.02275
4.01887
4.0153
4.01207
4.00961
4.00821
4.00758
4.00728
4.00705
4.00682
4.00654
4.00619
4.00576
4.00525
4.0047
4.00411
4.00348
4.00284
4.00218
4.0015
4.00083
4.00015
3.99946
3.99877
3.99807
3.99738
3.99668
3.99597
3.99527
3.99456
3.99385
3.99314
3.99243
3.99172
3.991
3.99029
3.98957
3.98885
3.98813
3.98742
3.9867
3.98598
3.98526
3.98454
3.98382
3.9831
3.98238
3.98166
3.98094
3.98022
3.9795
3.97878
3.97806
3.97734
3.97661
3.97589
3.97517
3.97445
3.97373
4.06093
4.05797
4.05303
4.04717
4.0414
4.03625
4.03158
4.02696
4.02247
4.01836
4.0146
4.01126
4.0088
4.00747
4.00697
4.00682
4.00674
4.00661
4.00641
4.00611
4.0057
4.00522
4.00467
4.00408
4.00346
4.00282
4.00216
4.00149
4.00081
4.00013
3.99945
3.99876
3.99807
3.99737
3.99667
3.99597
3.99527
3.99456
3.99385
3.99314
3.99243
3.99171
3.991
3.99028
3.98957
3.98885
3.98813
3.98742
3.9867
3.98598
3.98526
3.98454
3.98382
3.9831
3.98238
3.98166
3.98094
3.98022
3.9795
3.97878
3.97806
3.97734
3.97661
3.97589
3.97517
3.97445
3.97373
4.06407
4.06035
4.05449
4.04795
4.04187
4.03658
4.03174
4.02689
4.02213
4.01778
4.01381
4.01035
4.0079
4.00667
4.00631
4.00634
4.00642
4.00642
4.00629
4.00604
4.00566
4.00519
4.00465
4.00406
4.00344
4.00279
4.00214
4.00147
4.00079
4.00012
3.99943
3.99875
3.99806
3.99736
3.99667
3.99596
3.99526
3.99456
3.99385
3.99314
3.99242
3.99171
3.991
3.99028
3.98957
3.98885
3.98813
3.98741
3.9867
3.98598
3.98526
3.98454
3.98382
3.9831
3.98238
3.98166
3.98094
3.98022
3.9795
3.97878
3.97806
3.97734
3.97661
3.97589
3.97517
3.97445
3.97373
3.97301
4.06768
4.06288
4.05587
4.04866
4.04232
4.03694
4.03192
4.02677
4.0217
4.0171
4.01295
4.00937
4.00691
4.00578
4.00561
4.00584
4.00611
4.00623
4.00619
4.00598
4.00564
4.00518
4.00464
4.00405
4.00342
4.00277
4.00212
4.00145
4.00078
4.0001
3.99942
3.99874
3.99805
3.99736
3.99666
3.99596
3.99526
3.99455
3.99384
3.99313
3.99242
3.99171
3.991
3.99028
3.98957
3.98885
3.98813
3.98741
3.9867
3.98598
3.98526
3.98454
3.98382
3.9831
3.98238
3.98166
3.98094
3.98022
3.9795
3.97878
3.97806
3.97734
)
;

boundaryField
{
    inlet
    {
        type            zeroGradient;
    }
    outlet
    {
        type            fixedValue;
        value           nonuniform 0();
    }
    wall
    {
        type            zeroGradient;
    }
    wedge1
    {
        type            wedge;
    }
    wedge2
    {
        type            wedge;
    }
    axis
    {
        type            empty;
    }
    procBoundary36to30
    {
        type            processor;
        value           nonuniform List<scalar> 
68
(
3.98238
3.98166
3.98094
3.98022
3.9795
3.97878
3.97806
3.97734
3.97661
3.97589
3.97517
3.97445
3.97373
4.05353
4.05179
4.04866
4.04449
4.03985
4.0353
4.03108
4.02705
4.02318
4.01966
4.01645
4.01347
4.01106
4.00951
4.00866
4.00812
4.00766
4.00723
4.00682
4.00638
4.00589
4.00535
4.00477
4.00417
4.00354
4.00289
4.00222
4.00154
4.00086
4.00018
3.99949
3.99879
3.99809
3.99739
3.99669
3.99599
3.99528
3.99457
3.99386
3.99315
3.99243
3.99172
3.991
3.99029
3.98957
3.98885
3.98814
3.98742
3.9867
3.98598
3.98526
3.98454
3.98382
3.9831
3.9831
)
;
    }
    procBoundary36to31
    {
        type            processor;
        value           uniform 3.97301;
    }
    procBoundary36to37
    {
        type            processor;
        value           nonuniform List<scalar> 5(3.97301 3.97301 3.97301 3.97301 3.97229);
    }
    procBoundary36to42
    {
        type            processor;
        value           nonuniform List<scalar> 
69
(
3.97661
3.97589
3.97517
3.97445
3.97373
3.97301
4.0719
4.06551
4.0571
4.04928
4.04279
4.03732
4.03209
4.02661
4.02119
4.01631
4.01198
4.0083
4.00581
4.00479
4.00484
4.00533
4.00581
4.00607
4.00611
4.00595
4.00562
4.00517
4.00463
4.00404
4.00341
4.00276
4.0021
4.00143
4.00076
4.00009
3.99941
3.99873
3.99804
3.99735
3.99666
3.99596
3.99525
3.99455
3.99384
3.99313
3.99242
3.99171
3.991
3.99028
3.98956
3.98885
3.98813
3.98741
3.9867
3.98598
3.98526
3.98454
3.98382
3.9831
3.98238
3.98166
3.98094
3.98022
3.9795
3.97878
3.97806
3.97661
3.97734
)
;
    }
}


// ************************************************************************* //
