/*--------------------------------*- C++ -*----------------------------------*\
  =========                 |
  \\      /  F ield         | OpenFOAM: The Open Source CFD Toolbox
   \\    /   O peration     | Website:  https://openfoam.org
    \\  /    A nd           | Version:  7
     \\/     M anipulation  |
\*---------------------------------------------------------------------------*/
FoamFile
{
    version     2.0;
    format      ascii;
    class       volScalarField;
    location    "99.000384";
    object      p;
}
// * * * * * * * * * * * * * * * * * * * * * * * * * * * * * * * * * * * * * //

dimensions      [0 2 -2 0 0 0 0];

internalField   nonuniform List<scalar> 
23200
(
-0.251996
-0.25374
-0.254786
-0.255594
-0.256291
-0.256902
-0.257469
-0.258021
-0.258573
-0.259126
-0.259675
-0.260208
-0.260711
-0.261173
-0.261587
-0.261948
-0.262265
-0.262586
-0.262961
-0.263296
-0.252267
-0.253894
-0.254872
-0.255625
-0.256272
-0.25684
-0.257369
-0.257891
-0.258425
-0.258978
-0.259552
-0.260146
-0.260762
-0.261408
-0.262103
-0.262875
-0.263767
-0.264873
-0.266318
-0.26789
-0.252781
-0.254266
-0.25516
-0.255846
-0.256433
-0.256947
-0.257428
-0.257912
-0.258419
-0.258962
-0.259551
-0.260197
-0.260914
-0.261729
-0.262685
-0.26384
-0.265264
-0.26708
-0.269551
-0.272061
-0.253506
-0.25483
-0.255627
-0.256236
-0.256751
-0.257199
-0.257622
-0.258055
-0.258524
-0.259046
-0.259638
-0.260319
-0.26112
-0.262083
-0.26327
-0.26477
-0.266674
-0.269089
-0.272589
-0.275602
-0.254407
-0.255557
-0.256248
-0.256768
-0.257201
-0.257573
-0.257924
-0.258293
-0.258708
-0.259193
-0.259771
-0.26047
-0.261331
-0.262413
-0.263794
-0.265591
-0.267924
-0.270767
-0.275397
-0.278319
-0.25545
-0.256419
-0.256996
-0.257419
-0.257759
-0.258041
-0.258306
-0.258595
-0.25894
-0.259369
-0.259911
-0.260603
-0.261497
-0.262663
-0.264195
-0.266229
-0.268957
-0.272004
-0.277896
-0.280197
-0.256599
-0.257388
-0.257847
-0.258166
-0.258401
-0.258579
-0.258742
-0.258932
-0.259186
-0.259536
-0.260018
-0.260676
-0.26157
-0.262783
-0.264417
-0.266612
-0.26971
-0.272827
-0.279626
-0.281537
-0.257824
-0.25844
-0.258779
-0.258987
-0.259107
-0.259167
-0.259209
-0.259279
-0.259418
-0.259664
-0.260058
-0.260651
-0.26151
-0.26273
-0.264417
-0.266713
-0.270055
-0.273209
-0.280876
-0.28196
-0.2591
-0.259556
-0.259777
-0.259867
-0.259861
-0.259786
-0.259688
-0.259615
-0.259613
-0.259728
-0.260005
-0.260501
-0.261289
-0.262471
-0.264166
-0.266488
-0.270057
-0.27298
-0.28172
-0.281434
-0.26041
-0.260723
-0.260829
-0.260796
-0.260652
-0.260426
-0.260166
-0.259926
-0.259758
-0.259713
-0.259843
-0.260209
-0.260892
-0.261999
-0.263657
-0.265925
-0.269736
-0.272134
-0.28214
-0.280041
-0.261745
-0.261936
-0.261931
-0.26177
-0.261476
-0.261082
-0.260639
-0.260208
-0.259847
-0.259614
-0.259568
-0.259777
-0.260323
-0.261319
-0.262909
-0.265046
-0.269116
-0.27074
-0.282113
-0.277984
-0.263108
-0.2632
-0.263087
-0.262793
-0.262337
-0.261757
-0.261111
-0.260465
-0.259886
-0.25944
-0.259193
-0.259219
-0.259603
-0.260462
-0.261961
-0.263906
-0.268224
-0.268956
-0.281537
-0.275552
-0.264514
-0.264528
-0.26431
-0.263874
-0.263245
-0.262462
-0.261593
-0.260711
-0.259892
-0.259211
-0.258743
-0.258567
-0.258773
-0.259473
-0.260864
-0.262585
-0.267062
-0.26698
-0.2802
-0.273055
-0.265988
-0.265942
-0.265617
-0.265035
-0.264218
-0.263217
-0.262106
-0.260969
-0.259893
-0.258961
-0.258258
-0.257868
-0.257885
-0.258413
-0.259678
-0.26118
-0.265606
-0.26501
-0.277832
-0.270592
-0.26757
-0.267473
-0.267037
-0.2663
-0.265282
-0.264047
-0.262679
-0.261273
-0.259927
-0.258735
-0.257788
-0.257178
-0.257002
-0.257352
-0.258453
-0.259758
-0.263817
-0.263129
-0.274298
-0.267906
-0.269306
-0.269159
-0.268609
-0.267701
-0.266469
-0.264987
-0.263349
-0.261664
-0.26004
-0.258583
-0.25739
-0.25656
-0.256185
-0.256345
-0.257226
-0.258334
-0.261677
-0.261202
-0.269733
-0.26451
-0.271254
-0.271047
-0.27037
-0.269277
-0.267816
-0.266073
-0.264157
-0.262187
-0.260283
-0.25856
-0.257124
-0.25607
-0.255484
-0.255425
-0.256006
-0.256845
-0.259183
-0.258911
-0.264434
-0.260052
-0.273477
-0.273188
-0.272366
-0.271068
-0.269363
-0.267348
-0.265146
-0.262889
-0.260707
-0.258721
-0.25704
-0.255753
-0.254929
-0.254595
-0.254765
-0.255176
-0.256308
-0.255927
-0.258548
-0.254508
-0.27604
-0.275636
-0.274643
-0.27312
-0.271153
-0.268855
-0.266363
-0.263818
-0.261358
-0.259111
-0.257178
-0.255636
-0.25452
-0.253817
-0.253439
-0.253198
-0.253001
-0.252054
-0.251929
-0.248069
-0.279009
-0.278445
-0.277249
-0.275476
-0.273228
-0.270636
-0.267848
-0.265014
-0.262278
-0.259763
-0.25756
-0.255719
-0.25423
-0.253026
-0.251935
-0.250805
-0.249231
-0.247282
-0.244477
-0.240872
-0.282452
-0.281663
-0.28023
-0.278179
-0.27563
-0.272731
-0.26964
-0.266515
-0.263497
-0.260698
-0.258187
-0.255975
-0.253999
-0.252137
-0.250161
-0.247939
-0.245003
-0.241764
-0.236847
-0.232767
-0.286415
-0.285344
-0.283629
-0.281269
-0.278395
-0.275173
-0.271772
-0.268347
-0.265032
-0.261919
-0.259039
-0.256356
-0.253752
-0.251062
-0.248041
-0.244593
-0.240329
-0.23567
-0.229585
-0.22405
-0.290953
-0.289528
-0.287486
-0.284782
-0.281558
-0.277998
-0.274272
-0.270532
-0.266893
-0.263412
-0.260076
-0.256793
-0.253401
-0.249719
-0.24553
-0.240801
-0.235251
-0.229354
-0.222216
-0.215561
-0.296107
-0.294254
-0.291837
-0.288755
-0.285154
-0.281233
-0.277165
-0.273084
-0.269075
-0.265151
-0.261241
-0.257206
-0.252863
-0.248047
-0.242616
-0.23661
-0.229883
-0.222888
-0.214909
-0.207514
-0.301912
-0.299554
-0.296715
-0.293219
-0.289213
-0.28491
-0.280473
-0.276012
-0.271566
-0.267091
-0.262463
-0.257512
-0.252063
-0.24601
-0.239311
-0.232087
-0.224298
-0.216373
-0.207705
-0.199709
-0.308395
-0.305458
-0.302151
-0.298208
-0.293769
-0.289056
-0.284215
-0.279314
-0.274335
-0.269174
-0.263663
-0.257626
-0.250941
-0.243591
-0.235646
-0.22729
-0.218562
-0.209839
-0.200592
-0.192134
-0.315575
-0.311989
-0.308172
-0.30375
-0.29885
-0.293696
-0.2884
-0.282975
-0.277337
-0.271325
-0.26475
-0.257471
-0.249454
-0.240792
-0.231654
-0.222266
-0.212709
-0.203296
-0.193564
-0.1847
-0.323466
-0.319162
-0.3148
-0.309872
-0.304483
-0.298845
-0.293024
-0.286962
-0.280506
-0.273454
-0.265633
-0.256979
-0.247574
-0.237621
-0.227366
-0.217043
-0.206753
-0.196735
-0.186585
-0.177366
-0.332067
-0.326988
-0.322049
-0.316592
-0.310683
-0.304507
-0.298065
-0.291218
-0.283754
-0.27546
-0.266223
-0.256094
-0.245286
-0.234092
-0.222801
-0.211634
-0.20069
-0.190134
-0.179623
-0.170084
-0.341365
-0.335461
-0.329924
-0.323917
-0.31745
-0.310662
-0.30347
-0.295657
-0.286971
-0.277232
-0.266435
-0.254773
-0.24258
-0.230212
-0.217966
-0.206035
-0.194503
-0.183465
-0.17264
-0.162815
-0.35133
-0.34456
-0.33841
-0.331834
-0.32476
-0.317259
-0.309157
-0.300164
-0.290029
-0.278658
-0.266193
-0.25298
-0.239447
-0.225979
-0.212856
-0.200231
-0.188166
-0.176697
-0.1656
-0.15552
-0.361906
-0.354244
-0.347473
-0.340305
-0.332558
-0.324215
-0.315006
-0.304598
-0.29279
-0.279628
-0.265432
-0.250684
-0.235873
-0.221383
-0.207454
-0.194198
-0.181651
-0.169797
-0.15847
-0.148163
-0.37301
-0.364444
-0.35705
-0.349262
-0.340754
-0.331407
-0.320865
-0.308796
-0.295108
-0.28004
-0.264091
-0.247854
-0.231839
-0.216402
-0.201734
-0.187907
-0.174924
-0.162732
-0.151215
-0.140713
-0.384527
-0.375063
-0.367046
-0.358598
-0.349217
-0.338672
-0.32655
-0.312579
-0.296842
-0.279798
-0.262115
-0.244454
-0.227317
-0.211008
-0.195667
-0.181323
-0.167952
-0.15547
-0.143802
-0.133139
-0.396308
-0.385968
-0.377332
-0.368168
-0.357774
-0.34581
-0.331855
-0.315763
-0.297854
-0.278814
-0.259449
-0.240448
-0.222272
-0.205166
-0.189215
-0.174411
-0.160702
-0.14798
-0.136201
-0.125412
-0.408168
-0.396991
-0.387738
-0.377786
-0.366211
-0.352592
-0.336558
-0.318167
-0.298015
-0.277005
-0.256038
-0.23579
-0.216664
-0.198836
-0.182341
-0.167135
-0.15314
-0.140232
-0.128384
-0.117506
-0.419884
-0.407929
-0.398055
-0.387223
-0.374282
-0.358765
-0.340431
-0.319615
-0.297205
-0.274293
-0.251824
-0.230433
-0.210448
-0.191978
-0.175007
-0.159461
-0.145236
-0.132197
-0.120323
-0.109398
-0.431201
-0.418542
-0.408038
-0.396217
-0.381709
-0.364061
-0.343249
-0.31994
-0.295312
-0.270599
-0.246749
-0.224327
-0.203579
-0.184548
-0.167175
-0.151355
-0.136961
-0.123849
-0.111993
-0.101066
-0.441834
-0.428557
-0.417408
-0.404474
-0.388196
-0.368212
-0.344798
-0.318991
-0.292234
-0.265852
-0.240755
-0.217419
-0.196009
-0.176506
-0.158809
-0.142786
-0.128289
-0.115165
-0.103373
-0.0924957
-0.451472
-0.437675
-0.425858
-0.411677
-0.393437
-0.370952
-0.344877
-0.316629
-0.287876
-0.25998
-0.233781
-0.209659
-0.187695
-0.167813
-0.149875
-0.133726
-0.119195
-0.106125
-0.0944481
-0.0836858
-0.459787
-0.445576
-0.43306
-0.417499
-0.397128
-0.372033
-0.343303
-0.31273
-0.28215
-0.252916
-0.225772
-0.200997
-0.178592
-0.158432
-0.140344
-0.124149
-0.109659
-0.0967097
-0.0852094
-0.0746401
-0.466442
-0.451927
-0.438679
-0.421612
-0.398978
-0.371224
-0.339916
-0.307184
-0.274979
-0.244598
-0.216677
-0.191389
-0.168665
-0.148332
-0.13019
-0.114035
-0.0996617
-0.0869006
-0.0756425
-0.0653489
-0.471097
-0.456391
-0.442377
-0.423696
-0.398714
-0.368323
-0.334576
-0.299899
-0.266294
-0.234973
-0.206447
-0.180795
-0.15788
-0.137488
-0.119392
-0.103366
-0.0891887
-0.0766847
-0.0657283
-0.0557625
-0.473422
-0.458638
-0.443826
-0.423451
-0.396094
-0.363156
-0.32717
-0.290797
-0.256039
-0.223992
-0.195045
-0.169183
-0.146212
-0.12588
-0.107934
-0.0921294
-0.0782286
-0.0660573
-0.0554623
-0.0457783
-0.473106
-0.458353
-0.442723
-0.42061
-0.390909
-0.355581
-0.317607
-0.279817
-0.244167
-0.211619
-0.18244
-0.15653
-0.133642
-0.113491
-0.0958047
-0.0803163
-0.0667743
-0.0550172
-0.0448701
-0.0353488
-0.469862
-0.455247
-0.438792
-0.414937
-0.382988
-0.34549
-0.30582
-0.266917
-0.230647
-0.197829
-0.168611
-0.142817
-0.120157
-0.100314
-0.0829988
-0.06793
-0.0548336
-0.043569
-0.0339361
-0.0246867
-0.463442
-0.449066
-0.431796
-0.406243
-0.372204
-0.332807
-0.291769
-0.252073
-0.215463
-0.182609
-0.153544
-0.128035
-0.10575
-0.0863542
-0.0695256
-0.0549856
-0.0424372
-0.0317633
-0.0225654
-0.0138574
-0.453636
-0.439596
-0.421546
-0.394384
-0.35847
-0.317492
-0.275437
-0.235277
-0.19861
-0.165953
-0.13724
-0.11219
-0.090435
-0.0716355
-0.0554175
-0.0414878
-0.0295829
-0.0195574
-0.0108534
-0.00280368
-0.440283
-0.426672
-0.407901
-0.379266
-0.341742
-0.299536
-0.256833
-0.216541
-0.180092
-0.147862
-0.119725
-0.0953178
-0.074262
-0.0561613
-0.0406655
-0.0274553
-0.0162835
-0.00696363
0.00116009
0.00849069
-0.423276
-0.410179
-0.390773
-0.360844
-0.322019
-0.278965
-0.235992
-0.195897
-0.159937
-0.128362
-0.101067
-0.0774506
-0.0572197
-0.0399577
-0.0252985
-0.0129127
-0.00255896
0.00599079
0.013454
0.0200163
-0.40256
-0.39006
-0.37013
-0.339126
-0.299342
-0.255838
-0.212972
-0.173396
-0.138216
-0.10759
-0.0812181
-0.0586022
-0.0393518
-0.0230602
-0.0093511
0.00210968
0.0115625
0.019275
0.0260082
0.0317484
-0.378137
-0.366312
-0.345994
-0.314165
-0.273796
-0.230244
-0.187851
-0.149122
-0.115008
-0.085517
-0.0602834
-0.0388257
-0.0207058
-0.0055127
0.00713604
0.0175754
0.0260466
0.0328555
0.0387939
0.0436544
-0.350067
-0.338986
-0.318444
-0.286076
-0.245509
-0.202286
-0.160729
-0.123172
-0.0903691
-0.0622281
-0.0383296
-0.0181862
-0.00133832
0.0126338
0.0241161
0.0334418
0.0408542
0.0466954
0.0517753
0.0556948
-0.318464
-0.308189
-0.287615
-0.255027
-0.214616
-0.172064
-0.131745
-0.0956503
-0.0644016
-0.0378161
-0.0154352
0.0032419
0.0186849
0.0313203
0.0415358
0.0496606
0.0559413
0.0607555
0.0649147
0.0678287
-0.283493
-0.274083
-0.253699
-0.221183
-0.181182
-0.13982
-0.101048
-0.0666899
-0.0372229
-0.0123866
0.00830901
0.025376
0.0392897
0.0504806
0.0593354
0.066177
0.0712601
0.0749968
0.0781788
0.0800222
-0.245341
-0.236897
-0.216907
-0.184599
-0.145548
-0.105742
-0.0688093
-0.0364397
-0.00896449
0.013944
0.0328001
0.048124
0.0603941
0.0700416
0.0774485
0.0829308
0.0867592
0.0893812
0.0915321
0.092233
-0.204205
-0.196923
-0.177356
-0.145612
-0.108011
-0.0700317
-0.0352169
-0.00506464
0.0202287
0.0410473
0.0579245
0.0713853
0.0819088
0.0899239
0.0958035
0.099859
0.102389
0.103867
0.104901
0.104319
-0.160342
-0.154472
-0.135264
-0.104708
-0.068774
-0.0329175
-0.000473524
0.0272575
0.0501997
0.0687847
0.0835595
0.0950513
0.103738
0.110042
0.114325
0.116901
0.11811
0.118403
0.118122
0.115936
-0.114132
-0.109741
-0.0912585
-0.0620813
-0.0281075
0.00535398
0.0352049
0.0603367
0.0807807
0.0970076
0.109574
0.119006
0.125778
0.130305
0.132937
0.134
0.133879
0.132913
0.130984
0.126804
-0.0662118
-0.0629874
-0.0456051
-0.0180413
0.0136978
0.0445237
0.0715907
0.0939725
0.111795
0.125559
0.135829
0.143127
0.147923
0.150618
0.151558
0.151093
0.149629
0.147279
0.143434
0.137565
-0.0167505
-0.0147302
0.00135987
0.0270716
0.0563345
0.0843211
0.108446
0.127955
0.143056
0.154277
0.16218
0.167287
0.170057
0.170883
0.170105
0.168098
0.165242
0.161359
0.155582
0.150251
0.0338589
0.034603
0.0492578
0.0729029
0.0994846
0.124466
0.145525
0.162068
0.174375
0.18299
0.188479
0.191354
0.192067
0.190999
0.188491
0.184925
0.180603
0.17516
0.168
0.162889
0.0851796
0.0845989
0.0976917
0.119089
0.142823
0.164673
0.182576
0.19609
0.205553
0.211527
0.214572
0.215194
0.213834
0.210863
0.206625
0.201488
0.195674
0.188762
0.180515
0.175021
0.136771
0.134836
0.146257
0.16526
0.186022
0.204653
0.219345
0.229795
0.236394
0.239711
0.240304
0.23867
0.235237
0.230371
0.224408
0.217698
0.210402
0.202123
0.192907
0.18672
0.188191
0.184886
0.194547
0.211048
0.228751
0.244115
0.255577
0.262959
0.266697
0.267367
0.26552
0.261644
0.256157
0.249415
0.241747
0.233479
0.224731
0.215159
0.204996
0.197948
0.238996
0.234321
0.242159
0.256083
0.270686
0.282772
0.291017
0.295357
0.296264
0.294319
0.290065
0.28398
0.276473
0.267889
0.258548
0.248751
0.238595
0.227792
0.216691
0.208697
0.288748
0.282716
0.288692
0.300006
0.311504
0.320341
0.325415
0.326766
0.324899
0.320393
0.313786
0.305544
0.296066
0.285687
0.274717
0.263434
0.25192
0.239939
0.227913
0.21893
0.337018
0.329655
0.33376
0.342465
0.350895
0.356546
0.358527
0.356972
0.35241
0.34542
0.336533
0.326203
0.314819
0.302708
0.290165
0.277451
0.264636
0.251532
0.238602
0.228611
0.38339
0.374736
0.376985
0.383121
0.388555
0.391119
0.390116
0.385764
0.378611
0.369237
0.358161
0.34583
0.332621
0.318852
0.304805
0.290723
0.276672
0.262504
0.248702
0.237701
0.427464
0.417571
0.418007
0.421647
0.424197
0.423805
0.419956
0.412941
0.403325
0.391684
0.378531
0.364302
0.349363
0.334023
0.318553
0.303179
0.287963
0.272796
0.25816
0.246165
0.46886
0.457793
0.456486
0.457739
0.457548
0.454363
0.447833
0.438313
0.426382
0.412614
0.397511
0.381501
0.364942
0.348132
0.331329
0.314746
0.298445
0.282352
0.266928
0.253967
0.507222
0.495059
0.492102
0.491107
0.488352
0.482565
0.473545
0.461701
0.447625
0.431885
0.414977
0.39732
0.379262
0.361093
0.34306
0.325361
0.308061
0.291119
0.27496
0.261077
0.542221
0.52905
0.524562
0.521488
0.516375
0.508203
0.496906
0.482941
0.466907
0.449369
0.430815
0.411657
0.392234
0.372828
0.353675
0.334962
0.316757
0.299048
0.282216
0.267466
0.573556
0.559477
0.553598
0.548641
0.541401
0.531087
0.517748
0.501882
0.484094
0.464947
0.444921
0.42442
0.403777
0.383265
0.363113
0.343494
0.324484
0.306096
0.288658
0.273109
0.600959
0.586082
0.57897
0.572351
0.56324
0.551046
0.535919
0.518389
0.499068
0.478513
0.4572
0.435526
0.413818
0.392342
0.371316
0.350908
0.331198
0.312221
0.294251
0.277984
0.624196
0.608639
0.60047
0.592429
0.581724
0.567933
0.551287
0.532345
0.511723
0.489975
0.467572
0.444904
0.422294
0.400001
0.378237
0.35716
0.33686
0.31739
0.298966
0.282076
0.643069
0.626957
0.617923
0.608719
0.596714
0.581621
0.563741
0.543652
0.521973
0.499256
0.475967
0.452493
0.429151
0.406196
0.383833
0.362216
0.341439
0.321571
0.302778
0.285371
0.657416
0.640882
0.631184
0.621092
0.608094
0.59201
0.57319
0.552227
0.529745
0.506291
0.482329
0.458243
0.434345
0.410888
0.388071
0.366044
0.344907
0.32474
0.305667
0.287859
0.667116
0.650295
0.640146
0.62945
0.615778
0.599022
0.579564
0.558011
0.534985
0.511033
0.486616
0.462117
0.437844
0.414048
0.390925
0.368622
0.347244
0.326877
0.307615
0.289535
0.672085
0.655117
0.644735
0.633726
0.619707
0.602604
0.582819
0.560962
0.537656
0.513449
0.488799
0.464088
0.439624
0.415656
0.392378
0.369936
0.348436
0.327969
0.308614
0.290396
0.672282
0.655307
0.644913
0.633889
0.619851
0.602731
0.582929
0.561058
0.53774
0.513522
0.488864
0.464145
0.439675
0.415703
0.392422
0.369978
0.348477
0.328011
0.308658
0.290439
0.667705
0.650865
0.64068
0.629935
0.616209
0.5994
0.579894
0.558299
0.535235
0.511251
0.486808
0.462286
0.437996
0.414187
0.391055
0.368746
0.347366
0.327001
0.307744
0.289663
0.658392
0.641826
0.63207
0.621897
0.608809
0.592637
0.573736
0.552703
0.530159
0.506653
0.482647
0.458524
0.434598
0.411119
0.388286
0.366249
0.345109
0.324945
0.305878
0.288069
0.644423
0.628268
0.619152
0.609836
0.597706
0.582491
0.564499
0.544312
0.522547
0.499757
0.476407
0.452883
0.429501
0.406516
0.384131
0.362501
0.341719
0.321856
0.303072
0.285663
0.625917
0.610305
0.602033
0.593849
0.582985
0.569038
0.55225
0.533183
0.512452
0.490611
0.46813
0.445399
0.422738
0.400407
0.378616
0.357523
0.337217
0.317753
0.299341
0.28245
0.603031
0.588088
0.580852
0.57406
0.564757
0.552376
0.537078
0.519396
0.499944
0.479277
0.45787
0.43612
0.414352
0.39283
0.371773
0.351345
0.331629
0.31266
0.294705
0.278439
0.57596
0.561804
0.555782
0.550625
0.543162
0.53263
0.519092
0.503049
0.485109
0.465831
0.445696
0.425107
0.404395
0.383831
0.363643
0.344002
0.324986
0.306608
0.289189
0.273643
0.544935
0.531677
0.527029
0.523729
0.518364
0.509945
0.498422
0.484257
0.46805
0.450365
0.431688
0.412431
0.39293
0.373466
0.354274
0.335538
0.317326
0.29963
0.282822
0.268079
0.510222
0.497962
0.494828
0.493585
0.490551
0.484489
0.475218
0.463153
0.448885
0.432982
0.415939
0.398172
0.380029
0.361797
0.343722
0.325999
0.308694
0.291767
0.275638
0.261767
0.472117
0.460944
0.459446
0.460429
0.459935
0.456451
0.449647
0.439885
0.427745
0.4138
0.39855
0.382422
0.365772
0.348895
0.332049
0.315442
0.299137
0.283063
0.267674
0.254732
0.430946
0.42094
0.421172
0.424526
0.426749
0.426036
0.421893
0.414617
0.404777
0.392947
0.379637
0.365282
0.350247
0.334838
0.319323
0.303926
0.288709
0.273566
0.258972
0.247003
0.387063
0.378289
0.380324
0.386158
0.391248
0.393471
0.392155
0.387527
0.380137
0.370562
0.359321
0.346859
0.333551
0.31971
0.305619
0.291517
0.277468
0.263328
0.249577
0.238611
0.340844
0.333356
0.33724
0.345631
0.3537
0.358994
0.360647
0.358803
0.353992
0.346794
0.337735
0.32727
0.315784
0.303602
0.291016
0.278284
0.265476
0.252406
0.239536
0.22959
0.292687
0.286524
0.292276
0.303268
0.314394
0.32286
0.327593
0.328644
0.326519
0.321798
0.315015
0.306636
0.297055
0.286607
0.275597
0.264302
0.252799
0.240859
0.228903
0.219977
0.243004
0.238195
0.245807
0.259404
0.273627
0.285333
0.293227
0.297259
0.297904
0.295739
0.291307
0.285085
0.277476
0.268825
0.259449
0.249645
0.239507
0.228753
0.217733
0.209811
0.192224
0.188782
0.198218
0.21439
0.23171
0.246688
0.257794
0.264864
0.268335
0.268784
0.26676
0.262747
0.257162
0.250358
0.242662
0.234394
0.225671
0.216156
0.206086
0.199127
0.14078
0.138707
0.149906
0.168585
0.188964
0.207207
0.221542
0.231678
0.23801
0.241107
0.241525
0.239758
0.236233
0.231311
0.225328
0.218626
0.211364
0.203151
0.19404
0.187961
0.0891142
0.0883954
0.101273
0.122354
0.14571
0.167176
0.184723
0.197925
0.207125
0.212882
0.215758
0.216254
0.214808
0.211791
0.20754
0.202422
0.196654
0.189817
0.181685
0.176321
0.037667
0.0382746
0.0527227
0.0760636
0.102278
0.126883
0.147592
0.163829
0.175878
0.184286
0.189613
0.192371
0.193008
0.191903
0.189395
0.18586
0.181595
0.176236
0.1692
0.164238
-0.0131237
-0.0112352
0.00465809
0.0300824
0.058994
0.0866166
0.110402
0.129615
0.144469
0.155492
0.163244
0.168246
0.170952
0.171754
0.170988
0.169027
0.166242
0.162455
0.156805
0.151631
-0.0628245
-0.0597212
-0.0425258
-0.0152275
0.0161811
0.0466611
0.0734041
0.0955039
0.113093
0.126673
0.136806
0.144013
0.148759
0.151446
0.152413
0.152008
0.150632
0.148391
0.144677
0.138961
-0.111042
-0.106759
-0.0884509
-0.0595132
-0.0258434
0.00729547
0.0368428
0.0617109
0.0819392
0.0979991
0.110446
0.119804
0.126545
0.131079
0.133756
0.134897
0.134881
0.134041
0.132255
0.128237
-0.157568
-0.151854
-0.132778
-0.102435
-0.0667728
-0.0312102
0.000955312
0.0284454
0.0511935
0.0696326
0.0843085
0.0957464
0.104421
0.110753
0.115101
0.117774
0.119108
0.119548
0.119426
0.117413
-0.20184
-0.194717
-0.175228
-0.14368
-0.106316
-0.0685975
-0.034031
-0.00409241
0.0210325
0.0417301
0.0585326
0.0719629
0.0824978
0.0905633
0.0965291
0.100703
0.103381
0.105028
0.10624
0.105845
-0.243444
-0.235141
-0.215247
-0.183035
-0.144204
-0.104621
-0.0679008
-0.0357131
-0.00837617
0.01444
0.0332491
0.0485695
0.060877
0.0706002
0.0781179
0.0837429
0.0877422
0.0905572
0.0929089
0.0938129
-0.282116
-0.272831
-0.252526
-0.220102
-0.180219
-0.13905
-0.100452
-0.066239
-0.0368759
-0.0120989
0.00858124
0.0256749
0.0396551
0.0509499
0.059943
0.0669536
0.0722332
0.0761885
0.0795959
0.0816629
-0.317652
-0.307499
-0.286974
-0.25444
-0.214126
-0.171681
-0.131497
-0.0955061
-0.0643222
-0.0377587
-0.0153575
0.00338014
0.0189218
0.0316924
0.0420765
0.0503993
0.0569046
0.0619649
0.0663762
0.0695368
-0.34987
-0.338911
-0.318389
-0.286028
-0.245508
-0.202353
-0.160864
-0.123365
-0.0905834
-0.0624228
-0.0384635
-0.0182224
-0.00124049
0.0129012
0.0245853
0.0341411
0.0418086
0.047926
0.0532867
0.057478
-0.378603
-0.366899
-0.346577
-0.314707
-0.274324
-0.230786
-0.188409
-0.149683
-0.115542
-0.0859867
-0.0606449
-0.0390499
-0.0207574
-0.00535698
0.00752989
0.0182344
0.0269943
0.0341117
0.0403623
0.0455219
-0.403732
-0.391353
-0.371395
-0.340306
-0.300448
-0.256893
-0.213983
-0.174351
-0.139097
-0.108359
-0.081821
-0.0590289
-0.0395627
-0.0230228
-0.00903574
0.00272847
0.0125063
0.0205626
0.0276422
0.033711
-0.425193
-0.412216
-0.392761
-0.362705
-0.323745
-0.280572
-0.23749
-0.197276
-0.16118
-0.129458
-0.101923
-0.0780962
-0.0575983
-0.0400453
-0.025064
-0.0123332
-0.00161497
0.00731702
0.015164
0.0220862
-0.44298
-0.429486
-0.410648
-0.381845
-0.344127
-0.301733
-0.258851
-0.218375
-0.181723
-0.149272
-0.120876
-0.0962003
-0.0748147
-0.0563816
-0.0405127
-0.0269136
-0.0153341
-0.00559071
0.00295861
0.0106821
-0.457138
-0.443214
-0.425082
-0.397715
-0.361549
-0.320313
-0.278006
-0.237593
-0.200658
-0.167716
-0.138696
-0.113307
-0.0911706
-0.0719965
-0.0553451
-0.0409821
-0.0286212
-0.0181292
-0.00895132
-0.000474129
-0.46777
-0.453507
-0.436144
-0.410355
-0.376009
-0.336285
-0.294921
-0.2549
-0.217956
-0.184751
-0.155315
-0.129406
-0.10669
-0.0868439
-0.069533
-0.0545135
-0.0414535
-0.0302707
-0.020543
-0.0113702
-0.475029
-0.460523
-0.443967
-0.419852
-0.387546
-0.349654
-0.309584
-0.270283
-0.233607
-0.20037
-0.170712
-0.144455
-0.121303
-0.100945
-0.0830938
-0.0674767
-0.0538171
-0.0419999
-0.0317779
-0.0220185
-0.479116
-0.464469
-0.448735
-0.426342
-0.396242
-0.360458
-0.322011
-0.283747
-0.247617
-0.214578
-0.184889
-0.158447
-0.135002
-0.114271
-0.0959845
-0.0798811
-0.0657159
-0.0533397
-0.0425736
-0.0324747
-0.480273
-0.465589
-0.450674
-0.430009
-0.402218
-0.368767
-0.332239
-0.295315
-0.260002
-0.227389
-0.197859
-0.171393
-0.147793
-0.126811
-0.108196
-0.0917083
-0.077118
-0.0642613
-0.052994
-0.0426784
-0.478777
-0.464165
-0.450051
-0.431077
-0.405638
-0.374686
-0.340332
-0.30503
-0.270794
-0.238829
-0.209645
-0.183312
-0.159693
-0.138576
-0.119735
-0.102952
-0.0880136
-0.0747553
-0.0630599
-0.0524003
-0.474933
-0.460504
-0.447164
-0.429808
-0.406704
-0.378352
-0.346377
-0.312951
-0.280038
-0.248937
-0.220277
-0.194229
-0.170721
-0.149581
-0.130613
-0.113621
-0.0984074
-0.0848166
-0.0727477
-0.0616921
-0.469064
-0.454929
-0.44233
-0.426492
-0.40565
-0.379931
-0.350486
-0.319154
-0.287792
-0.257759
-0.229797
-0.204178
-0.180904
-0.159849
-0.140847
-0.123726
-0.108309
-0.0944472
-0.0820586
-0.0706552
-0.461501
-0.44777
-0.435879
-0.42144
-0.402739
-0.37962
-0.352794
-0.32373
-0.294125
-0.265352
-0.238252
-0.2132
-0.190276
-0.169406
-0.150459
-0.133287
-0.117734
-0.103658
-0.0910071
-0.0793317
-0.452578
-0.439354
-0.428143
-0.414973
-0.398255
-0.377641
-0.353455
-0.326786
-0.299115
-0.27178
-0.245698
-0.221343
-0.198877
-0.178286
-0.159475
-0.142323
-0.126697
-0.112466
-0.0996027
-0.0877238
-0.442618
-0.429999
-0.419443
-0.407413
-0.392496
-0.374237
-0.352647
-0.328445
-0.302848
-0.277112
-0.252194
-0.228659
-0.206753
-0.186526
-0.167926
-0.15086
-0.135221
-0.120886
-0.107852
-0.0958215
-0.431927
-0.419999
-0.410082
-0.39907
-0.385758
-0.369663
-0.350564
-0.32884
-0.30542
-0.281422
-0.257804
-0.235204
-0.213955
-0.194171
-0.175848
-0.158927
-0.143327
-0.128937
-0.115765
-0.103622
-0.42079
-0.409625
-0.400336
-0.390234
-0.378333
-0.364182
-0.347415
-0.328122
-0.306934
-0.284784
-0.26259
-0.241036
-0.220532
-0.201265
-0.183281
-0.166558
-0.151041
-0.136639
-0.123357
-0.111133
-0.409461
-0.399116
-0.390451
-0.381165
-0.370491
-0.358054
-0.343417
-0.32645
-0.307499
-0.287279
-0.266616
-0.246212
-0.22654
-0.207857
-0.190267
-0.173786
-0.158393
-0.144015
-0.130649
-0.118366
-0.398162
-0.388677
-0.380635
-0.37209
-0.36248
-0.351527
-0.338792
-0.323996
-0.307235
-0.288989
-0.269947
-0.250787
-0.232029
-0.213995
-0.196849
-0.18065
-0.165411
-0.15109
-0.137661
-0.125338
-0.387081
-0.378478
-0.371058
-0.363197
-0.35451
-0.344828
-0.333756
-0.320935
-0.306267
-0.289997
-0.272642
-0.254814
-0.237049
-0.219727
-0.203071
-0.187189
-0.172131
-0.157891
-0.144415
-0.132063
-0.37637
-0.368653
-0.361855
-0.354633
-0.346754
-0.338154
-0.328511
-0.317448
-0.30473
-0.290393
-0.274762
-0.25834
-0.241646
-0.225098
-0.208977
-0.193444
-0.178586
-0.164446
-0.150935
-0.138558
-0.366149
-0.359304
-0.353122
-0.346508
-0.339347
-0.331668
-0.323237
-0.313705
-0.30276
-0.29027
-0.276366
-0.261409
-0.245859
-0.230148
-0.214608
-0.199453
-0.18481
-0.170783
-0.157244
-0.144839
-0.356504
-0.350502
-0.344927
-0.338895
-0.332384
-0.325496
-0.318089
-0.309867
-0.300496
-0.289728
-0.277517
-0.264059
-0.249719
-0.234912
-0.220001
-0.205255
-0.19084
-0.176932
-0.163364
-0.150924
-0.347495
-0.342293
-0.337308
-0.331837
-0.325926
-0.319729
-0.313186
-0.306074
-0.298073
-0.28887
-0.278277
-0.266326
-0.253252
-0.239415
-0.225186
-0.210882
-0.196708
-0.182921
-0.169321
-0.156829
-0.339154
-0.334699
-0.33028
-0.32535
-0.320001
-0.31442
-0.308617
-0.30244
-0.295612
-0.287798
-0.278716
-0.268243
-0.256472
-0.24367
-0.230183
-0.216363
-0.202444
-0.188778
-0.175136
-0.162569
-0.331492
-0.32772
-0.32384
-0.319431
-0.314615
-0.309597
-0.304436
-0.29905
-0.293216
-0.286613
-0.278904
-0.269849
-0.259392
-0.247681
-0.235
-0.221714
-0.208074
-0.194527
-0.18083
-0.168158
-0.324499
-0.321344
-0.317969
-0.31406
-0.309752
-0.305258
-0.30067
-0.29596
-0.290966
-0.2854
-0.278912
-0.27118
-0.262018
-0.251439
-0.239631
-0.226938
-0.21361
-0.20019
-0.186419
-0.173612
-0.318151
-0.315542
-0.312636
-0.309202
-0.305382
-0.301383
-0.297319
-0.2932
-0.288918
-0.284233
-0.278807
-0.272279
-0.264359
-0.254931
-0.244055
-0.232025
-0.219056
-0.205777
-0.191916
-0.178931
-0.312407
-0.310276
-0.3078
-0.304816
-0.301464
-0.297938
-0.294361
-0.290772
-0.287102
-0.283161
-0.278645
-0.273185
-0.266425
-0.258134
-0.248238
-0.236943
-0.224395
-0.211287
-0.197313
-0.184146
-0.307215
-0.305499
-0.303415
-0.300854
-0.297949
-0.294877
-0.291761
-0.288655
-0.285522
-0.282214
-0.27847
-0.273936
-0.268229
-0.261029
-0.252135
-0.241643
-0.229588
-0.21671
-0.202608
-0.189206
-0.302517
-0.301156
-0.299428
-0.297262
-0.294781
-0.292144
-0.289468
-0.286813
-0.284161
-0.281398
-0.278305
-0.274563
-0.269784
-0.2636
-0.2557
-0.246059
-0.23459
-0.221986
-0.207791
-0.194204
-0.298245
-0.29719
-0.295784
-0.293984
-0.291903
-0.289682
-0.287426
-0.285195
-0.282981
-0.280696
-0.278156
-0.275081
-0.271104
-0.265834
-0.258889
-0.250122
-0.239313
-0.227107
-0.212818
-0.198886
-0.294335
-0.293545
-0.292427
-0.290966
-0.28926
-0.287431
-0.285574
-0.283742
-0.281932
-0.280073
-0.278009
-0.275496
-0.272199
-0.267729
-0.261668
-0.253755
-0.243716
-0.231804
-0.218394
-0.202874
-0.290718
-0.290163
-0.289307
-0.288155
-0.286797
-0.285335
-0.283852
-0.282394
-0.280958
-0.279483
-0.277833
-0.275795
-0.273068
-0.269283
-0.264017
-0.25689
-0.247753
-0.235961
-0.224064
-0.20651
-0.287335
-0.286993
-0.286374
-0.285505
-0.284466
-0.283342
-0.282206
-0.281094
-0.280002
-0.278872
-0.277586
-0.275953
-0.273706
-0.270495
-0.265926
-0.259487
-0.251341
-0.239435
-0.229252
-0.209747
-0.284133
-0.283991
-0.283587
-0.282975
-0.282225
-0.281409
-0.280588
-0.279791
-0.27901
-0.27819
-0.277223
-0.275939
-0.274093
-0.271362
-0.267393
-0.261532
-0.254395
-0.242175
-0.233973
-0.212212
-0.281068
-0.281119
-0.280915
-0.280531
-0.280042
-0.279502
-0.278962
-0.278446
-0.277941
-0.277395
-0.276706
-0.275719
-0.274211
-0.271881
-0.268415
-0.263045
-0.25685
-0.244256
-0.238252
-0.213802
-0.278109
-0.27835
-0.278329
-0.278156
-0.277896
-0.277598
-0.277305
-0.277033
-0.276769
-0.276458
-0.276007
-0.275271
-0.274044
-0.27205
-0.268996
-0.264065
-0.258649
-0.245855
-0.241882
-0.21469
-0.275236
-0.275668
-0.275818
-0.275831
-0.275773
-0.275685
-0.275603
-0.27554
-0.275478
-0.275366
-0.275114
-0.274586
-0.27359
-0.271874
-0.26915
-0.264632
-0.25977
-0.247161
-0.24456
-0.215368
-0.272443
-0.273066
-0.273376
-0.273554
-0.273671
-0.273761
-0.273857
-0.273967
-0.274072
-0.274122
-0.27403
-0.273669
-0.272862
-0.271373
-0.268912
-0.264786
-0.260262
-0.248255
-0.246161
-0.216373
-0.269733
-0.270548
-0.271005
-0.271329
-0.271596
-0.271836
-0.272077
-0.272327
-0.272565
-0.272742
-0.272776
-0.272548
-0.271889
-0.270584
-0.268337
-0.264562
-0.260248
-0.249111
-0.246823
-0.217897
-0.267119
-0.268124
-0.268717
-0.269168
-0.269562
-0.269925
-0.270283
-0.270643
-0.270983
-0.271258
-0.271389
-0.271262
-0.270719
-0.269562
-0.267498
-0.264013
-0.259899
-0.249667
-0.246889
-0.219866
-0.264623
-0.265811
-0.266528
-0.26709
-0.26759
-0.268052
-0.268501
-0.268944
-0.269361
-0.269708
-0.26991
-0.269861
-0.269412
-0.268374
-0.266471
-0.263226
-0.259371
-0.249905
-0.24678
-0.222127
-0.262273
-0.263633
-0.264461
-0.265116