/*--------------------------------*- C++ -*----------------------------------*\
  =========                 |
  \\      /  F ield         | OpenFOAM: The Open Source CFD Toolbox
   \\    /   O peration     | Website:  https://openfoam.org
    \\  /    A nd           | Version:  7
     \\/     M anipulation  |
\*---------------------------------------------------------------------------*/
FoamFile
{
    version     2.0;
    format      ascii;
    class       volVectorField;
    location    "19.00073";
    object      U;
}
// * * * * * * * * * * * * * * * * * * * * * * * * * * * * * * * * * * * * * //

dimensions      [0 1 -1 0 0 0 0];

internalField   nonuniform List<vector> 
5800
(
(0.0158592 -0.00327989 -4.28516e-22)
(0.0219951 -0.00979339 -1.31611e-20)
(0.0342409 -0.0161664 1.95145e-20)
(0.0525425 -0.0222997 6.27599e-21)
(0.0768147 -0.0280872 -1.66098e-20)
(0.0232317 -0.00292904 2.44229e-21)
(0.0279806 -0.0027571 2.24336e-21)
(0.0325719 -0.00265506 -4.17779e-21)
(0.0371394 -0.00259259 1.97772e-21)
(0.0417236 -0.00255792 -1.14409e-21)
(0.0463625 -0.00254553 -3.88993e-22)
(0.051094 -0.00255034 2.22364e-21)
(0.0559491 -0.00256813 -3.20593e-21)
(0.0609526 -0.00259565 1.39875e-21)
(0.0661252 -0.00263036 1.27782e-21)
(0.0714843 -0.00267015 -2.62231e-21)
(0.0770443 -0.00271329 -3.55865e-23)
(0.0828166 -0.00275826 2.10048e-21)
(0.0888105 -0.00280381 -1.65139e-22)
(0.0950328 -0.00284882 -8.53209e-22)
(0.101488 -0.00289235 7.44992e-22)
(0.10818 -0.00293359 -3.49748e-22)
(0.115109 -0.00297185 4.67125e-22)
(0.122274 -0.00300658 -3.43659e-22)
(0.129673 -0.00303733 -2.25994e-22)
(0.137303 -0.00306375 9.59679e-22)
(0.145158 -0.00308558 -2.88089e-22)
(0.153234 -0.00310266 -6.22023e-22)
(0.161522 -0.00311488 4.04854e-22)
(0.170017 -0.00312222 1.26054e-22)
(0.178708 -0.0031247 -4.80075e-22)
(0.187587 -0.0031224 5.45755e-22)
(0.196644 -0.00311542 -4.40774e-22)
(0.20587 -0.00310392 -2.96695e-22)
(0.215255 -0.00308806 8.52397e-22)
(0.224788 -0.00306806 -5.83767e-22)
(0.234459 -0.00304411 -9.48011e-23)
(0.244256 -0.00301644 1.1806e-22)
(0.25417 -0.00298531 6.39019e-24)
(0.264189 -0.00295093 2.83734e-22)
(0.274303 -0.00291357 -3.65481e-22)
(0.284502 -0.00287348 3.03088e-22)
(0.294775 -0.00283089 -3.3376e-24)
(0.305113 -0.00278606 -1.78747e-23)
(0.315505 -0.00273923 -3.13426e-23)
(0.325943 -0.00269064 1.89594e-22)
(0.336416 -0.00264053 -7.40256e-24)
(0.346916 -0.00258911 -7.51995e-23)
(0.357435 -0.00253661 -3.33817e-23)
(0.367964 -0.00248324 1.85574e-23)
(0.378497 -0.0024292 -9.54229e-23)
(0.389025 -0.00237469 1.18191e-22)
(0.399541 -0.0023199 -2.99857e-23)
(0.410041 -0.00226499 6.12129e-23)
(0.420518 -0.00221014 -2.00377e-23)
(0.430966 -0.0021555 1.76476e-24)
(0.441382 -0.00210124 7.37138e-24)
(0.451761 -0.00204748 -3.3221e-23)
(0.462099 -0.00199437 3.67769e-23)
(0.472394 -0.00194203 -3.13201e-23)
(0.482643 -0.00189059 2.74468e-24)
(0.492845 -0.00184015 1.8651e-23)
(0.502999 -0.00179083 -8.1909e-25)
(0.513102 -0.00174272 -6.9946e-24)
(0.523162 -0.00169594 -3.50485e-24)
(0.533164 -0.00165058 -1.60547e-24)
(0.543146 -0.0016067 3.9438e-24)
(0.553031 -0.00156456 -3.10603e-24)
(0.563 -0.00152362 -1.84432e-24)
(0.57267 -0.00148582 4.28306e-25)
(0.582881 -0.00144614 -4.79601e-25)
(0.591875 -0.00141754 2.43277e-26)
(0.60334 -0.00136825 1.06059e-24)
(0.609713 -0.00137167 4.12277e-25)
(0.62633 -0.00127307 -1.1315e-24)
(0.0294963 -0.00874242 -9.40826e-22)
(0.034138 -0.00823558 -1.60177e-21)
(0.0386362 -0.00793542 -1.47815e-21)
(0.0431433 -0.00775091 2.38824e-22)
(0.0476762 -0.00764856 -1.0092e-21)
(0.052267 -0.00761246 8.25129e-21)
(0.0569536 -0.00762761 -5.98765e-21)
(0.0617663 -0.00768143 4.30799e-21)
(0.0667288 -0.00776429 -3.29226e-21)
(0.0718613 -0.00786861 -2.14788e-21)
(0.0771805 -0.0079881 2.17149e-21)
(0.0827004 -0.00811753 2.09038e-21)
(0.0884321 -0.00825241 -4.65262e-21)
(0.0943844 -0.00838893 1.06496e-21)
(0.100564 -0.00852378 -1.83658e-21)
(0.106975 -0.00865413 1.91371e-21)
(0.11362 -0.00877755 -4.41659e-22)
(0.1205 -0.00889202 3.38745e-21)
(0.127615 -0.00899587 -1.41874e-21)
(0.13496 -0.00908778 4.49074e-22)
(0.142534 -0.0091667 7.02219e-22)
(0.150332 -0.00923188 -2.22986e-21)
(0.158346 -0.00928283 2.73654e-22)
(0.166571 -0.00931927 -3.27778e-22)
(0.174998 -0.0093411 9.28472e-24)
(0.183621 -0.00934841 2.47594e-22)
(0.192428 -0.00934141 9.55797e-22)
(0.201413 -0.00932046 -3.376e-22)
(0.210563 -0.00928599 -7.07098e-22)
(0.219871 -0.00923853 1.28122e-21)
(0.229324 -0.00917865 -2.11745e-21)
(0.238914 -0.00910702 5.32092e-22)
(0.248629 -0.00902429 1.70114e-21)
(0.25846 -0.00893117 -1.12731e-21)
(0.268394 -0.0088284 -4.32791e-22)
(0.278423 -0.00871671 6.45283e-22)
(0.288536 -0.00859685 -1.04815e-21)
(0.298723 -0.00846954 1.46217e-21)
(0.308974 -0.00833554 -6.10599e-22)
(0.319278 -0.00819556 -1.66868e-22)
(0.329628 -0.00805032 1.27632e-22)
(0.340014 -0.00790052 -2.44087e-24)
(0.350427 -0.00774682 5.94944e-23)
(0.360859 -0.00758989 -2.22967e-23)
(0.371302 -0.00743036 1.34661e-22)
(0.381748 -0.00726883 -8.08707e-23)
(0.392191 -0.00710588 1.38783e-22)
(0.402623 -0.00694207 -1.92283e-22)
(0.413039 -0.00677792 -4.31038e-23)
(0.423433 -0.00661395 -6.39696e-23)
(0.4338 -0.00645061 1.77852e-22)
(0.444135 -0.00628838 -2.05007e-22)
(0.454434 -0.00612766 -5.22967e-23)
(0.464693 -0.00596887 5.76679e-23)
(0.474911 -0.00581238 -1.0729e-23)
(0.485084 -0.00565856 -1.53005e-23)
(0.49521 -0.00550774 -6.85738e-24)
(0.50529 -0.00536027 6.79574e-24)
(0.515321 -0.00521644 -3.2008e-23)
(0.52531 -0.00507657 2.29811e-23)
(0.535243 -0.00494095 3.42373e-24)
(0.545156 -0.00480973 -9.76629e-25)
(0.554974 -0.00468376 7.13513e-24)
(0.564877 -0.00456136 -4.37746e-24)
(0.574484 -0.00444837 -1.66533e-25)
(0.584631 -0.00432976 -1.49039e-25)
(0.593565 -0.00424438 -6.4629e-25)
(0.604966 -0.004097 1.69429e-24)
(0.611293 -0.00410738 1.22227e-24)
(0.627822 -0.00381313 9.8086e-24)
(0.0419907 -0.0144206 3.83039e-23)
(0.046418 -0.0136052 4.87548e-21)
(0.0507285 -0.0131248 9.09909e-22)
(0.0551125 -0.0128271 -9.461e-21)
(0.0595406 -0.0126623 -5.67671e-21)
(0.0640331 -0.012606 5.22752e-21)
(0.0686283 -0.0126338 1.17998e-20)
(0.0733546 -0.0127252 -6.53499e-21)
(0.0782339 -0.0128644 -2.38361e-21)
(0.0832848 -0.013039 1.33651e-21)
(0.0885233 -0.0132386 2.86677e-21)
(0.0939621 -0.0134545 -3.89254e-21)
(0.0996118 -0.0136792 4.22155e-21)
(0.10548 -0.0139064 -3.65084e-21)
(0.111573 -0.0141306 6.97818e-21)
(0.117895 -0.014347 -6.63038e-21)
(0.124446 -0.0145518 1.10105e-21)
(0.131229 -0.0147415 -8.51052e-21)
(0.138241 -0.0149135 3.18498e-21)
(0.14548 -0.0150655 -2.11413e-21)
(0.152941 -0.015196 1.02138e-21)
(0.160621 -0.0153036 7.41694e-21)
(0.168513 -0.0153876 -3.92e-21)
(0.17661 -0.0154476 1.26859e-21)
(0.184905 -0.0154833 -3.33091e-21)
(0.193389 -0.0154951 2.8066e-21)
(0.202054 -0.0154832 -3.7048e-21)
(0.210892 -0.0154482 1.58358e-21)
(0.219892 -0.0153909 -4.03192e-22)
(0.229045 -0.0153121 1.13086e-21)
(0.23834 -0.0152128 1.05925e-21)
(0.247769 -0.0150941 1.33659e-21)
(0.25732 -0.0149571 -1.16696e-21)
(0.266984 -0.0148029 2.10664e-22)
(0.276751 -0.0146328 -5.59501e-22)
(0.28661 -0.0144479 1.0444e-21)
(0.296552 -0.0142495 -5.69665e-22)
(0.306566 -0.0140388 2.46055e-22)
(0.316643 -0.0138171 -1.12159e-21)
(0.326775 -0.0135854 2.50051e-22)
(0.336951 -0.0133451 4.00627e-22)
(0.347163 -0.0130972 -7.20344e-22)
(0.357403 -0.0128429 5.3973e-22)
(0.367663 -0.0125832 5.71079e-22)
(0.377934 -0.0123193 -3.77947e-22)
(0.38821 -0.012052 -1.05312e-22)
(0.398483 -0.0117823 -3.12661e-22)
(0.408747 -0.0115113 6.96404e-23)
(0.418997 -0.0112396 9.53663e-23)
(0.429226 -0.0109683 1.95561e-22)
(0.43943 -0.010698 -2.1286e-22)
(0.449605 -0.0104295 1.34072e-22)
(0.459745 -0.0101635 8.62572e-23)
(0.469849 -0.00990071 -8.98747e-23)
(0.479912 -0.00964172 5.78712e-24)
(0.489934 -0.00938714 6.75596e-23)
(0.499912 -0.00913754 -2.47029e-23)
(0.509846 -0.00889346 1.42859e-24)
(0.519733 -0.00865542 3.49722e-23)
(0.529581 -0.00842393 -7.3413e-25)
(0.539375 -0.00819949 3.62877e-23)
(0.549153 -0.00798233 -2.61259e-23)
(0.558838 -0.0077739 -7.72225e-24)
(0.568611 -0.00757135 1.61217e-23)
(0.578091 -0.00738449 -4.80979e-24)
(0.588113 -0.00718818 1.58818e-24)
(0.596928 -0.00704723 1.03831e-24)
(0.6082 -0.00680324 -7.08711e-24)
(0.614438 -0.00682091 -3.28179e-24)
(0.630793 -0.00633552 -1.69381e-23)
(0.0606444 -0.0198686 2.592e-23)
(0.0647505 -0.0187874 -1.8579e-20)
(0.0687757 -0.0181567 -3.92296e-21)
(0.0729697 -0.0177613 2.03485e-20)
(0.077235 -0.0175435 -1.43203e-20)
(0.0815754 -0.0174735 2.44902e-21)
(0.086029 -0.0175184 8.40244e-21)
(0.090622 -0.0176505 -7.00536e-21)
(0.0953732 -0.0178483 -6.44265e-21)
(0.100299 -0.0180947 1.06004e-20)
(0.105414 -0.0183754 3.2385e-21)
(0.110729 -0.0186781 -3.89604e-21)
(0.116254 -0.0189927 -3.78916e-21)
(0.121995 -0.0193101 2.7787e-22)
(0.127956 -0.0196228 8.09581e-21)
(0.134142 -0.0199243 -4.11551e-21)
(0.140552 -0.0202091 -4.4982e-22)
(0.147186 -0.0204725 -4.15847e-21)
(0.154043 -0.0207111 -2.23842e-22)
(0.16112 -0.0209216 1.64198e-21)
(0.168412 -0.021102 3.81998e-21)
(0.175914 -0.0212507 -4.15041e-21)
(0.183621 -0.0213665 3.39904e-21)
(0.191525 -0.0214489 -1.91233e-21)
(0.19962 -0.0214978 -8.50235e-22)
(0.207898 -0.0215134 -3.69055e-22)
(0.21635 -0.0214964 2.1005e-21)
(0.224967 -0.0214474 2.17608e-21)
(0.233741 -0.0213675 -4.18032e-21)
(0.242663 -0.021258 -8.05004e-22)
(0.251723 -0.0211202 3.68507e-21)
(0.260911 -0.0209555 -1.23406e-21)
(0.270218 -0.0207655 -2.09209e-21)
(0.279635 -0.0205518 9.01881e-22)
(0.289151 -0.020316 -1.14021e-21)
(0.298757 -0.0200599 1.15577e-21)
(0.308444 -0.0197851 -6.27025e-22)
(0.318202 -0.0194933 2.3376e-21)
(0.328022 -0.0191862 2.36371e-22)
(0.337896 -0.0188654 -1.49316e-22)
(0.347814 -0.0185326 -7.07671e-22)
(0.357769 -0.0181894 -1.04428e-21)
(0.367752 -0.0178372 -2.37977e-22)
(0.377756 -0.0174776 1.11563e-21)
(0.387773 -0.017112 1.21154e-22)
(0.397795 -0.0167419 -4.20548e-22)
(0.407818 -0.0163684 9.78951e-23)
(0.417834 -0.015993 5.86733e-23)
(0.427837 -0.0156168 3.49632e-22)
(0.437823 -0.0152409 -1.91695e-22)
(0.447786 -0.0148665 -1.1797e-22)
(0.457723 -0.0144946 1.99534e-23)
(0.467629 -0.0141262 3.1721e-22)
(0.477501 -0.0137621 -1.7053e-22)
(0.487338 -0.0134034 -1.78619e-22)
(0.497135 -0.0130507 5.99415e-23)
(0.506893 -0.0127049 2.07429e-23)
(0.516611 -0.0123668 5.46512e-24)
(0.526286 -0.012037 -9.29503e-23)
(0.535925 -0.0117163 4.41973e-23)
(0.545515 -0.0114055 -9.38773e-24)
(0.555092 -0.0111047 1.04926e-23)
(0.564581 -0.010816 -1.79159e-23)
(0.574161 -0.0105355 -1.5196e-23)
(0.583453 -0.0102769 6.58009e-24)
(0.593289 -0.0100049 -1.2685e-24)
(0.60193 -0.00981045 -3.14413e-24)
(0.613011 -0.00947225 7.00524e-24)
(0.619115 -0.00949777 1.6562e-24)
(0.635213 -0.00882859 2.76605e-23)
(0.085348 -0.0249838 1.96501e-20)
(0.0890275 -0.0236951 -7.2928e-21)
(0.0926657 -0.0229567 4.39871e-21)
(0.0965967 -0.0224865 -3.01686e-20)
(0.100636 -0.0222302 1.40312e-20)
(0.104765 -0.0221571 -1.79879e-20)
(0.109022 -0.0222268 1.99275e-20)
(0.113431 -0.0224049 -1.81885e-20)
(0.118006 -0.0226652 -4.2134e-21)
(0.122761 -0.0229862 3.58081e-20)
(0.127707 -0.0233498 -1.95774e-20)
(0.132854 -0.0237405 1.6108e-20)
(0.138208 -0.0241452 -3.66219e-21)
(0.143775 -0.0245525 -3.30531e-22)
(0.149558 -0.0249528 -9.41398e-21)
(0.155559 -0.0253379 -3.9145e-21)
(0.161777 -0.0257009 -1.77115e-21)
(0.168211 -0.0260362 4.56992e-21)
(0.174858 -0.0263392 -1.08817e-20)
(0.181716 -0.0266062 5.388e-21)
(0.188779 -0.0268346 -2.79666e-21)
(0.196043 -0.0270225 1.46046e-21)
(0.203502 -0.0271685 2.83796e-21)
(0.211148 -0.0272722 5.32418e-21)
(0.218976 -0.0273333 -3.39183e-21)
(0.226977 -0.0273523 -2.76764e-21)
(0.235144 -0.0273299 2.16124e-21)
(0.243469 -0.0272671 3.31434e-22)
(0.251943 -0.0271654 2.0703e-21)
(0.260558 -0.0270261 -1.69323e-21)
(0.269305 -0.026851 -2.09467e-21)
(0.278175 -0.026642 3.3118e-21)
(0.287159 -0.026401 -2.7578e-21)
(0.296249 -0.0261301 1.8343e-21)
(0.305434 -0.0258313 6.4468e-22)
(0.314707 -0.0255067 -1.09694e-21)
(0.324058 -0.0251586 -6.20973e-22)
(0.333479 -0.0247889 8.09751e-22)
(0.342961 -0.0243998 -1.3587e-21)
(0.352497 -0.0239934 3.62103e-22)
(0.362076 -0.0235718 -4.41064e-22)
(0.371693 -0.0231369 1.59512e-22)
(0.381339 -0.0226908 -1.41957e-22)
(0.391007 -0.0222352 6.54179e-22)
(0.40069 -0.021772 -6.08928e-22)
(0.410382 -0.021303 3.93208e-22)
(0.420075 -0.0208298 -7.33245e-22)
(0.429765 -0.020354 2.54189e-22)
(0.439446 -0.0198772 6.5718e-22)
(0.449113 -0.0194009 -5.05271e-22)
(0.458761 -0.0189263 -3.12553e-22)
(0.468387 -0.0184549 3.89107e-22)
(0.477987 -0.0179879 -2.78204e-22)
(0.487557 -0.0175264 1.39914e-22)
(0.497096 -0.0170716 2.24329e-23)
(0.506601 -0.0166245 3.23177e-23)
(0.51607 -0.0161861 -1.67188e-22)
(0.525505 -0.0157575 5.37211e-23)
(0.534902 -0.0153394 -2.93654e-24)
(0.544269 -0.0149329 6.41269e-23)
(0.553591 -0.0145388 -9.7239e-23)
(0.562906 -0.0141576 3.62213e-23)
(0.572138 -0.0137918 1.03154e-23)
(0.581467 -0.0134362 7.92956e-24)
(0.590513 -0.0131089 -8.8728e-25)
(0.600105 -0.0127641 2.97405e-24)
(0.608518 -0.0125188 -5.33775e-25)
(0.619349 -0.0120898 5.55145e-24)
(0.62528 -0.0121238 -7.14586e-24)
(0.64104 -0.0112809 -6.85711e-23)
(0.115949 -0.0296532 -9.03675e-21)
(0.119099 -0.0282303 7.9579e-21)
(0.122245 -0.0274397 5.27761e-21)
(0.125833 -0.0269264 -3.48401e-20)
(0.129577 -0.0266529 3.55691e-20)
(0.13343 -0.0265925 -4.07564e-22)
(0.137431 -0.0266987 -2.33621e-20)
(0.1416 -0.0269317 1.43567e-20)
(0.145947 -0.0272609 4.10526e-21)
(0.150481 -0.0276612 4.1803e-21)
(0.155209 -0.0281108 -1.64424e-20)
(0.160139 -0.0285914 -1.39746e-20)
(0.165275 -0.0290869 5.05453e-21)
(0.17062 -0.029584 1.27133e-20)
(0.176175 -0.030071 -7.49025e-21)
(0.18194 -0.0305382 1.99041e-20)
(0.187912 -0.0309775 -2.13893e-20)
(0.194091 -0.0313824 2.29133e-20)
(0.200473 -0.0317474 -6.39363e-21)
(0.207053 -0.0320686 -1.54161e-20)
(0.213826 -0.0323428 1.29976e-20)
(0.220789 -0.0325679 -1.35615e-21)
(0.227934 -0.0327425 -2.03386e-21)
(0.235257 -0.0328662 5.64906e-21)
(0.242749 -0.0329388 -4.08734e-21)
(0.250404 -0.0329608 -9.03629e-21)
(0.258216 -0.0329332 7.23808e-21)
(0.266176 -0.0328573 -1.67553e-21)
(0.274277 -0.0327347 -1.42699e-21)
(0.282511 -0.0325672 2.78442e-21)
(0.29087 -0.0323569 5.21553e-21)
(0.299346 -0.032106 -1.63749e-21)
(0.307931 -0.0318168 -9.17458e-21)
(0.316616 -0.0314918 6.71033e-21)
(0.325394 -0.0311333 -3.23574e-21)
(0.334256 -0.0307441 1.02752e-21)
(0.343195 -0.0303265 2.34984e-21)
(0.352201 -0.0298831 -9.14984e-22)
(0.361268 -0.0294165 -3.8536e-23)
(0.370388 -0.0289292 5.44182e-22)
(0.379552 -0.0284235 -1.6593e-21)
(0.388755 -0.0279018 -7.35369e-22)
(0.397988 -0.0273666 1.77617e-21)
(0.407245 -0.02682 4.18328e-22)
(0.41652 -0.0262643 -1.10663e-21)
(0.425806 -0.0257015 3.99949e-22)
(0.435098 -0.0251336 -2.8727e-22)
(0.44439 -0.0245626 -6.82509e-22)
(0.453677 -0.0239904 -5.45376e-23)
(0.462955 -0.0234186 7.71465e-22)
(0.472219 -0.0228489 3.29193e-22)
(0.481465 -0.0222829 3.2657e-22)
(0.49069 -0.0217222 -1.77021e-22)
(0.499892 -0.0211681 3.0949e-22)
(0.509068 -0.0206219 -4.0001e-22)
(0.518216 -0.020085 2.02053e-22)
(0.527334 -0.0195586 -1.77407e-22)
(0.536424 -0.0190438 9.65543e-24)
(0.545483 -0.0185418 1.08288e-22)
(0.554517 -0.0180537 -9.44052e-23)
(0.563513 -0.0175805 4.97332e-23)
(0.572509 -0.0171227 -3.43592e-23)
(0.581427 -0.0166838 -5.31149e-23)
(0.590449 -0.0162569 -1.83467e-23)
(0.599196 -0.0158646 2.84398e-24)
(0.608491 -0.0154504 -5.28651e-25)
(0.616626 -0.0151578 -3.46192e-24)
(0.627152 -0.0146421 6.71339e-24)
(0.632872 -0.0146856 4.36684e-24)
(0.648218 -0.0136815 3.30501e-23)
(0.152245 -0.0337538 3.02495e-20)
(0.154766 -0.0322837 -2.27124e-20)
(0.157312 -0.0315101 3.70867e-20)
(0.160473 -0.0309948 -1.39161e-20)
(0.163846 -0.0307331 1.08357e-20)
(0.167352 -0.0307081 -2.79402e-20)
(0.171033 -0.0308681 4.47263e-21)
(0.174903 -0.0311689 -9.48585e-22)
(0.178966 -0.0315768 6.12996e-21)
(0.183225 -0.0320636 1.636e-20)
(0.187685 -0.0326044 -1.32519e-20)
(0.192347 -0.0331779 9.04559e-21)
(0.197214 -0.0337659 5.17571e-21)
(0.202284 -0.034353 1.80121e-21)
(0.207558 -0.0349258 -1.53012e-20)
(0.213032 -0.0354736 8.44718e-21)
(0.218703 -0.0359871 -1.22379e-20)
(0.224569 -0.0364592 1.51842e-21)
(0.230624 -0.0368838 -2.54403e-22)
(0.236865 -0.0372567 1.47995e-20)
(0.243286 -0.0375745 -1.25852e-20)
(0.249883 -0.0378351 -1.61375e-21)
(0.256649 -0.0380369 -2.70213e-21)
(0.26358 -0.0381797 1.20527e-20)
(0.270668 -0.0382633 -4.35295e-21)
(0.277908 -0.0382885 -3.99061e-21)
(0.285293 -0.0382564 -2.31924e-21)
(0.292817 -0.0381686 8.90841e-21)
(0.300473 -0.038027 -3.22499e-21)
(0.308253 -0.0378336 -4.09317e-21)
(0.316152 -0.0375909 -3.2381e-21)
(0.324161 -0.0373013 9.03752e-21)
(0.332273 -0.0369676 -2.46102e-21)
(0.340481 -0.0365926 -8.3801e-22)
(0.348778 -0.036179 -1.79774e-21)
(0.357157 -0.0357298 -1.40793e-21)
(0.365609 -0.0352478 1.44777e-21)
(0.374129 -0.0347361 1.30454e-21)
(0.382708 -0.0341974 -1.40136e-21)
(0.39134 -0.0336347 -2.1159e-21)
(0.400018 -0.0330507 2.76178e-21)
(0.408735 -0.0324482 -4.24341e-22)
(0.417486 -0.0318299 1.019e-24)
(0.426263 -0.0311985 -5.55018e-22)
(0.435061 -0.0305563 9.06864e-22)
(0.443874 -0.0299059 -1.09732e-21)
(0.452697 -0.0292495 1.27347e-21)
(0.461524 -0.0285894 -3.5317e-23)
(0.470352 -0.0279278 -1.08147e-22)
(0.479176 -0.0272665 -3.33528e-22)
(0.487992 -0.0266077 -3.96321e-22)
(0.496796 -0.0259531 1.38588e-22)
(0.505586 -0.0253045 3.26385e-22)
(0.514358 -0.0246634 -7.35632e-22)
(0.523111 -0.0240316 5.10651e-22)
(0.531843 -0.0234104 -2.70178e-22)
(0.540553 -0.0228013 1.0084e-22)
(0.549242 -0.0222057 5.72196e-23)
(0.557906 -0.0216248 -9.35377e-23)
(0.566554 -0.02106 -1.90275e-23)
(0.57517 -0.0205126 5.45489e-23)
(0.583794 -0.0199831 -1.80442e-23)
(0.592347 -0.0194755 2.31023e-23)
(0.601012 -0.0189818 4.88976e-23)
(0.60941 -0.0185288 4.21701e-24)
(0.61836 -0.0180496 2.20285e-24)
(0.626171 -0.0177137 3.68819e-24)
(0.636341 -0.0171165 -5.11061e-24)
(0.641817 -0.0171702 -3.74262e-24)
(0.656679 -0.0160197 -2.15821e-24)
(0.193979 -0.0371557 1.60504e-20)
(0.195774 -0.0357369 3.25686e-20)
(0.197614 -0.0350618 -3.81322e-20)
(0.200261 -0.0345963 -9.00986e-22)
(0.203183 -0.0343845 8.22476e-21)
(0.206269 -0.0344254 -7.26385e-21)
(0.209561 -0.0346633 -1.46997e-20)
(0.21307 -0.0350503 -1.64335e-21)
(0.21679 -0.0355509 3.52317e-20)
(0.220719 -0.0361344 -1.37609e-21)
(0.224854 -0.0367734 -3.03029e-21)
(0.229195 -0.0374445 -5.31541e-21)
(0.233737 -0.0381275 4.66605e-21)
(0.238478 -0.0388053 -3.62131e-21)
(0.243413 -0.0394636 4.7533e-21)
(0.248538 -0.0400904 -1.28562e-20)
(0.253849 -0.0406762 -1.02874e-20)
(0.25934 -0.0412132 1.474e-20)
(0.265006 -0.0416952 9.36833e-22)
(0.270843 -0.0421176 -6.78387e-21)
(0.276846 -0.0424772 1.52107e-20)
(0.28301 -0.0427718 -2.42178e-21)
(0.28933 -0.043 -1.22932e-21)
(0.2958 -0.0431615 -1.24819e-20)
(0.302416 -0.0432565 9.98797e-22)
(0.309171 -0.0432859 1.03805e-20)
(0.31606 -0.0432509 -4.22831e-21)
(0.323078 -0.0431534 -6.4843e-21)
(0.330219 -0.0429955 4.197e-21)
(0.337476 -0.0427795 -1.07197e-21)
(0.344844 -0.0425082 1.27012e-21)
(0.352316 -0.0421843 3.81104e-21)
(0.359886 -0.0418109 -1.0289e-21)
(0.367549 -0.0413909 -4.81929e-21)
(0.375296 -0.0409277 5.09581e-21)
(0.383122 -0.0404243 9.3193e-22)
(0.391021 -0.0398841 1.2135e-21)
(0.398986 -0.0393103 -6.00542e-22)
(0.407011 -0.0387062 -5.47663e-21)
(0.41509 -0.0380748 2.61472e-21)
(0.423216 -0.0374194 4.18555e-22)
(0.431384 -0.0367431 -1.44513e-22)
(0.439587 -0.0360489 5.0149e-22)
(0.447821 -0.0353396 1.59558e-22)
(0.45608 -0.0346181 -3.21025e-22)
(0.464359 -0.0338872 1.56943e-22)
(0.472652 -0.0331495 2.40843e-22)
(0.480956 -0.0324074 -4.01123e-22)
(0.489266 -0.0316633 2.10808e-22)
(0.497578 -0.0309197 2.84733e-22)
(0.505889 -0.0301786 -3.33676e-22)
(0.514195 -0.0294421 -2.80513e-22)
(0.522494 -0.0287122 1.19533e-22)
(0.530783 -0.0279908 6.10021e-23)
(0.53906 -0.0272797 1.89612e-23)
(0.547325 -0.0265805 1.46193e-22)
(0.555575 -0.0258948 -5.60771e-23)
(0.563812 -0.0252244 -3.73253e-22)
(0.572032 -0.0245705 -5.99839e-23)
(0.580245 -0.0239348 -4.40746e-23)
(0.588434 -0.0233188 5.15171e-23)
(0.59664 -0.0227228 3.74515e-23)
(0.604783 -0.022152 -5.52481e-23)
(0.613046 -0.0215964 -5.59841e-24)
(0.621051 -0.0210879 -1.51865e-23)
(0.629612 -0.0205483 -1.105e-23)
(0.63706 -0.0201738 -8.70159e-25)
(0.646828 -0.0195008 9.04673e-24)
(0.65203 -0.0195658 -8.74672e-25)
(0.666344 -0.0182852 1.15616e-23)
(0.240825 -0.0397242 -3.17671e-20)
(0.241809 -0.0384643 3.89421e-20)
(0.242842 -0.0379811 4.94562e-20)
(0.244886 -0.0376278 -5.69456e-20)
(0.24728 -0.0375142 -3.49594e-20)
(0.249871 -0.037661 2.51797e-20)
(0.252706 -0.0380083 2.30599e-20)
(0.25579 -0.0385059 3.22059e-20)
(0.259106 -0.0391177 -3.79456e-20)
(0.262646 -0.0398115 -2.82344e-22)
(0.2664 -0.0405583 -2.83333e-20)
(0.270361 -0.041333 8.18142e-21)
(0.274521 -0.0421144 2.18837e-20)
(0.278872 -0.0428843 -1.70002e-21)
(0.283408 -0.0436279 -1.21418e-20)
(0.288121 -0.0443329 3.4104e-21)
(0.293006 -0.0449893 6.8372e-21)
(0.298057 -0.0455893 -1.16878e-20)
(0.303268 -0.0461269 2.46198e-20)
(0.308634 -0.0465974 -1.14401e-20)
(0.314151 -0.0469977 -6.10316e-21)
(0.319814 -0.0473257 1.40045e-20)
(0.325618 -0.0475804 -1.33325e-20)
(0.331559 -0.0477614 4.4895e-21)
(0.337633 -0.0478691 1.70422e-21)
(0.343835 -0.0479047 5.14595e-21)
(0.35016 -0.0478695 -3.95321e-21)
(0.356605 -0.0477657 -5.77812e-21)
(0.363163 -0.0475955 1.63801e-21)
(0.36983 -0.0473615 -2.54323e-21)
(0.376601 -0.0470666 1.16132e-20)
(0.383471 -0.046714 -4.55899e-21)
(0.390434 -0.0463067 -7.08275e-21)
(0.397486 -0.0458483 9.3038e-21)
(0.404621 -0.045342 -5.63901e-21)
(0.411832 -0.0447916 -1.17323e-21)
(0.419116 -0.0442004 2.8452e-21)
(0.426466 -0.043572 -1.04018e-21)
(0.433877 -0.04291 2.20702e-21)
(0.441343 -0.0422178 -8.80644e-22)
(0.448859 -0.041499 1.64551e-21)
(0.456419 -0.0407568 -3.57575e-21)
(0.46402 -0.0399946 2.3227e-21)
(0.471655 -0.0392156 1.28499e-21)
(0.47932 -0.038423 -2.41613e-21)
(0.48701 -0.0376196 -1.33369e-23)
(0.494721 -0.0368085 1.46693e-21)
(0.502449 -0.0359924 -1.81001e-21)
(0.51019 -0.0351739 1.94116e-21)
(0.51794 -0.0343556 -5.06648e-22)
(0.525696 -0.0335399 9.01415e-23)
(0.533456 -0.0327291 -8.18286e-23)
(0.541216 -0.0319254 1.53729e-23)
(0.548975 -0.0311309 -3.20849e-22)
(0.556731 -0.0303476 3.82019e-22)
(0.564482 -0.0295773 1.2873e-22)
(0.572229 -0.028822 5.75871e-23)
(0.57997 -0.0280834 -6.56006e-24)
(0.587705 -0.027363 2.72795e-22)
(0.59544 -0.0266627 -1.82429e-22)
(0.603162 -0.0259841 1.48547e-22)
(0.610909 -0.0253277 -2.1499e-23)
(0.618602 -0.0246994 7.53264e-23)
(0.626425 -0.0240876 -1.4832e-23)
(0.634001 -0.0235291 -3.49154e-24)
(0.642134 -0.0229345 4.78069e-24)
(0.649185 -0.0225263 -2.64658e-24)
(0.658511 -0.0217842 -1.41212e-23)
(0.663415 -0.0218612 4.38969e-24)
(0.677125 -0.0204687 2.45971e-23)
(0.292485 -0.0403364 -4.86442e-21)
(0.292623 -0.0401495 -8.29725e-20)
(0.293983 -0.0399824 8.94667e-20)
(0.295772 -0.0400264 -4.51115e-20)
(0.297798 -0.0403286 -3.75839e-21)
(0.300111 -0.0408251 3.52495e-20)
(0.302708 -0.0414642 -3.75656e-20)
(0.305561 -0.0422102 -5.40119e-21)
(0.308653 -0.0430311 2.73916e-20)
(0.311965 -0.0438973 -6.18542e-21)
(0.315486 -0.0447831 -2.7903e-20)
(0.3192 -0.045667 4.78776e-20)
(0.323098 -0.0465311 -1.30593e-20)
(0.327168 -0.0473605 -2.02902e-20)
(0.331402 -0.048143 2.29834e-20)
(0.335793 -0.0488691 2.52737e-21)
(0.340334 -0.0495311 -1.03667e-20)
(0.345019 -0.0501234 -1.17605e-20)
(0.349845 -0.0506415 -1.36238e-20)
(0.354805 -0.0510826 7.37822e-21)
(0.359897 -0.0514449 4.92451e-21)
(0.365117 -0.0517274 8.0927e-21)
(0.37046 -0.05193 -1.16537e-20)
(0.375925 -0.0520534 6.72843e-21)
(0.381506 -0.0520987 -9.93973e-22)
(0.387202 -0.0520676 -5.73982e-21)
(0.393007 -0.0519623 3.85408e-21)
(0.398919 -0.0517852 3.76822e-22)
(0.404933 -0.0515391 -7.84748e-21)
(0.411046 -0.0512272 2.4705e-21)
(0.417253 -0.0508527 4.842e-21)
(0.42355 -0.0504189 -2.91597e-21)
(0.429934 -0.0499296 1.44949e-21)
(0.436398 -0.0493884 3.09694e-21)
(0.44294 -0.048799 -4.88441e-21)
(0.449553 -0.0481652 2.36223e-21)
(0.456234 -0.0474909 2.56948e-21)
(0.462977 -0.0467798 -2.24386e-21)
(0.469779 -0.0460357 3.25378e-22)
(0.476634 -0.0452623 -2.88561e-21)
(0.483539 -0.0444633 1.59102e-21)
(0.490487 -0.0436421 9.11309e-22)
(0.497476 -0.0428025 3.60561e-22)
(0.5045 -0.0419475 -1.47858e-21)
(0.511556 -0.0410807 -3.35236e-22)
(0.51864 -0.040205 2.73879e-21)
(0.525748 -0.0393235 -2.37464e-22)
(0.532877 -0.0384392 -1.41521e-21)
(0.540023 -0.0375547 1.67027e-23)
(0.547183 -0.0366728 -2.29563e-22)
(0.554356 -0.0357959 2.14744e-22)
(0.561538 -0.0349265 1.09216e-22)
(0.568728 -0.0340668 2.10684e-22)
(0.575924 -0.0332191 -2.15198e-22)
(0.583125 -0.0323854 -1.84719e-23)
(0.59033 -0.0315677 -2.0969e-22)
(0.597541 -0.0307681 2.63401e-24)
(0.604754 -0.0299883 -2.32261e-23)
(0.611978 -0.0292301 4.15509e-23)
(0.619198 -0.0284957 -8.52855e-23)
(0.626453 -0.0277853 -8.90422e-23)
(0.633665 -0.0271058 2.68313e-23)
(0.641015 -0.0264438 -6.71302e-23)
(0.64813 -0.0258413 5.09936e-23)
(0.655805 -0.0251976 -2.57044e-24)
(0.662429 -0.0247611 -6.41635e-24)
(0.67128 -0.023957 9.39138e-24)
(0.675866 -0.0240468 2.14939e-24)
(0.688924 -0.0225613 -1.52098e-23)
(0.347339 -0.0412267 -4.7605e-20)
(0.346514 -0.0414503 2.05203e-20)
(0.347124 -0.0415547 -1.41422e-20)
(0.348246 -0.0418268 -1.26036e-20)
(0.349647 -0.0423441 2.96038e-21)
(0.35138 -0.0430373 -1.82672e-21)
(0.353433 -0.0438539 5.69409e-21)
(0.355766 -0.0447612 3.05889e-20)
(0.358349 -0.0457285 -4.78006e-20)
(0.361159 -0.046727 3.53212e-20)
(0.364173 -0.0477322 1.03708e-20)
(0.367375 -0.0487238 -5.3414e-20)
(0.370749 -0.0496846 4.9512e-20)
(0.374282 -0.0506008 -1.94736e-20)
(0.377965 -0.0514613 7.28361e-22)
(0.381788 -0.0522571 1.16484e-20)
(0.385746 -0.0529813 -1.84628e-20)
(0.389833 -0.0536288 8.13559e-21)
(0.394045 -0.0541957 -1.71489e-20)
(0.398378 -0.0546794 -6.29914e-21)
(0.402828 -0.0550785 2.54752e-20)
(0.407394 -0.0553921 -3.86572e-21)
(0.412073 -0.0556204 2.74736e-21)
(0.416862 -0.0557641 7.22323e-21)
(0.421759 -0.0558245 -1.66347e-21)
(0.426761 -0.0558035 -6.07509e-21)
(0.431867 -0.0557033 -7.6615e-21)
(0.437073 -0.0555265 8.48371e-21)
(0.442377 -0.055276 4.63679e-23)
(0.447775 -0.054955 -5.01635e-21)
(0.453265 -0.054567 1.76881e-21)
(0.458844 -0.0541155 5.18293e-21)
(0.464507 -0.0536043 -1.01138e-20)
(0.470252 -0.0530373 2.43375e-21)
(0.476074 -0.0524185 3.25322e-21)
(0.48197 -0.0517517 9.59619e-22)
(0.487936 -0.0510412 -3.92628e-21)
(0.493968 -0.0502908 1.20908e-23)
(0.500062 -0.0495046 -5.07809e-22)
(0.506215 -0.0486865 3.68028e-21)
(0.512421 -0.0478405 -2.3034e-21)
(0.518678 -0.0469703 -1.63867e-22)
(0.524981 -0.0460797 1.55106e-21)
(0.531327 -0.0451723 -1.6554e-23)
(0.537712 -0.0442515 -1.66969e-21)
(0.544132 -0.0433208 2.32627e-21)
(0.550585 -0.0423834 -3.53712e-22)
(0.557067 -0.0414425 -1.43266e-21)
(0.563575 -0.040501 8.93018e-22)
(0.570107 -0.0395617 -3.47262e-22)
(0.57666 -0.0386275 -1.56745e-22)
(0.583232 -0.037701 -1.29942e-22)
(0.589822 -0.0367845 3.14913e-22)
(0.596428 -0.0358806 -5.54437e-22)
(0.60305 -0.0349915 1.22316e-22)
(0.609686 -0.0341194 -7.19284e-23)
(0.616337 -0.0332663 2.5292e-22)
(0.623001 -0.0324345 1.53325e-22)
(0.629686 -0.0316257 -1.36074e-22)
(0.636378 -0.0308426 6.36869e-23)
(0.643115 -0.0300849 1.02913e-22)
(0.649819 -0.029361 -5.96703e-23)
(0.656672 -0.0286552 4.00713e-23)
(0.663302 -0.0280149 -2.7772e-24)
(0.670493 -0.0273282 4.25909e-24)
(0.67667 -0.0268689 -2.632e-24)
(0.685018 -0.0260106 -1.14321e-23)
(0.689272 -0.0261137 -1.97603e-24)
(0.701637 -0.024555 -7.76023e-24)
(0.405828 -0.04102 2.71414e-20)
(0.404003 -0.0417768 -2.57792e-20)
(0.403822 -0.0422483 8.66566e-21)
(0.404235 -0.0428299 2.19307e-20)
(0.404969 -0.0436303 -4.06702e-20)
(0.406078 -0.0445734 1.2139e-20)
(0.407539 -0.0456075 5.83085e-20)
(0.409298 -0.046705 -1.87612e-20)
(0.411313 -0.0478388 -3.47609e-20)
(0.413554 -0.0489832 2.94174e-20)
(0.415994 -0.0501164 -8.89027e-21)
(0.41861 -0.0512208 2.27099e-20)
(0.421385 -0.0522815 -2.94581e-20)
(0.424304 -0.0532867 -3.22672e-20)
(0.427357 -0.0542267 5.29167e-20)
(0.430536 -0.0550939 -4.88274e-20)
(0.433834 -0.0558824 2.86613e-20)
(0.437247 -0.0565878 2.33365e-20)
(0.440771 -0.0572069 -4.50099e-20)
(0.444404 -0.0577373 3.443e-20)
(0.448144 -0.0581779 -1.67582e-20)
(0.451989 -0.0585282 -1.2917e-20)
(0.455937 -0.0587885 3.12435e-21)
(0.459988 -0.0589595 2.54859e-20)
(0.46414 -0.0590426 -3.05473e-20)
(0.468392 -0.0590397 2.78933e-20)
(0.472743 -0.0589532 6.38263e-21)
(0.47719 -0.0587856 -5.09756e-21)
(0.481732 -0.05854 -1.87739e-20)
(0.486367 -0.0582197 4.93789e-21)
(0.491092 -0.0578282 7.53689e-21)
(0.495906 -0.0573691 -7.39474e-21)
(0.500806 -0.0568465 5.36186e-21)
(0.505789 -0.0562643 -2.94067e-21)
(0.510852 -0.0556266 1.75263e-21)
(0.515992 -0.0549377 -1.72618e-21)
(0.521206 -0.0542017 1.04178e-21)
(0.52649 -0.0534228 3.18084e-22)
(0.531842 -0.0526053 -9.03181e-22)
(0.537258 -0.0517533 2.21296e-21)
(0.542734 -0.050871 -2.75807e-21)
(0.548268 -0.0499623 -9.87626e-22)
(0.553856 -0.0490313 3.31135e-22)
(0.559494 -0.0480817 2.85685e-23)
(0.565179 -0.0471173 -7.62157e-22)
(0.570909 -0.0461416 2.31559e-21)
(0.57668 -0.0451582 -4.97279e-22)
(0.58249 -0.0441705 -7.9197e-22)
(0.588335 -0.0431815 -8.86996e-22)
(0.594214 -0.0421943 1.62908e-21)
(0.600124 -0.041212 -6.25671e-23)
(0.606064 -0.0402373 7.80301e-22)
(0.612032 -0.0392729 -1.51785e-21)
(0.618026 -0.0383214 8.77012e-22)
(0.624046 -0.0373852 1.2816e-22)
(0.630091 -0.0364667 -1.49264e-22)
(0.636163 -0.0355683 2.2002e-22)
(0.642258 -0.0346921 -3.09099e-22)
(0.648385 -0.0338403 3.42431e-24)
(0.654529 -0.0330156 -1.07135e-23)
(0.66073 -0.0322179 -1.25939e-22)
(0.666908 -0.0314563 2.91657e-23)
(0.673245 -0.0307134 -2.36586e-23)
(0.679373 -0.030042 1.90349e-23)
(0.686062 -0.0293187 -3.72376e-24)
(0.691776 -0.0288423 3.20673e-24)
(0.6996 -0.0279379 9.63115e-24)
(0.703512 -0.0280548 -2.53276e-24)
(0.715154 -0.0264427 3.86892e-24)
(0.464517 -0.0410421 -3.03824e-20)
(0.463542 -0.0419854 3.11355e-20)
(0.463236 -0.042966 -6.674e-20)
(0.463286 -0.0441227 9.82285e-21)
(0.463742 -0.0453708 2.6392e-20)
(0.464571 -0.0466626 -1.32271e-20)
(0.465704 -0.0479784 -7.6371e-21)
(0.467091 -0.0492977 9.98704e-21)
(0.468694 -0.0506004 8.36532e-21)