/*--------------------------------*- C++ -*----------------------------------*\
  =========                 |
  \\      /  F ield         | OpenFOAM: The Open Source CFD Toolbox
   \\    /   O peration     | Website:  https://openfoam.org
    \\  /    A nd           | Version:  7
     \\/     M anipulation  |
\*---------------------------------------------------------------------------*/
FoamFile
{
    version     2.0;
    format      ascii;
    class       volScalarField;
    location    "45.999926";
    object      p;
}
// * * * * * * * * * * * * * * * * * * * * * * * * * * * * * * * * * * * * * //

dimensions      [0 2 -2 0 0 0 0];

internalField   nonuniform List<scalar> 
5800
(
-0.229953
-0.229944
-0.229903
-0.229785
-0.229517
-0.229363
-0.228855
-0.228287
-0.227667
-0.226991
-0.226257
-0.225463
-0.224608
-0.223689
-0.222704
-0.221653
-0.220532
-0.219339
-0.218072
-0.216728
-0.215304
-0.213796
-0.212201
-0.210515
-0.208734
-0.206853
-0.204868
-0.202781
-0.200583
-0.198268
-0.195832
-0.193267
-0.190568
-0.187728
-0.184739
-0.181595
-0.178289
-0.174813
-0.171159
-0.16732
-0.163291
-0.159064
-0.154635
-0.149998
-0.145151
-0.140092
-0.134824
-0.129348
-0.123674
-0.117809
-0.111768
-0.105568
-0.09923
-0.0927818
-0.0862524
-0.0796754
-0.0730897
-0.0665345
-0.0600545
-0.0536921
-0.047495
-0.0415059
-0.0357686
-0.030328
-0.0252099
-0.0204802
-0.0161005
-0.0122408
-0.00864347
-0.0058593
-0.00294453
-0.00161967
0.000999096
-9.8982e-06
0.00326575
-0.229481
-0.228968
-0.22839
-0.227768
-0.22709
-0.226353
-0.225557
-0.224699
-0.223779
-0.222793
-0.22174
-0.220618
-0.219424
-0.218156
-0.216812
-0.215387
-0.213879
-0.212283
-0.210597
-0.208816
-0.206935
-0.204951
-0.202864
-0.200667
-0.198353
-0.195918
-0.193354
-0.190657
-0.187818
-0.184832
-0.18169
-0.178386
-0.174912
-0.171261
-0.167426
-0.163399
-0.159175
-0.154749
-0.150115
-0.14527
-0.140214
-0.134948
-0.129474
-0.1238
-0.117935
-0.111893
-0.105692
-0.0993517
-0.0929003
-0.0863669
-0.0797851
-0.0731939
-0.0666326
-0.0601463
-0.0537764
-0.0475728
-0.0415769
-0.0358332
-0.0303866
-0.0252631
-0.0205287
-0.016145
-0.0122821
-0.00868251
-0.00589591
-0.0029814
-0.00165192
0.000960843
-2.87634e-05
0.00321874
-0.229709
-0.229183
-0.228586
-0.227959
-0.227277
-0.226536
-0.225736
-0.224875
-0.223951
-0.222963
-0.221908
-0.220784
-0.219589
-0.218321
-0.216975
-0.215551
-0.214042
-0.212447
-0.210761
-0.20898
-0.2071
-0.20512
-0.203034
-0.200838
-0.198526
-0.196093
-0.193532
-0.190837
-0.188001
-0.185018
-0.18188
-0.17858
-0.17511
-0.171463
-0.167632
-0.16361
-0.15939
-0.154967
-0.150337
-0.145496
-0.140443
-0.135178
-0.129705
-0.124032
-0.118166
-0.112123
-0.105918
-0.0995739
-0.093117
-0.086577
-0.0799875
-0.073388
-0.0668167
-0.0603201
-0.0539407
-0.0477264
-0.0417202
-0.0359667
-0.0305107
-0.0253786
-0.0206364
-0.0162458
-0.0123768
-0.00877239
-0.00597999
-0.00306451
-0.00172386
0.000879366
-6.91928e-05
0.00312532
-0.23004
-0.229489
-0.228861
-0.228225
-0.227537
-0.226791
-0.225986
-0.225121
-0.224194
-0.223203
-0.222145
-0.22102
-0.219824
-0.218555
-0.217209
-0.215785
-0.214277
-0.212683
-0.210998
-0.209217
-0.207336
-0.205362
-0.203279
-0.201086
-0.198777
-0.196348
-0.19379
-0.1911
-0.188269
-0.18529
-0.182157
-0.178862
-0.175398
-0.171756
-0.167931
-0.163914
-0.159699
-0.155281
-0.150655
-0.145818
-0.140768
-0.135506
-0.130033
-0.12436
-0.118492
-0.112446
-0.106237
-0.099887
-0.0934231
-0.0868751
-0.0802729
-0.0736629
-0.0670802
-0.0605712
-0.0541786
-0.0479512
-0.0419319
-0.0361658
-0.0306977
-0.0255544
-0.0208019
-0.0164016
-0.012524
-0.00891228
-0.00611113
-0.00319286
-0.001835
0.00075642
-0.000129916
0.00298846
-0.230483
-0.229867
-0.229191
-0.228545
-0.22785
-0.227096
-0.226286
-0.225417
-0.224486
-0.223493
-0.222434
-0.221307
-0.220111
-0.218842
-0.217498
-0.216075
-0.214569
-0.212977
-0.211293
-0.209514
-0.207638
-0.205667
-0.203588
-0.201399
-0.199095
-0.19667
-0.194118
-0.191433
-0.188607
-0.185635
-0.182508
-0.17922
-0.175762
-0.172126
-0.168307
-0.164296
-0.160088
-0.155675
-0.151054
-0.146221
-0.141174
-0.135914
-0.130443
-0.124769
-0.1189
-0.11285
-0.106637
-0.100275
-0.093804
-0.0872455
-0.0806342
-0.0740109
-0.0674142
-0.0608908
-0.0544832
-0.048241
-0.0422066
-0.0364263
-0.0309441
-0.0257876
-0.0210228
-0.0166108
-0.0127226
-0.00910092
-0.00628851
-0.00336498
-0.00198425
0.000594332
-0.000209136
0.00281259
-0.231109
-0.230286
-0.229551
-0.228894
-0.228188
-0.227425
-0.22661
-0.225737
-0.224805
-0.22381
-0.222751
-0.221625
-0.22043
-0.219164
-0.217822
-0.216402
-0.2149
-0.213312
-0.211631
-0.209854
-0.207994
-0.206021
-0.203945
-0.201761
-0.199462
-0.197043
-0.194497
-0.191819
-0.189
-0.186035
-0.182915
-0.179633
-0.176184
-0.172557
-0.168746
-0.164741
-0.160539
-0.156133
-0.151517
-0.146689
-0.141646
-0.13639
-0.130911
-0.12524
-0.119369
-0.113315
-0.107095
-0.100731
-0.094249
-0.0876794
-0.0810558
-0.0744192
-0.067808
-0.0612698
-0.0548465
-0.0485888
-0.0425385
-0.036743
-0.0312458
-0.026075
-0.0212967
-0.0168712
-0.012971
-0.00933678
-0.00651092
-0.00357919
-0.00216997
0.00039571
-0.000304778
0.00260348
-0.232086
-0.230693
-0.229903
-0.229242
-0.228521
-0.227749
-0.226928
-0.226054
-0.225122
-0.224129
-0.223072
-0.221949
-0.220758
-0.219496
-0.218159
-0.216744
-0.215247
-0.213662
-0.211984
-0.210216
-0.208358
-0.206395
-0.204329
-0.202152
-0.199861
-0.197449
-0.194911
-0.19224
-0.18943
-0.186473
-0.183363
-0.18009
-0.176656
-0.173017
-0.169221
-0.165225
-0.161031
-0.156631
-0.152021
-0.147198
-0.142158
-0.136903
-0.131433
-0.125759
-0.119885
-0.113828
-0.107602
-0.101231
-0.09474
-0.0881604
-0.0815253
-0.0748759
-0.068251
-0.0616984
-0.05526
-0.0489873
-0.0429215
-0.037111
-0.0315987
-0.0264131
-0.0216209
-0.0171805
-0.0132673
-0.00961811
-0.00677676
-0.00383363
-0.00238995
0.000163265
-0.000414765
0.00236792
-0.232643
-0.231251
-0.23027
-0.229549
-0.228818
-0.228037
-0.22721
-0.226336
-0.225407
-0.224419
-0.223368
-0.222252
-0.221068
-0.219813
-0.218484
-0.217077
-0.215589
-0.214017
-0.212351
-0.210602
-0.208738
-0.20678
-0.20472
-0.202551
-0.200268
-0.197865
-0.195336
-0.192674
-0.189872
-0.186924
-0.183823
-0.180558
-0.177126
-0.173515
-0.169721
-0.165733
-0.161545
-0.157153
-0.152549
-0.147731
-0.142696
-0.137443
-0.131976
-0.126301
-0.120427
-0.114367
-0.108137
-0.10176
-0.0952624
-0.0886744
-0.0820294
-0.0753692
-0.0687322
-0.0621673
-0.0557154
-0.0494293
-0.0433494
-0.037525
-0.0319986
-0.0267985
-0.0219925
-0.0175364
-0.0136096
-0.00994303
-0.00708399
-0.00412639
-0.00264154
-0.000100223
-0.000537256
0.00211324
-0.23284
-0.231857
-0.230602
-0.229779
-0.229041
-0.228256
-0.227425
-0.226552
-0.225629
-0.224649
-0.223608
-0.222503
-0.221329
-0.220085
-0.218767
-0.217371
-0.215892
-0.214322
-0.212648
-0.210918
-0.209078
-0.207137
-0.20509
-0.202932
-0.200661
-0.198268
-0.19575
-0.193098
-0.190308
-0.18737
-0.184279
-0.181025
-0.177602
-0.174
-0.170215
-0.166236
-0.162057
-0.157673
-0.153076
-0.148264
-0.143234
-0.137986
-0.132522
-0.12685
-0.120976
-0.114915
-0.108684
-0.102304
-0.0958011
-0.0892075
-0.0825556
-0.0758876
-0.0692416
-0.0626673
-0.0562048
-0.0499081
-0.0438165
-0.0379803
-0.0324413
-0.0272277
-0.0224087
-0.0179364
-0.0139955
-0.0103095
-0.00743018
-0.0044554
-0.00292174
-0.000391837
-0.000670782
0.00184686
-0.232369
-0.230851
-0.229901
-0.229158
-0.228374
-0.227538
-0.226667
-0.225753
-0.224786
-0.223759
-0.222669
-0.221511
-0.220283
-0.218981
-0.217601
-0.216141
-0.214599
-0.212968
-0.211219
-0.209382
-0.207451
-0.205416
-0.203271
-0.201012
-0.198633
-0.196126
-0.193487
-0.190708
-0.187783
-0.184703
-0.181461
-0.178049
-0.174458
-0.170683
-0.166714
-0.162545
-0.158169
-0.153581
-0.148777
-0.143754
-0.138512
-0.133053
-0.127385
-0.121514
-0.115456
-0.109226
-0.102846
-0.0963422
-0.0897469
-0.083092
-0.0764205
-0.0697697
-0.0631901
-0.056721
-0.0504173
-0.0443173
-0.038472
-0.032923
-0.0276972
-0.0228664
-0.0183776
-0.0144222
-0.0107151
-0.00781242
-0.00481833
-0.0032274
-0.000708417
-0.000814258
0.00157571
-0.232692
-0.230974
-0.229875
-0.229124
-0.228348
-0.227512
-0.226644
-0.225742
-0.224791
-0.223783
-0.222713
-0.221576
-0.220369
-0.219087
-0.217726
-0.21628
-0.214742
-0.213096
-0.211386
-0.209584
-0.207678
-0.205663
-0.203536
-0.201293
-0.198929
-0.196438
-0.193813
-0.191049
-0.188137
-0.18507
-0.181841
-0.178442
-0.174863
-0.1711
-0.167142
-0.162984
-0.158619
-0.154041
-0.149247
-0.144233
-0.139
-0.133549
-0.127888
-0.122025
-0.115972
-0.109747
-0.103372
-0.0968726
-0.0902805
-0.083628
-0.0769582
-0.0703077
-0.063728
-0.0572572
-0.0509509
-0.0448467
-0.0389955
-0.0334394
-0.0282033
-0.0233622
-0.018857
-0.0148866
-0.0111572
-0.00822736
-0.00521249
-0.00355528
-0.00104649
-0.000966894
0.0013059
-0.232644
-0.230873
-0.229639
-0.228881
-0.228124
-0.227295
-0.226435
-0.225549
-0.22462
-0.223636
-0.222592
-0.221482
-0.220302
-0.219047
-0.217714
-0.216299
-0.214799
-0.213204
-0.211476
-0.209682
-0.207795
-0.205801
-0.203696
-0.201473
-0.199128
-0.196655
-0.194047
-0.191299
-0.188404
-0.185353
-0.182139
-0.178754
-0.17519
-0.171441
-0.167497
-0.163353
-0.159001
-0.154436
-0.149654
-0.144652
-0.139431
-0.133993
-0.128343
-0.122491
-0.116449
-0.110235
-0.103871
-0.0973805
-0.0907979
-0.0841537
-0.0774918
-0.0708479
-0.0642739
-0.057807
-0.0515031
-0.0453993
-0.0395461
-0.0339863
-0.0287419
-0.0238921
-0.019371
-0.0153849
-0.0116325
-0.00867124
-0.00563471
-0.00390213
-0.00140224
-0.00112805
0.00104243
-0.230383
-0.229099
-0.22835
-0.227628
-0.22682
-0.225979
-0.225117
-0.224217
-0.223265
-0.222255
-0.221179
-0.220034
-0.218813
-0.217513
-0.216127
-0.214647
-0.213059
-0.211338
-0.209597
-0.207752
-0.205791
-0.203713
-0.201517
-0.199196
-0.196744
-0.194158
-0.19143
-0.188554
-0.185522
-0.182327
-0.17896
-0.175414
-0.171682
-0.167755
-0.163627
-0.159292
-0.154743
-0.149978
-0.144993
-0.139788
-0.134366
-0.128734
-0.122898
-0.116874
-0.110677
-0.104329
-0.0978557
-0.0912894
-0.0846608
-0.0780137
-0.0713832
-0.0648213
-0.0583644
-0.0520685
-0.0459702
-0.0401189
-0.0345589
-0.0293087
-0.0244518
-0.0199157
-0.0159127
-0.0121372
-0.00913992
-0.00608132
-0.00426473
-0.00177162
-0.00129708
0.000789127
-0.228121
-0.227429
-0.226763
-0.226002
-0.225201
-0.224379
-0.223519
-0.22261
-0.221643
-0.220612
-0.219512
-0.218336
-0.21708
-0.215738
-0.214306
-0.212776
-0.211124
-0.209321
-0.207504
-0.205588
-0.20355
-0.201387
-0.199097
-0.196673
-0.194113
-0.191411
-0.188559
-0.185551
-0.182378
-0.179034
-0.17551
-0.171799
-0.167893
-0.163786
-0.159472
-0.154945
-0.150201
-0.145238
-0.140056
-0.134657
-0.129047
-0.123235
-0.117235
-0.111062
-0.104739
-0.0982895
-0.0917472
-0.0851418
-0.0785171
-0.0719073
-0.0653644
-0.058924
-0.0526418
-0.0465542
-0.0407091
-0.0351524
-0.029899
-0.0250364
-0.0204865
-0.0164654
-0.0126671
-0.00962899
-0.00654816
-0.0046399
-0.00215046
-0.00147323
0.000548701
-0.226568
-0.225996
-0.22542
-0.224743
-0.224015
-0.223255
-0.222455
-0.221605
-0.220696
-0.219723
-0.218679
-0.21756
-0.216358
-0.215069
-0.213686
-0.212199
-0.210594
-0.208855
-0.207027
-0.205156
-0.203171
-0.201054
-0.198802
-0.196412
-0.193884
-0.191213
-0.188391
-0.185412
-0.182267
-0.178951
-0.175454
-0.17177
-0.167892
-0.163812
-0.159525
-0.155025
-0.150309
-0.145374
-0.140221
-0.134852
-0.129273
-0.123492
-0.117524
-0.111383
-0.105092
-0.0986753
-0.0921653
-0.0855912
-0.0789967
-0.0724151
-0.0658981
-0.0594808
-0.053218
-0.0471462
-0.0413115
-0.0357616
-0.0305076
-0.0256406
-0.0210783
-0.0170376
-0.0132173
-0.0101338
-0.00703062
-0.00502446
-0.00253454
-0.00165549
0.000322866
-0.22394
-0.223499
-0.222954
-0.222338
-0.221673
-0.220958
-0.220188
-0.219357
-0.218458
-0.217487
-0.216438
-0.215305
-0.214083
-0.212764
-0.211343
-0.209807
-0.208138
-0.206304
-0.204436
-0.202509
-0.20046
-0.198264
-0.195922
-0.193437
-0.190807
-0.188024
-0.185082
-0.181974
-0.178692
-0.17523
-0.17158
-0.167735
-0.163689
-0.159436
-0.154971
-0.15029
-0.145391
-0.140275
-0.134944
-0.129403
-0.123662
-0.117734
-0.111634
-0.105384
-0.0990084
-0.0925389
-0.0860042
-0.0794477
-0.0729017
-0.0664174
-0.0600296
-0.0537916
-0.0477406
-0.0419204
-0.0363804
-0.0311286
-0.0262583
-0.0216853
-0.0176236
-0.0137823
-0.0106494
-0.00752379
-0.00541524
-0.00291985
-0.00184267
0.000112538
-0.221196
-0.220938
-0.220571
-0.220104
-0.219567
-0.218968
-0.218305
-0.217573
-0.21677
-0.215891
-0.214931
-0.213884
-0.212745
-0.211508
-0.210167
-0.208714
-0.207137
-0.205423
-0.203511
-0.201628
-0.199643
-0.197503
-0.195208
-0.192769
-0.190184
-0.187446
-0.184547
-0.181482
-0.178243
-0.174823
-0.171215
-0.167412
-0.163408
-0.159197
-0.154774
-0.150137
-0.145282
-0.140211
-0.134926
-0.129433
-0.12374
-0.117861
-0.11181
-0.105611
-0.0992839
-0.0928632
-0.0863759
-0.0798649
-0.0733618
-0.066917
-0.0605647
-0.0543571
-0.0483317
-0.0425302
-0.0370033
-0.0317566
-0.0268841
-0.0223024
-0.0182185
-0.0143574
-0.0111718
-0.00802347
-0.00580967
-0.00330318
-0.00203361
-8.20913e-05
-0.217757
-0.217602
-0.217315
-0.216934
-0.216475
-0.215939
-0.215324
-0.214632
-0.213858
-0.212998
-0.212047
-0.211
-0.209852
-0.208596
-0.207223
-0.205725
-0.204087
-0.202296
-0.200266
-0.198394
-0.196379
-0.19418
-0.191818
-0.189301
-0.186626
-0.183786
-0.180777
-0.177593
-0.174226
-0.17067
-0.166918
-0.162966
-0.158807
-0.154436
-0.149851
-0.14505
-0.140034
-0.134804
-0.129368
-0.123732
-0.117911
-0.111919
-0.105778
-0.0995095
-0.0931459
-0.0867139
-0.0802559
-0.0738026
-0.0674034
-0.0610922
-0.0549198
-0.0489238
-0.0431445
-0.0376327
-0.0323934
-0.0275188
-0.0229296
-0.0188215
-0.0149412
-0.0116995
-0.0085274
-0.00620637
-0.00368265
-0.0022276
-0.000261537
-0.214116
-0.214059
-0.213886
-0.213611
-0.213237
-0.21277
-0.212213
-0.211566
-0.210827
-0.209992
-0.209058
-0.208019
-0.20687
-0.205605
-0.204219
-0.202705
-0.201057
-0.199256
-0.197162
-0.195155
-0.193023
-0.190725
-0.188268
-0.18565
-0.182869
-0.179919
-0.176794
-0.173487
-0.16999
-0.166298
-0.162405
-0.158306
-0.153997
-0.149474
-0.144736
-0.139783
-0.134618
-0.129247
-0.123677
-0.117922
-0.111996
-0.10592
-0.0997161
-0.0934152
-0.0870434
-0.0806425
-0.0742423
-0.0678917
-0.0616235
-0.0554879
-0.049522
-0.0437654
-0.0382681
-0.0330362
-0.0281577
-0.0235611
-0.0194262
-0.0155266
-0.0122261
-0.00902918
-0.00660104
-0.00405419
-0.00242301
-0.000426148
-0.209515
-0.209633
-0.209652
-0.209568
-0.209381
-0.209094
-0.208707
-0.208222
-0.207637
-0.206951
-0.20616
-0.20526
-0.204246
-0.203113
-0.201853
-0.200455
-0.198905
-0.197177
-0.195277
-0.19329
-0.191266
-0.189102
-0.186767
-0.184254
-0.181567
-0.178706
-0.175664
-0.172436
-0.169017
-0.1654
-0.161581
-0.157555
-0.153318
-0.148867
-0.1442
-0.139319
-0.134226
-0.128927
-0.12343
-0.117748
-0.111894
-0.10589
-0.0997564
-0.0935246
-0.0872196
-0.0808827
-0.0745429
-0.0682485
-0.0620314
-0.0559414
-0.0500144
-0.0442901
-0.0388165
-0.033602
-0.0287288
-0.0241344
-0.0199812
-0.0160704
-0.0127197
-0.00950181
-0.0069774
-0.00440384
-0.0026144
-0.000574397
-0.206476
-0.206609
-0.206638
-0.206562
-0.206381
-0.206096
-0.205709
-0.205218
-0.204623
-0.20392
-0.203105
-0.202176
-0.201127
-0.199953
-0.198652
-0.197221
-0.195665
-0.193953
-0.191986
-0.189831
-0.187654
-0.185344
-0.182867
-0.180221
-0.177403
-0.174406
-0.171225
-0.167852
-0.164284
-0.160514
-0.156538
-0.152353
-0.147955
-0.143344
-0.138521
-0.133489
-0.128253
-0.122821
-0.117206
-0.111422
-0.105491
-0.0994312
-0.0932746
-0.0870448
-0.0807832
-0.074517
-0.0682945
-0.0621453
-0.0561197
-0.0502506
-0.0445789
-0.0391489
-0.0339719
-0.0291234
-0.0245491
-0.020397
-0.0164888
-0.0131087
-0.00987768
-0.00728358
-0.00468382
-0.00277363
-0.000689859
-0.202714
-0.202948
-0.203081
-0.203108
-0.203028
-0.20284
-0.202547
-0.202146
-0.201635
-0.201013
-0.200276
-0.199418
-0.198436
-0.197325
-0.196076
-0.194682
-0.193127
-0.191375
-0.18947
-0.187569
-0.185507
-0.183279
-0.180879
-0.178307
-0.175559
-0.172631
-0.169516
-0.166209
-0.162706
-0.159002
-0.155093
-0.150976
-0.146648
-0.142108
-0.137359
-0.132402
-0.127244
-0.121893
-0.116363
-0.110665
-0.104821
-0.0988507
-0.0927843
-0.0866447
-0.0804725
-0.0742937
-0.0681559
-0.0620873
-0.0561372
-0.0503372
-0.0447281
-0.0393511
-0.0342205
-0.0294048
-0.0248592
-0.0207153
-0.0168186
-0.0134164
-0.0101817
-0.00752836
-0.00491212
-0.00289894
-0.000783119
-0.1986
-0.198933
-0.199167
-0.199298
-0.19932
-0.199232
-0.199036
-0.198729
-0.19831
-0.197776
-0.197124
-0.196349
-0.195448
-0.194414
-0.193241
-0.191921
-0.190444
-0.188803
-0.187044
-0.185177
-0.183163
-0.18099
-0.178654
-0.176147
-0.173464
-0.170602
-0.167553
-0.164314
-0.16088
-0.157246
-0.153408
-0.149363
-0.145111
-0.140649
-0.13598
-0.131107
-0.126036
-0.120775
-0.115337
-0.109734
-0.103988
-0.098117
-0.0921507
-0.0861115
-0.0800388
-0.0739577
-0.0679145
-0.0619364
-0.0560717
-0.05035
-0.0448125
-0.0394969
-0.0344209
-0.0296451
-0.0251354
-0.021005
-0.0171258
-0.0137053
-0.0104718
-0.00776152
-0.00513188
-0.00301805
-0.000872535
-0.19439
-0.194817
-0.195148
-0.195377
-0.195497
-0.195506
-0.195404
-0.195189
-0.194861
-0.194415
-0.193849
-0.193159
-0.19234
-0.191388
-0.190296
-0.189059
-0.187672
-0.186136
-0.184462
-0.182652
-0.180698
-0.178592
-0.176322
-0.173884
-0.17127
-0.168477
-0.165498
-0.16233
-0.158968
-0.155407
-0.151644
-0.147677
-0.143504
-0.139124
-0.13454
-0.129755
-0.124775
-0.119608
-0.114266
-0.108762
-0.103118
-0.0973492
-0.0914863
-0.0855505
-0.0795802
-0.0735995
-0.0676535
-0.0617681
-0.0559907
-0.0503491
-0.044885
-0.0396322
-0.0346122
-0.0298772
-0.0254046
-0.0212884
-0.0174273
-0.0139891
-0.0107564
-0.00799067
-0.00534622
-0.00313479
-0.000957937
-0.190108
-0.190624
-0.191046
-0.191366
-0.191578
-0.191678
-0.191666
-0.19154
-0.191298
-0.190938
-0.190456
-0.189849
-0.189112
-0.188241
-0.18723
-0.186076
-0.184774
-0.183324
-0.181726
-0.179989
-0.178111
-0.176077
-0.173881
-0.171515
-0.168974
-0.166254
-0.16335
-0.160257
-0.156971
-0.153488
-0.149805
-0.14592
-0.141831
-0.137538
-0.133043
-0.12835
-0.123466
-0.118396
-0.113155
-0.107754
-0.102214
-0.0965518
-0.0907955
-0.0849661
-0.0791008
-0.073223
-0.0673763
-0.0615855
-0.0558973
-0.0503373
-0.0449479
-0.0397589
-0.034796
-0.0301025
-0.0256675
-0.0215659
-0.0177231
-0.0142679
-0.0110353
-0.00821567
-0.00555465
-0.00324919
-0.00103867
-0.185766
-0.186364
-0.18687
-0.187276
-0.187574
-0.18776
-0.187833
-0.187791
-0.187633
-0.187356
-0.186956
-0.186429
-0.185772
-0.184981
-0.184051
-0.182978
-0.181759
-0.180391
-0.178874
-0.177217
-0.175415
-0.173455
-0.171334
-0.169043
-0.166579
-0.163935
-0.161109
-0.158095
-0.154889
-0.151487
-0.147888
-0.144088
-0.140087
-0.135885
-0.131484
-0.126887
-0.122102
-0.117134
-0.111997
-0.106703
-0.101272
-0.0957184
-0.0900719
-0.0843518
-0.0785944
-0.0728218
-0.0670769
-0.0613828
-0.0557858
-0.0503091
-0.0449962
-0.0398724
-0.0349679
-0.0303169
-0.0259206
-0.0218346
-0.0180104
-0.0145394
-0.0113065
-0.00843511
-0.00575612
-0.00336074
-0.00111428
-0.181383
-0.182062
-0.182647
-0.183134
-0.183513
-0.183779
-0.183933
-0.183972
-0.183893
-0.183695
-0.183374
-0.182926
-0.182347
-0.181635
-0.180784
-0.179791
-0.178652
-0.177366
-0.175932
-0.174353
-0.172626
-0.170744
-0.168698
-0.166485
-0.164098
-0.161534
-0.158787
-0.155854
-0.152731
-0.149414
-0.145902
-0.142191
-0.138281
-0.134173
-0.129869
-0.125372
-0.120689
-0.115826
-0.110797
-0.105612
-0.100292
-0.0948508
-0.0893167
-0.0837083
-0.078061
-0.0723959
-0.0667547
-0.0611593
-0.0556551
-0.0502633
-0.0450284
-0.039971
-0.0351262
-0.0305189
-0.0261622
-0.0220928
-0.0182878
-0.0148023
-0.0115689
-0.00864819
-0.00594996
-0.00346918
-0.00118458
-0.176981
-0.177736
-0.178396
-0.17896
-0.179415
-0.179759
-0.179989
-0.180105
-0.180103
-0.179981
-0.179735
-0.179363
-0.178861
-0.178225
-0.177451
-0.176536
-0.175477
-0.174271
-0.172917
-0.171417
-0.169767
-0.167961
-0.165992
-0.163857
-0.161549
-0.159065
-0.1564
-0.15355
-0.150512
-0.147282
-0.143858
-0.140239
-0.136423
-0.132412
-0.128207
-0.123812
-0.119233
-0.114478
-0.109559
-0.104487
-0.0992795
-0.0939528
-0.088533
-0.0830383
-0.0775029
-0.0719468
-0.066411
-0.0609154
-0.0555056
-0.0501999
-0.045044
-0.0400542
-0.0352702
-0.0307075
-0.0263912
-0.0223397
-0.0185543
-0.0150559
-0.0118217
-0.00885437
-0.00613569
-0.00357435
-0.0012495
-0.172571
-0.1734
-0.174133
-0.174769
-0.175298
-0.175716
-0.176019
-0.176208
-0.176279
-0.17623
-0.176058
-0.175759
-0.175331
-0.174769
-0.174071
-0.173232
-0.17225
-0.171123
-0.169848
-0.168425
-0.166851
-0.165122
-0.163231
-0.161174
-0.158946
-0.156543
-0.15396
-0.151195
-0.148243
-0.145101
-0.141768
-0.138242
-0.134522
-0.130609
-0.126505
-0.122214
-0.117743
-0.113097
-0.10829
-0.103331
-0.0982385
-0.0930276
-0.0877236
-0.0823439
-0.0769217
-0.0714758
-0.0660464
-0.0606518
-0.0553373
-0.0501185
-0.0450428
-0.0401214
-0.0353991
-0.030882
-0.0266068
-0.0225743
-0.0188088
-0.0152993
-0.012064
-0.00905313
-0.00631288
-0.00367606
-0.0013091
-0.168164
-0.169064
-0.169867
-0.170573
-0.171173
-0.17166
-0.172035
-0.172294
-0.172435
-0.172457
-0.172356
-0.172128
-0.171772
-0.171283
-0.170657
-0.169893
-0.168987
-0.167935
-0.166737
-0.165391
-0.163894
-0.162241
-0.160427
-0.158449
-0.156301
-0.153979
-0.15148
-0.148799
-0.145934
-0.142882
-0.13964
-0.136208
-0.132585
-0.128772
-0.124771
-0.120585
-0.116222
-0.111687
-0.106993
-0.102148
-0.0971722
-0.0920781
-0.0868909
-0.081627
-0.0763187
-0.0709838
-0.0656616
-0.0603687
-0.0551502
-0.0500191
-0.0450243
-0.040172
-0.0355121
-0.0310415
-0.0268081
-0.0227958
-0.0190505
-0.0155319
-0.0122953
-0.00924397
-0.00648123
-0.00377411
-0.00136351
-0.163768
-0.164737
-0.165607
-0.166379
-0.167047
-0.167602
-0.168044
-0.168371
-0.168581
-0.168671
-0.168638
-0.16848
-0.168194
-0.167775
-0.167222
-0.16653
-0.165697
-0.16472
-0.163598
-0.162327
-0.160905
-0.159328
-0.157592
-0.155692
-0.153624
-0.151383
-0.148967
-0.146372
-0.143595
-0.140632
-0.137483
-0.134146
-0.130621
-0.126908
-0.12301
-0.118931
-0.114676
-0.110253
-0.105672
-0.100943
-0.0960836
-0.0911068
-0.0860369
-0.0808892
-0.0756954
-0.0704719
-0.0652572
-0.0600664
-0.0549444
-0.0499015
-0.0449881
-0.0402056
-0.0356085
-0.0311854
-0.0269942
-0.0230035
-0.0192786
-0.015753
-0.0125148
-0.00942646
-0.0066405
-0.00386828
-0.00141293
-0.15939
-0.160424
-0.161358
-0.162195
-0.162927
-0.163548
-0.164055
-0.164447
-0.164723
-0.16488
-0.164914
-0.164823
-0.164605
-0.164255
-0.163772
-0.163151
-0.16239
-0.161487
-0.160438
-0.159241
-0.157894
-0.156393
-0.154734
-0.152912
-0.150923
-0.148764
-0.146431
-0.143921
-0.141232
-0.138359
-0.135303
-0.132061
-0.128634
-0.125022
-0.121228
-0.117255
-0.11311
-0.108798
-0.104331
-0.0997177
-0.0949753
-0.0901161
-0.0851635
-0.0801322
-0.075053
-0.0699408
-0.0648339
-0.0597453
-0.0547201
-0.0497656
-0.0449338
-0.0402217
-0.035688
-0.0313131
-0.0271646
-0.0231968
-0.0194926
-0.0159621
-0.0127223
-0.00960022
-0.00679054
-0.00395839
-0.00145765
-0.155036
-0.156133
-0.157128
-0.158026
-0.15882
-0.159503
-0.160073
-0.160529
-0.160868
-0.161089
-0.161189
-0.161164
-0.161011
-0.160729
-0.160314
-0.159763
-0.159072
-0.158241
-0.157265
-0.156141
-0.154868
-0.153442
-0.151859
-0.150115
-0.148205
-0.146127
-0.143878
-0.141453
-0.138851
-0.136069
-0.133105
-0.129958
-0.126629
-0.123118
-0.119428
-0.115562
-0.111526
-0.107326
-0.102973
-0.0984753
-0.0938497
-0.0891077
-0.0842724
-0.0793573
-0.0743923
-0.0693915
-0.0643922
-0.0594057
-0.0544772
-0.0496113
-0.0448614
-0.04022
-0.0357499
-0.0314242
-0.0273187
-0.0233752
-0.0196919
-0.0161587
-0.0129173
-0.00976491
-0.00693128
-0.00404426
-0.00149795
-0.150714
-0.15187
-0.152923
-0.153879
-0.154731
-0.155474
-0.156104
-0.156621
-0.157022
-0.157305
-0.157467
-0.157506
-0.157419
-0.157202
-0.156854
-0.15637
-0.155749
-0.154988
-0.154083
-0.153032
-0.151833
-0.150481
-0.148973
-0.147306
-0.145475
-0.143478
-0.141312
-0.138972
-0.136457
-0.133765
-0.130893
-0.127842
-0.124611
-0.121201
-0.117615
-0.113855
-0.109928
-0.10584
-0.1016
-0.0972177
-0.0927085
-0.0880835
-0.0833649
-0.0785655
-0.0737145
-0.0688245
-0.0639325
-0.0590479
-0.0542159
-0.0494386
-0.0447706
-0.0402003
-0.0357941
-0.0315182
-0.027456
-0.0235382
-0.0198761
-0.0163424
-0.0130995
-0.00992026
-0.0070627
-0.00412571
-0.00153417
-0.146429
-0.147639
-0.148747
-0.149757
-0.150665
-0.151465
-0.152153
-0.152728
-0.153188
-0.153531
-0.153754
-0.153855
-0.153831
-0.153678
-0.153395
-0.152979
-0.152425
-0.151733
-0.150898
-0.149919
-0.148792
-0.147513
-0.146081
-0.14449
-0.142738
-0.140821
-0.138737
-0.136482
-0.134054
-0.131451
-0.128672
-0.125716
-0.122583
-0.119273
-0.11579
-0.112137
-0.108319
-0.104341
-0.100215
-0.0959468
-0.0915534
-0.0870446
-0.0824422
-0.0777578
-0.0730201
-0.0682405
-0.0634552
-0.0586721
-0.0539364
-0.0492476
-0.0446613
-0.0401624
-0.0358201
-0.0315949
-0.0275762
-0.0236854
-0.0200449
-0.0165129
-0.0132688
-0.010066
-0.00718486
-0.00420261
-0.00156662
-0.142187
-0.143448
-0.144606
-0.145667
-0.146628
-0.147481
-0.148223
-0.148854
-0.149371
-0.149772
-0.150054
-0.150215
-0.150252
-0.150162
-0.149942
-0.149591
-0.149104
-0.148479
-0.147713
-0.146804
-0.145748
-0.144543
-0.143184
-0.14167
-0.139996
-0.138159
-0.136157
-0.133986
-0.131645
-0.129131
-0.126444
-0.123582
-0.120547
-0.117337
-0.113957
-0.110409
-0.106699
-0.102832
-0.0988177
-0.0946638
-0.0903855
-0.0859922
-0.0815051
-0.076935
-0.0723099
-0.0676399
-0.0629607
-0.0582787
-0.0536387
-0.0490382
-0.0445335
-0.0401062
-0.0358278
-0.031654
-0.027679
-0.0238167
-0.020198
-0.01667
-0.0134251
-0.010202
-0.00729784
-0.00427482
-0.00159562
-0.137993
-0.139301
-0.140505
-0.141614
-0.142623
-0.143527
-0.144321
-0.145004
-0.145575
-0.146031
-0.14637
-0.146589
-0.146685
-0.146656
-0.146499
-0.14621
-0.145788
-0.14523
-0.144532
-0.143691
-0.142706
-0.141573
-0.140288
-0.138849
-0.137252
-0.135494
-0.133574
-0.131487
-0.129232
-0.126807
-0.124211
-0.121444
-0.118504
-0.115395
-0.112117
-0.108674
-0.105071
-0.101314
-0.0974108
-0.0933701
-0.0892058
-0.0849272
-0.0805545
-0.0760978
-0.0715843
-0.0670232
-0.0624494
-0.0578678
-0.053323
-0.0488106
-0.0443871
-0.0400315
-0.0358171
-0.0316953
-0.0277644
-0.0239318
-0.0203354
-0.0168133
-0.0135683
-0.0103281
-0.00740175
-0.00434225
-0.00162145
-0.133853
-0.135202
-0.136449
-0.137602
-0.138656
-0.139606
-0.140449
-0.141182
-0.141805
-0.142314
-0.142707
-0.142981
-0.143135
-0.143164
-0.143067
-0.14284
-0.142482
-0.141988
-0.141356
-0.140584
-0.139668
-0.138606
-0.137394
-0.136029
-0.134509
-0.13283
-0.13099
-0.128986
-0.126817
-0.12448
-0.121975
-0.119301
-0.116458
-0.113447
-0.110271
-0.106932
-0.103436
-0.0997872
-0.0959951
-0.0920665
-0.0880153
-0.0838503
-0.079591
-0.0752467
-0.0708439
-0.0663908
-0.0619215
-0.0574397
-0.0529895
-0.0485647
-0.0442222
-0.0399384
-0.0357879
-0.0317188
-0.027832
-0.0240305
-0.0204568
-0.0169429
-0.0136984
-0.0104441
-0.00749674
-0.00440482
-0.00164438
-0.129772
-0.131158
-0.132442
-0.133634
-0.13473
-0.135724
-0.136612
-0.137392
-0.138063
-0.138622
-0.139067
-0.139395
-0.139603
-0.139689
-0.139651
-0.139484
-0.139187
-0.138756
-0.13819
-0.137484
-0.136636
-0.135644
-0.134504
-0.133213
-0.131768
-0.130167
-0.128407
-0.126486
-0.124402
-0.122153
-0.119738
-0.117156
-0.114409
-0.111496
-0.108421
-0.105185
-0.101795
-0.0982538
-0.0945713
-0.0907538
-0.0868147
-0.0827622
-0.0786151
-0.0743822
-0.0700891
-0.0657429
-0.0613773
-0.0569946
-0.0526382
-0.0483008
-0.0440388
-0.0398269
-0.0357402
-0.0317243
-0.027882
-0.0241127
-0.0205623
-0.0170586
-0.0138154
-0.01055
-0.00758296
-0.00446248
-0.00166464
-0.125752
-0.12717
-0.128489
-0.129717
-0.13085
-0.131884
-0.132813
-0.133637
-0.134354
-0.13496
-0.135454
-0.135833
-0.136095
-0.136235
-0.136253
-0.136144
-0.135907
-0.135538
-0.135035
-0.134394
-0.133613
-0.13269
-0.13162
-0.130402
-0.129033
-0.127509
-0.125828
-0.123989
-0.121989
-0.119826
-0.117501
-0.115011
-0.112359
-0.109543
-0.106568
-0.103434
-0.100149
-0.0967143
-0.0931404
-0.0894328
-0.0856047
-0.0816635
-0.0776276
-0.0735049
-0.0693203
-0.0650801
-0.0608171
-0.0565326
-0.0522695
-0.0480189
-0.0438369
-0.0396969
-0.0356739
-0.0317118
-0.0279142
-0.0241784
-0.0206519
-0.0171602
-0.0139195
-0.0106457
-0.00766059
-0.00451521
-0.00168244
-0.121799
-0.123245
-0.124593
-0.125852
-0.127019
-0.128089
-0.129057
-0.129921
-0.13068
-0.131332
-0.131872
-0.1323
-0.132611
-0.132804
-0.132876
-0.132824
-0.132644
-0.132335
-0.131894
-0.131317
-0.130602
-0.129746
-0.128746
-0.1276
-0.126304
-0.124856
-0.123254
-0.121495
-0.119579
-0.117502
-0.115265
-0.112867
-0.110308
-0.107589
-0.104712
-0.10168
-0.098498
-0.0951695
-0.091703
-0.0881043
-0.0843858
-0.0805547
-0.0766287
-0.072615
-0.0685378
-0.0644026
-0.0602412
-0.0560541
-0.0518834
-0.0477191
-0.0436168
-0.0395485
-0.0355892
-0.0316814
-0.0279288
-0.0242275
-0.0207256
-0.0172479
-0.0140107
-0.0107312
-0.00772979
-0.00456299
-0.00169794
-0.117915
-0.119384
-0.120757
-0.122044
-0.123241
-0.124343
-0.125346
-0.126248
-0.127046
-0.127739
-0.128323
-0.128797
-0.129156
-0.129399
-0.129523
-0.129525
-0.129402
-0.129151
-0.128769
-0.128255
-0.127604
-0.126814
-0.125883
-0.124807
-0.123584
-0.122211
-0.120686
-0.119008
-0.117173
-0.115182
-0.113032
-0.110724
-0.108258
-0.105634
-0.102856
-0.0999239
-0.0968442
-0.0936202
-0.09026
-0.0867688
-0.0831588
-0.0794365
-0.0756191
-0.0717132
-0.0677421
-0.0637107
-0.0596499
-0.0555594
-0.0514802
-0.0474017
-0.0433785
-0.039382
-0.0354862
-0.0316331
-0.0279257
-0.0242601
-0.0207835
-0.0173216
-0.0140892
-0.0108066
-0.00779075
-0.00460584
-0.00171129
-0.114104
-0.115591
-0.116985
-0.118295
-0.119519
-0.12065
-0.121684
-0.12262
-0.123455
-0.124186
-0.124811
-0.125328
-0.125733
-0.126024
-0.126197
-0.126251
-0.126182
-0.125987
-0.125664
-0.12521
-0.124622
-0.123897
-0.123032
-0.122026
-0.120874
-0.119575
-0.118127
-0.116527
-0.114774
-0.112867
-0.110804
-0.108585
-0.10621
-0.103681
-0.100999
-0.0981664
-0.095188
-0.0920673
-0.0888119
-0.085427
-0.0819241
-0.0783094
-0.0745993
-0.0707999
-0.0669337
-0.0630049
-0.0590435
-0.0550487
-0.0510602
-0.047067
-0.0431224
-0.0391974
-0.035365
-0.031567
-0.0279053
-0.0242763
-0.0208258
-0.0173814
-0.0141551
-0.0108718
-0.00784363
-0.00464381
-0.00172261
-0.110369
-0.11187
-0.113281
-0.11461
-0.115856
-0.117012
-0.118074
-0.11904
-0.119908
-0.120675
-0.121339
-0.121896
-0.122344
-0.12268
-0.122901
-0.123004
-0.122987
-0.122847
-0.12258
-0.122185