/*--------------------------------*- C++ -*----------------------------------*\
  =========                 |
  \\      /  F ield         | OpenFOAM: The Open Source CFD Toolbox
   \\    /   O peration     | Website:  https://openfoam.org
    \\  /    A nd           | Version:  7
     \\/     M anipulation  |
\*---------------------------------------------------------------------------*/
FoamFile
{
    version     2.0;
    format      ascii;
    class       surfaceScalarField;
    location    "2";
    object      phi;
}
// * * * * * * * * * * * * * * * * * * * * * * * * * * * * * * * * * * * * * //

dimensions      [0 3 -1 0 0 0 0];

internalField   nonuniform List<scalar> 
615
(
0.000127322
-4.55306e-06
0.00012884
-4.78871e-06
0.000130412
-4.97575e-06
0.000132024
-5.11783e-06
0.000133664
-5.21909e-06
0.00013532
-5.28395e-06
0.000136982
-5.31684e-06
0.000138642
-5.32208e-06
0.000140294
-5.30376e-06
0.00014193
-5.26569e-06
0.000143546
-5.21129e-06
0.000145139
-5.14367e-06
0.000146705
-5.06555e-06
0.000148243
-4.9793e-06
0.000149749
-4.88698e-06
0.000151223
-4.79032e-06
0.000152665
-4.69081e-06
0.000154073
-4.58968e-06
0.000155449
-4.48795e-06
0.000156791
-4.38643e-06
0.0001581
-4.28581e-06
0.000159377
-4.1866e-06
0.000160622
-4.08921e-06
0.000161836
-3.99394e-06
0.000163019
-3.90103e-06
0.000164173
-3.81062e-06
0.000165299
-3.72282e-06
0.000166396
-3.63766e-06
0.000167467
-3.55516e-06
0.000168511
-3.47531e-06
0.00016953
-3.39806e-06
0.000170524
-3.32335e-06
0.000171495
-3.25112e-06
0.000172443
-3.18128e-06
0.000173368
-3.11375e-06
0.000174272
-3.04842e-06
0.000175156
-2.98523e-06
0.000176019
-2.92405e-06
0.000176863
-2.86482e-06
0.000177688
-2.80743e-06
0.000178495
-2.75181e-06
0.000179284
-2.69786e-06
0.000180056
-2.64551e-06
0.000180812
-2.59468e-06
0.000181551
-2.5453e-06
0.000182275
-2.49729e-06
0.000182984
-2.45061e-06
0.000183678
-2.40518e-06
0.000184359
-2.36094e-06
0.000185025
-2.31785e-06
0.000185678
-2.27585e-06
0.000186317
-2.2349e-06
0.000186944
-2.19496e-06
0.000187559
-2.15597e-06
0.000188161
-2.11791e-06
0.000188752
-2.08073e-06
0.000189332
-2.0444e-06
-2.0089e-06
0.00014048
-4.20518e-07
0.000140844
-1.26555e-06
0.000141447
-2.09524e-06
0.000142278
-2.89057e-06
0.000143319
-3.63644e-06
0.000144553
-4.32121e-06
0.000145957
-4.93656e-06
0.000147509
-5.47746e-06
0.000149185
-5.94205e-06
0.000150963
-6.33111e-06
0.000152822
-6.64759e-06
0.000154742
-6.89598e-06
0.000156706
-7.08183e-06
0.000158698
-7.21129e-06
0.000160705
-7.29075e-06
0.000162715
-7.32655e-06
0.000164717
-7.32479e-06
0.000166705
-7.29119e-06
0.00016867
-7.23098e-06
0.000170608
-7.14889e-06
0.000172513
-7.04914e-06
0.000174383
-6.93543e-06
0.000176215
-6.81096e-06
0.000178006
-6.67851e-06
0.000179756
-6.54042e-06
0.000181464
-6.39867e-06
0.00018313
-6.25492e-06
0.000184752
-6.11053e-06
0.000186332
-5.96661e-06
0.000187871
-5.82406e-06
0.000189368
-5.68358e-06
0.000190824
-5.54573e-06
0.000192241
-5.41092e-06
0.000193619
-5.27945e-06
0.00019496
-5.15153e-06
0.000196265
-5.0273e-06
0.000197534
-4.90683e-06
0.000198769
-4.79014e-06
0.000199971
-4.67719e-06
0.000201141
-4.56795e-06
0.00020228
-4.46234e-06
0.000203389
-4.36026e-06
0.000204469
-4.2616e-06
0.000205522
-4.16624e-06
0.000206547
-4.07406e-06
0.000207547
-3.98494e-06
0.000208522
-3.89875e-06
0.000209472
-3.81536e-06
0.000210399
-3.73465e-06
0.000211304
-3.6565e-06
0.000212187
-3.58079e-06
0.000213049
-3.50741e-06
0.000213891
-3.43625e-06
0.000214712
-3.36722e-06
0.000215515
-3.30021e-06
0.0002163
-3.23513e-06
0.000217067
-3.17189e-06
0.000217816
-3.11042e-06
0.000218549
-3.05063e-06
0.000219265
-2.99246e-06
0.000219966
-2.93583e-06
0.000220652
-2.88068e-06
0.000221323
-2.82694e-06
0.00022198
-2.77457e-06
0.000222623
-2.7235e-06
0.000223252
-2.67369e-06
-2.62508e-06
0.000162102
-5.69914e-07
0.000162552
-1.71572e-06
0.000163296
-2.83947e-06
0.00016432
-3.91375e-06
0.0001656
-4.91717e-06
0.000167113
-5.83366e-06
0.000168828
-6.65218e-06
0.000170718
-7.36658e-06
0.000172751
-7.9752e-06
0.0001749
-8.48011e-06
0.000177138
-8.88621e-06
0.000179443
-9.20041e-06
0.000181792
-9.43085e-06
0.000184167
-9.58631e-06
0.000186552
-9.67573e-06
0.000188933
-9.70781e-06
0.000191299
-9.69084e-06
0.00019364
-9.63248e-06
0.000195949
-9.5397e-06
0.000198219
-9.41875e-06
0.000200445
-9.27518e-06
0.000202623
-9.11382e-06
0.000204751
-8.93886e-06
0.000206827
-8.75391e-06
0.000208848
-8.56202e-06
0.000210815
-8.36576e-06
0.000212728
-8.16728e-06
0.000214586
-7.96836e-06
0.000216389
-7.77043e-06
0.00021814
-7.57466e-06
0.000219838
-7.38197e-06
0.000221486
-7.19307e-06
0.000223083
-7.0085e-06
0.000224633
-6.82867e-06
0.000226135
-6.65383e-06
0.000227592
-6.48416e-06
0.000229005
-6.31976e-06
0.000230375
-6.16063e-06
0.000231705
-6.00676e-06
0.000232995
-5.85806e-06
0.000234247
-5.71443e-06
0.000235462
-5.57575e-06
0.000236643
-5.44186e-06
0.000237789
-5.3126e-06
0.000238903
-5.18781e-06
0.000239985
-5.06731e-06
0.000241037
-4.95093e-06
0.00024206
-4.83849e-06
0.000243056
-4.72983e-06
0.000244024
-4.62478e-06
0.000244966
-4.52317e-06
0.000245884
-4.42486e-06
0.000246777
-4.32969e-06
0.000247647
-4.23751e-06
0.000248495
-4.1482e-06
0.000249322
-4.06162e-06
0.000250128
-3.97765e-06
0.000250913
-3.89618e-06
0.00025168
-3.81709e-06
0.000252428
-3.74027e-06
0.000253158
-3.66564e-06
0.00025387
-3.59309e-06
0.000254566
-3.52255e-06
0.000255245
-3.45392e-06
0.000255909
-3.38712e-06
0.000256557
-3.3221e-06
-3.25876e-06
0.00018373
-7.53262e-07
0.000184283
-2.26861e-06
0.000185196
-3.75278e-06
0.000186449
-5.16682e-06
0.000188013
-6.48104e-06
0.000189853
-7.67388e-06
0.000191932
-8.7313e-06
0.000194212
-9.64631e-06
0.000196655
-1.04182e-05
0.000199226
-1.10511e-05
0.000201893
-1.1553e-05
0.000204627
-1.19342e-05
0.000207402
-1.22062e-05
0.000210197
-1.23811e-05
0.000212992
-1.24712e-05
0.000215773
-1.24881e-05
0.000218524
-1.24428e-05
0.000221237
-1.23451e-05
0.000223902
-1.22042e-05
0.000226511
-1.20282e-05
0.00022906
-1.18242e-05
0.000231544
-1.15983e-05
0.000233962
-1.1356e-05
0.000236309
-1.11017e-05
0.000238587
-1.08395e-05
0.000240794
-1.05726e-05
0.00024293
-1.03037e-05
0.000244997
-1.00351e-05
0.000246995
-9.76855e-06
0.000248926
-9.50555e-06
0.000250791
-9.24726e-06
0.000252593
-8.99458e-06
0.000254332
-8.74816e-06
0.000256012
-8.50849e-06
0.000257634
-8.2759e-06
0.000259201
-8.05057e-06
0.000260714
-7.83261e-06
0.000262175
-7.622e-06
0.000263587
-7.4187e-06
0.000264951
-7.22258e-06
0.000266271
-7.03349e-06
0.000267546
-6.85123e-06
0.00026878
-6.67559e-06
0.000269973
-6.50635e-06
0.000271129
-6.34326e-06
0.000272248
-6.18609e-06
0.000273331
-6.03458e-06
0.000274381
-5.88851e-06
0.000275399
-5.74763e-06
0.000276386
-5.6117e-06
0.000277343
-5.48051e-06
0.000278272
-5.35384e-06
0.000279174
-5.23147e-06
0.00028005
-5.11321e-06
0.000280901
-4.99887e-06
0.000281727
-4.88827e-06
0.000282531
-4.78122e-06
0.000283312
-4.67758e-06
0.000284072
-4.57719e-06
0.000284812
-4.47989e-06
0.000285532
-4.38556e-06
0.000286233
-4.29405e-06
0.000286916
-4.20526e-06
0.000287581
-4.11905e-06
0.000288229
-4.03532e-06
0.000288861
-3.95397e-06
-3.87489e-06
0.000205365
-9.78081e-07
0.000206044
-2.94732e-06
0.000207164
-4.87276e-06
0.000208696
-6.69952e-06
0.000210602
-8.38701e-06
0.000212835
-9.90705e-06
0.000215347
-1.12425e-05
0.000218086
-1.2386e-05
0.000221007
-1.33391e-05
0.000224066
-1.41094e-05
0.000227222
-1.47091e-05
0.00023044
-1.51529e-05
0.000233691
-1.54571e-05
0.000236949
-1.56382e-05
0.00024019
-1.57124e-05
0.000243396
-1.56948e-05
0.000246553
-1.55999e-05
0.000249649
-1.54404e-05
0.000252673
0.000255617
0.000258478
0.00026125
0.000263931
0.000266521
0.000269018
0.000271424
0.000273739
0.000275965
0.000278105
0.000280161
0.000282136
0.000284032
0.000285853
0.000287601
0.00028928
0.000290892
0.000292441
0.000293929
0.000295359
0.000296735
0.000298057
0.00029933
0.000300555
0.000301735
0.000302872
0.000303968
0.000305024
0.000306043
0.000307027
0.000307977
0.000308895
0.000309782
0.00031064
0.00031147
0.000312273
0.000313051
0.000313805
0.000314535
0.000315243
0.000315929
0.000316595
0.000317242
0.00031787
0.00031848
0.000319073
0.000319649
0.00022701
0.000227847
0.000229225
0.000231105
0.000233433
0.000236146
0.000239181
0.000242471
0.000245958
0.000249587
0.000253307
0.000257076
0.000260858
0.00026462
0.000268338
0.000271989
0.000275557
)
;

boundaryField
{
    inlet
    {
        type            calculated;
        value           nonuniform List<scalar> 5(-0.000140359 -0.000161953 -0.000183546 -0.00020514 -0.000226734);
    }
    outlet
    {
        type            calculated;
        value           nonuniform 0();
    }
    wall
    {
        type            calculated;
        value           nonuniform 0();
    }
    wedge1
    {
        type            wedge;
        value           nonuniform List<scalar> 
344
(
4.04809e-17
5.08891e-18
5.94704e-17
7.51167e-18
8.40643e-17
1.56392e-16
2.47994e-17
2.22391e-16
3.48084e-17
3.06377e-16
2.73543e-16
4.55719e-17
3.86479e-16
6.32052e-17
5.29486e-16
3.87389e-16
6.58058e-17
5.45014e-16
9.0561e-17
7.43472e-16
4.9484e-16
8.45184e-17
6.93755e-16
1.15806e-16
9.42384e-16
5.94556e-16
1.01849e-16
8.30589e-16
1.38957e-16
1.12285e-15
6.85062e-16
1.17448e-16
9.53575e-16
1.59553e-16
1.28248e-15
7.65643e-16
1.31124e-16
1.06168e-15
1.77436e-16
1.42031e-15
8.35935e-16
1.43002e-16
1.1546e-15
1.92705e-16
1.53625e-15
1.07784e-16
8.95846e-16
1.53072e-16
1.23253e-15
2.05373e-16
1.631e-15
1.13988e-16
9.45661e-16
1.61353e-16
1.29607e-15
2.15567e-16
1.70594e-15
1.19221e-16
9.86125e-16
1.6812e-16
1.34636e-15
2.2356e-16
1.76271e-15
1.23465e-16
1.01754e-15
1.73411e-16
1.38425e-15
2.29514e-16
1.80305e-15
1.26438e-16
1.04077e-15
1.77071e-16
1.41105e-15
2.33408e-16
1.82876e-15
1.28496e-16
1.05679e-15
1.79501e-16
1.42794e-15
2.35636e-16
1.84066e-15
1.30061e-16
1.06607e-15
1.80804e-16
1.43545e-15
2.36343e-16
1.84055e-15
1.30584e-16
1.06918e-15
1.81083e-16
1.43494e-15
2.35753e-16
1.83045e-15
1.30587e-16
1.06721e-15
1.80536e-16
1.42774e-15
2.34106e-16
1.81217e-15
1.30289e-16
1.06083e-15
1.79292e-16
1.41498e-15
2.31575e-16
1.29188e-16
1.05085e-15
1.77438e-16
1.3977e-15
2.28311e-16
1.27865e-16
1.03808e-15
1.75141e-16
1.37677e-15
2.2448e-16
1.2642e-16
1.02291e-15
1.72454e-16
1.35296e-15
2.20193e-16
1.24423e-16
1.00591e-15
1.69455e-16
1.32694e-15
2.15558e-16
1.22406e-16
9.87562e-16
1.66236e-16
1.29928e-15
2.10671e-16
1.20182e-16
9.68206e-16
1.62859e-16
1.27044e-15
2.05605e-16
1.17871e-16
9.48186e-16
1.59373e-16
1.24085e-15
2.0043e-16
1.15503e-16
9.27742e-16
1.55812e-16
1.21085e-15
1.9521e-16
1.13111e-16
9.07107e-16
1.52244e-16
1.18073e-15
1.90019e-16
1.10683e-16
8.86356e-16
1.48556e-16
1.15057e-15
1.84742e-16
1.08239e-16
8.65782e-16
1.44833e-16
1.12078e-15
1.79501e-16
1.05829e-16
8.45467e-16
1.4135e-16
1.09147e-15
1.74501e-16
1.03476e-16
8.25506e-16
1.37917e-16
1.06272e-15
1.69588e-16
1.01171e-16
8.05953e-16
1.34548e-16
1.03461e-15
1.64788e-16
9.89495e-17
7.86871e-16
1.31244e-16
1.0072e-15
1.60107e-16
9.67622e-17
7.68268e-16
1.28026e-16
9.80554e-16
1.55571e-16
9.46366e-17
7.50178e-16
1.24888e-16
9.54686e-16
1.51187e-16
9.25611e-17
7.32614e-16
1.21837e-16
9.29612e-16
1.46944e-16
9.05644e-17
7.15586e-16
1.18899e-16
9.05365e-16
1.42851e-16
8.86303e-17
6.99084e-16
1.16033e-16
8.81909e-16
1.38891e-16
8.67651e-17
6.83117e-16
1.13267e-16
8.59256e-16
1.35062e-16
8.49445e-17
6.67675e-16
1.106e-16
8.3739e-16
1.31381e-16
8.31867e-17
6.52748e-16
1.08013e-16
8.16273e-16
1.27841e-16
8.14851e-17
6.38298e-16
1.05499e-16
7.95903e-16
1.24427e-16
7.98356e-17
6.24331e-16
1.03083e-16
7.76255e-16
1.21143e-16
7.82546e-17
6.10833e-16
1.00745e-16
7.57289e-16
1.17981e-16
7.6736e-17
5.97775e-16
9.84857e-17
7.39002e-16
1.14924e-16
7.52628e-17
5.85163e-16
9.63152e-17
7.21366e-16
1.11996e-16
7.38542e-17
5.72955e-16
9.42103e-17
7.04342e-16
1.09193e-16
7.24613e-17
5.61111e-16
9.21716e-17
6.87914e-16
1.06489e-16
7.1104e-17
5.49641e-16
9.02031e-17
6.72045e-16
1.03873e-16
6.9797e-17
5.38535e-16
8.82985e-17
6.56713e-16
1.01351e-16
6.85241e-17
5.27758e-16
8.64501e-17
6.41889e-16
9.89085e-17
6.73026e-17
5.1731e-16
8.46586e-17
6.2757e-16
9.65583e-17
6.61248e-17
5.07174e-16
8.29352e-17
6.13721e-16
9.42987e-17
6.49432e-17
4.97333e-16
8.12627e-17
6.00312e-16
9.21265e-17
6.39005e-17
4.87811e-16
7.96072e-17
5.87312e-16
8.99768e-17
6.2619e-17
4.78482e-16
7.80095e-17
5.7484e-16
8.7964e-17
6.14697e-17
4.69249e-16
7.66413e-17
5.62668e-16
8.61394e-17
6.03841e-17
4.60482e-16
7.50809e-17
5.50846e-16
8.41956e-17
5.93693e-17
4.51916e-16
7.36001e-17
5.39376e-16
8.23275e-17
5.83624e-17
4.43572e-16
7.21728e-17
5.28247e-16
8.05217e-17
5.73956e-17
4.35444e-16
7.07803e-17
5.17431e-16
7.87724e-17
5.64506e-17
4.27501e-16
6.94324e-17
5.06944e-16
7.70868e-17
5.55458e-17
4.19763e-16
6.81289e-17
4.96767e-16
7.54621e-17
5.46494e-17
4.12223e-16
6.68667e-17
4.86863e-16
7.3876e-17
5.37469e-17
4.04835e-16
6.56241e-17
4.77214e-16
7.23279e-17
5.28768e-17
3.97639e-16
6.44053e-17
4.67848e-16
7.08294e-17
)
;
    }
    wedge2
    {
        type            wedge;
        value           nonuniform List<scalar> 
344
(
4.04864e-17
5.10712e-18
5.95003e-17
7.48786e-18
8.4085e-17
1.55923e-16
2.42429e-17
2.21998e-16
3.43645e-17
3.06222e-16
2.72637e-16
4.43463e-17
3.8558e-16
6.2202e-17
5.28992e-16
3.85209e-16
6.35342e-17
5.43038e-16
8.87642e-17
7.4216e-16
4.92259e-16
8.20074e-17
6.91617e-16
1.13932e-16
9.40917e-16
5.91613e-16
9.90266e-17
8.282e-16
1.36817e-16
1.12119e-15
6.82131e-16
1.14498e-16
9.51096e-16
1.57301e-16
1.28074e-15
7.62813e-16
1.28341e-16
1.05923e-15
1.75237e-16
1.41839e-15
8.33162e-16
1.40307e-16
1.15215e-15
1.90458e-16
1.53414e-15
1.05267e-16
8.93171e-16
1.5042e-16
1.23005e-15
2.03076e-16
1.62881e-15
1.11536e-16
9.43083e-16
1.58781e-16
1.29361e-15
2.13226e-16
1.70362e-15
1.16474e-16
9.8316e-16
1.65317e-16
1.34356e-15
2.21001e-16
1.7602e-15
1.20205e-16
1.01445e-15
1.70228e-16
1.38134e-15
2.2664e-16
1.8005e-15
1.23221e-16
1.03767e-15
1.73965e-16
1.40812e-15
2.30611e-16
1.82624e-15
1.25359e-16
1.05352e-15
1.76422e-16
1.42501e-15
2.32859e-16
1.83806e-15
1.26341e-16
1.06276e-15
1.77711e-16
1.43254e-15
2.3358e-16
1.83796e-15
1.26907e-16
1.06586e-15
1.78005e-16
1.43204e-15
2.33024e-16
1.82792e-15
1.26712e-16
1.06366e-15
1.77419e-16
1.42482e-15
2.31373e-16
1.80956e-15
1.25787e-16
1.05719e-15
1.76104e-16
1.41206e-15
2.28826e-16
1.24759e-16
1.04718e-15
1.74224e-16
1.39476e-15
2.25567e-16
1.23213e-16
1.03415e-15
1.71835e-16
1.3738e-15
2.21718e-16
1.21237e-16
1.01889e-15
1.69077e-16
1.34997e-15
2.17421e-16
1.19339e-16
1.00185e-15
1.66042e-16
1.32392e-15
2.12788e-16
1.17113e-16
9.8342e-16
1.62781e-16
1.29622e-15
2.07905e-16
1.14835e-16
9.64013e-16
1.59357e-16
1.26738e-15
2.02861e-16
1.12466e-16
9.43915e-16
1.55826e-16
1.23778e-15
1.97718e-16
1.10043e-16
9.23413e-16
1.5224e-16
1.20777e-15
1.92522e-16
1.07586e-16
9.02714e-16
1.48603e-16
1.17762e-15
1.87293e-16
1.05153e-16
8.821e-16
1.45086e-16
1.14771e-15
1.82218e-16
1.02759e-16
8.61567e-16
1.41663e-16
1.11801e-15
1.7724e-16
1.00385e-16
8.41265e-16
1.38086e-16
1.08871e-15
1.72198e-16
9.80296e-17
8.21281e-16
1.34578e-16
1.05994e-15
1.67282e-16
9.57198e-17
8.01696e-16
1.31148e-16
1.03183e-15
1.62496e-16
9.34326e-17
7.82554e-16
1.27815e-16
1.00442e-15
1.57855e-16
9.12267e-17
7.63916e-16
1.24569e-16
9.77769e-16
1.53347e-16
8.90804e-17
7.45801e-16
1.21423e-16
9.51906e-16
1.48971e-16
8.70092e-17
7.28221e-16
1.18376e-16
9.26853e-16
1.44745e-16
8.49862e-17
7.1118e-16
1.15406e-16
9.02591e-16
1.4066e-16
8.30268e-17
6.94687e-16
1.12551e-16
8.7915e-16
1.36731e-16
8.11245e-17
6.78721e-16
1.09784e-16
8.56505e-16
1.32956e-16
7.92998e-17
6.63273e-16
1.07101e-16
8.34638e-16
1.29313e-16
7.75322e-17
6.4833e-16
1.04518e-16
8.13551e-16
1.258e-16
7.58253e-17
6.33898e-16
1.02036e-16
7.93206e-16
1.22426e-16
7.41779e-17
6.19938e-16
9.96266e-17
7.73577e-16
1.19175e-16
7.25697e-17
6.06432e-16
9.73018e-17
7.54656e-16
1.16048e-16
7.10028e-17
5.93371e-16
9.50564e-17
7.36394e-16
1.13052e-16
6.94894e-17
5.80713e-16
9.28733e-17
7.18765e-16
1.10153e-16
6.80058e-17
5.68464e-16
9.07693e-17
7.01755e-16
1.07346e-16
6.65966e-17
5.56629e-16
8.87382e-17
6.85329e-16
1.04647e-16
6.52378e-17
5.45161e-16
8.677e-17
6.69472e-16
1.02057e-16
6.39103e-17
5.34037e-16
8.48643e-17
6.54156e-16
9.95617e-17
6.26266e-17
5.23261e-16
8.30239e-17
6.39361e-16
9.71681e-17
6.13653e-17
5.12799e-16
8.12426e-17
6.25044e-16
9.48528e-17
6.01309e-17
5.02639e-16
7.9503e-17
6.11195e-16
9.26108e-17
5.89677e-17
4.92772e-16
7.78191e-17
5.97802e-16
9.04367e-17
5.77291e-17
4.83144e-16
7.62187e-17
5.84853e-16
8.83886e-17
5.679e-17
4.73853e-16
7.46472e-17
5.72193e-16
8.63397e-17
5.57772e-17
4.64985e-16
7.29569e-17
5.60012e-16
8.42479e-17
5.47558e-17
4.56133e-16
7.15375e-17
5.48224e-16
8.23989e-17
5.37163e-17
4.47545e-16
7.01224e-17
5.36796e-16
8.05966e-17
5.272e-17
4.39183e-16
6.87344e-17
5.25707e-16
7.88491e-17
5.17313e-17
4.31031e-16
6.73885e-17
5.14954e-16
7.71564e-17
5.07678e-17
4.23105e-16
6.60723e-17
5.04495e-16
7.55071e-17
4.98085e-17
4.15365e-16
6.4782e-17
4.9432e-16
7.38984e-17
4.88831e-17
4.07805e-16
6.35185e-17
4.84444e-16
7.23485e-17
4.80049e-17
4.00455e-16
6.23004e-17
4.74858e-16
7.08544e-17
4.71336e-17
3.93262e-16
6.11215e-17
4.65515e-16
6.9399e-17
)
;
    }
    axis
    {
        type            empty;
        value           nonuniform 0();
    }
    procBoundary6to0
    {
        type            processor;
        value           nonuniform List<scalar> 
68
(
3.10618e-06
3.27148e-06
3.40385e-06
3.50557e-06
3.57932e-06
3.62797e-06
3.65446e-06
3.6617e-06
3.65248e-06
3.62938e-06
3.59477e-06
3.55081e-06
3.49939e-06
3.44218e-06
3.38062e-06
3.31593e-06
3.24917e-06
3.1812e-06
3.11274e-06
3.04439e-06
2.9766e-06
2.90976e-06
2.84415e-06
2.77998e-06
2.71741e-06
2.65656e-06
2.59747e-06
2.54019e-06
2.48473e-06
2.43106e-06
2.37915e-06
2.32897e-06
2.28046e-06
2.23356e-06
2.18821e-06
2.14434e-06
2.10189e-06
2.06078e-06
2.02097e-06
1.98238e-06
1.94494e-06
1.90862e-06
1.87334e-06
1.83905e-06
1.80571e-06
1.77327e-06
1.74168e-06
1.7109e-06
1.6809e-06
1.65164e-06
1.62308e-06
1.59519e-06
1.56795e-06
1.54133e-06
1.5153e-06
1.48984e-06
1.46492e-06
1.44053e-06
2.99507e-07
9.01136e-07
1.49237e-06
2.06035e-06
2.59475e-06
3.08743e-06
3.53239e-06
3.92581e-06
-0.000125876
4.26599e-06
)
;
    }
    procBoundary6to1
    {
        type            processor;
        value           uniform 0.0001899;
    }
    procBoundary6to7
    {
        type            processor;
        value           nonuniform List<scalar> 4(0.000223868 0.000257191 0.000289477 0.00032021);
    }
    procBoundary6to12
    {
        type            processor;
        value           nonuniform List<scalar> 
68
(
-1.5228e-05
-1.49731e-05
-1.46846e-05
-1.43704e-05
-1.40374e-05
-1.36912e-05
-1.33368e-05
-1.29782e-05
-1.26189e-05
-1.22616e-05
-1.19085e-05
-1.15615e-05
-1.12219e-05
-1.08908e-05
-1.05689e-05
-1.02567e-05
-9.95467e-06
-9.6629e-06
-9.38143e-06
-9.11021e-06
-8.84909e-06
-8.59786e-06
-8.35627e-06
-8.12401e-06
-7.90077e-06
-7.68621e-06
-7.47998e-06
-7.28174e-06
-7.09114e-06
-6.90783e-06
-6.73148e-06
-6.56177e-06
-6.39837e-06
-6.24099e-06
-6.08934e-06
-5.94314e-06
-5.80212e-06
-5.66603e-06
-5.53465e-06
-5.40774e-06
-5.28508e-06
-5.16649e-06
-5.05176e-06
-4.94073e-06
-4.83321e-06
-4.72906e-06
-4.62811e-06
-4.53023e-06
-4.43529e-06
-1.25464e-06
-3.78359e-06
-6.25101e-06
-8.57967e-06
-1.07149e-05
-1.26206e-05
-1.42766e-05
-1.56768e-05
-1.68262e-05
-1.77376e-05
-1.84293e-05
-1.89223e-05
-1.92387e-05
-1.94008e-05
-1.94299e-05
-1.93461e-05
-1.91679e-05
0.000279028
-1.89118e-05
)
;
    }
}


// ************************************************************************* //
