/*--------------------------------*- C++ -*----------------------------------*\
  =========                 |
  \\      /  F ield         | OpenFOAM: The Open Source CFD Toolbox
   \\    /   O peration     | Website:  https://openfoam.org
    \\  /    A nd           | Version:  7
     \\/     M anipulation  |
\*---------------------------------------------------------------------------*/
FoamFile
{
    version     2.0;
    format      ascii;
    class       volVectorField;
    location    "6";
    object      U;
}
// * * * * * * * * * * * * * * * * * * * * * * * * * * * * * * * * * * * * * //

dimensions      [0 1 -1 0 0 0 0];

internalField   nonuniform List<vector> 
433
(
(-0.0405772 0.019033 1.93319e-21)
(-0.0440308 0.0162152 -3.27973e-21)
(-0.0475123 0.0132659 2.30945e-22)
(-0.0510072 0.0102134 3.67339e-22)
(-0.0545292 0.00714183 9.51809e-23)
(-0.0580091 0.00378845 -2.55196e-21)
(-0.0615144 -0.000462361 4.33201e-21)
(-0.0139331 0.0501353 4.22259e-21)
(-0.0178613 0.0447347 -1.46829e-21)
(-0.0213304 0.0408304 5.12697e-21)
(-0.0245837 0.0377619 4.52467e-21)
(-0.0277479 0.0351038 2.04648e-21)
(-0.0308967 0.0325916 2.27541e-21)
(-0.0340626 0.0300695 -1.38374e-21)
(-0.0372552 0.0274567 7.22071e-22)
(-0.0404735 0.0247144 -4.91509e-21)
(-0.0437109 0.0218308 4.94937e-21)
(-0.0469576 0.0188101 -2.73799e-21)
(-0.0501979 0.0156756 3.37471e-21)
(-0.0534572 0.0125084 5.24113e-22)
(-0.0566483 0.00905759 2.13733e-21)
(-0.0598236 0.00471361 -1.74379e-21)
(-0.023221 0.0485326 -6.17042e-21)
(-0.0236818 0.0460737 -2.35255e-20)
(-0.0248634 0.0440288 2.30337e-20)
(-0.026622 0.0420917 -1.75506e-20)
(-0.0288209 0.0400835 -9.34753e-21)
(-0.0313303 0.0379145 -1.11179e-20)
(-0.0340345 0.0355508 1.86696e-21)
(-0.036846 0.0329833 2.06136e-20)
(-0.0397101 0.03022 1.15386e-20)
(-0.0425883 0.0272778 -1.18943e-20)
(-0.0454557 0.0241785 -6.42344e-21)
(-0.0482907 0.0209552 -2.43985e-20)
(-0.0511276 0.0176923 1.76292e-20)
(-0.0538586 0.0141529 -3.52693e-20)
(-0.056527 0.00973609 3.11235e-20)
(-0.0200761 0.0457945 4.71349e-20)
(-0.0225076 0.046462 5.30679e-20)
(-0.0251166 0.0460524 4.22991e-20)
(-0.0277918 0.0448489 -6.05893e-20)
(-0.0304663 0.0430581 1.04179e-19)
(-0.033106 0.04083 -8.36626e-20)
(-0.0356927 0.0382666 4.28624e-20)
(-0.0382097 0.0354424 -1.4075e-20)
(-0.0406503 0.0324113 -2.16006e-20)
(-0.0430121 0.0292148 1.51127e-21)
(-0.0452893 0.025897 -6.62907e-20)
(-0.0475356 0.0225445 2.17391e-20)
(-0.0496259 0.0189347 8.50309e-20)
(-0.0516044 0.0144771 -7.37844e-20)
(-0.0164839 0.0542321 -2.04792e-20)
(-0.0204486 0.0537939 1.21228e-19)
(-0.0239254 0.0525638 -2.26056e-20)
(-0.0269693 0.0507649 -1.40681e-20)
(-0.0296552 0.0485451 2.58634e-20)
(-0.0320506 0.0460018 -2.85437e-21)
(-0.0342131 0.0432047 -2.33626e-20)
(-0.0361845 0.0402018 1.58796e-21)
(-0.0379934 0.0370303 -9.36342e-20)
(-0.03966 0.0337221 4.21089e-20)
(-0.041192 0.0303166 6.80968e-20)
(-0.0426594 0.0268959 -3.48203e-20)
(-0.0439165 0.0232501 -3.21546e-20)
(-0.0450168 0.018801 7.34941e-20)
(-0.0199736 0.0664333 1.10001e-19)
(-0.0231553 0.0626851 -1.76769e-19)
(-0.0257436 0.0594149 1.1615e-19)
(-0.0278896 0.0563776 -2.579e-20)
(-0.0296961 0.053414 -1.50127e-19)
(-0.0312319 0.0504238 9.75445e-20)
(-0.0325419 0.0473508 -1.90324e-19)
(-0.0336534 0.0441699 6.71679e-20)
(-0.0345829 0.0408776 9.61417e-20)
(-0.0353416 0.0374857 2.39392e-20)
(-0.0359325 0.0340262 -3.87129e-20)
(-0.0364309 0.0305757 2.31285e-19)
(-0.0366608 0.0269403 3.28853e-20)
(-0.0366935 0.0225645 -4.04134e-20)
(-0.030445 0.0652327 4.12114e-20)
(-0.0301206 0.061997 -3.46772e-20)
(-0.0300741 0.0590559 5.01656e-20)
(-0.0301786 0.0561833 -1.96572e-20)
(-0.0303249 0.0532544 4.41274e-20)
(-0.0304269 0.0502103 -1.53833e-19)
(-0.030421 0.0470334 1.42387e-19)
(-0.0302642 0.0437313 1.34093e-19)
(-0.0299308 0.0403282 -2.66535e-19)
(-0.0294041 0.0368683 2.49461e-19)
(-0.028758 0.0334336 -2.43911e-19)
(-0.0277721 0.0298602 -6.72327e-20)
(-0.0265289 0.0256341 -1.38507e-19)
(-0.0319431 0.0609325 -2.43668e-19)
(-0.0305946 0.0602423 1.69901e-19)
(-0.0295937 0.0588713 3.00342e-19)
(-0.0287623 0.0569344 -3.40748e-20)
(-0.0279549 0.0545408 -5.71404e-19)
(-0.0270622 0.0517874 3.19852e-19)
(-0.0260068 0.0487591 -2.23493e-19)
(-0.0247384 0.0455311 -1.02746e-19)
(-0.0232285 0.042172 4.25543e-19)
(-0.0214625 0.0387564 -2.45925e-19)
(-0.0195236 0.0353871 -4.66657e-20)
(-0.0171374 0.0319481 3.64955e-19)
(-0.0143989 0.0279648 -2.44504e-19)
(-0.0261084 0.0602551 -3.15379e-19)
(-0.0257992 0.0593201 8.12233e-19)
(-0.0250402 0.0576072 -3.04498e-19)
(-0.0238519 0.0553159 -3.48032e-21)
(-0.0222516 0.052599 -2.23428e-19)
(-0.0202519 0.0495765 -6.93376e-20)
(-0.0178626 0.0463475 -3.73982e-19)
(-0.015095 0.0429981 -1.37244e-19)
(-0.0119562 0.0396175 2.65585e-19)
(-0.00853987 0.03632 -6.86892e-20)
(-0.00451735 0.0330209 2.80446e-19)
(-0.000130736 0.0291816 -2.38415e-19)
(-0.0223533 0.0610289 -2.14348e-19)
(-0.0211112 0.0585115 6.51555e-20)
(-0.0191578 0.0557168 1.64844e-19)
(-0.0165724 0.052688 -1.58792e-19)
(-0.0134131 0.0494763 6.08046e-19)
(-0.0097224 0.0461404 1.57524e-19)
(-0.00553581 0.0427455 2.96948e-19)
(-0.000879128 0.0393729 -2.41014e-19)
(0.00413594 0.0361297 4.67958e-19)
(0.00985481 0.0329429 -4.64292e-20)
(0.0159461 0.0292295 -1.87459e-19)
(-0.0207808 0.0613952 1.49708e-19)
(-0.0178584 0.0581458 -4.26062e-19)
(-0.0143391 0.0548982 -5.32656e-20)
(-0.0102304 0.0515885 -3.90397e-19)
(-0.00553836 0.0482059 3.48417e-19)
(-0.000271568 0.0447769 -5.32559e-19)
(0.00555276 0.0413538 4.25539e-19)
(0.011915 0.0380187 -1.09288e-19)
(0.0186979 0.0348864 -6.25351e-19)
(0.0262713 0.0319244 8.00636e-19)
(0.034213 0.0285699 -1.24945e-19)
(-0.0140692 0.0550561 7.57466e-20)
(-0.00862651 0.0520486 5.7113e-19)
(-0.00271743 0.0488573 -7.70067e-19)
(0.00373403 0.045531 1.96429e-19)
(0.0107739 0.0421386 -7.28842e-20)
(0.0184181 0.0387651 1.60291e-19)
(0.026664 0.0355241 9.81881e-19)
(0.035396 0.0325614 -6.92554e-19)
(0.0450207 0.0299132 -4.17938e-20)
(0.0550051 0.0270476 4.2719e-19)
(-0.000495878 0.0477399 -2.39418e-19)
(0.00694703 0.0448164 7.13365e-19)
(0.0150623 0.0416452 -8.69175e-19)
(0.0238837 0.0383533 -1.02995e-20)
(0.0334216 0.0350697 5.35835e-19)
(0.0436699 0.0319496 -2.31996e-19)
(0.0545032 0.0291822 -1.00858e-18)
(0.0663649 0.0268962 9.61288e-19)
(0.0785774 0.0245995 7.14823e-19)
(0.0190371 0.0400929 3.12141e-19)
(0.0287609 0.0369753 6.12372e-20)
(0.0393712 0.0337343 4.93199e-20)
(0.05086 0.030509 -7.16408e-19)
(0.0632118 0.0274811 3.52018e-19)
(0.0762893 0.0248824 8.09276e-19)
(0.0905808 0.0229634 -1.13891e-18)
(0.105226 0.0212863 1.09776e-18)
(0.044945 0.0319187 2.69083e-18)
(0.0574289 0.0286589 -8.45003e-19)
(0.0709574 0.0254266 -8.1321e-19)
(0.0855253 0.0224141 1.21192e-18)
(0.101003 0.0198939 -6.42943e-19)
(0.117949 0.0182618 1.17994e-18)
(0.135304 0.0171452 -4.71393e-19)
(0.0782071 0.0235244 1.14159e-18)
(0.0938861 0.0202391 6.22866e-19)
(0.11079 0.0171531 3.33675e-19)
(0.128815 0.0145686 2.88994e-19)
(0.119883 0.0154282 -2.34208e-19)
(-0.0684572 -0.00836802 1.52935e-21)
(-0.0776026 -0.0185051 -9.50076e-22)
(-0.0837785 -0.0288685 1.36372e-21)
(-0.08748 -0.0393693 9.39223e-23)
(-0.0881262 -0.0494942 -3.76666e-21)
(-0.0858164 -0.0588015 3.21337e-21)
(-0.0804816 -0.0667977 2.21473e-22)
(-0.0721797 -0.0729898 -2.7173e-21)
(-0.0608371 -0.0769332 1.13856e-21)
(-0.0464773 -0.0780691 1.47465e-21)
(-0.0290267 -0.0762402 -1.02988e-22)
(-0.00842288 -0.071151 -1.0722e-21)
(0.0154062 -0.0628934 1.09667e-21)
(0.0425587 -0.0515179 -8.70048e-22)
(0.0729635 -0.037495 -4.34601e-23)
(0.106576 -0.0213775 6.94956e-22)
(0.143205 -0.00392796 -1.51872e-21)
(-0.0661249 -0.00340841 2.367e-21)
(-0.0748818 -0.0148832 -1.29254e-21)
(-0.0805271 -0.026476 -2.65578e-21)
(-0.0838303 -0.0383332 4.09462e-21)
(-0.0841696 -0.0497351 -6.94536e-21)
(-0.0816899 -0.0602609 -9.61824e-22)
(-0.0763292 -0.0693789 6.21861e-21)
(-0.0681618 -0.07662 -1.20278e-21)
(-0.0570914 -0.0815491 -1.90626e-21)
(-0.0431601 -0.0835944 7.14458e-22)
(-0.0262962 -0.0826415 4.33118e-21)
(-0.00640882 -0.0783726 -5.94006e-21)
(0.0165966 -0.070879 5.41703e-21)
(0.042858 -0.0602225 -1.19195e-21)
(0.0723268 -0.0468391 2.52222e-21)
(0.105021 -0.0312644 -6.36295e-22)
(0.140797 -0.014237 2.51471e-21)
(-0.0619001 0.00144566 -5.97011e-21)
(-0.0700271 -0.0113833 3.07034e-21)
(-0.0747761 -0.0241424 1.89774e-21)
(-0.0773925 -0.0373048 -2.87553e-21)
(-0.0771584 -0.0499344 3.40667e-21)
(-0.0742924 -0.0616341 -2.92624e-21)
(-0.0687342 -0.0718335 7.95528e-21)
(-0.0605785 -0.0800948 -8.18157e-21)
(-0.0496933 -0.0859892 1.38842e-21)
(-0.0361402 -0.0889251 -1.18288e-21)
(-0.0198492 -0.0888354 4.81121e-21)
(-0.000685293 -0.0853949 -1.06815e-20)
(0.0214535 -0.0786482 7.42446e-21)
(0.0467501 -0.068732 -2.30856e-21)
(0.0751912 -0.0560079 -3.54649e-21)
(0.106849 -0.0410016 -2.31876e-22)
(0.141631 -0.0244282 5.67492e-22)
(-0.0557654 0.00608289 1.45512e-20)
(-0.0630263 -0.00812294 9.94748e-21)
(-0.0665116 -0.0219682 -3.24172e-21)
(-0.0681613 -0.0363677 -4.94523e-21)
(-0.0670972 -0.0501562 -2.62479e-22)
(-0.063638 -0.062966 3.36318e-22)
(-0.0577211 -0.0741876 -1.93107e-21)
(-0.0494638 -0.0834256 4.13025e-21)
(-0.0386831 -0.0902541 2.94129e-21)
(-0.0254592 -0.0940452 -3.10042e-21)
(-0.00972883 -0.0947887 2.96902e-21)
(0.00870531 -0.0921784 -5.09693e-22)
(0.0299407 -0.0861773 -6.02427e-21)
(0.0542061 -0.0770031 5.1568e-21)
(0.081537 -0.0649525 -4.69528e-21)
(0.112051 -0.0505363 1.46626e-21)
(0.145709 -0.0344457 2.81221e-21)
(-0.0476942 0.0103981 -2.79577e-20)
(-0.0538665 -0.00521969 1.04915e-21)
(-0.0557229 -0.0200466 -1.90198e-20)
(-0.0561398 -0.0355981 6.81029e-22)
(-0.0540054 -0.050461 -1.30377e-20)
(-0.0497612 -0.0642993 1.65339e-20)
(-0.0433401 -0.0764618 -4.65189e-21)
(-0.0348837 -0.0866175 2.3548e-22)
(-0.0241348 -0.0943406 -3.64695e-22)
(-0.0111939 -0.0989393 5.80002e-22)
(0.00397975 -0.100503 7.99898e-22)
(0.0216756 -0.0986732 -1.07772e-21)
(0.0419791 -0.09343 2.0317e-21)
(0.0651544 -0.0849953 -2.18989e-21)
(0.0913006 -0.0736278 3.55249e-22)
(0.120574 -0.0598196 -9.87003e-22)
(0.15299 -0.0442372 1.23355e-22)
(-0.0376408 0.0143079 -7.24086e-20)
(-0.0425317 -0.00282842 6.53754e-20)
(-0.0423986 -0.0184532 -3.28494e-20)
(-0.0413384 -0.0350611 4.1709e-20)
(-0.0379167 -0.0509047 -2.41151e-20)
(-0.032714 -0.0656718 1.40598e-21)
(-0.0256633 -0.0786649 -2.48698e-21)
(-0.0169333 -0.0896708 6.19005e-21)
(-0.00615821 -0.0982475 -1.13773e-20)
(0.00653184 -0.103622 2.11481e-21)
(0.0211601 -0.105948 -4.98288e-22)
(0.038107 -0.104844 -4.40415e-23)
(0.0574404 -0.100371 3.12145e-22)
(0.0794795 -0.0926711 2.82841e-22)
(0.104375 -0.0819923 -4.88529e-23)
(0.132323 -0.0688065 -1.03073e-22)
(0.163392 -0.0537544 4.11016e-23)
(-0.025549 0.0176884 2.73223e-20)
(-0.029001 -0.00102332 3.64283e-20)
(-0.0265024 -0.0172287 1.7782e-20)
(-0.0237749 -0.0348152 -4.78559e-20)
(-0.0188766 -0.0515447 -2.8733e-20)
(-0.0125611 -0.0671222 3.0885e-20)
(-0.00478356 -0.0808389 -9.00686e-21)
(0.00426062 -0.0926312 -2.45614e-21)
(0.0150967 -0.102 1.39442e-20)
(0.0275751 -0.108037 -1.33926e-20)
(0.0416634 -0.111035 7.17251e-21)
(0.0578325 -0.11069 -2.09088e-21)
(0.076163 -0.106971 -2.13316e-21)
(0.0970257 -0.0999968 -3.37513e-21)
(0.120614 -0.0900084 6.45146e-22)
(0.147163 -0.077456 -1.05076e-21)
(0.176793 -0.0629537 -1.82276e-23)
(-0.0113268 0.0201937 -5.51419e-20)
(-0.0132069 0.000320587 8.10211e-20)
(-0.00802229 -0.0165337 -4.30629e-20)
(-0.00347887 -0.0349053 4.7461e-22)
(0.00305827 -0.052412 -2.03541e-20)
(0.0106093 -0.0686908 -2.29508e-20)
(0.0191743 -0.0831578 3.5119e-20)
(0.0285515 -0.0955337 -3.94011e-21)
(0.0394901 -0.105291 1.49916e-21)
(0.0517778 -0.112114 7.67612e-21)
(0.0652847 -0.115792 -1.26919e-20)
(0.0806419 -0.116197 1.3098e-20)
(0.097951 -0.113203 -9.62448e-21)
(0.117601 -0.106942 1.22928e-20)
(0.139833 -0.0976427 -2.12255e-21)
(0.16492 -0.0857317 2.50829e-21)
(0.193032 -0.0717955 -5.38345e-21)
(0.00508641 0.0211028 2.44176e-20)
(0.00499442 0.00103953 -5.90072e-22)
(0.013008 -0.0164083 2.67258e-20)
(0.0195803 -0.0352833 2.8963e-20)
(0.02782 -0.05329 2.26313e-20)
(0.0366421 -0.0701301 -8.01646e-20)
(0.0460709 -0.0853239 3.54811e-20)
(0.0559269 -0.0982043 -1.12363e-20)
(0.0668554 -0.108289 -9.73467e-22)
(0.0788264 -0.115917 8.14806e-21)
(0.0917947 -0.120253 -1.08438e-20)
(0.106318 -0.121339 9.29763e-21)
(0.122578 -0.119041 -1.13908e-20)
(0.140981 -0.113479 9.21378e-21)
(0.161814 -0.104866 -1.0641e-20)
(0.185387 -0.0936018 -2.5385e-22)
(0.211917 -0.0802455 1.29718e-21)
(0.0238751 0.0211094 1.0358e-19)
(0.0260228 0.00101994 -2.39341e-19)
(0.0367256 -0.016805 5.64195e-20)
(0.045479 -0.0360264 1.73821e-19)
(0.0554328 -0.0543648 -1.53904e-19)
(0.0654562 -0.0715968 -2.40071e-20)
(0.0757002 -0.0872559 5.79124e-20)
(0.0860284 -0.100652 -5.50481e-20)
(0.096942 -0.1113 -6.18013e-21)
(0.108563 -0.119437 1.01852e-20)
(0.120954 -0.124369 -1.72073e-20)
(0.134612 -0.12609 2.26345e-20)
(0.149792 -0.124461 -4.96087e-21)
(0.166915 -0.119584 1.35648e-20)
(0.186313 -0.111652 -1.76579e-20)
(0.208329 -0.101039 8.65995e-21)
(0.233226 -0.0882743 -8.14731e-22)
(0.045199 0.0210143 -1.72249e-19)
(0.0497874 0.000182083 2.03652e-19)
(0.0631987 -0.0178712 -2.96752e-19)
(0.0741619 -0.0372978 1.46836e-19)
(0.0857961 -0.0559042 6.23706e-20)
(0.0969908 -0.0733475 2.00852e-20)
(0.107967 -0.0892128 -4.61216e-20)
(0.118667 -0.102947 1.03526e-19)
(0.129521 -0.114068 -5.73967e-20)
(0.140748 -0.122633 2.77596e-21)
(0.152502 -0.128108 -5.35406e-22)
(0.165255 -0.130424 -2.62019e-20)
(0.179318 -0.129441 2.83418e-20)
(0.19513 -0.125235 -1.68577e-20)
(0.213063 -0.11798 -7.50673e-22)
(0.23349 -0.10802 -1.71054e-21)
(0.256712 -0.0958571 6.2646e-22)
(0.282947 -0.0821425 -3.13426e-21)
(0.0692205 0.0202683 -1.54015e-19)
(0.0763598 -0.00152756 -1.19819e-19)
(0.0925535 -0.0196003 1.66326e-19)
(0.105673 -0.0390434 -7.33635e-20)
(0.118872 -0.0576885 -8.43605e-20)
(0.13113 -0.0751694 7.77852e-20)
(0.142709 -0.0911096 4.41082e-20)
(0.153649 -0.105053 3.504e-20)
(0.164353 -0.116523 3.54024e-20)
(0.175115 -0.125472 -5.45151e-21)
(0.186163 -0.131441 -3.19107e-20)
(0.197961 -0.134319 1.38219e-20)
(0.210869 -0.133961 -1.4097e-20)
(0.225341 -0.130414 1.48555e-20)
(0.241783 -0.12383 -2.61714e-20)
(0.260595 -0.114526 2.4547e-20)
(0.282114 -0.102974 -4.67858e-21)
(0.306594 -0.089795 -2.27106e-20)
(0.0961858 0.0186886 -2.07993e-20)
(0.105982 -0.00402322 6.75668e-20)
(0.124934 -0.0218891 -4.94585e-19)
(0.140062 -0.0411651 1.766e-19)
(0.154619 -0.059627 -7.23106e-20)
(0.167745 -0.0769719 2.40658e-19)
(0.179742 -0.0928673 -6.79394e-20)
(0.190755 -0.106911 -7.21833e-20)
(0.201186 -0.118638 4.67841e-20)
(0.211387 -0.127921 -6.146e-20)
(0.221649 -0.134343 -3.89935e-20)
(0.232436 -0.137754 1.23538e-20)
(0.244146 -0.138002 -1.13788e-21)
(0.25725 -0.135103 -4.26189e-21)
(0.27218 -0.129188 1.0448e-19)
(0.289361 -0.120543 -4.28452e-20)
(0.309159 -0.109609 1.1968e-20)
(0.331859 -0.0969793 -1.12591e-20)
(0.126402 0.0163125 2.41695e-20)
(0.138946 -0.00717538 -3.83921e-19)
(0.160518 -0.0246491 -1.28591e-20)
(0.177371 -0.043574 -4.27816e-20)
(0.192983 -0.0616455 1.47413e-19)
(0.206696 -0.0786876 -1.82371e-19)
(0.218868 -0.0944191 -3.10858e-20)
(0.229751 -0.108468 7.62216e-20)
(0.239758 -0.120376 1.3148e-19)
(0.249282 -0.129947 -8.37372e-20)
(0.258667 -0.136787 -1.34779e-20)
(0.26838 -0.14071 -6.59269e-20)
(0.278849 -0.141548 7.91479e-20)
(0.290557 -0.139291 -1.31943e-20)
(0.303958 -0.134042 -1.15912e-20)
(0.319499 -0.126059 3.64919e-21)
(0.337567 -0.115752 -2.67189e-20)
(0.358475 -0.103684 3.69435e-21)
(0.247823 -0.0802302 -9.1536e-20)
(0.259876 -0.0956929 -5.28653e-20)
(0.270391 -0.109667 7.71391e-20)
(0.279796 -0.121696 -4.30821e-21)
(0.288513 -0.131519 3.19446e-20)
(0.296922 -0.138749 -9.483e-21)
(0.305494 -0.143166 -1.39766e-19)
(0.314676 -0.144585 1.20601e-19)
(0.324963 -0.142966 -2.98363e-20)
(0.336824 -0.138384 -2.16556e-20)
(0.35072 -0.131068 7.66214e-21)
(0.367059 -0.121396 -2.21964e-20)
(0.386176 -0.109902 4.78957e-20)
)
;

boundaryField
{
    inlet
    {
        type            uniformFixedValue;
        uniformValue    constant (1 0 0);
        value           nonuniform 0();
    }
    outlet
    {
        type            pressureInletOutletVelocity;
        value           nonuniform 0();
    }
    cylinder
    {
        type            fixedValue;
        value           nonuniform 0();
    }
    top
    {
        type            symmetryPlane;
    }
    bottom
    {
        type            symmetryPlane;
    }
    defaultFaces
    {
        type            empty;
    }
    procBoundary22to16
    {
        type            processor;
        value           nonuniform List<vector> 
33
(
(-0.0108082 0.0349455 1.82139e-21)
(-0.015419 0.03364 -8.74988e-23)
(-0.0195655 0.0321743 9.20319e-22)
(-0.0233531 0.0305047 8.13835e-22)
(-0.0269171 0.0286159 3.96083e-23)
(-0.0303605 0.02651 2.24401e-22)
(-0.0337576 0.0241991 -1.05477e-21)
(-0.0371553 0.0217004 7.23058e-22)
(-0.0371553 0.0217004 7.23058e-22)
(-0.0399554 0.0133743 -3.70925e-21)
(-0.0434839 0.0105759 1.06921e-20)
(-0.0470722 0.00767088 3.01007e-21)
(-0.050691 0.00468888 -3.84778e-21)
(-0.0543335 0.00171238 -1.10217e-21)
(-0.057945 -0.00153605 -2.3899e-21)
(-0.0616114 -0.00567663 7.21305e-21)
(-0.0689082 -0.0133221 -2.63902e-21)
(-0.0782029 -0.0221185 1.11832e-21)
(-0.0845505 -0.0312163 -2.18457e-21)
(-0.0883568 -0.0403266 -1.01745e-21)
(-0.0890389 -0.0491459 6.51686e-21)
(-0.0866784 -0.0572096 -3.95457e-21)
(-0.0811932 -0.0640616 -1.38175e-21)
(-0.0726291 -0.0691927 2.89658e-21)
(-0.0609255 -0.0721437 -5.29442e-22)
(-0.0460871 -0.0723622 -1.14998e-21)
(-0.0280344 -0.069657 3.74802e-22)
(-0.00673228 -0.0637671 3.26105e-21)
(0.0178717 -0.0547316 -1.97643e-21)
(0.0458411 -0.0426656 -4.1359e-22)
(0.0770777 -0.028028 -1.27553e-23)
(0.11148 -0.0114017 -8.07387e-22)
(0.14881 0.0064404 9.79076e-22)
)
;
    }
    procBoundary22to21
    {
        type            processor;
        value           nonuniform List<vector> 
16
(
(-0.00901225 0.057994 1.97895e-20)
(-0.0235134 0.0518853 4.36593e-20)
(-0.0180097 0.0436673 5.14912e-20)
(-0.0180097 0.0436673 5.14912e-20)
(-0.0120373 0.0535346 3.88127e-20)
(-0.0159882 0.0710055 1.68706e-19)
(-0.0311611 0.0691464 9.01446e-20)
(-0.0311611 0.0691464 9.01446e-20)
(-0.0338198 0.0608408 1.09356e-19)
(-0.0259541 0.0601465 -1.49952e-19)
(-0.0259541 0.0601465 -1.49952e-19)
(-0.0227824 0.0632311 -2.0271e-19)
(-0.0227824 0.0632311 -2.0271e-19)
(-0.0230941 0.0647863 -6.72055e-20)
(-0.0191534 0.0578595 3.12381e-19)
(-0.0191534 0.0578595 3.12381e-19)
)
;
    }
    procBoundary22to23
    {
        type            processor;
        value           nonuniform List<vector> 
16
(
(0.182561 0.0139706 -5.9259e-23)
(0.179415 0.00337596 1.90063e-21)
(0.179348 -0.00713583 7.36529e-22)
(0.182376 -0.0175101 1.24395e-21)
(0.188472 -0.0276892 -5.65438e-22)
(0.197561 -0.0376229 -2.50731e-22)
(0.209536 -0.0472635 1.44009e-21)
(0.224254 -0.0565697 3.04347e-21)
(0.241538 -0.0655054 -2.50727e-22)
(0.261179 -0.0740386 -2.82498e-21)
(0.261179 -0.0740386 -2.82498e-21)
(0.312292 -0.0676563 -1.08033e-21)
(0.334171 -0.0757431 4.45235e-21)
(0.357633 -0.0833797 -1.9616e-20)
(0.382428 -0.0905528 1.30656e-21)
(0.4083 -0.097254 6.38253e-20)
)
;
    }
    procBoundary22to27
    {
        type            processor;
        value           nonuniform List<vector> 
11
(
(-0.00731678 0.0502798 2.21948e-19)
(-0.00731678 0.0502798 2.21948e-19)
(0.0101996 0.0429612 1.5215e-19)
(0.0101996 0.0429612 1.5215e-19)
(0.0335048 0.0350817 2.05785e-18)
(0.0335048 0.0350817 2.05785e-18)
(0.0637272 0.0268128 2.13035e-18)
(0.0637272 0.0268128 2.13035e-18)
(0.101941 0.0187496 5.53733e-20)
(0.101941 0.0187496 5.53733e-20)
(0.149302 0.0114925 1.62739e-18)
)
;
    }
    procBoundary22to28
    {
        type            processor;
        value           nonuniform List<vector> 
26
(
(0.14862 0.0130353 2.24082e-19)
(0.168969 0.0122709 6.34165e-20)
(0.160272 0.0127672 6.50657e-20)
(0.139243 0.0122305 -1.24687e-18)
(0.14862 0.0130353 2.24082e-19)
(0.159957 0.00944672 1.45478e-18)
(0.139243 0.0122305 -1.24687e-18)
(0.160272 0.0127672 6.50657e-20)
(0.175617 -0.0102916 1.5519e-19)
(0.19947 -0.0277456 -1.03746e-19)
(0.217635 -0.0461621 1.59093e-19)
(0.233886 -0.0636422 -2.65968e-19)
(0.233886 -0.0636422 -2.65968e-19)
(0.290939 -0.0814992 -4.37002e-20)
(0.302532 -0.0966102 1.09339e-19)
(0.312415 -0.110451 -2.24554e-20)
(0.321022 -0.122552 -2.6601e-20)
(0.32879 -0.132601 -1.68046e-19)
(0.336119 -0.140202 1.7248e-20)
(0.34348 -0.145103 1.21446e-19)
(0.351333 -0.147097 -2.03217e-20)
(0.360175 -0.146114 -1.91723e-20)
(0.370488 -0.142203 4.24282e-20)
(0.382744 -0.135559 -2.09993e-20)
(0.397363 -0.126532 1.25885e-20)
(0.414698 -0.115622 -3.23772e-20)
)
;
    }
}


// ************************************************************************* //
