/*--------------------------------*- C++ -*----------------------------------*\
  =========                 |
  \\      /  F ield         | OpenFOAM: The Open Source CFD Toolbox
   \\    /   O peration     | Website:  https://openfoam.org
    \\  /    A nd           | Version:  7
     \\/     M anipulation  |
\*---------------------------------------------------------------------------*/
FoamFile
{
    version     2.0;
    format      ascii;
    class       volScalarField;
    location    "12";
    object      p;
}
// * * * * * * * * * * * * * * * * * * * * * * * * * * * * * * * * * * * * * //

dimensions      [0 2 -2 0 0 0 0];

internalField   nonuniform List<scalar> 
433
(
-33.7608
-29.1856
-25.9032
-23.5898
-21.975
-20.8431
-20.0298
-11.6062
-14.8108
-16.826
-17.9993
-18.5962
-18.8151
-18.7966
-18.6351
-18.3907
-18.1
-17.7841
-17.4543
-17.1165
-16.7737
-16.4273
-16.0781
-15.7267
-15.3738
1.74456
-5.30151
-10.2013
-13.4429
-15.4624
-16.6242
-17.2098
-17.4242
-17.4094
-17.2588
-17.0309
-16.7605
-16.4673
-16.1617
-15.8491
-15.5321
-15.2119
-14.8894
-14.5652
-14.2401
-13.9135
-13.5856
-13.2561
-19.094
-18.1563
-17.6689
-17.4157
-17.2668
-17.1477
-17.0201
-16.8682
-16.6888
-16.4842
-16.2587
-16.0168
-15.7621
-15.4974
-15.2246
-14.9453
-14.6606
-14.3715
-14.0789
-13.7838
-13.4859
-13.1857
-12.8831
-37.9801
-30.3893
-25.1455
-21.6298
-19.3434
-17.8946
-16.9824
-16.3997
-16.0078
-15.718
-15.4768
-15.254
-15.0337
-14.8085
-14.5755
-14.3343
-14.0856
-13.8304
-13.5697
-13.3046
-13.0356
-12.7631
-12.4877
-23.7146
-21.4877
-19.7271
-18.3513
-17.3069
-16.5383
-15.9832
-15.5828
-15.2873
-15.0561
-14.8599
-14.6788
-14.5004
-14.3176
-14.127
-13.9274
-13.7188
-13.5019
-13.2776
-13.0468
-12.8106
-12.5695
-12.324
-12.0755
11.8165
2.93267
-3.30696
-7.56154
-10.3493
-12.0907
-13.1158
-13.6696
-13.9279
-14.0066
-13.9793
-13.8907
-13.7662
-13.6199
-13.459
-13.2871
-13.106
-12.9168
-12.7203
-12.5171
-12.308
-12.0935
-11.8741
-11.6517
-0.517248
-4.80214
-7.88975
-10.0306
-11.4428
-12.3215
-12.8285
-13.0879
-13.1885
-13.1906
-13.1329
-13.0388
-12.922
-12.7898
-12.6461
-12.4929
-12.3312
-12.1618
-11.9851
-11.8019
-11.6128
-11.4183
-11.2211
-24.7658
-20.1356
-17.1219
-15.2201
-14.0585
-13.3715
-12.973
-12.7419
-12.5987
-12.4965
-12.4085
-12.3208
-12.2264
-12.1224
-12.0081
-11.8837
-11.7497
-11.6068
-11.4557
-11.2972
-11.1321
-10.9612
-10.788
-29.1707
-23.1252
-18.9409
-16.1437
-14.342
-13.2243
-12.5556
-12.1657
-11.9421
-11.8077
-11.7158
-11.6397
-11.5646
-11.4833
-11.393
-11.2926
-11.1825
-11.063
-10.935
-10.799
-10.6561
-10.5072
-10.3565
-5.22868
-7.57707
-9.09556
-10.031
-10.5775
-10.8769
-11.027
-11.09
-11.1034
-11.088
-11.0546
-11.0086
-10.9523
-10.8866
-10.8119
-10.7284
-10.6363
-10.5359
-10.4275
-10.3114
-10.1885
-10.0597
-9.92972
1.97704
-2.68482
-5.81143
-7.82522
-9.05263
-9.76413
-10.1508
-10.3411
-10.4178
-10.4312
-10.4098
-10.369
-10.3163
-10.2547
-10.1857
-10.1093
-10.0256
-9.93469
-9.8365
-9.73171
-9.62129
-9.51044
-8.70719
-9.04871
-9.32932
-9.5374
-9.67889
-9.76653
-9.81408
-9.83293
-9.8316
-9.81581
-9.78903
-9.75317
-9.70917
-9.65745
-9.59815
-9.53136
-9.45716
-9.37566
-9.28758
-9.194
-9.10068
-16.338
-13.4147
-11.5865
-10.494
-9.87346
-9.53923
-9.37341
-9.29667
-9.26264
-9.24517
-9.23026
-9.21109
-9.18469
-9.15007
-9.10712
-9.05605
-8.99718
-8.93082
-8.85784
-8.7795
-8.70208
-10.6792
-9.83409
-9.31069
-9.00674
-8.84415
-8.76637
-8.73567
-8.72685
-8.72505
-8.72204
-8.71361
-8.69793
-8.6744
-8.643
-8.60394
-8.55749
-8.50389
-8.44398
-8.37907
-8.31584
-6.10079
-7.05206
-7.61283
-7.93227
-8.10574
-8.19661
-8.2415
-8.2609
-8.26559
-8.26083
-8.24889
-8.23057
-8.20609
-8.17542
-8.13853
-6.51034
-7.11274
-7.45934
-7.6503
-7.75054
-7.80014
-7.82234
-7.82967
-7.82827
-7.82076
-7.58591
-7.45306
-7.39671
-7.38041
-7.38268
-9.3502
-9.21973
-9.80386
-9.65442
-9.49535
-9.32747
-10.297
-10.1244
-9.94019
-9.74553
-10.8346
-10.6336
-10.4185
-10.1913
-11.4222
-11.1855
-10.9324
-10.6654
-12.0621
-11.7815
-11.4817
-11.1664
-12.7482
-12.415
-12.0603
-11.6889
-8.46089
-8.29249
-8.12032
-7.94521
-7.76795
-7.58938
-7.4103
-9.15167
-8.96893
-8.78023
-8.58659
-8.38904
-8.18859
-7.9862
-7.78285
-7.57946
-9.54173
-9.33014
-9.1121
-8.88895
-8.66199
-8.43245
-8.20152
-7.97029
-7.73979
-9.9537
-9.70762
-9.45487
-9.1972
-8.93622
-8.67347
-8.41032
-8.148
-7.88763
-10.387
-10.0997
-9.80594
-9.50799
-9.20788
-8.90743
-8.60824
-8.31169
-8.01895
-10.8391
-10.5029
-10.1611
-9.81645
-9.47152
-9.12848
-8.78916
-8.4551
-11.3054
-10.9138
-10.5181
-10.1217
-9.72768
-9.33849
-8.9562
-8.58244
)
;

boundaryField
{
    inlet
    {
        type            zeroGradient;
    }
    outlet
    {
        type            fixedValue;
        value           nonuniform 0();
    }
    cylinder
    {
        type            zeroGradient;
    }
    top
    {
        type            symmetryPlane;
    }
    bottom
    {
        type            symmetryPlane;
    }
    defaultFaces
    {
        type            empty;
    }
    procBoundary8to1
    {
        type            processor;
        value           nonuniform List<scalar> 7(-9.47237 -9.94296 -10.4569 -11.02 -11.6399 -12.3201 -13.0553);
    }
    procBoundary8to2
    {
        type            processor;
        value           nonuniform List<scalar> 
15
(
-8.9306
-8.81629
-9.08139
-9.08139
-8.93569
-8.15491
-8.00812
-7.85785
-7.70476
-7.54951
-7.39278
-7.23526
-8.78324
-8.62473
-8.62473
)
;
    }
    procBoundary8to3
    {
        type            processor;
        value           nonuniform List<scalar> 
11
(
-7.99328
-7.94258
-8.21841
-7.2315
-7.37693
-7.51099
-7.63021
-7.73097
-8.12748
-8.12748
-8.21841
)
;
    }
    procBoundary8to7
    {
        type            processor;
        value           nonuniform List<scalar> 
24
(
-33.525
-28.9566
-25.8243
-23.7038
-22.2665
-21.2709
-20.5477
-19.4162
-19.4162
-18.9211
-18.4915
-18.0952
-17.7134
-17.3365
-16.9596
-16.5812
-16.2009
-15.8194
-15.02
-15.02
-14.6662
-14.3118
-13.9568
-13.6011
)
;
    }
    procBoundary8to9
    {
        type            processor;
        value           nonuniform List<scalar> 
17
(
-8.09536
-8.04654
-7.80801
-7.79015
-7.76704
-8.09536
-7.73849
-7.39143
-7.40021
-7.40579
-7.80801
-7.40666
-7.22437
-7.06283
-6.99834
-7.39143
-6.9829
)
;
    }
    procBoundary8to14
    {
        type            processor;
        value           nonuniform List<scalar> 
28
(
-39.9938
-39.9938
-6.76356
11.5038
-20.8282
-48.6508
-48.6508
-26.3123
23.9966
5.18714
5.18714
-31.6345
-37.6823
-1.70342
8.71026
8.71026
-8.33985
-8.33985
-20.8366
-11.9754
-11.9754
-4.54998
-4.54998
-5.50554
-5.50554
-7.85332
-7.85332
-7.56476
)
;
    }
}


// ************************************************************************* //
