/*--------------------------------*- C++ -*----------------------------------*\
  =========                 |
  \\      /  F ield         | OpenFOAM: The Open Source CFD Toolbox
   \\    /   O peration     | Website:  https://openfoam.org
    \\  /    A nd           | Version:  7
     \\/     M anipulation  |
\*---------------------------------------------------------------------------*/
FoamFile
{
    version     2.0;
    format      ascii;
    class       volVectorField;
    location    "24";
    object      U;
}
// * * * * * * * * * * * * * * * * * * * * * * * * * * * * * * * * * * * * * //

dimensions      [0 1 -1 0 0 0 0];

internalField   nonuniform List<vector> 
433
(
(1.0001 -0.000312274 0)
(1.00287 -0.000888548 0)
(1.0073 -0.0013511 0)
(1.01253 -0.00171121 0)
(1.01791 -0.0019813 0)
(1.0231 -0.00217826 0)
(1.02789 -0.00231376 0)
(1.0322 -0.00240728 0)
(1.036 -0.00245997 0)
(1.03935 -0.00250839 0)
(1.0001 -0.000929721 0)
(1.00289 -0.00264023 0)
(1.00736 -0.00401726 0)
(1.01264 -0.00509182 0)
(1.01808 -0.00589828 0)
(1.02334 -0.00648655 0)
(1.02818 -0.00689151 0)
(1.03256 -0.00717092 0)
(1.0364 -0.00732876 0)
(1.0398 -0.00747061 0)
(1.0001 -0.0015333 0)
(1.00293 -0.00434885 0)
(1.00748 -0.00662358 0)
(1.01285 -0.00840441 0)
(1.01841 -0.00974305 0)
(1.02378 -0.0107207 0)
(1.02874 -0.0113943 0)
(1.03323 -0.0118595 0)
(1.03717 -0.012122 0)
(1.04068 -0.012358 0)
(1.0001 -0.00212511 0)
(1.00299 -0.00602757 0)
(1.00764 -0.00919128 0)
(1.01315 -0.0116776 0)
(1.01886 -0.0135514 0)
(1.0244 -0.0149232 0)
(1.02953 -0.0158696 0)
(1.03418 -0.0165245 0)
(1.03825 -0.0168932 0)
(1.04192 -0.0172272 0)
(1.00011 -0.00270781 0)
(1.00306 -0.00768501 0)
(1.00783 -0.0117354 0)
(1.01351 -0.0149334 0)
(1.01942 -0.0173523 0)
(1.02518 -0.0191292 0)
(1.03052 -0.0203573 0)
(1.03538 -0.0212096 0)
(1.03962 -0.0216882 0)
(1.0435 -0.0221258 0)
(1.00011 -0.00328309 0)
(1.00313 -0.00932646 0)
(1.00805 -0.0142662 0)
(1.01393 -0.0181884 0)
(1.02007 -0.0211685 0)
(1.02609 -0.0233674 0)
(1.03168 -0.0248909 0)
(1.0368 -0.0259519 0)
(1.04126 -0.0265463 0)
(1.04539 -0.0270954 0)
(1.00011 -0.00385165 0)
(1.00321 -0.0109546 0)
(1.00828 -0.0167903 0)
(1.01438 -0.0214544 0)
(1.02078 -0.0250177 0)
(1.0271 -0.0276609 0)
(1.03299 -0.0294981 0)
(1.03841 -0.0307832 0)
(1.04311 -0.0315014 0)
(1.04755 -0.0321727 0)
(1.00011 -0.00441337 0)
(1.00329 -0.0125695 0)
(1.00851 -0.0193103 0)
(1.01484 -0.0247383 0)
(1.02153 -0.0289121 0)
(1.02819 -0.0320279 0)
(1.03441 -0.034202 0)
(1.04017 -0.0357306 0)
(1.04516 -0.0365835 0)
(1.04994 -0.0373903 0)
(1.00011 -0.00496737 0)
(1.00337 -0.0141692 0)
(1.00873 -0.0218256 0)
(1.0153 -0.0280432 0)
(1.0223 -0.0328597 0)
(1.02931 -0.036482 0)
(1.0359 -0.0390216 0)
(1.04206 -0.0408178 0)
(1.04737 -0.041819 0)
(1.05254 -0.0427778 0)
(1.00011 -0.00551215 0)
(1.00343 -0.0157497 0)
(1.00893 -0.0243323 0)
(1.01573 -0.0313679 0)
(1.02305 -0.0368642 0)
(1.03046 -0.0410328 0)
(1.03745 -0.0439719 0)
(1.04403 -0.0460649 0)
(1.0497 -0.0472317 0)
(1.05531 -0.0483625 0)
(1.00011 -0.00604562 0)
(1.00348 -0.017305 0)
(1.00909 -0.0268238 0)
(1.01612 -0.0347076 0)
(1.02375 -0.0409252 0)
(1.03157 -0.0456861 0)
(1.039 -0.0490648 0)
(1.04605 -0.0514894 0)
(1.05212 -0.052843 0)
(1.05822 -0.0541699 0)
(1.00011 -0.00656521 0)
(1.0035 -0.0188279 0)
(1.0092 -0.0292909 0)
(1.01644 -0.038054 0)
(1.02439 -0.0450386 0)
(1.03263 -0.0504439 0)
(1.04052 -0.0543088 0)
(1.04808 -0.0571064 0)
(1.05459 -0.0586724 0)
(1.06122 -0.0602241 0)
(1.00011 -0.00706799 0)
(1.00351 -0.0203097 0)
(1.00926 -0.0317221 0)
(1.01667 -0.0413954 0)
(1.02492 -0.0491966 0)
(1.0336 -0.0553045 0)
(1.04196 -0.0597095 0)
(1.05008 -0.0629283 0)
(1.05706 -0.0647378 0)
(1.06428 -0.0665484 0)
(1.00011 -0.00755074 0)
(1.00348 -0.0217407 0)
(1.00924 -0.034104 0)
(1.01679 -0.0447173 0)
(1.02532 -0.0533877 0)
(1.03442 -0.0602628 0)
(1.04329 -0.0652692 0)
(1.05199 -0.0689655 0)
(1.05949 -0.0710556 0)
(1.06734 -0.0731653 0)
(1.00011 -0.00801004 0)
(1.00342 -0.0231106 0)
(1.00913 -0.0364215 0)
(1.01678 -0.0480022 0)
(1.02554 -0.057597 0)
(1.03507 -0.0653097 0)
(1.04446 -0.0709871 0)
(1.05377 -0.0752261 0)
(1.06184 -0.0776409 0)
(1.07037 -0.080097 0)
(1.0001 -0.00844238 0)
(1.00332 -0.0244086 0)
(1.00893 -0.0386583 0)
(1.01661 -0.05123 0)
(1.02556 -0.0618064 0)
(1.0355 -0.0704326 0)
(1.0454 -0.0768593 0)
(1.05537 -0.0817159 0)
(1.06405 -0.0845076 0)
(1.07331 -0.0873656 0)
(1.0001 -0.00884423 0)
(1.00318 -0.0256238 0)
(1.00862 -0.0407969 0)
(1.01626 -0.0543784 0)
(1.02535 -0.0659943 0)
(1.03566 -0.0756147 0)
(1.04608 -0.0828782 0)
(1.05673 -0.0884381 0)
(1.06606 -0.0916683 0)
(1.07611 -0.0949934 0)
(1.0001 -0.00921215 0)
(1.00299 -0.0267456 0)
(1.0082 -0.0428196 0)
(1.01572 -0.0574233 0)
(1.02488 -0.0701362 0)
(1.03551 -0.0808353 0)
(1.04644 -0.0890329 0)
(1.05779 -0.0953934 0)
(1.06783 -0.0991343 0)
(1.0787 -0.103003 0)
(1.00009 -0.00954291 0)
(1.00276 -0.0277638 0)
(1.00766 -0.0447083 0)
(1.01497 -0.0603392 0)
(1.02411 -0.0742049 0)
(1.03501 -0.0860697 0)
(1.04643 -0.0953085 0)
(1.05848 -0.10258 0)
(1.06928 -0.106916 0)
(1.08103 -0.111416 0)
(1.00009 -0.0098335 0)
(1.00248 -0.028669 0)
(1.00699 -0.046445 0)
(1.014 -0.0630996 0)
(1.02302 -0.0781703 0)
(1.03411 -0.0912886 0)
(1.04598 -0.101686 0)
(1.05875 -0.109991 0)
(1.07035 -0.11502 0)
(1.08304 -0.120258 0)
(1.00009 -0.0100813 0)
(1.00215 -0.0294528 0)
(1.00621 -0.0480127 0)
(1.01279 -0.0656776 0)
(1.02159 -0.0820001 0)
(1.03278 -0.0964587 0)
(1.04505 -0.108142 0)
(1.05853 -0.117617 0)
(1.07098 -0.123455 0)
(1.08465 -0.129551 0)
(1.00008 -0.010284 0)
(1.00178 -0.0301082 0)
(1.00529 -0.0493951 0)
(1.01134 -0.0680465 0)
(1.0198 -0.0856601 0)
(1.03097 -0.101542 0)
(1.04358 -0.114649 0)
(1.05775 -0.125444 0)
(1.0711 -0.132225 0)
(1.08579 -0.139321 0)
(1.00008 -0.0104398 0)
(1.00135 -0.0306295 0)
(1.00426 -0.0505771 0)
(1.00964 -0.0701803 0)
(1.01764 -0.0891142 0)
(1.02866 -0.106497 0)
(1.04152 -0.121173 0)
(1.05634 -0.133452 0)
(1.07062 -0.14133 0)
(1.08639 -0.149593 0)
(1.00008 -0.0105476 0)
(1.00089 -0.0310124 0)
(1.00311 -0.0515456 0)
(1.0077 -0.0720547 0)
(1.0151 -0.0923251 0)
(1.02581 -0.111278 0)
(1.03882 -0.127676 0)
(1.05424 -0.141614 0)
(1.06948 -0.150771 0)
(1.08637 -0.160394 0)
(1.00008 -0.0106065 0)
(1.00038 -0.0312545 0)
(1.00186 -0.0522893 0)
(1.00552 -0.0736472 0)
(1.01217 -0.095255 0)
(1.0224 -0.115837 0)
(1.03544 -0.134114 0)
(1.05136 -0.149896 0)
(1.06759 -0.160542 0)
(1.08563 -0.171749 0)
(1.00008 -0.0106165 0)
(0.999839 -0.0313549 0)
(1.0005 -0.0527993 0)
(1.0031 -0.0749377 0)
(1.00888 -0.0978655 0)
(1.01841 -0.120122 0)
(1.03135 -0.140438 0)
(1.04764 -0.158255 0)
(1.06488 -0.170636 0)
(1.0841 -0.183684 0)
(1.00008 -0.0105781 0)
(0.999267 -0.0313141 0)
(0.999054 -0.0530693 0)
(1.00048 -0.0759095 0)
(1.00523 -0.100119 0)
(1.01383 -0.12408 0)
(1.02651 -0.146589 0)
(1.04302 -0.166639 0)
(1.06126 -0.181041 0)
(1.08168 -0.196222 0)
(1.00008 -0.0104922 0)
(0.998671 -0.0311344 0)
(0.997531 -0.0530958 0)
(0.997664 -0.0765491 0)
(1.00123 -0.101979 0)
(1.00866 -0.127661 0)
(1.0209 -0.152504 0)
(1.03741 -0.174986 0)
(1.05665 -0.191738 0)
(1.07826 -0.209382 0)
(1.00008 -0.0103605 0)
(0.998057 -0.0308193 0)
(0.995943 -0.0528782 0)
(0.994678 -0.0768465 0)
(0.99691 -0.103413 0)
(1.00292 -0.130813 0)
(1.01453 -0.15811 0)
(1.03077 -0.183225 0)
(1.05097 -0.202705 0)
(1.07373 -0.223171 0)
(1.04125 -0.00248229 -2.39988e-22)
(1.04198 -0.0024721 -5.72344e-23)
(1.0427 -0.00246185 3.32235e-22)
(1.04343 -0.00245159 -3.66403e-22)
(1.04172 -0.00739946 2.56768e-22)
(1.04244 -0.00737209 2.06462e-22)
(1.04317 -0.00734458 -9.36475e-24)
(1.04389 -0.00731701 -3.22277e-22)
(1.04262 -0.0122385 -2.98804e-22)
(1.04334 -0.0121927 1.55495e-22)
(1.04407 -0.0121466 -1.60421e-22)
(1.0448 -0.0121004 4.27043e-22)
(1.0439 -0.0170561 9.07139e-23)
(1.04464 -0.016991 1.60263e-22)
(1.04537 -0.0169256 -8.4437e-22)
(1.04611 -0.0168599 -4.02097e-24)
(1.04553 -0.0218977 6.8443e-22)
(1.04628 -0.0218115 -5.90377e-22)
(1.04703 -0.0217248 4.82394e-22)
(1.04779 -0.0216381 1.13772e-21)
(1.04748 -0.0268044 1.48362e-24)
(1.04825 -0.0266949 5.02079e-22)
(1.04902 -0.0265851 -1.66593e-22)
(1.04979 -0.0264754 2.75244e-22)
(1.05058 -0.0263657 -2.06841e-22)
(1.04972 -0.0318115 -1.8625e-21)
(1.05051 -0.0316763 1.13715e-21)
(1.0513 -0.0315409 7.42934e-22)
(1.0521 -0.0314057 -5.1784e-23)
(1.0529 -0.0312708 -1.85962e-22)
(1.05221 -0.0369512 6.40391e-22)
(1.05303 -0.0367873 -2.64566e-21)
(1.05384 -0.0366236 -1.77497e-21)
(1.05467 -0.0364604 3.58104e-22)
(1.05551 -0.0362976 7.91791e-22)
(1.05492 -0.0422523 1.66002e-21)
(1.05577 -0.0420567 2.47924e-21)
(1.05662 -0.0418615 9.18762e-22)
(1.05748 -0.0416672 1.12157e-21)
(1.05835 -0.0414737 2.17083e-22)
(1.05782 -0.0477417 -3.47075e-22)
(1.05872 -0.0475109 -7.46861e-22)
(1.0596 -0.0472811 -9.95217e-22)
(1.0605 -0.0470525 -1.70938e-21)
(1.06141 -0.046825 3.89998e-22)
(1.06087 -0.0534444 -3.21293e-22)
(1.06182 -0.0531751 -1.44785e-21)
(1.06275 -0.052907 2.77708e-22)
(1.06369 -0.0526407 -3.69241e-22)
(1.06466 -0.0523759 -1.13917e-21)
(1.06405 -0.0593844 1.52313e-21)
(1.06506 -0.0590727 9.96976e-22)
(1.06604 -0.0587627 1.93604e-21)
(1.06703 -0.0584551 -4.72933e-23)
(1.06805 -0.0581494 -1.45508e-21)
(1.06731 -0.0655847 -2.0873e-21)
(1.06838 -0.0652268 7.91992e-22)
(1.06942 -0.0648712 -1.46431e-21)
(1.07048 -0.0645184 1.8297e-21)
(1.07157 -0.064168 -1.15076e-22)
(1.0706 -0.0720679 1.35608e-21)
(1.07176 -0.0716599 -5.66636e-22)
(1.07287 -0.0712547 -7.58332e-22)
(1.07401 -0.0708528 -4.50073e-22)
(1.07517 -0.0704538 -1.76861e-22)
(1.0739 -0.0788564 -1.37041e-21)
(1.07515 -0.0783944 -7.91168e-22)
(1.07635 -0.0779355 1.43932e-21)
(1.07757 -0.0774805 7.63001e-22)
(1.07883 -0.0770288 4.71189e-22)
(1.07715 -0.0859726 -4.97946e-22)
(1.07851 -0.0854526 -1.8071e-22)
(1.07981 -0.0849361 -7.04074e-22)
(1.08113 -0.0844239 -1.11762e-21)
(1.08249 -0.0839154 8.52018e-22)
(1.0803 -0.0934393 5.40375e-22)
(1.0818 -0.0928575 -3.33307e-21)
(1.08321 -0.0922793 1.88805e-22)
(1.08465 -0.0917058 -3.23009e-22)
(1.08613 -0.0911363 2.66742e-22)
(1.08331 -0.10128 1.75737e-21)
(1.08495 -0.100632 2.26596e-21)
(1.08651 -0.0999886 -7.56278e-22)
(1.08808 -0.0993498 2.97049e-22)
(1.08969 -0.098715 -2.6656e-22)
(1.08611 -0.109517 3.24394e-21)
(1.08794 -0.108801 9.78366e-22)
(1.08965 -0.108088 2.41698e-21)
(1.09138 -0.10738 3.0888e-21)
(1.09315 -0.106676 1.92387e-22)
(1.08866 -0.118178 -2.14764e-22)
(1.09069 -0.11739 3.73222e-21)
(1.09259 -0.116604 -1.21174e-21)
(1.0945 -0.115823 -4.92662e-21)
(1.09646 -0.115045 -2.09355e-21)
(1.09089 -0.127287 -1.34662e-21)
(1.09316 -0.126424 -6.60272e-21)
(1.09527 -0.125563 -1.17049e-23)
(1.09739 -0.124705 3.59884e-21)
(1.09956 -0.123849 -1.28785e-21)
(1.09274 -0.136871 -6.89389e-21)
(1.09528 -0.135933 1.73466e-21)
(1.09764 -0.134993 -1.69576e-21)
(1.10001 -0.134055 -2.40451e-21)
(1.10242 -0.133118 3.32188e-21)
(1.09414 -0.146961 9.20622e-21)
(1.09701 -0.145946 4.0641e-21)
(1.09966 -0.144925 1.92465e-21)
(1.1023 -0.143905 -1.75389e-21)
(1.10498 -0.142883 -2.68761e-21)
(1.09503 -0.157585 -1.10538e-20)
(1.09826 -0.156494 -9.14665e-22)
(1.10125 -0.155393 -2.04184e-21)
(1.1042 -0.154288 4.39946e-21)
(1.10721 -0.153179 -1.34709e-21)
(1.09533 -0.168778 8.7705e-21)
(1.09899 -0.167613 -7.37648e-22)
(1.10236 -0.166431 5.82196e-21)
(1.10568 -0.165241 -1.70663e-21)
(1.10904 -0.164042 6.63471e-21)
(1.09497 -0.180571 -1.00705e-21)
(1.09912 -0.179337 -3.19805e-22)
(1.10292 -0.178078 -3.25535e-21)
(1.10666 -0.176804 -1.86833e-21)
(1.11043 -0.175515 -5.87296e-21)
(1.09386 -0.193 -9.24233e-22)
(1.09857 -0.191707 -7.21963e-21)
(1.10288 -0.190375 2.7388e-21)
(1.10709 -0.18902 4.74368e-22)
(1.11133 -0.18764 7.21108e-21)
(1.09191 -0.206098 -3.15841e-21)
(1.09726 -0.204758 1.15478e-20)
(1.10215 -0.203364 -3.37235e-21)
(1.1069 -0.201934 -3.49003e-21)
(1.11168 -0.200467 -3.49222e-21)
(1.08903 -0.219894 2.59224e-21)
(1.09511 -0.21853 -7.70191e-21)
(1.10066 -0.217089 3.37742e-21)
(1.10603 -0.215594 1.06355e-21)
(1.11141 -0.214047 -1.50603e-21)
(1.0983 -0.231588 3.61383e-21)
(1.10438 -0.230047 9.20384e-21)
(1.11044 -0.228432 -2.00511e-21)
)
;

boundaryField
{
    inlet
    {
        type            uniformFixedValue;
        uniformValue    constant (1 0 0);
        value           uniform (1 0 0);
    }
    outlet
    {
        type            pressureInletOutletVelocity;
        value           nonuniform 0();
    }
    cylinder
    {
        type            fixedValue;
        value           nonuniform 0();
    }
    top
    {
        type            symmetryPlane;
    }
    bottom
    {
        type            symmetryPlane;
    }
    defaultFaces
    {
        type            empty;
    }
    procBoundary0to1
    {
        type            processor;
        value           nonuniform List<vector> 
31
(
(1.04415 -0.00244139 -7.13268e-22)
(1.04462 -0.00728941 -4.70118e-22)
(1.04554 -0.012054 -3.40101e-22)
(1.04686 -0.0167942 3.2089e-22)
(1.04855 -0.0215513 3.80533e-22)
(1.04855 -0.0215513 3.80533e-22)
(1.05137 -0.0262561 1.1455e-22)
(1.05372 -0.0311361 -1.46725e-22)
(1.05635 -0.0361353 2.47204e-22)
(1.05924 -0.041281 -3.93027e-22)
(1.06234 -0.0465987 -6.45453e-22)
(1.06564 -0.0521126 -8.22357e-23)
(1.06909 -0.0578456 4.42465e-22)
(1.07268 -0.0638199 -3.37973e-23)
(1.07636 -0.0700575 -3.13879e-22)
(1.08011 -0.0765803 7.69465e-22)
(1.08388 -0.0834103 -6.93639e-22)
(1.08763 -0.0905703 1.10409e-21)
(1.09134 -0.0980837 -9.12164e-22)
(1.09496 -0.105975 2.33491e-22)
(1.09845 -0.11427 -1.16129e-21)
(1.10176 -0.122995 1.43009e-21)
(1.10486 -0.132181 -2.55862e-21)
(1.1077 -0.141859 1.51058e-21)
(1.11023 -0.152064 -7.45157e-22)
(1.11242 -0.162833 2.0862e-21)
(1.11422 -0.174208 -4.9658e-22)
(1.11558 -0.186235 -2.22487e-21)
(1.11645 -0.198964 3.73044e-21)
(1.11678 -0.212448 1.47285e-21)
(1.11649 -0.226745 -2.52019e-21)
)
;
    }
    procBoundary0to6
    {
        type            processor;
        value           nonuniform List<vector> 
16
(
(1.00007 -0.010185 0)
(0.997433 -0.0303735 0)
(0.994305 -0.0524191 0)
(0.991554 -0.0767957 0)
(0.992303 -0.10439 0)
(0.99664 -0.133486 0)
(1.0074 -0.163327 0)
(1.02303 -0.191276 0)
(1.04418 -0.213906 0)
(1.06796 -0.237582 0)
(1.08507 -0.234411 7.29679e-22)
(1.09199 -0.233053 -9.07805e-21)
(1.09199 -0.233053 -9.07805e-21)
(1.09496 -0.246896 5.35444e-22)
(1.10184 -0.245335 7.8585e-21)
(1.10869 -0.243673 8.59966e-22)
)
;
    }
}


// ************************************************************************* //
