/*--------------------------------*- C++ -*----------------------------------*\
  =========                 |
  \\      /  F ield         | OpenFOAM: The Open Source CFD Toolbox
   \\    /   O peration     | Website:  https://openfoam.org
    \\  /    A nd           | Version:  7
     \\/     M anipulation  |
\*---------------------------------------------------------------------------*/
FoamFile
{
    version     2.0;
    format      ascii;
    class       volVectorField;
    location    "9.2";
    object      U;
}
// * * * * * * * * * * * * * * * * * * * * * * * * * * * * * * * * * * * * * //

dimensions      [0 1 -1 0 0 0 0];

internalField   nonuniform List<vector> 
344
(
(0.256751 -0.00280224 -7.37612e-16)
(0.276779 0.00777253 -8.00881e-16)
(0.294781 0.0167579 -8.25319e-16)
(0.311142 0.024381 -8.79698e-16)
(0.32616 0.0308407 -9.00204e-16)
(0.340062 0.0363075 -9.42335e-16)
(0.353028 0.0409249 -9.53742e-16)
(0.365198 0.0448134 -9.92548e-16)
(0.376685 0.0480744 -9.98001e-16)
(0.387578 0.0507931 -1.02984e-15)
(0.397951 0.0530416 -1.03103e-15)
(0.407864 0.0548812 -1.06378e-15)
(0.417369 0.0563643 -1.08195e-15)
(0.426508 0.057536 -1.0739e-15)
(0.435317 0.0584352 -1.08353e-15)
(0.443826 0.0590957 -1.07573e-15)
(0.452062 0.059547 -1.0864e-15)
(0.460049 0.0598148 -1.07432e-15)
(0.467805 0.0599218 -1.08074e-15)
(0.475349 0.059888 -1.06865e-15)
(0.482696 0.059731 -1.0707e-15)
(0.489859 0.0594664 -1.05928e-15)
(0.496851 0.059108 -1.06093e-15)
(0.503682 0.0586681 -1.04603e-15)
(0.510362 0.0581576 -1.04289e-15)
(0.516899 0.0575862 -1.02901e-15)
(0.5233 0.0569626 -1.02619e-15)
(0.529573 0.0562945 -1.00969e-15)
(0.535724 0.0555887 -1.00408e-15)
(0.541758 0.0548515 -9.88606e-16)
(0.547681 0.0540881 -9.8022e-16)
(0.553496 0.0533036 -9.63508e-16)
(0.559209 0.0525022 -9.54385e-16)
(0.564822 0.0516878 -9.39822e-16)
(0.57034 0.0508637 -9.27674e-16)
(0.575766 0.0500332 -9.11599e-16)
(0.581102 0.0491987 -8.99911e-16)
(0.586352 0.0483628 -8.86721e-16)
(0.591517 0.0475275 -8.71632e-16)
(0.5966 0.0466948 -8.57613e-16)
(0.601604 0.0458661 -8.42565e-16)
(0.606529 0.045043 -8.27808e-16)
(0.611379 0.0442267 -8.1349e-16)
(0.616155 0.0434182 -7.98186e-16)
(0.620859 0.0426186 -7.84406e-16)
(0.625491 0.0418286 -7.68818e-16)
(0.630055 0.041049 -7.55493e-16)
(0.63455 0.0402802 -7.39742e-16)
(0.638979 0.0395229 -7.26706e-16)
(0.643343 0.0387773 -7.11046e-16)
(0.647643 0.0380438 -6.98364e-16)
(0.65188 0.0373228 -6.81559e-16)
(0.656055 0.0366143 -6.69709e-16)
(0.66017 0.0359185 -6.54182e-16)
(0.664226 0.0352355 -6.426e-16)
(0.668223 0.0345654 -6.24655e-16)
(0.672162 0.0339082 -6.12566e-16)
(0.676045 0.0332639 -5.9749e-16)
(-0.0109353 -0.0998691 -4.8401e-17)
(-0.00818218 -0.124663 -1.75662e-16)
(0.0251152 -0.117912 -2.25707e-16)
(0.0571456 -0.0974812 -3.57404e-16)
(0.0891191 -0.0758526 -4.22465e-16)
(0.117414 -0.0557687 -5.04836e-16)
(0.142449 -0.0380467 -5.24109e-16)
(0.164585 -0.0227648 -6.23456e-16)
(0.184353 -0.0097266 -6.59351e-16)
(0.202212 0.00134035 -7.16358e-16)
(0.218535 0.0107139 -7.21735e-16)
(0.233613 0.0186471 -7.95376e-16)
(0.247673 0.0253589 -8.20942e-16)
(0.260886 0.0310348 -8.61947e-16)
(0.273386 0.035829 -8.53314e-16)
(0.285278 0.0398702 -9.09424e-16)
(0.296645 0.0432655 -9.24546e-16)
(0.307551 0.0461043 -9.52822e-16)
(0.318051 0.0484618 -9.40439e-16)
(0.328187 0.0504017 -9.86969e-16)
(0.337996 0.0519781 -1.00764e-15)
(0.347508 0.0532374 -1.00412e-15)
(0.356747 0.0542196 -1.0101e-15)
(0.365737 0.0549592 -9.90445e-16)
(0.374494 0.0554862 -1.01098e-15)
(0.383036 0.055827 -1.00486e-15)
(0.391375 0.0560046 -1.01094e-15)
(0.399525 0.0560392 -9.92178e-16)
(0.407495 0.0559486 -1.00116e-15)
(0.415296 0.0557488 -9.94364e-16)
(0.422936 0.0554536 -9.96966e-16)
(0.430423 0.0550754 -9.76153e-16)
(0.437763 0.0546254 -9.81464e-16)
(0.444961 0.0541132 -9.70748e-16)
(0.452025 0.0535476 -9.66762e-16)
(0.458959 0.0529364 -9.47106e-16)
(0.465767 0.0522865 -9.47118e-16)
(0.472454 0.0516041 -9.33669e-16)
(0.479023 0.0508946 -9.26957e-16)
(0.485478 0.050163 -9.08283e-16)
(0.491822 0.0494135 -9.03675e-16)
(0.498059 0.0486502 -8.90733e-16)
(0.504191 0.0478764 -8.80273e-16)
(0.51022 0.0470952 -8.63935e-16)
(0.51615 0.0463093 -8.54728e-16)
(0.521983 0.0455211 -8.43385e-16)
(0.52772 0.0447327 -8.29969e-16)
(0.533365 0.043946 -8.1704e-16)
(0.538918 0.0431627 -8.03067e-16)
(0.544382 0.0423841 -7.89841e-16)
(0.549759 0.0416116 -7.76756e-16)
(0.555051 0.0408462 -7.63044e-16)
(0.560259 0.0400888 -7.51492e-16)
(0.565384 0.0393404 -7.36275e-16)
(0.570429 0.0386016 -7.23558e-16)
(0.575394 0.037873 -7.09605e-16)
(0.580282 0.037155 -6.99638e-16)
(0.585093 0.0364482 -6.83082e-16)
(0.58983 0.0357528 -6.70945e-16)
(0.594493 0.0350691 -6.55277e-16)
(0.599084 0.0343973 -6.47682e-16)
(0.603604 0.0337376 -6.31067e-16)
(0.608054 0.0330901 -6.19611e-16)
(0.612436 0.0324547 -6.02511e-16)
(0.61675 0.0318317 -5.91768e-16)
(0.620999 0.0312209 -5.78056e-16)
(-0.0127899 -0.0928503 -2.50036e-17)
(-0.0187793 -0.126832 -1.27207e-16)
(-0.000831074 -0.124306 -1.85952e-16)
(0.0202886 -0.10513 -2.94113e-16)
(0.0436391 -0.0835093 -3.56204e-16)
(0.0653977 -0.0629695 -4.33893e-16)
(0.085376 -0.0447345 -4.60432e-16)
(0.103551 -0.0289996 -5.52056e-16)
(0.120194 -0.0155955 -5.85267e-16)
(0.135581 -0.0042418 -6.43578e-16)
(0.149953 0.0053555 -6.54716e-16)
(0.163501 0.0134654 -7.25437e-16)
(0.176376 0.0203197 -7.4446e-16)
(0.18869 0.0261137 -7.87665e-16)
(0.200531 0.0310089 -7.85705e-16)
(0.211963 0.0351388 -8.33574e-16)
(0.223038 0.0386142 -8.49133e-16)
(0.233796 0.0415271 -8.81376e-16)
(0.244269 0.0439545 -8.75658e-16)
(0.254481 0.0459613 -9.16086e-16)
(0.264454 0.0476024 -9.37305e-16)
(0.274204 0.0489249 -9.33611e-16)
(0.283746 0.0499692 -9.38011e-16)
(0.293091 0.0507701 -9.25164e-16)
(0.302249 0.0513578 -9.41043e-16)
(0.31123 0.0517588 -9.34274e-16)
(0.32004 0.0519961 -9.43479e-16)
(0.328686 0.0520901 -9.30078e-16)
(0.337175 0.0520586 -9.36637e-16)
(0.34551 0.0519174 -9.28061e-16)
(0.353698 0.0516805 -9.33208e-16)
(0.361742 0.0513603 -9.16043e-16)
(0.369646 0.0509677 -9.19219e-16)
(0.377414 0.0505126 -9.10104e-16)
(0.385049 0.0500036 -9.0867e-16)
(0.392555 0.0494485 -8.93e-16)
(0.399933 0.0488542 -8.91158e-16)
(0.407187 0.0482268 -8.79131e-16)
(0.414319 0.0475718 -8.7314e-16)
(0.421332 0.0468941 -8.57395e-16)
(0.428228 0.046198 -8.52618e-16)
(0.43501 0.0454873 -8.41659e-16)
(0.441678 0.0447655 -8.322e-16)
(0.448237 0.0440356 -8.18158e-16)
(0.454687 0.0433004 -8.09439e-16)
(0.46103 0.0425622 -7.99561e-16)
(0.467269 0.0418231 -7.87037e-16)
(0.473405 0.041085 -7.75513e-16)
(0.47944 0.0403495 -7.62929e-16)
(0.485376 0.0396181 -7.50732e-16)
(0.491214 0.038892 -7.38843e-16)
(0.496956 0.0381723 -7.26409e-16)
(0.502605 0.0374599 -7.15515e-16)
(0.50816 0.0367558 -7.01955e-16)
(0.513625 0.0360605 -6.90743e-16)
(0.519001 0.0353747 -6.77471e-16)
(0.524289 0.0346988 -6.68048e-16)
(0.529491 0.0340333 -6.53147e-16)
(0.534607 0.0333786 -6.42582e-16)
(0.539641 0.0327348 -6.27482e-16)
(0.544593 0.0321023 -6.19684e-16)
(0.549465 0.0314811 -6.05775e-16)
(0.554257 0.0308714 -5.95539e-16)
(0.558972 0.0302732 -5.78926e-16)
(0.563612 0.0296866 -5.69657e-16)
(0.568176 0.0291116 -5.55721e-16)
(-0.0127238 -0.0846492 -1.93786e-18)
(-0.0248284 -0.125106 -9.64569e-17)
(-0.0195646 -0.126476 -1.40535e-16)
(-0.00846391 -0.109315 -2.48631e-16)
(0.00648882 -0.088424 -2.85798e-16)
(0.0216651 -0.0680094 -3.80638e-16)
(0.0364337 -0.0497042 -4.02669e-16)
(0.0504644 -0.0338545 -4.89609e-16)
(0.0637947 -0.0203471 -5.11512e-16)
(0.0765257 -0.00891445 -5.7906e-16)
(0.0887692 0.000739713 -5.83319e-16)
(0.100619 0.00889055 -6.57689e-16)
(0.112147 0.0157754 -6.69045e-16)
(0.123407 0.0215948 -7.16539e-16)
(0.134437 0.0265131 -7.14574e-16)
(0.145264 0.0306663 -7.65865e-16)
(0.155907 0.0341663 -7.71239e-16)
(0.16638 0.0371061 -8.11985e-16)
(0.176693 0.039563 -8.09731e-16)
(0.186853 0.0416021 -8.46037e-16)
(0.196864 0.0432784 -8.70392e-16)
(0.20673 0.0446387 -8.58188e-16)
(0.216454 0.0457233 -8.70672e-16)
(0.226038 0.0465669 -8.526e-16)
(0.235483 0.0471993 -8.74006e-16)
(0.244791 0.0476469 -8.62981e-16)
(0.253962 0.0479325 -8.79176e-16)
(0.262997 0.0480761 -8.61869e-16)
(0.271899 0.0480955 -8.73402e-16)
(0.280666 0.0480062 -8.61271e-16)
(0.2893 0.0478221 -8.71144e-16)
(0.297803 0.0475553 -8.53647e-16)
(0.306175 0.0472166 -8.59276e-16)
(0.314416 0.0468159 -8.4887e-16)
(0.322529 0.0463615 -8.51199e-16)
(0.330514 0.0458611 -8.36157e-16)
(0.338372 0.0453216 -8.35887e-16)
(0.346105 0.0447489 -8.23204e-16)
(0.353713 0.0441485 -8.20475e-16)
(0.361199 0.0435251 -8.04777e-16)
(0.368563 0.042883 -8.0176e-16)
(0.375807 0.042226 -7.90949e-16)
(0.382932 0.0415575 -7.84167e-16)
(0.38994 0.0408805 -7.70705e-16)
(0.396832 0.0401976 -7.63776e-16)
(0.40361 0.0395111 -7.5504e-16)
(0.410275 0.0388232 -7.43251e-16)
(0.416829 0.0381357 -7.33173e-16)
(0.423274 0.0374502 -7.2166e-16)
(0.42961 0.0367681 -7.10626e-16)
(0.43584 0.0360906 -7.00048e-16)
(0.441966 0.0354188 -6.88518e-16)
(0.447988 0.0347537 -6.78903e-16)
(0.453909 0.0340961 -6.66184e-16)
(0.45973 0.0334466 -6.56726e-16)
(0.465452 0.0328058 -6.43818e-16)
(0.471078 0.0321742 -6.35934e-16)
(0.476609 0.0315524 -6.21468e-16)
(0.482047 0.0309404 -6.12887e-16)
(0.487393 0.0303388 -5.98284e-16)
(0.492649 0.0297476 -5.92106e-16)
(0.497816 0.0291671 -5.78536e-16)
(0.502896 0.0285973 -5.70256e-16)
(0.507891 0.0280383 -5.53066e-16)
(0.512801 0.0274902 -5.46514e-16)
(0.517629 0.0269529 -5.30892e-16)
(-0.0118292 -0.0761468 -1.74237e-17)
(-0.0280755 -0.120395 -8.16124e-17)
(-0.0329494 -0.125123 -8.89459e-17)
(-0.0307065 -0.110372 -2.0929e-16)
(-0.0235879 -0.09074 -2.64488e-16)
(-0.0147654 -0.0709435 -3.29419e-16)
(-0.00514495 -0.0529687 -3.34244e-16)
(0.00472613 -0.0373218 -4.41277e-16)
(0.0146879 -0.0239632 -4.75935e-16)
(0.0246862 -0.0126532 -5.24381e-16)
(0.0347123 -0.00310521 -5.09079e-16)
(0.0447652 0.00495318 -5.99356e-16)
(0.054844 0.0117587 -6.25912e-16)
(0.0649432 0.0175118 -6.57679e-16)
(0.0750535 0.0223765 -6.38799e-16)
(0.0851645 0.026488 -7.04989e-16)
(0.0952642 0.0299576 -7.22242e-16)
(0.10534 0.0328772 -7.48225e-16)
(0.115382 0.0353235 -7.34238e-16)
(0.125376 0.0373604 -7.85943e-16)
(0.135314 0.0390422 -8.09393e-16)
(0.145185 0.0404148 -8.0715e-16)
(0.154981 0.0415178 -8.079e-16)
(0.164694 0.0423851 -7.79548e-16)
(0.174317 0.0430461 -8.10797e-16)
(0.183844 0.0435264 -8.10002e-16)
(0.19327 0.0438484 -8.16726e-16)
(0.20259 0.0440316 -7.91525e-16)
(0.2118 0.0440933 -8.12508e-16)
(0.220896 0.0440487 -8.08816e-16)
(0.229876 0.0439113 -8.09815e-16)
(0.238737 0.043693 -7.89024e-16)
(0.247478 0.0434043 -8.01057e-16)
(0.256096 0.0430547 -7.97319e-16)
(0.264591 0.0426524 -7.95419e-16)
(0.272961 0.0422049 -7.76565e-16)
(0.281207 0.0417189 -7.82427e-16)
(0.289327 0.0412001 -7.74936e-16)
(0.297322 0.0406538 -7.69105e-16)
(0.305192 0.0400847 -7.51263e-16)
(0.312937 0.039497 -7.51515e-16)
(0.320558 0.0388942 -7.44096e-16)
(0.328056 0.0382798 -7.36429e-16)
(0.33543 0.0376566 -7.22251e-16)
(0.342684 0.0370272 -7.18035e-16)
(0.349817 0.0363938 -7.10213e-16)
(0.35683 0.0357585 -6.99988e-16)
(0.363725 0.0351231 -6.90369e-16)
(0.370504 0.0344892 -6.79507e-16)
(0.377167 0.033858 -6.69726e-16)
(0.383716 0.0332309 -6.59915e-16)
(0.390154 0.0326088 -6.49512e-16)
(0.39648 0.0319928 -6.41788e-16)
(0.402697 0.0313834 -6.29237e-16)
(0.408807 0.0307815 -6.19789e-16)
(0.414811 0.0301876 -6.08705e-16)
(0.42071 0.0296022 -6.03305e-16)
(0.426507 0.0290257 -5.88619e-16)
(0.432204 0.0284584 -5.78494e-16)
(0.437801 0.0279006 -5.6703e-16)
(0.443301 0.0273526 -5.64829e-16)
(0.448705 0.0268143 -5.49085e-16)
(0.454015 0.0262861 -5.38578e-16)
(0.459233 0.0257679 -5.24972e-16)
(0.46436 0.0252599 -5.17141e-16)
(0.469398 0.0247619 -5.04665e-16)
(-0.0106585 -0.0677674 -2.06456e-17)
(-0.0296081 -0.113503 -7.09058e-17)
(-0.0423658 -0.12093 -6.69333e-17)
(-0.0477072 -0.108702 -1.82457e-16)
(-0.0476502 -0.0906808 -2.4087e-16)
(-0.0447553 -0.0718978 -2.94115e-16)
(-0.04005 -0.0545987 -2.97094e-16)
(-0.0342143 -0.0394405 -3.97684e-16)
(-0.0275626 -0.026463 -4.39156e-16)
(-0.0202807 -0.0154643 -4.80916e-16)
(-0.0124848 -0.00617648 -4.61066e-16)
(-0.00426216 0.00166271 -5.49567e-16)
(0.0043177 0.00828458 -5.82839e-16)
(0.0131943 0.0138837 -6.08132e-16)
(0.0223139 0.0186211 -5.86676e-16)
(0.0316301 0.0226286 -6.4903e-16)
(0.0411014 0.0260147 -6.69978e-16)
(0.050691 0.028869 -6.92149e-16)
(0.0603666 0.0312656 -6.75925e-16)
(0.0700997 0.0332669 -7.26831e-16)
(0.079865 0.0349253 -7.51536e-16)
(0.0896405 0.0362854 -7.54683e-16)
)
;

boundaryField
{
    inlet
    {
        type            uniformFixedValue;
        uniformValue    constant (1 0 0);
        value           nonuniform 0();
    }
    outlet
    {
        type            pressureInletOutletVelocity;
        value           nonuniform 0();
    }
    wall
    {
        type            fixedValue;
        value           uniform (0 0 0);
    }
    wedge1
    {
        type            wedge;
    }
    wedge2
    {
        type            wedge;
    }
    axis
    {
        type            empty;
    }
    procBoundary27to21
    {
        type            processor;
        value           nonuniform List<vector> 
67
(
(0.337859 0.00506552 -8.60688e-16)
(0.359625 0.0149552 -8.93868e-16)
(0.378932 0.0233983 -9.25729e-16)
(0.396245 0.0305861 -9.69692e-16)
(0.411926 0.0366909 -1.01521e-15)
(0.426253 0.0418633 -1.02832e-15)
(0.439445 0.0462325 -1.05004e-15)
(0.451673 0.0499084 -1.08075e-15)
(0.463077 0.0529845 -1.10463e-15)
(0.473769 0.0555402 -1.10972e-15)
(0.48384 0.0576431 -1.12218e-15)
(0.493367 0.0593514 -1.14651e-15)
(0.502414 0.0607147 -1.1553e-15)
(0.511034 0.0617762 -1.16539e-15)
(0.519274 0.0625733 -1.15789e-15)
(0.527172 0.0631384 -1.15479e-15)
(0.534762 0.0635002 -1.16008e-15)
(0.542073 0.0636835 -1.16454e-15)
(0.549132 0.0637104 -1.15174e-15)
(0.55596 0.0636003 -1.1417e-15)
(0.562577 0.0633704 -1.13909e-15)
(0.569 0.0630359 -1.13865e-15)
(0.575245 0.0626103 -1.12626e-15)
(0.581324 0.0621056 -1.11336e-15)
(0.587251 0.0615325 -1.10579e-15)
(0.593035 0.0609006 -1.09758e-15)
(0.598686 0.0602183 -1.0838e-15)
(0.604213 0.0594931 -1.06986e-15)
(0.609624 0.0587319 -1.05955e-15)
(0.614924 0.0579406 -1.04929e-15)
(0.620121 0.0571247 -1.03329e-15)
(0.62522 0.0562888 -1.01698e-15)
(0.630225 0.0554373 -1.00431e-15)
(0.635141 0.0545739 -9.91759e-16)
(0.639973 0.053702 -9.74393e-16)
(0.644724 0.0528245 -9.57909e-16)
(0.649397 0.0519442 -9.43693e-16)
(0.653995 0.0510634 -9.28581e-16)
(0.658521 0.0501841 -9.13373e-16)
(0.662978 0.0493081 -8.96682e-16)
(0.667367 0.0484372 -8.8032e-16)
(0.671692 0.0475726 -8.64139e-16)
(0.675953 0.0467155 -8.47782e-16)
(0.680153 0.0458672 -8.31803e-16)
(0.684293 0.0450284 -8.16236e-16)
(0.688375 0.0441999 -7.99569e-16)
(0.6924 0.0433825 -7.82934e-16)
(0.696369 0.0425767 -7.68036e-16)
(0.700284 0.0417829 -7.52644e-16)
(0.704146 0.0410016 -7.36326e-16)
(0.707956 0.0402331 -7.19586e-16)
(0.711715 0.0394776 -7.04888e-16)
(0.715424 0.0387352 -6.9067e-16)
(0.719083 0.0380062 -6.74174e-16)
(0.722695 0.0372907 -6.57386e-16)
(0.726258 0.0365885 -6.43513e-16)
(0.729775 0.0358998 -6.25627e-16)
(0.733247 0.0352246 -6.13684e-16)
(-0.00506897 -0.104144 -6.9048e-17)
(0.00971056 -0.117604 -2.32963e-16)
(0.0606991 -0.106694 -3.17461e-16)
(0.104037 -0.0861616 -4.32644e-16)
(0.144369 -0.0654243 -4.92384e-16)
(0.178801 -0.0464435 -5.84969e-16)
(0.208479 -0.0296986 -6.27067e-16)
(0.234197 -0.0152126 -7.06173e-16)
(0.234197 -0.0152126 -7.06173e-16)
)
;
    }
    procBoundary27to22
    {
        type            processor;
        value           uniform (0.679873 0.0326324 -5.88533e-16);
    }
    procBoundary27to28
    {
        type            processor;
        value           nonuniform List<vector> 4((0.625182 0.0306223 -5.68855e-16) (0.572667 0.0285482 -5.4844e-16) (0.522377 0.0264265 -5.26919e-16) (0.474349 0.0242741 -4.98007e-16));
    }
    procBoundary27to33
    {
        type            processor;
        value           nonuniform List<vector> 
67
(
(0.0994067 0.0373853 -7.47974e-16)
(0.109146 0.0382578 -7.20555e-16)
(0.118845 0.0389314 -7.4959e-16)
(0.128488 0.0394306 -7.56474e-16)
(0.138065 0.0397771 -7.5876e-16)
(0.147566 0.0399897 -7.33778e-16)
(0.156982 0.0400851 -7.56412e-16)
(0.166306 0.0400779 -7.55821e-16)
(0.17553 0.039981 -7.53593e-16)
(0.184649 0.039806 -7.33715e-16)
(0.193659 0.0395629 -7.46518e-16)
(0.202555 0.0392609 -7.44931e-16)
(0.211335 0.0389079 -7.41782e-16)
(0.219994 0.0385111 -7.22961e-16)
(0.228532 0.0380767 -7.29923e-16)
(0.236946 0.0376106 -7.25188e-16)
(0.245235 0.0371177 -7.18313e-16)
(0.253399 0.0366024 -7.0172e-16)
(0.261435 0.0360688 -7.02579e-16)
(0.269345 0.0355204 -6.96038e-16)
(0.277128 0.0349604 -6.88817e-16)
(0.284785 0.0343915 -6.75602e-16)
(0.292315 0.0338162 -6.72227e-16)
(0.299721 0.0332368 -6.65074e-16)
(0.307001 0.0326551 -6.5626e-16)
(0.314158 0.0320728 -6.47149e-16)
(0.321193 0.0314916 -6.37209e-16)
(0.328106 0.0309126 -6.28294e-16)
(0.3349 0.0303371 -6.19281e-16)
(0.341575 0.029766 -6.09796e-16)
(0.348133 0.0292003 -6.02706e-16)
(0.354575 0.0286406 -5.91316e-16)
(0.360904 0.0280877 -5.82118e-16)
(0.36712 0.027542 -5.7237e-16)
(0.373227 0.0270041 -5.67573e-16)
(0.379224 0.0264743 -5.53743e-16)
(0.385115 0.025953 -5.44093e-16)
(0.3909 0.0254404 -5.3473e-16)
(0.396583 0.0249367 -5.32619e-16)
(0.402163 0.0244422 -5.17531e-16)
(0.407644 0.0239568 -5.07234e-16)
(0.413027 0.0234807 -4.95551e-16)
(0.418314 0.0230139 -4.87178e-16)
(0.423506 0.0225564 -4.76815e-16)
(-0.00947522 -0.0597039 -1.98248e-17)
(-0.0300857 -0.105095 -6.88312e-17)
(-0.0488067 -0.114511 -8.2999e-17)
(-0.0604526 -0.104725 -1.70728e-16)
(-0.0665705 -0.0885236 -2.20016e-16)
(-0.0690397 -0.0710488 -2.66502e-16)
(-0.0688862 -0.0547093 -2.8672e-16)
(-0.0668493 -0.0402869 -3.63569e-16)
(-0.0633546 -0.0278972 -4.06657e-16)
(-0.0586934 -0.0173803 -4.45094e-16)
(-0.0530742 -0.00849319 -4.42558e-16)
(-0.0466597 -0.000989396 -5.07906e-16)
(-0.0395814 0.00535201 -5.379e-16)
(-0.0319498 0.0107161 -5.62325e-16)
(-0.0238588 0.0152578 -5.57955e-16)
(-0.015388 0.0191033 -6.03484e-16)
(-0.00660626 0.0223564 -6.22022e-16)
(0.0024271 0.0251028 -6.41477e-16)
(0.0116607 0.0274134 -6.38311e-16)
(0.0210501 0.0293475 -6.75104e-16)
(0.0305563 0.0309553 -6.93501e-16)
(0.0994067 0.0373853 -7.47974e-16)
(0.0401455 0.0322792 -7.00116e-16)
)
;
    }
}


// ************************************************************************* //
