/*--------------------------------*- C++ -*----------------------------------*\
  =========                 |
  \\      /  F ield         | OpenFOAM: The Open Source CFD Toolbox
   \\    /   O peration     | Website:  https://openfoam.org
    \\  /    A nd           | Version:  7
     \\/     M anipulation  |
\*---------------------------------------------------------------------------*/
FoamFile
{
    version     2.0;
    format      ascii;
    class       surfaceScalarField;
    location    "1";
    object      phi;
}
// * * * * * * * * * * * * * * * * * * * * * * * * * * * * * * * * * * * * * //

dimensions      [0 3 -1 0 0 0 0];

internalField   nonuniform List<scalar> 
32582
(
1.07976e-05
-7.22821e-10
1.07997e-05
-2.14802e-09
1.08033e-05
-3.55014e-09
1.08082e-05
-4.90138e-09
1.08143e-05
-6.16646e-09
1.08217e-05
-7.33226e-09
1.08301e-05
-8.40204e-09
1.08394e-05
-9.356e-09
1.08496e-05
-1.01454e-08
1.08603e-05
-1.07669e-08
1.08716e-05
-1.12577e-08
1.08832e-05
-1.16304e-08
1.08951e-05
-1.18551e-08
1.0907e-05
-1.19162e-08
1.09189e-05
-1.18552e-08
1.09306e-05
-1.17343e-08
1.09422e-05
-1.15689e-08
1.09535e-05
-1.13202e-08
1.09644e-05
-1.09645e-08
1.0975e-05
-1.05474e-08
1.09851e-05
-1.0144e-08
1.09949e-05
-9.77873e-09
1.10043e-05
-9.40796e-09
1.10133e-05
-8.97839e-09
1.10218e-05
-8.49178e-09
1.10298e-05
-8.0142e-09
1.10374e-05
-7.62136e-09
1.10448e-05
-7.32695e-09
1.10518e-05
-7.06632e-09
1.10586e-05
-6.75817e-09
1.1065e-05
-6.38211e-09
1.1071e-05
-5.99693e-09
1.10766e-05
-5.6938e-09
1.10822e-05
-5.53144e-09
1.10877e-05
-5.49824e-09
1.10932e-05
-5.51884e-09
1.10987e-05
-5.49864e-09
1.11041e-05
-5.38007e-09
1.11093e-05
-5.17739e-09
1.11142e-05
-4.97119e-09
1.11191e-05
-4.87039e-09
1.11241e-05
-4.9657e-09
1.11294e-05
-5.29624e-09
1.11352e-05
-5.8394e-09
1.11417e-05
-6.52204e-09
1.1149e-05
-7.24441e-09
1.11569e-05
-7.90641e-09
1.11653e-05
-8.42794e-09
1.11741e-05
-8.75943e-09
1.11829e-05
-8.88306e-09
1.11917e-05
-8.80748e-09
1.12003e-05
-8.55937e-09
1.12085e-05
-8.17481e-09
1.12162e-05
-7.69218e-09
1.12233e-05
-7.14727e-09
1.12299e-05
-6.57053e-09
1.12359e-05
-5.98616e-09
1.12413e-05
-5.4122e-09
1.12462e-05
-4.86134e-09
1.12505e-05
-4.3419e-09
1.12544e-05
-3.85881e-09
1.12578e-05
-3.41449e-09
1.12608e-05
-3.00955e-09
1.12634e-05
-2.64334e-09
1.12657e-05
-2.31433e-09
1.12678e-05
-2.02044e-09
1.12695e-05
-1.75927e-09
1.1271e-05
-1.52823e-09
1.12724e-05
-1.32467e-09
1.12735e-05
-1.14598e-09
1.12745e-05
-9.89635e-10
1.12754e-05
-8.53252e-10
1.12761e-05
-7.346e-10
1.12767e-05
-6.31621e-10
1.12773e-05
-5.42438e-10
1.12777e-05
-4.65351e-10
1.12781e-05
-3.98833e-10
1.12785e-05
-3.41522e-10
1.12788e-05
-2.92211e-10
1.1279e-05
-2.49834e-10
1.12792e-05
-2.13453e-10
1.12794e-05
-1.82245e-10
1.12796e-05
-1.55494e-10
1.12797e-05
-1.32576e-10
1.12798e-05
-1.1295e-10
1.12799e-05
-9.61439e-11
1.128e-05
-8.17527e-11
1.12801e-05
-6.94258e-11
1.12801e-05
-5.88607e-11
1.12802e-05
-4.97948e-11
1.12802e-05
-4.20031e-11
1.12802e-05
-3.52904e-11
1.12803e-05
-2.94875e-11
1.12803e-05
-2.44489e-11
1.12803e-05
-2.00473e-11
1.12803e-05
-1.6171e-11
1.12803e-05
-1.27221e-11
1.12804e-05
-9.61381e-12
1.12804e-05
-6.7691e-12
1.12804e-05
-4.11557e-12
1.12804e-05
-1.58694e-12
1.12804e-05
8.86462e-13
1.12804e-05
3.37607e-12
1.12804e-05
5.93077e-12
1.12803e-05
8.6179e-12
1.12803e-05
1.15064e-11
1.12803e-05
1.46703e-11
1.12803e-05
1.81906e-11
1.12803e-05
2.21631e-11
1.12803e-05
2.66955e-11
1.12802e-05
3.19114e-11
1.12802e-05
3.79615e-11
1.12801e-05
4.50121e-11
1.12801e-05
5.32783e-11
1.128e-05
6.2997e-11
1.12799e-05
7.44876e-11
1.12799e-05
8.80819e-11
1.12798e-05
1.04271e-10
1.12796e-05
1.23527e-10
1.12795e-05
1.46576e-10
1.12793e-05
1.74226e-10
1.12791e-05
2.07219e-10
1.12789e-05
2.47767e-10
1.12786e-05
2.94516e-10
1.12782e-05
3.56573e-10
1.12778e-05
4.19187e-10
1.12773e-05
5.23098e-10
1.12767e-05
5.90659e-10
1.12759e-05
7.93731e-10
1.12751e-05
8.0094e-10
1.12738e-05
1.27651e-09
1.12728e-05
9.73347e-10
1.12706e-05
2.2379e-09
1.12698e-05
8.28206e-10
1.12654e-05
4.3254e-09
1.12659e-05
-4.18306e-10
1.12569e-05
8.99892e-09
1.12614e-05
-4.51164e-09
1.12422e-05
1.91824e-08
1.1257e-05
-1.47848e-08
1.12172e-05
3.97363e-08
1.12534e-05
-3.61963e-08
1.11768e-05
7.65863e-08
1.12509e-05
-7.4084e-08
1.11176e-05
1.33331e-07
1.12495e-05
-1.3194e-07
1.1042e-05
2.07574e-07
1.12532e-05
-2.1123e-07
1.09602e-05
2.92994e-07
1.12723e-05
-3.12064e-07
1.08896e-05
3.82644e-07
1.13108e-05
-4.21208e-07
1.08559e-05
4.54934e-07
1.1344e-05
-4.88157e-07
1.08801e-05
4.63933e-07
1.134e-05
-4.5992e-07
1.09282e-05
4.11807e-07
1.13402e-05
-4.11946e-07
1.09206e-05
4.19572e-07
1.14167e-05
-4.96093e-07
1.08881e-05
5.28548e-07
1.14907e-05
-6.02517e-07
1.09712e-05
5.19484e-07
1.14487e-05
-4.77474e-07
1.10472e-05
4.01491e-07
1.14806e-05
-4.33438e-07
1.09047e-05
5.75862e-07
1.16055e-05
-7.00738e-07
1.08933e-05
7.12141e-07
1.15747e-05
-6.81328e-07
1.10758e-05
4.98856e-07
1.16419e-05
-5.66059e-07
1.11636e-05
4.78285e-07
1.17522e-05
-5.88638e-07
1.1577e-05
1.75225e-07
1.17533e-05
-1.76278e-07
1.19436e-05
-1.90291e-07
1.19654e-05
-2.1858e-08
1.23193e-05
-3.53885e-07
1.23087e-05
1.05834e-08
1.24981e-05
-1.89351e-07
1.30054e-05
-5.073e-07
1.29858e-05
1.96232e-08
1.34571e-05
-4.71395e-07
1.3855e-05
-3.97815e-07
1.413e-05
-2.75013e-07
1.47698e-05
-6.39863e-07
1.5258e-05
-4.88154e-07
1.57611e-05
-5.03095e-07
1.65549e-05
-7.93766e-07
1.72313e-05
-6.76412e-07
1.79156e-05
-6.84366e-07
1.88664e-05
-9.50782e-07
1.98547e-05
-9.88317e-07
2.08481e-05
-9.93334e-07
2.20233e-05
-1.1752e-06
2.3246e-05
-1.22271e-06
2.437e-05
-1.12399e-06
2.54912e-05
-1.12121e-06
-1.12912e-06
2.66203e-05
3.23927e-05
-2.91827e-09
3.23993e-05
-8.68342e-09
3.24101e-05
-1.43487e-08
3.2425e-05
-1.97955e-08
3.24437e-05
-2.48783e-08
3.24659e-05
-2.95491e-08
3.24913e-05
-3.38245e-08
3.25196e-05
-3.76145e-08
3.25502e-05
-4.07765e-08
3.25827e-05
-4.32491e-08
3.26166e-05
-4.51923e-08
3.26517e-05
-4.66617e-08
3.26873e-05
-4.75405e-08
3.27232e-05
-4.77657e-08
3.27588e-05
-4.75016e-08
3.27941e-05
-4.69996e-08
3.28289e-05
-4.63224e-08
3.28628e-05
-4.53128e-08
3.28958e-05
-4.38763e-08
3.29274e-05
-4.21962e-08
3.29578e-05
-4.05715e-08
3.29872e-05
-3.91001e-08
3.30154e-05
-3.76101e-08
3.30423e-05
-3.58872e-08
3.30677e-05
-3.39341e-08
3.30917e-05
-3.20166e-08
3.31145e-05
-3.04422e-08
3.31365e-05
-2.92636e-08
3.31576e-05
-2.82179e-08
3.31778e-05
-2.69813e-08
3.31969e-05
-2.54758e-08
3.32149e-05
-2.39342e-08
3.32319e-05
-2.27186e-08
3.32484e-05
-2.20659e-08
3.32649e-05
-2.19332e-08
3.32814e-05
-2.20188e-08
3.32978e-05
-2.19413e-08
3.33139e-05
-2.14679e-08
3.33294e-05
-2.06555e-08
3.33442e-05
-1.98274e-08
3.33588e-05
-1.94207e-08
3.33736e-05
-1.97998e-08
3.33894e-05
-2.11225e-08
3.34069e-05
-2.32992e-08
3.34264e-05
-2.60365e-08
3.34481e-05
-2.89342e-08
3.34718e-05
-3.15905e-08
3.3497e-05
-3.36834e-08
3.35233e-05
-3.50138e-08
3.35499e-05
-3.551e-08
3.35763e-05
-3.52067e-08
3.3602e-05
-3.42109e-08
3.36265e-05
-3.26678e-08
3.36495e-05
-3.07317e-08
3.36709e-05
-2.85463e-08
3.36906e-05
-2.62341e-08
3.37085e-05
-2.38922e-08
3.37247e-05
-2.15931e-08
3.37392e-05
-1.93877e-08
3.37522e-05
-1.73091e-08
3.37637e-05
-1.53771e-08
3.37739e-05
-1.36011e-08
3.37828e-05
-1.19835e-08
3.37907e-05
-1.05214e-08
3.37976e-05
-9.20861e-09
3.38036e-05
-8.03657e-09
3.38089e-05
-6.99553e-09
3.38134e-05
-6.07502e-09
3.38173e-05
-5.26438e-09
3.38208e-05
-4.55308e-09
3.38237e-05
-3.931e-09
3.38262e-05
-3.38854e-09
3.38284e-05
-2.91676e-09
3.38303e-05
-2.50743e-09
3.38319e-05
-2.15303e-09
3.38333e-05
-1.84679e-09
3.38345e-05
-1.58259e-09
3.38355e-05
-1.35502e-09
3.38363e-05
-1.15925e-09
3.38371e-05
-9.91041e-10
3.38377e-05
-8.46651e-10
3.38383e-05
-7.22811e-10
3.38387e-05
-6.1667e-10
3.38391e-05
-5.25748e-10
3.38394e-05
-4.47889e-10
3.38397e-05
-3.81227e-10
3.384e-05
-3.2415e-10
3.38402e-05
-2.75264e-10
3.38404e-05
-2.33365e-10
3.38405e-05
-1.97415e-10
3.38406e-05
-1.66517e-10
3.38407e-05
-1.39899e-10
3.38408e-05
-1.1689e-10
3.38409e-05
-9.69107e-11
3.38409e-05
-7.94577e-11
3.3841e-05
-6.4089e-11
3.3841e-05
-5.04152e-11
3.38411e-05
-3.80925e-11
3.38411e-05
-2.68123e-11
3.38411e-05
-1.62899e-11
3.38411e-05
-6.27008e-12
3.38411e-05
3.53774e-12
3.38411e-05
1.34165e-11
3.38411e-05
2.35456e-11
3.3841e-05
3.41995e-11
3.3841e-05
4.56486e-11
3.3841e-05
5.81871e-11
3.38409e-05
7.21405e-11
3.38408e-05
8.78828e-11
3.38408e-05
1.05842e-10
3.38407e-05
1.26504e-10
3.38406e-05
1.50464e-10
3.38404e-05
1.7838e-10
3.38403e-05
2.11104e-10
3.38401e-05
2.49559e-10
3.38399e-05
2.95029e-10
3.38396e-05
3.4877e-10
3.38393e-05
4.12823e-10
3.38389e-05
4.88835e-10
3.38385e-05
5.80093e-10
3.3838e-05
6.88953e-10
3.38374e-05
8.19908e-10
3.38366e-05
9.78698e-10
3.38358e-05
1.16553e-09
3.38347e-05
1.40609e-09
3.38335e-05
1.66074e-09
3.38319e-05
2.05704e-09
3.38302e-05
2.34674e-09
3.38279e-05
3.10818e-09
3.38255e-05
3.20138e-09
3.38218e-05
4.97266e-09
3.38188e-05
3.9391e-09
3.38124e-05
8.68183e-09
3.38097e-05
3.4737e-09
3.37973e-05
1.67786e-08
3.37981e-05
-1.29853e-09
3.37721e-05
3.50826e-08
3.3785e-05
-1.74581e-08
3.37288e-05
7.54034e-08
3.37726e-05
-5.8608e-08
3.36548e-05
1.57574e-07
3.37637e-05
-1.45116e-07
3.35342e-05
3.0611e-07
3.3759e-05
-2.98927e-07
3.3356e-05
5.3639e-07
3.37584e-05
-5.34393e-07
3.31272e-05
8.38761e-07
3.37732e-05
-8.57238e-07
3.28806e-05
1.18566e-06
3.38356e-05
-1.2671e-06
3.26706e-05
1.54765e-06
3.39571e-05
-1.70768e-06
3.25741e-05
1.83793e-06
3.40532e-05
-1.96733e-06
3.26475e-05
1.86965e-06
3.40227e-05
-1.83506e-06
3.27765e-05
1.65794e-06
3.40061e-05
-1.64146e-06
3.27272e-05
1.69841e-06
3.42195e-05
-1.98833e-06
3.26255e-05
2.12252e-06
3.43975e-05
-2.37455e-06
3.2888e-05
2.02901e-06
3.42345e-05
-1.82402e-06
3.30822e-05
1.55386e-06
3.43624e-05
-1.71366e-06
3.25948e-05
2.34349e-06
3.47392e-05
-2.84515e-06
3.25462e-05
2.90513e-06
3.45822e-05
-2.71735e-06
3.305e-05
2.03107e-06
3.47631e-05
-2.27913e-06
3.32346e-05
2.00672e-06
3.50635e-05
-2.41752e-06
3.44386e-05
8.0012e-07
3.5067e-05
-8.0463e-07
3.54535e-05
-5.76852e-07
3.57421e-05
-3.10374e-07
3.66759e-05
-1.28777e-06
3.65525e-05
1.34014e-07
3.72766e-05
-9.13399e-07
3.86761e-05
-1.90684e-06
3.85451e-05
1.50672e-07
4.01008e-05
-2.02709e-06
4.11214e-05
-1.41851e-06
4.2166e-05
-1.31952e-06
4.39747e-05
-2.44857e-06
4.5292e-05
-1.80546e-06
4.6967e-05
-2.17813e-06
4.9292e-05
-3.11876e-06
5.12408e-05
-2.62521e-06
5.34046e-05
-2.84815e-06
5.61871e-05
-3.73327e-06
5.90353e-05
-3.83651e-06
6.21526e-05
-4.1107e-06
6.57613e-05
-4.78383e-06
6.93578e-05
-4.81924e-06
7.27899e-05
-4.5561e-06
7.62858e-05
-4.61714e-06
-4.48147e-06
7.96382e-05
5.3988e-05
-6.6448e-09
5.3999e-05
-1.97735e-08
5.40174e-05
-3.26696e-08
5.40426e-05
-4.50578e-08
5.40744e-05
-5.66016e-08
5.4112e-05
-6.71895e-08
5.4155e-05
-7.68602e-08
5.42028e-05
-8.54099e-08
5.42546e-05
-9.25362e-08
5.43094e-05
-9.80834e-08
5.43666e-05
-1.02413e-07
5.44256e-05
-1.0566e-07
5.44857e-05
-1.07571e-07
5.45459e-05
-1.08004e-07
5.46057e-05
-1.07329e-07
5.46649e-05
-1.06122e-07
5.47231e-05
-1.04529e-07
5.47799e-05
-1.02188e-07
5.4835e-05
-9.88882e-08
5.48878e-05
-9.50482e-08
5.49386e-05
-9.1335e-08
5.49874e-05
-8.79708e-08
5.50344e-05
-8.458e-08
5.50792e-05
-8.06734e-08
5.51215e-05
-7.6242e-08
5.51614e-05
-7.18921e-08
5.51993e-05
-6.83303e-08
5.52357e-05
-6.56668e-08
5.52707e-05
-6.32971e-08
5.53043e-05
-6.04994e-08
5.53359e-05
-5.7105e-08
5.53656e-05
-5.36286e-08
5.53937e-05
-5.08786e-08
5.54211e-05
-4.93975e-08
5.54482e-05
-4.91002e-08
5.54755e-05
-4.9306e-08
5.55027e-05
-4.91444e-08
5.55294e-05
-4.80832e-08
5.55549e-05
-4.62489e-08
5.55795e-05
-4.43726e-08
5.56035e-05
-4.34433e-08
5.5628e-05
-4.42873e-08
5.56541e-05
-4.7266e-08
5.5683e-05
-5.21795e-08
5.57154e-05
-5.83661e-08
5.57513e-05
-6.49199e-08
5.57907e-05
-7.09304e-08
5.58327e-05
-7.56678e-08
5.58763e-05
-7.868e-08
5.59206e-05
-7.98037e-08
5.59645e-05
-7.91173e-08
5.60072e-05
-7.68638e-08
5.60479e-05
-7.33724e-08
5.60862e-05
-6.89934e-08
5.61217e-05
-6.4053e-08
5.61543e-05
-5.88292e-08
5.61839e-05
-5.35423e-08
5.62107e-05
-4.83562e-08
5.62347e-05
-4.33859e-08
5.62561e-05
-3.87061e-08
5.6275e-05
-3.43606e-08
5.62918e-05
-3.03703e-08
5.63066e-05
-2.67395e-08
5.63195e-05
-2.34612e-08
5.63308e-05
-2.05205e-08
5.63407e-05
-1.78978e-08
5.63493e-05
-1.55703e-08
5.63567e-05
-1.35142e-08
5.63631e-05
-1.1705e-08
5.63687e-05
-1.01188e-08
5.63735e-05
-8.73251e-09
5.63776e-05
-7.5245e-09
5.63812e-05
-6.47455e-09
5.63843e-05
-5.56411e-09
5.63869e-05
-4.77627e-09
5.63891e-05
-4.0958e-09
5.63911e-05
-3.50902e-09
5.63927e-05
-3.00377e-09
5.63941e-05
-2.5693e-09
5.63953e-05
-2.1961e-09
5.63964e-05
-1.87584e-09
5.63972e-05
-1.60123e-09
5.6398e-05
-1.36593e-09
5.63986e-05
-1.1644e-09
5.63992e-05
-9.91859e-10
5.63996e-05
-8.44158e-10
5.64e-05
-7.1771e-10
5.64004e-05
-6.09422e-10
5.64006e-05
-5.16624e-10
5.64009e-05
-4.37007e-10
5.64011e-05
-3.68587e-10
5.64012e-05
-3.09643e-10
5.64014e-05
-2.58693e-10
5.64015e-05
-2.14454e-10
5.64016e-05
-1.75811e-10
5.64017e-05
-1.41786e-10
5.64017e-05
-1.11513e-10
5.64018e-05
-8.42313e-11
5.64018e-05
-5.92557e-11
5.64018e-05
-3.5956e-11
5.64018e-05
-1.37684e-11
5.64018e-05
7.95342e-12
5.64018e-05
2.98312e-11
5.64018e-05
5.22613e-11
5.64018e-05
7.58491e-11
5.64017e-05
1.0119e-10
5.64016e-05
1.28938e-10
5.64015e-05
1.59818e-10
5.64014e-05
1.94643e-10
5.64013e-05
2.34362e-10
5.64012e-05
2.80047e-10
5.6401e-05
3.32998e-10
5.64008e-05
3.94664e-10
5.64005e-05
4.66933e-10
5.64002e-05
5.51777e-10
5.63998e-05
6.52139e-10
5.63994e-05
7.70506e-10
5.63989e-05
9.11888e-10
5.63983e-05
1.07883e-09
5.63976e-05
1.28062e-09
5.63968e-05
1.51831e-09
5.63958e-05
1.80965e-09
5.63946e-05
2.1521e-09
5.63932e-05
2.57456e-09
5.63916e-05
3.0804e-09
5.63895e-05
3.6796e-09
5.63871e-05
4.47717e-09
5.63842e-05
5.23852e-09
5.63806e-05
6.69215e-09
5.63766e-05
7.26126e-09
5.6371e-05
1.0545e-08
5.63657e-05
9.24664e-09
5.63562e-05
1.81303e-08
5.63507e-05
9.02118e-09
5.63327e-05
3.4784e-08
5.63314e-05
-4.34152e-13
5.62933e-05
7.3134e-08
5.63095e-05
-3.36176e-08
5.62253e-05
1.59619e-07
5.62897e-05
-1.23034e-07
5.61071e-05
3.40202e-07
5.62786e-05
-3.1659e-07
5.59102e-05
6.74498e-07
5.62794e-05
-6.68177e-07
5.56115e-05
1.20435e-06
5.62918e-05
-1.21471e-06
5.52198e-05
1.91078e-06
5.63318e-05
-1.96931e-06
5.47967e-05
2.72074e-06
5.64527e-05
-2.92302e-06
5.44471e-05
3.55326e-06
5.6665e-05
-3.92564e-06
5.42992e-05
4.20378e-06
5.6793e-05
-4.46114e-06
5.44153e-05
4.24733e-06
5.66649e-05
-4.08469e-06
5.45563e-05
3.76662e-06
5.65746e-05
-3.65985e-06
5.43728e-05
3.90027e-06
5.68474e-05
-4.46292e-06
5.42025e-05
4.76739e-06
5.69615e-05
-5.13356e-06
5.46851e-05
4.30546e-06
5.65801e-05
-3.71903e-06
5.48906e-05
3.24336e-06
5.6918e-05
-3.74107e-06
5.39089e-05
5.35255e-06
5.75748e-05
-6.51102e-06
5.37722e-05
6.70771e-06
5.71538e-05
-6.09896e-06
5.44382e-05
4.7467e-06
5.73458e-05
-5.18677e-06
5.45321e-05
4.82043e-06
5.76816e-05
-5.56699e-06
5.64469e-05
2.03484e-06
5.7618e-05
-1.97573e-06
5.79363e-05
-8.95191e-07
5.88435e-05
-1.21758e-06
5.99906e-05
-2.43487e-06
5.97147e-05
4.09883e-07
6.11103e-05
-2.30897e-06
6.33789e-05
-4.1754e-06
6.26883e-05
8.41251e-07
6.57292e-05
-5.06795e-06
6.71716e-05
-2.86101e-06
6.92813e-05
-3.42916e-06
7.18708e-05
-5.0381e-06
7.38735e-05
-3.80812e-06
7.69561e-05
-5.26078e-06
8.07682e-05
-6.93084e-06
8.39236e-05
-5.78064e-06
8.76962e-05
-6.62076e-06
9.20391e-05
-8.07616e-06
9.66755e-05
-8.47292e-06
0.0001023
-9.73492e-06
0.000108451
-1.09349e-05
0.000114345
-1.07132e-05
0.000120325
-1.0536e-05
0.000126324
-1.06166e-05
-9.90907e-06
0.000131752
7.55833e-05
-1.20027e-08
7.55992e-05
-3.5718e-08
7.56256e-05
-5.90016e-08
7.56619e-05
-8.13508e-08
7.57074e-05
-1.02149e-07
7.57614e-05
-1.21188e-07
7.58231e-05
-1.38538e-07
7.58915e-05
-1.53834e-07
7.59655e-05
-1.66537e-07
7.60438e-05
-1.76352e-07
7.61253e-05
-1.83949e-07
7.62092e-05
-1.89581e-07
7.62945e-05
-1.92817e-07
7.63799e-05
-1.93398e-07
7.64645e-05
-1.91988e-07
7.6548e-05
-1.89646e-07
7.66302e-05
-1.86634e-07
7.67103e-05
-1.8229e-07
7.67876e-05
-1.76252e-07
7.68618e-05
-1.69269e-07
7.6933e-05
-1.62512e-07
7.70014e-05
-1.56392e-07
7.70671e-05
-1.50268e-07
7.71297e-05
-1.43242e-07
7.71887e-05
-1.35265e-07
7.72443e-05
-1.27443e-07
7.7297e-05
-1.2106e-07
7.73476e-05
-1.16288e-07
7.73964e-05
-1.12029e-07
7.74429e-05
-1.07024e-07
7.74867e-05
-1.00975e-07
7.75279e-05
-9.47707e-08
7.75668e-05
-8.98388e-08
7.76046e-05
-8.71733e-08
7.76422e-05
-8.66502e-08
7.76799e-05
-8.705e-08
7.77176e-05
-8.67951e-08
7.77544e-05
-8.49186e-08
7.77898e-05
-8.16425e-08
7.78237e-05
-7.82737e-08
7.78568e-05
-7.65842e-08
7.78906e-05
-7.80609e-08
7.79267e-05
-8.33617e-08
7.79667e-05
-9.21373e-08
7.80115e-05
-1.03206e-07
7.80615e-05
-1.14944e-07
7.81163e-05
-1.25716e-07
7.81749e-05
-1.34211e-07
7.82358e-05
-1.39614e-07
7.82976e-05
-1.4163e-07
7.83589e-05
-1.404e-07
7.84184e-05
-1.3636e-07
7.84751e-05
-1.30103e-07
7.85284e-05
-1.2226e-07
7.85778e-05
-1.13418e-07
7.8623e-05
-1.04077e-07
7.86641e-05
-9.46336e-08
7.87011e-05
-8.53812e-08
7.87343e-05
-7.65253e-08
7.87638e-05
-6.81987e-08
7.87899e-05
-6.04782e-08
7.88129e-05
-5.33994e-08
7.88331e-05
-4.6968e-08
7.88508e-05
-4.11696e-08
7.88663e-05
-3.59759e-08
7.88798e-05
-3.13502e-08
7.88914e-05
-2.72509e-08
7.89016e-05
-2.36341e-08
7.89103e-05
-2.04554e-08
7.89179e-05
-1.76717e-08
7.89244e-05
-1.52413e-08
7.893e-05
-1.31256e-08
7.89348e-05
-1.12883e-08
7.89389e-05
-9.69646e-09
7.89425e-05
-8.32001e-09
7.89455e-05
-7.13194e-09
7.89481e-05
-6.1081e-09
7.89503e-05
-5.22701e-09
7.89522e-05
-4.46972e-09
7.89538e-05
-3.81952e-09
7.89552e-05
-3.26179e-09
7.89564e-05
-2.78373e-09
7.89574e-05
-2.37423e-09
7.89583e-05
-2.02362e-09
7.8959e-05
-1.72351e-09
7.89596e-05
-1.46666e-09
7.89602e-05
-1.24682e-09
7.89606e-05
-1.05858e-09
7.8961e-05
-8.97299e-10
7.89613e-05
-7.58942e-10
7.89616e-05
-6.40052e-10
7.89618e-05
-5.37639e-10
7.8962e-05
-4.49122e-10
7.89622e-05
-3.72271e-10
7.89623e-05
-3.05143e-10
7.89624e-05
-2.46036e-10
7.89625e-05
-1.93444e-10
7.89625e-05
-1.46047e-10
7.89626e-05
-1.02651e-10
7.89626e-05
-6.21679e-11
7.89626e-05
-2.36181e-11
7.89626e-05
1.41263e-11
7.89626e-05
5.21411e-11
7.89625e-05
9.11153e-11
7.89625e-05
1.32087e-10
7.89624e-05
1.76098e-10
7.89623e-05
2.2428e-10
7.89622e-05
2.77892e-10
7.89621e-05
3.38327e-10
7.89619e-05
4.07225e-10
7.89617e-05
4.86429e-10
7.89614e-05
5.7819e-10
7.89611e-05
6.84968e-10
7.89608e-05
8.10081e-10
7.89604e-05
9.56753e-10
7.89599e-05
1.13036e-09
7.89594e-05
1.33449e-09
7.89587e-05
1.57906e-09
7.89579e-05
1.86572e-09
7.8957e-05
2.21573e-09
7.89559e-05
2.62028e-09
7.89545e-05
3.13035e-09
7.8953e-05
3.70184e-09
7.89511e-05
4.45956e-09
7.89489e-05
5.26803e-09
7.89462e-05
6.40502e-09
7.89431e-05
7.57596e-09
7.89391e-05
9.22883e-09
7.89347e-05
1.11149e-08
7.89288e-05
1.31225e-08
7.89223e-05
1.7025e-08
7.8914e-05
1.76207e-08
7.89037e-05
2.83517e-08
7.8893e-05
1.97189e-08
7.88745e-05
5.33623e-08
7.88654e-05
9.06444e-09
7.88256e-05
1.12923e-07
7.88336e-05
-4.15599e-08
7.87399e-05
2.53306e-07
7.8806e-05
-1.89155e-07
7.85861e-05
5.60046e-07
7.87974e-05
-5.27798e-07
7.83184e-05
1.15343e-06
7.88201e-05
-1.16987e-06
7.78916e-05
2.13291e-06
7.88753e-05
-2.19846e-06
7.7309e-05
3.47704e-06
7.89743e-05
-3.63459e-06
7.6676e-05
5.01903e-06
7.91741e-05
-5.42105e-06
7.61808e-05
6.54654e-06
7.94522e-05
-7.19709e-06
7.60103e-05
7.64575e-06
7.95041e-05
-7.955e-06
7.61581e-05
7.59334e-06
7.91576e-05
-7.08416e-06
7.61719e-05
6.75231e-06
7.89435e-05
-6.43145e-06
7.56992e-05
7.14457e-06
7.91574e-05
-7.92109e-06
7.55048e-05
8.41991e-06
7.89304e-05
-8.55913e-06
7.6321e-05
6.91483e-06
7.82154e-05
-5.61342e-06
7.64574e-05
5.00136e-06
7.89816e-05
-6.26522e-06
7.48577e-05
9.47643e-06
8.01343e-05
-1.17876e-05
7.45773e-05
1.22647e-05
7.94e-05
-1.09217e-05
7.52256e-05
8.92111e-06
7.94605e-05
-9.42168e-06
7.50376e-05
9.24332e-06
7.95633e-05
-1.00927e-05
7.76323e-05
3.96588e-06
7.92252e-05
-3.56869e-06
7.94026e-05
-1.07253e-06
8.10754e-05
-2.89043e-06
8.21014e-05
-3.46085e-06
8.17712e-05
7.40105e-07
8.38365e-05
-4.37429e-06
8.72268e-05
-7.5657e-06
8.46509e-05
3.41714e-06
9.04181e-05
-1.08352e-05
9.19974e-05
-4.44028e-06
9.49331e-05
-6.36488e-06
9.78921e-05
-7.99709e-06
0.000100793
-6.70892e-06
0.000105319
-9.78718e-06
0.000110845
-1.24562e-05
0.000114991
-9.92692e-06
0.000120236
-1.18655e-05
0.000125874
-1.37144e-05
0.000132708
-1.53073e-05
0.000141434
-1.84603e-05
0.000150189
-1.96903e-05
0.000158321
-1.88448e-05
0.000166974
-1.91892e-05
0.000175441
-1.90836e-05
-1.74807e-05
0.000183013
9.71788e-05
-1.91425e-08
9.72e-05
-5.69638e-08
9.72351e-05
-9.40731e-08
9.72834e-05
-1.2966e-07
9.7344e-05
-1.62723e-07
9.74157e-05
-1.92925e-07
9.74975e-05
-2.20369e-07
9.75882e-05
-2.44481e-07
9.7686e-05
-2.64383e-07
9.77893e-05
-2.79618e-07
9.78966e-05
-2.91275e-07
9.80068e-05
-2.99788e-07
9.81185e-05
-3.04512e-07
9.82301e-05
-3.05026e-07
9.83405e-05
-3.02393e-07
9.84492e-05
-2.98334e-07
9.85559e-05
-2.93251e-07
9.86597e-05
-2.8609e-07
9.87597e-05
-2.76313e-07
9.88555e-05
-2.65079e-07
9.89472e-05
-2.54187e-07
9.90352e-05
-2.44345e-07
9.91195e-05
-2.34593e-07
9.91997e-05
-2.23443e-07
9.92752e-05
-2.10775e-07
9.93461e-05
-1.98386e-07
9.94134e-05
-1.88312e-07
9.94779e-05
-1.80759e-07
9.95398e-05
-1.74008e-07
9.95989e-05
-1.66139e-07
9.96546e-05
-1.56668e-07
9.97068e-05
-1.46917e-07
9.97561e-05
-1.39115e-07
9.98038e-05
-1.34886e-07
9.98512e-05
-1.34085e-07
9.98989e-05
-1.34779e-07
9.99466e-05
-1.34445e-07
9.99932e-05
-1.31534e-07
0.000100038
-1.26386e-07
0.000100081
-1.21054e-07
0.000100122
-1.18335e-07
0.000100165
-1.20591e-07
0.000100211
-1.28882e-07
0.000100261
-1.42676e-07
0.000100318
-1.60114e-07
0.000100382
-1.78632e-07
0.000100452
-1.95642e-07
0.000100526
-2.09064e-07
0.000100604
-2.17603e-07
0.000100684
-2.20791e-07
0.000100762
-2.18847e-07
0.000100838
-2.12466e-07
0.000100911
-2.02587e-07
0.000100979
-1.90212e-07
0.000101041
-1.76275e-07
0.000101099
-1.61571e-07
0.000101151
-1.46725e-07
0.000101198
-1.32203e-07
0.00010124
-1.18327e-07
0.000101277
-1.05306e-07
0.00010131
-9.32549e-08
0.000101338
-8.22275e-08
0.000101364
-7.22285e-08
0.000101386
-6.32311e-08
0.000101405
-5.51874e-08
0.000101422
-4.80366e-08
0.000101436
-4.17106e-08
0.000101449
-3.61384e-08
0.000101459
-3.12489e-08
0.000101469
-2.69731e-08
0.000101477
-2.32453e-08
0.000101484
-2.0004e-08
0.000101489
-1.71926e-08
0.000101494
-1.47593e-08
0.000101499
-1.26573e-08
0.000101503
-1.08446e-08
0.000101506
-9.28371e-09
0.000101508
-7.94141e-09
0.000101511
-6.78844e-09
0.000101513
-5.79911e-09
0.000101514
-4.95089e-09
0.000101516
-4.2242e-09
0.000101517
-3.60197e-09
0.000101518
-3.06942e-09
0.000101519
-2.61374e-09
0.00010152
-2.22386e-09
0.00010152
-1.89024e-09
0.000101521
-1.60464e-09
0.000101521
-1.35997e-09
0.000101522
-1.15012e-09
0.000101522
-9.69833e-10
0.000101522
-8.14549e-10
0.000101523
-6.8035e-10
0.000101523
-5.63844e-10
0.000101523
-4.62072e-10
0.000101523
-3.72451e-10
0.000101523
-2.92711e-10
0.000101523
-2.20841e-10
0.000101523
-1.55035e-10
0.000101523
-9.36476e-11
0.000101523
-3.51946e-11
0.000101523
2.20537e-11
0.000101523
7.97033e-11
0.000101523
1.38808e-10
0.000101523
2.00922e-10
0.000101523
2.67633e-10
0.000101523
3.40643e-10
0.000101523
4.21853e-10
0.000101523
5.13374e-10
0.000101523
6.17651e-10
0.000101522
7.37432e-10
0.000101522
8.7612e-10
0.000101522
1.03734e-09
0.000101521
1.2262e-09
0.000101521
1.44722e-09
0.00010152
1.709e-09
0.000101519
2.01561e-09
0.000101519
2.38441e-09
0.000101518
2.81254e-09
0.000101517
3.34215e-09
0.000101515
3.93921e-09
0.000101514
4.72038e-09
0.000101512
5.54066e-09
0.00010151
6.73743e-09
0.000101507
7.82182e-09
0.000101504
9.74282e-09
0.0001015
1.10764e-08
0.000101495
1.42748e-08
0.00010149
1.57849e-08
0.000101483
2.1018e-08
0.000101477
2.30255e-08
0.000101464
3.02223e-08
0.000101456
3.59941e-08
0.000101437
3.92629e-08
0.000101425
6.46919e-08
0.000101399
3.53582e-08
0.000101374
1.37678e-07
0.000101354
-2.09708e-08
0.000101282
3.25045e-07
0.000101315
-2.22053e-07
0.000101106
7.69029e-07
0.000101313
-7.35024e-07
0.000100775
1.69208e-06
0.000101384
-1.77977e-06
0.000100204
3.31316e-06
0.00010154
-3.53379e-06
9.93813e-05
5.63526e-06
0.000101763
-6.01661e-06
9.84812e-05
8.3011e-06
0.000102061
-9.00093e-06
9.78465e-05
1.07611e-05
0.000102302
-1.16529e-05
9.77422e-05
1.22059e-05
0.000102057
-1.22702e-05
9.79433e-05
1.17075e-05
0.000101384
-1.05252e-05
9.76456e-05
1.04911e-05
0.000101119
-9.9045e-06
9.67194e-05
1.15438e-05
0.000101193
-1.23949e-05
9.66422e-05
1.29709e-05
0.000100329
-1.22463e-05
9.79619e-05
9.28236e-06
9.92486e-05
-6.90011e-06
9.79612e-05
6.28872e-06
0.000100723
-9.02743e-06
9.58244e-05
1.43755e-05
0.000102571
-1.85338e-05
9.55137e-05
1.93215e-05
0.000101716
-1.71237e-05
9.591e-05
1.47269e-05
0.000101846
-1.5358e-05
9.55844e-05
1.55052e-05
0.000101514
-1.60226e-05
9.90739e-05
6.40626e-06
0.000101051
-5.54589e-06
0.000100834
-8.55785e-07
0.000103671
-5.72758e-06
0.000104279
-4.06846e-06
0.000103937
1.08227e-06
0.000106635
-7.07247e-06
0.000111938
-1.2869e-05
0.000105266
1.00898e-05
0.000116297
-2.18667e-05
0.000116605
-4.74821e-06
0.000120007
-9.7666e-06
0.000123719
-1.1709e-05
0.000127959
-1.0949e-05
0.000133131
-1.49592e-05
0.000140932
-2.02574e-05
0.000145462
-1.44564e-05
0.00015232
-1.87242e-05
0.000159282
-2.06757e-05
0.000169306
-2.53315e-05
0.000181263
-3.04175e-05
0.000192292
-3.0719e-05
0.000202617
-2.91698e-05
0.000213422
-2.99945e-05
0.000224454
-3.01158e-05
-2.87562e-05
0.00023573
0.000118774
-2.82722e-08
0.000118802
-8.41271e-08
0.000118846
-1.3889e-07
0.000118908
-1.91344e-07
0.000118985
-2.39975e-07
0.000119077
-2.84288e-07
0.000119181
-3.24401e-07
0.000119296
-3.59524e-07
0.00011942
-3.88228e-07
0.00011955
-4.09966e-07
0.000119685
-4.26345e-07
0.000119823
-4.38079e-07
0.000119963
-4.44273e-07
0.000120102
-4.44282e-07
0.00012024
-4.39723e-07
0.000120375
-4.33169e-07
0.000120506
-4.25157e-07
0.000120635
-4.14173e-07
0.000120758
-3.99501e-07
0.000120875
-3.82733e-07
0.000120988
-3.66437e-07
0.000121095
-3.51787e-07
0.000121198
-3.37426e-07
0.000121295
-3.21049e-07
0.000121387
-3.02453e-07
0.000121473
-2.84352e-07
0.000121554
-2.69659e-07
0.000121632
-2.58577e-07
0.000121707
-2.48687e-07
0.000121778
-2.37303e-07
0.000121845
-2.23637e-07
0.000121908
-2.09474e-07
0.000121967
-1.98053e-07
0.000122024
-1.91858e-07
0.00012208
-1.90745e-07
0.000122137
-1.91871e-07
0.000122194
-1.91501e-07
0.00012225
-1.8735e-07
0.000122304
-1.79888e-07
0.000122355
-1.72087e-07
0.000122404
-1.68023e-07
0.000122455
-1.71172e-07
0.000122509
-1.83123e-07
0.00012257
-2.03129e-07
0.000122638
-2.28495e-07
0.000122715
-2.55479e-07
0.0001228
-2.80293e-07
0.00012289
-2.99887e-07
0.000122985
-3.12358e-07
0.000123081
-3.17013e-07
0.000123177
-3.14173e-07
0.000123269
-3.04856e-07
0.000123357
-2.90443e-07
0.000123439
-2.72408e-07
0.000123515
-2.52123e-07
0.000123584
-2.30753e-07
0.000123647
-2.09217e-07
0.000123703
-1.88194e-07
0.000123752
-1.68151e-07
0.000123797
-1.49385e-07
0.000123835
-1.32061e-07
0.000123869
-1.16247e-07
0.000123899
-1.01943e-07
0.000123925
-8.91034e-08
0.000123947
-7.7652e-08
0.000123967
-6.74949e-08
0.000123984
-5.85289e-08
0.000123998
-5.06474e-08
0.000124011
-4.37449e-08
0.000124021
-3.77196e-08
0.000124031
-3.24753e-08
0.000124039
-2.79224e-08
0.000124045
-2.3979e-08
0.000124051
-2.05703e-08
0.000124056
-1.76292e-08
0.00012406
-1.50955e-08
0.000124064
-1.29158e-08
0.000124067
-1.10431e-08
0.00012407
-9.43579e-09
0.000124072
-8.05754e-09
0.000124074
-6.87664e-09
0.000124076
-5.86549e-09
0.000124077
-5.00013e-09
0.000124078
-4.25981e-09
0.000124079
-3.6266e-09
0.00012408
-3.08502e-09
0.000124081
-2.62173e-09
0.000124081
-2.22524e-09
0.000124082
-1.88564e-09
0.000124082
-1.59443e-09
0.000124083
-1.34428e-09
0.000124083
-1.12886e-09
0.000124083
-9.42714e-10
0.000124084
-7.81119e-10
0.000124084
-6.39955e-10
0.000124084
-5.15639e-10
0.000124084
-4.05025e-10
0.000124084
-3.05322e-10
0.000124084
-2.14023e-10
0.000124084
-1.2885e-10
0.000124084
-4.7744e-11
0.000124084
3.17163e-11
0.000124084
1.11716e-10
0.000124084
1.93734e-10
0.000124084
2.79911e-10
0.000124084
3.72443e-10
0.000124084
4.73679e-10
0.000124084
5.86235e-10
0.000124083
7.13016e-10
0.000124083
8.57385e-10
0.000124083
1.02307e-09
0.000124083
1.21477e-09
0.000124082
1.43734e-09
0.000124082
1.69796e-09
0.000124081
2.00233e-09
0.000124081
2.36308e-09
0.00012408
2.78372e-09
0.000124079
3.29186e-09
0.000124078
3.87519e-09
0.000124076
4.60772e-09
0.000124075
5.40934e-09
0.000124073
6.50496e-09
0.000124071
7.56674e-09
0.000124069
9.30543e-09
0.000124066
1.05728e-08
0.000124062
1.3571e-08
0.000124058
1.46633e-08
0.000124052
2.03046e-08
0.000124048
2.00222e-08
0.000124038
3.11994e-08
0.000124034
2.68932e-08
0.000124016
4.84857e-08
0.000124015
3.68494e-08
0.000123982
7.25401e-08
0.000123988
5.83922e-08
0.000123931
9.21788e-08
0.000123945
1.23991e-07
0.000123866
5.8262e-08
0.000123862
3.2907e-07
0.000123807
-1.66893e-07
0.000123682
8.93836e-07
0.000123811
-8.64321e-07
0.000123297
2.20611e-06
0.000123963
-2.44579e-06
0.000122565
4.71126e-06
0.000124304
-5.273e-06
0.000121439
8.50002e-06
0.000124761
-9.33868e-06
0.000120202
1.28603e-05
0.000125172
-1.39703e-05
0.00011946
1.64726e-05
0.000125169
-1.73618e-05
0.000119586
1.77889e-05
0.000124326
-1.701e-05
0.000119909
1.61242e-05
0.00012334
-1.39559e-05
0.000119145
1.46862e-05
0.000123287
-1.40466e-05
0.000117617
1.72137e-05
0.000123276
-1.80543e-05
0.000117777
1.84697e-05
0.00012156
-1.60286e-05
0.000119673
1.11688e-05
0.000120141
-7.36831e-06
0.000119488
6.94246e-06
0.000122304
-1.18438e-05
0.000117237
1.94427e-05
0.000124561
-2.58583e-05
0.000117518
2.63652e-05
0.000124038
-2.36435e-05
0.000117792
2.09725e-05
0.000125283
-2.28494e-05
0.000117768
2.30205e-05
0.000125267
-2.35221e-05
0.000122457
9.21629e-06
0.000125334
-8.42228e-06
0.000124099
3.78879e-07
0.000128868
-1.04967e-05
0.000128363
-3.56311e-06
0.000129061
3.84183e-07
0.000131587
-9.59858e-06
0.000139491
-2.07726e-05
0.000127891
2.16899e-05
0.000145329
-3.93055e-05
0.000141888
-1.30668e-06
0.000146189
-1.40678e-05
0.000151744
-1.72644e-05
0.000157297
-1.65016e-05
0.000160534
-1.81959e-05
0.000172279
-3.20028e-05
0.000176003
-1.81808e-05
0.000185745
-2.84659e-05
0.000193802
-2.87322e-05
0.000208291
-3.98206e-05
0.000221704
-4.38306e-05
0.000234187
-4.3202e-05