/*--------------------------------*- C++ -*----------------------------------*\
  =========                 |
  \\      /  F ield         | OpenFOAM: The Open Source CFD Toolbox
   \\    /   O peration     | Website:  https://openfoam.org
    \\  /    A nd           | Version:  7
     \\/     M anipulation  |
\*---------------------------------------------------------------------------*/
FoamFile
{
    version     2.0;
    format      ascii;
    class       surfaceScalarField;
    location    "207";
    object      phi;
}
// * * * * * * * * * * * * * * * * * * * * * * * * * * * * * * * * * * * * * //

dimensions      [0 3 -1 0 0 0 0];

internalField   nonuniform List<scalar> 
24510
(
-6.62621e-06
-5.78579e-06
1.2412e-05
-2.42661e-05
-3.97845e-05
5.74244e-05
-5.21124e-05
-9.51024e-05
0.000122949
-8.96539e-05
-0.000168202
0.000205743
-0.00013654
-0.000255123
0.000302009
-0.000192455
-0.000352917
0.000408832
-0.000256982
-0.000460883
0.00052541
-0.000329512
-0.00058129
0.00065382
-0.000409204
-0.000719198
0.000798891
-0.000494961
-0.000881414
0.000967171
-0.000585332
-0.001075
0.00116537
-0.000678295
-0.00130585
0.00139881
-0.000770877
-0.00157736
0.00166994
-0.000858655
-0.00188904
0.00197682
-0.000935153
-0.00223435
0.00231085
-0.000991241
-0.00259752
0.0026536
-0.00101452
-0.00294941
0.0029727
-0.000989403
-0.00324383
0.00321871
-0.000898819
-0.00341482
0.00332424
-0.00337208
0.00319785
-0.000724597
-7.35571e-06
1.56993e-06
-2.69301e-05
-2.02101e-05
-5.77754e-05
-6.42571e-05
-9.92321e-05
-0.000126745
-0.000150814
-0.000203541
-0.000212122
-0.000291608
-0.000282762
-0.000390243
-0.000362291
-0.000501761
-0.000450196
-0.000631293
-0.00054586
-0.000785751
-0.000648444
-0.000972419
-0.000756657
-0.00119764
-0.000868383
-0.00146563
-0.000980212
-0.00177721
-0.00108686
-0.0021277
-0.00118052
-0.00250386
-0.0012501
-0.00287984
-0.0012811
-0.00321283
-0.00125601
-0.00343991
-0.00347328
-0.0011548
-7.83563e-06
9.40556e-06
-2.87261e-05
6.80364e-07
-6.1634e-05
-3.13493e-05
-0.000105774
-8.26049e-05
-0.000160523
-0.000148792
-0.000225382
-0.00022675
-0.000299935
-0.00031569
-0.00038384
-0.000417856
-0.000476812
-0.000538321
-0.000578578
-0.000683984
-0.000688746
-0.000862252
-0.000806559
-0.00107982
-0.000930565
-0.00134163
-0.0010582
-0.00164958
-0.00118528
-0.00200061
-0.00130542
-0.00238372
-0.00140918
-0.00277608
-0.00148389
-0.00313812
-0.00151349
-0.00341032
-0.003513
-0.00147376
-8.03138e-06
1.74369e-05
-2.95399e-05
2.21889e-05
-6.3466e-05
2.57691e-06
-0.000108937
-3.71339e-05
-0.000165198
-9.25311e-05
-0.000231627
-0.000160322
-0.000307739
-0.000239577
-0.000393204
-0.000332391
-0.00048784
-0.000443685
-0.000591552
-0.000580272
-0.000704184
-0.00074962
-0.000825279
-0.000958727
-0.000953783
-0.00121312
-0.00108771
-0.00151566
-0.00122374
-0.00186457
-0.00135677
-0.00225069
-0.00147909
-0.00265376
-0.00158006
-0.00303715
-0.00164683
-0.00334355
-0.00350992
-0.00164991
-7.92524e-06
2.53622e-05
-2.93101e-05
4.35737e-05
-6.31577e-05
3.64245e-05
-0.00010854
8.24873e-06
-0.00016459
-3.6481e-05
-0.00023054
-9.4372e-05
-0.000305775
-0.000164342
-0.000389875
-0.000248291
-0.000482615
-0.000350946
-0.000583887
-0.000478999
-0.000693539
-0.000639969
-0.000811133
-0.000841132
-0.000935699
-0.00108856
-0.00106547
-0.00138589
-0.00119763
-0.00173241
-0.00132805
-0.00212028
-0.00145057
-0.00253124
-0.0015562
-0.00293152
-0.00163684
-0.0032629
-0.00348933
-0.00165744
-7.51923e-06
3.28814e-05
-2.80404e-05
6.40949e-05
-6.07e-05
6.90841e-05
-0.000104574
5.2123e-05
-0.000158687
1.76319e-05
-0.000222105
-3.09538e-05
-0.000294019
-9.24284e-05
-0.000373809
-0.000168502
-0.000461047
-0.000263707
-0.000555411
-0.000384635
-0.000656496
-0.000538884
-0.000763587
-0.000734041
-0.000875439
-0.000976707
-0.0009901
-0.00127123
-0.0011048
-0.0016177
-0.00121594
-0.00200915
-0.00131867
-0.0024285
-0.00140495
-0.00284525
-0.00147223
-0.00319562
-0.00348064
-0.00148091
-6.83362e-06
3.9715e-05
-2.57886e-05
8.30499e-05
-5.6204e-05
9.94995e-05
-9.71984e-05
9.31174e-05
-0.000147709
6.81428e-05
-0.000206607
2.79436e-05
-0.000272825
-2.62101e-05
-0.000345432
-9.58953e-05
-0.00042364
-0.000185499
-0.000506699
-0.000301576
-0.000593702
-0.000451881
-0.00068335
-0.000644393
-0.000773756
-0.000886301
-0.000862356
-0.00118263
-0.000945944
-0.00153412
-0.00102089
-0.00193421
-0.00108342
-0.00236596
-0.001126
-0.00280267
-0.0011513
-0.00317031
-0.00351366
-0.00111828
-5.9065e-06
4.56215e-05
-2.26705e-05
9.98139e-05
-4.98828e-05
0.000126712
-8.67381e-05
0.000129973
-0.000132094
0.000113499
-0.000184618
8.04668e-05
-0.00024291
3.20821e-05
-0.000305628
-3.31769e-05
-0.000371474
-0.000119653
-0.000439075
-0.000233975
-0.00050678
-0.000384176
-0.000572424
-0.000578749
-0.000633141
-0.000825584
-0.000685365
-0.0011304
-0.00072501
-0.00149447
-0.000747875
-0.00191134
-0.000750895
-0.00236294
-0.000726809
-0.00282676
-0.0006824
-0.00321472
-0.00361226
-0.000583796
-4.79088e-06
5.04124e-05
-1.88504e-05
0.000113873
-4.20437e-05
0.000149905
-7.36609e-05
0.00016159
-0.000112489
0.000152327
-0.000156964
0.000124941
-0.000205324
8.04425e-05
-0.000255701
1.71998e-05
-0.000306167
-6.91874e-05
-0.000354553
-0.000185589
-0.000398263
-0.000340466
-0.000434038
-0.000542974
-0.000457774
-0.000801848
-0.000464623
-0.00112355
-0.000449356
-0.00150974
-0.000406733
-0.00195397
-0.000334186
-0.00243549
-0.000228052
-0.00293289
-6.96819e-05
-0.00337309
-0.00375693
7.49871e-05
-3.55069e-06
5.39631e-05
-1.45293e-05
0.000124852
-3.30677e-05
0.000168443
-5.85524e-05
0.000187075
-8.96996e-05
0.000183475
-0.000124701
0.000159943
-0.000161381
0.000117122
-0.000197307
5.31262e-05
-0.000229776
-3.67187e-05
-0.000255712
-0.000159652
-0.000271421
-0.000324757
-0.000272405
-0.00054199
-0.000253183
-0.000821071
-0.000207551
-0.00116919
-0.000129199
-0.00158809
-1.21127e-05
-0.00207105
0.000150236
-0.00259784
0.000345473
-0.00312813
0.000595098
-0.00362272
-0.00405098
0.000889148
-2.25589e-06
5.6219e-05
-9.9314e-06
0.000132528
-2.33844e-05
0.000181896
-4.20787e-05
0.000205769
-6.46499e-05
0.000206046
-8.90344e-05
0.000184327
-0.000112615
0.000140703
-0.000132326
7.28375e-05
-0.00014465
-2.43952e-05
-0.000145491
-0.000158811
-0.000129953
-0.000340295
-9.22967e-05
-0.000579646
-2.56622e-05
-0.000887705
7.73825e-05
-0.00127223
0.000224039
-0.00173475
0.000419662
-0.00226667
0.000668078
-0.00284626
0.000965917
-0.00342597
0.00130907
-0.00396587
-0.00446326
0.00172135
-9.7715e-07
5.71961e-05
-5.28654e-06
0.000136837
-1.34413e-05
0.000190051
-2.49409e-05
0.000217268
-3.8319e-05
0.000219424
-5.12418e-05
0.00019725
-6.06313e-05
0.000150092
-6.27513e-05
7.49575e-05
-5.32332e-05
-3.39132e-05
-2.69259e-05
-0.000185118
2.21904e-05
-0.000389411
0.000101489
-0.000658944
0.000218712
-0.00100493
0.00038203
-0.00143555
0.000598582
-0.0019513
0.000872166
-0.00254026
0.00120517
-0.00317926
0.00159036
-0.00381115
0.00201937
-0.00439488
-0.00495916
0.00251527
2.2141e-07
5.69747e-05
-8.12046e-07
0.00013787
-3.66918e-06
0.000192908
-7.82211e-06
0.000221421
-1.16666e-05
0.000223269
-1.25785e-05
0.000198162
-7.00614e-06
0.00014452
9.45295e-06
5.84984e-05
4.21407e-05
-6.6601e-05
9.72649e-05
-0.000240242
0.000182117
-0.000474264
0.00030486
-0.000781687
0.000474337
-0.00117441
0.000698746
-0.00165996
0.000984061
-0.00223661
0.00133087
-0.00288707
0.00173732
-0.00358572
0.0021917
-0.00426553
0.00268394
-0.00488713
-0.00549706
0.00322185
1.28293e-06
5.56918e-05
3.30209e-06
0.000135851
5.55305e-06
0.000190657
8.67024e-06
0.000218304
1.44485e-05
0.00021749
2.58387e-05
0.000186772
4.68991e-05
0.000123459
8.2762e-05
2.26354e-05
0.000139609
-0.000123448
0.000224763
-0.000325397
0.000346613
-0.000596113
0.000514266
-0.000949341
0.000736752
-0.00139689
0.00102125
-0.00194445
0.00137091
-0.00258627
0.0017818
-0.00329796
0.00224489
-0.0040488
0.00274461
-0.00476525
0.00327092
-0.00541343
-0.00603698
0.00381084
2.16895e-06
5.35229e-05
6.91773e-06
0.000131103
1.39353e-05
0.00018364
2.40626e-05
0.000208177
3.9356e-05
0.000202197
6.31395e-05
0.000162988
0.000100011
8.65875e-05
0.000155836
-3.3189e-05
0.000237734
-0.000205346
0.000354051
-0.000441714
0.000514106
-0.000756168
0.000727472
-0.00116271
0.00100251
-0.00167193
0.00134393
-0.00228587
0.00175003
-0.00299237
0.00221106
-0.00375899
0.00270972
-0.00454746
0.00322776
-0.0052833
0.00375681
-0.00594248
-0.00654858
0.00426841
2.85901e-06
5.06638e-05
9.95407e-06
0.000124007
2.13047e-05
0.000172289
3.80659e-05
0.000191416
6.26436e-05
0.000177619
9.88077e-05
0.000126824
0.000151754
3.36414e-05
0.000228125
-0.00010956
0.000335969
-0.000313191
0.000484559
-0.000590304
0.00068382
-0.000955428
0.000943045
-0.00142193
0.00126863
-0.00199752
0.00166102
-0.00267826
0.0021118
-0.00344315
0.0026045
-0.0042517
0.00311492
-0.00505788
0.00362486
-0.00579323
0.00412832
-0.00644594
-0.00701391
0.00459364
3.3536e-06
4.73102e-05
1.24023e-05
0.000114959
2.76289e-05
0.000157062
5.06188e-05
0.000168426
8.42316e-05
0.000144006
0.000132776
7.82796e-05
0.000202124
-3.57065e-05
0.000299739
-0.000207175
0.000434559
-0.00044801
0.000616557
-0.000772301
0.000855682
-0.00119455
0.00115983
-0.00172608
0.00153172
-0.00236941
0.00196562
-0.00311216
0.0024454
-0.00392293
0.00294829
-0.00475459
0.00344667
-0.00555626
0.00392636
-0.00627292
0.00438372
-0.0069033
-0.00742663
0.00479644
3.67529e-06
4.3635e-05
1.43276e-05
0.000104306
3.30263e-05
0.000138364
6.19053e-05
0.000139547
0.000104395
0.000101517
0.000165453
1.72217e-05
0.000251714
-0.000121967
0.000371482
-0.000326944
0.000534449
-0.000610978
0.000750856
-0.000988708
0.00102975
-0.00147344
0.00137606
-0.00207239
0.00178696
-0.00278031
0.00224915
-0.00357435
0.00273925
-0.00441303
0.0032305
-0.00524584
0.00369667
-0.00602243
0.00413103
-0.00670727
0.00453184
-0.00730412
-0.007789
0.0048942
3.86703e-06
3.97679e-05
1.58653e-05
9.23082e-05
3.77587e-05
0.00011647
7.23455e-05
0.00010496
0.000123749
5.01128e-05
0.000197691
-5.67202e-05
0.000301634
-0.00022591
0.000444676
-0.000469986
0.00063696
-0.000803262
0.000888255
-0.00124
0.00120537
-0.00179055
0.00158848
-0.0024555
0.00202761
-0.00321944
0.00250175
-0.0040485
0.00298262
-0.0048939
0.00344332
-0.00570654
0.00386385
-0.00644297
0.00424582
-0.00708923
0.00458914
-0.00764744
-0.0081041
0.00490424
3.98824e-06
3.57797e-05
1.72079e-05
7.90885e-05
4.22062e-05
9.1472e-05
8.25523e-05
6.46139e-05
0.000143179
-1.05139e-05
0.000230665
-0.000144207
0.000353315
-0.00034856
0.000520835
-0.000637505
0.000743268
-0.0010257
0.00102882
-0.00152555
0.00138041
-0.00214215
0.00179179
-0.00286688
0.00224525
-0.0036729
0.00271368
-0.00451693
0.00316773
-0.00534795
0.0035847
-0.0061235
0.0039541
-0.00681237
0.00428362
-0.00741875
0.00457301
-0.00793682
-0.00840007
0.00486898
4.10853e-06
3.16712e-05
1.85841e-05
6.46129e-05
4.6823e-05
6.32332e-05
9.32543e-05
1.81826e-05
0.000163714
-8.09736e-05
0.000265681
-0.000246174
0.000408207
-0.000491086
0.000601218
-0.000830517
0.000853806
-0.00127828
0.0011712
-0.00184295
0.00155081
-0.00252175
0.00197893
-0.003295
0.00243106
-0.00412502
0.00287729
-0.00496317
0.00329142
-0.00576209
0.00365828
-0.00649035
0.00397762
-0.00713172
0.00426153
-0.00770266
0.00451725
-0.00819254
-0.00866887
0.00478605
4.29984e-06
2.73713e-05
2.02317e-05
4.8681e-05
5.20799e-05
3.1385e-05
0.000105196
-3.4934e-05
0.000186364
-0.000162142
0.000303924
-0.000363733
0.000467417
-0.000654578
0.000686357
-0.00104946
0.000967741
-0.00155967
0.00131231
-0.00218751
0.0017107
-0.00292015
0.00214206
-0.00372636
0.0025776
-0.00456056
0.00298867
-0.00537424
0.00335561
-0.00612903
0.00367216
-0.0068069
0.00394615
-0.0074057
0.00419139
-0.00794791
0.00443177
-0.00843292
-0.00893308
0.00469598
4.62787e-06
2.27434e-05
2.2368e-05
3.09409e-05
5.84025e-05
-4.64946e-06
0.000119028
-9.55595e-05
0.000211953
-0.000255066
0.000346211
-0.000497992
0.000531386
-0.000839753
0.000775695
-0.00129377
0.00108272
-0.0018667
0.0014474
-0.00255219
0.00185331
-0.00332605
0.00227413
-0.00414718
0.00268035
-0.00496678
0.00304819
-0.00574208
0.0033663
-0.00644714
0.00363665
-0.00707725
0.00387212
-0.00764117
0.00408937
-0.00816516
0.00430895
-0.0086525
-0.00916832
0.00454419
5.14457e-06
1.75989e-05
2.51641e-05
1.09214e-05
6.61158e-05
-4.56011e-05
0.00013521
-0.000164654
0.000240966
-0.000360822
0.000392799
-0.000649825
0.000599676
-0.00104663
0.000867447
-0.00156154
0.00119502
-0.00219427
0.00157079
-0.00292797
0.00197217
-0.00372743
0.00237025
-0.00454526
0.00273835
-0.00533489
0.00305991
-0.00606364
0.00333182
-0.00671904
0.00356229
-0.00730773
0.00376695
-0.00784582
0.00396174
-0.00835995
0.00416432
-0.00885507
-0.00939005
0.00438605
5.88327e-06
1.17156e-05
2.87271e-05
-1.19225e-05
7.54052e-05
-9.22792e-05
0.000153949
-0.000243197
0.000273467
-0.00048034
0.000443283
-0.000819642
0.000670917
-0.00127426
0.000958724
-0.00184934
0.00129998
-0.00253553
0.00167676
-0.00330474
0.00206231
-0.00411298
0.00242842
-0.00491136
0.00275397
-0.00566044
0.00303029
-0.00633995
0.00326115
-0.00694991
0.0034587
-0.00750528
0.00363895
-0.00802608
0.00381616
-0.00853717
0.00400493
-0.00904384
-0.00959596
0.00421084
6.8571e-06
4.85849e-06
3.30934e-05
-3.81588e-05
8.63038e-05
-0.00014549
0.000175177
-0.00033207
0.000309075
-0.000614238
0.000496615
-0.00100718
0.000742935
-0.00152058
0.0010459
-0.00215231
0.00139281
-0.00288244
0.00176058
-0.00367251
0.00212103
-0.00447344
0.00244951
-0.00523984
0.00273189
-0.00594281
0.00296671
-0.00657477
0.00316268
-0.00714588
0.00333367
-0.00767627
0.00349462
-0.00818703
0.00365743
-0.00869997
0.00383343
-0.00921984
-0.00978857
0.00402604
8.06079e-06
-3.2023e-06
3.82333e-05
-6.83313e-05
9.86998e-05
-0.000205956
0.000198568
-0.000431938
0.000347012
-0.000762683
0.000551215
-0.00121138
0.000813011
-0.00178238
0.0011251
-0.0024644
0.00146925
-0.00322658
0.00181915
-0.00402241
0.00214799
-0.00480228
0.00243661
-0.00552847
0.00267799
-0.00618419
0.00287643
-0.00677322
0.00304355
-0.007313
0.00319323
-0.00782595
0.00333848
-0.00833228
0.00348877
-0.00885025
0.00365289
-0.00938396
-0.00996789
0.00383221
9.47485e-06
-1.26771e-05
4.40628e-05
-0.000102919
0.00011236
-0.000274254
0.000223585
-0.000543163
0.000386189
-0.000925286
0.000605145
-0.00143034
0.000878205
-0.00205544
0.00119275
-0.00277895
0.00152614
-0.00355998
0.00185125
-0.00434751
0.00214484
-0.00509587
0.00239415
-0.00577778
0.00259837
-0.00638841
0.00276588
-0.00694073
0.0029094
-0.00745651
0.00304173
-0.00795828
0.00317365
-0.0084642
0.00331242
-0.00898902
0.00346472
-0.00953626
-0.0101339
0.00363076
1.10704e-05
-2.37475e-05
5.0459e-05
-0.000142308
0.000126964
-0.000350759
0.000249537
-0.000665736
0.000425311
-0.00110106
0.000656308
-0.00166134
0.000935694
-0.00233483
0.00124596
-0.00308921
0.00156176
-0.00387578
0.00185739
-0.00464314
0.00211467
-0.00535315
0.00232707
-0.00599017
0.00249873
-0.00656008
0.00264036
-0.00708235
0.00276449
-0.00758065
0.00288226
-0.00807605
0.00300223
-0.00858418
0.00312985
-0.00911664
0.00327017
-0.00967658
-0.0102865
0.00342269
1.28131e-05
-3.65607e-05
5.72737e-05
-0.000186768
0.000142128
-0.000435613
0.000275636
-0.000799244
0.000462991
-0.00128841
0.000702642
-0.00190099
0.000983053
-0.00261524
0.00128279
-0.00338894
0.00157575
-0.00416874
0.00183942
-0.00490681
0.00206126
-0.005575
0.00224024
-0.00616915
0.00238396
-0.0067038
0.00250402
-0.00720241
0.00261194
-0.00768857
0.00271696
-0.00818106
0.00282568
-0.0086929
0.00294213
-0.00923308
0.00307015
-0.0098046
-0.0104251
0.00320884
1.4666e-05
-5.12267e-05
6.43429e-05
-0.000236445
0.000157436
-0.000528706
0.000301048
-0.000942856
0.000497847
-0.00148521
0.00074229
-0.00214543
0.00101845
-0.0028914
0.00130234
-0.00367282
0.00156891
-0.00443531
0.00180002
-0.00513792
0.00198863
-0.00576362
0.00213809
-0.00631861
0.00225807
-0.00682378
0.00236
-0.00730435
0.00245395
-0.00778251
0.00254728
-0.0082744
0.00264501
-0.00879062
0.00275007
-0.00933815
0.0028654
-0.00991993
-0.0105497
0.00298994
1.65901e-05
-6.78168e-05
7.14931e-05
-0.000291348
0.000172452
-0.000629665
0.000324939
-0.00109534
0.000528591
-0.00168887
0.000773734
-0.00239057
0.00104077
-0.00315844
0.00130466
-0.00393672
0.00154293
-0.00467358
0.00174229
-0.00533728
0.00190061
-0.00592194
0.00202438
-0.00644238
0.00212418
-0.00692357
0.0022106
-0.00739077
0.00229204
-0.00786396
0.00237427
-0.00835663
0.00246096
-0.00887731
0.00255433
-0.00943151
0.00265659
-0.0100222
-0.0106598
0.00276667
1.85449e-05
-8.63616e-05
7.85449e-05
-0.000351348
0.000186737
-0.000737858
0.000346509
-0.00125511
0.000554103
-0.00189646
0.000795877
-0.00263235
0.00104957
-0.00341213
0.00129061
-0.00417775
0.00150003
-0.00488301
0.00166942
-0.00550666
0.00180063
-0.00605315
0.0019022
-0.00654394
0.00198469
-0.00700606
0.00205747
-0.00746355
0.00212733
-0.00793382
0.00219865
-0.00842795
0.00227415
-0.00895281
0.00235546
-0.00951283
0.0024443
-0.010111
-0.0107551
0.00253965
2.04878e-05
-0.000106849
8.53158e-05
-0.000416176
0.000199865
-0.000852407
0.000365035
-0.00142028
0.000573495
-0.00210492
0.000808088
-0.00286694
0.00104507
-0.00364911
0.00126155
-0.00439423
0.00144266
-0.00506412
0.00158438
-0.00564838
0.00169164
-0.00616041
0.00177398
-0.00662628
0.00184137
-0.00707346
0.00190179
-0.00752397
0.00196058
-0.00799261
0.00202101
-0.00848837
0.00208506
-0.00901686
0.00215399
-0.00958177
0.00222911
-0.0101861
-0.0108355
0.00230947
2.23745e-05
-0.000129224
9.16244e-05
-0.000485426
0.000211434
-0.000972216
0.0003799
-0.00158875
0.000586142
-0.00231116
0.000810184
-0.00309098
0.00102797
-0.0038669
0.00121924
-0.0045855
0.00137329
-0.00521818
0.00148988
-0.00576497
0.00157605
-0.00624658
0.00164161
-0.00669183
0.00169555
-0.0071274
0.00174444
-0.00757286
0.00179238
-0.00804055
0.0018418
-0.00853778
0.00189415
-0.00906921
0.00195039
-0.00963801
0.00201151
-0.0102473
-0.0109007
0.00207668
2.41595e-05
-0.000153383
9.72953e-05
-0.000558562
0.000221085
-0.00109601
0.00039062
-0.00175828
0.000591705
-0.00251225
0.000802385
-0.00330166
0.000999353
-0.00406387
0.00116555
-0.0047517
0.00129425
-0.00534688
0.00138824
-0.00585896
0.00145583
-0.00631417
0.00150653
-0.00674253
0.00154818
-0.00716905
0.00158604
-0.00761072
0.0016232
-0.00807772
0.00166144
-0.00857602
0.00170182
-0.00910959
0.00174511
-0.0096813
0.00179201
-0.0102942
-0.0109504
0.00184179
2.57975e-05
-0.000179181
0.000102166
-0.00063493
0.000228517
-0.00122236
0.000396866
-0.00192663
0.000590115
-0.0027055
0.000785233
-0.00349678
0.000960524
-0.00423916
0.00110239
-0.00489356
0.00120766
-0.00545216
0.0012814
-0.0059327
0.00133252
-0.00636529
0.00136983
-0.00677985
0.00139997
-0.00719919
0.00142707
-0.00763781
0.00145341
-0.00810406
0.00148028
-0.00860289
0.00150846
-0.00913778
0.00153856
-0.0097114
0.00157106
-0.0103267
-0.0109847
0.00160532
2.7245e-05
-0.000206426
0.000106092
-0.000713777
0.000233497
-0.00134976
0.000398465
-0.0020916
0.00058155
-0.00288858
0.000759512
-0.00367474
0.000912893
-0.00439254
0.00103156
-0.00501223
0.00111537
-0.00553597
0.00117096
-0.0059883
0.0012073
-0.00640163
0.00123232
-0.00680486
0.00125147
-0.00721834
0.00126792
-0.00765427
0.00128335
-0.00811948
0.00129867
-0.00861821
0.00131445
-0.00915357
0.00133117
-0.00972811
0.00134912
-0.0103446
-0.0110033
0.00136774
2.8462e-05
-0.000234888
0.000108955
-0.000794271
0.000235868
-0.00147668
0.000395399
-0.00225113
0.000566386
-0.00305957
0.000726155
-0.00383451
0.000857883
-0.00452427
0.000954703
-0.00510905
0.00101894
-0.0056002
0.00105819
-0.00602755
0.00108111
-0.00642455
0.00109461
-0.00681835
0.00110308
-0.00722682
0.00110893
-0.00766011
0.00111332
-0.00812388
0.00111692
-0.00862181
0.00112014
-0.00915678
0.00112333
-0.0097313
0.00112662
-0.0103479
-0.0110062
0.00112953
2.94134e-05
-0.000264301
0.000110665
-0.000875522
0.000235556
-0.00160157
0.000387788
-0.00240337
0.000545153
-0.00321693
0.000686177
-0.00397553
0.000796859
-0.00463495
0.000873288
-0.00518548
0.00091968
-0.00564659
0.000944121
-0.006052
0.000954653
-0.00643508
0.000957174
-0.00682087
0.000955164
-0.00722481
0.00095037
-0.00765531
0.000943618
-0.00811713
0.000935354
-0.00861354
0.000925867
-0.0091473
0.000915412
-0.00972085
0.000903992
-0.0103365
-0.0109934
0.000891154
3.00706e-05
-0.000294372
0.000111163
-0.000956614
0.000232559
-0.00172296
0.00037587
-0.00254668
0.000518481
-0.00335955
0.000640606
-0.00409766
0.000731085
-0.00472543
0.000788576
-0.00524297
0.000818675
-0.00567669
0.000829545
-0.00606287
0.000828477
-0.00643401
0.000820397
-0.00681279
0.000807992
-0.0072124
0.000792512
-0.00763983
0.000774509
-0.00809912
0.000754267
-0.0085933
0.000731967
-0.009125
0.000707781
-0.00969666
0.000681634
-0.0103103
-0.0109648
0.000653076
3.04122e-05
-0.000324784
0.000110423
-0.00103662
0.00022695
-0.00183949
0.000359969
-0.0026797
0.000487055
-0.00348663
0.000590442
-0.00420105
0.000661698
-0.00479668
0.000701642
-0.00528291
0.000716792
-0.00569184
0.000715095
-0.00606117
0.000703012
-0.00642193
0.000684577
-0.00679436
0.000661818
-0.00718964
0.000635598
-0.00761361
0.000606258
-0.00806978
0.000573955
-0.008561
0.000538771
-0.00908981
0.000500794
-0.00965868
0.000459878
-0.0102694
-0.0109206
0.000415688
3.04242e-05
-0.000355208
0.000108448
-0.00111465
0.000218855
-0.0019499
0.000340477
-0.00280132
0.000451581
-0.00359773
0.000536621
-0.00428609
0.0005897
-0.00484976
0.000613385
-0.00530659
0.000614733
-0.00569319
0.000601265
-0.0060477
0.000578597
-0.00639926
0.000549968
-0.00676573
0.000516869
-0.00715655
0.000479861
-0.00757661
0.00043912
-0.00802904
0.000394698
-0.00851658
0.000346605
-0.00904172
0.00029485
-0.00960693
0.000238985
-0.0102136
-0.0108609
0.000179209
3.01005e-05
-0.000385309
0.000105273
-0.00118982
0.000208454
-0.00205308
0.000317821
-0.00291068
0.000412752
-0.00369267
0.000480001
-0.00435334
0.000515957
-0.00488572
0.000524547
-0.00531518
0.000513058
-0.0056817
0.000488447
-0.00602309
0.000455508
-0.00636632
0.000416791
-0.00672701
0.000373356
-0.00711311
0.000325526
-0.00752878
0.00027334
-0.00797686
0.000216756
-0.00845999
0.000155738
-0.0089807
9.01962e-05
-0.00954139
2.04073e-05
-0.0101438
-0.0107837
-5.67229e-05
2.94424e-05
-0.000414751
0.000100952
-0.00126133
0.000195957
-0.00214808
0.000292445
-0.00300717
0.000371228
-0.00377145
0.000421349
-0.00440346
0.000441204
-0.00490557
0.000435738
-0.00530972
0.000412215
-0.00565818
0.00037695
-0.00598782
0.000333972
-0.00632334
0.000285244
-0.00667828
0.000231472
-0.00705934
0.000172811
-0.00747011
0.000109138
-0.00791318
4.0328e-05
-0.00839118
-3.37333e-05
-0.00890664
-0.00011282
-0.0094623
-0.000197936
-0.0100586
-0.0106925
-0.000289116
2.84577e-05
-0.000443209
9.55631e-05
-0.00132844
0.000181599
-0.00223412
0.000264792
-0.00309037
0.000327621
-0.00383428
0.000361338
-0.00443717
0.000366064
-0.0049103
0.00034745
-0.0052911
0.000312558
-0.00562329
0.000267027
-0.00594229
0.000214186
-0.0062705
0.000155507
-0.00661961
9.13767e-05
-0.00699521
2.17733e-05
-0.00740051
-5.32554e-05
-0.00783816
-0.000134039
-0.0083104
-0.000220772
-0.00881991
-0.000313743
-0.00936933
-0.00041347
-0.00995892
-0.0105861
-0.000519889
2.71602e-05
-0.000470369
8.91976e-05
-0.00139047
0.000165627
-0.00231055
0.000235291
-0.00316003
0.000282488
-0.00388148
0.000300553
-0.00445524
0.000291052
-0.0049008
0.000260085
-0.00526014
0.000214374
-0.00557758
0.000158882
-0.0058868
9.63129e-05
-0.00620793
2.76448e-05
-0.00655094
-4.67253e-05
-0.00692084
-0.000126948
-0.00732029
-0.000213405
-0.0077517
-0.000306307
-0.0082175
-0.00040588
-0.00872034
-0.000512469
-0.00926274
-0.000626518
-0.00984487
-0.0104644
-0.000748218
2.55686e-05
-0.000495938
8.19574e-05
-0.00144686
0.000148288
-0.00237688
0.000204344
-0.00321609
0.000236327
-0.00391346
0.000239495
-0.00445841
0.000216597
-0.0048779
0.000173966
-0.00521751
0.000117897
-0.00552151
5.26536e-05
-0.00582156
-1.95957e-05
-0.00613568
-9.79097e-05
-0.00647262
-0.000182499
-0.00683625
-0.000273542
-0.00722925
-0.000371342
-0.0076539
-0.000476235
-0.00811261
-0.000588541
-0.00860803
-0.000708618
-0.00914266
-0.000836881
-0.00971661
-0.0103277
-0.000973634
2.37056e-05
-0.000519643
7.39513e-05
-0.00149711
0.000129828
-0.00243275
0.000172326
-0.00325858
0.000189577
-0.00393071
0.000178589
-0.00444742
0.000143046
-0.00484236
8.93551e-05
-0.00516382
2.32542e-05
-0.00545541
-5.14238e-05
-0.00574688
-0.000133021
-0.00605409
-0.000221207
-0.00638444
-0.000316005
-0.00674145
-0.000417739
-0.00712751
-0.000526788
-0.00754485
-0.000643564
-0.00799583
-0.000768469
-0.00848313
-0.000901904
-0.00900923
-0.00104426
-0.00957425
-0.0101761
-0.00119583
2.15978e-05
-0.000541241
6.52918e-05
-0.0015408
0.000110483
-0.00247795
0.000139581
-0.00328768
0.000142627
-0.00393376
0.000118184
-0.00442297
7.06789e-05
-0.00479485
6.38706e-06
-0.00509952
-6.92368e-05
-0.00537978
-0.000153213
-0.00566291
-0.00024424
-0.00596306
-0.000342108
-0.00628657
-0.000447016
-0.00663654
-0.000559339
-0.00701519
-0.000679526
-0.00742466
-0.000808057
-0.0078673
-0.000945411
-0.00834577
-0.00109205
-0.00886258
-0.00124834
-0.00941797
-0.01001
-0.00141448
1.92749e-05
-0.000560516
5.60926e-05
-0.00157762
9.0478e-05
-0.00251233
0.000106423
-0.00330363
9.58144e-05
-0.00392315
5.85448e-05
-0.0043857
-2.39869e-07
-0.00473607
-7.45211e-05
-0.00502524
-0.000159561
-0.00529474
-0.000252696
-0.00556977
-0.000353006
-0.00586275
-0.00046046
-0.00617912
-0.000575367
-0.00652163
-0.000698165
-0.00689239
-0.000829356
-0.00729347
-0.000969487
-0.00772717
-0.00111912
-0.00819614
-0.0012788
-0.0087029
-0.00144883
-0.00924793
-0.00982951
-0.00162928
1.67707e-05
-0.000577287
4.64653e-05
-0.00160731
7.00261e-05
-0.00253589
7.31301e-05
-0.00330673
4.94281e-05
-0.00389944
4.31177e-07
-0.00433671
-6.94259e-05
-0.00466621
-0.00015349
-0.00494118
-0.000247629
-0.0052006
-0.00034974
-0.00546766
-0.0004592
-0.00575329
-0.000576126
-0.00606219
-0.00070091
-0.00639685
-0.000834045
-0.00675926
-0.000976087
-0.00715143
-0.00112764
-0.00757562
-0.00128935
-0.00803443
-0.00146187
-0.00853039
-0.00164546
-0.00906434
-0.00963504
-0.00183993
1.41283e-05
-0.000591415
3.65223e-05
-0.00162971
4.93206e-05
-0.00254869
3.9946e-05
-0.00329736
4.11324e-06
-0.00386361
-5.71519e-05
-0.00427544
-0.000137021
-0.00458634
-0.000230346
-0.00484785
-0.00033333
-0.00509762
-0.000444245
-0.00535674
-0.000562715
-0.00563482
-0.00068898
-0.00593593
-0.000823499
-0.00626233
-0.000966817
-0.00661594
-0.00111954
-0.00699871
-0.00128232
-0.00741284
-0.00145588
-0.00786086
-0.00164101
-0.00834526
-0.00183794
-0.00886741
-0.00942684
-0.00204614
1.13744e-05
-0.000602789
2.63669e-05
-0.0016447
2.85424e-05
-0.00255087
7.42682e-06
-0.00327624
-4.12223e-05
-0.00381496
-0.000113045
-0.00420362
-0.000202705
-0.00449668
-0.000304978
-0.00474558
-0.000416571
-0.00498603
-0.00053612
-0.0052372
-0.000663449
-0.00550749
-0.000798901
-0.00580047
-0.000942995
-0.00611824
-0.00109632
-0.00646261
-0.00125953
-0.0068355
-0.00143332
-0.00723905
-0.00161851
-0.00767567
-0.001816
-0.00814777
-0.00202603
-0.00865738
-0.00920524
-0.00224762
8.52017e-06
-0.00061131
1.60934e-05
-0.00165227
8.01239e-06
-0.00254278
-2.54794e-05
-0.00324275
-8.51941e-05
-0.00375525
-0.000167396
-0.00412142
-0.00026639
-0.00439769
-0.000377301
-0.00463467
-0.000497279
-0.00486605
-0.00062528
-0.00510919
-0.000761301
-0.00537147
-0.000905772
-0.005656
-0.00105926
-0.00596475
-0.00122241
-0.00629946
-0.0013959
-0.00666201
-0.00158047
-0.00705448
-0.00177702
-0.00747912
-0.00198663
-0.00793817
-0.00220951
-0.0084345
-0.00897072
-0.00244403
5.58531e-06
-0.000616895
5.71372e-06
-0.0016524
-1.28408e-05
-0.00252423
-5.75099e-05
-0.00319808
-0.000128026
-0.00368473
-0.000220087
-0.00402936
-0.000327998
-0.00428978
-0.000447245
-0.00451542
-0.000575383
-0.00473791
-0.000711645
-0.00497293
-0.000856177
-0.00522693
-0.00100948
-0.0055027
-0.00117217
-0.00580205
-0.00134493
-0.0061267
-0.00152848
-0.00647847
-0.00172358
-0.00685937
-0.00193123
-0.00727147
-0.00215267
-0.00771673
-0.00238812
-0.00819905
-0.0087238
-0.00263504
2.48029e-06
-0.000619375
-4.68692e-06
-0.00164524
-3.34797e-05
-0.00249544
-8.87634e-05
-0.0031428
-0.000169586
-0.00360391
-0.000271024
-0.00392792
-0.000387459
-0.00417334
-0.00051475
-0.00438813
-0.000650818
-0.00460184
-0.00079514
-0.00482861
-0.000947985
-0.00507409
-0.00110992
-0.00534077
-0.0012816
-0.00563037
-0.00146375
-0.00594456
-0.00165711
-0.00628511
-0.0018625
-0.00665398
-0.00208095
-0.00705302
-0.00231384
-0.00748384
-0.00256153
-0.00795136
-0.00846446
-0.00282087
-8.98626e-07
-0.000618477
-1.52639e-05
-0.00163087
-5.35623e-05
-0.00245714
-0.000119145
-0.00307722
-0.000209776
-0.00351328
-0.000320126
-0.00381757
-0.000444713
-0.00404875
-0.00057976
-0.00425308
-0.000723525
-0.00445808
-0.000875692
-0.00467644
-0.00103663
-0.00491315
-0.00120697
-0.00517043
-0.00138742
-0.00544993
-0.00157872
-0.00575326
-0.00178166
-0.00608217
-0.00199709
-0.00643855
-0.00222609
-0.00682402
-0.00247004
-0.00723989
-0.00272959
-0.00769182
-0.00819225
-0.0030018
-3.70615e-06
-0.00061477
-2.54938e-05
-0.00160908
-7.31388e-05
-0.00240949
-0.000148563
-0.00300179
-0.000248513
-0.00341333
-0.000367331
-0.00369875
-0.000499711
-0.00391637
-0.000642229
-0.00411057
-0.000793447
-0.00430686
-0.00095323
-0.00451666
-0.00112204
-0.00474434
-0.00130055
-0.00499192
-0.0014895
-0.00526097
-0.00168969
-0.00555306
-0.00190196
-0.0058699
-0.00212722
-0.00621329
-0.00236666
-0.00658458
-0.00262156
-0.00698499
-0.00289191
-0.00742146
-0.00790918
-0.00317497
-6.7225e-06
-0.000608048
-3.55043e-05
-0.0015803
-9.2151e-05
-0.00235285
-0.000176953
-0.00291699
-0.000285733
-0.00330455
-0.000412588
-0.0035719
-0.000552409
-0.00377655
-0.000702113
-0.00396086
-0.000860532
-0.00414844
-0.00102769
-0.00434951
-0.00120411
-0.00456791
-0.00139053
-0.0048055
-0.00158773
-0.00506378
-0.00179653
-0.00534426
-0.00201783
-0.0056486
-0.00225269
-0.00597843
-0.00250237
-0.00633491
-0.00276815
-0.00671921
-0.00305192
-0.00713769
-0.00762721
-0.00333388
-9.72825e-06
-0.00059832
-4.52759e-05
-0.00154475
-0.00011054
-0.00228758
-0.000204249
-0.00282328
-0.000321381
-0.00318742
-0.000455852
-0.00343743
-0.000602771
-0.00362963
-0.000759371
-0.00380426
-0.000924728
-0.00398308
-0.001099
-0.00417524
-0.00128278
-0.00438413
-0.00147684
-0.00461145
-0.00168198
-0.00485863
-0.0018991
-0.00512715
-0.00212912
-0.00541857