/*--------------------------------*- C++ -*----------------------------------*\
  =========                 |
  \\      /  F ield         | OpenFOAM: The Open Source CFD Toolbox
   \\    /   O peration     | Website:  https://openfoam.org
    \\  /    A nd           | Version:  7
     \\/     M anipulation  |
\*---------------------------------------------------------------------------*/
FoamFile
{
    version     2.0;
    format      ascii;
    class       volScalarField;
    location    "3.4";
    object      rho;
}
// * * * * * * * * * * * * * * * * * * * * * * * * * * * * * * * * * * * * * //

dimensions      [1 -3 0 0 0 0 0];

internalField   nonuniform List<scalar> 
100800
(
1.40001
1.40001
1.40001
1.40001
1.40001
1.40001
1.40001
1.40001
1.40001
1.40001
1.40001
1.40001
1.40001
1.40001
1.40001
1.40001
1.40001
1.40001
1.40001
1.40001
1.40001
1.40001
1.40001
1.40001
1.40001
1.40001
1.40001
1.40001
1.40001
1.40001
1.40001
1.40001
1.40001
1.40001
1.40001
1.40001
1.40001
1.40001
1.40001
1.40001
1.40001
1.40001
1.40001
1.40001
1.40001
1.40001
1.40001
1.40001
1.40001
1.40001
1.40001
1.40001
1.40001
1.40001
1.40001
1.40001
1.40001
1.40001
1.40001
1.40001
1.40001
2.82618
5.23303
5.41286
5.41813
5.44099
5.46255
5.48636
5.51117
5.53607
5.55791
5.57503
5.58767
5.59704
5.60528
5.61485
5.62725
5.64318
5.6621
5.68178
5.7012
5.71884
5.73231
5.74118
5.74796
5.75584
5.76665
5.7805
5.79587
5.8106
5.82286
5.83249
5.84104
5.85025
5.86103
5.87321
5.88585
5.89769
5.90759
5.91514
5.92083
5.92568
5.93091
5.93761
5.94601
5.95519
5.96368
5.97034
5.97497
5.97834
5.98159
5.98556
5.99017
5.9946
5.99774
5.99895
5.99819
5.99676
5.99574
5.99676
1.40001
1.40001
1.40001
1.40001
1.40001
1.40001
1.40001
1.40001
1.40001
1.40001
1.40001
1.40001
1.40001
1.40001
1.40001
1.40001
1.40001
1.40001
1.40001
1.40001
1.40001
1.40001
1.40001
1.40001
1.40001
1.40001
1.40001
1.40001
1.40001
1.40001
1.40001
1.40001
1.40001
1.40001
1.40001
1.40001
1.40001
1.40001
1.40001
1.40001
1.40001
1.40001
1.40001
1.40001
1.40001
1.40001
1.40001
1.40001
1.40001
1.40001
1.40001
1.40001
1.40001
1.40001
1.40001
1.40001
1.40001
1.40001
1.40001
1.40001
1.40001
2.81241
5.22181
5.41065
5.41652
5.44092
5.46252
5.4864
5.51107
5.53566
5.55776
5.57483
5.58708
5.59619
5.60447
5.61437
5.6273
5.64349
5.66232
5.68196
5.70116
5.71845
5.73174
5.74047
5.74736
5.75536
5.76656
5.78084
5.79647
5.81124
5.82327
5.83249
5.84059
5.84951
5.86022
5.87247
5.88515
5.89691
5.9067
5.91425
5.92016
5.92539
5.93093
5.93766
5.94579
5.95457
5.96278
5.96942
5.97422
5.97774
5.98102
5.98489
5.98941
5.99386
5.99706
5.99832
5.99756
5.99608
5.99504
5.99599
1.40001
1.40001
1.40001
1.40001
1.40001
1.40001
1.40001
1.40001
1.40001
1.40001
1.40001
1.40001
1.40001
1.40001
1.40001
1.40001
1.40001
1.40001
1.40001
1.40001
1.40001
1.40001
1.40001
1.40001
1.40001
1.40001
1.40001
1.40001
1.40001
1.40001
1.40001
1.40001
1.40001
1.40001
1.40001
1.40001
1.40001
1.40001
1.40001
1.40001
1.40001
1.40001
1.40001
1.40001
1.40001
1.40001
1.40001
1.40001
1.40001
1.40001
1.40001
1.40001
1.40001
1.40001
1.40001
1.40001
1.40001
1.40001
1.40001
1.40001
1.40001
2.78355
5.21022
5.40638
5.41561
5.44093
5.46228
5.48596
5.51042
5.53488
5.55695
5.57411
5.58598
5.59473
5.60308
5.61332
5.62674
5.64326
5.66227
5.68187
5.70095
5.71796
5.7311
5.73958
5.74648
5.75453
5.76613
5.78096
5.79701
5.81198
5.82382
5.83262
5.8401
5.84848
5.85895
5.87124
5.88404
5.89582
5.9055
5.91299
5.91905
5.92467
5.93065
5.93757
5.94552
5.95383
5.96159
5.96803
5.97294
5.97671
5.98015
5.98396
5.98833
5.99264
5.99577
5.99706
5.99639
5.99498
5.99401
5.99489
1.40001
1.40001
1.40001
1.40001
1.40001
1.40001
1.40001
1.40001
1.40001
1.40001
1.40001
1.40001
1.40001
1.40001
1.40001
1.40001
1.40001
1.40001
1.40001
1.40001
1.40001
1.40001
1.40001
1.40001
1.40001
1.40001
1.40001
1.40001
1.40001
1.40001
1.40001
1.40001
1.40001
1.40001
1.40001
1.40001
1.40001
1.40001
1.40001
1.40001
1.40001
1.40001
1.40001
1.40001
1.40001
1.40001
1.40001
1.40001
1.40001
1.40001
1.40001
1.40001
1.40001
1.40001
1.40001
1.40001
1.40001
1.40001
1.40001
1.40001
1.40001
2.73846
5.19669
5.40303
5.41638
5.44102
5.46159
5.48505
5.50941
5.53362
5.55559
5.57282
5.58463
5.59321
5.60171
5.61225
5.62596
5.64266
5.66166
5.68119
5.70006
5.71693
5.73008
5.7385
5.74543
5.75347
5.76531
5.78066
5.79717
5.8124
5.82416
5.8326
5.83938
5.84703
5.85706
5.86932
5.88232
5.8943
5.90406
5.91153
5.91762
5.92348
5.92984
5.93704
5.94489
5.95279
5.96001
5.96608
5.97095
5.97498
5.97872
5.98265
5.98688
5.99097
5.99393
5.99516
5.99459
5.99326
5.9924
5.99314
1.40001
1.40001
1.40001
1.40001
1.40001
1.40001
1.40001
1.40001
1.40001
1.40001
1.40001
1.40001
1.40001
1.40001
1.40001
1.40001
1.40001
1.40001
1.40001
1.40001
1.40001
1.40001
1.40001
1.40001
1.40001
1.40001
1.40001
1.40001
1.40001
1.40001
1.40001
1.40001
1.40001
1.40001
1.40001
1.40001
1.40001
1.40001
1.40001
1.40001
1.40001
1.40001
1.40001
1.40001
1.40001
1.40001
1.40001
1.40001
1.40001
1.40001
1.40001
1.40001
1.40001
1.40001
1.40001
1.40001
1.40001
1.40001
1.40001
1.40001
1.40001
2.67771
5.18379
5.40084
5.418
5.44148
5.46148
5.48438
5.50813
5.53187
5.5536
5.57115
5.5834
5.59219
5.60097
5.61174
5.62536
5.64181
5.66047
5.6799
5.69861
5.7156
5.72906
5.73771
5.74468
5.75252
5.76416
5.77957
5.79633
5.81197
5.82397
5.83237
5.83865
5.84549
5.85476
5.86668
5.87985
5.89225
5.90239
5.91004
5.9161
5.92192
5.92842
5.93584
5.94379
5.95148
5.95824
5.96378
5.9684
5.97257
5.97673
5.98095
5.98516
5.98898
5.99164
5.9927
5.99222
5.99099
5.99031
5.99087
1.40001
1.40001
1.40001
1.40001
1.40001
1.40001
1.40001
1.40001
1.40001
1.40001
1.40001
1.40001
1.40001
1.40001
1.40001
1.40001
1.40001
1.40001
1.40001
1.40001
1.40001
1.40001
1.40001
1.40001
1.40001
1.40001
1.40001
1.40001
1.40001
1.40001
1.40001
1.40001
1.40001
1.40001
1.40001
1.40001
1.40001
1.40001
1.40001
1.40001
1.40001
1.40001
1.40001
1.40001
1.40001
1.40001
1.40001
1.40001
1.40001
1.40001
1.40001
1.40001
1.40001
1.40001
1.40001
1.40001
1.40001
1.40001
1.40001
1.40001
1.40001
2.60363
5.16274
5.40553
5.42074
5.44129
5.46021
5.48234
5.50555
5.52905
5.55077
5.56888
5.58223
5.592
5.60124
5.61201
5.62513
5.64086
5.65876
5.67792
5.69656
5.71392
5.72794
5.73717
5.74436
5.75199
5.76309
5.77801
5.79455
5.81052
5.82301
5.83182
5.83804
5.8442
5.85244
5.86354
5.87654
5.88938
5.90019
5.90832
5.91446
5.92007
5.92637
5.93382
5.94192
5.94965
5.95615
5.96124
5.96546
5.96964
5.97417
5.97881
5.9831
5.98668
5.989
5.98984
5.98937
5.98827
5.98771
5.98796
1.40001
1.40001
1.40001
1.40001
1.40001
1.40001
1.40001
1.40001
1.40001
1.40001
1.40001
1.40001
1.40001
1.40001
1.40001
1.40001
1.40001
1.40001
1.40001
1.40001
1.40001
1.40001
1.40001
1.40001
1.40001
1.40001
1.40001
1.40001
1.40001
1.40001
1.40001
1.40001
1.40001
1.40001
1.40001
1.40001
1.40001
1.40001
1.40001
1.40001
1.40001
1.40001
1.40001
1.40001
1.40001
1.40001
1.40001
1.40001
1.40001
1.40001
1.40001
1.40001
1.40001
1.40001
1.40001
1.40001
1.40001
1.40001
1.40001
1.40001
1.40001
2.52008
5.12983
5.41195
5.42328
5.44122
5.45943
5.4807
5.50322
5.5263
5.54798
5.56664
5.58129
5.59228
5.60202
5.61249
5.62485
5.63965
5.65665
5.67538
5.69399
5.71172
5.72642
5.73645
5.74404
5.75152
5.76186
5.77583
5.7916
5.8076
5.82078
5.83056
5.83731
5.84322
5.85048
5.86036
5.87263
5.88561
5.8972
5.90618
5.91279
5.91832
5.92423
5.93133
5.93936
5.94716
5.95363
5.95846
5.96233
5.96632
5.97102
5.97599
5.98046
5.98393
5.98597
5.98665
5.98612
5.98497
5.98435
5.98417
1.40001
1.40001
1.40001
1.40001
1.40001
1.40001
1.40001
1.40001
1.40001
1.40001
1.40001
1.40001
1.40001
1.40001
1.40001
1.40001
1.40001
1.40001
1.40001
1.40001
1.40001
1.40001
1.40001
1.40001
1.40001
1.40001
1.40001
1.40001
1.40001
1.40001
1.40001
1.40001
1.40001
1.40001
1.40001
1.40001
1.40001
1.40001
1.40001
1.40001
1.40001
1.40001
1.40001
1.40001
1.40001
1.40001
1.40001
1.40001
1.40001
1.40001
1.40001
1.40001
1.40001
1.40001
1.40001
1.40001
1.40001
1.40001
1.40001
1.40001
1.40001
2.4291
5.08692
5.41619
5.4249
5.44087
5.45832
5.47861
5.50047
5.52323
5.54508
5.56442
5.58031
5.59258
5.60276
5.61286
5.62443
5.63831
5.65446
5.67265
5.69117
5.70905
5.72432
5.73518
5.74335
5.75093
5.76063
5.77359
5.78828
5.80384
5.81753
5.82844
5.83624
5.84245
5.84906
5.85761
5.8685
5.88086
5.89284
5.90286
5.91043
5.91635
5.92201
5.92852
5.93605
5.94372
5.9503
5.9552
5.95896
5.96274
5.96731
5.97238
5.97708
5.98066
5.98266
5.98333
5.98268
5.98126
5.98041
5.97972
1.40001
1.40001
1.40001
1.40001
1.40001
1.40001
1.40001
1.40001
1.40001
1.40001
1.40001
1.40001
1.40001
1.40001
1.40001
1.40001
1.40001
1.40001
1.40001
1.40001
1.40001
1.40001
1.40001
1.40001
1.40001
1.40001
1.40001
1.40001
1.40001
1.40001
1.40001
1.40001
1.40001
1.40001
1.40001
1.40001
1.40001
1.40001
1.40001
1.40001
1.40001
1.40001
1.40001
1.40001
1.40001
1.40001
1.40001
1.40001
1.40001
1.40001
1.40001
1.40001
1.40001
1.40001
1.40001
1.40001
1.40001
1.40001
1.40001
1.40001
1.40001
2.32649
5.03622
5.415
5.42411
5.44019
5.45741
5.47697
5.49814
5.52038
5.5421
5.56182
5.57855
5.59195
5.60261
5.6124
5.6233
5.63643
5.65196
5.66968
5.68809
5.70587
5.72146
5.73293
5.74169
5.74965
5.75907
5.77141
5.78514
5.79985
5.8134
5.82501
5.83397
5.84104
5.84767
5.85533
5.86475
5.87582
5.88747
5.89823
5.90708
5.91398
5.91982
5.92574
5.93241
5.93952
5.9461
5.9513
5.95527
5.95893
5.96319
5.96809
5.97295
5.97686
5.97911
5.97986
5.97898
5.9771
5.97578
5.97457
1.40001
1.40001
1.40001
1.40001
1.40001
1.40001
1.40001
1.40001
1.40001
1.40001
1.40001
1.40001
1.40001
1.40001
1.40001
1.40001
1.40001
1.40001
1.40001
1.40001
1.40001
1.40001
1.40001
1.40001
1.40001
1.40001
1.40001
1.40001
1.40001
1.40001
1.40001
1.40001
1.40001
1.40001
1.40001
1.40001
1.40001
1.40001
1.40001
1.40001
1.40001
1.40001
1.40001
1.40001
1.40001
1.40001
1.40001
1.40001
1.40001
1.40001
1.40001
1.40001
1.40001
1.40001
1.40001
1.40001
1.40001
1.40001
1.40001
1.40001
1.40001
2.21382
4.98043
5.41385
5.4231
5.44003
5.45705
5.47597
5.49638
5.51793
5.53927
5.55907
5.57634
5.59065
5.60198
5.61177
5.62218
5.63464
5.64953
5.66671
5.68489
5.70233
5.71796
5.72974
5.73889
5.74744
5.75708
5.76939
5.78266
5.79647
5.80923
5.82066
5.83027
5.83846
5.84588
5.85346
5.86176
5.87117
5.88156
5.89223
5.90218
5.91054
5.9172
5.9229
5.92859
5.93475
5.94101
5.94654
5.95098
5.95476
5.95872
5.96328
5.96818
5.97246
5.97517
5.97604
5.97484
5.97236
5.97037
5.96867
1.40001
1.40001
1.40001
1.40001
1.40001
1.40001
1.40001
1.40001
1.40001
1.40001
1.40001
1.40001
1.40001
1.40001
1.40001
1.40001
1.40001
1.40001
1.40001
1.40001
1.40001
1.40001
1.40001
1.40001
1.40001
1.40001
1.40001
1.40001
1.40001
1.40001
1.40001
1.40001
1.40001
1.40001
1.40001
1.40001
1.40001
1.40001
1.40001
1.40001
1.40001
1.40001
1.40001
1.40001
1.40001
1.40001
1.40001
1.40001
1.40001
1.40001
1.40001
1.40001
1.40001
1.40001
1.40001
1.40001
1.40001
1.40001
1.40001
1.40001
1.40001
2.09228
4.91562
5.41483
5.42301
5.44038
5.45696
5.47535
5.49502
5.51573
5.53637
5.55588
5.57344
5.58854
5.60082
5.61101
5.62107
5.6328
5.64685
5.66332
5.68123
5.69843
5.71401
5.72596
5.73523
5.74429
5.75439
5.76719
5.78057
5.79377
5.80546
5.81596
5.82532
5.8343
5.84297
5.85133
5.85927
5.86724
5.8759
5.88562
5.89599
5.90578
5.91379
5.91985
5.92486
5.9299
5.93542
5.94098
5.94588
5.95001
5.9539
5.95818
5.96298
5.96754
5.97071
5.9717
5.97012
5.96701
5.96432
5.96226
1.40001
1.40001
1.40001
1.40001
1.40001
1.40001
1.40001
1.40001
1.40001
1.40001
1.40001
1.40001
1.40001
1.40001
1.40001
1.40001
1.40001
1.40001
1.40001
1.40001
1.40001
1.40001
1.40001
1.40001
1.40001
1.40001
1.40001
1.40001
1.40001
1.40001
1.40001
1.40001
1.40001
1.40001
1.40001
1.40001
1.40001
1.40001
1.40001
1.40001
1.40001
1.40001
1.40001
1.40001
1.40001
1.40001
1.40001
1.40001
1.40001
1.40001
1.40001
1.40001
1.40001
1.40001
1.40001
1.40001
1.40001
1.40001
1.40001
1.40001
1.40001
1.96611
4.83038
5.41738
5.42474
5.44187
5.45753
5.47476
5.49315
5.51262
5.53236
5.55154
5.56946
5.58546
5.59892
5.60992
5.61999
5.63104
5.64405
5.65949
5.677
5.69413
5.70975
5.72197
5.73123
5.74045
5.75076
5.76412
5.77805
5.79122
5.80211
5.81145
5.81984
5.82879
5.83849
5.84818
5.85665
5.86386
5.87093
5.87913
5.88901
5.89966
5.90915
5.91617
5.92102
5.92507
5.92952
5.93461
5.93976
5.94441
5.94861
5.95285
5.95752
5.96209
5.96551
5.9665
5.96455
5.9609
5.95767
5.95544
1.40001
1.40001
1.40001
1.40001
1.40001
1.40001
1.40001
1.40001
1.40001
1.40001
1.40001
1.40001
1.40001
1.40001
1.40001
1.40001
1.40001
1.40001
1.40001
1.40001
1.40001
1.40001
1.40001
1.40001
1.40001
1.40001
1.40001
1.40001
1.40001
1.40001
1.40001
1.40001
1.40001
1.40001
1.40001
1.40001
1.40001
1.40001
1.40001
1.40001
1.40001
1.40001
1.40001
1.40001
1.40001
1.40001
1.40001
1.40001
1.40001
1.40001
1.40001
1.40001
1.40001
1.40001
1.40001
1.40001
1.40001
1.40001
1.40001
1.40001
1.40001
1.84193
4.72081
5.41947
5.42681
5.44334
5.45809
5.47408
5.49115
5.50938
5.52816
5.5468
5.56475
5.5814
5.59602
5.60819
5.61872
5.62933
5.64134
5.65559
5.67245
5.6896
5.7054
5.71816
5.72758
5.73658
5.74641
5.7597
5.77412
5.7879
5.79876
5.80742
5.81475
5.82287
5.83267
5.8434
5.85298
5.86036
5.86648
5.8732
5.88192
5.89254
5.90311
5.9114
5.91669
5.92011
5.92342
5.92765
5.93274
5.93796
5.9428
5.94735
5.95191
5.95622
5.95951
5.9603
5.95806
5.95412
5.95058
5.94835
1.40001
1.40001
1.40001
1.40001
1.40001
1.40001
1.40001
1.40001
1.40001
1.40001
1.40001
1.40001
1.40001
1.40001
1.40001
1.40001
1.40001
1.40001
1.40001
1.40001
1.40001
1.40001
1.40001
1.40001
1.40001
1.40001
1.40001
1.40001
1.40001
1.40001
1.40001
1.40001
1.40001
1.40001
1.40001
1.40001
1.40001
1.40001
1.40001
1.40001
1.40001
1.40001
1.40001
1.40001
1.40001
1.40001
1.40001
1.40001
1.40001
1.40001
1.40001
1.40001
1.40001
1.40001
1.40001
1.40001
1.40001
1.40001
1.40001
1.40001
1.40001
1.72464
4.59086
5.42286
5.43061
5.44553
5.45874
5.47332
5.48882
5.50567
5.52351
5.54169
5.55969
5.57688
5.59251
5.60588
5.61719
5.62773
5.6389
5.65183
5.66752
5.68446
5.70055
5.71424
5.72437
5.73335
5.74243
5.75476
5.76879
5.78309
5.79458
5.8034
5.81024
5.81738
5.82633
5.83711
5.84765
5.85592
5.86202
5.8678
5.87523
5.88507
5.89596
5.90531
5.91142
5.9147
5.91707
5.92031
5.92505
5.93077
5.93644
5.94151
5.946
5.94984
5.95256
5.95296
5.95058
5.94663
5.94307
5.94102
1.40001
1.40001
1.40001
1.40001
1.40001
1.40001
1.40001
1.40001
1.40001
1.40001
1.40001
1.40001
1.40001
1.40001
1.40001
1.40001
1.40001
1.40001
1.40001
1.40001
1.40001
1.40001
1.40001
1.40001
1.40001
1.40001
1.40001
1.40001
1.40001
1.40001
1.40001
1.40001
1.40001
1.40001
1.40001
1.40001
1.40001
1.40001
1.40001
1.40001
1.40001
1.40001
1.40001
1.40001
1.40001
1.40001
1.40001
1.40001
1.40001
1.40001
1.40001
1.40001
1.40001
1.40001
1.40001
1.40001
1.40001
1.40001
1.40001
1.40001
1.40001
1.61707
4.44605
5.42515
5.43165
5.44541
5.45763
5.47093
5.48512
5.50103
5.51836
5.5364
5.5545
5.57202
5.58827
5.60259
5.61478
5.62559
5.63626
5.64801
5.66216
5.67847
5.69484
5.70987
5.72149
5.73108
5.73954
5.75002
5.76224
5.77611
5.78846
5.79849
5.80603
5.81288
5.82073
5.83044
5.84085
5.84988
5.85662
5.86228
5.86886
5.87768
5.88816
5.89799
5.90489
5.90842
5.91026
5.91267
5.91697
5.92299
5.92944
5.93507
5.93951
5.94275
5.9447
5.9446
5.94219
5.93849
5.9352
5.93345
1.40001
1.40001
1.40001
1.40001
1.40001
1.40001
1.40001
1.40001
1.40001
1.40001
1.40001
1.40001
1.40001
1.40001
1.40001
1.40001
1.40001
1.40001
1.40001
1.40001
1.40001
1.40001
1.40001
1.40001
1.40001
1.40001
1.40001
1.40001
1.40001
1.40001
1.40001
1.40001
1.40001
1.40001
1.40001
1.40001
1.40001
1.40001
1.40001
1.40001
1.40001
1.40001
1.40001
1.40001
1.40001
1.40001
1.40001
1.40001
1.40001
1.40001
1.40001
1.40001
1.40001
1.40001
1.40001
1.40001
1.40001
1.40001
1.40001
1.40001
1.40001
1.51134
4.28743
5.42571
5.4274
5.4413
5.45391
5.46697
5.48065
5.49596
5.51296
5.53088
5.54892
5.56635
5.58271
5.59755
5.61061
5.62214
5.63302
5.64419
5.65687
5.67197
5.6881
5.70418
5.71758
5.72841
5.73694
5.74577
5.75567
5.768
5.78068
5.79236
5.80158
5.80905
5.81604
5.82401
5.83308
5.84205
5.84963
5.85597
5.86249
5.87059
5.88025
5.8898
5.89704
5.90099
5.9028
5.9048
5.90875
5.91486
5.9218
5.92784
5.93216
5.93476
5.93597
5.93537
5.93296
5.92967
5.92686
5.92548
1.40001
1.40001
1.40001
1.40001
1.40001
1.40001
1.40001
1.40001
1.40001
1.40001
1.40001
1.40001
1.40001
1.40001
1.40001
1.40001
1.40001
1.40001
1.40001
1.40001
1.40001
1.40001
1.40001
1.40001
1.40001
1.40001
1.40001
1.40001
1.40001
1.40001
1.40001
1.40001
1.40001
1.40001
1.40001
1.40001
1.40001
1.40001
1.40001
1.40001
1.40001
1.40001
1.40001
1.40001
1.40001
1.40001
1.40001
1.40001
1.40001
1.40001
1.40001
1.40001
1.40001
1.40001
1.40001
1.40001
1.40001
1.40001
1.40001
1.40001
1.40001
1.41073
4.10619
5.41232
5.41824
5.4329
5.44598
5.45843
5.47204
5.4881
5.50596
5.52448
5.54276
5.55994
5.57577
5.59041
5.60396
5.61656
5.62856
5.64022
5.65214
5.66564
5.6805
5.69651
5.71131
5.72394
5.73366
5.74192
5.75002
5.76005
5.77176
5.78432
5.79552
5.80454
5.8116
5.81818
5.82537
5.83332
5.8412
5.84847
5.85559
5.86345
5.87223
5.88094
5.88798
5.8923
5.89454
5.89663
5.90039
5.90636
5.91337
5.91953
5.92367
5.92573
5.92635
5.92537
5.92304
5.92025
5.91802
5.91706
1.40001
1.40001
1.40001
1.40001
1.40001
1.40001
1.40001
1.40001
1.40001
1.40001
1.40001
1.40001
1.40001
1.40001
1.40001
1.40001
1.40001
1.40001
1.40001
1.40001
1.40001
1.40001
1.40001
1.40001
1.40001
1.40001
1.40001
1.40001
1.40001
1.40001
1.40001
1.40001
1.40001
1.40001
1.40001
1.40001
1.40001
1.40001
1.40001
1.40001
1.40001
1.40001
1.40001
1.40001
1.40001
1.40001
1.40001
1.40001
1.40001
1.40001
1.40001
1.40001
1.40001
1.40001
1.40001
1.40001
1.40001
1.40001
1.40001
1.40001
1.40001
1.40014
3.8732
5.37045
5.40083
5.41838
5.43462
5.44883
5.46367
5.4806
5.49905
5.51787
5.53626
5.55298
5.56803
5.58204
5.59564
5.6092
5.62282
5.63574
5.64786
5.66019
5.6733
5.6879
5.70282
5.7168
5.72845
5.7375
5.74502
5.75295
5.76278
5.77492
5.78744
5.79845
5.80665
5.81273
5.81819
5.8244
5.83165
5.83949
5.84749
5.85564
5.86387
5.87164
5.87811
5.88268
5.8856
5.88815
5.89188
5.89747
5.90411
5.91004
5.91397
5.91564
5.91589
5.91466
5.91243
5.9101
5.90844
5.9079
1.40001
1.40001
1.40001
1.40001
1.40001
1.40001
1.40001
1.40001
1.40001
1.40001
1.40001
1.40001
1.40001
1.40001
1.40001
1.40001
1.40001
1.40001
1.40001
1.40001
1.40001
1.40001
1.40001
1.40001
1.40001
1.40001
1.40001
1.40001
1.40001
1.40001
1.40001
1.40001
1.40001
1.40001
1.40001
1.40001
1.40001
1.40001
1.40001
1.40001
1.40001
1.40001
1.40001
1.40001
1.40001
1.40001
1.40001
1.40001
1.40001
1.40001
1.40001
1.40001
1.40001
1.40001
1.40001
1.40001
1.40001
1.40001
1.40001
1.40001
1.40001
1.40001
3.61032
5.33597
5.38472
5.40441
5.42285
5.43925
5.45547
5.47327
5.49228
5.51137
5.52984
5.54624
5.56022
5.57302
5.58599
5.59978
5.61468
5.62929
5.64267
5.65488
5.66662
5.67912
5.69279
5.70689
5.72034
5.73124
5.73967
5.74668
5.75465
5.76524
5.77771
5.79014
5.80001
5.80665
5.81119
5.8157
5.82173
5.82947
5.83814
5.84679
5.85482
5.86184
5.86771
5.87239
5.87602
5.87919
5.88289
5.88784
5.89374
5.89919
5.90293
5.90446
5.90457
5.90327
5.90116
5.89924
5.8981
5.89798
1.40001
1.40001
1.40001
1.40001
1.40001
1.40001
1.40001
1.40001
1.40001
1.40001
1.40001
1.40001
1.40001
1.40001
1.40001
1.40001
1.40001
1.40001
1.40001
1.40001
1.40001
1.40001
1.40001
1.40001
1.40001
1.40001
1.40001
1.40001
1.40001
1.40001
1.40001
1.40001
1.40001
1.40001
1.40001
1.40001
1.40001
1.40001
1.40001
1.40001
1.40001
1.40001
1.40001
1.40001
1.40001
1.40001
1.40001
1.40001
1.40001
1.40001
1.40001
1.40001
1.40001
1.40001
1.40001
1.40001
1.40001
1.40001
1.40001
1.40001
1.40001
1.40001
3.32609
5.29984
5.3751
5.39583
5.41605
5.43283
5.44864
5.46626
5.48537
5.50448
5.52291
5.53917
5.55273
5.56448
5.57647
5.58982
5.60532
5.62129
5.63624
5.64929
5.66053
5.6712
5.68295
5.69583
5.70986
5.72251
5.7328
5.74027
5.74713
5.75583
5.7671
5.77982
5.79115
5.7991
5.80377
5.80727
5.81194
5.81891
5.82761
5.8366
5.84469
5.85138
5.85691
5.86172
5.86597
5.86968
5.87322
5.87733
5.88227
5.8871
5.89069
5.89229
5.89244
5.89112
5.88909
5.88746
5.88671
5.88699
1.40001
1.40001
1.40001
1.40001
1.40001
1.40001
1.40001
1.40001
1.40001
1.40001
1.40001
1.40001
1.40001
1.40001
1.40001
1.40001
1.40001
1.40001
1.40001
1.40001
1.40001
1.40001
1.40001
1.40001
1.40001
1.40001
1.40001
1.40001
1.40001
1.40001
1.40001
1.40001
1.40001
1.40001
1.40001
1.40001
1.40001
1.40001
1.40001
1.40001
1.40001
1.40001
1.40001
1.40001
1.40001
1.40001
1.40001
1.40001
1.40001
1.40001
1.40001
1.40001
1.40001
1.40001
1.40001
1.40001
1.40001
1.40001
1.40001
1.40001
1.40001
1.40001
3.02455
5.25442
5.37473
5.39351
5.41307
5.43009
5.44613
5.46293
5.48072
5.49889
5.51647
5.53262
5.54585
5.55683
5.568
5.58066
5.59561
5.61209
5.62813
5.64217
5.65369
5.66329
5.6733
5.68456
5.69798
5.71141
5.72356
5.73249
5.73937
5.74671
5.75638
5.76832
5.78025
5.78957
5.79519
5.79854
5.80222
5.80808
5.81617
5.82512
5.83338
5.84017
5.84574
5.85075
5.8554
5.85936
5.86254
5.86566
5.86954
5.87373
5.87723
5.87906
5.87936
5.87807
5.87613
5.87475
5.87431
5.87493
1.40001
1.40001
1.40001
1.40001
1.40001
1.40001
1.40001
1.40001
1.40001
1.40001
1.40001
1.40001
1.40001
1.40001
1.40001
1.40001
1.40001
1.40001
1.40001
1.40001
1.40001
1.40001
1.40001
1.40001
1.40001
1.40001
1.40001
1.40001
1.40001
1.40001
1.40001
1.40001
1.40001
1.40001
1.40001
1.40001
1.40001
1.40001
1.40001
1.40001
1.40001
1.40001
1.40001
1.40001
1.40001
1.40001
1.40001
1.40001
1.40001
1.40001
1.40001
1.40001
1.40001
1.40001
1.40001
1.40001
1.40001
1.40001
1.40001
1.40001
1.40001
1.40001
2.71156
5.17717
5.38212
5.39845
5.41716
5.43331
5.44807
5.46301
5.47882
5.49512
5.51115
5.52683
5.54054
5.55127
5.56164
5.57323
5.58633
5.60176
5.61794
5.63284
5.64529
5.65513
5.66431
5.67422
5.68628
5.69925
5.7123
5.7228
5.73054
5.73727
5.74555
5.75617
5.76785
5.77812
5.78507
5.78905
5.79229
5.79706
5.80411
5.81259
5.82095
5.82811
5.83405
5.83936
5.84418
5.84804
5.85066
5.85279
5.85572
5.8593
5.86274
5.86479
5.86524
5.86397
5.86205
5.86084
5.86059
5.86148
1.40001
1.40001
1.40001
1.40001
1.40001
1.40001
1.40001
1.40001
1.40001
1.40001
1.40001
1.40001
1.40001
1.40001
1.40001
1.40001
1.40001
1.40001
1.40001
1.40001
1.40001
1.40001
1.40001
1.40001
1.40001
1.40001
1.40001
1.40001
1.40001
1.40001
1.40001
1.40001
1.40001
1.40001
1.40001
1.40001
1.40001
1.40001
1.40001
1.40001
1.40001
1.40001
1.40001
1.40001
1.40001
1.40001
1.40001
1.40001
1.40001
1.40001
1.40001
1.40001
1.40001
1.40001
1.40001
1.40001
1.40001
1.40001
1.40001
1.40001
1.40001
1.40001
2.40277
5.05908
5.39818
5.40944
5.42552
5.4402
5.45423
5.46747
5.48085
5.49441
5.50813
5.52232
5.53647
5.54822
5.55903
5.56962
5.58037
5.59302
5.60723
5.62179
5.63506
5.64602
5.65539
5.66474
5.67536
5.68694
5.69966
5.71112
5.72
5.72691
5.73434
5.74367
5.75461
5.76527
5.77342
5.77841
5.78168
5.78556
5.79145
5.79921
5.80756
5.81521
5.8217
5.82728
5.832
5.83547
5.83741
5.83867
5.84074
5.84379
5.8471
5.8493
5.84984
5.84862
5.84676
5.8457
5.84563
5.84674
1.40001
1.40001
1.40001
1.40001
1.40001
1.40001
1.40001
1.40001
1.40001
1.40001
1.40001
1.40001
1.40001
1.40001
1.40001
1.40001
1.40001
1.40001
1.40001
1.40001
1.40001
1.40001
1.40001
1.40001
1.40001
1.40001
1.40001
1.40001
1.40001
1.40001
1.40001
1.40001
1.40001
1.40001
1.40001
1.40001
1.40001
1.40001
1.40001
1.40001
1.40001
1.40001
1.40001
1.40001
1.40001
1.40001
1.40001
1.40001
1.40001
1.40001
1.40001
1.40001
1.40001
1.40001
1.40001
1.40001
1.40001
1.40001
1.40001
1.40001
1.40001
1.40001
2.10851
4.89854
5.41114
5.42317
5.44026
5.45221
5.46404
5.47517
5.48619
5.49686
5.50754
5.51915
5.53328
5.54659
5.55877
5.56911
5.57808
5.58751
5.59851
5.61104
5.62398
5.63606
5.64623
5.6553
5.66468
5.67476
5.68639
5.69828
5.70807
5.7154
5.72229
5.73063
5.74075
5.75147
5.76052
5.7665
5.77004
5.7733
5.77816
5.78517
5.79343
5.80151
5.80847
5.81415
5.81855
5.82146
5.8228
5.82341
5.82479
5.82733
5.83038
5.83251
5.83305
5.83186
5.83005
5.82904
5.82906
5.83029
1.40001
1.40001
1.40001
1.40001
1.40001
1.40001
1.40001
1.40001
1.40001
1.40001
1.40001
1.40001
1.40001
1.40001
1.40001
1.40001
1.40001
1.40001
1.40001
1.40001
1.40001
1.40001
1.40001
1.40001
1.40001
1.40001
1.40001
1.40001
1.40001
1.40001
1.40001
1.40001
1.40001
1.40001
1.40001
1.40001
1.40001
1.40001
1.40001
1.40001
1.40001
1.40001
1.40001
1.40001
1.40001
1.40001
1.40001
1.40001
1.40001
1.40001
1.40001
1.40001
1.40001
1.40001
1.40001
1.40001
1.40001
1.40001
1.40001
1.40001
1.40001
1.40001
1.83082
4.71403
5.44422
5.43102
5.44461
5.4552
5.46854
5.48148
5.49291
5.50228
5.51016
5.51823
5.53034
5.54486
5.55909
5.5708
5.57931
5.58588
5.59308
5.60242
5.61379
5.62591
5.63698
5.64638
5.6549
5.66355
5.67362
5.68501
5.69518
5.70285
5.7093
5.71685
5.72633
5.73702
5.74667
5.75337
5.75717
5.76001
5.76409
5.77047
5.7786
5.78691
5.7941
5.79966
5.80357
5.80589
5.80676
5.80695
5.80776
5.8097
5.81226
5.81413
5.8146
5.81352
5.81184
5.81086
5.81093
5.81224
1.40001
1.40001
1.40001
1.40001
1.40001
1.40001
1.40001
1.40001
1.40001
1.40001
1.40001
1.40001
1.40001
1.40001
1.40001
1.40001
1.40001
1.40001
1.40001
1.40001
1.40001
1.40001
1.40001
1.40001
1.40001
1.40001
1.40001
1.40001
1.40001
1.40001
1.40001
1.40001
1.40001
1.40001
1.40001
1.40001
1.40001
1.40001
1.40001
1.40001
1.40001
1.40001
1.40001
1.40001
1.40001
1.40001
1.40001
1.40001
1.40001
1.40001
1.40001
1.40001
1.40001
1.40001
1.40001
1.40001
1.40001
1.40001
1.40001
1.40001
1.40001
1.40001
1.57332
4.46114
5.46407
5.43865
5.4395
5.44752
5.4617
5.47673
5.49098
5.50422
5.51377
5.52019
5.52888
5.542
5.55672
5.5704
5.58053
5.58666
5.59119
5.59683
5.60563
5.61658
5.62786
5.63775
5.64606
5.65374
5.66211
5.67207
5.68176
5.68926
5.6952
5.70228
5.71139
5.72204
5.73199
5.73905
5.74298
5.74552
5.7491
5.75506
5.76301
5.77133
5.77841
5.78359
5.78694
5.78878
5.78939
5.78935
5.78969
5.79093
5.79278
5.79418
5.79447
5.79343
5.79183
5.79078
5.79077
5.79202
1.40001
1.40001
1.40001
1.40001
1.40001
1.40001
1.40001
1.40001
1.40001
1.40001
1.40001
1.40001
1.40001
1.40001
1.40001
1.40001
1.40001
1.40001
1.40001
1.40001
1.40001
1.40001
1.40001
1.40001
1.40001
1.40001
1.40001
1.40001
1.40001
1.40001
1.40001
1.40001
1.40001
1.40001
1.40001
1.40001
1.40001
1.40001
1.40001
1.40001
1.40001
1.40001
1.40001
1.40001
1.40001
1.40001
1.40001
1.40001
1.40001
1.40001
1.40001
1.40001
1.40001
1.40001
1.40001
1.40001
1.40001
1.40001
1.40001
1.40001
1.40001
1.40001
1.41043
4.15733
5.40794
5.40097
5.41591
5.429
5.44553
5.46316
5.48231
5.49972
5.51208
5.52029
5.52795
5.53914
5.55319
5.56813
5.5801
5.58726
5.59107
5.59441
5.60033
5.60914
5.61965
5.62973
5.63807
5.64508
5.65186
5.65984
5.66828
5.67537
5.68098
5.6875
5.69624
5.70669
5.71654
5.72357
5.72742
5.72977
5.73307
5.73875
5.7465
5.75456
5.76121
5.76581
5.7686
5.77009
5.77058
5.77037
5.77017
5.77052
5.77152
5.77229
5.77234
5.77135
5.76989
5.76878
5.76867
5.76988
1.40001
1.40001
1.40001
1.40001
1.40001
1.40001
1.40001
1.40001
1.40001
1.40001
1.40001
1.40001
1.40001
1.40001
1.40001
1.40001
1.40001
1.40001
1.40001
1.40001
1.40001
1.40001
1.40001
1.40001
1.40001
1.40001
1.40001
1.40001
1.40001
1.40001
1.40001
1.40001
1.40001
1.40001
1.40001
1.40001
1.40001
1.40001
1.40001
1.40001
1.40001
1.40001
1.40001
1.40001
1.40001
1.40001
1.40001
1.40001
1.40001
1.40001
1.40001
1.40001
1.40001
1.40001
1.40001
1.40001
1.40001
1.40001
1.40001
1.40001
1.40001
1.40001
1.40007
3.76792
5.30689
5.3668
5.39626
5.4112
5.42486
5.44073
5.46151
5.48449
5.50324
5.51552
5.52421
5.53438
5.54705
5.56204
5.57588
5.58526
5.59029
5.5931
5.5971
5.60381
5.61294
5.62265
5.63094
5.63736
5.64264
5.64848
5.65525
5.66161
5.66713
5.67331
5.68135
5.69099
5.70031
5.70699
5.71063
5.71282
5.71595
5.72142
5.72884
5.73642
5.74244
5.74638
5.74866
5.74989
5.75033
5.74993
5.74913
5.74855
5.74855
5.74866
5.74832
5.74714
5.7456
5.74423
5.74389
5.74496
1.40001
1.40001
1.40001
1.40001
1.40001
1.40001
1.40001
1.40001
1.40001
1.40001
1.40001
1.40001
1.40001
1.40001
1.40001
1.40001
1.40001
1.40001
1.40001
1.40001
1.40001
1.40001
1.40001
1.40001
1.40001
1.40001
1.40001
1.40001
1.40001
1.40001
1.40001
1.40001
1.40001
1.40001
1.40001
1.40001
1.40001
1.40001
1.40001
1.40001
1.40001
1.40001
1.40001
1.40001
1.40001
1.40001
1.40001
1.40001
1.40001
1.40001
1.40001
1.40001
1.40001
1.40001
1.40001
1.40001
1.40001
1.40001
1.40001
1.40001
1.40001
1.40001
1.4
3.37966
5.23752
5.3391
5.37265
5.39204
5.40666
5.42447
5.44776
5.47261
5.49322
5.50795
5.5182
5.52731
5.5384
5.55288
5.56806
5.57939
5.58618
5.59007
5.59382
5.59959
5.60759
5.61667
5.62467
5.63049
5.63441
5.63818
5.64312
5.64853
5.65377
5.65951
5.66668
5.67504
5.6833
5.68944
5.69284
5.69483
5.69775
5.70289
5.7098
5.71673
5.72204
5.72533
5.72714
5.72814
5.72841
5.72765
5.72612
5.72444
5.7233
5.72262
5.72179
5.72039
5.71866
5.71706
5.71657
5.7176
1.40001
1.40001
1.40001
1.40001
1.40001
1.40001
1.40001
1.40001
1.40001
1.40001
1.40001
1.40001
1.40001
1.40001
1.40001
1.40001
1.40001
1.40001
1.40001
1.40001
1.40001
1.40001
1.40001
1.40001
1.40001
1.40001
1.40001
1.40001
1.40001
1.40001
1.40001
1.40001
1.40001
1.40001
1.40001
1.40001
1.40001
1.40001
1.40001
1.40001
1.40001
1.40001
1.40001
1.40001
1.40001
1.40001
1.40001
1.40001
1.40001
1.40001
1.40001
1.40001
1.40001
1.40001
1.40001
1.40001
1.40001
1.40001
1.40001
1.40001
1.40001
1.40001
1.40001
2.97088
5.12557
5.32568
5.36797
5.38525
5.39322
5.40862
5.43168
5.45813
5.48096
5.497
5.50758
5.51581
5.52557
5.53997
5.55633
5.56955
5.57859
5.58425
5.58864
5.59454
5.60236
5.6111
5.6188
5.62405
5.62685
5.6289
5.6321
5.63644
5.64111
5.64607
5.65196
5.65878
5.66576
5.67124
5.67433
5.67603
5.67852
5.68307
5.68926
5.69543
5.70008
5.70282
5.70414
5.70475
5.70466
5.70334
5.70104
5.69837
5.69615
5.69453
5.69292
5.69089
5.6886
5.68643
5.68558
5.68641
1.40001
1.40001
1.40001
1.40001
1.40001
1.40001
1.40001
1.40001
1.40001
1.40001
1.40001
1.40001
1.40001
1.40001
1.40001
1.40001
1.40001
1.40001
1.40001
1.40001
1.40001
1.40001
1.40001
1.40001
1.40001
1.40001
1.40001
1.40001
1.40001
1.40001
1.40001
1.40001
1.40001
1.40001
1.40001
1.40001
1.40001
1.40001
1.40001
1.40001
1.40001
1.40001
1.40001
1.40001
1.40001
1.40001
1.40001
1.40001
1.40001
1.40001
1.40001
1.40001
1.40001
1.40001
1.40001
1.40001
1.40001
1.40001
1.40001
1.40001
1.40001
1.40001
1.40001
2.5612
5.02037
5.33821
5.36692
5.38482
5.39511
5.40815
5.42581
5.44673
5.46646
5.48228
5.49347
5.50201
5.51219
5.52629
5.54329
5.55756
5.56735
5.57467
5.58042
5.58745
5.59583
5.60465
5.61229