/*--------------------------------*- C++ -*----------------------------------*\
  =========                 |
  \\      /  F ield         | OpenFOAM: The Open Source CFD Toolbox
   \\    /   O peration     | Website:  https://openfoam.org
    \\  /    A nd           | Version:  7
     \\/     M anipulation  |
\*---------------------------------------------------------------------------*/
FoamFile
{
    version     2.0;
    format      ascii;
    class       volScalarField;
    location    "2.7";
    object      p;
}
// * * * * * * * * * * * * * * * * * * * * * * * * * * * * * * * * * * * * * //

dimensions      [1 -1 -2 0 0 0 0];

internalField   nonuniform List<scalar> 
12096
(
1.02648
1.02593
1.02647
1.03168
1.04759
1.07088
1.08009
1.07935
1.07701
1.07269
1.0621
1.04365
1.03381
1.0313
1.03009
1.02921
1.02872
1.02884
1.03201
1.04543
1.06934
1.08373
1.0854
1.08528
1.084
1.07619
1.04975
1.00284
0.976752
0.974117
0.973943
0.973854
0.973774
0.973583
0.97352
0.974895
0.980999
0.99477
1.00678
1.00772
1.00586
1.00292
0.997495
0.987961
0.977459
0.973576
0.972665
0.971823
0.971009
0.970481
0.970981
0.975871
0.988407
0.998622
0.99895
0.997562
0.995835
0.993321
0.988355
0.976184
0.951654
0.929051
0.922245
0.92055
0.919365
0.918385
0.917581
0.917099
0.917804
0.922264
0.928108
0.93053
0.930474
0.929877
0.929288
0.928729
0.926936
0.92164
0.914382
0.911195
0.910968
0.910861
0.910797
0.911154
0.912418
0.91518
0.922023
0.947932
1.02499
1.23702
1.53987
1.92485
2.10045
2.24393
2.29493
2.29361
2.26569
2.26221
2.26284
2.25709
2.25585
2.25826
2.25713
2.25474
2.25502
2.25601
2.25698
2.26061
2.27268
2.29495
2.31254
2.314
2.31143
2.30672
2.29943
2.29178
2.28634
2.28129
2.2763
2.27131
2.26496
2.25506
2.23759
2.21673
2.20606
2.20237
2.20024
2.2005
2.20483
2.2095
2.20879
2.20617
2.20269
2.19657
2.18608
2.17563
2.17042
2.16821
2.1667
2.16622
2.16966
2.17958
2.19556
2.21197
2.22146
2.2237
2.22378
2.22188
2.21892
2.21599
2.21173
2.20272
2.18358
2.14838
2.11045
2.09303
2.09048
2.08989
2.08993
2.09299
2.09928
2.10723
2.11095
2.11016
2.10898
2.10791
2.10702
2.10602
2.10488
2.10561
2.11246
2.12506
2.13159
2.13107
2.1306
2.13016
2.12833
2.12353
2.11236
2.09345
2.07025
2.04812
2.03119
2.0206
2.01466
2.0114
2.00899
2.00711
2.00691
2.00984
2.0146
2.01828
2.02148
2.0276
2.04282
2.06649
2.08008
2.08037
2.07722
2.07243
2.0662
2.05516
2.03322
1.99949
1.97434
1.96806
1.96675
1.96791
1.97401
1.98659
2.00391
2.01719
2.01973
2.0145
2.00068
1.98927
1.98302
1.97772
1.97018
1.95805
1.94047
1.92185
1.90932
1.90176
1.89774
1.89704
1.89741
1.90316
1.9241
1.96328
2.00285
2.01774
2.01739
2.01445
2.01108
2.00632
1.99729
1.97626
1.92721
1.85992
1.82937
1.82424
1.82327
1.82213
1.81971
1.81797
1.81899
1.83007
1.8644
1.91378
1.94033
1.94458
1.02264
1.02179
1.02141
1.0229
1.03045
1.04964
1.0741
1.08216
1.08087
1.07711
1.06905
1.05262
1.03655
1.03236
1.03114
1.03037
1.03009
1.03029
1.03171
1.0396
1.05867
1.07662
1.08111
1.08129
1.08083
1.07782
1.06436
1.02929
0.986739
0.973042
0.972693
0.972746
0.972906
0.972719
0.972334
0.972395
0.974589
0.982507
0.997361
1.0062
1.00581
1.00384
1.00134
0.996299
0.987218
0.977609
0.97359
0.972684
0.972006
0.971489
0.971359
0.973144
0.980868
0.994169
0.999625
0.998753
0.996886
0.994602
0.990771
0.981056
0.958918
0.93305
0.922545
0.920268
0.9191
0.918094
0.917131
0.91632
0.91602
0.918125
0.924078
0.928683
0.92972
0.929387
0.928851
0.928259
0.927446
0.925243
0.919114
0.91189
0.90992
0.909706
0.90958
0.909449
0.909693
0.912476
0.919254
0.925669
0.931209
0.957262
1.03852
1.26469
1.57769
1.92973
2.1054
2.16822
2.24193
2.26887
2.26911
2.25825
2.25952
2.25949
2.25544
2.25108
2.24699
2.24436
2.24482
2.24643
2.25145
2.26749
2.29522
2.31079
2.31062
2.3078
2.30283
2.29569
2.2882
2.28172
2.27637
2.27179
2.26735
2.25991
2.2413
2.21261
2.19528
2.19067
2.18903
2.18908
2.19263
2.20067
2.20516
2.20359
2.20044
2.19607
2.18838
2.17827
2.17211
2.16962
2.16815
2.16756
2.1694
2.17416
2.18153
2.19454
2.20863
2.217
2.21797
2.21572
2.21306
2.21029
2.20589
2.1974
2.18086
2.15278
2.11768
2.09316
2.08789
2.08791
2.08853
2.08912
2.09058
2.09445
2.10114
2.10565
2.10447
2.10245
2.10104
2.10017
2.10002
2.10239
2.11038
2.12025
2.122
2.12099
2.12016
2.11876
2.11582
2.10989
2.10035
2.08835
2.07363
2.05496
2.03276
2.01342
2.00166
1.99547
1.99162
1.98952
1.98936
1.99284
2.00244
2.01628
2.0332
2.0559
2.07771
2.08445
2.08313
2.07943
2.07357
2.06344
2.04507
2.01403
1.97982
1.96381
1.96099
1.96097
1.96429
1.97544
1.99897
2.02857
2.04389
2.04451
2.03681
2.01577
1.98913
1.96668
1.95184
1.94189
1.93303
1.92377
1.91534
1.90909
1.90379
1.89964
1.89878
1.89891
1.90218
1.91788
1.95645
2.00088
2.0136
2.01253
2.01013
2.00758
2.00417
1.997
1.97665
1.92492
1.85543
1.8264
1.82186
1.82105
1.82159
1.82291
1.82472
1.82865
1.84124
1.87326
1.91457
1.93198
1.9358
1.93451
1.02181
1.01953
1.01877
1.01871
1.02126
1.03077
1.05162
1.07382
1.07924
1.07762
1.07286
1.06211
1.04466
1.03389
1.03142
1.03099
1.03117
1.03143
1.03221
1.03699
1.05125
1.06885
1.07578
1.07649
1.07636
1.07501
1.0693
1.04979
1.00977
0.977413
0.971337
0.971263
0.97146
0.971314
0.970625
0.970067
0.970552
0.974083
0.984555
1.00035
1.00658
1.00574
1.00372
1.00088
0.994982
0.984992
0.977227
0.974894
0.974177
0.973462
0.972803
0.97278
0.976144
0.987483
0.999396
1.00069
0.999057
0.996696
0.992931
0.984291
0.964807
0.937626
0.922756
0.919895
0.91887
0.917932
0.916985
0.916111
0.915552
0.916414
0.9214
0.926662
0.927975
0.927934
0.927728
0.927444
0.927111
0.926291
0.923426
0.916272
0.909684
0.908345
0.908092
0.907833
0.907833
0.910984
0.919968
0.925423
0.925374
0.925949
0.930376
0.957273
1.05627
1.26798
1.58496
1.87643
2.13377
2.16279
2.1869
2.22243
2.25048
2.25469
2.25585
2.25437
2.25058
2.24393
2.23812
2.23666
2.2363
2.2431
2.26683
2.29656
2.30862
2.30796
2.30453
2.29971
2.29331
2.28654
2.28087
2.27555
2.26811
2.25551
2.23432
2.20434
2.18484
2.18
2.17855
2.17851
2.18129
2.18924
2.19962
2.20163
2.1993
2.19547
2.18976
2.18057
2.17327
2.17146
2.17055
2.16997
2.17047
2.1724
2.17678
2.18219
2.19074
2.20172
2.20845
2.20842
2.20599
2.20307
2.19902
2.19152
2.17746
2.15734
2.1315
2.10429
2.0884
2.08421
2.08259
2.08106
2.08017
2.08062
2.0852
2.09498
2.10045
2.09903
2.09733
2.09641
2.09658
2.10046
2.10957
2.11351
2.11258
2.11121
2.10951
2.10647
2.10101
2.09358
2.0866
2.0807
2.07334
2.05944
2.03621
2.01155
1.99629
1.98843
1.98389
1.98164
1.98139
1.98401
1.99548
2.0226
2.06111
2.08246
2.08422
2.08233
2.07978
2.07603
2.06703
2.045
2.007
1.9741
1.96221
1.95803
1.95711
1.95848
1.97005
2.00218
2.04307
2.05818
2.05739
2.05155
2.03579
2.00353
1.96083
1.93104
1.91678
1.90897
1.90392
1.90156
1.90199
1.90258
1.90143
1.90117
1.90207
1.90663
1.92148
1.95323
1.98705
2.00063
2.00424
2.00414
2.00201
1.9992
1.99425
1.97833
1.92966
1.85608
1.82404
1.8191
1.81808
1.8183
1.81969
1.82384
1.83272
1.85199
1.88796
1.92188
1.92922
1.92866
1.92814
1.92426
1.02519
1.02064
1.01778
1.01729
1.01766
1.02109
1.03185
1.05286
1.07215
1.07589
1.07414
1.06817
1.05589
1.04031
1.03363
1.03254
1.03292
1.03311
1.03349
1.03643
1.0471
1.06239
1.06988
1.07099
1.07112
1.07053
1.06814
1.05926
1.03428
0.994154
0.972081
0.969617
0.969241
0.968757
0.968047
0.967331
0.967222
0.968804
0.97469
0.989054
1.00444
1.00768
1.00629
1.00386
1.00032
0.99364
0.984577
0.978035
0.975776
0.974754
0.97382
0.97313
0.974003
0.980872
0.994994
1.00217
1.00142
0.99914
0.995499
0.987958
0.970196
0.941013
0.922696
0.919699
0.918756
0.917871
0.917024
0.916298
0.915795
0.91627
0.920037
0.924276
0.925768
0.926177
0.926175
0.926148
0.926215
0.926148
0.924999
0.920751
0.912824
0.908018
0.90722
0.906931
0.906831
0.909259
0.918403
0.925226
0.925292
0.924503
0.924306
0.924102
0.929254
0.955589
1.06381
1.26417
1.57952
1.84023
2.08616
2.20612
2.19768
2.20799
2.22622
2.2362
2.23723
2.23724
2.23273
2.22866
2.22663
2.22977
2.24462
2.26934
2.29193
2.30369
2.30622
2.30431
2.3003
2.29593
2.29055
2.28271
2.27146
2.25486
2.22825
2.19474
2.17382
2.16879
2.16731
2.1673
2.16978
2.17692
2.19026
2.19988
2.19908
2.19574
2.19121
2.18453
2.17572
2.17173
2.17121
2.17177
2.17216
2.17345
2.17477
2.17613
2.17976
2.18633
2.19334
2.19828
2.19838
2.19591
2.19228
2.18638
2.177
2.1657
2.1485
2.12014
2.09092
2.0784
2.07485
2.07254
2.07105
2.07032
2.07155
2.07931
2.09082
2.09553
2.09508
2.09418
2.09514
2.10122
2.10615
2.10603
2.10423
2.10189
2.09863
2.09352
2.0866
2.07997
2.07521
2.07151
2.06715
2.05828
2.03961
2.01364
1.99437
1.98598
1.98182
1.97989
1.97965
1.98216
1.99623
2.03316
2.06771
2.07855
2.0782
2.07616
2.07381
2.06821
2.05046
2.01308
1.97785
1.96404
1.95872
1.95754
1.95764
1.9655
1.99474
2.03672
2.05166
2.05228
2.05063
2.0445
2.02314
1.97389
1.92361
1.9026
1.89556
1.89215
1.89027
1.88951
1.89062
1.89557
1.90134
1.90629
1.91316
1.9276
1.95343
1.97948
1.98983
1.9922
1.99298
1.99303
1.99155
1.988
1.97721
1.9397
1.86772
1.82577
1.81791
1.81624
1.81575
1.81636
1.82067
1.83263
1.85882
1.89947
1.92597
1.92769
1.92538
1.92304
1.92078
1.91415
1.03198
1.0253
1.0198
1.01701
1.0168
1.01747
1.02134
1.03155
1.04982
1.06594
1.06996
1.06962
1.06397
1.05157
1.04009
1.03657
1.0365
1.03644
1.03637
1.03818
1.04633
1.05826
1.06427
1.06549
1.06572
1.06523
1.06399
1.0607
1.04836
1.01887
0.982366
0.967969
0.966285
0.965529
0.965097
0.964612
0.964245
0.96487
0.968075
0.977729
0.995687
1.00775
1.0087
1.00673
1.00383
0.999296
0.991663
0.983172
0.978529
0.976696
0.975481
0.974434
0.97404
0.976943
0.987835
1.00132
1.00421
1.0026
0.999131
0.992227
0.975759
0.945181
0.922602
0.919031
0.918252
0.917514
0.916879
0.916432
0.916192
0.916732
0.919993
0.923109
0.92368
0.923922
0.924194
0.924544
0.925004
0.925407
0.925409
0.923611
0.91786
0.910434
0.908108
0.90759
0.907216
0.907943
0.913789
0.922398
0.925629
0.925504
0.924662
0.923034
0.921641
0.919197
0.92442
0.947431
1.03376
1.25079
1.56294
1.85282
2.0264
2.19581
2.23195
2.22616
2.21373
2.22218
2.21816
2.21021
2.21136
2.2197
2.23303
2.24655
2.26509
2.29156
2.30927
2.31103
2.30941
2.30658
2.30149
2.2925
2.2782
2.25726
2.22633
2.1872
2.16191
2.15508
2.15359
2.15392
2.15637
2.16277
2.17674
2.19504
2.20059
2.19837
2.19453
2.18922
2.18122
2.17283
2.16962
2.16859
2.16808
2.16844
2.16861
2.1684
2.16847
2.17105
2.17707
2.18337
2.18718
2.18861
2.18722
2.1845
2.18227
2.17814
2.16485
2.13092
2.0874
2.0693
2.06515
2.06238
2.06014
2.05897
2.05889
2.06327
2.07544
2.09003
2.09584
2.09648
2.09707
2.09751
2.09816
2.09724
2.09503
2.09153
2.08681
2.08113
2.0755
2.07046
2.0658
2.06165
2.05744
2.05138
2.03938
2.01749
1.99581
1.98643
1.98411
1.98322
1.98347
1.98938
2.00706
2.03069
2.05113
2.0642
2.06707
2.06535
2.06066
2.04745
2.01838
1.9875
1.9715
1.96408
1.96184
1.96169
1.96791
1.99147
2.0245
2.03673
2.03921
2.03902
2.03633
2.02584
1.99247
1.93889
1.90723
1.89653
1.8911
1.8877
1.88584
1.88519
1.88604
1.89142
1.90323
1.9185
1.93687
1.95735
1.97332
1.98071
1.9836
1.98352
1.98227
1.98063
1.97793
1.97054
1.94481
1.88471
1.83245
1.81844
1.81632
1.8158
1.81585
1.8194
1.8322
1.86236
1.90315
1.92194
1.92258
1.9218
1.92077
1.91867
1.91489
1.90218
1.04299
1.03483
1.02678
1.01956
1.01713
1.01741
1.01881
1.02198
1.02991
1.04481
1.05667
1.05972
1.06032
1.058
1.04991
1.04292
1.04157
1.04118
1.04074
1.04182
1.04827
1.05674
1.06001
1.06087
1.06079
1.05971
1.05838
1.0567
1.05223
1.0356
1.00297
0.972908
0.964387
0.963241
0.962642
0.962305
0.961907
0.961884
0.963507
0.969138
0.98329
1.00252
1.01026
1.01
1.00765
1.00444
0.997821
0.988402
0.981602
0.978918
0.977336
0.975977
0.974891
0.975549
0.981999
0.996231
1.0047
1.00418
1.00148
0.995723
0.981664
0.951809
0.923889
0.917408
0.916636
0.916179
0.915912
0.915878
0.916138
0.917754
0.921339
0.922338
0.92237
0.922365
0.921969
0.922418
0.923226
0.923987
0.924421
0.924085
0.92147
0.915418
0.91092
0.909937
0.909279
0.908898
0.910802
0.917075
0.92371
0.925706
0.925109
0.923711
0.922002
0.918707
0.914606
0.905097
0.898405
0.923401
1.01259
1.24474
1.54093
1.89211
2.03084
2.13305
2.21107
2.22375
2.21232
2.20848
2.21808
2.22177
2.22115
2.22296
2.23671
2.26767
2.30384
2.32038
2.32106
2.31781
2.31204
2.30237
2.28682
2.26412
2.22892
2.18264
2.14995
2.1414
2.13988
2.13935
2.14071
2.14613
2.1592
2.1822
2.2004
2.20231
2.20001
2.19561
2.18816
2.17722
2.16769
2.16379
2.16203
2.16001
2.15838
2.15729
2.15744
2.16144
2.16857
2.17571
2.18056
2.18325
2.1858
2.18905
2.19008
2.18657
2.1715
2.13072
2.08085
2.06098
2.05633
2.05361
2.05178
2.05056
2.04978
2.05071
2.05825
2.07455
2.08985
2.09395
2.09225
2.09016
2.08829
2.08571
2.08225
2.07813
2.0739
2.07024
2.06707
2.06348
2.05889
2.05349
2.04731
2.04037
2.03169
2.01784
2.00018
1.99154
1.99026
1.99035
1.99453
2.00674
2.0204
2.02708
2.0337
2.04184
2.0461
2.04373
2.03351
2.01316
1.99213
1.98031
1.97401
1.97135
1.97063
1.97557
1.99408
2.01904
2.02746
2.02796
2.02662
2.02354
2.01469
1.99071
1.95051
1.91864
1.90194
1.89315
1.88852
1.88599
1.88495
1.88468
1.88653
1.89639
1.91711
1.94099
1.95666
1.9652
1.97096
1.97486
1.9747
1.97324
1.97147
1.96827
1.96079
1.93904
1.89059
1.84252
1.82352
1.81789
1.81686
1.81699
1.82038
1.8337
1.86655
1.90641
1.91957
1.91905
1.91788
1.91713
1.91564
1.91231
1.90618
1.88278
1.0523
1.04462
1.03779
1.02909
1.02055
1.01688
1.01742
1.02053
1.02544
1.03255
1.04089
1.04531
1.04809
1.04994
1.05019
1.04781
1.0463
1.04548
1.04479
1.04559
1.05193
1.05893
1.05953
1.05775
1.0563
1.05452
1.05253
1.05076
1.04842
1.04145
1.02026
0.988244
0.967296
0.962898
0.961898
0.96136
0.96078
0.9601
0.96012
0.962936
0.972095
0.991567
1.0088
1.01186
1.00964
1.00631
1.00106
0.992406
0.985025
0.981861
0.980148
0.978654
0.9773
0.976637
0.979282
0.989689
1.00269
1.00513
1.00343
0.999207
0.987636
0.960233
0.927728
0.916038
0.914445
0.913737
0.913554
0.914072
0.915473
0.918848
0.921803
0.922319
0.922556
0.922212
0.9201
0.919975
0.920963
0.921793
0.922522
0.922659
0.922014
0.919636
0.915253
0.91266
0.911636
0.910782
0.910679
0.913173
0.918653
0.923972
0.92531
0.924122
0.922296
0.920335
0.916292
0.906137
0.888908
0.87729
0.88075
0.915559
1.01999
1.24707
1.56714
1.86749
2.07389
2.10529
2.14174
2.20145
2.21845
2.21153
2.21347
2.22048
2.23239
2.2544
2.28862
2.31561
2.32123
2.31955
2.31477
2.30585
2.29217
2.27005
2.23473
2.18509
2.14383
2.13029
2.12788
2.12637
2.12588
2.12885
2.13847
2.16074
2.19129
2.20586
2.20552
2.20204
2.19591
2.18527
2.17026
2.15753
2.15277
2.15068
2.14877
2.14777
2.15041
2.15795
2.166
2.17296
2.18036
2.18648
2.18828
2.18759
2.18494
2.18006
2.16495
2.12452
2.0742
2.05459
2.05102
2.04932
2.04804
2.04673
2.04545
2.04523
2.0485
2.05894
2.07578
2.08563
2.08503
2.08194
2.07741
2.07172
2.06824
2.06588
2.06381
2.06242
2.06095
2.05861
2.05456
2.04867
2.04113
2.03254
2.02386
2.01456
2.00491
2.00062
2.00085
2.00389
2.01193
2.02029
2.02158
2.02103
2.02013
2.01784
2.01374
2.00836
1.9994
1.99013
1.984
1.98067
1.9802
1.98218
1.98916
2.00422
2.01816
2.02048
2.01947
2.0176
2.01336
2.00276
1.97965
1.94753
1.92494
1.9107
1.89802
1.88952
1.88655
1.88581
1.88576
1.88809
1.8968
1.91518
1.93537
1.94718
1.95534
1.96161
1.96493
1.96499
1.96379
1.96218
1.95946
1.95275
1.93298
1.8888
1.84562
1.8302
1.82499
1.82236
1.82108
1.82383
1.83706
1.87015
1.90645
1.914
1.91321
1.91284
1.91226
1.91125
1.90896
1.90343
1.89023
1.84632
1.0597
1.05325
1.04788
1.04135
1.02958
1.01876
1.01611
1.01925
1.025
1.02993
1.03367
1.03682
1.03982
1.04275
1.04568
1.04753
1.04778
1.04757
1.04732
1.04942
1.0567
1.06182
1.06058
1.05652
1.05259
1.0498
1.04732
1.04484
1.04234
1.03886
1.02908
1.00582
0.979117
0.965643
0.962617
0.961447
0.960321
0.958898
0.957782
0.958347
0.963713
0.978276
1.00099
1.01176
1.01132
1.00808
1.00455
0.998031
0.989549
0.984861
0.982684
0.980915
0.979238
0.977942
0.978688
0.985722
0.998887
1.00414
1.00318
1.00011
0.991886
0.968903
0.934261
0.916613
0.913284
0.911653
0.910292
0.911056
0.91406
0.917591
0.920317
0.922177
0.923536
0.923713
0.921226
0.919058
0.919412
0.919849
0.920036
0.920307
0.92081
0.920357
0.918802
0.916372
0.91427
0.912966
0.912071
0.91223
0.914685
0.91981
0.924523
0.924924
0.922862
0.920529
0.917592
0.908941
0.889464
0.872433
0.86851
0.869474
0.879005
0.915049
1.03912
1.25319
1.56793
1.8292
2.08962
2.16253
2.14775
2.16438
2.18595
2.19541
2.21169
2.24388
2.28383
2.31419
2.32235
2.32087
2.31656
2.30944
2.29615
2.27415
2.24111
2.19435
2.14666
2.12231
2.11592
2.11242
2.10948
2.10947
2.11545
2.13429
2.17138
2.20461
2.21007
2.20681
2.20151
2.19255
2.17633
2.15808
2.14623
2.14236
2.14021
2.1389
2.14125
2.15173
2.16633
2.18018
2.18486
2.1841
2.18317
2.1817
2.17934
2.1736
2.15533
2.11358
2.06665
2.04891
2.04564
2.04424
2.04323
2.04241
2.04164
2.04097
2.04184
2.04596
2.05491
2.06653
2.07134
2.06949
2.06445
2.05977
2.05774
2.05668
2.05656
2.05638
2.05562
2.05417
2.05152
2.04647
2.03884
2.03003
2.02064
2.01489
2.01584
2.01577
2.01648
2.01862
2.01943
2.01816
2.01603
2.01048
2.00006
1.98698
1.97686
1.97262
1.97302
1.97803
1.98138
1.98495
1.99136
2.00336
2.01782
2.02387
2.02244
2.01742
2.01106
2.00347
1.99049
1.9678
1.94273
1.9284
1.91884
1.90856
1.89727
1.88918
1.8879
1.88833
1.89146
1.9011
1.91513
1.92516
1.93205
1.94065
1.94962
1.95407
1.954
1.95322
1.95207
1.94975
1.94389
1.92631
1.88699
1.8477
1.83315
1.8292
1.82889
1.8294
1.83293
1.84569
1.87357
1.90008
1.90521
1.90582
1.90599
1.90596
1.90521
1.90373
1.89977
1.88793
1.855
1.79614
1.06242
1.06114
1.05942
1.055
1.04191
1.02469
1.01598
1.01735
1.0227
1.027
1.03008
1.03275
1.03527
1.03755
1.04069
1.04457
1.04685
1.0475
1.04832
1.05262
1.06094
1.06556
1.06418
1.05959
1.05279
1.04607
1.04274
1.03998
1.03674
1.03328
1.02821
1.01548
0.993344
0.973953
0.965174
0.962427
0.961005
0.959133
0.957138
0.956067
0.958036
0.967319
0.988082
1.00812
1.01193
1.00938
1.00581
1.00087
0.993149
0.987819
0.985257
0.983308
0.981555
0.980195
0.980015
0.984092
0.995028
1.00214
1.00195
0.999996
0.994425
0.976922
0.943232
0.919154
0.91283
0.910763
0.909612
0.908794
0.910996
0.914527
0.917757
0.920832
0.923148
0.924074
0.923093
0.920487
0.919205
0.918817
0.918219
0.91769
0.91765
0.919214
0.920457
0.919341
0.917167
0.914952
0.913353
0.912415
0.912836
0.916202
0.922368
0.925448
0.923585
0.920497
0.917236
0.90983
0.89034
0.871603
0.866784
0.865266
0.86567
0.870633
0.885588
0.920481
1.03861
1.26341
1.60504
1.84579
2.03418
2.17192
2.17451
2.16711
2.18987
2.21736
2.24924
2.28693
2.30906
2.31587
2.31466
2.30946
2.29974
2.28035
2.24709
2.202
2.15373
2.11886
2.10504
2.10036
2.09734
2.09533
2.09749
2.10982
2.14292
2.1898
2.21027
2.20902
2.20489
2.19831
2.1853
2.16413
2.14624
2.13755
2.1346
2.13337
2.13561
2.14701
2.16677
2.1784
2.17931
2.17752
2.17597
2.17436
2.17164
2.16399
2.14336
2.10188
2.05916
2.04188
2.03927
2.0383
2.0375
2.03673
2.0361
2.0357
2.03553
2.03545
2.0372
2.04213
2.04852
2.05295
2.05323
2.05182
2.05079
2.05127
2.05234
2.0519
2.05164
2.05085
2.04898
2.04527
2.04003
2.03411
2.02821
2.02268
2.01463
2.01269
2.01336
2.01525
2.01519
2.0123
2.00428
1.98666
1.96473
1.95256
1.94922
1.9494
1.95739
1.97129
1.98475
1.99953
2.01685
2.02878
2.02956
2.02664
2.02019
2.0103
1.99659
1.97787
1.95572
1.93862
1.92999
1.92333
1.91699
1.91159
1.90434
1.89667
1.89489
1.89693
1.90227
1.90668
1.90994
1.91612
1.92523
1.93595
1.94251
1.94274
1.94195
1.9411
1.93902
1.93381
1.91797
1.8831
1.84869
1.83608
1.83208
1.8317
1.83465
1.84429
1.86308
1.88579
1.89587
1.89555
1.89507
1.89516
1.89658
1.89703
1.8959
1.89343
1.88433
1.85553
1.80128
1.76824
1.0542
1.05536
1.05894
1.06049
1.05384
1.03712
1.01886
1.01615
1.02099
1.02438
1.02668
1.02864
1.03006
1.03156
1.0348
1.0398
1.04432
1.04745
1.05078
1.05651
1.06382
1.06793
1.06637
1.06159
1.05472
1.04588
1.03886
1.03531
1.03189
1.02778
1.02304
1.0152
1.00186
0.98606
0.9738
0.966288
0.962828
0.960355
0.95752
0.955142
0.95451
0.959116
0.974323
0.999188
1.01125
1.01085
1.00741
1.00369
0.997824
0.991838
0.988489
0.986168
0.984236
0.982743
0.98204
0.984012
0.992056
0.999105
0.999645
0.998696
0.99482
0.982234
0.954173
0.925572
0.913128
0.909626
0.910305
0.909608
0.908516
0.912659
0.916871
0.919839
0.922516
0.924739
0.924158
0.922564
0.920605
0.918754
0.917095
0.915677
0.914739
0.915744
0.919316
0.921826
0.92064
0.917568
0.914802
0.91297
0.91224
0.914155
0.920204
0.925017
0.923466
0.919726
0.915872
0.909201
0.891024
0.871557
0.866264
0.864365
0.862459
0.863196
0.871417
0.880376
0.891491
0.92836
1.03941
1.28527
1.59799
1.90219
2.00998
2.12387
2.20419
2.21284
2.24379
2.27915
2.2915
2.29986
2.30482
2.30277
2.29734
2.28258
2.25147
2.20993
2.16587
2.12646
2.10089
2.09132
2.08785
2.08578
2.08587
2.093
2.11499
2.15725
2.19821
2.20931
2.20671
2.20132
2.1931
2.17767
2.15578
2.13923
2.13358
2.13225
2.13324
2.1417
2.15901
2.17114
2.17102
2.1686
2.16664
2.16455
2.16054
2.15075
2.12988
2.0946
2.05493
2.0343
2.0304
2.02959
2.02897
2.02852
2.02831
2.02816
2.02755
2.02616
2.02481
2.02526
2.02891
2.03553
2.04186
2.045
2.04611
2.04808
2.04943
2.04923
2.04915
2.04921
2.04917
2.04822
2.04748
2.04617
2.04223
2.03199
2.01363
2.00132
2.00081
2.00192
2.00152
1.99581
1.98074
1.95978
1.94786
1.94434
1.94309
1.94392
1.9528
1.97336
2.00237
2.0229
2.02669
2.02541
2.024
2.02094
2.01286
1.9952
1.96876
1.94625
1.93497
1.92929
1.925
1.92241
1.92181
1.92128
1.91814
1.9112
1.90372
1.90087
1.90009
1.89969
1.90101
1.9059
1.91692
1.92936
1.9322
1.93132
1.93029
1.92783
1.92198
1.90581
1.87333
1.84552
1.83716
1.83441
1.83398
1.83724
1.8511
1.87884
1.9041
1.90844
1.90206
1.88682
1.8825
1.88271
1.88504
1.8857
1.88359
1.87694
1.8536
1.80671
1.77089
1.76277
1.04842
1.04713
1.05154
1.05644
1.05716
1.04674
1.02605
1.0188
1.02186
1.02407
1.02527
1.02585
1.0265
1.02807
1.0306
1.03434
1.03954
1.04555
1.05177
1.05827
1.06471
1.06939
1.06958
1.06525
1.05842
1.0494
1.03908
1.03129
1.02719
1.02327
1.01862
1.01209
1.0032
0.994316
0.984072
0.974007
0.965794
0.961658
0.95838
0.955081
0.952834
0.953955
0.963591
0.986382
1.00745
1.01118
1.00856
1.00466
0.999462
0.993414
0.990136
0.988049
0.98625
0.984916
0.984278
0.985398
0.991002
0.99606
0.997165
0.997163
0.99403
0.983789
0.961535
0.933248
0.914621
0.908826
0.910358
0.908778
0.90875
0.913467
0.916653
0.918451
0.920258
0.923977
0.924307
0.922588
0.921381
0.919591
0.916994
0.914709
0.913042
0.912676
0.915806
0.921106
0.922749
0.920246
0.916683
0.914138
0.912983
0.914144
0.919523
0.924629
0.922857
0.918564
0.914171
0.907831
0.891683
0.872454
0.86649
0.864058
0.861147
0.860167
0.864731
0.875862
0.881708
0.880443
0.886338
0.92921
1.04628
1.29727
1.60485
1.90361
2.01844
2.10419
2.19905
2.26117
2.28752
2.30499
2.31083
2.30846
2.29854
2.27885
2.24979
2.21481
2.1767
2.1383
2.10263
2.08371
2.07997
2.07794
2.07631
2.07907
2.09111
2.11958
2.16395
2.19861
2.20499
2.20215
2.19606
2.18688
2.17222
2.15137
2.13731
2.13398
2.13439
2.13849
2.14713
2.1569
2.16021
2.1582
2.1554
2.15244
2.14726
2.13726
2.12005
2.09145
2.05353
2.02829
2.02148
2.0199
2.01912
2.01859
2.01773
2.01658
2.01523
2.0133
2.01111
2.01009
2.01308
2.01958
2.02773
2.03581
2.04203
2.04579
2.04747
2.04838
2.04941
2.05142
2.05506
2.05939
2.06204
2.06157
2.05615
2.04044
2.00996
1.98666
1.97851
1.97435
1.97073
1.96502
1.95674
1.94899
1.94401
1.94227
1.94147
1.94301
1.95686
1.98993
2.01552
2.01876
2.01837
2.0171
2.01533
2.01082
1.99648
1.96882
1.94637
1.93701
1.93078
1.9261
1.92464
1.92693
1.93329
1.93493
1.93295
1.92136
1.90159
1.89427
1.89298
1.89217
1.89193
1.89509
1.90642
1.91838
1.92046
1.9194
1.91694
1.91042
1.89251
1.86052
1.8388
1.83429
1.83317
1.83327
1.83747
1.85365
1.88663
1.9162
1.92155
1.91823
1.90528
1.88287
1.86938
1.86906
1.86997
1.86895
1.86306
1.84386
1.80521
1.7747
1.76402
1.76186
1.05094
1.0462
1.04838
1.05314
1.05597
1.05121
1.03698
1.02721
1.02653
1.026
1.02511
1.02405
1.02392
1.02533
1.02747
1.03041
1.03469
1.04083
1.04885
1.05828
1.06824
1.07533
1.07455
1.06868
1.06081
1.0507
1.03992
1.03052
1.02352
1.01886
1.01447
1.00921
1.00269
0.996454
0.990588
0.981987
0.971995
0.963112
0.958791
0.95517
0.952097
0.951047
0.956172
0.97319
0.999103
1.01063
1.01025
1.0067
1.00221
0.995743
0.991009
0.98923
0.987978
0.987128
0.986827
0.987706
0.991105
0.993695
0.994915
0.995628
0.993976
0.985418
0.965644
0.93804
0.916377
0.908194
0.905592
0.904624
0.909525
0.91306
0.915088
0.91661
0.918717
0.921569
0.923731
0.924394
0.923586
0.920895
0.9177
0.914981
0.912764
0.911293
0.912338
0.917336
0.92244
0.922366
0.918976
0.915633
0.913754
0.914102
0.918694
0.923812
0.922064
0.917557
0.912911
0.906762
0.892229
0.873724
0.867079
0.863903
0.860101
0.857552
0.859605
0.868893
0.87912
0.881116
0.878848
0.877946
0.885637
0.929603
1.05881
1.29957
1.59738
1.91703
2.0946
2.14239
2.18743
2.24239
2.28199
2.28848
2.28638
2.27653
2.25767
2.22991
2.19552
2.15281
2.10901
2.08299
2.07613
2.07316
2.07046
2.071
2.07914
2.09792
2.13083
2.17168
2.19912
2.20473
2.20106
2.19455
2.18583
2.17217
2.15254
2.13954
2.13662
2.13529
2.13643
2.13967
2.14377
2.14469
2.14178
2.13783
2.13266
2.12477
2.11189
2.08864
2.0521
2.02157
2.01146
2.00918
2.00806
2.00681
2.00507
2.00302
2.00085
1.99842
1.99631
1.99651
1.99986
2.00517
2.01282
2.02448
2.03826
2.04652
2.04968
2.05206
2.05591
2.06237
2.06935
2.07277
2.07233
2.06967
2.06171
2.03967
2.00127
1.96827
1.95288
1.94435
1.93832
1.93508
1.93513
1.93782
1.94027
1.94123
1.9424
1.94951
1.97309
2.00392
2.01115
2.01019
2.00863
2.0069
2.00329
1.99226
1.96881
1.94802
1.93952
1.93412
1.93097
1.9301
1.93318
1.94141
1.94564
1.94505
1.93699
1.9163
1.89416
1.88666
1.88495
1.88385
1.88349
1.88694
1.89578
1.90256
1.90373
1.90199
1.89602
1.87924
1.8511
1.83434
1.83071
1.82986
1.82992
1.83388
1.85198
1.89026
1.92405
1.92996
1.92786
1.92168
1.90861
1.88557
1.86529
1.85504
1.84854
1.83907
1.82024
1.79172
1.77223
1.76669
1.76419
1.7646
1.05559
1.04779
1.04715
1.05149
1.05405
1.04995
1.04005
1.03133
1.02853
1.02665
1.02459
1.02271
1.02217
1.02282
1.02412
1.02642
1.03033
1.0368
1.04628
1.05843
1.07114
1.07822
1.0759
1.06978
1.06371
1.05614
1.0455
1.03268
1.02022
1.01198
1.008
1.0056
1.00283
0.99805
0.992642
0.986942
0.978864
0.968503
0.960002
0.955632
0.952374
0.950311
0.952395
0.964127
0.989038
1.00855
1.01139
1.00891
1.00514
0.999068
0.992144
0.989719
0.989144
0.98897
0.988998
0.990058
0.99154
0.992877
0.993946
0.994731
0.993313
0.985396
0.966983
0.940752
0.918251
0.904753
0.903617
0.910238
0.914235
0.916184
0.917539
0.919167
0.921159
0.922961
0.925088
0.927026
0.925859
0.922484
0.918873
0.915685
0.913026
0.910849
0.910291
0.91368
0.920016
0.923598
0.921984
0.918564
0.916058
0.915746
0.919394
0.923857
0.921719
0.917123
0.912367
0.905692
0.890953
0.87351
0.866942
0.86335
0.859194
0.856126
0.856584
0.863362
0.875116
0.881352
0.880385
0.877751
0.876299
0.876027
0.884757
0.925062
1.0681
1.31384
1.60854
1.86377
2.13637
2.22137
2.22558
2.23534
2.24508
2.25126
2.24924
2.23828
2.21203
2.16965
2.12446
2.09279
2.07625
2.07085
2.06798
2.06564
2.06736
2.07766
2.10205
2.13874
2.17617
2.19939
2.20517
2.20412
2.19837
2.18906
2.17336
2.15073
2.13388
2.12941
2.12687
2.12449
2.12369
2.12563
2.12581
2.12235
2.11807
2.11267
2.10332
2.08391
2.04814
2.01226
1.99951
1.99722
1.99565
1.99382
1.99204
1.99049
1.98936
1.98904
1.98962
1.99163
1.99478
1.9992
2.00594
2.01833
2.03761
2.0531
2.05896
2.06296
2.06857
2.07273
2.07306
2.07181
2.06995
2.06669
2.05786
2.03243
1.98374
1.94219
1.92695
1.92117
1.91769
1.91632
1.91719
1.92336
1.93448
1.94275
1.95063
1.96546
1.98787
2.00275
2.00398
2.00149
1.99886
1.99462
1.9839
1.96223
1.94359
1.93727
1.93458
1.93348
1.93521
1.94294
1.95114
1.95252
1.94967
1.94222
1.92998
1.90878
1.88825
1.88163
1.87995
1.87867
1.87862
1.88205
1.88498
1.88462
1.8823
1.87526
1.86083
1.84249
1.83209
1.82885
1.82802
1.82796
1.83053
1.84713
1.89002
1.93248
1.93765
1.93585
1.93288
1.92724
1.9157
1.89376
1.864
1.83744
1.81452
1.78944
1.76738
1.75976
1.76021
1.76409
1.76707
1.76961
1.05748
1.04729
1.04581
1.04943
1.05021
1.04723
1.04084
1.03501
1.03201
1.0294
1.02664
1.02383
1.02205
1.02169
1.02217
1.02373
1.02735
1.03409
1.04428
1.05735
1.07067
1.07852
1.07866
1.07442
1.06922
1.06279
1.05173
1.03391
1.01444
1.00507
1.00169
1.00035
1.00183
1.00112
0.996132
0.990366
0.984085
0.974388
0.962651
0.956004
0.952349
0.949673
0.949713
0.957393
0.978079
1.0031
1.01125
1.01061
1.0078
1.0032
0.995233
0.990083
0.989458
0.989662
0.990242
0.991228
0.992506
0.993723
0.994843
0.995163
0.99274
0.984322
0.966999
0.942279
0.915349
0.903756
0.910031
0.91419
0.915498
0.91589
0.915989
0.917117
0.919186
0.921179
0.923814
0.926866
0.925844
0.922296
0.918941
0.915725
0.91261
0.909861
0.908319
0.910276
0.916264
0.922236
0.923524
0.920848
0.917567
0.916637
0.920292
0.924326
0.922381
0.917903
0.912871
0.904859
0.888992
0.873155
0.867175
0.863491
0.859688
0.856973
0.856904
0.861141
0.870156
0.87813
0.879861
0.877963
0.875855
0.873807
0.871684
0.871024
0.88208
0.922021
1.06323
1.30227
1.65911
1.91997
2.09172
2.1942
2.24871
2.25919
2.25742
2.24084
2.20958
2.1696
2.13172
2.10293
2.08433
2.07382
2.06941
2.06591
2.06454
2.07035
2.08681
2.11168
2.14486
2.17945
2.1996
2.20283
2.20045
2.19457
2.18394
2.16609
2.13933
2.12119
2.11435
2.11081
2.10814
2.10727
2.10962
2.10905
2.1053
2.10049
2.09298
2.07645
2.04192
2.00241
1.98768
1.98529
1.98383
1.98236
1.9809
1.98019
1.98156
1.98491
1.98821
1.99106
1.99395
1.99823
2.00497
2.01708
2.0391
2.06155
2.06822
2.06853
2.06862
2.06925
2.06895
2.06768
2.06592
2.06188
2.04987
2.01842
1.96626
1.92632
1.91434
1.91109
1.90908
1.90812
1.90839
1.91254
1.92258
1.94096
1.96077
1.97342
1.98445
1.99435
1.99432
1.99096
1.98617
1.97758
1.96194
1.9454
1.93551
1.9318
1.93117
1.93418
1.94394
1.95052
1.95057
1.94839
1.94455
1.93669
1.92228
1.90173
1.88429
1.87871
1.87734
1.8766
1.87701
1.87624
1.87398
1.86859
1.85625
1.83799
1.82538
1.82218
1.82273
1.82513
1.82719
1.8318
1.84777
1.88457
1.92296
1.93417
1.93792
1.93715
1.9339
1.9291
1.91903
1.89465
1.85157
1.79882
1.76017
1.74387
1.74061
1.74165
1.74719
1.75679
1.76753
1.77831
1.05484
1.0496
1.05375
1.05613
1.05552
1.05272
1.04594
1.03955
1.03587
1.03249
1.02897
1.02539
1.02254
1.02113
1.02072
1.02147
1.02439
1.03063
1.04064
1.05374
1.06822
1.0792
1.08306
1.08052
1.076
1.06921
1.05693
1.03517
1.00999
0.998826
0.995464
0.994408
0.997669
1.00282
1.00052
0.994807
0.988574
0.979071
0.96608
0.957058
0.952685
0.949528
0.948236
0.953176
0.969844
0.996659
1.0107
1.01171
1.00996
1.00654
0.999622
0.992566
0.98961
0.988997
0.989974
0.991638
0.993469
0.995442
0.997206
0.997625
0.995145
0.987641
0.969842
0.936659
0.905386
0.901419
0.905216
0.907747
0.91075
0.913165