/*--------------------------------*- C++ -*----------------------------------*\
  =========                 |
  \\      /  F ield         | OpenFOAM: The Open Source CFD Toolbox
   \\    /   O peration     | Website:  https://openfoam.org
    \\  /    A nd           | Version:  7
     \\/     M anipulation  |
\*---------------------------------------------------------------------------*/
FoamFile
{
    version     2.0;
    format      ascii;
    class       volVectorField;
    location    "10";
    object      U;
}
// * * * * * * * * * * * * * * * * * * * * * * * * * * * * * * * * * * * * * //

dimensions      [0 1 -1 0 0 0 0];

internalField   nonuniform List<vector> 
344
(
(1.60434 -0.00189524 -6.54122e-15)
(1.60989 -0.00186706 -4.36979e-15)
(1.61535 -0.00183936 -3.59268e-15)
(1.62073 -0.00181213 -3.9318e-15)
(1.62603 -0.00178533 -5.8762e-15)
(1.63126 -0.00175898 -5.05461e-15)
(1.6364 -0.00173305 -4.93844e-15)
(1.64147 -0.00170752 -3.53326e-15)
(1.64647 -0.0016824 -5.1672e-15)
(1.65139 -0.00165767 -3.69025e-15)
(1.65624 -0.00163333 -3.39893e-15)
(1.66102 -0.00160936 -4.79093e-15)
(1.66573 -0.00158576 -3.96411e-15)
(1.67036 -0.00156252 -4.39809e-15)
(1.67493 -0.00153963 -3.61295e-15)
(1.67944 -0.00151709 -2.71017e-15)
(1.68387 -0.00149489 -3.56985e-15)
(1.68824 -0.00147302 -3.95853e-15)
(1.69255 -0.00145148 -4.64988e-15)
(1.6968 -0.00143027 -4.03688e-15)
(1.70098 -0.00140938 -4.4918e-15)
(1.7051 -0.0013888 -5.13632e-15)
(1.70916 -0.00136853 -4.47141e-15)
(1.71316 -0.00134857 -4.9381e-15)
(1.7171 -0.00132891 -5.14132e-15)
(1.72099 -0.00130954 -4.77835e-15)
(1.72482 -0.00129046 -3.92492e-15)
(1.72859 -0.00127167 -3.78243e-15)
(1.73231 -0.00125316 -3.80201e-15)
(1.73597 -0.00123494 -4.44909e-15)
(1.73958 -0.00121698 -3.89412e-15)
(1.74314 -0.0011993 -3.59423e-15)
(1.74664 -0.00118188 -4.48175e-15)
(1.7501 -0.00116473 -3.69246e-15)
(1.7535 -0.00114784 -4.23182e-15)
(1.75686 -0.0011312 -3.03001e-15)
(1.76016 -0.00111481 -2.91814e-15)
(1.76342 -0.00109867 -2.26412e-15)
(1.76663 -0.00108278 -2.40335e-15)
(1.7698 -0.00106712 -2.69449e-15)
(1.77291 -0.00105171 -3.32328e-15)
(1.77599 -0.00103653 -2.18366e-15)
(1.77902 -0.00102158 -2.6467e-15)
(1.782 -0.00100685 -1.71144e-15)
(1.78494 -0.000992356 -2.35301e-15)
(1.78784 -0.000978079 -1.41449e-15)
(1.7907 -0.000964019 -1.77689e-15)
(1.79352 -0.000950175 -1.84869e-15)
(1.7963 -0.000936543 -1.16161e-15)
(1.79903 -0.00092312 -6.47883e-16)
(1.80173 -0.000909904 -1.58373e-15)
(1.80439 -0.000896892 -2.21365e-15)
(1.80701 -0.000884081 -3.06166e-16)
(1.80959 -0.00087147 -8.08809e-16)
(1.81214 -0.000859055 -1.30918e-15)
(1.81465 -0.000846835 -1.52461e-15)
(1.81712 -0.000834809 -8.81083e-16)
(1.81956 -0.000822974 -9.13578e-16)
(1.82197 -0.00081133 -6.59798e-16)
(1.82434 -0.000799875 -5.63492e-16)
(1.82668 -0.000788609 -4.51991e-16)
(1.82898 -0.000777531 -1.39351e-15)
(1.83125 -0.000766643 -1.46705e-15)
(1.83349 -0.000755944 -8.51131e-16)
(1.8357 -0.000745437 -4.52152e-16)
(1.83788 -0.000735124 -1.33795e-15)
(1.84003 -0.000725008 2.58258e-16)
(1.60444 -0.00440713 -1.50158e-14)
(1.60993 -0.00434118 -8.54034e-15)
(1.61535 -0.00427636 -1.03815e-14)
(1.62068 -0.00421263 -1.13309e-14)
(1.62593 -0.00414996 -1.269e-14)
(1.6311 -0.00408832 -9.23212e-15)
(1.6362 -0.00402768 -1.0456e-14)
(1.64121 -0.00396802 -1.08682e-14)
(1.64616 -0.00390931 -1.16628e-14)
(1.65102 -0.00385153 -9.07373e-15)
(1.65582 -0.00379465 -9.93898e-15)
(1.66054 -0.00373867 -1.05673e-14)
(1.6652 -0.00368355 -1.08192e-14)
(1.66978 -0.00362929 -9.32565e-15)
(1.6743 -0.00357586 -6.2027e-15)
(1.67875 -0.00352325 -7.91341e-15)
(1.68313 -0.00347145 -8.49129e-15)
(1.68745 -0.00342044 -9.18618e-15)
(1.6917 -0.00337021 -9.70176e-15)
(1.69589 -0.00332074 -1.04934e-14)
(1.70002 -0.00327203 -1.10993e-14)
(1.70409 -0.00322405 -1.16311e-14)
(1.70809 -0.00317681 -1.11591e-14)
(1.71204 -0.00313028 -1.15941e-14)
(1.71593 -0.00308446 -1.17681e-14)
(1.71976 -0.00303934 -1.30322e-14)
(1.72354 -0.0029949 -6.94203e-15)
(1.72726 -0.00295114 -8.82055e-15)
(1.73093 -0.00290804 -9.27464e-15)
(1.73454 -0.0028656 -1.05262e-14)
(1.7381 -0.0028238 -8.37557e-15)
(1.7416 -0.00278264 -9.0383e-15)
(1.74506 -0.00274211 -1.01512e-14)
(1.74846 -0.00270219 -7.20169e-15)
(1.75182 -0.00266288 -8.81607e-15)
(1.75512 -0.00262417 -6.03509e-15)
(1.75838 -0.00258605 -8.01872e-15)
(1.76159 -0.00254851 -5.322e-15)
(1.76475 -0.00251155 -6.93441e-15)
(1.76787 -0.00247515 -4.4923e-15)
(1.77094 -0.0024393 -6.40654e-15)
(1.77396 -0.00240401 -4.42956e-15)
(1.77695 -0.00236925 -6.11595e-15)
(1.77989 -0.00233503 -3.74249e-15)
(1.78278 -0.00230133 -5.60409e-15)
(1.78564 -0.00226815 -3.89754e-15)
(1.78845 -0.00223548 -1.97791e-15)
(1.79122 -0.00220331 -4.54821e-15)
(1.79395 -0.00217163 -2.10905e-15)
(1.79665 -0.00214045 -3.90766e-15)
(1.7993 -0.00210975 -2.19413e-15)
(1.80192 -0.00207952 -3.64629e-15)
(1.8045 -0.00204976 -1.07494e-15)
(1.80704 -0.00202047 -2.97041e-15)
(1.80954 -0.00199164 -1.7173e-15)
(1.81201 -0.00196327 -3.58033e-15)
(1.81445 -0.00193534 -1.18608e-15)
(1.81685 -0.00190786 -3.05031e-15)
(1.81921 -0.00188082 -8.14292e-16)
(1.82154 -0.00185423 -2.45844e-15)
(1.82384 -0.00182808 -5.71047e-16)
(1.82611 -0.00180236 -2.69665e-15)
(1.82834 -0.00177709 -5.58716e-16)
(1.83054 -0.00175226 -2.73884e-15)
(1.83271 -0.00172787 -4.27876e-16)
(1.83486 -0.00170393 -2.40403e-15)
(1.83697 -0.00168046 -1.9436e-16)
(1.60454 -0.0071106 -1.25944e-14)
(1.60992 -0.00700235 -1.13996e-14)
(1.61522 -0.00689601 -1.0476e-14)
(1.62044 -0.00679152 -1.06217e-14)
(1.62557 -0.00668882 -1.03412e-14)
(1.63063 -0.00658788 -9.74732e-15)
(1.63561 -0.00648862 -8.87718e-15)
(1.64051 -0.00639102 -8.95546e-15)
(1.64533 -0.00629503 -8.69613e-15)
(1.65008 -0.00620061 -8.27657e-15)
(1.65476 -0.00610773 -7.79055e-15)
(1.65937 -0.00601634 -8.05987e-15)
(1.6639 -0.00592643 -7.91402e-15)
(1.66837 -0.00583795 -8.21565e-15)
(1.67276 -0.00575088 -5.37184e-15)
(1.67709 -0.00566519 -5.5745e-15)
(1.68136 -0.00558086 -6.28058e-15)
(1.68556 -0.00549785 -6.98424e-15)
(1.68969 -0.00541616 -7.53739e-15)
(1.69376 -0.00533574 -7.97731e-15)
(1.69777 -0.00525659 -8.49874e-15)
(1.70172 -0.00517867 -8.44381e-15)
(1.70561 -0.00510198 -9.21551e-15)
(1.70945 -0.00502648 -9.43096e-15)
(1.71322 -0.00495216 -9.57872e-15)
(1.71694 -0.004879 -1.00374e-14)
(1.7206 -0.00480698 -9.29334e-15)
(1.7242 -0.00473608 -8.44874e-15)
(1.72776 -0.00466629 -8.28126e-15)
(1.73125 -0.00459758 -7.87609e-15)
(1.7347 -0.00452995 -7.65053e-15)
(1.7381 -0.00446336 -7.37533e-15)
(1.74144 -0.00439782 -7.50503e-15)
(1.74473 -0.00433329 -6.59727e-15)
(1.74798 -0.00426977 -6.60881e-15)
(1.75118 -0.00420723 -5.53181e-15)
(1.75433 -0.00414567 -5.34568e-15)
(1.75743 -0.00408506 -4.49618e-15)
(1.76049 -0.0040254 -4.03295e-15)
(1.7635 -0.00396667 -3.08355e-15)
(1.76647 -0.00390885 -2.96194e-15)
(1.76939 -0.00385193 -2.42153e-15)
(1.77227 -0.0037959 -2.17316e-15)
(1.77511 -0.00374073 -1.54811e-15)
(1.77791 -0.00368643 -1.45353e-15)
(1.78066 -0.00363298 -1.08129e-15)
(1.78338 -0.00358036 -6.57451e-16)
(1.78605 -0.00352855 -7.9189e-16)
(1.78869 -0.00347756 -1.99557e-16)
(1.79129 -0.00342737 -2.06141e-16)
(1.79385 -0.00337797 4.23182e-16)
(1.79637 -0.00332934 7.09198e-16)
(1.79886 -0.00328147 7.62597e-16)
(1.80131 -0.00323437 9.36199e-16)
(1.80372 -0.00318801 1.13555e-15)
(1.8061 -0.00314239 7.03171e-16)
(1.80845 -0.0030975 1.25614e-15)
(1.81076 -0.00305334 1.16693e-15)
(1.81304 -0.0030099 1.58398e-15)
(1.81528 -0.00296718 1.80555e-15)
(1.8175 -0.00292517 2.2321e-15)
(1.81968 -0.00288387 2.1757e-15)
(1.82183 -0.00284329 2.41451e-15)
(1.82395 -0.00280342 2.17413e-15)
(1.82604 -0.00276427 2.82882e-15)
(1.82811 -0.00272586 2.61697e-15)
(1.83014 -0.00268818 2.79473e-15)
(1.60436 -0.00974138 -1.34258e-14)
(1.60957 -0.00958917 -1.22408e-14)
(1.61469 -0.00943977 -9.46612e-15)
(1.61973 -0.00929311 -1.09214e-14)
(1.62469 -0.00914909 -8.51063e-15)
(1.62957 -0.00900764 -1.00402e-14)
(1.63436 -0.00886869 -7.5524e-15)
(1.63908 -0.00873216 -9.21421e-15)
(1.64373 -0.00859801 -6.8911e-15)
(1.64829 -0.00846616 -8.45064e-15)
(1.65279 -0.00833657 -6.02085e-15)
(1.65721 -0.00820917 -7.85155e-15)
(1.66156 -0.00808392 -5.76371e-15)
(1.66585 -0.00796077 -7.62272e-15)
(1.67006 -0.00783968 -6.31947e-15)
(1.67421 -0.00772061 -6.72639e-15)
(1.67829 -0.00760351 -7.04589e-15)
(1.68231 -0.00748834 -7.61686e-15)
(1.68627 -0.00737506 -8.15224e-15)
(1.69016 -0.00726365 -8.4901e-15)
(1.69399 -0.00715406 -8.79015e-15)
(1.69776 -0.00704626 -9.17221e-15)
(1.70147 -0.00694021 -9.47494e-15)
(1.70513 -0.0068359 -9.76265e-15)
(1.70873 -0.00673327 -9.79133e-15)
(1.71227 -0.00663231 -1.01771e-14)
(1.71576 -0.00653299 -9.2895e-15)
(1.71919 -0.00643527 -7.05047e-15)
(1.72257 -0.00633913 -8.62197e-15)
(1.7259 -0.00624454 -6.36188e-15)
(1.72918 -0.00615148 -7.63447e-15)
(1.7324 -0.00605991 -5.59551e-15)
(1.73558 -0.00596982 -7.38361e-15)
(1.73871 -0.00588117 -5.71577e-15)
(1.74179 -0.00579395 -4.28186e-15)
(1.74483 -0.00570812 -3.4901e-15)
(1.74782 -0.00562367 -2.72632e-15)
(1.75076 -0.00554057 -1.91983e-15)
(1.75366 -0.0054588 -1.16179e-15)
(1.75652 -0.00537834 -5.14937e-16)
(1.75933 -0.00529917 -9.10654e-18)
(1.7621 -0.00522126 3.2241e-16)
(1.76483 -0.00514459 6.40679e-16)
(1.76751 -0.00506914 1.1699e-15)
(1.77016 -0.0049949 1.74129e-15)
(1.77277 -0.00492185 6.32597e-16)
(1.77534 -0.00484996 1.36205e-15)
(1.77787 -0.00477921 1.65384e-15)
(1.78036 -0.0047096 2.31553e-15)
(1.78282 -0.0046411 2.69962e-15)
(1.78524 -0.00457369 2.96639e-15)
(1.78762 -0.00450736 3.28832e-15)
(1.78997 -0.0044421 3.73447e-15)
(1.79229 -0.00437789 3.86448e-15)
(1.79457 -0.00431472 4.1147e-15)
(1.79682 -0.00425257 4.10699e-15)
(1.79903 -0.00419144 4.29754e-15)
(1.80121 -0.00413131 4.51814e-15)
(1.80336 -0.00407218 4.65267e-15)
(1.80548 -0.00401403 4.89518e-15)
(1.80757 -0.00395688 5.14749e-15)
(1.80963 -0.00390071 5.39399e-15)
(1.81166 -0.00384551 5.57096e-15)
(1.81366 -0.00379131 5.64965e-15)
(1.81563 -0.0037381 5.6884e-15)
(1.81758 -0.00368589 5.75502e-15)
(1.81949 -0.00363471 6.06878e-15)
(1.60348 -0.0122251 -9.70161e-15)
(1.60845 -0.0120276 -9.46435e-15)
(1.61333 -0.011834 -8.73265e-15)
(1.61812 -0.0116442 -8.65123e-15)
(1.62283 -0.0114579 -8.25052e-15)
(1.62746 -0.0112753 -7.95583e-15)
(1.63201 -0.011096 -7.34889e-15)
(1.63649 -0.0109201 -7.23993e-15)
(1.64088 -0.0107474 -6.569e-15)
(1.6452 -0.0105779 -6.39485e-15)
(1.64945 -0.0104114 -6.04206e-15)
(1.65363 -0.010248 -6.10531e-15)
(1.65773 -0.0100875 -5.78346e-15)
(1.66177 -0.00992981 -5.89455e-15)
(1.66574 -0.00977493 -4.41767e-15)
(1.66964 -0.00962278 -4.64411e-15)
(1.67348 -0.0094733 -4.90408e-15)
(1.67725 -0.00932643 -5.05171e-15)
(1.68097 -0.00918212 -5.41813e-15)
(1.68462 -0.0090403 -5.61017e-15)
(1.68821 -0.00890093 -5.7245e-15)
(1.69175 -0.00876396 -5.95821e-15)
(1.69522 -0.00862934 -6.21696e-15)
(1.69864 -0.00849701 -6.22525e-15)
(1.70201 -0.00836695 -6.33753e-15)
(1.70532 -0.0082391 -6.57041e-15)
(1.70858 -0.00811341 -6.588e-15)
(1.71178 -0.00798986 -6.28004e-15)
(1.71494 -0.00786838 -6.19365e-15)
(1.71804 -0.00774896 -5.92321e-15)
(1.72109 -0.00763154 -5.75013e-15)
(1.7241 -0.0075161 -5.26895e-15)
(1.72706 -0.00740258 -5.33704e-15)
(1.72997 -0.00729096 -4.97879e-15)
(1.73284 -0.00718121 -4.45959e-15)
(1.73566 -0.00707328 -3.69174e-15)
(1.73844 -0.00696715 -3.27731e-15)
(1.74117 -0.00686277 -2.72717e-15)
(1.74387 -0.00676013 -2.31893e-15)
(1.74652 -0.00665918 -1.71687e-15)
(1.74913 -0.0065599 -1.52303e-15)
(1.7517 -0.00646226 -9.8708e-16)
(1.75423 -0.00636622 -7.9049e-16)
(1.75672 -0.00627177 -2.01522e-16)
(1.75917 -0.00617886 1.56734e-16)
(1.76158 -0.00608748 2.48379e-17)
(1.76396 -0.0059976 3.68857e-16)
(1.76631 -0.0059092 4.79255e-16)
(1.76861 -0.00582224 9.79172e-16)
(1.77088 -0.00573671 1.14936e-15)
(1.77312 -0.00565259 1.59044e-15)
(1.77533 -0.00556984 1.88608e-15)
(1.7775 -0.00548845 2.23673e-15)
(1.77964 -0.00540841 2.49279e-15)
(1.78174 -0.00532969 2.68641e-15)
(1.78382 -0.00525227 2.7063e-15)
(1.78586 -0.00517615 3.17548e-15)
(1.78788 -0.0051013 3.25376e-15)
(1.78986 -0.00502771 3.37464e-15)
(1.79182 -0.00495539 3.34535e-15)
(1.79374 -0.00488431 3.68359e-15)
(1.79564 -0.00481447 3.76856e-15)
(1.79751 -0.00474588 4.25886e-15)
(1.79936 -0.00467854 3.99933e-15)
(1.80118 -0.00461244 4.33301e-15)
(1.80297 -0.00454762 4.34273e-15)
(1.80473 -0.00448408 4.83202e-15)
(1.60133 -0.0144997 -6.93727e-15)
(1.60598 -0.0142562 -6.80262e-15)
(1.61054 -0.0140178 -6.87943e-15)
(1.61502 -0.0137843 -6.7227e-15)
(1.61941 -0.0135556 -6.9752e-15)
(1.62372 -0.0133316 -5.60304e-15)
(1.62796 -0.0131121 -5.78131e-15)
(1.63211 -0.0128969 -5.53563e-15)
(1.63619 -0.012686 -5.89876e-15)
)
;

boundaryField
{
    inlet
    {
        type            uniformFixedValue;
        uniformValue    constant (1 0 0);
        value           nonuniform 0();
    }
    outlet
    {
        type            pressureInletOutletVelocity;
        value           nonuniform 0();
    }
    wall
    {
        type            fixedValue;
        value           nonuniform 0();
    }
    wedge1
    {
        type            wedge;
    }
    wedge2
    {
        type            wedge;
    }
    axis
    {
        type            empty;
    }
    procBoundary1to0
    {
        type            processor;
        value           nonuniform List<vector> 5((1.59871 -0.00192391 -5.92614e-15) (1.59886 -0.00447425 -1.3642e-14) (1.59906 -0.00722084 -1.24e-14) (1.59906 -0.00989652 -1.29664e-14) (1.59843 -0.0124266 -9.49456e-15));
    }
    procBoundary1to2
    {
        type            processor;
        value           nonuniform List<vector> 5((1.84215 -0.000715094 -9.38689e-16) (1.83905 -0.00165745 -2.02098e-15) (1.83214 -0.00265126 2.71238e-15) (1.82138 -0.00358456 5.92481e-15) (1.80647 -0.00442184 4.70557e-15));
    }
    procBoundary1to6
    {
        type            processor;
        value           uniform (1.59659 -0.0147485 -6.87228e-15);
    }
    procBoundary1to7
    {
        type            processor;
        value           nonuniform List<vector> 
68
(
(1.6402 -0.0124792 -4.6165e-15)
(1.64413 -0.0122764 -4.93403e-15)
(1.64799 -0.0120775 -4.80176e-15)
(1.65179 -0.0118824 -5.0481e-15)
(1.65551 -0.0116911 -4.12171e-15)
(1.65917 -0.0115033 -3.85977e-15)
(1.66277 -0.0113191 -3.84587e-15)
(1.6663 -0.0111383 -3.77455e-15)
(1.66978 -0.0109608 -3.77884e-15)
(1.67319 -0.0107867 -3.88894e-15)
(1.67654 -0.0106157 -3.93573e-15)
(1.67984 -0.0104479 -4.06995e-15)
(1.68308 -0.0102831 -4.13644e-15)
(1.68626 -0.0101213 -4.2894e-15)
(1.68939 -0.00996245 -4.32352e-15)
(1.69247 -0.00980644 -4.37516e-15)
(1.69549 -0.00965324 -4.64622e-15)
(1.69847 -0.00950277 -4.51668e-15)
(1.70139 -0.00935498 -4.77155e-15)
(1.70427 -0.00920981 -4.66441e-15)
(1.7071 -0.00906721 -4.96025e-15)
(1.70988 -0.00892713 -3.6716e-15)
(1.71262 -0.0087895 -3.8921e-15)
(1.71531 -0.00865429 -4.07202e-15)
(1.71796 -0.00852144 -3.08732e-15)
(1.72056 -0.0083909 -3.36468e-15)
(1.72312 -0.00826263 -2.35097e-15)
(1.72564 -0.00813658 -2.65096e-15)
(1.72812 -0.0080127 -1.64036e-15)
(1.73057 -0.00789097 -1.98527e-15)
(1.73297 -0.00777132 -1.00143e-15)
(1.73533 -0.00765372 -1.36735e-15)
(1.73766 -0.00753814 -4.53499e-16)
(1.73995 -0.00742452 -7.55978e-16)
(1.7422 -0.00731284 8.85151e-17)
(1.74442 -0.00720306 -1.14442e-16)
(1.7466 -0.00709514 -2.64708e-16)
(1.74875 -0.00698905 7.61591e-16)
(1.75086 -0.00688476 4.13299e-16)
(1.75295 -0.00678222 1.28876e-15)
(1.755 -0.00668142 9.60284e-16)
(1.75702 -0.00658232 1.78961e-15)
(1.759 -0.00648489 1.41281e-15)
(1.76096 -0.00638911 2.30016e-15)
(1.76289 -0.00629495 1.87479e-15)
(1.76479 -0.00620239 2.59529e-15)
(1.76665 -0.0061114 2.27206e-15)
(1.7685 -0.00602196 3.11861e-15)
(1.77031 -0.00593406 2.7077e-15)
(1.77209 -0.00584768 3.37435e-15)
(1.77385 -0.00576281 2.85013e-15)
(1.77558 -0.00567943 3.5883e-15)
(1.77729 -0.00559755 3.13648e-15)
(1.77897 -0.00551715 3.88063e-15)
(1.78063 -0.00543823 3.32359e-15)
(1.78226 -0.00536082 4.01619e-15)
(1.78387 -0.00528491 3.73785e-15)
(1.78546 -0.00521054 4.41553e-15)
(1.59714 -0.0165028 -5.2562e-15)
(1.6014 -0.0162134 -5.00115e-15)
(1.60557 -0.0159306 -6.09763e-15)
(1.60965 -0.0156541 -4.79609e-15)
(1.61365 -0.0153837 -5.9608e-15)
(1.61758 -0.0151192 -4.4635e-15)
(1.62142 -0.0148603 -5.41696e-15)
(1.62519 -0.0146071 -4.07181e-15)
(1.6402 -0.0124792 -4.6165e-15)
(1.62889 -0.0143591 -5.27005e-15)
)
;
    }
}


// ************************************************************************* //
