/*--------------------------------*- C++ -*----------------------------------*\
  =========                 |
  \\      /  F ield         | OpenFOAM: The Open Source CFD Toolbox
   \\    /   O peration     | Website:  https://openfoam.org
    \\  /    A nd           | Version:  7
     \\/     M anipulation  |
\*---------------------------------------------------------------------------*/
FoamFile
{
    version     2.0;
    format      ascii;
    class       volScalarField;
    location    "5.4";
    object      p;
}
// * * * * * * * * * * * * * * * * * * * * * * * * * * * * * * * * * * * * * //

dimensions      [0 2 -2 0 0 0 0];

internalField   nonuniform List<scalar> 
346
(
0.0179252
0.0297088
0.0411029
0.0521168
0.0627594
0.0730398
0.0829668
0.0925492
0.101795
0.110714
0.119313
0.127601
0.135585
0.143273
0.150673
0.157792
-0.912453
-0.920282
-0.919035
-0.915044
-0.906766
-0.895214
-0.880759
-0.863875
-0.844951
-0.824334
-0.802325
-0.779188
-0.755155
-0.730427
-0.705183
-0.679575
-0.65374
-0.627796
-0.601844
-0.575973
-0.55026
-0.524771
-0.499563
-0.474682
-0.450171
-0.426064
-0.402387
-0.379166
-0.356418
-0.334158
-0.312397
-0.291144
-0.270404
-0.25018
-0.230473
-0.211283
-0.192607
-0.174442
-0.156784
-0.139626
-0.122962
-0.106785
-0.0910876
-0.0758616
-0.0610984
-0.0467893
-0.0329253
-0.0194972
-0.0064958
0.00608827
0.0182643
0.0300417
0.0414296
0.0524373
0.0630739
0.0733483
0.0832694
0.0928459
0.102086
0.110999
0.119593
0.127875
0.135854
0.143537
0.150931
0.158045
-0.913568
-0.920906
-0.92001
-0.916139
-0.907856
-0.896184
-0.88156
-0.864496
-0.845403
-0.824636
-0.802497
-0.779251
-0.755124
-0.730318
-0.705006
-0.679342
-0.65346
-0.627475
-0.601489
-0.57559
-0.549853
-0.524345
-0.49912
-0.474227
-0.449705
-0.42559
-0.401907
-0.378682
-0.355931
-0.33367
-0.31191
-0.290658
-0.26992
-0.249699
-0.229996
-0.21081
-0.19214
-0.17398
-0.156327
-0.139175
-0.122518
-0.106347
-0.0906568
-0.0754377
-0.0606815
-0.0463795
-0.0325226
-0.0191017
-0.00610739
0.00646954
0.0186385
0.0304088
0.0417897
0.0527904
0.0634201
0.0736877
0.0836021
0.093172
0.102406
0.111313
0.1199
0.128176
0.136148
0.143825
0.151214
0.158322
-0.914855
-0.922009
-0.921548
-0.917779
-0.909431
-0.897565
-0.882702
-0.865399
-0.846086
-0.825126
-0.802823
-0.779435
-0.755189
-0.730282
-0.704884
-0.679147
-0.653203
-0.627165
-0.601135
-0.575198
-0.54943
-0.523895
-0.498648
-0.473737
-0.449201
-0.425074
-0.401383
-0.378151
-0.355396
-0.333133
-0.311372
-0.29012
-0.269384
-0.249166
-0.229467
-0.210286
-0.19162
-0.173466
-0.15582
-0.138674
-0.122024
-0.105861
-0.0901779
-0.0749665
-0.0602182
-0.0459242
-0.0320754
-0.0186625
-0.00567637
0.00689246
0.0190533
0.0308156
0.0421885
0.0531814
0.0638033
0.0740632
0.08397
0.0935324
0.102759
0.111658
0.120238
0.128507
0.136473
0.144144
0.151526
0.158627
-0.916079
-0.923707
-0.923855
-0.920178
-0.911678
-0.899507
-0.884306
-0.866677
-0.847073
-0.82586
-0.803339
-0.779768
-0.755365
-0.730323
-0.704812
-0.678978
-0.65295
-0.626842
-0.600751
-0.574763
-0.548952
-0.523381
-0.498104
-0.473168
-0.448612
-0.424469
-0.400765
-0.377524
-0.354763
-0.332495
-0.310732
-0.28948
-0.268745
-0.24853
-0.228835
-0.209659
-0.190999
-0.172852
-0.155213
-0.138075
-0.121433
-0.105279
-0.0896053
-0.0744033
-0.0596645
-0.0453802
-0.0315412
-0.0181382
-0.00516193
0.00739702
0.019548
0.0313005
0.0426637
0.053647
0.0642593
0.0745098
0.0844074
0.0939607
0.103178
0.112069
0.12064
0.128901
0.136858
0.14452
0.151895
0.158988
-0.917018
-0.926058
-0.927009
-0.923425
-0.914662
-0.902062
-0.886408
-0.868357
-0.848382
-0.826849
-0.804056
-0.780252
-0.755651
-0.730441
-0.704784
-0.678826
-0.652692
-0.626493
-0.600325
-0.574271
-0.548404
-0.522786
-0.49747
-0.472501
-0.447919
-0.423754
-0.400034
-0.37678
-0.354009
-0.331735
-0.309969
-0.288716
-0.267982
-0.24777
-0.228079
-0.208909
-0.190256
-0.172117
-0.154487
-0.137359
-0.120727
-0.104583
-0.0889204
-0.0737297
-0.0590025
-0.04473
-0.0309028
-0.0175118
-0.00454752
0.00799944
0.0201385
0.0318791
0.0432306
0.0542021
0.0648029
0.075042
0.0849284
0.0944706
0.103677
0.112557
0.121118
0.129368
0.137316
0.144968
0.152333
0.159417
)
;

boundaryField
{
    inlet
    {
        type            zeroGradient;
    }
    outlet
    {
        type            fixedValue;
        value           nonuniform 0();
    }
    wall
    {
        type            zeroGradient;
    }
    wedge1
    {
        type            wedge;
    }
    wedge2
    {
        type            wedge;
    }
    axis
    {
        type            empty;
    }
    procBoundary45to39
    {
        type            processor;
        value           nonuniform List<scalar> 
67
(
0.0176227
0.0294117
0.0408112
0.0518303
0.0624782
0.0727638
0.0826959
0.0922834
0.101535
0.110458
0.119062
0.127354
0.135343
0.143036
0.15044
0.157564
-0.911737
-0.920191
-0.91863
-0.914489
-0.906158
-0.894656
-0.880303
-0.863539
-0.844734
-0.824224
-0.802308
-0.779251
-0.755285
-0.730614
-0.705417
-0.67985
-0.654049
-0.628132
-0.602204
-0.576353
-0.550656
-0.525181
-0.499983
-0.475111
-0.450606
-0.426503
-0.40283
-0.379611
-0.356863
-0.334603
-0.312841
-0.291586
-0.270843
-0.250616
-0.230905
-0.211711
-0.19303
-0.17486
-0.157196
-0.140033
-0.123363
-0.10718
-0.091477
-0.0762448
-0.0614754
-0.0471601
-0.0332897
-0.0198553
-0.00684753
0.00574286
0.00574286
)
;
    }
    procBoundary45to40
    {
        type            processor;
        value           uniform 0.164637;
    }
    procBoundary45to46
    {
        type            processor;
        value           nonuniform List<scalar> 5(0.164885 0.165157 0.165456 0.165809 0.166228);
    }
}


// ************************************************************************* //
