/*--------------------------------*- C++ -*----------------------------------*\
  =========                 |
  \\      /  F ield         | OpenFOAM: The Open Source CFD Toolbox
   \\    /   O peration     | Website:  https://openfoam.org
    \\  /    A nd           | Version:  7
     \\/     M anipulation  |
\*---------------------------------------------------------------------------*/
FoamFile
{
    version     2.0;
    format      ascii;
    class       volVectorField;
    location    "11";
    object      U;
}
// * * * * * * * * * * * * * * * * * * * * * * * * * * * * * * * * * * * * * //

dimensions      [0 1 -1 0 0 0 0];

internalField   nonuniform List<vector> 
433
(
(0.211335 0.0284726 -2.78994e-18)
(0.244723 0.0172108 -3.31735e-18)
(0.278096 0.00943342 1.92358e-18)
(0.311654 0.00437905 -2.44107e-18)
(0.345734 0.00145523 1.85399e-18)
(0.184201 -0.0131897 2.83662e-18)
(0.226297 -0.0114212 8.88558e-19)
(0.266186 -0.00880667 4.18806e-18)
(0.304451 -0.00581997 -3.19395e-18)
(0.341821 -0.00277993 5.16885e-18)
(0.37896 0.00019922 -5.67515e-18)
(0.41641 0.00316598 2.37707e-18)
(0.454549 0.00622397 2.51925e-18)
(0.493621 0.00948588 -3.41816e-18)
(0.533762 0.0130479 2.04943e-18)
(0.278934 -0.0642348 -5.83507e-19)
(0.29012 -0.0423282 -1.75593e-19)
(0.308681 -0.0256954 5.3257e-19)
(0.3323 -0.0131549 -3.73616e-18)
(0.359766 -0.0036681 4.33486e-18)
(0.390343 0.00357459 -7.79532e-18)
(0.423544 0.00929993 9.52381e-18)
(0.459005 0.0141037 -1.41952e-18)
(0.496437 0.0184585 3.35868e-18)
(0.535596 0.0227152 -5.27617e-18)
(0.576269 0.0271198 6.45275e-18)
(0.618254 0.0318269 -7.58023e-18)
(0.66135 0.036917 1.89655e-18)
(0.705339 0.0424105 2.14071e-18)
(0.749974 0.0482879 -3.10303e-19)
(0.388337 0.0143449 -3.35129e-19)
(0.364643 0.0280476 3.34726e-18)
(0.358472 0.0336117 -2.89269e-19)
(0.365041 0.0350939 -1.32666e-18)
(0.380725 0.0350223 -6.77955e-19)
(0.403226 0.034592 4.24218e-18)
(0.430997 0.0344937 -3.20162e-18)
(0.462891 0.0350671 -2.15566e-18)
(0.498053 0.036462 -4.64763e-18)
(0.535824 0.0387243 8.5736e-18)
(0.575684 0.0418455 -3.37003e-18)
(0.617215 0.0457858 -7.43046e-19)
(0.660067 0.0504857 9.85929e-19)
(0.703926 0.0558716 -1.39658e-19)
(0.74849 0.0618568 3.20491e-18)
(0.793449 0.0683486 -2.79333e-18)
(0.838481 0.0752891 6.98758e-19)
(0.883175 0.0823995 -2.50713e-18)
(0.927274 0.0890232 3.56826e-18)
(0.97108 0.0963765 -5.5041e-19)
(0.271281 0.173687 -1.02553e-18)
(0.277016 0.156593 4.33536e-20)
(0.293177 0.134814 1.90358e-18)
(0.316987 0.113455 -2.19617e-18)
(0.34594 0.0956348 7.11027e-19)
(0.378267 0.0818872 -8.21424e-19)
(0.412921 0.0717181 -3.88512e-21)
(0.449517 0.0649144 -2.00517e-18)
(0.48785 0.0610872 1.35808e-18)
(0.527742 0.0597362 1.11964e-18)
(0.569025 0.060426 -1.62442e-18)
(0.611521 0.0627876 -1.05335e-19)
(0.655037 0.0665172 -2.26831e-18)
(0.699363 0.0713672 3.50532e-18)
(0.744268 0.0771325 -5.10712e-18)
(0.789487 0.0836359 4.11449e-18)
(0.834723 0.0907221 -1.23605e-18)
(0.879647 0.0982887 -1.0862e-18)
(0.923843 0.106026 -2.91135e-18)
(0.967056 0.113352 5.795e-18)
(1.00947 0.12131 2.61673e-19)
(0.0457185 0.252817 -3.1357e-18)
(0.0873834 0.210685 1.99014e-18)
(0.14331 0.172543 -1.33733e-18)
(0.203347 0.141339 -1.35867e-18)
(0.261829 0.117785 2.21625e-19)
(0.316755 0.100854 -1.6773e-18)
(0.368181 0.0892589 3.73141e-19)
(0.416806 0.0818561 2.32533e-18)
(0.463531 0.0777533 -2.11336e-18)
(0.50921 0.0762413 1.78837e-18)
(0.554452 0.0767962 -3.18295e-19)
(0.599653 0.079035 -4.15787e-20)
(0.645027 0.0826673 -3.8932e-19)
(0.690645 0.0874662 2.54822e-18)
(0.736468 0.0932454 7.58363e-20)
(0.782366 0.0998413 1.27048e-18)
(0.828133 0.107101 1.42087e-18)
(0.873498 0.114878 -6.14881e-19)
(0.918141 0.123072 -2.64653e-18)
(0.96165 0.131369 3.81314e-18)
(1.00378 0.13927 -2.96715e-18)
(1.0446 0.147656 -2.93324e-18)
(0.188589 0.0524119 -3.13092e-19)
(0.183485 0.0508311 -1.42193e-18)
(0.211916 0.0513292 1.01539e-18)
(0.255309 0.0551767 1.58652e-18)
(0.303447 0.0602827 -2.13232e-18)
(0.352072 0.065568 2.49634e-18)
(0.399913 0.0708013 -1.51811e-18)
(0.446886 0.0758852 -3.67836e-18)
(0.493318 0.0808533 8.81792e-19)
(0.539535 0.0858137 6.95064e-20)
(0.585779 0.0909652 -1.28718e-18)
(0.632165 0.0964771 -1.40575e-18)
(0.678715 0.102478 -3.68422e-19)
(0.72537 0.109036 1.76267e-18)
(0.772003 0.116168 6.88237e-19)
(0.818426 0.123839 1.33974e-19)
(0.864392 0.131977 -2.34744e-18)
(0.909603 0.14048 -6.54291e-19)
(0.953717 0.149265 8.52762e-19)
(0.996318 0.158033 -4.46325e-19)
(1.03716 0.166368 -8.66647e-19)
(1.07622 0.175002 -1.00535e-19)
(0.641865 -0.0762617 7.71263e-19)
(0.491985 -0.0270093 1.53656e-19)
(0.411744 0.0101943 1.40038e-18)
(0.378552 0.037035 -1.5726e-18)
(0.375622 0.0566324 -5.04444e-19)
(0.391194 0.0704955 -4.60137e-19)
(0.417696 0.0803162 4.58588e-18)
(0.451121 0.0878734 -5.35296e-18)
(0.48916 0.0942528 1.77216e-18)
(0.530401 0.100113 -6.75166e-19)
(0.57389 0.105916 3.56307e-18)
(0.618947 0.11195 5.49778e-19)
(0.665045 0.118401 7.13036e-20)
(0.711763 0.125362 8.97399e-19)
(0.758743 0.132865 1.16797e-18)
(0.805661 0.14089 -2.52104e-18)
(0.8522 0.149375 1.94765e-18)
(0.898029 0.158226 -3.29258e-18)
(0.942799 0.167324 3.24252e-18)
(0.986134 0.176575 -5.11948e-19)
(1.02761 0.185673 9.81465e-19)
(1.06696 0.194274 -2.01579e-18)
(1.10412 0.202961 5.19261e-18)
(0.503537 -0.00487208 2.82444e-19)
(0.425567 0.0506229 3.03382e-19)
(0.380239 0.0871171 7.36756e-19)
(0.365278 0.107189 -1.96934e-18)
(0.373255 0.115771 1.84083e-18)
(0.396588 0.119127 -2.35152e-18)
(0.429319 0.120805 6.61906e-19)
(0.467673 0.122036 -3.7534e-19)
(0.509603 0.123902 1.87574e-18)
(0.553885 0.126886 -7.95245e-20)
(0.599735 0.131083 -1.02864e-18)
(0.6466 0.136447 7.77163e-19)
(0.69406 0.142866 -1.77591e-18)
(0.74176 0.150193 4.3871e-18)
(0.789384 0.158278 -4.15167e-18)
(0.836623 0.166965 1.96271e-18)
(0.883165 0.176101 -2.60435e-18)
(0.928676 0.185529 1.34956e-18)
(0.972797 0.195092 -8.29662e-19)
(1.01515 0.204669 1.6445e-18)
(1.05531 0.213941 -1.17565e-18)
(1.09302 0.222626 -1.24297e-18)
(1.12816 0.231172 -1.10192e-18)
(0.21652 0.152963 4.83808e-20)
(0.200801 0.169045 -1.94936e-19)
(0.215649 0.169316 4.48592e-19)
(0.252759 0.162457 -4.49193e-19)
(0.301763 0.153843 -8.25193e-19)
(0.3555 0.147234 1.06895e-18)
(0.410329 0.143639 5.87616e-19)
(0.464449 0.14277 -1.87846e-19)
(0.517364 0.14421 3.10713e-19)
(0.569168 0.147656 -4.64321e-19)
(0.620086 0.152773 4.11168e-19)
(0.670303 0.15924 -8.23792e-19)
(0.719918 0.166788 1.37331e-18)
(0.768932 0.175185 3.74131e-19)
(0.817258 0.184234 -1.32983e-18)
(0.864728 0.193754 1.58695e-19)
(0.911107 0.203575 -1.27089e-18)
(0.956104 0.21353 1.59086e-18)
(0.999381 0.223455 -9.27281e-19)
(1.04057 0.233219 -1.66261e-18)
(1.07927 0.242504 1.93077e-18)
(1.11521 0.251089 6.53319e-19)
(1.14826 0.2593 8.20147e-19)
(0.205757 0.208793 4.48706e-19)
(0.147333 0.183283 -6.12107e-19)
(0.164054 0.159177 3.76874e-19)
(0.217865 0.143248 -3.26323e-19)
(0.284948 0.136327 6.5324e-19)
(0.353357 0.135559 -1.75244e-19)
(0.418487 0.138881 -6.35427e-20)
(0.479416 0.144917 6.02593e-19)
(0.536679 0.1526 -3.56162e-19)
(0.591195 0.161267 -7.90923e-19)
(0.643788 0.170526 1.09359e-19)
(0.695026 0.180172 4.46409e-19)
(0.745228 0.190107 2.50574e-19)
(0.794511 0.200276 -6.37755e-19)
(0.842837 0.210629 -5.8442e-19)
(0.890055 0.221097 6.83265e-19)
(0.935926 0.231587 6.18266e-19)
(0.980148 0.241979 7.00862e-19)
(1.02238 0.25213 -6.23606e-19)
(1.06224 0.261924 5.96857e-19)
(1.09936 0.271052 -3.43439e-19)
(1.13346 0.27935 -5.4178e-19)
(1.1644 0.287044 -1.71994e-19)
(0.870552 0.177336 3.79901e-20)
(0.563458 0.123042 2.51905e-19)
(0.413391 0.0987999 3.57349e-19)
(0.361733 0.0941959 1.5682e-19)
(0.364209 0.101899 -4.94443e-19)
(0.393519 0.114706 2.0267e-19)
(0.434577 0.12889 -1.08094e-19)
(0.480173 0.143161 -9.58132e-20)
(0.527425 0.156884 7.78892e-20)
(0.575371 0.169865 -8.16674e-20)
(0.623739 0.182143 4.52621e-19)
(0.672402 0.193861 -2.24247e-19)
(0.721193 0.205209 1.33338e-19)
(0.769879 0.216352 -6.44749e-20)
(0.818173 0.227405 -3.6964e-19)
(0.865748 0.238415 5.3338e-19)
(0.912256 0.249362 -8.58799e-20)
(0.957324 0.260174 -5.33451e-19)
(1.00057 0.270731 5.99252e-19)
(1.04161 0.280885 -1.87486e-19)
(1.08005 0.290509 9.81433e-20)
(1.11552 0.299293 2.10694e-19)
(1.14776 0.30712 1.51784e-19)
(1.1766 0.31413 -2.84548e-20)
(0.991094 0.116701 6.80385e-20)
(0.733504 0.122797 -3.52373e-20)
(0.57205 0.141676 -1.54907e-19)
(0.487958 0.160413 5.71759e-21)
(0.457765 0.174817 2.75671e-19)
(0.461158 0.185046 -1.77414e-19)
(0.48367 0.192598 1.04284e-19)
(0.516925 0.198936 -2.88571e-20)
(0.55641 0.205146 -2.30738e-20)
(0.599711 0.211837 -3.84153e-20)
(0.645447 0.219304 -5.34992e-19)
(0.692709 0.22762 3.62842e-19)
(0.740795 0.236734 -4.42331e-19)
(0.789114 0.246529 4.02956e-19)
(0.837139 0.256846 4.43233e-19)
(0.884386 0.267501 -3.392e-19)
(0.930407 0.278295 3.60621e-19)
(0.974773 0.289016 -5.54957e-20)
(1.01707 0.299452 -4.84148e-19)
(1.05691 0.309389 -1.24031e-19)
(1.09392 0.318659 2.93875e-19)
(1.12773 0.326931 2.75713e-19)
(1.15812 0.334123 -2.04526e-19)
(1.18495 0.340306 4.07262e-19)
(0.432198 0.136838 1.27818e-19)
(0.372416 0.189278 -1.03689e-20)
(0.351641 0.217771 -1.22331e-19)
(0.36326 0.230393 2.95936e-19)
(0.396099 0.235566 -2.2489e-19)
(0.440603 0.237994 3.93625e-19)
(0.49058 0.239532 2.42092e-19)
(0.542673 0.241648 -9.02199e-19)
(0.595296 0.245188 2.26328e-19)
(0.647762 0.250416 3.0048e-19)
(0.699747 0.257269 -3.78011e-19)
(0.751027 0.26553 2.64657e-19)
(0.801384 0.274906 -9.9425e-19)
(0.850568 0.28508 6.82953e-20)
(0.8983 0.295731 3.7783e-19)
(0.944269 0.306549 1.54983e-19)
(0.988146 0.317243 8.14255e-19)
(1.02959 0.327542 -1.13288e-18)
(1.06827 0.337196 1.74373e-18)
(1.10386 0.346015 -1.7052e-18)
(1.13607 0.353663 -1.49534e-19)
(1.16466 0.360096 1.20254e-18)
(1.18956 0.365347 -5.58372e-19)
(0.212804 0.306703 -5.83825e-19)
(0.163582 0.292455 7.07465e-19)
(0.182993 0.274805 -5.46112e-19)
(0.239192 0.260708 4.73743e-19)
(0.310335 0.251916 1.08173e-18)
(0.384569 0.248477 -1.21311e-18)
(0.456333 0.249377 -2.21384e-19)
(0.523847 0.253479 1.11347e-18)
(0.587151 0.259939 7.6427e-20)
(0.646892 0.26815 6.76374e-19)
(0.703735 0.277657 3.7387e-19)
(0.758158 0.288099 8.49396e-20)
(0.810431 0.299168 -1.7564e-18)
(0.860639 0.310586 -3.70281e-19)
(0.908725 0.32209 9.19827e-19)
(0.95453 0.333425 4.31542e-19)
(0.997828 0.34434 -7.43707e-19)
(1.03836 0.354596 -5.4713e-19)
(1.07585 0.363968 -1.91916e-20)
(1.11002 0.372286 2.21088e-18)
(1.14064 0.379231 -2.82647e-18)
(1.16752 0.384812 1.17171e-18)
(1.19061 0.389057 -2.6731e-19)
(0.382481 0.333684 -3.71488e-19)
(0.245682 0.262842 1.56545e-18)
(0.226295 0.225617 -1.22457e-18)
(0.266724 0.212751 3.5838e-18)
(0.331532 0.214352 -2.64808e-18)
(0.402562 0.223221 2.74656e-18)
(0.47207 0.235768 -1.51635e-18)
(0.537731 0.24992 -4.23165e-19)
(0.599527 0.264583 -1.77561e-18)
(0.658106 0.279225 8.77204e-19)
(0.714093 0.293616 6.0939e-19)
(0.767878 0.307661 -2.52992e-19)
(0.819622 0.321301 2.78653e-18)
(0.869303 0.334485 -3.73974e-18)
(0.916778 0.347129 4.25836e-19)
(0.961828 0.359115 3.46004e-19)
(1.00419 0.37029 3.25658e-18)
(1.04361 0.380482 -1.74663e-18)
(1.07981 0.389517 8.78313e-19)
(1.11255 0.397261 -1.59168e-18)
(1.14164 0.403429 2.17192e-18)
(1.16689 0.408079 -1.92997e-18)
(1.18829 0.411271 4.95136e-19)
(0.655711 0.307724 -7.29723e-19)
(0.470181 0.235092 -5.30128e-19)
(0.399824 0.208573 -1.35098e-18)
(0.394921 0.208067 2.78916e-18)
(0.423603 0.219341 -3.68645e-19)
(0.46748 0.234973 4.77228e-19)
(0.517367 0.251864 -3.84754e-18)
(0.569317 0.268779 6.33593e-18)
(0.621796 0.285248 -1.28359e-18)
(0.674187 0.301156 -2.54767e-19)
(0.726124 0.316502 -3.04239e-18)
(0.77726 0.331305 6.59563e-19)
(0.827211 0.345553 1.06981e-18)
(0.875572 0.359192 -2.08681e-20)
(0.921939 0.372124 1.55539e-18)
(0.965927 0.384213 6.48904e-19)
(1.00718 0.395294 -2.45291e-18)
(0.478855 0.161756 6.2883e-20)
(0.42519 0.194493 4.31571e-19)
(0.418819 0.223255 -8.33284e-20)
(0.441261 0.247339 -1.00678e-18)
(0.479261 0.267655 2.32554e-18)
(0.524968 0.285099 -2.91728e-18)
(0.5744 0.3006 -2.75045e-20)
(1.21489 0.3233 -1.20399e-19)
(1.20613 0.298464 1.23726e-19)
(1.19363 0.272876 -1.19735e-18)
(1.17731 0.246761 1.31495e-18)
(1.15714 0.220379 7.95365e-20)
(1.13315 0.194021 2.15492e-18)
(1.10542 0.168015 5.62932e-19)
(1.07411 0.142713 1.01667e-18)
(1.03941 0.118494 8.26229e-19)
(1.25114 0.331182 5.28956e-20)
(1.247 0.310188 -1.89926e-19)
(1.23955 0.28829 5.64378e-19)
(1.22866 0.265636 6.7348e-19)
(1.21421 0.242406 -1.06898e-18)
(1.19614 0.21881 -3.10361e-20)
(1.17442 0.195092 -9.8812e-19)
(1.14909 0.171522 -1.38295e-18)
(1.12025 0.148403 1.19746e-18)
(1.2738 0.332802 -8.04174e-20)
(1.27371 0.315318 2.24015e-19)
(1.27081 0.296862 3.55235e-19)
(1.2649 0.277512 -6.07147e-19)
(1.25581 0.257376 -9.88563e-19)
(1.24341 0.236586 1.24962e-19)
(1.22759 0.215309 7.68538e-20)
(1.20826 0.19374 1.07353e-19)
(1.18543 0.172109 -2.81275e-18)
(1.28548 0.329013 1.2389e-19)
(1.28862 0.314773 -2.88251e-19)
(1.28949 0.299591 -9.27126e-20)
(1.28787 0.283493 -7.24708e-19)
(1.28357 0.266526 5.18694e-20)
(1.27639 0.248762 -1.19786e-18)
(1.26616 0.230296 1.56903e-18)
(1.25274 0.211257 -1.44936e-18)
(1.23603 0.1918 2.62738e-18)
(1.28896 0.320838 -1.16615e-19)
(1.29443 0.30945 2.03998e-19)
(1.29816 0.29723 5.53892e-19)
(1.29994 0.284168 8.83671e-19)
(1.29958 0.270265 -3.31244e-19)
(1.29686 0.255543 -2.47307e-19)
(1.29158 0.240038 2.11041e-19)
(1.28356 0.223815 2.81478e-18)
(1.27264 0.206962 -1.57643e-18)
(1.28678 0.309548 1.60042e-19)
(1.29371 0.300507 1.23468e-19)
(1.29938 0.290784 -9.04472e-19)
(1.30362 0.28035 -5.51038e-19)
(1.30623 0.269178 -2.6568e-20)
(1.30702 0.257253 9.05319e-19)
(1.30578 0.24457 -5.62064e-19)
(1.30231 0.231143 -8.59319e-19)
(1.29643 0.217004 -8.70905e-19)
(1.30128 0.273045 2.44466e-19)
(1.30593 0.264164 -1.44465e-19)
(1.30924 0.25465 4.73354e-19)
(1.31104 0.244474 -1.34311e-19)
(1.31114 0.233615 -2.83815e-19)
(1.30934 0.222065 1.23327e-18)
(1.21534 0.411589 -1.41503e-18)
(1.22006 0.391464 1.25932e-18)
(1.22169 0.369957 -1.06061e-19)
(1.22003 0.347188 1.07644e-19)
(1.23824 0.403971 4.63682e-19)
(1.24548 0.387616 -6.93771e-19)
(1.25019 0.369987 2.37634e-19)
(1.25214 0.351149 -7.77983e-20)
(1.25008 0.392074 -5.37351e-19)
(1.25921 0.378912 -2.30191e-19)
(1.26635 0.364633 -2.60187e-19)
(1.27128 0.349254 9.23774e-20)
(1.2542 0.376461 6.84121e-19)
(1.26444 0.366011 1.86159e-19)
(1.27318 0.354628 2.8263e-19)
(1.28026 0.342298 -1.20415e-19)
(1.2534 0.35851 -9.26886e-19)
(1.26401 0.350221 -5.70263e-19)
(1.27358 0.341197 -2.15801e-19)
(1.28195 0.331412 1.14637e-19)
(1.24952 0.3396 6.17878e-19)
(1.26 0.332937 9.21706e-19)
(1.26979 0.325729 -1.58215e-19)
(1.27876 0.317944 -1.48878e-19)
(1.24391 0.320533 -2.56001e-19)
)
;

boundaryField
{
    inlet
    {
        type            uniformFixedValue;
        uniformValue    constant (1 0 0);
        value           nonuniform 0();
    }
    outlet
    {
        type            pressureInletOutletVelocity;
        value           nonuniform 0();
    }
    cylinder
    {
        type            fixedValue;
        value           nonuniform 0();
    }
    top
    {
        type            symmetryPlane;
    }
    bottom
    {
        type            symmetryPlane;
    }
    defaultFaces
    {
        type            empty;
    }
    procBoundary26to20
    {
        type            processor;
        value           nonuniform List<vector> 
28
(
(0.236871 0.0159309 3.88605e-20)
(0.177912 0.0439108 3.24812e-19)
(0.177912 0.0439108 3.24812e-19)
(0.140369 -0.0126748 1.26543e-18)
(0.140369 -0.0126748 1.26543e-18)
(0.279025 -0.0920161 1.57546e-18)
(0.279025 -0.0920161 1.57546e-18)
(0.434952 -0.0121115 9.96255e-19)
(0.434952 -0.0121115 9.96255e-19)
(0.276162 0.181422 3.79773e-19)
(0.276162 0.181422 3.79773e-19)
(0.0298421 0.292262 -5.02792e-18)
(0.255616 0.0524275 4.73727e-19)
(0.255616 0.0524275 4.73727e-19)
(0.883623 -0.129562 1.67757e-18)
(0.598833 -0.0785155 1.13981e-18)
(0.261364 0.102874 2.7399e-19)
(0.387947 0.22283 -1.69155e-19)
(0.387947 0.22283 -1.69155e-19)
(1.38942 0.27773 1.19139e-18)
(1.33779 0.151729 -3.44341e-21)
(0.521008 0.0504154 -1.55779e-19)
(0.521008 0.0504154 -1.55779e-19)
(0.367068 0.298024 -9.52217e-20)
(0.712511 0.444769 4.23556e-18)
(1.0205 0.457288 -2.65328e-18)
(0.598789 0.133212 -1.71132e-19)
(0.598789 0.133212 -1.71132e-19)
)
;
    }
    procBoundary26to25
    {
        type            processor;
        value           nonuniform List<vector> 
23
(
(1.04539 0.405189 1.62426e-18)
(1.08027 0.413724 -4.03494e-18)
(1.11161 0.42078 2.0351e-19)
(1.13923 0.426084 -9.97109e-19)
(1.16297 0.429738 5.23662e-18)
(0.625539 0.315084 1.63511e-18)
(0.677267 0.329136 -2.57594e-19)
(0.728862 0.343034 7.88784e-19)
(0.779744 0.35684 5.29971e-19)
(0.829391 0.370464 1.10312e-18)
(0.877318 0.383726 9.74802e-19)
(0.923081 0.396397 -3.11861e-18)
(0.966283 0.40823 -1.10682e-18)
(1.04539 0.405189 1.62426e-18)
(1.00658 0.418979 -2.34577e-18)
(0.308155 0.207866 -1.04676e-20)
(0.303079 0.238145 -9.00393e-19)
(0.331727 0.260038 1.1362e-18)
(0.379098 0.278044 1.45746e-18)
(0.435071 0.294284 -9.20863e-19)
(0.493986 0.309318 1.32353e-18)
(0.625539 0.315084 1.63511e-18)
(0.553121 0.323351 9.03106e-19)
)
;
    }
    procBoundary26to27
    {
        type            processor;
        value           nonuniform List<vector> 
17
(
(0.251332 0.00953626 -2.62267e-18)
(0.270836 0.00397912 -6.1547e-20)
(0.294269 -0.00038612 6.1735e-18)
(0.32094 -0.00343709 -5.58052e-18)
(0.380641 0.000191823 -4.62544e-18)
(0.380641 0.000191823 -4.62544e-18)
(0.416603 0.000230761 3.50398e-18)
(0.453773 0.00131016 -3.14502e-18)
(0.492237 0.00323963 6.83939e-18)
(0.575017 0.0169756 4.31093e-18)
(0.575017 0.0169756 4.31093e-18)
(0.617358 0.0212989 -1.39088e-18)
(0.660693 0.0260119 3.472e-18)
(0.704869 0.0310835 -1.74692e-18)
(0.794991 0.0545417 -1.97838e-18)
(0.794991 0.0545417 -1.97838e-18)
(0.840014 0.0609279 3.24726e-18)
)
;
    }
    procBoundary26to31
    {
        type            processor;
        value           nonuniform List<vector> 8((1.18284 0.43185 -5.03407e-19) (1.20775 0.430235 -1.0433e-19) (1.22867 0.419001 1.06286e-18) (1.23917 0.404113 1.15827e-18) (1.24265 0.385997 -3.82039e-20) (1.24189 0.366091 4.59921e-19) (1.23845 0.345749 2.10335e-20) (1.2335 0.325625 8.11191e-20));
    }
    procBoundary26to32
    {
        type            processor;
        value           nonuniform List<vector> 
15
(
(1.28098 0.296248 1.16566e-19)
(1.28866 0.289049 3.448e-19)
(1.29547 0.281327 -7.57991e-19)
(1.29547 0.281327 -7.57991e-19)
(1.29497 0.263279 -7.40854e-20)
(1.30085 0.25623 -5.66191e-19)
(1.30581 0.248687 7.05612e-19)
(1.3097 0.240609 1.29887e-18)
(1.31236 0.23196 1.20214e-18)
(1.31363 0.222707 1.58441e-18)
(1.25394 0.315076 7.81724e-19)
(1.26352 0.309228 -3.07054e-19)
(1.27256 0.302963 -1.59146e-19)
(1.25394 0.315076 7.81724e-19)
(1.23738 0.301822 1.12134e-19)
)
;
    }
    procBoundary26to33
    {
        type            processor;
        value           nonuniform List<vector> 9((0.884798 0.0667131 4.79882e-18) (0.929793 0.0732848 3.96847e-19) (1.00162 0.0957492 2.0057e-18) (1.08805 0.126057 -6.49432e-19) (1.15913 0.150673 -2.19601e-18) (1.21596 0.172118 2.95958e-18) (1.25867 0.189601 -1.91809e-18) (1.28796 0.202209 -2.13575e-18) (1.30546 0.209832 8.78826e-19));
    }
}


// ************************************************************************* //
