/*--------------------------------*- C++ -*----------------------------------*\
  =========                 |
  \\      /  F ield         | OpenFOAM: The Open Source CFD Toolbox
   \\    /   O peration     | Website:  https://openfoam.org
    \\  /    A nd           | Version:  7
     \\/     M anipulation  |
\*---------------------------------------------------------------------------*/
FoamFile
{
    version     2.0;
    format      ascii;
    class       volScalarField;
    location    "5.6";
    object      p;
}
// * * * * * * * * * * * * * * * * * * * * * * * * * * * * * * * * * * * * * //

dimensions      [0 2 -2 0 0 0 0];

internalField   nonuniform List<scalar> 
344
(
0.243713
0.241567
0.239361
0.237093
0.234767
0.232382
0.229939
0.227441
0.224887
0.222278
0.219616
0.216902
0.214136
0.211319
0.208452
0.205536
0.202571
0.19956
0.196501
0.193397
0.190247
0.187053
0.183815
0.180534
0.177211
0.173846
0.17044
0.166994
0.163508
0.159983
0.156419
0.152817
0.149178
0.145502
0.14179
0.138042
0.134259
0.130441
0.126589
0.122703
0.118784
0.114832
0.110848
0.106832
0.102785
0.0987062
0.0945967
0.0904569
0.0862868
0.0820869
0.0778573
0.0735981
0.0693095
0.0649915
0.0606439
0.0562665
0.0518591
0.0474208
0.0429519
0.0384488
0.0339162
0.0293394
0.0247465
0.020068
0.0154555
0.0105674
0.00619749
0.000716284
0.243725
0.241579
0.239372
0.237105
0.234778
0.232393
0.22995
0.227451
0.224897
0.222288
0.219626
0.216911
0.214145
0.211328
0.208461
0.205545
0.20258
0.199568
0.19651
0.193405
0.190255
0.187061
0.183823
0.180542
0.177219
0.173854
0.170448
0.167001
0.163515
0.15999
0.156426
0.152824
0.149185
0.145509
0.141797
0.138049
0.134265
0.130448
0.126595
0.12271
0.118791
0.114839
0.110855
0.106839
0.102791
0.0987126
0.0946032
0.0904634
0.0862934
0.0820935
0.077864
0.0736049
0.0693165
0.0649986
0.0606513
0.0562742
0.0518672
0.0474294
0.0429609
0.0384589
0.0339265
0.0293523
0.0247567
0.0200871
0.0154563
0.0106035
0.00613973
0.00084906
0.243749
0.241603
0.239395
0.237127
0.234799
0.232413
0.22997
0.22747
0.224916
0.222306
0.219644
0.216929
0.214162
0.211344
0.208477
0.20556
0.202595
0.199583
0.196524
0.193419
0.190269
0.187075
0.183836
0.180555
0.177231
0.173866
0.17046
0.167013
0.163527
0.160001
0.156437
0.152835
0.149196
0.145519
0.141807
0.138059
0.134276
0.130457
0.126605
0.122719
0.1188
0.114848
0.110864
0.106848
0.102801
0.0987221
0.0946127
0.0904729
0.0863029
0.0821032
0.0778739
0.0736151
0.0693269
0.0650095
0.0606627
0.0562863
0.0518801
0.0474434
0.0429761
0.0384758
0.033945
0.0293737
0.0247791
0.0201153
0.0154804
0.0106447
0.00615643
0.000937097
0.243784
0.241637
0.239428
0.237159
0.23483
0.232443
0.229999
0.227499
0.224943
0.222333
0.21967
0.216954
0.214186
0.211368
0.2085
0.205583
0.202617
0.199605
0.196545
0.19344
0.190289
0.187094
0.183856
0.180574
0.17725
0.173884
0.170478
0.16703
0.163544
0.160018
0.156453
0.152851
0.149211
0.145535
0.141822
0.138074
0.13429
0.130472
0.12662
0.122734
0.118814
0.114862
0.110878
0.106862
0.102814
0.0987358
0.0946264
0.0904867
0.0863169
0.0821174
0.0778883
0.0736298
0.0693422
0.0650253
0.0606793
0.0563039
0.051899
0.0474638
0.0429984
0.0385005
0.0339722
0.0294048
0.0248131
0.0201563
0.0155217
0.0107029
0.00619989
0.00101953
0.24383
0.241681
0.239471
0.2372
0.234871
0.232483
0.230037
0.227536
0.224979
0.222368
0.219704
0.216987
0.214219
0.211399
0.208531
0.205613
0.202646
0.199633
0.196573
0.193467
0.190315
0.18712
0.183881
0.180598
0.177274
0.173908
0.1705
0.167053
0.163566
0.160039
0.156475
0.152872
0.149232
0.145555
0.141842
0.138093
0.13431
0.130491
0.126638
0.122752
0.118833
0.114881
0.110896
0.10688
0.102832
0.0987536
0.0946442
0.0905046
0.0863349
0.0821356
0.0779068
0.0736488
0.0693617
0.0650457
0.0607006
0.0563264
0.0519231
0.0474899
0.0430268
0.0385321
0.0340071
0.0294447
0.024857
0.020209
0.0155764
0.0107766
0.00625788
0.00111575
0.243884
0.241734
0.239522
0.23725
)
;

boundaryField
{
    inlet
    {
        type            zeroGradient;
    }
    outlet
    {
        type            fixedValue;
        value           uniform 0;
    }
    wall
    {
        type            zeroGradient;
    }
    wedge1
    {
        type            wedge;
    }
    wedge2
    {
        type            wedge;
    }
    axis
    {
        type            empty;
    }
    procBoundary5to4
    {
        type            processor;
        value           nonuniform List<scalar> 5(0.245795 0.245808 0.245832 0.245869 0.245916);
    }
    procBoundary5to10
    {
        type            processor;
        value           uniform 0.245972;
    }
    procBoundary5to11
    {
        type            processor;
        value           nonuniform List<scalar> 
69
(
0.234919
0.23253
0.230083
0.22758
0.225022
0.22241
0.219744
0.217026
0.214257
0.211437
0.208567
0.205648
0.202681
0.199666
0.196605
0.193499
0.190347
0.18715
0.18391
0.180627
0.177302
0.173935
0.170528
0.16708
0.163592
0.160065
0.1565
0.152897
0.149256
0.145579
0.141866
0.138117
0.134332
0.130514
0.126661
0.122774
0.118855
0.114902
0.110918
0.106901
0.102853
0.0987747
0.0946653
0.0905257
0.0863562
0.0821571
0.0779287
0.0736712
0.0693848
0.0650696
0.0607256
0.0563529
0.0519513
0.0475205
0.0430602
0.0385691
0.0340482
0.0294915
0.0249089
0.0202712
0.0156416
0.0108634
0.00632811
0.00122905
0.243946
0.241794
0.23958
0.234919
0.237306
)
;
    }
}


// ************************************************************************* //
