/*--------------------------------*- C++ -*----------------------------------*\
  =========                 |
  \\      /  F ield         | OpenFOAM: The Open Source CFD Toolbox
   \\    /   O peration     | Website:  https://openfoam.org
    \\  /    A nd           | Version:  7
     \\/     M anipulation  |
\*---------------------------------------------------------------------------*/
FoamFile
{
    version     2.0;
    format      ascii;
    class       surfaceScalarField;
    location    "8";
    object      phi;
}
// * * * * * * * * * * * * * * * * * * * * * * * * * * * * * * * * * * * * * //

dimensions      [0 3 -1 0 0 0 0];

internalField   nonuniform List<scalar> 
822
(
0.00134836
-0.00247165
0.00138405
-0.00255222
0.00142661
-0.00259044
0.00147676
-0.00258134
0.0015351
-0.00252182
-0.00241118
0.00138309
0.00141633
-0.00258546
0.00145658
-0.00263069
0.0015045
-0.00262926
0.00156065
-0.00257797
0.00162545
-0.00247597
0.00169912
-0.00232581
0.00178161
-0.00213336
0.00187256
-0.00190964
0.00197121
-0.00166832
0.00207659
-0.00143
0.00218729
-0.00121178
0.00230209
-0.00104188
0.00241917
-0.000926145
0.00253779
-0.000899663
0.00265565
-0.000926076
0.00277347
-0.00106666
0.00288744
-0.00118173
0.00300122
-0.00144463
0.00310672
-0.00148609
0.00321417
-0.00179829
-0.00164484
0.00359114
-0.00260053
0.00360953
-0.00264909
0.00363357
-0.0026533
0.00366579
-0.00261019
0.00370884
-0.00251902
0.0037652
-0.00238217
0.00383704
-0.0022052
0.00392584
-0.00199844
0.00403224
-0.00177472
0.00415565
-0.00155341
0.00429453
-0.00135066
0.00444584
-0.00119319
0.00460611
-0.00108641
0.00477049
-0.00106405
0.00493491
-0.0010905
0.00509424
-0.00122599
0.00524555
-0.00133304
0.00538518
-0.00158426
0.00551168
-0.00161258
0.00562551
-0.00191212
-0.00173964
0.00402429
-0.00260375
0.00403082
-0.00265561
0.00404293
-0.00266541
0.00406317
-0.00263043
0.0040942
-0.00255004
0.00413856
-0.00242653
0.00419853
-0.00226517
0.00427567
-0.00207558
0.00437079
-0.00186984
0.00448339
-0.00166601
0.00461205
-0.00147932
0.00475367
-0.00133482
0.00490489
-0.00123763
0.00506048
-0.00121964
0.00521676
-0.00124678
0.00536765
-0.00137688
0.00551161
-0.001477
0.00564277
-0.00171542
0.00576337
-0.00173318
0.00586875
-0.0020175
-0.00183011
0.00449818
-0.00259368
0.00449146
-0.00264889
0.00449034
-0.00266429
0.00449733
-0.00263742
0.00451509
-0.0025678
0.0045462
-0.00245764
0.00459297
-0.00231194
0.00465709
-0.0021397
0.00473946
-0.0019522
0.0048397
-0.00176625
0.00495647
-0.0015961
0.0050867
-0.00146505
0.00522704
-0.00137797
0.00537213
-0.00136472
0.00551833
-0.00139298
0.00565927
-0.00151781
0.00579388
-0.00161161
0.00591553
-0.00183708
0.00602808
-0.00184573
0.00612484
-0.00211427
-0.00191459
0.00501068
-0.0025691
0.00498958
-0.00262779
0.00497416
-0.00264887
0.00496688
-0.00263014
0.00497036
-0.00257128
0.00498719
-0.00247447
0.00501969
-0.00234445
0.00506961
-0.00218962
0.00513794
-0.00202053
0.0052244
-0.00185271
0.00532774
-0.00169944
0.00544494
-0.00158225
0.00557268
-0.0015057
0.00570551
-0.00149756
0.00583989
-0.00152736
0.00596918
-0.0016471
0.00609281
-0.00173524
0.00620347
-0.00194774
0.00630656
-0.00194883
0.00639351
-0.00220122
-0.0019921
0.00555848
-0.00252913
0.00552219
-0.0025915
0.00549171
-0.00261839
0.00546943
-0.00260787
0.00545792
-0.00255977
0.00545971
-0.00247626
0.00547712
-0.00236186
0.00551191
-0.00222441
0.00556513
-0.00207375
0.0056366
-0.00192417
0.00572514
-0.00178798
0.00582782
-0.00168493
0.00594137
-0.00161925
0.00606034
-0.00161652
0.00618125
-0.00164827
0.00629732
-0.00176317
0.00640842
-0.00184634
0.0065067
-0.00204602
0.00659902
-0.00204114
0.00667503
-0.00227723
-0.00206169
0.00613715
-0.00247331
0.00608524
-0.00253959
0.00603931
-0.00257245
0.00600165
-0.00257022
0.00597476
-0.00253288
0.00596107
-0.00246257
0.00596287
-0.00236365
0.00598189
-0.00224343
0.00601922
-0.00211108
0.00607473
-0.00197968
0.00614736
-0.00186061
0.00623425
-0.00177183
0.00633223
-0.00171723
0.00643589
-0.00172018
0.00654187
-0.00175426
0.00664331
-0.00186461
0.00674051
-0.00194354
0.00682517
-0.00213068
0.0069055
-0.00212147
0.00696956
-0.00234129
-0.00212244
0.00674109
-0.00240169
0.00667361
-0.00247211
0.00661226
-0.0025111
0.00655926
-0.00251721
0.00651696
-0.00249058
0.00648773
-0.00243334
0.00647374
-0.00234966
0.0064767
-0.00224639
0.00649766
-0.00213204
0.00653658
-0.0020186
0.00659246
-0.00191649
0.00666258
-0.00184195
0.00674387
-0.00179852
0.00683104
-0.00180735
0.00692087
-0.00184408
0.00700651
-0.00195025
0.00708862
-0.00202565
0.00715863
-0.0022007
0.00722592
-0.00218875
0.00727717
-0.00239254
-0.00217356
0.00736366
-0.00231494
0.00728121
-0.00238966
0.00720499
-0.00243488
0.00713711
-0.00244934
0.00707984
-0.00243331
0.00703539
-0.00238889
0.00700583
-0.0023201
0.00699278
-0.00223335
0.00699729
-0.00213655
0.00701932
-0.00204063
0.00705796
-0.00195513
0.00711065
-0.00189464
0.00717446
-0.00186233
0.00724426
-0.00187715
0.00731701
-0.00191683
0.00738594
-0.00201918
0.00745206
-0.00209178
0.00750664
-0.00225527
0.00756005
-0.00224217
0.00759784
-0.00243034
-0.00221434
0.00799748
-0.00221435
0.00790124
-0.00229342
0.00781121
-0.00234484
0.00772943
-0.00236756
0.00765802
-0.0023619
0.0075991
-0.00232997
0.00755458
-0.00227559
0.00752601
-0.00220477
0.00751434
-0.00212488
0.00751958
-0.00204587
0.00754089
-0.00197644
0.00757586
-0.00192962
0.00762176
-0.00190822
0.00767366
-0.00192906
0.00772873
-0.0019719
0.00778038
-0.00207083
0.00782992
-0.00214132
0.00786855
-0.0022939
0.0079075
-0.00228111
0.00793143
-0.00245427
-0.00224423
0.0086348
-0.00210186
0.0085265
-0.00218512
0.00842425
-0.00224259
0.00832999
-0.0022733
0.00824576
-0.00227767
0.00817353
-0.00225773
0.00811507
-0.00221714
0.00807182
-0.00216152
0.00804466
-0.00209772
0.0080336
-0.00203481
0.00803788
-0.00198072
0.00805526
-0.001947
0.0080832
-0.00193616
0.00811707
-0.00196293
0.00815424
-0.00200907
0.0081884
-0.00210499
0.00822109
-0.002174
0.00824361
-0.00231642
0.00826777
-0.00230527
0.00827769
-0.00246419
-0.00226287
0.00926792
-0.00197991
0.00914983
-0.00206703
0.00903739
-0.00213016
0.00893254
-0.00216845
0.00883718
-0.00218232
0.00875318
-0.00217372
0.00868218
-0.00214614
0.00862548
-0.00210482
0.00858389
-0.00205613
0.00855742
-0.00200834
0.00854536
-0.00196866
0.00854567
-0.00194731
0.00855602
-0.0019465
0.00857212
-0.00197903
0.00859158
-0.00202853
0.0086084
-0.00212181
0.00862434
-0.00218993
0.0086309
-0.00232298
0.00864027
-0.00231464
0.0086363
-0.00246022
-0.00227006
0.00988984
-0.00185135
0.00976455
-0.00194174
0.00964435
-0.00200996
0.0095311
-0.0020552
0.00942665
-0.00207787
0.00933274
-0.00207981
0.00925091
-0.0020643
0.00918232
-0.00203623
0.0091277
-0.00200151
0.00908705
-0.00196769
0.00905973
-0.00194133
0.00904389
-0.00193147
0.00903742
-0.00194003
0.0090364
-0.00197801
0.0090387
-0.00203083
0.00903874
-0.00212185
0.00903838
-0.00218957
0.00902947
-0.00231407
0.00902434
-0.00230951
0.00900689
-0.00244277
-0.00226583
0.0104947
-0.00171919
0.010365
-0.00181207
0.0102397
-0.0018846
0.0101204
-0.00193598
0.0100091
-0.00196658
0.00990742
-0.00197809
0.00981668
-0.00197356
0.009738
-0.00195755
0.00967203
-0.00193554
0.00961874
-0.00191441
0.00957756
-0.00190015
0.00954683
-0.00190074
0.00952468
-0.00191788
0.00950758
-0.00196091
0.00949367
-0.00201692
0.0094778
-0.00210599
0.00946194
-0.0021737
0.00943837
-0.00229051
0.00941933
-0.00229047
0.00938907
-0.00241251
-0.00225041
0.0110783
-0.00158634
0.010947
-0.00168081
0.0108191
-0.00175671
0.0106964
-0.00181327
0.0105806
-0.00185076
0.0104732
-0.00187072
0.0103757
-0.00187599
0.0102888
-0.00187074
0.0102134
-0.00186007
0.0101492
-0.00185025
0.0100958
-0.00184678
0.0100518
-0.00185668
0.0100154
-0.0018815
0.00998355
-0.00192908
0.00995468
-0.00198806
0.00992413
-0.00207543
0.00989386
-0.00214344
0.00985673
-0.00225338
0.00982464
-0.00225838
0.00978247
-0.00237034
-0.00222422
0.0116384
-0.00145545
0.011508
-0.0015505
0.0113801
-0.00162876
0.0112562
-0.00168941
0.0111381
-0.00173266
0.0110273
-0.00175988
0.010925
-0.00177364
0.010832
-0.0017778
0.010749
-0.00177704
0.0106758
-0.0017771
0.0106121
-0.00178303
0.0105565
-0.00180105
0.0105075
-0.00183257
0.0104626
-0.00188413
0.0104203
-0.00194576
0.0103765
-0.00203163
0.0103332
-0.00210013
0.0102838
-0.00220399
0.0102398
-0.00221433
0.0101868
-0.00231738
-0.00218789
0.0121747
-0.00132868
0.0120475
-0.00142332
0.0119216
-0.00150287
0.0117987
-0.00156651
0.0116804
-0.00161434
0.0115681
-0.00164756
0.0114629
-0.0016685
0.0113658
-0.00168065
0.0112771
-0.00168837
0.0111969
-0.00169687
0.0111247
-0.00171083
0.0110594
-0.00173574
0.0109997
-0.00177295
0.0109435
-0.00182785
0.0108894
-0.00189174
0.0108341
-0.00197625
0.0107792
-0.00204531
0.0107191
-0.00214382
0.0106643
-0.00215958
0.0106018
-0.00225485
-0.00214218
0.0126889
-0.00120763
0.0125665
-0.00130092
0.0124444
-0.00138075
0.0123241
-0.00144628
0.0122073
-0.00149752
0.0120953
-0.0015355
0.011989
-0.00156229
0.0118895
-0.00158108
0.011797
-0.00159586
0.0117115
-0.00161141
0.0116327
-0.00163204
0.0115596
-0.00166265
0.0114912
-0.00170454
0.0114255
-0.00176211
0.0113616
-0.00182783
0.0112963
-0.00191103
0.0112317
-0.00198063
0.0111623
-0.00207446
0.0110982
-0.00209551
0.0110274
-0.00218406
-0.002088
0.0131842
-0.00109331
0.0130677
-0.00118442
0.0129506
-0.0012636
0.0128343
-0.00133
0.0127203
-0.00138354
0.0126099
-0.00142508
0.0125041
-0.00145648
0.0124036
-0.00148062
0.0123089
-0.00150114
0.0122199
-0.00152241
0.0121363
-0.00154844
0.0120573
-0.00158361
0.0119819
-0.0016292
0.0119086
-0.00168878
0.0118366
-0.00175585
0.0117633
-0.00183774
0.0116905
-0.00190778
0.0116135
-0.00199749
0.0115415
-0.00202354
0.0114638
-0.00210636
-0.00202629
0.0136648
-0.000986205
0.0135549
-0.00107446
0.0134435
-0.00115218
0.013332
-0.00121853
0.0132218
-0.00127335
0.0131141
-0.00131738
0.0130099
0.0129097
0.0128142
0.0127231
0.0126363
0.012553
0.0124725
0.0123933
0.0123151
0.0122354
0.012156
0.012073
0.0119945
0.0119112
0.0141356
0.0140324
0.013927
0.0138208
0.0137151
)
;

boundaryField
{
    inlet
    {
        type            calculated;
        value           nonuniform 0();
    }
    outlet
    {
        type            calculated;
        value           nonuniform List<scalar> 
20
(
0.00572031
0.00595922
0.00620933
0.00647102
0.00674461
0.00703031
0.00732829
0.00763863
0.00796132
0.00829632
0.00864349
0.00900266
0.00937365
0.00975629
0.0101505
0.0105561
0.0109733
0.0114021
0.011843
0.00330706
)
;
    }
    cylinder
    {
        type            calculated;
        value           nonuniform 0();
    }
    top
    {
        type            symmetryPlane;
        value           nonuniform 0();
    }
    bottom
    {
        type            symmetryPlane;
        value           nonuniform 0();
    }
    defaultFaces
    {
        type            empty;
        value           nonuniform 0();
    }
    procBoundary29to23
    {
        type            processor;
        value           nonuniform List<scalar> 
23
(
0.00244207
0.00251653
0.00254788
0.0025312
0.00246348
0.00234418
0.00160209
0.00225213
0.00205087
0.00181869
0.00156968
0.00132461
0.00110109
0.000927075
0.000809075
0.000781041
0.000808212
0.000948845
0.00106776
0.00133086
0.00138058
0.00169084
0.00155195
)
;
    }
    procBoundary29to28
    {
        type            processor;
        value           nonuniform List<scalar> 
20
(
-0.00131878
-0.00135616
-0.00249859
-0.00357607
-0.00402107
-0.00450825
-0.00503525
-0.00559845
-0.00619298
-0.00681271
-0.00745041
-0.00809807
-0.00874729
-0.00938987
-0.0100184
-0.0106269
-0.0112111
-0.0117692
-0.0123014
-0.01281
)
;
    }
    procBoundary29to34
    {
        type            processor;
        value           nonuniform List<scalar> 3(-0.0132985 -0.0137719 -0.0142353);
    }
    procBoundary29to35
    {
        type            processor;
        value           nonuniform List<scalar> 
22
(
-0.00135223
-0.00138051
-0.00140555
-0.00143135
-0.00146162
-0.00150031
-0.00154868
-0.00160964
-0.00167757
-0.0017581
-0.00182839
-0.00191446
-0.0019451
-0.00202305
-0.00195807
-0.000886417
-0.000971258
-0.00104684
-0.00111235
-0.00116757
0.0136108
-0.0012131
)
;
    }
}


// ************************************************************************* //
