/*--------------------------------*- C++ -*----------------------------------*\
  =========                 |
  \\      /  F ield         | OpenFOAM: The Open Source CFD Toolbox
   \\    /   O peration     | Website:  https://openfoam.org
    \\  /    A nd           | Version:  7
     \\/     M anipulation  |
\*---------------------------------------------------------------------------*/
FoamFile
{
    version     2.0;
    format      ascii;
    class       volVectorField;
    location    "6.6";
    object      U;
}
// * * * * * * * * * * * * * * * * * * * * * * * * * * * * * * * * * * * * * //

dimensions      [0 1 -1 0 0 0 0];

internalField   nonuniform List<vector> 
344
(
(0.580241 -0.00111859 8.19411e-17)
(0.579728 -0.0011 -4.40915e-17)
(0.579223 -0.00108183 -2.10042e-16)
(0.578727 -0.00106406 -1.31251e-16)
(0.578239 -0.00104668 -3.76067e-16)
(0.577759 -0.00102969 -5.07633e-16)
(0.577286 -0.00101308 -7.14067e-16)
(0.576822 -0.000996834 -6.25009e-16)
(0.576364 -0.000980957 -8.82064e-16)
(0.575914 -0.000965442 -9.83941e-16)
(0.575472 -0.000950284 -1.10279e-15)
(0.575036 -0.000935484 -1.04114e-15)
(0.574606 -0.000921039 -1.25907e-15)
(0.574184 -0.000906952 -1.35262e-15)
(0.573768 -0.000893226 -1.4578e-15)
(0.573358 -0.000879868 -1.36391e-15)
(0.572955 -0.000866887 -1.55271e-15)
(0.571675 -0.00263205 5.78007e-15)
(0.570315 -0.00256376 5.61476e-15)
(0.568991 -0.00249819 5.18753e-15)
(0.5677 -0.0024352 5.01065e-15)
(0.566441 -0.00237462 4.80627e-15)
(0.565214 -0.00231633 4.73863e-15)
(0.564016 -0.0022602 4.43792e-15)
(0.562848 -0.00220612 4.33766e-15)
(0.561707 -0.00215399 4.22589e-15)
(0.560594 -0.00210369 4.23007e-15)
(0.559506 -0.00205514 4.03355e-15)
(0.558444 -0.00200826 3.99139e-15)
(0.557405 -0.00196295 3.87575e-15)
(0.55639 -0.00191915 3.94105e-15)
(0.555398 -0.00187679 3.87438e-15)
(0.554427 -0.00183579 4.00775e-15)
(0.553478 -0.00179609 4.19324e-15)
(0.552549 -0.00175765 4.34981e-15)
(0.551639 -0.00172039 4.4801e-15)
(0.550749 -0.00168427 4.65069e-15)
(0.549878 -0.00164924 4.76616e-15)
(0.549025 -0.00161525 4.86475e-15)
(0.548189 -0.00158227 4.97003e-15)
(0.547371 -0.00155024 5.06916e-15)
(0.546569 -0.00151913 5.16798e-15)
(0.545783 -0.0014889 5.18184e-15)
(0.545012 -0.00145952 5.05869e-15)
(0.544257 -0.00143096 4.6479e-15)
(0.543516 -0.00140318 4.49259e-15)
(0.54279 -0.00137615 4.30324e-15)
(0.542078 -0.00134984 4.26457e-15)
(0.54138 -0.00132423 4.00513e-15)
(0.540694 -0.0012993 3.93219e-15)
(0.540022 -0.00127501 3.73945e-15)
(0.539362 -0.00125134 3.29734e-15)
(0.538714 -0.00122828 2.99948e-15)
(0.538078 -0.00120579 2.63862e-15)
(0.537454 -0.00118387 2.45332e-15)
(0.536841 -0.00116249 2.13802e-15)
(0.53624 -0.00114163 1.89355e-15)
(0.535649 -0.00112128 1.63632e-15)
(0.535068 -0.00110141 1.52952e-15)
(0.534498 -0.00108202 1.23747e-15)
(0.533938 -0.00106309 1.08419e-15)
(0.533387 -0.0010446 8.48298e-16)
(0.532847 -0.00102654 8.49938e-16)
(0.532315 -0.00100889 7.90175e-16)
(0.531793 -0.00099165 5.38861e-16)
(0.531279 -0.000974801 3.95993e-16)
(0.530775 -0.000958333 1.94628e-16)
(0.530278 -0.000942234 1.6519e-16)
(0.529791 -0.000926496 -5.76799e-17)
(0.529311 -0.000911108 -1.51852e-16)
(0.528839 -0.000896062 -3.19349e-16)
(0.528375 -0.00088135 -3.03473e-16)
(0.527919 -0.000866964 -4.83699e-16)
(0.52747 -0.000852896 -6.17259e-16)
(0.527028 -0.000839142 -7.91849e-16)
(0.526594 -0.000825696 -7.36117e-16)
(0.526166 -0.000812553 -9.48881e-16)
(0.525746 -0.000799709 -1.00872e-15)
(0.525332 -0.000787163 -1.12649e-15)
(0.524924 -0.000774913 -1.12245e-15)
(0.524523 -0.000762958 -1.29895e-15)
(0.524128 -0.000751301 -1.34213e-15)
(0.523739 -0.000739944 -1.47831e-15)
(0.523356 -0.000728892 -1.42707e-15)
(0.522978 -0.000718153 -1.53271e-15)
(0.516959 -0.00212944 5.30224e-15)
(0.515704 -0.00207425 5.17503e-15)
(0.514482 -0.00202126 4.65198e-15)
(0.51329 -0.00197034 4.51277e-15)
(0.512129 -0.00192137 4.24453e-15)
(0.510997 -0.00187425 4.29023e-15)
(0.509892 -0.00182887 3.95588e-15)
(0.508814 -0.00178515 3.90516e-15)
(0.507761 -0.001743 3.74148e-15)
(0.506734 -0.00170233 3.81871e-15)
(0.50573 -0.00166308 3.59547e-15)
(0.504749 -0.00162516 3.58973e-15)
(0.503791 -0.00158853 3.43575e-15)
(0.502854 -0.00155311 3.57341e-15)
(0.501939 -0.00151884 3.47951e-15)
(0.501043 -0.00148569 3.66658e-15)
(0.500167 -0.00145358 3.84811e-15)
(0.499309 -0.00142248 3.99596e-15)
(0.498471 -0.00139235 4.13222e-15)
(0.497649 -0.00136313 4.27355e-15)
(0.496845 -0.0013348 4.37843e-15)
(0.496058 -0.00130731 4.50204e-15)
(0.495287 -0.00128062 4.59545e-15)
(0.494531 -0.00125472 4.67771e-15)
(0.493791 -0.00122955 4.7462e-15)
(0.493066 -0.0012051 4.74436e-15)
(0.492355 -0.00118133 4.65496e-15)
(0.491658 -0.00115822 4.18971e-15)
(0.490975 -0.00113574 4.06121e-15)
(0.490305 -0.00111388 3.80528e-15)
(0.489647 -0.00109259 3.84751e-15)
(0.489003 -0.00107188 3.55288e-15)
(0.48837 -0.0010517 3.47894e-15)
(0.48775 -0.00103205 3.22512e-15)
(0.487141 -0.0010129 2.8264e-15)
(0.486543 -0.00099424 2.56586e-15)
(0.485956 -0.000976048 2.20554e-15)
(0.48538 -0.00095831 2.05034e-15)
(0.484815 -0.00094101 1.74976e-15)
(0.484259 -0.000924132 1.54968e-15)
(0.483714 -0.000907664 1.2853e-15)
(0.483178 -0.00089159 1.17021e-15)
(0.482652 -0.0008759 9.3935e-16)
(0.482135 -0.000860579 8.18429e-16)
(0.481627 -0.000845617 6.0497e-16)
(0.481128 -0.000831003 6.62136e-16)
(0.480638 -0.000816725 5.6707e-16)
(0.480156 -0.000802774 3.28476e-16)
(0.479682 -0.00078914 1.98493e-16)
(0.479216 -0.000775814 2.38924e-17)
(0.478758 -0.000762788 -4.41952e-17)
(0.478308 -0.000750053 -2.2947e-16)
(0.477865 -0.000737602 -3.05974e-16)
(0.47743 -0.000725427 -4.65951e-16)
(0.477002 -0.000713522 -4.46656e-16)
(0.47658 -0.000701882 -6.22537e-16)
(0.476166 -0.000690499 -7.08883e-16)
(0.475759 -0.000679371 -8.83151e-16)
(0.475358 -0.000668491 -8.63921e-16)
(0.474963 -0.000657858 -1.04084e-15)
(0.474575 -0.000647467 -1.07413e-15)
(0.474193 -0.000637317 -1.18697e-15)
(0.473816 -0.000627407 -1.21109e-15)
(0.473446 -0.000617738 -1.32656e-15)
(0.473081 -0.000608309 -1.36587e-15)
(0.472722 -0.000599125 -1.49875e-15)
(0.472369 -0.000590189 -1.45235e-15)
(0.47202 -0.000581507 -1.57579e-15)
(0.46091 -0.00167413 4.83326e-15)
(0.459771 -0.00163079 4.56438e-15)
(0.458661 -0.00158918 4.04726e-15)
(0.457579 -0.0015492 4.00656e-15)
(0.456524 -0.00151074 3.68007e-15)
(0.455496 -0.00147373 3.86074e-15)
(0.454492 -0.00143809 3.44739e-15)
(0.453513 -0.00140375 3.47763e-15)
(0.452557 -0.00137064 3.23099e-15)
(0.451624 -0.00133869 3.44937e-15)
(0.450712 -0.00130785 3.08797e-15)
(0.449822 -0.00127806 3.16844e-15)
(0.448951 -0.00124928 2.96031e-15)
(0.4481 -0.00122144 3.23034e-15)
(0.447269 -0.00119452 3.03043e-15)
(0.446455 -0.00116846 3.3427e-15)
(0.445659 -0.00114323 3.53986e-15)
(0.44488 -0.0011188 3.67109e-15)
(0.444118 -0.00109511 3.81455e-15)
(0.443372 -0.00107215 3.94099e-15)
(0.442642 -0.00104988 4.01564e-15)
(0.441927 -0.00102827 4.15052e-15)
(0.441226 -0.0010073 4.20254e-15)
(0.44054 -0.000986933 4.27628e-15)
(0.439868 -0.000967151 4.35049e-15)
(0.439209 -0.00094793 4.33671e-15)
(0.438563 -0.000929246 4.12114e-15)
(0.43793 -0.000911079 3.63058e-15)
(0.437309 -0.000893409 3.59841e-15)
(0.4367 -0.000876218 3.28682e-15)
(0.436103 -0.000859486 3.47212e-15)
(0.435517 -0.000843197 3.07899e-15)
(0.434943 -0.000827335 3.06461e-15)
(0.434379 -0.000811884 2.74409e-15)
(0.433826 -0.000796829 2.3359e-15)
(0.433283 -0.000782157 2.08183e-15)
(0.43275 -0.000767854 1.74318e-15)
(0.432226 -0.000753907 1.6255e-15)
(0.431713 -0.000740304 1.34604e-15)
(0.431208 -0.000727033 1.18914e-15)
(0.430713 -0.000714083 9.09397e-16)
(0.430226 -0.000701445 8.25181e-16)
(0.429748 -0.000689107 6.20579e-16)
(0.429278 -0.00067706 5.56881e-16)
(0.428817 -0.000665294 3.31455e-16)
(0.428363 -0.000653802 4.65496e-16)
(0.427918 -0.000642575 3.30605e-16)
(0.42748 -0.000631604 8.47345e-17)
(0.427049 -0.000620883 -2.76366e-17)
(0.426626 -0.000610404 -1.92351e-16)
(0.42621 -0.000600161 -2.26682e-16)
(0.425801 -0.000590146 -4.1324e-16)
(0.425399 -0.000580355 -4.56851e-16)
(0.425003 -0.000570781 -6.33069e-16)
(0.424614 -0.00056142 -6.08533e-16)
(0.424231 -0.000552266 -7.68354e-16)
(0.423855 -0.000543316 -8.03706e-16)
(0.423484 -0.000534565 -9.96645e-16)
(0.42312 -0.00052601 -9.63067e-16)
(0.422761 -0.000517649 -1.15603e-15)
(0.422409 -0.000509479 -1.13224e-15)
(0.422061 -0.0005015 -1.27215e-15)
(0.421719 -0.000493709 -1.26166e-15)
(0.421383 -0.000486108 -1.3943e-15)
(0.421051 -0.000478697 -1.39763e-15)
(0.420725 -0.000471479 -1.52662e-15)
(0.420404 -0.000464456 -1.46663e-15)
(0.420087 -0.000457635 -1.59991e-15)
(0.402537 -0.00123584 3.94325e-15)
(0.401549 -0.00120435 3.53462e-15)
(0.400585 -0.00117409 3.36733e-15)
(0.399646 -0.00114499 3.20551e-15)
(0.39873 -0.00111698 3.3317e-15)
(0.397837 -0.00109 2.99126e-15)
(0.396965 -0.001064 2.91544e-15)
(0.396114 -0.00103894 2.81688e-15)
(0.395282 -0.00101475 2.99074e-15)
(0.39447 -0.000991397 2.70175e-15)
(0.393677 -0.000968842 2.64951e-15)
(0.392902 -0.000947045 2.58455e-15)
(0.392144 -0.000925968 2.81826e-15)
(0.391403 -0.000905578 2.71035e-15)
(0.390679 -0.000885844 2.91736e-15)
(0.38997 -0.000866735 3.09195e-15)
(0.389276 -0.000848224 3.23166e-15)
(0.388597 -0.000830284 3.3603e-15)
(0.387933 -0.000812891 3.46633e-15)
(0.387282 -0.00079602 3.53366e-15)
(0.386645 -0.000779651 3.62315e-15)
(0.386021 -0.000763761 3.68637e-15)
(0.38541 -0.000748332 3.7525e-15)
(0.384811 -0.000733344 3.79994e-15)
(0.384224 -0.00071878 3.80883e-15)
(0.383648 -0.000704624 3.56836e-15)
(0.383084 -0.000690858 3.19624e-15)
(0.382531 -0.000677469 3.00937e-15)
(0.381989 -0.000664442 2.89391e-15)
(0.381457 -0.000651763 2.99546e-15)
(0.380935 -0.000639419 2.71026e-15)
(0.380423 -0.000627398 2.55737e-15)
(0.379921 -0.000615689 2.3473e-15)
(0.379428 -0.00060428 1.90505e-15)
(0.378944 -0.00059316 1.74667e-15)
(0.378469 -0.00058232 1.40471e-15)
(0.378003 -0.00057175 1.35255e-15)
(0.377545 -0.00056144 1.02684e-15)
(0.377096 -0.000551382 9.55208e-16)
(0.376654 -0.000541567 6.59323e-16)
(0.376221 -0.000531987 6.51636e-16)
(0.375795 -0.000522635 4.11304e-16)
(0.375376 -0.000513504 4.0953e-16)
(0.374965 -0.000504586 1.48843e-16)
(0.374561 -0.000495875 3.40675e-16)
(0.374164 -0.000487365 2.61255e-16)
(0.373773 -0.000479049 -3.76982e-17)
(0.37339 -0.000470923 -8.01274e-17)
(0.373013 -0.000462979 -3.07076e-16)
(0.372642 -0.000455215 -2.62353e-16)
(0.372277 -0.000447623 -4.88544e-16)
(0.371919 -0.000440201 -4.66089e-16)
(0.371566 -0.000432944 -6.76031e-16)
(0.371219 -0.000425848 -6.09279e-16)
(0.370878 -0.000418909 -7.91436e-16)
(0.370543 -0.000412125 -7.64697e-16)
(0.370213 -0.000405492 -9.70677e-16)
(0.369888 -0.000399007 -9.04287e-16)
(0.369568 -0.00039267 -1.13615e-15)
(0.369254 -0.000386478 -1.07046e-15)
(0.368944 -0.00038043 -1.23981e-15)
(0.36864 -0.000374526 -1.16474e-15)
(0.36834 -0.000368766 -1.3225e-15)
(0.368044 -0.000363151 -1.30131e-15)
(0.367754 -0.000357682 -1.44234e-15)
(0.367467 -0.000352363 -1.33524e-15)
(0.367185 -0.000347196 -1.5232e-15)
(0.344023 -0.000891673 3.32643e-15)
(0.343165 -0.000868994 2.96852e-15)
(0.342329 -0.000847195 2.87079e-15)
(0.341514 -0.000826227 2.73579e-15)
(0.340719 -0.000806046 2.87695e-15)
(0.339943 -0.000786608 2.5271e-15)
(0.339187 -0.000767874 2.5112e-15)
(0.338448 -0.000749807 2.3877e-15)
(0.337726 -0.000732375 2.59013e-15)
(0.337021 -0.000715544 2.29421e-15)
(0.336332 -0.000699286 2.28442e-15)
(0.335659 -0.000683572 2.18962e-15)
(0.335001 -0.000668377 2.42583e-15)
(0.334358 -0.000653676 2.35934e-15)
(0.333729 -0.000639448 2.52697e-15)
(0.333113 -0.000625669 2.68342e-15)
(0.332511 -0.000612321 2.80368e-15)
(0.331921 -0.000599384 2.89961e-15)
(0.331344 -0.00058684 3.007e-15)
(0.330779 -0.000574673 3.07449e-15)
(0.330226 -0.000562866 3.12725e-15)
(0.329684 -0.000551405 3.20236e-15)
(0.329153 -0.000540276 3.26118e-15)
(0.328633 -0.000529465 3.29742e-15)
(0.328123 -0.000518959 3.27775e-15)
(0.327623 -0.000508747 3.01101e-15)
(0.327133 -0.000498817 2.68005e-15)
(0.326653 -0.000489157 2.55664e-15)
(0.326182 -0.000479759 2.45519e-15)
(0.32572 -0.000470611 2.59307e-15)
(0.325266 -0.000461705 2.28559e-15)
(0.324822 -0.000453032 2.19361e-15)
(0.324385 -0.000444583 1.96586e-15)
(0.323957 -0.000436351 1.60429e-15)
(0.323537 -0.000428327 1.42884e-15)
(0.323124 -0.000420505 1.12286e-15)
(0.322719 -0.000412877 1.07909e-15)
(0.322322 -0.000405438 8.27224e-16)
(0.321931 -0.000398179 7.41028e-16)
(0.321547 -0.000391096 5.0801e-16)
(0.321171 -0.000384183 5.09134e-16)
(0.320801 -0.000377434 3.04523e-16)
(0.320437 -0.000370844 3.05417e-16)
(0.32008 -0.000364408 9.86083e-17)
(0.319729 -0.000358121 2.48739e-16)
(0.319384 -0.000351979 2.11738e-16)
(0.319044 -0.000345978 -7.75154e-17)
(0.318711 -0.000340112 -1.31136e-16)
(0.318383 -0.000334379 -3.03895e-16)
(0.318061 -0.000328775 -2.65024e-16)
(0.317744 -0.000323296 -4.73643e-16)
(0.317433 -0.000317939 -4.61744e-16)
(0.317127 -0.000312701 -6.18317e-16)
(0.316825 -0.000307579 -5.59794e-16)
(0.316529 -0.000302571 -7.10472e-16)
(0.316237 -0.000297675 -6.95026e-16)
)
;

boundaryField
{
    inlet
    {
        type            uniformFixedValue;
        uniformValue    constant (1 0 0);
        value           nonuniform 0();
    }
    outlet
    {
        type            pressureInletOutletVelocity;
        value           nonuniform 0();
    }
    wall
    {
        type            fixedValue;
        value           nonuniform 0();
    }
    wedge1
    {
        type            wedge;
    }
    wedge2
    {
        type            wedge;
    }
    axis
    {
        type            empty;
    }
    procBoundary37to31
    {
        type            processor;
        value           nonuniform List<vector> 
69
(
(0.62965 -0.00132539 1.74742e-16)
(0.629107 -0.00130336 7.44306e-17)
(0.628574 -0.00128182 -1.37649e-16)
(0.628049 -0.00126076 -1.14034e-16)
(0.627532 -0.00124016 -3.58487e-16)
(0.627025 -0.00122002 -4.24558e-16)
(0.626525 -0.00120033 -6.59758e-16)
(0.626033 -0.00118107 -6.32964e-16)
(0.62555 -0.00116225 -8.57231e-16)
(0.625074 -0.00114386 -9.39444e-16)
(0.624605 -0.00112589 -1.10962e-15)
(0.624144 -0.00110834 -1.07904e-15)
(0.62369 -0.00109121 -1.28897e-15)
(0.623243 -0.00107451 -1.32576e-15)
(0.622803 -0.00105823 -1.46723e-15)
(0.62237 -0.00104239 -1.40674e-15)
(0.621943 -0.00102698 -1.61577e-15)
(0.625036 -0.0031792 6.2675e-15)
(0.623582 -0.00309666 6.09313e-15)
(0.622165 -0.00301741 5.65677e-15)
(0.620785 -0.00294126 5.47826e-15)
(0.619439 -0.00286805 5.30556e-15)
(0.618126 -0.0027976 5.20215e-15)
(0.616846 -0.00272977 4.87523e-15)
(0.615597 -0.00266442 4.79488e-15)
(0.614377 -0.00260141 4.6988e-15)
(0.613186 -0.00254064 4.66625e-15)
(0.612023 -0.00248197 4.42301e-15)
(0.610887 -0.00242532 4.40508e-15)
(0.609776 -0.00237058 4.31007e-15)
(0.60869 -0.00231766 4.36864e-15)
(0.607629 -0.00226647 4.25922e-15)
(0.606591 -0.00221694 4.35687e-15)
(0.605576 -0.00216898 4.53591e-15)
(0.604582 -0.00212253 4.71312e-15)
(0.60361 -0.00207752 4.88129e-15)
(0.602658 -0.00203389 5.03895e-15)
(0.601726 -0.00199157 5.15495e-15)
(0.600814 -0.00195051 5.27398e-15)
(0.59992 -0.00191067 5.38341e-15)
(0.599044 -0.00187198 5.49019e-15)
(0.598187 -0.0018344 5.60074e-15)
(0.597346 -0.00179789 5.64035e-15)
(0.596522 -0.0017624 5.49662e-15)
(0.595714 -0.00172789 5.07865e-15)
(0.594922 -0.00169433 4.929e-15)
(0.594145 -0.00166168 4.79996e-15)
(0.593384 -0.00162991 4.70764e-15)
(0.592636 -0.00159898 4.41824e-15)
(0.591903 -0.00156886 4.33252e-15)
(0.591184 -0.00153952 4.23067e-15)
(0.590478 -0.00151094 3.73675e-15)
(0.589786 -0.00148308 3.39403e-15)
(0.589106 -0.00145592 3.01207e-15)
(0.588438 -0.00142944 2.88385e-15)
(0.587782 -0.00140362 2.48591e-15)
(0.587139 -0.00137843 2.20697e-15)
(0.586507 -0.00135384 1.92603e-15)
(0.585886 -0.00132985 1.87793e-15)
(0.585276 -0.00130643 1.49569e-15)
(0.584677 -0.00128356 1.33142e-15)
(0.584088 -0.00126123 1.05948e-15)
(0.58351 -0.00123941 1.03865e-15)
(0.582941 -0.0012181 1.037e-15)
(0.582382 -0.00119728 7.41507e-16)
(0.581833 -0.00117693 5.82123e-16)
(0.581293 -0.00115704 3.42806e-16)
(0.580763 -0.0011376 3.93912e-16)
(0.580763 -0.0011376 3.93912e-16)
)
;
    }
    procBoundary37to32
    {
        type            processor;
        value           uniform (0.572557 -0.000854286 -1.58932e-15);
    }
    procBoundary37to36
    {
        type            processor;
        value           nonuniform List<vector> 5((0.573072 -0.00270322 5.7685e-15) (0.518248 -0.00218697 5.28204e-15) (0.462081 -0.00171929 4.83118e-15) (0.403552 -0.00126863 4.20321e-15) (0.403552 -0.00126863 4.20321e-15));
    }
    procBoundary37to38
    {
        type            processor;
        value           nonuniform List<vector> 4((0.522606 -0.000707734 -1.57213e-15) (0.471677 -0.000573088 -1.57259e-15) (0.419775 -0.000451022 -1.5867e-15) (0.366907 -0.00034219 -1.44162e-15));
    }
    procBoundary37to42
    {
        type            processor;
        value           uniform (0.344904 -0.000915286 3.62183e-15);
    }
    procBoundary37to43
    {
        type            processor;
        value           nonuniform List<vector> 
68
(
(0.315951 -0.000292887 -8.62592e-16)
(0.315668 -0.000288207 -8.14246e-16)
(0.315391 -0.000283634 -9.83777e-16)
(0.315117 -0.000279165 -9.66969e-16)
(0.314848 -0.000274801 -1.08228e-15)
(0.314584 -0.000270541 -1.03823e-15)
(0.314323 -0.000266384 -1.17115e-15)
(0.314066 -0.000262333 -1.1519e-15)
(0.313813 -0.000258388 -1.25806e-15)
(0.313564 -0.000254551 -1.20054e-15)
(0.313319 -0.000250825 -1.33364e-15)
(0.284249 -0.000600359 2.71801e-15)
(0.28353 -0.000585118 2.35128e-15)
(0.282829 -0.000570467 2.40884e-15)
(0.282146 -0.000556374 2.20269e-15)
(0.281479 -0.000542807 2.44819e-15)
(0.280829 -0.000529739 2.04023e-15)
(0.280195 -0.000517143 2.1172e-15)
(0.279575 -0.000504995 1.93544e-15)
(0.27897 -0.000493271 2.25643e-15)
(0.278379 -0.000481952 1.84837e-15)
(0.277802 -0.000471017 1.92227e-15)
(0.277238 -0.000460447 1.78375e-15)
(0.276686 -0.000450226 2.12419e-15)
(0.276146 -0.000440336 1.97887e-15)
(0.275619 -0.000430763 2.17872e-15)
(0.275103 -0.000421493 2.29617e-15)
(0.274597 -0.000412511 2.38718e-15)
(0.274103 -0.000403805 2.45873e-15)
(0.273619 -0.000395364 2.54805e-15)
(0.273145 -0.000387176 2.6104e-15)
(0.272681 -0.00037923 2.65611e-15)
(0.272227 -0.000371517 2.71623e-15)
(0.271781 -0.000364026 2.7681e-15)
(0.271345 -0.000356749 2.78688e-15)
(0.270917 -0.000349677 2.74059e-15)
(0.270498 -0.000342802 2.45233e-15)
(0.270087 -0.000336117 2.1177e-15)
(0.269684 -0.000329615 2.15126e-15)
(0.269289 -0.000323287 1.97374e-15)
(0.268901 -0.000317128 2.2205e-15)
(0.268521 -0.000311132 1.84485e-15)
(0.268148 -0.000305293 1.85764e-15)
(0.267782 -0.000299604 1.61833e-15)
(0.267423 -0.000294061 1.23022e-15)
(0.26707 -0.000288658 1.12013e-15)
(0.266724 -0.000283391 8.39332e-16)
(0.266384 -0.000278254 8.50051e-16)
(0.26605 -0.000273244 6.06079e-16)
(0.265723 -0.000268356 5.41184e-16)
(0.265401 -0.000263586 3.34268e-16)
(0.265085 -0.00025893 3.78052e-16)
(0.264774 -0.000254385 1.6862e-16)
(0.264469 -0.000249947 1.90804e-16)
(0.264169 -0.000245612 5.23861e-18)
(0.263875 -0.000241378 1.69706e-16)
(0.263585 -0.000237241 1.49801e-16)
(0.2633 -0.000233199 -1.33276e-16)
(0.263021 -0.000229248 -1.51463e-16)
(0.262746 -0.000225387 -3.33067e-16)
(0.262475 -0.000221612 -2.51246e-16)
(0.26221 -0.000217922 -4.82819e-16)
(0.261948 -0.000214313 -4.28907e-16)
(0.261691 -0.000210785 -5.87018e-16)
(0.261438 -0.000207335 -4.91803e-16)
(0.261189 -0.000203962 -6.62826e-16)
(0.315951 -0.000292887 -8.62592e-16)
(0.260945 -0.000200664 -6.22813e-16)
)
;
    }
}


// ************************************************************************* //
