/*--------------------------------*- C++ -*----------------------------------*\
  =========                 |
  \\      /  F ield         | OpenFOAM: The Open Source CFD Toolbox
   \\    /   O peration     | Website:  https://openfoam.org
    \\  /    A nd           | Version:  7
     \\/     M anipulation  |
\*---------------------------------------------------------------------------*/
FoamFile
{
    version     2.0;
    format      ascii;
    class       volScalarField;
    location    "32.000528";
    object      p;
}
// * * * * * * * * * * * * * * * * * * * * * * * * * * * * * * * * * * * * * //

dimensions      [0 2 -2 0 0 0 0];

internalField   nonuniform List<scalar> 
23200
(
-0.288072
-0.292262
-0.294713
-0.296065
-0.296625
-0.296362
-0.295288
-0.293426
-0.290793
-0.287402
-0.283268
-0.278408
-0.272845
-0.266615
-0.259771
-0.252385
-0.244557
-0.23645
-0.228205
-0.21966
-0.288896
-0.292994
-0.295376
-0.296668
-0.297174
-0.296862
-0.295744
-0.293842
-0.291174
-0.287751
-0.283588
-0.278701
-0.273112
-0.266856
-0.259982
-0.252561
-0.244691
-0.236544
-0.228242
-0.219476
-0.290535
-0.29445
-0.296694
-0.29787
-0.298267
-0.297857
-0.296651
-0.29467
-0.291931
-0.288445
-0.284224
-0.279283
-0.273642
-0.267332
-0.2604
-0.252911
-0.244957
-0.236728
-0.228315
-0.219108
-0.292974
-0.296616
-0.298656
-0.299657
-0.299893
-0.299336
-0.297998
-0.295899
-0.293053
-0.289471
-0.285164
-0.280142
-0.274424
-0.268035
-0.261016
-0.253426
-0.245347
-0.236996
-0.228425
-0.218555
-0.296187
-0.299472
-0.301243
-0.302014
-0.302035
-0.301284
-0.29977
-0.297513
-0.294526
-0.290817
-0.286394
-0.281265
-0.275444
-0.26895
-0.261818
-0.254095
-0.245854
-0.237343
-0.228573
-0.217817
-0.300145
-0.302993
-0.304433
-0.304919
-0.304675
-0.303682
-0.301949
-0.299495
-0.296331
-0.292462
-0.287894
-0.282632
-0.276683
-0.270059
-0.262788
-0.254905
-0.246467
-0.237759
-0.228757
-0.216897
-0.304812
-0.307148
-0.308198
-0.308347
-0.307788
-0.306507
-0.304513
-0.301823
-0.298446
-0.294386
-0.289644
-0.284222
-0.27812
-0.271344
-0.26391
-0.25584
-0.247173
-0.238233
-0.22898
-0.2158
-0.310148
-0.311903
-0.312508
-0.312271
-0.311349
-0.309734
-0.307437
-0.304473
-0.300848
-0.296565
-0.291621
-0.286013
-0.279734
-0.272783
-0.265164
-0.256884
-0.24796
-0.238755
-0.229241
-0.214533
-0.31611
-0.317222
-0.317331
-0.31666
-0.315329
-0.313337
-0.310696
-0.30742
-0.303512
-0.298974
-0.2938
-0.28798
-0.281502
-0.274354
-0.266529
-0.25802
-0.248815
-0.239315
-0.22954
-0.21311
-0.322655
-0.323067
-0.322632
-0.321483
-0.319699
-0.317289
-0.314265
-0.310639
-0.306415
-0.301592
-0.296159
-0.290102
-0.283401
-0.276036
-0.267987
-0.259231
-0.249726
-0.239903
-0.229876
-0.211549
-0.329737
-0.329399
-0.328377
-0.326709
-0.324432
-0.321563
-0.318118
-0.314107
-0.309534
-0.304394
-0.298675
-0.292357
-0.285412
-0.27781
-0.26952
-0.260502
-0.250683
-0.240511
-0.230245
-0.209877
-0.337314
-0.336181
-0.334535
-0.332309
-0.329499
-0.326134
-0.322231
-0.317802
-0.312848
-0.307363
-0.301331
-0.294727
-0.287517
-0.27966
-0.271113
-0.261821
-0.251676
-0.241131
-0.230639
-0.208127
-0.345344
-0.343378
-0.34107
-0.338252
-0.334875
-0.330978
-0.326585
-0.321704
-0.316339
-0.310481
-0.304111
-0.297198
-0.289703
-0.281573
-0.272753
-0.263175
-0.252696
-0.241758
-0.231046
-0.20634
-0.353789
-0.350954
-0.347954
-0.344512
-0.340535
-0.336074
-0.331158
-0.325798
-0.319993
-0.313736
-0.307003
-0.29976
-0.291958
-0.283538
-0.274431
-0.264556
-0.253737
-0.242389
-0.231443
-0.204563
-0.362613
-0.358878
-0.355157
-0.351063
-0.346456
-0.341403
-0.335937
-0.330068
-0.323799
-0.317118
-0.31
-0.302404
-0.294277
-0.285549
-0.276141
-0.265957
-0.254794
-0.243028
-0.231807
-0.202863
-0.37178
-0.367119
-0.362652
-0.35788
-0.352618
-0.346948
-0.340906
-0.334506
-0.327749
-0.320622
-0.313097
-0.305128
-0.296656
-0.287602
-0.277878
-0.267375
-0.255865
-0.243683
-0.232111
-0.201336
-0.381261
-0.375648
-0.370413
-0.364942
-0.359003
-0.352693
-0.346055
-0.339103
-0.331837
-0.324243
-0.31629
-0.307929
-0.299091
-0.289694
-0.279639
-0.268805
-0.256948
-0.244363
-0.232269
-0.200012
-0.391024
-0.384436
-0.378413
-0.372226
-0.365592
-0.358624
-0.351373
-0.34385
-0.336058
-0.32798
-0.31958
-0.310804
-0.301581
-0.29182
-0.281419
-0.270247
-0.258059
-0.245093
-0.232064
-0.198682
-0.401039
-0.393455
-0.386629
-0.37971
-0.372367
-0.364729
-0.35685
-0.348743
-0.340409
-0.331828
-0.322962
-0.313751
-0.304118
-0.293972
-0.28321
-0.271705
-0.259248
-0.246004
-0.231575
-0.198018
-0.411275
-0.402675
-0.395032
-0.387371
-0.379309
-0.370991
-0.362475
-0.353773
-0.344884
-0.335784
-0.326431
-0.31676
-0.306692
-0.296133
-0.28499
-0.273161
-0.260535
-0.247261
-0.232165
-0.205053
-0.421697
-0.412064
-0.403593
-0.395184
-0.386398
-0.377394
-0.368235
-0.358929
-0.349472
-0.339838
-0.329975
-0.319817
-0.309278
-0.298271
-0.286712
-0.274538
-0.261754
-0.248599
-0.235067
-0.226961
-0.432266
-0.421584
-0.41228
-0.403119
-0.393608
-0.383918
-0.374113
-0.364197
-0.354161
-0.343973
-0.333576
-0.322896
-0.311847
-0.300341
-0.288309
-0.275719
-0.262657
-0.249379
-0.235887
-0.231404
-0.442936
-0.431194
-0.421053
-0.411143
-0.400911
-0.390537
-0.380085
-0.369554
-0.358927
-0.348166
-0.337205
-0.325965
-0.314354
-0.30229
-0.289712
-0.276612
-0.263109
-0.249429
-0.235315
-0.230434
-0.453654
-0.440843
-0.429868
-0.419216
-0.408269
-0.397218
-0.386122
-0.374971
-0.363741
-0.352383
-0.340824
-0.328976
-0.316747
-0.304055
-0.290851
-0.27714
-0.263053
-0.248777
-0.233963
-0.2275
-0.464358
-0.450476
-0.438672
-0.42729
-0.415641
-0.403921
-0.392184
-0.380409
-0.368561
-0.356578
-0.344381
-0.331873
-0.31896
-0.305567
-0.291651
-0.277233
-0.262444
-0.247437
-0.231869
-0.223395
-0.474974
-0.460024
-0.447405
-0.435308
-0.422973
-0.410596
-0.398224
-0.385819
-0.373333
-0.360695
-0.347813
-0.334586
-0.320921
-0.306747
-0.292038
-0.276827
-0.261246
-0.245423
-0.229079
-0.218584
-0.485416
-0.46941
-0.455994
-0.443205
-0.430203
-0.417185
-0.404181
-0.391139
-0.377995
-0.364664
-0.351045
-0.337036
-0.322545
-0.307516
-0.291937
-0.275861
-0.259429
-0.242757
-0.225658
-0.213342
-0.495589
-0.478545
-0.464359
-0.450904
-0.43726
-0.423615
-0.409984
-0.396295
-0.382466
-0.368401
-0.35399
-0.339131
-0.323744
-0.307786
-0.291272
-0.27428
-0.256966
-0.239451
-0.221651
-0.207786
-0.505381
-0.487331
-0.472407
-0.458318
-0.444058
-0.429804
-0.415549
-0.4012
-0.386657
-0.371811
-0.356549
-0.340774
-0.32442
-0.307471
-0.289972
-0.272033
-0.253833
-0.235511
-0.217081
-0.201948
-0.514672
-0.495656
-0.480034
-0.465349
-0.450504
-0.435657
-0.420781
-0.405755
-0.390464
-0.374789
-0.358616
-0.34186
-0.324477
-0.306485
-0.287967
-0.269071
-0.250006
-0.230934
-0.211956
-0.195813
-0.523327
-0.503398
-0.487126
-0.471887
-0.456489
-0.441068
-0.42557
-0.40985
-0.393775
-0.377219
-0.360075
-0.342278
-0.323814
-0.304743
-0.285192
-0.265352
-0.245462
-0.225713
-0.206275
-0.189349
-0.531201
-0.510423
-0.493558
-0.477813
-0.461896
-0.44592
-0.429798
-0.413362
-0.396464
-0.378978
-0.360809
-0.341918
-0.322335
-0.302165
-0.281587
-0.260836
-0.240182
-0.21984
-0.200032
-0.182515
-0.538138
-0.51659
-0.499195
-0.482994
-0.466597
-0.450083
-0.433335
-0.416161
-0.398402
-0.379937
-0.360694
-0.340671
-0.319945
-0.298677
-0.277099
-0.25549
-0.234147
-0.213304
-0.193218
-0.175274
-0.543974
-0.521747
-0.503894
-0.487293
-0.470454
-0.45342
-0.436043
-0.418108
-0.399452
-0.379967
-0.359611
-0.33843
-0.316557
-0.294212
-0.271682
-0.249284
-0.227341
-0.206097
-0.185824
-0.167594
-0.54854
-0.525736
-0.507503
-0.490563
-0.473322
-0.455787
-0.437777
-0.419059
-0.399474
-0.378935
-0.357442
-0.335094
-0.312089
-0.288711
-0.265295
-0.242197
-0.219752
-0.198209
-0.177841
-0.159446
-0.551661
-0.528394
-0.509867
-0.492649
-0.475049
-0.457031
-0.438386
-0.418869
-0.39833
-0.376714
-0.354073
-0.33057
-0.306471
-0.282121
-0.257906
-0.234208
-0.21137
-0.189635
-0.169262
-0.150812
-0.553158
-0.529555
-0.510825
-0.493396
-0.47548
-0.457
-0.43772
-0.417391
-0.395881
-0.37318
-0.3494
-0.324774
-0.29964
-0.274403
-0.249491
-0.225307
-0.202189
-0.180371
-0.160083
-0.141676
-0.552855
-0.529052
-0.510216
-0.492643
-0.474458
-0.455538
-0.435628
-0.414482
-0.391998
-0.36822
-0.343328
-0.317633
-0.291544
-0.265524
-0.240033
-0.215485
-0.192207
-0.170415
-0.150303
-0.132031
-0.550578
-0.526721
-0.507879
-0.490233
-0.471825
-0.452492
-0.431962
-0.410004
-0.386557
-0.361727
-0.335773
-0.309086
-0.282144
-0.25546
-0.22952
-0.204739
-0.181424
-0.159769
-0.139921
-0.121872
-0.546159
-0.5224
-0.503657
-0.486011
-0.46743
-0.447714
-0.426583
-0.403829
-0.379445
-0.35361
-0.326667
-0.299085
-0.27141
-0.244197
-0.217949
-0.193072
-0.169846
-0.148437
-0.12894
-0.111199
-0.539439
-0.515937
-0.497399
-0.479827
-0.461127
-0.441063
-0.419358
-0.39584
-0.370564
-0.343791
-0.315951
-0.287594
-0.259325
-0.231732
-0.205324
-0.18049
-0.15748
-0.136427
-0.117368
-0.100017
-0.530271
-0.507188
-0.488965
-0.471542
-0.452779
-0.43241
-0.41017
-0.385933
-0.359829
-0.332207
-0.303585
-0.274591
-0.245881
-0.218067
-0.191654
-0.167007
-0.144337
-0.123748
-0.105214
-0.0883341
-0.518521
-0.496024
-0.478226
-0.461029
-0.442263
-0.421639
-0.398914
-0.374021
-0.347173
-0.318811
-0.289544
-0.260067
-0.231083
-0.203215
-0.176956
-0.152638
-0.130434
-0.110414
-0.0924918
-0.0761661
-0.504074
-0.48233
-0.465066
-0.448174
-0.42947
-0.408649
-0.385504
-0.360036
-0.332547
-0.303576
-0.273816
-0.244028
-0.214946
-0.187197
-0.161251
-0.137406
-0.11579
-0.0964426
-0.0792176
-0.0635306
-0.486836
-0.466011
-0.449389
-0.432883
-0.41431
-0.393361
-0.369874
-0.343928
-0.315922
-0.28649
-0.256409
-0.226492
-0.197496
-0.170041
-0.14457
-0.121336
-0.100429
-0.0818541
-0.065408
-0.050402
-0.466734
-0.446991
-0.43112
-0.415079
-0.396712
-0.375715
-0.351977
-0.325668
-0.297287
-0.267562
-0.237343
-0.20749
-0.178769
-0.151786
-0.126947
-0.104462
-0.0843784
-0.0666745
-0.051089
-0.0367253
-0.44372
-0.425218
-0.410203
-0.39471
-0.376631
-0.355672
-0.331791
-0.305251
-0.276653
-0.246815
-0.216655
-0.187064
-0.158811
-0.132475
-0.108423
-0.0868201
-0.0676723
-0.0509281
-0.0362877
-0.0227699
-0.417773
-0.400667
-0.38661
-0.371748
-0.354042
-0.333221
-0.309317
-0.282693
-0.254051
-0.224295
-0.194397
-0.165271
-0.137677
-0.112161
-0.089047
-0.0684526
-0.0503518
-0.0346702
-0.0209907
-0.00845115
-0.388901
-0.373336
-0.360337
-0.34619
-0.328948
-0.308374
-0.28458
-0.258033
-0.229533
-0.200061
-0.170634
-0.142178
-0.115431
-0.0909039
-0.0688727
-0.0494112
-0.032456
-0.0179153
-0.00528122
0.0062318
-0.357141
-0.343255
-0.331407
-0.318061
-0.301379
-0.281169
-0.257629
-0.231332
-0.203169
-0.174191
-0.145447
-0.117862
-0.0921478
-0.0687716
-0.0479609
-0.0297463
-0.0140335
-0.000709798
0.0108065
0.021242
-0.322558
-0.310481
-0.299875
-0.287412
-0.271392
-0.251671
-0.228539
-0.202673
-0.175051
-0.146778
-0.118927
-0.092412
-0.0679092
-0.0458376
-0.0263779
-0.0095181
0.00486313
0.0168982
0.0272343
0.0365383
-0.285251
-0.2751
-0.265821
-0.254325
-0.239071
-0.219971
-0.197409
-0.172162
-0.145285
-0.117931
-0.0911801
-0.0659267
-0.0428049
-0.0221838
-0.00419644
0.0112085
0.0241764
0.0348572
0.0439573
0.0520759
-0.245348
-0.237229
-0.229354
-0.218909
-0.204528
-0.186185
-0.16436
-0.139925
-0.113996
-0.0877712
-0.0623225
-0.0385135
-0.0169328
0.00210207
0.0185049
0.0323634
0.0438435
0.0531116
0.0609254
0.0678057
-0.203007
-0.197011
-0.190615
-0.181302
-0.167902
-0.150455
-0.129534
-0.106098
-0.0813304
-0.0564358
-0.0324803
-0.0102884
0.00960216
0.0269261
0.0416421
0.0538712
0.063797
0.0716015
0.0780833
0.0836719
-0.158416
-0.154619
-0.149769
-0.141667
-0.129357
-0.112941
-0.0930964
-0.0708534
-0.0474402
-0.0240711
-0.00178958
0.0186251
0.036689
0.0521888
0.0651261
0.0756517
0.0839643
0.090262
0.0953703
0.0996112
-0.111782
-0.110257
-0.107011
-0.100192
-0.0890747
-0.0738375
-0.0552317
-0.0343642
-0.012495
0.00916525
0.0296053
0.0480967
0.064211
0.077786
0.0888636
0.0976206
0.104269
0.109025
0.112723
0.115554
-0.0632939
-0.0641923
-0.062558
-0.0570924
-0.047273
-0.0333458
-0.0161398
0.00317696
0.0233242
0.0431062
0.0615526
0.07799
0.0920466
0.103609
0.112758
0.11969
0.124631
0.127826
0.130082
0.1314
-0.0133523
-0.0165834
-0.0166493
-0.0126061
-0.00418102
0.00830872
0.0239628
0.0415648
0.0598262
0.0775768
0.0938945
0.108164
0.12007
0.129547
0.136708
0.141769
0.144971
0.146608
0.147385
0.146951
0.0378484
0.0322413
0.0304457
0.0330111
0.0399521
0.0508848
0.0648462
0.0805835
0.0968117
0.112396
0.126468
0.138473
0.148153
0.155485
0.160612
0.163763
0.165208
0.165298
0.164465
0.161968
0.0899991
0.0819924
0.0784474
0.0794858
0.0848612
0.0941277
0.106269
0.120008
0.134074
0.147376
0.159106
0.16877
0.176163
0.181307
0.184367
0.185583
0.18526
0.183759
0.180951
0.176402
0.142771
0.132366
0.127059
0.126529
0.130268
0.137772
0.147982
0.159607
0.171402
0.182328
0.191638
0.198903
0.203969
0.206896
0.207871
0.207146
0.205056
0.201879
0.196625
0.190496
0.195827
0.183041
0.17597
0.17384
0.175882
0.181542
0.189726
0.199142
0.20858
0.217057
0.223893
0.22872
0.231436
0.232134
0.231023
0.228367
0.224523
0.219729
0.212956
0.206383
0.248822
0.233685
0.224858
0.221108
0.221406
0.225157
0.231242
0.238376
0.245392
0.25137
0.255699
0.25807
0.258429
0.256902
0.253716
0.249146
0.243552
0.237142
0.229038
0.221765
0.301402
0.283961
0.273395
0.268015
0.266539
0.268333
0.272264
0.277065
0.281619
0.285073
0.286882
0.286799
0.284813
0.28108
0.275843
0.269384
0.26206
0.254049
0.244628
0.236417
0.353212
0.333524
0.321249
0.314242
0.310975
0.310784
0.312529
0.31497
0.317046
0.317973
0.317273
0.314757
0.310456
0.304551
0.297298
0.288986
0.279962
0.270387
0.259666
0.250361
0.403893
0.382031
0.368086
0.359468
0.354411
0.352225
0.351776
0.351855
0.351461
0.349881
0.346705
0.341796
0.335226
0.327199
0.317979
0.307861
0.29718
0.286084
0.274091
0.263616
0.453093
0.429141
0.413577
0.403376
0.396545
0.392377
0.389747
0.387485
0.384654
0.380612
0.375013
0.367773
0.358997
0.348911
0.337788
0.325922
0.313635
0.301071
0.287841
0.276177
0.500462
0.474516
0.457395
0.445653
0.437083
0.430965
0.426191
0.421635
0.416424
0.409986
0.402039
0.392546
0.381646
0.369579
0.356628
0.343084
0.329256
0.315283
0.300862
0.288015
0.545664
0.517831
0.499224
0.485997
0.47574
0.467726
0.460867
0.454086
0.446576
0.437832
0.427632
0.415983
0.403054
0.389099
0.374407
0.359266
0.343973
0.328661
0.313104
0.299103
0.588371
0.558769
0.53876
0.524116
0.51224
0.502403
0.493544
0.484631
0.474925
0.463985
0.451645
0.437955
0.423108
0.407372
0.391039
0.374393
0.357719
0.341149
0.324521
0.30941
0.628275
0.597032
0.575711
0.559733
0.546324
0.534758
0.524001
0.513072
0.501294
0.488289
0.473943
0.458341
0.441702
0.424304
0.406441
0.388393
0.370432
0.352691
0.335066
0.318905
0.665083
0.632335
0.609806
0.592586
0.577746
0.564563
0.552034
0.539226
0.525521
0.5106
0.494396
0.47703
0.458737
0.439808
0.420536
0.401198
0.382053
0.363237
0.344696
0.327556
0.698524
0.664418
0.64079
0.622435
0.60628
0.591611
0.577454
0.562923
0.547455
0.530785
0.512888
0.493916
0.474122
0.453803
0.433253
0.412746
0.392529
0.37274
0.35337
0.335333
0.728352
0.69304
0.668432
0.649057
0.631719
0.615711
0.600088
0.584008
0.566959
0.548722
0.529312
0.508906
0.487773
0.466215
0.444528
0.422981
0.401809
0.381156
0.361049
0.342207
0.754346
0.717987
0.692525
0.672257
0.653879
0.636694
0.619784
0.602344
0.58391
0.564303
0.543572
0.521916
0.499616
0.47698
0.454304
0.431851
0.40985
0.388447
0.3677
0.348152
0.776311
0.73907
0.712887
0.691861
0.672598
0.654412
0.636406
0.617812
0.598202
0.577435
0.555586
0.532872
0.509586
0.48604
0.462529
0.439312
0.416611
0.394576
0.37329
0.353143
0.794083
0.756132
0.729365
0.707723
0.687741
0.668739
0.649842
0.630309
0.609745
0.588037
0.565282
0.541712
0.517629
0.493347
0.469161
0.445327
0.422061
0.399516
0.377795
0.357162
0.807531
0.769043
0.741833
0.719724
0.699196
0.679574
0.66
0.639755
0.618467
0.596046
0.572604
0.548387
0.523701
0.498862
0.474165
0.449865
0.426172
0.403242
0.381193
0.360191
0.816552
0.777706
0.750199
0.727775
0.706879
0.686841
0.666811
0.646087
0.624312
0.601412
0.57751
0.552858
0.527767
0.502556
0.477517
0.452904
0.428924
0.405736
0.383467
0.362217
0.82108
0.782053
0.754398
0.731816
0.710735
0.690487
0.670228
0.649263
0.627244
0.604103
0.57997
0.5551
0.529806
0.504407
0.479197
0.454427
0.430304
0.406986
0.384607
0.363232
0.82108
0.782053
0.754398
0.731816
0.710735
0.690487
0.670228
0.649263
0.627244
0.604103
0.57997
0.5551
0.529806
0.504407
0.479197
0.454427
0.430304
0.406986
0.384607
0.363232
0.816552
0.777706
0.750199
0.727775
0.706879
0.686841
0.666811
0.646087
0.624312
0.601412
0.57751
0.552858
0.527767
0.502556
0.477517
0.452904
0.428924
0.405736
0.383467
0.362217
0.807531
0.769043
0.741833
0.719724
0.699196
0.679574
0.66
0.639755
0.618467
0.596046
0.572604
0.548387
0.523701
0.498862
0.474165
0.449865
0.426172
0.403242
0.381193
0.360191
0.794083
0.756132
0.729365
0.707723
0.687741
0.668739
0.649842
0.630309
0.609745
0.588037
0.565282
0.541712
0.517629
0.493347
0.469161
0.445327
0.422061
0.399516
0.377795
0.357162
0.776311
0.739071
0.712887
0.691861
0.672598
0.654412
0.636406
0.617812
0.598202
0.577435
0.555586
0.532872
0.509586
0.48604
0.462529
0.439312
0.416611
0.394576
0.37329
0.353143
0.754346
0.717987
0.692525
0.672257
0.653879
0.636694
0.619784
0.602344
0.58391
0.564303
0.543572
0.521916
0.499616
0.47698
0.454304
0.431851
0.40985
0.388447
0.3677
0.348152
0.728352
0.69304
0.668432
0.649057
0.631719
0.615711
0.600088
0.584008
0.566959
0.548722
0.529312
0.508906
0.487773
0.466215
0.444528
0.422981
0.401809
0.381156
0.361049
0.342207
0.698524
0.664418
0.64079
0.622435
0.60628
0.591611
0.577454
0.562923
0.547455
0.530785
0.512888
0.493916
0.474122
0.453803
0.433253
0.412746
0.392529
0.37274
0.35337
0.335333
0.665083
0.632335
0.609806
0.592586
0.577746
0.564563
0.552034
0.539226
0.525521
0.5106
0.494396
0.47703
0.458737
0.439808
0.420536
0.401198
0.382053
0.363237
0.344696
0.327556
0.628275
0.597032
0.575711
0.559733
0.546324
0.534758
0.524001
0.513072
0.501294
0.488289
0.473943
0.458341
0.441702
0.424304
0.406441
0.388393
0.370432
0.352691
0.335066
0.318905
0.588371
0.558769
0.53876
0.524116
0.51224
0.502403
0.493544
0.484631
0.474925
0.463985
0.451645
0.437955
0.423108
0.407372
0.391039
0.374393
0.357719
0.341149
0.324521
0.309411
0.545664
0.517831
0.499224
0.485997
0.47574
0.467726
0.460867
0.454086
0.446576
0.437832
0.427632
0.415983
0.403054
0.389099
0.374407
0.359266
0.343973
0.328661
0.313104
0.299104
0.500462
0.474516
0.457395
0.445653
0.437083
0.430966
0.426191
0.421635
0.416424
0.409986
0.402039
0.392546
0.381646
0.369579
0.356628
0.343084
0.329256
0.315283
0.300862
0.288015
0.453093
0.429141
0.413577
0.403376
0.396545
0.392377
0.389747
0.387485
0.384654
0.380612
0.375013
0.367773
0.358997
0.348911
0.337788
0.325922
0.313635
0.301071
0.287841
0.276177
0.403893
0.382031
0.368086
0.359468
0.354411
0.352225
0.351776
0.351855
0.351461
0.349881
0.346705
0.341796
0.335226
0.327199
0.317979
0.307861
0.29718
0.286084
0.274091
0.263616
0.353212
0.333524
0.321249
0.314242
0.310975
0.310784
0.312529
0.31497
0.317046
0.317973
0.317273
0.314757
0.310456
0.304551
0.297298
0.288986
0.279962
0.270387
0.259666
0.250361
0.301402
0.283961
0.273395
0.268015
0.266539
0.268333
0.272264
0.277065
0.281619
0.285073
0.286882
0.286799
0.284813
0.28108
0.275843
0.269384
0.26206
0.254049
0.244628
0.236417
0.248822
0.233685
0.224858
0.221108
0.221406
0.225157
0.231242
0.238376
0.245392
0.25137
0.255699
0.25807
0.258429
0.256902
0.253716
0.249146
0.243552
0.237142
0.229038
0.221765
0.195827
0.183041
0.17597
0.17384
0.175882
0.181542
0.189726
0.199143
0.20858
0.217057
0.223893
0.22872
0.231436
0.232134
0.231023
0.228367
0.224523
0.219729
0.212956
0.206383
0.142771
0.132366
0.127059
0.126529
0.130268
0.137772
0.147982
0.159607
0.171402
0.182328
0.191638
0.198903
0.203969
0.206896
0.207871
0.207146
0.205056
0.201879
0.196625
0.190496
0.0899991
0.0819925
0.0784475
0.0794859
0.0848613
0.0941278
0.106269
0.120008
0.134074
0.147376
0.159106
0.16877
0.176163
0.181307
0.184367
0.185583
0.18526
0.18376
0.180951
0.176402
0.0378484
0.0322414
0.0304458
0.0330111
0.0399522
0.0508848
0.0648463
0.0805835
0.0968117
0.112396
0.126468
0.138473
0.148153
0.155485
0.160612
0.163763
0.165208
0.165298
0.164465
0.161969
-0.0133522
-0.0165834
-0.0166493
-0.012606
-0.00418097
0.00830877
0.0239629
0.0415649
0.0598263
0.0775768
0.0938945
0.108164
0.12007
0.129547
0.136708
0.141769
0.144971
0.146608
0.147385
0.146951
-0.0632939
-0.0641923
-0.062558
-0.0570923
-0.0472729
-0.0333458
-0.0161397
0.003177
0.0233243
0.0431062
0.0615527
0.07799
0.0920466
0.103609
0.112758
0.11969
0.124631
0.127826
0.130082
0.1314
-0.111782
-0.110257
-0.107011
-0.100192
-0.0890747
-0.0738375
-0.0552316
-0.0343642
-0.0124949
0.0091653
0.0296053
0.0480967
0.0642111
0.0777861
0.0888636
0.0976207
0.104269
0.109025
0.112723
0.115554
-0.158416
-0.154619
-0.149769
-0.141667
-0.129357
-0.112941
-0.0930963
-0.0708534
-0.0474402
-0.024071
-0.00178953
0.0186252
0.0366891
0.0521889
0.0651261
0.0756518
0.0839644
0.0902621
0.0953704
0.0996113
-0.203007
-0.197011
-0.190615
-0.181302
-0.167902
-0.150455
-0.129534
-0.106098
-0.0813303
-0.0564358
-0.0324803
-0.0102883
0.00960221
0.0269261
0.0416421
0.0538712
0.063797
0.0716015
0.0780834
0.0836719
-0.245348
-0.237228
-0.229354
-0.218909
-0.204528
-0.186185
-0.16436
-0.139925
-0.113996
-0.0877711
-0.0623225
-0.0385135
-0.0169328
0.00210212
0.0185049
0.0323635
0.0438436
0.0531117
0.0609254
0.0678058
-0.285251
-0.2751
-0.265821
-0.254325
-0.239071
-0.219971
-0.197409
-0.172162
-0.145285
-0.117931
-0.09118
-0.0659266
-0.0428048
-0.0221837
-0.00419639
0.0112086
0.0241764
0.0348572
0.0439573
0.052076
-0.322558
-0.310481
-0.299875
-0.287412
-0.271392
-0.251671
-0.228539
-0.202673
-0.175051
-0.146778
-0.118927
-0.0924119
-0.0679091
-0.0458375
-0.0263779
-0.00951805
0.00486318
0.0168982
0.0272343
0.0365383
-0.357141
-0.343255
-0.331407
-0.318061
-0.301379
-0.281169
-0.257629
-0.231332
-0.203169
-0.174191
-0.145447
-0.117862
-0.0921478
-0.0687715
-0.0479609
-0.0297463
-0.0140335
-0.000709747
0.0108065
0.0212421
-0.388901
-0.373336
-0.360337
-0.34619
-0.328948
-0.308374
-0.28458
-0.258033
-0.229533
-0.200061
-0.170634
-0.142178
-0.115431
-0.0909038
-0.0688727
-0.0494111
-0.032456
-0.0179153
-0.00528117
0.00623186
-0.417773
-0.400666
-0.38661
-0.371748
-0.354042
-0.333221
-0.309317
-0.282693
-0.254051
-0.224295
-0.194397
-0.165271
-0.137677
-0.112161
-0.0890469
-0.0684526
-0.0503518
-0.0346701
-0.0209906
-0.0084511
-0.44372
-0.425218
-0.410203
-0.39471
-0.376631
-0.355672
-0.331791
-0.305251
-0.276653
-0.246815
-0.216655
-0.187064
-0.158811
-0.132475
-0.108423
-0.08682
-0.0676722
-0.0509281
-0.0362877
-0.0227699
-0.466734
-0.446991
-0.43112
-0.415079
-0.396712
-0.375715
-0.351977
-0.325668
-0.297287
-0.267561
-0.237343
-0.20749
-0.178769
-0.151786
-0.126947
-0.104462
-0.0843783
-0.0666744
-0.0510889
-0.0367252
-0.486836
-0.466011
-0.449389
-0.432883
-0.41431
-0.393361
-0.369874
-0.343928
-0.315922
-0.28649
-0.256409
-0.226492
-0.197496
-0.170041
-0.14457
-0.121336
-0.100429
-0.081854
-0.0654079
-0.050402
-0.504074
-0.48233
-0.465066
-0.448174
-0.42947
-0.408649
-0.385504
-0.360036
-0.332547
-0.303576
-0.273816
-0.244028
-0.214946
-0.187197
-0.161251
-0.137406
-0.11579
-0.0964425
-0.0792176
-0.0635306
-0.518521
-0.496024
-0.478226
-0.461029
-0.442263
-0.421639
-0.398914
-0.374021
-0.347173
-0.318811
-0.289543
-0.260067
-0.231083
-0.203215
-0.176956
-0.152638
-0.130434
-0.110414
-0.0924917
-0.076166
-0.530271
-0.507188
-0.488965
-0.471542
-0.452779
-0.43241
-0.41017
-0.385933
-0.359829
-0.332207
-0.303585
-0.274591
-0.245881
-0.218067
-0.191654
-0.167007
-0.144337
-0.123748
-0.105214
-0.088334
-0.539439
-0.515937
-0.497399
-0.479827
-0.461127
-0.441063
-0.419358
-0.39584
-0.370564
-0.343791
-0.315951
-0.287594
-0.259325
-0.231731
-0.205324
-0.18049
-0.15748
-0.136427
-0.117368
-0.100017
-0.546159
-0.5224
-0.503657
-0.486011
-0.46743
-0.447714
-0.426583
-0.403829
-0.379445
-0.35361
-0.326666
-0.299085
-0.27141
-0.244197
-0.217949
-0.193072
-0.169846
-0.148437
-0.12894
-0.111199
-0.550578
-0.526721
-0.507879
-0.490233
-0.471825
-0.452492
-0.431962
-0.410004
-0.386557
-0.361727
-0.335773
-0.309086
-0.282144
-0.25546
-0.22952
-0.204739
-0.181424
-0.159769
-0.139921
-0.121872
-0.552855
-0.529052
-0.510216
-0.492643
-0.474458
-0.455538
-0.435628
-0.414482
-0.391998
-0.36822
-0.343328
-0.317633
-0.291544
-0.265524
-0.240033
-0.215485
-0.192207
-0.170415
-0.150303
-0.132031
-0.553158
-0.529555
-0.510825
-0.493396
-0.47548
-0.457
-0.43772
-0.417391
-0.395881
-0.37318
-0.3494
-0.324774
-0.29964
-0.274403
-0.249491
-0.225307
-0.202189
-0.180371
-0.160083
-0.141676
-0.55166
-0.528394
-0.509867
-0.492649
-0.475049
-0.457031
-0.438386
-0.418869
-0.39833
-0.376714
-0.354073
-0.33057
-0.306471
-0.282121
-0.257906
-0.234208
-0.21137
-0.189635
-0.169262
-0.150812
-0.54854
-0.525736
-0.507503
-0.490563
-0.473322
-0.455787
-0.437777
-0.419059
-0.399474
-0.378935
-0.357442
-0.335094
-0.312089
-0.288711
-0.265295
-0.242197
-0.219752
-0.198209
-0.177841
-0.159446
-0.543974
-0.521747
-0.503893
-0.487293
-0.470454
-0.45342
-0.436043
-0.418108
-0.399452
-0.379967
-0.359611
-0.33843
-0.316557
-0.294212
-0.271682
-0.249284
-0.227341
-0.206097
-0.185824
-0.167594
-0.538138
-0.51659
-0.499195
-0.482994
-0.466597
-0.450083
-0.433335
-0.416161
-0.398402
-0.379937
-0.360694
-0.340671
-0.319945
-0.298677
-0.277099
-0.25549
-0.234147
-0.213304
-0.193218
-0.175274
-0.531201
-0.510423
-0.493558
-0.477812
-0.461896
-0.44592
-0.429798
-0.413362
-0.396464
-0.378977
-0.360809
-0.341918
-0.322335
-0.302165
-0.281587
-0.260836
-0.240182
-0.21984
-0.200032
-0.182515
-0.523327
-0.503398
-0.487126
-0.471887
-0.456489
-0.441068
-0.42557
-0.40985
-0.393775
-0.377219
-0.360075
-0.342278
-0.323814
-0.304743
-0.285192
-0.265352
-0.245462
-0.225713
-0.206275
-0.189349
-0.514672
-0.495656
-0.480034
-0.465349
-0.450504
-0.435657
-0.420781
-0.405755
-0.390464
-0.374789
-0.358616
-0.341859
-0.324477
-0.306485
-0.287967
-0.269071
-0.250006
-0.230934
-0.211956
-0.195813
-0.505381
-0.487331
-0.472407
-0.458318
-0.444058
-0.429804
-0.415549
-0.4012
-0.386657
-0.371811
-0.356549
-0.340774
-0.32442
-0.307471
-0.289972
-0.272033
-0.253833
-0.235511
-0.217081
-0.201948
-0.495589
-0.478545
-0.464359
-0.450904
-0.43726
-0.423615
-0.409984
-0.396295
-0.382466
-0.368401
-0.35399
-0.339131
-0.323744
-0.307786
-0.291272
-0.27428
-0.256966
-0.239451
-0.221651
-0.207786
-0.485416
-0.46941
-0.455994
-0.443205
-0.430203
-0.417185
-0.404181
-0.391139
-0.377995
-0.364664
-0.351045
-0.337036
-0.322545
-0.307516
-0.291937
-0.275861
-0.259429
-0.242757
-0.225658
-0.213342
-0.474974
-0.460024
-0.447405
-0.435308
-0.422973
-0.410596
-0.398224
-0.385819
-0.373333
-0.360695
-0.347813
-0.334586
-0.320921
-0.306747
-0.292038
-0.276827
-0.261246
-0.245423
-0.229079
-0.218584
-0.464358
-0.450476
-0.438672
-0.42729
-0.415641
-0.403921
-0.392184
-0.380409
-0.36856
-0.356578
-0.344381
-0.331873
-0.31896
-0.305566
-0.291651
-0.277233
-0.262444
-0.247437
-0.231869
-0.223395
-0.453654
-0.440843
-0.429868
-0.419216
-0.408269
-0.397218
-0.386122
-0.374971
-0.363741
-0.352383
-0.340824
-0.328976
-0.316747
-0.304055
-0.290851
-0.27714
-0.263053
-0.248777
-0.233963
-0.2275
-0.442936
-0.431194
-0.421053
-0.411143
-0.400911
-0.390537
-0.380085
-0.369554
-0.358927
-0.348166
-0.337205
-0.325965
-0.314354
-0.30229
-0.289712
-0.276612
-0.263109
-0.249429
-0.235315
-0.230434
-0.432266
-0.421584
-0.41228
-0.403119
-0.393608
-0.383918
-0.374113
-0.364197
-0.354161
-0.343973
-0.333576
-0.322896
-0.311847
-0.300341
-0.288309
-0.275719
-0.262657
-0.249379
-0.235887
-0.231404
-0.421697
-0.412064
-0.403593
-0.395184
-0.386398
-0.377394
-0.368235
-0.358929
-0.349472
-0.339838
-0.329975
-0.319817
-0.309278
-0.298271
-0.286712
-0.274538
-0.261754
-0.248599
-0.235067
-0.226961
-0.411275
-0.402675
-0.395032
-0.387371
-0.379309
-0.370991
-0.362475
-0.353773
-0.344884
-0.335784
-0.326431
-0.31676
-0.306692
-0.296133
-0.28499
-0.273161
-0.260535
-0.247261
-0.232165
-0.205053
-0.401039
-0.393455
-0.386629
-0.37971
-0.372367
-0.364729
-0.35685
-0.348743
-0.340409
-0.331828
-0.322962
-0.313751
-0.304118
-0.293972
-0.28321
-0.271705
-0.259248
-0.246003
-0.231575
-0.198018
-0.391024
-0.384436
-0.378413
-0.372226
-0.365592
-0.358624
-0.351373
-0.34385
-0.336058
-0.32798
-0.31958
-0.310804
-0.301581
-0.29182
-0.281419
-0.270247
-0.258059
-0.245093
-0.232064
-0.198681
-0.381261
-0.375648
-0.370413
-0.364942
-0.359003
-0.352693
-0.346055
-0.339103
-0.331837
-0.324243
-0.31629
-0.307929
-0.299091
-0.289694
-0.279639
-0.268805
-0.256948
-0.244363
-0.232269
-0.200012
-0.37178
-0.367119
-0.362652
-0.35788
-0.352618
-0.346948
-0.340906
-0.334506
-0.327749
-0.320622
-0.313097
-0.305128
-0.296656
-0.287602
-0.277878
-0.267375
-0.255865
-0.243683
-0.232111
-0.201336
-0.362613
-0.358878
-0.355157
-0.351063
-0.346456
-0.341403
-0.335937
-0.330068
-0.323799
-0.317118
-0.31
-0.302404
-0.294277
-0.285549
-0.276141
-0.265957
-0.254794
-0.243028
-0.231807
-0.202863
-0.353789
-0.350954
-0.347954
-0.344512
-0.340535
-0.336074
-0.331158
-0.325798
-0.319993
-0.313736
-0.307003
-0.29976
-0.291958
-0.283538
-0.274431
-0.264556
-0.253737
-0.242389
-0.231443
-0.204563
-0.345344
-0.343378
-0.34107
-0.338252
-0.334875
-0.330978
-0.326585
-0.321704
-0.316339
-0.310481
-0.304111
-0.297198
-0.289703
-0.281573
-0.272753
-0.263175
-0.252696
-0.241758
-0.231046
-0.20634
-0.337314
-0.336181
-0.334534
-0.332309
-0.329499
-0.326134
-0.322231
-0.317802
-0.312848
-0.307363
-0.301331
-0.294727
-0.287517
-0.27966
-0.271113
-0.261821
-0.251676
-0.241131
-0.230639
-0.208127
-0.329737
-0.329399
-0.328377
-0.326709
-0.324432
-0.321563
-0.318118
-0.314107
-0.309534
-0.304394
-0.298675
-0.292357
-0.285412
-0.27781
-0.26952
-0.260502
-0.250683
-0.240511
-0.230245
-0.209877
-0.322655
-0.323067
-0.322632
-0.321483
-0.319699
-0.317289
-0.314265
-0.310639
-0.306415
-0.301592
-0.296159
-0.290102
-0.283401
-0.276036
-0.267987
-0.259231
-0.249726
-0.239903
-0.229876
-0.211549
-0.31611
-0.317222
-0.317331
-0.31666
-0.315329
-0.313337
-0.310696
-0.30742
-0.303512
-0.298974
-0.2938
-0.28798
-0.281502
-0.274354
-0.266529