/*--------------------------------*- C++ -*----------------------------------*\
  =========                 |
  \\      /  F ield         | OpenFOAM: The Open Source CFD Toolbox
   \\    /   O peration     | Website:  https://openfoam.org
    \\  /    A nd           | Version:  7
     \\/     M anipulation  |
\*---------------------------------------------------------------------------*/
FoamFile
{
    version     2.0;
    format      ascii;
    class       volVectorField;
    location    "34.999328";
    object      U;
}
// * * * * * * * * * * * * * * * * * * * * * * * * * * * * * * * * * * * * * //

dimensions      [0 1 -1 0 0 0 0];

internalField   nonuniform List<vector> 
23200
(
(-0.000614353 0.000829302 -2.16652e-21)
(-0.00368108 0.00208618 -7.64292e-21)
(-0.00999506 0.00302658 1.39067e-21)
(-0.0183879 0.00370376 5.26704e-21)
(-0.0283281 0.00415678 2.24439e-21)
(-0.0393954 0.00442307 -5.47231e-21)
(-0.0511822 0.00453904 -1.73945e-21)
(-0.0633438 0.00453818 -6.83498e-22)
(-0.0756026 0.00444988 -6.29217e-21)
(-0.0877394 0.0042984 -1.21287e-21)
(-0.0995843 0.00410204 -7.13033e-21)
(-0.111004 0.00387288 7.59553e-22)
(-0.121887 0.00361708 -2.39985e-21)
(-0.132128 0.0033361 4.32708e-21)
(-0.14162 0.00302899 -5.58648e-21)
(-0.150246 0.00269606 -5.97732e-21)
(-0.157885 0.00234387 -1.73093e-21)
(-0.1645 0.00200162 9.46176e-21)
(-0.17012 0.00171685 -8.07961e-21)
(-0.174542 0.00150074 -4.81517e-22)
(-0.000732731 0.00246958 -1.88318e-21)
(-0.00394527 0.006216 -5.40508e-21)
(-0.0103071 0.00902242 4.61406e-21)
(-0.0186774 0.0110454 1.08587e-20)
(-0.0285367 0.0124004 1.86653e-21)
(-0.0394733 0.013198 3.27936e-22)
(-0.0510859 0.0135466 -3.74466e-21)
(-0.0630343 0.0135457 2.01508e-21)
(-0.0750433 0.0132831 -1.16385e-20)
(-0.0868941 0.0128313 7.27631e-21)
(-0.0984161 0.0122452 2.64579e-20)
(-0.109474 0.011561 -4.44075e-21)
(-0.119953 0.0107975 6.55318e-21)
(-0.129745 0.00995907 -3.9802e-21)
(-0.138738 0.0090423 1.03706e-20)
(-0.146808 0.00804703 -1.24313e-21)
(-0.15382 0.00698936 5.76195e-21)
(-0.159711 0.00595222 -3.52735e-20)
(-0.164534 0.00509566 3.51162e-21)
(-0.167704 0.00437671 -1.46835e-20)
(-0.000964917 0.0040539 1.02532e-20)
(-0.00446446 0.0102155 1.02225e-20)
(-0.0109215 0.0148421 -2.28255e-21)
(-0.0192481 0.0181844 -5.00117e-21)
(-0.0289482 0.0204281 -1.95017e-21)
(-0.039626 0.0217531 6.92928e-21)
(-0.050893 0.022336 1.02077e-20)
(-0.0624174 0.0223405 -2.2571e-20)
(-0.0739282 0.021911 6.47269e-21)
(-0.0852078 0.0211674 -8.16155e-21)
(-0.0960834 0.0202012 -1.40143e-20)
(-0.106415 0.0190731 -2.72587e-21)
(-0.116083 0.017815 -4.22368e-21)
(-0.124972 0.0164343 -9.63622e-21)
(-0.132959 0.0149242 1.13256e-20)
(-0.13991 0.0132812 -1.07713e-20)
(-0.145657 0.0115211 1.38393e-21)
(-0.150081 0.00976246 3.4629e-20)
(-0.153356 0.00834131 -2.44318e-20)
(-0.153977 0.00690779 2.19484e-20)
(-0.00130208 0.00554798 -7.59053e-21)
(-0.00522079 0.014004 1.35861e-20)
(-0.0118193 0.0203753 -1.9324e-20)
(-0.0200837 0.024992 8.88303e-21)
(-0.0295512 0.0281014 -4.79973e-20)
(-0.0398477 0.0299457 -2.9283e-20)
(-0.0506026 0.0307647 1.8359e-20)
(-0.0614961 0.0307821 4.44999e-20)
(-0.0722632 0.0301966 -1.82657e-20)
(-0.0826875 0.0291745 -1.25287e-20)
(-0.0925926 0.0278431 -1.78894e-20)
(-0.101832 0.0262886 3.64553e-20)
(-0.110275 0.0245566 4.5085e-20)
(-0.117794 0.0226584 -3.55413e-20)
(-0.124252 0.0205826 -2.89077e-20)
(-0.129499 0.0183192 1.07906e-20)
(-0.133329 0.0158709 -2.39288e-20)
(-0.135486 0.0133472 -1.14431e-21)
(-0.13655 0.0114023 4.02397e-20)
(-0.133221 0.00889413 7.21928e-21)
(-0.00173176 0.00692181 3.0032e-20)
(-0.00618894 0.0175096 9.05541e-21)
(-0.0129731 0.0255218 3.07777e-20)
(-0.021161 0.0313496 -9.22925e-21)
(-0.0303286 0.0352904 4.68043e-20)
(-0.0401286 0.0376398 2.81828e-20)
(-0.0502121 0.0386942 -3.37093e-20)
(-0.0602735 0.0387322 -4.31971e-20)
(-0.0700553 0.0380037 3.95316e-20)
(-0.0793414 0.0367191 -1.11253e-20)
(-0.08795 0.0350415 1.65031e-20)
(-0.0957234 0.0330825 -6.51856e-20)
(-0.102516 0.0309035 2.28306e-20)
(-0.108183 0.0285208 8.46791e-21)
(-0.112561 0.0259181 4.78986e-21)
(-0.115484 0.0230772 1.78512e-20)
(-0.116723 0.0199789 4.67767e-20)
(-0.115693 0.016631 1.23134e-21)
(-0.114002 0.0142663 -1.41579e-20)
(-0.10513 0.0102118 -1.84215e-20)
(-0.00223878 0.00815105 2.07662e-20)
(-0.00733773 0.0206719 9.77879e-21)
(-0.0143493 0.0301951 -5.01111e-20)
(-0.0224499 0.0371516 -2.95504e-20)
(-0.0312581 0.041876 -1.15419e-20)
(-0.0404549 0.044708 3.82316e-20)
(-0.0497155 0.0459921 4.51242e-20)
(-0.0587501 0.0460563 -5.51318e-21)
(-0.0673087 0.0451973 -1.05732e-20)
(-0.0751745 0.0436674 -9.17477e-21)
(-0.0821572 0.0416641 -2.95751e-20)
(-0.0880834 0.0393255 6.71788e-20)
(-0.0927862 0.0367302 -3.75696e-22)
(-0.0960933 0.033902 -2.61858e-20)
(-0.0978046 0.0308209 -2.26012e-21)
(-0.0977225 0.02746 5.31e-21)
(-0.0956724 0.0237906 1.67212e-20)
(-0.0903375 0.0195611 -6.18873e-20)
(-0.0854375 0.0169179 2.83751e-20)
(-0.0691735 0.0109532 -7.41911e-21)
(-0.00280633 0.00921799 -3.46464e-20)
(-0.00863208 0.0234444 1.91064e-20)
(-0.0159088 0.0343248 2.25149e-20)
(-0.0239152 0.0423082 1.91546e-20)
(-0.0323114 0.0477537 4.09787e-20)
(-0.0408069 0.0510342 5.90208e-21)
(-0.049101 0.0525346 -5.75155e-21)
(-0.0569199 0.0526255 1.73034e-20)
(-0.0640203 0.0516457 -2.58182e-20)
(-0.0701825 0.0498861 -2.57431e-21)
(-0.0752038 0.0475778 1.25097e-20)
(-0.0788885 0.044885 -5.70319e-20)
(-0.0810391 0.0419055 -1.89377e-20)
(-0.0814467 0.0386742 1.76752e-20)
(-0.0798565 0.0351693 -4.25693e-20)
(-0.0759977 0.031356 4.74191e-20)
(-0.0699366 0.0272374 5.87856e-21)
(-0.0589558 0.0221853 -7.05014e-21)
(-0.0502807 0.0191906 -7.74877e-20)
(-0.0246855 0.0116177 4.53267e-20)
(-0.00341712 0.0101121 -1.36799e-20)
(-0.0100351 0.0257959 -1.41932e-20)
(-0.0176096 0.0378588 -6.63325e-20)
(-0.025517 0.0467481 -2.91553e-20)
(-0.0334545 0.0528349 -9.84889e-20)
(-0.0411573 0.0565162 -8.26649e-21)
(-0.0483473 0.0582085 -4.83164e-20)
(-0.0547654 0.0583187 -3.43962e-20)
(-0.0601724 0.0572225 7.56104e-20)
(-0.0643428 0.0552459 1.28257e-20)
(-0.0670556 0.0526511 3.21174e-20)
(-0.0680847 0.0496287 4.04478e-20)
(-0.0671903 0.0462974 -1.37387e-20)
(-0.064114 0.0427063 -4.58411e-20)
(-0.0585318 0.0388384 4.14834e-20)
(-0.0500019 0.0346572 3.93371e-20)
(-0.0390969 0.0301811 -3.9666e-20)
(-0.0211048 0.0247502 5.5776e-20)
(-0.0075243 0.0206912 8.76981e-20)
(0.0289877 0.0125684 2.4482e-20)
(-0.00405456 0.0108302 3.64036e-20)
(-0.0115101 0.0277105 4.19746e-20)
(-0.0194082 0.0407639 2.03054e-20)
(-0.0272111 0.0504193 5.01196e-20)
(-0.0346458 0.0570497 2.29273e-20)
(-0.041468 0.0610678 6.04017e-20)
(-0.0474187 0.0629146 5.21007e-20)
(-0.0522497 0.0630266 -2.05678e-20)
(-0.055723 0.0618111 -3.305e-20)
(-0.0576012 0.0596253 5.90284e-20)
(-0.0576378 0.05676 -3.72519e-20)
(-0.0555659 0.0534318 2.73846e-20)
(-0.0510879 0.0497813 3.72707e-20)
(-0.0438784 0.0458758 4.13774e-20)
(-0.0335379 0.0417167 -1.21693e-19)
(-0.0193567 0.0373217 -5.79966e-20)
(-0.00242576 0.0324195 -1.58251e-20)
(0.0238412 0.0271404 6.71304e-20)
(0.0435121 0.0219807 -1.47291e-19)
(0.0941689 0.0136651 -5.56597e-20)
(-0.00470382 0.011376 5.40156e-20)
(-0.0130226 0.0291873 -6.23907e-20)
(-0.0212607 0.0430259 -6.47631e-20)
(-0.0289492 0.0532901 -6.65572e-20)
(-0.0358347 0.060348 -4.09406e-20)
(-0.0416863 0.0646217 -9.70081e-21)
(-0.046258 0.0665705 -6.59467e-20)
(-0.0493077 0.066655 8.18349e-20)
(-0.0505922 0.0653091 2.36477e-20)
(-0.0498547 0.0629169 2.31233e-20)
(-0.0468127 0.0597956 -9.36265e-20)
(-0.0411445 0.0561862 1.44302e-20)
(-0.0324766 0.0522529 -1.15717e-20)
(-0.0203886 0.0480856 -3.94898e-21)
(-0.00437531 0.0437136 -4.58659e-20)
(0.0164944 0.0392113 5.99615e-20)
(0.0406974 0.0339778 -1.31742e-20)
(0.0774311 0.0291349 -1.50319e-19)
(0.103389 0.0236256 2.13497e-20)
(0.173042 0.015222 1.04266e-19)
(-0.00535266 0.0117594 3.84736e-20)
(-0.0145413 0.0302391 -1.19333e-20)
(-0.0231234 0.0446484 6.7973e-20)
(-0.0306779 0.0553486 3.37111e-20)
(-0.0369587 0.0627 4.7932e-20)
(-0.0417391 0.0671306 4.42942e-21)
(-0.0447786 0.0691139 8.95973e-20)
(-0.0458334 0.0691299 -8.03568e-20)
(-0.044646 0.0676348 -3.65352e-20)
(-0.0409295 0.0650361 -1.48246e-20)
(-0.0343511 0.0616745 9.31934e-20)
(-0.0245162 0.057815 -1.63996e-20)
(-0.0109528 0.0536467 1.40778e-20)
(0.00688126 0.0492855 5.81133e-20)
(0.0296143 0.0447868 5.58862e-20)
(0.0585276 0.0402929 -9.78579e-20)
(0.0911804 0.034962 -5.46761e-20)
(0.141035 0.0309775 2.94989e-20)
(0.173353 0.0251908 9.48096e-20)
(0.267169 0.0182227 -1.24394e-20)
(-0.00599194 0.011995 -5.0946e-20)
(-0.0160387 0.0308897 -2.70411e-20)
(-0.0249525 0.04565 -3.70637e-20)
(-0.0323368 0.0566013 -3.55651e-20)
(-0.0379392 0.0640968 4.01961e-20)
(-0.0415267 0.06857 -7.73341e-20)
(-0.0428544 0.0705067 7.56664e-20)
(-0.0416659 0.0704033 5.15332e-21)
(-0.0376774 0.0687353 -6.40004e-20)
(-0.0305561 0.0659307 -1.45912e-20)
(-0.0199 0.0623527 -5.92351e-20)
(-0.00521851 0.0582903 2.68144e-20)
(0.0140849 0.0539603 -1.85382e-20)
(0.0387041 0.0495106 -1.12125e-19)
(0.0693843 0.045025 5.24509e-21)
(0.107914 0.0408017 3.52252e-20)
(0.150406 0.0353849 7.78126e-20)
(0.215957 0.0332665 1.36337e-19)
(0.254829 0.0265469 2.32864e-20)
(0.377209 0.0233514 -1.46289e-19)
(-0.00661565 0.0121007 -7.0405e-20)
(-0.0174909 0.031171 -9.62981e-21)
(-0.026703 0.0460623 1.32418e-19)
(-0.0338557 0.0570711 -5.88702e-20)
(-0.0386765 0.0645495 2.96162e-21)
(-0.0409145 0.0689389 -5.58334e-20)
(-0.0403078 0.0707382 -5.32628e-20)
(-0.0365738 0.0704592 8.54575e-21)
(-0.0293848 0.0685951 2.79913e-20)
(-0.0183418 0.0655939 1.03649e-19)
(-0.00294871 0.0618414 -3.27864e-20)
(0.0174078 0.0576539 -1.40531e-19)
(0.0434763 0.0532809 9.99054e-20)
(0.0761295 0.0489114 8.67266e-20)
(0.116204 0.0446524 5.66111e-20)
(0.166057 0.0411208 1.42619e-19)
(0.22006 0.0355993 -4.65527e-20)
(0.303132 0.0366438 -2.14486e-19)
(0.349359 0.0282463 3.48585e-20)
(0.501858 0.0310305 4.06051e-20)
(-0.00722049 0.0120956 -3.65938e-20)
(-0.0188765 0.0311194 4.6333e-20)
(-0.0283255 0.0459251 -4.60954e-20)
(-0.0351501 0.0567947 7.2353e-20)
(-0.0390437 0.064088 -8.24567e-20)
(-0.0397246 0.0682616 7.57657e-20)
(-0.0368987 0.0698292 1.49913e-20)
(-0.030239 0.0693201 -8.03411e-20)
(-0.019352 0.0672461 6.69789e-20)
(-0.00374619 0.0640771 -7.2268e-20)
(0.0171975 0.0602252 8.95474e-20)
(0.0442442 0.0560395 4.81759e-20)
(0.0783142 0.0518114 3.87869e-20)
(0.120467 0.0477835 -5.90961e-20)
(0.17158 0.0440672 -9.74257e-21)
(0.234414 0.0417839 -7.53964e-20)
(0.301851 0.0364152 5.2691e-20)
(0.402489 0.0415869 2.41825e-21)
(0.458007 0.0316044 -9.30698e-20)
(0.63681 0.0415057 4.00505e-20)
(-0.00780493 0.0119985 8.25533e-21)
(-0.0201734 0.0307717 2.96997e-20)
(-0.0297633 0.045283 6.40293e-21)
(-0.0361168 0.0558188 2.40564e-20)
(-0.0388803 0.0627608 5.68968e-20)
(-0.0377269 0.0665877 5.2944e-20)
(-0.0323127 0.0678348 3.73204e-20)
(-0.0222431 0.0670533 4.65503e-20)
(-0.00703211 0.0647777 -9.36869e-20)
(0.0139348 0.0615045 -1.36371e-20)
(0.0414294 0.0576794 -1.47599e-19)
(0.0763905 0.0536943 -4.61766e-20)
(0.119909 0.0498935 -5.2599e-20)
(0.173186 0.0465876 8.59469e-20)
(0.237057 0.0438692 -1.34709e-19)
(0.31416 0.0434118 2.60186e-20)
(0.396843 0.0390631 1.02336e-20)
(0.512486 0.0482944 1.32826e-19)
(0.580021 0.0382334 -6.56231e-20)
(0.774441 0.0547664 4.95145e-20)
(-0.00836782 0.0118255 1.09418e-19)
(-0.0213566 0.0301614 3.77246e-20)
(-0.0309475 0.0441813 6.79087e-20)
(-0.036628 0.0541987 6.0987e-20)
(-0.0379856 0.0606311 1.02573e-20)
(-0.0346322 0.0639918 -1.28483e-19)
(-0.0261526 0.0648471 -9.38718e-20)
(-0.0120584 0.0637767 -8.45209e-20)
(0.00825938 0.0613451 7.92485e-20)
(0.0355687 0.0580844 4.75933e-20)
(0.0708165 0.0544848 1.68358e-19)
(0.115115 0.0509935 -1.37344e-19)
(0.169677 0.0480182 5.10153e-20)
(0.235711 0.0459445 -9.70331e-20)
(0.31384 0.0448451 7.22192e-20)
(0.405737 0.0466567 -2.57492e-20)
(0.504432 0.0448228 3.46947e-20)
(0.629982 0.0568673 -1.22305e-19)
(0.711279 0.0491654 1.0191e-19)
(0.904992 0.0702485 4.36479e-20)
(-0.00890668 0.0115884 -1.51227e-19)
(-0.0223929 0.0293159 5.90937e-20)
(-0.031792 0.0426635 -9.23081e-20)
(-0.0365264 0.0519923 -8.60151e-20)
(-0.0361132 0.0577749 3.0963e-20)
(-0.0300862 0.060574 1.53698e-19)
(-0.0179348 0.0609972 -1.11203e-19)
(0.000951929 0.0596627 1.3987e-20)
(0.0273361 0.0571761 -3.13254e-20)
(0.0621614 0.0541178 -3.0637e-20)
(0.10655 0.0510357 7.90354e-20)
(0.16174 0.0484433 1.73608e-19)
(0.22894 0.0468153 -6.4083e-21)
(0.309096 0.0465933 1.46627e-20)
(0.40229 0.0478649 -5.76864e-21)
(0.50835 0.0522102 -9.69378e-20)
(0.621472 0.0544129 9.43157e-20)
(0.750349 0.0674772 1.48749e-19)
(0.843752 0.0642425 4.29521e-20)
(1.01891 0.0866247 -8.08778e-20)
(-0.00941574 0.0112942 -3.91285e-20)
(-0.0232386 0.0282553 1.20694e-19)
(-0.0321886 0.0407663 -3.84664e-21)
(-0.0356204 0.0492584 8.28868e-20)
(-0.0329681 0.0542806 3.8125e-20)
(-0.0236691 0.0564587 3.64359e-20)
(-0.00709288 0.056455 -4.50303e-20)
(0.0175217 0.0549396 7.67052e-20)
(0.051112 0.0525732 1.32897e-20)
(0.0947984 0.0499992 -4.573e-20)
(0.149834 0.0478347 -2.64551e-20)
(0.217458 0.0466631 -1.18767e-19)
(0.298629 0.0470113 -1.19104e-19)
(0.393617 0.0493129 2.784e-20)
(0.501411 0.0536824 -9.93678e-21)
(0.619441 0.0607347 -3.94217e-20)
(0.742261 0.067633 -1.28549e-19)
(0.867703 0.0801549 -1.54326e-19)
(0.966992 0.0821872 -1.79616e-19)
(1.10929 0.102066 1.86954e-20)
(-0.00988319 0.0109439 8.06709e-21)
(-0.0238347 0.0269884 -1.09071e-19)
(-0.0320037 0.0385182 -1.01488e-19)
(-0.0336809 0.046057 -6.70078e-20)
(-0.0282056 0.0502468 1.19136e-19)
(-0.0149003 0.0517935 -2.54641e-19)
(0.00700916 0.0514288 5.15862e-20)
(0.0384541 0.0498901 -2.93941e-20)
(0.0805479 0.0479107 8.3999e-20)
(0.13455 0.0462079 1.03208e-20)
(0.201727 0.0454729 -1.28131e-19)
(0.283086 0.0463434 5.59245e-20)
(0.378944 0.0493497 1.75379e-20)
(0.48835 0.0548022 5.5125e-20)
(0.608531 0.0627304 -5.8497e-20)
(0.734438 0.0725678 1.03167e-19)
(0.859585 0.0834907 -4.40269e-20)
(0.97554 0.0944744 2.24134e-20)
(1.07127 0.101162 -1.56997e-20)
(1.1734 0.114742 -6.01886e-20)
(-0.0102897 0.0105324 1.27189e-19)
(-0.0241024 0.0255144 -2.27534e-20)
(-0.0310752 0.0359425 -1.42395e-20)
(-0.0304414 0.0424475 8.07168e-20)
(-0.0214359 0.0457818 -4.07499e-20)
(-0.00324911 0.0467477 2.29745e-19)
(0.0250526 0.0461631 1.06923e-20)
(0.0645743 0.04485 6.97215e-20)
(0.116572 0.0436259 -1.16496e-19)
(0.18234 0.0432884 -8.85242e-20)
(0.262944 0.0445905 1.30065e-19)
(0.35879 0.048175 -1.06336e-19)
(0.469026 0.0544758 8.56581e-20)
(0.590894 0.0635196 -1.53806e-20)
(0.71934 0.0750027 2.60319e-19)
(0.847176 0.087377 -5.28452e-21)
(0.966392 0.10057 8.9006e-20)
(1.06804 0.109631 1.28225e-19)
(1.15057 0.119185 7.64559e-20)
(1.21287 0.123045 1.20403e-19)
(-0.0106071 0.0100501 6.15616e-20)
(-0.0239416 0.0238255 -1.31345e-19)
(-0.029211 0.0330573 4.36108e-20)
(-0.0255999 0.0384909 7.03312e-20)
(-0.0122314 0.0410044 5.86778e-20)
(0.0118473 0.0415131 -1.67064e-19)
(0.0477318 0.0409372 7.47028e-20)
(0.0966723 0.0401969 3.39043e-20)
(0.159981 0.0402005 1.4505e-20)
(0.238793 0.0418182 5.98925e-20)
(0.33364 0.0458193 -3.49849e-20)
(0.44383 0.0527557 1.07594e-19)
(0.566756 0.0628054 -9.00076e-20)
(0.697389 0.0755225 -9.22077e-20)
(0.828367 0.0900199 -1.58302e-19)
(0.951142 0.104112 -4.96531e-20)
(1.05737 0.117466 -1.07375e-19)
(1.14145 0.124716 -1.18172e-19)
(1.20396 0.13397 -1.06381e-19)
(1.23406 0.125788 -5.86589e-20)
(-0.0107981 0.00948453 9.38004e-20)
(-0.0232306 0.0219096 -2.29493e-20)
(-0.0261902 0.0298794 -6.04143e-20)
(-0.0188238 0.0342531 -1.93212e-19)
(-0.000139615 0.0360465 -1.5261e-20)
(0.0309596 0.0363034 2.00157e-19)
(0.0757085 0.0360594 -4.478e-20)
(0.13543 0.0363407 3.81888e-20)
(0.211326 0.0381414 9.04602e-20)
(0.304077 0.0423653 2.69732e-20)
(0.413222 0.0497106 -1.73867e-19)
(0.536409 0.0604853 -4.29282e-20)
(0.668783 0.0744079 -2.99889e-20)
(0.802951 0.0903884 8.51634e-20)
(0.929914 0.106869 2.45199e-19)
(1.04106 0.121342 -7.73303e-20)
(1.12981 0.133176 -5.08068e-20)
(1.19474 0.138582 1.30263e-19)
(1.23528 0.143417 7.07088e-20)
(1.25776 0.135705 2.95941e-20)
(-0.0108155 0.0088217 -1.00605e-19)
(-0.0218266 0.0197555 7.0509e-20)
(-0.0217667 0.0264306 -1.41669e-19)
(-0.00975837 0.0298106 1.57992e-20)
(0.0153012 0.0310581 9.6645e-20)
(0.0546358 0.0313573 -2.02958e-19)
(0.109561 0.0318668 -2.11072e-19)
(0.181335 0.033715 3.8093e-21)
(0.270796 0.0379515 -1.24002e-19)
(0.377758 0.0454365 -8.72373e-20)
(0.500233 0.0566551 1.38755e-19)
(0.633693 0.0714718 2.20279e-19)
(0.770857 0.0889453 -8.61496e-20)
(0.902475 0.107274 -5.44001e-20)
(1.01921 0.124374 -1.36747e-19)
(1.11402 0.137778 9.39408e-21)
(1.18363 0.147147 -5.05441e-21)
(1.22955 0.149783 -4.80737e-21)
(1.25492 0.151574 1.45083e-20)
(1.26762 0.142582 1.80908e-19)
(-0.0106033 0.00804938 1.00705e-19)
(-0.019568 0.0173578 1.05748e-19)
(-0.0156746 0.0227439 1.37523e-19)
(0.00196269 0.0252575 5.39723e-20)
(0.0345418 0.0262128 -7.29129e-20)
(0.083368 0.0269408 -5.04874e-20)
(0.149729 0.0287204 -6.99365e-21)
(0.234607 0.0327583 7.14814e-20)
(0.338117 0.0400942 6.56856e-20)
(0.458713 0.0514179 4.2165e-20)
(0.592354 0.0668086 -5.01725e-21)
(0.732059 0.0854766 -1.0564e-19)
(0.868457 0.105706 8.51368e-20)
(0.991577 0.125099 -1.27685e-20)
(1.09334 0.141391 3.95609e-20)
(1.16963 0.152609 1.71761e-20)
(1.22069 0.158936 -1.36236e-20)
(1.25084 0.158932 3.38148e-20)
(1.26447 0.158025 -2.60395e-20)
(1.26971 0.14823 -1.81028e-19)
(-0.0100976 0.0071594 5.24374e-20)
(-0.016278 0.0147235 -1.90385e-19)
(-0.00763518 0.0188716 9.22309e-20)
(0.0167041 0.0207137 3.81503e-20)
(0.0579988 0.0217143 -1.10879e-19)
(0.117554 0.0233491 1.07469e-19)
(0.196459 0.0269982 6.0159e-20)
(0.295118 0.033893 -1.42828e-19)
(0.412479 0.0449531 1.73438e-20)
(0.545118 0.0605184 -2.71821e-20)
(0.686571 0.0800434 6.41598e-20)
(0.827556 0.10193 -4.85777e-20)
(0.957543 0.123741 -7.44369e-20)
(1.06734 0.142795 1.10004e-19)
(1.15153 0.157088 -5.40891e-20)
(1.20944 0.165452 2.16474e-20)
(1.24438 0.168707 -5.19958e-20)
(1.26217 0.166365 3.04245e-22)
(1.26769 0.163408 -4.64613e-20)
(1.26862 0.15306 5.00807e-20)
(-0.00922825 0.00615012 -1.31838e-20)
(-0.0117696 0.0118769 -5.63892e-20)
(0.00263348 0.0148923 -6.2893e-20)
(0.0348131 0.0163317 3.56912e-20)
(0.0860296 0.0178015 -1.03883e-20)
(0.157457 0.0209067 6.53143e-20)
(0.249745 0.0270846 4.62396e-20)
(0.362334 0.0374987 4.40675e-20)
(0.492512 0.0527876 1.43997e-20)
(0.634544 0.0727235 3.82284e-20)
(0.779506 0.0959454 6.46477e-20)
(0.9165 0.12003 1.45123e-20)
(1.0352 0.142068 -3.22777e-20)
(1.12864 0.159527 2.43988e-20)
(1.19477 0.171034 8.06194e-20)
(1.23614 0.176346 -1.46261e-19)
(1.25807 0.176806 4.68478e-20)
(1.26687 0.172593 5.54521e-20)
(1.26713 0.168097 1.8302e-20)
(1.26498 0.157429 3.62276e-20)
(-0.00792103 0.00502833 -2.09217e-20)
(-0.00585158 0.00886499 1.23081e-19)
(0.015406 0.010917 4.25189e-20)
(0.0566014 0.012303 -1.28658e-19)
(0.118903 0.0147513 -3.42881e-20)
(0.203168 0.0199613 6.42877e-20)
(0.309286 0.0293517 3.10868e-20)
(0.435288 0.0438783 1.08205e-19)
(0.576338 0.063692 -4.03541e-21)
(0.72418 0.0877798 5.19641e-21)
(0.867856 0.113874 -5.45559e-20)
(0.996006 0.138893 -8.60149e-20)
(1.09995 0.15986 -9.43905e-21)
(1.17589 0.174794 -5.40746e-20)
(1.22516 0.183164 4.56363e-20)
(1.25269 0.185565 2.22674e-19)
(1.26476 0.183664 8.71517e-20)
(1.26734 0.178034 -8.57607e-20)
(1.26423 0.172386 -4.29294e-20)
(1.26031 0.161548 1.75605e-20)
(-0.0060993 0.0038108 1.02679e-19)
(0.00166524 0.00576064 -1.49707e-19)
(0.0309371 0.00709376 -1.40901e-19)
(0.0823249 0.00885986 1.898e-19)
(0.156771 0.0128751 5.63997e-20)
(0.254564 0.0208723 -3.46651e-20)
(0.374451 0.0341342 -1.00024e-19)
(0.512593 0.0532221 -1.2377e-19)
(0.661696 0.07757 8.25376e-20)
(0.811143 0.105221 1.45798e-20)
(0.948827 0.133069 4.38063e-20)
(1.06431 0.157719 3.61579e-20)
(1.15169 0.176556 -2.28485e-21)
(1.21061 0.188426 -2.44256e-20)
(1.24521 0.193658 -4.92659e-20)
(1.26181 0.193483 -1.33944e-19)
(1.26674 0.189681 -5.31983e-20)
(1.26517 0.183007 1.77432e-19)
(1.26004 0.176471 2.95753e-20)
(1.25494 0.165577 -4.40868e-20)
(-0.00368648 0.00252532 -1.0713e-19)
(0.01096 0.00266504 1.05344e-19)
(0.0494473 0.00360868 2.47663e-21)
(0.112161 0.00627431 -4.29892e-20)
(0.199636 0.0125111 -1.38416e-20)
(0.311281 0.0239909 -1.20298e-20)
(0.444275 0.0416989 -7.34437e-20)
(0.592509 0.0655776 8.84326e-20)
(0.746154 0.0941358 -1.46516e-19)
(0.892814 0.124437 3.9666e-22)
(1.02045 0.152786 -2.60838e-20)
(1.1208 0.175898 -1.27523e-20)
(1.19134 0.191876 3.02123e-20)
(1.23484 0.200496 -6.70912e-20)
(1.25736 0.202819 -3.89876e-21)
(1.26571 0.200472 3.7203e-20)
(1.26567 0.195177 -9.17125e-20)
(1.26142 0.187732 -4.83345e-22)
(1.25507 0.180477 3.80468e-22)
(1.24922 0.169571 7.81049e-20)
(-0.000608571 0.00121127 1.5582e-20)
(0.0221932 -0.000291881 2.9042e-20)
(0.0711079 0.000684834 5.62069e-20)
(0.146188 0.00485123 -3.01833e-20)
(0.247326 0.014009 -9.66953e-20)
(0.372693 0.0296354 2.49328e-20)
(0.517485 0.0522139 5.61371e-20)
(0.673069 0.0808346 3.07009e-20)
(0.827353 0.112949 1.03173e-19)
(0.967123 0.144769 -2.82463e-20)
(1.08169 0.172392 -1.68467e-20)
(1.16585 0.193052 1.44487e-20)
(1.22044 0.205777 -4.11189e-20)
(1.25071 0.211221 -5.72771e-20)
(1.26372 0.21098 -3.76983e-20)
(1.26605 0.206853 3.08682e-20)
(1.26266 0.200388 7.79006e-20)
(1.25671 0.19235 -3.78743e-20)
(1.24962 0.184472 -5.9769e-20)
(1.24325 0.173572 9.39177e-21)
(0.00320335 -8.04276e-05 2.78101e-20)
(0.0354981 -0.00295263 6.08438e-21)
(0.0960247 -0.0014227 -7.56817e-20)
(0.184361 0.00491751 9.89198e-20)
(0.299477 0.0177102 2.17982e-20)
(0.437924 0.0380637 -1.13267e-19)
(0.592566 0.0657261 4.28951e-20)
(0.752246 0.0987336 -5.59998e-20)
(0.903246 0.133478 2.83653e-21)
(1.03271 0.165606 9.11128e-21)
(1.13238 0.191432 2.61949e-20)
(1.20047 0.209022 3.06495e-21)
(1.24077 0.218377 1.1616e-19)
(1.26016 0.22088 4.6162e-20)
(1.26593 0.218448 -2.16747e-20)
(1.26402 0.212873 -2.53932e-20)
(1.2584 0.205474 1.47137e-20)
(1.25139 0.196943 1.52002e-20)
(1.24385 0.188493 -2.55346e-20)
(1.2371 0.177591 -2.85715e-20)
(0.00780948 -0.00128711 -3.26397e-20)
(0.0509704 -0.00513451 2.0256e-21)
(0.124223 -0.00243435 1.54903e-20)
(0.226496 0.00680709 -4.1702e-20)
(0.355527 0.0239253 7.978e-20)
(0.505872 0.0494478 4.51511e-20)
(0.667868 0.0821515 -4.55465e-20)
(0.828136 0.118898 -2.99345e-20)
(0.972265 0.155171 2.69321e-20)
(1.08892 0.186441 -4.15833e-20)
(1.173 0.209633 3.09063e-20)
(1.22602 0.22381 -6.11603e-22)
(1.25406 0.229881 1.03784e-21)
(1.26482 0.229754 -2.29226e-20)
(1.26525 0.225475 6.49983e-20)
(1.2604 0.218709 -5.43642e-21)
(1.25333 0.210532 2.78993e-20)
(1.24563 0.201553 -4.0474e-20)
(1.23782 0.19255 3.12972e-20)
(1.23078 0.181629 -1.27912e-20)
(0.0132575 -0.00233564 5.39882e-20)
(0.0686587 -0.00663472 6.19516e-20)
(0.155635 -0.00205653 4.52681e-20)
(0.272264 0.0108433 -6.43301e-21)
(0.41472 0.0329107 9.24655e-21)
(0.575267 0.0638566 8.32513e-22)
(0.741728 0.101285 9.88626e-20)
(0.899108 0.140883 -2.911e-20)
(1.0334 0.177518 2.02816e-20)
(1.13575 0.20691 -1.0199e-19)
(1.20448 0.22688 1.48401e-20)
(1.24398 0.237529 4.44576e-20)
(1.26185 0.240522 -1.99758e-20)
(1.26595 0.23809 4.11634e-20)
(1.26253 0.232255 -5.38089e-20)
(1.25569 0.22448 7.31523e-20)
(1.24767 0.215618 2.37585e-21)
(1.23955 0.206197 -2.46742e-20)
(1.23156 0.196647 9.60962e-22)
(1.2243 0.185677 3.80111e-20)
(0.0195793 -0.0031437 -1.02267e-19)
(0.088556 -0.00723607 2.50859e-20)
(0.19009 6.06851e-06 -9.41166e-21)
(0.321184 0.0173203 -6.89286e-20)
(0.476139 0.0448491 -2.50139e-20)
(0.64475 0.0812491 -4.77612e-20)
(0.812593 0.122823 -4.08067e-20)
(0.963913 0.164227 -4.36938e-20)
(1.08617 0.200097 4.43975e-20)
(1.17364 0.226783 2.18102e-20)
(1.22794 0.243176 -6.35742e-20)
(1.25574 0.250347 -1.57717e-20)
(1.26543 0.250527 -7.44192e-21)
(1.26452 0.24609 -3.10276e-20)
(1.25838 0.23892 -5.34136e-21)
(1.25019 0.230254 -1.29539e-20)
(1.24157 0.220756 -5.213e-20)
(1.23316 0.210874 2.56205e-20)
(1.22506 0.200775 3.17987e-20)
(1.21763 0.189723 -7.76749e-21)
(0.0267874 -0.00362167 3.81897e-21)
(0.110592 -0.00671449 -4.55341e-20)
(0.227307 0.00403686 2.0854e-20)
(0.372635 0.0264852 -1.43127e-20)
(0.538745 0.0598353 1.75022e-20)
(0.712957 0.10148 7.89347e-20)
(0.879126 0.146401 -3.40873e-20)
(1.02172 0.188494 8.3855e-20)
(1.13056 0.222581 4.09976e-21)
(1.20333 0.245947 4.09726e-20)
(1.24458 0.2586 3.59842e-21)
(1.26253 0.262448 2.79535e-20)
(1.2658 0.260095 5.81368e-21)
(1.26119 0.253902 2.82094e-21)
(1.25315 0.245556 -4.07523e-20)
(1.24408 0.236068 7.23213e-21)
(1.23506 0.225947 3.75156e-20)
(1.22648 0.215574 1.60871e-21)
(1.21833 0.20492 -1.89307e-20)
(1.21077 0.19375 7.73707e-21)
(0.0348711 -0.00367529 1.28001e-20)
(0.13463 -0.00484777 3.73255e-20)
(0.266901 0.0102932 3.96578e-20)
(0.425876 0.0385223 -1.05451e-20)
(0.601432 0.0778703 5.04963e-20)
(0.778606 0.124317 -9.98515e-21)
(0.940266 0.171627 8.07252e-20)
(1.07208 0.213302 -1.0137e-19)
(1.16688 0.244747 -1.79114e-20)
(1.22571 0.264373 -1.7678e-20)
(1.25549 0.27327 -2.1167e-20)
(1.26538 0.274007 -5.0441e-21)
(1.26371 0.26938 7.13713e-21)
(1.25643 0.261629 -2.62551e-20)
(1.2471 0.25221 2.71368e-20)
(1.23745 0.241929 -1.1812e-20)
(1.22819 0.231181 -9.27772e-21)
(1.21951 0.22028 -8.43487e-21)
(1.21134 0.209067 -5.30365e-21)
(1.20371 0.197739 -1.74907e-20)
(0.0437945 -0.00320893 6.09082e-20)
(0.160461 -0.00142511 -5.7768e-20)
(0.308387 0.0189928 6.79469e-21)
(0.480077 0.0535418 -6.98196e-21)
(0.663082 0.0988623 -1.84536e-20)
(0.840563 0.14946 -3.74908e-20)
(0.995256 0.198111 -5.58394e-21)
(1.11491 0.238335 2.4792e-20)
(1.19568 0.266451 1.12642e-20)
(1.2417 0.282091 -1.36883e-20)
(1.26168 0.287316 1.52781e-20)
(1.26511 0.285173 -3.29737e-21)
(1.25971 0.278497 -3.0153e-20)
(1.25055 0.269331 4.40267e-20)
(1.24034 0.258899 1.22047e-20)
(1.23033 0.247832 -6.59886e-21)
(1.22094 0.236437 8.041e-21)
(1.21223 0.22497 1.26419e-20)
(1.2041 0.213194 1.26436e-20)
(1.19642 0.201668 1.35438e-20)
(0.053495 -0.00212925 -6.36303e-20)
(0.187811 0.00374303 4.85673e-20)
(0.351193 0.0303014 2.097e-20)
(0.534352 0.0715724 -4.23956e-20)
(0.722628 0.122635 -9.11817e-21)
(0.897888 0.176569 -3.45103e-20)
(1.04363 0.225487 1.36726e-20)
(1.15035 0.263343 -2.24977e-20)
(1.21762 0.287613 1.68127e-21)
(1.2522 0.299159 3.56027e-21)
(1.26397 0.300861 6.71192e-21)
(1.26232 0.296063 -2.53413e-20)
(1.25419 0.287517 2.58874e-20)
(1.24372 0.277035 -1.84108e-20)
(1.23296 0.265618 -5.08607e-21)
(1.22274 0.253754 2.47691e-21)
(1.2133 0.241688 -5.56695e-21)
(1.20462 0.22962 -1.29308e-20)
(1.19657 0.21728 -5.89641e-22)
(1.18889 0.205512 -9.11848e-21)
(0.0638829 -0.000349255 -7.99123e-21)
(0.216342 0.0108154 -2.29568e-20)
(0.394684 0.044323 -7.70689e-21)
(0.587798 0.0925597 1.21307e-20)
(0.779092 0.148942 -7.63719e-21)
(0.949855 0.205282 7.68945e-21)
(1.08518 0.253426 1.78429e-20)
(1.17875 0.288133 1.57007e-20)
(1.2334 0.308198 1.23487e-20)
(1.25799 0.315646 -2.71396e-21)
(1.26304 0.314005 -7.12026e-21)
(1.2575 0.306755 8.38215e-21)
(1.2474 0.29648 -4.11681e-21)
(1.23606 0.284742 5.15849e-21)
(1.22497 0.272346 -3.17361e-21)
(1.21468 0.259666 6.75466e-21)
(1.20527 0.246902 -1.84456e-21)
(1.19669 0.234203 8.07982e-21)
(1.18876 0.221298 -1.95619e-21)
(1.18112 0.209245 1.32219e-21)
(0.0748423 0.00220771 -1.91479e-22)
(0.245663 0.0199111 -9.08242e-23)
(0.438178 0.061093 -2.71996e-21)
(0.639531 0.116369 1.34657e-20)
(0.831627 0.17748 8.5639e-21)
(0.99595 0.235234 -6.52993e-21)
(1.11991 0.281633 -4.86947e-21)
(1.20057 0.312557 -1.47467e-21)
(1.24371 0.328195 -6.94481e-21)
(1.25977 0.331616 -4.14457e-22)
(1.25943 0.326823 2.9023e-22)
(1.25097 0.317296 -2.93517e-21)
(1.2395 0.305393 -1.88188e-21)
(1.22763 0.292432 -4.25561e-21)
(1.2164 0.279049 -4.52571e-21)
(1.20613 0.265532 -3.90731e-22)
(1.19683 0.252043 1.67273e-21)
(1.1884 0.238688 1.82178e-21)
(1.18065 0.225218 2.14108e-21)
(1.17311 0.212838 3.07361e-21)
(0.0862335 0.00560408 9.79493e-21)
(0.275339 0.0311029 -1.51472e-21)
(0.480976 0.0805746 -2.58783e-21)
(0.688722 0.142791 6.49988e-21)
(0.879532 0.207905 1.27926e-20)
(1.03586 0.266067 -5.59236e-21)
(1.14796 0.309852 -4.47606e-21)
(1.2163 0.336503 -8.21076e-21)
(1.24919 0.347601 -7.22923e-21)
(1.25811 0.347116 1.36372e-21)
(1.25355 0.339358 -1.18854e-21)
(1.24296 0.327698 -4.78649e-22)
(1.23061 0.314239 -2.71231e-21)
(1.21846 0.300071 -4.28997e-21)
(1.20723 0.285688 -9.2759e-22)
(1.19708 0.271309 -3.35916e-22)
(1.18797 0.257072 -1.36923e-22)
(1.17975 0.243042 8.31243e-22)
(1.17223 0.229006 3.19455e-21)
(1.16486 0.216261 2.57702e-21)
(0.0978966 0.0098846 -5.98926e-21)
(0.304908 0.0444113 -9.09052e-21)
(0.522384 0.102659 -1.18993e-20)
(0.734623 0.171554 1.56632e-20)
(0.922261 0.239848 1.4587e-20)
(1.06943 0.297439 9.94441e-23)
(1.1696 0.337858 5.22302e-21)
(1.22646 0.359877 1.42755e-20)
(1.2504 0.366413 1.51857e-20)
(1.25347 0.362176 9.45796e-21)
(1.24569 0.351625 -2.26512e-20)
(1.23363 0.33795 9.24625e-21)
(1.22077 0.322983 -3.92952e-21)
(1.20856 0.307611 9.2317e-21)
(1.19746 0.292211 -1.77731e-22)
(1.18753 0.276952 -1.48341e-21)
(1.17867 0.261948 8.15655e-22)
(1.17074 0.247229 7.19614e-21)
(1.16351 0.23262 -2.9496e-21)
(1.15638 0.219487 -3.50561e-22)
(0.109655 0.0150736 -1.98933e-20)
(0.333893 0.059802 4.38134e-20)
(0.561735 0.127167 4.15851e-21)
(0.776582 0.202331 -5.3548e-20)
(0.959418 0.272924 -9.40522e-21)
(1.09666 0.329022 2.17851e-20)
(1.18516 0.365449 -4.91175e-20)
(1.23156 0.382597 -2.88822e-22)
(1.24784 0.38462 3.89291e-21)
(1.24623 0.376798 -1.07201e-21)
(1.23608 0.363614 1.18967e-20)
(1.22309 0.348016 -1.86504e-20)
(1.21002 0.331575 2.80709e-21)
(1.19794 0.314997 -6.10699e-21)
(1.18708 0.298567 -4.51405e-21)
(1.17745 0.282412 4.36215e-21)
(1.16892 0.266628 -4.02938e-22)
(1.16134 0.251209 -1.12092e-20)
(1.15447 0.236017 4.68051e-22)
(1.14765 0.222482 -4.83635e-21)
(0.121323 0.0211728 1.49467e-20)
(0.361818 0.0771852 -2.51185e-20)
(0.598412 0.153858 -1.98287e-21)
(0.814059 0.234754 -4.59597e-20)
(0.990746 0.306741 -2.68488e-20)
(1.11765 0.360508 2.15289e-20)
(1.19501 0.392441 -2.44602e-20)
(1.23207 0.404584 2.63549e-21)
(1.24192 0.402194 1.85064e-20)
(1.23667 0.390963 -5.00875e-21)
(1.22488 0.375287 1.97516e-21)
(1.2114 0.357843 5.89614e-21)
(1.19839 0.339952 -1.86213e-20)
(1.18658 0.322167 2.29167e-20)
(1.17608 0.304697 2.06222e-20)
(1.16684 0.287639 -4.88589e-21)