/*--------------------------------*- C++ -*----------------------------------*\
  =========                 |
  \\      /  F ield         | OpenFOAM: The Open Source CFD Toolbox
   \\    /   O peration     | Website:  https://openfoam.org
    \\  /    A nd           | Version:  7
     \\/     M anipulation  |
\*---------------------------------------------------------------------------*/
FoamFile
{
    version     2.0;
    format      ascii;
    class       volScalarField;
    location    "67.999456";
    object      p;
}
// * * * * * * * * * * * * * * * * * * * * * * * * * * * * * * * * * * * * * //

dimensions      [0 2 -2 0 0 0 0];

internalField   nonuniform List<scalar> 
5800
(
-0.224443
-0.224746
-0.224901
-0.224981
-0.22503
-0.0238002
-0.0244581
-0.0251167
-0.0257749
-0.0264318
-0.0270864
-0.0277376
-0.0283843
-0.0290252
-0.0296591
-0.0302846
-0.0309002
-0.0315043
-0.0320955
-0.032672
-0.033232
-0.0337738
-0.0342953
-0.0347947
-0.0352699
-0.0357186
-0.0361388
-0.0365282
-0.0368845
-0.0372053
-0.0374882
-0.0377307
-0.0379304
-0.0380848
-0.0381913
-0.0382475
-0.0382508
-0.0381987
-0.0380889
-0.0379189
-0.0376864
-0.0373891
-0.0370249
-0.0365916
-0.0360875
-0.0355104
-0.0348591
-0.0341316
-0.0333273
-0.0324442
-0.0314826
-0.0304403
-0.0293189
-0.0281157
-0.0268341
-0.0254701
-0.0240302
-0.0225079
-0.0209138
-0.0192379
-0.0174966
-0.015674
-0.0137952
-0.0118352
-0.00983173
-0.00774567
-0.00563223
-0.0034292
-0.00121114
-0.0238893
-0.0245491
-0.0252096
-0.0258698
-0.0265286
-0.0271851
-0.0278382
-0.0284867
-0.0291294
-0.0297649
-0.030392
-0.0310091
-0.0316147
-0.0322071
-0.0327848
-0.0333459
-0.0338886
-0.034411
-0.0349111
-0.0353867
-0.0358359
-0.0362563
-0.0366457
-0.0370019
-0.0373224
-0.0376048
-0.0378466
-0.0380455
-0.0381988
-0.0383041
-0.0383589
-0.0383606
-0.0383067
-0.038195
-0.0380228
-0.037788
-0.0374882
-0.0371214
-0.0366852
-0.0361781
-0.0355979
-0.0349433
-0.0342125
-0.0334047
-0.032518
-0.0315528
-0.0305067
-0.0293816
-0.0281744
-0.026889
-0.025521
-0.0240773
-0.022551
-0.0209532
-0.0192732
-0.0175283
-0.0157015
-0.0138195
-0.0118551
-0.00984875
-0.00775793
-0.00564222
-0.00343391
-0.00121435
-0.0240592
-0.0247235
-0.0253883
-0.0260527
-0.0267156
-0.027376
-0.028033
-0.0286852
-0.0293314
-0.0299703
-0.0306006
-0.0312207
-0.0318291
-0.0324242
-0.0330042
-0.0335675
-0.034112
-0.034636
-0.0351374
-0.0356141
-0.0360639
-0.0364847
-0.0368743
-0.0372302
-0.0375501
-0.0378315
-0.0380721
-0.0382693
-0.0384206
-0.0385235
-0.0385755
-0.0385741
-0.0385168
-0.0384012
-0.0382248
-0.0379855
-0.0376808
-0.0373088
-0.0368671
-0.0363542
-0.0357679
-0.035107
-0.0343696
-0.033555
-0.0326613
-0.031689
-0.0306356
-0.0295031
-0.0282884
-0.0269955
-0.0256199
-0.0241686
-0.0226347
-0.0210294
-0.0193417
-0.0175896
-0.0157552
-0.0138661
-0.0118942
-0.00988107
-0.00778262
-0.00566054
-0.00344439
-0.00121897
-0.0243093
-0.0249799
-0.0256509
-0.0263213
-0.0269901
-0.0276562
-0.0283187
-0.0289762
-0.0296275
-0.0302713
-0.0309062
-0.0315307
-0.0321431
-0.0327419
-0.0333254
-0.0338916
-0.0344389
-0.0349651
-0.0354684
-0.0359465
-0.0363974
-0.0368188
-0.0372084
-0.0375638
-0.0378828
-0.0381628
-0.0384015
-0.0385962
-0.0387445
-0.0388439
-0.0388918
-0.0388858
-0.0388234
-0.0387021
-0.0385196
-0.0382736
-0.0379618
-0.0375821
-0.0371324
-0.036611
-0.0360158
-0.0353456
-0.0345985
-0.0337741
-0.0328702
-0.0318874
-0.0308233
-0.0296801
-0.0284544
-0.0271505
-0.0257638
-0.0243015
-0.0227564
-0.0211402
-0.0194415
-0.0176786
-0.0158333
-0.0139338
-0.0119511
-0.00992792
-0.0078187
-0.00568694
-0.00345993
-0.00122511
-0.024635
-0.025314
-0.025993
-0.0266713
-0.0273477
-0.0280213
-0.0286909
-0.0293553
-0.0300133
-0.0306635
-0.0313043
-0.0319344
-0.0325521
-0.0331557
-0.0337436
-0.0343138
-0.0348644
-0.0353936
-0.0358993
-0.0363792
-0.0368313
-0.0372534
-0.037643
-0.0379979
-0.0383156
-0.0385937
-0.0388297
-0.0390212
-0.0391655
-0.0392603
-0.0393029
-0.0392908
-0.0392216
-0.039093
-0.0389024
-0.0386477
-0.0383265
-0.0379368
-0.0374765
-0.036944
-0.0363372
-0.035655
-0.0348953
-0.034058
-0.0331407
-0.0321444
-0.0310665
-0.0299092
-0.0286693
-0.0273511
-0.02595
-0.0244734
-0.0229138
-0.0212835
-0.0195704
-0.0177937
-0.0159343
-0.0140212
-0.0120246
-0.00998836
-0.00786534
-0.00572095
-0.00348005
-0.00123283
-0.0250341
-0.0257232
-0.0264122
-0.0271
-0.0277857
-0.0284684
-0.0291468
-0.0298197
-0.0304857
-0.0311435
-0.0317917
-0.0324286
-0.0330526
-0.033662
-0.0342552
-0.0348301
-0.0353849
-0.0359175
-0.036426
-0.0369081
-0.0373616
-0.0377844
-0.0381739
-0.038528
-0.038844
-0.0391197
-0.0393525
-0.0395398
-0.0396792
-0.0397681
-0.0398041
-0.0397845
-0.039707
-0.0395692
-0.0393687
-0.0391032
-0.0387705
-0.0383686
-0.0378954
-0.0373493
-0.0367282
-0.0360312
-0.0352562
-0.034403
-0.0334695
-0.0324566
-0.0313617
-0.0301873
-0.02893
-0.0275945
-0.0261758
-0.0246817
-0.0231046
-0.021457
-0.0197266
-0.0179329
-0.0160564
-0.014127
-0.0121136
-0.0100614
-0.00792177
-0.00576201
-0.0035044
-0.00124207
-0.0255046
-0.0262056
-0.0269062
-0.0276052
-0.0283019
-0.0289951
-0.0296837
-0.0303664
-0.0310419
-0.0317087
-0.0323653
-0.0330101
-0.0336415
-0.0342577
-0.0348569
-0.0354372
-0.0359967
-0.0365333
-0.037045
-0.0375295
-0.0379846
-0.0384079
-0.0387973
-0.0391502
-0.0394642
-0.0397369
-0.0399656
-0.040148
-0.0402814
-0.0403634
-0.0403914
-0.0403629
-0.0402755
-0.0401269
-0.0399145
-0.0396363
-0.03929
-0.0388736
-0.0383851
-0.0378229
-0.037185
-0.0364705
-0.0356775
-0.0348057
-0.0338531
-0.0328206
-0.0317059
-0.0305114
-0.0292338
-0.0278779
-0.0264386
-0.0249241
-0.0233265
-0.0216587
-0.0199081
-0.0180947
-0.0161983
-0.0142497
-0.0122168
-0.0101462
-0.00798724
-0.00580959
-0.00353264
-0.00125272
-0.0260448
-0.0267594
-0.0274732
-0.028185
-0.0288941
-0.0295994
-0.0302996
-0.0309935
-0.0316797
-0.0323566
-0.0330228
-0.0336765
-0.0343161
-0.0349399
-0.035546
-0.0361323
-0.0366971
-0.0372381
-0.0377532
-0.0382402
-0.0386969
-0.0391208
-0.0395098
-0.0398612
-0.0401726
-0.0404416
-0.0406656
-0.0408421
-0.0409686
-0.0410424
-0.0410611
-0.0410223
-0.0409234
-0.0407621
-0.0405361
-0.0402432
-0.0398812
-0.0394481
-0.038942
-0.0383613
-0.0377042
-0.0369697
-0.0361559
-0.0352628
-0.0342883
-0.0332336
-0.0320962
-0.0308787
-0.0295779
-0.0281987
-0.026736
-0.0251983
-0.0235774
-0.0218867
-0.020113
-0.0182773
-0.0163584
-0.0143882
-0.0123332
-0.0102417
-0.00806104
-0.00586316
-0.00356446
-0.00126468
-0.0266536
-0.0273833
-0.0281119
-0.028838
-0.0295609
-0.0302796
-0.0309928
-0.0316992
-0.0323972
-0.0330854
-0.0337621
-0.0344257
-0.0350744
-0.0357065
-0.03632
-0.036913
-0.0374834
-0.0380291
-0.0385479
-0.0390375
-0.0394957
-0.0399201
-0.0403083
-0.0406578
-0.0409662
-0.0412308
-0.0414493
-0.0416189
-0.0417373
-0.0418018
-0.0418099
-0.0417592
-0.0416472
-0.0414716
-0.0412301
-0.0409205
-0.0405407
-0.0400888
-0.0395628
-0.0389613
-0.0382824
-0.0375253
-0.0366882
-0.0357712
-0.0347722
-0.0336924
-0.0325296
-0.0312864
-0.0299597
-0.0285545
-0.0270657
-0.025502
-0.0238552
-0.0221389
-0.0203398
-0.0184792
-0.0165353
-0.0145411
-0.0124617
-0.0103471
-0.00814244
-0.00592222
-0.00359956
-0.00127783
-0.02733
-0.0280764
-0.0288212
-0.0295631
-0.0303012
-0.0310346
-0.031762
-0.032482
-0.0331929
-0.0338934
-0.0345816
-0.0352559
-0.0359145
-0.0365556
-0.0371771
-0.0377772
-0.0383536
-0.0389042
-0.0394267
-0.039919
-0.0403787
-0.0408032
-0.0411903
-0.0415374
-0.041842
-0.0421016
-0.0423136
-0.0424754
-0.0425845
-0.0426384
-0.0426345
-0.0425704
-0.0424437
-0.0422521
-0.0419932
-0.041665
-0.0412653
-0.0407924
-0.0402442
-0.0396196
-0.0389165
-0.0381345
-0.0372716
-0.036328
-0.0353018
-0.0341944
-0.0330035
-0.031732
-0.0303766
-0.0289428
-0.0274253
-0.0258332
-0.0241578
-0.0224136
-0.0205865
-0.0186987
-0.0167276
-0.0147072
-0.0126013
-0.0104614
-0.00823076
-0.00598628
-0.00363762
-0.00129208
-0.0280734
-0.028838
-0.0296005
-0.0303594
-0.031114
-0.0318634
-0.0326062
-0.0333408
-0.0340658
-0.0347794
-0.03548
-0.0361657
-0.0368349
-0.0374855
-0.0381156
-0.038723
-0.0393057
-0.0398613
-0.0403877
-0.0408826
-0.0413434
-0.0417678
-0.0421534
-0.0424975
-0.0427977
-0.0430514
-0.0432559
-0.0434089
-0.0435076
-0.0435495
-0.0435322
-0.0434531
-0.04331
-0.0431006
-0.0428224
-0.0424736
-0.042052
-0.0415559
-0.0409834
-0.0403333
-0.0396037
-0.0387942
-0.037903
-0.0369304
-0.0358745
-0.0347369
-0.0335153
-0.0322129
-0.0308264
-0.0293614
-0.0278127
-0.0261897
-0.0244834
-0.0227089
-0.0208516
-0.0189345
-0.0169339
-0.0148853
-0.0127508
-0.010584
-0.00832534
-0.00605483
-0.00367834
-0.00130732
-0.0288835
-0.0296678
-0.0304492
-0.0312265
-0.0319989
-0.0327653
-0.0335245
-0.0342749
-0.0350147
-0.0357424
-0.0364561
-0.037154
-0.0378343
-0.038495
-0.0391339
-0.039749
-0.0403381
-0.0408989
-0.0414291
-0.0419263
-0.042388
-0.0428119
-0.0431954
-0.0435359
-0.0438309
-0.0440777
-0.0442739
-0.0444168
-0.0445038
-0.0445325
-0.0445002
-0.0444046
-0.0442434
-0.0440143
-0.0437151
-0.0433436
-0.042898
-0.0423766
-0.0417775
-0.0410995
-0.0403411
-0.0395018
-0.0385798
-0.0375757
-0.0364876
-0.0353174
-0.0340626
-0.0327268
-0.0313067
-0.0298082
-0.0282258
-0.0265695
-0.0248301
-0.0230232
-0.0211334
-0.0191849
-0.017153
-0.0150743
-0.0129094
-0.0107138
-0.0084255
-0.00612742
-0.00372145
-0.00132344
-0.0297601
-0.0305655
-0.0313672
-0.032164
-0.0329553
-0.0337399
-0.0345166
-0.0352836
-0.0360392
-0.0367817
-0.0375092
-0.0382199
-0.0389118
-0.0395828
-0.0402309
-0.0408539
-0.0414495
-0.0420154
-0.0425492
-0.0430485
-0.0435108
-0.0439336
-0.0443144
-0.0446505
-0.0449394
-0.0451785
-0.0453652
-0.0454968
-0.0455709
-0.0455848
-0.0455362
-0.0454224
-0.0452414
-0.0449908
-0.0446684
-0.0442724
-0.0438006
-0.0432517
-0.0426237
-0.0419158
-0.0411261
-0.0402545
-0.0392994
-0.0382614
-0.0371387
-0.0359333
-0.0346429
-0.0332714
-0.0318152
-0.0302808
-0.0286626
-0.0269709
-0.0251961
-0.0233546
-0.0214305
-0.0194487
-0.0173835
-0.015273
-0.013076
-0.0108501
-0.00853062
-0.00620357
-0.00376664
-0.00134037
-0.0307035
-0.0315312
-0.0323544
-0.033172
-0.0339832
-0.034787
-0.0355821
-0.0363666
-0.0371387
-0.0378967
-0.0386386
-0.0393625
-0.0400664
-0.0407482
-0.0414057
-0.0420366
-0.0426386
-0.0432095
-0.0437466
-0.0442477
-0.0447101
-0.0451313
-0.0455086
-0.0458396
-0.0461215
-0.0463518
-0.0465278
-0.0466469
-0.0467065
-0.0467042
-0.0466374
-0.046504
-0.0463014
-0.0460274
-0.04568
-0.0452573
-0.0447573
-0.0441787
-0.0435197
-0.0427794
-0.0419562
-0.04105
-0.0400593
-0.038985
-0.0378253
-0.0365824
-0.0352541
-0.0338444
-0.0323499
-0.0307774
-0.0291211
-0.0273918
-0.0255796
-0.0237016
-0.0217412
-0.0197243
-0.0176242
-0.0154804
-0.0132497
-0.0109922
-0.00864008
-0.00628284
-0.00381365
-0.00135799
-0.0317139
-0.0325651
-0.033411
-0.0342504
-0.0350825
-0.0359065
-0.0367208
-0.0375236
-0.038313
-0.0390871
-0.0398439
-0.0405814
-0.0412976
-0.0419903
-0.0426573
-0.0432961
-0.0439045
-0.0444801
-0.0450203
-0.0455226
-0.0459845
-0.0464033
-0.0467765
-0.0471014
-0.0473753
-0.0475956
-0.0477597
-0.0478649
-0.0479088
-0.0478887
-0.0478023
-0.0476472
-0.0474211
-0.0471219
-0.0467474
-0.046296
-0.0457657
-0.0451552
-0.0444629
-0.0436879
-0.0428289
-0.0418858
-0.0408572
-0.0397442
-0.0385451
-0.0372623
-0.0358938
-0.0344437
-0.0329087
-0.0312959
-0.0295994
-0.0278304
-0.025979
-0.0240626
-0.0220641
-0.0200106
-0.017874
-0.0156953
-0.0134297
-0.0111392
-0.00875327
-0.00636479
-0.0038622
-0.00137622
-0.0327917
-0.0336677
-0.0345374
-0.0353996
-0.0362536
-0.0370986
-0.0379329
-0.0387547
-0.0395619
-0.0403526
-0.0411247
-0.0418762
-0.0426049
-0.0433086
-0.043985
-0.0446317
-0.0452462
-0.0458262
-0.0463689
-0.046872
-0.0473327
-0.0477485
-0.0481166
-0.0484343
-0.0486991
-0.0489083
-0.0490591
-0.0491491
-0.0491756
-0.0491361
-0.0490283
-0.0488498
-0.0485984
-0.0482719
-0.0478684
-0.0473862
-0.0468234
-0.0461788
-0.0454509
-0.0446391
-0.0437419
-0.0427596
-0.0416908
-0.0405367
-0.0392959
-0.0379711
-0.0365599
-0.0350673
-0.0334896
-0.0318344
-0.0300956
-0.0282852
-0.0263925
-0.024436
-0.0223979
-0.0203061
-0.0181315
-0.0159168
-0.0136149
-0.0112905
-0.0088696
-0.006449
-0.00391204
-0.00139497
-0.0339376
-0.0348394
-0.035734
-0.0366199
-0.0374967
-0.0383635
-0.0392186
-0.0400599
-0.0408854
-0.0416931
-0.0424809
-0.0432465
-0.0439878
-0.0447026
-0.0453883
-0.0460426
-0.0466629
-0.0472468
-0.0477916
-0.0482948
-0.0487536
-0.0491653
-0.0495273
-0.0498369
-0.0500914
-0.0502881
-0.0504243
-0.0504975
-0.050505
-0.0504445
-0.0503135
-0.0501098
-0.0498311
-0.0494755
-0.0490408
-0.0485256
-0.0479282
-0.0472473
-0.0464817
-0.0456306
-0.044693
-0.0436691
-0.0425578
-0.0413604
-0.0400756
-0.0387064
-0.0372505
-0.0357131
-0.0340906
-0.032391
-0.0306081
-0.0287543
-0.0268187
-0.0248205
-0.0227411
-0.0206097
-0.0183958
-0.0161438
-0.0138045
-0.0114452
-0.0089885
-0.00653505
-0.0039629
-0.00141416
-0.0351522
-0.036081
-0.0370013
-0.0379119
-0.0388122
-0.0397015
-0.0405779
-0.0414394
-0.0422837
-0.0431087
-0.0439123
-0.0446922
-0.0454461
-0.0461718
-0.0468666
-0.0475282
-0.0481539
-0.0487412
-0.0492874
-0.0497899
-0.0502459
-0.0506527
-0.0510075
-0.0513078
-0.0515506
-0.0517335
-0.0518536
-0.0519084
-0.0518954
-0.0518121
-0.0516561
-0.0514252
-0.0511173
-0.0507304
-0.0502625
-0.0497123
-0.0490779
-0.0483586
-0.0475528
-0.0466603
-0.0456799
-0.0446122
-0.0434561
-0.0422131
-0.0408821
-0.0394663
-0.0379636
-0.0363793
-0.03471
-0.0329641
-0.0311351
-0.0292362
-0.0272559
-0.0252145
-0.0230923
-0.0209201
-0.0186657
-0.0163754
-0.0139977
-0.0116028
-0.00910941
-0.00662254
-0.00401455
-0.00143369
-0.0364365
-0.0373932
-0.0383402
-0.0392762
-0.0402008
-0.0411132
-0.0420115
-0.0428934
-0.0437568
-0.0445994
-0.0454189
-0.0462131
-0.0469796
-0.0477159
-0.0484196
-0.049088
-0.0497186
-0.0503086
-0.0508555
-0.0513564
-0.0518086
-0.0522093
-0.0525559
-0.0528455
-0.0530754
-0.0532429
-0.0533454
-0.0533802
-0.0533449
-0.0532369
-0.0530541
-0.0527941
-0.0524549
-0.0520347
-0.0515315
-0.050944
-0.0502706
-0.0495105
-0.0486624
-0.0477261
-0.0467007
-0.0455868
-0.0443836
-0.0430928
-0.0417134
-0.0402488
-0.0386971
-0.037064
-0.0353458
-0.0335517
-0.0316749
-0.0297292
-0.0277028
-0.0256166
-0.0234504
-0.0212361
-0.0189401
-0.0166106
-0.0141937
-0.0117624
-0.00923181
-0.00671107
-0.00406674
-0.00145349
-0.0377914
-0.0387769
-0.0397514
-0.0407135
-0.041663
-0.0425991
-0.0435196
-0.0444224
-0.0453051
-0.0461653
-0.0470008
-0.0478091
-0.0485879
-0.0493347
-0.0500467
-0.0507215
-0.0513562
-0.0519483
-0.0524949
-0.0529933
-0.0534406
-0.0538342
-0.0541712
-0.0544488
-0.0546643
-0.0548149
-0.0548981
-0.0549112
-0.0548518
-0.0547174
-0.0545057
-0.0542146
-0.0538421
-0.0533864
-0.0528458
-0.0522188
-0.0515041
-0.0507009
-0.0498082
-0.0488259
-0.0477532
-0.0465909
-0.0453383
-0.0439976
-0.0425675
-0.0410521
-0.0394493
-0.0377653
-0.0359965
-0.0341523
-0.0322259
-0.0302319
-0.0281578
-0.0260255
-0.0238141
-0.0215566
-0.019218
-0.0168485
-0.0143917
-0.0119236
-0.00935515
-0.00680027
-0.00411924
-0.00147347
-0.0392178
-0.0402331
-0.0412359
-0.0422247
-0.0431996
-0.0441597
-0.0451029
-0.0460268
-0.0469288
-0.0478067
-0.048658
-0.0494803
-0.0502711
-0.0510278
-0.0517477
-0.0524281
-0.0530663
-0.0536595
-0.0542049
-0.0546997
-0.0551411
-0.0555262
-0.0558522
-0.0561164
-0.0563159
-0.056448
-0.0565102
-0.0564999
-0.0564145
-0.0562517
-0.0560091
-0.0556849
-0.055277
-0.0547837
-0.0542034
-0.0535347
-0.0527764
-0.051928
-0.0509884
-0.0499578
-0.0488355
-0.0476226
-0.0463184
-0.0449254
-0.0434426
-0.0418742
-0.0402183
-0.0384815
-0.0366602
-0.0347642
-0.0327867
-0.0307427
-0.0286195
-0.02644
-0.0241821
-0.0218805
-0.0194984
-0.0170882
-0.0145909
-0.0120855
-0.00947894
-0.00688977
-0.00417181
-0.00149356
-0.0407171
-0.0417629
-0.0427945
-0.0438106
-0.0448114
-0.0457958
-0.0467619
-0.0477069
-0.0486284
-0.0495238
-0.0503907
-0.0512267
-0.052029
-0.0527951
-0.0535221
-0.0542074
-0.0548482
-0.0554416
-0.0559847
-0.0564747
-0.0569088
-0.0572841
-0.0575977
-0.0578469
-0.0580288
-0.0581408
-0.0581802
-0.0581445
-0.0580312
-0.057838
-0.0575627
-0.0572033
-0.0567578
-0.0562247
-0.0556024
-0.0548898
-0.0540858
-0.0531898
-0.052201
-0.0511198
-0.0499456
-0.0486798
-0.0473218
-0.0458745
-0.0443368
-0.0427134
-0.0410025
-0.039211
-0.0373353
-0.0353859
-0.0333556
-0.0312603
-0.0290866
-0.0268587
-0.0245533
-0.0222066
-0.0197803
-0.0173289
-0.0147906
-0.0122477
-0.00960268
-0.00697921
-0.00422423
-0.00151369
-0.0422902
-0.0433672
-0.0444282
-0.0454721
-0.046499
-0.0475081
-0.0484971
-0.0494633
-0.0504041
-0.0513168
-0.052199
-0.0530481
-0.0538614
-0.0546362
-0.0553697
-0.056059
-0.0567013
-0.0572938
-0.0578335
-0.0583175
-0.0587429
-0.0591069
-0.0594066
-0.0596392
-0.0598018
-0.0598919
-0.0599066
-0.0598437
-0.0597005
-0.0594748
-0.0591647
-0.0587679
-0.0582827
-0.0577076
-0.0570411
-0.0562823
-0.0554301
-0.0544843
-0.053444
-0.05231
-0.0510817
-0.0497607
-0.0483468
-0.0468429
-0.0452484
-0.043568
-0.0418
-0.0399521
-0.0380203
-0.0360158
-0.0339312
-0.0317832
-0.0295579
-0.0272804
-0.0249265
-0.0225341
-0.0200629
-0.0175698
-0.01499
-0.0124094
-0.00972588
-0.00706824
-0.0042763
-0.00153378
-0.0439386
-0.0450474
-0.0461383
-0.0472101
-0.0482634
-0.0492972
-0.0503092
-0.0512964
-0.0522563
-0.053186
-0.054083
-0.0549447
-0.0557683
-0.056551
-0.05729
-0.0579823
-0.0586251
-0.0592155
-0.0597504
-0.060227
-0.0606423
-0.0609935
-0.0612776
-0.0614919
-0.0616335
-0.0616997
-0.0616879
-0.0615957
-0.0614207
-0.0611605
-0.0608133
-0.060377
-0.0598499
-0.0592305
-0.0585176
-0.0577103
-0.0568078
-0.0558097
-0.0547157
-0.0535265
-0.0522419
-0.0508636
-0.0493916
-0.0478291
-0.0461755
-0.0444362
-0.0426094
-0.0407031
-0.0387136
-0.0366525
-0.0345122
-0.0323102
-0.030032
-0.0277039
-0.0253008
-0.0228618
-0.0203451
-0.01781
-0.0151885
-0.0125702
-0.00984809
-0.00715652
-0.0043278
-0.00155376
-0.0456634
-0.0468045
-0.0479255
-0.0490257
-0.0501054
-0.0511639
-0.0521987
-0.0532068
-0.0541853
-0.0551315
-0.0560427
-0.0569163
-0.0577494
-0.0585391
-0.0592826
-0.0599768
-0.0606189
-0.0612058
-0.0617346
-0.0622023
-0.062606
-0.0629427
-0.0632095
-0.0634037
-0.0635224
-0.0635629
-0.0635226
-0.0633992
-0.0631901
-0.0628934
-0.0625069
-0.0620289
-0.0614575
-0.0607917
-0.0600301
-0.0591721
-0.0582168
-0.0571643
-0.0560143
-0.0547677
-0.0534244
-0.0519867
-0.0504543
-0.0488311
-0.0471166
-0.0453164
-0.0434289
-0.0414626
-0.0394137
-0.0372946
-0.0350972
-0.0328399
-0.0305078
-0.0281282
-0.0256749
-0.0231889
-0.0206262
-0.0180487
-0.0153854
-0.0127294
-0.00996886
-0.00724372
-0.00437853
-0.00157355
-0.047466
-0.0486397
-0.0497912
-0.0509197
-0.0520259
-0.0531089
-0.0541663
-0.0551948
-0.0561914
-0.0571535
-0.0580783
-0.0589629
-0.0598045
-0.0606002
-0.061347
-0.0620419
-0.0626819
-0.063264
-0.0637852
-0.0642425
-0.0646328
-0.0649533
-0.0652011
-0.0653733
-0.0654671
-0.0654799
-0.0654092
-0.0652524
-0.0650073
-0.0646717
-0.0642438
-0.0637218
-0.063104
-0.0623894
-0.0615768
-0.0606657
-0.0596554
-0.0585462
-0.0573379
-0.0560316
-0.0546275
-0.0531281
-0.0515334
-0.0498474
-0.0480699
-0.046207
-0.0442571
-0.0422291
-0.0401192
-0.0379406
-0.0356847
-0.0333711
-0.030984
-0.0285521
-0.0260479
-0.0235143
-0.0209052
-0.0182853
-0.0155799
-0.0128866
-0.0100877
-0.00732954
-0.00442829
-0.0015931
-0.0493478
-0.0505544
-0.0517364
-0.0528931
-0.0540256
-0.0551329
-0.0562124
-0.0572608
-0.058275
-0.0592522
-0.0601896
-0.0610843
-0.0619334
-0.0627339
-0.0634828
-0.064177
-0.0648135
-0.0653893
-0.0659012
-0.0663463
-0.0667216
-0.0670242
-0.067251
-0.0673993
-0.0674663
-0.0674494
-0.0673461
-0.0671538
-0.0668705
-0.0664939
-0.0660223
-0.065454
-0.0647876
-0.0640219
-0.063156
-0.0621895
-0.0611219
-0.0599537
-0.0586847
-0.0573166
-0.0558495
-0.0542863
-0.0526271
-0.0508764
-0.049034
-0.0471065
-0.0450923
-0.0430011
-0.0408288
-0.0385892
-0.0362737
-0.0339026
-0.0314596
-0.0289746
-0.0264189
-0.0238372
-0.0211815
-0.0185189
-0.0157716
-0.0130411
-0.0102043
-0.00741365
-0.00447688
-0.00161233
-0.05131
-0.0525496
-0.053762
-0.0549468
-0.0561053
-0.0572365
-0.0583376
-0.0594052
-0.0604362
-0.0614276
-0.0623766
-0.0632804
-0.0641357
-0.0649398
-0.0656893
-0.0663814
-0.0670129
-0.0675806
-0.0680816
-0.0685129
-0.0688713
-0.0691539
-0.0693579
-0.0694803
-0.0695185
-0.0694698
-0.0693317
-0.0691019
-0.0687781
-0.0683583
-0.0678407
-0.067224
-0.0665065
-0.0656874
-0.0647659
-0.0637417
-0.0626145
-0.061385
-0.0600532
-0.058621
-0.0570887
-0.0554595
-0.0537338
-0.0519164
-0.0500073
-0.0480133
-0.0459333
-0.0437772
-0.041541
-0.0392392
-0.0368629
-0.0344333
-0.0319335
-0.0293946
-0.0267868
-0.0241568
-0.0214541
-0.018749
-0.0159598
-0.0131925
-0.0103182
-0.00749577
-0.00452413
-0.00163119
-0.053354
-0.0546266
-0.0558692
-0.0570818
-0.0582658
-0.0594202
-0.0605423
-0.0616283
-0.0626751
-0.0636797
-0.0646393
-0.0655507
-0.066411
-0.0672171
-0.0679659
-0.0686542
-0.069279
-0.0698371
-0.0703254
-0.0707409
-0.0710805
-0.0713413
-0.0715204
-0.0716149
-0.0716222
-0.0715395
-0.0713645
-0.0710949
-0.0707284
-0.0702632
-0.0696974
-0.0690298
-0.0682591
-0.0673843
-0.0664048
-0.0653206
-0.0641315
-0.0628384
-0.0614416
-0.059943
-0.0583435
-0.0566462
-0.054852
-0.0529659
-0.0509882
-0.0489261
-0.0467786
-0.0445561
-0.0422546
-0.0398893
-0.0374511
-0.0349621
-0.0324046
-0.0298113
-0.0271509
-0.0244721
-0.0217223
-0.0189747
-0.0161439
-0.0133403
-0.010429
-0.00757559
-0.00456986
-0.0016496
-0.0554811
-0.0567865
-0.058059
-0.0592988
-0.0605077
-0.0616847
-0.0628268
-0.0639303
-0.0649918
-0.0660084
-0.0669772
-0.067895
-0.0687588
-0.0695654
-0.0703118
-0.0709947
-0.071611
-0.0721575
-0.0726313
-0.0730291
-0.073348
-0.0735849
-0.0737371
-0.0738016
-0.0737758
-0.0736571
-0.073443
-0.0731312
-0.0727198
-0.0722069
-0.0715907
-0.07087
-0.0700436
-0.0691108
-0.0680711
-0.0669246
-0.0656713
-0.0643123
-0.0628482
-0.0612812
-0.0596121
-0.0578448
-0.0559801
-0.0540234
-0.0519753
-0.0498434
-0.0476268
-0.0453365
-0.0429683
-0.0405384
-0.0380372
-0.0354878
-0.0328719
-0.0302236
-0.0275102
-0.0247825
-0.0219855
-0.0191956
-0.0163234
-0.0134839
-0.0105362
-0.00765285
-0.00461388
-0.00166752
-0.0576926
-0.0590305
-0.0603323
-0.0615986
-0.0628316
-0.0640303
-0.0651914
-0.0663112
-0.0673863
-0.0684135
-0.06939
-0.0703127
-0.0711784
-0.0719839
-0.0727261
-0.0734017
-0.0740077
-0.0745409
-0.0749981
-0.0753762
-0.0756723
-0.0758834
-0.0760065
-0.0760388
-0.0759778
-0.0758207
-0.0755653
-0.0752093
-0.0747507
-0.0741878
-0.0735188
-0.0727427
-0.0718583
-0.0708652
-0.069763
-0.0685519
-0.0672321
-0.0658051
-0.0642714
-0.0626338
-0.0608932
-0.0590537
-0.0571165
-0.0550875
-0.0529671
-0.0507639
-0.0484765
-0.046117
-0.043681
-0.0411853
-0.0386201
-0.0360095
-0.0333345
-0.0306307
-0.0278639
-0.0250871
-0.022243
-0.0194109
-0.0164977
-0.0136231
-0.0106397
-0.00772726
-0.00465603
-0.00168487
-0.0599897
-0.0613594
-0.0626898
-0.0639819
-0.065238
-0.0664573
-0.0676363
-0.0687711
-0.0698582
-0.0708947
-0.0718774
-0.0728032
-0.0736691
-0.0744717
-0.0752078
-0.0758743
-0.0764681
-0.0769858
-0.0774244
-0.0777808
-0.078052
-0.078235
-0.0783269
-0.078325
-0.0782265
-0.078029
-0.07773
-0.0773275
-0.0768194
-0.0762041
-0.0754801
-0.0746463
-0.0737016
-0.0726459
-0.0714788
-0.0702008
-0.0688124
-0.067315
-0.0657097
-0.0639992
-0.062185
-0.0602715
-0.0582599
-0.0561567
-0.0539624
-0.0516861
-0.0493267
-0.0468966
-0.0443915
-0.0418289
-0.0391987
-0.0365263
-0.0337916
-0.0310318
-0.0282113
-0.0253854
-0.022494
-0.0196202
-0.0166663
-0.0137572
-0.0107389
-0.00779857
-0.00469614
-0.0017016
-0.0623734
-0.0637744
-0.0651325
-0.0664492
-0.0677274
-0.0689659
-0.0701614
-0.0713097
-0.0724075
-0.0734514
-0.0744386
-0.0753658
-0.07623
-0.0770277
-0.0777559
-0.0784113
-0.0789907
-0.079491
-0.0799089
-0.0802415
-0.0804856
-0.0806384
-0.0806969
-0.0806584
-0.0805203
-0.08028
-0.0799352
-0.0794839
-0.0789241
-0.0782542
-0.0774728
-0.076579
-0.0755718
-0.0744512
-0.0732169
-0.0718698
-0.0704104
-0.0688405
-0.0671614
-0.0653761
-0.0634862
-0.0614966
-0.0594088
-0.0572296
-0.0549598
-0.0526089
-0.0501759
-0.047674
-0.0450986
-0.0424682
-0.0397722
-0.0370372
-0.0342421
-0.031426
-0.0285515
-0.0256764
-0.0227381
-0.0198228
-0.0168288
-0.013886
-0.0108335
-0.00786652
-0.00473405
-0.00171766
-0.0648449
-0.0662762
-0.0676609
-0.069001
-0.0702999
-0.0715563
-0.0727667
-0.0739269
-0.0750335
-0.0760831
-0.0770729
-0.0779996
-0.0788601
-0.079651
-0.0803691
-0.0810113
-0.0815743
-0.0820549
-0.08245
-0.0827566
-0.0829715
-0.0830918
-0.0831147
-0.0830375
-0.0828574
-0.0825722
-0.0821794
-0.081677
-0.0810631
-0.0803363
-0.0794953
-0.0785392
-0.0774672
-0.0762794
-0.0749757
-0.0735573
-0.0720247
-0.0703801
-0.068625
-0.0667628
-0.0647953
-0.0627277
-0.0605618
-0.0583049
-0.055958
-0.053531
-0.0510231
-0.0484481
-0.0458013
-0.0431022
-0.0403396
-0.0375413
-0.0346854
-0.0318126
-0.028884
-0.0259598
-0.0229745
-0.0200182
-0.0169845
-0.0140089
-0.0109233
-0.00793086
-0.00476961
-0.00173298
-0.0674051
-0.0688655
-0.0702754
-0.0716376
-0.0729556
-0.0742283
-0.0754519
-0.0766222
-0.0777357
-0.0787891
-0.0797795
-0.0807036
-0.0815583
-0.0823402
-0.0830462
-0.0836729
-0.0842173
-0.0846761
-0.0850462
-0.0853244
-0.0855079
-0.0855936
-0.0855787
-0.0854604
-0.0852362
-0.0849037
-0.0844606
-0.0839049
-0.0832347
-0.0824488
-0.0815459
-0.0805252
-0.0793861
-0.0781288
-0.0767536
-0.0752615
-0.0736536
-0.0719322
-0.070099
-0.0681578
-0.0661107
-0.0639633
-0.0617176
-0.0593813
-0.0569556
-0.0544512
-0.0518671
-0.0492178
-0.0464987
-0.0437299
-0.0409
-0.0380377
-0.0351207
-0.0321909
-0.0292081
-0.0262347
-0.0232028
-0.0202059
-0.0171332
-0.0141256
-0.0110079
-0.00799135
-0.00480266
-0.00174751
-0.0700549
-0.071543
-0.0729766
-0.0743591
-0.0756945
-0.0769816
-0.0782166
-0.079395
-0.0805133
-0.0815684
-0.0825572
-0.0834766
-0.0843233
-0.085094
-0.0857855
-0.0863946
-0.0869181
-0.0873528
-0.0876956
-0.0879433
-0.0880931
-0.0881419
-0.0880869
-0.0879254
-0.0876548
-0.0872728
-0.0867771
-0.0861657
-0.0854372
-0.0845899
-0.0836228
-0.0825353
-0.0813268
-0.0799979
-0.0785488
-0.076981
-0.0752955
-0.0734952
-0.0715818
-0.0695597
-0.0674311
-0.065202
-0.0628747
-0.0604575
-0.0579516
-0.0553683
-0.0527068
-0.0499822
-0.0471897
-0.0443504
-0.0414525
-0.0385259
-0.0355472
-0.0325602
-0.0295231
-0.0265007
-0.0234224
-0.0203854
-0.0172744
-0.0142358
-0.011087
-0.00804776
-0.00483306
-0.0017612
-0.0727947
-0.074309
-0.0757645
-0.0771656
-0.0785164
-0.0798159
-0.0810601
-0.0822444
-0.0833654
-0.0844199
-0.0854049
-0.0863172
-0.0871536
-0.0879108
-0.0885856
-0.0891747
-0.089675
-0.0900833
-0.0903965
-0.0906115
-0.0907252
-0.0907349
-0.0906375
-0.0904306
-0.0901114
-0.0896776
-0.0891271
-0.0884581
-0.0876688
-0.0867579
-0.0857244
-0.0845678
-0.0832878
-0.081885
-0.0803599
-0.0787141
-0.076949
-0.0750677
-0.0730722
-0.0709671
-0.0687551
-0.0664426
-0.0640321
-0.0615323
-0.0589448
-0.0562813
-0.0535411
-0.0507402
-0.0478734
-0.044963
-0.0419963
-0.0390049
-0.0359642
-0.0329199
-0.0298284
-0.0267573
-0.0236328
-0.0205563
-0.0174076
-0.0143391
-0.0111603
-0.00809985
-0.00486066
-0.00177399
-0.0756253
-0.0771638
-0.0786392
-0.0800566
-0.0814208
-0.0827305
-0.0839816
-0.0851696
-0.0862909
-0.0873424
-0.0883212
-0.089224
-0.0900477
-0.090789
-0.0914446
-0.0920114
-0.0924862
-0.0928658
-0.093147
-0.0933269
-0.0934024
-0.0933706
-0.0932287
-0.0929741
-0.0926041
-0.0921164
-0.091509
-0.0907799
-0.0899276
-0.088951
-0.0878489
-0.0866211
-0.0852674
-0.0837885
-0.0821852
-0.0804593
-0.0786125
-0.0766481
-0.0745685
-0.0723787
-0.0700814
-0.0676837
-0.0651883
-0.0626044
-0.0599339
-0.057189
-0.0543691
-0.0514908
-0.048549
-0.0455666
-0.0425308
-0.0394741
-0.0363712
-0.0332695
-0.0301236
-0.0270039
-0.0238336
-0.0207182
-0.0175326
-0.0144351
-0.0112275
-0.00814742
-0.00488531
-0.00178582
-0.0785468
-0.0801074
-0.0816005
-0.083032
-0.0844071
-0.0857247
-0.0869802
-0.0881693
-0.0892884
-0.0903344
-0.0913045
-0.0921953
-0.0930039
-0.0937267
-0.0943608
-0.0949028
-0.0953497
-0.0956982
-0.0959452
-0.0960877
-0.0961227
-0.0960472
-0.0958586
-0.095554
-0.095131
-0.0945872
-0.0939206
-0.0931294
-0.0922121
-0.0911674
-0.0899946
-0.0886934
-0.0872639
-0.0857069
-0.0840232
-0.0822152
-0.0802846
-0.0782352
-0.0760695
-0.0737929
-0.0714087
-0.0689241
-0.0663422
-0.0636729
-0.060918
-0.0580905
-0.0551898
-0.0522333
-0.0492156
-0.0461607
-0.0430552
-0.0399329
-0.0367675
-0.0336083
-0.0304081
-0.02724
-0.0240244
-0.0208706
-0.0176489
-0.0145235
-0.0112884
-0.00819024
-0.00490689
-0.00179665
-0.0815593
-0.0831398
-0.0846479
-0.086091
-0.0874745
-0.0887972
-0.0900546
-0.0912422
-0.0923564
-0.0933943
-0.094353
-0.0952293
-0.0960201
-0.0967221
-0.097332
-0.0978469
-0.0982634
-0.0985784
-0.0987889
-0.0988917
-0.098884
-0.0987626
-0.098525
-0.0981683
-0.0976901
-0.0970882
-0.0963604
-0.0955049
-0.0945203
-0.0934056
-0.0921599
-0.0907833
-0.0892758
-0.0876384
-0.0858725
-0.0839802
-0.0819638
-0.0798273
-0.0775736
-0.0752086
-0.0727356
-0.0701625
-0.0674927
-0.0647364
-0.0618959
-0.0589847
-0.0560023
-0.0529667
-0.0498725
-0.0467444
-0.0435688
-0.0403806
-0.0371526
-0.0339358
-0.0306815
-0.0274653
-0.0242048
-0.0210133
-0.0177562
-0.0146041
-0.0113427
-0.0082281
-0.00492525
-0.00180642
-0.0846628
-0.0862603
-0.0877809
-0.0892327
-0.0906219
-0.091947
-0.0932035
-0.0943867
-0.0954932
-0.0965203
-0.0974649
-0.098324
-0.0990944
-0.0997729
-0.100356
-0.100841
-0.101225
-0.101504
-0.101676
-0.101737
-0.101684
-0.101515
-0.101226
-0.100815
-0.10028
-0.0996174
-0.0988262
-0.0979044
-0.0968506
-0.0956637
-0.0943431
-0.0928889
-0.0913014
-0.0895817
-0.0877313
-0.0857529
-0.0836487
-0.0814232
-0.0790797
-0.0766244
-0.0740609
-0.0713978
-0.0686385
-0.0657941
-0.0628668
-0.0598708
-0.0568057
-0.0536902
-0.0505188
-0.0473172
-0.0440711
-0.0408168
-0.0375261
-0.0342517
-0.0309434
-0.0276794
-0.0243743
-0.0211458
-0.0178542
-0.0146764
-0.0113901
-0.00826079
-0.00494025
-0.00181507
-0.0894685
-0.0909984
-0.092456
-0.0938479
-0.0951725
-0.096425
-0.0976009
-0.098697
-0.0997103
-0.100638
-0.101477
-0.102225
-0.102877
-0.103431
-0.103884
-0.104233
-0.104474
-0.104604
-0.104621
-0.104521
-0.104301
-0.103959
-0.103492
-0.102898
-0.102173
-0.101316
-0.100326
-0.0992011
-0.0979401
-0.0965426
-0.0950088
-0.0933392
-0.0915352
-0.0895984
-0.0875317
-0.0853379
-0.0830216
-0.0805864
-0.078039
-0.0753835
-0.0726288
-0.0697787
-0.0668447
-0.0638295
-0.0607477
-0.0575991
-0.0544031
-0.051154
-0.0478784