/*--------------------------------*- C++ -*----------------------------------*\
  =========                 |
  \\      /  F ield         | OpenFOAM: The Open Source CFD Toolbox
   \\    /   O peration     | Website:  https://openfoam.org
    \\  /    A nd           | Version:  7
     \\/     M anipulation  |
\*---------------------------------------------------------------------------*/
FoamFile
{
    version     2.0;
    format      ascii;
    class       volScalarField;
    location    "3.000466";
    object      p;
}
// * * * * * * * * * * * * * * * * * * * * * * * * * * * * * * * * * * * * * //

dimensions      [0 2 -2 0 0 0 0];

internalField   nonuniform List<scalar> 
5800
(
-0.194883
-0.202462
-0.216725
-0.235818
-0.257586
-0.142573
-0.107303
-0.0740926
-0.0434978
-0.0161705
0.00773064
0.0281061
0.0449812
0.0584968
0.0688839
0.0764373
0.0814899
0.0843898
0.0854816
0.085091
0.0835179
0.0810346
0.0778789
0.0742533
0.0703274
0.0662402
0.0621034
0.0580044
0.0540099
0.0501681
0.0465122
0.0430622
0.0398282
0.0368119
0.0340094
0.0314126
0.029011
0.0267929
0.0247457
0.0228568
0.021114
0.0195054
0.0180199
0.0166473
0.0153782
0.014204
0.0131169
0.0121098
0.0111763
0.0103105
0.00950703
0.00876173
0.00806881
0.00742752
0.00682981
0.00627263
0.00575317
0.0052683
0.0048154
0.00439167
0.00399509
0.00362276
0.00327346
0.00294368
0.00263359
0.00233816
0.00206004
0.00179101
0.00153831
0.00128756
0.00105435
0.000812919
0.000593854
0.000350833
0.000139755
-0.15001
-0.11415
-0.0804362
-0.0488638
-0.0211549
0.00319702
0.0240143
0.0412991
0.0551904
0.0659208
0.0737879
0.0791277
0.0822911
0.0836251
0.0834577
0.0820889
0.0797917
0.0768046
0.0733308
0.0695405
0.0655733
0.0615416
0.0575339
0.0536176
0.0498423
0.0462424
0.0428392
0.039644
0.0366598
0.0338835
0.0313082
0.0289242
0.0267204
0.0246849
0.0228057
0.0210708
0.0194687
0.0179887
0.0166207
0.0153554
0.0141844
0.0131
0.0120952
0.0111637
0.0102996
0.00949752
0.00875318
0.00806117
0.00742096
0.00682408
0.00626761
0.00574877
0.00526442
0.00481198
0.00438864
0.00399242
0.00362041
0.00327139
0.00294186
0.002632
0.00233678
0.00205884
0.00178999
0.00153745
0.00128685
0.00105378
0.000812482
0.00059354
0.000350648
0.000139675
-0.164315
-0.127025
-0.0917394
-0.059667
-0.0308756
-0.0055866
0.0160764
0.0341381
0.0487441
0.0601318
0.0686037
0.0745004
0.0781769
0.0799838
0.0802526
0.0792839
0.0773507
0.0746934
0.0715167
0.0679916
0.0642592
0.0604334
0.0566043
0.0528416
0.049197
0.0457074
0.0423965
0.039278
0.036357
0.0336329
0.0311002
0.0287511
0.0265759
0.0245637
0.0227036
0.0209845
0.0193956
0.0179265
0.0165675
0.0153099
0.0141453
0.0130663
0.0120661
0.0111385
0.0102778
0.00947857
0.00873621
0.00804578
0.00740775
0.00681259
0.00625758
0.00573996
0.00525666
0.00480513
0.0043826
0.00398709
0.0036157
0.00326725
0.00293822
0.00262882
0.00233401
0.00205645
0.00178794
0.00153572
0.00128542
0.00105264
0.000811607
0.000592909
0.000350279
0.000139515
-0.183894
-0.144428
-0.107981
-0.074624
-0.0445511
-0.0180478
0.00475123
0.0238722
0.0394652
0.0517722
0.061099
0.0677894
0.0722018
0.0746901
0.0755886
0.0752001
0.0737946
0.0716148
0.0688678
0.0657267
0.0623344
0.0588071
0.0552376
0.0516983
0.0482444
0.0449159
0.0417403
0.0387344
0.0359068
0.0332595
0.03079
0.0284927
0.0263598
0.0243824
0.0225509
0.0208554
0.019286
0.0178332
0.0164878
0.0152416
0.0140866
0.0130158
0.0120225
0.0111008
0.0102451
0.00945023
0.00871126
0.00802171
0.00738803
0.00679535
0.00624254
0.00572676
0.00524504
0.00479487
0.00437353
0.00397908
0.00360865
0.00326104
0.00293277
0.00262405
0.00232985
0.00205286
0.00178487
0.00153313
0.00128328
0.00105092
0.000810294
0.000591964
0.000349724
0.000139275
-0.2056
-0.165437
-0.12736
-0.0926387
-0.0612447
-0.0334169
-0.00933292
0.0110161
0.0277783
0.0411945
0.0515687
0.0592436
0.064577
0.067923
0.0696166
0.0699652
0.0692321
0.0676599
0.0654595
0.0628069
0.0598477
0.0567011
0.0534631
0.0502101
0.047001
0.0438802
0.0408794
0.0380196
0.0353134
0.0327665
0.0303797
0.0281503
0.0260732
0.0241417
0.022348
0.0206837
0.0191402
0.017709
0.0163818
0.0151507
0.0140085
0.0129485
0.0119644
0.0110505
0.0102015
0.00941257
0.00867912
0.00800458
0.00736182
0.00677225
0.0062225
0.00570917
0.00522954
0.00478119
0.00436144
0.00396842
0.00359925
0.00325276
0.0029255
0.00261769
0.00232431
0.00204808
0.00178077
0.00152967
0.00128043
0.00104862
0.000808542
0.000590703
0.000348984
0.000138956
-0.228286
-0.187756
-0.148381
-0.112459
-0.07988
-0.0507982
-0.0254335
-0.00381314
0.0141969
0.0288271
0.0403716
0.0491642
0.055556
0.0598961
0.062517
0.0637256
0.0637868
0.0629331
0.061378
0.0593023
0.0568553
0.0541596
0.0513154
0.0484032
0.0454866
0.0426148
0.0398243
0.0371411
0.0345821
0.0321574
0.0298717
0.0277257
0.0257173
0.0238424
0.0220955
0.0204699
0.0189586
0.0175542
0.0162494
0.0150373
0.013911
0.0128645
0.0118919
0.0109878
0.0101471
0.0093654
0.00863802
0.00796074
0.00732751
0.00674303
0.00619741
0.00568721
0.00521018
0.00476409
0.00434634
0.0039551
0.00358751
0.00324242
0.00291641
0.00260974
0.00231739
0.0020421
0.00177564
0.00152535
0.00127685
0.00104575
0.000806349
0.000589125
0.000348057
0.000138558
-0.249587
-0.209411
-0.169447
-0.132751
-0.099319
-0.0692318
-0.0427453
-0.0199393
-0.000710983
0.0151472
0.0279081
0.0378873
0.0454207
0.0508454
0.0544857
0.0566425
0.0575874
0.0575424
0.0567136
0.0552868
0.0534165
0.0512299
0.0488313
0.0463059
0.0437226
0.0411357
0.0385868
0.0361073
0.0337189
0.0314365
0.029269
0.0272209
0.0252934
0.0234855
0.0217939
0.0202144
0.0187414
0.017369
0.016091
0.0149014
0.0137943
0.0127639
0.011805
0.0109125
0.0100818
0.00930862
0.0085881
0.00791509
0.00728448
0.00670796
0.00616735
0.00566089
0.00518697
0.00474359
0.00432823
0.00393913
0.00357343
0.00323003
0.00290551
0.00260021
0.0023091
0.00203492
0.00176949
0.00152017
0.00127256
0.00104231
0.000803714
0.000587231
0.000346942
0.000138081
-0.267729
-0.228702
-0.189105
-0.15229
-0.11849
-0.087786
-0.0604701
-0.0366816
-0.0163658
0.000646351
0.0145935
0.0257621
0.0344638
0.0410158
0.0457273
0.048889
0.0507668
0.0515927
0.0515544
0.0508335
0.0495907
0.047959
0.0460478
0.0439472
0.0417312
0.0394594
0.0371792
0.0349271
0.0327303
0.0306084
0.0285747
0.026638
0.0248031
0.0230719
0.0214441
0.0199176
0.0184889
0.0171536
0.0159068
0.0147434
0.0136584
0.0126467
0.0117037
0.0108249
0.0100057
0.00924238
0.00853055
0.00786662
0.00725399
0.00666759
0.00613217
0.00563019
0.00515991
0.00471968
0.0043071
0.00392052
0.00355702
0.00321558
0.00289281
0.00258909
0.00229942
0.00202656
0.00176232
0.00151411
0.00126756
0.00103829
0.000800634
0.00058502
0.000345638
0.000137527
-0.281589
-0.244366
-0.206177
-0.17006
-0.136482
-0.105641
-0.0778836
-0.0534088
-0.0322206
-0.0142049
0.000829556
0.0131291
0.0229717
0.0306471
0.0364422
0.0406314
0.0434697
0.0451881
0.0459812
0.0460103
0.0454342
0.0443925
0.043001
0.0413551
0.0395339
0.0376025
0.0356138
0.0336097
0.0316228
0.0296777
0.0277922
0.0259794
0.0242478
0.0226028
0.0210469
0.0195803
0.0182017
0.0169083
0.0156968
0.0145632
0.0135034
0.0125131
0.0115883
0.0107248
0.00991892
0.00916683
0.00846497
0.00780974
0.00719619
0.00661547
0.00609085
0.00559493
0.00512896
0.00469235
0.00428297
0.00389927
0.00353829
0.00319908
0.00287829
0.0025764
0.00228837
0.002017
0.00175411
0.00150719
0.00126183
0.00103369
0.000797107
0.00058249
0.000344143
0.000136896
-0.255758
-0.219887
-0.185325
-0.15261
-0.122149
-0.0943892
-0.0695824
-0.0477971
-0.028987
-0.01302
0.000300212
0.0112095
0.0199622
0.0268167
0.0320254
0.0358274
0.0384431
0.0400718
0.0408766
0.0409969
0.0405719
0.0397243
0.0385559
0.0371512
0.0355806
0.0339024
0.0321639
0.0304029
0.028649
0.0269248
0.0252474
0.0236294
0.0220794
0.0206029
0.0192029
0.01788
0.0166335
0.0154615
0.0143612
0.0133295
0.0123632
0.0114587
0.0106125
0.00982143
0.00908202
0.00839101
0.00774489
0.00714073
0.00658347
0.00604588
0.0055554
0.00509422
0.00466158
0.00425579
0.0038754
0.00351724
0.00318054
0.00286198
0.00256213
0.00227596
0.00200625
0.00174488
0.00149939
0.00125538
0.00102852
0.000793129
0.000579642
0.000342456
0.00013619
-0.262895
-0.229921
-0.197639
-0.166412
-0.136857
-0.109544
-0.0847829
-0.0627084
-0.0433509
-0.026646
-0.0124547
-0.000590698
0.00915847
0.0170171
0.0232102
0.0279562
0.0314609
0.0339144
0.0354883
0.0363206
0.0365328
0.0362474
0.0355735
0.0346018
0.0334081
0.032056
0.0305979
0.0290767
0.0275269
0.0259756
0.0244444
0.0229493
0.0215027
0.0201131
0.018786
0.0175244
0.0163295
0.015201
0.0141375
0.0131369
0.012197
0.011315
0.0104881
0.00971334
0.00898794
0.00830891
0.00767342
0.007079
0.00652101
0.00599915
0.00551124
0.00505576
0.00462749
0.00422554
0.00384887
0.00349385
0.00315996
0.00284386
0.00254628
0.00226218
0.00199431
0.00173461
0.00149073
0.00124822
0.00102276
0.000788698
0.000576474
0.000340574
0.000135414
-0.266401
-0.236553
-0.2069
-0.177646
-0.149486
-0.123057
-0.0987143
-0.0766664
-0.0570261
-0.0398013
-0.0249147
-0.0122349
-0.00159639
0.00718608
0.014306
0.0199566
0.0243253
0.0275894
0.0299127
0.0314446
0.032303
0.0325944
0.0324282
0.031902
0.0310978
0.0300844
0.0289191
0.0276498
0.0263154
0.0249478
0.0235723
0.0222092
0.020874
0.0195783
0.0183302
0.0171353
0.0159966
0.0149156
0.0138922
0.0129258
0.0120148
0.0111574
0.0103515
0.00959474
0.00888469
0.00821886
0.00759473
0.00700963
0.0064613
0.00594511
0.00546163
0.00501162
0.00458993
0.00419244
0.00381976
0.00346809
0.00313731
0.00282391
0.00252885
0.00224705
0.00198119
0.0017233
0.00148118
0.00124033
0.00101642
0.000783808
0.000572987
0.000338493
0.00013457
-0.240388
-0.21342
-0.186334
-0.159933
-0.134773
-0.111196
-0.0894782
-0.0698195
-0.0523008
-0.0369086
-0.0235686
-0.0121659
-0.00255786
0.0054136
0.0119134
0.0171069
0.0211553
0.024212
0.0264198
0.0279096
0.0287834
0.0291359
0.0290656
0.0286608
0.0279962
0.0271343
0.0261271
0.0250183
0.0238439
0.0226334
0.0214105
0.0201941
0.018999
0.0178361
0.016713
0.0156351
0.0146054
0.0136256
0.0126962
0.0118166
0.010986
0.010203
0.00946571
0.00877236
0.00812085
0.00750899
0.0069345
0.00639526
0.0058874
0.00541211
0.00496431
0.004546
0.00415578
0.00378835
0.00344014
0.00311265
0.00280213
0.00250981
0.00223057
0.00196685
0.00171094
0.00147074
0.00123172
0.00100949
0.000778453
0.000569179
0.000336212
0.000133665
-0.217666
-0.192776
-0.168287
-0.144663
-0.122144
-0.101034
-0.0816071
-0.0640158
-0.0483099
-0.0344731
-0.0224419
-0.0121187
-0.00338342
0.00389762
0.00986509
0.0146613
0.0184263
0.0212941
0.0233907
0.0248322
0.0257075
0.0261021
0.0261056
0.0257986
0.0252489
0.0245131
0.0236391
0.0226668
0.0216294
0.0205545
0.0194642
0.0183762
0.0173041
0.016258
0.0152453
0.0142709
0.013338
0.0124483
0.0116027
0.010801
0.0100426
0.00932637
0.00865105
0.00801499
0.0074164
0.00685336
0.00632382
0.00582547
0.00535614
0.00491823
0.00450439
0.00411167
0.0037536
0.00340982
0.00308624
0.00277867
0.00248924
0.0022128
0.00195131
0.00169752
0.00145942
0.0012224
0.00100197
0.000772626
0.000565048
0.000333724
0.000132707
-0.220045
-0.197383
-0.174811
-0.152822
-0.131561
-0.111292
-0.0923228
-0.0748654
-0.059032
-0.0448622
-0.032343
-0.0214222
-0.0120195
-0.00403443
0.00264688
0.00814578
0.0125865
0.0160922
0.0187818
0.0207674
0.0221528
0.0230164
0.0234364
0.0234952
0.0232659
0.02281
0.0221793
0.0214175
0.0205615
0.0196422
0.018685
0.0177104
0.0167348
0.0157707
0.0148275
0.0139121
0.0130294
0.0121824
0.0113731
0.0106024
0.00987043
0.00917685
0.00852088
0.00790141
0.00731706
0.00676628
0.00624739
0.00575831
0.00529813
0.00486521
0.0044606
0.00407974
0.00371335
0.00337393
0.00305702
0.00275314
0.00246704
0.00219396
0.00193466
0.00168308
0.00144722
0.00121241
0.000993859
0.000766326
0.000560597
0.000331028
0.000131708
-0.200492
-0.179851
-0.159461
-0.13954
-0.12028
-0.101958
-0.0848194
-0.0690318
-0.0546868
-0.0418191
-0.0304206
-0.020451
-0.0118441
-0.00451427
0.0016371
0.00671655
0.0108343
0.0141001
0.0166206
0.0184961
0.0198195
0.0206602
0.0210921
0.0211903
0.0210212
0.020641
0.0200971
0.0194298
0.0186732
0.0178558
0.017001
0.0161276
0.0152505
0.0143814
0.013529
0.0126998
0.0118984
0.0111279
0.0103902
0.00968653
0.00901713
0.00838185
0.0077801
0.00721099
0.00667334
0.0061658
0.00568675
0.00523525
0.00481034
0.00441069
0.00403533
0.00368046
0.00334279
0.00302312
0.00272304
0.00244194
0.00217313
0.00191651
0.00166746
0.00143406
0.00120181
0.00098519
0.000759554
0.000555825
0.000328119
0.000130685
-0.202428
-0.183671
-0.164845
-0.146232
-0.128059
-0.11052
-0.0938525
-0.0782631
-0.0638878
-0.0508041
-0.0390453
-0.0286099
-0.0194663
-0.0115576
-0.00480916
0.00086625
0.00556408
0.00938335
0.012423
0.0147793
0.0165436
0.0177983
0.0186073
0.0190397
0.0191635
0.0190389
0.0187175
0.0182434
0.0176542
0.0169815
0.0162513
0.0154847
0.0146991
0.013908
0.0131221
0.0123495
0.0115964
0.0108671
0.0101646
0.00949095
0.00884724
0.00823396
0.00765109
0.00709819
0.0065745
0.00607904
0.00561059
0.00516831
0.00475126
0.00435839
0.00398799
0.00363654
0.00330745
0.00299665
0.00269927
0.00241609
0.00214745
0.00189518
0.00164997
0.00141941
0.00118992
0.000975659
0.000752179
0.000550678
0.000324971
0.000129654
-0.186419
-0.169104
-0.151748
-0.134651
-0.117965
-0.101885
-0.0866271
-0.0723591
-0.0591924
-0.0471964
-0.0364061
-0.0268232
-0.0184194
-0.0111441
-0.00493001
0.000302379
0.00463988
0.0081725
0.0109904
0.0131819
0.0148325
0.0160173
0.0167939
0.0172241
0.0173684
0.0172807
0.0170086
0.0165938
0.0160714
0.0154703
0.0148147
0.014124
0.013414
0.0126973
0.0119838
0.011281
0.0105947
0.00992889
0.00928659
0.00866972
0.00807943
0.00751626
0.0069803
0.00647119
0.00598835
0.0055309
0.0050982
0.00468934
0.0043035
0.00393895
0.00359404
0.00326865
0.00296014
0.00266864
0.00239346
0.00212853
0.00187734
0.00163289
0.0014037
0.0011757
0.000964598
0.000743981
0.00054506
0.000321545
0.000128621
-0.172902
-0.156784
-0.140726
-0.124918
-0.109505
-0.0946861
-0.0806394
-0.0674981
-0.0553593
-0.0442926
-0.0343331
-0.0254816
-0.0177126
-0.0109796
-0.00522091
-0.000363671
0.00367109
0.00696531
0.00960086
0.0116573
0.0132093
0.014329
0.0150783
0.0155131
0.0156853
0.0156404
0.0154223
0.0150693
0.0146139
0.0140829
0.0134986
0.0128789
0.0122388
0.0115901
0.0109424
0.0103028
0.00967686
0.00906855
0.00848069
0.00791521
0.00737326
0.00685549
0.00636201
0.00589265
0.00544689
0.00502431
0.00462417
0.00424583
0.00388783
0.00354907
0.0032283
0.00292483
0.00263703
0.00236446
0.00210121
0.00185552
0.00161609
0.00139108
0.00116499
0.000955456
0.000736433
0.000539398
0.000317966
0.000127624
-0.175612
-0.160786
-0.145816
-0.130892
-0.116187
-0.101882
-0.0881572
-0.0751675
-0.0630134
-0.0517835
-0.0415427
-0.0323214
-0.0241201
-0.0169155
-0.0106651
-0.00531233
-0.00079146
0.00296819
0.0060394
0.00849783
0.0104167
0.0118649
0.0129057
0.0135991
0.0140019
0.0141668
0.0141374
0.0139524
0.0136457
0.0132457
0.0127759
0.0122557
0.0117013
0.0111263
0.0105416
0.00995605
0.00937645
0.00880794
0.0082543
0.00771824
0.00720162
0.00670565
0.00623098
0.00577787
0.00534621
0.00493587
0.00454632
0.00417716
0.00382713
0.00349554
0.00318097
0.00288327
0.00259997
0.0023315
0.00207298
0.00183073
0.0015943
0.00137197
0.00114817
0.000942532
0.00072682
0.000532981
0.000313815
0.000126764
-0.158048
-0.143767
-0.129524
-0.115472
-0.101775
-0.0885925
-0.076063
-0.0642923
-0.0533665
-0.04335
-0.0342801
-0.0261678
-0.0190006
-0.0127456
-0.00735381
-0.00276532
0.00108679
0.00427239
0.00685952
0.00891472
0.0105018
0.0116812
0.0125099
0.0130407
0.0133214
0.013394
0.0132972
0.0130663
0.0127318
0.0123196
0.0118513
0.0113438
0.0108112
0.0102643
0.00971208
0.00916152
0.00861819
0.00808639
0.00756934
0.00706933
0.00658795
0.00612615
0.00568443
0.00526289
0.00486154
0.00447997
0.00411789
0.00377415
0.00344832
0.00313885
0.00284578
0.00256656
0.00230202
0.00204745
0.00180807
0.00157439
0.00135484
0.00113391
0.000931119
0.000717622
0.000526728
0.000309372
0.000126013
-0.152704
-0.139428
-0.126161
-0.113036
-0.100197
-0.0877889
-0.0759409
-0.0647571
-0.0543215
-0.0446984
-0.0359298
-0.028034
-0.0210073
-0.0148266
-0.00945392
-0.00483953
-0.000926839
0.00234419
0.0050343
0.00720416
0.00891303
0.0102175
0.011171
0.0118234
0.01222
0.0124021
0.0124078
0.0122715
0.0120237
0.0116902
0.0112929
0.0108492
0.0103736
0.00987752
0.00937042
0.00885987
0.00835196
0.00785145
0.00736202
0.00688638
0.0064265
0.00598367
0.0055587
0.00515197
0.00476371
0.0043937
0.00404182
0.0037071
0.00338933
0.00308698
0.00280027
0.0025267
0.0022673
0.00201752
0.00178212
0.00155217
0.00133612
0.00111869
0.000918733
0.000707956
0.000519858
0.000304974
0.000124771
-0.147465
-0.135123
-0.122763
-0.110504
-0.098472
-0.0867997
-0.0756078
-0.0649962
-0.0550466
-0.0458231
-0.03737
-0.0297108
-0.0228489
-0.0167699
-0.0114449
-0.0068337
-0.00288879
0.000441854
0.00321241
0.00547777
0.00729222
0.00870815
0.00977555
0.0105414
0.0110492
0.0113389
0.0114471
0.0114071
0.0112487
0.0109973
0.0106746
0.0102984
0.00988361
0.00944216
0.008984
0.00851722
0.00804835
0.0075826
0.00712407
0.00667586
0.00624031
0.00581904
0.00541321
0.00502345
0.00465024
0.00429357
0.00395351
0.00362928
0.00332087
0.00302682
0.00274754
0.00248058
0.00222715
0.00198287
0.00175222
0.00152666
0.00131463
0.00110114
0.00090447
0.000696998
0.000511951
0.000300177
0.000123124
-0.142464
-0.130986
-0.119466
-0.10801
-0.0967321
-0.0857509
-0.0751791
-0.0651118
-0.0556283
-0.0467921
-0.0386494
-0.0312278
-0.0245369
-0.0185696
-0.013305
-0.00871111
-0.00474823
-0.00137145
0.00146702
0.00381642
0.00572607
0.00724425
0.00841751
0.00929003
0.00990313
0.010295
0.0105008
0.0105529
0.0104802
0.0103079
0.0100575
0.00974718
0.00939191
0.0090042
0.00859438
0.00817095
0.00774086
0.00730974
0.00688206
0.00646132
0.00605019
0.00565063
0.0052641
0.00489151
0.00453356
0.00419044
0.00386242
0.0035489
0.00325004
0.00296451
0.00269286
0.0024327
0.00218542
0.00194678
0.00172107
0.00150008
0.00129221
0.00108275
0.000889562
0.000685577
0.000503689
0.000295253
0.000121292
-0.137565
-0.126901
-0.116173
-0.105478
-0.0949163
-0.0845955
-0.0746202
-0.0650807
-0.0560534
-0.0476007
-0.0397702
-0.0325926
-0.0260823
-0.0202387
-0.0150478
-0.0104849
-0.0065175
-0.00310744
-0.000213055
0.00220936
0.00420432
0.00581604
0.00708759
0.00806027
0.00877303
0.00926222
0.00956167
0.00970252
0.00971291
0.00961763
0.00943811
0.00919251
0.00889611
0.00856171
0.00819998
0.0078198
0.00742851
0.00703211
0.00663545
0.00624237
0.0058559
0.00547831
0.00511134
0.00475617
0.00441373
0.00408442
0.00376868
0.00346611
0.00317702
0.00290023
0.00263639
0.00238323
0.00214227
0.00190941
0.00168882
0.00147254
0.00126896
0.00106365
0.000874092
0.000673741
0.000495103
0.000290194
0.000119296
-0.132763
-0.122867
-0.112885
-0.102909
-0.0930269
-0.0833366
-0.0739347
-0.0649065
-0.0563254
-0.0482523
-0.0407351
-0.0338071
-0.0274867
-0.0217783
-0.016674
-0.0121559
-0.0081978
-0.0047679
-0.00183033
0.000653382
0.00272309
0.00441897
0.00578063
0.00684643
0.00765293
0.00823458
0.00862367
0.00885017
0.00894133
0.00892142
0.0088116
0.00863002
0.0083921
0.00811086
0.00779727
0.00746053
0.00710834
0.00674703
0.00638181
0.00601685
0.00565551
0.00530035
0.00495339
0.00461608
0.00428957
0.00397445
0.00367136
0.0033801
0.0031011
0.00283335
0.00257759
0.00233171
0.00209731
0.00187043
0.00165517
0.00144382
0.0012447
0.00104371
0.00085793
0.000661398
0.000486119
0.000284956
0.000117129
-0.128066
-0.118891
-0.109611
-0.100313
-0.0910747
-0.0819852
-0.0731332
-0.0645991
-0.0564528
-0.0487536
-0.0415494
-0.0348748
-0.0287515
-0.0231882
-0.0181824
-0.0137218
-0.00978613
-0.00634937
-0.00338104
-0.000847658
0.00128617
0.00305665
0.00449998
0.00565158
0.0065456
0.00721451
0.007689
0.00799773
0.00816703
0.00822051
0.00817897
0.00806045
0.0078804
0.007652
0.00738646
0.00709326
0.00678038
0.00645448
0.00612107
0.00578466
0.00544887
0.00511659
0.00479009
0.00447107
0.00416089
0.00386038
0.00357032
0.00329071
0.00302213
0.00276373
0.00251635
0.00227802
0.00205042
0.00182975
0.00162004
0.00141383
0.00121936
0.00102286
0.000841031
0.000648516
0.000476712
0.000279521
0.000114805
-0.123472
-0.114973
-0.106355
-0.0976957
-0.0890672
-0.0805494
-0.0722241
-0.0641666
-0.0564434
-0.0491116
-0.0422184
-0.0357997
-0.0298794
-0.0244699
-0.019573
-0.0151815
-0.0112805
-0.0078491
-0.00486194
-0.00229016
-0.000102686
0.0017329
0.00324941
0.00447939
0.00545451
0.00620524
0.00676059
0.00714788
0.00739237
0.00751697
0.00754203
0.00748534
0.00736234
0.00718628
0.00696854
0.0067188
0.00644531
0.00615501
0.0058537
0.00554615
0.0052363
0.00492727
0.00462162
0.00432127
0.00402782
0.00374227
0.0034656
0.00319798
0.00294014
0.0026914
0.00245267
0.00222216
0.00200161
0.00178737
0.00158343
0.00138258
0.00119294
0.00100111
0.000823387
0.000635088
0.00046688
0.00027388
0.000112334
-0.118983
-0.111117
-0.103119
-0.0950624
-0.0870109
-0.0790369
-0.0712156
-0.0636172
-0.0563047
-0.049333
-0.0427482
-0.0365866
-0.0308738
-0.0256253
-0.0208465
-0.0165347
-0.0126797
-0.00926529
-0.00627069
-0.00367146
-0.00144056
0.000450715
0.00203193
0.00333276
0.00438244
0.00520936
0.00584083
0.00630275
0.00661927
0.00681249
0.00690222
0.00690596
0.006839
0.00671461
0.00654424
0.00633778
0.00610366
0.00584906
0.00558003
0.00530161
0.00501799
0.00473256
0.00444811
0.0041668
0.00389042
0.00362019
0.00335724
0.00310195
0.00285515
0.00261635
0.00238656
0.00216412
0.00195086
0.00174328
0.00154533
0.00135004
0.00116541
0.000978449
0.00080499
0.000621104
0.000456619
0.000268023
0.00010973
-0.114596
-0.107323
-0.0999077
-0.0924185
-0.0849127
-0.0774554
-0.0701157
-0.062959
-0.0560446
-0.0494248
-0.0431446
-0.0372401
-0.0317384
-0.0266569
-0.0220044
-0.0177819
-0.0139833
-0.0105967
-0.00760546
-0.00498929
-0.00272496
-0.000787242
0.000850236
0.00221436
0.00333193
0.00422928
0.00493194
0.00546436
0.00584954
0.00610868
0.00626097
0.00632352
0.00631141
0.00623783
0.0061143
0.00595079
0.0057559
0.005537
0.00530037
0.00505128
0.00479415
0.00453261
0.00426967
0.00400772
0.00374875
0.00349416
0.00324526
0.0030026
0.00276715
0.00253858
0.00231799
0.00210389
0.00189815
0.00169746
0.0015057
0.0013162
0.00113677
0.000954856
0.000785827
0.000606551
0.000445923
0.000261939
0.000106999
-0.110311
-0.103593
-0.0967244
-0.0897693
-0.082779
-0.0758123
-0.0689323
-0.0621998
-0.0556705
-0.0493941
-0.0434138
-0.0377656
-0.0324771
-0.0275676
-0.0230484
-0.0189237
-0.0151911
-0.0118423
-0.00886474
-0.00624171
-0.0039536
-0.00197852
-0.000293124
0.00112674
0.00230549
0.00326737
0.00403616
0.0046348
0.00508506
0.00540721
0.00561975
0.0057393
0.00578066
0.00575691
0.00567951
0.00555849
0.00540258
0.00521929
0.00501508
0.00479544
0.00456499
0.00432758
0.00408643
0.00384414
0.00360287
0.00336423
0.00312968
0.00289995
0.00267614
0.00245809
0.00224696
0.00204145
0.00184347
0.0016499
0.00146454
0.00128104
0.00110699
0.000930321
0.000765888
0.000591418
0.000434787
0.000255617
0.000104151
-0.106129
-0.0999282
-0.0935725
-0.0871196
-0.0806161
-0.0741147
-0.0676731
-0.0613475
-0.05519
-0.0492477
-0.0435621
-0.0381683
-0.0330942
-0.0283605
-0.0239806
-0.0199613
-0.0163032
-0.0130017
-0.0100474
-0.00742709
-0.0051245
-0.00312087
-0.00139577
7.23311e-05
0.00130552
0.00232598
0.0031557
0.00381611
0.00432773
0.0047098
0.00498007
0.00515463
0.00524793
0.00527283
0.00524071
0.0051616
0.00504429
0.00489642
0.00472458
0.00453443
0.00433078
0.00411769
0.00389856
0.00367617
0.00345288
0.00323047
0.00301056
0.00279404
0.00258214
0.00237487
0.00217346
0.0019768
0.00178681
0.00160058
0.00142184
0.00124455
0.00107606
0.000904833
0.000745163
0.000575694
0.000423207
0.000249048
0.000101192
-0.102047
-0.0963305
-0.090455
-0.0844743
-0.0784299
-0.0723695
-0.0663454
-0.0604096
-0.0546106
-0.0489928
-0.0435957
-0.0384535
-0.0335941
-0.0290391
-0.0248034
-0.0208961
-0.0173204
-0.0140747
-0.0111526
-0.00854409
-0.00623593
-0.00421231
-0.00245553
-0.000946587
0.000334315
0.00140735
0.00229273
0.00301035
0.00357942
0.00401815
0.00434348
0.00457088
0.0047144
0.00478663
0.0047988
0.00476089
0.00468169
0.00456893
0.0044293
0.0042686
0.00409182
0.00390317
0.00370622
0.00350396
0.00329889
0.00309296
0.00288795
0.00268491
0.00248519
0.00228894
0.00209751
0.00190993
0.00172816
0.0015495
0.00137759
0.00120671
0.00104398
0.000878381
0.000723645
0.00055937
0.00041118
0.000242225
9.8128e-05
-0.0980652
-0.0928007
-0.0873749
-0.0818376
-0.0762262
-0.0705832
-0.0649564
-0.0593935
-0.0539395
-0.0486362
-0.0435209
-0.0386268
-0.0339815
-0.029607
-0.0255195
-0.0217298
-0.0182436
-0.0150614
-0.0121799
-0.00959169
-0.00728645
-0.00525105
-0.0034704
-0.0019279
-0.000605944
0.000513657
0.00144935
0.0022195
0.00284201
0.003334
0.00371154
0.00398946
0.00418133
0.0042994
0.00435472
0.00435715
0.00431546
0.00423739
0.00412972
0.00399837
0.00384843
0.00368428
0.00350965
0.00332768
0.00314103
0.00295181
0.00276193
0.00257261
0.00238531
0.00220034
0.00201912
0.00184086
0.00166753
0.00149665
0.00133177
0.00116751
0.00101073
0.000850958
0.000701328
0.000542438
0.000398705
0.000235139
9.49641e-05
-0.0941827
-0.08934
-0.084335
-0.0792139
-0.0740104
-0.0687624
-0.063513
-0.0583063
-0.0531839
-0.0481846
-0.0433441
-0.0386939
-0.0342613
-0.0300682
-0.026132
-0.0224648
-0.0190739
-0.0159624
-0.0131291
-0.0105692
-0.00827487
-0.00623558
-0.00443861
-0.00286965
-0.00151323
-0.000353054
0.000627587
0.00144552
0.00211734
0.00265905
0.00308581
0.00341178
0.00364996
0.00381226
0.00390945
0.00395123
0.00394632
0.00390242
0.00382637
0.00372415
0.00360097
0.00346132
0.00330908
0.00314752
0.00297945
0.00280712
0.00263259
0.00245721
0.00228256
0.0021091
0.00193832
0.0017696
0.00160492
0.00144203
0.0012844
0.00112696
0.000976319
0.000822557
0.000678209
0.00052489
0.000385779
0.000227784
9.17044e-05
-0.0903984
-0.0859493
-0.0813379
-0.0766073
-0.0717877
-0.0669129
-0.0620219
-0.057155
-0.0523506
-0.047645
-0.0430715
-0.0386605
-0.0344382
-0.0304269
-0.0266442
-0.0231033
-0.0198131
-0.0167785
-0.0140003
-0.0114761
-0.0092003
-0.00716459
-0.00535857
-0.00377008
-0.00238565
-0.00119084
-0.000170629
0.000690299
0.00140721
0.00199499
0.00246787
0.00283926
0.00312159
0.00332634
0.00346398
0.00354401
0.00357502
0.00356467
0.00351979
0.00344642
0.00334983
0.00323461
0.00310477
0.00296369
0.00281432
0.00265905
0.00250004
0.0023388
0.002177
0.00201526
0.00185513
0.00169616
0.00154035
0.00138567
0.00123547
0.00108506
0.000940733
0.000793175
0.000654285
0.000506722
0.000372403
0.000220157
8.83523e-05
-0.0867118
-0.0826294
-0.078386
-0.0740215
-0.0695631
-0.0650407
-0.0604895
-0.0559463
-0.0514466
-0.0470238
-0.0427095
-0.0385322
-0.0345176
-0.0306873
-0.0270595
-0.023648
-0.020463
-0.0175108
-0.0147941
-0.0123124
-0.0100621
-0.00803706
-0.00622895
-0.00462761
-0.00322147
-0.00199788
-0.000943454
-4.43531e-05
0.000713375
0.00134348
0.00185926
0.00227332
0.00259751
0.00284281
0.00301935
0.00313639
0.00320235
0.00322482
0.00321057
0.00316566
0.00309542
0.00300451
0.00289702
0.00277644
0.00264585
0.00250774
0.0023644
0.00221747
0.0020687
0.00191887
0.00176959
0.00162059
0.00147385
0.00132756
0.001185
0.0010418
0.000903981
0.000762812
0.000629557
0.000487929
0.000358578
0.000212251
8.49107e-05
-0.0831219
-0.0793814
-0.0754818
-0.0714603
-0.0673412
-0.0631512
-0.058922
-0.0546868
-0.0504784
-0.0463277
-0.0422642
-0.0383149
-0.0345044
-0.0308539
-0.0273816
-0.0241019
-0.0210257
-0.0181608
-0.0155112
-0.0130781
-0.0108599
-0.00885219
-0.00704861
-0.00544085
-0.00401913
-0.0027725
-0.00168916
-0.000756703
3.75282e-05
0.000706156
0.0012615
0.00171539
0.002079
0.00236283
0.00257661
0.00272931
0.00282915
0.00288358
0.00289933
0.00288241
0.00283819
0.00277137
0.00268612
0.00258602
0.00247423
0.00235337
0.00222582
0.00209333
0.00195776
0.00182002
0.00168178
0.00154291
0.00140543
0.00126773
0.00113299
0.000997195
0.000866066
0.000731469
0.000604026
0.000468512
0.000344304
0.000204066
8.1382e-05
-0.0796284
-0.0762061
-0.0726275
-0.068927
-0.0651267
-0.06125
-0.0573252
-0.0533828
-0.0494525
-0.0455631
-0.0417419
-0.0380144
-0.0344039
-0.0309314
-0.0276145
-0.024468
-0.0215037
-0.0187301
-0.0161526
-0.0137738
-0.0115936
-0.00960947
-0.00781666
-0.00620862
-0.00477724
-0.00351319
-0.00240615
-0.00144512
-0.000618714
8.45742e-05
0.000676096
0.00116686
0.00156738
0.00188759
0.00213682
0.00232371
0.00245623
0.00254168
0.00258669
0.00259722
0.00257861
0.00253562
0.00247243
0.00239272
0.00229971
0.00219613
0.00208444
0.00196651
0.00184428
0.00171878
0.00159173
0.00146318
0.00133514
0.00120621
0.00107948
0.00095126
0.000827
0.000699151
0.000577698
0.00044847
0.000329584
0.0001956
7.77684e-05
-0.0762305
-0.0731043
-0.0698251
-0.066425
-0.0629237
-0.0593419
-0.0557049
-0.0520402
-0.0483752
-0.0447362
-0.0411486
-0.0376363
-0.0342215
-0.0309243
-0.0277621
-0.0247499
-0.0218996
-0.0192207
-0.0167196
-0.0144001
-0.0122634
-0.0103086
-0.00853244
-0.00692996
-0.00549462
-0.00421857
-0.00309295
-0.00210808
-0.00125382
-0.000519757
0.000104491
0.000629104
0.00106391
0.00141827
0.00170106
0.00192056
0.00208447
0.0021999
0.00227334
0.00231066
0.00231719
0.00229767
0.00225631
0.00219684
0.00212255
0.00203624
0.00194045
0.00183715
0.00172836
0.00161523
0.00149953
0.00138146
0.00126302
0.00114303
0.00102447
0.000904012
0.000786795
0.000665867
0.000550579
0.000427805
0.000314422
0.000186852
7.40715e-05
-0.0729277
-0.0700768
-0.0670768
-0.0639574
-0.0607363
-0.0574318
-0.0540665
-0.0506651
-0.0472526
-0.0438531
-0.0404903
-0.0371863
-0.0339623
-0.0308374
-0.0278287
-0.0249508
-0.0222163
-0.0196348
-0.0172138
-0.0149579
-0.0128698
-0.0109496
-0.00919553
-0.00760413
-0.00617025
-0.00488746
-0.00374823
-0.00274418
-0.00186635
-0.0011054
-0.000451917
0.000103462
0.000569852
0.000956039
0.0012704
0.00152083
0.00171474
0.00185901
0.00195995
0.00202335
0.00205445
0.00205797
0.00203814
0.0019987
0.00194301
0.00187391
0.00179403
0.00170542
0.00161015
0.0015095
0.00140527
0.00129781
0.00118912
0.00107823
0.000968013
0.000855474
0.00074547
0.000631629
0.000522679
0.000406524
0.000298824
0.000177824
7.02933e-05
-0.0697195
-0.0671242
-0.0643842
-0.0615269
-0.0585683
-0.0555243
-0.0524151
-0.0492629
-0.0460904
-0.0429198
-0.0397728
-0.0366702
-0.0336317
-0.0306756
-0.0278184
-0.0250746
-0.0224567
-0.0199749
-0.0176369
-0.0154486
-0.0134133
-0.0115326
-0.00980575
-0.0082306
-0.00680334
-0.00551883
-0.00437082
-0.00335215
-0.00245497
-0.00167102
-0.000991793
-0.000408775
8.64443e-05
0.000502047