/*--------------------------------*- C++ -*----------------------------------*\
  =========                 |
  \\      /  F ield         | OpenFOAM: The Open Source CFD Toolbox
   \\    /   O peration     | Website:  https://openfoam.org
    \\  /    A nd           | Version:  7
     \\/     M anipulation  |
\*---------------------------------------------------------------------------*/
FoamFile
{
    version     2.0;
    format      ascii;
    class       volScalarField;
    location    "15";
    object      p;
}
// * * * * * * * * * * * * * * * * * * * * * * * * * * * * * * * * * * * * * //

dimensions      [0 2 -2 0 0 0 0];

internalField   nonuniform List<scalar> 
433
(
8.19152
7.91259
7.68106
7.47071
7.26882
7.0704
25.3631
19.2997
14.9796
11.9646
9.90243
8.51278
7.5809
6.94945
6.50786
6.18153
23.5692
18.2949
14.4192
11.6244
9.64932
8.28121
7.34423
6.70108
6.25017
5.91964
5.66109
5.44345
5.24776
5.06304
4.8833
-23.7609
-15.2805
-8.86391
-4.13643
-0.778338
1.54369
3.09116
4.07051
4.64766
4.94968
5.06955
5.07276
5.00365
4.89111
4.75335
4.60144
4.44189
4.27849
4.1134
3.94796
-61.4645
-44.2968
-30.6232
-20.0428
-12.1135
-6.33855
-2.26861
0.49168
2.2828
3.38375
4.01211
4.32916
4.44878
4.44771
4.37553
4.26298
4.12839
3.98234
3.83075
3.6769
3.52266
3.36929
3.21739
3.06792
2.92201
2.18542
2.27279
2.6914
3.24616
3.7675
4.17943
4.43217
4.55829
4.602
4.58379
4.5213
4.42935
4.31853
4.19572
4.06518
3.9295
3.7903
3.64871
3.50564
3.36188
3.21812
3.07508
2.9335
2.79383
2.65689
2.52362
2.38676
116.297
91.6946
70.4241
53.0269
39.3193
28.846
21.0619
15.4277
11.4461
8.69328
6.83541
5.60628
4.80154
4.27219
3.91443
3.65913
3.46224
3.29707
3.1483
3.00771
2.87129
2.73734
2.60542
2.47576
2.34863
2.22466
2.10458
1.98132
79.749
64.2832
50.0685
38.0025
28.3429
20.912
15.3827
11.4114
8.61321
6.68463
5.38426
4.51932
3.94442
3.55508
3.27973
3.07167
2.90183
2.75302
2.61565
2.4847
2.3578
2.23404
2.11321
1.99556
1.88127
1.77078
1.66459
1.5559
-83.1065
-62.5141
-46.1603
-33.4761
-23.6373
-16.0297
-10.22
-5.92436
-2.87285
-0.762259
0.640744
1.52415
2.04073
2.30814
2.41307
2.41662
2.35999
2.26982
2.16257
2.048
1.93164
1.81649
1.70412
1.59534
1.49065
1.39024
1.29433
1.20317
1.11037
-174.901
-141.411
-111.324
-85.3361
-63.6395
-46.0591
-32.2192
-21.6532
-13.8352
-8.24344
-4.37267
-1.79838
-0.165248
0.812628
1.35322
1.61443
1.70514
1.69697
1.63493
1.546
1.44565
1.3423
1.24029
1.14172
1.04754
0.958202
0.873795
0.794375
0.719962
0.644787
11.7102
8.55855
6.16201
4.54092
3.60707
3.12353
2.85517
2.66477
2.50584
2.3509
2.16456
1.98554
1.81639
1.65623
1.50635
1.36723
1.23837
1.11874
1.00719
0.902706
0.804554
0.712241
0.625472
0.544078
0.467969
0.397116
0.331433
0.270871
0.215301
0.159758
211.563
180.668
149.628
119.873
93.1007
70.2769
51.7083
37.145
26.0717
17.9036
12.0625
8.00241
5.23728
3.40206
2.21241
1.4536
0.97211
0.663145
0.458098
0.313989
0.205103
0.116769
0.0410441
-0.0261317
-0.0867149
-0.141589
-0.191124
-0.235534
-0.274909
-0.309507
-0.343333
91.0393
84.2308
74.9479
63.2394
50.6874
38.8229
28.6425
20.4679
14.1999
9.55862
6.23169
3.92742
2.36452
1.32713
0.651245
0.214729
-0.0685824
-0.256608
-0.386686
-0.481841
-0.555652
-0.615778
-0.666364
-0.709571
-0.746518
-0.7778
-0.80377
-0.824711
-0.840747
-0.852326
-0.862385
-108.932
-83.0953
-62.5428
-46.4762
-34.0119
-24.4117
-17.1457
-11.8179
-8.04872
-5.473
-3.7687
-2.68533
-2.02962
-1.65643
-1.46182
-1.37448
-1.34751
-1.35148
-1.36883
-1.3897
-1.4089
-1.42399
-1.43402
-1.43881
-1.43854
-1.43353
-1.42393
-1.41038
-1.39465
-0.583895
-0.609319
-0.651458
-0.710312
-0.783217
-0.872024
-0.976412
-1.09597
-1.22838
-1.34395
-0.551422
-0.571706
-0.604
-0.647013
-0.696011
-0.750167
-0.805574
-0.857213
-0.896868
-0.891977
-0.518882
-0.534025
-0.556473
-0.583603
-0.608824
-0.628395
-0.63498
-0.619264
-0.568153
-0.447385
-0.486316
-0.496329
-0.508736
-0.520298
-0.521868
-0.507053
-0.465267
-0.383257
-0.244068
-0.0127179
-0.45376
-0.458677
-0.46128
-0.457217
-0.435344
-0.386515
-0.297057
-0.150267
0.0737469
0.409931
-0.421253
-0.421122
-0.414015
-0.394487
-0.349449
-0.267138
-0.130943
0.0787014
0.383846
0.818904
-0.388832
-0.383718
-0.36702
-0.332228
-0.264369
-0.149268
0.0324964
0.302722
0.684972
1.21293
-0.356533
-0.346517
-0.32038
-0.270556
-0.180309
-0.0332388
0.192708
0.520953
0.97606
1.59109
-0.324391
-0.309561
-0.274159
-0.209579
-0.0974767
0.0806394
0.3492
0.732661
1.25622
1.95266
-0.292438
-0.272831
-0.228415
-0.149406
)
;

boundaryField
{
    inlet
    {
        type            zeroGradient;
    }
    outlet
    {
        type            fixedValue;
        value           nonuniform 0();
    }
    cylinder
    {
        type            zeroGradient;
    }
    top
    {
        type            symmetryPlane;
    }
    bottom
    {
        type            symmetryPlane;
    }
    defaultFaces
    {
        type            empty;
    }
    procBoundary18to12
    {
        type            processor;
        value           nonuniform List<scalar> 
42
(
-175.027
-140.062
-140.062
-130.566
-104.559
-81.5923
-62.0668
-46.0778
-33.4354
-23.7899
-16.6594
-11.5661
-8.06484
-5.74137
-4.25476
-3.34199
-2.8063
-2.50729
-2.34943
-2.2706
-2.23266
-2.21324
-2.19993
-2.18632
-2.16948
-2.14829
-2.12258
-2.09258
-2.05867
-2.02089
-1.98006
-1.93661
-0.616263
-0.646806
-0.698765
-0.773402
-0.870076
-0.993457
-1.14677
-1.33432
-1.56068
-1.80032
)
;
    }
    procBoundary18to19
    {
        type            processor;
        value           nonuniform List<scalar> 
25
(
-3.65683
0.344076
8.55111
8.55111
33.7113
33.7113
39.2351
30.4908
30.4908
-34.7612
-34.7612
-82.3948
-82.3948
2.53274
2.53274
142.932
95.2087
95.2087
-107.814
-107.814
-210.585
15.3577
15.3577
242.54
97.6894
)
;
    }
    procBoundary18to24
    {
        type            processor;
        value           nonuniform List<scalar> 
35
(
3.0537
4.80197
5.86165
6.44728
6.87364
6.87364
6.67778
6.48235
5.92214
5.92214
5.69971
5.4965
5.30255
4.70557
4.70557
4.52855
4.35195
3.78319
3.78319
3.61954
3.45801
3.29994
2.77232
2.77232
-0.0160472
0.192086
0.501533
0.937213
1.52471
2.29706
-0.260708
-0.236373
-0.183194
-0.0160472
-0.0901339
)
;
    }
}


// ************************************************************************* //
