/*--------------------------------*- C++ -*----------------------------------*\
  =========                 |
  \\      /  F ield         | OpenFOAM: The Open Source CFD Toolbox
   \\    /   O peration     | Website:  https://openfoam.org
    \\  /    A nd           | Version:  7
     \\/     M anipulation  |
\*---------------------------------------------------------------------------*/
FoamFile
{
    version     2.0;
    format      ascii;
    class       surfaceScalarField;
    location    "3.6";
    object      phi;
}
// * * * * * * * * * * * * * * * * * * * * * * * * * * * * * * * * * * * * * //

dimensions      [0 3 -1 0 0 0 0];

internalField   nonuniform List<scalar> 
615
(
8.18379e-05
4.25796e-06
8.22146e-05
4.18622e-06
8.25856e-05
4.11608e-06
8.2951e-05
4.0475e-06
8.33109e-05
3.98043e-06
8.36653e-05
3.91484e-06
8.40145e-05
3.85068e-06
8.43585e-05
3.78792e-06
8.46975e-05
3.72652e-06
8.50314e-05
3.66644e-06
8.53605e-05
3.60765e-06
8.56847e-05
3.55011e-06
8.60043e-05
3.49379e-06
8.63193e-05
3.43866e-06
8.66297e-05
3.38469e-06
8.69357e-05
3.33184e-06
8.72373e-05
3.28009e-06
8.75347e-05
3.2294e-06
8.78279e-05
3.17976e-06
8.81169e-05
3.13113e-06
8.84019e-05
3.08349e-06
8.86829e-05
3.03681e-06
8.89601e-05
2.99107e-06
8.92334e-05
2.94624e-06
8.95029e-05
2.9023e-06
8.97688e-05
2.85922e-06
9.0031e-05
2.81699e-06
9.02897e-05
2.77559e-06
2.73499e-06
5.65908e-05
7.94297e-06
5.73281e-05
7.78356e-06
5.80521e-05
7.62755e-06
5.87628e-05
7.47492e-06
5.94607e-05
7.32564e-06
6.0146e-05
7.17967e-06
6.08189e-05
7.03697e-06
6.14798e-05
6.8975e-06
6.21288e-05
6.7612e-06
6.27662e-05
6.62802e-06
6.33922e-05
6.49792e-06
6.40072e-05
6.37083e-06
6.46113e-05
6.2467e-06
6.52047e-05
6.12547e-06
6.57877e-05
6.00708e-06
6.63605e-05
5.89147e-06
6.69234e-05
5.77859e-06
6.74765e-05
5.66837e-06
6.802e-05
5.56075e-06
6.85542e-05
5.45567e-06
6.90792e-05
5.35308e-06
6.95953e-05
5.25291e-06
7.01027e-05
5.15511e-06
7.06015e-05
5.05962e-06
7.10919e-05
4.96638e-06
7.15741e-05
4.87534e-06
7.20483e-05
4.78644e-06
7.25146e-05
4.69962e-06
7.29732e-05
4.61484e-06
7.34243e-05
4.53204e-06
7.38681e-05
4.45116e-06
7.43046e-05
4.37217e-06
7.47341e-05
4.29501e-06
7.51567e-05
4.21962e-06
7.55725e-05
4.14597e-06
7.59817e-05
4.07401e-06
7.63844e-05
4.0037e-06
7.67807e-05
3.93498e-06
7.71709e-05
3.86782e-06
7.75549e-05
3.80217e-06
7.7933e-05
3.738e-06
7.83052e-05
3.67526e-06
7.86718e-05
3.61392e-06
7.90327e-05
3.55393e-06
7.93881e-05
3.49527e-06
7.97381e-05
3.43789e-06
8.00829e-05
3.38177e-06
8.04224e-05
3.32686e-06
8.07569e-05
3.27314e-06
8.10865e-05
3.22057e-06
8.14111e-05
3.16913e-06
8.1731e-05
3.11878e-06
8.20462e-05
3.06949e-06
8.23568e-05
3.02124e-06
8.26629e-05
2.974e-06
8.29646e-05
2.92774e-06
8.32619e-05
2.88244e-06
8.3555e-05
2.83806e-06
8.38438e-05
2.7946e-06
8.41286e-05
2.75202e-06
8.44094e-05
2.7103e-06
8.46862e-05
2.66942e-06
8.49592e-05
2.62935e-06
8.52283e-05
2.59009e-06
8.54937e-05
2.55159e-06
8.57554e-05
2.51386e-06
2.47686e-06
5.14731e-05
7.17367e-06
5.22281e-05
7.02858e-06
5.2969e-05
6.8866e-06
5.36962e-05
6.74772e-06
5.44099e-05
6.6119e-06
5.51105e-05
6.47912e-06
5.57981e-05
6.34933e-06
5.64731e-05
6.22249e-06
5.71358e-05
6.09856e-06
5.77863e-05
5.97749e-06
5.8425e-05
5.85922e-06
5.90521e-05
5.74372e-06
5.96679e-05
5.63093e-06
6.02726e-05
5.52079e-06
6.08664e-05
5.41325e-06
6.14496e-05
5.30825e-06
6.20225e-05
5.20575e-06
6.25852e-05
5.10568e-06
6.31379e-05
5.00799e-06
6.3681e-05
4.91262e-06
6.42145e-05
4.81953e-06
6.47388e-05
4.72865e-06
6.5254e-05
4.63993e-06
6.57603e-05
4.55333e-06
6.62579e-05
4.46878e-06
6.6747e-05
4.38624e-06
6.72278e-05
4.30565e-06
6.77004e-05
4.22696e-06
6.81651e-05
4.15014e-06
6.8622e-05
4.07512e-06
6.90714e-05
4.00186e-06
6.95132e-05
3.93031e-06
6.99478e-05
3.86044e-06
7.03752e-05
3.79218e-06
7.07957e-05
3.72551e-06
7.12093e-05
3.66038e-06
7.16163e-05
3.59675e-06
7.20167e-05
3.53457e-06
7.24107e-05
3.47382e-06
7.27984e-05
3.41444e-06
7.318e-05
3.35641e-06
7.35556e-05
3.29968e-06
7.39253e-05
3.24422e-06
7.42892e-05
3.19e-06
7.46475e-05
3.13699e-06
7.50002e-05
3.08514e-06
7.53476e-05
3.03443e-06
7.56896e-05
2.98484e-06
7.60264e-05
2.93632e-06
7.63581e-05
2.88884e-06
7.66849e-05
2.8424e-06
7.70067e-05
2.79694e-06
7.73237e-05
2.75245e-06
7.76361e-05
2.70891e-06
7.79438e-05
2.66628e-06
7.8247e-05
2.62454e-06
7.85458e-05
2.58367e-06
7.88402e-05
2.54365e-06
7.91303e-05
2.50445e-06
7.94163e-05
2.46606e-06
7.96982e-05
2.42844e-06
7.9976e-05
2.39159e-06
8.02499e-05
2.35548e-06
8.05198e-05
2.32009e-06
8.0786e-05
2.28541e-06
8.10485e-05
2.25141e-06
2.21808e-06
4.6486e-05
6.39452e-06
4.72503e-05
6.26421e-06
4.80002e-05
6.13672e-06
4.87359e-05
6.01202e-06
4.94577e-05
5.8901e-06
5.01659e-05
5.77091e-06
5.08608e-05
5.65443e-06
5.15427e-05
5.54061e-06
5.22118e-05
5.42942e-06
5.28685e-05
5.32081e-06
5.3513e-05
5.21475e-06
5.41456e-05
5.11117e-06
5.47664e-05
5.01004e-06
5.53759e-05
4.9113e-06
5.59743e-05
4.81491e-06
5.65617e-05
4.72082e-06
5.71385e-05
4.62897e-06
5.77049e-05
4.53932e-06
5.8261e-05
4.45182e-06
5.88072e-05
4.36641e-06
5.93437e-05
4.28305e-06
5.98707e-05
4.20169e-06
6.03883e-05
4.12228e-06
6.08969e-05
4.04478e-06
6.13965e-05
3.96912e-06
6.18875e-05
3.89527e-06
6.23699e-05
3.82319e-06
6.28441e-05
3.75282e-06
6.33101e-05
3.68412e-06
6.37682e-05
3.61705e-06
6.42185e-05
3.55156e-06
6.46612e-05
3.48762e-06
6.50964e-05
3.42517e-06
6.55244e-05
3.36419e-06
6.59453e-05
3.30464e-06
6.63592e-05
3.24646e-06
6.67663e-05
3.18964e-06
6.71668e-05
3.13412e-06
6.75607e-05
3.07989e-06
6.79483e-05
3.02689e-06
6.83296e-05
2.97509e-06
6.87048e-05
2.92448e-06
6.9074e-05
2.875e-06
6.94374e-05
2.82663e-06
6.9795e-05
2.77935e-06
7.0147e-05
2.73311e-06
7.04936e-05
2.6879e-06
7.08347e-05
2.64369e-06
7.11706e-05
2.60044e-06
7.15013e-05
2.55813e-06
7.1827e-05
2.51674e-06
7.21477e-05
2.47624e-06
7.24635e-05
2.43661e-06
7.27746e-05
2.39783e-06
7.3081e-05
2.35986e-06
7.33828e-05
2.3227e-06
7.36802e-05
2.28631e-06
7.39732e-05
2.25068e-06
7.42618e-05
2.2158e-06
7.45463e-05
2.18163e-06
7.48265e-05
2.14816e-06
7.51028e-05
2.11537e-06
7.5375e-05
2.08325e-06
7.56433e-05
2.05177e-06
7.59078e-05
2.02092e-06
7.61685e-05
1.99069e-06
1.96106e-06
4.16442e-05
5.61448e-06
4.24091e-05
5.49924e-06
4.31594e-05
5.3865e-06
4.38951e-05
5.27625e-06
4.46168e-05
5.16846e-06
4.53246e-05
5.06311e-06
4.60188e-05
4.96016e-06
4.66999e-05
4.85959e-06
4.73679e-05
4.76135e-06
4.80233e-05
4.66541e-06
4.86664e-05
4.57172e-06
4.92973e-05
4.48026e-06
4.99164e-05
4.39096e-06
5.05239e-05
4.30379e-06
5.11201e-05
4.21871e-06
5.17052e-05
4.13567e-06
5.22795e-05
4.05463e-06
5.28433e-05
3.97554e-06
5.33968e-05
3.89835e-06
5.39402e-05
3.82303e-06
5.44737e-05
3.74953e-06
5.49976e-05
3.6778e-06
5.55121e-05
3.6078e-06
5.60174e-05
3.53948e-06
5.65137e-05
3.47282e-06
5.70012e-05
3.40775e-06
5.74801e-05
3.34425e-06
5.79507e-05
3.28227e-06
5.8413e-05
3.22177e-06
5.88673e-05
3.16272e-06
5.93138e-05
3.10507e-06
5.97527e-05
3.04878e-06
6.0184e-05
2.99383e-06
6.0608e-05
2.94017e-06
6.10249e-05
2.88778e-06
6.14348e-05
2.83661e-06
6.18378e-05
2.78663e-06
6.22341e-05
2.73781e-06
6.26238e-05
2.69012e-06
6.30072e-05
2.64353e-06
6.33843e-05
2.59801e-06
6.37552e-05
2.55352e-06
6.41202e-05
2.51005e-06
6.44793e-05
2.46756e-06
6.48326e-05
2.42602e-06
6.51803e-05
2.38542e-06
6.55225e-05
2.34571e-06
6.58593e-05
6.61908e-05
6.65171e-05
6.68384e-05
6.71547e-05
6.74662e-05
6.77729e-05
6.8075e-05
6.83724e-05
6.86654e-05
6.8954e-05
6.92383e-05
6.95184e-05
6.97944e-05
7.00663e-05
7.03342e-05
7.05982e-05
7.08584e-05
7.11148e-05
3.69611e-05
3.77174e-05
3.84589e-05
3.91858e-05
3.98986e-05
4.05975e-05
4.12829e-05
4.19549e-05
4.2614e-05
4.32603e-05
4.38943e-05
4.45161e-05
4.51261e-05
4.57245e-05
4.63115e-05
4.68875e-05
4.74528e-05
4.80074e-05
4.85518e-05
4.9086e-05
4.96105e-05
5.01253e-05
5.06307e-05
5.1127e-05
5.16143e-05
5.20928e-05
5.25628e-05
5.30244e-05
5.34779e-05
5.39234e-05
5.43611e-05
5.47912e-05
5.52138e-05
5.56291e-05
5.60373e-05
5.64386e-05
5.68331e-05
5.72209e-05
5.76022e-05
5.79772e-05
5.83459e-05
5.87086e-05
5.90653e-05
5.94162e-05
5.97614e-05
6.01011e-05
)
;

boundaryField
{
    inlet
    {
        type            calculated;
        value           nonuniform 0();
    }
    outlet
    {
        type            calculated;
        value           nonuniform 0();
    }
    wall
    {
        type            calculated;
        value           nonuniform 0();
    }
    wedge1
    {
        type            wedge;
        value           nonuniform List<scalar> 
344
(
-1.56145e-15
-4.61321e-16
-4.07091e-16
2.38277e-15
-9.17687e-16
-1.53025e-15
-4.5203e-16
-3.9883e-16
2.33407e-15
-8.98796e-16
-1.49971e-15
-4.42938e-16
-3.90748e-16
2.28642e-15
-8.80318e-16
-1.46984e-15
-4.34045e-16
-3.82842e-16
2.23982e-15
-8.62247e-16
-1.44061e-15
-4.25346e-16
-3.75111e-16
2.19426e-15
-8.44581e-16
-1.41204e-15
-4.16841e-16
-3.67552e-16
2.14972e-15
-8.27315e-16
-1.3841e-15
-4.08527e-16
-3.60165e-16
2.10619e-15
-8.10445e-16
-1.35679e-15
-4.00401e-16
-3.52946e-16
2.06367e-15
-7.93963e-16
-1.3301e-15
-3.92461e-16
-3.45893e-16
2.02213e-15
-7.77866e-16
-1.30401e-15
-3.84703e-16
-3.39003e-16
1.98155e-15
-7.62146e-16
-1.27853e-15
-3.77125e-16
-3.32273e-16
1.94193e-15
-7.46798e-16
-1.25363e-15
-3.69721e-16
-3.25701e-16
1.90324e-15
-7.31813e-16
-1.22932e-15
-3.62493e-16
-3.19284e-16
1.86546e-15
-7.17184e-16
-1.20556e-15
-3.55433e-16
-3.13018e-16
1.82858e-15
-7.02905e-16
-1.18237e-15
-3.48539e-16
-3.069e-16
1.79258e-15
-6.88969e-16
-1.15971e-15
-3.41806e-16
-3.00927e-16
1.75744e-15
-6.75369e-16
-1.13759e-15
-3.35234e-16
-2.95097e-16
1.72315e-15
-6.62095e-16
-1.11598e-15
-3.28817e-16
-2.89405e-16
1.68967e-15
-6.49142e-16
-1.09489e-15
-3.22553e-16
-2.83849e-16
1.657e-15
-6.36503e-16
-1.07429e-15
-3.16435e-16
-2.78426e-16
1.62511e-15
-6.2417e-16
-1.05417e-15
-3.10464e-16
-2.73132e-16
1.59399e-15
-6.12134e-16
-1.03453e-15
-3.04634e-16
-2.67964e-16
1.56362e-15
-6.00389e-16
-1.01535e-15
-2.98942e-16
-2.6292e-16
1.53398e-15
-5.88929e-16
-9.96624e-16
-2.93385e-16
-2.57997e-16
1.50505e-15
-5.77746e-16
-9.78335e-16
-2.8796e-16
-2.5319e-16
1.47681e-15
-5.66833e-16
-9.60476e-16
-2.82663e-16
-2.48498e-16
1.44925e-15
-5.56183e-16
-9.43035e-16
-2.7749e-16
-2.43918e-16
1.42235e-15
-5.4579e-16
-9.26e-16
-2.72439e-16
-2.39446e-16
1.39609e-15
-5.35647e-16
-9.09364e-16
-2.67507e-16
-2.35079e-16
1.37046e-15
-5.25746e-16
-8.93116e-16
-2.62692e-16
-2.30816e-16
1.34543e-15
-5.16081e-16
-8.77243e-16
-2.57988e-16
-2.26654e-16
1.321e-15
-5.06648e-16
-8.61738e-16
-2.53394e-16
-2.22588e-16
1.29715e-15
-4.97438e-16
-8.46591e-16
-2.48906e-16
-2.18618e-16
1.27386e-15
-4.88447e-16
-8.31792e-16
-2.44523e-16
-2.14741e-16
1.25111e-15
-4.79669e-16
-8.17332e-16
-2.4024e-16
-2.10953e-16
1.2289e-15
-4.71097e-16
-8.03202e-16
-2.36056e-16
-2.07254e-16
1.2072e-15
-4.62727e-16
-7.89391e-16
-2.31967e-16
-2.03639e-16
1.18601e-15
-4.54553e-16
-7.75896e-16
-2.27973e-16
-2.00108e-16
1.1653e-15
-4.46568e-16
-2.81248e-16
-7.62705e-16
-2.24069e-16
-1.96658e-16
1.14508e-15
-4.38768e-16
-2.76529e-16
-7.4981e-16
-2.20254e-16
-1.93286e-16
1.12532e-15
-4.31149e-16
-2.71912e-16
-7.37201e-16
-2.16523e-16
-1.8999e-16
1.10601e-15
-4.23706e-16
-2.67401e-16
-7.24877e-16
-2.12878e-16
-1.8677e-16
1.08714e-15
-4.16431e-16
-2.62987e-16
-7.12824e-16
-2.09313e-16
-1.83621e-16
1.06869e-15
-4.09322e-16
-2.58671e-16
-7.01037e-16
-2.05828e-16
-1.80543e-16
1.05066e-15
-4.02375e-16
-2.54446e-16
-6.89507e-16
-2.02419e-16
-1.77533e-16
1.03304e-15
-3.95585e-16
-2.50316e-16
-6.78231e-16
-1.99086e-16
-1.7459e-16
1.0158e-15
-3.88946e-16
-2.46274e-16
-6.672e-16
-1.95825e-16
-1.71712e-16
9.98955e-16
-3.82455e-16
-2.4232e-16
-6.56407e-16
-1.92636e-16
-1.68898e-16
9.82476e-16
-2.38448e-16
-6.45846e-16
-1.89516e-16
-1.66144e-16
9.66359e-16
-2.3466e-16
-6.35511e-16
-1.86463e-16
-1.6345e-16
9.50595e-16
-2.30951e-16
-6.25396e-16
-1.83475e-16
-1.60815e-16
9.35172e-16
-2.2732e-16
-6.15495e-16
-1.80551e-16
-1.58236e-16
9.20082e-16
-2.23764e-16
-6.05801e-16
-1.77688e-16
-1.55712e-16
9.05317e-16
-2.20284e-16
-5.96312e-16
-1.74888e-16
-1.53241e-16
8.90867e-16
-2.16876e-16
-5.87021e-16
-1.72145e-16
-1.50823e-16
8.76725e-16
-2.13537e-16
-5.77921e-16
-1.6946e-16
-1.48456e-16
8.62881e-16
-2.10266e-16
-5.69009e-16
-1.6683e-16
-1.46138e-16
8.49328e-16
-2.07062e-16
-5.60279e-16
-1.64254e-16
-1.43868e-16
8.36059e-16
-2.03923e-16
-5.51728e-16
-1.61731e-16
-1.41645e-16
8.23065e-16
-2.00846e-16
-5.43349e-16
-1.5926e-16
-1.39468e-16
8.10339e-16
-1.97831e-16
-5.35139e-16
-1.56839e-16
-1.37335e-16
7.97875e-16
-1.94875e-16
-5.27092e-16
-1.54466e-16
-1.35245e-16
7.85666e-16
-1.91979e-16
-5.19208e-16
-1.52141e-16
-1.33198e-16
7.73705e-16
-1.8914e-16
-5.11479e-16
-1.49863e-16
-1.31192e-16
7.61986e-16
-1.86356e-16
-5.03903e-16
-1.4763e-16
-1.29226e-16
7.50501e-16
-1.83625e-16
-4.96473e-16
-1.4544e-16
-1.27299e-16
7.39247e-16
-1.80949e-16
-4.8919e-16
-1.43294e-16
-1.25409e-16
7.28215e-16
)
;
    }
    wedge2
    {
        type            wedge;
        value           nonuniform List<scalar> 
344
(
-1.56159e-15
-4.61456e-16
-4.07217e-16
2.38265e-15
-9.17794e-16
-1.53039e-15
-4.52164e-16
-3.98955e-16
2.33395e-15
-8.98902e-16
-1.49986e-15
-4.43071e-16
-3.90871e-16
2.28631e-15
-8.80421e-16
-1.46998e-15
-4.34175e-16
-3.82963e-16
2.23971e-15
-8.62349e-16
-1.44075e-15
-4.25475e-16
-3.7523e-16
2.19415e-15
-8.44683e-16
-1.41217e-15
-4.16968e-16
-3.67671e-16
2.14961e-15
-8.27416e-16
-1.38423e-15
-4.08652e-16
-3.60282e-16
2.10609e-15
-8.10544e-16
-1.35692e-15
-4.00525e-16
-3.53061e-16
2.06356e-15
-7.94062e-16
-1.33022e-15
-3.92583e-16
-3.46007e-16
2.02202e-15
-7.77964e-16
-1.30414e-15
-3.84824e-16
-3.39116e-16
1.98145e-15
-7.62243e-16
-1.27866e-15
-3.77244e-16
-3.32385e-16
1.94183e-15
-7.46892e-16
-1.25376e-15
-3.69841e-16
-3.25811e-16
1.90314e-15
-7.31905e-16
-1.22944e-15
-3.62609e-16
-3.19392e-16
1.86536e-15
-7.17276e-16
-1.20569e-15
-3.55547e-16
-3.13125e-16
1.82848e-15
-7.02996e-16
-1.18249e-15
-3.48652e-16
-3.07005e-16
1.79249e-15
-6.89059e-16
-1.15983e-15
-3.41919e-16
-3.01031e-16
1.75735e-15
-6.75456e-16
-1.1377e-15
-3.35345e-16
-2.95199e-16
1.72305e-15
-6.62182e-16
-1.1161e-15
-3.28926e-16
-2.89506e-16
1.68958e-15
-6.49229e-16
-1.095e-15
-3.22659e-16
-2.83949e-16
1.65691e-15
-6.36588e-16
-1.0744e-15
-3.16542e-16
-2.78525e-16
1.62502e-15
-6.24252e-16
-1.05428e-15
-3.10569e-16
-2.7323e-16
1.5939e-15
-6.12216e-16
-1.03464e-15
-3.04737e-16
-2.68061e-16
1.56353e-15
-6.00472e-16
-1.01546e-15
-2.99044e-16
-2.63015e-16
1.53389e-15
-5.89011e-16
-9.96729e-16
-2.93485e-16
-2.5809e-16
1.50496e-15
-5.77827e-16
-9.78439e-16
-2.88058e-16
-2.53283e-16
1.47673e-15
-5.66912e-16
-9.60578e-16
-2.8276e-16
-2.48589e-16
1.44917e-15
-5.56261e-16
-9.43136e-16
-2.77586e-16
-2.44007e-16
1.42227e-15
-5.45866e-16
-9.26102e-16
-2.72535e-16
-2.39534e-16
1.39601e-15
-5.3572e-16
-9.09463e-16
-2.67601e-16
-2.35166e-16
1.37038e-15
-5.25819e-16
-8.93211e-16
-2.62782e-16
-2.30901e-16
1.34536e-15
-5.16154e-16
-8.77338e-16
-2.58077e-16
-2.26737e-16
1.32092e-15
-5.0672e-16
-8.61831e-16
-2.53482e-16
-2.22671e-16
1.29707e-15
-4.9751e-16
-8.46682e-16
-2.48993e-16
-2.187e-16
1.27378e-15
-4.88518e-16
-8.31881e-16
-2.44608e-16
-2.14821e-16
1.25103e-15
-4.79739e-16
-8.1742e-16
-2.40324e-16
-2.11033e-16
1.22882e-15
-4.71166e-16
-8.03289e-16
-2.36139e-16
-2.07332e-16
1.20713e-15
-4.62794e-16
-7.8948e-16
-2.32051e-16
-2.03716e-16
1.18594e-15
-4.54618e-16
-7.75982e-16
-2.28054e-16
-2.00184e-16
1.16523e-15
-4.46632e-16
-2.81337e-16
-7.62789e-16
-2.24149e-16
-1.96732e-16
1.14501e-15
-4.38833e-16
-2.76615e-16
-7.49892e-16
-2.20332e-16
-1.93359e-16
1.12525e-15
-4.31212e-16
-2.72001e-16
-7.37286e-16
-2.16602e-16
-1.90063e-16
1.10594e-15
-4.23766e-16
-2.67486e-16
-7.24957e-16
-2.12954e-16
-1.86841e-16
1.08707e-15
-4.16491e-16
-2.6307e-16
-7.12903e-16
-2.09388e-16
-1.83691e-16
1.06863e-15
-4.09382e-16
-2.58752e-16
-7.01114e-16
-2.05901e-16
-1.80612e-16
1.0506e-15
-4.02433e-16
-2.54529e-16
-6.89586e-16
-2.02492e-16
-1.77601e-16
1.03297e-15
-3.95641e-16
-2.50396e-16
-6.78307e-16
-1.99157e-16
-1.74657e-16
1.01574e-15
-3.89002e-16
-2.46352e-16
-6.67274e-16
-1.95895e-16
-1.71778e-16
9.98894e-16
-3.82511e-16
-2.42394e-16
-6.56478e-16
-1.92704e-16
-1.68961e-16
9.82416e-16
-2.38522e-16
-6.45916e-16
-1.89583e-16
-1.66207e-16
9.66301e-16
-2.34731e-16
-6.35579e-16
-1.86528e-16
-1.63512e-16
9.50537e-16
-2.31021e-16
-6.25463e-16
-1.83539e-16
-1.60875e-16
9.35116e-16
-2.27389e-16
-6.1556e-16
-1.80614e-16
-1.58294e-16
9.20028e-16
-2.23834e-16
-6.05868e-16
-1.77751e-16
-1.55769e-16
9.05264e-16
-2.2035e-16
-5.96375e-16
-1.74948e-16
-1.53297e-16
8.90815e-16
-2.16939e-16
-5.87081e-16
-1.72203e-16
-1.50878e-16
8.76674e-16
-2.13598e-16
-5.7798e-16
-1.69516e-16
-1.48509e-16
8.62831e-16
-2.10326e-16
-5.69066e-16
-1.66885e-16
-1.4619e-16
8.49279e-16
-2.07121e-16
-5.60336e-16
-1.64308e-16
-1.43919e-16
8.36011e-16
-2.03979e-16
-5.51782e-16
-1.61784e-16
-1.41695e-16
8.23018e-16
-2.00902e-16
-5.43403e-16
-1.59311e-16
-1.39516e-16
8.10294e-16
-1.97886e-16
-5.35191e-16
-1.56889e-16
-1.37382e-16
7.97831e-16
-1.94931e-16
-5.27146e-16
-1.54516e-16
-1.35291e-16
7.85623e-16
-1.92033e-16
-5.19259e-16
-1.5219e-16
-1.33243e-16
7.73663e-16
-1.89192e-16
-5.11529e-16
-1.4991e-16
-1.31236e-16
7.61945e-16
-1.86406e-16
-5.0395e-16
-1.47675e-16
-1.29268e-16
7.50462e-16
-1.83676e-16
-4.96522e-16
-1.45486e-16
-1.2734e-16
7.39208e-16
-1.80997e-16
-4.89236e-16
-1.43338e-16
-1.2545e-16
7.28178e-16
)
;
    }
    axis
    {
        type            empty;
        value           nonuniform 0();
    }
    procBoundary34to28
    {
        type            processor;
        value           nonuniform List<scalar> 
68
(
-4.6405e-06
-4.56292e-06
-4.48706e-06
-4.41287e-06
-4.3403e-06
-4.26932e-06
-4.19988e-06
-4.13193e-06
-4.06545e-06
-4.00039e-06
-3.93671e-06
-3.87438e-06
-3.81336e-06
-3.75362e-06
-3.69512e-06
-3.63783e-06
-3.58172e-06
-3.52677e-06
-3.47293e-06
-3.42018e-06
-3.36849e-06
-3.31784e-06
-3.2682e-06
-3.21954e-06
-3.17184e-06
-3.12508e-06
-3.07922e-06
-3.03426e-06
-2.99016e-06
-8.69397e-06
-8.52087e-06
-8.35145e-06
-8.18569e-06
-8.02353e-06
-7.86495e-06
-7.7099e-06
-7.55834e-06
-7.41019e-06
-7.26543e-06
-7.12397e-06
-6.98577e-06
-6.85077e-06
-6.7189e-06
-6.59009e-06
-6.46429e-06
-6.34144e-06
-6.22146e-06
-6.10429e-06
-5.98987e-06
-5.87813e-06
-5.76902e-06
-5.66247e-06
-5.55841e-06
-5.45679e-06
-5.35754e-06
-5.26062e-06
-5.16594e-06
-5.07347e-06
-4.98315e-06
-4.89491e-06
-4.80871e-06
-4.72449e-06
-4.6422e-06
-4.56178e-06
-4.4832e-06
-4.4064e-06
-8.14554e-05
-4.33133e-06
)
;
    }
    procBoundary34to29
    {
        type            processor;
        value           uniform 9.05448e-05;
    }
    procBoundary34to33
    {
        type            processor;
        value           nonuniform List<scalar> 4(-5.58398e-05 -5.07038e-05 -4.57068e-05 -4.08641e-05);
    }
    procBoundary34to35
    {
        type            processor;
        value           nonuniform List<scalar> 4(8.60136e-05 8.13073e-05 7.64255e-05 7.13676e-05);
    }
    procBoundary34to39
    {
        type            processor;
        value           uniform -3.61896e-05;
    }
    procBoundary34to40
    {
        type            processor;
        value           nonuniform List<scalar> 
68
(
2.30689e-06
2.26892e-06
2.23178e-06
2.19546e-06
2.15992e-06
2.12515e-06
2.09112e-06
2.05782e-06
2.02522e-06
1.99332e-06
1.96208e-06
1.93149e-06
1.90154e-06
1.87221e-06
1.84347e-06
1.81532e-06
1.78775e-06
1.76073e-06
1.73425e-06
1.7083e-06
4.84304e-06
4.74293e-06
4.64501e-06
4.54926e-06
4.45567e-06
4.3642e-06
4.27484e-06
4.18755e-06
4.10229e-06
4.01905e-06
3.93777e-06
3.85843e-06
3.78099e-06
3.70541e-06
3.63164e-06
3.55966e-06
3.48942e-06
3.42088e-06
3.35401e-06
3.28876e-06
3.22509e-06
3.16297e-06
3.10236e-06
3.04323e-06
2.98552e-06
2.92921e-06
2.87426e-06
2.82064e-06
2.76831e-06
2.71723e-06
2.66738e-06
2.61872e-06
2.57121e-06
2.52483e-06
2.47955e-06
2.43534e-06
2.39216e-06
2.34999e-06
2.3088e-06
2.26857e-06
2.22926e-06
2.19086e-06
2.15333e-06
2.11666e-06
2.08082e-06
2.04578e-06
6.04352e-05
2.01153e-06
)
;
    }
}


// ************************************************************************* //
