/*--------------------------------*- C++ -*----------------------------------*\
  =========                 |
  \\      /  F ield         | OpenFOAM: The Open Source CFD Toolbox
   \\    /   O peration     | Website:  https://openfoam.org
    \\  /    A nd           | Version:  7
     \\/     M anipulation  |
\*---------------------------------------------------------------------------*/
FoamFile
{
    version     2.0;
    format      ascii;
    class       volScalarField;
    location    "119.000714";
    object      p;
}
// * * * * * * * * * * * * * * * * * * * * * * * * * * * * * * * * * * * * * //

dimensions      [0 2 -2 0 0 0 0];

internalField   nonuniform List<scalar> 
5800
(
-0.363946
-0.365849
-0.366898
-0.367658
-0.36838
-0.369224
-0.370346
-0.371867
-0.373871
-0.37643
0.644374
0.626926
0.616203
0.604748
0.590128
0.572309
0.551741
0.529077
0.504976
0.480012
0.454669
0.64289
0.625474
0.614828
0.603482
0.58898
0.571276
0.550813
0.528244
0.504228
0.479339
0.454062
0.428797
0.403867
0.379532
0.355993
0.333398
0.311854
0.291448
0.27226
0.254312
0.636447
0.619207
0.60887
0.597942
0.583904
0.566659
0.546627
0.524455
0.5008
0.476241
0.451264
0.42627
0.401584
0.377469
0.354127
0.33171
0.310321
0.290042
0.270971
0.253193
0.625089
0.608167
0.598368
0.588165
0.574932
0.558485
0.539206
0.51773
0.494714
0.470738
0.446291
0.421779
0.397529
0.373807
0.350821
0.328724
0.307615
0.287569
0.268718
0.251255
0.608902
0.592438
0.583398
0.574218
0.562123
0.546809
0.528599
0.508113
0.486006
0.462862
0.439173
0.41535
0.391725
0.368568
0.346091
0.324455
0.303751
0.284043
0.265508
0.248492
0.58801
0.572137
0.56407
0.556201
0.545567
0.531709
0.514876
0.495666
0.474732
0.452662
0.429954
0.407023
0.384207
0.361781
0.339966
0.318927
0.29875
0.279482
0.261358
0.24491
0.562575
0.547422
0.540527
0.534242
0.525378
0.513287
0.498129
0.480471
0.460966
0.440204
0.418691
0.396848
0.375019
0.353486
0.332479
0.312171
0.29264
0.273915
0.256289
0.240518
0.532798
0.518485
0.512948
0.508502
0.501699
0.491671
0.478469
0.462628
0.444796
0.425567
0.405455
0.384886
0.364216
0.343731
0.323673
0.304223
0.285454
0.267372
0.250327
0.235331
0.498914
0.485553
0.481542
0.479168
0.474696
0.467008
0.456031
0.442257
0.426327
0.408844
0.390326
0.371212
0.351862
0.332573
0.313597
0.295129
0.277232
0.259888
0.243503
0.229367
0.461195
0.448886
0.446548
0.446455
0.444563
0.439471
0.430966
0.419491
0.40568
0.390141
0.373401
0.355908
0.338031
0.320077
0.30231
0.284937
0.268019
0.251505
0.235851
0.222646
0.419941
0.408775
0.408237
0.410607
0.411513
0.40925
0.403444
0.394482
0.382989
0.369577
0.354785
0.339067
0.322805
0.306315
0.289875
0.273704
0.257864
0.242268
0.227409
0.215194
0.375484
0.36554
0.366903
0.371888
0.375784
0.376555
0.373652
0.367397
0.358402
0.347285
0.334592
0.320792
0.306274
0.291368
0.276361
0.261493
0.246822
0.232227
0.21822
0.207041
0.328184
0.319527
0.322868
0.330588
0.337631
0.341613
0.341792
0.338414
0.332077
0.323403
0.312949
0.301193
0.288537
0.27532
0.261845
0.248368
0.234952
0.221434
0.208328
0.198217
0.278423
0.271107
0.276474
0.287014
0.297329
0.304669
0.30808
0.307727
0.304187
0.298085
0.289988
0.280387
0.269696
0.258263
0.246407
0.234402
0.222319
0.209948
0.197785
0.188758
0.226606
0.220669
0.228085
0.241495
0.255169
0.265979
0.272745
0.275538
0.274909
0.271487
0.265851
0.2585
0.249861
0.240295
0.230132
0.21967
0.208988
0.197829
0.186642
0.178699
0.173154
0.168623
0.17808
0.194371
0.211454
0.225812
0.236025
0.242057
0.244431
0.243778
0.240683
0.235659
0.229146
0.221515
0.213108
0.204248
0.195032
0.185145
0.174958
0.168078
0.118503
0.11539
0.126853
0.145999
0.1665
0.184447
0.198167
0.207504
0.212948
0.215127
0.214636
0.212
0.207669
0.202027
0.195427
0.188217
0.180522
0.171967
0.162797
0.156934
0.0630991
0.061403
0.0748094
0.0967447
0.120631
0.142171
0.159424
0.172104
0.180658
0.18571
0.187865
0.187658
0.185551
0.181938
0.177182
0.171657
0.165533
0.158378
0.15024
0.145303
0.00739533
0.00709928
0.0223606
0.0469811
0.0741793
0.0992757
0.120054
0.136083
0.147762
0.155706
0.160527
0.162772
0.162914
0.161357
0.158468
0.154649
0.150131
0.144461
0.137387
0.133204
-0.0481539
-0.0470813
-0.0300773
-0.00291435
0.0274789
0.0560564
0.080317
0.099673
0.114463
0.125295
0.132782
0.137481
0.13988
0.140391
0.139383
0.13727
0.134372
0.130298
0.124426
0.120685
-0.103095
-0.100703
-0.0820885
-0.0525633
-0.019134
0.0128085
0.0404728
0.0631017
0.0809653
0.094654
0.104786
0.111925
0.116571
0.119148
0.120026
0.11961
0.118307
0.115931
0.111588
0.107688
-0.156979
-0.153334
-0.133262
-0.10159
-0.0653253
-0.0301748
0.00077893
0.0265966
0.0474678
0.0639614
0.0766954
0.0862414
0.0931082
0.0977336
0.10049
0.101758
0.101974
0.101269
0.0990469
0.0946669
-0.209381
-0.204539
-0.1832
-0.149626
-0.110766
-0.0726049
-0.0385117
-0.00961954
0.0141675
0.0333902
0.0486639
0.0605647
0.0696094
0.0762488
0.0808634
0.0838075
0.0854931
0.0862948
0.0861423
0.083596
-0.260006
-0.253831
-0.231541
-0.196311
-0.155135
-0.114201
-0.0771534
-0.0453304
-0.0187448
0.00310902
0.0208397
0.0350261
0.0461905
0.0547946
0.0612318
0.0658412
0.0689873
0.0711663
0.0727901
0.0723955
-0.30847
-0.3008
-0.277983
-0.241302
-0.198126
-0.154695
-0.11491
-0.0803279
-0.0510853
-0.0267201
-0.00663419
0.00975158
0.0229627
0.0334688
0.0416771
0.0479248
0.0525322
0.0560189
0.0590793
0.0604211
-0.354197
-0.345181
-0.322175
-0.284325
-0.239449
-0.193828
-0.151555
-0.114414
-0.0826793
-0.055943
-0.0336217
-0.0151389
3.21137e-05
0.0123653
0.0222791
0.0301168
0.0361689
0.0409313
0.0452327
0.0479763
-0.396865
-0.386751
-0.363243
-0.325368
-0.278835
-0.231362
-0.186878
-0.147401
-0.113362
-0.0844144
-0.0599948
-0.0395324
-0.0225018
-0.00842782
0.0031152
0.012479
0.0199376
0.0259523
0.0314113
0.0354177
-0.436229
-0.42522
-0.401395
-0.363325
-0.316255
-0.267072
-0.220677
-0.179116
-0.142981
-0.112
-0.0856343
-0.0633238
-0.0445464
-0.0288284
-0.0157409
-0.00492458
0.00388746
0.0111211
0.0176867
0.0228882
-0.472094
-0.460288
-0.436426
-0.398394
-0.351005
-0.300785
-0.252767
-0.209396
-0.171396
-0.138575
-0.110431
-0.0864162
-0.0660161
-0.0487606
-0.034221
-0.0220319
-0.0119296
-0.00352408
0.00409419
0.010429
-0.504279
-0.491732
-0.46807
-0.430461
-0.383031
-0.332203
-0.282979
-0.238096
-0.198477
-0.164031
-0.134287
-0.108722
-0.0868336
-0.0681558
-0.0522631
-0.038787
-0.0274646
-0.0179437
-0.00933248
-0.00192619
-0.532629
-0.519398
-0.496138
-0.459303
-0.412251
-0.361187
-0.311162
-0.265089
-0.224113
-0.188271
-0.157114
-0.130164
-0.10693
-0.0869525
-0.0698124
-0.0551403
-0.0426729
-0.0320978
-0.0225544
-0.0141365
-0.55704
-0.543196
-0.520507
-0.484753
-0.438514
-0.387636
-0.337199
-0.290293
-0.248197
-0.21121
-0.178836
-0.150673
-0.126246
-0.105097
-0.0868206
-0.0710481
-0.0575151
-0.0459494
-0.0355343
-0.0261626
-0.577467
-0.563085
-0.541112
-0.50671
-0.461691
-0.411444
-0.360993
-0.313604
-0.27074
-0.232742
-0.199391
-0.170192
-0.144733
-0.122543
-0.103247
-0.0864734
-0.0719568
-0.0594664
-0.0482421
-0.0379724
-0.593922
-0.579081
-0.55794
-0.525127
-0.481705
-0.432523
-0.382468
-0.334939
-0.291601
-0.252911
-0.218734
-0.188673
-0.162351
-0.139251
-0.119057
-0.101385
-0.0859697
-0.0726208
-0.0606567
-0.0495403
-0.606476
-0.59126
-0.571038
-0.540007
-0.49852
-0.450821
-0.401574
-0.354258
-0.310735
-0.271621
-0.236864
-0.206137
-0.179047
-0.155193
-0.134225
-0.115758
-0.0995328
-0.085386
-0.0727657
-0.0608468
-0.615253
-0.599751
-0.580504
-0.551402
-0.512144
-0.466319
-0.418284
-0.371542
-0.328131
-0.288841
-0.253726
-0.22252
-0.194856
-0.170372
-0.148723
-0.129575
-0.112635
-0.0977391
-0.0845546
-0.0718859
-0.620434
-0.604738
-0.586495
-0.559417
-0.522626
-0.479029
-0.432594
-0.386786
-0.34379
-0.30457
-0.269305
-0.237803
-0.209739
-0.184771
-0.162574
-0.142839
-0.125268
-0.109677
-0.0959853
-0.0826754
-0.622246
-0.606454
-0.589217
-0.564206
-0.530059
-0.488995
-0.444525
-0.400001
-0.357723
-0.318823
-0.283616
-0.251994
-0.223685
-0.198372
-0.175754
-0.155538
-0.137448
-0.121295
-0.10693
-0.0932737
-0.620962
-0.605175
-0.588926
-0.565973
-0.534578
-0.496298
-0.454123
-0.411218
-0.369954
-0.331622
-0.296679
-0.265113
-0.236708
-0.211184
-0.188261
-0.167668
-0.149144
-0.132493
-0.117556
-0.103614
-0.616888
-0.601213
-0.585915
-0.564964
-0.53636
-0.501048
-0.461455
-0.420484
-0.380521
-0.343
-0.308524
-0.277185
-0.248832
-0.223225
-0.200109
-0.179234
-0.160357
-0.143282
-0.127879
-0.113536
-0.610358
-0.594905
-0.580512
-0.561466
-0.535624
-0.503391
-0.466615
-0.427862
-0.389475
-0.353002
-0.319189
-0.288243
-0.260085
-0.234519
-0.21132
-0.190258
-0.171109
-0.153682
-0.137872
-0.123091
-0.601727
-0.586605
-0.573066
-0.555795
-0.532621
-0.503504
-0.469717
-0.433433
-0.396878
-0.361679
-0.328721
-0.298328
-0.270502
-0.245099
-0.221921
-0.200764
-0.181422
-0.163712
-0.147549
-0.132378
-0.591357
-0.576675
-0.563938
-0.54829
-0.527634
-0.501592
-0.470899
-0.437288
-0.4028
-0.369093
-0.337173
-0.307487
-0.280126
-0.254999
-0.231944
-0.210782
-0.191323
-0.173395
-0.156936
-0.141454
-0.579608
-0.565473
-0.553492
-0.539303
-0.520971
-0.497889
-0.47032
-0.439534
-0.40732
-0.375308
-0.344605
-0.315775
-0.289003
-0.264262
-0.241428
-0.220345
-0.200844
-0.18276
-0.166057
-0.15033
-0.566833
-0.553343
-0.542079
-0.529186
-0.512952
-0.492651
-0.46816
-0.440289
-0.41052
-0.380393
-0.351077
-0.323246
-0.297186
-0.272936
-0.250414
-0.229491
-0.210021
-0.191842
-0.174935
-0.159011
-0.553364
-0.540608
-0.530031
-0.518278
-0.503901
-0.486149
-0.464615
-0.439685
-0.412489
-0.384416
-0.35665
-0.329961
-0.304731
-0.281073
-0.258952
-0.238266
-0.218892
-0.200677
-0.183602
-0.167517
-0.539507
-0.527562
-0.517652
-0.5069
-0.494136
-0.478665
-0.459899
-0.437863
-0.41332
-0.387445
-0.361384
-0.335975
-0.311692
-0.288726
-0.267091
-0.246718
-0.227504
-0.209307
-0.192097
-0.175882
-0.525538
-0.514465
-0.50521
-0.49534
-0.483958
-0.470479
-0.454237
-0.434978
-0.413109
-0.389544
-0.365332
-0.341342
-0.318126
-0.295951
-0.274889
-0.254899
-0.235906
-0.217782
-0.200468
-0.184147
-0.511693
-0.501539
-0.492935
-0.483849
-0.473638
-0.461861
-0.447858
-0.431193
-0.411958
-0.390776
-0.368544
-0.34611
-0.324084
-0.302804
-0.2824
-0.262868
-0.244154
-0.226154
-0.208765
-0.192358
-0.498173
-0.488965
-0.481012
-0.472637
-0.463415
-0.453061
-0.440991
-0.426679
-0.409973
-0.391202
-0.371059
-0.350317
-0.329611
-0.309339
-0.289684
-0.270685
-0.252309
-0.234483
-0.217045
-0.200566
-0.485137
-0.476888
-0.469588
-0.461866
-0.453482
-0.444299
-0.433852
-0.421614
-0.407268
-0.390882
-0.372908
-0.353993
-0.334746
-0.315603
-0.296799
-0.278413
-0.260435
-0.242833
-0.22537
-0.208829
-0.472708
-0.465415
-0.458766
-0.451657
-0.443989
-0.435758
-0.42664
-0.416173
-0.403964
-0.389878
-0.374119
-0.357152
-0.339513
-0.321638
-0.303801
-0.28612
-0.268605
-0.251277
-0.233811
-0.217213
-0.460974
-0.454622
-0.448618
-0.442089
-0.435042
-0.427579
-0.419523
-0.410522
-0.400189
-0.388258
-0.374712
-0.3598
-0.343923
-0.327474
-0.31074
-0.293873
-0.276895
-0.259895
-0.242448
-0.225793
-0.449999
-0.444556
-0.439183
-0.433206
-0.426705
-0.419863
-0.412638
-0.404813
-0.396074
-0.386104
-0.374715
-0.361933
-0.347973
-0.333129
-0.31766
-0.301737
-0.285388
-0.268778
-0.25137
-0.234653
-0.439824
-0.435248
-0.430483
-0.425027
-0.419011
-0.412672
-0.406086
-0.39918
-0.39175
-0.383507
-0.374162
-0.363542
-0.351643
-0.338599
-0.324588
-0.309774
-0.294167
-0.278022
-0.260681
-0.243888
-0.430479
-0.426715
-0.422523
-0.417552
-0.411967
-0.40604
-0.39994
-0.393731
-0.387345
-0.380574
-0.373107
-0.364626
-0.354905
-0.343866
-0.331538
-0.318035
-0.30332
-0.28774
-0.270493
-0.253618
-0.42199
-0.41897
-0.415305
-0.410776
-0.405572
-0.399982
-0.39425
-0.388557
-0.382978
-0.377424
-0.37163
-0.365204
-0.357729
-0.348888
-0.338495
-0.326556
-0.312927
-0.298048
-0.28095
-0.263956
-0.414384
-0.412024
-0.40883
-0.404695
-0.399822
-0.39451
-0.389055
-0.38374
-0.378768
-0.374189
-0.369837
-0.365321
-0.360095
-0.353614
-0.34542
-0.335341
-0.323057
-0.309069
-0.29219
-0.275108
-0.407687
-0.405886
-0.4031
-0.399307
-0.394721
-0.389638
-0.384397
-0.379356
-0.374833
-0.371015
-0.367865
-0.365061
-0.362011
-0.35799
-0.352244
-0.344364
-0.333745
-0.320936
-0.304417
-0.287167
-0.401921
-0.400566
-0.398118
-0.394619
-0.390278
-0.385391
-0.380322
-0.375488
-0.371297
-0.368059
-0.365878
-0.364554
-0.363527
-0.361975
-0.358878
-0.353544
-0.344996
-0.333714
-0.317826
-0.300678
-0.397081
-0.39607
-0.393886
-0.390633
-0.386509
-0.381799
-0.376885
-0.372221
-0.368285
-0.365489
-0.36407
-0.363974
-0.364748
-0.365568
-0.365227
-0.362758
-0.356714
-0.347521
-0.33263
-0.315452
-0.393176
-0.39237
-0.390387
-0.387345
-0.38342
-0.378886
-0.374132
-0.369637
-0.365922
-0.363475
-0.362647
-0.363533
-0.365833
-0.368821
-0.37122
-0.371832
-0.368784
-0.362035
-0.349813
-0.332804
-0.390157
-0.38943
-0.387592
-0.384732
-0.381
-0.376658
-0.372094
-0.367794
-0.364307
-0.362166
-0.361808
-0.36346
-0.366998
-0.371858
-0.376842
-0.380574
-0.381015
-0.377098
-0.368666
-0.351365
-0.387949
-0.38719
-0.385448
-0.382748
-0.379215
-0.375096
-0.370768
-0.366718
-0.363499
-0.361669
-0.361718
-0.363976
-0.368481
-0.374868
-0.382151
-0.388847
-0.393071
-0.392294
-0.38759
-0.370992
-0.386448
-0.385566
-0.383878
-0.381326
-0.378004
-0.374145
-0.370113
-0.366384
-0.363503
-0.362029
-0.362478
-0.365245
-0.370505
-0.378082
-0.387286
-0.39662
-0.404599
-0.407238
-0.406278
-0.391572
-0.385522
-0.384456
-0.38279
-0.38038
-0.377285
-0.373727
-0.370053
-0.366722
-0.364262
-0.363217
-0.364101
-0.367347
-0.373226
-0.381719
-0.392443
-0.403987
-0.415411
-0.421615
-0.424775
-0.41291
-0.385027
-0.383743
-0.382082
-0.379812
-0.376962
-0.373741
-0.370483
-0.367625
-0.365667
-0.36513
-0.366513
-0.370255
-0.376691
-0.385918
-0.397821
-0.41113
-0.425522
-0.435164
-0.442901
-0.434555
-0.384813
-0.383306
-0.381648
-0.379522
-0.376931
-0.37408
-0.371285
-0.368959
-0.367573
-0.367616
-0.369562
-0.373845
-0.38083
-0.390696
-0.403539
-0.418232
-0.435075
-0.447729
-0.460298
-0.455795
-0.384733
-0.383028
-0.381384
-0.37941
-0.377093
-0.374633
-0.372332
-0.370578
-0.369811
-0.370484
-0.373042
-0.377909
-0.385464
-0.395937
-0.409578
-0.425383
-0.444213
-0.459315
-0.476605
-0.475878
-0.384654
-0.382801
-0.381191
-0.379382
-0.37735
-0.375292
-0.3735
-0.372335
-0.372205
-0.373527
-0.376719
-0.38219
-0.39033
-0.401415
-0.415774
-0.432531
-0.452964
-0.470034
-0.491511
-0.494251
-0.384457
-0.382526
-0.380982
-0.379353
-0.377611
-0.375958
-0.374669
-0.374084
-0.374578
-0.376536
-0.380348
-0.386413
-0.395128
-0.406812
-0.421846
-0.439472
-0.46118
-0.47995
-0.504736
-0.510648
-0.384046
-0.382119
-0.380679
-0.379246
-0.377797
-0.376537
-0.375729
-0.375692
-0.376767
-0.379311
-0.383693
-0.390302
-0.399547
-0.411788
-0.427422
-0.445876
-0.468557
-0.488914
-0.516001
-0.524908
-0.383347
-0.381513
-0.380216
-0.378994
-0.377836
-0.376947
-0.376583
-0.377038
-0.378627
-0.381679
-0.386545
-0.39361
-0.403294
-0.415998
-0.432123
-0.451302
-0.474698
-0.496531
-0.524996
-0.536766
-0.382307
-0.380659
-0.379544
-0.378545
-0.37767
-0.377123
-0.37715
-0.378026
-0.380041
-0.383499
-0.388735
-0.396132
-0.406121
-0.419136
-0.435583
-0.4553
-0.47911
-0.502354
-0.531318
-0.545723
-0.380901
-0.379526
-0.378629
-0.377862
-0.377255
-0.377013
-0.377372
-0.378589
-0.380929
-0.384674
-0.390144
-0.397719
-0.407836
-0.420953
-0.437482
-0.457436
-0.481299
-0.505476
-0.534413
-0.550989
-0.379129
-0.378105
-0.377457
-0.376926
-0.376571
-0.376592
-0.37722
-0.378691
-0.381248
-0.385153
-0.390709
-0.398286
-0.40832
-0.421278
-0.43758
-0.457361
-0.480842
-0.505376
-0.533641
-0.551698
-0.377017
-0.376412
-0.376035
-0.37574
-0.375615
-0.375859
-0.37669
-0.378331
-0.381
-0.384936
-0.390424
-0.397814
-0.40753
-0.420032
-0.435735
-0.454848
-0.477427
-0.501548
-0.528459
-0.374618
-0.374483
-0.374394
-0.374328
-0.374412
-0.374838
-0.375814
-0.377545
-0.380226
-0.384072
-0.38934
-0.396354
-0.405507
-0.417231
-0.431928
-0.449823
-0.470899
-0.493707
-0.518572
-0.372005
-0.372376
-0.372579
-0.372739
-0.373011
-0.373581
-0.374649
-0.3764
-0.379006
-0.382651
-0.387559
-0.394015
-0.402366
-0.412997
-0.426266
-0.442388
-0.461297
-0.481864
-0.503949
-0.369279
-0.37017
-0.370666
-0.371039
-0.371478
-0.372163
-0.373279
-0.374993
-0.37745
-0.3808
-0.385226
-0.390962
-0.398292
-0.407534
-0.418981
-0.432807
-0.448889
-0.466428
-0.48475
-0.366552
-0.36796
-0.36874
-0.369313
-0.369902
-0.370675
-0.371807
-0.373439
-0.37569
-0.378671
-0.382517
-0.387397
-0.393523
-0.401121
-0.410399
-0.421457
-0.434141
-0.44786
-0.461656
0.106311
0.108542
0.11465
0.119499
0.126311
0.129791
0.133421
0.131014
0.128324
0.115808
0.107431
0.109724
0.11612
0.121309
0.128743
0.133097
0.138037
0.137282
0.136847
0.127186
0.108533
0.110842
0.117527
0.12302
0.131081
0.13624
0.142435
0.143221
0.144855
0.137916
0.109598
0.111927
0.11891
0.124699
0.133371
0.139307
0.146691
0.14899
0.152471
0.148142
0.110625
0.11297
0.120246
0.126316
0.135571
0.142255
0.150748
0.154542
0.159707
0.15789
0.11161
0.113965
0.121531
0.127868
0.137676
0.145083
0.154602
0.159854
0.166573
0.167141
0.112551
0.114912
0.122764
0.129352
0.139679
0.147785
0.158244
0.164906
0.173068
0.175885
0.113445
0.115789
0.123938
0.130765
0.141573
0.150353
0.161668
0.169677
0.179183
0.184105
0.114291
0.116649
0.125038
0.132101
0.143352
0.152778
0.16487
0.174149
0.184908
0.191786
0.115088
0.117432
0.126098
0.133359
0.145009
0.155052
0.167844
0.178308
0.190227
0.198908
0.115829
0.118159
0.126976
0.134532
0.146541
0.157165
0.170587
0.182139
0.195126
0.205454
0.116514
0.118829
0.127907
0.135615
0.147942
0.159109
0.173093
0.185632
0.199592
0.211407
0.117137
0.119441
0.128713
0.1366
0.149209
0.160875
0.175357
0.188778
0.20361
0.21675
0.117698
0.119991
0.129441
0.137485
0.150339
0.162454
0.177374
0.191569
0.207172
0.221473
0.118193
0.120477
0.130081
0.138268
0.151329
0.16384
0.179137
0.193998
0.210266
0.225563
0.118621
0.120895
0.130652
0.138945
0.152176
0.165027
0.180641
0.196061
0.212887
0.229015
0.118979
0.121246
0.131059
0.13951
0.152879
0.166008
0.181883
0.197752
0.215029
0.231824
0.119265
0.121535
0.131433
0.139959
0.153435
0.166781
0.182856
0.199069
0.21669
0.233989
0.119479
0.121749
0.131705
0.14029
0.153841
0.167339
0.183557
0.200004
0.217861
0.235506
0.119621
0.121902
0.131887
0.14051
0.154109
0.167698
0.184005
0.200594
0.218585
0.23641
0.0231284
0.0223027
0.0209603
0.0193917
0.0177812
0.0162486
0.0148471
0.0136011
0.0125089
0.0115626
0.023209
0.022379
0.0210272
0.0194483
0.0178267
0.016284
0.0148728
0.013618
0.0125177
0.011564
0.0233657
0.0225269
0.0211577
0.0195588
0.0179161
0.0163533
0.0149231
0.0136512
0.0125351
0.0115675
0.0235947
0.0227432
0.021349
0.019721
0.0180474
0.0164552
0.014997
0.0136998
0.0125607
0.0115728
0.0238927
0.023025
0.0215986
0.019933
0.0182191
0.0165885
0.0150937
0.0137636
0.0125944
0.01158
0.0242569
0.0233698
0.0219045
0.020193
0.01843
0.0167522
0.0152127
0.0138421
0.012636
0.0115889
0.0246851
0.0237756
0.0222649
0.0204997
0.0186791
0.016946
0.0153535
0.0139352
0.0126854
0.0115997
0.0251749
0.0242405
0.0226783
0.0208521
0.0189657
0.0171692
0.0155161
0.0140428
0.0127426
0.0116124
0.0257246
0.0247631
0.0231436
0.0212494
0.0192894
0.0174218
0.0157003
0.014165
0.0128078
0.0116271
0.0263325
0.025342
0.0236597
0.021691
0.0196499
0.0177038
0.0159063
0.0143019
0.0128812
0.011644
0.026997
0.025976
0.0242257
0.0221764
0.0200471
0.0180153
0.0161344
0.014454
0.012963
0.0116635
0.0277167
0.0266642
0.024841
0.0227054
0.020481
0.0183565
0.0163849
0.0146216
0.0130537
0.0116859
0.0284903
0.0274057
0.0255049
0.0232779
0.0209519
0.018728
0.0166583
0.0148053
0.0131538
0.0117116
0.0293165
0.0281996
0.0262169
0.0238937
0.0214601
0.0191303
0.0169554
0.0150058
0.0132639
0.0117412
0.030194
0.0290451
0.0269766
0.024553
0.022006
0.0195641
0.0172769
0.0152238
0.0133848
0.0117753
0.0311217
0.0299416
0.0277834
0.025256
0.0225903
0.0200303
0.0176237
0.0154603
0.0135172
0.0118147
0.0320983
0.0308881
0.028637
0.0260029
0.0232135
0.0205299
0.0179969
0.0157163
0.0136621
0.0118603
0.0331226
0.0318839
0.0295369
0.026794
0.0238766
0.0210639
0.0183975
0.015993
0.0138207
0.0119131
0.0341932
0.0329282
0.0304826
0.0276297
0.0245803
0.0216334
0.0188269
0.0162917
0.0139942
0.0119741
0.0353089
0.0340201
0.0314737
0.0285104
0.0253254
0.0222397
0.0192863
0.0166139
0.014184
0.0120448
0.0364683
0.0351585
0.0325098
0.0294368
0.0261131
0.0228841
0.0197775
0.0169612
0.0143915
0.0121264
0.0376699
0.0363425
0.0335902
0.0304091
0.0269443
0.0235681
0.0203018
0.0173352
0.0146185
0.0122207
0.0389123
0.0375707
0.0347145
0.0314281
0.02782
0.0242932
0.0208612
0.0177379
0.0148667
0.0123292
0.0401939
0.0388421
0.035882
0.0324943
0.0287413
0.0250609
0.0214574
0.0181712
0.0151382
0.0124539
0.041513
0.040155
0.0370921
0.0336082
0.0297091
0.025873
0.0220924
0.0186375
0.0154351
0.0125969
0.0428679
0.0415079
0.0383442
0.0347703
0.0307246
0.026731
0.0227684
0.019139
0.0157597
0.0127604
0.0442568
0.0428993
0.0396375
0.0359811
0.0317887
0.0276368
0.0234875
0.0196781
0.0161144
0.0129467
0.0456779
0.0443272
0.0409714
0.037241
0.0329024
0.0285923
0.0242522
0.0202576
0.0165019
0.0131585
0.0471292
0.0457898
0.042345
0.0385503
0.0340666
0.0295994
0.0250648
0.0208801
0.0169249
0.0133985
0.0486086
0.047285
0.0437576
0.0399093
0.0352822
0.0306601
0.0259279
0.0215485
0.0173864
0.0136696
0.0501142
0.0488106
0.0452084
0.0413179
0.0365501
0.0317764
0.0268441
0.022266
0.0178895
0.013975
0.0516436
0.0503643
0.0466965
0.0427761
0.037871
0.0329505
0.0278162
0.0230355
0.0184375
0.0143181
0.0531947
0.0519438
0.048221
0.0442836
0.0392456
0.0341843
0.0288468
0.0238604
0.0190338
0.0147023
0.0547652
0.0535467
0.0497809
0.0458399
0.0406748
0.0354801
0.0299387
0.0247441
0.0196821
0.0151314
0.0563527
0.0551704
0.0513752
0.0474445
0.0421591
0.03684
0.0310949
0.0256901
0.0203862
0.0156093
0.0579547
0.0568124
0.0530028
0.0490964
0.0436991
0.0382659
0.0323181
0.0267019
0.0211501
0.0161401
0.059569
0.0584701
0.0546624
0.0507946
0.0452956
0.0397599
0.0336111
0.0277834
0.0219778
0.0167282
0.0611929
0.0601409
0.0563529
0.0525377
0.0469488
0.0413239
0.0349768
0.0289383
0.0228737
0.017378
0.062824
0.0618221
0.0580728
0.0543243
0.0486594
0.0429596
0.036418
0.0301705
0.0238422
0.0180943
0.0644597
0.0635112
0.0598205
0.0561525
0.0504278
0.0446685
0.0379375
0.0314841
0.024888
0.0188819
0.0660976
0.0652056
0.0615945
0.0580206
0.0522542
0.0464521
0.0395381
0.0328832
0.0260159
0.0197459
0.067735
0.0669027
0.0633929
0.0599265
0.0541388
0.0483115
0.0412223
0.0343719
0.0272305
0.0206914
0.0693695
0.0686
0.0652138
0.0618677
0.0560818
0.0502475
0.0429929
0.0359544
0.0285371
0.021724
0.0709986
0.0702951
0.0670551
0.0638421
0.0580831
0.0522607
0.0448526
0.0376349
0.0299406
0.0228491
0.0726198
0.0719856
0.0689145
0.065847
0.0601423
0.0543514
0.0468038
0.0394176
0.0314461
0.0240725
0.0742308
0.0736692
0.0707897
0.0678799
0.0622591
0.0565195
0.048849
0.0413067
0.033059
0.0254
0.0758292
0.0753435
0.0726781
0.0699379
0.0644328
0.0587647
0.0509907
0.0433063
0.0347845
0.0268378
0.0774127
0.0770065
0.074577
0.0720183
0.0666624
0.061086
0.0532312
0.0454203
0.0366278
0.028392
0.0789792
0.0786561
0.0764838
0.0741182
0.0689466
0.0634826
0.0555727
0.0476525
0.0385942
0.030069
0.0805265
0.0802902
0.0783953
0.0762347
0.0712837
0.0659529
0.0580171
0.0500065
0.040689
0.0318753
0.0820527
0.081907
0.0803087
0.0783649
0.073672
0.0684952
0.0605664
0.0524856
0.0429176
0.0338177
0.0835559
0.0835046
0.082221
0.0805058
0.0761089
0.0711074
0.0632223
0.0550928
0.0452851
0.0359029
0.0850343
0.0850812
0.0841288
0.0826544
0.0785919
0.0737871
0.0659863
0.0578309
0.0477969
0.0381381
0.0864863
0.0866352
0.0860292
0.0848078
0.0811179
0.0765315
0.0688593
0.060702
0.0504581
0.0405302
0.0879102
0.0881651
0.087919
0.0869631
0.0836833
0.0793379
0.0718423
0.0637079
0.0532741
0.0430866
0.0893048
0.0896692
0.089795
0.0891172
0.0862842
0.0822028
0.0749356
0.0668501
0.0562503
0.0458146
0.0906687
0.0911463
0.0916541
0.0912672
0.0889164
0.0851228
0.0781391
0.0701291
0.0593921
0.0487217
0.0920009
0.0925949
0.0934933
0.0934102
0.0915753
0.0880942
0.0814523
0.0735453
0.0627052
0.0518153
0.0933002
0.0940139
0.0953096
0.0955432
0.0942557
0.0911132
0.0848738
0.0770983
0.0661957
0.0551027
0.0945659
0.0954021
0.0971004
0.0976633
0.0969525
0.0941758
0.0884018
0.0807871
0.0698703
0.0585912
0.0957972
0.0967585
0.0988627
0.0997677
0.0996599
0.0972776
0.0920335
0.0846104
0.0737362
0.0622873
0.0969934
0.0980819
0.100594
0.101853
0.102372
0.100414
0.0957653
0.0885664
0.0778014
0.0661966
0.098154
0.0993717
0.102292
0.103918
0.105083
0.103581
0.0995924
0.0926531
0.0820756
0.0703223
0.0992788
0.100627
0.103955
0.105957
0.107787
0.106774
0.103509
0.0968683
0.0865718
0.0746682
0.100367
0.101847
0.10558
0.10797
0.110476
0.109987
0.107508
0.10121
0.0913065
0.0792457
0.10142
0.103031
0.107167
0.109953
0.113147
0.113216
0.111582
0.105678
0.0962948
0.0840686
0.102436
0.104179
0.108713
0.111905
0.115795
0.116459
0.115722
0.110267
0.101533
0.0890896
0.103415
0.10529
0.110218
0.113822
0.118409
0.119702
0.1199
0.114956
0.107
0.0940935
0.104358
0.10636
0.111669
0.115684
0.120959
0.122903
0.124066
0.119727
0.112792
0.0989431
0.105268
0.107383
0.11306
0.117466
0.123433
0.126057
0.128294
0.124753
0.119488
0.104877
0.0109476
0.0105961
0.010245
0.00989577
0.00954821
0.00920207
0.00885747
0.00851476
0.00817439
0.00783675
0.00750216
0.00717091
0.00684331
0.00651963
0.00620016
0.00588517
0.00557492
0.00526966
0.00496963
0.00467509
0.0109444
0.0105916
0.0102394
0.00988926
0.00954078
0.00919358
0.00884775
0.00850369
0.00816182
0.00782254
0.00748617
0.007153
0.00682333
0.00649748
0.00617574
0.00585839
0.00554572
0.00523799
0.00493544
0.00463829
0.0109395
0.010583
0.0102276
0.00987415
0.00952223
0.0091714
0.0088218
0.00847386
0.00812807
0.0077848
0.00744439
0.00710715
0.00677339
0.00644343
0.00611759
0.00579616
0.00547943
0.00516769
0.0048612
0.00456023
0.010932
0.0105695
0.0102085
0.0098496
0.00949212
0.0091356
0.00878022
0.00842651
0.00807495
0.00772594
0.0073798
0.00703685
0.0066974
0.0063618
0.00603035
0.00570338
0.00538118
0.00506404
0.00475223
0.00444603
0.0109221
0.010551
0.0101824
0.00981612
0.00945119
0.00908706
0.00872402
0.00836268
0.00800355
0.00764703
0.00729342
0.00694306
0.00659627
0.00625339
0.00591475
0.00558067
0.00525147
0.00492743
0.00460885
0.00429599
0.0109098
0.0105279
0.0101495
0.00977405
0.00939977
0.00902614
0.00865356
0.00828276
0.00791428
0.0075485
0.00718574
0.00682631
0.00647055
0.00611881
0.00577144
0.00542877
0.00509109
0.00475873
0.00443197
0.0041111
0.0108952
0.0105002
0.0101102
0.00972357
0.0093381
0.00895311
0.00856917
0.00818711
0.00780754
0.00743081
0.00705723
0.00668711
0.0063208
0.00595867
0.00560105
0.00524828
0.00490069
0.00455859
0.00422226
0.003892
0.0108784
0.0104681
0.0100644
0.00966488
0.00926641
0.00886824
0.00847113
0.00807605
0.00768365
0.0072943
0.00690826
0.00652584
0.0061474
0.00577331
0.00540392
0.00503959
0.00468063
0.00432735
0.00398006
0.00363905
0.0108596
0.0104316
0.0100125
0.00959816
0.0091849
0.00877174
0.00835965
0.00794978
0.00754285
0.00713919
0.00673904
0.0063427
0.00595054
0.00556294
0.00518028
0.00480288
0.00443108
0.0040652
0.00370554
0.0033524
0.0108389
0.010391
0.0099544
0.00952359
0.00909374
0.00866378
0.0082349
0.00780848
0.00738529
0.00696563
0.00654971
0.00613782
0.00573034
0.00532767
0.00493018
0.00453821
0.00415209
0.00377215
0.0033987
0.00303202
0.0108166
0.0103465
0.00989047
0.00944136
0.00899312
0.00854452
0.00809703
0.00765227
0.00721107
0.0067737
0.00634032
0.00591124
0.00548682
0.00506748
0.00465359
0.00424551
0.00384357
0.00344809
0.00305939
0.00267775
0.010793
0.0102983
0.00982088
0.00935166
0.00888322
0.00841412
0.00794616
0.00748124
0.00702026
0.00656344
0.0061109
0.00566293
0.00521991
0.00478227
0.0043504
0.00392464
0.00350533
0.00309279
0.00268734
0.00228927
0.0107684
0.0102467
0.00974591
0.00925473
0.00876425
0.00827276
0.00778243
0.0072955
0.00681292
0.00633486
0.00586141
0.00539282
0.00492951
0.0044719
0.00402039
0.00357533
0.00313706
0.0027059
0.00228217
0.00186617
0.0107433
0.0101922
0.00966588
0.00915087
0.00863644
0.00812061
0.00760598
0.00709512
0.00658908
0.00608797
0.00559179
0.00510081
0.00461545
0.00413615
0.00366331
0.00319728
0.00273841
0.00228702
0.00184342
0.00140792
0.0107183
0.0101351
0.00958119
0.0090404
0.00850007
0.0079579
0.00741697
0.00688022
0.0063488
0.00582273
0.00530197
0.00478676
0.00427754
0.00377476
0.00327884
0.00279012
0.00230896
0.00183566
0.00137054
0.000913911
0.010694
0.0100761
0.00949231
0.00892372
0.00835547
0.00778489
0.00721558
0.00665092
0.00609213
0.00553915
0.00499188
0.00445053
0.00391556
0.00338746
0.00286664
0.00235344
0.00184821
0.00135126
0.000862917
0.000383475
0.0106713
0.0100159
0.00939981
0.00880131
0.00820303
0.0076019
0.00700206
0.00640738
0.00581915
0.00523723
0.00466143
0.00409196
0.00352931
0.00297396
0.00242633
0.00188678
0.00135564
0.000833234
0.000319876
-0.000184138
0.0106509
0.00995512
0.00930432
0.0086737
0.00804321
0.00740929
0.0067767
0.00614979
0.00552997
0.00491699
0.00431058
0.00371092
0.00311854
0.00253393
0.00195752
0.00138967
0.000830704
0.000280941
-0.000259301
-0.000789728
0.010634
0.00989477
0.00920662
0.00854154
0.00787654
0.00720751
0.00653983
0.00587841
0.00522475
0.0045785
0.00393927
0.00330728
0.00268303
0.00206707
0.00145981
0.00086162
0.00027281
-0.000306293
-0.000875375
-0.00143414
0.0106217
0.00983585
0.00910756
0.00840556
0.00770366
0.00699707
0.00629187
0.00559354
0.00490369
0.00422184
0.00354752
0.00288091
0.00222257
0.00157306
0.000932788
0.000302114
-0.000318645
-0.000929168
-0.00152914
-0.00211828
0.0106153
0.00977955
0.00900813
0.00826659
0.00752526
0.00677856
0.00603329
0.00529554
0.00456703
0.00384715
0.00313533
0.00243175
0.00173698
0.0010516
0.000376041
-0.000289357
-0.00094428
-0.00158841
-0.00222143
-0.00284306
0.0106163
0.00972716
0.00890943
0.00812557
0.00734215
0.00655269
0.00576467
0.00498486
0.00421509
0.00345462
0.00270278
0.00195972
0.00122607
0.000502408
-0.000210829
-0.00091331
-0.00160472
-0.00228475
-0.00295308
-0.00360944
0.0106263
0.00968015
0.00881271
0.00798357
0.00715526
0.00632021
0.00548664
0.00466199
0.00384823
0.00304449
0.00224997
0.00146482
0.000689705
-7.47849e-05
-0.000828214
-0.00157026
-0.0023006
-0.00301895