0.146059 	0.485771 	-9.52745e-19 	0.877148 	-0.0417699 	-3.16867e-18
0.148734 	0.494668 	4.1443e-19 	0.369943 	-0.0110448 	9.36572e-17
0.150143 	0.499354 	1.23955e-18 	0.34459 	-0.0083561 	8.77978e-17
