/*--------------------------------*- C++ -*----------------------------------*\
  =========                 |
  \\      /  F ield         | OpenFOAM: The Open Source CFD Toolbox
   \\    /   O peration     | Website:  https://openfoam.org
    \\  /    A nd           | Version:  7
     \\/     M anipulation  |
\*---------------------------------------------------------------------------*/
FoamFile
{
    version     2.0;
    format      ascii;
    class       surfaceScalarField;
    location    "19";
    object      phi;
}
// * * * * * * * * * * * * * * * * * * * * * * * * * * * * * * * * * * * * * //

dimensions      [0 3 -1 0 0 0 0];

internalField   nonuniform List<scalar> 
814
(
0.00175646
0.00100049
0.000810046
0.00098098
0.000565932
0.0020454
-0.00149011
0.00483072
-0.00178482
0.00648318
-0.000671482
0.0070471
2.0123e-06
0.00689228
3.0448e-05
0.00610175
-0.000122512
0.00476829
-0.000169073
-6.64771e-06
-0.000350601
-0.00113951
-0.000131998
-0.00200342
0.00144974
-0.00225322
0.00420599
-0.00275424
0.00741284
-0.0031764
0.0101935
-0.00290313
0.0118965
-0.00187208
0.0122062
-0.000316394
0.011201
0.00136218
0.00929701
0.00272286
0.00701522
0.0035095
0.00482183
0.00364422
0.00323794
-0.0020584
0.00091889
-0.00469729
0.000635474
-0.00575459
-0.00119592
-0.00527072
-0.00323811
-0.00390006
-0.00454706
-0.00203931
-0.00476387
-0.000157476
-0.00375391
0.0013361
-0.00180997
0.00221993
0.000478346
0.00246154
0.00248126
0.00226746
0.00370357
0.00188474
0.00402694
0.00147829
0.0036444
0.00111396
0.00288439
0.000796491
0.00205046
0.000526703
0.00131484
0.000753292
-0.000534149
0.00145304
-0.00170332
0.00180464
-0.00343389
0.000534657
-0.00570323
-0.000968782
-0.00816254
-0.00208775
-0.0101444
-0.002782
-0.0111127
-0.00278559
-0.0109023
-0.00202039
-0.00970597
-0.000717998
-0.00786724
0.000642521
-0.005787
0.00162333
-0.00382079
0.00206074
-0.00221168
0.00203529
-0.00105979
0.0017325
-0.000343757
0.00133442
4.26479e-05
0.000928431
0.000203818
0.000592123
0.000239652
0.000342231
0.000219486
0.000169882
0.000181999
5.39597e-05
-2.54518e-05
0.00179488
-0.000341839
0.00375288
-0.000153367
0.00382475
0.000462795
0.00217498
0.000680988
-0.000312449
0.000399677
-0.00297227
-0.00012218
-0.00521208
-0.000545783
-0.00655982
-0.000672644
-0.00683894
-0.000438877
-0.00621293
1.65111e-05
-0.0050715
0.0004819
-0.00381348
0.000802721
-0.00269927
0.000921071
-0.00182407
0.0008573
-0.00117047
0.000680826
-0.000718585
0.000476546
-0.000413651
0.000287188
-0.000212592
0.000141172
-8.45781e-05
4.1868e-05
-5.53752e-06
-2.50808e-05
4.08987e-05
-7.18881e-05
6.9956e-05
-0.000108929
9.20944e-05
-0.000143742
0.0014485
-0.00179034
0.00381487
-0.00251974
0.00602306
-0.00174539
0.00798102
-0.00127698
0.00957668
-0.00119598
0.0104032
-0.000948665
0.0102534
-0.000396027
0.00920939
0.000371374
0.00755458
0.00121593
0.00565755
0.00191353
0.00380653
0.00233292
0.00221099
0.00239826
0.000997791
0.00213427
0.000201374
0.00165372
-0.000223879
0.00110608
-0.00038783
0.000640497
-0.000396238
0.000295596
-0.00033043
7.53642e-05
-0.000240327
-4.82346e-05
-0.000160339
-0.000105069
-9.50964e-05
-0.00013713
-4.17512e-05
-0.000162274
-0.00139414
-0.000396199
-0.00271805
-0.00119583
-0.00221328
-0.00225016
1.24793e-05
-0.00350274
0.00310338
-0.00428687
0.00619273
-0.00403802
0.00851693
-0.00272022
0.00960918
-0.000720879
0.00941304
0.00141207
0.00820853
0.00311804
0.00646937
0.00407209
0.00465554
0.00421209
0.00307692
0.00371289
0.00186175
0.00286889
0.00100272
0.00196511
0.000452164
0.00119105
0.000121
0.00062676
-5.69506e-05
0.000253315
-0.000140459
3.52735e-05
-0.000159886
-8.56412e-05
-0.000143524
-0.000153493
-0.00176244
0.00136624
-0.00425551
0.00129724
-0.005839
-0.000666669
-0.00657271
-0.00276903
-0.00681889
-0.00404069
-0.00657805
-0.00427887
-0.00586559
-0.00343267
-0.00487106
-0.00171541
-0.00376637
0.000307376
-0.00271654
0.00206822
-0.00178662
0.00314216
-0.00101108
0.00343655
-0.000425411
0.00312722
-5.20387e-05
0.00249552
0.000115388
0.00179768
0.000151892
0.00115455
0.000117744
0.000660908
5.38321e-05
0.000317227
-5.41923e-06
9.4525e-05
-3.97937e-05
-5.12667e-05
0.000391939
0.000974306
0.0003613
0.00132788
-0.00098117
0.0006758
-0.00353413
-0.000216073
-0.00659898
-0.000975841
-0.00934793
-0.00152992
-0.0110806
-0.00169998
-0.0114405
-0.00135552
-0.0105441
-0.000589004
-0.00876339
0.000287482
-0.0066021
0.000980868
-0.00451589
0.00135035
-0.00279727
0.0014086
-0.00155163
0.00124988
-0.00074053
0.000986583
-0.000285026
0.000699042
-6.02701e-05
0.000436152
3.50756e-05
0.000221882
6.5333e-05
6.42679e-05
0.00218358
-0.00120927
0.00496809
-0.00145663
0.00617159
-0.000527694
0.00587249
8.3028e-05
0.00471597
0.000180677
0.00306952
0.000116532
0.0012452
0.000124337
-0.000396254
0.000285933
-0.00155518
0.000569921
-0.00215188
0.000884183
-0.00229478
0.00112376
-0.00215664
0.00121221
-0.00187603
0.00112799
-0.00153115
0.000904999
-0.0011831
0.000638531
-0.000861786
0.000377727
-0.00059044
0.000164806
-0.000379998
1.144e-05
0.000404107
-0.00161338
0.00160044
-0.00265297
0.00361426
-0.00254151
0.00625022
-0.00255293
0.00898552
-0.00255462
0.0110884
-0.00198631
0.012046
-0.000833269
0.0116837
0.000648216
0.0101806
0.00207299
0.00800062
0.00306417
0.00564874
0.00347565
0.00353651
0.00332444
0.00189782
0.00276667
0.000781827
0.002021
0.000139818
0.00128054
-0.000171275
0.00068882
-0.00028294
0.000276472
2.29275e-05
-0.00197624
0.000362862
-0.00437203
-0.000257174
-0.00498444
-0.0019291
-0.00383843
-0.00369894
-0.00170994
-0.00468311
0.00076761
-0.00446386
0.00296363
-0.00302929
0.00441766
-0.000805814
0.00496443
0.00152622
0.00469458
0.00333402
0.00392324
0.00424698
0.00298283
0.00426485
0.00210016
0.00364934
0.00137371
0.00274745
0.000805755
0.00184849
0.000392104
0.00110247
0.000112784
0.000555792
-0.00113979
0.00150265
-0.00307654
0.00167958
-0.00504578
4.01385e-05
-0.00701737
-0.00172736
-0.00887473
-0.00282575
-0.0101368
-0.00320177
-0.0104513
-0.0027148
-0.00978494
-0.00147218
-0.00835504
9.63195e-05
-0.00652244
0.00150142
-0.00463044
0.00235498
-0.00295067
0.00258509
-0.00164907
0.00234774
-0.000775737
0.00187411
-0.000273065
0.00134582
-3.24433e-05
0.00086185
0.00048237
0.00127719
0.000225461
0.00243809
0.000518676
0.00179849
0.000679742
-0.000468996
0.000540124
-0.00345032
0.000155575
-0.00633345
-0.000318649
-0.00839931
-0.000648937
-0.0092251
-0.000646385
-0.00882554
-0.00030324
-0.00752872
0.000204602
-0.00583464
0.000660901
-0.00417996
0.000930405
-0.00281754
0.000985325
-0.00181521
0.000871785
-0.00112964
0.000660251
-0.000699741
0.000431951
0.000227571
0.00196594
-0.00174048
0.00488581
-0.00240119
0.00703418
-0.00146863
0.0082829
-0.000708602
0.00875853
-0.000320053
0.00836558
7.43061e-05
0.00713488
0.000581762
0.00538076
0.00110774
0.0035038
0.00157371
0.00182759
0.00188082
0.000509001
0.00197949
-0.00040794
0.00184735
-0.000940947
0.00151833
-0.00115102
0.00108186
-0.00114896
0.000658198
-0.00101861
0.0003016
4.16131e-05
-0.000593544
-0.00114693
-0.000630767
-0.00236397
0.000920548
-0.00301994
0.00376772
-0.00355578
0.00696701
-0.00351935
0.00951519
-0.00247387
0.0107576
-0.000660698
0.010474
0.00139136
0.00899103
0.0030567
0.00687349
0.00399836
0.00468521
0.00416777
0.00280896
0.0037236
0.00140287
0.00292443
0.000460431
0.00202429
-9.10911e-05
0.00120972
-0.000367859
0.000578367
-0.00194482
0.000797886
-0.00450392
0.000195128
-0.00562903
-0.00189483
-0.0053741
-0.0038107
-0.0044191
-0.00447435
-0.00321132
-0.00368165
-0.00210122
-0.0017708
-0.00125252
0.000542667
-0.000714035
0.00251821
-0.000402479
0.0036868
-0.000207195
0.00397248
-7.7572e-05
0.00359398
-1.87166e-05
0.00286557
-2.02769e-05
0.00202585
-6.79768e-05
0.00125742
0.00065285
-0.000465208
0.00126309
-0.00162778
0.0013577
-0.00351442
-8.18901e-06
-0.00596705
-0.00135807
-0.00840973
-0.00203167
-0.0101327
-0.00195866
-0.0106777
-0.00122584
-0.0100203
-0.000114683
-0.00847704
0.000974921
-0.00651511
0.00172487
-0.00457331
0.00203068
-0.00294088
0.00196155
-0.00170555
0.00163024
-0.000875089
0.00119539
-0.000381988
0.000764318
0.000394253
0.00199429
-0.000731192
0.00431136
-0.000959376
0.00481086
-0.000507688
0.00366544
-0.000212645
0.00177376
-0.000139994
-0.000196012
1.11169e-05
-0.00177755
0.000355694
-0.00272831
0.000836086
-0.00306435
0.00131095
-0.00296696
0.00162748
-0.00264504
0.00170875
-0.00222575
0.00154226
-0.00178922
0.00119372
-0.00137137
0.000777541
-0.000998991
0.000391937
-0.000695057
9.03184e-05
-0.000115746
0.00129524
-0.00202643
0.00361705
-0.00328119
0.00600965
-0.00290028
0.00813676
-0.00233976
0.0096962
-0.00169944
0.0103089
-0.000601588
0.00977989
0.000884716
0.00827683
0.00233914
0.00618789
0.00339989
0.00401301
0.00380237
0.00214699
0.00357477
0.000790429
0.00289882
-4.4152e-05
0.0020283
-0.000472987
0.00120638
-0.000625895
0.000544845
-0.000620728
8.51513e-05
-0.00019565
-0.00143814
-0.000588294
-0.00277343
-0.00194589
-0.00225627
-0.00341744
-0.000240134
-0.0043559
0.00211157
-0.00405114
0.00384049
-0.00233051
0.00447848
0.000246723
0.0040888
0.00272883
0.00314201
0.00434667
0.00210479
0.00483959
0.00125831
0.00442125
0.000656783
0.00350035
0.000235308
0.00244978
-4.84241e-05
0.00149011
-0.00022378
0.000720201
-0.000325549
0.000186921
-0.000149051
-0.00166123
0.00107293
-0.00406879
0.000461665
-0.00569984
-0.00178639
-0.00651267
-0.00354306
-0.00679434
-0.00376947
-0.00659229
-0.00253257
-0.00588695
-0.000458611
-0.00477221
0.00161409
-0.00341769
0.00299214
-0.00207972
0.00350163
-0.00100874
0.00335027
-0.000301547
0.00279316
7.37365e-05
0.00207449
0.000214667
0.00134918
0.0002054
0.000729467
0.000135394
0.000256927
-6.95408e-05
0.000433599
0.000639335
0.000318749
0.000576515
-0.00118447
-0.000283173
-0.00357841
-0.00114912
-0.00578556
-0.00156232
-0.00696865
-0.00134948
-0.00682046
-0.000606796
-0.00557197
0.000365595
-0.00383415
0.00125433
-0.00220959
0.00187706
-0.00102141
0.00216209
-0.000331792
0.00210354
-4.91501e-06
0.00174762
0.000121129
0.00122313
0.00016477
0.000685827
0.000178776
0.000242921
0.000180556
0.00224981
-0.00161047
0.00518323
-0.00235691
0.00662076
-0.0017207
0.00658502
-0.00111338
0.00575649
0.00461961
0.00347468
0.00242967
0.00147545
0.000618941
-6.30181e-05
-0.000480732
-0.000625768
-0.00058295
-0.000440209
0.000154781
0.00111719
0.00296419
)
;

boundaryField
{
    inlet
    {
        type            calculated;
        value           nonuniform 0();
    }
    outlet
    {
        type            calculated;
        value           nonuniform 0();
    }
    cylinder
    {
        type            calculated;
        value           uniform 0;
    }
    top
    {
        type            symmetryPlane;
        value           nonuniform 0();
    }
    bottom
    {
        type            symmetryPlane;
        value           nonuniform 0();
    }
    defaultFaces
    {
        type            empty;
        value           nonuniform 0();
    }
    procBoundary20to14
    {
        type            processor;
        value           nonuniform List<scalar> 2(-0.00100261 -0.000555296);
    }
    procBoundary20to25
    {
        type            processor;
        value           nonuniform List<scalar> 
20
(
-7.13204e-05
-0.000275921
-0.000733799
-0.000212591
0.000538132
0.00141061
0.00220855
0.00273357
0.00284405
0.00252125
0.00189265
0.00118032
0.000543085
-0.000273138
7.58508e-05
-0.00176525
-0.00331932
-0.0035677
0.00510876
-0.00325795
)
;
    }
    procBoundary20to26
    {
        type            processor;
        value           nonuniform List<scalar> 
28
(
-0.000180757
3.96407e-06
-0.000189457
-0.000108377
-0.000197421
-5.00199e-05
-0.000143267
6.36742e-05
-4.96091e-05
-0.000232062
-8.36684e-05
-0.000294428
-5.43591e-05
0.00019007
4.09792e-05
-0.000444942
-0.000832656
-0.000484761
0.000158514
-0.000142459
-0.000123391
-0.000113163
-0.000466148
-0.000540824
-0.00037215
5.58837e-05
0.000282699
0.000173777
)
;
    }
    procBoundary20to27
    {
        type            processor;
        value           nonuniform List<scalar> 
29
(
-0.00175434
-3.45673e-05
0.00191395
-0.00166983
0.000124369
0.000913043
0.00150254
0.00154801
0.00322692
-0.000356943
-0.000818891
-0.00122771
-0.00145084
-0.00143269
0.00301659
-0.00252007
-0.00173299
-0.00104505
-0.00054477
0.00031818
-0.000378065
-0.000149715
-1.64735e-05
5.76569e-05
0.000149794
7.98714e-05
0.000121603
0.000159369
0.000113483
)
;
    }
}


// ************************************************************************* //
