/*--------------------------------*- C++ -*----------------------------------*\
  =========                 |
  \\      /  F ield         | OpenFOAM: The Open Source CFD Toolbox
   \\    /   O peration     | Website:  https://openfoam.org
    \\  /    A nd           | Version:  7
     \\/     M anipulation  |
\*---------------------------------------------------------------------------*/
FoamFile
{
    version     2.0;
    format      ascii;
    class       surfaceScalarField;
    location    "3";
    object      phi;
}
// * * * * * * * * * * * * * * * * * * * * * * * * * * * * * * * * * * * * * //

dimensions      [0 3 -1 0 0 0 0];

internalField   nonuniform List<scalar> 
30910
(
-0.000333492
-0.000553048
0.00088654
-0.00117113
0.000486239
0.000351396
-0.00232313
0.00261176
-0.00145977
-0.00325976
0.0037486
-0.00281196
-0.00340319
0.00308755
-0.00294412
-0.00251741
0.00121108
-0.00209687
-0.000851982
-0.000884727
-0.000780698
0.000973712
-0.00236419
0.000538494
0.00232948
-0.0030309
0.00167514
0.00294584
-0.00308141
0.00246505
0.00283182
-0.00275871
0.00287273
0.00226702
-0.00222484
0.00278964
0.00159724
-0.00161676
0.00228653
0.00103467
-0.00102224
0.00158482
0.000651881
-0.000533588
0.000916373
0.000431503
-0.000199089
0.000419466
0.000320106
-1.22524e-05
0.000123649
0.000266741
6.3515e-05
-1.01504e-05
0.000231263
8.03222e-05
-4.48438e-05
0.000199962
7.11058e-05
-3.98044e-05
0.000170406
5.15864e-05
-2.20304e-05
0.000137292
3.38489e-05
-7.35163e-07
0.000102195
1.73743e-05
1.77225e-05
6.87422e-05
1.20979e-06
3.22428e-05
3.79116e-05
-1.30382e-05
4.38679e-05
9.80493e-06
-2.55555e-05
5.36614e-05
-1.58861e-05
-3.65668e-05
6.22578e-05
-3.97804e-05
-4.61743e-05
7.00686e-05
-6.23739e-05
-5.44522e-05
7.70456e-05
-8.41049e-05
-6.14229e-05
8.31539e-05
-0.000105324
-6.712e-05
8.83394e-05
-0.000126279
-7.15627e-05
9.25175e-05
-0.000147126
-7.47311e-05
9.55783e-05
-0.000167952
-7.65576e-05
9.73823e-05
-0.000188785
-7.69265e-05
9.77591e-05
-0.000209616
-7.56818e-05
9.65127e-05
-0.000230408
-7.26288e-05
9.3421e-05
-0.00025111
-6.74473e-05
8.81493e-05
-0.000271618
-5.88782e-05
7.93855e-05
-4.60966e-05
6.626e-05
-0.000291781
-0.00186965
0.0013166
-0.00423584
0.00285244
-0.00516995
0.00354587
-0.00485105
0.0034297
-0.00415437
0.00239087
-0.00349261
0.000549331
-0.00285973
-0.00151761
-0.00209645
-0.00312747
-0.00119842
-0.00392893
-0.000355618
-0.00392422
0.000226955
-0.00334128
0.000480784
-0.00247867
0.000463366
-0.00159934
0.000313313
-0.000872188
0.000145908
-0.000366183
1.5753e-05
-6.8934e-05
-6.54998e-05
6.90004e-05
-0.000109953
0.000107968
-0.00012886
9.92298e-05
-0.00012865
7.08953e-05
-0.000116937
3.98732e-05
-9.9659e-05
1.65711e-05
-8.26474e-05
3.62595e-07
-7.04372e-05
-1.10006e-05
-6.40823e-05
-1.93947e-05
-6.35001e-05
-2.61373e-05
-6.80866e-05
-3.19803e-05
-7.69914e-05
-3.72696e-05
-8.93564e-05
-4.20874e-05
-0.000104377
-4.64022e-05
-0.000121365
-5.01316e-05
-0.000139772
-5.31565e-05
-0.000159171
-5.53312e-05
-0.000179244
-5.64853e-05
-0.000199744
-5.64259e-05
-0.000220484
-5.49424e-05
-0.000241309
-5.18036e-05
-0.000262095
-4.66615e-05
-0.000282685
-3.82879e-05
-2.58932e-05
-0.000302888
-0.000722865
0.00203946
-0.00108202
0.0032116
-0.000250016
0.00271386
0.00112489
0.0020548
0.00199866
0.00151709
0.00181905
0.000728943
0.00066374
-0.000362293
-0.000871143
-0.00159259
-0.00211278
-0.00268729
-0.00267003
-0.00336697
-0.00255226
-0.00345905
-0.00201927
-0.00301167
-0.00139046
-0.00222814
-0.000875008
-0.00138764
-0.000539939
-0.000701252
-0.000362548
-0.000246325
-0.000274136
-1.94118e-05
-0.000229611
6.34434e-05
-0.000199429
6.90478e-05
-0.000172745
4.42115e-05
-0.000148697
1.58247e-05
-0.000123716
-8.40959e-06
-0.000102112
-2.12409e-05
-8.64785e-05
-2.66348e-05
-7.755e-05
-2.83233e-05
-7.50375e-05
-2.865e-05
-7.81337e-05
-2.88842e-05
-8.58607e-05
-2.95427e-05
-9.72524e-05
-3.06958e-05
-0.00011143
-3.22247e-05
-0.000127664
-3.38977e-05
-0.000145372
-3.54484e-05
-0.000164101
-3.66028e-05
-0.000183498
-3.70878e-05
-0.000203291
-3.66332e-05
-0.00022326
-3.49731e-05
-0.000243227
-3.18371e-05
-0.000263043
-2.68458e-05
-0.000282529
-1.88015e-05
-6.95502e-06
-0.000301467
0.00189864
0.000140824
0.00451052
0.000599719
0.00601639
0.00120799
0.00629892
0.00177227
0.00582236
0.00199365
0.00488522
0.00166608
0.00366708
0.000855852
0.00229758
-0.000223087
0.000951475
-0.00134119
-7.40578e-05
-0.00234144
-0.000626237
-0.00290687
-0.000740093
-0.00289781
-0.000580715
-0.00238752
-0.000330895
-0.00163746
-0.000110794
-0.000921353
3.88117e-05
-0.000395931
0.000110212
-9.08124e-05
0.000130715
4.29409e-05
0.000122078
7.76849e-05
0.000104572
6.1717e-05
8.40585e-05
3.63387e-05
5.99753e-05
1.56736e-05
3.59129e-05
2.82134e-06
1.3138e-05
-3.85988e-06
-8.31611e-06
-6.86909e-06
-2.86905e-05
-8.27611e-06
-4.82438e-05
-9.33134e-06
-6.73453e-05
-1.04414e-05
-8.62019e-05
-1.18395e-05
-0.000104973
-1.3454e-05
-0.000123763
-1.51076e-05
-0.000142616
-1.65951e-05
-0.000161522
-1.76968e-05
-0.000180427
-1.81836e-05
-0.000199241
-1.78185e-05
-0.000217857
-1.63572e-05
-0.000236154
-1.35406e-05
-0.000254012
-8.98773e-06
-0.000271266
-1.54715e-06
9.49808e-06
-0.000287719
0.00123515
-0.00109432
0.00228706
-0.000452197
0.0017711
0.00172395
0.000319711
0.00322365
-0.000864802
0.00317816
-0.00113783
0.00193911
-0.000545218
0.000263238
0.000403925
-0.00117223
0.00119491
-0.00213217
0.00149263
-0.00263916
0.00131755
-0.00273178
0.000933259
-0.00251352
0.000563206
-0.00201747
0.000316077
-0.00139033
0.000196252
-0.000801528
0.000162124
-0.000361803
0.000167709
-9.63966e-05
0.000183645
2.70044e-05
0.000195883
6.5446e-05
0.000188367
6.92339e-05
0.000166448
5.82572e-05
0.000134495
4.76264e-05
9.73149e-05
4.00018e-05
6.08009e-05
3.26542e-05
2.70874e-05
2.68447e-05
-3.22629e-06
2.20367e-05
-3.03922e-05
1.78338e-05
-5.47456e-05
1.3912e-05
-7.69274e-05
1.03421e-05
-9.75382e-05
7.15662e-06
-0.000117039
4.39321e-06
-0.000135748
2.11411e-06
-0.00015385
4.04947e-07
-0.000171417
-6.172e-07
-0.000188436
-7.99147e-07
-0.00020484
4.65319e-08
-0.000220526
2.14591e-06
-0.000235384
5.87017e-06
-0.000249253
1.2322e-05
2.21961e-05
-0.000261952
-0.00119895
0.00010463
-0.00304239
0.00139124
-0.00447694
0.00315851
-0.00520129
0.003948
-0.00513226
0.00310913
-0.00425176
0.00105861
-0.00269844
-0.00129008
-0.000847974
-0.0030227
0.000774224
-0.00375437
0.001809
-0.00367394
0.0021921
-0.00311488
0.00203994
-0.00236136
0.00161045
-0.00158798
0.00114608
-0.000925963
0.000769481
-0.000424925
0.000508599
-0.000100921
0.000342935
6.92674e-05
0.000238238
0.000131701
0.000169151
0.000134532
0.000123525
0.00011486
8.75984e-05
9.41838e-05
5.89743e-05
7.62505e-05
3.44781e-05
6.44978e-05
1.23082e-05
5.48238e-05
-7.79348e-06
4.69463e-05
-2.64505e-05
4.06936e-05
-4.41337e-05
3.55167e-05
-6.12956e-05
3.10738e-05
-7.81325e-05
2.7179e-05
-9.47274e-05
2.37513e-05
-0.000111064
2.07301e-05
-0.000127067
1.81166e-05
-0.000142613
1.5951e-05
-0.000157551
1.43207e-05
-0.000171712
1.33621e-05
-0.00018492
1.32553e-05
-0.000197003
1.42288e-05
-0.000207804
1.66707e-05
-0.000217136
2.16543e-05
2.98781e-05
-0.000224818
-0.00180649
0.00191112
-0.00389992
0.00348467
-0.00433277
0.00359135
-0.00352107
0.0031363
-0.00264494
0.002233
-0.00229676
0.000710429
-0.00242546
-0.00116138
-0.00257932
-0.00286883
-0.00237715
-0.00395654
-0.00179451
-0.00425658
-0.00107227
-0.00383712
-0.000455486
-0.00297815
-7.26554e-05
-0.00197082
8.98737e-05
-0.00108849
0.000108933
-0.000443984
6.46842e-05
-5.66723e-05
4.45529e-06
0.000129496
-4.41686e-05
0.000180325
-7.48792e-05
0.000165243
-8.93463e-05
0.000129327
-9.01038e-05
9.49413e-05
-8.36901e-05
6.98369e-05
-7.3764e-05
5.4572e-05
-6.43055e-05
4.53654e-05
-5.87049e-05
4.13454e-05
-5.78916e-05
3.98801e-05
-6.15119e-05
3.91376e-05
-6.87032e-05
3.8265e-05
-7.84965e-05
3.69724e-05
-8.9964e-05
3.5219e-05
-0.000102332
3.30978e-05
-0.000114949
3.07344e-05
-0.000127291
2.8292e-05
-0.000138927
2.59573e-05
-0.000149504
2.39389e-05
-0.000158718
2.24697e-05
-0.00016631
2.18203e-05
-0.000172062
2.24228e-05
-0.000175755
2.53467e-05
3.13439e-05
-0.000177221
0.000379477
0.00153165
0.00148001
0.00238414
0.00303873
0.00203262
0.00452023
0.00165481
0.00534944
0.00140379
0.00516194
0.000897932
0.00396048
4.00796e-05
0.00215236
-0.00106071
0.000374405
-0.00217859
-0.000863255
-0.00301892
-0.00136208
-0.00333829
-0.00129262
-0.00304761
-0.000951212
-0.00231222
-0.00058917
-0.00145053
-0.000315102
-0.000718052
-0.000148986
-0.000222788
-6.55806e-05
4.60901e-05
-2.51352e-05
0.00013988
-7.35398e-06
0.000147462
2.62766e-07
0.00012171
3.18173e-06
9.20224e-05
2.89846e-06
7.01201e-05
-4.94319e-08
5.75198e-05
-6.53706e-06
5.1853e-05
-1.47342e-05
4.95426e-05
-2.48631e-05
5.00091e-05
-3.6415e-05
5.06905e-05
-4.87992e-05
5.0649e-05
-6.14854e-05
4.96586e-05
-7.40233e-05
4.77568e-05
-8.60204e-05
4.50949e-05
-9.71403e-05
4.18546e-05
-0.000107076
3.82284e-05
-0.000115537
3.44185e-05
-0.000122239
3.06409e-05
-0.000126901
2.71324e-05
-0.000129252
2.41719e-05
-0.00012904
2.22106e-05
-0.000126002
2.23089e-05
2.54593e-05
-0.000120118
0.00219389
-0.000662246
0.00489936
-0.000321329
0.00594278
0.0009892
0.00548737
0.00211023
0.00449133
0.00239983
0.00352005
0.00186921
0.00274176
0.000818372
0.00203921
-0.000358167
0.00128167
-0.00142105
0.000501208
-0.00223846
-0.000140483
-0.0026966
-0.000505354
-0.00268274
-0.00057919
-0.00223839
-0.000462203
-0.00156752
-0.00027429
-0.000905965
-9.54553e-05
-0.000401623
4.29121e-05
-9.22772e-05
0.000124628
5.81641e-05
0.000162998
0.000109091
0.000171312
0.000113397
0.000158525
0.00010481
0.000133367
9.52779e-05
0.000103161
8.7726e-05
7.23127e-05
8.27016e-05
4.25301e-05
7.93249e-05
1.60359e-05
7.65034e-05
-6.81856e-06
7.35453e-05
-2.62921e-05
7.01224e-05
-4.27646e-05
6.61318e-05
-5.66056e-05
6.15979e-05
-6.80763e-05
5.65655e-05
-7.73099e-05
5.10882e-05
-8.43164e-05
4.52349e-05
-8.89974e-05
3.90997e-05
-9.11675e-05
3.28111e-05
-9.05761e-05
2.65409e-05
-8.69277e-05
2.05234e-05
-7.98883e-05
1.51711e-05
-6.88692e-05
1.12896e-05
9.27747e-06
-5.26874e-05
0.000197992
-0.000860238
-0.000142602
1.92642e-05
-0.00147292
0.00231952
-0.00313232
0.00376963
-0.00413345
0.00340096
-0.00393973
0.00167549
-0.0026456
-0.000475762
-0.000863185
-0.00214058
0.000702964
-0.0029872
0.00163816
-0.00317365
0.00186843
-0.00292687
0.00159297
-0.00240729
0.00114581
-0.00179122
0.000741087
-0.0011628
0.000462035
-0.000626913
0.000305254
-0.000244841
0.000231268
-1.82917e-05
0.000200489
8.89437e-05
0.000183366
0.000126214
0.000162097
0.000134666
0.000136959
0.000129948
0.000109585
0.000122651
8.15103e-05
0.0001158
5.46176e-05
0.000109594
2.95767e-05
0.000104366
7.74584e-06
9.83343e-05
-1.04768e-05
9.1768e-05
-2.53816e-05
8.50275e-05
-3.73999e-05
7.81503e-05
-4.68662e-05
7.1065e-05
-5.39597e-05
6.36591e-05
-5.87064e-05
5.58351e-05
-6.10019e-05
4.75308e-05
-6.06384e-05
3.87364e-05
-5.73335e-05
2.95063e-05
-5.0759e-05
1.99664e-05
-4.05649e-05
1.03292e-05
-2.64304e-05
1.03663e-06
-8.12358e-06
-7.01723e-06
-1.30379e-05
1.41918e-05
-0.0017213
0.000861065
-0.00408613
0.00238409
-0.00539784
0.00363123
-0.00563254
0.00400433
-0.00530388
0.0030723
-0.0046204
0.000992011
-0.00366145
-0.00143472
-0.0024422
-0.00335983
-0.001135
-0.0042944
-4.29602e-05
-0.0042657
0.000633765
-0.0036036
0.000903792
-0.00267731
0.000838277
-0.0017257
0.000620236
-0.000944762
0.000384839
-0.000391515
0.000196013
-5.60153e-05
6.68796e-05
0.000110842
-1.35675e-05
0.000169391
-5.94723e-05
0.000172119
-7.91922e-05
0.000154386
-8.35595e-05
0.000134315
-7.93497e-05
0.000118442
-7.1236e-05
0.000107686
-6.27012e-05
0.00010106
-5.4854e-05
9.65187e-05
-4.91825e-05
9.26629e-05
-4.57805e-05
8.83663e-05
-4.41716e-05
8.34187e-05
-4.36506e-05
7.76297e-05
-4.34166e-05
7.08312e-05
-4.26827e-05
6.29253e-05
-4.07101e-05
5.38628e-05
-3.68137e-05
4.36349e-05
-3.03579e-05
3.22809e-05
-2.07482e-05
1.98967e-05
-7.42723e-06
6.64524e-06
1.01181e-05
-7.21631e-06
3.23277e-05
-2.11731e-05
5.96067e-05
-3.42962e-05
-4.58319e-05
9.24009e-05
-0.00125986
0.00212093
-0.00237843
0.00350266
-0.00190334
0.00315613
-0.000399591
0.00250059
0.000887355
0.00178535
0.00121711
0.000662256
0.000569845
-0.00078745
-0.000531587
-0.00225839
-0.00143323
-0.00339275
-0.00177178
-0.00392715
-0.00159154
-0.00378384
-0.00117104
-0.00309782
-0.000745741
-0.002151
-0.00045145
-0.00123905
-0.000297239
-0.000545727
-0.00023736
-0.000115894
-0.000222895
9.63767e-05
-0.000221188
0.000167684
-0.00021534
0.000166272
-0.000200136
0.000139182
-0.000176858
0.000111037
-0.000149763
9.13471e-05
-0.000122874
8.07973e-05
-9.86501e-05
7.68356e-05
-7.85191e-05
7.6388e-05
-6.27835e-05
7.69274e-05
-5.12025e-05
7.67857e-05
-4.27188e-05
7.49345e-05
-3.63896e-05
7.13002e-05
-3.09293e-05
6.5372e-05
-2.51938e-05
5.71915e-05
-1.8177e-05
4.6846e-05
-8.99017e-06
3.4448e-05
3.16161e-06
2.01291e-05
1.90077e-05
4.05064e-06
3.92285e-05
-1.35755e-05
6.44527e-05
-3.24404e-05
9.52297e-05
-5.19501e-05
0.000132067
-7.11329e-05
-8.90084e-05
0.000175243
0.00140656
0.000714366
0.00366822
0.001241
0.00553109
0.00129326
0.00667463
0.00135704
0.00708295
0.00137704
0.00668891
0.00105629
0.00555742
0.00034404
0.00391258
-0.000613553
0.00214205
-0.00162222
0.000678353
-0.00246346
-0.000214526
-0.00289096
-0.000567092
-0.00274525
-0.000563054
-0.00215503
-0.00040797
-0.00139414
-0.000238709
-0.000714988
-0.000113012
-0.000241591
-3.91033e-05
2.24679e-05
-6.72038e-06
0.000135301
8.22628e-06
0.000151325
1.36628e-05
0.000133745
1.40255e-05
0.000110674
1.16757e-05
9.36968e-05
7.74381e-06
8.47291e-05
2.96356e-06
8.16159e-05
-1.85365e-06
8.12053e-05
-5.94091e-06
8.10148e-05
-8.65527e-06
7.94983e-05
-9.84343e-06
7.61233e-05
-8.86474e-06
7.03214e-05
-5.43804e-06
6.19455e-05
7.56941e-07
5.09967e-05
1.01031e-05
3.75003e-05
2.30397e-05
2.15115e-05
4.00764e-05
3.09251e-06
6.179e-05
-1.76629e-05
8.88113e-05
-4.05967e-05
0.000121795
-6.54245e-05
0.000161365
-9.15198e-05
0.000208096
-0.000117863
-0.000143146
0.000262233
0.00178908
-0.00107471
0.00368983
-0.000659751
0.00379493
0.00118816
0.00252849
0.00262349
0.00106002
0.00284551
0.000135913
0.00198039
-7.61532e-05
0.000556106
0.000138942
-0.000828648
0.000366538
-0.00184981
0.000364412
-0.00246133
0.000111026
-0.00263757
-0.00016227
-0.00247196
-0.000311818
-0.00200549
-0.00031299
-0.00139297
-0.000218929
-0.000809049
-9.45853e-05
-0.000365934
1.78033e-05
-8.99207e-05
0.000104326
4.87787e-05
0.00015266
0.000102991
0.000166348
0.000120057
0.00015703
0.000119993
0.000134765
0.000115961
0.000107402
0.000112093
7.98431e-05
0.000109174
5.5802e-05
0.000105246
3.71244e-05
9.9693e-05
2.42244e-05
9.23983e-05
1.71239e-05
8.32238e-05
1.54142e-05
7.20309e-05
1.86744e-05
5.86854e-05
2.6634e-05
4.30368e-05
3.9195e-05
2.49395e-05
5.64748e-05
4.23171e-06
7.87873e-05
-1.92199e-05
0.00010662
-4.54957e-05
0.000140607
-7.45832e-05
0.000181483
-0.000106301
0.000230008
-0.000140046
0.000286911
-0.000174766
-0.00020877
0.000352536
-0.000720803
-0.000353908
-0.00217568
0.000795125
-0.00395896
0.00297144
-0.00559051
0.00425504
-0.00647955
0.00373456
-0.00622514
0.00172598
-0.00485681
-0.000812225
-0.00284617
-0.00283928
-0.000874148
-0.00382184
0.000555411
-0.00389089
0.00131019
-0.00339235
0.00148433
-0.00264609
0.00131151
-0.00183267
0.00102933
-0.00111079
0.000767056
-0.000546771
0.000566436
-0.000165314
0.000424189
5.23269e-05
0.00032192
0.000151048
0.000245528
0.000179382
0.000185836
0.00017975
0.000137302
0.000168526
9.81189e-05
0.000155144
6.73977e-05
0.000142814
4.49662e-05
0.000131606
2.96524e-05
0.00012056
2.04721e-05
0.000108873
1.64099e-05
9.64605e-05
1.74148e-05
8.22186e-05
2.30999e-05
6.63459e-05
3.31624e-05
4.86231e-05
4.7517e-05
2.86819e-05
6.62981e-05
6.15816e-06
8.9806e-05
-1.9276e-05
0.000118524
-4.79376e-05
0.000153095
-8.00674e-05
0.000194326
-0.000115814
0.000243163
-0.000155138
0.000300637
-0.000197519
0.000367788
-0.000241917
-0.00028621
0.000445228
-0.00190313
0.00154922
-0.00431166
0.00320366
-0.00520841
0.00386818
-0.00482115
0.00386778
-0.00408362
0.00299703
-0.00350533
0.00114768
-0.00313903
-0.00117853
-0.00275311
-0.00322519
-0.00213976
-0.00443519
-0.00134831
-0.00468234
-0.000586688
-0.00415398
-5.08881e-05
-0.00318189
0.000211009
-0.00209457
0.000263863
-0.00116364
0.000200812
-0.00048372
9.9749e-05
-6.42508e-05
5.31616e-06
0.00014676
-6.57721e-05
0.000222136
-0.000112069
0.000225679
-0.000132922
0.000200603
-0.000134393
0.000169997
-0.000123039
0.000143791
-0.000104574
0.000124349
-8.30851e-05
0.000110117
-6.11293e-05
9.86042e-05
-3.9954e-05
8.76979e-05
-1.94684e-05
7.59749e-05
6.14162e-07
6.2136e-05
2.09696e-05
4.59903e-05
4.26053e-05
2.69874e-05
6.64772e-05
4.80975e-06
9.34823e-05
-2.08471e-05
0.000124492
-5.02859e-05
0.000160373
-8.38177e-05
0.000202053
-0.000121747
0.000250578
-0.000164339
0.000307164
-0.000211723
0.000373203
-0.000263559
0.000450246
-0.00031896
-0.000375421
0.000539457
-0.000355934
0.00190516
-8.53765e-05
0.0029331
0.00140528
0.00237752
0.00351255
0.00176052
0.00521203
0.00129755
0.00576342
0.000596283
0.00498636
-0.000401465
0.00330144
-0.00154027
0.00143815
-0.00257189
-4.62516e-06
-0.00323957
-0.000791653
-0.00336695
-0.00102216
-0.00295139
-0.00093409
-0.00218263
-0.000753138
-0.0013446
-0.000592599
-0.00064426
-0.000478929
-0.00017792
-0.000401061
6.88914e-05
-0.000343496
0.000164572
-0.000294884
0.000177068
-0.000249721
0.00015544
-0.000207208
0.000127483
-0.000167808
0.000104391
-0.000131887
8.8428e-05
-9.85347e-05
7.67647e-05
-6.82583e-05
6.8328e-05
-4.08608e-05
6.03002e-05
-1.47859e-05
4.99e-05
1.05811e-05
3.67686e-05
3.64514e-05
2.01199e-05
6.38704e-05
-4.31634e-07
9.37895e-05
-2.51095e-05
0.000127082
-5.41394e-05
0.000164578
-8.77828e-05
0.000207114
-0.000126353
0.000255588
-0.000170221
0.000311049
-0.000219799
0.000374796
-0.00027547
0.000448497
-0.00033726
0.000534346
-0.000404808
-0.000475626
0.00063455
0.00212873
-0.000223574
0.00508883
-2.70015e-05
0.00687823
0.000588131
0.0073992
0.00123954
0.00714026
0.0015565
0.00638346
0.00135308
0.00530029
0.000681703
0.00398368
-0.000223667
0.00253873
-0.00112694
0.00116291
-0.00186375
9.66061e-05
-0.00230065
-0.000541682
-0.0023131
-0.000785277
-0.00193904
-0.000772038
-0.00135783
-0.000636019
-0.000780279
-0.000473327
-0.000340613
-0.000332739
-7.16964e-05
-0.00022667
5.85029e-05
-0.000152047
0.000102445
-0.000102274
0.000105667
-7.03065e-05
9.55157e-05
-4.90996e-05
8.31841e-05
-3.37583e-05
7.30863e-05
-2.18643e-05
6.48707e-05
-9.8394e-06
5.63029e-05
4.54852e-06
4.59122e-05
2.18117e-05
3.26369e-05
4.26787e-05
1.59016e-05
6.74751e-05
-4.67671e-06
9.64303e-05
-2.93868e-05
0.000129813
-5.84919e-05
0.000167956
-9.22827e-05
0.000211273
-0.0001311
0.000260265
-0.000175345
0.000315542
-0.000225499
0.000377881
-0.000282139
0.000448337
-0.000345926
0.000528497
-0.000417419
0.000621079
-0.00049739
-0.000585149
0.000730602
0.000919851
-0.00114343
0.00146716
-0.000574313
0.000434162
0.00162113
-0.00157075
0.00324445
-0.00333441
0.00332016
-0.00409408
0.00211275
-0.00367056
0.000258183
-0.00247581
-0.00141842
-0.00115001
-0.00245274
-0.000158285
-0.00285547
0.000306604
-0.00276554
0.000353986
-0.00236048
0.000226477
-0.00181153
8.86141e-05
-0.00121997
5.08293e-06
-0.000696748
-2.27319e-05
-0.000312798
-1.65368e-05
-7.78913e-05
3.44427e-06
3.85222e-05
2.22898e-05
8.3599e-05
3.10833e-05
9.68735e-05
3.24363e-05
9.41631e-05
2.93176e-05
8.63031e-05
2.56959e-05
7.67078e-05
2.39329e-05
6.66338e-05
2.64335e-05
5.38026e-05
3.50852e-05
3.72604e-05
5.00664e-05
1.76557e-05
7.1188e-05
-5.21968e-06
9.81928e-05
-3.16814e-05
0.000130899
-6.20933e-05
0.00016927
-9.68629e-05
0.00021342
-0.000136432
0.000263589
-0.000181268
0.000320109
-0.000231865
0.000383362
-0.000288752
0.000453752
-0.00035253
0.000531735
-0.000423909
0.000617996
-0.00050368
0.000714809
-0.000594204
-0.000701832
0.000831492
-0.00146596
0.00032254
-0.00375811
0.00171783
-0.00563611
0.00349914
-0.00686669
0.00447502
-0.00743432
0.0038878
-0.00716751
0.00184594
-0.00609899
-0.000810333
-0.0044149
-0.00310251
-0.00252185
-0.00434579
-0.000893788
-0.00448353
0.000219336
-0.00387866
0.000800503
-0.00294165
0.000950194
-0.00196122
0.000841135
-0.00111091
0.000641286
-0.000496899
0.000440372
-0.000111884
0.00027478
8.77011e-05
0.000150485
0.000162817
6.34255e-05
0.000170658
9.98459e-06
0.000150314
-1.82675e-05
0.000122415
-2.89302e-05
9.69655e-05
-2.73234e-05
7.51011e-05
-1.64636e-05
5.57739e-05
1.60046e-06
3.57385e-05
2.49225e-05
1.39381e-05
5.27105e-05
-1.01322e-05
8.47579e-05
-3.72669e-05
0.000121203
-6.81263e-05
0.000162409
-0.000103299
0.000208886
-0.00014334
0.000261238
-0.000188784
0.000320122
-0.000240152
0.00038621
-0.000297953
0.000460139
-0.000362682
0.000542417
-0.000434809
0.0006333
-0.000514792
0.000732686
-0.000603066
0.000839781
-0.000701299
-0.000810428
0.000948377
-0.00170082
0.00202336
-0.00359291
0.00360993
-0.00376706
0.00367329
-0.00259098
0.00329895
-0.00125765
0.00255447
-0.000552339
0.00114062
-0.000588822
-0.000773849
-0.00101556
-0.00267577
-0.00132708
-0.00403427
-0.001249
-0.00456161
-0.000866559
-0.0042611
-0.00043347
-0.00337474
-0.000117349
-0.00227734
3.63254e-05
-0.00126459
5.46471e-05
-0.000515221
3.40931e-06
-6.06457e-05
-6.50435e-05
0.000156154
-0.000121336
0.00021911
-0.000154179
0.000203501
-0.000163126
0.000159261
-0.00015343
0.000112719
-0.000130097
7.36318e-05
-9.81312e-05
4.31356e-05
-6.00634e-05
1.7706e-05
-1.97535e-05
-4.57098e-06
2.05467e-05
-2.63621e-05
6.12704e-05
-5.08558e-05
0.000103421
-7.94178e-05
0.000148214
-0.000112919
0.000196907
-0.000151992
0.000250735
-0.000197167
0.000310905
-0.000248954
0.000378641
-0.000307888
0.000455255
-0.000374568
0.000542284
-0.000449711
0.00064172
-0.000534245
0.000756416
-0.000629489
0.000890794
-0.000737444
0.00105297
-0.000863472
-0.00102223
0.00126477
0.000742157
0.0012812
0.00235095
0.00200114
0.00431153
0.0017127
0.00616813
0.00144235
0.00745277
0.00126982
0.00775706
0.000836338
0.00692672
5.64912e-05
0.00520437
-0.000953424
0.00314707
-0.00197698
0.00134095
-0.00275549
0.000129112
-0.00304926
-0.000444402
-0.00280122
-0.000593361
-0.00212838
-0.000534676
-0.00132327
-0.000415366
-0.000634531
-0.000305555
-0.000170456
-0.000226809
7.74081e-05
-0.000166761
0.000159061
-0.000120534
0.000157274
-8.38306e-05
0.000122558
-5.334e-05
8.22285e-05
-2.70983e-05
4.73903e-05
-1.72968e-06
1.77671e-05
2.3345e-05
-7.36861e-06
4.8971e-05
-3.01968e-05
7.7344e-05
-5.47348e-05
0.000109577
-8.30893e-05
0.000146613
-0.000116454
0.000189284
-0.00015559
0.000238374
-0.000201082
0.000294674
-0.000253467
0.000359035
-0.000313315
0.000432419
-0.000381273
0.000515961
-0.000458111
0.000611028
-0.000544778
0.00071929
-0.000642507
0.000842751
-0.000752949
0.000983654
-0.000878347
0.00114284
-0.00102266
-0.00119246
0.00131307
0.00215022
-0.000869017
0.00476303
-0.000611671
0.00568045
0.000795275
0.00511217
0.00201063
0.00403441
0.00234759
0.00304825
0.00182249
0.00235068
0.000754065
0.00181332
-0.00041606
0.00122911
-0.00139277
0.00055058
-0.00207696
-0.000120615
-0.00237807
-0.00060756
-0.00231428
-0.000819705
-0.00191624
-0.00079524
-0.00134774
-0.000635664
-0.000794107
-0.000433766
-0.000372354
-0.000244134
-0.000112224
-0.000100476
1.54028e-05
-1.05877e-06
5.78567e-05
5.72715e-05
6.42277e-05
8.78386e-05
5.16609e-05
0.000100019
3.52102e-05
0.0001041
1.36858e-05
0.000107274
-1.05424e-05
0.000115122
-3.80442e-05
0.000130022
-6.96348e-05
0.000153029
-0.000106096
0.000184576
-0.000148001
0.000224823
-0.000195838
0.000273874
-0.000250133
0.000331905
-0.000311498
0.00039924
-0.00038065
0.00047638
-0.000458413
0.000563998
-0.000545729
0.000662913
-0.000643693
0.000774001
-0.000753595
0.000898034
-0.000876982
0.00103528
-0.0010156
0.00118446
-0.00117184
-0.00134831
0.00134031
-0.000119729
-0.000749288
-0.000912249
0.000180849
-0.00261245
0.00249548
-0.0046104
0.00400858
-0.0059903
0.00372748
-0.00615717
0.00198936
-0.00506477
-0.000338338
-0.00321576
-0.00226506
-0.0013265
-0.00328204
8.4552e-05
-0.00348801
0.000832328
-0.00312584
0.00103082
-0.00251277
0.000907462
-0.00179288
0.000692403
-0.00113268
0.000500122
-0.000601826
0.000364883
-0.000237115
0.000279484
-2.68246e-05
0.000227197
6.769e-05
0.000186028
9.90257e-05
0.000154708
9.55478e-05
0.000130283
7.60865e-05
0.000115469
5.00236e-05
0.000105382
2.37726e-05
0.000104081
-9.24102e-06
0.000112627
-4.65901e-05
0.000130948
-8.79554e-05
0.000158646
-0.000133795
0.000195306
-0.000184661
0.000240642
-0.000241173
0.000294549
-0.00030404
0.000357119
-0.000374068
0.000428613
-0.000452145
0.000509433
-0.000539233
0.000600068
-0.000636364
0.000701019
-0.000744644
0.000812692
-0.000865269
0.000935227
-0.000999516
0.00106822
-0.00114859
0.0012103
-0.00131392
-0.00149667
0.00135866
-0.00184669
0.00109741
-0.00437377
0.00270792
-0.00574307
0.00386479
-0.00599911
0.00426462
-0.00576145
0.00348982
-0.00529864
0.00152656
-0.00465315
-0.000983826
-0.0037482
-0.00317001
-0.00259436
-0.00443588
-0.0014203
-0.00466207
-0.000453893
-0.00409225
0.000142408
-0.00310907
0.000408346
-0.00205882
0.000423188
-0.00114752
0.000318273
-0.000496911
0.000183245
-0.000102088
6.30418e-05
9.33784e-05
-2.79386e-05
0.00015867
-8.21277e-05
0.000153215
-0.000104476
0.000117896
-0.000102957
7.45677e-05
-8.43195e-05
3.13862e-05
-5.13029e-05
-9.24381e-06
-1.14606e-05
-4.90832e-05
3.22323e-05
-9.0283e-05
7.89274e-05
-0.000134651
0.00012869
-0.000183557
0.000182086
-0.000238057
0.000239939
-0.000299026
0.00030317
-0.000367271
0.0003727
-0.000443598
0.000449391
-0.000528836
0.000534016
-0.000623858
0.000627227
-0.000729574
0.000729516
-0.000846933
0.000841157
-0.000976909
0.000962106
-0.00112047
0.00109188
-0.00127836
0.00122943
-0.00145147
-0.00164034
0.0013731
-0.00100732
0.00210473
-0.00171537
0.00341597
-0.000877436
0.00302686
0.000956231
0.00243095
0.00259515
0.0018509
0.00322899
0.000892714
0.00267668
-0.000431519
0.00137741
-0.00187074
2.72125e-05
-0.00308568
-0.00085547
-0.00377939
-0.00114382
-0.0038039
-0.00102373
-0.00322915
-0.000766733
-0.00231582
-0.000535974
-0.00137828
-0.000395661
-0.000637224
-0.00033172
-0.000166029
-0.000307726
6.93856e-05
-0.000294115
0.00014506
-0.000274804
0.000133903
-0.000244225
8.73173e-05
-0.000203392
3.37344e-05
-0.000152175
-1.98303e-05
-9.65226e-05
-6.48966e-05
-4.01794e-05
-0.000105427
1.58301e-05
-0.000146293
7.17945e-05
-0.000190615
0.00012865
-0.000240413
0.000187611
-0.000297018
0.000249948
-0.000361363
0.000316872
-0.000434195
0.000389465
-0.00051619
0.00046865
-0.000608022
0.000555181
-0.000710389
0.00064963
-0.000824024
0.000752371
-0.000949674
0.000863546
-0.00108808
0.000983016
-0.00123994
0.00111031
-0.00140565
0.00124459
-0.00158576
-0.00178046
0.00138471
0.00169477
0.000409959
0.00428349
0.000827246
0.00625036
0.00105998
0.00735645
0.00132487
0.0077335
0.00147385
0.00739216
0.00123405
0.00638438
0.000576262
0.0048557
-0.000342057
0.00307316
-0.00130314
0.00143278
-0.00213901
0.000254442
-0.00262557
-0.000394138
-0.00258057
-0.000618045
-0.00209191
-0.000595436
-0.00140089
-0.000476971
-0.000755688
-0.000349106
-0.000293893
-0.000244703
-3.50175e-05
-0.000170864
7.12203e-05
-0.000117607
8.06462e-05
-7.42239e-05
4.39338e-05
-3.66827e-05
-3.80687e-06
-6.65612e-06
-4.98565e-05
2.1716e-05
-9.32687e-05
5.19211e-05
-0.000135632
8.57449e-05
-0.000180116
0.000124295
-0.000229165
0.000168354
-0.000284473
0.000218525
-0.000347188
0.000275278
-0.000418116
0.000338997
-0.000497914
0.000410008
-0.000587201
0.000488591
-0.000686604
0.000574976
-0.000796775
0.000669326
-0.000918374
0.000771699
-0.00105205
0.000882007
-0.00119839
0.000999972
-0.0013579
0.00112508
-0.00153076
0.00125657
-0.00171725
-0.00191735
0.00139347
0.00155282
-0.00114286
0.00307273
-0.000692661
0.00284836
0.00128434
0.00137101
0.00280222
-0.000165747
0.00301061
-0.00101165
0.00207996
-0.00100849
0.000573094
-0.000490855
-0.000859689
6.79589e-05
-0.00186195
0.000340356
-0.00241141
0.000240309
-0.00252552
-1.68214e-05
-0.00232344
-0.000234235
-0.0018745
-0.000328256
-0.00130687
-0.000311289
-0.000772656
-0.000232159
-0.000373023
-0.000135273
-0.000131904
-3.94351e-05
-2.46174e-05
3.08152e-05
1.03958e-05
7.35457e-05
1.2034e-06
9.3583e-05
-2.38443e-05
0.000102098
-5.83716e-05
0.000108972
-0.000100143
0.000119826
-0.000146487
0.000137554
-0.000197845
0.000163645
-0.000255256
0.000198719
-0.000319547
0.000242858
-0.000391327
0.000295879
-0.000471137
0.000357516
-0.000559551
0.00042752
-0.000657204
0.000505695
-0.000764779
0.000591896
-0.000882976
0.000685992
-0.00101247
0.000787818
-0.00115387
0.000897127
-0.0013077
0.00101354
-0.00147431
0.00113649
-0.00165371
0.00126523
-0.001846
-0.00205095
0.00139883
-0.0010115
-0.000131365
-0.00281471
0.00111055
-0.00469635
0.00316598
-0.00624384
0.00434971
-0.00703588
0.00380265
-0.00676921
0.00181328
-0.00546112
-0.000734992
-0.00349157
-0.00282924
-0.00146838
-0.00388515
8.86407e-05
-0.00396842
0.00101483
-0.00345171
0.00134194
-0.00265056
0.00127457
-0.00180712
0.00103342
-0.00106572
0.000770935
-0.000510174
0.000550453
-0.000152541
0.000384979
3.35696e-05
0.000263816
9.6545e-05
0.00018422
8.99921e-05
0.00013064
5.47839e-05
0.000101319
5.47691e-06
8.59794e-05
-4.30325e-05
8.49064e-05
-9.90694e-05
9.64171e-05
-0.000157997
0.000119079
-0.000220507
0.000151665
-0.000287842
0.000193195
-0.000361077
0.000242966
-0.000441098
0.00030052
-0.000528692
0.000365593
-0.000624625
0.000438054
-0.000729666
0.000517848
-0.000844574
0.000604939
-0.000970067
0.000699262
-0.00110679
0.000800682
-0.00125529
0.00090895
-0.00141597
0.00102367
-0.00158903
0.00114429
-0.00177432
0.00127005
-0.00197176
-0.00218093
0.00140003
-0.00190796
0.00177659
-0.0042526
0.00345519
-0.0049932
0.00390659
-0.00441131
0.00376782
-0.00356357
0.00295491
-0.00304065
0.00129036
-0.00289424
-0.000881401
-0.0028084
-0.00291508
-0.00245757
-0.00423597
-0.00177892
-0.00464707
-0.000988059
-0.00424257
-0.000338194
-0.00330042
5.05828e-05
-0.0021959
0.000198315
-0.00121345
0.000189343
-0.000501202
0.000108418
-7.16159e-05
1.32929e-05
0.000128695
-6.83666e-05
0.000178204
-0.000119983
0.000141608
-0.000138727
7.35282e-05
-0.000128666
-4.58407e-06
-9.44435e-05
-7.72557e-05
-4.98313e-05
-0.000143682
4.12556e-07
-0.000208241
5.40901e-05
-0.000274185
0.00011043
-0.000344182
0.000169492
-0.000420139
0.00023179
-0.000503396
0.000298029
-0.00059493