/*--------------------------------*- C++ -*----------------------------------*\
  =========                 |
  \\      /  F ield         | OpenFOAM: The Open Source CFD Toolbox
   \\    /   O peration     | Website:  https://openfoam.org
    \\  /    A nd           | Version:  7
     \\/     M anipulation  |
\*---------------------------------------------------------------------------*/
FoamFile
{
    version     2.0;
    format      ascii;
    class       volScalarField;
    location    "3.8";
    object      p;
}
// * * * * * * * * * * * * * * * * * * * * * * * * * * * * * * * * * * * * * //

dimensions      [0 2 -2 0 0 0 0];

internalField   nonuniform List<scalar> 
344
(
3.89889
3.891
3.88313
3.87527
3.86745
3.85964
3.85185
3.84409
3.83634
3.82861
3.82091
3.81322
3.80555
3.7979
3.79027
3.78265
3.77506
3.76748
3.75991
3.75237
3.74484
3.73732
3.72983
3.72234
3.71488
3.70743
3.69999
3.69257
3.68516
3.67776
3.67038
3.66301
3.65566
3.64832
3.64099
3.63368
3.62638
3.61909
3.61181
3.60454
4.12242
4.1137
4.10502
4.09638
4.08778
4.07922
4.07069
4.0622
4.05374
4.04532
4.03694
4.02858
4.02026
4.01197
4.00371
3.99548
3.98727
3.9791
3.97096
3.96284
3.95475
3.94669
3.93865
3.93063
3.92265
3.91468
3.90674
3.89883
3.89093
3.88306
3.87521
3.86739
3.85958
3.85179
3.84403
3.83629
3.82856
3.82086
3.81317
3.8055
3.79785
3.79022
3.78261
3.77501
3.76743
3.75987
3.75233
3.7448
3.73729
3.72979
3.72231
3.71484
3.70739
3.69995
3.69253
3.68512
3.67773
3.67035
3.66298
3.65563
3.64829
3.64097
3.63365
3.62635
3.61906
3.61178
3.60452
4.12234
4.11362
4.10494
4.09631
4.08771
4.07915
4.07063
4.06214
4.05369
4.04527
4.03688
4.02853
4.02021
4.01192
4.00366
3.99543
3.98723
3.97906
3.97092
3.9628
3.95471
3.94665
3.93861
3.9306
3.92261
3.91465
3.90671
3.8988
3.8909
3.88303
3.87518
3.86736
3.85955
3.85177
3.844
3.83626
3.82854
3.82083
3.81315
3.80548
3.79783
3.7902
3.78259
3.77499
3.76741
3.75985
3.75231
3.74478
3.73727
3.72977
3.72229
3.71482
3.70737
3.69994
3.69252
3.68511
3.67772
3.67034
3.66297
3.65562
3.64828
3.64095
3.63364
3.62634
3.61905
3.61177
3.60451
4.12226
4.11355
4.10488
4.09624
4.08765
4.07909
4.07057
4.06208
4.05363
4.04522
4.03683
4.02848
4.02016
4.01187
4.00362
3.99539
3.98719
3.97902
3.97088
3.96276
3.95468
3.94661
3.93858
3.93057
3.92258
3.91462
3.90668
3.89877
3.89088
3.88301
3.87516
3.86733
3.85953
3.85174
3.84398
3.83624
3.82851
3.82081
3.81313
3.80546
3.79781
3.79018
3.78257
3.77497
3.7674
3.75984
3.75229
3.74476
3.73725
3.72976
3.72228
3.71481
3.70736
3.69992
3.6925
3.6851
3.6777
3.67032
3.66296
3.65561
3.64827
3.64094
3.63363
3.62633
3.61904
3.61176
3.6045
4.12219
4.11348
4.10481
4.09618
4.08759
4.07903
4.07051
4.06203
4.05358
4.04517
4.03678
4.02843
4.02012
4.01183
4.00357
3.99535
3.98715
3.97898
3.97084
3.96273
3.95464
3.94658
3.93855
3.93054
3.92255
3.91459
3.90665
3.89874
3.89085
3.88298
3.87513
3.86731
3.8595
3.85172
3.84396
3.83622
3.82849
3.82079
3.8131
3.80544
3.79779
3.79016
3.78255
3.77496
3.76738
3.75982
3.75227
3.74475
3.73724
3.72974
3.72226
3.71479
3.70734
3.69991
3.69249
3.68508
3.67769
3.67031
3.66295
3.65559
3.64826
3.64093
3.63362
3.62632
3.61903
3.61175
3.60449
4.12212
4.11341
4.10474
4.09612
4.08753
4.07897
4.07046
4.06198
4.05353
4.04512
4.03674
4.02839
4.02007
4.01179
4.00353
3.99531
3.98711
3.97895
3.97081
3.96269
3.95461
3.94655
3.93851
3.9305
3.92252
3.91456
3.90662
3.89871
3.89082
3.88295
3.87511
3.86728
3.85948
3.8517
3.84394
3.83619
)
;

boundaryField
{
    inlet
    {
        type            zeroGradient;
    }
    outlet
    {
        type            fixedValue;
        value           nonuniform 0();
    }
    wall
    {
        type            zeroGradient;
    }
    wedge1
    {
        type            wedge;
    }
    wedge2
    {
        type            wedge;
    }
    axis
    {
        type            empty;
    }
    procBoundary19to13
    {
        type            processor;
        value           nonuniform List<scalar> 
68
(
3.89899
3.89109
3.88322
3.87536
3.86753
3.85972
3.85193
3.84416
3.83642
3.82869
3.82098
3.81329
3.80562
3.79797
3.79033
3.78272
3.77512
3.76754
3.75997
3.75242
3.74489
3.73738
3.72988
3.72239
3.71493
3.70747
3.70003
3.69261
3.6852
3.6778
3.67042
3.66306
3.6557
3.64836
3.64103
3.63371
3.62641
3.61912
3.61184
3.60458
4.12259
4.11387
4.10518
4.09653
4.08793
4.07936
4.07083
4.06233
4.05387
4.04545
4.03705
4.0287
4.02037
4.01207
4.00381
3.99558
3.98737
3.97919
3.97105
3.96293
3.95483
3.94677
3.93873
3.93071
3.92272
3.91475
3.90681
3.90681
)
;
    }
    procBoundary19to18
    {
        type            processor;
        value           nonuniform List<scalar> 4(4.13118 4.13109 4.13102 4.13094);
    }
    procBoundary19to20
    {
        type            processor;
        value           nonuniform List<scalar> 5(3.59729 3.59727 3.59726 3.59725 3.59724);
    }
    procBoundary19to24
    {
        type            processor;
        value           uniform 4.13087;
    }
    procBoundary19to25
    {
        type            processor;
        value           nonuniform List<scalar> 
68
(
3.82847
3.82077
3.81308
3.80542
3.79777
3.79014
3.78253
3.77494
3.76736
3.7598
3.75226
3.74473
3.73722
3.72972
3.72224
3.71478
3.70733
3.69989
3.69247
3.68507
3.67768
3.6703
3.66293
3.65558
3.64824
3.64092
3.63361
3.62631
3.61902
3.61174
3.60448
4.12205
4.11335
4.10468
4.09606
4.08747
4.07892
4.0704
4.06192
4.05348
4.04507
4.03669
4.02834
4.02003
4.01175
4.00349
3.99527
3.98708
3.97891
3.97077
3.96266
3.95457
3.94652
3.93848
3.93047
3.92249
3.91453
3.9066
3.89868
3.89079
3.88293
3.87508
3.86726
3.85946
3.85167
3.84391
3.82847
3.83617
)
;
    }
}


// ************************************************************************* //
