/*--------------------------------*- C++ -*----------------------------------*\
  =========                 |
  \\      /  F ield         | OpenFOAM: The Open Source CFD Toolbox
   \\    /   O peration     | Website:  https://openfoam.org
    \\  /    A nd           | Version:  7
     \\/     M anipulation  |
\*---------------------------------------------------------------------------*/
FoamFile
{
    version     2.0;
    format      ascii;
    class       volScalarField;
    location    "3.7";
    object      p;
}
// * * * * * * * * * * * * * * * * * * * * * * * * * * * * * * * * * * * * * //

dimensions      [1 -1 -2 0 0 0 0];

internalField   nonuniform List<scalar> 
4116
(
2.57373
2.55842
2.55062
2.5481
2.54792
2.54942
2.55356
2.55715
2.55251
2.53961
2.52469
2.50777
2.48449
2.45642
2.44306
2.44138
2.44791
2.4554
2.46753
2.48752
2.50328
2.50519
2.49925
2.48795
2.46661
2.4353
2.40289
2.37772
2.36173
2.35286
2.35232
2.37141
2.40114
2.42219
2.43109
2.43035
2.42434
2.41899
2.41535
2.40793
2.39394
2.3773
2.36657
2.35096
2.3555
2.48902
2.81034
3.34301
3.82206
4.11308
4.2389
4.34451
4.46923
4.50079
4.53051
4.51469
4.48277
4.46959
4.45355
4.44718
4.44103
4.43097
4.41212
4.39231
4.38373
4.38364
4.38429
4.38668
4.38772
4.38471
4.378
4.36873
4.35724
4.34541
4.33524
4.32644
4.31719
4.3075
4.29642
4.28367
4.26903
4.25594
4.24834
4.2427
4.23878
4.23682
4.23575
4.23609
4.24028
4.24522
4.24854
4.24933
4.24829
4.24604
4.2413
4.23464
4.22747
4.21903
4.2079
4.19064
4.16248
4.12212
4.08266
4.0637
4.05783
4.05522
4.06322
4.08761
4.11792
4.14222
4.1594
4.17119
4.17563
4.1733
4.16811
4.16076
4.15132
4.14003
4.12759
4.11501
4.10307
4.09456
4.09635
4.09637
4.08811
4.08315
4.0787
4.06709
4.04653
4.0353
4.03424
4.0372
4.04307
4.05206
4.06633
4.0824
4.08647
4.07572
4.05235
4.00405
3.93193
3.88325
3.86784
3.86069
3.85451
3.8535
3.87663
2.58179
2.57179
2.55962
2.54713
2.53785
2.53061
2.52391
2.51914
2.52033
2.52382
2.5226
2.51591
2.50685
2.49273
2.47282
2.45593
2.4496
2.44779
2.4506
2.46301
2.48374
2.49598
2.49322
2.48295
2.45891
2.41362
2.37335
2.35845
2.35353
2.35255
2.36355
2.39106
2.42229
2.43935
2.44334
2.4388
2.42983
2.42239
2.41325
2.40073
2.39177
2.38937
2.37586
2.45862
2.7413
3.28743
3.74691
4.12009
4.20109
4.33721
4.36719
4.40955
4.48433
4.50313
4.50185
4.49418
4.49041
4.48869
4.47863
4.46168
4.44076
4.41327
4.37993
4.35707
4.35033
4.34671
4.34913
4.36026
4.3703
4.37389
4.37255
4.3692
4.3645
4.35787
4.34972
4.33977
4.32741
4.31088
4.28973
4.26832
4.25234
4.24329
4.23682
4.23217
4.23107
4.23467
4.24204
4.25277
4.26471
4.27323
4.27743
4.27724
4.2717
4.26186
4.2487
4.23135
4.21427
4.19809
4.17936
4.15443
4.12266
4.09258
4.0775
4.07239
4.07051
4.07559
4.09082
4.11268
4.13297
4.14871
4.16351
4.17943
4.19174
4.19317
4.18598
4.17591
4.16261
4.14263
4.11634
4.08973
4.06899
4.05897
4.06266
4.0846
4.10488
4.11149
4.11201
4.10918
4.09895
4.08072
4.07209
4.06862
4.06531
4.06097
4.05794
4.05746
4.04902
4.03005
3.9985
3.95378
3.91431
3.89704
3.88796
3.88154
3.87948
3.88702
3.91712
2.58934
2.5816
2.56583
2.54282
2.51936
2.50306
2.49343
2.48949
2.49186
2.50701
2.52277
2.52832
2.52929
2.52283
2.50729
2.47747
2.45027
2.44195
2.43925
2.44096
2.45126
2.46355
2.46326
2.4526
2.43039
2.40104
2.38054
2.37096
2.36645
2.36698
2.38281
2.41461
2.43938
2.44884
2.44764
2.43947
2.429
2.41806
2.40718
2.40296
2.38427
2.42268
2.67631
3.14762
3.72111
4.0899
4.22946
4.33293
4.31687
4.35073
4.3833
4.41941
4.46674
4.49063
4.49554
4.49816
4.49457
4.48447
4.47226
4.45664
4.4315
4.39197
4.34992
4.3298
4.32149
4.32283
4.33775
4.35588
4.36809
4.37561
4.38134
4.38355
4.37982
4.37272
4.36146
4.34372
4.31831
4.2878
4.25888
4.23938
4.22964
4.22343
4.22107
4.22719
4.23964
4.2528
4.26682
4.28257
4.29615
4.30487
4.30631
4.29974
4.28799
4.26589
4.23452
4.204
4.18099
4.16137
4.14108
4.12056
4.10407
4.0953
4.09153
4.09306
4.09993
4.1124
4.12867
4.14326
4.15356
4.16017
4.16714
4.17906
4.19411
4.19957
4.19134
4.17986
4.16335
4.13537
4.09819
4.06744
4.05229
4.04661
4.05412
4.08762
4.12272
4.13591
4.13707
4.13528
4.1291
4.11217
4.09184
4.08034
4.07019
4.0572
4.04235
4.02576
4.00553
3.98009
3.95131
3.92902
3.91914
3.9127
3.90793
3.90787
3.91475
3.9312
3.9589
2.58678
2.58041
2.56372
2.53229
2.50263
2.48729
2.48099
2.4783
2.47986
2.49461
2.52649
2.54689
2.5476
2.54119
2.52872
2.50215
2.46391
2.43876
2.42875
2.42389
2.41993
2.41637
2.41723
2.41898
2.41403
2.40769
2.39908
2.39051
2.38737
2.39457
2.41501
2.43236
2.44112
2.44401
2.43894
2.4285
2.41792
2.41472
2.39707
2.41728
2.57933
2.98832
3.59221
4.01395
4.28459
4.31767
4.32986
4.32898
4.32161
4.35397
4.4211
4.47326
4.47966
4.48221
4.48477
4.48426
4.48082
4.47781
4.46939
4.44785
4.40656
4.3552
4.32263
4.31067
4.31094
4.33022
4.35258
4.36683
4.37515
4.38425
4.39159
4.39094
4.38705
4.37831
4.35913
4.32676
4.28714
4.25154
4.22684
4.2135
4.20679
4.209
4.2267
4.25273
4.27446
4.29086
4.306
4.31996
4.33062
4.3329
4.32582
4.31125
4.28032
4.23407
4.19041
4.16052
4.13978
4.12429
4.11498
4.11167
4.11303
4.11671
4.12091
4.12711
4.1368
4.14979
4.16255
4.1703
4.17162
4.16952
4.16729
4.16889
4.17755
4.18493
4.17846
4.16507
4.14559
4.11714
4.08745
4.0695
4.06156
4.05902
4.07076
4.10089
4.13024
4.14555
4.14989
4.14712
4.13827
4.12243
4.1025
4.08385
4.06585
4.04696
4.02506
3.99849
3.97079
3.94956
3.93779
3.93146
3.92936
3.92877
3.93024
3.93781
3.95252
3.97222
3.98647
2.57621
2.57006
2.55246
2.52382
2.49981
2.48544
2.47926
2.47632
2.47856
2.49178
2.51468
2.53755
2.54382
2.53997
2.53009
2.51357
2.48192
2.44057
2.41174
2.39385
2.38147
2.37483
2.37533
2.38666
2.40376
2.4116
2.41479
2.42
2.42756
2.43413
2.43678
2.4345
2.43109
2.4277
2.42152
2.41589
2.40893
2.41658
2.50073
2.83449
3.39066
3.94237
4.23715
4.34317
4.37683
4.33328
4.33137
4.33877
4.37419
4.44595
4.4847
4.49361
4.48193
4.47105
4.47112
4.4738
4.47066
4.46191
4.43861
4.39199
4.33635
4.30799
4.30238
4.31281
4.3334
4.35412
4.36826
4.37631
4.38347
4.39175
4.39539
4.39439
4.3897
4.37303
4.33618
4.28544
4.2403
4.21022
4.19476
4.18891
4.19512
4.22424
4.26464
4.29635
4.3168
4.33164
4.34343
4.35128
4.351
4.34282
4.3254
4.28758
4.22945
4.1766
4.14594
4.12894
4.11836
4.11349
4.11669
4.12919
4.14297
4.15251
4.15875
4.16487
4.17279
4.18277
4.19093
4.19064
4.18196
4.17208
4.16281
4.15591
4.15475
4.15826
4.15565
4.14444
4.1287
4.11033
4.09656
4.08928
4.08546
4.08782
4.09911
4.11391
4.12566
4.13252
4.13411
4.12866
4.11943
4.10726
4.09282
4.07619
4.0559
4.03133
4.00423
3.97822
3.95876
3.94791
3.94156
3.94276
3.9473
3.95192
3.95908
3.97041
3.98349
3.99558
3.99306
2.55796
2.55004
2.53445
2.51732
2.50299
2.49114
2.48397
2.48157
2.48603
2.49701
2.50608
2.51718
2.528
2.52812
2.52259
2.51041
2.48799
2.4477
2.4006
2.37093
2.35747
2.3532
2.35227
2.36203
2.39093
2.42299
2.44649
2.46041
2.46334
2.45687
2.44306
2.42618
2.41592
2.4089
2.41119
2.40801
2.45002
2.67452
3.15879
3.77955
4.15025
4.36387
4.37925
4.35616
4.34754
4.3359
4.35527
4.39909
4.46965
4.50827
4.5115
4.5046
4.48796
4.47201
4.46438
4.45696
4.44028
4.40521
4.35471
4.31314
4.30075
4.30656
4.32786
4.35409
4.37346
4.3833
4.38895
4.39477
4.40174
4.40481
4.4028
4.39458
4.37304
4.33117
4.27385
4.22218
4.19354
4.18514
4.18765
4.20431
4.2325
4.27155
4.31047
4.33711
4.35317
4.36336
4.36821
4.36555
4.35665
4.33611
4.29551
4.23417
4.17552
4.14376
4.13061
4.12406
4.12142
4.12603
4.14147
4.1606
4.17571
4.18475
4.18982
4.1929
4.19766
4.20473
4.20587
4.1976
4.18647
4.17228
4.15672
4.1455
4.13679
4.13085
4.12868
4.1242
4.1172
4.11197
4.10898
4.11007
4.11613
4.12444
4.12875
4.12522
4.11705
4.10515
4.09291
4.08567
4.08444
4.08356
4.07339
4.0596
4.04337
4.02222
3.99888
3.9825
3.97247
3.96449
3.95992
3.96525
3.97607
3.98574
3.99345
3.99863
3.99996
3.99515
3.98237
2.53803
2.52855
2.51678
2.50978
2.50546
2.50044
2.4949
2.49402
2.49749
2.49698
2.49487
2.49612
2.50202
2.50806
2.50571
2.49796
2.48267
2.45651
2.41347
2.37297
2.3562
2.35055
2.34896
2.35631
2.38973
2.44357
2.47034
2.47175
2.46741
2.46013
2.44301
2.4168
2.40824
2.40154
2.41676
2.52251
2.90459
3.52004
4.05424
4.32872
4.40462
4.39704
4.34683
4.33422
4.34726
4.36731
4.42325
4.49356
4.52228
4.52731
4.52091
4.50859
4.49057
4.46969
4.44475
4.40808
4.36068
4.31485
4.29385
4.2945
4.3104
4.33509
4.36547
4.39427
4.41482
4.42372
4.42558
4.42448
4.4204
4.4105
4.39169
4.35731
4.3052
4.24844
4.21144
4.19938
4.19829
4.20562
4.22006
4.24513
4.28153
4.31775
4.34235
4.36044
4.37075
4.37295
4.36785
4.35617
4.33307
4.29123
4.23233
4.17729
4.14815
4.13844
4.13474
4.13481
4.14298
4.15859
4.17547
4.18731
4.19494
4.20004
4.20323
4.20682
4.21406
4.22096
4.21792
4.20921
4.1979
4.17984
4.15589
4.13411
4.11737
4.1069
4.1035
4.10873
4.11925
4.12838
4.13729
4.14783
4.15661
4.15694
4.1482
4.12934
4.09651
4.06224
4.0432
4.03756
4.04599
4.0579
4.0581
4.04932
4.0394
4.02617
4.0093
3.99624
3.98686
3.97805
3.97636
3.99294
4.01542
4.02677
4.02796
4.02117
4.00979
3.99341
3.95514
2.51834
2.51265
2.50962
2.50722
2.50633
2.50878
2.50968
2.50559
2.49825
2.48822
2.47922
2.47463
2.47307
2.4766
2.48228
2.47934
2.47135
2.45719
2.43188
2.39506
2.36607
2.35692
2.35593
2.3653
2.39236
2.42593
2.45492
2.4647
2.46158
2.4544
2.43879
2.41811
2.41054
2.4547
2.68946
3.19826
3.85938
4.22229
4.40397
4.43005
4.40631
4.36329
4.34407
4.3443
4.37245
4.4357
4.5013
4.52565
4.53003
4.52423
4.51469
4.50053
4.47772
4.43938
4.38432
4.3273
4.29311
4.28631
4.29234
4.30845
4.33688
4.37588
4.41585
4.44338
4.45169
4.45168
4.44717
4.43665
4.41651
4.38015
4.32814
4.27188
4.23261
4.21924
4.2166
4.21781
4.22378
4.23867
4.2664
4.30559
4.33271
4.34
4.34569
4.35409
4.3581
4.35147
4.33773
4.31389
4.27749
4.23551
4.20152
4.18159
4.17251
4.16991
4.16968
4.17164
4.18094
4.19369
4.19966
4.19961
4.19761
4.19848
4.20552
4.21806
4.23073
4.23432
4.22777
4.21767
4.19972
4.17005
4.13635
4.11143
4.0992
4.09513
4.10153
4.12286
4.14639
4.16291
4.17237
4.17581
4.1711
4.15872
4.13274
4.0903
4.04371
4.01545
4.00613
4.00873
4.02894
4.04913
4.05407
4.04982
4.04175
4.02756
4.00955
3.99673
3.98879
3.98868
4.00859
4.04234
4.06374
4.06526
4.05683
4.04064
4.0138
3.97237
3.89719
2.50983
2.50603
2.50467
2.5083
2.51608
2.5215
2.51795
2.5101
2.49784
2.47988
2.4633
2.45498
2.45064
2.44962
2.45511
2.46065
2.45752
2.45121
2.44022
2.42124
2.39507
2.37539
2.37212
2.37926
2.39236
2.406
2.42489
2.44321
2.4467
2.44497
2.43415
2.4576
2.58589
2.9756
3.60252
4.13239
4.40422
4.44091
4.42965
4.39824
4.37138
4.36135
4.35697
4.37258
4.43352
4.49263
4.51441
4.51763
4.51189
4.50325
4.49208
4.47388
4.43939
4.38266
4.32427
4.29582
4.29135
4.29528
4.30905
4.33929
4.38433
4.43251
4.45672
4.46276
4.46268
4.4577
4.44495
4.4153
4.36369
4.30273
4.25775
4.24062
4.23637
4.23407
4.23572
4.24464
4.26201
4.29106
4.32718
4.34423
4.34275
4.33448
4.32317
4.31795
4.31495
4.30596
4.28903
4.26774
4.2489
4.23575
4.22365
4.21164
4.20494
4.20354
4.20644
4.21376
4.2163
4.21284
4.20614
4.19743
4.19125
4.19167
4.20555
4.2279
4.23915
4.2354
4.22591
4.20829
4.17768
4.14401
4.1254
4.11996
4.11904
4.1233
4.13579
4.15895
4.17737
4.18372
4.18081
4.17067
4.14972
4.1156
4.07435
4.04254
4.02902
4.02358
4.02102
4.02438
4.03832
4.05077
4.0515
4.04477
4.03127
4.01223
3.99897
3.99409
3.99936
4.02136
4.05867
4.09352
4.10129
4.09496
4.07997
4.04752
3.99246
3.91666
3.83509
2.50854
2.50515
2.50388
2.50793
2.51649
2.5182
2.51334
2.50603
2.49402
2.47457
2.45292
2.43997
2.43414
2.43053
2.42945
2.4353
2.44623
2.44714
2.44451
2.43966
2.43016
2.41176
2.39356
2.39017
2.38982
2.39081
2.39501
2.40636
2.42953
2.44156
2.52286
2.83863
3.37756
4.0062
4.38867
4.5258
4.50918
4.46862
4.43044
4.39524
4.37791
4.37828
4.39461
4.43481
4.46729
4.48236
4.48933
4.48848
4.48145
4.47133
4.45375
4.42128
4.3731
4.32909
4.31122
4.3078
4.30983
4.32328
4.35357
4.3985
4.43774
4.45129
4.45772
4.45783
4.45166
4.4348
4.39981
4.34781
4.29551
4.26645
4.25841
4.25483
4.25286
4.25639
4.26692
4.28718
4.31766
4.34446
4.35192
4.34758
4.3342
4.30927
4.28597
4.27288
4.26692
4.26534
4.26301
4.26048
4.25801
4.25434
4.24982
4.24659
4.24448
4.24339
4.24033
4.23336
4.22478
4.211
4.19531
4.18593
4.182
4.18801
4.20693
4.22751
4.23085
4.22383
4.2097
4.18702
4.16439
4.15263
4.14738
4.14535
4.14855
4.16209
4.17965
4.18523
4.1827
4.17434
4.15693
4.1292
4.09461
4.06664
4.05477
4.05065
4.04825
4.04863
4.05343
4.05566
4.05172
4.04564
4.03528
4.02001
4.00523
3.99787
3.99687
4.00541
4.02585
4.06324
4.10571
4.12038
4.11691
4.10534
4.07873
4.01641
3.92486
3.84527
3.80492
2.51264
2.50865
2.50722
2.51064
2.51354
2.51074
2.50509
2.49803
2.48665
2.46656
2.44173
2.42472
2.41696
2.41209
2.40881
2.41112
2.42627
2.44449
2.45286
2.45439
2.45296
2.44499
2.42371
2.39461
2.38142
2.37722
2.3788
2.38854
2.42827
2.6188
3.1089
3.81451
4.2823
4.52745
4.54735
4.54675
4.51402
4.46412
4.43031
4.4147
4.41079
4.42088
4.44088
4.4533
4.45674
4.45285
4.44967
4.44557
4.43605
4.41812
4.38823
4.35162
4.32914
4.32408
4.327
4.33749
4.35853
4.3896
4.42244
4.44173
4.4445
4.44367
4.43861
4.42545
4.40039
4.36074
4.31614
4.2904
4.28442
4.28209
4.27989
4.28006
4.28439
4.29543
4.31477
4.33997
4.35606
4.35838
4.35025
4.3308
4.29891
4.26833
4.25301
4.24705
4.24576
4.2515
4.26339
4.27253
4.2754
4.2776
4.28074
4.28271
4.2805
4.26957
4.25256
4.23405
4.2135
4.1954
4.18561
4.18151
4.18557
4.19636
4.20862
4.21281
4.20896
4.20153
4.19124
4.18194
4.17638
4.17232
4.17095
4.17501
4.18672
4.19505
4.19321
4.18486
4.16325
4.13233
4.10217
4.08169
4.07198
4.06938
4.06928
4.07063
4.07759
4.08432
4.08068
4.06856
4.04832
4.02321
4.00254
3.99335
3.99147
3.99755
4.00977
4.02935
4.06369
4.1029
4.11939
4.11901
4.10962
4.08917
4.03715
3.94637
3.86927
3.83797
3.8233
2.51975
2.51551
2.51083
2.50723
2.50412
2.50014
2.49491
2.4878
2.47553
2.45548
2.43267
2.41606
2.40786
2.40327
2.40015
2.39985
2.41171
2.44327
2.46285
2.46883
2.4687
2.46361
2.44727
2.40853
2.37701
2.37114
2.3748
2.43185
2.74358
3.35575
4.01173
4.39878
4.57338
4.61728
4.60675
4.57854
4.54811
4.50562
4.4782
4.46516
4.45693
4.45218
4.44497
4.43632
4.42919
4.42201
4.41122
4.39474
4.37146
4.34223
4.32117
4.31673
4.32197
4.33351
4.35922
4.40236
4.44771
4.4693
4.46631
4.45115
4.43725
4.42097
4.39515
4.35566
4.31067
4.28389
4.27849
4.28203
4.29046
4.30045
4.30946
4.31815
4.3287
4.34241
4.35675
4.36483
4.36659
4.35683
4.33592
4.30186
4.27169
4.25967
4.25545
4.25303
4.2541
4.26072
4.27332
4.28743
4.29982
4.30904
4.31376
4.31067
4.29492
4.26968
4.24088
4.21606
4.20026
4.19138
4.18622
4.18822
4.19654
4.20626
4.20578
4.19936
4.1919
4.18751
4.1872
4.18936
4.19067
4.19479
4.20232
4.20685
4.20463
4.19909
4.18348
4.15051
4.11066
4.08354
4.07283
4.07157
4.0784
4.08598
4.09669
4.10882
4.11115
4.10317
4.08616
4.05507
4.01629
3.99195
3.98486
3.98352
3.99097
4.00864
4.03397
4.06985
4.10193
4.11081
4.10684
4.09625
4.07581
4.03565
3.96983
3.90344
3.8723
3.85797
3.84718
2.52165
2.51726
2.51068
2.50266
2.49545
2.4901
2.48396
2.4747
2.46027
2.44263
2.42585
2.41239
2.40557
2.40193
2.39853
2.39778
2.40619
2.42762
2.46207
2.47717
2.4749
2.46947
2.45634
2.42655
2.38272
2.3939
2.52539
2.93709
3.64983
4.13453
4.37003
4.4837
4.59248
4.62109
4.61724
4.61437
4.6066
4.58355
4.55083
4.511
4.47556
4.45287
4.43368
4.41214
4.39399
4.37738
4.35449
4.32527
4.30265
4.29487
4.29763
4.30723
4.3273
4.37242
4.43845
4.49291
4.50683
4.49982
4.48097
4.45299
4.41328
4.36448
4.3114
4.2714
4.25771
4.2575
4.26614
4.28414
4.30869
4.33144
4.34644
4.35692
4.36529
4.37072
4.37232
4.37095
4.36155
4.34498
4.31896
4.29191
4.27602
4.27014
4.2671
4.26628
4.26873
4.27725
4.29228
4.3099
4.32179
4.32488
4.32191
4.31102
4.28322
4.24249
4.21424
4.20388
4.19824
4.19575
4.19741
4.20394
4.21185
4.2101
4.20298
4.19406
4.18913
4.1872
4.18934
4.19642
4.2088
4.21859
4.21887
4.21466
4.20595
4.18099
4.13824
4.09949
4.08282
4.0761
4.0751
4.08167
4.09835
4.12187
4.1367
4.13401
4.12445
4.10513
4.06753
4.02316
3.99892
3.99077
3.98742
3.98826
4.00095
4.03155
4.07533
4.10045
4.10524
4.10025
4.08673
4.06035
4.02079
3.97263
3.92899
3.89913
3.88535
3.88009
3.87341
2.52136
2.51694
2.5091
2.49932
2.49064
2.48202
2.47117
2.45764
2.44374
2.43099
2.41942
2.40996
2.40614
2.4039
2.40095
2.39996
2.40582
2.42245
2.44379
2.46262
2.4704
2.46501
2.45558
2.44915
2.50119
2.77105
3.31839
3.94697
4.32505
4.39286
4.43414
4.45825
4.53521
4.59381
4.6134
4.63051
4.63916
4.62852
4.59685
4.54871
4.49678
4.45173
4.41929
4.38995
4.35803
4.32204
4.28882
4.27209
4.26709
4.27137
4.28779
4.31871
4.37611
4.453
4.50585
4.51479
4.51119
4.50179
4.47763
4.4248
4.35043
4.28792
4.26014
4.2523
4.25028
4.25301
4.2676
4.30065
4.33435
4.35393
4.36414
4.37052
4.37513
4.37721
4.37357
4.36365
4.34879
4.33339
4.32188
4.31034
4.2982
4.29106
4.28776
4.28728
4.29029
4.30076
4.31749
4.32817
4.32984
4.32834
4.3193
4.29161
4.24552
4.21422
4.20615
4.20252
4.2017
4.20417
4.21266
4.22493
4.22634
4.21986
4.20871
4.20002
4.19625
4.19435
4.19815
4.20956
4.21719
4.21882
4.21529
4.20687
4.1819
4.13676
4.10182
4.08964
4.08343
4.0803
4.0856
4.10649
4.14033
4.15586
4.15228
4.14451
4.12629
4.08578
4.03831
4.01675
4.00679
4.00023
3.99774
4.00351
4.02573
4.0625
4.08515
4.09294
4.08768
4.07349
4.0477
4.01141
3.97544
3.94615
3.92074
3.90365
3.89682
3.89497
3.89557
2.51203
2.51071
2.50469
2.4972
2.48697
2.47259
2.45508
2.44278
2.43442
2.42515
2.41521
2.40894
2.40705
2.40572
2.40541
2.40732
2.41354
2.4204
2.42612
2.43572
2.45712
2.45523
2.50223
2.71067
3.16213
3.8581
4.22507
4.44343
4.45232
4.44872
4.46369
4.47186
4.50459
4.5833
4.63784
4.64763
4.64367
4.63234
4.60276
4.55791
4.51261
4.46747
4.41617
4.36741
4.31799
4.28117
4.26734
4.26208
4.25947
4.26712
4.29884
4.36675
4.45127
4.49549
4.5048
4.50756
4.50299
4.48664
4.44219
4.36601
4.298
4.26871
4.25595
4.2508
4.25259
4.26338
4.28467
4.30271
4.3171
4.33609
4.35638
4.37009
4.37662
4.37375
4.36509
4.35531
4.34693
4.34039
4.33542
4.33027
4.32392
4.31811
4.31427
4.31336
4.31643
4.32522
4.33214
4.33324
4.33166
4.32234
4.29692
4.25317
4.22104
4.21209
4.20837
4.20587
4.2071
4.21655
4.2341
4.2432
4.23953
4.23145
4.21829
4.2102
4.20681
4.20546
4.20868
4.21466
4.21489
4.20997
4.20049
4.18011
4.14614
4.11773
4.10353
4.09565
4.09032
4.09239
4.1096
4.14072
4.15727
4.15866
4.15233
4.13584
4.10183
4.0659
4.05023
4.03941
4.0302
4.02448
4.0267
4.041
4.05768
4.06297
4.0629
4.05869
4.04872
4.03163
4.01002
3.99071
3.97343
3.95164
3.9254
3.90984
3.90755
3.90995
3.92019
2.50266
2.50529
2.50076
2.49327
2.48129
2.46085
2.44211
2.43495
2.42963
2.4224
2.41492
2.41245
2.4115
2.41147
2.41357
2.41408
2.41238
2.41229
2.41417
2.42549
2.44587
2.5534
2.95599
3.59276
4.20062
4.53443
4.60766
4.61192
4.56309
4.5043
4.47312
4.47886
4.49284
4.53374
4.58985
4.61989
4.62812
4.62101
4.59452
4.55181
4.51157
4.47453
4.42475
4.35643
4.30374
4.27729
4.26778
4.26352
4.26651
4.29282
4.35542
4.43024
4.46348
4.4755
4.48108
4.4786
4.46333
4.42493
4.3675
4.32666
4.31015
4.29369
4.27862
4.2718
4.27679
4.2889
4.29615
4.29825
4.30207
4.31295
4.33314
4.35563
4.36827
4.36925
4.36451
4.35999
4.35694
4.35465
4.35139
4.34776
4.34449
4.34222
4.34086
4.34097
4.34214
4.342
4.33991
4.33481
4.32277
4.29868
4.26299
4.23374
4.22118
4.21694
4.21407
4.21306
4.21937
4.23646
4.25289
4.25218
4.24632
4.23731
4.22524
4.21735
4.21323
4.21122
4.21143
4.20771
4.20052
4.18925
4.17255
4.15153
4.1334
4.11986
4.1132
4.10937
4.11336
4.1283
4.14571
4.1458
4.1414
4.13343
4.11663
4.09211
4.07609
4.07161
4.06915
4.06965
4.07413
4.07769
4.07589
4.0696
4.06122
4.04866
4.03174
4.01683
4.00635
4.00057
3.99544
3.98806
3.97873
3.965
3.94353
3.92555
3.91955
3.92058
3.92942
2.49304
2.49578
2.49156
2.48459
2.47332
2.45275
2.43581
2.42995
2.42583
2.42151
2.41883
2.41752
2.41703
2.41676
2.41417
2.41064
2.40658
2.40772
2.41044
2.4465
2.65512
3.18158
3.93987
4.36823
4.56768
4.59665
4.61645
4.62835
4.603
4.54643
4.501
4.48355
4.48597
4.50933
4.54595
4.56395
4.57379
4.57769
4.56407
4.53661
4.50333
4.46937
4.43276
4.38603
4.33481
4.30301
4.29095
4.28872
4.30697
4.35856
4.41683
4.43838
4.44291
4.44235
4.43625
4.41847
4.38248
4.34109
4.32472
4.32321
4.32309
4.32512
4.32282
4.31478
4.30312
4.29343
4.29058
4.2903
4.29066
4.29617
4.30932
4.32811
4.34793
4.36309
4.36902
4.37126
4.37166
4.36868
4.36396
4.36051
4.35919
4.35984
4.36161
4.36229
4.36124
4.35552
4.34489
4.3273
4.30166
4.27199
4.24821
4.2338
4.22885
4.22724
4.22681
4.23057
4.24079
4.25112
4.25179
4.24772
4.24215
4.23438
4.22573
4.21997
4.21521
4.20989
4.20288
4.19446
4.18487
4.17396
4.16202
4.1481
4.13493
4.12991
4.12975
4.13698
4.14997
4.15557
4.14916
4.13872
4.11677
4.0862
4.06432
4.05912
4.06496
4.07648
4.09113
4.11168
4.12906
4.12913
4.11736
4.09106
4.05383
4.025
4.00429
3.99105
3.98416
3.98114
3.98451
3.98685
3.98404
3.97763
3.96455
3.94645
3.93571
3.93276
3.92575
2.48796
2.48733
2.48251
2.47561
2.46489
2.44781
2.43333
2.42769
2.42423
2.42357
2.42454
2.42166
2.41917
2.4151
2.40886
2.40667
2.40313
2.41503
2.50342
2.87326
3.52465
4.13617
4.45688
4.58189
4.66574
4.64095
4.62817
4.63979
4.6326
4.60404
4.56104
4.51597
4.49622
4.50654
4.5234
4.5245
4.51708
4.51136
4.5062
4.4959
4.47839
4.45449
4.42715
4.40086
4.37426
4.35318
4.34276
4.34907
4.38078
4.42012
4.43157
4.42642
4.41685
4.39822
4.36476
4.32423
4.30302
4.3031
4.31242
4.32514
4.34532
4.36219
4.36558
4.3566
4.33085
4.29987
4.28904
4.28763
4.28738
4.29064
4.29813
4.30921
4.3248
4.34611
4.36845
4.37747
4.37627
4.37279
4.36993
4.36865
4.36886
4.37267
4.37435
4.37352
4.37038
4.36145
4.34346
4.31528
4.28706
4.26666
4.25069
4.24417
4.24348
4.24411
4.24637
4.24981
4.2531
4.25279
4.24775
4.24046
4.23006
4.21997
4.21465
4.21244
4.20949
4.20475
4.19954
4.19285
4.18494
4.17527
4.16342
4.15387
4.14993
4.15147
4.15821
4.16434
4.16005
4.15102
4.1348
4.10292
4.06268
4.04043
4.03564
4.03973
4.05874
4.09045
4.12822
4.15212
4.15472
4.14918
4.13839
4.11447
4.07451
4.03339
4.00673
3.99125
3.98151
3.977
3.97673
3.98275
3.98833
3.98918
3.98258
3.96568
3.94688
3.93451
3.9191
2.47987
2.47537
2.47049
2.46327
2.4542
2.44279
2.43248
2.42734
2.4246
2.42503
2.42235
2.41827
2.41482
2.40968
2.40655
2.40642
2.43921
2.64149
3.15892
3.89251
4.35929
4.49157
4.49802
4.56308
4.63899
4.67016
4.68133
4.68455
4.67431
4.65229
4.62529
4.59476
4.5564
4.52398
4.50364
4.48805
4.46472
4.44387
4.43432
4.43151
4.43204
4.4293
4.42425
4.41935
4.41691
4.41975
4.4301
4.44494
4.45089
4.43975
4.4262
4.41034
4.3817
4.33175
4.2779
4.25619
4.25719
4.27686
4.31013
4.35062
4.37988
4.38722
4.38647
4.37982
4.35992
4.3256
4.29699
4.28959
4.28857
4.29149
4.29684
4.30257
4.31177
4.32663
4.3462
4.36334
4.3703
4.37104
4.37088
4.37175
4.37668
4.38169
4.38099
4.37885
4.37292
4.35848
4.33501
4.31238
4.29415
4.27811
4.26936
4.26426
4.2601
4.25715
4.25426
4.25314
4.25203
4.24611
4.23655
4.22284
4.20958
4.20285
4.1999
4.20097
4.20589
4.20545
4.20256
4.19875
4.19244
4.18453
4.17866
4.17706
4.17955
4.18013
4.17346
4.16327
4.15084
4.12973
4.09438
4.05753
4.03962
4.03274
4.03012
4.03497
4.06328
4.11496
4.14802
4.15913
4.15906
4.15395
4.1442
4.12584
4.10295
4.07479
4.04026
4.00779
3.98929
3.98064
3.97712
3.97794
3.9802
3.97886
3.97313
3.96173
3.94511
3.9261
3.89245
2.47605
2.4662
2.45651
2.44868
2.44202
2.43658
2.43229
2.42778
2.42383
2.42064
2.41645
2.41185
2.40969
2.40662
2.41584
2.50049
2.85711
3.52481
4.15806
4.49886
4.60714
4.59806
4.54245
4.54572
4.58354
4.63169
4.67345
4.69514
4.68905
4.67636
4.67224
4.66721
4.62969
4.55988
4.49395
4.45226
4.42257
4.39584
4.37586
4.36837
4.37313
4.38968
4.41078
4.43087
4.4529
4.48274
4.51022
4.5174
4.50141
4.46804
4.42605
4.37907
4.31775
4.26073
4.2405
4.23703
4.24185
4.26594
4.32171
4.3733
4.38848
4.38826
4.38657
4.38289
4.37472
4.35921
4.33376
4.30881
4.29971
4.2985
4.30057
4.3036
4.30745
4.31373
4.32301
4.33514
4.34792
4.35878
4.36729
4.37537
4.3826
4.38449
4.38377
4.37943
4.36788
4.35195
4.33638
4.32167
4.3101
4.3032
4.29623
4.2839
4.26719
4.2559
4.25044
4.24572
4.23787
4.2257
4.21116
4.19951
4.19428
4.19282
4.19419
4.19877
4.20461
4.20743
4.20693
4.20597
4.20488
4.20451
4.20488
4.20324
4.19691
4.18692
4.17451
4.15643
4.12631
4.08834
4.05948
4.04475
4.03654
4.03285
4.03417
4.04896
4.07602
4.1
4.11798
4.13203
4.14181
4.14395
4.14165
4.13711
4.13018
4.11883
4.09814
4.06332
4.02182
3.99473
3.98164
3.97602
3.97056
3.96093
3.94811
3.9327
3.91426
3.88786
3.85785
2.48577
2.47083
2.44931
2.43788
2.43255
2.42975
2.42858
2.42518
2.41994
2.41406
2.40836
2.40675
2.40848
2.43732
2.62799
3.1467
3.95252
4.34754
4.51068
4.54853
4.58431
4.59414
4.56727
4.5539
4.56002
4.59175
4.63893
4.68049
4.70315
4.71158
4.71388
4.70715
4.67893
4.60245
4.49114
4.42797
4.39428
4.36386
4.33875
4.32972
4.33113
4.34757
4.38658
4.43911
4.49823
4.54429
4.55982
4.55233
4.53139
4.48961
4.42182
4.33237
4.26725
4.2451
4.23773
4.23563
4.24671
4.27954
4.3147
4.33936
4.36218
4.37791
4.38032
4.38057
4.38107
4.37843
4.36838
4.34665
4.32046
4.30763
4.30408
4.30255
4.30192
4.30126
4.30128
4.30535
4.31613
4.33695
4.36056
4.37814
4.38348
4.38364
4.38172
4.37668
4.36823
4.3573
4.34748
4.34121
4.33608
4.32695
4.31097
4.29042
4.26995
4.25482
4.24191
4.22757
4.21171
4.19919
4.1927
4.18987
4.1893
4.19018
4.19426
4.20189
4.21097
4.2175
4.22055
4.22282
4.22461
4.2234
4.21913
4.21217
4.20174
4.18698
4.16457
4.13079
4.09313
4.06762
4.05489
4.04764
4.04336
4.0455
4.05975
4.08231
4.0937
4.09146
4.08975
4.09265
4.10418
4.12146
4.13738
4.14685
4.15117
4.14962
4.14206
4.12384
4.08636
4.03678
3.99971
3.97539
3.95438
3.92951
3.90216
3.87647
3.85842
3.84634
3.84294
2.46182
2.45515
2.43767
2.42651
2.4223
2.4238
2.42824
2.42505
2.41768
2.41
2.40563
2.41222
2.48726
2.826
3.52819
4.18205
4.56898
4.64775
4.65122
4.60464
4.58665
4.59143
4.57967
4.56577
4.56033
4.57741
4.61391
4.67265
4.7246
4.73331
4.72137
4.70933
4.68658
4.63207
4.53365
4.42583
4.37073
4.34499
4.32745
4.31783
4.31688
4.32813
4.37439
4.46751
4.54226
4.56496
4.56366
4.55345
4.53424
4.48946
4.4038
4.3231
4.27838
4.25648
4.24883
4.2507
4.26979
4.29381
4.30465
4.31158
4.32402
4.34759
4.37272
4.38446
4.39089
4.39336
4.38936
4.3769
4.35339
4.32638
4.30986
4.30252
4.29528
4.28666
4.28165
4.28373
4.29658
4.32133
4.35543
4.37597
4.38046
4.38037
4.37845
4.37487
4.37175
4.36989
4.36567
4.35771
4.34543
4.33032
4.31274
4.29014
4.26332
4.23683
4.21736
4.20327
4.19371
4.18788
4.1845
4.18498
4.18772
4.19262
4.20215
4.21531
4.22593
4.23066
4.23221
4.23139
4.22795
4.22381
4.21867
4.21109
4.19849
4.17505
4.13803
4.10272
4.08415
4.07294
4.06468
4.0608
4.06526
4.08058
4.09474
4.09327
4.08655
4.07429
4.06365
4.06014
4.06495
4.08698
4.11961
4.14927
4.16876
4.17676
4.17751
4.17002
4.14864
4.09967
4.03133
3.97575
3.92833
3.88458
3.84873
3.82782
3.82051
3.8186
3.82814
2.43985
2.43062
2.41797
2.41193
2.40986
2.41421
2.41725
2.41421
2.41109
2.4093
2.43345
2.60426
3.11816
3.91393
4.48131
4.56743
4.61507
4.64065
4.64841
4.64307
4.62191
4.60813
4.58944
4.57467
4.56878
4.581
4.61281
4.65122
4.68784
4.71518
4.71453
4.69906
4.67423
4.63333
4.5668
4.4737
4.39098
4.34756
4.3299
4.3227
4.32239
4.33869
4.38485
4.44257
4.49187
4.52238
4.53585
4.532
4.50767
4.44989
4.38477
4.34748
4.31819
4.29301
4.2799
4.2806
4.28897
4.29518
4.29763
4.29975
4.30592
4.31993
4.34549
4.37453
4.38842
4.38922
4.38544
4.37782
4.36525
4.34378
4.31535
4.29113
4.27771
4.27185
4.27123
4.27807
4.29298
4.31729
4.34189
4.35954
4.36928
4.37248
4.37339
4.37585
4.38014
4.38253
4.37683
4.36081
4.3414
4.32158
4.29848
4.27205
4.25042
4.23454
4.21738
4.20042
4.18917
4.18318
4.17955
4.18024
4.18935
4.20543
4.22221
4.23342
4.23737
4.23713
4.23379
4.22849
4.22292
4.21708
4.20911
4.19701
4.17809
4.15098
4.12316
4.10286
4.08993
4.08338
4.08191
4.09051
4.10799
4.11606
4.11048
4.09741
4.07752
4.0594
4.05
4.04638
4.04775
4.0663
4.11113
4.16366
4.1925
4.20132
4.19924
4.19123
4.17491
4.13463
4.05312
3.94954
3.87979
3.84212
3.82179
3.80985
3.8042
3.80124
3.8134
2.32997
2.41258
2.4231
2.41917
2.41755
2.4158
2.41143
2.40999
2.41618
2.48528
2.80648
3.5095
4.23824
4.66059
4.74429
4.71555
4.65093
4.62809
4.64235
4.65017
4.6441
4.62233
4.6008
4.59006
4.58977
4.60917
4.63498
4.63875
4.6424
4.65818
4.67353
4.66881
4.65073
4.62203
4.57928
4.51478
4.44343
4.39438
4.36937
4.35815
4.35942
4.38166
4.41435
4.43845
4.4548
4.46768
4.47399
4.4667
4.43566
4.3957
4.37629
4.36701
4.35783
4.3486
4.33725
4.32259
4.30737
4.29839
4.29534
4.29567
4.30178
4.3113
4.32303
4.33989
4.35686
4.3673
4.36878
4.36423
4.35475
4.34365
4.3285
4.3098
4.2957
4.2888
4.28714
4.29216
4.30427
4.32176
4.3393
4.35194
4.35995
4.36565
4.37156
4.37881
4.38454
4.38211
4.36882
4.34724
4.31875
4.28979
4.26902
4.25859
4.25066
4.24089
4.22714
4.20992
4.19469
4.18606
4.18313
4.18877
4.20651
4.22844
4.23937
4.23892
4.23468
4.22964
4.22568
4.22009
4.21237
4.20166
4.1873
4.1701
4.15297
4.13827
4.124
4.1123
4.1058
4.10574
4.11566
4.13247
4.13859
4.13267
4.12206
4.10291
4.07704
4.05814
4.04966
4.04637
4.04927
4.06749
4.09562
4.12724
4.16054
4.18494
4.19216
4.18587
4.16842
4.12768
4.0592
3.97474
3.90046
3.85336
3.82605
3.81063
3.80345
3.79986
3.81393
2.00519
2.2376
2.31909
2.39017
2.40977
2.40431
2.40839
2.43914
2.61067
3.08205
3.8884
4.50098
4.70176
4.69398
4.70237
4.70136
4.68505
4.65841
4.64632
4.64682
4.64423
4.62713
4.61562
4.60796
4.62098
4.64632
4.64734
4.62865
4.60712
4.59678
4.60366
4.61361
4.61213
4.59731
4.56548
4.523
4.48376
4.45393
4.43258
4.42013
4.4208
4.43455
4.44591
4.44533
4.4398
4.42899
4.40593
4.37482
4.35676
4.35837
4.36807
4.37582
4.38377
4.38724
4.38082
4.36543
4.34197
4.31899
4.30806
4.30605
4.30925
4.31262
4.31349
4.31408
4.31583
4.32055
4.32738
4.33148
4.33172
4.32879
4.32366
4.31508
4.3092
4.30805
4.31182
4.32083
4.33114
4.33916
4.34518
4.35312
4.36225
4.36694
4.36947
4.36986
4.36822
4.36085
4.34194
4.30709
4.27091
4.25497
4.25123
4.25038
4.24972
4.24471
4.23679
4.22575
4.21401
4.20682
4.20745
4.21772
4.23166
4.23475
4.23186
4.2271
4.21994
4.21094
4.20268
4.19507
4.18696
4.17728
4.16668
4.1562
4.14545
4.13519
4.12869
4.12569
4.12875
4.13809
4.1497
4.15201
4.14641
4.13825
4.12542
4.10904
4.09269
4.08018
4.07148
4.06678
4.07004
4.08413
4.10234
4.11526
4.12611
4.13768
4.14506
4.14286
4.12641
4.09084
4.03609
3.98055
3.93297
3.89588
3.86827
3.84581
3.83099
3.82548
3.8484
1.41707
1.81718
2.15752
2.36613
2.36753
2.39523
2.50997
2.80944
3.42851
4.13929
4.67902
4.86015
4.82956
4.7481
4.67301
4.67307
4.68838
4.673
4.65176
4.64305
4.64116
4.64537
4.64639
4.65236
4.6674
4.66578
4.64942
4.62355
4.58498
4.55792
4.54919
4.54692
4.54464
4.53881
4.53377
4.52833
4.52543
4.5284
4.53283
4.52835
4.51111
4.48115
4.45283