/*--------------------------------*- C++ -*----------------------------------*\
  =========                 |
  \\      /  F ield         | OpenFOAM: The Open Source CFD Toolbox
   \\    /   O peration     | Website:  https://openfoam.org
    \\  /    A nd           | Version:  7
     \\/     M anipulation  |
\*---------------------------------------------------------------------------*/
FoamFile
{
    version     2.0;
    format      ascii;
    class       volVectorField;
    location    "6";
    object      U;
}
// * * * * * * * * * * * * * * * * * * * * * * * * * * * * * * * * * * * * * //

dimensions      [0 1 -1 0 0 0 0];

internalField   nonuniform List<vector> 
435
(
(0.839066 0.0050291 5.05854e-19)
(0.836357 0.0137383 1.90218e-18)
(0.885345 0.0191338 -5.37973e-20)
(0.882095 0.0290974 1.99257e-18)
(0.929964 0.0358801 1.67291e-19)
(1.00205 0.0507739 8.42192e-19)
(0.960168 0.032276 -9.93972e-20)
(0.916154 0.0160798 -5.75244e-19)
(0.870424 0.00251298 2.57299e-19)
(0.823409 -0.00811614 -5.31669e-19)
(1.09107 0.0813799 -2.6409e-19)
(1.05512 0.0622508 2.41326e-19)
(1.01654 0.0446681 9.90501e-19)
(0.975633 0.0289564 -8.04337e-19)
(0.932772 0.0154372 -2.55081e-20)
(0.888327 0.00439923 -4.64976e-20)
(0.842681 -0.00395714 1.75097e-19)
(0.796391 -0.00960928 9.41886e-19)
(1.1637 0.106647 -9.25696e-19)
(1.13411 0.0875555 -3.50347e-19)
(1.10155 0.0693347 -1.73396e-18)
(1.06625 0.052286 -4.55607e-19)
(1.02847 0.036723 2.25678e-19)
(0.988511 0.0229484 -1.04838e-18)
(0.946742 0.0112126 -1.03525e-18)
(0.903714 0.001645 7.70156e-19)
(0.860073 -0.00586567 -6.74537e-19)
(0.813699 -0.0117922 2.34411e-19)
(1.22052 0.128011 1.265e-18)
(1.19763 0.109899 -9.3432e-19)
(1.17171 0.0921076 2.59118e-19)
(1.14285 0.0748886 1.87017e-19)
(1.11122 0.0585189 -5.07467e-19)
(1.07704 0.0432825 1.76657e-19)
(1.04058 0.0294467 1.24531e-18)
(1.0023 0.0172226 -1.93187e-19)
(0.962728 0.0067101 1.63818e-18)
(0.919908 -0.00206386 3.57281e-19)
(0.872315 -0.00877291 -5.99087e-19)
(1.26213 0.145129 -8.17684e-19)
(1.24578 0.128696 -4.54165e-19)
(1.22654 0.112156 1.97008e-18)
(1.20441 0.0956966 5.29039e-19)
(1.17943 0.0795343 -4.33415e-19)
(1.15171 0.0639076 8.42605e-19)
(1.1214 0.0490645 -8.31196e-19)
(1.08882 0.0352492 -1.09315e-18)
(1.05439 0.0226888 -7.11868e-19)
(1.01637 0.0116976 -3.8926e-19)
(0.97316 0.00317022 1.45271e-18)
(1.28967 0.157264 -9.1891e-19)
(1.27921 0.142893 1.40749e-18)
(1.26617 0.128132 -5.0767e-19)
(1.25048 0.113099 -6.97101e-19)
(1.23209 0.0979454 1.66495e-18)
(1.21098 0.0828469 2.1634e-19)
(1.1872 0.0680088 2.85778e-19)
(1.16093 0.0536652 4.43602e-19)
(1.13247 0.040091 7.5733e-19)
(1.10032 0.027726 -7.26656e-20)
(1.06287 0.0177335 3.1341e-19)
(1.30517 0.164487 3.78733e-19)
(1.29964 0.152301 -3.45419e-19)
(1.29197 0.13958 1.54921e-19)
(1.28203 0.126383 -1.44306e-19)
(1.26969 0.112791 -3.3021e-19)
(1.25486 0.0989191 -3.79865e-19)
(1.2375 0.0849124 -9.86476e-19)
(1.21765 0.0709628 1.2528e-18)
(1.19553 0.0573279 2.07271e-19)
(1.16983 0.0444532 3.2063e-19)
(1.13903 0.0335455 -1.63759e-18)
(1.31106 0.167309 3.16528e-20)
(1.30937 0.15721 -4.11432e-19)
(1.30601 0.146546 -8.44242e-19)
(1.30083 0.135325 -1.37975e-19)
(1.29367 0.123575 -6.07368e-19)
(1.28439 0.111351 7.58839e-20)
(1.27287 0.0987393 1.17339e-18)
(1.25909 0.0858712 -2.01145e-19)
(1.24314 0.0729493 -6.62579e-19)
(1.22392 0.060351 -9.52157e-19)
(1.20009 0.0491664 9.0977e-19)
(1.30977 0.16648 -2.70411e-19)
(1.31084 0.158226 5.01178e-19)
(1.3107 0.149452 3.57989e-19)
(1.30919 0.140135 2.00738e-21)
(1.30614 0.130266 6.17454e-19)
(1.30142 0.119851 8.21692e-19)
(1.29485 0.108925 2.39214e-19)
(1.28637 0.0975609 -3.55364e-19)
(1.27599 0.0858899 -8.04637e-19)
(1.26278 0.0741863 7.61448e-19)
(1.24568 0.0633268 5.68199e-19)
(1.30346 0.162865 -1.54308e-19)
(1.30636 0.156146 3.62809e-19)
(1.30843 0.148992 -1.00197e-18)
(1.30954 0.141367 1.92555e-19)
(1.30954 0.133238 -2.60522e-20)
(1.30828 0.124583 -7.28628e-19)
(1.30562 0.115397 -1.27964e-18)
(1.30145 0.105703 3.4093e-19)
(1.29572 0.0955677 1.63768e-18)
(1.28769 0.085154 -7.50352e-19)
(1.27661 0.0750867 -8.17278e-19)
(1.29393 0.157297 2.69273e-19)
(1.2979 0.151797 -4.65673e-20)
(1.30135 0.145962 5.16243e-19)
(1.30416 0.139749 8.42808e-19)
(1.30623 0.133119 -4.82032e-19)
(1.30742 0.126034 6.1394e-19)
(1.30761 0.118468 3.75932e-19)
(1.30668 0.110409 -1.3933e-18)
(1.30457 0.101869 -4.38581e-19)
(1.30069 0.0929145 2.73491e-19)
(1.29459 0.0839253 1.64962e-19)
(1.28249 0.150486 -2.03815e-19)
(1.28699 0.145929 -3.84873e-19)
(1.29119 0.141127 5.26698e-20)
(1.29499 0.136041 -3.38773e-19)
(1.29833 0.130634 2.00249e-20)
(1.30109 0.124866 -3.79209e-19)
(1.30319 0.118699 2.8276e-19)
(1.30452 0.112103 -1.78412e-19)
(1.30501 0.105055 -4.3486e-19)
(1.30422 0.0975437 8.4446e-19)
(1.30193 0.0897401 -2.26954e-19)
(1.27008 0.142983 3.23666e-19)
(1.27474 0.139147 -3.92568e-20)
(1.27923 0.135138 -1.14596e-19)
(1.28351 0.130928 3.84256e-19)
(1.28752 0.126483 -2.64435e-19)
(1.29119 0.121768 -8.6484e-19)
(1.29444 0.116747 6.52385e-19)
(1.2972 0.111381 5.42709e-19)
(1.2994 0.105624 4.49147e-19)
(1.30073 0.0994157 -1.31263e-18)
(1.30115 0.0927654 2.91912e-19)
(1.2573 0.135183 9.75918e-20)
(1.26188 0.131901 1.45532e-19)
(1.2664 0.128501 1.5134e-19)
(1.27081 0.124962 -1.0209e-18)
(1.27507 0.121259 -1.99695e-19)
(1.27916 0.117365 6.18266e-19)
(1.283 0.113247 -1.34002e-18)
(1.28656 0.108867 -7.08217e-20)
(1.28977 0.10417 -3.65103e-19)
(1.29243 0.0990627 8.35235e-19)
(1.2946 0.0934469 9.50289e-20)
(1.24451 0.127347 -2.2008e-19)
(1.2489 0.1245 -2.36828e-19)
(1.25326 0.121573 -8.68413e-20)
(1.25759 0.118553 6.80823e-19)
(1.26185 0.115422 4.86283e-19)
(1.26603 0.112159 7.49113e-20)
(1.27009 0.108739 1.06861e-18)
(1.274 0.105128 2.93858e-19)
(1.27771 0.101268 4.45511e-19)
(1.28109 0.0970499 4.05094e-20)
(1.28428 0.0923133 1.06947e-19)
(1.23194 0.119637 2.65499e-20)
(1.23606 0.117142 3.2447e-19)
(1.24018 0.114593 5.22634e-20)
(1.24431 0.111981 -2.74583e-19)
(1.24842 0.109295 -1.73224e-19)
(1.2525 0.106521 -3.97878e-19)
(1.25653 0.103639 -1.17413e-18)
(1.2605 0.100619 2.63599e-19)
(1.26438 0.0974069 -7.93354e-19)
(1.26807 0.0938892 7.78765e-20)
(1.27174 0.0898761 -8.74529e-19)
(1.21969 0.112145 8.84402e-20)
(1.22351 0.109943 -1.31927e-19)
(1.22736 0.107704 4.45317e-19)
(1.23123 0.105424 4.53766e-19)
(1.2351 0.103093 -2.68454e-19)
(1.23898 0.100704 1.33097e-19)
(1.24286 0.0982401 2.48302e-19)
(1.24671 0.0956779 -6.66895e-19)
(1.25053 0.092966 2.77481e-19)
(1.25427 0.0899948 8.97854e-20)
(1.25808 0.0865689 1.15397e-18)
(1.20781 0.104917 2.50834e-19)
(1.21134 0.102967 2.59252e-19)
(1.2149 0.100991 -4.98756e-19)
(1.21849 0.0989858 -2.60968e-19)
(1.22209 0.0969474 1.96664e-19)
(1.22572 0.0948686 -3.18648e-19)
(1.22937 0.0927386 4.5579e-19)
(1.23302 0.0905364 2.67523e-19)
(1.23667 0.0882155 -2.56452e-19)
(1.24029 0.0856738 -4.9188e-19)
(1.24402 0.0827254 -9.52658e-19)
(1.19633 0.0979753 -1.47257e-19)
(1.19958 0.0962441 -1.37728e-19)
(1.20285 0.0944949 8.00663e-20)
(1.20616 0.0927256 1.5002e-19)
(1.20949 0.0909331 1.10385e-19)
(1.21285 0.0891126 4.97277e-19)
(1.21623 0.0872556 -5.32106e-19)
(1.21964 0.085344 3.51589e-19)
(1.22306 0.0833359 2.28158e-19)
(1.22648 0.0811386 -2.07808e-19)
(1.23002 0.0785834 1.19177e-19)
(1.18525 0.0913241 1.03521e-19)
(1.18823 0.0897868 1.42243e-21)
(1.19123 0.0882367 -4.28251e-20)
(1.19427 0.0866723 -1.86562e-19)
(1.19733 0.0850916 -2.69962e-19)
(1.20042 0.0834909 -1.87016e-19)
(1.20354 0.0818631 2.11493e-19)
(1.20669 0.0801926 -5.12033e-19)
(1.20986 0.0784416 1.89415e-21)
(1.21304 0.0765277 7.88659e-19)
(1.21634 0.0743021 1.54188e-19)
(1.17458 0.0849608 1.75072e-19)
(1.1773 0.0835962 -1.43576e-19)
(1.18005 0.0822225 1.63335e-19)
(1.18283 0.0808386 -1.59397e-21)
(1.18564 0.079443 1.30078e-19)
(1.18847 0.0780327 2.69392e-19)
(1.19133 0.0766018 3.15776e-19)
(1.19422 0.0751362 6.8037e-19)
(1.19713 0.0736022 1.53353e-19)
(1.20007 0.0719273 -4.43999e-19)
(1.20311 0.069983 5.6025e-19)
(1.16431 0.0788782 -3.2972e-19)
(1.1668 0.0776681 8.13549e-20)
(1.16931 0.0764516 -1.07225e-19)
(1.17185 0.0752279 1.06579e-19)
(1.17441 0.0739958 2.68677e-19)
(1.177 0.0727527 -6.44234e-21)
(1.17962 0.0714933 -3.34828e-20)
(1.18226 0.0702051 -4.22336e-19)
(1.18492 0.0688582 -3.01519e-19)
(1.18761 0.0673892 -1.12668e-19)
(1.19039 0.0656886 -3.38215e-19)
(1.15446 0.0730667 2.08022e-19)
(1.15672 0.0719952 -6.71041e-20)
(1.15901 0.0709194 -1.51725e-19)
(1.16133 0.0698386 -7.24164e-20)
(1.16367 0.0687517 -2.13441e-19)
(1.16603 0.0676566 1.05833e-19)
(1.16841 0.0665483 3.43149e-20)
(1.17082 0.0654159 -3.93616e-20)
(1.17324 0.0642325 9.54e-20)
(1.17569 0.0629435 -2.54461e-19)
(1.17822 0.0614565 -1.8052e-19)
(1.14502 0.0675157 -1.0391e-19)
(1.14708 0.0665687 6.21342e-20)
(1.14917 0.065619 2.26024e-19)
(1.15127 0.064666 2.42328e-19)
(1.1534 0.0637087 -1.65951e-19)
(1.15554 0.0627451 -1.87519e-19)
(1.15771 0.0617709 -3.6409e-20)
(1.15989 0.0607763 4.16379e-20)
(1.1621 0.0597374 -2.13777e-20)
(1.16433 0.0586074 3.78287e-19)
(1.16661 0.0573087 -5.41767e-20)
(1.136 0.0622134 7.94828e-20)
(1.13788 0.0613784 -1.23505e-19)
(1.13977 0.0605419 -2.62991e-19)
(1.14168 0.0597034 -1.34527e-19)
(1.14361 0.058862 3.04599e-19)
(1.14556 0.0580159 7.93656e-20)
(1.14752 0.0571611 -1.08827e-19)
(1.1495 0.056289 1.38292e-19)
(1.1515 0.0553786 8.3642e-20)
(1.15352 0.0543896 2.00267e-20)
(1.15558 0.0532578 5.045e-20)
(1.12741 0.0571473 -7.20812e-20)
(1.12912 0.0564132 1.55354e-19)
(1.13084 0.0556784 2.85128e-19)
(1.13257 0.0549427 8.32994e-20)
(1.13432 0.054205 -1.18519e-19)
(1.13608 0.0534639 -1.26111e-19)
(1.13786 0.0527158 -5.46346e-20)
(1.13965 0.051953 -9.25257e-20)
(1.14145 0.0511571 -1.62363e-19)
(1.14327 0.0502939 8.51387e-20)
(1.14513 0.0493101 1.34738e-19)
(1.11927 0.0523042 -5.35874e-20)
(1.12082 0.0516609 1.357e-19)
(1.12237 0.0510176 -2.72104e-19)
(1.12394 0.0503741 1.03586e-19)
(1.12552 0.0497296 -7.42069e-20)
(1.12712 0.0490825 9.25371e-20)
(1.12872 0.0484298 2.45228e-20)
(1.13033 0.0477646 5.09616e-20)
(1.13196 0.047071 8.67198e-20)
(1.1336 0.04632 5.76037e-20)
(1.13526 0.0454676 -1.32472e-19)
(1.11158 0.0476699 -7.18188e-20)
(1.11298 0.0471084 -4.17291e-20)
(1.11439 0.0465475 -5.99919e-20)
(1.11581 0.0459869 -2.73474e-19)
(1.11724 0.0454258 1.05794e-19)
(1.11868 0.044863 4.77933e-20)
(1.12012 0.0442957 1.65885e-20)
(1.12157 0.0437179 -2.08314e-19)
(1.12303 0.0431158 1.58477e-19)
(1.12451 0.042465 -8.41578e-20)
(1.126 0.0417294 1.99879e-19)
(1.10436 0.0432296 1.14906e-21)
(1.10563 0.0427418 -1.13971e-19)
(1.10691 0.042255 9.1693e-20)
(1.10819 0.0417689 7.31219e-20)
(1.10948 0.0412828 2.5693e-20)
(1.11077 0.0407956 -2.04177e-19)
(1.11207 0.0403048 1.71834e-19)
(1.11338 0.0398052 8.11891e-21)
(1.11468 0.0392849 -2.07226e-19)
(1.116 0.0387236 -1.01679e-19)
(1.11734 0.0380915 -1.45667e-19)
(1.09762 0.0389674 -8.4134e-20)
(1.09877 0.0385461 6.74634e-20)
(1.09992 0.0381261 -4.92458e-20)
(1.10108 0.0377069 6.35496e-20)
(1.10224 0.0372881 5.83436e-20)
(1.10341 0.0368687 3.02957e-21)
(1.10458 0.0364464 1.27801e-19)
(1.10575 0.0360169 4.26231e-20)
(1.10692 0.0355697 -2.73791e-20)
(1.1081 0.0350882 1.45606e-19)
(1.10929 0.034548 2.95828e-20)
(1.09138 0.0348667 2.55806e-20)
(1.09242 0.0345054 -7.36408e-20)
(1.09346 0.0341454 3.67186e-20)
(1.09451 0.0337865 -3.23103e-20)
(1.09555 0.0334281 -1.16682e-19)
(1.0966 0.0330694 9.01451e-20)
(1.09765 0.0327086 -4.47085e-20)
(1.0987 0.0323417 1.82159e-19)
(1.09976 0.0319601 1.02262e-19)
(1.10081 0.0315498 7.1927e-20)
(1.10187 0.031091 -1.11763e-19)
(1.08564 0.0309099 -1.21482e-19)
(1.08659 0.0306026 1.83541e-19)
(1.08753 0.0302968 4.06878e-20)
(1.08848 0.029992 -2.16808e-20)
(1.08942 0.0296879 -3.21927e-21)
(1.09037 0.0293838 7.89353e-20)
(1.09131 0.029078 -2.54097e-20)
(1.09226 0.0287672 -1.18012e-19)
(1.0932 0.0284441 -9.18296e-20)
(1.09414 0.0280973 -2.40938e-19)
(1.09508 0.0277107 -1.44562e-20)
(1.08043 0.0270785 1.63349e-19)
(1.08129 0.02682 -6.33909e-20)
(1.08215 0.0265628 -7.21405e-20)
(1.083 0.0263068 1.13636e-19)
(1.08386 0.0260515 -5.33715e-20)
(1.08471 0.0257963 2.61691e-20)
(1.08556 0.0255398 -8.435e-20)
(1.08641 0.0252793 -3.60641e-20)
(1.08726 0.0250086 1.7578e-19)
(1.0881 0.0247183 2.383e-19)
(1.08895 0.0243956 8.66331e-20)
(1.07576 0.0233524 -5.57035e-20)
(1.07654 0.023138 -1.48254e-20)
(1.07733 0.0229248 -8.92346e-20)
(1.07811 0.0227127 -7.90693e-20)
(1.07888 0.0225012 -1.88884e-20)
(1.07966 0.02229 7.59805e-20)
(1.08043 0.0220777 1.83053e-20)
(1.08119 0.0218623 5.35547e-21)
(1.08195 0.0216384 -7.35666e-20)
(1.08271 0.0213988 -1.08956e-19)
(1.08347 0.0211329 -1.58112e-20)
(1.07165 0.0197102 7.99085e-20)
(1.07237 0.0195357 -6.03947e-20)
(1.07309 0.0193624 9.33605e-20)
(1.0738 0.0191899 9.12014e-21)
(1.07451 0.0190181 4.48386e-21)
(1.07522 0.0188465 -3.33534e-20)
(1.07592 0.0186741 4.73857e-20)
(1.07661 0.0184991 -2.81396e-20)
(1.0773 0.0183174 1.57869e-20)
(1.07798 0.0181231 -6.12094e-20)
(1.07867 0.0179077 7.175e-20)
(1.06812 0.0161284 -2.88909e-20)
(1.06879 0.0159904 2.42615e-20)
(1.06945 0.0158533 -3.17765e-20)
(1.07011 0.015717 -3.38526e-20)
(1.07076 0.0155812 1.41899e-19)
(1.07141 0.0154455 -6.47541e-20)
(1.07205 0.0153092 5.48445e-20)
(1.07269 0.0151709 -1.12231e-19)
(1.07332 0.0150273 -4.59178e-20)
(1.07394 0.0148737 5.49578e-20)
(1.07456 0.0147038 -6.04574e-20)
(1.0652 0.0125816 8.2212e-20)
(1.06583 0.0124771 -1.49825e-19)
(1.06645 0.0123732 1.00812e-19)
(1.06706 0.01227 -9.40553e-20)
(1.06767 0.0121671 2.08587e-21)
(1.06827 0.0120643 3.05924e-20)
(1.06887 0.011961 1.11994e-20)
(1.06946 0.0118561 6.14627e-22)
(1.07004 0.0117472 8.05003e-20)
(1.07061 0.0116309 -1.53783e-20)
(1.07118 0.0115022 -8.22555e-21)
(1.06293 0.00904125 -4.51835e-20)
(1.06352 0.00896811 -1.51845e-20)
(1.06411 0.0088954 1.47693e-19)
(1.06469 0.00882305 -6.23268e-20)
(1.06526 0.0087509 2.98748e-20)
(1.06583 0.00867875 -1.87921e-20)
(1.06639 0.00860619 7.89159e-20)
(1.06694 0.00853246 -4.14853e-20)
(1.06749 0.00845586 1.4957e-20)
(1.06803 0.00837401 -1.46287e-20)
(1.06856 0.00828341 2.61603e-20)
(1.06135 0.005473 1.27683e-19)
(1.06192 0.00542937 3.24638e-20)
(1.06248 0.00538597 -5.3926e-20)
(1.06304 0.00534274 -4.68771e-20)
(1.06359 0.00529959 -2.21314e-21)
(1.06413 0.00525639 -1.46038e-20)
(1.06467 0.00521291 -8.55615e-21)
(1.0652 0.00516868 3.16348e-20)
(1.06572 0.00512273 1.0607e-21)
(1.06624 0.00507366 -1.89318e-20)
(1.06675 0.00501937 -2.24714e-20)
(1.06051 0.00184389 1.24533e-19)
(1.06107 0.00182988 -3.43162e-20)
(1.06162 0.0018158 -2.62534e-20)
(1.06216 0.00180163 -3.82882e-20)
(1.0627 0.00178732 -1.60199e-20)
(1.06324 0.00177283 -4.39635e-21)
(1.06376 0.00175805 2.50702e-20)
(1.06428 0.00174285 3.54643e-20)
(1.06479 0.00172692 -3.11758e-20)
(1.0653 0.00170983 5.78119e-21)
(1.0658 0.001691 2.12608e-20)
)
;

boundaryField
{
    inlet
    {
        type            uniformFixedValue;
        uniformValue    constant (1 0 0);
        value           nonuniform 0();
    }
    outlet
    {
        type            pressureInletOutletVelocity;
        value           nonuniform 0();
    }
    cylinder
    {
        type            fixedValue;
        value           nonuniform 0();
    }
    top
    {
        type            symmetryPlane;
    }
    bottom
    {
        type            symmetryPlane;
    }
    defaultFaces
    {
        type            empty;
    }
    procBoundary33to26
    {
        type            processor;
        value           nonuniform List<vector> 9((0.926046 0.0469633 1.50216e-18) (0.9725 0.0549787 -2.42777e-19) (1.04142 0.0712403 3.49907e-19) (1.12412 0.101743 5.12027e-19) (1.19018 0.126333 -1.20349e-18) (1.24034 0.146219 1.12915e-18) (1.27565 0.161298 -6.78878e-19) (1.2977 0.171155 -3.76723e-19) (1.30874 0.176106 5.33627e-19));
    }
    procBoundary33to27
    {
        type            processor;
        value           nonuniform List<vector> 
16
(
(0.743226 -0.0141825 1.52328e-20)
(0.791556 -0.00616021 4.03189e-19)
(0.791556 -0.00616021 4.03189e-19)
(0.78926 0.00112803 2.64996e-19)
(0.78926 0.00112803 2.64996e-19)
(0.787307 0.00833544 -2.39638e-18)
(0.833755 0.0223569 1.34373e-18)
(0.775529 -0.0155402 -4.40713e-19)
(0.775529 -0.0155402 -4.40713e-19)
(0.727156 -0.0195746 -7.50874e-20)
(0.678736 -0.0201855 1.55477e-18)
(0.75022 -0.0128894 5.97253e-19)
(0.75022 -0.0128894 5.97253e-19)
(0.701966 -0.014933 1.05588e-18)
(0.763167 -0.0168025 -3.71399e-20)
(0.763167 -0.0168025 -3.71399e-20)
)
;
    }
    procBoundary33to28
    {
        type            processor;
        value           nonuniform List<vector> 
15
(
(0.834484 -0.0140327 0)
(0.938597 -0.00289609 0)
(1.03272 0.0103713 0)
(1.11405 0.0247892 0)
(1.18065 0.0392166 0)
(1.23174 0.0525655 0)
(1.26771 0.0639681 0)
(1.29001 0.0728856 0)
(1.30079 0.0791346 0)
(1.30253 0.0828388 0)
(1.29768 0.0843346 0)
(1.28838 0.0840618 0)
(1.27635 0.08247 0)
(1.26284 0.0799574 0)
(1.24872 0.0768419 0)
)
;
    }
    procBoundary33to32
    {
        type            processor;
        value           nonuniform List<vector> 
33
(
(1.31126 0.17685 6.86418e-19)
(1.30763 0.174246 -9.79361e-19)
(1.29986 0.169193 3.15406e-19)
(1.28952 0.162501 1.41018e-19)
(1.27774 0.154831 -1.46709e-19)
(1.26529 0.146673 -3.02152e-20)
(1.25266 0.138366 -8.7503e-20)
(1.24012 0.130128 8.02858e-20)
(1.22784 0.122087 9.43398e-21)
(1.21589 0.114315 -5.6566e-20)
(1.20432 0.106845 1.78299e-19)
(1.19312 0.0996903 -1.04586e-19)
(1.18231 0.0928498 2.66692e-19)
(1.17189 0.0863171 -3.8499e-20)
(1.16186 0.0800825 8.9572e-20)
(1.15222 0.0741344 -1.32257e-19)
(1.14297 0.0684604 -2.87125e-19)
(1.13414 0.0630473 1.54026e-19)
(1.12572 0.0578813 -3.26836e-20)
(1.11774 0.0529481 3.2014e-20)
(1.11019 0.0482324 -1.25006e-19)
(1.1031 0.0437187 6.74976e-20)
(1.09648 0.0393902 -3.17453e-20)
(1.09034 0.0352296 9.00141e-21)
(1.0847 0.0312188 -9.67754e-20)
(1.07957 0.0273385 1.39953e-19)
(1.07497 0.0235682 -9.07102e-21)
(1.07092 0.0198859 1.87575e-21)
(1.06744 0.0162674 -1.52011e-20)
(1.06457 0.0126869 2.5907e-20)
(1.06233 0.00911489 9.8293e-21)
(1.06078 0.0055169 1.64031e-19)
(1.05994 0.00185788 3.65e-20)
)
;
    }
    procBoundary33to34
    {
        type            processor;
        value           nonuniform List<vector> 
22
(
(1.23453 0.0733578 0)
(1.22058 0.0696677 0)
(1.20704 0.0658791 0)
(1.19402 0.0620608 0)
(1.18156 0.0582563 0)
(1.16967 0.0544928 0)
(1.15836 0.0507872 0)
(1.14766 0.0471497 0)
(1.13756 0.0435856 0)
(1.12808 0.0400968 0)
(1.11922 0.0366823 0)
(1.111 0.0333385 0)
(1.10341 0.0300598 0)
(1.09648 0.0268386 0)
(1.09021 0.0236657 0)
(1.08462 0.0205299 0)
(1.07973 0.0174187 0)
(1.07554 0.0143177 0)
(1.0721 0.01121 0)
(1.06943 0.00807837 0)
(1.06758 0.00489733 0)
(1.06662 0.00164962 0)
)
;
    }
}


// ************************************************************************* //
