/*--------------------------------*- C++ -*----------------------------------*\
  =========                 |
  \\      /  F ield         | OpenFOAM: The Open Source CFD Toolbox
   \\    /   O peration     | Website:  https://openfoam.org
    \\  /    A nd           | Version:  7
     \\/     M anipulation  |
\*---------------------------------------------------------------------------*/
FoamFile
{
    version     2.0;
    format      ascii;
    class       volScalarField;
    location    "4.999666";
    object      p;
}
// * * * * * * * * * * * * * * * * * * * * * * * * * * * * * * * * * * * * * //

dimensions      [0 2 -2 0 0 0 0];

internalField   nonuniform List<scalar> 
5800
(
-0.322768
-0.328143
-0.3313
-0.334037
-0.337063
-0.340687
-0.345201
-0.350817
-0.357661
-0.365784
0.640313
0.622922
0.612236
0.60082
0.586238
0.568451
0.547903
0.525243
0.501128
0.476132
0.450736
0.640313
0.622922
0.612236
0.60082
0.586238
0.568451
0.547903
0.525243
0.501128
0.476132
0.450736
0.425339
0.400266
0.375775
0.352067
0.329293
0.30756
0.286958
0.267565
0.249401
0.635384
0.618137
0.607682
0.596574
0.582336
0.564891
0.544666
0.522307
0.498468
0.473725
0.448561
0.423375
0.398494
0.374176
0.350625
0.327993
0.306384
0.285886
0.266591
0.248569
0.625567
0.608605
0.598608
0.588115
0.57456
0.557796
0.538215
0.516454
0.493166
0.468928
0.444225
0.41946
0.39496
0.370988
0.34775
0.3254
0.30404
0.283748
0.264649
0.246908
0.610941
0.594404
0.585087
0.575506
0.562967
0.547216
0.528595
0.507725
0.485258
0.461772
0.437757
0.413619
0.389687
0.366229
0.343458
0.321529
0.30054
0.280558
0.26175
0.244421
0.591626
0.575647
0.567223
0.558842
0.547642
0.533227
0.515873
0.496179
0.474796
0.452304
0.429198
0.405887
0.382708
0.35993
0.337774
0.316403
0.295905
0.276334
0.257909
0.241114
0.567779
0.552486
0.545156
0.538248
0.528695
0.515928
0.500137
0.481896
0.461851
0.440587
0.418603
0.396315
0.374064
0.352128
0.330733
0.31005
0.290161
0.271102
0.253148
0.236996
0.539594
0.525109
0.51906
0.51388
0.506266
0.495441
0.481497
0.464972
0.446509
0.426696
0.40604
0.384962
0.36381
0.342869
0.322376
0.302508
0.283343
0.264892
0.247491
0.232082
0.507303
0.493737
0.489137
0.485921
0.480517
0.471914
0.460082
0.445523
0.428873
0.410724
0.391589
0.371899
0.352008
0.33221
0.31275
0.29382
0.275487
0.25774
0.240969
0.226388
0.471169
0.458625
0.455625
0.454583
0.451638
0.445512
0.436042
0.423682
0.40906
0.392774
0.375343
0.357207
0.33873
0.320213
0.301913
0.284034
0.266639
0.249687
0.233617
0.219935
0.431488
0.420058
0.418785
0.420102
0.419837
0.416423
0.409543
0.399596
0.387202
0.372962
0.357405
0.340979
0.324056
0.306949
0.289927
0.273205
0.256847
0.240777
0.225471
0.212749
0.388588
0.378352
0.378911
0.382741
0.38535
0.384854
0.380768
0.37343
0.363444
0.351418
0.337888
0.323313
0.308076
0.292497
0.27686
0.261395
0.246165
0.231059
0.216574
0.204857
0.34282
0.333845
0.336316
0.342783
0.348426
0.351028
0.349917
0.345358
0.337942
0.328279
0.316915
0.304319
0.290884
0.276941
0.262787
0.248669
0.234652
0.220585
0.206971
0.196293
0.294562
0.286904
0.29134
0.300532
0.309338
0.315185
0.317202
0.315571
0.310864
0.303694
0.294617
0.284111
0.272582
0.260371
0.247787
0.235097
0.222371
0.209413
0.196711
0.187088
0.244213
0.237914
0.244339
0.256312
0.26837
0.277579
0.282848
0.284268
0.282387
0.27782
0.271131
0.262812
0.253278
0.242881
0.231942
0.220751
0.209386
0.197603
0.185846
0.177281
0.192189
0.187277
0.195691
0.210459
0.225824
0.238475
0.24709
0.251657
0.252695
0.250819
0.246604
0.240549
0.233084
0.22457
0.215341
0.20571
0.195769
0.185221
0.174435
0.166908
0.138921
0.135411
0.145782
0.163326
0.182011
0.198149
0.210173
0.217955
0.221979
0.222861
0.221182
0.217454
0.212116
0.20554
0.198072
0.190049
0.18159
0.172337
0.162538
0.156006
0.0848488
0.0827429
0.0950144
0.115274
0.137252
0.156884
0.172346
0.183382
0.190436
0.194119
0.19502
0.19366
0.190492
0.185897
0.180228
0.17385
0.166922
0.159033
0.150238
0.144615
0.0304212
0.0297061
0.0437947
0.0666724
0.0918748
0.114969
0.133864
0.148164
0.158265
0.164769
0.168272
0.169305
0.168333
0.165745
0.161902
0.157189
0.151831
0.145389
0.137631
0.132752
-0.0239122
-0.0232643
-0.00746528
0.0178947
0.0462108
0.0726968
0.0949849
0.112529
0.125666
0.134988
0.141094
0.144527
0.145759
0.145193
0.143189
0.140145
0.13637
0.131486
0.124901
0.120468
-0.0777028
-0.075736
-0.058354
-0.0306841
0.000593062
0.0303591
0.055966
0.0767031
0.0928402
0.104953
0.113643
0.119461
0.122891
0.124346
0.124186
0.122805
0.120591
0.117365
0.112274
0.107714
-0.130506
-0.127283
-0.108464
-0.0786917
-0.0446472
-0.011753
0.0170624
0.0409117
0.0599858
0.0748394
0.0860736
0.0942446
0.099847
0.103307
0.104986
0.105255
0.104533
0.102942
0.0999253
0.0949105
-0.181897
-0.177479
-0.157401
-0.125761
-0.0891835
-0.0533534
-0.0214751
0.00537545
0.0272978
0.0448187
0.0585363
0.069011
0.0767448
0.0821761
0.0856752
0.087587
0.0883084
0.0881992
0.0872021
0.0839443
-0.231559
-0.225854
-0.204802
-0.171534
-0.132698
-0.0941639
-0.0594022
-0.0296906
-0.00503443
0.0150582
0.0311788
0.0438897
0.0536985
0.0610537
0.066338
0.0698818
0.0720376
0.0732828
0.0740186
0.0728239
-0.279172
-0.271975
-0.250367
-0.215664
-0.174888
-0.133917
-0.0964839
-0.0640798
-0.0368284
-0.0142811
0.00414296
0.019006
0.0308185
0.0400364
0.0470554
0.052204
0.0557932
0.0583231
0.060463
0.0609465
-0.324129
-0.315573
-0.293805
-0.257863
-0.215471
-0.172357
-0.132496
-0.097595
-0.0679103
-0.0430457
-0.0224358
-0.00552093
0.00821012
0.0192173
0.0279069
0.0346127
0.0396176
0.0434004
0.0467566
0.0486029
-0.366107
-0.356447
-0.33414
-0.298193
-0.254181
-0.209243
-0.167228
-0.13005
-0.0981163
-0.0710911
-0.0484299
-0.0295786
-0.0140276
-0.00131576
0.00896954
0.01717
0.023553
0.0285651
0.0330572
0.0361345
-0.404871
-0.394309
-0.371658
-0.335542
-0.290929
-0.244351
-0.20048
-0.161272
-0.127294
-0.0982829
-0.0737204
-0.0530619
-0.0358018
-0.0214806
-0.00968276
-5.95223e-05
0.00764931
0.0138575
0.0194357
0.0236798
-0.440232
-0.428858
-0.406141
-0.370044
-0.3251
-0.27751
-0.232067
-0.191099
-0.155302
-0.124498
-0.0981984
-0.0758741
-0.057027
-0.0412013
-0.0279815
-0.0170139
-0.00804114
-0.000683487
0.00592797
0.0112808
-0.472006
-0.459875
-0.437321
-0.401609
-0.356618
-0.308436
-0.261822
-0.219385
-0.182014
-0.149627
-0.121765
-0.0979271
-0.0776253
-0.0604085
-0.0458644
-0.0336365
-0.0234687
-0.0150172
-0.00743043
-0.00102726
-0.500039
-0.48721
-0.465014
-0.430026
-0.385394
-0.336983
-0.289595
-0.246005
-0.207315
-0.173573
-0.144332
-0.119143
-0.0975276
-0.0790403
-0.0632757
-0.0498771
-0.0385882
-0.0291028
-0.0205995
-0.013203
-0.52423
-0.510774
-0.4891
-0.455133
-0.411277
-0.36305
-0.315268
-0.270876
-0.2311
-0.196253
-0.165823
-0.139452
-0.116675
-0.0970421
-0.0801663
-0.0656912
-0.053359
-0.0429025
-0.0335413
-0.0252068
-0.544536
-0.530529
-0.509517
-0.476831
-0.434145
-0.386531
-0.338745
-0.293896
-0.253385
-0.217551
-0.186173
-0.158796
-0.135016
-0.114366
-0.0964945
-0.0810404
-0.0677459
-0.0563831
-0.0462247
-0.0370062
-0.560971
-0.546495
-0.526255
-0.495076
-0.45392
-0.407342
-0.359952
-0.314979
-0.274018
-0.237515
-0.205346
-0.177127
-0.152512
-0.130972
-0.112226
-0.0958924
-0.0817198
-0.0695161
-0.0586272
-0.048575
-0.573605
-0.558745
-0.539362
-0.509874
-0.470572
-0.425431
-0.378837
-0.334086
-0.292957
-0.256053
-0.22333
-0.194472
-0.169102
-0.146828
-0.127333
-0.110221
-0.0952589
-0.082275
-0.070734
-0.0598937
-0.582565
-0.567413
-0.54894
-0.52128
-0.48411
-0.440782
-0.395374
-0.351197
-0.310195
-0.273132
-0.240069
-0.210753
-0.184827
-0.161948
-0.141785
-0.124006
-0.10835
-0.0946373
-0.0825274
-0.0709558
-0.58803
-0.57268
-0.555146
-0.529401
-0.494588
-0.453407
-0.409561
-0.366309
-0.325729
-0.288749
-0.255552
-0.225954
-0.199645
-0.1763
-0.155604
-0.137257
-0.12098
-0.106599
-0.0939675
-0.0817805
-0.590228
-0.57478
-0.558187
-0.534395
-0.5021
-0.463356
-0.421421
-0.379432
-0.33957
-0.302918
-0.26979
-0.240086
-0.213547
-0.189871
-0.168767
-0.149953
-0.133164
-0.118221
-0.104961
-0.0924236
-0.589425
-0.573984
-0.558317
-0.536465
-0.506785
-0.47071
-0.430998
-0.390597
-0.35174
-0.315661
-0.282805
-0.253168
-0.226544
-0.202668
-0.181269
-0.162089
-0.144875
-0.129443
-0.115635
-0.102792
-0.585926
-0.570602
-0.555828
-0.535859
-0.508822
-0.475583
-0.438364
-0.39985
-0.362279
-0.327009
-0.294626
-0.265223
-0.23866
-0.214709
-0.193127
-0.173673
-0.156115
-0.140269
-0.126005
-0.112753
-0.580061
-0.564963
-0.551042
-0.532862
-0.508431
-0.478123
-0.443613
-0.407258
-0.371236
-0.337007
-0.305289
-0.276284
-0.249923
-0.22602
-0.20436
-0.184725
-0.166901
-0.150712
-0.13605
-0.122364
-0.572177
-0.557417
-0.544303
-0.527787
-0.505865
-0.47851
-0.446863
-0.412899
-0.378673
-0.345706
-0.31484
-0.286391
-0.260366
-0.236629
-0.214995
-0.195269
-0.177255
-0.160786
-0.145779
-0.131712
-0.562627
-0.548316
-0.535965
-0.520969
-0.501406
-0.476952
-0.448254
-0.41687
-0.384662
-0.353167
-0.323334
-0.295592
-0.270033
-0.246574
-0.225064
-0.205332
-0.187204
-0.170517
-0.155217
-0.140845
-0.551764
-0.538007
-0.52638
-0.51275
-0.495358
-0.473684
-0.447949
-0.419277
-0.389281
-0.359455
-0.330829
-0.30394
-0.27897
-0.255896
-0.234604
-0.214949
-0.196776
-0.179931
-0.164387
-0.149769
-0.53993
-0.526825
-0.51589
-0.503475
-0.488037
-0.468962
-0.446131
-0.420245
-0.392616
-0.364639
-0.337386
-0.311493
-0.287231
-0.264644
-0.243659
-0.224158
-0.206008
-0.189062
-0.17331
-0.158492
-0.527446
-0.515079
-0.504813
-0.493471
-0.47976
-0.463056
-0.442999
-0.419907
-0.394759
-0.368789
-0.343068
-0.318309
-0.294872
-0.27287
-0.252277
-0.233002
-0.214936
-0.197944
-0.182017
-0.16703
-0.514607
-0.503052
-0.49344
-0.483046
-0.470834
-0.456244
-0.438769
-0.41841
-0.395806
-0.371976
-0.347935
-0.324446
-0.30195
-0.28063
-0.260509
-0.241529
-0.223607
-0.206618
-0.190543
-0.175414
-0.501676
-0.490992
-0.482027
-0.472473
-0.461549
-0.448799
-0.433666
-0.415915
-0.395861
-0.374269
-0.352046
-0.329961
-0.308522
-0.28798
-0.268412
-0.249794
-0.232067
-0.215128
-0.198933
-0.18368
-0.48888
-0.479108
-0.470788
-0.461991
-0.452164
-0.440985
-0.427921
-0.412589
-0.395033
-0.37574
-0.355453
-0.334906
-0.314643
-0.294979
-0.276045
-0.257853
-0.240372
-0.223526
-0.207231
-0.191868
-0.476409
-0.467572
-0.459899
-0.451792
-0.442899
-0.433039
-0.421757
-0.408612
-0.393437
-0.376456
-0.358205
-0.339325
-0.320364
-0.301684
-0.283467
-0.265768
-0.248581
-0.231866
-0.21549
-0.200025
-0.464414
-0.456521
-0.449493
-0.442028
-0.433935
-0.425168
-0.415386
-0.404161
-0.391199
-0.376492
-0.360344
-0.343255
-0.325727
-0.308147
-0.29074
-0.273604
-0.256759
-0.240212
-0.223767
-0.208198
-0.453014
-0.446053
-0.439667
-0.432806
-0.425409
-0.417543
-0.408996
-0.399414
-0.38845
-0.375924
-0.361911
-0.346722
-0.330767
-0.314415
-0.297923
-0.281427
-0.264973
-0.248629
-0.232125
-0.216446
-0.442283
-0.436238
-0.430485
-0.424199
-0.417414
-0.410291
-0.402749
-0.394536
-0.385328
-0.374839
-0.362946
-0.349748
-0.335505
-0.320527
-0.305071
-0.289307
-0.2733
-0.257192
-0.240634
-0.224831
-0.432298
-0.427123
-0.421983
-0.416243
-0.410007
-0.403503
-0.396769
-0.389677
-0.381971
-0.373334
-0.363496
-0.352346
-0.339953
-0.326508
-0.312231
-0.297309
-0.281816
-0.265984
-0.249373
-0.233423
-0.423091
-0.418734
-0.414178
-0.408953
-0.403213
-0.397233
-0.391151
-0.384962
-0.378514
-0.371517
-0.363621
-0.354534
-0.344109
-0.332369
-0.319439
-0.305495
-0.290602
-0.275091
-0.25843
-0.2423
-0.414692
-0.411087
-0.407075
-0.40233
-0.397039
-0.39151
-0.385959
-0.380496
-0.375083
-0.369505
-0.363397
-0.356336
-0.347969
-0.338105
-0.326713
-0.313916
-0.299739
-0.284611
-0.2679
-0.251555
-0.407126
-0.404189
-0.40067
-0.396364
-0.391482
-0.386347
-0.381238
-0.376363
-0.371796
-0.367423
-0.362919
-0.357796
-0.351527
-0.343694
-0.33405
-0.322608
-0.309295
-0.294644
-0.277899
-0.261277
-0.40041
-0.398042
-0.394958
-0.391046
-0.386533
-0.381752
-0.377025
-0.372636
-0.368763
-0.365401
-0.362301
-0.358979
-0.354791
-0.349107
-0.341421
-0.331574
-0.319329
-0.305289
-0.288532
-0.271623
-0.394551
-0.392639
-0.389926
-0.386364
-0.38219
-0.377734
-0.373351
-0.369381
-0.366088
-0.36357
-0.361679
-0.359982
-0.357791
-0.354312
-0.348773
-0.340786
-0.329858
-0.316642
-0.299957
-0.282647
-0.38954
-0.387964
-0.385555
-0.382306
-0.378445
-0.374302
-0.370249
-0.366664
-0.363874
-0.362067
-0.3612
-0.36093
-0.360588
-0.359293
-0.356033
-0.350167
-0.34087
-0.328734
-0.312303
-0.294779
-0.385344
-0.383978
-0.381813
-0.378845
-0.375287
-0.371462
-0.367747
-0.364542
-0.362217
-0.361026
-0.361024
-0.361974
-0.363284
-0.364061
-0.363128
-0.3596
-0.352253
-0.341625
-0.32572
-0.307792
-0.381897
-0.380623
-0.378647
-0.375938
-0.372688
-0.369203
-0.365858
-0.363059
-0.361196
-0.360569
-0.361309
-0.363285
-0.366015
-0.368668
-0.370004
-0.368926
-0.363886
-0.354968
-0.34102
-0.322698
-0.379097
-0.377813
-0.375982
-0.373524
-0.370596
-0.367491
-0.364567
-0.362227
-0.360859
-0.360787
-0.362192
-0.365032
-0.368947
-0.373217
-0.376654
-0.377984
-0.37558
-0.36858
-0.357436
-0.33821
-0.376807
-0.375435
-0.373722
-0.371514
-0.368935
-0.366259
-0.363826
-0.362017
-0.361207
-0.36172
-0.363762
-0.367355
-0.37225
-0.377853
-0.383126
-0.386665
-0.387035
-0.38206
-0.373534
-0.354146
-0.374861
-0.37336
-0.371753
-0.369806
-0.367609
-0.365417
-0.363547
-0.362352
-0.362183
-0.363341
-0.366038
-0.370331
-0.376055
-0.382733
-0.389525
-0.394952
-0.397967
-0.395053
-0.389051
-0.370268
-0.373078
-0.371448
-0.369954
-0.368286
-0.366504
-0.364849
-0.363612
-0.363113
-0.363668
-0.365551
-0.368952
-0.373945
-0.380417
-0.387976
-0.395977
-0.40292
-0.408258
-0.407292
-0.404036
-0.386267
-0.371274
-0.369558
-0.368202
-0.366837
-0.365503
-0.364428
-0.363879
-0.364143
-0.365497
-0.368179
-0.372355
-0.378081
-0.385278
-0.393606
-0.402574
-0.410686
-0.417938
-0.418596
-0.418374
-0.401641
-0.369276
-0.367559
-0.366381
-0.365347
-0.364487
-0.364021
-0.364194
-0.365262
-0.367465
-0.371002
-0.376009
-0.382527
-0.390462
-0.39952
-0.409303
-0.418321
-0.427081
-0.428901
-0.431791
-0.415783
-0.366939
-0.365337
-0.364389
-0.363714
-0.363346
-0.363498
-0.364399
-0.366279
-0.369345
-0.373762
-0.379634
-0.386979
-0.395701
-0.405482
-0.416002
-0.425775
-0.43568
-0.438258
-0.443955
-0.428205
-0.364154
-0.362804
-0.362146
-0.361854
-0.36198
-0.362738
-0.364346
-0.367011
-0.370914
-0.376193
-0.382924
-0.391106
-0.400623
-0.411172
-0.422368
-0.432836
-0.443574
-0.446717
-0.454517
-0.438686
-0.360855
-0.359906
-0.359596
-0.359703
-0.360314
-0.361644
-0.363906
-0.367295
-0.371972
-0.378052
-0.385594
-0.394579
-0.40487
-0.416162
-0.428037
-0.439152
-0.450448
-0.454167
-0.463151
-0.44717
-0.357035
-0.356628
-0.356717
-0.357229
-0.358299
-0.360149
-0.362992
-0.367015
-0.372367
-0.37915
-0.387411
-0.397115
-0.408113
-0.420085
-0.432552
-0.44433
-0.455905
-0.460276
-0.469556
-0.453542
-0.35274
-0.353
-0.353526
-0.354436
-0.355927
-0.35823
-0.361563
-0.366112
-0.37202
-0.379379
-0.388232
-0.398529
-0.410109
-0.422639
-0.435586
-0.44787
-0.45959
-0.464568
-0.473435
-0.457515
-0.348072
-0.349104
-0.350084
-0.351372
-0.353237
-0.355917
-0.359643
-0.364603
-0.370936
-0.378732
-0.388022
-0.398753
-0.410748
-0.423652
-0.436923
-0.449503
-0.461177
-0.466528
-0.474557
-0.458727
-0.343204
-0.345061
-0.346496
-0.348132
-0.350315
-0.353297
-0.35732
-0.362578
-0.369207
-0.377295
-0.386866
-0.397857
-0.41008
-0.423167
-0.436509
-0.449166
-0.460549
-0.465819
-0.472849
-0.456954
-0.338347
-0.341036
-0.342908
-0.344852
-0.347298
-0.350509
-0.354742
-0.360195
-0.367005
-0.375254
-0.384958
-0.396043
-0.408304
-0.421355
-0.43456
-0.447017
-0.457586
-0.463237
-0.467964
-0.452413
-0.333745
-0.337228
-0.339497
-0.341703
-0.344356
-0.347734
-0.352103
-0.357668
-0.364564
-0.372866
-0.382582
-0.393622
-0.405764
-0.418596
-0.431468
-0.443444
-0.453168
-0.458661
-0.460485
-0.329657
-0.333846
-0.336455
-0.338873
-0.341683
-0.345174
-0.349624
-0.355239
-0.362153
-0.370435
-0.38008
-0.390983
-0.4029
-0.415399
-0.427804
-0.439135
-0.448013
-0.45284
-0.452339
-0.326332
-0.331095
-0.333972
-0.336549
-0.33947
-0.343034
-0.347524
-0.353152
-0.360047
-0.368271
-0.377806
-0.388535
-0.400193
-0.412327
-0.424235
-0.434904
-0.442982
-0.446929
-0.4447
-0.323983
-0.32915
-0.332212
-0.334896
-0.337888
-0.341493
-0.346002
-0.351624
-0.358489
-0.36665
-0.376084
-0.386657
-0.398093
-0.40992
-0.421414
-0.431545
-0.438979
-0.442127
-0.438763
-0.322768
-0.328143
-0.3313
-0.334037
-0.337063
-0.340687
-0.345201
-0.350817
-0.357661
-0.365784
-0.375156
-0.385639
-0.396947
-0.408599
-0.41986
-0.429689
-0.43676
-0.43944
-0.435515
0.0995535
0.102033
0.108507
0.113884
0.12124
0.125442
0.129735
0.128248
0.126281
0.114879
0.100648
0.103181
0.109931
0.115637
0.123598
0.128659
0.134234
0.134384
0.134713
0.126077
0.101719
0.104266
0.111298
0.1173
0.125875
0.131724
0.138536
0.140182
0.142565
0.13655
0.102752
0.105315
0.112639
0.11893
0.128099
0.134708
0.14269
0.145807
0.150028
0.14656
0.103743
0.106325
0.113932
0.120494
0.13023
0.137569
0.146644
0.15121
0.157106
0.156096
0.104691
0.107269
0.115171
0.121992
0.132264
0.140307
0.150393
0.156374
0.163807
0.165135
0.105593
0.108156
0.116369
0.123421
0.134195
0.142915
0.153927
0.161277
0.17013
0.173667
0.106449
0.109009
0.117458
0.124779
0.136015
0.145387
0.157241
0.165899
0.176071
0.181675
0.107256
0.109799
0.118501
0.126055
0.137717
0.147714
0.16033
0.170222
0.181617
0.18914
0.108009
0.110538
0.11949
0.127241
0.139295
0.149887
0.163187
0.174231
0.186754
0.196045
0.108705
0.111218
0.12039
0.128335
0.140744
0.151897
0.16581
0.17791
0.191469
0.202371
0.109341
0.111838
0.121213
0.129335
0.14206
0.153735
0.168192
0.18125
0.195748
0.208102
0.109914
0.112396
0.121952
0.130237
0.143239
0.155393
0.170328
0.184241
0.199578
0.213222
0.110422
0.112889
0.122605
0.131037
0.144279
0.156861
0.172214
0.186874
0.202948
0.217718
0.110862
0.113315
0.123168
0.131731
0.145176
0.158134
0.173844
0.189143
0.205849
0.221581
0.111231
0.113673
0.123641
0.132315
0.145928
0.159206
0.175211
0.191042
0.208275
0.224803
0.11153
0.113962
0.124021
0.132787
0.146533
0.160069
0.176313
0.192568
0.210219
0.227381
0.111754
0.114179
0.124307
0.133144
0.146989
0.160721
0.177143
0.193715
0.211679
0.229313
0.111905
0.114324
0.124499
0.133383
0.147294
0.161158
0.1777
0.194481
0.212654
0.2306
0.11198
0.114397
0.124594
0.133503
0.147447
0.161376
0.177979
0.194865
0.213141
0.231243
0.0141548
0.0132544
0.0117908
0.0100798
0.00831928
0.00663349
0.00508258
0.0036948
0.00247145
0.00140597
0.0142421
0.0133374
0.0118646
0.0101436
0.00837224
0.0066763
0.00511554
0.00371896
0.00248738
0.00141433
0.014412
0.0134984
0.0120085
0.0102681
0.00847592
0.00675998
0.00518007
0.00376613
0.0025186
0.00143151
0.01466
0.0137337
0.0122192
0.0104506
0.00862806
0.00688272
0.00527474
0.00383534
0.00256459
0.00145706
0.0149826
0.0140401
0.012494
0.0106887
0.00882672
0.00704307
0.00539845
0.00392586
0.00262483
0.00149058
0.0153767
0.0144148
0.0128304
0.0109805
0.00907034
0.00723987
0.00555038
0.0040371
0.0026989
0.00153182
0.0158394
0.0148553
0.0132263
0.0113243
0.0093577
0.00747223
0.0057299
0.00416863
0.00278651
0.00158062
0.0163683
0.0153594
0.0136799
0.0117188
0.0096878
0.00773951
0.00593658
0.00432018
0.00288751
0.0016369
0.0169611
0.0159253
0.0141897
0.0121628
0.0100599
0.00804125
0.00617016
0.00449164
0.00300185
0.00170068
0.0176158
0.0165513
0.0147544
0.0126556
0.0104735
0.00837721
0.00643056
0.00468303
0.0031296
0.00177205
0.0183305
0.017236
0.0153729
0.0131963
0.0109282
0.0087473
0.00671783
0.0048945
0.00327094
0.00185118
0.0191035
0.0179781
0.016044
0.0137844
0.0114238
0.00915161
0.0070322
0.00512635
0.00342617
0.00193836
0.0199329
0.0187763
0.0167671
0.0144196
0.0119603
0.00959038
0.00737403
0.00537899
0.00359568
0.00203395
0.0208174
0.0196295
0.0175413
0.0151016
0.0125379
0.010064
0.0077438
0.00565296
0.00377999
0.00213844
0.0217553
0.0205367
0.0183658
0.0158301
0.0131566
0.0105729
0.00814214
0.00594893
0.00397975
0.00225241
0.022745
0.0214969
0.0192399
0.0166052
0.013817
0.0111179
0.00856979
0.00626771
0.00419571
0.00237655
0.0237851
0.0225089
0.020163
0.0174269
0.0145194
0.0116996
0.00902764
0.00661022
0.00442874
0.00251168
0.024874
0.0235719
0.0211345
0.0182951
0.0152644
0.012319
0.00951666
0.00697751
0.00467987
0.00265875
0.0260101
0.0246847
0.0221535
0.0192101
0.0160525
0.0129769
0.010038
0.00737078
0.00495024
0.00281882
0.0271918
0.0258463
0.0232195
0.0201721
0.0168846
0.0136745
0.0105928
0.00779135
0.00524114
0.00299311
0.0284176
0.0270553
0.0243316
0.0211813
0.0177613
0.0144129
0.0111825
0.0082407
0.00555398
0.00318296
0.0296857
0.0283106
0.0254892
0.0222379
0.0186835
0.0151934
0.0118086
0.00872041
0.00589033
0.00338987
0.0309943
0.0296107
0.0266913
0.0233424
0.0196519
0.0160173
0.0124726
0.00923225
0.00625193
0.0036155
0.0323418
0.0309542
0.0279373
0.0244949
0.0206675
0.0168859
0.0131762
0.00977811
0.00664062
0.00386163
0.0337262
0.0323394
0.0292262
0.025696
0.0217311
0.0178008
0.0139213
0.01036
0.00705844
0.00413023
0.0351457
0.0337645
0.0305571
0.0269457
0.0228434
0.0187635
0.0147098
0.0109802
0.00750755
0.00442342
0.0365983
0.0352278
0.0319292
0.0282445
0.0240054
0.0197756
0.0155437
0.0116408
0.00799029
0.0047435
0.038082
0.0367271
0.0333414
0.0295925
0.0252178
0.0208387
0.0164253
0.0123446
0.00850914
0.00509293
0.0395946
0.0382604
0.0347928
0.0309899
0.0264814
0.0219546
0.0173568
0.0130939
0.00906675
0.00547435
0.0411341
0.0398253
0.0362825
0.0324367
0.0277968
0.0231251
0.0183405
0.0138916
0.00966593
0.00589059
0.0426982
0.0414195
0.0378094
0.0339327
0.0291647
0.0243521
0.019379
0.0147404
0.0103097
0.00634465
0.0442846
0.0430405
0.0393725
0.0354777
0.0305858
0.0256373
0.0204747
0.0156435
0.011001
0.00683972
0.0458911
0.0446858
0.0409707
0.0370712
0.0320606
0.0269828
0.0216302
0.0166038
0.0117434
0.00737921
0.0475151
0.0463526
0.0426031
0.0387128
0.0335896
0.0283904
0.0228481
0.0176246
0.0125402
0.00796668
0.0491544
0.0480383
0.0442683
0.0404014
0.0351732
0.0298622
0.0241312
0.0187092
0.0133951
0.0086059
0.0508064
0.0497402
0.0459652
0.0421361
0.0368121
0.0313998
0.025482
0.0198611
0.0143119
0.00930085
0.0524685
0.0514555
0.0476926
0.0439156
0.0385065
0.0330052
0.0269032
0.0210837
0.0152945
0.0100557
0.0541383
0.0531815
0.0494489
0.0457385
0.0402568
0.0346801
0.0283975
0.0223808
0.0163472
0.0108747
0.0558132
0.0549155
0.0512328
0.0476031
0.0420633
0.0364259
0.0299675
0.023756
0.0174742
0.0117625
0.0574906
0.0566548
0.0530425
0.0495076
0.0439262
0.0382442
0.0316158
0.0252133
0.01868
0.0127238
0.059168
0.0583966
0.0548764
0.0514499
0.0458457
0.040136
0.033345
0.0267564
0.0199691
0.0137634
0.0608426
0.0601385
0.0567325
0.0534278
0.0478219
0.0421024
0.0351576
0.0283895
0.0213463
0.0148865
0.0625121
0.0618779
0.0586089
0.055439
0.0498545
0.044144
0.037056
0.0301164
0.0228163
0.0160984
0.0641738
0.0636123
0.0605033
0.0574809
0.0519434
0.0462614
0.0390428
0.0319413
0.0243842
0.0174043
0.0658253
0.0653393
0.0624134
0.0595509
0.0540881
0.0484546
0.0411202
0.0338681
0.0260549
0.01881
0.0674642
0.0670566
0.0643366
0.0616463
0.056288
0.0507233
0.0432905
0.0359009
0.0278334
0.0203212
0.069088
0.0687619
0.0662704
0.0637643
0.0585422
0.0530672
0.045556
0.0380436
0.0297249
0.0219439
0.0706946
0.0704533
0.0682121
0.065902
0.0608494
0.0554854
0.0479187
0.0402999
0.0317345
0.0236841
0.0722818
0.0721285
0.0701586
0.0680566
0.0632083
0.0579765
0.0503806
0.0426735
0.0338674
0.0255481
0.0738474
0.0737858
0.0721072
0.070225
0.065617
0.0605392
0.0529434
0.0451678
0.0361287
0.0275424
0.0753895
0.0754231
0.0740546
0.0724042
0.0680734
0.0631715
0.0556088
0.0477859
0.0385234
0.0296734
0.0769063
0.0770388
0.0759978
0.0745913
0.070575
0.0658712
0.0583781
0.0505307
0.0410567
0.0319478
0.0783959
0.078631
0.0779336
0.0767833
0.0731189
0.0686358
0.0612524
0.0534046
0.0437335
0.0343724
0.0798568
0.0801984
0.0798589
0.0789771
0.075702
0.0714624
0.0642324
0.0564096
0.0465589
0.036954
0.0812875
0.0817393
0.0817706
0.0811697
0.0783206
0.0743479
0.0673187
0.0595473
0.0495377
0.0396995
0.0826867
0.0832522
0.0836656
0.0833583
0.0809707
0.0772889
0.070511
0.0628187
0.0526748
0.0426159
0.0840532
0.084736
0.0855408
0.0855397
0.083648
0.0802817
0.0738091
0.0662244
0.0559753
0.0457103
0.085386
0.0861893
0.0873933
0.0877111
0.0863478
0.0833224
0.0772117
0.0697642
0.0594442
0.0489895
0.086684
0.087611
0.0892202
0.0898695
0.0890651
0.0864069
0.0807174
0.0734375
0.0630869
0.0524607
0.0879465
0.0889999
0.0910189
0.092012
0.0917945
0.0895309
0.0843239
0.0772432
0.0669093
0.0561305
0.0891729
0.0903552
0.0927867
0.0941357
0.0945307
0.0926899
0.0880281
0.0811794
0.0709177
0.0600055
0.0903627
0.0916758
0.0945213
0.0962378
0.0972678
0.0958793
0.0918263
0.0852439
0.0751197
0.064091
0.0915154
0.092961
0.0962204
0.0983154
0.0999998
0.0990943
0.0957135
0.0894343
0.0795239
0.0683905
0.0926307
0.0942101
0.0978819
0.100366
0.102721
0.10233
0.0996839
0.093748
0.0841422
0.0729079
0.0937085
0.0954223
0.0995039
0.102385
0.105424
0.10558
0.10373
0.0981823
0.08899
0.0776536
0.0947488
0.0965971
0.101085
0.104373
0.108106
0.108842
0.107846
0.102736
0.0940824
0.0826415
0.0957515
0.0977346
0.102625
0.106327
0.110761
0.112113
0.112024
0.107405
0.099419
0.087832
0.0967166
0.0988342
0.10412
0.108244
0.113382
0.11538
0.116236
0.11217
0.104984
0.0930305
0.0976436
0.0998911
0.105562
0.110102
0.115934
0.1186
0.120429
0.117002
0.110858
0.0980969
0.0985353
0.100898
0.106939
0.111874
0.118398
0.121751
0.124649
0.12203
0.117552
0.10414
0.000710198
0.000311787
-8.73843e-05
-0.000485642
-0.000882933
-0.00127947
-0.00167515
-0.0020696
-0.00246237
-0.00285304
-0.00324125
-0.00362669
-0.00400902
-0.00438794
-0.00476313
-0.0051343
-0.00550116
-0.00586344
-0.00622085
-0.00657314
0.000714015
0.00031422
-8.61222e-05
-0.000485314
-0.000883517
-0.0012811
-0.001678
-0.00207386
-0.00246821
-0.00286063
-0.00325078
-0.00363832
-0.00402292
-0.00440425
-0.00478199
-0.00515582
-0.00552543
-0.00589053
-0.00625085
-0.00660614
0.000722869
0.000319405
-8.46051e-05
-0.00048743
-0.000889346
-0.0012908
-0.00169175
-0.00209178
-0.00249042
-0.00288722
-0.00328181
-0.00367386
-0.00406301
-0.00444893
-0.00483127
-0.0052097
-0.0055839
-0.00595356
-0.00631838
-0.00667806
0.000735666
0.000325868
-8.43652e-05
-0.00049325
-0.000901204
-0.00130877
-0.00171592
-0.00212221
-0.00252713
-0.00293023
-0.00333113
-0.00372948
-0.00412494
-0.00451714
-0.00490574
-0.00529038
-0.00567075
-0.00604651
-0.00641737
-0.00678302
0.000752146
0.000333487
-8.53085e-05
-0.000502426
-0.000918509
-0.00133426
-0.00174965
-0.00216421
-0.00257739
-0.00298873
-0.00339784
-0.00380437
-0.00420796
-0.00460825
-0.00500487
-0.00539747
-0.00578571
-0.00616926
-0.00654779
-0.00692101
0.000772216
0.000342264
-8.73615e-05
-0.000514834
-0.000941107
-0.00136707
-0.00179273
-0.00221755
-0.00264093
-0.0030624
-0.00348158
-0.0038981
-0.0043116
-0.00472171
-0.00512805
-0.00553027
-0.005928
-0.00632092
-0.00670868
-0.00709099
0.000795788
0.000352159
-9.05128e-05
-0.000530412
-0.00096888
-0.00140704
-0.00184493
-0.00228193
-0.00271741
-0.00315086
-0.0035819
-0.00401018
-0.00443532
-0.00485695
-0.00527468
-0.00568814
-0.00609697
-0.00650082
-0.00689937
-0.00729228
0.000822827
0.000363164
-9.47252e-05
-0.000549069
-0.00100169
-0.001454
-0.00190603
-0.00235712
-0.00280655
-0.0032538
-0.00369849
-0.00414028
-0.00457878
-0.00501361
-0.00544438
-0.0058707
-0.00629222
-0.00670858
-0.00711944
-0.00752447
0.000853357
0.000375315
-9.99334e-05
-0.000570704
-0.00103941
-0.00150778
-0.00197589
-0.00244294
-0.00290816
-0.00337102
-0.00383113
-0.00428817
-0.00474174
-0.00519146
-0.00563691
-0.00607772
-0.00651352
-0.00694395
-0.00736866
-0.00778733
0.000887469
0.000388697
-0.000106042
-0.000595203
-0.0010819
-0.00156825
-0.00205433
-0.00253924
-0.0030221
-0.00350236
-0.00397968
-0.00445371
-0.00492407
-0.00539036
-0.00585216
-0.00630909
-0.00676077
-0.00720684
-0.00764696
-0.00808078
0.000925324
0.000403452
-0.000112914
-0.000622424
-0.00112902
-0.00163527
-0.00214124
-0.00264588
-0.00314824
-0.00364774
-0.00414405
-0.00463683
-0.00512571
-0.00561026
-0.00609009
-0.00656478
-0.00703396
-0.00749728
-0.00795436
-0.00840489
0.000967163
0.000419784
-0.000120367
-0.000652192
-0.00118061
-0.00170869
-0.00223648
-0.00276277
-0.0032865
-0.00380707
-0.00432418
-0.00483749
-0.00534665
-0.0058512
-0.00635075
-0.00684488
-0.00733321
-0.00781539
-0.00829104
-0.00875984
0.00101331
0.000437972
-0.00012816
-0.00068429
-0.00123647
-0.00178833
-0.00233991
-0.0028898
-0.00343679
-0.00398031
-0.00452006
-0.00505573
-0.00558694
-0.00611326
-0.00663426
-0.00714954
-0.0076587
-0.00816139
-0.00865725
-0.00914593
0.00106419
0.000458373
-0.000135987
-0.000718449
-0.00129636
-0.001874
-0.00245138
-0.00302684
-0.00359905
-0.00416742
-0.00473169
-0.00529157
-0.00584667
-0.00639656
-0.0069408
-0.00747897
-0.00801069
-0.0085356
-0.00905333
-0.00956354
0.00112031
0.000481433
-0.000143473
-0.000754343
-0.00136
-0.00196547
-0.00257069
-0.00317375
-0.00377318
-0.00436837
-0.00495909
-0.00554508
-0.00612596
-0.00670127
-0.00727057
-0.00783344
-0.00838949
-0.00893836
-0.00947969
-0.0100131
0.0011823
0.000507691
-0.00015016
-0.00079158
-0.00142706
-0.00206244
-0.00269763
-0.00333039
-0.00395908
-0.00458311
-0.00520227
-0.00581635
-0.00642494
-0.00702758
-0.00762382
-0.00821324
-0.00879546
-0.0093701
-0.0099368
-0.0104952
0.0012509
0.000537794
-0.000155506
-0.000829696
-0.00149713
-0.0021646
-0.00283193
-0.00349654
-0.00415663
-0.00481157
-0.00546124
-0.00610543
-0.00674374
-0.00737569
-0.00800083
-0.00861873
-0.009229
-0.00983128
-0.0104252
-0.0110104
0.00132697
0.000572497
-0.000158873
-0.000868145
-0.00156976
-0.00227156
-0.00297328
-0.00367199
-0.00436567
-0.00505369
-0.005736
-0.00641241
-0.00708252
-0.00774583
-0.00840188
-0.00905025
-0.00969056
-0.0103224
-0.0109455
-0.0115594
0.0014115
0.000612674
-0.000159522
-0.000906298
-0.00164439
-0.00238284
-0.00312132
-0.00385645
-0.004586
-0.00530936
-0.00602652
-0.00673733
-0.0074414
-0.00813821
-0.00882729
-0.00950821
-0.0101806
-0.0108441
-0.0114983
-0.0121428
0.00150563
0.000659325
-0.000156608
-0.000943429
-0.00172041
-0.00249793
-0.0032756
-0.00404958
-0.00481738
-0.00557842
-0.00633274
-0.00708025
-0.00782053
-0.00855306
-0.00927735
-0.00999298
-0.0106996
-0.0113967
-0.0120842
-0.0127615
0.00161061
0.000713583
-0.000149169
-0.000978716
-0.0017971