/*--------------------------------*- C++ -*----------------------------------*\
  =========                 |
  \\      /  F ield         | OpenFOAM: The Open Source CFD Toolbox
   \\    /   O peration     | Website:  https://openfoam.org
    \\  /    A nd           | Version:  7
     \\/     M anipulation  |
\*---------------------------------------------------------------------------*/
FoamFile
{
    version     2.0;
    format      ascii;
    class       volVectorField;
    location    "12";
    object      U;
}
// * * * * * * * * * * * * * * * * * * * * * * * * * * * * * * * * * * * * * //

dimensions      [0 1 -1 0 0 0 0];

internalField   nonuniform List<vector> 
433
(
(0.0106172 0.199936 4.76569e-18)
(0.0955307 0.273043 -6.48566e-18)
(0.163151 0.330943 4.70126e-18)
(0.216396 0.375447 -9.25571e-19)
(0.259316 0.409397 1.18826e-18)
(0.295247 0.43531 -5.12618e-19)
(-0.0406146 0.126846 -3.11406e-18)
(0.0469505 0.197212 -4.09576e-18)
(0.116799 0.265464 7.72068e-18)
(0.170547 0.322081 -2.04035e-18)
(0.212275 0.36593 2.3586e-19)
(0.245812 0.398957 -1.4435e-18)
(0.274339 0.423473 -4.31686e-18)
(0.300107 0.441333 -1.83301e-18)
(0.324499 0.453868 -9.60342e-19)
(0.348262 0.462017 4.7809e-18)
(0.104581 0.334806 -6.57371e-18)
(0.105772 0.309883 3.45517e-18)
(0.129822 0.327927 1.17347e-18)
(0.15689 0.357379 -8.76897e-18)
(0.181877 0.384402 4.84773e-18)
(0.204333 0.40518 -3.2874e-19)
(0.225315 0.420139 3.25746e-18)
(0.246065 0.430636 3.1743e-18)
(0.267354 0.437813 -1.56523e-18)
(0.289473 0.442381 2.50987e-18)
(0.312392 0.444722 -3.49648e-18)
(0.335921 0.445047 7.48608e-19)
(0.359817 0.443484 -2.28617e-18)
(0.383838 0.440136 -1.21135e-19)
(0.407769 0.435093 1.82887e-18)
(0.590068 1.08252 2.43339e-18)
(0.301915 0.614946 -4.97858e-20)
(0.15681 0.401636 9.98792e-19)
(0.100951 0.335721 1.74453e-19)
(0.0924021 0.336161 1.12842e-18)
(0.105241 0.35738 2.5597e-19)
(0.125503 0.379272 -2.74076e-18)
(0.147953 0.395471 2.7453e-18)
(0.171384 0.405763 -7.36856e-19)
(0.195619 0.411761 9.40892e-19)
(0.220622 0.414952 -6.21349e-18)
(0.246245 0.416255 2.18711e-18)
(0.27226 0.41611 1.69594e-18)
(0.298433 0.414674 5.19566e-19)
(0.324556 0.411973 -3.79098e-18)
(0.350458 0.407988 2.26384e-18)
(0.376003 0.402697 -1.83906e-18)
(0.401091 0.396091 -8.1108e-19)
(0.425647 0.388193 1.76437e-18)
(0.449622 0.379063 1.53862e-18)
(0.356247 0.976501 5.67644e-18)
(0.199955 0.427497 -4.18464e-18)
(0.0875555 0.141052 -1.43975e-18)
(0.0259125 0.0564653 2.74979e-18)
(0.0048198 0.0851576 2.31903e-20)
(0.0119336 0.15494 4.69139e-19)
(0.0342535 0.224591 -2.82044e-19)
(0.0621503 0.279016 -2.43714e-19)
(0.0914846 0.316702 1.43304e-19)
(0.121098 0.341058 -3.70108e-19)
(0.150685 0.356238 -1.346e-18)
(0.180108 0.365459 8.39288e-19)
(0.209246 0.370772 5.28097e-18)
(0.237993 0.373353 -6.72928e-18)
(0.266278 0.37384 2.19803e-18)
(0.294055 0.372573 2.16736e-18)
(0.321295 0.369734 1.33447e-18)
(0.347975 0.365429 -6.29922e-19)
(0.374079 0.359729 -9.0717e-19)
(0.399588 0.35271 -5.81011e-19)
(0.424488 0.344463 3.68086e-18)
(0.448768 0.335116 -2.68264e-18)
(0.47222 0.32492 3.92476e-18)
(0.495883 0.31361 -1.07898e-18)
(0.516908 0.301217 -1.44653e-18)
(-0.555782 0.522096 -3.65094e-18)
(-0.441945 0.0907519 3.89114e-18)
(-0.343237 -0.149545 -4.72846e-18)
(-0.256851 -0.21668 1.03791e-18)
(-0.180007 -0.168836 3.16106e-18)
(-0.112077 -0.068123 -3.99716e-19)
(-0.0539308 0.0399248 -2.16107e-18)
(-0.00517194 0.131233 -4.10272e-19)
(0.0362262 0.199045 1.75994e-18)
(0.0721147 0.246142 -2.05621e-18)
(0.104191 0.277793 1.23122e-18)
(0.133953 0.298807 5.65262e-19)
(0.162418 0.312642 -2.84341e-18)
(0.190193 0.321541 2.55131e-18)
(0.217604 0.326882 6.22094e-19)
(0.244798 0.329505 3.53015e-18)
(0.271815 0.329931 -6.45642e-18)
(0.298629 0.328491 3.4123e-18)
(0.325185 0.3254 -3.09092e-19)
(0.351412 0.32081 -7.01915e-19)
(0.377241 0.314852 -1.46153e-18)
(0.402613 0.307656 6.15326e-19)
(0.42748 0.299376 1.85792e-18)
(0.451604 0.290274 -3.99912e-18)
(0.475984 0.280168 -1.82052e-18)
(0.497741 0.26874 6.25333e-19)
(0.520282 0.255515 4.07252e-18)
(0.313208 1.3469 -1.96691e-17)
(-0.00679041 0.68087 6.34255e-18)
(-0.150564 0.266631 2.31782e-17)
(-0.179874 0.0626724 -9.87387e-18)
(-0.147762 0.00443799 1.05198e-19)
(-0.0909899 0.0272757 -2.23745e-18)
(-0.032886 0.0819392 3.11442e-18)
(0.0142168 0.140119 -5.13717e-18)
(0.0492324 0.18878 3.35279e-18)
(0.0763597 0.224331 4.48737e-19)
(0.0991761 0.248397 -5.49206e-19)
(0.119946 0.26424 -3.12071e-18)
(0.140359 0.274617 5.30309e-18)
(0.161342 0.281444 -1.17762e-18)
(0.18335 0.285842 -1.0673e-18)
(0.206469 0.288429 -4.07731e-20)
(0.230595 0.289513 -1.77705e-18)
(0.255516 0.289246 -1.52625e-18)
(0.280984 0.287697 -7.0153e-19)
(0.30676 0.284898 4.83522e-18)
(0.332629 0.280881 -2.30627e-18)
(0.358411 0.275692 3.33015e-18)
(0.383966 0.269409 6.62527e-20)
(0.409184 0.262153 -4.47471e-18)
(0.433783 0.254158 3.13788e-18)
(0.458705 0.245304 1.72428e-18)
(0.481077 0.234897 -3.51236e-18)
(0.504441 0.222774 -1.94811e-19)
(1.75502 3.90942 -8.66468e-18)
(0.986615 2.4151 1.31481e-19)
(0.446995 1.37862 -1.9895e-19)
(0.142902 0.768323 -3.49772e-18)
(0.011471 0.459815 3.22324e-18)
(-0.0206049 0.32881 5.54785e-19)
(-0.00825474 0.284893 -3.96045e-18)
(0.0177559 0.275318 1.51185e-18)
(0.0438757 0.275202 -2.06961e-18)
(0.0670006 0.274721 1.06357e-18)
(0.0876073 0.271789 1.44965e-18)
(0.107097 0.267366 -3.18405e-18)
(0.126665 0.262832 -1.71154e-19)
(0.147082 0.258943 1.38189e-18)
(0.168657 0.255892 -4.2803e-19)
(0.191424 0.253503 1.55229e-18)
(0.215242 0.251448 -2.54137e-19)
(0.239899 0.249369 -2.48031e-18)
(0.265165 0.24695 1.84093e-18)
(0.290819 0.243942 -8.27693e-19)
(0.316663 0.240173 3.53065e-18)
(0.342526 0.235555 -3.54036e-18)
(0.368265 0.230073 1.10846e-18)
(0.393767 0.223789 -2.84288e-19)
(0.418743 0.21689 -3.12085e-18)
(0.444082 0.209299 1.10906e-18)
(0.466981 0.199938 1.58855e-18)
(0.491029 0.188973 -1.53449e-18)
(1.86169 5.38478 -8.01899e-18)
(1.58862 4.52791 2.75669e-19)
(1.12391 3.25811 3.41496e-18)
(0.666248 2.04398 -4.59748e-18)
(0.325364 1.14341 3.60035e-18)
(0.11987 0.598145 -1.51049e-18)
(0.0212774 0.32847 3.81493e-19)
(-0.0107019 0.225262 2.00342e-19)
(-0.00758936 0.201379 -1.28208e-20)
(0.0106508 0.205096 -1.09909e-18)
(0.0332085 0.212963 4.41909e-19)
(0.0563566 0.217473 8.65175e-19)
(0.0795525 0.218089 -1.2495e-18)
(0.103005 0.216415 2.49518e-18)
(0.126763 0.213982 -1.68277e-18)
(0.150967 0.211604 -4.5471e-20)
(0.175624 0.20954 1.19018e-18)
(0.200702 0.207711 -1.63059e-18)
(0.226128 0.205896 4.60547e-19)
(0.251825 0.203843 1.30532e-18)
(0.27771 0.201328 -2.40395e-18)
(0.30369 0.198191 2.65953e-19)
(0.32967 0.194338 -6.16004e-20)
(0.355557 0.189752 6.23416e-19)
(0.381262 0.184483 1.45136e-18)
(0.406514 0.178701 -4.64628e-19)
(0.432148 0.172389 -2.6856e-18)
(0.455489 0.164091 1.37474e-18)
(0.480084 0.154321 1.10871e-18)
(-0.529249 3.68117 1.69868e-17)
(-0.139087 3.71772 -9.20617e-18)
(0.120122 3.03532 -6.15164e-18)
(0.231973 2.03456 4.72236e-18)
(0.239201 1.09099 -3.81094e-18)
(0.194476 0.415421 5.12054e-18)
(0.137566 0.0447007 -1.25241e-18)
(0.0882397 -0.0900741 -9.43057e-19)
(0.0540284 -0.0882497 -1.52005e-20)
(0.0370656 -0.0315273 -5.89695e-20)
(0.0352257 0.0315481 -7.03e-20)
(0.0443188 0.0811166 8.23659e-20)
(0.059566 0.114234 -4.90697e-19)
(0.0782374 0.134446 6.09589e-19)
(0.0991017 0.146134 -3.2521e-19)
(0.121427 0.152781 -9.05147e-19)
(0.144736 0.156552 1.50585e-18)
(0.168737 0.158631 -1.84227e-18)
(0.193237 0.159596 -2.68377e-19)
(0.218126 0.159696 3.15898e-19)
(0.243337 0.159018 -1.20931e-19)
(0.268808 0.157577 8.81564e-20)
(0.294471 0.155376 1.248e-18)
(0.320244 0.152431 2.1549e-19)
(0.346037 0.148791 4.21686e-19)
(0.371758 0.144546 -5.60837e-19)
(0.397134 0.139873 -7.17926e-19)
(0.422921 0.134823 -4.21754e-19)
(0.446615 0.12759 -7.49533e-19)
(0.471618 0.119031 -5.84715e-19)
(-1.37978 2.00971 -7.74392e-19)
(-1.10383 1.60654 3.78372e-18)
(-0.752948 1.06289 -3.50659e-18)
(-0.43809 0.510663 1.3539e-18)
(-0.210211 0.0760779 5.72671e-19)
(-0.0717588 -0.180992 1.84439e-19)
(-0.000266568 -0.273291 -1.81446e-19)
(0.0323873 -0.254399 -1.26475e-18)
(0.0469491 -0.182252 1.58293e-18)
(0.0552976 -0.0992627 -4.95048e-19)
(0.0630646 -0.0279253 -3.32995e-19)
(0.0725455 0.0244312 -5.90207e-19)
(0.0844983 0.0593834 3.70661e-19)
(0.0987358 0.0816099 -5.8634e-19)
(0.114907 0.0955289 9.66304e-19)
(0.132708 0.104267 -9.36479e-19)
(0.151917 0.109775 1.28979e-18)
(0.172375 0.113168 1.4308e-19)
(0.193962 0.115073 1.41941e-19)
(0.216557 0.115844 1.10548e-18)
(0.240025 0.115683 -1.95657e-18)
(0.264219 0.114714 1.83655e-18)
(0.288987 0.113019 -1.12376e-18)
(0.31417 0.110676 1.25755e-19)
(0.339612 0.107766 3.85579e-19)
(0.365168 0.104391 -1.01879e-18)
(0.39053 0.100723 1.02061e-18)
(0.416348 0.0968614 2.04742e-20)
(0.440321 0.0906601 -2.46081e-19)
(0.465604 0.0833029 8.13294e-19)
(1.10894 3.34171 -1.04546e-17)
(0.646141 2.49559 1.09385e-17)
(0.283367 1.64896 5.87354e-20)
(0.0674805 0.956035 1.49271e-18)
(-0.0219896 0.462839 -5.71884e-18)
(-0.0352688 0.161953 3.02873e-18)
(-0.0156654 0.0160308 -1.48973e-19)
(0.0136472 -0.0263478 -1.88999e-18)
(0.0425898 -0.0143573 1.1177e-18)
(0.0672402 0.0160309 -1.7756e-18)
(0.0854701 0.0454072 2.18883e-19)
(0.0972697 0.0664198 5.78671e-19)
(0.10556 0.0785659 7.27591e-19)
(0.113413 0.0840343 3.24594e-19)
(0.122487 0.0854643 -2.47077e-19)
(0.133363 0.0848811 -7.17161e-19)
(0.146212 0.0835187 1.4612e-20)
(0.161106 0.0819811 4.17953e-20)
(0.177992 0.0804707 -7.86752e-19)
(0.196741 0.078991 6.10165e-20)
(0.217156 0.07747 -2.60454e-19)
(0.239001 0.0758257 5.06866e-19)
(0.262028 0.0739903 -1.2618e-19)
(0.285988 0.0719199 -3.95629e-19)
(0.310641 0.0695987 4.74102e-19)
(0.335765 0.0670406 -1.45565e-19)
(0.361159 0.0642939 1.33362e-19)
(0.38649 0.0614747 5.55276e-19)
(0.412294 0.058696 -9.75098e-19)
(0.43652 0.0534828 -2.15126e-19)
(0.461988 0.0473084 -8.82034e-20)
(2.20529 7.54311 -4.83625e-19)
(2.04541 6.5677 1.50133e-18)
(1.57816 5.00336 -2.7194e-18)
(1.01971 3.3881 -2.17728e-19)
(0.541481 2.08863 1.17467e-18)
(0.219644 1.21149 6.67655e-19)
(0.0512033 0.693764 7.63667e-19)
(-0.00923816 0.419666 -1.61177e-18)
(-0.0113195 0.286487 2.40883e-19)
(0.0105816 0.222753 5.157e-19)
(0.0374169 0.187006 -3.33514e-19)
(0.0609629 0.160629 -3.27936e-19)
(0.0800996 0.137262 3.29354e-19)
(0.0961944 0.115854 -3.05429e-19)
(0.110818 0.0970054 3.93174e-19)
(0.125264 0.0812564 -2.60945e-19)
(0.140508 0.0686674 -1.36679e-20)
(0.157028 0.0588709 2.95241e-19)
(0.174974 0.0513435 -9.8518e-20)
(0.194365 0.0455369 -1.94366e-20)
(0.215127 0.0409709 9.45825e-20)
(0.237137 0.0372619 -1.28926e-19)
(0.260224 0.0341233 7.82256e-20)
(0.284196 0.0313536 4.01332e-20)
(0.308851 0.0288202 -1.04866e-19)
(0.333986 0.0264477 -1.95058e-19)
(0.359412 0.0242125 4.12761e-19)
(0.384814 0.0221644 6.5866e-20)
(0.410632 0.02041 1.37415e-20)
(0.435131 0.0161729 1.32466e-19)
(0.460717 0.0111793 -9.34874e-20)
(1.01761 5.72164 -7.95524e-19)
(0.778749 4.74024 7.938e-19)
(0.488193 3.40018 -3.93888e-19)
(0.244927 2.14497 -9.85998e-20)
(0.087333 1.20915 1.92763e-19)
(0.00811835 0.625882 -4.0002e-19)
(-0.0170403 0.317116 1.33396e-19)
(-0.0133902 0.177228 8.90236e-20)
(0.00313909 0.120945 -2.86272e-20)
(0.0246498 0.0973995 2.56226e-20)
(0.0464056 0.0827481 -3.42311e-20)
(0.0672511 0.0690562 -1.91653e-20)
(0.0874411 0.0552875 7.19749e-20)
(0.107346 0.0422738 1.46571e-20)
(0.127291 0.0307559 2.59499e-20)
(0.147566 0.0210079 -1.702e-20)
(0.168425 0.0129675 1.36202e-20)
(0.190002 0.00640792 6.59928e-20)
(0.212362 0.00106455 6.06535e-20)
(0.235501 -0.00330642 -8.26168e-20)
(0.259371 -0.00690388 -5.05428e-20)
(0.283881 -0.00988027 5.98126e-20)
(0.308906 -0.0123473 4.93101e-20)
(0.334302 -0.0143817 -1.34932e-19)
(0.359917 -0.0160241 -2.33517e-20)
(0.385478 -0.0172573 3.97488e-20)
(0.411341 -0.0179713 1.12468e-20)
(0.436132 -0.0211945 1.90274e-20)
(0.461777 -0.0249802 -4.97715e-20)
(0.999867 -0.00697997 -4.12086e-21)
(0.988949 -0.00772758 2.27061e-21)
(0.969039 -0.00907885 -1.04983e-22)
(0.940906 -0.0110059 5.54636e-22)
(0.903522 -0.0136216 1.83367e-22)
(0.857203 -0.0168436 2.76553e-22)
(0.798184 -0.0207183 2.95302e-21)
(0.727292 -0.0248915 5.14295e-21)
(0.640499 -0.0287449 -3.82013e-21)
(0.535265 -0.0314466 -5.91387e-21)
(0.999843 -0.00657984 5.58536e-21)
(0.988855 -0.00648367 -3.8898e-21)
(0.968866 -0.0068098 -7.24422e-23)
(0.940619 -0.00734198 -1.79983e-21)
(0.903103 -0.00811493 2.74636e-21)
(0.856611 -0.00866247 -6.181e-21)
(0.797426 -0.00887048 -6.87374e-21)
(0.726489 -0.0079599 1.79008e-20)
(0.639846 -0.00452633 -2.13944e-20)
(0.535264 0.000815956 1.13895e-20)
(0.999818 -0.00617249 -4.70546e-21)
(0.988763 -0.00523013 2.56481e-21)
(0.968712 -0.00452479 -2.39299e-22)
(0.940375 -0.00365686 5.51423e-21)
(0.902785 -0.00257546 -3.2396e-21)
(0.856215 -0.000427182 -4.82952e-21)
(0.797035 0.00306899 3.22356e-20)
(0.726396 0.00910478 -7.88338e-20)
(0.640324 0.0197515 1.04727e-20)
(0.537126 0.0330195 1.11151e-19)
(0.999792 -0.00575753 2.91412e-21)
(0.988674 -0.00396729 1.09344e-21)
(0.968578 -0.00222503 9.36598e-22)
(0.940174 4.38873e-05 -1.51424e-20)
(0.902574 0.00300383 5.52326e-21)
(0.856024 0.00787822 -1.32245e-20)
(0.797029 0.0150912 1.08943e-20)
(0.72701 0.0262779 -1.52681e-20)
(0.64192 0.0440211 -8.17468e-20)
(0.540846 0.0650422 -8.45104e-20)
(0.999767 -0.00533505 1.04343e-21)
(0.988589 -0.00269571 -1.26293e-21)
(0.968465 8.71578e-05 -1.07901e-20)
(0.94002 0.00376354 8.00177e-21)
(0.902474 0.00862889 -3.00727e-20)
(0.856038 0.0162442 1.98469e-20)
(0.797409 0.0271396 4.46822e-20)
(0.728333 0.0434481 -9.80226e-20)
(0.644636 0.0681824 8.45564e-20)
(0.54644 0.0967466 4.31513e-19)
(0.99974 -0.00490561 -6.96002e-21)
(0.988509 -0.0014161 -5.43867e-21)
(0.968373 0.00241074 1.51937e-20)
(0.939916 0.00751812 1.03506e-20)
(0.90249 0.014286 -1.89163e-20)
(0.856261 0.0246414 -4.78386e-20)
(0.798183 0.0391927 -6.87652e-20)
(0.730364 0.0605981 -2.34953e-19)
(0.648478 0.0921631 -1.35248e-19)
(0.553929 0.128006 5.51483e-19)
(0.999714 -0.00446924 1.93619e-20)
(0.988433 -0.000129305 -2.1575e-20)
(0.968306 0.00474144 5.19453e-20)
(0.939865 0.011297 -2.30006e-20)
(0.902622 0.0199627 1.30778e-20)
(0.856697 0.0330632 1.06277e-20)
(0.79936 0.0512405 1.2967e-19)
(0.7331 0.0777091 -6.29378e-20)
(0.653449 0.11589 7.22388e-20)
(0.563326 0.158685 -4.34312e-19)
(0.999687 -0.00402617 1.47565e-20)
(0.988363 0.00116386 4.10529e-20)
(0.968265 0.00707533 -5.66319e-20)
(0.93987 0.0150778 1.07398e-19)
(0.902877 0.0256567 8.36615e-20)
(0.85735 0.0415042 -2.21341e-19)
(0.800952 0.0632667 -1.44971e-20)
(0.73654 0.0947479 -1.86062e-20)
(0.659555 0.139283 -5.87168e-20)
(0.574636 0.188647 3.33972e-19)
(0.999661 -0.00357673 -7.68535e-20)
(0.988299 0.00246248 -2.07987e-20)
(0.968251 0.00943367 6.08378e-20)
(0.939936 0.0188627 2.8318e-20)
(0.903261 0.0313655 -2.55502e-20)
(0.858228 0.0499547 6.20176e-20)
(0.802972 0.0752541 1.3464e-19)
(0.74068 0.11168 4.19751e-19)
(0.666803 0.162258 -5.05275e-19)
(0.58785 0.217755 -3.95617e-19)
(0.999634 -0.00312136 6.13864e-20)
(0.988244 0.00376517 -2.18249e-20)
(0.968267 0.0118114 -8.55273e-20)
(0.940066 0.0226524 -1.91427e-19)
)
;

boundaryField
{
    inlet
    {
        type            uniformFixedValue;
        uniformValue    constant (1 0 0);
        value           uniform (1 0 0);
    }
    outlet
    {
        type            pressureInletOutletVelocity;
        value           nonuniform 0();
    }
    cylinder
    {
        type            fixedValue;
        value           nonuniform 0();
    }
    top
    {
        type            symmetryPlane;
    }
    bottom
    {
        type            symmetryPlane;
    }
    defaultFaces
    {
        type            empty;
    }
    procBoundary18to12
    {
        type            processor;
        value           nonuniform List<vector> 
42
(
(0.892329 4.93366 4.09545e-19)
(1.08045 5.86116 -1.32017e-18)
(1.08045 5.86116 -1.32017e-18)
(-0.678922 3.98011 -4.11541e-19)
(-0.35251 3.30573 -1.32309e-18)
(-0.101791 2.27129 6.46492e-19)
(0.054295 1.27328 1.77478e-19)
(0.128144 0.536798 -3.69277e-19)
(0.144865 0.10739 7.62078e-19)
(0.130188 -0.0799769 -2.47403e-19)
(0.104394 -0.123253 -1.95541e-19)
(0.0821026 -0.103442 9.40585e-20)
(0.0702 -0.0694779 8.71776e-21)
(0.0689772 -0.0423763 -3.71709e-20)
(0.0764904 -0.0268599 5.52856e-21)
(0.0898655 -0.0208527 -1.70012e-20)
(0.106694 -0.020778 1.48369e-20)
(0.125645 -0.0238191 4.29322e-21)
(0.146037 -0.0282218 2.80306e-20)
(0.167484 -0.0330246 3.66162e-20)
(0.189794 -0.0377285 1.00711e-20)
(0.212867 -0.0420773 -4.1119e-20)
(0.236638 -0.0459334 -1.41943e-20)
(0.261041 -0.0492241 6.41689e-20)
(0.285986 -0.0519171 -3.48459e-20)
(0.311359 -0.0540073 -4.03887e-20)
(0.337027 -0.0555068 7.75325e-20)
(0.362847 -0.0564303 -2.18454e-20)
(0.388576 -0.0567645 -6.08716e-21)
(0.414471 -0.0563891 -2.6977e-21)
(0.43955 -0.0585313 2.32933e-20)
(0.465183 -0.0610633 -4.59046e-20)
(0.999891 -0.00737276 -6.61929e-21)
(0.989046 -0.00896118 3.88485e-21)
(0.96923 -0.0113308 -7.96878e-23)
(0.941234 -0.0146416 2.87172e-21)
(0.904043 -0.0190867 -1.71291e-21)
(0.85799 -0.0249583 -1.49954e-22)
(0.799305 -0.0324717 -7.69884e-22)
(0.728801 -0.0417263 4.09189e-22)
(0.642279 -0.0528505 1.80496e-21)
(0.537138 -0.0636546 -6.96354e-21)
)
;
    }
    procBoundary18to19
    {
        type            processor;
        value           nonuniform List<vector> 
25
(
(0.260501 0.275937 1.20999e-18)
(0.269437 0.324474 -5.75734e-19)
(-0.0917928 0.115777 -1.87688e-20)
(-0.0917928 0.115777 -1.87688e-20)
(-0.137276 0.0776306 -1.68672e-18)
(-0.137276 0.0776306 -1.68672e-18)
(0.366907 0.806358 7.4449e-18)
(0.168303 0.46574 -1.18969e-17)
(0.168303 0.46574 -1.18969e-17)
(1.05407 1.89403 -3.88564e-18)
(1.05407 1.89403 -3.88564e-18)
(0.507156 1.75057 2.48594e-18)
(0.507156 1.75057 2.48594e-18)
(-0.671811 1.09051 -4.58273e-18)
(-0.671811 1.09051 -4.58273e-18)
(0.850478 2.25903 -8.86539e-18)
(2.60643 5.66888 -1.73093e-17)
(2.60643 5.66888 -1.73093e-17)
(1.74972 5.35658 -2.96745e-18)
(1.74972 5.35658 -2.96745e-18)
(-0.94113 2.71346 -5.42662e-19)
(-1.44448 2.20381 2.31358e-18)
(-1.44448 2.20381 2.31358e-18)
(1.53655 3.83547 6.55075e-19)
(1.92074 7.52057 -1.02114e-18)
)
;
    }
    procBoundary18to24
    {
        type            processor;
        value           nonuniform List<vector> 
35
(
(0.285536 0.367189 -1.19058e-18)
(0.305329 0.402141 3.90169e-19)
(0.327238 0.430124 -1.46658e-18)
(0.350359 0.452502 7.14875e-18)
(0.326556 0.454956 1.39752e-18)
(0.326556 0.454956 1.39752e-18)
(0.35482 0.469475 -1.26366e-19)
(0.381042 0.479614 -4.16399e-18)
(0.371743 0.46647 9.24554e-19)
(0.371743 0.46647 9.24554e-19)
(0.395054 0.46776 -1.16095e-18)
(0.41818 0.46631 2.00828e-18)
(0.441051 0.462462 9.4515e-20)
(0.431437 0.428443 6.44688e-19)
(0.431437 0.428443 6.44688e-19)
(0.454709 0.420283 -2.79598e-18)
(0.477492 0.410726 2.87533e-19)
(0.472986 0.368808 3.21524e-19)
(0.472986 0.368808 3.21524e-19)
(0.495522 0.357667 -6.04538e-19)
(0.518271 0.345296 4.60795e-18)
(0.538441 0.332055 -1.625e-18)
(0.538485 0.286976 -3.73252e-18)
(0.538485 0.286976 -3.73252e-18)
(0.90378 0.0370842 -1.0261e-19)
(0.85934 0.0584038 -7.65956e-20)
(0.805433 0.0871881 1.23222e-19)
(0.745515 0.128474 -8.54473e-20)
(0.675202 0.184732 -6.42367e-19)
(0.602943 0.245883 4.48813e-19)
(0.999607 -0.00266051 -1.18507e-20)
(0.988199 0.00506921 1.84768e-20)
(0.968315 0.0141826 -4.84699e-20)
(0.90378 0.0370842 -1.0261e-19)
(0.940265 0.0264424 -1.73422e-19)
)
;
    }
}


// ************************************************************************* //
