/*--------------------------------*- C++ -*----------------------------------*\
  =========                 |
  \\      /  F ield         | OpenFOAM: The Open Source CFD Toolbox
   \\    /   O peration     | Website:  https://openfoam.org
    \\  /    A nd           | Version:  7
     \\/     M anipulation  |
\*---------------------------------------------------------------------------*/
FoamFile
{
    version     2.0;
    format      ascii;
    class       surfaceScalarField;
    location    "0.2";
    object      phi;
}
// * * * * * * * * * * * * * * * * * * * * * * * * * * * * * * * * * * * * * //

dimensions      [0 3 -1 0 0 0 0];

internalField   nonuniform List<scalar> 
615
(
0.000278328
-1.11166e-11
0.000278328
-9.78534e-12
0.000278328
-9.26643e-12
0.000278328
-9.45166e-12
0.000278328
-1.02689e-11
0.000278328
-1.16676e-11
0.000278328
-1.36191e-11
0.000278328
-1.61274e-11
0.000278328
-1.92207e-11
0.000278328
-2.29344e-11
0.000278328
-2.73236e-11
0.000278328
-3.24835e-11
0.000278328
-3.85334e-11
0.000278328
-4.55977e-11
0.000278328
-5.38242e-11
0.000278328
-6.34063e-11
0.000278328
-7.4567e-11
0.000278328
-8.75483e-11
0.000278328
-1.02627e-10
0.000278328
-1.20141e-10
0.000278328
-1.40507e-10
0.000278328
-1.64209e-10
0.000278328
-1.91806e-10
0.000278328
-2.23949e-10
0.000278328
-2.61406e-10
0.000278328
-3.05067e-10
0.000278328
-3.55969e-10
0.000278329
-4.15318e-10
0.000278329
-4.84524e-10
0.000278329
-5.65229e-10
0.000278329
-6.59341e-10
0.000278329
-7.691e-10
0.000278329
-8.97115e-10
0.000278329
-1.04642e-09
0.000278329
-1.22057e-09
0.000278329
-1.42371e-09
0.00027833
-1.66067e-09
0.00027833
-1.93707e-09
0.00027833
-2.25946e-09
0.00027833
-2.63551e-09
0.000278331
-3.07418e-09
0.000278331
-3.58587e-09
0.000278331
-4.18274e-09
0.000278332
-4.87898e-09
0.000278333
-5.69112e-09
0.000278333
-6.63845e-09
0.000278334
-7.74346e-09
0.000278335
-9.0324e-09
-1.05359e-08
0.000304825
-8.33321e-10
0.000304825
-6.67156e-10
0.000304825
-5.32537e-10
0.000304825
-4.23691e-10
0.000304825
-3.35865e-10
0.000304825
-2.65164e-10
0.000304825
-2.08391e-10
0.000304825
-1.62928e-10
0.000304825
-1.26642e-10
0.000304825
-9.78012e-11
0.000304825
-7.49891e-11
0.000304825
-5.70525e-11
0.000304825
-4.30621e-11
0.000304825
-3.22708e-11
0.000304825
-2.40732e-11
0.000304825
-1.79728e-11
0.000304825
-1.35748e-11
0.000304825
-1.05715e-11
0.000304825
-8.72297e-12
0.000304825
-7.82651e-12
0.000304825
-7.73022e-12
0.000304825
-8.32866e-12
0.000304825
-9.55348e-12
0.000304825
-1.13614e-11
0.000304825
-1.37318e-11
0.000304825
-1.667e-11
0.000304825
-2.02053e-11
0.000304825
-2.43882e-11
0.000304825
-2.92969e-11
0.000304825
-3.50399e-11
0.000304825
-4.1743e-11
0.000304825
-4.95467e-11
0.000304825
-5.86207e-11
0.000304825
-6.91773e-11
0.000304825
-8.14534e-11
0.000304825
-9.57223e-11
0.000304825
-1.12285e-10
0.000304825
-1.31494e-10
0.000304825
-1.53803e-10
0.000304825
-1.79757e-10
0.000304825
-2.09975e-10
0.000304825
-2.45174e-10
0.000304825
-2.86192e-10
0.000304825
-3.34002e-10
0.000304825
-3.89738e-10
0.000304825
-4.54724e-10
0.000304825
-5.30504e-10
0.000304825
-6.18865e-10
0.000304825
-7.21899e-10
0.000304825
-8.4206e-10
0.000304825
-9.82206e-10
0.000304826
-1.14567e-09
0.000304826
-1.33633e-09
0.000304826
-1.55873e-09
0.000304826
-1.81814e-09
0.000304826
-2.12073e-09
0.000304826
-2.47369e-09
0.000304827
-2.8854e-09
0.000304827
-3.36565e-09
0.000304827
-3.92586e-09
0.000304828
-4.57933e-09
0.000304828
-5.3416e-09
0.000304829
-6.23075e-09
0.000304829
-7.26791e-09
0.00030483
-8.47771e-09
0.000304831
-9.88891e-09
-1.1535e-08
0.000331295
-7.84698e-10
0.000331295
-6.24264e-10
0.000331295
-4.94826e-10
0.000331295
-3.90634e-10
0.000331295
-3.06959e-10
0.000331295
-2.39937e-10
0.000331295
-1.86411e-10
0.000331295
-1.43805e-10
0.000331295
-1.10028e-10
0.000331295
-8.33799e-11
0.000331294
-6.24811e-11
0.000331294
-4.62142e-11
0.000331294
-3.3681e-11
0.000331294
-2.41639e-11
0.000331294
-1.70835e-11
0.000331294
-1.1975e-11
0.000331294
-8.46565e-12
0.000331294
-6.25527e-12
0.000331294
-5.10522e-12
0.000331294
-4.83123e-12
0.000331294
-5.30164e-12
0.000331294
-6.42507e-12
0.000331294
-8.14161e-12
0.000331294
-1.04136e-11
0.000331294
-1.32261e-11
0.000331294
-1.65915e-11
0.000331294
-2.05496e-11
0.000331294
-2.51681e-11
0.000331294
-3.0542e-11
0.000331294
-3.67902e-11
0.000331294
-4.40485e-11
0.000331294
-5.24683e-11
0.000331294
-6.22366e-11
0.000331294
-7.35917e-11
0.000331294
-8.67795e-11
0.000331294
-1.02113e-10
0.000331294
-1.19895e-10
0.000331294
-1.40447e-10
0.000331294
-1.64279e-10
0.000331295
-1.92002e-10
0.000331295
-2.24286e-10
0.000331295
-2.61902e-10
0.000331295
-3.05737e-10
0.000331295
-3.56827e-10
0.000331295
-4.16378e-10
0.000331295
-4.85817e-10
0.000331295
-5.66792e-10
0.000331295
-6.61199e-10
0.000331295
-7.71274e-10
0.000331295
-8.99642e-10
0.000331295
-1.04935e-09
0.000331295
-1.22397e-09
0.000331295
-1.42766e-09
0.000331295
-1.66525e-09
0.000331295
-1.94237e-09
0.000331295
-2.26562e-09
0.000331296
-2.64268e-09
0.000331296
-3.08251e-09
0.000331296
-3.59558e-09
0.000331296
-4.19406e-09
0.000331297
-4.89218e-09
0.000331297
-5.70652e-09
0.000331297
-6.65642e-09
0.000331298
-7.76444e-09
0.000331298
-9.05692e-09
0.000331299
-1.05646e-08
-1.23232e-08
0.00035768
-6.92135e-10
0.00035768
-5.45254e-10
0.000357679
-4.27492e-10
0.000357679
-3.33324e-10
0.000357679
-2.58218e-10
0.000357679
-1.98508e-10
0.000357679
-1.51215e-10
0.000357679
-1.13918e-10
0.000357679
-8.46544e-11
0.000357679
-6.1838e-11
0.000357679
-4.41884e-11
0.000357679
-3.06718e-11
0.000357679
-2.04672e-11
0.000357679
-1.29324e-11
0.000357679
-7.54333e-12
0.000357679
-3.89289e-12
0.000357679
-1.6449e-12
0.000357679
-5.189e-13
0.000357679
-2.97117e-13
0.000357679
-8.22199e-13
0.000357679
-1.99732e-12
0.000357679
-3.74552e-12
0.000357679
-6.02334e-12
0.000357679
-8.8008e-12
0.000357679
-1.2068e-11
0.000357679
-1.58502e-11
0.000357679
-2.02e-11
0.000357679
-2.51982e-11
0.000357679
-3.09569e-11
0.000357679
-3.76071e-11
0.000357679
-4.52971e-11
0.000357679
-5.41728e-11
0.000357679
-6.44444e-11
0.000357679
-7.63869e-11
0.000357679
-9.02204e-11
0.000357679
-1.06351e-10
0.000357679
-1.25045e-10
0.000357679
-1.46495e-10
0.000357679
-1.71323e-10
0.000357679
-2.00222e-10
0.000357679
-2.33897e-10
0.000357679
-2.73157e-10
0.000357679
-3.18914e-10
0.000357679
-3.72237e-10
0.000357679
-4.34376e-10
0.000357679
-5.06837e-10
0.000357679
-5.91342e-10
0.000357679
-6.89846e-10
0.000357679
-8.04687e-10
0.000357679
-9.38596e-10
0.000357679
-1.09474e-09
0.000357679
-1.27688e-09
0.00035768
-1.48937e-09
0.00035768
-1.73722e-09
0.00035768
-2.02632e-09
0.00035768
-2.36352e-09
0.00035768
-2.75684e-09
0.00035768
-3.21566e-09
0.00035768
-3.7509e-09
0.00035768
-4.37524e-09
0.000357681
-5.1035e-09
0.000357681
-5.953e-09
0.000357681
-6.94394e-09
0.000357681
-8.09982e-09
0.000357682
-9.44811e-09
0.000357682
-1.10209e-08
-1.28556e-08
0.000383818
-5.57079e-10
0.000383818
-4.31483e-10
0.000383818
-3.31845e-10
0.000383818
-2.52988e-10
0.000383818
-1.90763e-10
0.000383818
-1.41889e-10
0.000383818
-1.03707e-10
0.000383818
-7.40651e-11
0.000383818
-5.12256e-11
0.000383817
-3.37994e-11
0.000383817
-2.06644e-11
0.000383817
-1.09102e-11
0.000383817
-3.83837e-12
0.000383817
1.0596e-12
0.000383817
4.24355e-12
0.000383817
6.02177e-12
0.000383817
6.67756e-12
0.000383817
6.45534e-12
0.000383817
5.54851e-12
0.000383817
4.0838e-12
0.000383817
2.08178e-12
0.000383817
-3.55077e-13
0.000383817
-3.24238e-12
0.000383817
-6.55691e-12
0.000383817
-1.02709e-11
0.000383817
-1.44483e-11
0.000383817
-1.91507e-11
0.000383817
0.000383817
0.000383817
0.000383817
0.000383817
0.000383817
0.000383817
0.000383817
0.000383817
0.000383817
0.000383817
0.000383817
0.000383817
0.000383817
0.000383817
0.000383817
0.000383817
0.000383817
0.000383817
0.000383817
0.000383817
0.000383817
0.000383817
0.000383817
0.000383818
0.000383818
0.000383818
0.000383818
0.000383818
0.000383818
0.000383818
0.000383818
0.000383818
0.000383818
0.000383818
0.000383818
0.000383818
0.000383819
0.000383819
0.000409296
0.000409296
0.000409296
0.000409296
0.000409296
0.000409296
0.000409296
0.000409296
0.000409296
0.000409296
0.000409296
0.000409296
0.000409296
0.000409296
0.000409296
0.000409296
0.000409296
0.000409296
0.000409296
0.000409296
0.000409296
0.000409296
0.000409296
0.000409296
0.000409296
0.000409296
)
;

boundaryField
{
    inlet
    {
        type            calculated;
        value           nonuniform 0();
    }
    outlet
    {
        type            calculated;
        value           nonuniform 0();
    }
    wall
    {
        type            calculated;
        value           nonuniform 0();
    }
    wedge1
    {
        type            wedge;
        value           nonuniform List<scalar> 
344
(
-8.54417e-21
3.88392e-20
-3.87123e-19
-8.64002e-19
-1.64259e-18
-1.13092e-19
-1.8403e-19
-4.92516e-19
-9.9198e-19
-1.67362e-18
-2.56991e-19
-2.90639e-19
-7.45926e-19
-1.058e-18
-1.62715e-18
-2.75809e-19
-2.85859e-19
-7.18073e-19
-1.02708e-18
-1.63699e-18
-1.95327e-19
-2.91007e-19
-5.53978e-19
-1.02202e-18
-1.54619e-18
-2.80123e-19
-3.38789e-19
-6.02431e-19
-1.0261e-18
-1.56809e-18
-2.10008e-19
-3.37343e-19
-6.37189e-19
-1.00454e-18
-1.45889e-18
-2.38518e-19
-2.8399e-19
-5.86405e-19
-8.82889e-19
-1.3723e-18
-1.07774e-19
-2.23284e-19
-3.63203e-19
-7.58034e-19
-1.16977e-18
-1.51584e-19
-1.82519e-19
-3.43988e-19
-6.58018e-19
-1.07736e-18
-2.98348e-20
-1.37839e-19
-3.01833e-19
-5.54729e-19
-8.80436e-19
-4.46862e-20
-2.7984e-20
-2.15032e-19
-4.02105e-19
-7.40011e-19
8.07131e-20
5.75834e-20
2.31998e-20
-2.73218e-19
-5.48951e-19
3.38327e-20
7.72992e-20
2.70398e-20
-2.28825e-19
-5.34679e-19
1.37573e-19
1.43237e-19
1.79548e-19
-7.32992e-20
-3.74847e-19
1.75655e-19
3.55803e-19
2.39748e-19
1.29871e-19
-2.08719e-19
2.08232e-19
3.10265e-19
2.51428e-19
9.54591e-20
-2.57428e-19
2.10015e-19
2.88458e-19
2.3368e-19
4.83429e-20
-3.25681e-19
1.23849e-19
2.05199e-19
2.54962e-19
1.94686e-19
-2.506e-20
-4.23492e-19
1.01647e-19
1.78761e-19
2.16784e-19
1.3158e-19
-1.02264e-19
-5.25563e-19
1.03229e-19
1.61995e-19
1.88143e-19
7.54476e-20
-1.90624e-19
-6.40863e-19
1.014e-19
1.50893e-19
1.36354e-19
7.96535e-21
-2.80258e-19
-7.60995e-19
1.03972e-19
1.31543e-19
1.01374e-19
-6.27475e-20
-3.68591e-19
-8.91816e-19
9.73385e-20
1.06522e-19
4.36359e-20
-1.28205e-19
-4.81863e-19
-1.03611e-18
1.13256e-19
7.29219e-20
-1.21208e-20
-2.1652e-19
-6.00823e-19
-1.19184e-18
1.3067e-19
8.55687e-20
-3.54545e-20
-2.84523e-19
-7.09179e-19
-1.34117e-18
1.7864e-20
-2.32835e-20
-2.48033e-19
-4.13692e-19
-8.78472e-19
-1.46712e-18
7.57073e-20
-1.62794e-19
-3.40479e-19
-6.84134e-19
-9.99117e-19
1.96971e-19
-1.95757e-19
-3.4266e-19
-6.78761e-19
-1.00733e-18
3.00607e-20
-1.26097e-19
-3.24105e-19
-5.33407e-19
-9.83237e-19
1.76975e-19
-1.84445e-19
-3.31976e-19
-5.67e-19
-9.80137e-19
6.00438e-21
-1.07111e-19
-3.24672e-19
-5.90919e-19
-9.43973e-19
1.82885e-19
-1.55544e-19
-2.48581e-19
-5.30362e-19
-8.16069e-19
-9.51137e-20
-1.70118e-19
-2.33637e-19
-3.52052e-19
-7.33101e-19
-7.66426e-20
-1.43935e-19
-1.35549e-19
-3.12908e-19
-5.65962e-19
-6.3216e-20
-1.01231e-19
-8.30934e-20
-1.08538e-19
-4.40632e-19
-3.05601e-20
-4.3103e-20
4.9826e-20
-3.89936e-20
-2.28138e-19
-7.18545e-22
1.78819e-20
1.21974e-19
1.68106e-19
-8.26255e-20
4.74833e-20
8.48867e-20
2.6198e-19
2.345e-19
1.16055e-19
6.33452e-20
1.44213e-19
3.38485e-19
4.30603e-19
2.46328e-19
8.61426e-20
2.1564e-19
4.53522e-19
4.73664e-19
4.17972e-19
1.0762e-19
2.49726e-19
5.10362e-19
6.45757e-19
5.13406e-19
1.10465e-19
2.8437e-19
6.10503e-19
6.74922e-19
6.76495e-19
9.79454e-20
2.9331e-19
6.32703e-19
8.12422e-19
7.58352e-19
1.56314e-19
3.65374e-19
7.35355e-19
8.40373e-19
8.97492e-19
3.92849e-20
2.41068e-19
6.03298e-19
9.46626e-19
9.17182e-19
-2.17948e-19
-1.18424e-20
5.39449e-19
7.03778e-19
9.28359e-19
-2.20245e-19
3.03247e-21
5.68508e-19
7.16863e-19
9.94298e-19
-2.03299e-19
-1.97688e-20
5.23008e-19
8.12863e-19
9.7352e-19
-1.9216e-19
-4.29391e-20
5.5933e-19
7.54174e-19
1.01319e-18
-1.87877e-19
-8.07884e-20
5.33162e-19
8.12576e-19
9.83848e-19
-1.88018e-19
-1.2623e-19
5.51387e-19
7.45962e-19
1.02461e-18
-1.93718e-19
-1.73676e-19
5.22119e-19
7.96423e-19
1.00197e-18
-1.76237e-19
-2.26006e-19
5.57735e-19
7.1921e-19
1.01446e-18
-1.60778e-19
-2.74388e-19
5.35667e-19
7.67826e-19
9.82854e-19
-1.28512e-19
-3.0481e-19
6.028e-19
7.11936e-19
1.05238e-18
-5.70137e-20
-3.40429e-19
6.25199e-19
8.08091e-19
1.05135e-18
4.13591e-20
-3.50546e-19
7.32907e-19
7.7012e-19
1.13859e-18
1.53241e-19
-3.73467e-19
8.01296e-19
8.92668e-19
1.17354e-18
2.76748e-19
-3.71755e-19
9.44785e-19
8.82017e-19
1.28882e-18
4.14817e-19
-4.30037e-19
1.03821e-18
1.00684e-18
1.35923e-18
5.28836e-19
-4.98988e-19
1.16394e-18
1.00311e-18
1.48061e-18
6.35673e-19
-6.24211e-19
1.23003e-18
1.08483e-18
1.52803e-18
7.52165e-19
-7.92542e-19
1.35687e-18
1.03523e-18
1.63412e-18
8.58779e-19
-9.93277e-19
1.42723e-18
1.12522e-18
1.70057e-18
9.74919e-19
-1.22785e-18
1.57162e-18
1.06082e-18
1.83132e-18
1.10181e-18
-1.52286e-18
1.67069e-18
1.13985e-18
1.90848e-18
)
;
    }
    wedge2
    {
        type            wedge;
        value           nonuniform List<scalar> 
344
(
-4.11798e-19
1.43434e-19
4.1001e-19
9.95271e-19
1.65654e-18
-2.25032e-19
3.31589e-19
5.10767e-19
1.09708e-18
1.68463e-18
-1.97391e-20
4.09892e-19
7.60761e-19
1.14191e-18
1.6358e-18
5.16944e-20
3.82045e-19
7.2983e-19
1.09385e-18
1.64377e-18
1.42648e-20
3.68427e-19
5.63503e-19
1.07501e-18
1.55146e-18
1.34168e-19
4.00934e-19
6.10031e-19
1.06797e-18
1.57217e-18
9.26527e-20
3.87096e-19
6.43234e-19
1.03749e-18
1.46202e-18
1.44294e-19
3.23736e-19
5.91124e-19
9.08671e-19
1.37467e-18
3.22885e-20
2.54917e-19
3.66985e-19
7.78117e-19
1.17155e-18
9.12916e-20
2.07622e-19
3.4696e-19
6.73553e-19
1.07868e-18
-1.81744e-20
1.57704e-19
3.0416e-19
5.66639e-19
8.81394e-19
6.51408e-21
4.36462e-20
2.16806e-19
4.11172e-19
7.40689e-19
-1.10977e-19
-4.52889e-20
-2.17984e-20
2.80056e-19
5.49415e-19
-5.77742e-20
-6.76524e-20
-2.59573e-20
2.33926e-19
5.34983e-19
-1.5654e-19
-1.35855e-19
-1.78716e-19
7.69481e-20
3.75022e-19
-1.90742e-19
-3.49857e-19
-2.39106e-19
-1.27068e-19
2.08825e-19
-2.20293e-19
-3.05554e-19
-2.50928e-19
-9.33664e-20
2.57481e-19
-2.19794e-19
-2.84668e-19
-2.33284e-19
-4.67376e-20
3.25706e-19
-1.19424e-19
-2.13287e-19
-2.51832e-19
-1.9436e-19
2.636e-20
4.23507e-19
-9.78812e-20
-1.85668e-19
-2.14103e-19
-1.31299e-19
1.0341e-19
5.25584e-19
-9.99055e-20
-1.68139e-19
-1.85728e-19
-7.51878e-20
1.91741e-19
6.40902e-19
-9.83404e-20
-1.56628e-19
-1.3405e-19
-7.70831e-21
2.81456e-19
7.61064e-19
-1.01015e-19
-1.37181e-19
-9.90483e-20
6.30186e-20
3.69968e-19
8.91925e-19
-9.43418e-20
-1.12347e-19
-4.11634e-20
1.28506e-19
4.83507e-19
1.03627e-18
-1.10087e-19
-7.92016e-20
1.48545e-20
2.16866e-19
6.0282e-19
1.19206e-18
-1.27203e-19
-9.25527e-20
3.85603e-20
2.84927e-19
7.11614e-19
1.34146e-18
-1.39734e-20
1.53438e-20
2.51624e-19
4.14169e-19
8.81435e-19
1.46748e-18
-7.12569e-20
1.53633e-19
3.44674e-19
6.847e-19
1.0027e-18
-1.91824e-19
1.85091e-19
3.47588e-19
6.79435e-19
1.01165e-18
-2.40681e-20
1.13627e-19
3.29909e-19
5.34206e-19
9.88421e-19
-1.69971e-19
1.69821e-19
3.38815e-19
5.67947e-19
9.8633e-19
2.19921e-21
8.994e-20
3.32732e-19
5.92039e-19
9.51341e-19
-1.7327e-19
1.35379e-19
2.58073e-19
5.31693e-19
8.24804e-19
1.06311e-19
1.46446e-19
2.44806e-19
3.53614e-19
7.43432e-19
8.97614e-20
1.16161e-19
1.48671e-19
3.14756e-19
5.78143e-19
7.85804e-20
6.86759e-20
9.84926e-20
1.10699e-19
4.54986e-19
4.85396e-20
4.97478e-21
-3.1773e-20
4.15442e-20
2.45024e-19
2.17488e-20
-6.24974e-20
-1.00838e-19
-1.65136e-19
1.02403e-19
-2.28901e-20
-1.37055e-19
-2.37268e-19
-2.31007e-19
-9.29269e-20
-3.46236e-20
-2.05174e-19
-3.09605e-19
-4.26544e-19
-2.19306e-19
-5.25921e-20
-2.86847e-19
-4.19785e-19
-4.68897e-19
-3.86399e-19
-6.84475e-20
-3.32879e-19
-4.70961e-19
-6.40218e-19
-4.76525e-19
-6.47309e-20
-3.81448e-19
-5.64504e-19
-6.68422e-19
-6.33423e-19
-4.45526e-20
-4.0664e-19
-5.79004e-19
-8.04873e-19
-7.08067e-19
-9.39822e-20
-4.9765e-19
-6.72674e-19
-8.31515e-19
-8.3879e-19
3.39068e-20
-3.96372e-19
-5.30138e-19
-9.36286e-19
-8.48647e-19
3.02854e-19
-1.68352e-19
-4.5406e-19
-6.91772e-19
-8.48359e-19
3.19293e-19
-2.13277e-19
-4.68837e-19
-7.0278e-19
-9.00947e-19
3.18887e-19
-2.25577e-19
-4.06745e-19
-7.96515e-19
-8.64592e-19
3.2703e-19
-2.43341e-19
-4.23647e-19
-7.35004e-19
-8.86062e-19
3.45262e-19
-2.53276e-19
-3.74833e-19
-7.90316e-19
-8.35542e-19
3.71658e-19
-2.63605e-19
-3.66641e-19
-7.19862e-19
-8.51541e-19
4.0799e-19
-2.81219e-19
-3.0655e-19
-7.66113e-19
-8.00027e-19
4.26282e-19
-3.04821e-19
-3.06191e-19
-6.83677e-19
-7.78837e-19
4.52565e-19
-3.45122e-19
-2.42169e-19
-7.26562e-19
-7.07848e-19
4.68984e-19
-4.17987e-19
-2.60334e-19
-6.63532e-19
-7.31555e-19
4.5432e-19
-5.03026e-19
-2.25594e-19
-7.51901e-19
-6.77e-19
4.22211e-19
-6.33736e-19
-2.66588e-19
-7.04235e-19
-7.0178e-19
3.87691e-19
-7.7532e-19
-2.57148e-19
-8.16158e-19
-6.63783e-19
3.54586e-19
-9.68713e-19
-3.0978e-19
-7.92326e-19
-6.94018e-19
3.2183e-19
-1.13439e-18
-2.972e-19
-9.02667e-19
-6.65143e-19
3.30776e-19
-1.32682e-18
-2.9924e-19
-8.81015e-19
-6.70616e-19
3.67489e-19
-1.50662e-18
-2.20904e-19
-9.43024e-19
-5.82781e-19
4.1853e-19
-1.69444e-18
-1.79238e-19
-8.68911e-19
-5.31056e-19
5.0744e-19
-1.90945e-18
-5.29006e-20
-9.32121e-19
-4.13286e-19
6.19507e-19
-2.16031e-18
3.2287e-20
-8.34442e-19
-3.28971e-19
7.59022e-19
-2.43205e-18
2.0122e-19
-8.76932e-19
-1.55159e-19
)
;
    }
    axis
    {
        type            empty;
        value           nonuniform 0();
    }
    procBoundary13to7
    {
        type            processor;
        value           nonuniform List<scalar> 
68
(
1.23622e-11
1.0762e-11
9.96014e-12
9.84295e-12
1.03314e-11
1.13749e-11
1.29493e-11
1.50511e-11
1.76937e-11
2.09067e-11
2.47401e-11
2.92691e-11
3.45935e-11
4.08312e-11
4.81172e-11
5.66088e-11
6.64931e-11
7.79941e-11
9.13752e-11
1.06942e-10
1.25055e-10
1.46134e-10
1.70678e-10
1.99272e-10
2.32597e-10
2.71446e-10
3.16737e-10
3.69543e-10
4.31121e-10
5.02933e-10
5.86679e-10
6.84344e-10
7.98245e-10
9.31095e-10
1.08606e-09
1.26682e-09
1.47767e-09
1.72361e-09
2.0105e-09
2.34514e-09
2.73548e-09
3.1908e-09
3.7219e-09
4.34143e-09
5.06408e-09
5.90701e-09
6.89023e-09
8.03712e-09
9.3749e-09
8.39742e-10
6.75253e-10
5.41599e-10
4.33194e-10
3.45434e-10
2.74532e-10
2.17376e-10
1.71416e-10
1.34567e-10
1.05123e-10
8.16929e-11
6.31458e-11
4.85616e-11
3.71952e-11
2.84427e-11
2.18151e-11
1.69171e-11
-0.000278328
1.34306e-11
)
;
    }
    procBoundary13to12
    {
        type            processor;
        value           nonuniform List<scalar> 4(-0.000304825 -0.000331295 -0.00035768 -0.000383818);
    }
    procBoundary13to14
    {
        type            processor;
        value           nonuniform List<scalar> 5(0.000278336 0.000304832 0.0003313 0.000357683 0.000383819);
    }
    procBoundary13to18
    {
        type            processor;
        value           uniform -0.000409297;
    }
    procBoundary13to19
    {
        type            processor;
        value           nonuniform List<scalar> 
68
(
-2.44605e-11
-3.05106e-11
-3.74318e-11
-4.53682e-11
-5.45127e-11
-6.50687e-11
-7.73268e-11
-9.14709e-11
-1.08129e-10
-1.2736e-10
-1.49091e-10
-1.74301e-10
-2.03752e-10
-2.38075e-10
-2.78069e-10
-3.24678e-10
-3.79035e-10
-4.42362e-10
-5.16211e-10
-6.02351e-10
-7.02689e-10
-8.19614e-10
-9.55962e-10
-1.11495e-09
-1.3004e-09
-1.51679e-09
-1.7692e-09
-2.0636e-09
-2.407e-09
-2.80755e-09
-3.27478e-09
-3.81983e-09
-4.45564e-09
-5.1973e-09
-6.0624e-09
-7.07148e-09
-8.24856e-09
-9.62155e-09
-1.12231e-08
-1.30914e-08
-3.85429e-10
-2.88244e-10
-2.12603e-10
-1.53698e-10
-1.08053e-10
-7.30067e-11
-4.63742e-11
-2.6367e-11
-1.15495e-11
-7.90568e-13
6.82196e-12
1.19945e-11
1.52853e-11
1.70732e-11
1.76584e-11
1.72613e-11
1.60828e-11
1.43273e-11
1.2144e-11
9.59783e-12
6.7261e-12
3.54724e-12
4.45329e-14
-3.77693e-12
-7.91891e-12
-1.24628e-11
0.000409296
-1.74472e-11
)
;
    }
}


// ************************************************************************* //
