/*--------------------------------*- C++ -*----------------------------------*\
  =========                 |
  \\      /  F ield         | OpenFOAM: The Open Source CFD Toolbox
   \\    /   O peration     | Website:  https://openfoam.org
    \\  /    A nd           | Version:  7
     \\/     M anipulation  |
\*---------------------------------------------------------------------------*/
FoamFile
{
    version     2.0;
    format      ascii;
    class       surfaceScalarField;
    location    "3";
    object      phi;
}
// * * * * * * * * * * * * * * * * * * * * * * * * * * * * * * * * * * * * * //

dimensions      [0 3 -1 0 0 0 0];

internalField   nonuniform List<scalar> 
814
(
0.00476303
-0.000611671
0.00568045
0.000795275
0.00201063
-0.000119729
-0.000749288
-0.000912249
0.000180849
-0.00261245
0.00249548
-0.0046104
0.00400858
-0.0059903
0.00372748
-0.00615717
0.00198936
-0.00506477
-0.000338338
-0.00226506
-0.00184669
0.00109741
-0.00437377
0.00270792
-0.00574307
0.00386479
-0.00599911
0.00426462
-0.00576145
0.00348982
-0.00529864
0.00152656
-0.00465315
-0.000983826
-0.0037482
-0.00317001
-0.00259436
-0.00443588
-0.0014203
-0.00466207
-0.000453893
-0.00409225
0.000142408
-0.00310907
-0.00205882
-0.00100732
0.00210473
-0.00171537
0.00341597
-0.000877436
0.00302686
0.000956231
0.00243095
0.00259515
0.0018509
0.00322899
0.000892714
0.00267668
-0.000431519
0.00137741
-0.00187074
2.72125e-05
-0.00308568
-0.00085547
-0.00377939
-0.00114382
-0.0038039
-0.00102373
-0.00322915
-0.000766733
-0.00231582
-0.000535974
-0.00137828
-0.000395661
-0.000637224
-0.00033172
-0.000166029
6.93856e-05
0.00169477
0.000409959
0.00428349
0.000827246
0.00625036
0.00105998
0.00735645
0.00132487
0.0077335
0.00147385
0.00739216
0.00123405
0.00638438
0.000576262
0.0048557
-0.000342057
0.00307316
-0.00130314
0.00143278
-0.00213901
0.000254442
-0.00262557
-0.000394138
-0.00258057
-0.000618045
-0.00209191
-0.000595436
-0.00140089
-0.000476971
-0.000755688
-0.000349106
-0.000293893
-0.000244703
-3.50175e-05
-0.000170864
7.12203e-05
-0.000117607
8.06462e-05
-7.42239e-05
4.39338e-05
-3.80687e-06
0.00155282
-0.00114286
0.00307273
-0.000692661
0.00284836
0.00128434
0.00137101
0.00280222
-0.000165747
0.00301061
-0.00101165
0.00207996
-0.00100849
0.000573094
-0.000490855
-0.000859689
6.79589e-05
-0.00186195
0.000340356
-0.00241141
0.000240309
-0.00252552
-1.68214e-05
-0.00232344
-0.000234235
-0.0018745
-0.000328256
-0.00130687
-0.000311289
-0.000772656
-0.000232159
-0.000373023
-0.000135273
-0.000131904
-3.94351e-05
-2.46174e-05
3.08152e-05
1.03958e-05
7.35457e-05
1.2034e-06
9.3583e-05
-2.38443e-05
0.000102098
-5.83716e-05
0.000108972
-0.000100143
-0.0010115
-0.000131365
-0.00281471
0.00111055
-0.00469635
0.00316598
-0.00624384
0.00434971
-0.00703588
0.00380265
-0.00676921
0.00181328
-0.00546112
-0.000734992
-0.00349157
-0.00282924
-0.00146838
-0.00388515
8.86407e-05
-0.00396842
0.00101483
-0.00345171
0.00134194
-0.00265056
0.00127457
-0.00180712
0.00103342
-0.00106572
0.000770935
-0.000510174
0.000550453
-0.000152541
0.000384979
3.35696e-05
0.000263816
9.6545e-05
0.00018422
8.99921e-05
0.00013064
5.47839e-05
0.000101319
5.47691e-06
8.59794e-05
-4.30325e-05
-0.00190796
0.00177659
-0.0042526
0.00345519
-0.0049932
0.00390659
-0.00441131
0.00376782
-0.00356357
0.00295491
-0.00304065
0.00129036
-0.00289424
-0.000881401
-0.0028084
-0.00291508
-0.00245757
-0.00423597
-0.00177892
-0.00464707
-0.000988059
-0.00424257
-0.000338194
-0.00330042
5.05828e-05
-0.0021959
0.000198315
-0.00121345
0.000189343
-0.000501202
0.000108418
-7.16159e-05
1.32929e-05
0.000128695
-6.83666e-05
0.000178204
-0.000119983
0.000141608
-0.000138727
7.35282e-05
-0.000128666
-4.58407e-06
4.0204e-05
0.00173639
0.000796201
0.00269919
0.00242122
0.00228157
0.00435715
0.00183189
0.00578552
0.00152654
0.00611118
0.000964698
0.00517888
5.09026e-05
0.00335952
-0.00109572
0.00136466
-0.00224111
-0.000188174
-0.00309424
-0.00103044
-0.00340031
-0.00124333
-0.00308753
-0.00108391
-0.00235532
-0.000820091
-0.00147727
-0.000594579
-0.000726714
-0.000444076
-0.000222119
-0.000348389
3.30074e-05
-0.000279772
0.000109587
-0.000226684
8.85199e-05
-0.000179074
2.59183e-05
0.00221543
-0.000479044
0.00511847
-0.000203844
0.00657942
0.000820616
0.00663241
0.00177891
0.00601609
0.00214286
0.00515667
0.00182412
0.00421131
0.000996255
0.00315433
-3.87447e-05
0.00196888
-0.00105566
0.000784874
-0.00191023
-0.000172162
-0.00244327
-0.000744975
-0.00251472
-0.000954847
-0.00214544
-0.000903958
-0.00152816
-0.000727396
-0.000903276
-0.000522124
-0.00042739
-0.000344279
-0.000144838
-0.000210218
-2.44734e-05
-0.000111838
-9.8598e-06
0.000527656
-0.0010067
0.000583439
-0.000259628
-0.00060251
0.00200657
-0.00236014
0.00353654
-0.00359968
0.0033824
-0.00370221
0.00192665
-0.00269866
-7.29728e-06
-0.00114632
-0.00159108
0.000280464
-0.00248245
0.00115337
-0.00278314
0.00137597
-0.00266588
0.00112326
-0.002262
0.00071167
-0.00173386
0.000347932
-0.00116442
0.000110409
-0.000665754
-5.28142e-06
-0.0003117
-3.72742e-05
-0.000112845
-2.1395e-05
-4.03531e-05
-0.00165941
0.000652709
-0.00404787
0.00212884
-0.0056074
0.00356609
-0.0061876
0.00411674
-0.00608462
0.00327942
-0.00542293
0.00126496
-0.00428673
-0.0011435
-0.00279222
-0.00308559
-0.00122384
-0.00405083
5.05825e-05
-0.00405755
0.000832354
-0.00344765
0.00112975
-0.0025594
0.00104572
-0.00164983
0.000785924
-0.000904625
0.000504406
-0.000384236
0.000273651
-8.0945e-05
0.000112173
4.86333e-05
6.42387e-05
-0.00147267
0.00212538
-0.00298955
0.00364572
-0.00291584
0.00349238
-0.00174795
0.00294884
-0.000707699
0.00223918
-0.000481705
0.00103897
-0.0010724
-0.000552806
-0.00196645
-0.00219154
-0.00253384
-0.00348344
-0.00249155
-0.00409985
-0.00195973
-0.00397947
-0.00126283
-0.0032563
-0.000668624
-0.00224403
-0.000290328
-0.00128292
-0.000118797
-0.000555766
-8.26337e-05
-0.000117109
-0.000103806
6.98056e-05
0.00112465
0.00100073
0.00304268
0.00172768
0.0047443
0.00179076
0.00585796
0.00183518
0.00625763
0.00183951
0.00581722
0.00147938
0.00457526
0.000689149
0.00279373
-0.000410013
0.000970737
-0.00166044
-0.000391095
-0.00273802
-0.00105843
-0.00331213
-0.00113438
-0.00318035
-0.000880031
-0.00249838
-0.000552809
-0.00161014
-0.000282855
-0.00082572
-0.000104454
-0.00029551
-2.29348e-05
0.00195637
-0.000955637
0.00418873
-0.000504683
0.00469363
0.00128586
0.00384383
0.00268499
0.00276469
0.00291866
0.00204355
0.00220051
0.00173565
0.000997055
0.00157661
-0.000250973
0.00127635
-0.00136019
0.000731493
-0.00219316
9.6979e-05
-0.00267761
-0.000389206
-0.00269417
-0.000614383
-0.00227321
-0.000606548
-0.00161798
-0.00046472
-0.000967547
-0.000282966
-0.000477264
-0.000191697
-0.000417714
-0.000537923
-0.0013796
0.000457206
-0.00261359
0.00251984
-0.00357585
0.00364725
-0.00372102
0.00306382
-0.00282311
0.00130261
-0.0011296
-0.000696455
0.000755748
-0.00213632
0.00219745
-0.00280189
0.00288892
-0.00288462
0.00282334
-0.00261204
0.0022473
-0.00211813
0.00153279
-0.0015587
0.000919944
-0.00100513
0.000500683
-0.000548286
0.000265364
-0.000241945
-8.65649e-05
-0.00187758
0.00133966
-0.00429667
0.00287629
-0.0053066
0.00352978
-0.00504272
0.00338337
-0.00435831
0.00237941
-0.00367363
0.00061793
-0.00299867
-0.00137142
-0.00217244
-0.00296254
-0.00118621
-0.00378813
-0.00025485
-0.00381598
0.000386312
-0.0032532
0.00066737
-0.00239919
0.000635895
-0.00152722
0.000447197
-0.000816432
0.000235906
-0.000336995
6.91954e-05
-7.52336e-05
-0.000709267
0.00204893
-0.00113154
0.00329856
-0.000490041
0.00288828
0.000627999
0.00226533
0.00125495
0.00175245
0.000903122
0.000969762
-0.000310519
-0.000157782
-0.00179791
-0.00147515
-0.00290219
-0.00268385
-0.00325827
-0.0034599
-0.00291624
-0.00359523
-0.00216821
-0.00314721
-0.0013789
-0.00231653
-0.000766168
-0.00142917
-0.000387411
-0.000715753
-0.000258568
0.00180984
0.000239084
0.00428117
0.000827232
0.00563211
0.00153734
0.00574182
0.00215563
0.00510243
0.00239184
0.00402388
0.00204831
0.00268561
0.00118049
0.00124334
-3.28806e-05
-8.10781e-05
-0.00135944
-0.000973475
-0.0025675
-0.00131391
-0.00325479
-0.00120204
-0.00325909
-0.000836994
-0.00268157
-0.00043094
-0.00183522
-0.000110746
-0.00103595
-0.00046339
0.00130313
-0.00106404
0.00260371
-0.000473355
0.00249416
0.0016469
0.00153164
0.00311815
0.000812357
0.00311112
0.000761352
0.00209932
0.00122252
0.000719323
0.00175767
-0.000568033
0.00203665
-0.00163841
0.00183284
-0.00236369
0.00130515
-0.00272711
0.00070955
-0.00266349
0.000244823
-0.00221684
-1.47869e-05
-0.00157561
-9.80258e-05
-0.000952709
-7.25924e-05
-0.000488823
-0.000225056
-0.000943896
-0.000120147
-0.00231029
0.00089304
-0.0031181
0.00245471
-0.00308402
0.00308406
-0.00228692
0.00231402
-0.000877516
0.00068992
0.000831663
-0.000989857
0.00239492
-0.00213129
0.00337527
-0.00261877
0.00363586
-0.00262428
0.00324186
-0.0023331
0.00244794
-0.00186957
0.00159174
-0.00136064
0.000889675
-0.000873547
0.000420276
-0.00048331
0.000163013
-0.00023156
-0.000115694
-0.00180566
0.00168551
-0.00404501
0.00313239
-0.00476987
0.00317956
-0.00428053
0.00259473
-0.00361796
0.00165144
-0.00321353
0.000285494
-0.00296551
-0.00123788
-0.0025543
-0.0025425
-0.00186389
-0.00330917
-0.0010558
-0.00343237
-0.000371837
-0.00301707
5.0622e-05
-0.00229203
0.000191523
-0.00150155
0.00015716
-0.000839183
6.17726e-05
-0.000387923
-2.83326e-05
-0.000141454
-4.90146e-05
-0.000128181
0.00181369
6.62402e-05
0.00293797
0.000667578
0.00257823
0.00118449
0.00207781
0.00112671
0.00170922
0.000323416
0.00108879
-0.000999045
8.45786e-05
-0.00236492
-0.00117662
-0.00326703
-0.00240706
-0.00341537
-0.00328403
-0.00291275
-0.00351968
-0.00207953
-0.00312525
-0.00123862
-0.00234246
-0.000592104
-0.00148569
-0.000196016
-0.000784011
-1.43753e-05
-0.000323095
-0.000108938
0.0019548
-0.000141108
0.00440062
0.000492151
0.00528854
0.0016903
0.00473694
0.00262942
0.00359289
0.00285326
0.00236432
0.00231736
0.00123056
0.00121834
0.000231305
-0.000177365
-0.000574021
-0.00160174
-0.00109829
-0.00275976
-0.00125093
-0.00336704
-0.00107152
-0.00330466
-0.000709955
-0.00270403
-0.000332089
-0.00186356
-4.19332e-05
-0.00107417
0.000140677
-0.000505705
0.000225213
0.000849148
-0.000990256
0.0016889
-0.000347599
0.00158228
0.00179692
0.00103914
0.00317256
0.000906773
0.00137891
0.00217099
0.00283737
0.00307574
0.00275276
0.00204543
0.00122952
0.00053373
6.85283e-05
-0.000166839
-0.00107218
-0.00244648
-0.00285938
)
;

boundaryField
{
    inlet
    {
        type            calculated;
        value           nonuniform 0();
    }
    outlet
    {
        type            calculated;
        value           nonuniform 0();
    }
    cylinder
    {
        type            calculated;
        value           uniform 0;
    }
    top
    {
        type            symmetryPlane;
        value           nonuniform 0();
    }
    bottom
    {
        type            symmetryPlane;
        value           nonuniform 0();
    }
    defaultFaces
    {
        type            empty;
        value           nonuniform 0();
    }
    procBoundary20to14
    {
        type            processor;
        value           nonuniform List<scalar> 2(-0.00215022 0.000869017);
    }
    procBoundary20to25
    {
        type            processor;
        value           nonuniform List<scalar> 
20
(
-0.000193474
-8.93552e-05
0.00298563
0.00184522
0.000426263
-0.000843749
-0.0018401
-0.00243678
-0.0026597
-0.00248875
-0.00200824
-0.00139836
-0.000838799
-0.000233537
-0.000439007
8.19236e-05
0.00102671
0.00220982
-0.00222442
0.00253759
)
;
    }
    procBoundary20to26
    {
        type            processor;
        value           nonuniform List<scalar> 
28
(
-0.000146487
8.49064e-05
-9.90694e-05
-9.44435e-05
-7.72557e-05
-0.000130968
-5.26907e-05
-4.52449e-05
-4.06744e-05
4.20316e-06
-3.54578e-05
7.58115e-06
-0.000134981
9.54133e-05
-1.17133e-05
-0.000114205
0.000160232
-3.65723e-05
1.92017e-05
-0.000204076
9.40763e-05
0.000153021
-5.58445e-07
5.36514e-05
-9.50118e-05
4.55485e-05
6.9163e-05
0.000245407
)
;
    }
    procBoundary20to27
    {
        type            processor;
        value           nonuniform List<scalar> 
29
(
-0.00200114
-0.0017127
-0.00144235
0.00511217
-0.00234759
-0.00182249
-0.000754065
0.00041606
-0.00321576
0.00328204
0.00348801
0.00312584
0.00251277
0.00179288
0.000408346
0.00114752
0.000496911
0.000102088
-9.33784e-05
-0.000307726
-0.00014506
-0.000133903
-8.73173e-05
-3.37344e-05
-3.66827e-05
4.98565e-05
9.32687e-05
0.000135632
0.000119826
)
;
    }
}


// ************************************************************************* //
