/*--------------------------------*- C++ -*----------------------------------*\
  =========                 |
  \\      /  F ield         | OpenFOAM: The Open Source CFD Toolbox
   \\    /   O peration     | Website:  https://openfoam.org
    \\  /    A nd           | Version:  7
     \\/     M anipulation  |
\*---------------------------------------------------------------------------*/
FoamFile
{
    version     2.0;
    format      ascii;
    class       volVectorField;
    location    "16";
    object      U;
}
// * * * * * * * * * * * * * * * * * * * * * * * * * * * * * * * * * * * * * //

dimensions      [0 1 -1 0 0 0 0];

internalField   nonuniform List<vector> 
435
(
(1.2114 0.372279 3.14944e-21)
(1.20191 0.387141 -3.77991e-20)
(1.1503 0.41552 1.07553e-22)
(1.16673 0.407898 -1.12961e-21)
(1.18193 0.398914 1.0708e-20)
(1.1956 0.388699 -5.46257e-21)
(1.20766 0.377261 1.60735e-20)
(1.21798 0.364621 -2.68779e-22)
(1.10432 0.400758 1.21782e-21)
(1.12183 0.39781 6.4173e-22)
(1.13871 0.393836 5.68158e-21)
(1.15484 0.388849 1.13174e-20)
(1.17009 0.382854 4.66633e-21)
(1.18448 0.375793 -7.797e-21)
(1.19786 0.367774 -5.28338e-21)
(1.20997 0.358799 -2.24975e-22)
(1.22075 0.348869 -7.8592e-21)
(1.07857 0.378468 3.54698e-21)
(1.09493 0.377178 3.33813e-22)
(1.11091 0.375138 -4.76659e-22)
(1.12649 0.372353 -5.63697e-21)
(1.14161 0.368825 -1.74277e-21)
(1.15621 0.36456 -7.69228e-21)
(1.17016 0.359568 -1.11447e-20)
(1.18351 0.353867 1.28952e-21)
(1.19618 0.347366 -1.19997e-21)
(1.20796 0.340143 1.61637e-21)
(1.21877 0.332212 -7.17139e-21)
(1.08818 0.35473 -1.06394e-21)
(1.10251 0.353099 7.33547e-22)
(1.11655 0.35092 1.3976e-22)
(1.13027 0.348203 5.1466e-21)
(1.14365 0.344956 1.76621e-21)
(1.15667 0.341186 8.35685e-21)
(1.16927 0.336905 1.06146e-20)
(1.18131 0.332131 -7.37716e-21)
(1.19288 0.32679 9.01476e-21)
(1.20396 0.320935 -7.35191e-21)
(1.21437 0.314565 2.74253e-22)
(1.09617 0.332686 -3.14078e-21)
(1.10874 0.330812 5.06913e-22)
(1.12105 0.328531 3.55886e-22)
(1.13311 0.325858 1.19503e-21)
(1.14491 0.322802 -7.57041e-21)
(1.15643 0.319373 -5.71567e-21)
(1.16764 0.315573 -4.6938e-21)
(1.1785 0.311413 1.03107e-20)
(1.18902 0.30693 3.27746e-22)
(1.1992 0.302075 -3.80543e-22)
(1.20893 0.296848 -2.19018e-21)
(1.10262 0.312102 -5.61155e-22)
(1.11366 0.310096 -2.38054e-21)
(1.12449 0.307786 -3.41103e-22)
(1.13511 0.305186 -1.37395e-21)
(1.14552 0.302308 5.32317e-21)
(1.15571 0.299163 -4.72104e-21)
(1.16568 0.29576 -1.89679e-21)
(1.17541 0.29211 -4.1024e-21)
(1.18488 0.288228 -1.42385e-21)
(1.1941 0.284073 3.23099e-21)
(1.20305 0.279663 9.597e-23)
(1.10766 0.292788 1.41292e-21)
(1.11738 0.290736 2.6512e-22)
(1.12692 0.288458 4.55112e-23)
(1.1363 0.285964 1.20951e-22)
(1.14552 0.283265 -1.45758e-21)
(1.15457 0.280371 2.13727e-21)
(1.16345 0.277289 2.55253e-21)
(1.17215 0.274028 -6.1704e-22)
(1.18065 0.270596 -3.63867e-22)
(1.18898 0.266988 1.07623e-21)
(1.19714 0.263211 -1.52124e-22)
(1.11143 0.274619 -2.42402e-22)
(1.12002 0.272587 8.83028e-22)
(1.12846 0.270385 1.13421e-22)
(1.13677 0.268023 -1.51112e-21)
(1.14495 0.265508 -5.47342e-22)
(1.153 0.262848 -6.1171e-24)
(1.16092 0.26005 1.87532e-21)
(1.16871 0.257119 2.67501e-21)
(1.17637 0.254059 2.80655e-21)
(1.18391 0.250882 -3.17026e-21)
(1.19132 0.2476 2.78384e-21)
(1.11412 0.257508 -2.78775e-21)
(1.12172 0.255538 -8.66557e-22)
(1.1292 0.253443 1.97601e-22)
(1.13658 0.251228 4.47224e-22)
(1.14387 0.248901 8.48241e-22)
(1.15105 0.246468 -6.03096e-22)
(1.15814 0.243934 -4.43001e-21)
(1.16512 0.241305 -7.34906e-22)
(1.17201 0.238588 -2.26689e-22)
(1.17884 0.23579 -1.65068e-21)
(1.18561 0.232885 1.20696e-21)
(1.11587 0.241388 2.35786e-21)
(1.12261 0.239506 -2.71292e-22)
(1.12926 0.237532 1.21592e-22)
(1.13584 0.23547 -5.23811e-22)
(1.14234 0.233325 6.41164e-22)
(1.14878 0.231101 8.03835e-22)
(1.15514 0.228803 2.19056e-21)
(1.16145 0.226435 -2.63015e-21)
(1.16769 0.224003 -2.82389e-21)
(1.17383 0.22151 4.29602e-21)
(1.1799 0.218933 -1.16482e-21)
(1.11682 0.226197 -1.84848e-21)
(1.12281 0.224417 7.57687e-22)
(1.12873 0.22257 -5.56679e-22)
(1.1346 0.220658 3.55772e-22)
(1.14042 0.218685 -2.53745e-22)
(1.14619 0.216652 -5.70607e-22)
(1.15191 0.214563 1.01086e-21)
(1.15758 0.212419 -5.63677e-22)
(1.16321 0.210221 -4.32158e-22)
(1.1688 0.207972 -4.11919e-21)
(1.17434 0.205691 -7.60047e-23)
(1.11708 0.211878 1.39362e-21)
(1.12241 0.210208 -3.31157e-22)
(1.12769 0.208488 -6.68848e-22)
(1.13293 0.206722 -8.00768e-24)
(1.13814 0.20491 -4.61874e-22)
(1.14332 0.203056 -1.13176e-22)
(1.14847 0.201161 -2.63017e-22)
(1.15359 0.199226 -1.24878e-22)
(1.15869 0.197253 8.26956e-22)
(1.16376 0.195244 2.66952e-21)
(1.16881 0.193204 -2.19646e-22)
(1.11672 0.198374 2.74588e-21)
(1.12147 0.196814 5.87538e-22)
(1.12618 0.19522 6.23621e-22)
(1.13088 0.193592 4.5859e-23)
(1.13555 0.191933 5.46308e-23)
(1.14021 0.190242 2.88204e-23)
(1.14486 0.188521 -2.13198e-22)
(1.14948 0.186772 -4.02481e-22)
(1.1541 0.184995 -6.11072e-22)
(1.1587 0.183192 -8.39889e-22)
(1.1633 0.181365 4.31739e-22)
(1.11582 0.185628 -1.98279e-21)
(1.12005 0.184179 4.77613e-22)
(1.12427 0.182705 1.78964e-21)
(1.12848 0.181209 -1.52587e-22)
(1.13268 0.17969 4.41462e-23)
(1.13688 0.178149 5.33836e-22)
(1.14107 0.176588 -3.24498e-22)
(1.14526 0.175006 8.71173e-22)
(1.14944 0.173405 1.05443e-21)
(1.15362 0.171786 5.68437e-22)
(1.15781 0.170149 3.38198e-22)
(1.11443 0.173586 -3.76096e-22)
(1.11821 0.172245 -1.27998e-21)
(1.12199 0.170887 -1.13188e-21)
(1.12577 0.169514 1.05041e-22)
(1.12955 0.168125 1.06531e-22)
(1.13333 0.166722 -7.75393e-23)
(1.13712 0.165304 1.70696e-22)
(1.14092 0.163873 -2.26709e-22)
(1.14472 0.162427 -1.13171e-21)
(1.14853 0.160969 -2.83912e-22)
(1.15234 0.159498 -7.79441e-23)
(1.1126 0.162199 1.317e-21)
(1.11598 0.160962 5.75949e-22)
(1.11937 0.159714 6.04126e-22)
(1.12277 0.158456 1.48918e-22)
(1.12618 0.157188 -2.49422e-22)
(1.1296 0.155911 5.56603e-23)
(1.13302 0.154624 -1.65592e-23)
(1.13646 0.153327 2.10904e-22)
(1.13992 0.152022 3.50856e-22)
(1.14338 0.150707 -4.04086e-22)
(1.14686 0.149383 1.04412e-22)
(1.11038 0.151421 -5.14117e-22)
(1.11341 0.150283 9.87522e-22)
(1.11646 0.149139 -1.55552e-21)
(1.11952 0.14799 -3.25148e-22)
(1.12259 0.146834 2.8748e-25)
(1.12568 0.145673 -2.47111e-23)
(1.12879 0.144506 1.46411e-23)
(1.13191 0.143334 5.52261e-23)
(1.13506 0.142156 1.20977e-22)
(1.13821 0.140973 -1.80604e-23)
(1.14139 0.139784 -5.03469e-22)
(1.10781 0.14121 1.85351e-21)
(1.11053 0.140167 -1.34128e-22)
(1.11328 0.139122 1.27308e-21)
(1.11604 0.138073 7.30344e-22)
(1.11882 0.137022 -3.97784e-22)
(1.12162 0.135969 -2.68752e-22)
(1.12444 0.134912 1.92876e-23)
(1.12728 0.133853 6.89542e-23)
(1.13014 0.132791 -5.42648e-22)
(1.13302 0.131726 -1.5157e-23)
(1.13592 0.130658 3.13192e-23)
(1.10493 0.131529 -2.5881e-21)
(1.10739 0.130576 -9.24206e-22)
(1.10987 0.129623 -5.78366e-22)
(1.11236 0.128669 -4.192e-22)
(1.11488 0.127715 3.53369e-22)
(1.11742 0.126761 1.99622e-22)
(1.11999 0.125805 1.77571e-22)
(1.12257 0.124849 -1.8457e-23)
(1.12518 0.123893 1.47472e-22)
(1.12781 0.122935 -1.29809e-22)
(1.13047 0.121977 -1.61533e-23)
(1.1018 0.122342 1.26788e-21)
(1.10402 0.121475 5.32519e-22)
(1.10626 0.120609 6.73303e-22)
(1.10852 0.119744 5.47091e-23)
(1.11081 0.11888 1.00273e-22)
(1.11312 0.118017 -1.10156e-22)
(1.11546 0.117155 -3.96722e-22)
(1.11782 0.116293 7.39246e-23)
(1.1202 0.115433 -4.83372e-23)
(1.12261 0.114574 6.57719e-23)
(1.12504 0.113715 -7.1389e-23)
(1.09846 0.113619 -1.3696e-21)
(1.10047 0.112832 9.16364e-25)
(1.1025 0.112048 -2.32747e-22)
(1.10456 0.111265 2.22977e-22)
(1.10664 0.110485 3.00007e-22)
(1.10874 0.109706 -3.90212e-22)
(1.11088 0.10893 1.10963e-22)
(1.11303 0.108156 -2.10129e-22)
(1.11521 0.107383 1.26614e-22)
(1.11742 0.106612 1.56266e-24)
(1.11965 0.105844 3.30422e-23)
(1.09494 0.10533 -9.71826e-23)
(1.09677 0.104618 -1.08779e-21)
(1.09861 0.10391 -5.76235e-22)
(1.10049 0.103204 -6.48788e-22)
(1.10239 0.102501 -8.52928e-23)
(1.10431 0.101801 2.60079e-22)
(1.10626 0.101103 -4.08313e-22)
(1.10824 0.100408 2.82868e-22)
(1.11024 0.0997158 -1.27402e-22)
(1.11226 0.0990258 5.69245e-23)
(1.11431 0.0983384 8.87567e-24)
(1.09129 0.0974473 -6.89071e-22)
(1.09296 0.0968066 -1.69657e-22)
(1.09465 0.096169 -4.00635e-22)
(1.09636 0.0955347 5.56194e-22)
(1.0981 0.0949034 -1.67116e-22)
(1.09986 0.0942751 3.30187e-22)
(1.10165 0.0936499 1.3854e-22)
(1.10346 0.0930277 2.33315e-22)
(1.1053 0.0924085 -9.79063e-23)
(1.10716 0.0917922 1.7178e-22)
(1.10904 0.0911789 -1.4187e-23)
(1.08756 0.0899455 1.49752e-21)
(1.08908 0.0893708 1.06443e-21)
(1.09063 0.0887993 2.41584e-22)
(1.0922 0.0882311 -1.07233e-21)
(1.0938 0.0876661 9.06424e-23)
(1.09542 0.0871043 1.68687e-22)
(1.09706 0.0865457 7.18564e-22)
(1.09873 0.0859903 -1.53155e-22)
(1.10041 0.0854381 1.17058e-22)
(1.10213 0.0848891 -2.77502e-22)
(1.10386 0.0843433 -3.69673e-24)
(1.08377 0.0828001 -6.29711e-22)
(1.08517 0.0822868 -1.45245e-21)
(1.0866 0.0817767 4.17458e-22)
(1.08804 0.0812697 1.00016e-21)
(1.08951 0.0807659 9.64577e-22)
(1.09101 0.0802652 -3.85337e-22)
(1.09252 0.0797678 -8.79686e-22)
(1.09406 0.0792735 1.95405e-22)
(1.09562 0.0787825 -2.01853e-22)
(1.09719 0.0782947 3.95464e-22)
(1.09879 0.0778102 -3.5851e-23)
(1.07997 0.0759878 7.92365e-22)
(1.08127 0.0755314 8.20041e-22)
(1.08258 0.075078 -7.1791e-22)
(1.08392 0.0746276 -1.16504e-21)
(1.08528 0.0741801 -9.32356e-22)
(1.08666 0.0737356 3.69595e-22)
(1.08806 0.0732942 2.64413e-22)
(1.08948 0.0728559 8.21914e-23)
(1.09092 0.0724208 -3.60858e-23)
(1.09238 0.0719887 -2.71829e-23)
(1.09386 0.0715599 1.51332e-23)
(1.0762 0.0694858 -6.56169e-22)
(1.07741 0.0690821 -1.19032e-22)
(1.07863 0.068681 -5.9487e-23)
(1.07987 0.0682826 8.3636e-22)
(1.08113 0.067887 -1.06961e-22)
(1.08241 0.0674941 2.46769e-22)
(1.08371 0.067104 -8.72275e-24)
(1.08503 0.0667169 1.55766e-23)
(1.08636 0.0663327 2.07758e-23)
(1.08771 0.0659514 -3.20538e-23)
(1.08908 0.0655732 1.36332e-22)
(1.0725 0.063272 -3.3277e-22)
(1.07362 0.0629168 -5.68739e-23)
(1.07476 0.0625639 1.80642e-21)
(1.07591 0.0622134 -2.8918e-22)
(1.07709 0.0618652 2.15311e-22)
(1.07828 0.0615196 2.06321e-22)
(1.07949 0.0611765 -6.66023e-23)
(1.08071 0.0608361 -3.25336e-22)
(1.08195 0.0604983 8.48303e-23)
(1.08321 0.0601633 -1.8853e-22)
(1.08448 0.059831 -1.23896e-22)
(1.06889 0.0573246 1.06963e-21)
(1.06994 0.0570139 9.34511e-22)
(1.07101 0.0567052 -8.70476e-22)
(1.07209 0.0563985 -3.26156e-22)
(1.07319 0.0560939 4.37525e-23)
(1.0743 0.0557915 9.537e-23)
(1.07543 0.0554913 -2.44545e-22)
(1.07657 0.0551935 -1.76883e-22)
(1.07773 0.054898 1.56783e-22)
(1.0789 0.054605 -9.47948e-23)
(1.08008 0.0543146 3.71098e-22)
(1.06541 0.0516215 3.71359e-22)
(1.0664 0.0513517 -6.78961e-22)
(1.06741 0.0510834 -1.38544e-23)
(1.06842 0.0508169 1.43365e-22)
(1.06945 0.050552 1.57815e-22)
(1.0705 0.050289 6.95104e-23)
(1.07155 0.050028 -4.41587e-22)
(1.07263 0.049769 -2.86695e-22)
(1.07371 0.049512 -9.98895e-23)
(1.0748 0.0492573 1.0827e-22)
(1.07591 0.0490048 -2.42409e-22)
(1.0621 0.0461405 -4.61899e-22)
(1.06303 0.045908 1.88512e-22)
(1.06398 0.0456767 1.35402e-22)
(1.06494 0.0454467 4.18709e-22)
(1.06591 0.0452182 2.43567e-22)
(1.0669 0.0449912 -5.03981e-22)
(1.06789 0.0447658 -1.92627e-22)
(1.0689 0.0445422 8.40606e-22)
(1.06991 0.0443203 -5.74634e-23)
(1.07094 0.0441004 -4.83509e-24)
(1.07198 0.0438824 5.83651e-23)
(1.05898 0.0408587 -4.13926e-22)
(1.05987 0.0406602 -6.37913e-23)
(1.06077 0.0404626 -4.0589e-22)
(1.06168 0.0402659 -3.50829e-22)
(1.0626 0.0400705 -7.23138e-23)
(1.06353 0.0398763 1.87436e-22)
(1.06447 0.0396834 5.25219e-22)
(1.06542 0.0394919 -2.24415e-22)
(1.06637 0.039302 4.47496e-22)
(1.06734 0.0391137 -4.28009e-22)
(1.06831 0.0389271 -2.35172e-22)
(1.05608 0.035752 3.97553e-22)
(1.05693 0.0355844 -5.13788e-22)
(1.05779 0.0354174 3.78946e-22)
(1.05865 0.0352512 -1.10211e-21)
(1.05953 0.0350858 4.3506e-22)
(1.06041 0.0349215 -3.45324e-22)
(1.0613 0.0347582 -2.23248e-22)
(1.0622 0.0345961 -4.09541e-22)
(1.06311 0.0344353 -2.4694e-22)
(1.06402 0.0342758 3.20245e-24)
(1.06494 0.0341177 -4.27632e-23)
(1.05343 0.0307949 -1.37644e-22)
(1.05425 0.0306553 3.04377e-22)
(1.05507 0.0305162 5.8328e-22)
(1.0559 0.0303777 7.52981e-22)
(1.05674 0.0302398 -5.91394e-22)
(1.05758 0.0301027 3.45855e-22)
(1.05843 0.0299664 9.27547e-22)
(1.05929 0.0298311 -2.30397e-22)
(1.06015 0.0296969 -4.32289e-23)
(1.06101 0.0295637 -1.72254e-22)
(1.06188 0.0294317 2.63376e-22)
(1.05106 0.0259597 1.51228e-22)
(1.05185 0.0258458 3.07479e-22)
(1.05264 0.0257322 -6.1544e-22)
(1.05344 0.0256189 -6.90535e-23)
(1.05425 0.0255062 -8.42815e-23)
(1.05506 0.025394 -2.97304e-22)
(1.05587 0.0252825 -4.69815e-22)
(1.05669 0.0251718 2.85434e-22)
(1.05751 0.0250618 4.41307e-22)
(1.05833 0.0249528 -3.91192e-22)
(1.05916 0.0248447 5.11675e-23)
(1.04901 0.021216 -1.14805e-22)
(1.04977 0.0211255 3.61438e-22)
(1.05054 0.0210352 -3.18823e-22)
(1.05131 0.0209452 -2.90224e-23)
(1.05209 0.0208555 9.71609e-23)
(1.05287 0.0207663 -5.15234e-23)
(1.05365 0.0206775 2.86367e-22)
(1.05444 0.0205894 1.81818e-22)
(1.05523 0.020502 1.31066e-22)
(1.05602 0.0204152 -8.77633e-23)
(1.05681 0.0203292 2.57294e-23)
(1.04729 0.0165304 1.25176e-22)
(1.04803 0.0164617 6.13001e-23)
(1.04878 0.016393 -7.02465e-22)
(1.04954 0.0163245 6.82861e-22)
(1.05029 0.0162563 -8.25406e-22)
(1.05105 0.0161884 6.64101e-22)
(1.05181 0.0161209 -2.65403e-22)
(1.05257 0.0160539 -1.81179e-22)
(1.05333 0.0159874 2.41332e-22)
(1.05409 0.0159214 -2.49222e-22)
(1.05485 0.015856 2.19776e-23)
(1.04595 0.0118631 2.43021e-22)
(1.04668 0.0118146 1.63763e-22)
(1.04741 0.0117661 -5.38605e-22)
(1.04815 0.0117178 9.36907e-22)
(1.04889 0.0116697 -3.89662e-22)
(1.04963 0.0116218 -4.72801e-22)
(1.05037 0.0115743 1.80344e-22)
(1.05111 0.0115271 -1.45078e-22)
(1.05185 0.0114804 -6.92658e-23)
(1.05259 0.0114341 3.27087e-22)
(1.05333 0.0113882 -3.6036e-22)
(1.04502 0.00717335 2.99339e-22)
(1.04574 0.00714449 2.96526e-22)
(1.04646 0.0071157 -3.59807e-22)
(1.04719 0.00708701 -3.80783e-22)
(1.04791 0.00705847 2.29274e-22)
(1.04864 0.00703011 -2.76435e-22)
(1.04937 0.00700194 1.2592e-21)
(1.05009 0.00697401 -4.17768e-22)
(1.05082 0.00694632 -8.72258e-23)
(1.05154 0.00691889 -3.23669e-22)
(1.05227 0.00689174 5.78154e-22)
(1.04454 0.00240146 8.95332e-22)
(1.04526 0.00239107 -2.68142e-22)
(1.04598 0.00238084 -2.84286e-22)
(1.0467 0.00237082 -1.47093e-22)
(1.04742 0.00236102 -2.07171e-22)
(1.04814 0.00235145 7.79619e-24)
(1.04885 0.00234213 2.24232e-22)
(1.04957 0.00233305 -3.73205e-23)
(1.05029 0.00232423 9.95151e-23)
(1.051 0.00231565 2.51904e-22)
(1.05171 0.00230731 -1.74896e-22)
)
;

boundaryField
{
    inlet
    {
        type            uniformFixedValue;
        uniformValue    constant (1 0 0);
        value           nonuniform 0();
    }
    outlet
    {
        type            pressureInletOutletVelocity;
        value           nonuniform 0();
    }
    cylinder
    {
        type            fixedValue;
        value           nonuniform 0();
    }
    top
    {
        type            symmetryPlane;
    }
    bottom
    {
        type            symmetryPlane;
    }
    defaultFaces
    {
        type            empty;
    }
    procBoundary31to24
    {
        type            processor;
        value           nonuniform List<vector> 8((1.06193 0.379 8.16374e-21) (1.0736 0.355795 -8.78723e-21) (1.08338 0.334137 5.0585e-21) (1.09139 0.31379 -1.1041e-21) (1.09778 0.294599 5.06598e-21) (1.10272 0.276471 -5.52026e-21) (1.10641 0.259344 -9.22585e-22) (1.10905 0.243171 5.81811e-21));
    }
    procBoundary31to25
    {
        type            processor;
        value           nonuniform List<vector> 
14
(
(1.20519 0.374621 -4.71974e-20)
(1.19651 0.3907 -6.70382e-21)
(1.19035 0.400697 -2.20024e-20)
(1.19035 0.400697 -2.20024e-20)
(1.17689 0.412881 -2.06044e-20)
(1.16162 0.423636 1.59326e-20)
(1.14475 0.432945 -1.59468e-20)
(1.09485 0.430157 1.80733e-21)
(1.11427 0.426662 -3.01411e-21)
(1.1328 0.42177 -5.53136e-22)
(1.1328 0.42177 -5.53136e-22)
(1.06772 0.403565 -8.89493e-22)
(1.08627 0.402674 -2.19702e-22)
(1.08627 0.402674 -2.19702e-22)
)
;
    }
    procBoundary31to26
    {
        type            processor;
        value           nonuniform List<vector> 8((1.21863 0.356178 -3.75237e-21) (1.2264 0.350819 1.14266e-20) (1.23008 0.337995 -3.36404e-21) (1.22853 0.323561 3.57105e-21) (1.22405 0.307662 -4.11798e-21) (1.21816 0.291243 5.16706e-21) (1.21167 0.275001 -3.28036e-21) (1.20509 0.259259 1.17664e-21));
    }
    procBoundary31to30
    {
        type            processor;
        value           nonuniform List<vector> 
30
(
(1.11078 0.227905 3.14316e-21)
(1.11171 0.213497 -9.05884e-22)
(1.11195 0.199896 -2.99222e-21)
(1.11157 0.187051 5.24446e-21)
(1.11064 0.17491 -4.56554e-21)
(1.10922 0.163426 4.89262e-21)
(1.10735 0.152552 -9.83754e-22)
(1.10509 0.14225 -1.89869e-21)
(1.1025 0.132481 2.65335e-21)
(1.09961 0.123211 -1.18365e-21)
(1.09647 0.114408 -1.93858e-21)
(1.09314 0.106044 3.78447e-22)
(1.08965 0.0980912 5.49738e-22)
(1.08605 0.0905235 4.59964e-22)
(1.08239 0.0833166 5.45602e-22)
(1.0787 0.076447 1.9429e-22)
(1.07502 0.069892 1.13897e-22)
(1.0714 0.0636294 -3.31579e-22)
(1.06786 0.057637 1.07911e-22)
(1.06444 0.0518927 -6.57584e-22)
(1.06118 0.0463741 -1.61089e-22)
(1.0581 0.0410581 3.20644e-22)
(1.05524 0.0359202 -1.103e-22)
(1.05262 0.0309347 -2.06439e-22)
(1.05028 0.0260737 5.66782e-22)
(1.04825 0.0213064 6.88506e-22)
(1.04655 0.0165991 4.00176e-22)
(1.04522 0.0119116 2.88361e-22)
(1.04429 0.00720223 5.70013e-23)
(1.04382 0.00241199 1.63969e-22)
)
;
    }
    procBoundary31to32
    {
        type            processor;
        value           nonuniform List<vector> 
33
(
(1.19859 0.244195 -3.76081e-22)
(1.19224 0.229892 1.20745e-21)
(1.18596 0.216292 -1.69152e-21)
(1.17986 0.203366 -2.8602e-23)
(1.17384 0.191131 1.76201e-21)
(1.1679 0.179513 2.69253e-22)
(1.16201 0.16849 5.41891e-22)
(1.15616 0.158013 -4.09748e-22)
(1.15036 0.148053 -2.22539e-22)
(1.14459 0.138591 -4.388e-22)
(1.13885 0.129588 2.0309e-22)
(1.13315 0.121018 1.21684e-22)
(1.1275 0.112857 -8.93584e-23)
(1.1219 0.105077 -7.74274e-23)
(1.11638 0.0976535 2.67568e-23)
(1.11094 0.0905686 -9.95939e-24)
(1.10561 0.0838007 1.14324e-23)
(1.10041 0.077329 3.96258e-23)
(1.09536 0.0711344 -8.23152e-24)
(1.09047 0.0651981 4.43317e-24)
(1.08577 0.0595017 4.99856e-23)
(1.08128 0.0540267 5.96785e-23)
(1.07702 0.0487545 -1.40211e-22)
(1.07302 0.0436663 1.60186e-22)
(1.06929 0.0387422 -1.62535e-22)
(1.06586 0.0339611 -6.86458e-24)
(1.06275 0.0293009 6.06343e-23)
(1.05999 0.0247377 9.20385e-23)
(1.0576 0.0202441 -7.82066e-23)
(1.05562 0.0157913 3.41493e-23)
(1.05407 0.0113428 -1.85514e-22)
(1.05299 0.00686486 3.15458e-22)
(1.05242 0.00229919 -1.43097e-22)
)
;
    }
}


// ************************************************************************* //
