/*--------------------------------*- C++ -*----------------------------------*\
  =========                 |
  \\      /  F ield         | OpenFOAM: The Open Source CFD Toolbox
   \\    /   O peration     | Website:  https://openfoam.org
    \\  /    A nd           | Version:  7
     \\/     M anipulation  |
\*---------------------------------------------------------------------------*/
FoamFile
{
    version     2.0;
    format      ascii;
    class       volScalarField;
    location    "136";
    object      p;
}
// * * * * * * * * * * * * * * * * * * * * * * * * * * * * * * * * * * * * * //

dimensions      [0 2 -2 0 0 0 0];

internalField   nonuniform List<scalar> 
12400
(
-0.374607
-0.376212
-0.377121
-0.377756
-0.378498
-0.379616
-0.381346
-0.383863
-0.387289
-0.391733
-0.39731
-0.404141
-0.412329
-0.421891
-0.432664
-0.444156
-0.455352
-0.464578
-0.469516
-0.466668
-0.369631
-0.371822
-0.373053
-0.373875
-0.374711
-0.37581
-0.377378
-0.379553
-0.382411
-0.385999
-0.390354
-0.395504
-0.401446
-0.408091
-0.415195
-0.422249
-0.428353
-0.432115
-0.431498
-0.424372
-0.364933
-0.367658
-0.369181
-0.370172
-0.371089
-0.372156
-0.373548
-0.375365
-0.37763
-0.380328
-0.383413
-0.386812
-0.390405
-0.393988
-0.397223
-0.399564
-0.400209
-0.398023
-0.391289
-0.378901
-0.360684
-0.363874
-0.365655
-0.366796
-0.367784
-0.368814
-0.370029
-0.371486
-0.37316
-0.374967
-0.376778
-0.378417
-0.379644
-0.380136
-0.379451
-0.377001
-0.372051
-0.363717
-0.350593
-0.332095
-0.357039
-0.360613
-0.362612
-0.363886
-0.364936
-0.36593
-0.366974
-0.368085
-0.369187
-0.370131
-0.370704
-0.370628
-0.369549
-0.367024
-0.362515
-0.355386
-0.344948
-0.330568
-0.311224
-0.28606
-0.35413
-0.357999
-0.360172
-0.361557
-0.362663
-0.363623
-0.36451
-0.3653
-0.365867
-0.365997
-0.365398
-0.363697
-0.360431
-0.355051
-0.346932
-0.335407
-0.319815
-0.29977
-0.274891
-0.242862
-0.352062
-0.356128
-0.358427
-0.359902
-0.361055
-0.361987
-0.362735
-0.363234
-0.363311
-0.362692
-0.361012
-0.357808
-0.352522
-0.344511
-0.333083
-0.317567
-0.297343
-0.272193
-0.24297
-0.204521
-0.350903
-0.355066
-0.35744
-0.358982
-0.360172
-0.36108
-0.361707
-0.361951
-0.361592
-0.360301
-0.357645
-0.353082
-0.345971
-0.335594
-0.321209
-0.302178
-0.277975
-0.248335
-0.216267
-0.171885
-0.350687
-0.354845
-0.357244
-0.358824
-0.36004
-0.360927
-0.361453
-0.361477
-0.360738
-0.358857
-0.355339
-0.349574
-0.340852
-0.328396
-0.311431
-0.289387
-0.261946
-0.228375
-0.195102
-0.144245
-0.351411
-0.355463
-0.357834
-0.359424
-0.36065
-0.361517
-0.361957
-0.361796
-0.360733
-0.358344
-0.354082
-0.347277
-0.337162
-0.322921
-0.303771
-0.27922
-0.249353
-0.212265
-0.179354
-0.123498
-0.353037
-0.356888
-0.359176
-0.360743
-0.361961
-0.362802
-0.363168
-0.362851
-0.361516
-0.358698
-0.353803
-0.346113
-0.334817
-0.319083
-0.298146
-0.271581
-0.240126
-0.200098
-0.167518
-0.111164
-0.355494
-0.359055
-0.361208
-0.362717
-0.363901
-0.364705
-0.365001
-0.364549
-0.362982
-0.359801
-0.354371
-0.345935
-0.333652
-0.316691
-0.294349
-0.26621
-0.233572
-0.192249
-0.159938
-0.104921
-0.358689
-0.36188
-0.363845
-0.365255
-0.366374
-0.367121
-0.367339
-0.36676
-0.364987
-0.361489
-0.355599
-0.346527
-0.333417
-0.315456
-0.292027
-0.262805
-0.229467
-0.187825
-0.156022
-0.104005
-0.362505
-0.36526
-0.366987
-0.368254
-0.369267
-0.369925
-0.370044
-0.369329
-0.367355
-0.363563
-0.357256
-0.347623
-0.333805
-0.315022
-0.290783
-0.260874
-0.227301
-0.186302
-0.1548
-0.107363
-0.366822
-0.369087
-0.370527
-0.371601
-0.37246
-0.372985
-0.372967
-0.372087
-0.369894
-0.365803
-0.359092
-0.348936
-0.334487
-0.315025
-0.290198
-0.259973
-0.226479
-0.187032
-0.155591
-0.113484
-0.371517
-0.373255
-0.374361
-0.375188
-0.375836
-0.37617
-0.375963
-0.37487
-0.372419
-0.367999
-0.360867
-0.350194
-0.335162
-0.315129
-0.289901
-0.25969
-0.226532
-0.189191
-0.157911
-0.120778
-0.376481
-0.377667
-0.378398
-0.378922
-0.379292
-0.379368
-0.378902
-0.377536
-0.374769
-0.36997
-0.36238
-0.351176
-0.335584
-0.315071
-0.2896
-0.259666
-0.2271
-0.191999
-0.161234
-0.128199
-0.381623
-0.382249
-0.382566
-0.382728
-0.382749
-0.382491
-0.381693
-0.379977
-0.376827
-0.371587
-0.36349
-0.351727
-0.335587
-0.314665
-0.289092
-0.259615
-0.227866
-0.194855
-0.164922
-0.134907
-0.386883
-0.38695
-0.386819
-0.386562
-0.386165
-0.385491
-0.38428
-0.382138
-0.37853
-0.372782
-0.364121
-0.351763
-0.335077
-0.313802
-0.288237
-0.259328
-0.228546
-0.19738
-0.168412
-0.140568
-0.392234
-0.391747
-0.391141
-0.390411
-0.389527
-0.388363
-0.386661
-0.384016
-0.379875
-0.373548
-0.36426
-0.351263
-0.334021
-0.31243
-0.286949
-0.258661
-0.228916
-0.199355
-0.171345
-0.145423
-0.397683
-0.396652
-0.395544
-0.394294
-0.392862
-0.391141
-0.388877
-0.385656
-0.380908
-0.373926
-0.363937
-0.350245
-0.332425
-0.310535
-0.285181
-0.257527
-0.228824
-0.200659
-0.173682
-0.149385
-0.403269
-0.4017
-0.400067
-0.398258
-0.396229
-0.393894
-0.391004
-0.387139
-0.381707
-0.373985
-0.363211
-0.348752
-0.330318
-0.30813
-0.282921
-0.255883
-0.228174
-0.201205
-0.175471
-0.152331
-0.40906
-0.406949
-0.404772
-0.402373
-0.399708
-0.396713
-0.393145
-0.388567
-0.382367
-0.373804
-0.36214
-0.346832
-0.327738
-0.305243
-0.280182
-0.253728
-0.226926
-0.201028
-0.176348
-0.154098
-0.415141
-0.412472
-0.409734
-0.406722
-0.403393
-0.399703
-0.395405
-0.390043
-0.382974
-0.37345
-0.360776
-0.344528
-0.324731
-0.301919
-0.276997
-0.251083
-0.225103
-0.200129
-0.176342
-0.154859
-0.421601
-0.418349
-0.41503
-0.411391
-0.407379
-0.402962
-0.397881
-0.391648
-0.383591
-0.372965
-0.359153
-0.341876
-0.321337
-0.298202
-0.273408
-0.247984
-0.222735
-0.19856
-0.175532
-0.154689
-0.428529
-0.424656
-0.420739
-0.41646
-0.411751
-0.406576
-0.400648
-0.393438
-0.384248
-0.372366
-0.357284
-0.3389
-0.317597
-0.294139
-0.269458
-0.244471
-0.219864
-0.196374
-0.173995
-0.153718
-0.435999
-0.431457
-0.426923
-0.421999
-0.416576
-0.410601
-0.403743
-0.395425
-0.384939
-0.371638
-0.355165
-0.335617
-0.313541
-0.289767
-0.265179
-0.240575
-0.216525
-0.19362
-0.171809
-0.152025
-0.444061
-0.4388
-0.433632
-0.428052
-0.421893
-0.415062
-0.407167
-0.397586
-0.385624
-0.370742
-0.352776
-0.332031
-0.309192
-0.285108
-0.260593
-0.236316
-0.212744
-0.190339
-0.169029
-0.149682
-0.452738
-0.446708
-0.440889
-0.434643
-0.427713
-0.419947
-0.410881
-0.399855
-0.386228
-0.369619
-0.350087
-0.328139
-0.304558
-0.280174
-0.255706
-0.231702
-0.208538
-0.186561
-0.165699
-0.14674
-0.462019
-0.455176
-0.448693
-0.441763
-0.434013
-0.425206
-0.414803
-0.402133
-0.386655
-0.368197
-0.34706
-0.323927
-0.299634
-0.274958
-0.250512
-0.226732
-0.203913
-0.182306
-0.161852
-0.143241
-0.471862
-0.464173
-0.457013
-0.449375
-0.440732
-0.430749
-0.418818
-0.404293
-0.386793
-0.366398
-0.343651
-0.319371
-0.294401
-0.26944
-0.244993
-0.221395
-0.19887
-0.177587
-0.15751
-0.139216
-0.482186
-0.473632
-0.465787
-0.457405
-0.447775
-0.436449
-0.422773
-0.406184
-0.386519
-0.364139
-0.339808
-0.314434
-0.288826
-0.263589
-0.239122
-0.215672
-0.193401
-0.172411
-0.152688
-0.134688
-0.492876
-0.483455
-0.474919
-0.465743
-0.455002
-0.442139
-0.426492
-0.407644
-0.385708
-0.361336
-0.335476
-0.309072
-0.282869
-0.257367
-0.232868
-0.209542
-0.187496
-0.166778
-0.147395
-0.129673
-0.503779
-0.493506
-0.484275
-0.474239
-0.462239
-0.447622
-0.429776
-0.408501
-0.384236
-0.357906
-0.330593
-0.303231
-0.276478
-0.250728
-0.226193
-0.202979
-0.181143
-0.160688
-0.141638
-0.124187
-0.514707
-0.503616
-0.493682
-0.482703
-0.469271
-0.452671
-0.432411
-0.408587
-0.381981
-0.353764
-0.325093
-0.296853
-0.269599
-0.243624
-0.21906
-0.195956
-0.174324
-0.154134
-0.135419
-0.118237
-0.525436
-0.513576
-0.502931
-0.490907
-0.475851
-0.457039
-0.434183
-0.407737
-0.378829
-0.348826
-0.318906
-0.289873
-0.262174
-0.236006
-0.211431
-0.188446
-0.167025
-0.147111
-0.128737
-0.111833
-0.535708
-0.523146
-0.511773
-0.498586
-0.481705
-0.460467
-0.434877
-0.405793
-0.374669
-0.343006
-0.311959
-0.282227
-0.254145
-0.227826
-0.203266
-0.180423
-0.15923
-0.139613
-0.121592
-0.10498
-0.545235
-0.532049
-0.519929
-0.505448
-0.486542
-0.462695
-0.434289
-0.402609
-0.369395
-0.336223
-0.304179
-0.273847
-0.245455
-0.219035
-0.194531
-0.171861
-0.150924
-0.131632
-0.113982
-0.0976832
-0.553707
-0.539985
-0.527091
-0.511178
-0.490063
-0.463467
-0.432225
-0.39805
-0.362908
-0.328394
-0.295495
-0.264671
-0.236049
-0.209591
-0.185193
-0.162737
-0.142094
-0.123162
-0.105908
-0.0899515
-0.560794
-0.546632
-0.532932
-0.515452
-0.491968
-0.462542
-0.428512
-0.391992
-0.355117
-0.319444
-0.28584
-0.254639
-0.225877
-0.199453
-0.175223
-0.153033
-0.132729
-0.1142
-0.097372
-0.0817983
-0.566156
-0.551655
-0.537116
-0.517943
-0.491972
-0.459699
-0.422991
-0.384327
-0.345936
-0.309301
-0.275149
-0.243696
-0.214895
-0.188589
-0.164595
-0.142731
-0.12282
-0.104741
-0.0883753
-0.0732379
-0.569455
-0.554717
-0.539305
-0.518334
-0.489809
-0.454739
-0.415529
-0.374957
-0.335292
-0.2979
-0.263367
-0.231796
-0.203065
-0.176968
-0.153289
-0.13182
-0.112362
-0.0947813
-0.0789175
-0.0642675
-0.570357
-0.555485
-0.539173
-0.516329
-0.48524
-0.447494
-0.40601
-0.363803
-0.323119
-0.285186
-0.250446
-0.218899
-0.190356
-0.164569
-0.141292
-0.120291
-0.101348
-0.084324
-0.0690034
-0.0548502
-0.568549
-0.553644
-0.536415
-0.511661
-0.478062
-0.437825
-0.394344
-0.350799
-0.309365
-0.271114
-0.236348
-0.204975
-0.176746
-0.151376
-0.128594
-0.108138
-0.0897797
-0.0733775
-0.0586551
-0.0449613
-0.563742
-0.548902
-0.530755
-0.504097
-0.468106
-0.425623
-0.380462
-0.335897
-0.293991
-0.255651
-0.221046
-0.190002
-0.16222
-0.13738
-0.115189
-0.0953685
-0.0776675
-0.0619535
-0.0478777
-0.0347383
-0.555684
-0.541004
-0.521956
-0.49345
-0.455245
-0.410814
-0.364321
-0.319068
-0.276975
-0.238778
-0.204521
-0.173966
-0.146768
-0.122584
-0.101086
-0.0819972
-0.06504
-0.0500788
-0.036642
-0.0242015
-0.544162
-0.529734
-0.509826
-0.479574
-0.439393
-0.393356
-0.345901
-0.300301
-0.258306
-0.220484
-0.186771
-0.15687
-0.130398
-0.107009
-0.0863137
-0.0680298
-0.0519007
-0.0377485
-0.0250083
-0.013338
-0.52901
-0.514923
-0.494221
-0.462376
-0.420506
-0.373239
-0.325207
-0.279601
-0.237985
-0.20077
-0.167812
-0.138742
-0.113152
-0.0906527
-0.0708712
-0.0534915
-0.0382686
-0.024985
-0.0130063
-0.00215879
-0.510116
-0.496456
-0.475053
-0.44181
-0.398582
-0.350485
-0.302269
-0.256997
-0.216037
-0.17966
-0.147689
-0.119603
-0.0950281
-0.0735499
-0.0547872
-0.0384081
-0.0241695
-0.0118175
-0.00066039
0.0093112
-0.487419
-0.47427
-0.452284
-0.417881
-0.373659
-0.325149
-0.277142
-0.232536
-0.192518
-0.157243
-0.126392
-0.0994776
-0.0760649
-0.0557345
-0.0380969
-0.0228119
-0.00963529
0.00172262
0.0120019
0.0210414
-0.460918
-0.448359
-0.425933
-0.390642
-0.345818
-0.297317
-0.249902
-0.206293
-0.167496
-0.133527
-0.103999
-0.0784151
-0.0563086
-0.0372496
-0.0208417
-0.00674157
0.0052973
0.0156001
0.0249463
0.0329972
-0.430666
-0.418773
-0.396074
-0.360199
-0.315183
-0.267095
-0.220645
-0.178356
-0.141036
-0.10859
-0.0805739
-0.0564773
-0.0358148
-0.018146
-0.00306954
0.00975831
0.0205865
0.029775
0.038132
0.0451385
-0.396769
-0.385613
-0.362835
-0.326714
-0.281892
-0.234592
-0.189499
-0.14883
-0.113234
-0.0825168
-0.0561938
-0.0337359
-0.0146481
0.00151747
0.0151656
0.0266377
0.0361861
0.0442028
0.0515117
0.0574188
-0.359385
-0.349039
-0.326404
-0.290364
-0.246043
-0.200013
-0.156611
-0.117844
-0.0842027
-0.0554107
-0.0309479
-0.0102722
0.00711783
0.0216745
0.0338031
0.0438415
0.0520462
0.0588377
0.0650388
0.0697906
-0.318699
-0.309275
-0.287008
-0.251243
-0.207911
-0.163549
-0.122148
-0.0855423
-0.0540712
-0.0273851
-0.00493761
0.0138228
0.0294012
0.0422515
0.0527762
0.0613084
0.0681131
0.0736348
0.0786731
0.0822149
-0.274937
-0.266594
-0.244813
-0.209597
-0.167804
-0.125408
-0.0862963
-0.0520882
-0.0229817
0.00143357
0.0217248
0.038449
0.0521128
0.0631683
0.0720121
0.0789723
0.0843301
0.0885495
0.0923716
0.0946496
-0.228339
-0.221318
-0.199945
-0.165973
-0.125936
-0.0858163
-0.0492572
-0.0176574
0.00891048
0.0309079
0.0489172
0.0634982
0.0751562
0.0843391
0.0914332
0.096765
0.100643
0.103531
0.106045
0.106951
-0.179226
-0.173667
-0.153103
-0.120543
-0.0825774
-0.0450208
-0.011245
0.0175615
0.0414389
0.0608904
0.0765089
0.0888544
0.098429
0.105672
0.110959
0.114623
0.117006
0.118517
0.119508
0.118737
-0.128332
-0.123883
-0.104497
-0.0736197
-0.0380191
-0.00327934
0.027513
0.0533686
0.0744267
0.0912245
0.104361
0.114395
0.121822
0.127072
0.130509
0.132486
0.133376
0.133424
0.132538
0.129692
-0.0757804
-0.0724886
-0.0544722
-0.0255436
0.00743069
0.039137
0.0667789
0.0895543
0.107689
0.121746
0.132329
0.139992
0.145223
0.148438
0.15
0.150287
0.149674
0.148126
0.14511
0.140691
-0.0219549
-0.0199195
-0.00341853
0.0233284
0.0534523
0.0819472
0.106306
0.125901
0.141033
0.152286
0.160263
0.165512
0.168512
0.169668
0.169342
0.167937
0.165771
0.162481
0.157403
0.154171
0.0326976
0.0334096
0.0482599
0.0726273
0.0997177
0.124863
0.145841
0.162185
0.174261
0.182669
0.188008
0.190819
0.19157
0.190658
0.188446
0.185334
0.181543
0.176541
0.17013
0.167302
0.0877279
0.0870729
0.100152
0.121978
0.145894
0.167592
0.185127
0.19818
0.207173
0.212717
0.215407
0.215774
0.214276
0.211301
0.207212
0.202389
0.196962
0.190398
0.182955
0.179646
0.142684
0.140636
0.151845
0.171004
0.191648
0.209839
0.223904
0.233657
0.239567
0.242251
0.242301
0.240237
0.236506
0.231488
0.22554
0.219013
0.211979
0.203987
0.195582
0.191377
0.197115
0.193661
0.202925
0.219331
0.236646
0.251312
0.261913
0.268386
0.271238
0.271093
0.268533
0.26407
0.258138
0.25111
0.243333
0.235127
0.226537
0.217203
0.207811
0.202521
0.250568
0.245712
0.252983
0.266587
0.280559
0.291721
0.298898
0.30214
0.301988
0.299064
0.293946
0.287132
0.279049
0.270058
0.260495
0.250652
0.240565
0.229952
0.219554
0.213096
0.302603
0.29636
0.301618
0.312411
0.323066
0.33078
0.334609
0.334698
0.331618
0.325991
0.318385
0.30929
0.29912
0.288227
0.276932
0.265508
0.253986
0.242148
0.230743
0.223084
0.352787
0.345189
0.34844
0.35645
0.363854
0.368215
0.368799
0.365842
0.359936
0.351703
0.3417
0.330409
0.318232
0.305512
0.292556
0.279616
0.266726
0.253719
0.241326
0.232459
0.400702
0.391793
0.393075
0.398366
0.402624
0.403759
0.401234
0.395364
0.386758
0.376036
0.363748
0.350363
0.336275
0.321815
0.307278
0.292898
0.278713
0.264601
0.251251
0.241192
0.44595
0.435788
0.435162
0.437837
0.439089
0.437159
0.431689
0.423063
0.411906
0.398834
0.384388
0.369029
0.353139
0.337041
0.321015
0.305282
0.289883
0.274735
0.260472
0.249252
0.488153
0.476808
0.474366
0.47456
0.472979
0.468174
0.459951
0.448752
0.435214
0.419949
0.403491
0.386291
0.368724
0.351101
0.33369
0.316697
0.300173
0.284065
0.268944
0.256612
0.526959
0.514515
0.51037
0.50825
0.504043
0.496583
0.485822
0.472253
0.456524
0.439243
0.420935
0.402044
0.382935
0.363911
0.345228
0.32708
0.309526
0.292542
0.276625
0.263243
0.562043
0.548595
0.542885
0.538647
0.532049
0.52218
0.509119
0.493405
0.475693
0.456587
0.436606
0.416186
0.395684
0.375394
0.355562
0.336372
0.317889
0.300119
0.283476
0.269124
0.59311
0.578764
0.571649
0.565517
0.556788
0.544778
0.529677
0.512061
0.492591
0.471868
0.450404
0.428628
0.406892
0.385481
0.364632
0.344518
0.325216
0.306752
0.289462
0.274232
0.619897
0.604768
0.596428
0.588648
0.578073
0.564212
0.547349
0.52809
0.507101
0.484981
0.462237
0.439291
0.416488
0.39411
0.372382
0.351472
0.331465
0.312403
0.294551
0.278549
0.642177
0.62639
0.617019
0.60786
0.595743
0.580338
0.562005
0.541377
0.519123
0.495838
0.472026
0.448104
0.424412
0.401227
0.378766
0.357192
0.336598
0.317039
0.298714
0.282059
0.659757
0.643443
0.633253
0.622999
0.609661
0.593035
0.57354
0.551828
0.528572
0.504364
0.479705
0.455009
0.430613
0.406787
0.383745
0.361645
0.340584
0.320632
0.301934
0.284764
0.672483
0.655779
0.644992
0.633943
0.619719
0.602206
0.581866
0.559366
0.535379
0.510499
0.485221
0.45996
0.435048
0.410754
0.387287
0.364801
0.3434
0.323164
0.304201
0.286671
0.680239
0.663288
0.652134
0.6406
0.625834
0.607777
0.586919
0.563933
0.539495
0.514196
0.488535
0.462922
0.437688
0.413102
0.389368
0.366641
0.345027
0.324612
0.305488
0.28771
0.682949
0.665896
0.654611
0.642909
0.627953
0.609703
0.588656
0.565491
0.540884
0.515428
0.48962
0.463871
0.438513
0.413812
0.389974
0.367152
0.345452
0.324961
0.305754
0.287876
0.680578
0.663569
0.652391
0.640841
0.62605
0.607959
0.587058
0.564023
0.539533
0.514181
0.488465
0.462798
0.437514
0.412877
0.389097
0.366327
0.344671
0.32421
0.305019
0.287178
0.673129
0.65631
0.645479
0.6344
0.620129
0.602549
0.582126
0.559531
0.535442
0.510456
0.485072
0.459705
0.434692
0.4103
0.386741
0.364169
0.342687
0.322368
0.303311
0.28567
0.660648
0.644163
0.633913
0.623622
0.61022
0.5935
0.573887
0.552039
0.528634
0.504272
0.479457
0.454607
0.430061
0.406091
0.382914
0.360687
0.339508
0.319442
0.30063
0.28335
0.64322
0.627209
0.61777
0.608573
0.596385
0.580868
0.562389
0.541588
0.519146
0.495663
0.47165
0.447529
0.423644
0.400272
0.377636
0.355898
0.335149
0.315441
0.296978
0.280202
0.620968
0.605568
0.597158
0.589353
0.578711
0.56473
0.547701
0.528243
0.507033
0.484679
0.461696
0.438511
0.415476
0.392873
0.370933
0.349825
0.32963
0.310387
0.292369
0.276231
0.594056
0.579396
0.572223
0.566092
0.557314
0.545189
0.529915
0.512084
0.492369
0.471385
0.449651
0.427605
0.405602
0.383934
0.36284
0.342499
0.32298
0.304305
0.286827
0.271447
0.562686
0.548887
0.543142
0.538948
0.532336
0.522372
0.509145
0.493212
0.475244
0.455859
0.435587
0.414871
0.394076
0.373502
0.3534
0.333956
0.315232
0.297226
0.280375
0.265864
0.527092
0.514268
0.510125
0.508111
0.503945
0.496429
0.485524
0.471746
0.455762
0.438196
0.419585
0.400383
0.380964
0.361636
0.342663
0.324242
0.306424
0.289184
0.273042
0.2595
0.487548
0.4758
0.473413
0.473796
0.472333
0.46753
0.459203
0.447821
0.434044
0.418502
0.401741
0.384226
0.366339
0.3484
0.330685
0.313405
0.296602
0.280221
0.264863
0.252373
0.444356
0.433776
0.433277
0.436247
0.437716
0.435867
0.430355
0.42159
0.410225
0.396897
0.382161
0.366492
0.350284
0.333867
0.317531
0.301503
0.285815
0.27038
0.255874
0.244507
0.39785
0.388516
0.390013
0.39573
0.40033
0.401651
0.399165
0.393219
0.384454
0.373512
0.36096
0.347284
0.332889
0.318116
0.303272
0.288596
0.274118
0.259711
0.246115
0.235926
0.348391
0.34037
0.343944
0.352534
0.360435
0.365111
0.365838
0.36289
0.356891
0.34849
0.338265
0.326713
0.314252
0.301235
0.287981
0.274751
0.261569
0.248265
0.235629
0.226659
0.296365
0.28971
0.295415
0.306972
0.318304
0.326492
0.330592
0.330794
0.327706
0.321982
0.314209
0.304898
0.294478
0.283314
0.271742
0.260041
0.248233
0.2361
0.224463
0.216734
0.242181
0.23693
0.244793
0.259371
0.274232
0.286052
0.293655
0.297136
0.297082
0.294148
0.288935
0.281963
0.273676
0.26445
0.254638
0.244539
0.234178
0.223275
0.212664
0.206182
0.186264
0.182443
0.192461
0.210077
0.228524
0.244062
0.255268
0.26213
0.265206
0.265156
0.262589
0.25804
0.251962
0.244746
0.236759
0.228326
0.219476
0.209859
0.200284
0.195031
0.129057
0.126676
0.138816
0.159449
0.181498
0.200805
0.215681
0.225996
0.232276
0.235179
0.235325
0.233262
0.229456
0.224307
0.218196
0.211481
0.204202
0.195924
0.187378
0.183305
0.0710112
0.0700665
0.0842699
0.107858
0.133483
0.15657
0.17515
0.188962
0.198491
0.204394
0.2073
0.207769
0.206278
0.203239
0.199045
0.194085
0.188437
0.181562
0.174021
0.17102
0.012588
0.0130601
0.0292396
0.0556814
0.0848138
0.111653
0.133935
0.151258
0.164057
0.172983
0.178674
0.1817
0.182554
0.181655
0.179402
0.176219
0.17225
0.166873
0.16031
0.158159
-0.0457491
-0.0438954
-0.0258516
0.00330306
0.0358309
0.0663527
0.0923023
0.113118
0.129179
0.141128
0.149607
0.155199
0.158409
0.159665
0.159366
0.15796
0.155696
0.151963
0.146469
0.144706
-0.103536
-0.100355
-0.0805791
-0.0488908
-0.0131242
0.0209699
0.0505145
0.0747752
0.0940644
0.10901
0.12026
0.128406
0.133965
0.137378
0.13904
0.139399
0.138821
0.136893
0.132823
0.130512
-0.16031
-0.155884
-0.134519
-0.100515
-0.0617112
-0.0241964
0.00883464
0.0364608
0.0589166
0.0768104
0.0907923
0.101461
0.109347
0.114903
0.118522
0.120628
0.121649
0.121548
0.119711
0.116095
-0.215611
-0.210051
-0.187253
-0.151192
-0.109594
-0.0688517
-0.0324785
-0.00159714
0.023937
0.0447066
0.0613605
0.0745031
0.0846745
0.0923422
0.0979046
0.101751
0.104306
0.105854
0.106293
0.10442
-0.26908
-0.262391
-0.238373
-0.200553
-0.156445
-0.112708
-0.0731728
-0.0391767
-0.0106785
0.0128713
0.0321168
0.0476663
0.0600669
0.0697994
0.0772738
0.0828567
0.0869341
0.0899751
0.0923954
0.0927973
-0.320556
-0.312411
-0.287533
-0.248251
-0.201948
-0.155488
-0.113004
-0.0760635
-0.044741
-0.0185288
0.00320827
0.02108
0.0356384
0.0473743
0.0567124
0.0640115
0.0696156
0.0740574
0.0780621
0.0802581
-0.369246
-0.359707
-0.334633
-0.293967
-0.245803
-0.196925
-0.151741
-0.112053
-0.0780699
-0.0493346
-0.025225
-0.00513225
0.0114979
0.025163
0.0363003
0.0452714
0.0523883
0.0581827
0.0635285
0.0671583
-0.414846
-0.404205
-0.378686
-0.337563
-0.287732
-0.236767
-0.18916
-0.146951
-0.110495
-0.0793958
-0.0530503
-0.0308538
-0.0122518
0.00325605
0.016116
0.0266963
0.0352898
0.0424058
0.0489875
0.0539223
-0.457103
-0.445544
-0.419696
-0.378358
-0.327516
-0.274775
-0.225055
-0.180576
-0.141857
-0.108572
-0.0801441
-0.0559758
-0.0355151
-0.0182616
-0.00376457
0.00835125
0.0183693
0.0267714
0.0345293
0.0407054
-0.495768
-0.483417
-0.457495
-0.416132
-0.364815
-0.31073
-0.259231
-0.212762
-0.172009
-0.136735
-0.106393
-0.0803977
-0.0582032
-0.0393114
-0.0232706
-0.00969976
0.00168005
0.0113193
0.0201925
0.0275462
-0.53064
-0.517579
-0.49183
-0.450803
-0.399326
-0.34444
-0.291512
-0.243354
-0.20082
-0.163767
-0.131692
-0.104028
-0.0802352
-0.0598214
-0.0423374
-0.0273984
-0.0147277
-0.00391044
0.00601116
0.0144789
-0.561553
-0.54785
-0.522489
-0.482178
-0.430962
-0.37567
-0.321746
-0.272221
-0.228171
-0.189565
-0.155953
-0.126786
-0.101539
-0.0797273
-0.0609076
-0.0446929
-0.030808
-0.0188766
-0.00797232
0.001548
-0.588384
-0.57411
-0.549325
-0.510074
-0.459573
-0.404312
-0.349793
-0.29925
-0.253962
-0.214039
-0.179093
-0.148602
-0.122051
-0.0989726
-0.0789302
-0.0615373
-0.0465194
-0.0335396
-0.021715
-0.0112032
-0.611066
-0.596298
-0.572247
-0.534365
-0.485018
-0.430251
-0.375552
-0.32435
-0.27812
-0.237114
-0.201047
-0.169415
-0.141716
-0.117509
-0.0963613
-0.0778913
-0.0618251
-0.0478647
-0.0351805
-0.0237387
-0.62959
-0.614406
-0.591222
-0.55498
-0.5072
-0.453391
-0.398939
-0.347441
-0.30058
-0.258758
-0.221752
-0.189179
-0.160488
-0.135298
-0.113164
-0.0937213
-0.0766936
-0.0618238
-0.0483405
-0.0360293
-0.644007
-0.628488
-0.606272
-0.571901
-0.526066
-0.473663
-0.419892
-0.368467
-0.321284
-0.278911
-0.24122
-0.207843
-0.178331
-0.15231
-0.129307
-0.109001
-0.0910981
-0.0753947
-0.0611739
-0.0480502
-0.654425
-0.638652
-0.617479
-0.585158
-0.541603
-0.491034
-0.438373
-0.387398
-0.340203
-0.297535
-0.259381
-0.22542
-0.195259
-0.168505
-0.144767
-0.123711
-0.105017
-0.0885594
-0.0736649
-0.0597811
-0.661009
-0.645067
-0.624977
-0.594834
-0.553844
-0.505503
-0.454369
-0.404219
-0.357326
-0.314622
-0.276222
-0.241876
-0.211229
-0.183907
-0.159554
-0.137832
-0.11844
-0.101302
-0.0857961
-0.0712136
-0.663974
-0.647953
-0.628961
-0.601066
-0.562862
-0.5171
-0.46789
-0.418938
-0.372663
-0.330182
-0.291751
-0.257206
-0.226235
-0.198493
-0.173647
-0.15138
-0.131407
-0.113586
-0.097534
-0.0823678
-0.663586
-0.647576
-0.629671
-0.60404
-0.568775
-0.52589
-0.478972
-0.431578
-0.386233
-0.344235
-0.305989
-0.271425
-0.240287
-0.212262
-0.187044
-0.164337
-0.143865
-0.125461
-0.108856
-0.0932993
-0.660148
-0.644245
-0.627395
-0.60399
-0.571744
-0.531972
-0.487676
-0.442182
-0.398073
-0.356813
-0.318962
-0.284558
-0.253405
-0.225232
-0.199756
-0.176707
-0.155821
-0.136928
-0.119827
-0.103852
-0.653995
-0.638298
-0.62246
-0.601193
-0.571973
-0.535476
-0.494083
-0.450809
-0.40823
-0.367957
-0.330708
-0.296637
-0.265619
-0.237426
-0.211805
-0.188509
-0.167293
-0.147991
-0.130447
-0.114037
-0.645489
-0.630099
-0.615218
-0.595962
-0.569703
-0.536567
-0.4983
-0.457532
-0.416765
-0.377721
-0.341275
-0.307703
-0.276964
-0.248876
-0.223218
-0.199769
-0.178302
-0.158657
-0.14072
-0.123908
-0.635003
-0.620022
-0.60604
-0.588639
-0.565211
-0.535439
-0.500456
-0.46244
-0.423746
-0.386165
-0.350716
-0.317807
-0.287483
-0.259619
-0.234028
-0.210514
-0.188873
-0.168946
-0.15066
-0.133502
-0.622914
-0.608442
-0.595306
-0.579584
-0.558802
-0.532317
-0.500699
-0.465634
-0.429252
-0.393357
-0.359094
-0.327003
-0.297226
-0.269699
-0.244274
-0.22078
-0.199035
-0.178885
-0.160291
-0.142835
-0.609595
-0.595728
-0.583389
-0.569164
-0.550798
-0.527449
-0.499199
-0.467227
-0.433364
-0.399366
-0.366474
-0.335353
-0.30625
-0.279169
-0.254002
-0.230607
-0.208825
-0.188508
-0.16964
-0.151921
-0.595402
-0.582228
-0.570646
-0.557741
-0.541536
-0.521106
-0.496146
-0.467343
-0.43617
-0.404265
-0.37292
-0.342919
-0.314614
-0.288082
-0.263263
-0.240042
-0.218287
-0.197854
-0.178739
-0.160783
-0.580667
-0.568267
-0.557412
-0.54566
-0.53135
-0.51357
-0.491746
-0.466116
-0.437759
-0.408122
-0.378499
-0.349766
-0.322381
-0.296501
-0.272114
-0.249139
-0.227468
-0.206968
-0.187629
-0.169454
-0.565694
-0.554132
-0.543985
-0.533241
-0.520562
-0.505131
-0.486219
-0.463692
-0.438223
-0.411006
-0.383271
-0.355957
-0.329615
-0.304488
-0.280618
-0.257957
-0.236422
-0.215899
-0.196356
-0.177972
-0.550748
-0.540078
-0.530628
-0.520768
-0.509474
-0.496075
-0.479794
-0.460225
-0.437657
-0.412978
-0.38729
-0.361547
-0.33638
-0.31211
-0.288841
-0.266561
-0.245212
-0.224705
-0.204971
-0.186381
-0.536057
-0.526316
-0.517557
-0.508483
-0.498354
-0.486673
-0.472705
-0.45588
-0.436158
-0.414096
-0.390602
-0.366587
-0.342732
-0.319433
-0.296854
-0.275021
-0.253906
-0.233449
-0.213533
-0.194732
-0.521808
-0.513017
-0.504948
-0.496584
-0.48743
-0.47717
-0.46518
-0.450828
-0.433828
-0.414413
-0.393241
-0.371116
-0.348726
-0.326521
-0.304728
-0.283415
-0.262579
-0.242205
-0.222108
-0.203082
-0.508146
-0.500312
-0.492932
-0.48522
-0.476884
-0.46778
-0.457433
-0.445244
-0.430777
-0.413981
-0.395232
-0.37516
-0.354402
-0.333436
-0.312539
-0.291825
-0.271317
-0.251052
-0.230771
-0.211496
-0.495183
-0.488298
-0.481601
-0.474498
-0.466854
-0.458676
-0.449657
-0.439301
-0.427121
-0.412855
-0.396592
-0.37873
-0.359789
-0.34023
-0.32036
-0.300339
-0.280211
-0.260084
-0.239608
-0.220049
-0.482998
-0.477039
-0.471014
-0.464483
-0.457431
-0.449987
-0.442013
-0.433161
-0.422985
-0.411096
-0.397333
-0.381824
-0.364901
-0.346945
-0.328263
-0.309049
-0.289366
-0.269404
-0.248716
-0.228827
-0.471646
-0.46658
-0.461204
-0.455209
-0.448669
-0.441803
-0.434631
-0.426976
-0.418498
-0.40878
-0.397474
-0.38443
-0.369731
-0.353607
-0.336309
-0.318049
-0.298892
-0.279131
-0.258208
-0.237924
-0.461171
-0.456949
-0.452188
-0.446689
-0.440592
-0.434179
-0.427609
-0.420876
-0.413794
-0.405999
-0.397043
-0.386531
-0.374258
-0.360222
-0.34455
-0.32743
-0.308913
-0.289399
-0.26821
-0.247458
-0.451609
-0.448167
-0.443975
-0.438925
-0.433208
-0.42715
-0.42102
-0.414978
-0.409008
-0.402868
-0.396094
-0.38812
-0.378446
-0.366774
-0.353013
-0.337277
-0.319554
-0.300365
-0.278885
-0.25754
-0.442999
-0.440255
-0.436572
-0.431919
-0.426523
-0.42074
-0.414926
-0.409386
-0.404279
-0.39952
-0.394715
-0.389212
-0.382256
-0.37322
-0.361702
-0.347654
-0.330946
-0.312194
-0.290403
-0.268376
-0.43538
-0.433236
-0.42999
-0.425678
-0.420549
-0.414977
-0.409388
-0.404205
-0.399751
-0.396114
-0.393031
-0.389857
-0.385664
-0.379501
-0.370581
-0.358598
-0.343192
-0.325092
-0.303011
-0.280053
-0.428789
-0.427128
-0.424244
-0.420217
-0.415307
-0.409902
-0.404476
-0.399548
-0.395581
-0.392833
-0.39121
-0.390156
-0.388673
-0.385548
-0.379574
-0.370088
-0.35639
-0.339207
-0.316987
-0.293208
-0.423246
-0.421946
-0.419342
-0.415548
-0.410825
-0.405561
-0.400267
-0.395534
-0.391935
-0.389883
-0.389461
-0.390266
-0.391337
-0.391305
-0.388573
-0.38205
-0.370532
-0.354796
-0.332605
-0.307739
-0.418763
-0.417676
-0.415278
-0.411679
-0.407124
-0.401999
-0.396839
-0.392283
-0.388985
-0.387482
-0.388026
-0.390401
-0.393775
-0.396755
-0.397448
-0.394323
-0.385578
-0.371667
-0.351116
-0.325578
-0.415303
-0.414289
-0.412027
-0.408592
-0.404205
-0.399243
-0.394251
-0.389895
-0.386884
-0.385843
-0.387162
-0.390818
-0.396175
-0.401939
-0.406089
-0.40667
-0.401402
-0.389792
-0.372177
-0.345097
-0.41279
-0.411721
-0.409534
-0.406245
-0.402038
-0.397283
-0.39252
-0.388428
-0.38574
-0.385136
-0.387105
-0.391791
-0.398781
-0.406982
-0.414438
-0.418838
-0.417652
-0.408793
-0.393987
-0.366007
-0.411112
-0.409876
-0.407715
-0.404562
-0.400561
-0.396068
-0.391617
-0.387882
-0.385596
-0.385461
-0.388027
-0.393561
-0.401861
-0.412083
-0.422513
-0.430615
-0.433836
-0.428252
-0.416155
-0.388291
-0.410115
-0.408635
-0.406461
-0.403443
-0.399678
-0.395511
-0.391463
-0.388191
-0.386414
-0.386826
-0.39
-0.396282
-0.405642
-0.417479
-0.430426
-0.441906
-0.449532
-0.447779
-0.438813
-0.411978
-0.409626
-0.407855
-0.405649
-0.402769
-0.399272
-0.395493
-0.391937
-0.389238
-0.388085
-0.389144
-0.392983
-0.399988
-0.410251
-0.423374
-0.438352
-0.452746
-0.464483
-0.46694
-0.461809
-0.436886
-0.409463
-0.407388
-0.405146
-0.402415
-0.399216
-0.39588
-0.392895
-0.390863
-0.390437
-0.392244
-0.396826
-0.404578
-0.415672
-0.429862
-0.446452
-0.463251
-0.478595
-0.485291
-0.484631
-0.462476
-0.40944
-0.407086
-0.40482
-0.402255
-0.399382
-0.396532
-0.394176
-0.392884
-0.393263
-0.395894
-0.401286
-0.40983
-0.421739
-0.436876
-0.454783
-0.473522
-0.491882
-0.502479
-0.506629
-0.487924
-0.409385
-0.406804
-0.404544
-0.402164
-0.399642
-0.397307
-0.395615
-0.395101
-0.396325
-0.399822
-0.406063
-0.415429
-0.428159
-0.444189
-0.463226
-0.48355
-0.504366
-0.51829
-0.527199
-0.512302
-0.40914
-0.406411
-0.404198
-0.402028
-0.399872
-0.398064
-0.397043
-0.397309
-0.399377
-0.403734
-0.410819
-0.421002
-0.434544
-0.451439
-0.471488
-0.493153
-0.515957
-0.532601
-0.545825
-0.534745
-0.408568
-0.405788
-0.403671
-0.401735
-0.399954
-0.398667
-0.398296
-0.399308
-0.402172
-0.407334
-0.415207
-0.426157
-0.440463
-0.458173
-0.479146
-0.501975
-0.52638
-0.545245
-0.562028
-0.554542
-0.407554
-0.404831