/*--------------------------------*- C++ -*----------------------------------*\
  =========                 |
  \\      /  F ield         | OpenFOAM: The Open Source CFD Toolbox
   \\    /   O peration     | Website:  https://openfoam.org
    \\  /    A nd           | Version:  7
     \\/     M anipulation  |
\*---------------------------------------------------------------------------*/
FoamFile
{
    version     2.0;
    format      ascii;
    class       surfaceScalarField;
    location    "9";
    object      phi;
}
// * * * * * * * * * * * * * * * * * * * * * * * * * * * * * * * * * * * * * //

dimensions      [0 3 -1 0 0 0 0];

internalField   nonuniform List<scalar> 
10970
(
-1.88656e-05
1.88656e-05
-6.57242e-12
-5.1702e-05
3.28364e-05
-7.96937e-12
-8.76017e-05
3.58997e-05
3.64576e-12
-0.000117391
2.97892e-05
3.75928e-11
-0.000133978
1.65868e-05
9.00094e-11
-0.000130694
-3.28401e-06
1.59492e-10
-0.00010123
-2.94646e-05
2.41924e-10
-3.92733e-05
-6.19567e-05
3.32711e-10
5.68395e-05
-9.61132e-05
4.23866e-10
-0.00013575
5.07282e-10
0.000192589
-1.84739e-05
3.73395e-05
-5.0339e-05
6.47015e-05
-8.46773e-05
7.0238e-05
-0.000112262
5.73736e-05
-0.000125905
3.02301e-05
-0.000118815
-1.0374e-05
-8.45265e-05
-6.37531e-05
-1.65774e-05
-0.000129906
8.7211e-05
-0.000199902
-0.000280925
0.000232386
-1.76973e-05
5.50368e-05
-4.76331e-05
9.46373e-05
-7.88675e-05
0.000101472
-0.000102068
8.05738e-05
-0.000109858
3.80206e-05
-9.52001e-05
-2.5032e-05
-5.13245e-05
-0.000107629
2.87091e-05
-0.000209939
0.000147548
-0.00031874
-0.000444675
0.000311298
-1.65492e-05
7.1586e-05
-4.36234e-05
0.000121712
-7.02487e-05
0.000128098
-8.69359e-05
9.72609e-05
-8.60333e-05
3.7118e-05
-6.01362e-05
-5.09291e-05
-1.81935e-06
-0.000165946
9.59186e-05
-0.000307677
0.000236945
-0.000459766
-0.000635694
0.000427963
-1.50488e-05
8.66349e-05
-3.83664e-05
0.000145029
-5.89317e-05
0.000148663
-6.70506e-05
0.00010538
-5.47145e-05
2.47819e-05
-1.40725e-05
-9.15711e-05
6.26894e-05
-0.000242707
0.000183968
-0.000428956
0.000354044
-0.000629843
-0.000862008
0.000580359
-1.32205e-05
9.98553e-05
-3.19337e-05
0.000163742
-4.5057e-05
0.000161786
-4.26466e-05
0.000102969
-1.62655e-05
-1.59915e-06
4.24708e-05
-0.000150307
0.000142056
-0.000342293
0.000291726
-0.000578625
0.000497078
-0.000835195
-0.00113076
0.000765824
-1.1092e-05
0.000110947
-2.44083e-05
0.000177059
-2.87895e-05
0.000166167
-1.40011e-05
8.81811e-05
2.88802e-05
-4.44805e-05
0.000108837
-0.000230265
0.000235087
-0.000468543
0.00041772
-0.000761258
0.000663878
-0.00108135
-0.00144797
0.00098109
-8.69389e-06
0.000119641
-1.5882e-05
0.000184247
-1.03124e-05
0.000160598
1.85739e-05
5.92948e-05
8.02343e-05
-0.000106141
0.00018428
-0.00033431
0.000340663
-0.000624925
0.000560239
-0.000980835
0.000851897
-0.00137301
-0.00181837
0.0012223
-6.05789e-06
0.000125699
-6.45051e-06
0.000184639
1.01798e-05
0.000143968
5.47447e-05
1.47298e-05
0.000137264
-0.00018866
0.000267977
-0.000465023
0.000457535
-0.000814483
0.000717362
-0.00124066
0.00105823
-0.00171388
-0.00224516
0.00148502
-3.21737e-06
0.000128916
3.78715e-06
0.000177635
3.2487e-05
0.000115268
9.41627e-05
-4.69458e-05
0.000199403
-0.0002939
0.000359046
-0.000624666
0.000584345
-0.00103978
0.000886982
-0.0015433
0.00127965
-0.00210654
-0.00272983
0.00176432
-1.45018e-07
0.000129062
1.47411e-05
0.000162749
5.64104e-05
7.35984e-05
0.000136473
-0.000127009
0.000266067
-0.000423494
0.000456555
-0.000815153
0.000719636
-0.00130286
0.00106683
-0.00189049
0.0015126
-0.00255232
-0.00327196
0.00205473
2.99297e-06
0.000126069
2.63162e-05
0.000139425
8.17572e-05
1.81574e-05
0.000181323
-0.000226574
0.000336657
-0.000578829
0.000559529
-0.00103803
0.00086186
-0.00160519
0.00125448
-0.00228311
0.0017533
-0.00305114
-0.00386909
0.00235043
6.29732e-06
0.000119771
3.8435e-05
0.000107288
0.000108344
-5.17511e-05
0.000228364
-0.000346595
0.000410565
-0.000761029
0.000666955
-0.00129442
0.00100937
-0.00194761
0.00144738
-0.00272112
0.00199769
-0.00360145
-0.00451666
0.00264526
9.71337e-06
0.000110058
5.10245e-05
6.59766e-05
0.000135997
-0.000136724
0.000277257
-0.000487854
0.000487172
-0.000970945
0.000777774
-0.00158502
0.00116043
-0.00233027
0.00164285
-0.00320354
0.00224155
-0.00420015
-0.00520799
0.00293289
1.32258e-05
9.6832e-05
6.40209e-05
1.51814e-05
0.000164558
-0.000237261
0.000327665
-0.00065096
0.000565848
-0.00120913
0.000890877
-0.00191005
0.00131319
-0.00275258
0.00183808
-0.00372843
0.00248051
-0.00484257
-0.00593454
0.00320705
1.68244e-05
8.00076e-05
7.73695e-05
-4.53637e-05
0.000193874
-0.000353765
0.000379254
-0.000836341
0.00064594
-0.00147581
0.00100509
-0.0022692
0.00146568
-0.00321317
0.00203015
-0.0042929
0.00271011
-0.00552253
-0.0066863
0.00346187
2.05026e-05
5.9505e-05
9.10224e-05
-0.000115883
0.000223797
-0.00048654
0.000431684
-0.00104423
0.000726761
-0.00177089
0.00111918
-0.00266162
0.00161583
-0.00370982
0.00221607
-0.00489314
0.00292586
-0.00623233
-0.00745287
0.00369244
2.42566e-05
3.52483e-05
0.000104936
-0.000196563
0.000254182
-0.000635787
0.000484598
-0.00127464
0.000807581
-0.00209387
0.00123181
-0.00308585
0.00176149
-0.0042395
0.00239289
-0.00552454
0.00312334
-0.00696278
-0.00822469
0.00389516
2.80845e-05
7.16385e-06
0.000119067
-0.000287545
0.000284875
-0.000801595
0.000537614
-0.00152738
0.00088761
-0.00244387
0.00134156
-0.0035398
0.00190046
-0.0047984
0.00255778
-0.00618186
0.00329886
-0.00770386
-0.0089969
0.00407106
3.19845e-05
-2.48207e-05
0.00013337
-0.000388931
0.000315709
-0.000983934
0.000590316
-0.00180199
0.000965996
-0.00281955
0.0014469
-0.0040207
0.00203037
-0.00538187
0.00270749
-0.00685897
0.00345232
-0.00844869
-0.00977778
0.00423321
3.5954e-05
-6.07747e-05
0.000147794
-0.00050077
0.000346497
-0.00118264
0.000642244
-0.00209774
0.00104182
-0.00321913
0.00154624
-0.00452512
0.00214869
-0.00598433
0.00283716
-0.00754744
0.00358519
-0.00919672
-0.0107167
0.00452414
3.99881e-05
-0.000100763
0.000162275
-0.000623057
0.000377029
-0.00139739
0.000692899
-0.00241361
0.00111412
-0.00364035
0.00163798
-0.00504897
0.00225308
-0.00659943
0.00294344
-0.0082378
0.0036774
-0.00993069
-0.0115601
0.00452075
4.40782e-05
-0.000144841
0.00017674
-0.000755719
0.000407064
-0.00162772
0.000741737
-0.00274828
0.0011819
-0.00408051
0.0017206
-0.00558767
0.00234161
-0.00722045
0.00302429
-0.00892048
0.00373437
-0.0106408
-0.0123252
0.00449953
4.82112e-05
-0.000193052
0.000191098
-0.000898605
0.000436335
-0.00187295
0.000788179
-0.00310012
0.00124416
-0.0045365
0.0017927
-0.0061362
0.00241282
-0.00784057
0.00307953
-0.00958718
0.00375883
-0.0113201
-0.0130205
0.00445412
5.23686e-05
-0.000245421
0.000205243
-0.00105148
0.000464543
-0.00213225
0.000831617
-0.0034672
0.00129993
-0.00500481
0.00185306
-0.00668933
0.00246562
-0.00845313
0.00310921
-0.0102308
0.00375169
-0.0119625
-0.013652
0.00438317
5.65261e-05
-0.000301947
0.000219052
-0.00121401
0.000491364
-0.00240456
0.000871431
-0.00384726
0.00134828
-0.00548166
0.00190063
-0.00724168
0.0024993
-0.00905181
0.00311373
-0.0108452
0.0037146
-0.0125634
-0.014224
0.00428661
6.06534e-05
-0.0003626
0.000232387
-0.00138574
0.000516454
-0.00268863
0.000907001
-0.00423781
0.00138835
-0.00596301
0.00193459
-0.00778792
0.00251355
-0.00963076
0.00309385
-0.0114255
0.00364979
-0.0131194
-0.0147398
0.00416562
6.47145e-05
-0.000427315
0.000245095
-0.00156612
0.000539457
-0.00298299
0.000937728
-0.00463608
0.00141942
-0.0064447
0.0019544
-0.0083229
0.00250844
-0.0101848
0.00305073
-0.0119678
0.00355972
-0.0136284
-0.0152023
0.00402221
6.86679e-05
-0.000495983
0.000257013
-0.00175447
0.000560013
-0.00328599
0.000963057
-0.00503912
0.00144088
-0.00692252
0.00195974
-0.00884176
0.00248441
-0.0107095
0.00298585
-0.0124692
0.00344702
-0.0140895
-0.0156141
0.00385876
7.24675e-05
-0.00056845
0.000267971
-0.00194997
0.000577771
-0.00359579
0.000982489
-0.00544384
0.0014523
-0.00739233
0.00195059
-0.00934005
0.00244222
-0.0112011
0.0029009
-0.0129279
0.00331431
-0.0145029
-0.0159776
0.00367784
7.60639e-05
-0.000644514
0.000277794
-0.0021517
0.000592396
-0.00391039
0.000995605
-0.00584705
0.0014534
-0.00785012
0.00192717
-0.00981383
0.00238288
-0.0116568
0.00279775
-0.0133428
0.00316416
-0.0148693
-0.0162954
0.00348193
7.94046e-05
-0.000723919
0.000286312
-0.00235861
0.000603582
-0.00422766
0.00100207
-0.00624554
0.00144408
-0.00829212
0.00188994
-0.0102597
0.00230759
-0.0120745
0.00267835
-0.0137135
0.00299901
-0.01519
-0.0165698
0.00327343
8.24362e-05
-0.000806355
0.000293359
-0.00256953
0.000611062
-0.00454537
0.00100166
-0.00663614
0.00142441
-0.00871487
0.00183953
-0.0106748
0.00221772
-0.0124527
0.00254463
-0.0140404
0.00282118
-0.0154666
-0.0168031
0.0030545
8.51051e-05
-0.00089146
0.000298781
-0.00278321
0.000614613
-0.0048612
0.000994251
-0.00701578
0.00139463
-0.00911525
0.00177675
-0.0110569
0.0021147
-0.0127906
0.0023985
-0.0143242
0.00263274
-0.0157008
-0.0169975
0.0028271
8.73587e-05
-0.000978819
0.000302436
-0.00299828
0.000614064
-0.00517283
0.000979814
-0.00738153
0.0013551
-0.00949054
0.00170252
-0.0114043
0.00199998
-0.0130881
0.00224177
-0.014566
0.00243559
-0.0158946
-0.0171548
0.00259295
8.91471e-05
-0.00106797
0.000304205
-0.00321334
0.000609302
-0.00547792
0.000958433
-0.00773066
0.00130631
-0.00983842
0.00161785
-0.0117159
0.00187502
-0.0133452
0.00207613
-0.0147672
0.00223143
-0.0160499
-0.017277
0.00235356
9.04236e-05
-0.00115839
0.000303988
-0.00342691
0.000600268
-0.0057742
0.000930282
-0.00806068
0.00124884
-0.010157
0.00152378
-0.0119908
0.00174122
-0.0135627
0.00190313
-0.0149291
0.00202173
-0.0161685
-0.0173655
0.00211021
9.11463e-05
-0.00124954
0.000301707
-0.00363747
0.000586962
-0.00605946
0.000895618
-0.00836933
0.00118336
-0.0104447
0.00142138
-0.0122288
0.00159993
-0.0137412
0.0017242
-0.0150533
0.00180781
-0.0162521
-0.0174217
0.00186405
9.12788e-05
-0.00134081
0.000297314
-0.0038435
0.000569441
-0.00633159
0.000854772
-0.00865466
0.00111056
-0.0107005
0.00131171
-0.01243
0.0014524
-0.0138819
0.00154058
-0.0151415
0.00159081
-0.0163023
-0.0174469
0.00161603
9.07907e-05
-0.00143161
0.000290784
-0.0040435
0.000547812
-0.00658862
0.000808133
-0.00891498
0.0010312
-0.0109236
0.0011958
-0.0125946
0.00129981
-0.0139859
0.00135343
-0.0151951
0.00137173
-0.0163206
-0.0174422
0.001367
8.96587e-05
-0.00152126
0.000282117
-0.00423595
0.00052223
-0.00682873
0.000756138
-0.00914889
0.000946023
-0.0111135
0.00107463
-0.0127232
0.00114321
-0.0140545
0.00116375
-0.0152157
0.00115141
-0.0163083
-0.0174085
0.0011177
8.78666e-05
-0.00160913
0.000271341
-0.00441943
0.00049289
-0.00705028
0.00069926
-0.00935526
0.000855786
-0.01127
0.000949146
-0.0128166
0.000983592
-0.014089
0.000972438
-0.0152045
0.000930631
-0.0162665
-0.0173466
0.000868742
8.5406e-05
-0.00169454
0.000258508
-0.00459253
0.000460024
-0.00725179
0.000637993
-0.00953323
0.000761227
-0.0113932
0.00082022
-0.0128756
0.00082183
-0.0140906
0.000780275
-0.015163
0.00071004
-0.0161963
-0.0172572
0.000620688
8.22757e-05
-0.00177681
0.00024369
-0.00475394
0.000423893
-0.007432
0.000572843
-0.00968218
0.000663064
-0.0114834
0.00068867
-0.0129012
0.000658724
-0.0140606
0.000587967
-0.0150922
0.00049022
-0.0160985
-0.017141
0.000374007
7.84825e-05
-0.00185529
0.000226981
-0.00490244
0.000384779
-0.0075898
0.000504323
-0.00980172
0.00056198
-0.0115411
0.000555249
-0.0128944
0.000494992
-0.0140004
0.000396149
-0.0149934
0.000271706
-0.0159741
-0.0169983
0.000128968
7.40405e-05
-0.00192934
0.000208495
-0.0050369
0.000342983
-0.00772428
0.000432939
-0.00989168
0.000458629
-0.0115668
0.000420648
-0.0128564
0.000331275
-0.013911
0.000205384
-0.0148675
5.51228e-05
-0.0158238
-0.0168296
-0.000113574
6.89706e-05
-0.00199831
0.000188357
-0.00515628
0.000298815
-0.00783474
0.000359188
-0.00995205
0.000353621
-0.0115612
0.000285501
-0.0127883
0.000168156
-0.0137936
1.59459e-05
-0.0147153
-0.000159459
-0.0156484
-0.0166361
-0.000352917
6.33005e-05
-0.00206161
0.000166708
-0.00525969
0.000252592
-0.00792063
0.000283552
-0.00998301
0.000247531
-0.0115252
0.000150386
-0.0126912
6.1268e-06
-0.0136494
-0.000171099
-0.014538
-0.000371367
-0.0154481
-0.016418
-0.000589519
5.70641e-05
-0.00211867
0.000143699
-0.00534633
0.000204631
-0.00798156
0.000206492
-0.00998487
0.00014089
-0.0114596
1.58228e-05
-0.0125661
-0.000154197
-0.0134794
-0.00035592
-0.0143363
-0.00058028
-0.0152238
-0.0161755
-0.000822778
5.03004e-05
-0.00216897
0.000119486
-0.00541551
0.00015525
-0.00801732
0.000128449
-0.00995807
3.41919e-05
-0.0113653
-0.000117683
-0.0124142
-0.000312546
-0.0132845
-0.000537952
-0.0141109
-0.000785875
-0.0149759
-0.015909
-0.00105235
4.30536e-05
-0.00221202
9.42341e-05
-0.00546669
0.000104757
-0.00802784
4.98421e-05
-0.00990316
-7.21101e-05
-0.0112434
-0.000249731
-0.0122366
-0.00046847
-0.0130658
-0.000716827
-0.0138626
-0.000987818
-0.0147049
-0.0156189
-0.00127791
3.53717e-05
-0.0022474
6.8112e-05
-0.00549943
5.34511e-05
-0.00801318
-2.8934e-05
-0.00982077
-0.0001776
-0.0110947
-0.000379916
-0.0120343
-0.00062161
-0.0128241
-0.000892203
-0.013592
-0.00118578
-0.0144113
-0.0153055
-0.00149917
2.73052e-05
-0.0022747
4.12934e-05
-0.00551342
1.89659e-06
-0.00797379
-0.000107518
-0.00971136
-0.000281901
-0.0109203
-0.000507881
-0.0118083
-0.000771636
-0.0125603
-0.00106376
-0.0132998
-0.00137944
-0.0140956
-0.0149691
-0.00171584
1.89114e-05
-0.00229361
1.3947e-05
-0.00550846
-5.0447e-05
-0.00790939
-0.00018559
-0.00957622
-0.000384661
-0.0107213
-0.000633302
-0.0115597
-0.000918244
-0.0122754
-0.00123117
-0.0129869
-0.00156847
-0.0137583
-0.01461
-0.00192761
1.02413e-05
-0.00230385
-1.37723e-05
-0.00548444
-0.000102488
-0.00782068
-0.000262809
-0.0094159
-0.000485564
-0.0104985
-0.000755887
-0.0112894
-0.00106116
-0.0119701
-0.00139416
-0.0126539
-0.00175254
-0.0133999
-0.0142283
-0.00213419
1.19615e-06
-0.00230505
-4.17765e-05
-0.00544147
-0.000154256
-0.0077082
-0.000338885
-0.00923127
-0.000584322
-0.0102531
-0.000875372
-0.0109983
-0.00120013
-0.0116453
-0.00155244
-0.0123016
-0.00193132
-0.013021
-0.0138244
-0.00233527
-7.78344e-06
-0.00229727
-6.97999e-05
-0.00537945
-0.000205514
-0.00757248
-0.000413553
-0.00902323
-0.000680674
-0.00998596
-0.00099152
-0.0106875
-0.00133492
-0.0113019
-0.00170575
-0.0119308
-0.0021045
-0.0126223
-0.0133982
-0.00253066
-1.69397e-05
-0.00228033
-9.77273e-05
-0.00529867
-0.000256041
-0.00741417
-0.000486566
-0.0087927
-0.000774385
-0.00969814
-0.00110412
-0.0103577
-0.00146534
-0.0109407
-0.00185388
-0.0115422
-0.00227172
-0.0122044
-0.0129503
-0.00271962
-2.61573e-05
-0.00225417
-0.000125418
-0.00519941
-0.000305631
-0.00723396
-0.000557698
-0.00854064
-0.000865239
-0.0093906
-0.00121297
-0.01001
-0.00159122
-0.0105625
-0.00199664
-0.0111368
-0.00243231
-0.0117688
-0.0124813
-0.00290134
-3.53704e-05
-0.0022188
-0.000152733
-0.00508204
-0.000354093
-0.0070326
-0.000626743
-0.00826799
-0.000953045
-0.00906429
-0.00131792
-0.00964512
-0.00171241
-0.010168
-0.00213388
-0.0107153
-0.00258619
-0.0113165
-0.0119905
-0.00307703
-4.45222e-05
-0.00217428
-0.000179544
-0.00494702
-0.000401248
-0.00681089
-0.000693512
-0.00797572
-0.00103762
-0.00872018
-0.00141879
-0.00926396
-0.00182882
-0.00975796
-0.00226548
-0.0102787
-0.00272763
-0.0108543
-0.0114974
-0.00322065
-5.35591e-05
-0.00212072
-0.000205726
-0.00479485
-0.000446931
-0.00656969
-0.000757834
-0.00766482
-0.00111882
-0.0083592
-0.00151545
-0.00886732
-0.0019403
-0.00933311
-0.00239165
-0.00982732
-0.0028696
-0.0103764
-0.0109894
-0.00337761
-6.24294e-05
-0.00205829
-0.000231166
-0.00462612
-0.00049099
-0.00630986
-0.000819552
-0.00733626
-0.00119648
-0.00798227
-0.00160776
-0.00845605
-0.00204668
-0.00889418
-0.00251206
-0.00936195
-0.00300475
-0.00988368
-0.0104665
-0.00352772
-7.10841e-05
-0.0019872
-0.000255753
-0.00444145
-0.000533286
-0.00603233
-0.000878525
-0.00699102
-0.00127048
-0.00759032
-0.00169558
-0.00803095
-0.00214785
-0.00844192
-0.00262651
-0.00888329
-0.00313293
-0.00937726
-0.00992912
-0.00367027
-7.94761e-05
-0.00190773
-0.000279388
-0.00424154
-0.000573691
-0.00573803
-0.000934623
-0.00663009
-0.00134069
-0.00718425
-0.00177882
-0.00759282
-0.00224368
-0.00797706
-0.00273495
-0.00839202
-0.00325434
-0.00885786
-0.00937836
-0.0038051
-8.75611e-05
-0.00182017
-0.000301977
-0.00402712
-0.000612087
-0.00542792
-0.000987729
-0.00625444
-0.00140702
-0.00676495
-0.00185737
-0.00714246
-0.00233411
-0.00750032
-0.0028373
-0.00788884
-0.00336899
-0.00832617
-0.00881493
-0.00393243
-9.52973e-05
-0.00172487
-0.000323432
-0.00379899
-0.000648369
-0.00510298
-0.00103774
-0.00586508
-0.00146936
-0.00633333
-0.00193115
-0.00668068
-0.00241903
-0.00701244
-0.00293347
-0.0073744
-0.0034768
-0.00778284
-0.00823945
-0.00405228
-0.000102646
-0.00162222
-0.000343675
-0.00355796
-0.000682438
-0.00476422
-0.00108455
-0.00546296
-0.00152762
-0.00589026
-0.00200006
-0.00620824
-0.00249837
-0.00651413
-0.00302337
-0.00684939
-0.00357767
-0.00722855
-0.00765256
-0.00416456
-0.000109569
-0.00151265
-0.000362632
-0.00330489
-0.000714208
-0.00441264
-0.00112809
-0.00504908
-0.00158172
-0.00543663
-0.00206402
-0.00572594
-0.00257202
-0.00600614
-0.0031069
-0.00631451
-0.00367147
-0.00666397
-0.00705492
-0.00426911
-0.000116035
-0.00139662
-0.000380236
-0.00304069
-0.000743596
-0.00404928
-0.00116826
-0.00462441
-0.00163159
-0.0049733
-0.00212296
-0.00523457
-0.0026399
-0.00548919
-0.00318393
-0.00577048
-0.00375808
-0.00608982
-0.00644722
-0.00436578
-0.000122011
-0.00127461
-0.000396427
-0.00276628
-0.000770533
-0.00367517
-0.00120501
-0.00418994
-0.00167715
-0.00450116
-0.00217679
-0.00473493
-0.00270193
-0.00496405
-0.00325438
-0.00521804
-0.00383735
-0.00550685
-0.00583019
-0.00445438
-0.00012747
-0.00114714
-0.00041115
-0.0024826
-0.000794954
-0.00329137
-0.00123826
-0.00374664
-0.00171834
-0.00402108
-0.00222546
-0.00422781
-0.00275803
-0.00443148
-0.00331812
-0.00465794
-0.00390915
-0.00491582
-0.00520463
-0.00453471
-0.000132386
-0.00101475
-0.000424357
-0.00219063
-0.000816801
-0.00289893
-0.00126795
-0.00329549
-0.0017551
-0.00353393
-0.00226889
-0.00371402
-0.0028081
-0.00389227
-0.00337506
-0.00409099
-0.00397333
-0.00431755
-0.00457136
-0.00460661
-0.000136738
-0.000878015
-0.000436006
-0.00189136
-0.000836025
-0.00249891
-0.00129405
-0.00283747
-0.00178738
-0.00304059
-0.00230702
-0.00319438
-0.00285208
-0.0033472
-0.0034251
-0.00351797
-0.00402979
-0.00371286
-0.00393125
-0.00466989
-0.000140504
-0.000737511
-0.000446059
-0.0015858
-0.000852582
-0.00209238
-0.00131649
-0.00237356
-0.00181513
-0.00254195
-0.00233981
-0.00266971
-0.00288991
-0.0027971
-0.00346816
-0.00293972
-0.00407839
-0.00310263
-0.00328523
-0.00472442
-0.000143668
-0.000593843
-0.000454484
-0.00127499
-0.000866436
-0.00168043
-0.00133525
-0.00190474
-0.00183832
-0.00203888
-0.0023672
-0.00214083
-0.00292153
-0.00224277
-0.00350417
-0.00235708
-0.00411905
-0.00248775
-0.00263422
-0.00477006
-0.000146216
-0.000447627
-0.000461255
-0.000959948
-0.000877555
-0.00126413
-0.0013503
-0.00143199
-0.00185692
-0.00153226
-0.00238917
-0.00160858
-0.00294688
-0.00168506
-0.00353305
-0.00177091
-0.00415168
-0.00186911
-0.0019792
-0.0048067
-0.000148137
-0.00029949
-0.000466352
-0.000641734
-0.000885915
-0.000844569
-0.00136161
-0.000956299
-0.00187088
-0.00102299
-0.00240567
-0.0010738
-0.00296593
-0.00112479
-0.00355476
-0.00118209
-0.00417622
-0.00124765
-0.00132116
-0.00483426
-0.000149423
-0.000150067
-0.000469759
-0.000321398
-0.000891499
-0.000422829
-0.00136916
-0.000478641
-0.00188021
-0.000511938
-0.00241668
-0.000537321
-0.00297865
-0.000562821
-0.00356925
-0.00059149
-0.0041926
-0.000624298
-0.000661085
-0.00485267
-0.000150067
1.48862e-11
-0.000471465
4.30204e-11
-0.000894294
6.68932e-11
-0.00137293
8.43215e-11
-0.00188487
9.70961e-11
-0.00242219
1.0682e-10
-0.00298501
1.14076e-10
-0.00357651
1.18844e-10
-0.0042008
1.21124e-10
1.20449e-10
-0.00486189
-0.000150067
0.000150067
-0.000471465
0.000321398
-0.000894294
0.000422829
-0.00137293
0.000478641
-0.00188487
0.000511938
-0.00242219
0.000537321
-0.00298501
0.000562822
-0.00357651
0.000591491
-0.0042008
0.000624298
0.000661085
-0.00486189
-0.000149423
0.00029949
-0.000469759
0.000641734
-0.000891499
0.000844569
-0.00136916
0.000956299
-0.00188021
0.00102299
-0.00241668
0.0010738
-0.00297865
0.00112479
-0.00356925
0.00118209
-0.0041926
0.00124765
0.00132116
-0.00485267
-0.000148137
0.000447627
-0.000466352
0.000959948
-0.000885915
0.00126413
-0.00136161
0.00143199
-0.00187088
0.00153226
-0.00240567
0.00160858
-0.00296593
0.00168506
-0.00355476
0.00177091
-0.00417622
0.00186911
0.0019792
-0.00483426
-0.000146216
0.000593843
-0.000461255
0.00127499
-0.000877555
0.00168043
-0.0013503
0.00190474
-0.00185692
0.00203888
-0.00238917
0.00214083
-0.00294688
0.00224277
-0.00353305
0.00235708
-0.00415168
0.00248775
0.00263422
-0.0048067
-0.000143668
0.000737511
-0.000454484
0.0015858
-0.000866436
0.00209238
-0.00133525
0.00237356
-0.00183832
0.00254195
-0.0023672
0.00266971
-0.00292153
0.0027971
-0.00350417
0.00293972
-0.00411905
0.00310263
0.00328523
-0.00477006
-0.000140504
0.000878015
-0.000446059
0.00189136
-0.000852582
0.00249891
-0.00131649
0.00283747
-0.00181513
0.00304059
-0.00233981
0.00319438
-0.00288991
0.0033472
-0.00346816
0.00351797
-0.00407839
0.00371286
0.00393125
-0.00472442
-0.000136738
0.00101475
-0.000436006
0.00219063
-0.000836025
0.00289893
-0.00129405
0.00329549
-0.00178738
0.00353393
-0.00230702
0.00371402
-0.00285208
0.00389227
-0.0034251
0.00409099
-0.00402979
0.00431755
0.00457136
-0.00466989
-0.000132386
0.00114714
-0.000424357
0.0024826
-0.000816801
0.00329137
-0.00126795
0.00374664
-0.0017551
0.00402108
-0.00226889
0.00422781
-0.0028081
0.00443148
-0.00337506
0.00465794
-0.00397333
0.00491582
0.00520463
-0.00460661
-0.00012747
0.00127461
-0.00041115
0.00276628
-0.000794954
0.00367517
-0.00123826
0.00418994
-0.00171834
0.00450116
-0.00222546
0.00473493
-0.00275803
0.00496405
-0.00331812
0.00521804
-0.00390915
0.00550685
0.00583019
-0.00453471
-0.000122011
0.00139662
-0.000396427
0.00304069
-0.000770533
0.00404928
-0.00120501
0.00462441
-0.00167715
0.0049733
-0.00217679
0.00523457
-0.00270193
0.00548919
-0.00325438
0.00577048
-0.00383735
0.00608982
0.00644722
-0.00445438
-0.000116035
0.00151266
-0.000380236
0.00330489
-0.000743596
0.00441264
-0.00116826
0.00504908
-0.00163159
0.00543663
-0.00212296
0.00572594
-0.0026399
0.00600614
-0.00318393
0.00631451
-0.00375808
0.00666397
0.00705492
-0.00436578
-0.000109569
0.00162222
-0.000362632
0.00355796
-0.000714208
0.00476422
-0.00112809
0.00546296
-0.00158172
0.00589026
-0.00206402
0.00620824
-0.00257202
0.00651413
-0.0031069
0.00684939
-0.00367147
0.00722855
0.00765256
-0.00426911
-0.000102646
0.00172487
-0.000343675
0.00379899
-0.000682438
0.00510298
-0.00108455
0.00586508
-0.00152762
0.00633333
-0.00200006
0.00668068
-0.00249837
0.00701244
-0.00302337
0.0073744
-0.00357767
0.00778284
0.00823945
-0.00416456
-9.52973e-05
0.00182017
-0.000323432
0.00402712
-0.000648369
0.00542792
-0.00103774
0.00625445
-0.00146936
0.00676495
-0.00193115
0.00714246
-0.00241903
0.00750032
-0.00293347
0.00788884
-0.0034768
0.00832617
0.00881493
-0.00405228
-8.75611e-05
0.00190773
-0.000301977
0.00424154
-0.000612087
0.00573803
-0.000987729
0.00663009
-0.00140702
0.00718425
-0.00185737
0.00759282
-0.00233411
0.00797706
-0.0028373
0.00839202
-0.00336899
0.00885786
0.00937836
-0.00393243
-7.94761e-05
0.0019872
-0.000279388
0.00444145
-0.000573691
0.00603233
-0.000934622
0.00699102
-0.00134069
0.00759032
-0.00177882
0.00803095
-0.00224368
0.00844192
-0.00273495
0.00888329
-0.00325434
0.00937726
0.00992912
-0.0038051
-7.10841e-05
0.00205829
-0.000255753
0.00462612
-0.000533286
0.00630986
-0.000878525
0.00733626
-0.00127048
0.00798227
-0.00169558
0.00845605
-0.00214785
0.00889418
-0.00262651
0.00936195
-0.00313293
0.00988368
0.0104665
-0.00367027
-6.24294e-05
0.00212072
-0.000231166
0.00479485
-0.00049099
0.00656969
-0.000819552
0.00766482
-0.00119648
0.0083592
-0.00160776
0.00886732
-0.00204668
0.00933311
-0.00251206
0.00982732
-0.00300475
0.0103764
0.0109894
-0.00352772
-5.35591e-05
0.00217428
-0.000205726
0.00494702
-0.000446931
0.00681089
-0.000757834
0.00797572
-0.00111882
0.00872018
-0.00151545
0.00926396
-0.0019403
0.00975796
-0.00239165
0.0102787
-0.0028696
0.0108543
0.0114974
-0.00337761
-4.45222e-05
0.0022188
-0.000179544
0.00508204
-0.000401248
0.0070326
-0.000693512
0.00826799
-0.00103762
0.00906429
-0.00141879
0.00964512
-0.00182882
0.010168
-0.00226548
0.0107153
-0.00272763
0.0113165
0.0119905
-0.00322065
-3.53704e-05
0.00225417
-0.000152733
0.00519941
-0.000354093
0.00723396
-0.000626743
0.00854064
-0.000953045
0.0093906
-0.00131792
0.01001
-0.00171241
0.0105625
-0.00213388
0.0111368
-0.00258619
0.0117688
0.0124813
-0.00307703
-2.61573e-05
0.00228033
-0.000125418
0.00529867
-0.000305631
0.00741417
-0.000557698
0.0087927
-0.000865239
0.00969814
-0.00121297
0.0103577
-0.00159122
0.0109407
-0.00199664
0.0115422
-0.00243231
0.0122044
0.0129503
-0.00290134
-1.69397e-05
0.00229727
-9.77273e-05
0.00537945
-0.000256041
0.00757248
-0.000486566
0.00902323
-0.000774385
0.00998596
-0.00110412
0.0106875
-0.00146534
0.0113019
-0.00185388
0.0119308
-0.00227172
0.0126223
0.0133982
-0.00271962
-7.78345e-06
0.00230505
-6.97999e-05
0.00544147
-0.000205514
0.0077082
-0.000413553
0.00923127
-0.000680674
0.0102531
-0.00099152
0.0109983
-0.00133492
0.0116453
-0.00170575
0.0123016
-0.0021045
0.013021
0.0138244
-0.00253066
1.19615e-06
0.00230385
-4.17765e-05
0.00548444
-0.000154256
0.00782068
-0.000338885
0.0094159
-0.000584322
0.0104985
-0.000875372
0.0112894
-0.00120013
0.0119701
-0.00155244
0.0126539
-0.00193132
0.0133999
0.0142283
-0.00233527
1.02413e-05
0.00229361
-1.37723e-05
0.00550846
-0.000102488
0.00790939
-0.000262809
0.00957622
-0.000485564
0.0107213
-0.000755887
0.0115597
-0.00106116
0.0122754
-0.00139416
0.0129869
-0.00175254
0.0137583
0.01461
-0.00213419
1.89114e-05
0.0022747
1.3947e-05
0.00551342
-5.0447e-05
0.00797379
-0.00018559
0.00971136
-0.000384661
0.0109203
-0.000633302
0.0118083
-0.000918244
0.0125603
-0.00123117
0.0132998
-0.00156847
0.0140956
0.0149691
-0.00192761
2.73052e-05
0.0022474
4.12934e-05
0.00549943
1.89659e-06
0.00801318
-0.000107518
0.00982077
-0.000281901
0.0110947
-0.000507881
0.0120343
-0.000771636
0.0128241
-0.00106376
0.013592
-0.00137944
0.0144113
0.0153055
-0.00171584
3.53717e-05
0.00221202
6.8112e-05
0.00546669
5.34511e-05
0.00802784
-2.8934e-05
0.00990316
-0.0001776
0.0112434
-0.000379916
0.0122366
-0.00062161
0.0130658
-0.000892203
0.0138626
-0.00118578
0.0147049
0.0156189
-0.00149917
4.30536e-05
0.00216897
9.42341e-05
0.00541551
0.000104757
0.00801732
4.98421e-05
0.00995807
-7.21101e-05
0.0113653
-0.000249731
0.0124142
-0.00046847
0.0132845
-0.000716827
0.0141109
-0.000987818
0.0149759
0.015909
-0.00127791
5.03004e-05
0.00211867
0.000119486
0.00534633
0.00015525
0.00798156
0.000128449
0.00998487
3.41919e-05
0.0114596
-0.000117683
0.0125661
-0.000312546
0.0134794
-0.000537952
0.0143363
-0.000785875
0.0152238
0.0161755
-0.00105235
5.70641e-05
0.00206161
0.000143699
0.00525969
0.000204631
0.00792063
0.000206492
0.00998301
0.00014089
0.0115252
1.58228e-05
0.0126912
-0.000154197
0.0136494
-0.00035592
0.014538
-0.00058028
0.0154481
0.016418
-0.000822778
6.33005e-05
0.00199831
0.000166708
0.00515628
0.000252592
0.00783474
0.000283552
0.00995205
0.000247531
0.0115612
0.000150386
0.0127883
6.12682e-06
0.0137936
-0.000171099
0.0147153
-0.000371367
0.0156484
0.0166361
-0.000589519
6.89706e-05
0.00192934
0.000188357
0.0050369
0.000298815
0.00772428
0.000359188
0.00989168
0.000353621
0.0115668
0.000285502
0.0128564
0.000168156
0.013911
1.59459e-05
0.0148675
-0.000159459
0.0158238
0.0168296
-0.000352917
7.40405e-05
0.00185529
0.000208495
0.00490244
0.000342983
0.0075898
0.000432939
0.00980172
0.000458629
0.0115411
0.000420648
0.0128944
0.000331275
0.0140004
0.000205384
0.0149934
5.51229e-05
0.0159741
0.0169983
-0.000113574
7.84825e-05
0.00177681
0.000226981
0.00475394
0.000384779
0.007432
0.000504323
0.00968218
0.00056198
0.0114834
0.000555249
0.0129012
0.000494992
0.0140606
0.000396149
0.0150922
0.000271706
0.0160985
0.017141
0.000128968
8.22757e-05
0.00169454
0.00024369
0.00459253
0.000423893
0.00725179
0.000572843
0.00953323
0.000663064
0.0113932
0.00068867
0.0128756
0.000658724
0.0140906
0.000587967
0.015163
0.00049022
0.0161963
0.0172572
0.000374007
8.5406e-05
0.00160913
0.000258508
0.00441943
0.000460024
0.00705028
0.000637993
0.00935526
0.000761227
0.01127
0.00082022
0.0128166
0.00082183
0.014089
0.000780275
0.0152045
0.00071004
0.0162665
0.0173466
0.000620688
8.78666e-05
0.00152126
0.000271341
0.00423595
0.00049289
0.00682873
0.00069926
0.00914889
0.000855786
0.0111135
0.000949146
0.0127232
0.000983592
0.0140545
0.000972438
0.0152157
0.000930632
0.0163083
0.0174085
0.000868742
8.96587e-05
0.00143161
0.000282117
0.0040435
0.00052223
0.00658862
0.000756138
0.00891498
0.000946023
0.0109236
0.00107463
0.0125946
0.00114321
0.0139859
0.00116375
0.0151951
0.00115141
0.0163206
0.0174422
0.0011177
9.07907e-05
0.00134081
0.000290784
0.0038435
0.000547812
0.00633159
0.000808133
0.00865466
0.0010312
0.0107005
0.0011958
0.01243
0.00129981
0.0138819
0.00135343
0.0151415
0.00137173
0.0163024
0.0174469
0.001367
9.12788e-05
0.00124954
0.000297314
0.00363747
0.000569441
0.00605946
0.000854772
0.00836933
0.00111056
0.0104447
0.00131171
0.0122288
0.0014524
0.0137412
0.00154058
0.0150533
0.00159081
0.0162521
0.0174217
0.00161603
9.11463e-05
0.00115839
0.000301707
0.00342691
0.000586962
0.0057742
0.000895618
0.00806068
0.00118336
0.010157
0.00142138
0.0119908
0.00159993
0.0135627
0.0017242
0.0149291
0.00180781
0.0161685
0.0173655
0.00186405
9.04236e-05
0.00106797
0.000303988
0.00321334
0.000600268
0.00547792
0.000930282
0.00773066
0.00124884
0.00983842
0.00152378
0.0117159
0.00174122
0.0133452
0.00190314
0.0147672
0.00202173
0.0160499
0.017277
0.00211021
8.91471e-05
0.000978819
0.000304205
0.00299828
0.000609302
0.00517283
0.000958433
0.00738153
0.00130631
0.00949054
0.00161785
0.0114043
0.00187502
0.0130881
0.00207613
0.014566
0.00223143
0.0158946
0.0171548
0.00235356
8.73587e-05
0.00089146
0.000302436