/*--------------------------------*- C++ -*----------------------------------*\
  =========                 |
  \\      /  F ield         | OpenFOAM: The Open Source CFD Toolbox
   \\    /   O peration     | Website:  https://openfoam.org
    \\  /    A nd           | Version:  7
     \\/     M anipulation  |
\*---------------------------------------------------------------------------*/
FoamFile
{
    version     2.0;
    format      ascii;
    class       volVectorField;
    location    "4";
    object      U;
}
// * * * * * * * * * * * * * * * * * * * * * * * * * * * * * * * * * * * * * //

dimensions      [0 1 -1 0 0 0 0];

internalField   nonuniform List<vector> 
433
(
(0.416557 -0.0412464 8.47037e-20)
(0.448416 -0.0392792 9.82658e-20)
(0.481526 -0.0368832 -5.70368e-20)
(0.515845 -0.0340586 7.02088e-20)
(0.551316 -0.0308114 -5.31158e-20)
(0.422148 -0.0384523 -7.348e-20)
(0.45428 -0.0361802 -2.50926e-20)
(0.487615 -0.0334462 -1.1919e-19)
(0.52211 -0.0302506 8.94432e-20)
(0.557705 -0.0265994 -1.44788e-19)
(0.594324 -0.0225044 1.56982e-19)
(0.631872 -0.0179845 -6.48672e-20)
(0.670234 -0.0130664 -6.81063e-20)
(0.709273 -0.0077856 9.04487e-20)
(0.74883 -0.00218678 -5.37787e-20)
(0.426417 -0.0346876 1.4303e-20)
(0.458829 -0.0321069 4.20818e-21)
(0.492397 -0.0290327 -1.45782e-20)
(0.527077 -0.0254655 1.04926e-19)
(0.562805 -0.0214112 -1.20219e-19)
(0.599506 -0.0168821 2.15188e-19)
(0.637082 -0.0118969 -2.58705e-19)
(0.67542 -0.00648229 3.80501e-20)
(0.714381 -0.000673044 -8.84591e-20)
(0.75381 0.00548717 1.36426e-19)
(0.793522 0.0119455 -1.63909e-19)
(0.833313 0.0186395 1.8921e-19)
(0.872952 0.0254974 -4.60822e-20)
(0.912181 0.0324379 -5.27038e-20)
(0.950719 0.0393766 7.12198e-21)
(0.429214 -0.0299845 7.38226e-21)
(0.461919 -0.0270915 -1.10687e-19)
(0.495734 -0.0236757 1.11253e-20)
(0.53061 -0.0197379 4.04452e-20)
(0.566487 -0.0152844 1.95092e-20)
(0.603284 -0.0103277 -1.17474e-19)
(0.640907 -0.00488715 8.72736e-20)
(0.679242 0.00101025 5.74196e-20)
(0.718152 0.00732938 1.21836e-19)
(0.757484 0.0140264 -2.20561e-19)
(0.797059 0.0210485 8.51842e-20)
(0.836678 0.0283337 1.86801e-20)
(0.876117 0.0358107 -2.39456e-20)
(0.915131 0.0433999 3.77446e-21)
(0.953451 0.0510134 -7.55758e-20)
(0.99079 0.0585615 6.41725e-20)
(1.02684 0.065961 -1.58449e-20)
(1.06128 0.0730856 5.47923e-20)
(1.09367 0.0796103 -7.67307e-20)
(1.12365 0.0856232 9.7436e-21)
(0.430375 -0.0243975 3.36392e-20)
(0.463392 -0.0211857 -1.51064e-20)
(0.497471 -0.017425 -6.78113e-20)
(0.532561 -0.0131165 7.1647e-20)
(0.568602 -0.0082669 -2.12863e-20)
(0.605515 -0.00288917 2.27588e-20)
(0.643204 0.00299661 1.12425e-22)
(0.681557 0.00936276 5.35945e-20)
(0.720441 0.0161734 -3.57958e-20)
(0.759705 0.0233838 -2.8689e-20)
(0.799176 0.0309405 4.08005e-20)
(0.838659 0.0387805 2.6291e-21)
(0.877939 0.0468321 5.49118e-20)
(0.916782 0.0550148 -8.28369e-20)
(0.954932 0.0632405 1.18522e-19)
(0.992115 0.0714143 -9.37079e-20)
(1.02804 0.0794408 2.74521e-20)
(1.06241 0.0872314 2.28169e-20)
(1.0949 0.0946601 6.0788e-20)
(1.12513 0.101439 -1.18763e-19)
(1.15274 0.107672 -5.17145e-21)
(0.429729 -0.0180038 7.40632e-20)
(0.463081 -0.0144625 -5.63592e-20)
(0.497444 -0.0103498 3.11061e-20)
(0.532769 -0.00566707 3.55925e-20)
(0.568995 -0.000421493 -5.4013e-21)
(0.606043 0.00537333 4.51413e-20)
(0.64382 0.0116966 -9.88255e-21)
(0.682215 0.0185198 -6.11996e-20)
(0.721098 0.025806 5.48307e-20)
(0.760321 0.0335095 -4.59221e-20)
(0.799717 0.0415756 8.22539e-21)
(0.839097 0.0499401 1.03719e-21)
(0.878255 0.0585298 9.22564e-21)
(0.916964 0.0672629 -6.01617e-20)
(0.954981 0.0760495 -1.42401e-21)
(0.992046 0.0847933 -2.86049e-20)
(1.02789 0.0933926 -3.11532e-20)
(1.06222 0.101747 1.38343e-20)
(1.09474 0.109763 5.52982e-20)
(1.12517 0.117316 -7.77784e-20)
(1.15313 0.124155 5.92035e-20)
(1.17833 0.130389 5.43759e-20)
(0.460815 -0.0070183 3.66826e-21)
(0.495486 -0.00254096 2.80184e-20)
(0.531069 0.00252462 -1.9293e-20)
(0.567502 0.00817082 -3.68893e-20)
(0.604709 0.0143834 5.21867e-20)
(0.642597 0.0211407 -6.29896e-20)
(0.681059 0.0284135 3.88611e-20)
(0.719967 0.0361637 9.49999e-20)
(0.759178 0.0443447 -2.23056e-20)
(0.798528 0.0529002 -1.90297e-21)
(0.837837 0.0617648 3.1613e-20)
(0.876905 0.0708638 3.37265e-20)
(0.915515 0.0801133 8.25227e-21)
(0.953434 0.0894218 -4.09798e-20)
(0.990415 0.0986906 -1.52307e-20)
(1.0262 0.107816 -2.30202e-21)
(1.06052 0.11669 5.01831e-20)
(1.0931 0.125208 1.35198e-20)
(1.12366 0.133274 -1.78273e-20)
(1.15193 0.140768 9.23592e-21)
(1.17758 0.147472 1.54582e-20)
(1.20034 0.153497 5.52034e-22)
(0.456424 0.00102574 -1.38293e-20)
(0.491428 0.00588706 -2.12251e-21)
(0.527294 0.0113506 -3.3241e-20)
(0.56396 0.0174082 3.95967e-20)
(0.601351 0.024045 1.47481e-20)
(0.639376 0.0312389 1.25006e-20)
(0.677931 0.0389596 -1.21069e-19)
(0.716891 0.0471682 1.39782e-19)
(0.756118 0.0558167 -4.56352e-20)
(0.795453 0.064848 1.69364e-20)
(0.834722 0.074195 -8.82155e-20)
(0.873733 0.0837816 -1.33293e-20)
(0.912278 0.0935222 -1.71422e-21)
(0.950134 0.103323 -2.08193e-20)
(0.987064 0.113084 -2.62477e-20)
(1.02282 0.122698 5.5668e-20)
(1.05716 0.132054 -4.1383e-20)
(1.08981 0.141042 6.83397e-20)
(1.12052 0.149554 -6.57585e-20)
(1.14903 0.157492 1.04167e-20)
(1.17509 0.164744 -1.8374e-20)
(1.19843 0.171128 3.6843e-20)
(1.21878 0.176742 -8.97077e-20)
(0.48511 0.0147942 -1.27411e-20)
(0.521284 0.0206783 8.72014e-21)
(0.558208 0.0271655 -2.85075e-20)
(0.595808 0.0342405 8.19651e-20)
(0.633997 0.0418803 -6.29763e-20)
(0.672672 0.0500541 7.06659e-20)
(0.711713 0.0587222 -2.01017e-20)
(0.750985 0.0678355 9.46094e-21)
(0.790336 0.0773358 -4.80319e-20)
(0.829598 0.0871549 2.30249e-21)
(0.868586 0.0972151 2.49173e-20)
(0.9071 0.10743 -1.83361e-20)
(0.944927 0.117703 4.1041e-20)
(0.981841 0.127932 -9.8904e-20)
(1.01761 0.138009 9.15193e-20)
(1.05199 0.147819 -4.23679e-20)
(1.08473 0.157248 5.4412e-20)
(1.11561 0.166184 -2.78213e-20)
(1.14436 0.174518 1.60965e-20)
(1.17078 0.182154 -3.13454e-20)
(1.19462 0.188988 2.15568e-20)
(1.21567 0.194877 2.17036e-20)
(1.23369 0.1999 1.73354e-20)
(0.512886 0.0303497 -9.69866e-21)
(0.550092 0.0372927 1.9655e-20)
(0.587928 0.0448275 -2.08345e-20)
(0.626307 0.0529308 1.5629e-20)
(0.665129 0.0615708 2.30917e-20)
(0.704279 0.0707072 -3.16014e-20)
(0.743627 0.0802903 -1.57057e-20)
(0.783025 0.0902607 4.89475e-21)
(0.822312 0.100549 -7.74189e-21)
(0.86131 0.111078 1.13579e-20)
(0.899828 0.121757 -9.90677e-21)
(0.93766 0.132491 1.88869e-20)
(0.974593 0.143175 -3.0844e-20)
(1.0104 0.153697 -7.95416e-21)
(1.04486 0.163944 2.83803e-20)
(1.07773 0.173796 -3.60738e-21)
(1.10878 0.183137 2.55843e-20)
(1.1378 0.191854 -3.12589e-20)
(1.16456 0.199842 1.75181e-20)
(1.18887 0.207009 3.02794e-20)
(1.21053 0.213264 -3.42115e-20)
(1.22935 0.218497 -1.11841e-20)
(1.24514 0.22277 -1.31906e-20)
(0.539473 0.047614 -7.1838e-21)
(0.577568 0.0556389 1.27452e-20)
(0.616162 0.0642313 -7.23652e-21)
(0.655158 0.0733591 7.14501e-21)
(0.694445 0.0829812 -1.50949e-20)
(0.733896 0.0930474 3.8211e-21)
(0.773372 0.103498 1.64358e-21)
(0.812716 0.114262 -1.43919e-20)
(0.851757 0.125261 8.53825e-21)
(0.890312 0.136405 1.86886e-20)
(0.928186 0.147597 -2.54403e-21)
(0.965173 0.15873 -1.00779e-20)
(1.00106 0.169692 -5.4492e-21)
(1.03562 0.180365 1.37732e-20)
(1.06865 0.19063 1.19598e-20)
(1.09991 0.200367 -1.39727e-20)
(1.12921 0.20946 -1.21261e-20)
(1.15633 0.217797 -1.31099e-20)
(1.18109 0.22528 1.13728e-20)
(1.20332 0.231823 -1.0386e-20)
(1.22285 0.237349 5.97985e-21)
(1.23955 0.241787 9.07219e-21)
(1.25324 0.245173 2.47542e-21)
(0.52623 0.0579269 6.4559e-22)
(0.564603 0.066481 -2.14418e-21)
(0.603432 0.0755973 -5.24116e-21)
(0.642625 0.0852433 -3.38561e-21)
(0.682074 0.0953774 9.78683e-21)
(0.721657 0.105949 -4.09415e-21)
(0.761239 0.116897 2.52851e-21)
(0.800669 0.128153 2.36114e-21)
(0.839786 0.139634 -1.78686e-21)
(0.878412 0.151252 1.93226e-21)
(0.916362 0.162907 -1.03549e-20)
(0.953437 0.174493 5.04241e-21)
(0.989433 0.185896 -2.83408e-21)
(1.02414 0.196997 1.37561e-21)
(1.05735 0.207675 7.63086e-21)
(1.08886 0.217807 -1.07732e-20)
(1.11846 0.227274 1.63963e-21)
(1.14596 0.235962 1.00931e-20)
(1.17118 0.243767 -1.09269e-20)
(1.19397 0.250597 3.41841e-21)
(1.21418 0.256375 -1.6703e-21)
(1.23168 0.261043 -3.46809e-21)
(1.24638 0.264567 -2.28344e-21)
(1.25813 0.266954 4.03409e-22)
(0.548931 0.0771349 -6.43838e-22)
(0.588012 0.0868186 3.22674e-21)
(0.627421 0.097022 5.6917e-21)
(0.667052 0.107703 -1.01233e-21)
(0.706789 0.118812 -7.73782e-21)
(0.746501 0.130286 4.89343e-21)
(0.786046 0.142056 -2.62646e-21)
(0.825267 0.15404 7.83131e-22)
(0.863995 0.166149 5.97019e-22)
(0.902051 0.178284 9.03008e-22)
(0.939248 0.190336 1.19768e-20)
(0.975389 0.202191 -7.95698e-21)
(1.01028 0.21373 9.2832e-21)
(1.04371 0.224828 -8.30883e-21)
(1.07548 0.235363 -8.83373e-21)
(1.10541 0.245212 6.62939e-21)
(1.13331 0.25426 -6.71844e-21)
(1.15902 0.262397 9.47461e-22)
(1.18237 0.269527 8.47258e-21)
(1.20324 0.27557 1.93404e-21)
(1.22152 0.280461 -4.70842e-21)
(1.23713 0.284162 -4.18615e-21)
(1.24997 0.286674 2.93944e-21)
(1.25997 0.287975 -5.57753e-21)
(0.609456 0.108469 2.09789e-21)
(0.649284 0.119742 -4.30372e-21)
(0.689192 0.131427 9.86775e-21)
(0.729055 0.143463 -1.04478e-20)
(0.768736 0.155781 8.00193e-21)
(0.808085 0.168299 -1.04957e-20)
(0.846941 0.180926 -5.7284e-21)
(0.885133 0.193564 2.11687e-20)
(0.92248 0.206104 -5.3705e-21)
(0.958797 0.218432 -6.67672e-21)
(0.993892 0.230427 8.06412e-21)
(1.02757 0.241964 -5.36483e-21)
(1.05965 0.252918 1.96628e-20)
(1.08994 0.263166 -1.51498e-21)
(1.11827 0.272589 -6.89485e-21)
(1.14447 0.281075 -2.63873e-21)
(1.16841 0.288525 -1.40096e-20)
(1.18995 0.294854 1.86753e-20)
(1.209 0.299994 -2.78193e-20)
(1.22548 0.303893 2.59206e-20)
(1.23932 0.306536 1.97971e-21)
(1.25048 0.307962 -1.68418e-20)
(1.25891 0.308116 7.61018e-21)
(0.628704 0.131252 1.70865e-20)
(0.668793 0.143562 -2.30481e-20)
(0.708819 0.156206 1.5654e-20)
(0.748651 0.169113 -1.18612e-20)
(0.788147 0.182203 -2.46981e-20)
(0.827151 0.195385 2.90169e-20)
(0.865502 0.20856 5.24889e-21)
(0.903025 0.22162 -2.43342e-20)
(0.939544 0.234449 -1.62777e-21)
(0.974875 0.246928 -1.42435e-20)
(1.00883 0.25893 -7.2957e-21)
(1.04124 0.270329 -1.44006e-21)
(1.07192 0.281001 3.33129e-20)
(1.1007 0.290824 6.40167e-21)
(1.12743 0.299684 -1.62859e-20)
(1.15196 0.30748 -6.94372e-21)
(1.17419 0.314121 1.23652e-20)
(1.19401 0.319537 8.8181e-21)
(1.21136 0.323675 3.39438e-22)
(1.22617 0.326499 -3.17092e-20)
(1.23842 0.328016 3.90827e-20)
(1.24808 0.328302 -1.52443e-20)
(1.25514 0.327269 3.50158e-21)
(0.645551 0.154963 7.53311e-21)
(0.685744 0.168268 -1.70185e-20)
(0.725734 0.181815 2.23309e-20)
(0.765386 0.195523 -5.98557e-20)
(0.804552 0.209304 4.88673e-20)
(0.843076 0.223058 -5.37467e-20)
(0.880793 0.236678 3.0024e-20)
(0.917534 0.250048 8.66441e-21)
(0.953123 0.263046 3.59301e-20)
(0.987384 0.275549 -1.75162e-20)
(1.02014 0.287428 -1.1677e-20)
(1.05123 0.298557 4.65418e-21)
(1.08049 0.308814 -5.06532e-20)
(1.10776 0.318082 6.56118e-20)
(1.13292 0.326256 -8.07391e-21)
(1.15585 0.333244 -5.60202e-21)
(1.17645 0.338971 -5.09742e-20)
(1.19466 0.34338 2.69193e-20)
(1.21043 0.346434 -1.21925e-20)
(1.22374 0.348119 2.17748e-20)
(1.23458 0.348462 -2.79082e-20)
(1.24294 0.347577 2.40293e-20)
(1.24884 0.345342 -4.71854e-21)
(0.659815 0.179382 1.15084e-20)
(0.69996 0.193626 7.30162e-21)
(0.739768 0.208008 2.16205e-20)
(0.779098 0.222441 -5.01981e-20)
(0.817802 0.236824 6.08277e-21)
(0.855723 0.251051 -1.01951e-20)
(0.892697 0.265008 7.64571e-20)
(0.928558 0.278572 -1.25422e-19)
(0.963136 0.291619 2.53912e-20)
(0.996265 0.304021 5.11612e-21)
(1.02778 0.315651 5.65498e-20)
(1.05753 0.326383 -1.18954e-20)
(1.08537 0.336101 -1.85774e-20)
(1.11116 0.344696 3.11986e-22)
(1.13481 0.352072 -2.52612e-20)
(1.15621 0.35815 -1.02886e-20)
(1.1753 0.362871 3.51801e-20)
(0.711296 0.219388 -6.39296e-21)
(0.750782 0.234531 -1.80971e-20)
(0.789661 0.249601 4.77947e-21)
(0.827783 0.264491 2.49993e-20)
(0.864993 0.279089 -5.19e-20)
(0.90113 0.293272 6.11726e-20)
(0.936033 0.306915 -4.05515e-22)
(1.27165 0.269023 1.46343e-21)
(1.26961 0.249423 -1.58176e-21)
(1.2647 0.229072 1.61375e-20)
(1.25674 0.208085 -1.90584e-20)
(1.2456 0.186598 4.36062e-22)
(1.23116 0.16477 -3.35279e-20)
(1.21331 0.142787 -9.42581e-21)
(1.19202 0.120865 -1.61071e-20)
(1.16727 0.0992518 -1.43564e-20)
(1.28046 0.267025 -6.44659e-22)
(1.28174 0.250928 2.28249e-21)
(1.28069 0.234082 -7.45528e-21)
(1.27715 0.216551 -8.60954e-21)
(1.27096 0.198413 1.56893e-20)
(1.26196 0.179764 9.36131e-22)
(1.25001 0.160722 1.46497e-20)
(1.23501 0.141429 2.22188e-20)
(1.21687 0.122056 -1.93059e-20)
(1.2816 0.261037 8.20533e-22)
(1.28542 0.247829 -2.54843e-21)
(1.28743 0.233922 -4.27162e-21)
(1.28748 0.219337 7.98686e-21)
(1.28539 0.204106 1.32864e-20)
(1.28099 0.18827 -1.08129e-21)
(1.27412 0.17189 -1.85738e-21)
(1.26461 0.155044 -1.55213e-21)
(1.25235 0.137836 4.46646e-20)
(1.27731 0.251923 -1.2836e-21)
(1.28282 0.241129 3.06527e-21)
(1.28701 0.229723 1.0783e-21)
(1.28972 0.217698 8.55022e-21)
(1.29079 0.205053 -7.37619e-22)
(1.29005 0.191793 1.5938e-20)
(1.28733 0.177937 -2.17859e-20)
(1.28247 0.163515 2.04805e-20)
(1.27528 0.148578 -3.9693e-20)
(1.26966 0.240746 1.08025e-21)
(1.27613 0.23191 -2.08296e-21)
(1.28168 0.222577 -5.69828e-21)
(1.28618 0.212723 -9.82365e-21)
(1.28949 0.202327 3.6921e-21)
(1.29147 0.191373 2.82987e-21)
(1.29195 0.179847 -2.28612e-21)
(1.29077 0.167747 -3.84086e-20)
(1.28776 0.155081 2.31176e-20)
(1.2602 0.228416 -1.43742e-21)
(1.26705 0.221098 -1.09683e-21)
(1.27329 0.213396 9.0644e-21)
(1.27883 0.205282 5.95476e-21)
(1.28356 0.196727 -1.17377e-23)
(1.28735 0.187703 -1.05616e-20)
(1.29008 0.178179 7.21802e-21)
(1.2916 0.168133 1.17274e-20)
(1.29175 0.157545 1.14393e-20)
(1.2692 0.196237 -2.33092e-21)
(1.27467 0.189128 1.18001e-21)
(1.27954 0.181648 -4.77303e-21)
(1.28369 0.173762 1.68169e-21)
(1.28701 0.165437 3.67002e-21)
(1.28935 0.15664 -1.58958e-20)
(1.25453 0.338177 1.39841e-20)
(1.26224 0.322418 -1.29763e-20)
(1.26779 0.305597 1.15272e-21)
(1.27098 0.287775 -1.23881e-21)
(1.25552 0.323043 -4.18301e-21)
(1.26441 0.310362 6.97845e-21)
(1.27163 0.296779 -2.42359e-21)
(1.27704 0.282322 8.82569e-22)
(1.25138 0.306679 4.50893e-21)
(1.26089 0.296358 2.0892e-21)
(1.26919 0.285308 2.49368e-21)
(1.27614 0.273533 -8.95072e-22)
(1.2446 0.289205 -5.29561e-21)
(1.25414 0.280746 -1.58754e-21)
(1.26284 0.27172 -2.52044e-21)
(1.27061 0.262117 1.17869e-21)
(1.23652 0.271532 6.74565e-21)
(1.24572 0.264481 4.33214e-21)
(1.25436 0.257011 1.84272e-21)
(1.26237 0.249106 -9.99724e-22)
(1.22813 0.254283 -4.32444e-21)
(1.23674 0.248293 -6.81553e-21)
(1.24498 0.241994 1.1835e-21)
(1.25282 0.235374 1.26034e-21)
(1.21973 0.237854 1.59995e-21)
)
;

boundaryField
{
    inlet
    {
        type            uniformFixedValue;
        uniformValue    constant (1 0 0);
        value           nonuniform 0();
    }
    outlet
    {
        type            pressureInletOutletVelocity;
        value           nonuniform 0();
    }
    cylinder
    {
        type            fixedValue;
        value           nonuniform 0();
    }
    top
    {
        type            symmetryPlane;
    }
    bottom
    {
        type            symmetryPlane;
    }
    defaultFaces
    {
        type            empty;
    }
    procBoundary26to20
    {
        type            processor;
        value           nonuniform List<vector> 
28
(
(0.379508 -0.0443338 -3.72393e-21)
(0.385976 -0.0427888 -1.00748e-20)
(0.385976 -0.0427888 -1.00748e-20)
(0.391251 -0.0402666 -3.84487e-20)
(0.391251 -0.0402666 -3.84487e-20)
(0.395195 -0.0367788 -3.49878e-20)
(0.395195 -0.0367788 -3.49878e-20)
(0.397652 -0.0323588 -4.2331e-20)
(0.397652 -0.0323588 -4.2331e-20)
(0.398454 -0.0270642 -3.77459e-20)
(0.398454 -0.0270642 -3.77459e-20)
(0.397425 -0.0209773 1.1584e-19)
(0.427104 -0.0109056 -5.52208e-21)
(0.427104 -0.0109056 -5.52208e-21)
(0.42233 -0.00323133 -3.47371e-20)
(0.449748 0.0095219 3.38909e-20)
(0.476381 0.0240145 8.50677e-21)
(0.501962 0.0401805 2.05459e-21)
(0.501962 0.0401805 2.05459e-21)
(0.488397 0.0499594 -9.28936e-21)
(0.510267 0.068004 1.00846e-20)
(0.56982 0.0976607 8.83979e-22)
(0.56982 0.0976607 8.83979e-22)
(0.588673 0.119336 -4.01005e-21)
(0.605282 0.141971 -3.68463e-20)
(0.619465 0.165357 2.82214e-20)
(0.671345 0.204271 9.78591e-21)
(0.671345 0.204271 9.78591e-21)
)
;
    }
    procBoundary26to25
    {
        type            processor;
        value           nonuniform List<vector> 
23
(
(1.19203 0.366197 -2.14478e-20)
(1.20638 0.368108 5.38528e-20)
(1.21836 0.368607 -3.15573e-21)
(1.22798 0.367749 1.12679e-20)
(1.23523 0.36568 -5.79735e-20)
(0.969541 0.319892 -3.0935e-20)
(1.0015 0.332072 5.83648e-21)
(1.03175 0.343331 -1.32084e-20)
(1.06016 0.353549 -8.91284e-21)
(1.08661 0.362614 -1.76002e-20)
(1.11098 0.370428 -1.44754e-20)
(1.13318 0.376909 4.63743e-20)
(1.15316 0.381992 1.56891e-20)
(1.19203 0.366197 -2.14478e-20)
(1.17085 0.385635 3.11491e-20)
(0.719638 0.245296 6.85874e-20)
(0.758674 0.261115 3.376e-20)
(0.796984 0.276731 -4.13222e-20)
(0.834418 0.292029 -3.6655e-20)
(0.870824 0.306891 1.95308e-20)
(0.906048 0.32119 -2.67474e-20)
(0.969541 0.319892 -3.0935e-20)
(0.939933 0.334799 -1.49912e-20)
)
;
    }
    procBoundary26to27
    {
        type            processor;
        value           nonuniform List<vector> 
17
(
(0.409775 -0.0430568 8.28865e-20)
(0.441363 -0.0413883 6.8403e-22)
(0.474248 -0.0393239 -1.8406e-19)
(0.508394 -0.036864 1.64214e-19)
(0.587867 -0.0271536 1.2932e-19)
(0.587867 -0.0271536 1.2932e-19)
(0.625404 -0.0231049 -9.67445e-20)
(0.663816 -0.0186934 8.54323e-20)
(0.702966 -0.0139567 -1.82347e-19)
(0.78872 0.00367554 -1.11027e-19)
(0.78872 0.00367554 -1.11027e-19)
(0.82873 0.00973625 3.47419e-20)
(0.868621 0.0159195 -8.5826e-20)
(0.908125 0.0221449 4.27153e-20)
(0.988267 0.0462358 4.54229e-20)
(0.988267 0.0462358 4.54229e-20)
(1.02448 0.0528886 -7.3598e-20)
)
;
    }
    procBoundary26to31
    {
        type            processor;
        value           nonuniform List<vector> 8((1.24019 0.362248 4.11627e-21) (1.24481 0.352821 -9.98055e-23) (1.24513 0.334796 -9.71371e-21) (1.24076 0.316265 -9.1596e-21) (1.23432 0.29711 3.40464e-22) (1.22679 0.278183 -2.96008e-21) (1.21919 0.259972 6.79224e-23) (1.2116 0.242855 -2.787e-22));
    }
    procBoundary26to32
    {
        type            processor;
        value           nonuniform List<vector> 
15
(
(1.24993 0.215636 -9.57271e-22)
(1.25675 0.209463 -3.04732e-21)
(1.2632 0.203006 7.05394e-21)
(1.2632 0.203006 7.05394e-21)
(1.25839 0.18631 5.24041e-22)
(1.26414 0.180311 5.71891e-21)
(1.2695 0.174031 -7.50136e-21)
(1.27442 0.167438 -1.37026e-20)
(1.27879 0.160498 -1.33183e-20)
(1.28253 0.153175 -1.85549e-20)
(1.22764 0.232641 -5.35119e-21)
(1.23533 0.227209 2.25851e-21)
(1.24277 0.221545 1.23302e-21)
(1.22764 0.232641 -5.35119e-21)
(1.21143 0.222278 -5.52857e-22)
)
;
    }
    procBoundary26to33
    {
        type            processor;
        value           nonuniform List<vector> 9((1.05891 0.0589728 -1.05621e-19) (1.09118 0.0645472 -7.23842e-21) (1.13912 0.078229 -3.4389e-20) (1.19555 0.102803 1.21402e-20) (1.2372 0.120396 3.71964e-20) (1.26563 0.133199 -4.57963e-20) (1.28274 0.141876 3.04261e-20) (1.29036 0.146405 3.03789e-20) (1.29059 0.147342 -1.21726e-20));
    }
}


// ************************************************************************* //
