/*--------------------------------*- C++ -*----------------------------------*\
  =========                 |
  \\      /  F ield         | OpenFOAM: The Open Source CFD Toolbox
   \\    /   O peration     | Website:  https://openfoam.org
    \\  /    A nd           | Version:  7
     \\/     M anipulation  |
\*---------------------------------------------------------------------------*/
FoamFile
{
    version     2.0;
    format      ascii;
    class       volVectorField;
    location    "8";
    object      U;
}
// * * * * * * * * * * * * * * * * * * * * * * * * * * * * * * * * * * * * * //

dimensions      [0 1 -1 0 0 0 0];

internalField   nonuniform List<vector> 
433
(
(1.01692 -0.0740584 1.19606e-19)
(1.0498 -0.0805337 -2.68465e-20)
(1.01259 -0.0612637 6.58767e-20)
(1.05708 -0.00188493 1.70669e-22)
(1.05765 -0.00187059 -2.91568e-23)
(1.05822 -0.00185584 -3.19753e-23)
(1.05877 -0.00184066 -7.34514e-23)
(1.05932 -0.00182498 -7.7723e-23)
(1.05986 -0.00180875 2.78893e-23)
(1.0604 -0.00179188 4.49185e-23)
(1.06093 -0.00177422 1.18251e-22)
(1.06145 -0.00175549 -1.53107e-22)
(1.06196 -0.00173511 1.99216e-23)
(1.06246 -0.00171188 5.17077e-23)
(1.05782 -0.00559322 2.15137e-22)
(1.0584 -0.00554888 5.09027e-23)
(1.05897 -0.00550383 -8.84249e-23)
(1.05954 -0.005458 -9.60989e-23)
(1.0601 -0.0054113 8.18104e-23)
(1.06065 -0.0053636 -4.91822e-23)
(1.0612 -0.00531465 1.49239e-23)
(1.06174 -0.005264 -8.91903e-25)
(1.06227 -0.00521077 4.86757e-23)
(1.06279 -0.00515305 5.4144e-23)
(1.0633 -0.00508678 1.02349e-22)
(1.05919 -0.00924366 -7.08301e-23)
(1.05979 -0.00917033 -1.10234e-22)
(1.06039 -0.00909596 1.96965e-22)
(1.06098 -0.00902045 -1.54403e-22)
(1.06156 -0.00894364 4.93985e-23)
(1.06214 -0.00886532 -1.08853e-22)
(1.06271 -0.00878509 9.28436e-23)
(1.06327 -0.00870218 -7.84975e-23)
(1.06382 -0.00861505 1.75576e-22)
(1.06437 -0.00852044 -1.16228e-22)
(1.06491 -0.00841138 -7.4051e-23)
(1.06115 -0.0128711 1.36568e-22)
(1.06179 -0.0127683 -2.33856e-22)
(1.06242 -0.0126642 2.62594e-22)
(1.06304 -0.0125587 -2.21587e-22)
(1.06366 -0.0124516 2.01869e-23)
(1.06427 -0.0123426 -4.64847e-24)
(1.06488 -0.0122312 1.42782e-22)
(1.06547 -0.0121162 -2.79018e-22)
(1.06607 -0.0119955 -1.29344e-22)
(1.06665 -0.0118643 2.21468e-22)
(1.06723 -0.0117125 -1.57676e-22)
(1.06366 -0.0165113 9.36016e-24)
(1.06434 -0.0163786 2.95891e-23)
(1.06502 -0.0162444 -1.24979e-23)
(1.06569 -0.0161086 -1.19215e-22)
(1.06635 -0.0159711 1.28855e-22)
(1.06701 -0.0158314 -1.89553e-22)
(1.06766 -0.0156888 2.79397e-22)
(1.0683 -0.0155418 -1.263e-23)
(1.06894 -0.0153874 2.68563e-22)
(1.06958 -0.0152193 -3.15094e-22)
(1.0702 -0.0150239 3.49537e-22)
(1.06669 -0.0201932 -3.84575e-23)
(1.06743 -0.0200296 -2.88851e-23)
(1.06815 -0.0198646 -3.82096e-23)
(1.06888 -0.0196978 -2.64195e-22)
(1.0696 -0.0195291 1.17805e-22)
(1.07031 -0.0193581 -1.2695e-23)
(1.07102 -0.0191837 2.64732e-22)
(1.07172 -0.0190042 -2.06825e-22)
(1.07242 -0.0188157 -4.4856e-23)
(1.07312 -0.0186099 1.83176e-22)
(1.07381 -0.0183695 -2.94788e-22)
(1.07021 -0.0239422 2.50273e-22)
(1.07101 -0.0237466 -2.64883e-22)
(1.0718 -0.0235495 3.41187e-22)
(1.07259 -0.0233508 2.67845e-22)
(1.07337 -0.02315 1.41754e-22)
(1.07415 -0.0229467 1.63632e-22)
(1.07493 -0.0227398 -9.59985e-23)
(1.07571 -0.0225269 -3.2552e-22)
(1.07648 -0.0223033 6.02153e-22)
(1.07724 -0.0220587 3.93567e-22)
(1.07801 -0.021771 8.67479e-23)
(1.0742 -0.0277808 -2.42894e-22)
(1.07507 -0.0275517 4.49289e-22)
(1.07593 -0.0273211 -5.74575e-22)
(1.07679 -0.0270888 2.13342e-22)
(1.07765 -0.0268546 -2.8437e-22)
(1.07851 -0.0266178 4.6186e-22)
(1.07937 -0.026377 -5.05225e-23)
(1.08022 -0.0261296 3.83272e-22)
(1.08108 -0.0258696 -9.10392e-22)
(1.08193 -0.0255843 -1.22689e-21)
(1.08278 -0.0252466 -5.53172e-22)
(1.07863 -0.0317288 -2.69253e-23)
(1.07958 -0.0314641 -4.66767e-23)
(1.08052 -0.0311981 -2.29303e-22)
(1.08147 -0.0309306 -2.622e-22)
(1.08242 -0.0306611 -4.16399e-23)
(1.08337 -0.0303891 -9.93615e-23)
(1.08431 -0.0301129 2.50689e-22)
(1.08526 -0.0298292 1.83539e-22)
(1.0862 -0.029531 6.98548e-22)
(1.08715 -0.0292028 1.39667e-21)
(1.0881 -0.0288115 1.52127e-22)
(1.08348 -0.035804 -1.90587e-22)
(1.08452 -0.0355014 1.59405e-22)
(1.08556 -0.0351977 6.14378e-22)
(1.0866 -0.0348926 9.68255e-23)
(1.08765 -0.0345857 1.67386e-22)
(1.08869 -0.0342763 -3.15192e-22)
(1.08974 -0.0339625 -5.82698e-23)
(1.09079 -0.0336405 -8.57631e-22)
(1.09184 -0.0333017 -5.75733e-22)
(1.09289 -0.0329277 -2.25964e-22)
(1.09395 -0.0324786 5.20144e-22)
(1.08875 -0.0400222 -9.84818e-23)
(1.08989 -0.039679 1.31152e-22)
(1.09103 -0.0393347 -2.66512e-22)
(1.09218 -0.0389892 -2.08034e-23)
(1.09333 -0.0386422 -5.53188e-22)
(1.09448 -0.0382928 1.79292e-22)
(1.09564 -0.0379388 -5.32479e-22)
(1.0968 -0.0375757 -7.38097e-22)
(1.09797 -0.0371935 6.37946e-23)
(1.09914 -0.0367703 -7.30892e-22)
(1.10032 -0.0362583 -2.83831e-22)
(1.0944 -0.0443984 4.25161e-23)
(1.09565 -0.044011 5.07451e-22)
(1.09691 -0.0436228 -8.0237e-22)
(1.09817 -0.0432337 -9.37108e-22)
(1.09944 -0.0428432 9.44801e-22)
(1.10071 -0.0424504 -1.93809e-23)
(1.10199 -0.042053 5.23289e-23)
(1.10328 -0.0416455 -6.96589e-23)
(1.10457 -0.0412164 9.08188e-22)
(1.10588 -0.0407397 1.31168e-21)
(1.10719 -0.0401587 1.15474e-21)
(1.10043 -0.0489453 -4.85941e-22)
(1.1018 -0.0485098 3.3198e-22)
(1.10318 -0.0480737 -4.05787e-22)
(1.10457 -0.047637 2.09717e-21)
(1.10597 -0.0471991 -3.53017e-23)
(1.10738 -0.0467591 -3.80816e-23)
(1.10879 -0.0463141 -4.87863e-22)
(1.11021 -0.0458583 2.11506e-21)
(1.11164 -0.0453779 -1.95811e-21)
(1.11309 -0.0448427 6.9952e-22)
(1.11454 -0.0441859 -1.52558e-21)
(1.10682 -0.0536751 2.65641e-22)
(1.10833 -0.0531869 -8.95116e-23)
(1.10984 -0.0526983 1.18565e-21)
(1.11137 -0.0522092 6.19125e-23)
(1.11291 -0.0517192 -1.4415e-22)
(1.11445 -0.051227 -4.76774e-22)
(1.11601 -0.0507299 -1.8272e-23)
(1.11758 -0.0502207 -1.25692e-21)
(1.11916 -0.0496838 -5.12165e-22)
(1.12076 -0.0490842 -9.25843e-22)
(1.12237 -0.0483434 1.48425e-21)
(1.11357 -0.0585992 4.27752e-22)
(1.11521 -0.0580527 -1.64968e-21)
(1.11687 -0.0575059 -1.85254e-21)
(1.11855 -0.0569589 -1.05141e-21)
(1.12023 -0.0564111 1.36065e-21)
(1.12194 -0.0558612 9.17213e-22)
(1.12365 -0.0553059 1.26558e-22)
(1.12537 -0.0547375 1.61349e-21)
(1.12711 -0.054138 1.32064e-21)
(1.12888 -0.0534668 -7.78729e-22)
(1.13066 -0.0526325 -1.39831e-21)
(1.12064 -0.0637274 -1.03403e-21)
(1.12245 -0.0631161 1.79161e-21)
(1.12426 -0.0625047 1.89217e-21)
(1.1261 -0.0618931 8.32457e-22)
(1.12795 -0.0612808 -2.5057e-21)
(1.12981 -0.0606663 -1.27823e-21)
(1.13169 -0.0600461 8.10958e-22)
(1.13359 -0.0594114 -1.5118e-21)
(1.13549 -0.0587417 -5.24081e-22)
(1.13743 -0.0579906 -3.23811e-23)
(1.1394 -0.0570517 -8.29812e-22)
(1.12805 -0.069069 1.25658e-22)
(1.13002 -0.0683856 2.07792e-22)
(1.132 -0.0677019 -2.39422e-21)
(1.13401 -0.0670179 -1.56788e-21)
(1.13603 -0.0663331 -1.71951e-22)
(1.13807 -0.0656459 2.64665e-21)
(1.14013 -0.0649524 8.67438e-22)
(1.1422 -0.0642428 -2.27719e-22)
(1.1443 -0.0634941 -4.04343e-22)
(1.14642 -0.0626529 -4.6986e-21)
(1.14858 -0.0615966 3.43394e-22)
(1.13577 -0.0746322 -1.5368e-21)
(1.13791 -0.0738679 -5.20349e-22)
(1.14008 -0.073103 1.41315e-21)
(1.14227 -0.0723375 1.46527e-21)
(1.14448 -0.0715708 2.31637e-21)
(1.14671 -0.0708014 -1.74771e-21)
(1.14895 -0.0700247 1.22363e-21)
(1.15122 -0.0692299 -4.09411e-22)
(1.15351 -0.0683911 -2.06898e-21)
(1.15583 -0.0674478 3.58101e-21)
(1.1582 -0.066259 2.55706e-21)
(1.1438 -0.0804247 2.80719e-21)
(1.14614 -0.0795694 -4.50017e-22)
(1.1485 -0.0787128 1.36508e-21)
(1.15088 -0.077855 -1.76486e-21)
(1.15328 -0.0769954 -2.85251e-21)
(1.15571 -0.076132 2.05101e-22)
(1.15816 -0.0752601 1.03638e-21)
(1.16063 -0.0743675 5.69018e-21)
(1.16312 -0.0734254 3.58972e-21)
(1.16565 -0.0723654 2.14229e-21)
(1.16823 -0.071026 5.46291e-21)
(1.15213 -0.0864529 -1.55912e-21)
(1.15467 -0.0854948 2.03281e-21)
(1.15724 -0.0845345 -2.34314e-21)
(1.15983 -0.0835717 -1.01916e-21)
(1.16245 -0.0826058 -2.10537e-22)
(1.16508 -0.0816346 -3.06836e-21)
(1.16775 -0.0806528 -5.27609e-21)
(1.17043 -0.0796469 -1.00785e-20)
(1.17313 -0.0785847 -2.7023e-21)
(1.17587 -0.0773895 6.96324e-21)
(1.17868 -0.0758777 -9.12317e-21)
(1.16077 -0.0927227 -1.30775e-21)
(1.16353 -0.0916481 6.81934e-22)
(1.16631 -0.0905695 3.71798e-23)
(1.16912 -0.0894867 2.52219e-21)
(1.17196 -0.0883985 1.79637e-21)
(1.17482 -0.0873024 4.82669e-21)
(1.1777 -0.0861923 -4.19238e-21)
(1.18061 -0.0850532 8.68404e-21)
(1.18353 -0.0838495 -5.26968e-22)
(1.18649 -0.0824952 -1.49568e-20)
(1.18952 -0.0807837 -2.5969e-21)
(1.16971 -0.0992379 2.42096e-21)
(1.1727 -0.0980308 4.07997e-21)
(1.17572 -0.096817 -2.78155e-21)
(1.17876 -0.0955959 -2.87079e-21)
(1.18183 -0.0943657 6.57744e-22)
(1.18492 -0.0931232 -9.76127e-21)
(1.18803 -0.0918612 8.55003e-21)
(1.19116 -0.0905628 -7.35511e-21)
(1.1943 -0.0891886 -2.82621e-21)
(1.19747 -0.0876436 3.14052e-21)
(1.20072 -0.0856972 -3.05182e-21)
(1.17895 -0.106 -2.48099e-21)
(1.18219 -0.104642 -3.13818e-21)
(1.18545 -0.103272 5.48732e-21)
(1.18874 -0.10189 7.4898e-21)
(1.19204 -0.100493 -6.37842e-21)
(1.19537 -0.0990759 6.18736e-21)
(1.19871 -0.0976304 -7.44289e-21)
(1.20206 -0.0961372 -5.62977e-21)
(1.20542 -0.0945527 4.40058e-21)
(1.20878 -0.092773 1.06332e-20)
(1.2122 -0.0905453 2.07754e-20)
(1.1885 -0.113008 -1.3681e-21)
(1.19199 -0.111474 2.20145e-21)
(1.19551 -0.109922 -3.97705e-21)
(1.19904 -0.10835 -1.11084e-20)
(1.20259 -0.106753 5.16501e-21)
(1.20615 -0.105124 -3.61056e-21)
(1.20971 -0.103452 -5.1523e-21)
(1.21326 -0.101714 1.41049e-20)
(1.21679 -0.0998631 -6.63315e-21)
(1.2203 -0.0977871 -1.95044e-21)
(1.22384 -0.0952159 -2.67046e-20)
(1.19835 -0.12025 -9.92863e-22)
(1.20211 -0.118511 -5.91718e-21)
(1.20588 -0.116743 1.54618e-21)
(1.20966 -0.114942 4.19221e-21)
(1.21343 -0.1131 3.94829e-21)
(1.2172 -0.111206 7.40451e-21)
(1.22094 -0.109246 2.26886e-20)
(1.22465 -0.107194 -3.30657e-21)
(1.22829 -0.104997 1.84238e-20)
(1.23185 -0.102538 -1.72546e-21)
(1.23538 -0.0995405 2.17045e-20)
(1.20849 -0.127703 4.31345e-21)
(1.21251 -0.125717 3.65818e-21)
(1.21652 -0.123687 2.01932e-21)
(1.22051 -0.121602 -1.38638e-20)
(1.22448 -0.119452 -1.01282e-20)
(1.2284 -0.117221 -3.09743e-21)
(1.23226 -0.114887 -2.35006e-20)
(1.23602 -0.112421 -9.59301e-21)
(1.23965 -0.109768 -9.42298e-21)
(1.24309 -0.106809 -1.11617e-21)
(1.24639 -0.103276 -1.74954e-21)
(1.21888 -0.135316 -6.97839e-22)
(1.22313 -0.133028 -3.51956e-21)
(1.22734 -0.13067 -4.04024e-21)
(1.2315 -0.128226 2.28497e-20)
(1.23558 -0.125679 3.62609e-21)
(1.23955 -0.123005 -1.21625e-20)
(1.24337 -0.120179 2.97081e-20)
(1.24701 -0.117165 2.5602e-21)
(1.25041 -0.113906 9.65527e-21)
(1.25348 -0.110294 -2.36045e-20)
(1.25619 -0.106094 -2.20847e-21)
(1.22944 -0.143003 -5.8746e-21)
(1.23386 -0.140332 8.92231e-23)
(1.23818 -0.137552 1.86226e-21)
(1.24239 -0.13464 -6.26929e-21)
(1.24643 -0.131571 5.97035e-21)
(1.25026 -0.128314 2.06642e-20)
(1.25382 -0.124836 -1.74731e-20)
(1.25705 -0.121098 -1.55984e-20)
(1.2599 -0.117047 -1.16362e-20)
(1.26219 -0.112594 3.81834e-20)
(1.26379 -0.107577 -8.51105e-21)
(1.23999 -0.150612 7.25998e-22)
(1.24446 -0.147444 9.67241e-21)
(1.24874 -0.14411 8.34891e-24)
(1.25279 -0.140582 1.01582e-20)
(1.25655 -0.136823 -3.65455e-21)
(1.25994 -0.132797 1.28538e-20)
(1.26288 -0.128465 -6.17521e-21)
(1.26529 -0.123789 3.35321e-21)
(1.2671 -0.118728 1.36261e-20)
(1.26803 -0.11323 -2.86111e-20)
(1.26783 -0.107246 7.88526e-21)
(1.25026 -0.157907 -7.05784e-21)
(1.25456 -0.154081 3.17549e-21)
(1.25854 -0.150016 -1.85873e-20)
(1.26212 -0.145673 -1.94853e-20)
(1.26521 -0.141011 1.24038e-20)
(1.26772 -0.135988 -1.66869e-20)
(1.26952 -0.130566 -1.15465e-20)
(1.27052 -0.124716 4.51234e-20)
(1.27063 -0.118419 1.56128e-20)
(1.26949 -0.11168 -1.04873e-20)
(1.2666 -0.104616 -6.4062e-21)
(1.25975 -0.164536 3.3426e-21)
(1.26356 -0.15984 -9.15875e-21)
(1.26685 -0.154814 2.41377e-20)
(1.26949 -0.149414 -3.78648e-21)
(1.27137 -0.143596 -2.46336e-21)
(1.27237 -0.137323 2.59419e-20)
(1.27235 -0.130565 4.3378e-20)
(1.27119 -0.123311 -1.13361e-20)
(1.2688 -0.115583 -6.04458e-20)
(1.2647 -0.107464 2.79655e-20)
(1.2581 -0.0992817 3.49654e-20)
(1.26773 -0.170012 7.82497e-21)
(1.27057 -0.164182 -9.17367e-21)
(1.27259 -0.157922 -1.12967e-20)
(1.27366 -0.151191 -2.42765e-21)
(1.27362 -0.143953 -1.73993e-20)
(1.27234 -0.136182 -2.97556e-20)
(1.26965 -0.12787 -6.568e-21)
(1.26544 -0.119042 1.40587e-20)
(1.25964 -0.109771 2.78074e-20)
(1.25162 -0.10024 -3.04872e-20)
(1.24028 -0.0910217 -2.27726e-20)
(1.27315 -0.173713 6.31957e-22)
(1.27436 -0.16645 6.32248e-21)
(1.27438 -0.158667 2.86072e-20)
(1.27307 -0.150334 5.68264e-21)
(1.27025 -0.141436 2.13486e-20)
(1.26577 -0.131975 -2.83436e-21)
(1.25947 -0.12198 -4.37667e-20)
(1.25126 -0.11152 1.04225e-20)
(1.24112 -0.100737 2.78908e-20)
(1.22827 -0.0899187 4.11686e-20)
(1.21122 -0.0798952 -4.29257e-20)
(1.27459 -0.174917 -1.20205e-20)
(1.27334 -0.165922 1.35242e-20)
(1.27049 -0.156348 -5.71871e-21)
(1.26587 -0.146196 6.10255e-21)
(1.25932 -0.135484 9.90232e-21)
(1.25068 -0.124257 1.91024e-20)
(1.23983 -0.112592 3.99217e-20)
(1.22672 -0.100619 -5.48231e-20)
(1.2114 -0.0885427 -6.08925e-21)
(1.19294 -0.0767536 -1.70855e-20)
(1.1695 -0.0663022 8.47937e-20)
(1.27032 -0.172873 2.83474e-20)
(1.26568 -0.161899 -4.64065e-20)
(1.25899 -0.150354 1.83007e-20)
(1.25009 -0.138279 2.65305e-20)
(1.23885 -0.125745 -6.70686e-20)
(1.22516 -0.112852 -8.87373e-21)
(1.20892 -0.0997343 -8.78309e-21)
(1.19019 -0.0865798 -2.27958e-20)
(1.16911 -0.0736482 -3.70649e-20)
(1.14456 -0.0613889 4.57585e-21)
(1.11437 -0.0509889 -1.40938e-20)
(1.25839 -0.166875 2.70762e-20)
(1.24938 -0.153782 1.35158e-20)
(1.2379 -0.140222 -7.12523e-20)
(1.22382 -0.126295 -2.07436e-20)
(1.20707 -0.112132 1.49847e-20)
(1.1876 -0.097897 -3.64521e-20)
(1.16541 -0.0837855 3.67707e-20)
(1.14064 -0.0700298 5.52505e-20)
(1.11354 -0.0569055 3.90155e-20)
(1.0828 -0.044838 2.09336e-20)
(1.04598 -0.0349895 -8.50506e-20)
(1.23684 -0.156442 -4.74928e-20)
(1.22258 -0.141248 3.63445e-20)
(1.20548 -0.12581 -1.39668e-20)
(1.1855 -0.110294 -8.34566e-21)
(1.16264 -0.0949023 2.26259e-20)
(1.13695 -0.0798675 -1.10079e-20)
(1.10853 -0.0654404 -6.20794e-20)
(1.07764 -0.051878 1.73354e-20)
(1.04468 -0.039414 -9.27941e-20)
(1.00811 -0.0283138 -2.0449e-20)
(0.965209 -0.0194536 5.75332e-20)
(1.20415 -0.141704 3.71667e-20)
(1.18397 -0.124675 1.16039e-20)
(1.16073 -0.10775 6.95167e-20)
(1.13447 -0.091166 1.9788e-20)
(1.10527 -0.0751925 -4.73974e-21)
(1.07331 -0.0601227 4.86454e-20)
(1.03876 -0.0462493 5.11173e-20)
(1.00202 -0.0338234 -4.0612e-20)
(0.963609 -0.0229647 1.06073e-19)
(0.921796 -0.0135763 3.42407e-21)
(1.18198 -0.140877 2.65079e-20)
(1.1587 -0.122113 9.22312e-21)
(1.13221 -0.103685 -9.97003e-21)
(1.10261 -0.0858658 -3.55466e-20)
(1.07003 -0.0689595 3.58536e-20)
(1.03469 -0.0532999 -4.77096e-21)
(0.996856 -0.0392337 -1.05644e-20)
(0.956811 -0.0270877 -6.51052e-20)
(1.12917 -0.116083 -1.18546e-20)
(1.0992 -0.0955523 -6.62788e-20)
(1.06597 -0.0759113 -3.15768e-20)
(1.02969 -0.0575059 3.18385e-20)
(0.990613 -0.0407092 -7.26805e-20)
)
;

boundaryField
{
    inlet
    {
        type            uniformFixedValue;
        uniformValue    constant (1 0 0);
        value           nonuniform 0();
    }
    outlet
    {
        type            pressureInletOutletVelocity;
        value           nonuniform 0();
    }
    cylinder
    {
        type            fixedValue;
        value           nonuniform 0();
    }
    top
    {
        type            symmetryPlane;
    }
    bottom
    {
        type            symmetryPlane;
    }
    defaultFaces
    {
        type            empty;
    }
    procBoundary3to2
    {
        type            processor;
        value           nonuniform List<vector> 
33
(
(1.05651 -0.0018989 4.65316e-23)
(1.05723 -0.00563692 2.41393e-22)
(1.05858 -0.00931604 4.09991e-23)
(1.06051 -0.0129728 -6.71906e-23)
(1.06298 -0.0166427 8.14499e-23)
(1.06596 -0.0203554 -1.59265e-22)
(1.06942 -0.0241363 3.82729e-22)
(1.07333 -0.0280086 -1.05764e-22)
(1.07768 -0.0319921 3.15348e-22)
(1.08245 -0.0361054 -9.85944e-23)
(1.08761 -0.0403645 -3.5068e-22)
(1.09316 -0.044785 -2.62807e-22)
(1.09907 -0.0493802 -9.51133e-23)
(1.10533 -0.054163 -7.20779e-24)
(1.11193 -0.0591455 5.24282e-22)
(1.11886 -0.0643384 -2.07743e-21)
(1.1261 -0.0697521 1.97162e-21)
(1.13364 -0.0753959 8.77518e-22)
(1.14148 -0.0812788 -1.49927e-21)
(1.14961 -0.0874088 1.12991e-21)
(1.15803 -0.0937934 -3.7131e-21)
(1.16674 -0.100439 2.26371e-21)
(1.17574 -0.10735 -2.51688e-22)
(1.18502 -0.114527 1.26863e-21)
(1.19461 -0.121966 5.13677e-22)
(1.20448 -0.129651 -1.91308e-21)
(1.21461 -0.137546 3.55125e-21)
(1.22496 -0.145584 1.64034e-21)
(1.23539 -0.153643 1.48039e-21)
(1.24569 -0.161531 -6.76527e-21)
(1.25549 -0.168946 -1.25409e-20)
(1.2642 -0.175457 2.45216e-20)
(1.27091 -0.180492 -1.01683e-20)
)
;
    }
    procBoundary3to4
    {
        type            processor;
        value           nonuniform List<vector> 
24
(
(1.06329 -0.00166362 0)
(1.06415 -0.00494526 0)
(1.06579 -0.00817616 0)
(1.06815 -0.0113824 0)
(1.0712 -0.0145958 0)
(1.07488 -0.0178389 0)
(1.07917 -0.0211319 0)
(1.08405 -0.0244916 0)
(1.08949 -0.0279317 0)
(1.09548 -0.0314636 0)
(1.102 -0.035096 0)
(1.10904 -0.0388355 0)
(1.11658 -0.0426862 0)
(1.12461 -0.0466495 0)
(1.13311 -0.0507245 0)
(1.14207 -0.0549072 0)
(1.1515 -0.0591903 0)
(1.16136 -0.0635625 0)
(1.17166 -0.0680071 0)
(1.18238 -0.0725 0)
(1.19349 -0.0770056 0)
(1.20495 -0.0814713 0)
(1.21666 -0.0858181 0)
(1.22845 -0.0899282 0)
)
;
    }
    procBoundary3to8
    {
        type            processor;
        value           nonuniform List<vector> 
11
(
(1.05312 -0.0941568 3.14609e-20)
(1.08388 -0.101087 5.24405e-20)
(1.08388 -0.101087 5.24405e-20)
(1.27441 -0.183349 -5.19224e-21)
(1.27308 -0.183257 8.83146e-21)
(1.26505 -0.179429 1.92061e-20)
(1.24837 -0.171256 -4.22685e-20)
(1.22128 -0.158635 4.19958e-20)
(1.22128 -0.158635 4.19958e-20)
(1.20202 -0.159739 2.13955e-20)
(1.15574 -0.137187 -2.95718e-20)
)
;
    }
    procBoundary3to9
    {
        type            processor;
        value           nonuniform List<vector> 
16
(
(0.982191 -0.0670856 6.78163e-20)
(0.977759 -0.0554493 -1.12116e-20)
(0.977759 -0.0554493 -1.12116e-20)
(0.972523 -0.0436218 2.05434e-20)
(0.972523 -0.0436218 2.05434e-20)
(0.929899 -0.0279669 1.04046e-19)
(0.873569 -0.00582614 2.65791e-20)
(0.915042 -0.0171026 5.19283e-20)
(0.872219 -0.00928466 3.34286e-20)
(0.873569 -0.00582614 2.65791e-20)
(0.826417 -0.00297209 -4.99194e-20)
(0.949068 -0.0259154 1.49853e-20)
(0.90542 -0.013529 -2.85243e-20)
(0.915042 -0.0171026 5.19283e-20)
(0.860038 -0.00393929 -2.75353e-21)
(0.949068 -0.0259154 1.49853e-20)
)
;
    }
    procBoundary3to10
    {
        type            processor;
        value           nonuniform List<vector> 
13
(
(1.23999 -0.0936306 0)
(1.25076 -0.0966864 0)
(1.25998 -0.0987816 0)
(1.2665 -0.0995332 0)
(1.26881 -0.098518 0)
(1.26507 -0.0953295 0)
(1.25323 -0.0896575 0)
(1.23124 -0.0813743 0)
(1.19733 -0.0706036 0)
(1.15031 -0.0577484 0)
(1.08974 -0.0434598 0)
(1.01607 -0.0285438 0)
(0.930541 -0.0137919 0)
)
;
    }
}


// ************************************************************************* //
