/*--------------------------------*- C++ -*----------------------------------*\
  =========                 |
  \\      /  F ield         | OpenFOAM: The Open Source CFD Toolbox
   \\    /   O peration     | Website:  https://openfoam.org
    \\  /    A nd           | Version:  7
     \\/     M anipulation  |
\*---------------------------------------------------------------------------*/
FoamFile
{
    version     2.0;
    format      ascii;
    class       volVectorField;
    location    "4";
    object      U;
}
// * * * * * * * * * * * * * * * * * * * * * * * * * * * * * * * * * * * * * //

dimensions      [0 1 -1 0 0 0 0];

internalField   nonuniform List<vector> 
433
(
(1.04372 -0.00191607 8.74199e-23)
(1.04431 -0.00190569 -5.30394e-23)
(1.04489 -0.00189493 1.24237e-23)
(1.04548 -0.00188376 -1.87837e-23)
(1.04426 -0.00571765 -1.70615e-22)
(1.04486 -0.00568391 -9.03494e-24)
(1.04545 -0.00564884 -1.16618e-23)
(1.04604 -0.00561238 2.65092e-23)
(1.04529 -0.00944008 7.86822e-23)
(1.0459 -0.00938267 -4.7946e-23)
(1.04651 -0.00932304 2.72874e-23)
(1.04712 -0.00926111 -3.15774e-24)
(1.04678 -0.0131286 2.75723e-23)
(1.04741 -0.0130457 3.75492e-25)
(1.04804 -0.0129597 -2.26227e-23)
(1.04867 -0.0128704 1.50872e-23)
(1.0487 -0.0168097 -2.92096e-23)
(1.04935 -0.016699 -9.29798e-23)
(1.05001 -0.0165843 1.1113e-22)
(1.05066 -0.0164654 -1.37062e-23)
(1.05102 -0.020513 -6.69463e-23)
(1.05171 -0.0203716 -2.36498e-24)
(1.05239 -0.0202251 -1.17667e-23)
(1.05307 -0.0200734 -4.57371e-24)
(1.05373 -0.0242631 5.42152e-23)
(1.05445 -0.0240873 1.51391e-23)
(1.05516 -0.0239055 1.09432e-23)
(1.05588 -0.0237174 -1.17968e-24)
(1.05681 -0.0280842 -1.58993e-23)
(1.05756 -0.0278698 9.47008e-23)
(1.05832 -0.0276484 -2.1582e-24)
(1.05907 -0.0274198 1.40373e-23)
(1.06023 -0.0319988 2.15321e-23)
(1.06103 -0.0317412 -9.64116e-24)
(1.06183 -0.0314755 -7.59007e-24)
(1.06264 -0.0312015 -2.98139e-24)
(1.06399 -0.0360294 1.51897e-22)
(1.06484 -0.0357233 -5.59639e-24)
(1.0657 -0.0354081 2.81278e-24)
(1.06656 -0.0350835 2.62645e-24)
(1.06808 -0.0401981 -3.09103e-23)
(1.06899 -0.0398378 1.88847e-23)
(1.0699 -0.0394673 1.65917e-24)
(1.07082 -0.0390862 -9.70947e-24)
(1.07247 -0.0445272 -1.07892e-23)
(1.07345 -0.0441066 -8.35389e-24)
(1.07443 -0.0436745 -5.55927e-24)
(1.07542 -0.0432306 4.08595e-25)
(1.07716 -0.0490397 -3.55306e-23)
(1.07821 -0.0485519 9.62922e-24)
(1.07928 -0.0480516 3.88531e-24)
(1.08035 -0.0475379 7.63083e-25)
(1.08213 -0.0537588 6.20795e-24)
(1.08327 -0.0531967 1.29353e-23)
(1.08442 -0.0526207 -1.66102e-24)
(1.08558 -0.0520301 -6.40564e-24)
(1.08737 -0.0587096 1.83873e-23)
(1.08861 -0.0580657 3.65372e-24)
(1.08986 -0.0574062 -2.7813e-23)
(1.09112 -0.0567305 8.83277e-24)
(1.09285 -0.0639166 -3.18796e-23)
(1.0942 -0.0631825 -2.45929e-25)
(1.09557 -0.0624312 3.6831e-23)
(1.09694 -0.061662 1.63223e-23)
(1.09857 -0.0694057 2.88944e-23)
(1.10005 -0.0685726 -1.38204e-22)
(1.10154 -0.0677208 2.18834e-23)
(1.10305 -0.0668492 -8.95223e-24)
(1.10452 -0.0752057 -4.80919e-23)
(1.10614 -0.0742645 6.87471e-23)
(1.10777 -0.0733025 -1.31072e-22)
(1.10942 -0.0723188 3.63298e-24)
(1.11066 -0.081345 -5.75349e-24)
(1.11244 -0.0802857 2.39508e-22)
(1.11423 -0.0792035 4.48489e-24)
(1.11604 -0.0780973 -4.2953e-23)
(1.11699 -0.0878535 -4.77373e-22)
(1.11895 -0.0866658 8.81881e-24)
(1.12092 -0.0854525 -1.16983e-22)
(1.12291 -0.0842128 1.94725e-22)
(1.12348 -0.0947626 -2.27886e-22)
(1.12564 -0.0934352 -1.65219e-22)
(1.12782 -0.0920795 1.62084e-22)
(1.13001 -0.0906943 -5.18056e-23)
(1.13014 -0.102106 6.06657e-22)
(1.13252 -0.100627 -2.05722e-22)
(1.13492 -0.0991163 1.91311e-22)
(1.13733 -0.0975729 -4.50337e-23)
(1.13693 -0.109911 4.7039e-22)
(1.13956 -0.108269 5.31163e-22)
(1.14221 -0.106591 1.10447e-22)
(1.14488 -0.104877 -1.67987e-22)
(1.14384 -0.118243 -3.7858e-22)
(1.14675 -0.116418 6.61168e-23)
(1.14968 -0.114553 -5.6043e-22)
(1.15263 -0.112648 1.70606e-22)
(1.15088 -0.127098 -4.37382e-22)
(1.15412 -0.125079 -3.10963e-22)
(1.15736 -0.123014 6.44933e-22)
(1.16061 -0.120905 -1.584e-22)
(1.15803 -0.136515 -1.143e-21)
(1.16161 -0.134288 -2.35083e-22)
(1.16519 -0.13201 -6.33949e-22)
(1.16878 -0.129681 -1.36551e-23)
(1.16528 -0.146574 8.63977e-22)
(1.16925 -0.144113 -2.78696e-22)
(1.17321 -0.141595 -8.80368e-22)
(1.17717 -0.139019 6.19161e-23)
(1.17265 -0.157285 4.25336e-22)
(1.17704 -0.154569 1.6378e-21)
(1.18142 -0.151788 6.24434e-23)
(1.1858 -0.148942 -2.78869e-23)
(1.18012 -0.168708 2.57749e-21)
(1.18498 -0.165705 -1.49471e-21)
(1.18983 -0.16263 4.81481e-23)
(1.19465 -0.159479 -5.26362e-23)
(1.18774 -0.180872 4.53049e-22)
(1.19312 -0.17755 6.76411e-22)
(1.19846 -0.174144 1.46838e-21)
(1.20376 -0.17065 5.24062e-23)
(1.19549 -0.193814 -3.05796e-21)
(1.20143 -0.190136 -1.61528e-21)
(1.20731 -0.186353 8.11487e-22)
(1.21314 -0.182465 5.55608e-22)
(1.20338 -0.207593 2.28007e-21)
(1.20994 -0.2035 5.48729e-21)
(1.21641 -0.199277 -6.98774e-22)
(1.22279 -0.194922 -4.78296e-22)
(1.21143 -0.222278 -3.33282e-21)
(1.21867 -0.217679 -1.52449e-21)
(1.22576 -0.212918 -1.84891e-21)
(1.23269 -0.207986 -4.99102e-22)
(1.23533 -0.227209 -1.62287e-22)
(1.24277 -0.221545 5.96853e-23)
(1.04606 -0.00187214 -1.75533e-23)
(1.04663 -0.00186003 1.26295e-23)
(1.04721 -0.00184739 -3.63053e-23)
(1.04777 -0.00183418 2.2775e-23)
(1.04833 -0.00182036 7.62209e-23)
(1.04889 -0.00180588 -1.00683e-22)
(1.04944 -0.0017907 1.98395e-22)
(1.04999 -0.00177479 -1.95112e-22)
(1.05053 -0.00175809 -5.60163e-23)
(1.04663 -0.00557446 2.68519e-23)
(1.04722 -0.00553501 -1.65236e-23)
(1.0478 -0.00549396 -1.38921e-23)
(1.04838 -0.00545124 1.10931e-22)
(1.04895 -0.00540679 -2.50876e-22)
(1.04951 -0.00536053 1.31901e-22)
(1.05007 -0.00531239 1.45336e-23)
(1.05063 -0.0052623 1.20159e-22)
(1.05117 -0.00521019 -3.52594e-22)
(1.04772 -0.00919677 -2.36498e-24)
(1.04832 -0.00912991 3.53292e-23)
(1.04892 -0.00906042 -4.42208e-23)
(1.04951 -0.0089882 -2.17868e-23)
(1.05009 -0.00891314 1.47236e-22)
(1.05067 -0.00883514 -1.26826e-22)
(1.05125 -0.00875407 2.46047e-23)
(1.05182 -0.00866984 4.28781e-23)
(1.05238 -0.00858234 -4.43409e-23)
(1.04929 -0.0127777 1.71083e-23)
(1.04991 -0.0126814 -2.20848e-23)
(1.05053 -0.0125815 1.51801e-23)
(1.05114 -0.0124777 -2.19991e-23)
(1.05174 -0.0123699 -3.45839e-23)
(1.05235 -0.0122581 8.4394e-23)
(1.05294 -0.012142 -7.68632e-23)
(1.05353 -0.0120216 4.5131e-23)
(1.05412 -0.0118967 5.86551e-23)
(1.0513 -0.016342 -1.03128e-23)
(1.05195 -0.016214 5.26271e-23)
(1.05259 -0.0160813 -8.90097e-23)
(1.05323 -0.0159436 5.62357e-23)
(1.05387 -0.0158009 1.85941e-23)
(1.0545 -0.0156529 2.36023e-23)
(1.05512 -0.0154995 -4.01112e-23)
(1.05574 -0.0153406 -5.12393e-23)
(1.05635 -0.015176 -5.62532e-23)
(1.05375 -0.0199163 -8.96591e-24)
(1.05442 -0.0197535 7.72157e-25)
(1.0551 -0.0195849 6.02475e-23)
(1.05577 -0.0194102 -9.11706e-25)
(1.05644 -0.0192292 -1.73792e-23)
(1.0571 -0.0190419 1.02978e-22)
(1.05776 -0.018848 -9.32672e-23)
(1.05841 -0.0186473 -4.44419e-23)
(1.05906 -0.0184398 7.20051e-23)
(1.05659 -0.0235228 8.98445e-24)
(1.05731 -0.0233215 2.60382e-23)
(1.05802 -0.0231133 -2.75624e-23)
(1.05873 -0.0228978 -2.54541e-23)
(1.05943 -0.0226749 -3.11051e-23)
(1.06014 -0.0224445 4.48611e-23)
(1.06084 -0.0222062 9.82531e-24)
(1.06153 -0.02196 2.51903e-23)
(1.06222 -0.0217057 -7.52676e-23)
(1.05983 -0.0271835 2.07059e-24)
(1.06059 -0.0269394 -1.20652e-23)
(1.06134 -0.0266872 1.41883e-23)
(1.0621 -0.0264266 -6.55114e-23)
(1.06285 -0.0261574 -1.93664e-23)
(1.0636 -0.0258794 9.83817e-24)
(1.06435 -0.0255924 1.70354e-23)
(1.06509 -0.0252961 9.60482e-24)
(1.06583 -0.0249906 4.92836e-24)
(1.06344 -0.0309188 -5.71214e-24)
(1.06425 -0.0306271 1.00431e-24)
(1.06505 -0.030326 2.24257e-23)
(1.06586 -0.0300154 -1.04689e-23)
(1.06667 -0.0296949 2.59696e-23)
(1.06747 -0.0293643 1.63072e-23)
(1.06827 -0.0290234 -5.14302e-24)
(1.06907 -0.0286721 -3.93869e-23)
(1.06986 -0.0283101 4.63318e-23)
(1.06742 -0.0347489 -3.52569e-24)
(1.06828 -0.0344042 1.06745e-23)
(1.06915 -0.0340488 -5.33082e-24)
(1.07001 -0.0336826 5.32187e-25)
(1.07088 -0.0333053 7.89147e-24)
(1.07174 -0.0329166 -7.87327e-24)
(1.0726 -0.0325162 1.06409e-23)
(1.07347 -0.0321041 1.25372e-22)
(1.07433 -0.03168 1.19861e-24)
(1.07175 -0.038694 5.92289e-25)
(1.07267 -0.0382902 -1.90145e-24)
(1.0736 -0.0378746 -4.15357e-25)
(1.07454 -0.0374469 1.33673e-23)
(1.07547 -0.0370066 -4.15561e-23)
(1.0764 -0.0365535 1.25108e-23)
(1.07734 -0.0360874 -2.29669e-23)
(1.07827 -0.0356082 -5.23293e-23)
(1.07921 -0.0351156 -1.17372e-22)
(1.07642 -0.0427742 5.47898e-25)
(1.07742 -0.0423051 6.82121e-24)
(1.07842 -0.0418227 -1.36239e-23)
(1.07943 -0.0413267 1.91971e-23)
(1.08044 -0.0408167 1.34688e-22)
(1.08145 -0.0402926 -3.67827e-23)
(1.08247 -0.039754 3.73052e-23)
(1.08348 -0.0392007 -7.46185e-23)
(1.0845 -0.0386327 -1.30178e-22)
(1.08142 -0.0470106 4.83722e-24)
(1.08251 -0.046469 -1.28147e-23)
(1.08359 -0.0459126 -6.5652e-24)
(1.08469 -0.0453412 -1.018e-22)
(1.08578 -0.0447543 -7.48492e-23)
(1.08688 -0.0441517 -1.48675e-22)
(1.08799 -0.0435331 3.54476e-23)
(1.08909 -0.0428983 -2.51999e-22)
(1.0902 -0.0422471 -6.11738e-23)
(1.08675 -0.0514243 -2.54883e-24)
(1.08793 -0.0508026 -2.20995e-23)
(1.08911 -0.0501647 -7.50437e-23)
(1.0903 -0.0495101 1.16891e-23)
(1.09149 -0.0488384 1.1658e-22)
(1.09269 -0.0481493 -9.76727e-23)
(1.09389 -0.0474426 -2.20116e-24)
(1.0951 -0.046718 -6.12982e-23)
(1.09631 -0.0459755 -5.28848e-24)
(1.09239 -0.056038 1.40512e-23)
(1.09367 -0.0553281 -2.58637e-23)
(1.09496 -0.0546003 6.11639e-23)
(1.09625 -0.053854 -5.81715e-23)
(1.09755 -0.0530889 -1.31622e-23)
(1.09886 -0.0523047 -1.07922e-22)
(1.10018 -0.051501 -1.06991e-22)
(1.1015 -0.0506778 8.23097e-23)
(1.10283 -0.0498347 3.55269e-22)
(1.09833 -0.0608743 -1.92478e-23)
(1.09973 -0.0600675 -2.26595e-23)
(1.10113 -0.0592408 -2.42989e-23)
(1.10255 -0.0583939 9.09995e-23)
(1.10397 -0.0575263 -1.31848e-22)
(1.1054 -0.0566376 8.46613e-22)
(1.10684 -0.0557275 -4.96607e-22)
(1.10829 -0.0547959 3.63811e-22)
(1.10974 -0.0538426 -1.50778e-21)
(1.10456 -0.0659572 3.26731e-24)
(1.10609 -0.0650441 4.41356e-23)
(1.10763 -0.0641091 1.75628e-22)
(1.10918 -0.0631518 -8.6993e-23)
(1.11074 -0.0621718 7.30021e-25)
(1.1123 -0.0611685 -8.81914e-22)
(1.11388 -0.0601417 2.40874e-22)
(1.11547 -0.0590913 -4.23249e-22)
(1.11707 -0.0580172 1.48531e-21)
(1.11108 -0.0713125 3.0549e-23)
(1.11275 -0.0702829 5.18184e-23)
(1.11444 -0.0692293 7.83726e-24)
(1.11613 -0.0681512 7.04476e-23)
(1.11784 -0.0670479 4.55654e-22)
(1.11956 -0.0659191 6.50597e-22)
(1.1213 -0.0647646 -3.91501e-22)
(1.12304 -0.063584 6.39022e-22)
(1.12479 -0.0623774 7.46267e-22)
(1.11786 -0.0769661 9.20188e-23)
(1.1197 -0.0758093 -4.22057e-23)
(1.12155 -0.074626 -2.43305e-22)
(1.12341 -0.0734156 -1.38597e-22)
(1.12529 -0.0721776 -1.07679e-21)
(1.12718 -0.0709116 5.46828e-22)
(1.12908 -0.0696171 -1.04188e-21)
(1.131 -0.0682941 1.49167e-21)
(1.13292 -0.0669424 -1.19701e-21)
(1.12491 -0.0829454 -1.27589e-22)
(1.12693 -0.0816497 2.44788e-23)
(1.12896 -0.0803248 1.62123e-22)
(1.13101 -0.07897 7.23091e-22)
(1.13307 -0.0775847 -1.92733e-22)
(1.13515 -0.0761686 -1.56845e-22)
(1.13724 -0.0747212 1.71602e-21)
(1.13934 -0.0732423 -1.4803e-21)
(1.14146 -0.0717318 1.00408e-21)
(1.13221 -0.0892785 6.35264e-24)
(1.13444 -0.0878314 -1.42475e-22)
(1.13667 -0.086352 2.35855e-22)
(1.13892 -0.0848396 -7.57355e-22)
(1.14119 -0.0832936 7.28479e-22)
(1.14347 -0.0817135 -8.28987e-22)
(1.14577 -0.0800989 -1.51532e-21)
(1.14808 -0.0784495 1.33673e-21)
(1.15041 -0.0767652 -3.27144e-21)
(1.13976 -0.0959955 -5.18903e-24)
(1.14221 -0.0943833 -3.43472e-23)
(1.14467 -0.0927354 3.1501e-23)
(1.14715 -0.091051 2.34997e-22)
(1.14964 -0.0893294 8.18567e-23)
(1.15215 -0.0875702 1.36007e-21)
(1.15468 -0.0857728 -2.29601e-21)
(1.15722 -0.0839368 -1.24935e-21)
(1.15978 -0.0820621 2.03076e-21)
(1.14756 -0.103124 1.38497e-22)
(1.15025 -0.101332 4.06298e-22)
(1.15296 -0.0995011 -6.19785e-22)
(1.15569 -0.0976293 -6.64211e-22)
(1.15843 -0.0957163 -1.73491e-22)
(1.16119 -0.0937614 -1.84863e-22)
(1.16397 -0.0917641 2.4717e-21)
(1.16677 -0.089724 -9.6026e-22)
(1.16958 -0.0876407 -2.431e-22)
(1.15559 -0.110702 -9.35389e-23)
(1.15856 -0.108713 -4.8931e-22)
(1.16154 -0.10668 1.1653e-22)
(1.16455 -0.104603 7.74278e-22)
(1.16756 -0.10248 1.90262e-21)
(1.1706 -0.100311 -4.4457e-23)
(1.17365 -0.0980945 2.04386e-21)
(1.17672 -0.0958302 -2.82716e-23)
(1.17981 -0.0935172 1.18174e-21)
(1.16387 -0.11875 2.2297e-22)
(1.16714 -0.116547 -9.81293e-22)
(1.17043 -0.114295 7.75909e-22)
(1.17373 -0.111994 4.73627e-22)
(1.17705 -0.109641 -4.5612e-22)
(1.18038 -0.107237 1.77644e-21)
(1.18373 -0.10478 -2.3726e-21)
(1.1871 -0.102269 -1.50124e-21)
(1.19049 -0.0997025 4.89138e-22)
(1.17238 -0.127298 4.96396e-23)
(1.17599 -0.124862 7.91797e-22)
(1.17961 -0.122371 7.76344e-22)
(1.18324 -0.119824 1.21159e-21)
(1.18688 -0.11722 1.5302e-22)
(1.19054 -0.114557 8.24774e-22)
(1.19421 -0.111834 6.04186e-21)
(1.1979 -0.109049 2.30876e-21)
(1.2016 -0.106199 -1.87208e-21)
(1.18114 -0.136385 -1.27669e-22)
(1.18512 -0.13369 9.7297e-22)
(1.18909 -0.130933 5.22413e-22)
(1.19308 -0.128114 -1.33915e-21)
(1.19708 -0.12523 -1.16189e-21)
(1.20108 -0.122279 -2.38929e-21)
(1.20509 -0.119258 -5.38859e-21)
(1.20911 -0.116165 -5.4733e-21)
(1.21314 -0.112994 3.49025e-21)
(1.19017 -0.146028 -1.04632e-22)
(1.19453 -0.143046 1.8458e-22)
(1.1989 -0.139994 -2.57101e-21)
(1.20327 -0.136871 -4.07056e-22)
(1.20764 -0.133673 2.32513e-21)
(1.212 -0.130396 2.89941e-21)
(1.21636 -0.127037 2.57408e-21)
(1.22071 -0.123589 2.74252e-21)
(1.22505 -0.120045 1.64887e-21)
(1.19946 -0.156252 1.82829e-22)
(1.20425 -0.152947 2.15386e-22)
(1.20903 -0.149561 1.6298e-21)
(1.2138 -0.146092 -3.96627e-21)
(1.21855 -0.142533 -3.04184e-21)
(1.22328 -0.138881 -8.90543e-21)
(1.22798 -0.135126 -3.56235e-21)
(1.23264 -0.131259 9.8562e-22)
(1.23725 -0.127268 1.52235e-21)
(1.20904 -0.167067 -2.47321e-23)
(1.21428 -0.163392 -2.02894e-21)
(1.21949 -0.159621 -1.59914e-21)
(1.22466 -0.155747 3.64898e-22)
(1.22978 -0.151765 2.17961e-22)
(1.23485 -0.147664 1.30161e-20)
(1.23985 -0.143431 1.73367e-21)
(1.24476 -0.139052 3.14278e-21)
(1.24954 -0.134508 -6.85845e-21)
(1.21891 -0.178469 -4.02289e-22)
(1.22461 -0.174359 -1.08911e-21)
(1.23025 -0.17013 2.53761e-21)
(1.2358 -0.165771 4.12727e-21)
(1.24126 -0.161272 2.89338e-21)
(1.2466 -0.156617 -1.3119e-20)
(1.2518 -0.151788 -1.78587e-21)
(1.25681 -0.146762 1.19879e-20)
(1.2616 -0.141516 -1.29027e-20)
(1.22906 -0.190429 6.61761e-22)
(1.23522 -0.185791 5.22798e-22)
(1.24124 -0.180997 -7.08503e-21)
(1.24712 -0.176033 -3.46474e-21)
(1.25282 -0.170882 -3.1044e-21)
(1.25829 -0.165521 4.88056e-21)
(1.2635 -0.159926 1.25402e-20)
(1.26839 -0.154067 2.75416e-21)
(1.27288 -0.147912 2.53442e-20)
(1.23944 -0.202874 2.64529e-22)
(1.246 -0.197569 2.54809e-21)
(1.25233 -0.192054 1.64859e-21)
(1.25839 -0.18631 5.25765e-21)
(1.26414 -0.180311 -6.54783e-21)
(1.2695 -0.174032 8.70033e-21)
(1.27442 -0.167438 -9.6862e-21)
(1.27879 -0.160498 -1.14205e-20)
(1.28253 -0.153175 -1.05195e-20)
(1.24993 -0.215636 -4.08042e-22)
(1.25675 -0.209463 5.51439e-22)
)
;

boundaryField
{
    inlet
    {
        type            uniformFixedValue;
        uniformValue    constant (1 0 0);
        value           nonuniform 0();
    }
    outlet
    {
        type            pressureInletOutletVelocity;
        value           nonuniform 0();
    }
    cylinder
    {
        type            fixedValue;
        value           nonuniform 0();
    }
    top
    {
        type            symmetryPlane;
    }
    bottom
    {
        type            symmetryPlane;
    }
    defaultFaces
    {
        type            empty;
    }
    procBoundary2to1
    {
        type            processor;
        value           nonuniform List<vector> 
33
(
(1.04312 -0.00192612 1.04141e-22)
(1.04365 -0.00575013 -3.74634e-22)
(1.04467 -0.00949539 2.84128e-22)
(1.04615 -0.0132085 -7.85241e-23)
(1.04805 -0.0169164 9.24109e-24)
(1.05034 -0.0206497 -1.95098e-22)
(1.05302 -0.0244332 1.66452e-23)
(1.05605 -0.0282919 1.02343e-22)
(1.05944 -0.0322488 -6.3488e-23)
(1.06315 -0.0363268 1.58689e-22)
(1.06717 -0.0405486 -8.49633e-23)
(1.0715 -0.044937 1.41606e-23)
(1.07611 -0.0495154 -4.52883e-23)
(1.081 -0.0543076 6.45912e-24)
(1.08614 -0.0593388 3.23225e-23)
(1.09151 -0.0646344 -2.77025e-23)
(1.09711 -0.0702209 -6.89486e-23)
(1.10291 -0.0761271 6.13896e-23)
(1.1089 -0.0823822 -7.91461e-23)
(1.11504 -0.0890169 -3.60538e-23)
(1.12134 -0.096063 -1.92996e-22)
(1.12777 -0.103555 3.62366e-22)
(1.1343 -0.111523 -1.4655e-22)
(1.14095 -0.120025 -6.96712e-22)
(1.14764 -0.129069 7.5562e-22)
(1.15445 -0.138698 -5.72659e-22)
(1.16132 -0.14898 -1.6933e-23)
(1.16825 -0.159938 6.35788e-22)
(1.17525 -0.171637 -7.11975e-23)
(1.18233 -0.184106 -1.19263e-22)
(1.18948 -0.197389 -2.23307e-21)
(1.19672 -0.211558 2.04191e-21)
(1.20406 -0.22672 3.65902e-21)
)
;
    }
    procBoundary2to3
    {
        type            processor;
        value           nonuniform List<vector> 
33
(
(1.05106 -0.00174058 -2.23094e-22)
(1.05171 -0.005156 -2.63119e-22)
(1.05293 -0.00849148 6.03224e-23)
(1.05469 -0.0117672 -8.47709e-23)
(1.05696 -0.0150056 -2.97008e-24)
(1.0597 -0.0182252 8.78147e-24)
(1.06291 -0.0214432 -2.73293e-23)
(1.06656 -0.0246755 -1.45887e-23)
(1.07066 -0.0279374 -1.29067e-23)
(1.07518 -0.0312439 -6.29405e-23)
(1.08014 -0.0346097 -4.23529e-23)
(1.08551 -0.0380498 2.67969e-23)
(1.09131 -0.0415796 -2.65705e-22)
(1.09752 -0.0452149 1.7762e-22)
(1.10416 -0.048972 3.21729e-22)
(1.1112 -0.0528676 -7.26239e-22)
(1.11867 -0.0569192 1.09705e-22)
(1.12656 -0.0611446 -1.23551e-21)
(1.13486 -0.065562 2.34835e-21)
(1.1436 -0.0701896 -1.29548e-21)
(1.15276 -0.0750459 -1.14432e-21)
(1.16236 -0.0801485 2.21301e-21)
(1.17242 -0.0855136 -2.27215e-21)
(1.18292 -0.0911547 -1.30562e-21)
(1.19389 -0.0970786 -9.83053e-22)
(1.20531 -0.103281 4.17902e-21)
(1.21716 -0.109739 -6.77013e-22)
(1.22937 -0.116395 -5.87979e-21)
(1.24179 -0.123138 6.78706e-22)
(1.25418 -0.129778 -7.23663e-21)
(1.26611 -0.136018 3.34021e-21)
(1.27689 -0.141427 8.04239e-21)
(1.28552 -0.145432 6.48661e-22)
)
;
    }
    procBoundary2to8
    {
        type            processor;
        value           nonuniform List<vector> 
15
(
(1.21973 -0.237854 -1.22508e-21)
(1.22764 -0.232641 5.59555e-21)
(1.22764 -0.232641 5.59555e-21)
(1.24498 -0.241994 -1.89413e-21)
(1.25282 -0.235374 4.76952e-22)
(1.2632 -0.203006 -7.02769e-21)
(1.2692 -0.196237 1.43946e-21)
(1.27467 -0.189128 -1.17514e-20)
(1.27954 -0.181648 1.34063e-20)
(1.28369 -0.173762 3.91988e-21)
(1.287 -0.165437 5.86402e-21)
(1.28935 -0.15664 -5.47999e-21)
(1.2602 -0.228416 -3.9342e-22)
(1.2632 -0.203006 -7.02769e-21)
(1.26705 -0.221098 1.92906e-21)
)
;
    }
}


// ************************************************************************* //
