/*--------------------------------*- C++ -*----------------------------------*\
  =========                 |
  \\      /  F ield         | OpenFOAM: The Open Source CFD Toolbox
   \\    /   O peration     | Website:  https://openfoam.org
    \\  /    A nd           | Version:  7
     \\/     M anipulation  |
\*---------------------------------------------------------------------------*/
FoamFile
{
    version     2.0;
    format      ascii;
    class       volVectorField;
    location    "9";
    object      U;
}
// * * * * * * * * * * * * * * * * * * * * * * * * * * * * * * * * * * * * * //

dimensions      [0 1 -1 0 0 0 0];

internalField   nonuniform List<vector> 
16528
(
(1.00014 -0.000244853 -9.48596e-16)
(1.00145 -0.000722192 4.41178e-16)
(1.00426 -0.00119827 -6.55989e-17)
(1.00852 -0.00165953 1.50652e-15)
(1.0141 -0.00209531 1.93287e-15)
(1.02092 -0.00250064 3.51544e-15)
(1.02889 -0.00287138 7.70171e-16)
(1.03791 -0.00320403 -4.73013e-17)
(1.04785 -0.00349646 8.05508e-16)
(1.0586 -0.00374796 -1.2495e-15)
(1.07003 -0.00395903 -1.58211e-15)
(1.08202 -0.00413113 -4.87325e-16)
(1.09447 -0.00426645 -1.98379e-15)
(1.10727 -0.00436774 -3.35979e-15)
(1.12031 -0.00443812 -2.8687e-15)
(1.13352 -0.00448088 -4.33693e-15)
(1.14681 -0.00449934 -3.92507e-15)
(1.16013 -0.0044968 -3.17288e-15)
(1.17341 -0.00447635 -4.16667e-15)
(1.1866 -0.00444093 -5.3543e-15)
(1.19967 -0.00439319 -5.36807e-15)
(1.21258 -0.00433554 -4.65142e-15)
(1.2253 -0.00427011 -5.03046e-15)
(1.23783 -0.00419876 -1.04864e-14)
(1.25013 -0.00412312 -7.90692e-15)
(1.2622 -0.00404455 -6.56383e-15)
(1.27404 -0.00396422 -5.74441e-15)
(1.28564 -0.00388309 -6.30584e-15)
(1.297 -0.00380194 -4.91984e-15)
(1.30811 -0.00372142 -5.41894e-15)
(1.31899 -0.00364203 -5.18283e-15)
(1.32964 -0.00356415 -5.11997e-15)
(1.34006 -0.00348807 -6.61482e-15)
(1.35026 -0.00341402 -6.3326e-15)
(1.36024 -0.00334211 -5.04438e-15)
(1.37001 -0.00327246 -4.38265e-15)
(1.37958 -0.00320508 -5.40975e-15)
(1.38895 -0.00313998 -5.41807e-15)
(1.39813 -0.00307714 -5.67853e-15)
(1.40713 -0.00301651 -7.23214e-15)
(1.41596 -0.00295803 -5.50044e-15)
(1.42461 -0.0029016 -5.47405e-15)
(1.4331 -0.00284716 -6.50004e-15)
(1.44143 -0.00279461 -6.09927e-15)
(1.44961 -0.00274384 -5.52674e-15)
(1.45764 -0.00269478 -5.12098e-15)
(1.46552 -0.00264732 -5.78009e-15)
(1.47327 -0.00260138 -6.52182e-15)
(1.48088 -0.00255686 -6.58018e-15)
(1.48837 -0.00251368 -6.0823e-15)
(1.49573 -0.00247176 -6.18815e-15)
(1.50296 -0.00243103 -6.05666e-15)
(1.51008 -0.00239141 -5.77299e-15)
(1.51708 -0.00235284 -6.89115e-15)
(1.52397 -0.00231525 -6.81067e-15)
(1.53075 -0.00227859 -7.38571e-15)
(1.53742 -0.0022428 -5.82472e-15)
(1.54398 -0.00220783 -5.32482e-15)
(1.55044 -0.00217365 -5.86864e-15)
(1.55681 -0.0021402 -6.09487e-15)
(1.56307 -0.00210745 -6.60095e-15)
(1.56924 -0.00207537 -6.6708e-15)
(1.57532 -0.00204392 -5.67548e-15)
(1.5813 -0.00201307 -5.70002e-15)
(1.58719 -0.0019828 -5.9331e-15)
(1.59299 -0.00195309 -6.1086e-15)
(1.59871 -0.00192391 -6.16231e-15)
(1.60434 -0.00189524 -6.85149e-15)
(1.60989 -0.00186706 -4.47533e-15)
(1.61535 -0.00183936 -4.84697e-15)
(1.62073 -0.00181213 -4.46052e-15)
(1.62603 -0.00178533 -4.41557e-15)
(1.63126 -0.00175898 -4.53669e-15)
(1.6364 -0.00173305 -4.33329e-15)
(1.64147 -0.00170752 -4.0234e-15)
(1.64647 -0.0016824 -4.29223e-15)
(1.65139 -0.00165767 -5.15097e-15)
(1.65624 -0.00163333 -4.58355e-15)
(1.66102 -0.00160936 -4.76236e-15)
(1.66573 -0.00158576 -4.37233e-15)
(1.67036 -0.00156252 -3.77108e-15)
(1.67493 -0.00153963 -2.85786e-15)
(1.67944 -0.00151709 -2.65216e-15)
(1.68387 -0.00149489 -2.71584e-15)
(1.68824 -0.00147302 -4.57731e-15)
(1.69255 -0.00145148 -4.228e-15)
(1.6968 -0.00143027 -5.06889e-15)
(1.70098 -0.00140938 -3.6255e-15)
(1.7051 -0.0013888 -5.35871e-15)
(1.70916 -0.00136853 -4.70728e-15)
(1.71316 -0.00134857 -4.99753e-15)
(1.7171 -0.00132891 -5.37032e-15)
(1.72099 -0.00130954 -5.74609e-15)
(1.72482 -0.00129046 -2.91899e-15)
(1.72859 -0.00127167 -3.28948e-15)
(1.73231 -0.00125316 -4.08628e-15)
(1.73597 -0.00123494 -4.94725e-15)
(1.73958 -0.00121698 -3.95791e-15)
(1.74314 -0.0011993 -3.22936e-15)
(1.74664 -0.00118188 -3.65654e-15)
(1.7501 -0.00116473 -3.35244e-15)
(1.7535 -0.00114784 -3.87874e-15)
(1.75686 -0.0011312 -3.41756e-15)
(1.76016 -0.00111481 -3.21076e-15)
(1.76342 -0.00109867 -3.61167e-15)
(1.76663 -0.00108278 -3.78165e-15)
(1.7698 -0.00106712 -2.38407e-15)
(1.77291 -0.00105171 -2.07756e-15)
(1.77599 -0.00103653 -1.55931e-15)
(1.77902 -0.00102158 -2.99622e-15)
(1.782 -0.00100685 -1.93422e-15)
(1.78494 -0.000992356 -1.34151e-15)
(1.78784 -0.000978079 -2.45168e-15)
(1.7907 -0.000964019 -6.10159e-16)
(1.79352 -0.000950175 -2.70246e-15)
(1.7963 -0.000936543 -2.21783e-15)
(1.79903 -0.00092312 -1.63882e-15)
(1.80173 -0.000909904 -1.07586e-15)
(1.80439 -0.000896892 -1.91478e-15)
(1.80701 -0.000884081 -1.20369e-15)
(1.80959 -0.00087147 -1.60676e-15)
(1.81214 -0.000859055 -1.06355e-15)
(1.81465 -0.000846835 2.67971e-16)
(1.81712 -0.000834809 -1.38764e-15)
(1.81956 -0.000822974 -5.87487e-16)
(1.82197 -0.00081133 -7.64471e-16)
(1.82434 -0.000799875 -1.27252e-15)
(1.82668 -0.000788609 6.70071e-16)
(1.82898 -0.000777531 -1.62319e-15)
(1.83125 -0.000766643 -9.26297e-16)
(1.83349 -0.000755944 -8.07539e-16)
(1.8357 -0.000745437 -2.18081e-16)
(1.83788 -0.000735124 -9.77168e-16)
(1.84003 -0.000725008 -7.61369e-16)
(1.84215 -0.000715094 -9.49816e-16)
(1.84424 -0.000705386 -4.16997e-16)
(1.8463 -0.000695893 -5.6587e-16)
(1.84833 -0.000686622 -7.47938e-16)
(1.85034 -0.000677585 2.25952e-16)
(1.85232 -0.000668795 1.02643e-15)
(1.85427 -0.000660268 5.13268e-16)
(1.8562 -0.000652022 -5.02389e-16)
(1.85811 -0.000644082 -4.85961e-17)
(1.85999 -0.000636473 -2.54795e-16)
(1.86186 -0.000629231 -1.21978e-16)
(1.8637 -0.000622392 -2.35783e-16)
(1.86552 -0.000616004 7.41518e-16)
(1.86732 -0.000610123 -3.53189e-16)
(1.86911 -0.000604812 -2.90068e-16)
(1.87088 -0.00060015 6.00792e-16)
(1.87264 -0.000596227 9.73759e-16)
(1.87439 -0.000593152 1.89878e-16)
(1.87613 -0.000591052 -3.10849e-16)
(1.87787 -0.000590076 -4.0241e-16)
(1.87961 -0.000590403 3.18048e-16)
(1.88134 -0.000592241 1.40944e-15)
(1.88309 -0.000595835 1.9866e-15)
(1.88485 -0.000601476 4.659e-16)
(1.88663 -0.000609505 7.92381e-16)
(1.88844 -0.000620321 -1.98487e-16)
(1.89028 -0.000634398 -7.16748e-16)
(1.89217 -0.000652288 -5.78117e-16)
(1.89412 -0.000674643 -3.00805e-16)
(1.89614 -0.000702227 3.6753e-16)
(1.89826 -0.000735934 5.51474e-16)
(1.90048 -0.000776814 5.44292e-17)
(1.90283 -0.000826094 9.07819e-16)
(1.90534 -0.00088521 4.26241e-16)
(1.90804 -0.000955834 -1.98477e-16)
(1.91097 -0.00103992 -2.68491e-16)
(1.91417 -0.00113972 -5.39522e-16)
(1.91769 -0.00125788 1.68955e-16)
(1.92158 -0.00139743 8.85479e-16)
(1.92592 -0.00156187 1.30573e-15)
(1.93078 -0.00175521 6.83549e-16)
(1.93626 -0.00198204 5.60988e-16)
(1.94247 -0.00224753 2.731e-16)
(1.94951 -0.00255753 5.06017e-16)
(1.95754 -0.00291856 -6.6871e-17)
(1.96672 -0.00333778 1.09071e-16)
(1.97722 -0.00382296 1.89383e-17)
(1.98926 -0.00438238 8.38925e-16)
(2.00306 -0.00502459 6.11044e-16)
(2.01889 -0.00575815 5.91148e-16)
(2.03702 -0.00659114 6.01077e-16)
(2.05776 -0.00753052 1.34922e-15)
(2.08144 -0.00858132 2.35247e-16)
(2.10838 -0.00974552 -9.5119e-17)
(2.13893 -0.0110207 1.03321e-15)
(2.17341 -0.0123985 8.10605e-16)
(2.2121 -0.0138631 1.68026e-15)
(2.25523 -0.0153892 3.11678e-16)
(2.30294 -0.016941 4.84803e-16)
(2.35526 -0.0184713 5.188e-16)
(2.41203 -0.0199213 9.7775e-16)
(2.47294 -0.0212236 9.4182e-16)
(2.53744 -0.0223043 1.32777e-15)
(2.60478 -0.0230899 1.39365e-15)
(2.67399 -0.0235151 1.23469e-15)
(2.74391 -0.0235303 1.20228e-15)
(1.00014 -0.000568189 -1.66978e-16)
(1.00147 -0.00169332 6.01667e-16)
(1.0043 -0.00280669 4.22575e-15)
(1.00858 -0.00388364 5.97346e-15)
(1.01421 -0.00490282 1.98152e-15)
(1.02108 -0.00585089 5.18668e-15)
(1.02911 -0.00671746 -1.56086e-15)
(1.03819 -0.00749446 2.75025e-15)
(1.04819 -0.0081771 1.56402e-15)
(1.059 -0.00876381 -3.54478e-15)
(1.07049 -0.00925581 -2.28174e-15)
(1.08255 -0.00965657 -1.50536e-15)
(1.09505 -0.00997132 -5.56817e-15)
(1.1079 -0.0102065 -7.98263e-15)
(1.12099 -0.0103696 -6.5651e-15)
(1.13424 -0.0104681 -8.94781e-15)
(1.14758 -0.01051 -1.05933e-14)
(1.16093 -0.010503 -8.26249e-15)
(1.17425 -0.0104542 -1.10898e-14)
(1.18747 -0.0103706 -1.21555e-14)
(1.20056 -0.0102583 -1.01271e-14)
(1.2135 -0.010123 -1.16815e-14)
(1.22624 -0.00996964 -1.27031e-14)
(1.23878 -0.00980252 -1.05164e-14)
(1.2511 -0.00962543 -1.22559e-14)
(1.26319 -0.00944156 -1.27113e-14)
(1.27504 -0.00925361 -1.32604e-14)
(1.28665 -0.00906381 -1.42551e-14)
(1.29802 -0.008874 -1.01693e-14)
(1.30914 -0.00868565 -1.13078e-14)
(1.32003 -0.00849994 -1.25871e-14)
(1.33068 -0.00831775 -1.33369e-14)
(1.3411 -0.00813978 -1.38299e-14)
(1.3513 -0.0079665 -1.41259e-14)
(1.36128 -0.00779824 -1.04533e-14)
(1.37105 -0.0076352 -1.1902e-14)
(1.38061 -0.00747747 -1.24535e-14)
(1.38998 -0.00732505 -1.351e-14)
(1.39916 -0.00717789 -1.35304e-14)
(1.40815 -0.00703588 -1.43613e-14)
(1.41696 -0.00689885 -1.05444e-14)
(1.4256 -0.00676664 -1.25056e-14)
(1.43407 -0.00663904 -1.31375e-14)
(1.44239 -0.00651584 -1.35987e-14)
(1.45055 -0.00639683 -1.44474e-14)
(1.45856 -0.00628178 -1.39213e-14)
(1.46642 -0.00617049 -1.40617e-14)
(1.47415 -0.00606273 -1.43443e-14)
(1.48173 -0.00595831 -1.43459e-14)
(1.48919 -0.00585703 -1.43025e-14)
(1.49652 -0.00575869 -1.44936e-14)
(1.50373 -0.00566314 -1.45181e-14)
(1.51081 -0.0055702 -1.43905e-14)
(1.51778 -0.00547971 -1.44459e-14)
(1.52463 -0.00539154 -1.47269e-14)
(1.53137 -0.00530554 -1.50222e-14)
(1.538 -0.0052216 -1.12845e-14)
(1.54453 -0.0051396 -1.22081e-14)
(1.55095 -0.00505944 -1.29607e-14)
(1.55727 -0.00498102 -1.30275e-14)
(1.5635 -0.00490425 -1.3466e-14)
(1.56962 -0.00482905 -1.35322e-14)
(1.57565 -0.00475535 -1.31938e-14)
(1.58159 -0.00468308 -1.353e-14)
(1.58743 -0.00461218 -1.38961e-14)
(1.59319 -0.00454258 -1.4281e-14)
(1.59886 -0.00447425 -1.40651e-14)
(1.60444 -0.00440713 -1.50359e-14)
(1.60993 -0.00434118 -8.63837e-15)
(1.61535 -0.00427636 -1.04873e-14)
(1.62068 -0.00421263 -1.15088e-14)
(1.62593 -0.00414996 -1.22047e-14)
(1.6311 -0.00408832 -9.4606e-15)
(1.6362 -0.00402768 -9.89942e-15)
(1.64121 -0.00396802 -1.04251e-14)
(1.64616 -0.00390931 -1.123e-14)
(1.65102 -0.00385153 -8.81923e-15)
(1.65582 -0.00379465 -9.64425e-15)
(1.66054 -0.00373867 -1.04837e-14)
(1.6652 -0.00368355 -1.13832e-14)
(1.66978 -0.00362929 -8.67809e-15)
(1.6743 -0.00357586 -6.06596e-15)
(1.67875 -0.00352325 -7.50908e-15)
(1.68313 -0.00347145 -8.44279e-15)
(1.68745 -0.00342044 -9.49718e-15)
(1.6917 -0.00337021 -1.03023e-14)
(1.69589 -0.00332074 -1.01361e-14)
(1.70002 -0.00327203 -1.02651e-14)
(1.70409 -0.00322405 -1.05912e-14)
(1.70809 -0.00317681 -1.10103e-14)
(1.71204 -0.00313028 -1.17527e-14)
(1.71593 -0.00308446 -1.15284e-14)
(1.71976 -0.00303934 -1.29661e-14)
(1.72354 -0.0029949 -6.69869e-15)
(1.72726 -0.00295114 -8.3481e-15)
(1.73093 -0.00290804 -9.42418e-15)
(1.73454 -0.0028656 -1.07514e-14)
(1.7381 -0.0028238 -7.87275e-15)
(1.7416 -0.00278264 -8.67838e-15)
(1.74506 -0.00274211 -9.95305e-15)
(1.74846 -0.00270219 -7.19899e-15)
(1.75182 -0.00266288 -8.52385e-15)
(1.75512 -0.00262417 -6.07984e-15)
(1.75838 -0.00258605 -8.12376e-15)
(1.76159 -0.00254851 -5.4366e-15)
(1.76475 -0.00251155 -7.24049e-15)
(1.76787 -0.00247515 -4.57141e-15)
(1.77094 -0.0024393 -6.02212e-15)
(1.77396 -0.00240401 -3.98192e-15)
(1.77695 -0.00236925 -6.26754e-15)
(1.77989 -0.00233503 -3.67814e-15)
(1.78278 -0.00230133 -4.91976e-15)
(1.78564 -0.00226815 -3.56834e-15)
(1.78845 -0.00223548 -1.78118e-15)
(1.79122 -0.00220331 -4.17047e-15)
(1.79395 -0.00217163 -2.65569e-15)
(1.79665 -0.00214045 -4.32356e-15)
(1.7993 -0.00210975 -2.44226e-15)
(1.80192 -0.00207952 -4.15262e-15)
(1.8045 -0.00204976 -2.09898e-15)
(1.80704 -0.00202047 -3.78618e-15)
(1.80954 -0.00199164 -1.69845e-15)
(1.81201 -0.00196327 -3.32347e-15)
(1.81445 -0.00193534 -1.40768e-15)
(1.81685 -0.00190786 -3.24827e-15)
(1.81921 -0.00188082 -9.02261e-16)
(1.82154 -0.00185423 -2.75183e-15)
(1.82384 -0.00182808 -4.34486e-16)
(1.82611 -0.00180236 -2.73437e-15)
(1.82834 -0.00177709 -9.25674e-16)
(1.83054 -0.00175226 -2.54079e-15)
(1.83271 -0.00172787 -7.23282e-16)
(1.83486 -0.00170393 -2.15244e-15)
(1.83697 -0.00168046 -2.60907e-16)
(1.83905 -0.00165745 -1.97466e-15)
(1.84111 -0.00163492 -3.65585e-16)
(1.84313 -0.0016129 -2.08418e-15)
(1.84513 -0.00159139 -4.01033e-16)
(1.8471 -0.00157042 8.00696e-16)
(1.84905 -0.00155002 1.13394e-15)
(1.85097 -0.00153024 1.38538e-15)
(1.85287 -0.00151111 -6.50678e-16)
(1.85474 -0.00149269 1.1215e-15)
(1.85659 -0.00147504 -1.25464e-15)
(1.85842 -0.00145824 8.47886e-16)
(1.86023 -0.00144238 -9.56703e-16)
(1.86202 -0.00142757 7.7935e-16)
(1.8638 -0.00141393 9.45887e-16)
(1.86555 -0.00140161 1.82542e-15)
(1.86729 -0.0013908 -2.18462e-16)
(1.86902 -0.00138171 1.77211e-15)
(1.87074 -0.00137458 -2.15478e-16)
(1.87245 -0.00136971 1.08343e-15)
(1.87416 -0.00136746 -7.41894e-16)
(1.87587 -0.00136822 8.12546e-16)
(1.87758 -0.00137249 1.65541e-15)
(1.87929 -0.00138084 2.43234e-15)
(1.88102 -0.00139393 1.48359e-16)
(1.88277 -0.00141256 1.18862e-15)
(1.88455 -0.00143766 -7.32447e-16)
(1.88636 -0.00147032 8.19094e-16)
(1.88822 -0.00151184 -7.60673e-16)
(1.89014 -0.00156371 4.67208e-16)
(1.89213 -0.00162771 1.40113e-15)
(1.89421 -0.00170592 1.91973e-15)
(1.8964 -0.00180078 2.85783e-15)
(1.89871 -0.00191512 3.64887e-16)
(1.90119 -0.0020523 1.81287e-15)
(1.90385 -0.00221618 -5.07569e-16)
(1.90673 -0.0024113 1.0085e-15)
(1.90988 -0.00264293 -3.62311e-16)
(1.91335 -0.00291718 8.80719e-16)
(1.91719 -0.00324109 1.70062e-15)
(1.92147 -0.00362282 2.89901e-15)
(1.92627 -0.00407169 1.22384e-15)
(1.93168 -0.00459838 2.84982e-15)
(1.9378 -0.00521496 1.76114e-16)
(1.94476 -0.00593507 1.56551e-15)
(1.9527 -0.0067739 2.59101e-16)
(1.96177 -0.0077482 1.37703e-15)
(1.97215 -0.00887618 1.64018e-15)
(1.98406 -0.0101772 2.71851e-15)
(1.99773 -0.0116715 5.65137e-16)
(2.0134 -0.0133792 1.73568e-15)
(2.03137 -0.0153195 5.11771e-16)
(2.05195 -0.0175091 1.63873e-15)
(2.07545 -0.0199603 2.73705e-16)
(2.10222 -0.0226784 1.42245e-15)
(2.13261 -0.0256585 2.15804e-15)
(2.16693 -0.0288822 2.16144e-15)
(2.2055 -0.0323128 3.32175e-15)
(2.24855 -0.0358925 1.11741e-15)
(2.29624 -0.0395373 2.51142e-15)
(2.3486 -0.0431371 1.34691e-15)
(2.40551 -0.0465535 2.61235e-15)
(2.46664 -0.0496266 1.71421e-15)
(2.53147 -0.0521807 2.34447e-15)
(2.59924 -0.0540405 2.84669e-15)
(2.66895 -0.0550491 3.23565e-15)
(2.73943 -0.0550873 2.804e-15)
(1.00015 -0.000928354 8.05659e-17)
(1.0015 -0.0027836 2.88931e-15)
(1.00437 -0.00461125 3.00291e-15)
(1.00873 -0.00637593 2.49418e-16)
(1.01445 -0.00804666 -2.23166e-15)
(1.02144 -0.00960001 -1.37877e-16)
(1.02959 -0.0110179 -1.14629e-15)
(1.0388 -0.0122873 -2.64876e-16)
(1.04895 -0.0134006 9.23571e-17)
(1.0599 -0.0143557 -1.67324e-15)
(1.07152 -0.0151549 -2.35507e-15)
(1.08371 -0.0158041 -2.1631e-15)
(1.09634 -0.0163123 -3.64478e-15)
(1.1093 -0.0166904 -4.98751e-15)
(1.12251 -0.0169505 -7.40499e-15)
(1.13586 -0.0171056 -7.34002e-15)
(1.14929 -0.0171686 -7.90939e-15)
(1.16272 -0.0171519 -9.68044e-15)
(1.17611 -0.0170678 -9.80725e-15)
(1.1894 -0.0169272 -9.83916e-15)
(1.20255 -0.0167403 -1.1683e-14)
(1.21554 -0.0165162 -1.08896e-14)
(1.22833 -0.016263 -1.10736e-14)
(1.24091 -0.0159878 -1.03888e-14)
(1.25327 -0.0156966 -1.06719e-14)
(1.26539 -0.0153945 -1.11425e-14)
(1.27726 -0.015086 -1.12831e-14)
(1.2889 -0.0147746 -1.21542e-14)
(1.30028 -0.0144632 -8.79541e-15)
(1.31142 -0.0141543 -9.53986e-15)
(1.32232 -0.0138497 -1.033e-14)
(1.33298 -0.0135508 -1.10335e-14)
(1.3434 -0.0132588 -1.15821e-14)
(1.3536 -0.0129744 -1.1936e-14)
(1.36358 -0.0126982 -1.11387e-14)
(1.37334 -0.0124304 -1.09028e-14)
(1.38289 -0.0121712 -1.12744e-14)
(1.39224 -0.0119206 -1.17392e-14)
(1.40139 -0.0116785 -1.18473e-14)
(1.41036 -0.0114448 -1.24472e-14)
(1.41915 -0.0112192 -1.14693e-14)
(1.42775 -0.0110014 -1.16063e-14)
(1.43619 -0.0107911 -1.18705e-14)
(1.44447 -0.010588 -1.23617e-14)
(1.45258 -0.0103918 -1.26593e-14)
(1.46054 -0.0102019 -1.24997e-14)
(1.46835 -0.0100183 -1.23406e-14)
(1.47602 -0.0098404 -1.25747e-14)
(1.48355 -0.009668 -1.26614e-14)
(1.49094 -0.00950076 -1.27363e-14)
(1.4982 -0.00933837 -1.261e-14)
(1.50534 -0.00918058 -1.27806e-14)
(1.51235 -0.00902709 -1.29144e-14)
(1.51924 -0.00887768 -1.27422e-14)
(1.52601 -0.00873211 -1.29051e-14)
(1.53267 -0.00859016 -1.3725e-14)
(1.53921 -0.00845164 -1.06938e-14)
(1.54565 -0.00831636 -1.09632e-14)
(1.55198 -0.00818415 -1.13928e-14)
(1.55821 -0.00805486 -1.15126e-14)
(1.56433 -0.00792835 -1.14418e-14)
(1.57036 -0.00780447 -1.1666e-14)
(1.57628 -0.00768312 -1.2145e-14)
(1.58212 -0.00756418 -1.22088e-14)
(1.58786 -0.00744754 -1.25111e-14)
(1.59351 -0.00733313 -1.25418e-14)
(1.59906 -0.00722084 -1.26988e-14)
(1.60454 -0.0071106 -1.28932e-14)
(1.60992 -0.00700235 -1.20866e-14)
(1.61522 -0.00689601 -1.08137e-14)
(1.62044 -0.00679152 -1.0538e-14)
(1.62557 -0.00668882 -9.97028e-15)
(1.63063 -0.00658788 -9.73908e-15)
(1.63561 -0.00648862 -8.61949e-15)
(1.64051 -0.00639102 -9.01236e-15)
(1.64533 -0.00629503 -8.60574e-15)
(1.65008 -0.00620061 -8.36179e-15)
(1.65476 -0.00610773 -7.81519e-15)
(1.65937 -0.00601634 -8.12241e-15)
(1.6639 -0.00592643 -7.84054e-15)
(1.66837 -0.00583795 -7.69827e-15)
(1.67276 -0.00575088 -5.01165e-15)
(1.67709 -0.00566519 -5.80418e-15)
(1.68136 -0.00558086 -6.23898e-15)
(1.68556 -0.00549785 -6.90829e-15)
(1.68969 -0.00541616 -7.64501e-15)
(1.69376 -0.00533574 -8.00089e-15)
(1.69777 -0.00525659 -8.33988e-15)
(1.70172 -0.00517867 -8.59373e-15)
(1.70561 -0.00510198 -9.06533e-15)
(1.70945 -0.00502648 -9.24154e-15)
(1.71322 -0.00495216 -9.33123e-15)
(1.71694 -0.004879 -1.00745e-14)
(1.7206 -0.00480698 -9.35072e-15)
(1.7242 -0.00473608 -8.3e-15)
(1.72776 -0.00466629 -8.36381e-15)
(1.73125 -0.00459758 -7.67726e-15)
(1.7347 -0.00452995 -7.60128e-15)
(1.7381 -0.00446336 -7.08243e-15)
(1.74144 -0.00439782 -7.22304e-15)
(1.74473 -0.00433329 -6.57646e-15)
(1.74798 -0.00426977 -6.06119e-15)
(1.75118 -0.00420723 -5.6707e-15)
(1.75433 -0.00414567 -5.15254e-15)
(1.75743 -0.00408506 -4.12599e-15)
(1.76049 -0.0040254 -3.90254e-15)
(1.7635 -0.00396667 -3.33972e-15)
(1.76647 -0.00390885 -2.87241e-15)
(1.76939 -0.00385193 -2.3141e-15)
(1.77227 -0.0037959 -2.08746e-15)
(1.77511 -0.00374073 -1.46844e-15)
(1.77791 -0.00368643 -1.26531e-15)
(1.78066 -0.00363298 -1.41169e-15)
(1.78338 -0.00358036 -6.33131e-16)
(1.78605 -0.00352855 -6.82049e-16)
(1.78869 -0.00347756 -6.66595e-17)
(1.79129 -0.00342737 7.08976e-17)
(1.79385 -0.00337797 2.57425e-16)
(1.79637 -0.00332934 7.05291e-17)
(1.79886 -0.00328147 3.45268e-16)
(1.80131 -0.00323437 5.11655e-16)
(1.80372 -0.00318801 1.04818e-15)
(1.8061 -0.00314239 9.97278e-16)
(1.80845 -0.0030975 1.06752e-15)
(1.81076 -0.00305334 1.12824e-15)
(1.81304 -0.0030099 1.87883e-15)
(1.81528 -0.00296718 1.99369e-15)
(1.8175 -0.00292517 2.2772e-15)
(1.81968 -0.00288387 1.92618e-15)
(1.82183 -0.00284329 2.38236e-15)
(1.82395 -0.00280342 2.21618e-15)
(1.82604 -0.00276427 2.51887e-15)
(1.82811 -0.00272586 2.49056e-15)
(1.83014 -0.00268818 2.70568e-15)
(1.83214 -0.00265126 2.495e-15)
(1.83412 -0.00261512 2.75367e-15)
(1.83607 -0.00257979 2.87609e-15)
(1.838 -0.00254529 2.83832e-15)
(1.83989 -0.00251166 3.3385e-15)
(1.84177 -0.00247896 3.40097e-15)
(1.84362 -0.00244725 3.55826e-15)
(1.84544 -0.00241659 3.37039e-15)
(1.84725 -0.00238706 4.01998e-15)
(1.84903 -0.00235879 3.78479e-15)
(1.85079 -0.00233187 4.21778e-15)
(1.85253 -0.00230647 3.89578e-15)
(1.85425 -0.00228275 4.07881e-15)
(1.85595 -0.00226091 4.09021e-15)
(1.85764 -0.00224121 4.6793e-15)
(1.85932 -0.00222393 4.45459e-15)
(1.86098 -0.0022094 4.79124e-15)
(1.86264 -0.00219803 4.39234e-15)
(1.86428 -0.0021903 4.51391e-15)
(1.86592 -0.00218677 4.14988e-15)
(1.86757 -0.00218808 4.19114e-15)
(1.86921 -0.00219503 4.53909e-15)
(1.87086 -0.00220853 4.88124e-15)
(1.87253 -0.00222966 4.8993e-15)
(1.87421 -0.00225968 4.78083e-15)
(1.87593 -0.0023001 4.75184e-15)
(1.87767 -0.00235268 4.77808e-15)
(1.87946 -0.00241947 4.58187e-15)
(1.88131 -0.00250291 4.50853e-15)
(1.88323 -0.00260585 4.51312e-15)
(1.88524 -0.00273163 4.64325e-15)
(1.88735 -0.00288417 4.85516e-15)
(1.88959 -0.00306805 4.7769e-15)
(1.89198 -0.00328864 4.7253e-15)
(1.89455 -0.0035522 4.6981e-15)
(1.89734 -0.00386602 4.89519e-15)
(1.90039 -0.00423859 4.77228e-15)
(1.90375 -0.00467976 4.88031e-15)
(1.90748 -0.00520095 5.2018e-15)
(1.91163 -0.00581528 5.43373e-15)
(1.91629 -0.00653788 5.38506e-15)
(1.92155 -0.00738602 5.39994e-15)
(1.9275 -0.00837931 5.22186e-15)
(1.93427 -0.0095399 5.32069e-15)
(1.942 -0.0108926 5.03093e-15)
(1.95084 -0.0124647 5.09847e-15)
(1.96097 -0.0142861 5.31613e-15)
(1.9726 -0.0163888 5.40512e-15)
(1.98596 -0.0188063 5.13509e-15)
(2.00131 -0.0215722 5.4466e-15)
(2.01893 -0.024719 5.15356e-15)
(2.03913 -0.0282756 5.38505e-15)
(2.06225 -0.0322642 5.55374e-15)
(2.08864 -0.0366959 5.46761e-15)
(2.11866 -0.0415658 5.29408e-15)
(2.15265 -0.0468469 5.26972e-15)
(2.19094 -0.0524831 5.68681e-15)
(2.23381 -0.0583824 5.51974e-15)
(2.28144 -0.0644096 5.71666e-15)
(2.3339 -0.0703845 5.51834e-15)
(2.3911 -0.0760773 5.86914e-15)
(2.45274 -0.0812207 5.78276e-15)
(2.51831 -0.0855158 5.72397e-15)
(2.58703 -0.0886624 5.7973e-15)
(2.65786 -0.0903879 6.04419e-15)
(2.72958 -0.0904821 5.87017e-15)
(1.00015 -0.00130711 5.20482e-17)
(1.00154 -0.00392477 7.10735e-16)
(1.00449 -0.00649999 2.49171e-15)
(1.00897 -0.0089833 6.1017e-16)
(1.01484 -0.0113323 -2.71391e-15)
(1.022 -0.0135131 -1.84748e-16)
(1.03035 -0.0154997 -2.82969e-15)
(1.03977 -0.0172742 -7.8828e-16)
(1.05012 -0.0188264 -1.06693e-15)
(1.06129 -0.0201539 -3.38614e-15)
(1.07313 -0.0212607 -2.97618e-15)
(1.08552 -0.022156 -2.86112e-15)
(1.09835 -0.0228531 -4.78901e-15)
(1.11149 -0.0233678 -6.32643e-15)
(1.12486 -0.0237177 -5.46567e-15)
(1.13837 -0.0239213 -6.93095e-15)
(1.15194 -0.023997 -8.22312e-15)
(1.1655 -0.0239625 -7.71785e-15)
(1.179 -0.0238347 -9.11607e-15)
(1.19239 -0.0236292 -1.01116e-14)
(1.20563 -0.02336 -9.22088e-15)
(1.2187 -0.0230399 -1.04271e-14)
(1.23156 -0.02268 -1.14118e-14)
(1.24421 -0.0222901 -1.05189e-14)
(1.25662 -0.0218785 -1.12606e-14)
(1.26878 -0.0214522 -1.19562e-14)
(1.2807 -0.0210172 -1.24459e-14)
(1.29236 -0.0205785 -1.30266e-14)
(1.30377 -0.02014 -1.09645e-14)
(1.31493 -0.0197051 -1.14633e-14)
(1.32583 -0.0192762 -1.16268e-14)
(1.3365 -0.0188553 -1.21545e-14)
(1.34692 -0.0184439 -1.23582e-14)
(1.35711 -0.0180431 -1.29568e-14)
(1.36707 -0.0176536 -1.12298e-14)
(1.37681 -0.0172757 -1.18539e-14)
(1.38633 -0.0169098 -1.22376e-14)
(1.39565 -0.0165558 -1.26575e-14)
(1.40476 -0.0162136 -1.28224e-14)
(1.41368 -0.015883 -1.31995e-14)
(1.42241 -0.0155636 -1.14518e-14)
(1.43096 -0.0152552 -1.22279e-14)
(1.43933 -0.0149572 -1.25635e-14)
(1.44753 -0.0146692 -1.28183e-14)
(1.45556 -0.0143907 -1.32005e-14)
(1.46344 -0.0141213 -1.30437e-14)
(1.47116 -0.0138606 -1.31804e-14)
(1.47873 -0.013608 -1.31944e-14)
(1.48615 -0.0133631 -1.3289e-14)
(1.49344 -0.0131256 -1.3527e-14)
(1.50059 -0.0128949 -1.35054e-14)
(1.5076 -0.0126708 -1.35704e-14)
(1.51449 -0.0124528 -1.35967e-14)
(1.52125 -0.0122407 -1.35827e-14)
(1.52788 -0.0120341 -1.35173e-14)
(1.5344 -0.0118327 -1.4186e-14)
(1.54081 -0.0116362 -1.19293e-14)
(1.5471 -0.0114444 -1.19743e-14)
(1.55328 -0.0112571 -1.22913e-14)
(1.55935 -0.0110741 -1.23892e-14)
(1.56532 -0.0108951 -1.27209e-14)
(1.57119 -0.0107199 -1.26446e-14)
(1.57695 -0.0105484 -1.29063e-14)
(1.58262 -0.0103805 -1.29534e-14)
(1.58819 -0.010216 -1.31291e-14)
(1.59367 -0.0100547 -1.32096e-14)
(1.59906 -0.00989652 -1.31169e-14)
(1.60436 -0.00974138 -1.34103e-14)
(1.60957 -0.00958917 -1.22991e-14)
(1.61469 -0.00943977 -9.61082e-15)
(1.61973 -0.00929311 -1.09728e-14)
(1.62469 -0.00914909 -8.45878e-15)
(1.62957 -0.00900764 -9.87674e-15)
(1.63436 -0.00886869 -7.46051e-15)
(1.63908 -0.00873216 -8.88889e-15)
(1.64373 -0.00859801 -6.89804e-15)
(1.64829 -0.00846616 -8.64326e-15)
(1.65279 -0.00833657 -6.15537e-15)
(1.65721 -0.00820917 -8.10087e-15)
(1.66156 -0.00808392 -5.87647e-15)
(1.66585 -0.00796077 -7.49701e-15)
(1.67006 -0.00783968 -6.08913e-15)
(1.67421 -0.00772061 -6.75033e-15)
(1.67829 -0.00760351 -7.33401e-15)
(1.68231 -0.00748834 -7.89632e-15)
(1.68627 -0.00737506 -8.26965e-15)
(1.69016 -0.00726365 -8.47012e-15)
(1.69399 -0.00715406 -8.80058e-15)
(1.69776 -0.00704626 -9.09945e-15)
(1.70147 -0.00694021 -9.39702e-15)
(1.70513 -0.0068359 -9.50848e-15)
(1.70873 -0.00673327 -9.71909e-15)
(1.71227 -0.00663231 -1.0115e-14)
(1.71576 -0.00653299 -9.30533e-15)
(1.71919 -0.00643527 -6.79669e-15)
(1.72257 -0.00633913 -8.42486e-15)
(1.7259 -0.00624454 -6.22208e-15)
(1.72918 -0.00615148 -7.77208e-15)
(1.7324 -0.00605991 -5.33594e-15)
(1.73558 -0.00596982 -6.93402e-15)
(1.73871 -0.00588117 -5.50742e-15)
(1.74179 -0.00579395 -4.08743e-15)
(1.74483 -0.00570812 -3.26548e-15)
(1.74782 -0.00562367 -2.50792e-15)
(1.75076 -0.00554057 -1.63522e-15)
(1.75366 -0.0054588 -1.03776e-15)
(1.75652 -0.00537834 -5.90544e-16)
(1.75933 -0.00529917 -3.97185e-17)
(1.7621 -0.00522126 5.07681e-16)
(1.76483 -0.00514459 7.07822e-16)
(1.76751 -0.00506914 9.89082e-16)
(1.77016 -0.0049949 1.63149e-15)
(1.77277 -0.00492185 7.00527e-16)
(1.77534 -0.00484996 1.45573e-15)
(1.77787 -0.00477921 1.95014e-15)
(1.78036 -0.0047096 2.41156e-15)
(1.78282 -0.0046411 2.76568e-15)
(1.78524 -0.00457369 2.91001e-15)
(1.78762 -0.00450736 3.18975e-15)
(1.78997 -0.0044421 3.62715e-15)
(1.79229 -0.00437789 3.85125e-15)
(1.79457 -0.00431472 4.04509e-15)
(1.79682 -0.00425257 4.15805e-15)
(1.79903 -0.00419144 4.35461e-15)
(1.80121 -0.00413131 4.48442e-15)
(1.80336 -0.00407218 4.84599e-15)
(1.80548 -0.00401403 5.11371e-15)
(1.80757 -0.00395688 5.52328e-15)
(1.80963 -0.00390071 5.33609e-15)
(1.81166 -0.00384551 5.65221e-15)
(1.81366 -0.00379131 5.5782e-15)
(1.81563 -0.0037381 5.75005e-15)
(1.81758 -0.00368589 5.91515e-15)
(1.81949 -0.00363471 6.15462e-15)
(1.82138 -0.00358456 6.12394e-15)
(1.82325 -0.00353548 6.18611e-15)
(1.82508 -0.0034875 6.46573e-15)
(1.8269 -0.00344067 5.2132e-15)
(1.82868 -0.00339503 5.8232e-15)
(1.83045 -0.00335067 6.03228e-15)
(1.83219 -0.00330764 6.54892e-15)
(1.83391 -0.00326606 6.69124e-15)
(1.83561 -0.00322604 6.83994e-15)
(1.83728 -0.00318771 6.96715e-15)
(1.83894 -0.00315125 7.24327e-15)
(1.84058 -0.00311684 7.4281e-15)
(1.8422 -0.00308473 7.20162e-15)
(1.84381 -0.0030552 7.32897e-15)
(1.8454 -0.00302857 7.58417e-15)
(1.84697 -0.00300524 7.57486e-15)
(1.84854 -0.00298567 7.78456e-15)
(1.8501 -0.0029704 7.65468e-15)
(1.85165 -0.00296009 7.63531e-15)
(1.85319 -0.00295549 7.71958e-15)
(1.85474 -0.00295751 7.79421e-15)
(1.85629 -0.0029672 7.80008e-15)
(1.85785 -0.00298581 7.93491e-15)
(1.85942 -0.00301482 7.95276e-15)
(1.86101 -0.00305595 7.92857e-15)
(1.86262 -0.00311125 8.02673e-15)
(1.86427 -0.00318311 8.18236e-15)
(1.86596 -0.00327435 8.23082e-15)
(1.86771 -0.00338828 7.1537e-15)
(1.86952 -0.0035288 7.46877e-15)
(1.87142 -0.00370046 7.60284e-15)
(1.87342 -0.00390861 7.79859e-15)
(1.87554 -0.00415951 7.96648e-15)
(1.87781 -0.0044605 8.01935e-15)
(1.88025 -0.00482013 8.20952e-15)
(1.8829 -0.00524839 8.25185e-15)
(1.88581 -0.0057569 8.34031e-15)
(1.88901 -0.00635918 8.4018e-15)
(1.89256 -0.00707086 8.36994e-15)
(1.89652 -0.00791002 8.68733e-15)
(1.90097 -0.00889746 8.82216e-15)
(1.906 -0.010057 8.76922e-15)
(1.9117 -0.0114158 8.67114e-15)
(1.91819 -0.0130045 8.69338e-15)
(1.9256 -0.0148576 8.79284e-15)
(1.9341 -0.0170135 8.56769e-15)
(1.94385 -0.0195139 8.74703e-15)
(1.95506 -0.0224043 8.46894e-15)
(1.96796 -0.0257322 8.49967e-15)
(1.98281 -0.0295464 8.56089e-15)
(1.99989 -0.0338947 8.77845e-15)
(2.01952 -0.0388206 8.62007e-15)
(2.04205 -0.0443594 9.00084e-15)
(2.06785 -0.050532 7.92133e-15)
(2.09729 -0.0573382 8.09829e-15)
(2.13075 -0.0647477 8.37888e-15)
(2.1686 -0.0726891 8.4467e-15)
(2.21116 -0.0810412 8.4089e-15)
(2.25867 -0.0896189 8.36468e-15)
(2.31125 -0.0981719 8.34024e-15)
(2.36888 -0.106371 8.39526e-15)
(2.43129 -0.113832 8.39719e-15)
(2.49799 -0.120109 8.32914e-15)
(2.56819 -0.124755 8.18881e-15)
(2.6408 -0.12735 8.17783e-15)
(2.71449 -0.127563 7.94605e-15)
(1.00016 -0.00170623 3.58401e-17)
(1.00159 -0.00512507 -1.25317e-16)
(1.00466 -0.00848603 -1.24108e-15)
(1.0093 -0.0117228 -8.16399e-16)
(1.01537 -0.0147795 -1.87962e-15)
(1.02278 -0.0176111 -2.44029e-15)
(1.0314 -0.0201836 -2.98047e-15)
(1.04111 -0.0224739 -2.92964e-15)
(1.05176 -0.02447 -2.71063e-15)
(1.06323 -0.0261699 -2.82606e-15)
(1.07536 -0.0275803 -2.99632e-15)
(1.08803 -0.0287144 -3.41042e-15)
(1.10112 -0.0295907 -3.82214e-15)
(1.11452 -0.0302309 -4.17782e-15)
(1.12812 -0.0306587 -3.26143e-15)
(1.14184 -0.0308985 -4.37719e-15)
(1.1556 -0.0309746 -4.95513e-15)
(1.16933 -0.0309102 -5.7091e-15)
(1.18299 -0.0307273 -6.26678e-15)
(1.19652 -0.030446 -6.62981e-15)
(1.20988 -0.0300844 -6.9798e-15)
(1.22306 -0.0296587 -7.55086e-15)
(1.23601 -0.0291831 -7.89035e-15)
(1.24874 -0.0286699 -9.28092e-15)
(1.26121 -0.0281297 -8.72805e-15)
(1.27344 -0.0275714 -8.95208e-15)
(1.2854 -0.0270025 -8.91338e-15)
(1.29709 -0.0264292 -9.04053e-15)
(1.30852 -0.0258565 -8.78861e-15)
(1.31969 -0.0252885 -8.65733e-15)
(1.3306 -0.0247284 -8.69128e-15)
(1.34126 -0.0241787 -8.79515e-15)
(1.35166 -0.0236411 -8.92396e-15)
(1.36182 -0.0231171 -8.96864e-15)
(1.37175 -0.0226075 -8.81507e-15)
(1.38144 -0.0221129 -8.75627e-15)
(1.3909 -0.0216336 -8.85847e-15)
(1.40015 -0.0211695 -9.12441e-15)
(1.40919 -0.0207207 -9.12799e-15)
(1.41802 -0.0202867 -9.34342e-15)
(1.42665 -0.0198672 -9.07462e-15)
(1.43509 -0.0194618 -9.18938e-15)
(1.44335 -0.0190699 -9.30663e-15)
(1.45143 -0.018691 -9.06402e-15)
(1.45933 -0.0183245 -9.26206e-15)
(1.46707 -0.0179698 -9.1926e-15)
(1.47464 -0.0176265 -9.36839e-15)
(1.48206 -0.0172938 -9.4847e-15)
(1.48932 -0.0169713 -9.60669e-15)
(1.49644 -0.0166585 -9.81304e-15)
(1.50341 -0.0163547 -9.7396e-15)
(1.51024 -0.0160597 -9.84483e-15)
(1.51694 -0.0157729 -9.69338e-15)
(1.5235 -0.0154939 -9.82585e-15)
(1.52994 -0.0152222 -9.79583e-15)
(1.53626 -0.0149576 -1.01363e-14)
(1.54245 -0.0146997 -8.54091e-15)
(1.54853 -0.0144481 -8.79902e-15)
(1.5545 -0.0142026 -8.90747e-15)