/*--------------------------------*- C++ -*----------------------------------*\
  =========                 |
  \\      /  F ield         | OpenFOAM: The Open Source CFD Toolbox
   \\    /   O peration     | Website:  https://openfoam.org
    \\  /    A nd           | Version:  7
     \\/     M anipulation  |
\*---------------------------------------------------------------------------*/
FoamFile
{
    version     2.0;
    format      ascii;
    class       volVectorField;
    location    "8.4";
    object      U;
}
// * * * * * * * * * * * * * * * * * * * * * * * * * * * * * * * * * * * * * //

dimensions      [0 1 -1 0 0 0 0];

internalField   nonuniform List<vector> 
344
(
(0.820664 -0.00252556 1.85198e-15)
(0.819976 -0.00248213 1.73132e-15)
(0.8193 -0.0024397 1.31159e-15)
(0.818636 -0.00239823 1.28485e-15)
(0.817982 -0.00235769 8.64476e-16)
(0.81734 -0.00231806 8.567e-16)
(0.816708 -0.00227931 4.82657e-16)
(0.816087 -0.00224142 4.96515e-16)
(0.815476 -0.00220437 1.1569e-16)
(0.814875 -0.00216813 1.23477e-16)
(0.814284 -0.00213269 -2.31985e-16)
(0.813702 -0.00209804 -1.77259e-16)
(0.81313 -0.00206414 -5.26736e-16)
(0.812568 -0.002031 -4.88368e-16)
(0.812014 -0.0019986 -8.58394e-16)
(0.811469 -0.00196693 -8.137e-16)
(0.810932 -0.00193598 -1.09247e-15)
(0.810405 -0.00190575 -1.06146e-15)
(0.809885 -0.00187623 -1.36627e-15)
(0.809373 -0.00184742 -1.30296e-15)
(0.808869 -0.00181934 -1.57383e-15)
(0.808373 -0.00179199 -1.52236e-15)
(0.82444 -0.00575087 8.1035e-15)
(0.82273 -0.00560163 7.55603e-15)
(0.821063 -0.00545834 6.95114e-15)
(0.819439 -0.00532066 6.96473e-15)
(0.817855 -0.00518828 6.45887e-15)
(0.81631 -0.0050609 6.79395e-15)
(0.814803 -0.00493825 6.28165e-15)
(0.813331 -0.00482008 6.35343e-15)
(0.811894 -0.00470615 5.8504e-15)
(0.810491 -0.00459626 6.23791e-15)
(0.80912 -0.00449018 5.75088e-15)
(0.80778 -0.00438774 5.81572e-15)
(0.80647 -0.00428876 5.35133e-15)
(0.80519 -0.00419306 5.79565e-15)
(0.803937 -0.0041005 5.60743e-15)
(0.802712 -0.00401093 5.76194e-15)
(0.801514 -0.00392421 5.96563e-15)
(0.800341 -0.00384021 6.18469e-15)
(0.799193 -0.00375882 6.40104e-15)
(0.798069 -0.00367991 6.5755e-15)
(0.796968 -0.00360338 6.74428e-15)
(0.795891 -0.00352913 6.90125e-15)
(0.794835 -0.00345707 7.02625e-15)
(0.7938 -0.0033871 7.17036e-15)
(0.792786 -0.00331913 7.2991e-15)
(0.791792 -0.00325309 7.3708e-15)
(0.790818 -0.00318891 6.83383e-15)
(0.789863 -0.0031265 6.30902e-15)
(0.788927 -0.00306579 6.37595e-15)
(0.788008 -0.00300674 5.92613e-15)
(0.787107 -0.00294926 6.24668e-15)
(0.786223 -0.00289331 5.75006e-15)
(0.785356 -0.00283882 5.83453e-15)
(0.784505 -0.00278574 5.56004e-15)
(0.78367 -0.00273403 4.98592e-15)
(0.78285 -0.00268363 4.70005e-15)
(0.782045 -0.00263449 4.16879e-15)
(0.781255 -0.00258659 3.9233e-15)
(0.780479 -0.00253986 3.46231e-15)
(0.779717 -0.00249427 3.26232e-15)
(0.778969 -0.00244979 2.82151e-15)
(0.778233 -0.00240637 2.63529e-15)
(0.777511 -0.00236399 2.24087e-15)
(0.776802 -0.0023226 2.10871e-15)
(0.776105 -0.00228218 1.74301e-15)
(0.775419 -0.0022427 1.70413e-15)
(0.774746 -0.00220413 1.62164e-15)
(0.774084 -0.00216644 1.26007e-15)
(0.773434 -0.0021296 1.16273e-15)
(0.772794 -0.0020936 8.36745e-16)
(0.772166 -0.0020584 7.74462e-16)
(0.771547 -0.00202399 4.5992e-16)
(0.770939 -0.00199034 3.85069e-16)
(0.770342 -0.00195743 1.18763e-16)
(0.769754 -0.00192525 8.43731e-17)
(0.769175 -0.00189378 -2.30375e-16)
(0.768606 -0.00186301 -2.41333e-16)
(0.768047 -0.00183292 -5.29343e-16)
(0.767496 -0.00180349 -5.34452e-16)
(0.766954 -0.00177472 -8.13443e-16)
(0.766421 -0.0017466 -8.65753e-16)
(0.765896 -0.00171913 -1.0942e-15)
(0.76538 -0.00169229 -1.08067e-15)
(0.764871 -0.00166609 -1.32589e-15)
(0.764371 -0.00164052 -1.33259e-15)
(0.763878 -0.0016156 -1.5272e-15)
(0.763392 -0.00159134 -1.54092e-15)
(0.776742 -0.00505732 7.70873e-15)
(0.775077 -0.00492599 7.24462e-15)
(0.773454 -0.00479989 6.68064e-15)
(0.771873 -0.00467874 6.6575e-15)
(0.770331 -0.00456226 6.2313e-15)
(0.768827 -0.00445018 6.46098e-15)
(0.767359 -0.00434226 5.99937e-15)
(0.765927 -0.0042383 6.02436e-15)
(0.764528 -0.00413806 5.61635e-15)
(0.763163 -0.00404138 5.88403e-15)
(0.761828 -0.00394806 5.47687e-15)
(0.760525 -0.00385794 5.50662e-15)
(0.759251 -0.00377086 5.13388e-15)
(0.758005 -0.00368667 5.45014e-15)
(0.756787 -0.00360525 5.29604e-15)
(0.755596 -0.00352646 5.46712e-15)
(0.75443 -0.00345017 5.65854e-15)
(0.75329 -0.00337628 5.85289e-15)
(0.752174 -0.00330469 6.04158e-15)
(0.751081 -0.00323528 6.22914e-15)
(0.750011 -0.00316797 6.37996e-15)
(0.748963 -0.00310266 6.5427e-15)
(0.747936 -0.00303928 6.65985e-15)
(0.74693 -0.00297774 6.81576e-15)
(0.745945 -0.00291796 6.93341e-15)
(0.744979 -0.00285988 6.9924e-15)
(0.744032 -0.00280343 6.54002e-15)
(0.743104 -0.00274854 6.05016e-15)
(0.742194 -0.00269516 6.06807e-15)
(0.741301 -0.00264323 5.70188e-15)
(0.740426 -0.00259268 5.92814e-15)
(0.739567 -0.00254347 5.48108e-15)
(0.738724 -0.00249556 5.53348e-15)
(0.737898 -0.00244889 5.28077e-15)
(0.737086 -0.00240341 4.74326e-15)
(0.73629 -0.0023591 4.44388e-15)
(0.735508 -0.00231589 3.94366e-15)
(0.73474 -0.00227377 3.71481e-15)
(0.733986 -0.00223268 3.25849e-15)
(0.733246 -0.0021926 3.03638e-15)
(0.732519 -0.00215349 2.633e-15)
(0.731805 -0.00211532 2.45772e-15)
(0.731104 -0.00207805 2.08794e-15)
(0.730415 -0.00204167 1.91627e-15)
(0.729738 -0.00200613 1.5877e-15)
(0.729072 -0.00197142 1.56315e-15)
(0.728418 -0.00193751 1.46479e-15)
(0.727776 -0.00190438 1.15522e-15)
(0.727144 -0.00187199 1.02958e-15)
(0.726523 -0.00184034 7.46821e-16)
(0.725912 -0.0018094 6.73942e-16)
(0.725312 -0.00177915 3.72153e-16)
(0.724722 -0.00174957 2.691e-16)
(0.724141 -0.00172064 4.58542e-17)
(0.72357 -0.00169236 8.62536e-18)
(0.723009 -0.0016647 -2.76641e-16)
(0.722456 -0.00163765 -3.27232e-16)
(0.721913 -0.0016112 -5.90447e-16)
(0.721378 -0.00158534 -5.79888e-16)
(0.720852 -0.00156006 -8.43828e-16)
(0.720334 -0.00153534 -9.13941e-16)
(0.719825 -0.0015112 -1.10191e-15)
(0.719323 -0.00148762 -1.09708e-15)
(0.71883 -0.0014646 -1.32163e-15)
(0.718344 -0.00144214 -1.35232e-15)
(0.717865 -0.00142025 -1.55761e-15)
(0.717394 -0.00139894 -1.53174e-15)
(0.71693 -0.00137821 -1.72178e-15)
(0.727594 -0.00439514 7.31158e-15)
(0.725986 -0.00428096 6.8436e-15)
(0.72442 -0.00417135 6.29201e-15)
(0.722893 -0.00406604 6.35959e-15)
(0.721405 -0.00396478 5.87494e-15)
(0.719954 -0.00386735 6.20111e-15)
(0.718538 -0.00377355 5.62249e-15)
(0.717156 -0.00368317 5.71953e-15)
(0.715807 -0.00359604 5.27856e-15)
(0.71449 -0.003512 5.64344e-15)
(0.713203 -0.00343088 5.1039e-15)
(0.711946 -0.00335255 5.21908e-15)
(0.710717 -0.00327686 4.79965e-15)
(0.709516 -0.00320368 5.22219e-15)
(0.708341 -0.00313291 4.98205e-15)
(0.707192 -0.00306442 5.2004e-15)
(0.706069 -0.00299812 5.38843e-15)
(0.704969 -0.0029339 5.56792e-15)
(0.703893 -0.00287167 5.71506e-15)
(0.702839 -0.00281134 5.92414e-15)
(0.701808 -0.00275284 6.04506e-15)
(0.700797 -0.00269607 6.1996e-15)
(0.699808 -0.00264099 6.33122e-15)
(0.698839 -0.0025875 6.48891e-15)
(0.697889 -0.00253555 6.59476e-15)
(0.696958 -0.00248507 6.64105e-15)
(0.696045 -0.00243601 6.17541e-15)
(0.695151 -0.00238831 5.72072e-15)
(0.694274 -0.00234191 5.7799e-15)
(0.693414 -0.00229677 5.35959e-15)
(0.69257 -0.00225285 5.6776e-15)
(0.691742 -0.00221009 5.10665e-15)
(0.690931 -0.00216845 5.24617e-15)
(0.690134 -0.00212789 4.96824e-15)
(0.689352 -0.00208837 4.40306e-15)
(0.688585 -0.00204986 4.15159e-15)
(0.687831 -0.00201231 3.62498e-15)
(0.687092 -0.00197571 3.46832e-15)
(0.686366 -0.00194 2.952e-15)
(0.685653 -0.00190517 2.77814e-15)
(0.684952 -0.00187119 2.3434e-15)
(0.684265 -0.00183802 2.26175e-15)
(0.683589 -0.00180563 1.8485e-15)
(0.682925 -0.00177402 1.7207e-15)
(0.682273 -0.00174314 1.35073e-15)
(0.681632 -0.00171298 1.39566e-15)
(0.681002 -0.00168352 1.33373e-15)
(0.680383 -0.00165473 9.80203e-16)
(0.679775 -0.00162659 8.82985e-16)
(0.679176 -0.00159909 5.68984e-16)
(0.678588 -0.0015722 5.82366e-16)
(0.67801 -0.00154592 2.39041e-16)
(0.677442 -0.00152022 1.90978e-16)
(0.676882 -0.00149509 -9.3092e-17)
(0.676333 -0.00147052 -6.43975e-17)
(0.675792 -0.00144649 -3.82978e-16)
(0.67526 -0.00142299 -4.26883e-16)
(0.674736 -0.00140001 -7.0351e-16)
(0.674221 -0.00137755 -6.41404e-16)
(0.673715 -0.00135559 -9.1788e-16)
(0.673216 -0.00133412 -9.68329e-16)
(0.672725 -0.00131315 -1.17802e-15)
(0.672242 -0.00129267 -1.08175e-15)
(0.671767 -0.00127268 -1.36294e-15)
(0.671299 -0.00125318 -1.35424e-15)
(0.670838 -0.00123418 -1.58004e-15)
(0.670384 -0.00121568 -1.50116e-15)
(0.669937 -0.00119769 -1.74507e-15)
(0.677017 -0.00376796 6.78148e-15)
(0.67548 -0.00367009 6.53813e-15)
(0.673982 -0.00357612 6.01292e-15)
(0.672523 -0.00348584 5.91067e-15)
(0.671101 -0.00339904 5.60617e-15)
(0.669713 -0.00331552 5.66688e-15)
(0.66836 -0.0032351 5.30205e-15)
(0.667039 -0.00315763 5.25598e-15)
(0.66575 -0.00308293 5.03553e-15)
(0.664491 -0.00301089 5.13709e-15)
(0.663261 -0.00294134 4.78641e-15)
(0.66206 -0.00287419 4.78872e-15)
(0.660886 -0.0028093 4.59342e-15)
(0.659738 -0.00274657 4.75772e-15)
(0.658616 -0.00268589 4.6211e-15)
(0.657518 -0.00262718 4.7968e-15)
(0.656445 -0.00257033 4.95109e-15)
(0.655394 -0.00251528 5.13969e-15)
(0.654366 -0.00246193 5.28718e-15)
(0.65336 -0.00241021 5.46225e-15)
(0.652374 -0.00236005 5.57226e-15)
(0.651409 -0.00231139 5.70522e-15)
(0.650464 -0.00226416 5.8551e-15)
(0.649538 -0.0022183 6.0081e-15)
(0.648631 -0.00217376 6.10051e-15)
(0.647742 -0.00213049 6.13522e-15)
(0.646871 -0.00208843 5.93696e-15)
(0.646016 -0.00204753 5.44905e-15)
(0.645179 -0.00200776 5.35424e-15)
(0.644357 -0.00196906 5.10881e-15)
(0.643552 -0.00193141 5.19226e-15)
(0.642762 -0.00189475 4.81419e-15)
(0.641986 -0.00185905 4.8193e-15)
(0.641225 -0.00182428 4.64216e-15)
(0.640479 -0.0017904 4.14234e-15)
(0.639746 -0.00175738 3.82252e-15)
(0.639027 -0.0017252 3.3849e-15)
(0.638321 -0.00169382 3.2258e-15)
(0.637627 -0.00166321 2.73663e-15)
(0.636947 -0.00163335 2.50741e-15)
(0.636278 -0.00160421 2.16807e-15)
(0.635621 -0.00157578 2.05572e-15)
(0.634976 -0.00154802 1.7154e-15)
(0.634342 -0.00152092 1.52818e-15)
(0.63372 -0.00149445 1.22578e-15)
(0.633108 -0.0014686 1.22756e-15)
(0.632507 -0.00144334 1.21e-15)
(0.631916 -0.00141866 8.98026e-16)
(0.631335 -0.00139454 7.43061e-16)
(0.630764 -0.00137096 5.01846e-16)
(0.630202 -0.00134792 4.89766e-16)
(0.62965 -0.00132539 1.91967e-16)
(0.629107 -0.00130336 7.36637e-17)
(0.628574 -0.00128182 -1.1992e-16)
(0.628049 -0.00126076 -1.24416e-16)
(0.627532 -0.00124016 -3.97709e-16)
(0.627025 -0.00122002 -4.88784e-16)
(0.626525 -0.00120033 -7.08101e-16)
(0.626033 -0.00118107 -6.58715e-16)
(0.62555 -0.00116225 -9.09721e-16)
(0.625074 -0.00114386 -9.90225e-16)
(0.624605 -0.00112589 -1.12878e-15)
(0.624144 -0.00110834 -1.07075e-15)
(0.62369 -0.00109121 -1.28501e-15)
(0.623243 -0.00107451 -1.3585e-15)
(0.622803 -0.00105823 -1.51059e-15)
(0.62237 -0.00104239 -1.4526e-15)
(0.621943 -0.00102698 -1.64623e-15)
(0.625036 -0.0031792 6.26287e-15)
(0.623582 -0.00309666 6.05138e-15)
(0.622165 -0.00301741 5.62023e-15)
(0.620784 -0.00294126 5.46554e-15)
(0.619439 -0.00286805 5.28772e-15)
(0.618126 -0.0027976 5.20065e-15)
(0.616846 -0.00272977 4.87228e-15)
(0.615597 -0.00266442 4.81227e-15)
(0.614377 -0.00260141 4.7254e-15)
(0.613186 -0.00254064 4.68659e-15)
(0.612023 -0.00248197 4.42395e-15)
(0.610887 -0.00242532 4.38669e-15)
(0.609776 -0.00237058 4.33243e-15)
(0.60869 -0.00231766 4.35651e-15)
(0.607629 -0.00226647 4.2446e-15)
(0.606591 -0.00221694 4.42375e-15)
(0.605576 -0.00216898 4.55755e-15)
(0.604582 -0.00212253 4.71887e-15)
(0.60361 -0.00207752 4.85509e-15)
(0.602658 -0.00203389 5.04561e-15)
(0.601726 -0.00199157 5.15004e-15)
(0.600814 -0.00195051 5.26578e-15)
(0.59992 -0.00191067 5.41927e-15)
(0.599044 -0.00187198 5.53772e-15)
(0.598187 -0.0018344 5.62255e-15)
(0.597346 -0.00179789 5.65854e-15)
(0.596522 -0.0017624 5.51582e-15)
(0.595714 -0.00172789 5.09291e-15)
(0.594922 -0.00169433 4.93505e-15)
(0.594145 -0.00166168 4.80738e-15)
(0.593384 -0.00162991 4.72503e-15)
(0.592636 -0.00159898 4.44736e-15)
(0.591903 -0.00156886 4.39865e-15)
(0.591184 -0.00153952 4.27733e-15)
(0.590478 -0.00151094 3.79678e-15)
(0.589786 -0.00148308 3.44382e-15)
(0.589106 -0.00145592 3.05609e-15)
(0.588438 -0.00142944 2.95843e-15)
(0.587782 -0.00140362 2.4976e-15)
(0.587139 -0.00137843 2.20691e-15)
(0.586507 -0.00135384 1.91457e-15)
(0.585886 -0.00132985 1.87576e-15)
(0.585276 -0.00130643 1.50786e-15)
(0.584677 -0.00128356 1.31654e-15)
(0.584088 -0.00126123 1.04908e-15)
(0.58351 -0.00123941 1.03713e-15)
(0.582941 -0.0012181 1.09163e-15)
(0.582382 -0.00119728 7.66314e-16)
(0.581833 -0.00117693 6.0233e-16)
(0.581293 -0.00115704 3.76634e-16)
(0.580763 -0.0011376 4.08216e-16)
)
;

boundaryField
{
    inlet
    {
        type            uniformFixedValue;
        uniformValue    constant (1 0 0);
        value           nonuniform 0();
    }
    outlet
    {
        type            pressureInletOutletVelocity;
        value           nonuniform 0();
    }
    wall
    {
        type            fixedValue;
        value           nonuniform 0();
    }
    wedge1
    {
        type            wedge;
    }
    wedge2
    {
        type            wedge;
    }
    axis
    {
        type            empty;
    }
    procBoundary31to25
    {
        type            processor;
        value           nonuniform List<vector> 
68
(
(0.864798 -0.00281867 2.01465e-15)
(0.8641 -0.00277022 1.85272e-15)
(0.863415 -0.00272288 1.42324e-15)
(0.86274 -0.00267661 1.41246e-15)
(0.862078 -0.00263138 9.92202e-16)
(0.861426 -0.00258716 9.6228e-16)
(0.860785 -0.00254393 5.83606e-16)
(0.860155 -0.00250165 5.88886e-16)
(0.859536 -0.00246031 2.11761e-16)
(0.858926 -0.00241987 1.9341e-16)
(0.858327 -0.00238033 -1.62839e-16)
(0.857737 -0.00234165 -5.79405e-17)
(0.857156 -0.00230383 -4.40813e-16)
(0.856586 -0.00226684 -4.14658e-16)
(0.856024 -0.00223067 -7.90677e-16)
(0.855471 -0.00219532 -7.16117e-16)
(0.854927 -0.00216077 -1.0015e-15)
(0.854391 -0.00212702 -1.01102e-15)
(0.853864 -0.00209406 -1.33021e-15)
(0.853345 -0.0020619 -1.26468e-15)
(0.852834 -0.00203054 -1.52751e-15)
(0.85233 -0.002 -1.4904e-15)
(0.870662 -0.00647192 8.55085e-15)
(0.868922 -0.00630416 7.75229e-15)
(0.867225 -0.00614307 7.06688e-15)
(0.865572 -0.00598828 7.32151e-15)
(0.863959 -0.00583944 6.57011e-15)
(0.862385 -0.00569622 7.22805e-15)
(0.860849 -0.0055583 6.45332e-15)
(0.85935 -0.00542542 6.70266e-15)
(0.857886 -0.00529731 5.98705e-15)
(0.856455 -0.00517372 6.67561e-15)
(0.855058 -0.00505443 5.92388e-15)
(0.853692 -0.00493921 6.17223e-15)
(0.852357 -0.00482788 5.47353e-15)
(0.851052 -0.00472025 6.22818e-15)
(0.849775 -0.00461614 5.85233e-15)
(0.848526 -0.00451538 6.11659e-15)
(0.847303 -0.00441783 6.34158e-15)
(0.846107 -0.00432334 6.56802e-15)
(0.844936 -0.00423177 6.79422e-15)
(0.843789 -0.004143 6.97785e-15)
(0.842667 -0.0040569 7.16315e-15)
(0.841567 -0.00397336 7.3134e-15)
(0.840489 -0.00389228 7.44224e-15)
(0.839433 -0.00381355 7.56913e-15)
(0.838399 -0.00373708 7.71271e-15)
(0.837384 -0.00366277 7.78566e-15)
(0.83639 -0.00359055 7.03388e-15)
(0.835415 -0.00352032 6.44265e-15)
(0.834459 -0.00345201 6.72603e-15)
(0.833522 -0.00338555 6.05768e-15)
(0.832602 -0.00332086 6.67227e-15)
(0.831699 -0.00325789 5.91337e-15)
(0.830814 -0.00319657 6.17927e-15)
(0.829945 -0.00313683 5.8178e-15)
(0.829092 -0.00307863 5.12859e-15)
(0.828254 -0.0030219 4.90722e-15)
(0.827432 -0.0029666 4.3074e-15)
(0.826625 -0.00291267 4.11512e-15)
(0.825833 -0.00286007 3.58006e-15)
(0.825055 -0.00280876 3.43464e-15)
(0.82429 -0.00275869 2.9281e-15)
(0.823539 -0.00270981 2.79974e-15)
(0.822801 -0.0026621 2.3207e-15)
(0.822077 -0.00261551 2.26974e-15)
(0.821364 -0.00257001 1.82933e-15)
(0.821364 -0.00257001 1.82933e-15)
)
;
    }
    procBoundary31to26
    {
        type            processor;
        value           uniform (0.807885 -0.00176539 -1.81383e-15);
    }
    procBoundary31to30
    {
        type            processor;
        value           nonuniform List<vector> 4((0.826195 -0.00590643 8.05618e-15) (0.778452 -0.00519422 7.66756e-15) (0.729244 -0.00451415 7.28693e-15) (0.678595 -0.00386998 6.75837e-15));
    }
    procBoundary31to32
    {
        type            processor;
        value           nonuniform List<vector> 5((0.762914 -0.00156773 -1.73391e-15) (0.762914 -0.00156773 -1.73391e-15) (0.716472 -0.00135809 -1.70957e-15) (0.669497 -0.00118023 -1.67827e-15) (0.621523 -0.00101203 -1.64935e-15));
    }
    procBoundary31to36
    {
        type            processor;
        value           uniform (0.626529 -0.00326524 6.26748e-15);
    }
    procBoundary31to37
    {
        type            processor;
        value           nonuniform List<vector> 
69
(
(0.580241 -0.00111859 1.03986e-16)
(0.579728 -0.0011 -6.96323e-17)
(0.579223 -0.00108183 -2.1696e-16)
(0.578727 -0.00106406 -1.64829e-16)
(0.578239 -0.00104668 -4.53987e-16)
(0.577759 -0.00102969 -5.71011e-16)
(0.577286 -0.00101308 -7.43229e-16)
(0.576822 -0.000996834 -6.54079e-16)
(0.576364 -0.000980957 -9.12548e-16)
(0.575914 -0.000965442 -1.03164e-15)
(0.575472 -0.000950284 -1.13013e-15)
(0.575036 -0.000935484 -1.02812e-15)
(0.574606 -0.000921039 -1.2667e-15)
(0.574184 -0.000906952 -1.3676e-15)
(0.573768 -0.000893227 -1.46459e-15)
(0.573358 -0.000879868 -1.38119e-15)
(0.572955 -0.000866885 -1.58595e-15)
(0.571675 -0.00263205 5.7457e-15)
(0.570315 -0.00256376 5.60038e-15)
(0.568991 -0.00249819 5.17451e-15)
(0.5677 -0.0024352 4.98725e-15)
(0.566441 -0.00237462 4.77208e-15)
(0.565214 -0.00231633 4.73474e-15)
(0.564016 -0.0022602 4.43824e-15)
(0.562848 -0.00220612 4.35365e-15)
(0.561707 -0.00215399 4.25307e-15)
(0.560594 -0.00210369 4.24475e-15)
(0.559506 -0.00205514 4.03413e-15)
(0.558444 -0.00200826 3.98342e-15)
(0.557405 -0.00196295 3.87858e-15)
(0.55639 -0.00191915 3.94754e-15)
(0.555398 -0.00187679 3.83439e-15)
(0.554427 -0.00183579 4.03899e-15)
(0.553478 -0.00179609 4.17999e-15)
(0.552549 -0.00175765 4.3438e-15)
(0.551639 -0.00172039 4.49054e-15)
(0.550749 -0.00168427 4.6336e-15)
(0.549878 -0.00164924 4.76216e-15)
(0.549025 -0.00161525 4.88418e-15)
(0.548189 -0.00158227 4.99717e-15)
(0.547371 -0.00155024 5.09787e-15)
(0.546569 -0.00151913 5.19785e-15)
(0.545783 -0.0014889 5.20443e-15)
(0.545012 -0.00145952 5.09926e-15)
(0.544257 -0.00143096 4.68198e-15)
(0.543516 -0.00140318 4.50866e-15)
(0.54279 -0.00137615 4.33411e-15)
(0.542078 -0.00134984 4.28428e-15)
(0.54138 -0.00132423 4.03136e-15)
(0.540694 -0.0012993 3.98679e-15)
(0.540022 -0.00127501 3.79109e-15)
(0.539362 -0.00125134 3.37722e-15)
(0.538714 -0.00122828 3.03383e-15)
(0.538078 -0.00120579 2.67641e-15)
(0.537454 -0.00118387 2.5138e-15)
(0.536841 -0.00116249 2.17274e-15)
(0.53624 -0.00114163 1.89589e-15)
(0.535649 -0.00112128 1.626e-15)
(0.535068 -0.00110141 1.53692e-15)
(0.534498 -0.00108202 1.25079e-15)
(0.533938 -0.00106309 1.06042e-15)
(0.533387 -0.0010446 8.41199e-16)
(0.532847 -0.00102654 8.48356e-16)
(0.532315 -0.00100889 8.23259e-16)
(0.531793 -0.00099165 5.95843e-16)
(0.531279 -0.000974801 4.31388e-16)
(0.530775 -0.000958333 2.25864e-16)
(0.580241 -0.00111859 1.03986e-16)
(0.530278 -0.000942234 2.00183e-16)
)
;
    }
}


// ************************************************************************* //
