0.155265 	0.479017 	2.84542e-18 	1.07191 	-0.034589 	1.92859e-17
0.156341 	0.482335 	2.5692e-18 	0.971832 	-0.0275613 	1.05724e-17
0.157961 	0.487333 	2.43495e-18 	0.779517 	-0.0166146 	1.91455e-17
0.159385 	0.491728 	2.11402e-18 	0.497251 	-0.00553253 	5.44498e-18
0.160195 	0.494227 	1.62483e-18 	0.489195 	-0.00525603 	4.81253e-18
0.161201 	0.49733 	1.05031e-18 	0.166363 	-0.000505876 	3.68002e-18
