/*--------------------------------*- C++ -*----------------------------------*\
  =========                 |
  \\      /  F ield         | OpenFOAM: The Open Source CFD Toolbox
   \\    /   O peration     | Website:  https://openfoam.org
    \\  /    A nd           | Version:  7
     \\/     M anipulation  |
\*---------------------------------------------------------------------------*/
FoamFile
{
    version     2.0;
    format      ascii;
    class       volScalarField;
    location    "12";
    object      p;
}
// * * * * * * * * * * * * * * * * * * * * * * * * * * * * * * * * * * * * * //

dimensions      [0 2 -2 0 0 0 0];

internalField   nonuniform List<scalar> 
435
(
1.16244
1.06901
0.979023
0.892255
0.808419
0.727182
0.648182
0.570991
0.495191
0.420253
0.345717
0.270977
0.195413
0.118667
0.039225
1.84
1.72449
1.6123
1.50355
1.3983
1.29653
1.19821
1.10323
1.01144
0.922631
0.836566
0.752946
0.671434
0.591645
0.51316
0.435519
0.358199
0.280734
0.202313
0.122873
0.0405133
1.87419
1.75991
1.64842
1.53989
1.4344
1.332
1.23267
1.13636
1.04295
0.952279
0.864137
0.778267
0.694357
0.612064
0.530975
0.450686
0.370637
0.290468
0.209234
0.127077
0.0418447
1.90536
1.79259
1.68208
1.57404
1.46858
1.36579
1.26569
1.16826
1.07344
0.981084
0.891028
0.803048
0.716865
0.632171
0.548568
0.465701
0.382987
0.300146
0.216147
0.131267
0.0432062
1.93351
1.82249
1.71322
1.60591
1.50073
1.39779
1.29715
1.19883
1.10279
1.00894
0.917132
0.827194
0.738869
0.651889
0.565873
0.480506
0.395199
0.309731
0.223024
0.13543
0.044585
1.95866
1.8496
1.74179
1.63545
1.53078
1.42792
1.32696
1.22795
1.13089
1.03573
0.942348
0.850605
0.76028
0.671135
0.582815
0.495037
0.407221
0.319182
0.22983
0.139548
0.0459688
1.98089
1.87396
1.76779
1.66262
1.55867
1.45609
1.35503
1.25554
1.15765
1.06136
0.966576
0.873188
0.781006
0.689827
0.599319
0.509231
0.418997
0.328457
0.236531
0.143604
0.047346
2.00029
1.89561
1.79123
1.68741
1.58435
1.48226
1.38128
1.2815
1.18298
1.08574
0.98972
0.894847
0.800959
0.707881
0.61531
0.523019
0.430468
0.33751
0.243091
0.147576
0.0487053
2.01699
1.91466
1.81218
1.70983
1.60783
1.50639
1.40566
1.30576
1.20679
1.10877
1.01169
0.915493
0.820049
0.725212
0.630708
0.536333
0.441574
0.346291
0.249471
0.151443
0.0500362
2.03116
1.9312
1.8307
1.72993
1.62911
1.52845
1.42813
1.32829
1.22902
1.13039
1.0324
0.935037
0.838189
0.741737
0.645435
0.549101
0.452252
0.354753
0.255632
0.155181
0.0513287
2.04296
1.94538
1.84691
1.74778
1.64823
1.54847
1.44868
1.34902
1.2496
1.15051
1.05178
0.953398
0.855295
0.757372
0.659413
0.561252
0.46244
0.362842
0.261535
0.158767
0.0525727
2.05259
1.95737
1.86091
1.76345
1.66523
1.56644
1.46729
1.36793
1.2685
1.16909
1.06975
0.970496
0.871285
0.772037
0.672563
0.572714
0.472074
0.370506
0.267138
0.162176
0.0537586
2.06029
1.96733
1.87285
1.77706
1.68018
1.58242
1.48398
1.38502
1.28567
1.18606
1.08624
0.986258
0.88608
0.785651
0.684808
0.583415
0.481088
0.377691
0.272401
0.165381
0.0548767
2.06627
1.97547
1.88288
1.78871
1.69317
1.59646
1.49876
1.40026
1.30109
1.20138
1.1012
1.00061
0.899603
0.798136
0.696068
0.593281
0.489418
0.384343
0.277281
0.168357
0.0559172
2.07078
1.98198
1.89117
1.79854
1.70429
1.60861
1.51168
1.41367
1.31473
1.215
1.11457
1.01349
0.911779
0.809411
0.706266
0.602237
0.496995
0.390405
0.281735
0.171076
0.05687
2.07405
1.98707
1.89789
1.80668
1.71364
1.61893
1.52274
1.42524
1.32658
1.2269
1.12629
1.02482
0.92253
0.819396
0.71532
0.610206
0.50375
0.395818
0.285718
0.17351
0.057725
2.0763
1.99093
1.9032
1.81327
1.72131
1.6275
1.53201
1.43499
1.33662
1.23702
1.1363
1.03454
0.931775
0.828005
0.723144
0.617107
0.509611
0.400521
0.289182
0.175628
0.0584713
2.07778
1.99376
1.90725
1.81841
1.72739
1.63436
1.53948
1.44291
1.34481
1.24532
1.14454
1.04256
0.939424
0.835145
0.729648
0.622853
0.514498
0.404447
0.292079
0.1774
0.0590978
2.07868
1.99572
1.91019
1.82222
1.73196
1.63955
1.54518
1.44898
1.35111
1.25172
1.15091
1.04878
0.945376
0.840712
0.734727
0.627347
0.518325
0.407525
0.294352
0.178791
0.0595925
2.07916
1.99696
1.91212
1.82476
1.73503
1.64308
1.54906
1.45314
1.35545
1.25614
1.15532
1.0531
0.949508
0.844583
0.738263
0.630479
0.520996
0.409674
0.29594
0.179761
0.0599436
2.07938
1.99757
1.91309
1.82606
1.73661
1.6449
1.55108
1.45529
1.3577
1.25844
1.15762
1.05535
0.951669
0.846608
0.740115
0.632121
0.522398
0.410799
0.296778
0.180262
0.0601378
)
;

boundaryField
{
    inlet
    {
        type            zeroGradient;
    }
    outlet
    {
        type            fixedValue;
        value           uniform 0;
    }
    cylinder
    {
        type            zeroGradient;
    }
    top
    {
        type            symmetryPlane;
    }
    bottom
    {
        type            symmetryPlane;
    }
    defaultFaces
    {
        type            empty;
    }
    procBoundary35to29
    {
        type            processor;
        value           nonuniform List<scalar> 
22
(
1.1255
1.03382
0.945832
0.861265
0.779802
0.701069
0.624685
0.550174
0.477128
0.404939
0.333233
0.261226
0.188556
0.114469
0.037993
1.80285
1.6864
1.57381
1.46514
1.36039
1.25952
1.25952
)
;
    }
    procBoundary35to34
    {
        type            processor;
        value           nonuniform List<scalar> 
20
(
1.95869
1.99108
2.02018
2.04602
2.0687
2.0883
2.10498
2.11892
2.1303
2.13937
2.14634
2.1515
2.15508
2.15738
2.15865
2.15917
2.15918
2.15893
2.15861
2.1584
)
;
    }
}


// ************************************************************************* //
