/*--------------------------------*- C++ -*----------------------------------*\
  =========                 |
  \\      /  F ield         | OpenFOAM: The Open Source CFD Toolbox
   \\    /   O peration     | Website:  https://openfoam.org
    \\  /    A nd           | Version:  7
     \\/     M anipulation  |
\*---------------------------------------------------------------------------*/
FoamFile
{
    version     2.0;
    format      ascii;
    class       volScalarField;
    location    "7";
    object      p;
}
// * * * * * * * * * * * * * * * * * * * * * * * * * * * * * * * * * * * * * //

dimensions      [0 2 -2 0 0 0 0];

internalField   nonuniform List<scalar> 
433
(
0.435915
0.401113
0.370347
0.342826
0.317864
0.294903
0.466096
0.428582
0.395332
0.365527
0.33846
0.313549
0.290305
0.268369
0.247432
0.227382
0.207974
0.189261
0.170899
0.153293
0.135554
0.118842
0.100882
0.0848895
0.0653773
0.0505708
0.0274062
0.0155919
0.466376
0.430169
0.397527
0.367728
0.340181
0.3144
0.290035
0.266798
0.24458
0.223174
0.202627
0.182634
0.163526
0.14449
0.126494
0.107465
0.0902079
0.069746
0.0534747
0.0295134
0.0158515
0.516548
0.476154
0.439592
0.406127
0.375151
0.346163
0.318799
0.292762
0.267918
0.244063
0.221218
0.199095
0.177958
0.157056
0.137215
0.116536
0.097497
0.0755648
0.0573974
0.0321915
0.0162368
0.567398
0.522775
0.482253
0.445086
0.410653
0.378444
0.348077
0.319242
0.291777
0.265473
0.240323
0.216044
0.192844
0.17002
0.148281
0.125874
0.105008
0.0815239
0.0614434
0.0349003
0.0166552
0.619177
0.570349
0.525863
0.484973
0.447051
0.411579
0.378159
0.346474
0.316335
0.287529
0.26002
0.233532
0.208217
0.183418
0.159728
0.135541
0.112791
0.0876972
0.065642
0.0377006
0.0171026
0.671422
0.618443
0.570028
0.525434
0.484031
0.445295
0.408816
0.374267
0.341438
0.31011
0.280216
0.251487
0.22402
0.197204
0.171519
0.1455
0.120815
0.0940583
0.0699748
0.0405798
0.0175762
0.724001
0.666943
0.614648
0.566385
0.521524
0.479537
0.440007
0.402595
0.367072
0.333209
0.300912
0.269913
0.24026
0.211384
0.183657
0.155753
0.129083
0.100603
0.0744428
0.0435318
0.0180803
0.776787
0.715748
0.659648
0.607767
0.559485
0.514273
0.471708
0.43144
0.393223
0.356816
0.3221
0.288806
0.256935
0.225955
0.196142
0.166297
0.137593
0.10733
0.0790476
0.0465545
0.0186191
0.82963
0.764742
0.704934
0.649511
0.597862
0.549464
0.503888
0.460779
0.419872
0.380917
0.343767
0.308154
0.274034
0.240911
0.208968
0.177129
0.146345
0.114239
0.0837903
0.0496464
0.0191966
0.882368
0.813791
0.750402
0.691533
0.636589
0.585058
0.536508
0.490579
0.446993
0.405489
0.365895
0.327942
0.291545
0.25624
0.222129
0.188245
0.155335
0.121326
0.0886708
0.0528059
0.0198164
0.934826
0.862753
0.795935
0.733739
0.675592
0.620994
0.569518
0.520802
0.474553
0.430504
0.388461
0.348151
0.309453
0.271931
0.235613
0.199636
0.164558
0.128587
0.093688
0.0560308
0.0204819
0.986816
0.911469
0.841403
0.776021
0.714782
0.657202
0.602861
0.551397
0.502512
0.455929
0.411434
0.368754
0.327735
0.287965
0.249407
0.211292
0.174007
0.136018
0.09884
0.0593186
0.0211961
1.03814
0.959771
0.886662
0.818261
0.754061
0.693598
0.636467
0.582309
0.53082
0.48172
0.434779
0.389721
0.346366
0.30432
0.263495
0.223199
0.183673
0.14361
0.104123
0.0626666
0.0219614
1.08858
1.00748
0.931557
0.860327
0.793315
0.730088
0.670255
0.613466
0.559418
0.507827
0.458452
0.411015
0.365312
0.320972
0.277853
0.235341
0.193543
0.151356
0.109533
0.0660717
0.0227795
1.13794
1.0544
0.975922
0.902073
0.832421
0.766564
0.704132
0.64479
0.588237
0.53419
0.482401
0.43259
0.384538
0.337887
0.292459
0.247699
0.203603
0.159246
0.115063
0.0695304
0.0236509
1.186
1.10034
1.01958
0.943346
0.871242
0.802907
0.737997
0.676192
0.6172
0.560743
0.506568
0.454399
0.404001
0.355033
0.307282
0.260251
0.213836
0.167267
0.120705
0.0730388
0.0245755
1.23254
1.14511
1.06237
0.983986
0.909637
0.838992
0.771737
0.707573
0.646221
0.587411
0.530889
0.476385
0.423654
0.372369
0.322291
0.27297
0.224221
0.175406
0.12645
0.0765922
0.0255515
1.27736
1.18851
1.10409
1.02383
0.947453
0.874681
0.80523
0.738826
0.675206
0.614111
0.555293
0.498487
0.443444
0.389852
0.33745
0.285828
0.234737
0.183646
0.132286
0.0801852
0.0265766
1.32028
1.23036
1.14457
1.0627
0.984539
0.909837
0.838352
0.769839
0.704056
0.640757
0.579703
0.52064
0.463316
0.407433
0.352718
0.298794
0.245358
0.191969
0.138199
0.0838118
0.0276468
1.36113
1.27049
1.18365
1.10045
1.02074
0.944317
0.870972
0.800495
0.732664
0.667254
0.604037
0.542771
0.483208
0.425062
0.368053
0.311832
0.256055
0.200354
0.144175
0.0874648
0.0287576
1.39976
1.30875
1.22116
1.13692
1.05591
0.977979
)
;

boundaryField
{
    inlet
    {
        type            zeroGradient;
    }
    outlet
    {
        type            fixedValue;
        value           uniform 0;
    }
    cylinder
    {
        type            zeroGradient;
    }
    top
    {
        type            symmetryPlane;
    }
    bottom
    {
        type            symmetryPlane;
    }
    defaultFaces
    {
        type            empty;
    }
    procBoundary29to23
    {
        type            processor;
        value           nonuniform List<scalar> 
23
(
0.405273
0.373291
0.345077
0.319872
0.297024
0.276
0.273466
0.273466
0.253209
0.233825
0.215223
0.197147
0.179667
0.162429
0.145877
0.129087
0.113307
0.0961697
0.0810771
0.0622998
0.0484852
0.025948
0.015397
)
;
    }
    procBoundary29to28
    {
        type            processor;
        value           nonuniform List<scalar> 
20
(
0.475652
0.508802
0.506988
0.506988
0.561631
0.616977
0.673202
0.72981
0.786653
0.843567
0.900371
0.956866
1.01284
1.06808
1.12234
1.17539
1.227
1.27693
1.32496
1.37087
)
;
    }
    procBoundary29to34
    {
        type            processor;
        value           nonuniform List<scalar> 3(1.4145 1.45566 1.49424);
    }
    procBoundary29to35
    {
        type            processor;
        value           nonuniform List<scalar> 
22
(
0.90296
0.830673
0.760923
0.693506
0.628209
0.564806
0.503054
0.442683
0.383407
0.324904
0.266798
0.20878
0.150196
0.0911361
0.0299032
1.43605
1.34499
1.25697
1.17196
1.0899
0.90296
1.01069
)
;
    }
}


// ************************************************************************* //
