/*--------------------------------*- C++ -*----------------------------------*\
  =========                 |
  \\      /  F ield         | OpenFOAM: The Open Source CFD Toolbox
   \\    /   O peration     | Website:  https://openfoam.org
    \\  /    A nd           | Version:  7
     \\/     M anipulation  |
\*---------------------------------------------------------------------------*/
FoamFile
{
    version     2.0;
    format      ascii;
    class       surfaceScalarField;
    location    "1";
    object      phi;
}
// * * * * * * * * * * * * * * * * * * * * * * * * * * * * * * * * * * * * * //

dimensions      [0 3 -1 0 0 0 0];

internalField   nonuniform List<scalar> 
32582
(
1.08047e-05
-7.804e-09
1.08277e-05
-2.30349e-08
1.0866e-05
-3.82745e-08
1.0919e-05
-5.3016e-08
1.09859e-05
-6.69355e-08
1.10658e-05
-7.98852e-08
1.11575e-05
-9.17286e-08
1.12599e-05
-1.02351e-07
1.13716e-05
-1.11684e-07
1.14913e-05
-1.19707e-07
1.16177e-05
-1.26436e-07
1.17496e-05
-1.31918e-07
1.18858e-05
-1.36223e-07
1.20253e-05
-1.3944e-07
1.2167e-05
-1.41668e-07
1.231e-05
-1.43012e-07
1.24535e-05
-1.4358e-07
1.2597e-05
-1.43476e-07
1.27398e-05
-1.42798e-07
1.28815e-05
-1.4164e-07
1.30215e-05
-1.40086e-07
1.31598e-05
-1.38213e-07
1.32958e-05
-1.36088e-07
1.34296e-05
-1.3377e-07
1.35609e-05
-1.31309e-07
1.36897e-05
-1.28748e-07
1.38158e-05
-1.26123e-07
1.39393e-05
-1.23463e-07
1.406e-05
-1.20793e-07
1.41782e-05
-1.18131e-07
1.42937e-05
-1.15491e-07
1.44066e-05
-1.12884e-07
1.45169e-05
-1.10318e-07
1.46247e-05
-1.07796e-07
1.473e-05
-1.05322e-07
1.48329e-05
-1.02895e-07
1.49334e-05
-1.00516e-07
1.50316e-05
-9.81817e-08
1.51275e-05
-9.58908e-08
1.52211e-05
-9.36402e-08
1.53125e-05
-9.14273e-08
1.54018e-05
-8.92495e-08
1.54889e-05
-8.71047e-08
1.55739e-05
-8.49915e-08
1.56568e-05
-8.29087e-08
1.57377e-05
-8.08557e-08
1.58165e-05
-7.88324e-08
1.58933e-05
-7.68384e-08
1.59682e-05
-7.4873e-08
1.60411e-05
-7.29348e-08
1.61122e-05
-7.10209e-08
1.61813e-05
-6.91268e-08
1.62485e-05
-6.72458e-08
1.63139e-05
-6.53686e-08
1.63774e-05
-6.34837e-08
1.6439e-05
-6.15771e-08
1.64986e-05
-5.96332e-08
1.65562e-05
-5.76351e-08
1.66118e-05
-5.55658e-08
1.66652e-05
-5.34093e-08
1.67163e-05
-5.1152e-08
1.67651e-05
-4.87837e-08
1.68114e-05
-4.6299e-08
1.68551e-05
-4.36982e-08
1.68961e-05
-4.09879e-08
1.69343e-05
-3.81814e-08
1.69696e-05
-3.52984e-08
1.7002e-05
-3.23644e-08
1.70314e-05
-2.94098e-08
1.70578e-05
-2.64683e-08
1.70814e-05
-2.35755e-08
1.71022e-05
-2.0767e-08
1.71203e-05
-1.80765e-08
1.71358e-05
-1.55346e-08
1.7149e-05
-1.31671e-08
1.716e-05
-1.09941e-08
1.7169e-05
-9.02934e-09
1.71763e-05
-7.28015e-09
1.7182e-05
-5.74751e-09
1.71864e-05
-4.42661e-09
1.71897e-05
-3.30773e-09
1.71921e-05
-2.37713e-09
1.71937e-05
-1.61821e-09
1.71948e-05
-1.01249e-09
1.71953e-05
-5.4068e-10
1.71955e-05
-1.83521e-10
1.71954e-05
7.76707e-11
1.71951e-05
2.6e-10
1.71948e-05
3.79151e-10
1.71943e-05
4.48894e-10
1.71938e-05
4.81062e-10
1.71933e-05
4.85586e-10
1.71929e-05
4.70605e-10
1.71924e-05
4.42627e-10
1.7192e-05
4.06729e-10
1.71917e-05
3.66757e-10
1.71913e-05
3.25539e-10
1.7191e-05
2.85066e-10
1.71908e-05
2.46671e-10
1.71906e-05
2.11178e-10
1.71904e-05
1.79025e-10
1.71903e-05
1.50372e-10
1.71901e-05
1.25184e-10
1.719e-05
1.03295e-10
1.71899e-05
8.44566e-11
1.71899e-05
6.83771e-11
1.71898e-05
5.47472e-11
1.71898e-05
4.32579e-11
1.71897e-05
3.36133e-11
1.71897e-05
2.55372e-11
1.71897e-05
1.87764e-11
1.71897e-05
1.31022e-11
1.71897e-05
8.31073e-12
1.71897e-05
4.22107e-12
1.71897e-05
6.73227e-13
1.71897e-05
-2.47818e-12
1.71897e-05
-5.35638e-12
1.71897e-05
-8.07686e-12
1.71897e-05
-1.07452e-11
1.71897e-05
-1.34604e-11
1.71897e-05
-1.63167e-11
1.71898e-05
-1.94073e-11
1.71898e-05
-2.28266e-11
1.71898e-05
-2.66732e-11
1.71898e-05
-3.1052e-11
1.71899e-05
-3.60778e-11
1.71899e-05
-4.18781e-11
1.719e-05
-4.85963e-11
1.719e-05
-5.63947e-11
1.71901e-05
-6.54591e-11
1.71902e-05
-7.60035e-11
1.71902e-05
-8.82746e-11
1.71903e-05
-1.02558e-10
1.71905e-05
-1.19185e-10
1.71906e-05
-1.38541e-10
1.71908e-05
-1.61074e-10
1.7191e-05
-1.87301e-10
1.71912e-05
-2.17826e-10
1.71914e-05
-2.53353e-10
1.71917e-05
-2.94699e-10
1.71921e-05
-3.42816e-10
1.71925e-05
-3.9881e-10
1.71929e-05
-4.63968e-10
1.71935e-05
-5.39789e-10
1.71941e-05
-6.28017e-10
1.71948e-05
-7.30679e-10
1.71957e-05
-8.50137e-10
1.71967e-05
-9.89137e-10
1.71978e-05
-1.15087e-09
1.71992e-05
-1.33906e-09
1.72007e-05
-1.55804e-09
1.72025e-05
-1.81282e-09
1.72046e-05
-2.10927e-09
1.72071e-05
-2.45419e-09
1.72099e-05
-2.8555e-09
1.72133e-05
-3.32242e-09
1.72171e-05
-3.86563e-09
1.72216e-05
-4.4976e-09
1.72269e-05
-5.23279e-09
1.72329e-05
-6.08801e-09
1.724e-05
-7.08278e-09
1.72483e-05
-8.23978e-09
1.72579e-05
-9.58532e-09
1.7269e-05
-1.11499e-08
1.7282e-05
-1.2969e-08
1.72971e-05
-1.50836e-08
1.73146e-05
-1.7541e-08
1.7335e-05
-2.03963e-08
1.73587e-05
-2.37126e-08
1.73863e-05
-2.7563e-08
1.74183e-05
-3.20316e-08
1.74555e-05
-3.72145e-08
1.74987e-05
-4.32223e-08
1.75489e-05
-5.01807e-08
1.76072e-05
-5.82326e-08
1.76747e-05
-6.75396e-08
1.7753e-05
-7.82832e-08
1.78436e-05
-9.06655e-08
1.79486e-05
-1.0491e-07
1.80698e-05
-1.2126e-07
1.82098e-05
-1.39976e-07
1.83711e-05
-1.61334e-07
1.85567e-05
-1.85614e-07
1.87698e-05
-2.13093e-07
1.90139e-05
-2.44025e-07
1.92925e-05
-2.78624e-07
1.96095e-05
-3.17029e-07
1.99688e-05
-3.59272e-07
2.0374e-05
-4.05231e-07
2.08286e-05
-4.5458e-07
2.13353e-05
-5.06728e-07
2.18961e-05
-5.60773e-07
2.25115e-05
-6.15444e-07
2.31806e-05
-6.69093e-07
2.39003e-05
-7.19682e-07
2.46652e-05
-7.64875e-07
2.54673e-05
-8.02133e-07
2.62963e-05
-8.28935e-07
2.71393e-05
-8.43037e-07
-8.42744e-07
2.7982e-05
3.24138e-05
-3.10275e-08
3.24837e-05
-9.30102e-08
3.25996e-05
-1.5417e-07
3.27599e-05
-2.13275e-07
3.29622e-05
-2.69235e-07
3.32036e-05
-3.21277e-07
3.34807e-05
-3.68809e-07
3.37897e-05
-4.1139e-07
3.41268e-05
-4.48761e-07
3.44879e-05
-4.80843e-07
3.48692e-05
-5.07707e-07
3.52668e-05
-5.29549e-07
3.56773e-05
-5.46662e-07
3.60972e-05
-5.59407e-07
3.65237e-05
-5.68189e-07
3.69542e-05
-5.73435e-07
3.73862e-05
-5.75577e-07
3.78177e-05
-5.75034e-07
3.82471e-05
-5.72208e-07
3.8673e-05
-5.67468e-07
3.9094e-05
-5.61156e-07
3.95094e-05
-5.53574e-07
3.99183e-05
-5.44992e-07
4.03202e-05
-5.35645e-07
4.07146e-05
-5.25733e-07
4.11013e-05
-5.15427e-07
4.148e-05
-5.04869e-07
4.18507e-05
-4.94177e-07
4.22134e-05
-4.83444e-07
4.2568e-05
-4.72745e-07
4.29146e-05
-4.62136e-07
4.32534e-05
-4.51659e-07
4.35844e-05
-4.41344e-07
4.39079e-05
-4.31207e-07
4.42238e-05
-4.21259e-07
4.45324e-05
-4.11503e-07
4.48338e-05
-4.01934e-07
4.51282e-05
-3.92546e-07
4.54156e-05
-3.83329e-07
4.56963e-05
-3.74273e-07
4.59702e-05
-3.65367e-07
4.62375e-05
-3.56601e-07
4.64984e-05
-3.47965e-07
4.67529e-05
-3.39455e-07
4.7001e-05
-3.31064e-07
4.7243e-05
-3.22792e-07
4.74788e-05
-3.14636e-07
4.77085e-05
-3.06595e-07
4.79323e-05
-2.98665e-07
4.81502e-05
-2.90841e-07
4.83623e-05
-2.83112e-07
4.85686e-05
-2.75459e-07
4.87693e-05
-2.67854e-07
4.89641e-05
-2.60263e-07
4.91533e-05
-2.5264e-07
4.93367e-05
-2.44929e-07
4.95141e-05
-2.37069e-07
4.96855e-05
-2.28995e-07
4.98505e-05
-2.2064e-07
5.00091e-05
-2.11943e-07
5.01608e-05
-2.02851e-07
5.03053e-05
-1.93325e-07
5.04423e-05
-1.83345e-07
5.05716e-05
-1.72916e-07
5.06926e-05
-1.62065e-07
5.08053e-05
-1.50846e-07
5.09093e-05
-1.39338e-07
5.10046e-05
-1.27644e-07
5.10911e-05
-1.15885e-07
5.11688e-05
-1.04194e-07
5.1238e-05
-9.27126e-08
5.12988e-05
-8.15799e-08
5.13516e-05
-7.09291e-08
5.1397e-05
-6.08792e-08
5.14353e-05
-5.15308e-08
5.14673e-05
-4.29612e-08
5.14935e-05
-3.5223e-08
5.15146e-05
-2.83429e-08
5.15311e-05
-2.23227e-08
5.15439e-05
-1.71418e-08
5.15533e-05
-1.276e-08
5.156e-05
-9.12167e-09
5.15646e-05
-6.16014e-09
5.15674e-05
-3.80159e-09
5.15688e-05
-1.96917e-09
5.15692e-05
-5.86358e-10
5.15689e-05
4.20391e-10
5.1568e-05
1.11904e-09
5.15668e-05
1.57128e-09
5.15654e-05
1.83127e-09
5.1564e-05
1.94548e-09
5.15625e-05
1.95284e-09
5.15611e-05
1.88518e-09
5.15598e-05
1.76791e-09
5.15585e-05
1.6208e-09
5.15575e-05
1.45879e-09
5.15565e-05
1.29283e-09
5.15556e-05
1.1306e-09
5.15549e-05
9.77184e-10
5.15543e-05
8.3571e-10
5.15538e-05
7.07799e-10
5.15533e-05
5.93996e-10
5.15529e-05
4.94087e-10
5.15526e-05
4.07362e-10
5.15524e-05
3.32798e-10
5.15522e-05
2.69211e-10
5.1552e-05
2.15354e-10
5.15519e-05
1.6999e-10
5.15518e-05
1.31934e-10
5.15517e-05
1.00086e-10
5.15517e-05
7.34378e-11
5.15516e-05
5.10812e-11
5.15516e-05
3.22081e-11
5.15516e-05
1.61029e-11
5.15516e-05
2.13289e-12
5.15516e-05
-1.02814e-11
5.15516e-05
-2.16227e-11
5.15517e-05
-3.23505e-11
5.15517e-05
-4.28823e-11
5.15517e-05
-5.36084e-11
5.15518e-05
-6.49018e-11
5.15518e-05
-7.71303e-11
5.15519e-05
-9.06686e-11
5.1552e-05
-1.05906e-10
5.15521e-05
-1.23259e-10
5.15522e-05
-1.43182e-10
5.15523e-05
-1.66181e-10
5.15524e-05
-1.92823e-10
5.15526e-05
-2.23752e-10
5.15528e-05
-2.59704e-10
5.1553e-05
-3.01529e-10
5.15533e-05
-3.50205e-10
5.15536e-05
-4.06866e-10
5.1554e-05
-4.72826e-10
5.15544e-05
-5.4961e-10
5.15548e-05
-6.38995e-10
5.15554e-05
-7.43035e-10
5.1556e-05
-8.6413e-10
5.15568e-05
-1.00507e-09
5.15577e-05
-1.16909e-09
5.15587e-05
-1.35997e-09
5.15599e-05
-1.5821e-09
5.15612e-05
-1.84058e-09
5.15628e-05
-2.14137e-09
5.15647e-05
-2.49137e-09
5.15669e-05
-2.89864e-09
5.15694e-05
-3.37253e-09
5.15723e-05
-3.92395e-09
5.15758e-05
-4.56557e-09
5.15797e-05
-5.31213e-09
5.15843e-05
-6.1808e-09
5.15897e-05
-7.19155e-09
5.1596e-05
-8.36758e-09
5.16033e-05
-9.73592e-09
5.16117e-05
-1.1328e-08
5.16216e-05
-1.31803e-08
5.16331e-05
-1.53353e-08
5.16464e-05
-1.78424e-08
5.16619e-05
-2.07591e-08
5.168e-05
-2.41519e-08
5.1701e-05
-2.80985e-08
5.17255e-05
-3.26888e-08
5.17539e-05
-3.80272e-08
5.1787e-05
-4.42349e-08
5.18255e-05
-5.14524e-08
5.18702e-05
-5.98426e-08
5.19223e-05
-6.95937e-08
5.19828e-05
-8.09238e-08
5.20532e-05
-9.40844e-08
5.2135e-05
-1.09366e-07
5.22301e-05
-1.27101e-07
5.23405e-05
-1.47675e-07
5.24688e-05
-1.71525e-07
5.26178e-05
-1.99154e-07
5.27907e-05
-2.31129e-07
5.29913e-05
-2.68097e-07
5.32237e-05
-3.10781e-07
5.34931e-05
-3.59989e-07
5.38048e-05
-4.16617e-07
5.41652e-05
-4.8164e-07
5.45813e-05
-5.56112e-07
5.50611e-05
-6.4114e-07
5.56134e-05
-7.37866e-07
5.62477e-05
-8.47416e-07
5.69745e-05
-9.70845e-07
5.78049e-05
-1.10904e-06
5.87505e-05
-1.26263e-06
5.9823e-05
-1.43178e-06
6.10339e-05
-1.61611e-06
6.23937e-05
-1.81437e-06
6.39112e-05
-2.02429e-06
6.55928e-05
-2.24231e-06
6.74407e-05
-2.46338e-06
6.94525e-05
-2.6809e-06
7.16194e-05
-2.88657e-06
7.39254e-05
-3.07089e-06
7.63467e-05
-3.22336e-06
7.88512e-05
-3.33351e-06
8.14002e-05
-3.39196e-06
-3.39151e-06
8.39489e-05
5.40236e-05
-7.04366e-08
5.41423e-05
-2.11671e-07
5.43389e-05
-3.50756e-07
5.46106e-05
-4.84972e-07
5.49533e-05
-6.11995e-07
5.53621e-05
-7.30003e-07
5.58309e-05
-8.37599e-07
5.63533e-05
-9.338e-07
5.69226e-05
-1.01805e-06
5.75319e-05
-1.09019e-06
5.81746e-05
-1.15042e-06
5.88443e-05
-1.19922e-06
5.95349e-05
-1.23729e-06
6.0241e-05
-1.26546e-06
6.09575e-05
-1.28469e-06
6.168e-05
-1.29595e-06
6.24046e-05
-1.30024e-06
6.31281e-05
-1.29851e-06
6.38476e-05
-1.29167e-06
6.45607e-05
-1.28056e-06
6.52655e-05
-1.26595e-06
6.59604e-05
-1.24852e-06
6.66443e-05
-1.22887e-06
6.73162e-05
-1.20752e-06
6.79754e-05
-1.18493e-06
6.86214e-05
-1.16148e-06
6.9254e-05
-1.13747e-06
6.9873e-05
-1.11317e-06
7.04784e-05
-1.0888e-06
7.10701e-05
-1.0645e-06
7.16484e-05
-1.04041e-06
7.22133e-05
-1.01662e-06
7.27652e-05
-9.93191e-07
7.33042e-05
-9.70166e-07
7.38305e-05
-9.47564e-07
7.43443e-05
-9.25391e-07
7.48461e-05
-9.03639e-07
7.53358e-05
-8.82293e-07
7.58138e-05
-8.6133e-07
7.62803e-05
-8.40728e-07
7.67354e-05
-8.2046e-07
7.71793e-05
-8.00505e-07
7.76121e-05
-7.80843e-07
7.80341e-05
-7.61457e-07
7.84454e-05
-7.42338e-07
7.88461e-05
-7.23478e-07
7.92363e-05
-7.04873e-07
7.96163e-05
-6.86517e-07
7.9986e-05
-6.68404e-07
8.03457e-05
-6.50517e-07
8.06954e-05
-6.32832e-07
8.10352e-05
-6.15306e-07
8.13653e-05
-5.9788e-07
8.16855e-05
-5.80475e-07
8.19958e-05
-5.62991e-07
8.22962e-05
-5.45309e-07
8.25864e-05
-5.27296e-07
8.28662e-05
-5.0881e-07
8.31353e-05
-4.8971e-07
8.33932e-05
-4.69865e-07
8.36396e-05
-4.49165e-07
8.38738e-05
-4.27533e-07
8.40953e-05
-4.04931e-07
8.43038e-05
-3.81375e-07
8.44987e-05
-3.56934e-07
8.46796e-05
-3.31734e-07
8.48462e-05
-3.05955e-07
8.49984e-05
-2.79829e-07
8.51361e-05
-2.53623e-07
8.52595e-05
-2.27635e-07
8.5369e-05
-2.02174e-07
8.5465e-05
-1.77546e-07
8.55481e-05
-1.54039e-07
8.56191e-05
-1.31909e-07
8.5679e-05
-1.11372e-07
8.57286e-05
-9.25891e-08
8.5769e-05
-7.56685e-08
8.58013e-05
-6.06607e-08
8.58266e-05
-4.75618e-08
8.58458e-05
-3.63187e-08
8.58598e-05
-2.68368e-08
8.58697e-05
-1.89884e-08
8.58762e-05
-1.26222e-08
8.58799e-05
-7.57265e-09
8.58816e-05
-3.66859e-09
8.58818e-05
-7.40436e-10
8.58808e-05
1.37426e-09
8.58791e-05
2.82459e-09
8.5877e-05
3.74574e-09
8.58745e-05
4.25586e-09
8.5872e-05
4.45602e-09
8.58695e-05
4.43056e-09
8.58672e-05
4.24824e-09
8.5865e-05
3.9637e-09
8.5863e-05
3.6193e-09
8.58612e-05
3.24689e-09
8.58596e-05
2.86961e-09
8.58582e-05
2.50359e-09
8.58571e-05
2.15939e-09
8.58561e-05
1.84334e-09
8.58552e-05
1.55856e-09
8.58545e-05
1.3059e-09
8.58539e-05
1.08462e-09
8.58534e-05
8.92922e-10
8.5853e-05
7.28403e-10
8.58527e-05
5.88327e-10
8.58524e-05
4.69855e-10
8.58522e-05
3.70194e-10
8.58521e-05
2.86689e-10
8.5852e-05
2.16878e-10
8.58519e-05
1.58517e-10
8.58518e-05
1.09592e-10
8.58518e-05
6.83146e-11
8.58518e-05
3.31008e-11
8.58518e-05
2.55863e-12
8.58518e-05
-2.4605e-11
8.58518e-05
-4.94355e-11
8.58519e-05
-7.29549e-11
8.58519e-05
-9.60828e-11
8.5852e-05
-1.19677e-10
8.58521e-05
-1.44558e-10
8.58522e-05
-1.71537e-10
8.58523e-05
-2.01442e-10
8.58524e-05
-2.35133e-10
8.58525e-05
-2.73529e-10
8.58527e-05
-3.17634e-10
8.58529e-05
-3.6857e-10
8.58532e-05
-4.2759e-10
8.58534e-05
-4.96118e-10
8.58537e-05
-5.75789e-10
8.58541e-05
-6.68484e-10
8.58545e-05
-7.76371e-10
8.5855e-05
-9.01961e-10
8.58556e-05
-1.04817e-09
8.58563e-05
-1.21837e-09
8.58571e-05
-1.41651e-09
8.5858e-05
-1.64713e-09
8.5859e-05
-1.91556e-09
8.58602e-05
-2.22798e-09
8.58617e-05
-2.59157e-09
8.58633e-05
-3.0147e-09
8.58652e-05
-3.5071e-09
8.58675e-05
-4.08009e-09
8.58701e-05
-4.74685e-09
8.58731e-05
-5.52271e-09
8.58766e-05
-6.42551e-09
8.58807e-05
-7.476e-09
8.58855e-05
-8.69835e-09
8.58911e-05
-1.01206e-08
8.58975e-05
-1.17756e-08
8.59051e-05
-1.37012e-08
8.59138e-05
-1.59418e-08
8.5924e-05
-1.85488e-08
8.59358e-05
-2.15821e-08
8.59496e-05
-2.51114e-08
8.59657e-05
-2.92176e-08
8.59843e-05
-3.3995e-08
8.6006e-05
-3.9553e-08
8.60313e-05
-4.6019e-08
8.60607e-05
-5.35408e-08
8.60949e-05
-6.22905e-08
8.61346e-05
-7.24675e-08
8.61809e-05
-8.43036e-08
8.62348e-05
-9.80678e-08
8.62974e-05
-1.14072e-07
8.63702e-05
-1.32677e-07
8.64549e-05
-1.54302e-07
8.65534e-05
-1.79431e-07
8.6668e-05
-2.08623e-07
8.68011e-05
-2.42523e-07
8.69559e-05
-2.81875e-07
8.71357e-05
-3.27531e-07
8.73447e-05
-3.8047e-07
8.75874e-05
-4.41811e-07
8.7869e-05
-5.12826e-07
8.81959e-05
-5.94958e-07
8.8575e-05
-6.89829e-07
8.90142e-05
-7.9926e-07
8.95229e-05
-9.25264e-07
9.01113e-05
-1.07005e-06
9.07912e-05
-1.23602e-06
9.15757e-05
-1.42569e-06
9.24796e-05
-1.64171e-06
9.35189e-05
-1.88669e-06
9.47111e-05
-2.16314e-06
9.60753e-05
-2.47321e-06
9.76312e-05
-2.81852e-06
9.93992e-05
-3.19974e-06
0.000101399
-3.61625e-06
0.000103651
-4.06561e-06
0.000106169
-4.54301e-06
0.000108968
-5.04073e-06
0.000112052
-5.54751e-06
0.000115419
-6.04847e-06
0.000119057
-6.5245e-06
0.00012294
-6.95359e-06
0.000127027
-7.31073e-06
0.000131265
-7.57099e-06
0.000135584
-7.71142e-06
-7.71401e-06
0.000139907
7.56346e-05
-1.27134e-07
7.58053e-05
-3.82303e-07
7.60879e-05
-6.33404e-07
7.64783e-05
-8.75399e-07
7.69705e-05
-1.10412e-06
7.75567e-05
-1.31622e-06
7.82282e-05
-1.50915e-06
7.89756e-05
-1.68117e-06
7.97889e-05
-1.83133e-06
8.06581e-05
-1.95945e-06
8.15737e-05
-2.06596e-06
8.25263e-05
-2.15182e-06
8.35073e-05
-2.21835e-06
8.4509e-05
-2.26715e-06
8.55243e-05
-2.29996e-06
8.65469e-05
-2.3186e-06
8.75716e-05
-2.32485e-06
8.85935e-05
-2.32047e-06
8.96089e-05
-2.30707e-06
9.06145e-05
-2.28617e-06
9.16077e-05
-2.25913e-06
9.25863e-05
-2.22715e-06
9.35488e-05
-2.19131e-06
9.44938e-05
-2.15252e-06
9.54204e-05
-2.11158e-06
9.63281e-05
-2.06915e-06
9.72164e-05
-2.02578e-06
9.80851e-05
-1.98191e-06
9.89343e-05
-1.93793e-06
9.97639e-05
-1.8941e-06
0.000100574
-1.85066e-06
0.000101365
-1.80775e-06
0.000102138
-1.76549e-06
0.000102891
-1.72395e-06
0.000103627
-1.68316e-06
0.000104345
-1.64314e-06
0.000105045
-1.60386e-06
0.000105728
-1.56531e-06
0.000106394
-1.52744e-06
0.000107044
-1.49021e-06
0.000107677
-1.45358e-06
0.000108294
-1.41751e-06
0.000108895
-1.38195e-06
0.00010948
-1.34688e-06
0.00011005
-1.31229e-06
0.000110605
-1.27814e-06
0.000111144
-1.24443e-06
0.000111669
-1.21115e-06
0.000112179
-1.17829e-06
0.000112674
-1.1458e-06
0.000113155
-1.11365e-06
0.000113621
-1.08175e-06
0.000114074
-1.05001e-06
0.000114511
-1.0183e-06
0.000114935
-9.86425e-07
0.000115344
-9.54203e-07
0.000115738
-9.21403e-07
0.000116117
-8.87792e-07
0.00011648
-8.53135e-07
0.000116828
-8.17221e-07
0.000117158
-7.79874e-07
0.000117472
-7.40977e-07
0.000117767
-7.00487e-07
0.000118044
-6.58446e-07
0.000118302
-6.14992e-07
0.000118541
-5.7036e-07
0.00011876
-5.24875e-07
0.000118959
-4.78946e-07
0.000119138
-4.33045e-07
0.000119299
-3.87684e-07
0.00011944
-3.43395e-07
0.000119563
-3.00699e-07
0.000119669
-2.60082e-07
0.000119759
-2.21971e-07
0.000119834
-1.86719e-07
0.000119896
-1.54586e-07
0.000119946
-1.25737e-07
0.000119986
-1.00238e-07
0.000120016
-7.80624e-08
0.000120039
-5.91019e-08
0.000120056
-4.31775e-08
0.000120067
-3.00565e-08
0.000120074
-1.94682e-08
0.000120077
-1.11203e-08
0.000120078
-4.71312e-09
0.000120077
4.85848e-11
0.000120075
3.44391e-09
0.000120072
5.72972e-09
0.000120069
7.13659e-09
0.000120065
7.86534e-09
0.000120062
8.08686e-09
0.000120058
7.94312e-09
0.000120055
7.54922e-09
0.000120052
6.99618e-09
0.000120049
6.35405e-09
0.000120047
5.67511e-09
0.000120045
4.99702e-09
0.000120043
4.34563e-09
0.000120041
3.73756e-09
0.00012004
3.18238e-09
0.000120039
2.68443e-09
0.000120038
2.24432e-09
0.000120037
1.8601e-09
0.000120036
1.52818e-09
0.000120036
1.24402e-09
0.000120035
1.0026e-09
0.000120035
7.9882e-10
0.000120035
6.27703e-10
0.000120035
4.84562e-10
0.000120035
3.65067e-10
0.000120034
2.65295e-10
0.000120034
1.81744e-10
0.000120034
1.1131e-10
0.000120034
5.12508e-11
0.000120034
-8.78292e-13
0.000120034
-4.72392e-11
0.000120034
-8.96916e-11
0.000120034
-1.29979e-10
0.000120034
-1.69692e-10
0.000120035
-2.10303e-10
0.000120035
-2.53222e-10
0.000120035
-2.99857e-10
0.000120035
-3.51643e-10
0.000120035
-4.10061e-10
0.000120035
-4.76701e-10
0.000120036
-5.53311e-10
0.000120036
-6.41835e-10
0.000120036
-7.44445e-10
0.000120037
-8.63618e-10
0.000120037
-1.0022e-09
0.000120037
-1.16346e-09
0.000120038
-1.35116e-09
0.000120039
-1.56968e-09
0.000120039
-1.82409e-09
0.00012004
-2.12026e-09
0.000120041
-2.46503e-09
0.000120043
-2.86635e-09
0.000120044
-3.33346e-09
0.000120046
-3.87711e-09
0.000120048
-4.50982e-09
0.00012005
-5.24614e-09
0.000120052
-6.103e-09
0.000120055
-7.1001e-09
0.000120059
-8.26038e-09
0.000120063
-9.61052e-09
0.000120068
-1.11816e-08
0.000120073
-1.30096e-08
0.00012008
-1.51367e-08
0.000120087
-1.76118e-08
0.000120096
-2.04917e-08
0.000120106
-2.38427e-08
0.000120118
-2.77418e-08
0.000120132
-3.22786e-08
0.000120148
-3.75573e-08
0.000120166
-4.36991e-08
0.000120188
-5.08451e-08
0.000120213
-5.91592e-08
0.000120242
-6.88321e-08
0.000120276
-8.00855e-08
0.000120316
-9.31768e-08
0.000120362
-1.08406e-07
0.000120416
-1.26119e-07
0.000120478
-1.46722e-07
0.000120551
-1.70682e-07
0.000120635
-1.98544e-07
0.000120734
-2.30937e-07
0.000120848
-2.68591e-07
0.000120981
-3.12352e-07
0.000121135
-3.63195e-07
0.000121315
-4.2225e-07
0.000121524
-4.90815e-07
0.000121767
-5.70386e-07
0.000122049
-6.62679e-07
0.000122377
-7.69656e-07
0.000122758
-8.93557e-07
0.0001232
-1.03693e-06
0.000123712
-1.20263e-06
0.000124307
-1.3939e-06
0.000124996
-1.61432e-06
0.000125794
-1.86786e-06
0.000126717
-2.1588e-06
0.000127783
-2.49177e-06
0.000129013
-2.87158e-06
0.000130429
-3.30312e-06
0.000132057
-3.79113e-06
0.000133924
-4.33988e-06
0.000136058
-4.95274e-06
0.00013849
-5.63159e-06
0.00014125
-6.37608e-06
0.000144367
-7.18275e-06
0.000147868
-8.04387e-06
0.000151773
-8.94654e-06
0.000156097
-9.87111e-06
0.00016084
-1.07912e-05
0.000165987
-1.16718e-05
0.000171506
-1.24723e-05
0.00017734
-1.31445e-05
0.000183409
-1.36407e-05
0.000189613
-1.39148e-05
-1.39297e-05
0.000195828
9.72472e-05
-2.02733e-07
9.74747e-05
-6.0982e-07
9.78515e-05
-1.01016e-06
9.83715e-05
-1.39543e-06
9.90262e-05
-1.75884e-06
9.9805e-05
-2.09499e-06
0.000100696
-2.3998e-06
0.000101685
-2.67056e-06
0.00010276
-2.90592e-06
0.000103906
-3.10575e-06
0.000105111
-3.27095e-06
0.000106362
-3.40319e-06
0.000107649
-3.50476e-06
0.00010896
-3.57833e-06
0.000110287
-3.62676e-06
0.000111621
-3.653e-06
0.000112956
-3.65995e-06
0.000114286
-3.65038e-06
0.000115606
-3.62686e-06
0.000116912
-3.59178e-06
0.0001182
-3.54726e-06
0.000119468
-3.49519e-06
0.000120714
-3.43721e-06
0.000121936
-3.37476e-06
0.000123133
-3.30904e-06
0.000124305
-3.24108e-06
0.000125451
-3.17173e-06
0.000126571
-3.10166e-06
0.000127664
-3.03145e-06
0.000128732
-2.96152e-06
0.000129773
-2.89221e-06
0.000130789
-2.82376e-06
0.00013178
-2.75634e-06
0.000132746
-2.69006e-06
0.000133688
-2.62497e-06
0.000134606
-2.56109e-06
0.000135501
-2.49839e-06
0.000136372
-2.43685e-06
0.000137221
-2.37639e-06
0.000138048
-2.31695e-06
0.000138853
-2.25846e-06
0.000139636
-2.20086e-06
0.000140398
-2.14408e-06
0.000141139
-2.08807e-06
0.00014186
-2.0328e-06
0.00014256
-1.97823e-06
0.00014324
-1.92434e-06
0.0001439
-1.8711e-06
0.00014454
-1.81847e-06
0.000145161
-1.7664e-06
0.000145762
-1.71482e-06
0.000146344
-1.66361e-06
0.000146906
-1.61261e-06
0.00014745
-1.56162e-06
0.000147974
-1.51037e-06
0.000148478
-1.45858e-06
0.000148962
-1.40592e-06
0.000149427
-1.35206e-06
0.00014987
-1.29667e-06
0.000150293
-1.23944e-06
0.000150693
-1.18016e-06
0.000151071
-1.11868e-06
0.000151425
-1.05497e-06
0.000151756
-9.89126e-07
0.000152062
-9.21395e-07
0.000152344
-8.52157e-07
0.000152601
-7.81932e-07
0.000152833
-7.1135e-07
0.000153041
-6.41132e-07
0.000153226
-5.72052e-07
0.000153387
-5.04901e-07
0.000153527
-4.40446e-07
0.000153646
-3.79392e-07
0.000153747
-3.2235e-07
0.00015383
-2.69812e-07
0.000153897
-2.22129e-07
0.000153951
-1.79507e-07
0.000153993
-1.42006e-07
0.000154024
-1.0955e-07
0.000154047
-8.19387e-08
0.000154063
-5.88767e-08
0.000154073
-3.99905e-08
0.000154078
-2.48559e-08
0.00015408
-1.30217e-08
0.000154079
-4.0306e-09
0.000154077
2.56497e-09
0.000154073
7.18155e-09
0.000154069
1.02033e-08
0.000154064
1.19711e-08
0.000154059
1.27802e-08
0.000154054
1.28803e-08
0.00015405
1.24776e-08
0.000154045
1.17382e-08
0.000154042
1.07922e-08
0.000154038
9.73911e-09
0.000154035
8.65243e-09
0.000154033
7.58426e-09
0.00015403
6.56975e-09
0.000154029
5.6308e-09
0.000154027
4.77929e-09
0.000154026
4.01973e-09
0.000154025
3.35147e-09
0.000154024
2.77036e-09
0.000154023
2.27005e-09
0.000154022
1.84301e-09
0.000154022
1.48119e-09
0.000154021
1.17653e-09
0.000154021
9.21265e-10
0.000154021
7.08161e-10
0.000154021
5.30583e-10
0.000154021
3.82558e-10
0.000154021
2.58763e-10
0.000154021
1.54493e-10
0.000154021
6.56122e-11
0.000154021
-1.15691e-11
0.000154021
-8.02544e-11
0.000154021
-1.43291e-10
0.000154021
-2.03273e-10
0.000154021
-2.62567e-10
0.000154021
-3.23393e-10
0.000154021
-3.87885e-10
0.000154021
-4.58151e-10
0.000154021
-5.36333e-10
0.000154022
-6.24681e-10
0.000154022
-7.25606e-10
0.000154022
-8.41742e-10
0.000154022
-9.76017e-10
0.000154023
-1.13174e-09
0.000154023
-1.31266e-09
0.000154024
-1.52311e-09
0.000154024
-1.76802e-09
0.000154025
-2.05313e-09
0.000154026
-2.38508e-09
0.000154027
-2.77156e-09
0.000154028
-3.22151e-09
0.000154029
-3.7453e-09
0.000154031
-4.35503e-09
0.000154032
-5.06472e-09
0.000154035
-5.89072e-09
0.000154037
-6.85201e-09
0.00015404
-7.97072e-09
0.000154043
-9.27258e-09
0.000154046
-1.07875e-08
0.000154051
-1.25504e-08
0.000154056
-1.46017e-08
0.000154062
-1.69887e-08
0.000154068
-1.97661e-08
0.000154076
-2.2998e-08
0.000154085
-2.67585e-08
0.000154096
-3.11342e-08
0.000154108
-3.62256e-08
0.000154123
-4.21498e-08
0.000154139
-4.9043e-08
0.000154159
-5.70635e-08
0.000154182
-6.63956e-08
0.000154208
-7.72536e-08
0.000154239
-8.98868e-08
0.000154275
-1.04585e-07
0.000154316
-1.21685e-07
0.000154365
-1.41579e-07
0.000154421
-1.64722e-07
0.000154486
-1.91643e-07
0.000154563
-2.22956e-07
0.000154651
-2.59375e-07
0.000154755
-3.01728e-07
0.000154875
-3.50974e-07
0.000155014
-4.08227e-07
0.000155177
-4.74774e-07
0.000155366
-5.52108e-07
0.000155585
-6.4195e-07
0.000155841
-7.46288e-07
0.000156138
-8.67411e-07
0.000156483
-1.00795e-06
0.000156884
-1.17093e-06
0.000157351
-1.35979e-06
0.000157892
-1.57845e-06
0.000158521
-1.83138e-06
0.00015925
-2.12358e-06
0.000160097
-2.46067e-06
0.000161078
-2.84887e-06
0.000162214
-3.295e-06
0.000163529
-3.80643e-06
0.000165048
-4.39098e-06
0.000166802
-5.0567e-06
0.000168822
-5.81159e-06
0.000171145
-6.66314e-06
0.00017381
-7.61766e-06
0.000176858
-8.67946e-06
0.000180332
-9.84958e-06
0.000184273
-1.11244e-05
0.000188723
-1.24939e-05
0.000193716
-1.39396e-05
0.000199277
-1.54319e-05
0.000205416
-1.69304e-05
0.000212122
-1.83778e-05
0.000219359
-1.97091e-05
0.000227054
-2.08396e-05
0.000235103
-2.16893e-05
0.00024336
-2.21721e-05
-2.22196e-05
0.00025165
0.000118862
-2.99496e-07
0.000119153
-9.01099e-07
0.000119635
-1.4923e-06
0.0001203
-2.06024e-06
0.000121136
-2.59459e-06
0.000122128
-3.08721e-06
0.000123261
-3.5321e-06
0.000124515
-3.92543e-06
0.000125875
-4.26551e-06
0.000127322
-4.55246e-06
0.000128839
-4.78795e-06
0.00013041
-4.97481e-06
0.000132022
-5.11667e-06
0.000133662
-5.21768e-06
0.000135317
-5.28224e-06
0.000136979
-5.31476e-06
0.000138638
-5.31958e-06
0.000140289
-5.30077e-06
0.000141924
-5.26211e-06
0.000143539
-5.20703e-06
0.000145131
-5.13862e-06
0.000146695
-5.05956e-06
0.00014823
-4.97223e-06
0.000149734
-4.87865e-06
0.000151205
-4.78053e-06
0.000152644
-4.67932e-06
0.000154048
-4.57622e-06
0.000155419
-4.47221e-06
0.000156755
-4.36807e-06
0.000158058
-4.26441e-06
0.000159328
-4.16171e-06
0.000160564
-4.06032e-06
0.000161768
-3.96046e-06
0.000162941
-3.86231e-06
0.000164082
-3.76593e-06
0.000165192
-3.67136e-06
0.000166272
-3.57856e-06
0.000167323
-3.48747e-06
0.000168344
-3.39803e-06
0.000169338
-3.31011e-06
0.000170303
-3.22364e-06
0.00017124
-3.1385e-06
0.000172151
-3.0546e-06
0.000173035
-2.97186e-06
0.000173892
-2.89022e-06
0.000174723
-2.80961e-06
0.000175529
-2.72999e-06
0.000176309
-2.65129e-06
0.000177064
-2.57346e-06
0.000177794
-2.49641e-06
0.0001785
-2.42002e-06
0.00017918
-2.34411e-06
0.000179836
-2.26847e-06
0.000180467
-2.19282e-06
0.000181074
-2.1168e-06
0.000181655
-2.04003e-06
0.000182211
-1.96208e-06
0.000182742
-1.88253e-06
0.000183246
-1.80095e-06
0.000183723
-1.717e-06
0.000184174
-1.6304e-06
0.000184596
-1.54102e-06
0.00018499
-1.44888e-06
0.000185355
-1.35417e-06
0.000185691
-1.2573e-06
0.000185998
-1.15882e-06
0.000186275
-1.0595e-06
0.000186524
-9.60231e-07
0.000186745
-8.62013e-07
0.000186939
-7.65908e-07
0.000187107
-6.72983e-07
0.000187251
-5.84257e-07
0.000187372
-5.00653e-07
0.000187472
-4.2295e-07
0.000187554
-3.51758e-07
0.00018762
-2.8749e-07
0.000187671
-2.30357e-07
0.000187709
-1.80373e-07
0.000187737
-1.37371e-07
0.000187756
-1.01022e-07
0.000187768
-7.08744e-08
0.000187774
-4.63788e-08
0.000187776
-2.69269e-08
0.000187775
-1.18818e-08
0.000187772
-6.06374e-10
0.000187767
7.51553e-09
0.000187761
1.30515e-08
0.000187755
1.65223e-08
0.000187748
1.83853e-08
0.000187742
1.90336e-08
0.000187736
1.87976e-08
0.000187731
1.79475e-08
0.000187726
1.66993e-08
0.000187721
1.52208e-08
0.000187717
1.36385e-08
0.000187714
1.20449e-08
0.000187711
1.05041e-08
0.000187708
9.05839e-09
0.000187706
7.73273e-09
0.000187705
6.53942e-09
0.000187703
5.48147e-09
0.000187702
4.55547e-09
0.000187701
3.75379e-09
0.0001877
3.06626e-09
0.0001877
2.48145e-09
0.000187699
1.98748e-09
0.000187699
1.57272e-09
0.000187698
1.22611e-09
0.000187698
9.3743e-10
0.000187698
6.97378e-10
0.000187698
4.9765e-10
0.000187698
3.30868e-10
0.000187698
1.90525e-10
0.000187698
7.0942e-11
0.000187698
-3.29968e-11
0.000187698
-1.25588e-10
0.000187698
-2.1079e-10
0.000187698
-2.92148e-10
0.000187698
-3.72883e-10
0.000187698
-4.56026e-10
0.000187698
-5.44515e-10
0.000187699
-6.41247e-10
0.000187699
-7.49159e-10
0.000187699
-8.71348e-10
0.000187699
-1.01115e-09
0.0001877
-1.17221e-09
0.0001877
-1.35857e-09
0.0001877
-1.57483e-09
0.000187701
-1.8262e-09
0.000187702
-2.11865e-09
0.000187702
-2.45907e-09
0.000187703
-2.85543e-09
0.000187704
-3.31694e-09
0.000187705
-3.85431e-09
0.000187706
-4.47994e-09
0.000187708
-5.20829e-09
0.000187709
-6.05613e-09
0.000187711
-7.04298e-09
0.000187714
-8.19157e-09
0.000187716
-9.52833e-09
0.00018772
-1.1084e-08
0.000187723
-1.28943e-08
0.000187727
-1.5001e-08
0.000187732
-1.74524e-08
0.000187738
-2.03049e-08
0.000187745
-2.36242e-08
0.000187752
-2.74865e-08
0.000187761
-3.19807e-08
0.000187772
-3.72101e-08
0.000187784
-4.32949e-08
0.000187798
-5.03751e-08
0.000187815
-5.86135e-08
0.000187834
-6.81994e-08
0.000187856
-7.93532e-08
0.000187882
-9.23311e-08
0.000187912
-1.07431e-07
0.000187947
-1.25001e-07
0.000187988
-1.45443e-07
0.000188036
-1.69226e-07
0.000188091
-1.96896e-07
0.000188155
-2.29087e-07
0.00018823
-2.66535e-07
0.000188317
-3.10096e-07
0.000188419
-3.60764e-07
0.000188537
-4.19694e-07
0.000188674
-4.88224e-07
0.000188834
-5.67907e-07
0.000189019
-6.60543e-07
0.000189235
-7.68217e-07
0.000189487
-8.93339e-07
0.000189779
-1.03869e-06
0.000190119
-1.2075e-06
0.000190515
-1.40344e-06
0.000190975
-1.63078e-06
0.000191509
-1.89439e-06
0.000192131
-2.19983e-06
0.000192853
-2.55343e-06
0.000193692
-2.96236e-06
0.000194666
-3.43468e-06
0.000195796
-3.97939e-06
0.000197108
-4.60645e-06
0.000198628
-5.32675e-06
0.000200389
-6.15197e-06
0.000202427
-7.09438e-06
0.000204781
-8.1665e-06
0.000207499
-9.38049e-06
0.000210628
-1.07473e-05
0.000214224
-1.22755e-05
0.000218344
-1.39695e-05
0.000223048
-1.58277e-05