/*--------------------------------*- C++ -*----------------------------------*\
  =========                 |
  \\      /  F ield         | OpenFOAM: The Open Source CFD Toolbox
   \\    /   O peration     | Website:  https://openfoam.org
    \\  /    A nd           | Version:  7
     \\/     M anipulation  |
\*---------------------------------------------------------------------------*/
FoamFile
{
    version     2.0;
    format      ascii;
    class       surfaceScalarField;
    location    "158";
    object      phi;
}
// * * * * * * * * * * * * * * * * * * * * * * * * * * * * * * * * * * * * * //

dimensions      [0 3 -1 0 0 0 0];

internalField   nonuniform List<scalar> 
24510
(
-4.92004e-06
-5.45818e-05
5.95019e-05
-1.86876e-05
-0.000166353
0.000180121
-4.13492e-05
-0.000285608
0.000308269
-7.30145e-05
-0.00040817
0.000439835
-0.000113652
-0.000530501
0.000571139
-0.00016295
-0.000651158
0.000700457
-0.000220259
-0.000771483
0.000828792
-0.000284616
-0.000895488
0.000959844
-0.000354829
-0.00102883
0.00109905
-0.000429537
-0.0011772
0.00125191
-0.000507153
-0.00134457
0.00142219
-0.000585645
-0.00153177
0.00161027
-0.00066215
-0.00173529
0.0018118
-0.000732459
-0.00194591
0.00201622
-0.000790451
-0.00214684
0.00220483
-0.000827639
-0.00231133
0.00234851
-0.000832804
-0.00240004
0.0024052
-0.000792008
-0.00236084
0.00232005
-0.000692719
-0.00213188
0.00203259
-0.00163503
0.00145921
-0.000516894
-6.22167e-06
-4.83602e-05
-2.32709e-05
-0.000149304
-5.08079e-05
-0.00025807
-8.85954e-05
-0.000370383
-0.000136324
-0.000482773
-0.000193523
-0.000593959
-0.000259543
-0.000705463
-0.000333602
-0.000821428
-0.000414864
-0.000947573
-0.000502461
-0.00108961
-0.000595403
-0.00125163
-0.000692336
-0.00143484
-0.000791146
-0.00163648
-0.000888431
-0.00184862
-0.000978884
-0.00205639
-0.00105462
-0.00223559
-0.00110453
-0.00235012
-0.00111446
-0.00235091
-0.00106857
-0.00217777
-0.00175506
-0.000948541
-7.35271e-06
-4.10075e-05
-2.72263e-05
-0.00012943
-5.89038e-05
-0.000226393
-0.000101802
-0.000327484
-0.000155333
-0.000429242
-0.000218862
-0.000530431
-0.000291716
-0.000632608
-0.000373249
-0.000739895
-0.00046289
-0.000857932
-0.000560136
-0.00099236
-0.000664428
-0.00114734
-0.000774892
-0.00132438
-0.000889967
-0.00152141
-0.00100691
-0.00173168
-0.00112119
-0.0019421
-0.00122576
-0.00213103
-0.00131023
-0.00226565
-0.00136108
-0.00230006
-0.00136155
-0.0021773
-0.00182679
-0.00128982
-8.25907e-06
-3.27484e-05
-3.03825e-05
-0.000107307
-6.53155e-05
-0.00019146
-0.000112154
-0.000280646
-0.000170042
-0.000371354
-0.000238172
-0.000462301
-0.000315824
-0.000554957
-0.000402415
-0.000653304
-0.000497537
-0.000762811
-0.000600901
-0.000888996
-0.000712185
-0.00103605
-0.000830768
-0.00120579
-0.000955384
-0.00139679
-0.00108369
-0.00160337
-0.00121174
-0.00181406
-0.00133326
-0.00200951
-0.00143886
-0.00216005
-0.00151615
-0.00222277
-0.00154967
-0.00214378
-0.00186518
-0.00151128
-8.89796e-06
-2.38504e-05
-3.26058e-05
-8.35993e-05
-6.97962e-05
-0.00015427
-0.000119286
-0.000231156
-0.000179971
-0.000310669
-0.000250867
-0.000391405
-0.00033116
-0.000474663
-0.000420261
-0.000564203
-0.000517802
-0.00066527
-0.00062355
-0.000783248
-0.000737218
-0.000922385
-0.000858195
-0.00108481
-0.000985229
-0.00126976
-0.00111605
-0.00147255
-0.00124693
-0.00168317
-0.00137212
-0.00188432
-0.00148293
-0.00204924
-0.0015679
-0.00213779
-0.00161469
-0.002097
-0.00189305
-0.00158682
-9.24026e-06
-1.46102e-05
-3.38061e-05
-5.90334e-05
-7.21815e-05
-0.000115894
-0.000122958
-0.00018038
-0.000184809
-0.000248817
-0.000256563
-0.000319651
-0.000337268
-0.000393958
-0.000426238
-0.000475233
-0.000523021
-0.000568487
-0.000627276
-0.000678993
-0.000738552
-0.000811109
-0.000856015
-0.000967352
-0.000978142
-0.00114763
-0.0011024
-0.00134829
-0.0012249
-0.00156068
-0.00133993
-0.00176929
-0.00143911
-0.00195006
-0.00151066
-0.00206624
-0.00154674
-0.00206092
-0.00193894
-0.00150085
-9.27213e-06
-5.33802e-06
-3.3941e-05
-3.43645e-05
-7.23948e-05
-7.74404e-05
-0.00012306
-0.000129715
-0.000184415
-0.000187462
-0.000255085
-0.000248981
-0.000333929
-0.000315115
-0.000420068
-0.000389094
-0.000512836
-0.000475719
-0.000611615
-0.000580214
-0.000715596
-0.000707127
-0.000823491
-0.000859457
-0.000933249
-0.00103787
-0.00104178
-0.00123976
-0.00114465
-0.00145781
-0.00123582
-0.00167812
-0.00130693
-0.00187895
-0.00134446
-0.00202871
-0.00134539
-0.00206
-0.00203167
-0.00125266
-8.99619e-06
3.65817e-06
-3.30174e-05
-1.03433e-05
-7.04496e-05
-4.00082e-05
-0.000119615
-8.05492e-05
-0.000178818
-0.00012826
-0.000246467
-0.000181331
-0.000321169
-0.000240413
-0.000401753
-0.00030851
-0.000487195
-0.000390277
-0.000576434
-0.000490976
-0.0006681
-0.000615461
-0.000760227
-0.000767331
-0.000849978
-0.000948123
-0.000933436
-0.0011563
-0.00100537
-0.00138587
-0.0010591
-0.00162439
-0.00108633
-0.00185172
-0.00107136
-0.00204368
-0.00101545
-0.00211591
-0.00219365
-0.000853469
-8.43154e-06
1.20897e-05
-3.10919e-05
1.23171e-05
-6.64495e-05
-4.65062e-06
-0.000112775
-3.42239e-05
-0.000168219
-7.28152e-05
-0.000230952
-0.000118599
-0.000299262
-0.000172102
-0.000371579
-0.000236193
-0.00044638
-0.000315476
-0.000521978
-0.000415378
-0.000596235
-0.000541204
-0.000666269
-0.000697297
-0.000728208
-0.000886184
-0.000777049
-0.00110746
-0.000806556
-0.00135637
-0.000809123
-0.00162182
-0.000776815
-0.00188403
-0.000692417
-0.00212808
-0.000558827
-0.0022495
-0.00243044
-0.000322046
-7.61073e-06
1.97004e-05
-2.82675e-05
3.29738e-05
-6.05846e-05
2.76665e-05
-0.000102822
8.01358e-06
-0.000152991
-2.26459e-05
-0.000208995
-6.25948e-05
-0.000268741
-0.000112357
-0.00033015
-0.000174784
-0.000391053
-0.000254574
-0.000448955
-0.000357476
-0.000500745
-0.000489414
-0.000542395
-0.000655646
-0.000568754
-0.000859824
-0.000573507
-0.00110271
-0.000549265
-0.00138061
-0.000487258
-0.00168383
-0.000379896
-0.00199139
-0.00021563
-0.00229234
4.0861e-05
-0.00250599
-0.00274023
0.000350651
-6.58166e-06
2.62821e-05
-2.46888e-05
5.1081e-05
-5.3121e-05
5.60986e-05
-9.01592e-05
4.50518e-05
-0.000133668
2.08629e-05
-0.000181263
-1.49997e-05
-0.000230402
-6.32179e-05
-0.000278397
-0.000126789
-0.000322293
-0.000210677
-0.000358625
-0.000321144
-0.000383119
-0.000464919
-0.000390419
-0.000648347
-0.000373934
-0.000876309
-0.000325927
-0.00115071
-0.000237944
-0.00146859
-0.000100424
-0.00182135
9.92364e-05
-0.00219105
0.000354769
-0.00254788
0.000692753
-0.00284398
-0.00319498
0.00114751
-5.40222e-06
3.16843e-05
-2.0536e-05
6.62148e-05
-4.43962e-05
7.99587e-05
-7.52847e-05
7.59404e-05
-0.000110926
5.65043e-05
-0.000148608
2.26819e-05
-0.000185284
-2.6542e-05
-0.000217565
-9.4508e-05
-0.0002416
-0.000186643
-0.000252812
-0.000309932
-0.000245644
-0.000472088
-0.000213312
-0.000680678
-0.0001478
-0.000941821
-4.00726e-05
-0.00125844
0.000119286
-0.00162795
0.000338456
-0.00204052
0.00062675
-0.00247934
0.000989444
-0.00291057
0.00142514
-0.00327968
-0.00375706
0.00198723
-4.13641e-06
3.58207e-05
-1.60104e-05
7.80888e-05
-3.47883e-05
9.87366e-05
-5.87801e-05
9.99322e-05
-8.55478e-05
8.32721e-05
-0.000112031
4.91653e-05
-0.00013462
-3.9536e-06
-0.000149157
-7.99706e-05
-0.000150814
-0.000184986
-0.000133811
-0.000326934
-9.12704e-05
-0.000514628
-1.50352e-05
-0.000756914
0.000104151
-0.00106101
0.000275998
-0.00143029
0.000509661
-0.00186161
0.000811969
-0.00234283
0.00118962
-0.00285699
0.00164339
-0.00336434
0.00216942
-0.00380571
-0.00438991
0.00280228
-2.84985e-06
3.86706e-05
-1.13212e-05
8.65601e-05
-2.46968e-05
0.000112112
-4.12587e-05
0.000116494
-5.83784e-05
0.000100392
-7.26137e-05
6.34006e-05
-7.97566e-05
3.18933e-06
-7.48126e-05
-8.49146e-05
-5.19681e-05
-0.000207831
-4.20305e-06
-0.000374699
7.66858e-05
-0.000595517
0.000199982
-0.00088021
0.0003756
-0.00123662
0.000613093
-0.00166778
0.000920181
-0.0021687
0.00130021
-0.00272285
0.00175485
-0.00331163
0.00227896
-0.00388846
0.0028694
-0.00439615
-0.00504742
0.00352691
-1.60439e-06
4.0275e-05
-6.66895e-06
9.16247e-05
-1.45093e-05
0.000119952
-2.33227e-05
0.000125308
-3.02489e-05
0.000107318
-3.14259e-05
6.45776e-05
-2.20413e-05
-6.19527e-06
3.70288e-06
-0.000110659
5.29359e-05
-0.000257064
0.000133595
-0.000455358
0.000254989
-0.000716912
0.00042719
-0.00105241
0.000660053
-0.00146949
0.000961619
-0.00196935
0.00133625
-0.00254333
0.0017825
-0.0031691
0.00229403
-0.00382317
0.0028603
-0.00445472
0.00347987
-0.00501572
-0.00568628
0.00411872
-4.53064e-07
4.0728e-05
-2.22712e-06
9.33988e-05
-4.56646e-06
0.000122292
-5.50767e-06
0.000126249
-1.90481e-06
0.000103715
1.05628e-05
5.21099e-05
3.74005e-05
-3.30329e-05
8.53244e-05
-0.000158583
0.000162215
-0.000333955
0.000277312
-0.000570455
0.000440666
-0.000880266
0.000662421
-0.00127417
0.00095122
-0.00175829
0.00131197
-0.0023301
0.00174362
-0.00297498
0.00223861
-0.0036641
0.002782
-0.00436655
0.00335915
-0.00503187
0.0039702
-0.00562677
-0.00627573
0.00455965
5.6857e-07
4.01595e-05
1.87448e-06
9.20928e-05
4.87237e-06
0.000119294
1.17762e-05
0.000119345
2.60907e-05
8.94007e-05
5.26495e-05
2.55511e-05
9.76418e-05
-7.80251e-05
0.000168644
-0.000229585
0.000274536
-0.000439847
0.000425318
-0.000721237
0.00063134
-0.00108629
0.000901886
-0.00154471
0.0012429
-0.0020993
0.00165435
-0.00274155
0.00212814
-0.00344877
0.00264984
-0.0041858
0.0031979
-0.00491461
0.00375684
-0.00559081
0.00432706
-0.00619699
-0.00680007
0.0048514
1.43689e-06
3.87226e-05
5.56416e-06
8.79656e-05
1.3659e-05
0.000111199
2.82902e-05
0.000104714
5.34021e-05
6.42888e-05
9.44035e-05
-1.54503e-05
0.000158217
-0.000141838
0.000253256
-0.000324624
0.000389218
-0.000575809
0.000576521
-0.000908539
0.00082502
-0.00133479
0.00114185
-0.00186154
0.00152851
-0.00248597
0.00197836
-0.00319139
0.00247575
-0.00394617
0.00300014
-0.00471019
0.00352738
-0.00544185
0.00404543
-0.00610886
0.0045536
-0.00670516
-0.00725875
0.00501229
2.15605e-06
3.65665e-05
8.83834e-06
8.12833e-05
2.17767e-05
9.82607e-05
4.40041e-05
8.24863e-05
7.99995e-05
2.82934e-05
0.000135818
-7.12692e-05
0.000219139
-0.000225159
0.000339148
-0.000444633
0.000506083
-0.000742743
0.000730181
-0.00113264
0.0010197
-0.00162431
0.00137803
-0.00221986
0.00180054
-0.00290848
0.00227306
-0.00366391
0.00277348
-0.00444658
0.00327786
-0.00521457
0.00376444
-0.00592843
0.0042279
-0.00657231
0.00466725
-0.00714452
-0.00764831
0.0050568
2.74761e-06
3.38189e-05
1.17617e-05
7.22692e-05
2.93452e-05
8.06772e-05
5.91057e-05
5.27258e-05
0.000106155
-1.87561e-05
0.000177263
-0.000142377
0.000280857
-0.000328753
0.000426734
-0.00059051
0.000625222
-0.000941232
0.000885485
-0.0013929
0.00121277
-0.00195159
0.00160503
-0.00261213
0.00205041
-0.00335386
0.00252773
-0.00414123
0.00301114
-0.00492999
0.00347749
-0.00568093
0.00391182
-0.00636276
0.00431538
-0.00697587
0.00468701
-0.00751615
-0.0080097
0.0050484
3.25259e-06
3.05663e-05
1.44614e-05
6.10604e-05
3.66069e-05
5.85317e-05
7.39754e-05
1.53572e-05
0.000132403
-7.71833e-05
0.000219412
-0.000229387
0.000344109
-0.00045345
0.000516593
-0.000762994
0.000746586
-0.00117123
0.00104098
-0.00168729
0.00140044
-0.00231105
0.00181618
-0.00302787
0.00226913
-0.00380681
0.00273335
-0.00460545
0.00318314
-0.00537978
0.00360028
-0.00609807
0.00397904
-0.00674152
0.0043266
-0.00732343
0.00464681
-0.00783636
-0.00833947
0.00497658
3.72578e-06
2.68406e-05
1.71104e-05
4.76758e-05
4.38942e-05
3.17479e-05
8.91307e-05
-2.98793e-05
0.000159442
-0.000147495
0.000263096
-0.00033304
0.000409683
-0.000600036
0.0006091
-0.000962411
0.000869499
-0.00143162
0.00119409
-0.00201189
0.00157756
-0.00269451
0.00200396
-0.00345427
0.0024486
-0.00425146
0.00288428
-0.00504112
0.00328938
-0.00578487
0.00365334
-0.00646203
0.00397906
-0.00706725
0.00427695
-0.00762132
0.00456611
-0.00812552
-0.00864902
0.00487565
4.22856e-06
2.2612e-05
1.99045e-05
3.19999e-05
5.15813e-05
7.11478e-08
0.00010514
-8.34381e-05
0.000188006
-0.000230361
0.000309086
-0.00045412
0.00047811
-0.00076906
0.000704038
-0.00118834
0.000992262
-0.00171985
0.00134094
-0.00236056
0.00173797
-0.00309154
0.00216117
-0.00387747
0.00258315
-0.00467344
0.00297924
-0.00543722
0.00333473
-0.00614036
0.00364733
-0.00677463
0.00392624
-0.00734616
0.00418578
-0.00788086
0.00444472
-0.00838445
-0.00892153
0.00471722
4.82067e-06
1.77913e-05
2.30316e-05
1.37889e-05
6.0031e-05
-3.69283e-05
0.000122526
-0.000145934
0.000218702
-0.000326536
0.000357876
-0.000593294
0.000549384
-0.000960568
0.000800298
-0.00143925
0.00111199
-0.00203154
0.00147656
-0.00272513
0.00187538
-0.00349037
0.00228223
-0.00428432
0.0026705
-0.00506171
0.00302117
-0.00578789
0.00332743
-0.00644663
0.00359408
-0.00704128
0.0038344
-0.00758648
0.00406333
-0.00810979
0.00429741
-0.00861853
-0.00917251
0.0045484
5.55421e-06
1.22371e-05
2.66579e-05
-7.31472e-06
6.95274e-05
-7.97978e-05
0.000141672
-0.000218079
0.000251876
-0.00043674
0.000409499
-0.000750917
0.000622762
-0.00117383
0.000895779
-0.00171227
0.00122482
-0.00236058
0.00159562
-0.00309593
0.00198448
-0.00387923
0.00236412
-0.00466396
0.00271191
-0.0054095
0.00301606
-0.00609204
0.00327711
-0.00670768
0.00350486
-0.00726903
0.00371419
-0.00779581
0.00391901
-0.00831461
0.00413355
-0.00883307
-0.00940298
0.00436402
6.4654e-06
5.77171e-06
3.08903e-05
-3.17396e-05
8.02533e-05
-0.000129161
0.000162753
-0.000300579
0.000287518
-0.000561505
0.000463426
-0.000926824
0.000696725
-0.00140713
0.000987528
-0.00200307
0.00132635
-0.0026994
0.00169327
-0.00346285
0.00206183
-0.00424779
0.00240676
-0.00500888
0.00271149
-0.00571423
0.00297155
-0.0063521
0.00319324
-0.00692937
0.00338913
-0.00746492
0.00357382
-0.0079805
0.0037593
-0.00850009
0.0039568
-0.00903057
-0.00961592
0.00416974
7.57323e-06
-1.80152e-06
3.57783e-05
-5.99447e-05
9.22536e-05
-0.000185636
0.000185702
-0.000394027
0.000325225
-0.000701028
0.000518564
-0.00112016
0.00076909
-0.00165766
0.00107209
-0.00230608
0.00141239
-0.0030397
0.00176595
-0.00381641
0.00210628
-0.00458811
0.00241255
-0.00531515
0.00267502
-0.0059767
0.00289553
-0.00657261
0.00308416
-0.007118
0.00325431
-0.00763507
0.00341915
-0.00814534
0.00358834
-0.00866927
0.00377061
-0.00921285
-0.00981249
0.00396718
8.87945e-06
-1.0681e-05
4.13089e-05
-9.23741e-05
0.000105438
-0.000249766
0.000210211
-0.0004988
0.000364225
-0.000855043
0.000573356
-0.00132929
0.000837256
-0.00192156
0.001146
-0.00261483
0.00147951
-0.00337321
0.00181181
-0.0041487
0.00211885
-0.00489516
0.00238564
-0.00558194
0.00260891
-0.00619997
0.00279525
-0.00675895
0.00295663
-0.00727938
0.0031059
-0.00778433
0.00325418
-0.00829363
0.00340896
-0.00882405
0.0035768
-0.00938069
-0.00999321
0.00375752
1.03709e-05
-2.10519e-05
4.74142e-05
-0.000129417
0.000119597
-0.000321949
0.000235765
-0.000614968
0.000403459
-0.00102274
0.000625939
-0.00155177
0.00089852
-0.00219414
0.00120623
-0.00292253
0.00152551
-0.0036925
0.00183076
-0.00445394
0.00210221
-0.00516661
0.00233103
-0.00581076
0.00251938
-0.00638833
0.00267687
-0.00691643
0.00281584
-0.00741836
0.00294778
-0.00791627
0.00308164
-0.00842749
0.003223
-0.00896541
0.00337674
-0.00953444
-0.0101583
0.00354188
1.2023e-05
-3.30749e-05
5.39824e-05
-0.000171377
0.000134424
-0.00040239
0.000261695
-0.000742238
0.000441675
-0.00120272
0.000674343
-0.00178444
0.000950394
-0.00247019
0.00125052
-0.00322266
0.00154955
-0.00399153
0.00182421
-0.0047286
0.00206003
-0.00540243
0.00225387
-0.00600461
0.00241193
-0.00654638
0.00254528
-0.00704978
0.00266563
-0.00753871
0.00278267
-0.00803331
0.00290334
-0.00854816
0.00303172
-0.00909379
0.00317141
-0.00967413
-0.0103079
0.003321
1.38036e-05
-4.68785e-05
6.087e-05
-0.000218443
0.000149544
-0.000491064
0.000287227
-0.000879922
0.000477543
-0.00139303
0.000716686
-0.00202359
0.000990858
-0.00274436
0.00127762
-0.00350941
0.00155204
-0.00426596
0.00179464
-0.0049712
0.0019964
-0.00560419
0.00215897
-0.00616718
0.00229113
-0.00667854
0.00240424
-0.00716289
0.00250872
-0.0076432
0.00261242
-0.008137
0.00272056
-0.0086563
0.00283606
-0.0092093
0.0029616
-0.00979966
-0.0104419
0.0030956
1.56752e-05
-6.25537e-05
6.79122e-05
-0.00027068
0.000164541
-0.000587693
0.000311547
-0.00102693
0.00050976
-0.00159125
0.000751336
-0.00226516
0.00101853
-0.00301156
0.00128723
-0.00377811
0.00153438
-0.00451311
0.00174508
-0.0051819
0.00191538
-0.0057745
0.00205053
-0.00630232
0.00216065
-0.00678866
0.00225654
-0.00725878
0.00234705
-0.00773371
0.00243831
-0.00822826
0.00253418
-0.00875217
0.00263675
-0.00931186
0.00274797
-0.00991089
-0.0105603
0.00286631
1.75968e-05
-8.01504e-05
7.49313e-05
-0.000328015
0.000178979
-0.000691741
0.000333845
-0.00118179
0.000537147
-0.00179455
0.000777042
-0.00250506
0.00103273
-0.00326725
0.00127993
-0.0040253
0.00149865
-0.00473183
0.00167878
-0.00536203
0.00182067
-0.00591639
0.00193202
-0.00641367
0.00202329
-0.00687993
0.0021042
-0.00733969
0.00218197
-0.00781148
0.00226128
-0.00830757
0.00234491
-0.0088358
0.00243438
-0.00940133
0.00253112
-0.0100076
-0.0106628
0.00263369
1.9525e-05
-9.96754e-05
8.17423e-05
-0.000390232
0.000192422
-0.00080242
0.000353365
-0.00134274
0.000558723
-0.0019999
0.000792994
-0.00273933
0.00103343
-0.00350769
0.00125691
-0.00424878
0.00144726
-0.00492219
0.00159888
-0.00551364
0.00171552
-0.00603303
0.00180625
-0.0065044
0.00188118
-0.00695486
0.00194867
-0.00740718
0.00201445
-0.00787726
0.00208199
-0.00837511
0.00215331
-0.00890712
0.0022295
-0.00947752
0.00231159
-0.0100897
-0.0107495
0.00239829
2.14144e-05
-0.00012109
8.81593e-05
-0.000456977
0.000204453
-0.000918714
0.000369443
-0.00150773
0.00057376
-0.00220422
0.000798842
-0.00296441
0.00102117
-0.00373002
0.00121983
-0.00444744
0.00138274
-0.0050851
0.00150827
-0.00563918
0.00160262
-0.00612738
0.0016754
-0.00657717
0.00173586
-0.00701533
0.00179099
-0.0074623
0.00184518
-0.00793146
0.001901
-0.00843093
0.00195986
-0.00896598
0.00202258
-0.00954023
0.00208988
-0.010157
-0.0108203
0.00216062
2.32186e-05
-0.000144308
9.40011e-05
-0.00052776
0.000214692
-0.0010394
0.000381541
-0.00167458
0.000581811
-0.00240449
0.000794658
-0.00317726
0.000996891
-0.00393225
0.00117054
-0.00462109
0.00130752
-0.00522208
0.00140948
-0.00574114
0.00148418
-0.00620208
0.00154113
-0.00663413
0.00158851
-0.0070627
0.00163193
-0.00750573
0.00167474
-0.00797427
0.00171876
-0.00847495
0.00176501
-0.00901223
0.00181408
-0.00958931
0.00186647
-0.0102094
-0.010875
0.00192117
2.48912e-05
-0.0001692
9.90978e-05
-0.000601966
0.000222813
-0.00116312
0.000389269
-0.00184103
0.000582705
-0.00259793
0.000780874
-0.00337543
0.000961847
-0.00411322
0.00111097
-0.00477021
0.00122385
-0.00533495
0.00130463
-0.00582192
0.00136193
-0.00625938
0.00140471
-0.00667691
0.00143995
-0.00709794
0.00147207
-0.00753785
0.00150354
-0.00800574
0.00153566
-0.00850707
0.00156915
-0.00904571
0.00160444
-0.0096246
0.00164182
-0.0102468
-0.0109136
0.00168042
2.63872e-05
-0.000195587
0.000103297
-0.000678876
0.000228556
-0.00128838
0.000392397
-0.00200487
0.000576535
-0.00278207
0.000758194
-0.00355708
0.000917425
-0.00427245
0.001043
-0.00489579
0.00113369
-0.00542565
0.0011955
-0.00588373
0.00123725
-0.00630113
0.0012671
-0.00670676
0.00129084
-0.00712168
0.00131187
-0.00755888
0.00133198
-0.00802585
0.00135208
-0.00852717
0.00137267
-0.00906629
0.00139405
-0.00964598
0.00141635
-0.0102691
-0.0109361
0.00143883
2.76651e-05
-0.000223252
0.000106469
-0.00075768
0.000231737
-0.00141365
0.000390852
-0.00216399
0.00056361
-0.00295482
0.00072751
-0.00372098
0.000865063
-0.00441001
0.000968343
-0.00499907
0.00103876
-0.00549607
0.0010835
-0.00592846
0.00111118
-0.00632882
0.00112901
-0.00672458
0.00114166
-0.00713433
0.0011517
-0.00756893
0.00116039
-0.00803455
0.00116836
-0.00853514
0.00117593
-0.00907386
0.00118332
-0.00965337
0.00119049
-0.0102763
-0.0109424
0.00119684
2.86878e-05
-0.00025194
0.000108515
-0.000837507
0.000232252
-0.00153738
0.000384709
-0.00231645
0.00054441
-0.00311452
0.000689817
-0.00386639
0.000806163
-0.00452635
0.000888556
-0.00508146
0.000940488
-0.005548
0.00096977
-0.00595774
0.000984547
-0.00634359
0.000990982
-0.00673101
0.000992798
-0.00713614
0.000991877
-0.00756801
0.000989082
-0.00803175
0.000984814
-0.00853087
0.000979288
-0.00906834
0.00097262
-0.0096467
0.000964672
-0.0102683
-0.0109326
0.00095491
2.94244e-05
-0.000281364
0.000109364
-0.000917447
0.000230076
-0.00165809
0.000374166
-0.00246054
0.000519537
-0.00325989
0.000646151
-0.00399301
0.000742039
-0.00462224
0.000804991
-0.00514441
0.000840042
-0.00558305
0.000855218
-0.00597292
0.000857965
-0.00634634
0.00085346
-0.00672651
0.000844589
-0.00712727
0.000832694
-0.00755611
0.000818339
-0.0080174
0.000801761
-0.00851429
0.00078307
-0.00904965
0.000762307
-0.00962594
0.000739293
-0.0102453
-0.0109068
0.000713461
2.9851e-05
-0.000311215
0.00010898
-0.000996576
0.000225257
-0.00177437
0.000359523
-0.0025948
0.000489665
-0.00339004
0.000597529
-0.00410087
0.000673887
-0.0046986
0.000718804
-0.00518933
0.000738388
-0.00560264
0.000740546
-0.00597508
0.000731926
-0.00633772
0.000716783
-0.00671137
0.000697306
-0.0071078
0.000674414
-0.00753322
0.000648441
-0.00799142
0.000619502
-0.00848535
0.000587602
-0.00901775
0.000552719
-0.00959105
0.000514691
-0.0102073
-0.010865
0.000472926
2.99512e-05
-0.000341166
0.000107357
-0.00107398
0.000217907
-0.00188492
0.000341151
-0.00271805
0.000455499
-0.00350438
0.000544922
-0.00419029
0.000602766
-0.00475645
0.000630967
-0.00521753
0.000636298
-0.00560797
0.00062631
-0.00596509
0.000606814
-0.00631822
0.000581237
-0.00668579
0.000551197
-0.00707776
0.000517285
-0.00749931
0.000479656
-0.00795379
0.00043833
-0.00844402
0.000393218
-0.00897264
0.000344238
-0.00954207
0.000291072
-0.0101541
-0.0108076
0.00023364
2.97167e-05
-0.000370883
0.00010452
-0.00114879
0.000208188
-0.00198859
0.000319471
-0.00282933
0.000417742
-0.00360265
0.00048922
-0.00426177
0.000529597
-0.00479682
0.000542288
-0.00523022
0.000534392
-0.00560007
0.000512947
-0.00594364
0.000482937
-0.00628821
0.000447066
-0.00664992
0.000406487
-0.00703718
0.000361545
-0.00745437
0.000312245
-0.00790449
0.000258505
-0.00839028
0.000200245
-0.00891437
0.000137223
-0.00947905
6.91449e-05
-0.010086
-0.0107317
-6.78339e-06
2.91465e-05
-0.00040003
0.000100519
-0.00122016
0.000196304
-0.00208437
0.000294925
-0.00292795
0.00037707
-0.0036848
0.000431228
-0.00431593
0.000455169
-0.00482076
0.000453428
-0.00522848
0.000433166
-0.00557981
0.000400805
-0.00591128
0.000360549
-0.00624796
0.000314486
-0.00660386
0.000263391
-0.00698608
0.00020741
-0.00739838
0.000146465
-0.00784355
8.02491e-05
-0.00832407
8.54558e-06
-0.00884267
-6.82317e-05
-0.00940228
-0.000151105
-0.0100032
-0.0106421
-0.000240658
2.82466e-05
-0.000428276
9.54243e-05
-0.00128734
0.000182485
-0.00217143
0.00026796
-0.00301343
0.000334117
-0.00375096
0.000371657
-0.00435347
0.000380148
-0.00482925
0.000364927
-0.00521326
0.00033301
-0.00554789
0.000290164
-0.00586844
0.000239867
-0.00619766
0.000183685
-0.00654767
0.000122111
-0.00692451
5.50338e-05
-0.00733131
-1.76777e-05
-0.00777084
-9.59973e-05
-0.00824575
-0.00018039
-0.00875828
-0.000271271
-0.00931139
-0.000369162
-0.00990527
-0.0105373
-0.000473997
2.70293e-05
-0.000455305
8.93244e-05
-0.00134963
0.000166974
-0.00224908
0.000239013
-0.00308547
0.000289463
-0.00380141
0.000311127
-0.00437513
0.000305091
-0.00482322
0.000277221
-0.00518539
0.000234241
-0.00550491
0.000181242
-0.00581544
0.000121099
-0.00613752
5.47818e-05
-0.00648136
-1.73563e-05
-0.00685237
-9.52001e-05
-0.00725346
-0.000179268
-0.00768677
-0.000269989
-0.00815503
-0.000367449
-0.00866082
-0.000472128
-0.00920671
-0.000584529
-0.00979287
-0.0104169
-0.000704918
2.5512e-05
-0.000480818
8.23191e-05
-0.00140644
0.000150023
-0.00231679
0.000208498
-0.00314394
0.000243628
-0.00383654
0.00025017
-0.00438168
0.000230459
-0.00480351
0.000190667
-0.0051456
0.000137115
-0.00545136
7.42032e-05
-0.00575253
4.07877e-06
-0.00606739
-7.19417e-05
-0.00640534
-0.000154253
-0.00677006
-0.000243135
-0.00716458
-0.000338771
-0.00759113
-0.00044162
-0.00805218
-0.000552011
-0.00855043
-0.000670358
-0.00908837
-0.000797137
-0.00966609
-0.0102813
-0.000932728
2.37167e-05
-0.000504534
7.45161e-05
-0.00145724
0.000131878
-0.00237415
0.000176801
-0.00318886
0.000197074
-0.00385681
0.000189238
-0.00437384
0.000156633
-0.0047709
0.000105549
-0.00509451
4.18174e-05
-0.00538763
-3.07296e-05
-0.00567998
-0.000110162
-0.00598796
-0.000196285
-0.00631921
-0.000288985
-0.00667736
-0.000388677
-0.00706489
-0.000495739
-0.00748407
-0.000610622
-0.0079373
-0.000733775
-0.00842727
-0.000865642
-0.0089565
-0.00100666
-0.00952507
-0.0101307
-0.00115723
2.16687e-05
-0.000526203
6.60271e-05
-0.0015016
0.000112779
-0.0024209
0.000144276
-0.00322036
0.000150208
-0.00386274
0.000128712
-0.00435234
8.39191e-05
-0.00472611
2.20775e-05
-0.00503267
-5.14214e-05
-0.00531413
-0.000133332
-0.00559807
-0.000222353
-0.00589894
-0.000318253
-0.00622331
-0.000421204
-0.00657441
-0.000531612
-0.00695448
-0.000649956
-0.00736573
-0.000776743
-0.00781051
-0.000912498
-0.00829152
-0.00105772
-0.00881128
-0.00121281
-0.00936997
-0.00996549
-0.00137807
1.93969e-05
-0.0005456
5.69659e-05
-0.00153916
9.29556e-05
-0.00245689
0.000111247
-0.00323865
0.000103378
-0.00385487
6.89069e-05
-0.00431787
1.25873e-05
-0.00466979
-5.94942e-05
-0.00496059
-0.000142476
-0.00523115
-0.000233666
-0.00550688
-0.000332082
-0.00580052
-0.00043767
-0.00611773
-0.000550741
-0.00646133
-0.000671749
-0.00683347
-0.00080123
-0.00723625
-0.000939756
-0.00767198
-0.00108793
-0.00814335
-0.00124632
-0.00865288
-0.0014153
-0.009201
-0.00978581
-0.00159497
1.6934e-05
-0.000562534
4.74455e-05
-0.00156968
7.26256e-05
-0.00248207
7.8002e-05
-0.00324403
5.68834e-05
-0.00383375
1.01876e-05
-0.00427118
-5.71522e-05
-0.00460245
-0.000139077
-0.00487866
-0.000231285
-0.00513894
-0.00033156
-0.0054066
-0.000439227
-0.00569286
-0.00055439
-0.00600256
-0.000677449
-0.00633828
-0.000808913
-0.00670201
-0.000949366
-0.0070958
-0.00109944
-0.00752191
-0.00125983
-0.00798297
-0.00143119
-0.00848152
-0.00161383
-0.00901836
-0.00959201
-0.00180763
1.432e-05
-0.000576854
3.75794e-05
-0.00159294
5.19922e-05
-0.00249648
4.48012e-05
-0.00323684
1.12073e-05
-0.00380016
-4.74408e-05
-0.00421253
-0.000125187
-0.0045247
-0.000216553
-0.0047873
-0.000317724
-0.00503777
-0.000426906
-0.00529742
-0.000543681
-0.00557608
-0.000668281
-0.00587796
-0.000801179
-0.00620538
-0.000942936
-0.00656025
-0.00109418
-0.00694455
-0.0012556
-0.00736048
-0.00142796
-0.0078106
-0.00161206
-0.00829743
-0.00180815
-0.00882227
-0.00938439
-0.00201577
1.15948e-05
-0.000588448
2.74784e-05
-0.00160882
3.12402e-05
-0.00250025
1.20825e-05
-0.00321768
-3.40596e-05
-0.00375402
-0.00010369
-0.0041429
-0.000191357
-0.00443704
-0.000291811
-0.00468684
-0.000401702
-0.00492788
-0.000519611
-0.00517951
-0.000645337
-0.00545035
-0.00077922
-0.00574408
-0.000921792
-0.00606281
-0.00107366
-0.00640838
-0.0012355
-0.00678271
-0.00140804
-0.00718794
-0.00159213
-0.00762651
-0.0017887
-0.00810086
-0.001998
-0.00861297
-0.00916329
-0.0022191
8.7651e-06
-0.000597214
1.72388e-05
-0.00161729
1.06367e-05
-0.00249364
-2.06653e-05
-0.00318638
-7.82651e-05
-0.00369642
-0.000158422
-0.00406274
-0.000255554
-0.0043399
-0.000364763
-0.00457764
-0.000483137
-0.0048095
-0.000609588
-0.00505306
-0.000744095
-0.00531585
-0.000887087
-0.00560109
-0.00103915
-0.00591074
-0.00120093
-0.0062466
-0.00137315
-0.0066105
-0.00155657
-0.00700452
-0.00175214
-0.00743095
-0.00196092
-0.00789207
-0.00218318
-0.00839072
-0.00892916
-0.0024173
5.85647e-06
-0.00060307
6.8887e-06
-0.00161833
-1.00366e-05
-0.00247672
-5.28442e-05
-0.00314357
-0.000121357
-0.0036279
-0.000211511
-0.00397259
-0.000317683
-0.00423373
-0.000435333
-0.00445999
-0.000561959
-0.00468288
-0.000696756
-0.00491826
-0.000839857
-0.00517275
-0.000991768
-0.00544918
-0.00115312
-0.00574939
-0.00132461
-0.00607511
-0.00150697
-0.00642813
-0.00170102
-0.00681047
-0.00190777
-0.0072242
-0.00212848
-0.00767135
-0.0023634
-0.0081558
-0.00868253
-0.00261004
2.8151e-06
-0.000605885
-3.43997e-06
-0.00161207
-3.07758e-05
-0.00244938
-8.42513e-05
-0.0030901
-0.000163197
-0.00354896
-0.000262857
-0.00387293
-0.000377667
-0.00411892
-0.000503457
-0.0043342
-0.0006381
-0.00454823
-0.000781038
-0.00477533
-0.000932532
-0.00502125
-0.00109315
-0.00528856
-0.00126358
-0.00557897
-0.00144454
-0.00589414
-0.00163681
-0.00623586
-0.00184122
-0.00660606
-0.00205885
-0.00700657
-0.0022911
-0.0074391
-0.00253837
-0.00790854
-0.00842336
-0.00279753
-6.34126e-07
-0.000605251
-1.4058e-05
-0.00159865
-5.0929e-05
-0.00241251
-0.000114804
-0.00302622
-0.00020368
-0.00346008
-0.000312373
-0.00376423
-0.000435441
-0.00399585
-0.000569078
-0.00420056
-0.000711498
-0.00440581
-0.000862358
-0.00462447
-0.00102203
-0.00486158
-0.00119114
-0.00511945
-0.0013704
-0.0053997
-0.0015606
-0.00570395
-0.00176252
-0.00603394
-0.00197705
-0.00639153
-0.00220529
-0.00677833
-0.00244868
-0.00719572
-0.00270789
-0.00764933
-0.00815125
-0.00298
-3.4031e-06
-0.000601848
-2.43039e-05
-0.00157775
-7.05878e-05
-0.00236623
-0.000144406
-0.0029524
-0.000242717
-0.00336177
-0.000359992
-0.00364696
-0.000490953
-0.00386489
-0.000632147
-0.00405937
-0.000782097
-0.00425586
-0.000940647
-0.00446591
-0.00110826
-0.00469397
-0.00128561
-0.0049421
-0.00147346
-0.00521185
-0.00167262
-0.00550479
-0.00188394
-0.00582262
-0.00210837
-0.0061671
-0.0023471
-0.0065396
-0.00260145
-0.00694137
-0.00287152
-0.00737925
-0.00786809
-0.00315468
-6.41918e-06
-0.000595429
-3.43397e-05
-0.00154983
-8.96937e-05
-0.00231087
-0.000172989
-0.00286911
-0.000280243
-0.00325452
-0.000405661
-0.00352154
-0.000544157
-0.0037264
-0.000692616
-0.00391091
-0.000849842
-0.00409864
-0.00101584
-0.00429992
-0.00119114
-0.00451867
-0.00137647
-0.00475676
-0.00157264
-0.00501568
-0.00178048
-0.00529695
-0.00200091
-0.00560219
-0.00223499
-0.00593302
-0.002484
-0.0062906
-0.00274922
-0.00667615
-0.00303261
-0.00709586
-0.00758501
-0.0033157
-9.42916e-06
-0.000586
-4.41456e-05
-0.00151511
-0.000108186
-0.00224683
-0.000200485
-0.00277681
-0.000316197
-0.0031388
-0.000449333
-0.00338841
-0.000595014
-0.00358072
-0.000750447
-0.00375547
-0.000914681
-0.0039344
-0.00108786
-0.00412674
-0.00127059
-0.00433595
-0.00146363