/*--------------------------------*- C++ -*----------------------------------*\
  =========                 |
  \\      /  F ield         | OpenFOAM: The Open Source CFD Toolbox
   \\    /   O peration     | Website:  https://openfoam.org
    \\  /    A nd           | Version:  7
     \\/     M anipulation  |
\*---------------------------------------------------------------------------*/
FoamFile
{
    version     2.0;
    format      ascii;
    class       surfaceScalarField;
    location    "0.8";
    object      phi;
}
// * * * * * * * * * * * * * * * * * * * * * * * * * * * * * * * * * * * * * //

dimensions      [0 3 -1 0 0 0 0];

internalField   nonuniform List<scalar> 
614
(
0.000105172
-5.65079e-10
0.000105172
-6.49276e-10
0.000105172
-7.47817e-10
0.000105172
-8.62812e-10
0.000105172
-9.96793e-10
0.000105171
-1.15268e-09
0.000105171
-1.33466e-09
0.000105171
-1.54675e-09
0.000105171
-1.79311e-09
0.00010517
-2.07945e-09
0.00010517
-2.41224e-09
0.00010517
-2.79903e-09
0.000105169
-3.24846e-09
0.000105169
-3.77103e-09
0.000105168
-4.37796e-09
0.000105167
-5.08554e-09
-5.89961e-09
9.78999e-05
7.02181e-08
9.79115e-05
6.49053e-08
9.79221e-05
5.9201e-08
9.79316e-05
5.33792e-08
9.79401e-05
4.76445e-08
9.79476e-05
4.21441e-08
9.79542e-05
3.69771e-08
9.79599e-05
3.22048e-08
9.79648e-05
2.78586e-08
9.7969e-05
2.39478e-08
9.79726e-05
2.04651e-08
9.79756e-05
1.73918e-08
9.79782e-05
1.47017e-08
9.79804e-05
1.23643e-08
9.79822e-05
1.03468e-08
9.79837e-05
8.61608e-09
9.79849e-05
7.13981e-09
9.7986e-05
5.88732e-09
9.79868e-05
4.83007e-09
9.79875e-05
3.94195e-09
9.79881e-05
3.19942e-09
9.79885e-05
2.58145e-09
9.79889e-05
2.06947e-09
9.79892e-05
1.6472e-09
9.79894e-05
1.30048e-09
9.79896e-05
1.01708e-09
9.79897e-05
7.86492e-10
9.79898e-05
5.99733e-10
9.79899e-05
4.4916e-10
9.799e-05
3.283e-10
9.799e-05
2.31697e-10
9.799e-05
1.54763e-10
9.79901e-05
9.36503e-11
9.79901e-05
4.51469e-11
9.79901e-05
6.57631e-12
9.79901e-05
-2.42985e-11
9.79901e-05
-4.93749e-11
9.79901e-05
-7.02956e-11
9.799e-05
-8.84697e-11
9.799e-05
-1.05023e-10
9.799e-05
-1.20934e-10
9.799e-05
-1.37054e-10
9.799e-05
-1.54181e-10
9.79899e-05
-1.73e-10
9.79899e-05
-1.94221e-10
9.79899e-05
-2.18465e-10
9.79898e-05
-2.46693e-10
9.79898e-05
-2.79934e-10
9.79897e-05
-3.18944e-10
9.79896e-05
-3.64702e-10
9.79896e-05
-4.18676e-10
9.79895e-05
-4.80841e-10
9.79894e-05
-5.52349e-10
9.79893e-05
-6.36154e-10
9.79892e-05
-7.33975e-10
9.7989e-05
-8.47912e-10
9.79888e-05
-9.80521e-10
9.79886e-05
-1.13537e-09
9.79884e-05
-1.31577e-09
9.79881e-05
-1.52524e-09
9.79878e-05
-1.76875e-09
9.79875e-05
-2.05182e-09
9.7987e-05
-2.38087e-09
9.79866e-05
-2.76327e-09
9.7986e-05
-3.208e-09
9.79853e-05
-3.72455e-09
9.79846e-05
-4.3267e-09
-5.01969e-09
9.0122e-05
5.80414e-08
9.01332e-05
5.36774e-08
9.01434e-05
4.89853e-08
9.01526e-05
4.41913e-08
9.01608e-05
3.94645e-08
9.0168e-05
3.49263e-08
9.01743e-05
3.06594e-08
9.01798e-05
2.67149e-08
9.01846e-05
2.31197e-08
9.01886e-05
1.98821e-08
9.01921e-05
1.69968e-08
9.01951e-05
1.4449e-08
9.01975e-05
1.22175e-08
9.01996e-05
1.02774e-08
9.02014e-05
8.60203e-09
9.02028e-05
7.16415e-09
9.0204e-05
5.93718e-09
9.0205e-05
4.89585e-09
9.02058e-05
4.01659e-09
9.02065e-05
3.27781e-09
9.0207e-05
2.66002e-09
9.02075e-05
2.1458e-09
9.02078e-05
1.71974e-09
9.02081e-05
1.36832e-09
9.02083e-05
1.07978e-09
9.02085e-05
8.43958e-10
9.02086e-05
6.52108e-10
9.02087e-05
4.96757e-10
9.02088e-05
3.71542e-10
9.02089e-05
2.71077e-10
9.02089e-05
1.90813e-10
9.02089e-05
1.26931e-10
9.02089e-05
7.62263e-11
9.0209e-05
3.60225e-11
9.0209e-05
4.08782e-12
9.0209e-05
-2.14403e-11
9.02089e-05
-4.21473e-11
9.02089e-05
-5.93975e-11
9.02089e-05
-7.43615e-11
9.02089e-05
-8.79802e-11
9.02089e-05
-1.0107e-10
9.02089e-05
-1.14336e-10
9.02088e-05
-1.28433e-10
9.02088e-05
-1.43928e-10
9.02088e-05
-1.61397e-10
9.02087e-05
-1.81387e-10
9.02087e-05
-2.04714e-10
9.02086e-05
-2.32213e-10
9.02086e-05
-2.64524e-10
9.02085e-05
-3.02442e-10
9.02085e-05
-3.47122e-10
9.02084e-05
-3.98437e-10
9.02083e-05
-4.57621e-10
9.02082e-05
-5.27167e-10
9.0208e-05
-6.08262e-10
9.02079e-05
-7.02704e-10
9.02077e-05
-8.12777e-10
9.02075e-05
-9.41169e-10
9.02073e-05
-1.09049e-09
9.02071e-05
-1.26395e-09
9.02068e-05
-1.46568e-09
9.02064e-05
-1.70023e-09
9.0206e-05
-1.97294e-09
9.02055e-05
-2.28991e-09
9.0205e-05
-2.65863e-09
9.02043e-05
-3.08691e-09
9.02036e-05
-3.58608e-09
-4.16066e-09
8.17435e-05
8.17542e-05
4.30071e-08
8.17639e-05
3.92791e-08
8.17726e-05
3.5462e-08
8.17804e-05
3.16919e-08
8.17873e-05
2.80668e-08
8.17933e-05
2.46537e-08
8.17985e-05
2.14947e-08
8.1803e-05
1.86122e-08
8.18069e-05
1.60138e-08
8.18102e-05
1.36961e-08
8.1813e-05
1.16477e-08
8.18153e-05
9.85225e-09
8.18173e-05
8.29026e-09
8.1819e-05
6.94055e-09
8.18204e-05
5.78154e-09
8.18215e-05
4.79208e-09
8.18224e-05
3.95196e-09
8.18232e-05
3.24235e-09
8.18239e-05
2.64594e-09
8.18244e-05
2.14708e-09
8.18248e-05
1.73177e-09
8.18251e-05
1.38762e-09
8.18254e-05
1.10374e-09
8.18256e-05
8.70646e-10
8.18258e-05
6.80147e-10
8.18259e-05
5.25183e-10
8.1826e-05
3.99723e-10
8.1826e-05
2.98627e-10
8.18261e-05
2.1754e-10
8.18261e-05
1.52786e-10
8.18262e-05
1.01279e-10
8.18262e-05
6.04283e-11
8.18262e-05
2.80704e-11
8.18262e-05
2.39677e-12
8.18262e-05
-1.80962e-11
8.18262e-05
-3.4694e-11
8.18262e-05
-4.84964e-11
8.18262e-05
-6.04497e-11
8.18261e-05
-7.1314e-11
8.18261e-05
-8.17495e-11
8.18261e-05
-9.23229e-11
8.18261e-05
-1.03558e-10
8.1826e-05
-1.15906e-10
8.1826e-05
-1.29828e-10
8.1826e-05
-1.45781e-10
8.18259e-05
-1.64427e-10
8.18259e-05
-1.86433e-10
8.18258e-05
-2.12317e-10
8.18258e-05
-2.42698e-10
8.18257e-05
-2.78317e-10
8.18256e-05
-3.19326e-10
8.18255e-05
-3.66887e-10
8.18254e-05
-4.22722e-10
8.18253e-05
-4.87798e-10
8.18252e-05
-5.63612e-10
8.1825e-05
-6.52113e-10
8.18248e-05
-7.55142e-10
8.18246e-05
-8.74659e-10
8.18244e-05
-1.0136e-09
8.18241e-05
-1.17529e-09
8.18237e-05
-1.36335e-09
8.18233e-05
-1.58206e-09
8.18229e-05
-1.83631e-09
8.18224e-05
-2.13213e-09
8.18218e-05
-2.47576e-09
8.1821e-05
-2.87617e-09
-3.33725e-09
7.27735e-05
3.30666e-08
7.27825e-05
3.02333e-08
7.27907e-05
2.73227e-08
7.27979e-05
2.44406e-08
7.28043e-05
2.16637e-08
7.28099e-05
1.90444e-08
7.28148e-05
1.66163e-08
7.2819e-05
1.43976e-08
7.28226e-05
1.23951e-08
7.28257e-05
1.06068e-08
7.28284e-05
9.02486e-09
7.28306e-05
7.637e-09
7.28324e-05
6.42861e-09
7.2834e-05
5.38369e-09
7.28353e-05
4.48584e-09
7.28364e-05
3.71889e-09
7.28372e-05
3.0674e-09
7.2838e-05
2.51687e-09
7.28386e-05
2.054e-09
7.2839e-05
1.66673e-09
7.28394e-05
1.34423e-09
7.28397e-05
1.07694e-09
7.284e-05
8.56431e-10
7.28402e-05
6.7536e-10
7.28403e-05
5.27373e-10
7.28404e-05
4.06996e-10
7.28405e-05
3.09552e-10
7.28406e-05
2.31045e-10
7.28407e-05
1.68096e-10
7.28407e-05
1.17846e-10
7.28407e-05
7.78997e-11
7.28407e-05
4.62405e-11
7.28407e-05
2.11903e-11
7.28407e-05
1.33678e-12
7.28407e-05
-1.44842e-11
7.28407e-05
-2.72777e-11
7.28407e-05
-3.78926e-11
7.28407e-05
-4.7068e-11
7.28407e-05
-5.53924e-11
7.28407e-05
-6.33765e-11
7.28406e-05
-7.14596e-11
7.28406e-05
-8.00468e-11
7.28406e-05
-8.94791e-11
7.28406e-05
-1.00113e-10
7.28405e-05
-1.12311e-10
7.28405e-05
-1.26589e-10
7.28405e-05
-1.43457e-10
7.28404e-05
-1.63318e-10
7.28403e-05
-1.8663e-10
7.28403e-05
-2.13871e-10
7.28402e-05
-2.45288e-10
7.28401e-05
-2.81873e-10
7.284e-05
-3.24817e-10
7.28399e-05
-3.7487e-10
7.28398e-05
-4.33225e-10
7.28396e-05
-5.01562e-10
7.28395e-05
7.28393e-05
7.2839e-05
7.28387e-05
7.28384e-05
7.28381e-05
7.28376e-05
7.28371e-05
7.28366e-05
7.28359e-05
6.31923e-05
6.32005e-05
6.32079e-05
6.32145e-05
6.32203e-05
6.32255e-05
6.32299e-05
6.32338e-05
6.32371e-05
6.32399e-05
6.32423e-05
6.32443e-05
6.3246e-05
6.32475e-05
6.32487e-05
6.32496e-05
6.32505e-05
6.32511e-05
6.32517e-05
6.32521e-05
6.32525e-05
6.32527e-05
6.3253e-05
6.32532e-05
6.32533e-05
6.32534e-05
6.32535e-05
6.32535e-05
6.32536e-05
6.32536e-05
6.32536e-05
6.32537e-05
6.32537e-05
6.32537e-05
6.32537e-05
6.32536e-05
6.32536e-05
6.32536e-05
6.32536e-05
6.32536e-05
6.32536e-05
6.32536e-05
6.32535e-05
6.32535e-05
6.32535e-05
6.32534e-05
6.32534e-05
6.32534e-05
6.32533e-05
6.32532e-05
6.32532e-05
6.32531e-05
6.3253e-05
6.32529e-05
6.32528e-05
)
;

boundaryField
{
    inlet
    {
        type            calculated;
        value           nonuniform 0();
    }
    outlet
    {
        type            calculated;
        value           nonuniform 0();
    }
    wall
    {
        type            calculated;
        value           nonuniform 0();
    }
    wedge1
    {
        type            wedge;
        value           nonuniform List<scalar> 
344
(
-5.41224e-18
-4.55968e-18
-3.7495e-18
-5.05663e-18
-4.25442e-18
-3.50168e-18
-6.98826e-18
9.73113e-18
-4.62643e-18
-3.8891e-18
-3.19558e-18
-6.37244e-18
8.8966e-18
-4.22711e-18
-3.56068e-18
-2.92075e-18
-5.79401e-18
7.99743e-18
-3.83479e-18
-3.22381e-18
-2.65445e-18
-5.20351e-18
7.12046e-18
-3.48128e-18
-2.94383e-18
-2.43145e-18
-4.69315e-18
6.22633e-18
-3.11097e-18
-2.62584e-18
-2.17442e-18
-4.14181e-18
5.45864e-18
-2.79422e-18
-2.36764e-18
-1.95461e-18
-3.67147e-18
4.71224e-18
-2.4972e-18
-2.11066e-18
-1.7516e-18
-3.21935e-18
4.04345e-18
-2.25388e-18
-1.92052e-18
-1.60132e-18
-2.86479e-18
3.39118e-18
-1.99535e-18
-1.6965e-18
-1.41829e-18
-2.47935e-18
2.88292e-18
-1.78897e-18
-1.52934e-18
-1.27254e-18
-2.17564e-18
2.3981e-18
-1.60148e-18
-1.36364e-18
-1.14457e-18
-1.88886e-18
1.98324e-18
-1.46315e-18
-1.26318e-18
-1.06774e-18
-1.69534e-18
1.56903e-18
-1.31713e-18
-1.13465e-18
-9.67268e-19
-1.47693e-18
1.2647e-18
-1.22689e-18
-1.07353e-18
-9.20185e-19
-1.33924e-18
9.59391e-19
-1.15279e-18
-1.01748e-18
-8.80318e-19
-1.21714e-18
7.02877e-19
-1.09201e-18
-9.70361e-19
-8.45891e-19
-1.11066e-18
4.85967e-19
-1.04182e-18
-9.31068e-19
-8.15635e-19
-1.02043e-18
3.04167e-19
-1.00226e-18
-8.98862e-19
-7.90937e-19
-9.43455e-19
1.51812e-19
-9.68235e-19
-8.72009e-19
-7.6997e-19
-8.80395e-19
2.38283e-20
-9.41045e-19
-8.50296e-19
-7.53994e-19
-8.28765e-19
-8.28087e-20
-9.1823e-19
-8.32203e-19
-7.40038e-19
-7.84675e-19
-1.71367e-19
-9.01307e-19
-8.19149e-19
-7.29723e-19
-7.49719e-19
-2.43677e-19
-8.87315e-19
-8.06456e-19
-7.18951e-19
-7.18074e-19
-3.01571e-19
-8.70447e-19
-7.91521e-19
-7.04455e-19
-6.85748e-19
-3.40259e-19
-8.37935e-19
-7.52088e-19
-6.68284e-19
-6.25674e-19
-3.38119e-19
-7.57467e-19
-6.7479e-19
-5.93366e-19
-5.42955e-19
-3.10643e-19
-7.17383e-19
-6.42787e-19
-5.57417e-19
-5.14333e-19
-3.21216e-19
-6.76956e-19
-5.97102e-19
-5.23818e-19
-4.66002e-19
-3.15189e-19
-6.60846e-19
-5.94627e-19
-5.22879e-19
-4.7536e-19
-3.53617e-19
-6.09728e-19
-5.41005e-19
-4.77171e-19
-4.16663e-19
-3.1491e-19
-5.88126e-19
-5.24305e-19
-4.52359e-19
-4.00748e-19
-3.1323e-19
-5.55274e-19
-4.79246e-19
-4.12512e-19
-3.48047e-19
-2.82407e-19
-4.83662e-19
-4.1073e-19
-3.43196e-19
-2.81192e-19
-2.24432e-19
-4.27825e-19
-3.60889e-19
-3.0083e-19
-2.41364e-19
-2.02041e-19
-3.64879e-19
-3.01543e-19
-2.42907e-19
-1.87971e-19
-1.55703e-19
-3.32582e-19
-2.69678e-19
-2.18042e-19
-1.64889e-19
-1.49639e-19
-2.71045e-19
-2.15126e-19
-1.65771e-19
-1.18284e-19
-1.06394e-19
-2.26947e-19
-1.77619e-19
-1.38443e-19
-9.31776e-20
-9.62186e-20
-1.78796e-19
-1.33314e-19
-9.33094e-20
-5.39211e-20
-5.9384e-20
-1.60044e-19
-1.13993e-19
-7.96105e-20
-4.07731e-20
-6.06449e-20
-1.09101e-19
-7.03383e-20
-3.74837e-20
-2.39427e-21
-2.42036e-20
-7.49558e-20
-4.20924e-20
-1.78434e-20
1.51073e-20
-1.99036e-20
-3.64633e-20
-6.23474e-21
1.69118e-20
4.57028e-20
7.71538e-21
-2.85248e-20
-9.74466e-21
6.15598e-21
3.08223e-20
-1.91512e-20
-2.39253e-20
1.96362e-21
1.67802e-20
4.43512e-20
-1.77727e-20
1.61664e-20
4.05017e-20
5.73944e-20
8.55192e-20
1.88147e-20
4.72043e-20
6.67913e-20
7.76062e-20
1.06198e-19
2.08131e-20
8.19751e-20
1.00012e-19
1.11388e-19
1.38037e-19
4.43368e-20
8.99646e-20
1.08916e-19
1.16299e-19
1.46279e-19
3.02802e-20
1.91812e-19
1.2892e-19
1.41805e-19
1.49005e-19
1.78292e-19
5.1319e-20
2.30138e-19
1.55571e-19
1.64212e-19
1.63184e-19
1.94949e-19
4.0652e-20
2.78133e-19
1.87489e-19
1.94936e-19
1.95871e-19
2.2906e-19
5.69171e-20
3.04615e-19
1.95564e-19
2.03886e-19
2.00778e-19
2.39584e-19
3.40231e-20
3.65086e-19
2.38094e-19
2.40037e-19
2.35554e-19
2.7718e-19
4.63835e-20
4.15751e-19
2.6651e-19
2.64483e-19
2.51817e-19
2.99928e-19
2.72119e-20
4.83223e-19
3.06203e-19
3.00519e-19
2.87932e-19
3.40303e-19
5.29611e-19
3.21655e-19
3.16159e-19
2.98166e-19
3.60184e-19
6.11143e-19
3.69773e-19
3.56431e-19
3.3636e-19
4.06249e-19
6.8822e-19
4.0623e-19
3.86947e-19
3.56574e-19
4.39531e-19
7.82756e-19
4.53963e-19
4.30527e-19
4.00173e-19
4.93916e-19
8.60397e-19
4.76898e-19
4.5265e-19
4.155e-19
5.274e-19
9.78201e-19
5.34346e-19
5.00443e-19
4.60898e-19
5.90852e-19
1.10178e-18
5.85636e-19
5.42859e-19
4.9125e-19
6.44426e-19
1.24769e-18
6.45905e-19
5.96843e-19
5.40941e-19
7.18947e-19
1.38491e-18
6.85694e-19
6.32317e-19
5.67075e-19
7.78045e-19
1.56815e-18
7.59532e-19
6.92817e-19
6.20911e-19
8.67044e-19
)
;
    }
    wedge2
    {
        type            wedge;
        value           nonuniform List<scalar> 
344
(
-3.3309e-18
-2.65555e-18
-2.04208e-18
-3.01484e-18
-2.40778e-18
-1.84884e-18
-5.55523e-18
1.0944e-17
-2.72726e-18
-2.18217e-18
-1.68287e-18
-5.07332e-18
9.98904e-18
-2.39649e-18
-1.90946e-18
-1.47694e-18
-4.53137e-18
9.05581e-18
-2.07155e-18
-1.65557e-18
-1.27031e-18
-4.01789e-18
8.12293e-18
-1.73859e-18
-1.3699e-18
-1.04005e-18
-3.46864e-18
7.27651e-18
-1.46523e-18
-1.15724e-18
-8.71484e-19
-3.02375e-18
6.40496e-18
-1.18843e-18
-9.25835e-19
-6.98282e-19
-2.57305e-18
5.63356e-18
-9.45661e-19
-7.37325e-19
-5.434e-19
-2.18554e-18
4.91685e-18
-7.03876e-19
-5.26881e-19
-3.71626e-19
-1.78381e-18
4.31966e-18
-5.3089e-19
-3.94375e-19
-2.67813e-19
-1.49508e-18
3.71296e-18
-3.56856e-19
-2.47087e-19
-1.60409e-19
-1.20331e-18
3.21204e-18
-2.11675e-19
-1.37662e-19
-6.67621e-20
-9.68415e-19
2.7626e-18
-6.11754e-20
8.43906e-22
4.90104e-20
-7.08288e-19
2.42465e-18
4.19239e-20
7.85055e-20
1.14799e-19
-5.34857e-19
2.07886e-18
1.65255e-19
1.94217e-19
2.10365e-19
-3.36179e-19
1.82578e-18
2.73235e-19
2.88961e-19
2.92187e-19
-1.71216e-19
1.60549e-18
3.66851e-19
3.69753e-19
3.61013e-19
-3.40316e-20
1.4175e-18
4.46943e-19
4.38405e-19
4.17918e-19
8.14925e-20
1.25726e-18
5.16771e-19
4.96858e-19
4.66438e-19
1.77404e-19
1.12213e-18
5.74185e-19
5.45788e-19
5.06686e-19
2.58921e-19
1.00963e-18
6.23075e-19
5.87134e-19
5.41653e-19
3.27626e-19
9.16069e-19
6.63279e-19
6.21277e-19
5.69897e-19
3.83233e-19
8.38738e-19
6.98327e-19
6.51299e-19
5.94385e-19
4.30496e-19
7.74225e-19
7.27004e-19
6.73969e-19
6.12181e-19
4.66347e-19
7.19796e-19
7.45012e-19
6.87934e-19
6.2103e-19
4.89171e-19
6.66704e-19
7.40879e-19
6.72012e-19
6.03848e-19
4.7395e-19
5.89928e-19
6.83398e-19
6.13753e-19
5.44304e-19
4.27538e-19
5.02045e-19
6.61851e-19
5.97099e-19
5.20743e-19
4.28166e-19
4.63964e-19
6.36307e-19
5.6373e-19
4.97083e-19
4.03291e-19
4.18932e-19
6.32099e-19
5.71098e-19
5.04082e-19
4.31377e-19
4.26232e-19
5.90462e-19
5.25314e-19
4.64691e-19
3.87574e-19
3.62784e-19
5.76397e-19
5.14839e-19
4.44892e-19
3.83468e-19
3.41499e-19
5.49531e-19
4.7472e-19
4.0902e-19
3.4012e-19
2.95166e-19
4.82684e-19
4.10131e-19
3.42859e-19
2.80684e-19
2.24902e-19
4.30666e-19
3.63434e-19
3.03016e-19
2.46779e-19
1.92715e-19
3.70824e-19
3.06641e-19
2.4714e-19
1.98185e-19
1.38456e-19
3.41122e-19
2.76906e-19
2.23981e-19
1.79093e-19
1.25815e-19
2.81839e-19
2.24205e-19
1.73189e-19
1.35945e-19
7.68851e-20
2.39797e-19
1.88384e-19
1.47208e-19
1.13984e-19
6.15462e-20
1.93621e-19
1.45701e-19
1.03371e-19
7.7751e-20
1.97531e-20
1.76871e-19
1.28024e-19
9.0986e-20
6.7669e-20
1.59882e-20
1.28053e-19
8.61166e-20
5.02565e-20
3.25501e-20
-2.5796e-20
9.62417e-20
5.97912e-20
3.21528e-20
1.86345e-20
-3.59732e-20
6.03801e-20
2.60985e-20
-8.69758e-22
-7.91674e-21
-7.02224e-20
5.54454e-20
3.20851e-20
1.18715e-20
1.16043e-20
-5.0972e-20
5.43378e-20
2.32632e-20
3.56576e-21
3.50385e-21
-6.12728e-20
1.83538e-20
-1.18755e-20
-3.43148e-20
-3.12563e-20
-1.08405e-19
-7.86548e-21
-3.41723e-20
-5.13122e-20
-4.43934e-20
-1.22821e-19
-3.69841e-20
-6.27067e-20
-8.13214e-20
-6.73836e-20
-1.60914e-19
-3.83072e-20
-6.60911e-20
-8.18018e-20
-6.52787e-20
-1.63843e-19
1.95993e-20
-6.95773e-20
-9.26308e-20
-1.09413e-19
-8.53645e-20
-2.04497e-19
1.28638e-20
-8.73934e-20
-1.07726e-19
-1.17699e-19
-8.81575e-20
-2.16714e-19
1.74977e-21
-1.08972e-19
-1.29876e-19
-1.4347e-19
-1.06002e-19
-2.59829e-19
1.83111e-20
-1.04975e-19
-1.28819e-19
-1.4031e-19
-9.75642e-20
-2.68238e-19
7.98715e-21
-1.33442e-19
-1.53317e-19
-1.65693e-19
-1.13062e-19
-3.17124e-19
1.56755e-20
-1.45494e-19
-1.64194e-19
-1.71e-19
-1.09984e-19
-3.40752e-19
1.62912e-20
-1.66084e-19
-1.84391e-19
-1.94349e-19
-1.20357e-19
4.92624e-20
-1.59273e-19
-1.81593e-19
-1.89752e-19
-1.05496e-19
5.99317e-20
-1.81534e-19
-2.00452e-19
-2.10714e-19
-1.11147e-19
9.00078e-20
-1.87938e-19
-2.06073e-19
-2.10884e-19
-9.73753e-20
1.19997e-19
-2.00742e-19
-2.20711e-19
-2.31172e-19
-9.70208e-20
1.87071e-19
-1.83077e-19
-2.09188e-19
-2.19393e-19
-6.68352e-20
2.37409e-19
-1.93346e-19
-2.17876e-19
-2.33283e-19
-5.6266e-20
3.09295e-19
-1.89778e-19
-2.14813e-19
-2.26984e-19
-2.37174e-20
3.90453e-19
-1.86317e-19
-2.15961e-19
-2.34093e-19
1.82166e-21
5.17789e-19
-1.51859e-19
-1.8989e-19
-2.10637e-19
5.92286e-20
6.39077e-19
-1.40228e-19
-1.79523e-19
-2.07356e-19
1.0442e-19
)
;
    }
    axis
    {
        type            empty;
        value           nonuniform 0();
    }
    procBoundary37to31
    {
        type            processor;
        value           nonuniform List<scalar> 
69
(
6.49643e-10
7.46934e-10
8.60433e-10
9.92846e-10
1.14712e-09
1.32662e-09
1.53602e-09
1.78005e-09
2.06361e-09
2.39317e-09
2.77615e-09
3.22119e-09
3.73827e-09
4.33934e-09
5.03739e-09
5.85106e-09
6.7876e-09
-8.28011e-08
-7.65243e-08
-6.97824e-08
-6.29016e-08
-5.61256e-08
-4.9629e-08
-4.35292e-08
-3.78983e-08
-3.27732e-08
-2.8164e-08
-2.40615e-08
-2.04432e-08
-1.72776e-08
-1.45282e-08
-1.21561e-08
-1.01219e-08
-8.38735e-09
-6.91611e-09
-5.67449e-09
-4.6317e-09
-3.75995e-09
-3.03452e-09
-2.43352e-09
-1.93782e-09
-1.53078e-09
-1.19804e-09
-9.27259e-10
-7.07887e-10
-5.30957e-10
-3.88882e-10
-2.75268e-10
-1.84725e-10
-1.12749e-10
-5.55683e-11
-1.0047e-11
2.64442e-11
5.61163e-11
8.09015e-11
1.02457e-10
1.22096e-10
1.40966e-10
1.60072e-10
1.80356e-10
2.02631e-10
2.2777e-10
2.56425e-10
2.89678e-10
3.28801e-10
3.74663e-10
4.28399e-10
-0.000105172
4.91859e-10
)
;
    }
    procBoundary37to32
    {
        type            processor;
        value           uniform 0.000105166;
    }
    procBoundary37to36
    {
        type            processor;
        value           nonuniform List<scalar> 5(-9.78873e-05 -9.01098e-05 -8.17319e-05 4.64623e-08 -7.27635e-05);
    }
    procBoundary37to38
    {
        type            processor;
        value           nonuniform List<scalar> 4(9.79837e-05 9.02027e-05 8.18202e-05 7.28351e-05);
    }
    procBoundary37to42
    {
        type            processor;
        value           uniform -6.31832e-05;
    }
    procBoundary37to43
    {
        type            processor;
        value           nonuniform List<scalar> 
68
(
-5.8075e-10
-6.72257e-10
-7.78878e-10
-9.03061e-10
-1.04756e-09
-1.21564e-09
-1.41107e-09
-1.63851e-09
-1.90272e-09
-2.21053e-09
-2.56488e-09
2.40373e-08
2.20087e-08
1.9915e-08
1.78348e-08
1.58251e-08
1.39252e-08
1.21604e-08
1.05451e-08
9.0849e-09
7.77923e-09
6.62279e-09
5.60719e-09
4.72209e-09
3.9561e-09
3.29743e-09
2.73443e-09
2.2559e-09
1.85133e-09
1.51103e-09
1.2262e-09
9.88936e-10
7.9224e-10
6.29941e-10
4.96651e-10
3.87708e-10
2.99093e-10
2.27358e-10
1.69575e-10
1.23255e-10
8.6292e-11
5.6921e-11
3.36622e-11
1.52722e-11
7.17237e-13
-1.08602e-11
-2.02018e-11
-2.79337e-11
-3.45946e-11
-4.06225e-11
-4.6395e-11
-5.22277e-11
-5.84165e-11
-6.5219e-11
-7.28856e-11
-8.16841e-11
-9.20052e-11
-1.04212e-10
-1.1859e-10
-1.35468e-10
-1.55149e-10
-1.77869e-10
-2.0441e-10
-2.35578e-10
-2.71915e-10
-3.14338e-10
6.32527e-05
-3.64161e-10
)
;
    }
}


// ************************************************************************* //
