/*--------------------------------*- C++ -*----------------------------------*\
  =========                 |
  \\      /  F ield         | OpenFOAM: The Open Source CFD Toolbox
   \\    /   O peration     | Website:  https://openfoam.org
    \\  /    A nd           | Version:  7
     \\/     M anipulation  |
\*---------------------------------------------------------------------------*/
FoamFile
{
    version     2.0;
    format      ascii;
    class       surfaceScalarField;
    location    "0.6";
    object      phi;
}
// * * * * * * * * * * * * * * * * * * * * * * * * * * * * * * * * * * * * * //

dimensions      [0 3 -1 0 0 0 0];

internalField   nonuniform List<scalar> 
615
(
0.000127301
-4.53365e-06
0.000128811
-4.76421e-06
0.000130374
-4.94511e-06
0.000131975
-5.07987e-06
0.000133601
-5.17252e-06
0.00013524
-5.22737e-06
0.000136883
-5.24884e-06
0.00013852
-5.24134e-06
0.000140143
-5.20915e-06
0.000141747
-5.15637e-06
0.000143327
-5.08693e-06
0.000144878
-5.00449e-06
0.000146398
-4.91244e-06
0.000147884
-4.81378e-06
0.000149335
-4.71105e-06
0.00015075
-4.60624e-06
0.000152129
-4.50064e-06
0.000153471
-4.39473e-06
0.000154777
-4.2882e-06
0.000156044
-4.17987e-06
0.000157272
-4.06787e-06
0.000158459
-3.94979e-06
0.000159602
-3.82292e-06
0.000160698
-3.68461e-06
0.000161742
-3.53257e-06
0.000162732
-3.36521e-06
0.000163661
-3.18189e-06
0.000164526
-2.98308e-06
0.000165324
-2.77038e-06
0.000166052
-2.54651e-06
0.000166709
-2.31505e-06
0.000167293
-2.08024e-06
0.000167807
-1.84659e-06
0.000168253
-1.6186e-06
0.000168635
-1.40041e-06
0.000168957
-1.19556e-06
0.000169224
-1.00682e-06
0.000169443
-8.36087e-07
0.00016962
-6.84387e-07
0.000169759
-5.51921e-07
0.000169868
-4.38189e-07
0.000169951
-3.42139e-07
0.000170013
-2.62315e-07
0.000170057
-1.97018e-07
0.000170089
-1.44438e-07
0.000170109
-1.02764e-07
0.000170122
-7.02665e-08
0.000170129
-4.53573e-08
0.000170132
-2.66191e-08
0.000170132
-1.2821e-08
0.000170129
-2.919e-09
0.000170126
3.9657e-09
0.000170121
8.5367e-09
0.000170116
1.13715e-08
0.000170111
1.29254e-08
0.000170106
1.3555e-08
0.000170102
1.35354e-08
1.30761e-08
0.00014048
-4.20061e-07
0.000140844
-1.264e-06
0.000141446
-2.09235e-06
0.000142275
-2.88605e-06
0.000143315
-3.62991e-06
0.000144547
-4.31222e-06
0.000145948
-4.92453e-06
0.000147495
-5.46171e-06
0.000149166
-5.92173e-06
0.000150938
-6.30522e-06
0.000152789
-6.61493e-06
0.000154699
-6.85518e-06
0.00015665
-7.03131e-06
0.000158627
-7.14932e-06
0.000160615
-7.21548e-06
0.000162602
-7.23607e-06
0.000164578
-7.21725e-06
0.000166534
-7.16496e-06
0.000168463
-7.08479e-06
0.000170358
-6.98203e-06
0.000172215
-6.86158e-06
0.00017403
-6.72791e-06
0.000175801
-6.58499e-06
0.000177527
-6.43615e-06
0.000179204
-6.28397e-06
0.000180834
-6.13014e-06
0.000182414
-5.9753e-06
0.000183945
-5.81903e-06
0.000185425
-5.65984e-06
0.000186853
-5.49531e-06
0.000188225
-5.32235e-06
0.00018954
-5.13753e-06
0.000190793
-4.93753e-06
0.00019198
-4.71955e-06
0.000193096
-4.48173e-06
0.000194138
-4.22351e-06
0.0001951
-3.9458e-06
0.000195981
-3.65104e-06
0.000196778
-3.34307e-06
0.00019749
-3.02687e-06
0.000198117
-2.70818e-06
0.000198664
-2.39306e-06
0.000199133
-2.08745e-06
0.000199529
-1.79673e-06
0.000199859
-1.52541e-06
0.000200129
-1.27693e-06
0.000200347
-1.05353e-06
0.000200518
-8.56248e-07
0.000200652
-6.85078e-07
0.000200752
-5.39083e-07
0.000200827
-4.16629e-07
0.00020088
-3.15597e-07
0.000200917
-2.33586e-07
0.00020094
-1.68091e-07
0.000200954
-1.16648e-07
0.000200961
-7.69356e-08
0.000200962
-4.68449e-08
0.00020096
-2.45139e-08
0.000200956
-8.34219e-09
0.00020095
3.02443e-09
0.000200943
1.06933e-08
0.000200936
1.55674e-08
0.000200929
1.83682e-08
0.000200922
1.96627e-08
0.000200916
1.98902e-08
0.00020091
1.93867e-08
1.84052e-08
0.000162102
-5.69329e-07
0.000162552
-1.71372e-06
0.000163295
-2.83576e-06
0.000164317
-3.90795e-06
0.000165596
-4.90881e-06
0.000167106
-5.82215e-06
0.000168818
-6.63679e-06
0.000170703
-7.34643e-06
0.00017273
-7.94923e-06
0.000174872
-8.44705e-06
0.000177102
-8.84456e-06
0.000179395
-9.14841e-06
0.00018173
-9.36653e-06
0.000184088
-9.50745e-06
0.000186453
-9.57995e-06
0.000188809
-9.59264e-06
0.000191146
-9.55383e-06
0.000193452
-9.4714e-06
0.00019572
-9.35269e-06
0.000197943
-9.20454e-06
0.000200114
-9.03326e-06
0.000202231
-8.84452e-06
0.000204289
-8.64334e-06
0.000206287
-8.4339e-06
0.000208223
-8.21945e-06
0.000210095
-8.00208e-06
0.000211902
-7.78261e-06
0.000213643
-7.56054e-06
0.000215318
-7.33407e-06
0.000216923
-7.10027e-06
0.000218456
-6.85541e-06
0.000219914
-6.59544e-06
0.000221292
-6.31643e-06
0.000222588
-6.01523e-06
0.000223796
-5.68991e-06
0.000224913
-5.34023e-06
0.000225935
-4.96777e-06
0.00022686
-4.57606e-06
0.000227687
-4.17032e-06
0.000228418
-3.75713e-06
0.000229053
-3.34394e-06
0.000229599
-2.93844e-06
0.000230059
-2.54803e-06
0.000230442
-2.17931e-06
0.000230754
-1.83766e-06
0.000231004
-1.527e-06
0.0002312
-1.24972e-06
0.000231351
-1.00667e-06
0.000231463
-7.97397e-07
0.000231544
-6.20315e-07
0.000231601
-4.7302e-07
0.000231638
-3.52559e-07
0.00023166
-2.55698e-07
0.000231671
-1.79136e-07
0.000231674
-1.19684e-07
0.000231671
-7.43816e-08
0.000231665
-4.05716e-08
0.000231656
-1.59388e-08
0.000231647
1.49386e-09
0.000231636
1.33652e-08
0.000231626
2.10123e-08
0.000231616
2.55146e-08
0.000231607
2.77224e-08
0.000231598
2.82974e-08
0.00023159
2.7747e-08
0.000231583
2.64539e-08
2.4703e-08
0.00018373
-7.52536e-07
0.000184282
-2.26614e-06
0.000185194
-3.74819e-06
0.000186446
-5.15964e-06
0.000188008
-6.47069e-06
0.000189846
-7.65964e-06
0.000191921
-8.71228e-06
0.000194196
-9.62142e-06
0.000196633
-1.03861e-05
0.000199196
-1.10104e-05
0.000201853
-1.15017e-05
0.000204575
-1.18702e-05
0.000207336
-1.2127e-05
0.000210112
-1.22842e-05
0.000212886
-1.23535e-05
0.00021564
-1.23466e-05
0.00021836
-1.22742e-05
0.000221036
-1.21466e-05
0.000223656
-1.19732e-05
0.000226214
-1.17627e-05
0.000228704
-1.15228e-05
0.00023112
-1.12608e-05
0.000233459
-1.09826e-05
0.000235719
-1.06935e-05
0.000237897
-1.03974e-05
0.000239992
-1.00968e-05
0.000242002
-9.79278e-06
0.000243926
-9.48476e-06
0.000245763
-9.17067e-06
0.000247509
-8.84715e-06
0.000249164
-8.50995e-06
0.000250723
-8.15448e-06
0.000252183
-7.77647e-06
0.00025354
-7.37264e-06
0.000254792
-6.94128e-06
0.000255934
-6.48272e-06
0.000256966
-5.99957e-06
0.000257887
-5.49669e-06
0.000258697
-4.98095e-06
0.000259401
-4.46068e-06
0.000260002
-3.94509e-06
0.000260507
-3.44352e-06
0.000260924
-2.96472e-06
0.000261261
-2.51631e-06
0.000261527
-2.10429e-06
0.000261733
-1.7328e-06
0.000261888
-1.40404e-06
0.000261999
-1.11839e-06
0.000262077
-8.74655e-07
0.000262127
-6.70353e-07
0.000262156
-5.02105e-07
0.000262169
-3.65971e-07
0.000262171
-2.5777e-07
0.000262165
-1.73337e-07
0.000262154
-1.08719e-07
0.00026214
-6.03061e-08
0.000262125
-2.49072e-08
0.000262109
2.29578e-10
0.000262093
1.74227e-08
0.000262077
2.85546e-08
0.000262063
3.51671e-08
0.00026205
3.8476e-08
0.000262039
3.94303e-08
0.000262028
3.87588e-08
0.000262019
3.70122e-08
0.000262011
3.45999e-08
3.18208e-08
0.000205365
-9.77207e-07
0.000206043
-2.94434e-06
0.000207162
-4.86724e-06
0.000208693
-6.69089e-06
0.000210597
-8.37456e-06
0.000212827
-9.88992e-06
0.000215335
-1.12196e-05
0.000218069
-1.23562e-05
0.000220984
-1.33007e-05
0.000224034
-1.40605e-05
0.00022718
-1.46476e-05
0.000230386
-1.50763e-05
0.000233622
-1.53626e-05
0.00023686
-1.55224e-05
0.000240078
-1.55718e-05
0.000243257
-1.55258e-05
0.000246382
-1.53984e-05
0.000249438
-1.52029e-05
0.000252416
0.000255306
0.000258104
0.000260803
0.0002634
0.000265892
0.000268278
0.000270555
0.000272724
0.000274782
0.000276729
0.000278562
0.000280279
0.000281879
0.000283357
0.000284713
0.000285944
0.000287049
0.00028803
0.000288887
0.000289625
0.00029025
0.000290768
0.00029119
0.000291525
0.000291783
0.000291976
0.000292114
0.000292207
0.000292264
0.000292294
0.000292303
0.000292297
0.000292282
0.00029226
0.000292235
0.000292208
0.000292181
0.000292155
0.000292131
0.000292109
0.000292089
0.000292072
0.000292056
0.000292042
0.00029203
0.00029202
0.000292011
0.00022701
0.000227846
0.000229223
0.000231102
0.000233428
0.000236138
0.000239168
0.000242454
0.000245934
0.000249554
0.000253264
0.00025702
0.000260786
0.000264529
0.000268224
0.000271847
0.000275382
)
;

boundaryField
{
    inlet
    {
        type            calculated;
        value           nonuniform List<scalar> 5(-0.000140359 -0.000161953 -0.000183546 -0.00020514 -0.000226734);
    }
    outlet
    {
        type            calculated;
        value           nonuniform 0();
    }
    wall
    {
        type            calculated;
        value           nonuniform 0();
    }
    wedge1
    {
        type            wedge;
        value           nonuniform List<scalar> 
344
(
4.04628e-17
5.10048e-18
5.94367e-17
7.48991e-18
8.39893e-17
1.56239e-16
2.48135e-17
2.2217e-16
3.48173e-17
3.06106e-16
2.7321e-16
4.55907e-17
3.86047e-16
6.32164e-17
5.28952e-16
3.86936e-16
6.58765e-17
5.44402e-16
9.0593e-17
7.42634e-16
4.94167e-16
8.45664e-17
6.92803e-16
1.15811e-16
9.41166e-16
5.93598e-16
1.01944e-16
8.29268e-16
1.3895e-16
1.12116e-15
6.83721e-16
1.17527e-16
9.51726e-16
1.595e-16
1.28019e-15
7.63787e-16
1.3114e-16
1.05916e-15
1.77282e-16
1.41725e-15
8.33416e-16
1.4293e-16
1.15127e-15
1.92439e-16
1.53228e-15
1.07721e-16
8.92529e-16
1.52861e-16
1.22819e-15
2.04967e-16
1.62585e-15
1.1379e-16
9.41327e-16
1.60978e-16
1.29053e-15
2.14986e-16
1.6994e-15
1.18868e-16
9.80604e-16
1.67575e-16
1.33941e-15
2.22794e-16
1.75452e-15
1.22955e-16
1.01058e-15
1.72687e-16
1.37556e-15
2.28515e-16
1.79288e-15
1.25754e-16
1.03216e-15
1.76088e-16
1.40032e-15
2.32097e-16
1.81623e-15
1.27567e-16
1.04631e-15
1.78223e-16
1.41479e-15
2.33969e-16
1.82537e-15
1.28944e-16
1.05333e-15
1.7914e-16
1.41951e-15
2.34249e-16
1.82203e-15
1.29158e-16
1.05393e-15
1.79032e-16
1.41585e-15
2.33179e-16
1.80827e-15
1.28887e-16
1.0493e-15
1.78068e-16
1.4052e-15
2.31008e-16
1.7859e-15
1.28359e-16
1.04007e-15
1.76382e-16
1.38871e-15
2.27891e-16
1.26939e-16
1.02715e-15
1.74075e-16
1.36749e-15
2.23994e-16
1.25311e-16
1.01146e-15
1.71295e-16
1.34253e-15
2.19532e-16
1.23605e-16
9.93488e-16
1.68139e-16
1.31466e-15
2.14595e-16
1.21368e-16
9.74004e-16
1.64736e-16
1.28472e-15
2.09294e-16
1.192e-16
9.53539e-16
1.61162e-16
1.25334e-15
2.03752e-16
1.16874e-16
9.3246e-16
1.5744e-16
1.22098e-15
1.98054e-16
1.14495e-16
9.11053e-16
1.53671e-16
1.18801e-15
1.9225e-16
1.12112e-16
8.8944e-16
1.49838e-16
1.15455e-15
1.86344e-16
1.09755e-16
8.67619e-16
1.46007e-16
1.12059e-15
1.80404e-16
1.07258e-16
8.45182e-16
1.41905e-16
1.08567e-15
1.7416e-16
1.04666e-16
8.2199e-16
1.37597e-16
1.04971e-15
1.67695e-16
1.01925e-16
7.97546e-16
1.33324e-16
1.0121e-15
1.61159e-16
9.8976e-17
7.71284e-16
1.28726e-16
9.72253e-16
1.54268e-16
9.57288e-17
7.42734e-16
1.23724e-16
9.29639e-16
1.46965e-16
9.2186e-17
7.11414e-16
1.18278e-16
8.83834e-16
1.39176e-16
8.81419e-17
6.77052e-16
1.12334e-16
8.34592e-16
1.30877e-16
8.36847e-17
6.39531e-16
1.05884e-16
7.8188e-16
1.22073e-16
7.88777e-17
5.99017e-16
9.89525e-17
7.26033e-16
1.1285e-16
7.36773e-17
5.55787e-16
9.16202e-17
6.67559e-16
1.03307e-16
6.82104e-17
5.10439e-16
8.4001e-17
6.07242e-16
9.3537e-17
6.25713e-17
4.63709e-16
7.61783e-17
5.46058e-16
8.37044e-17
5.67251e-17
4.16396e-16
6.82868e-17
4.85114e-16
7.40162e-17
5.08991e-17
3.69449e-16
6.05246e-17
4.2553e-16
6.46129e-17
4.52422e-17
3.23765e-16
5.30113e-17
3.68351e-16
5.56612e-17
3.97799e-17
2.80132e-16
4.58704e-17
3.14525e-16
4.72943e-17
3.46239e-17
2.39231e-16
3.92179e-17
2.6481e-16
3.96125e-17
2.98695e-17
2.01667e-16
3.31269e-17
2.19755e-16
3.27265e-17
2.55731e-17
1.67768e-16
2.76887e-17
1.79658e-16
2.66491e-17
2.1773e-17
1.37705e-16
2.28898e-17
1.44637e-16
2.1375e-17
1.84207e-17
1.1149e-16
1.8726e-17
1.14591e-16
1.69026e-17
1.5505e-17
8.9018e-17
1.51879e-17
8.92349e-17
1.31613e-17
1.30625e-17
7.00647e-17
1.2207e-17
6.81854e-17
1.00741e-17
1.09934e-17
5.43384e-17
9.73811e-18
5.10185e-17
7.56738e-18
9.28749e-18
4.14971e-17
7.74478e-18
3.72475e-17
5.5746e-18
7.92815e-18
3.1179e-17
6.16159e-18
2.63829e-17
4.03166e-18
6.81019e-18
2.30015e-17
4.91296e-18
1.79805e-17
2.8151e-18
6.00659e-18
1.66679e-17
3.89602e-18
1.15209e-17
1.83173e-18
5.08283e-18
1.17603e-17
3.09425e-18
6.85354e-18
1.145e-18
4.43003e-18
7.8172e-18
2.73096e-18
3.39613e-18
8.54088e-19
3.98999e-18
5.1287e-18
2.24723e-18
9.05539e-19
4.44866e-19
3.69273e-18
3.17826e-18
1.90306e-18
-8.14915e-19
1.80565e-19
3.47451e-18
1.79627e-18
1.6414e-18
-1.9176e-18
2.65549e-21
3.31313e-18
8.55878e-19
1.46938e-18
-2.56099e-18
-1.03333e-19
3.22513e-18
2.87755e-19
1.35818e-18
-2.89664e-18
-1.65082e-19
3.12866e-18
-5.788e-20
1.2839e-18
-3.02479e-18
-2.23177e-19
3.11277e-18
-1.93082e-19
1.21926e-18
-2.98414e-18
-2.33239e-19
3.13419e-18
-1.81017e-19
1.22677e-18
-2.79736e-18
-1.95905e-19
3.13217e-18
-1.24424e-19
1.24572e-18
-2.5471e-18
-1.49356e-19
)
;
    }
    wedge2
    {
        type            wedge;
        value           nonuniform List<scalar> 
344
(
4.04006e-17
5.08227e-18
5.94e-17
7.49249e-18
8.39999e-17
1.55663e-16
2.4165e-17
2.21698e-16
3.42774e-17
3.05879e-16
2.72175e-16
4.42005e-17
3.8501e-16
6.20359e-17
5.28351e-16
3.84397e-16
6.32592e-17
5.42057e-16
8.8484e-17
7.4113e-16
4.91086e-16
8.16598e-17
6.90249e-16
1.13563e-16
9.39416e-16
5.90009e-16
9.85175e-17
8.26303e-16
1.36321e-16
1.11911e-15
6.80026e-16
1.13859e-16
9.48622e-16
1.56677e-16
1.27798e-15
7.60132e-16
1.27587e-16
1.05606e-15
1.74502e-16
1.41481e-15
8.29804e-16
1.39425e-16
1.14813e-15
1.89576e-16
1.52956e-15
1.04398e-16
8.88976e-16
1.49413e-16
1.22502e-15
2.02017e-16
1.62306e-15
1.10555e-16
9.37917e-16
1.57617e-16
1.28733e-15
2.11962e-16
1.69644e-15
1.15353e-16
9.76786e-16
1.6394e-16
1.33574e-15
2.19467e-16
1.7513e-15
1.1888e-16
1.00666e-15
1.68565e-16
1.37175e-15
2.24792e-16
1.78957e-15
1.21651e-16
1.02818e-15
1.7202e-16
1.39645e-15
2.28435e-16
1.81293e-15
1.23551e-16
1.04202e-15
1.74141e-16
1.41092e-15
2.30282e-16
1.8219e-15
1.24164e-16
1.04903e-15
1.75089e-16
1.41564e-15
2.30563e-16
1.81856e-15
1.2442e-16
1.04962e-15
1.74955e-16
1.41198e-15
2.29503e-16
1.80485e-15
1.23818e-16
1.0446e-15
1.7389e-16
1.40127e-15
2.2728e-16
1.78238e-15
1.22425e-16
1.03517e-15
1.72059e-16
1.38472e-15
2.24128e-16
1.20999e-16
1.02212e-15
1.69634e-16
1.36342e-15
2.20228e-16
1.19053e-16
1.00609e-15
1.66722e-16
1.33835e-15
2.15681e-16
1.16698e-16
9.8801e-16
1.63453e-16
1.31045e-15
2.10677e-16
1.14478e-16
9.68368e-16
1.59903e-16
1.28042e-15
2.05349e-16
1.11951e-16
9.47693e-16
1.56165e-16
1.24892e-15
1.99775e-16
1.09448e-16
9.26445e-16
1.52345e-16
1.21649e-15
1.94025e-16
1.06932e-16
9.04884e-16
1.48433e-16
1.18341e-15
1.88152e-16
1.04385e-16
8.83119e-16
1.44485e-16
1.14986e-15
1.82202e-16
1.01765e-16
8.61051e-16
1.40416e-16
1.11574e-15
1.76092e-16
9.91831e-17
8.38666e-16
1.3643e-16
1.08103e-15
1.70021e-16
9.65045e-17
8.15388e-16
1.32374e-16
1.04505e-15
1.63802e-16
9.36629e-17
7.90794e-16
1.27842e-16
1.00734e-15
1.57131e-16
9.05868e-17
7.64419e-16
1.23044e-16
9.67398e-16
1.50136e-16
8.72324e-17
7.3572e-16
1.17906e-16
9.24689e-16
1.42732e-16
8.34858e-17
7.0432e-16
1.12344e-16
8.78794e-16
1.34886e-16
7.94692e-17
6.69908e-16
1.0633e-16
8.29485e-16
1.26572e-16
7.50604e-17
6.32391e-16
9.9856e-17
7.76797e-16
1.17812e-16
7.02151e-17
5.91835e-16
9.29486e-17
7.2094e-16
1.08629e-16
6.5053e-17
5.48648e-16
8.56538e-17
6.62493e-16
9.91139e-17
5.95766e-17
5.03343e-16
7.80496e-17
6.02245e-16
8.9435e-17
5.38664e-17
4.5664e-16
7.02983e-17
5.41172e-16
7.97393e-17
4.81633e-17
4.09437e-16
6.25455e-17
4.80342e-16
7.01597e-17
4.24618e-17
3.62589e-16
5.48867e-17
4.20872e-16
6.08976e-17
3.68361e-17
3.1698e-16
4.74881e-17
3.63845e-16
5.21026e-17
3.14669e-17
2.73453e-16
4.04822e-17
3.10183e-16
4.39126e-17
2.6421e-17
2.32711e-16
3.39673e-17
2.60639e-16
3.64374e-17
2.17438e-17
1.9522e-16
2.80291e-17
2.15738e-16
2.97063e-17
1.74788e-17
1.6137e-16
2.26783e-17
1.75804e-16
2.37752e-17
1.36433e-17
1.31359e-16
1.79723e-17
1.40902e-16
1.8652e-17
1.03023e-17
1.0522e-16
1.39077e-17
1.1093e-16
1.42828e-17
7.44674e-18
8.28276e-17
1.0443e-17
8.56592e-17
1.06385e-17
4.99336e-18
6.39582e-17
7.56282e-18
6.47265e-17
7.66443e-18
2.97374e-18
4.83041e-17
5.20619e-18
4.76636e-17
5.28429e-18
1.31705e-18
3.55155e-17
3.29048e-18
3.3993e-17
3.40702e-18
-4.70611e-20
2.52238e-17
1.7581e-18
2.32319e-17
1.94189e-18
-1.10182e-18
1.70874e-17
5.64389e-19
1.48922e-17
8.65747e-19
-2.00517e-18
1.07132e-17
-3.00082e-19
8.63398e-18
1.3911e-19
-2.40123e-18
5.86856e-18
-9.32843e-19
3.84159e-18
-4.27105e-19
-2.75114e-18
2.519e-18
-1.61162e-18
4.32781e-19
-1.00405e-18
-3.05897e-18
-1.74841e-19
-1.88946e-18
-1.91174e-18
-1.18894e-18
-3.30695e-18
-2.08556e-18
-2.07866e-18
-3.46245e-18
-1.30455e-18
-3.47547e-18
-3.38479e-18
-2.17574e-18
-4.44856e-18
-1.34725e-18
-3.5791e-18
-4.2243e-18
-2.23061e-18
-5.01511e-18
-1.34603e-18
-3.66301e-18
-4.75965e-18
-2.24881e-18
-5.25002e-18
-1.30692e-18
-3.66954e-18
-5.01853e-18
-2.23296e-18
-5.23942e-18
-1.21502e-18
-3.70623e-18
-5.1278e-18
-2.17665e-18
-5.08655e-18
-1.13439e-18
-3.74374e-18
-5.13165e-18
-2.1584e-18
-4.87611e-18
-1.07868e-18
-3.73279e-18
-5.00836e-18
-2.12917e-18
-4.60464e-18
-1.02025e-18
)
;
    }
    axis
    {
        type            empty;
        value           nonuniform 0();
    }
    procBoundary6to0
    {
        type            processor;
        value           nonuniform List<scalar> 
68
(
3.09247e-06
3.25416e-06
3.38217e-06
3.47871e-06
3.54634e-06
3.5879e-06
3.60633e-06
3.6046e-06
3.58565e-06
3.55233e-06
3.50738e-06
3.45339e-06
3.39277e-06
3.32766e-06
3.2599e-06
3.19091e-06
3.12163e-06
3.0524e-06
2.983e-06
2.91259e-06
2.8398e-06
2.76288e-06
2.67986e-06
2.58876e-06
2.48789e-06
2.376e-06
2.25253e-06
2.11767e-06
1.97245e-06
1.81867e-06
1.65878e-06
1.49569e-06
1.33257e-06
1.17261e-06
1.01877e-06
8.73622e-07
7.39236e-07
6.17067e-07
5.07963e-07
4.12195e-07
3.29528e-07
2.5932e-07
2.00631e-07
1.52325e-07
1.13169e-07
8.19116e-08
5.73459e-08
3.83498e-08
2.39139e-08
1.31545e-08
5.31529e-09
-2.40724e-10
-4.03719e-09
-6.49605e-09
-7.95827e-09
-8.69149e-09
-8.90391e-09
-8.75534e-09
2.99167e-07
8.99977e-07
1.49021e-06
2.05697e-06
2.58988e-06
3.08071e-06
3.5234e-06
3.91403e-06
-0.000125859
4.25077e-06
)
;
    }
    procBoundary6to1
    {
        type            processor;
        value           uniform 0.000170097;
    }
    procBoundary6to7
    {
        type            processor;
        value           nonuniform List<scalar> 4(0.000200905 0.000231577 0.000262004 0.000292003);
    }
    procBoundary6to12
    {
        type            processor;
        value           nonuniform List<scalar> 
68
(
-1.49509e-05
-1.46535e-05
-1.43202e-05
-1.39597e-05
-1.35795e-05
-1.31858e-05
-1.27831e-05
-1.23746e-05
-1.19615e-05
-1.15431e-05
-1.11173e-05
-1.06802e-05
-1.02274e-05
-9.75379e-06
-9.25514e-06
-8.72832e-06
-8.17218e-06
-7.58802e-06
-6.97976e-06
-6.35389e-06
-5.71905e-06
-5.08543e-06
-4.46391e-06
-3.86531e-06
-3.29946e-06
-2.77464e-06
-2.29706e-06
-1.87064e-06
-1.497e-06
-1.17566e-06
-9.04377e-07
-6.79516e-07
-4.96538e-07
-3.50393e-07
-2.35886e-07
-1.47969e-07
-8.19406e-08
-3.35856e-08
7.7569e-10
2.42686e-08
3.94603e-08
4.84527e-08
5.29147e-08
5.41514e-08
5.31657e-08
5.07154e-08
4.73635e-08
4.35199e-08
3.94768e-08
-1.25361e-06
-3.78009e-06
-6.24452e-06
-8.56953e-06
-1.07002e-05
-1.26004e-05
-1.42498e-05
-1.56418e-05
-1.67811e-05
-1.76804e-05
-1.83574e-05
-1.88327e-05
-1.91283e-05
-1.92657e-05
-1.92661e-05
-1.91491e-05
-1.89331e-05
0.000278813
-1.86347e-05
)
;
    }
}


// ************************************************************************* //
