/*--------------------------------*- C++ -*----------------------------------*\
  =========                 |
  \\      /  F ield         | OpenFOAM: The Open Source CFD Toolbox
   \\    /   O peration     | Website:  https://openfoam.org
    \\  /    A nd           | Version:  7
     \\/     M anipulation  |
\*---------------------------------------------------------------------------*/
FoamFile
{
    version     2.0;
    format      ascii;
    class       surfaceScalarField;
    location    "3";
    object      phi;
}
// * * * * * * * * * * * * * * * * * * * * * * * * * * * * * * * * * * * * * //

dimensions      [0 3 -1 0 0 0 0];

internalField   nonuniform List<scalar> 
615
(
0.000189221
0.000182481
0.000174299
0.000142906
0.000174875
9.16646e-05
0.00019058
4.30433e-05
0.000214318
1.03376e-05
0.000238116
-3.44612e-06
0.00025692
-2.80802e-06
0.000268711
6.19518e-06
0.000273075
1.91129e-05
0.000270216
3.31099e-05
0.000260841
4.5653e-05
0.000246517
5.39271e-05
0.000229916
5.50885e-05
0.000214644
4.72578e-05
0.000204185
3.07197e-05
0.000201017
8.33121e-06
0.000205059
-1.55899e-05
0.000215299
-3.65363e-05
0.000229381
-5.21073e-05
0.000244927
-6.16441e-05
0.000260268
-6.58881e-05
0.000273922
-6.61229e-05
0.000285803
-6.40275e-05
0.00029524
-6.05394e-05
0.000303343
-5.68814e-05
0.000309
-5.31451e-05
0.000314099
-5.01494e-05
0.000317433
-4.76352e-05
0.000320503
-4.57158e-05
0.000322817
-4.49791e-05
0.000324587
-4.45257e-05
0.000326364
-4.53739e-05
0.00032747
-4.69518e-05
0.000328971
-5.00509e-05
0.000328301
-5.31501e-05
0.000329426
-5.86661e-05
0.000328247
-6.41505e-05
0.000328221
-7.11962e-05
0.000324526
-7.92353e-05
0.000322348
-8.82147e-05
0.000317013
-9.92006e-05
0.000312109
-0.000110501
0.000304143
-0.000126211
0.000295597
-0.000140991
0.000283137
-0.000164438
0.000266189
-0.000191704
0.000248274
-0.000228872
0.000225622
-0.000237836
0.00020114
-0.000214817
0.000158279
-0.000162795
-8.59556e-05
6.06531e-05
0.000446695
5.32182e-05
0.000503405
6.20946e-05
0.000491071
7.70345e-05
0.000425556
8.70613e-05
0.000360157
9.11127e-05
0.0003202
9.24548e-05
0.000302084
9.3539e-05
0.000294479
9.49735e-05
0.000288707
9.62514e-05
0.000281243
9.67693e-05
0.000271923
9.61305e-05
0.000261635
9.37689e-05
0.000251371
8.88786e-05
0.000241845
8.08876e-05
0.000232294
7.01342e-05
0.000218746
5.87345e-05
0.000193881
5.11629e-05
0.000150478
5.20509e-05
9.07766e-05
6.10216e-05
3.40725e-05
7.34442e-05
-2.08502e-06
8.51348e-05
-1.51367e-05
9.39278e-05
-1.16009e-05
9.92629e-05
8.60091e-07
0.000101199
1.71767e-05
9.98261e-05
3.44829e-05
9.5369e-05
5.01101e-05
8.84473e-05
6.08488e-05
8.03489e-05
6.3187e-05
7.2915e-05
5.46917e-05
6.7958e-05
3.56767e-05
6.65316e-05
9.7576e-06
6.84763e-05
-1.75346e-05
7.31171e-05
-4.11772e-05
7.936e-05
-5.83501e-05
8.6136e-05
-6.842e-05
9.25906e-05
-7.23427e-05
9.83016e-05
-7.18338e-05
0.000102978
-6.87042e-05
0.000106771
-6.43322e-05
0.000109611
-5.97214e-05
0.000111884
-5.5418e-05
0.000113468
-5.17329e-05
0.000114682
-4.88499e-05
0.000115607
-4.66407e-05
0.000116143
-4.55147e-05
0.000116738
-4.51209e-05
0.000117004
-4.56403e-05
0.000117301
-4.7248e-05
0.000117227
-4.99769e-05
0.000117362
-5.32856e-05
0.000116943
-5.8247e-05
0.000116409
-6.36161e-05
0.000115716
-7.05037e-05
0.000114519
-7.80387e-05
0.000113199
-8.68945e-05
0.000111105
-9.71067e-05
0.00010876
-0.000108156
0.000105141
-0.000122592
0.000100885
-0.000136735
9.35207e-05
-0.000157073
8.30608e-05
-0.000181245
6.91745e-05
-0.000214985
5.23223e-05
-0.000220984
3.86141e-05
-0.000201108
2.62093e-05
-0.00015039
-7.5327e-05
3.86376e-05
0.000462294
3.89105e-05
0.000503132
5.4642e-05
0.00047534
7.14981e-05
0.0004087
8.08739e-05
0.000350781
8.43077e-05
0.000316766
8.57751e-05
0.000300616
8.76104e-05
0.000292644
9.0109e-05
0.000286208
9.25748e-05
0.000278777
9.43693e-05
0.000270128
9.48882e-05
0.000261116
9.329e-05
0.00025297
8.86486e-05
0.000246486
8.03796e-05
0.000240563
6.85666e-05
0.000230559
5.50834e-05
0.000207364
4.62048e-05
0.000159357
4.837e-05
8.86114e-05
6.00888e-05
2.23537e-05
7.48201e-05
-1.68163e-05
8.79176e-05
-2.82343e-05
9.74787e-05
-2.11621e-05
0.000103195
-4.85612e-06
0.000105206
1.51661e-05
0.000103543
3.61452e-05
9.83525e-05
5.53008e-05
9.02808e-05
6.89205e-05
8.08612e-05
7.26066e-05
7.23563e-05
6.31966e-05
6.68871e-05
4.11459e-05
6.55118e-05
1.11329e-05
6.78403e-05
-1.98631e-05
7.30091e-05
-4.63459e-05
7.98172e-05
-6.51583e-05
8.71354e-05
-7.57382e-05
9.41309e-05
-7.93383e-05
0.000100232
-7.79345e-05
0.000105264
-7.37367e-05
0.000109196
-6.82644e-05
0.000112228
-6.2753e-05
0.000114465
-5.76557e-05
0.000116128
-5.33951e-05
0.000117309
-5.00315e-05
0.000118134
-4.7465e-05
0.000118734
-4.61151e-05
0.000119079
-4.5466e-05
0.00011938
-4.59413e-05
0.000119475
-4.73431e-05
0.000119476
-4.99781e-05
0.000119248
-5.30572e-05
0.000118864
-5.78628e-05
0.000118222
-6.29741e-05
0.000117363
-6.96447e-05
0.000115985
-7.66612e-05
0.000114512
-8.54213e-05
0.000112054
-9.46488e-05
0.000109425
-0.000105527
0.000105316
-0.000118484
0.000100347
-0.000131766
9.24511e-05
-0.000149177
8.048e-05
-0.000169274
6.26104e-05
-0.000197116
4.32357e-05
-0.000201609
2.89982e-05
-0.000186871
1.79479e-05
-0.00013934
-6.57248e-05
1.85141e-05
0.000470611
2.83099e-05
0.000493336
4.91561e-05
0.000454493
6.60089e-05
0.000391847
7.42451e-05
0.000342545
7.74522e-05
0.000313559
7.9668e-05
0.000298401
8.26957e-05
0.000289616
8.64011e-05
0.000282503
9.0094e-05
0.000275084
9.30694e-05
0.000267153
9.45393e-05
0.000259646
9.36068e-05
0.000253902
8.91875e-05
0.000250906
8.05753e-05
0.000249175
6.70849e-05
0.000244049
5.10849e-05
0.000223364
4.21365e-05
0.000168305
4.74026e-05
8.33454e-05
6.25183e-05
7.23804e-06
7.91064e-05
-3.34044e-05
9.26682e-05
-4.17961e-05
0.000102216
-3.07099e-05
0.00010789
-1.05304e-05
0.000109792
1.32642e-05
0.000107745
3.81926e-05
0.000101706
6.13399e-05
9.2364e-05
7.82623e-05
8.16159e-05
8.33546e-05
7.2237e-05
7.25755e-05
6.65875e-05
4.67954e-05
6.55105e-05
1.22099e-05
6.82553e-05
-2.26079e-05
7.37878e-05
-5.18785e-05
8.09036e-05
-7.22741e-05
8.85677e-05
-8.34023e-05
9.58842e-05
-8.66548e-05
0.000102348
-8.43987e-05
0.000107623
-7.90113e-05
0.000111778
-7.24192e-05
0.00011487
-6.58455e-05
0.000117175
-5.99599e-05
0.000118816
-5.50362e-05
0.000119939
-5.11552e-05
0.000120789
-4.83143e-05
0.000121191
-4.65173e-05
0.000121587
-4.58622e-05
0.000121657
-4.60114e-05
0.000121735
-4.74207e-05
0.000121487
-4.97303e-05
0.000121306
-5.28763e-05
0.000120643
-5.71998e-05
0.000119841
-6.21715e-05
0.000118785
-6.85887e-05
0.000117274
-7.51501e-05
0.000115567
-8.3715e-05
0.000113082
-9.21633e-05
0.000110289
-0.000102734
0.000105743
-0.000113938
0.000100679
-0.000126701
9.16468e-05
-0.000140144
7.74112e-05
-0.000155038
5.85079e-05
-0.000178212
3.79395e-05
-0.000181041
2.28495e-05
-0.000171781
1.31221e-05
-0.000129613
-5.81414e-05
2.13177e-06
0.000469838
2.02689e-05
0.000475199
4.34949e-05
0.000431267
5.90559e-05
0.000376286
6.64329e-05
0.000335168
7.02045e-05
0.000309787
7.37939e-05
0.000294811
7.82229e-05
0.000285187
8.32084e-05
0.000277517
8.81018e-05
0.00027019
9.21453e-05
0.000263109
9.4623e-05
0.000257169
9.43728e-05
0.000254152
9.02921e-05
0.000254986
8.1331e-05
0.000258136
6.55818e-05
0.000259798
4.79885e-05
0.000240957
4.15642e-05
0.000174729
5.17303e-05
7.31793e-05
7.06699e-05
-1.17016e-05
8.83336e-05
-5.1068e-05
0.000100772
-5.4234e-05
0.000108847
-3.87851e-05
0.000113609
-1.52931e-05
0.000115032
1.18416e-05
0.000112448
0.000105478
9.48688e-05
8.29963e-05
7.32122e-05
6.79533e-05
6.75095e-05
7.06891e-05
7.62813e-05
8.32574e-05
9.07553e-05
9.80775e-05
0.000104614
0.000110068
0.000114338
0.000117543
0.000119867
0.000121477
0.000122611
0.000123281
0.000123779
0.00012392
0.000124042
0.000123927
0.000123693
0.000123314
0.000122641
0.000121866
0.000120436
0.000118995
0.000116745
0.000114274
0.000110761
0.000106371
0.00010048
9.11423e-05
7.79735e-05
5.79946e-05
3.60024e-05
2.18335e-05
1.43797e-05
-1.06829e-05
1.3711e-05
3.67769e-05
5.07334e-05
5.80812e-05
6.32086e-05
6.84264e-05
7.43002e-05
8.05599e-05
8.65285e-05
9.16828e-05
9.5158e-05
9.55868e-05
9.22774e-05
8.25648e-05
6.46104e-05
4.78685e-05
4.56675e-05
6.09545e-05
8.4563e-05
0.000103392
0.00011343
0.000118229
0.000120782
)
;

boundaryField
{
    inlet
    {
        type            calculated;
        value           nonuniform 0();
    }
    outlet
    {
        type            calculated;
        value           nonuniform List<scalar> 5(0.000116074 1.55808e-05 8.34574e-06 5.53875e-06 8.66378e-06);
    }
    wall
    {
        type            calculated;
        value           nonuniform 0();
    }
    wedge1
    {
        type            wedge;
        value           nonuniform List<scalar> 
344
(
1.94486e-14
1.95633e-14
-8.08922e-14
1.94276e-14
1.8924e-14
2.21265e-14
2.1375e-14
-8.51952e-14
1.97057e-14
1.84703e-14
2.12398e-14
1.99654e-14
-7.74672e-14
1.7555e-14
1.6269e-14
1.77239e-14
1.67292e-14
-6.50995e-14
1.48551e-14
1.3976e-14
1.46322e-14
1.40669e-14
-5.57402e-14
1.29439e-14
1.24131e-14
1.28076e-14
1.25383e-14
-5.03843e-14
1.18392e-14
1.14526e-14
1.19902e-14
1.18225e-14
-4.76829e-14
1.12236e-14
1.0853e-14
1.16491e-14
1.14765e-14
-4.61596e-14
1.0839e-14
1.04466e-14
1.13943e-14
1.11948e-14
-4.49393e-14
1.05319e-14
1.01191e-14
1.10662e-14
1.08737e-14
-4.36887e-14
1.02302e-14
9.82219e-15
1.06593e-14
1.05088e-14
-4.23359e-14
9.92298e-15
9.55411e-15
1.02185e-14
1.01267e-14
-4.09633e-14
9.63874e-15
9.33953e-15
9.77565e-15
9.75423e-15
-3.97327e-14
9.42534e-15
9.25533e-15
9.34681e-15
9.40941e-15
-3.87445e-14
9.32517e-15
9.31766e-15
8.89315e-15
9.0487e-15
-3.78005e-14
9.27763e-15
9.45578e-15
8.26145e-15
8.49683e-15
-3.61697e-14
9.0949e-15
9.51385e-15
7.20319e-15
7.4668e-15
-3.23125e-14
8.24291e-15
8.69072e-15
5.5295e-15
5.67248e-15
-2.41966e-14
5.98038e-15
6.01466e-15
3.38614e-15
3.22279e-15
-1.24124e-14
2.63575e-15
2.14603e-15
1.40014e-15
9.6496e-16
-1.96372e-15
-2.18932e-16
-1.06451e-15
1.25124e-16
-4.98442e-16
4.77141e-15
-1.83371e-15
-2.45667e-15
-4.4192e-16
-9.71752e-16
6.19429e-15
-1.99499e-15
-2.37216e-15
-3.34267e-16
-7.16971e-16
4.49938e-15
-1.43046e-15
-1.66529e-15
1.19657e-16
-1.05339e-16
1.36917e-15
-5.47311e-16
-6.95192e-16
7.0589e-16
6.14332e-16
-2.19679e-15
4.50874e-16
3.97838e-16
1.32844e-15
1.36128e-15
-5.83788e-15
1.46907e-15
1.87324e-15
2.02043e-15
-9.09676e-15
2.39562e-15
2.22068e-15
2.46142e-15
-1.13442e-14
3.04853e-15
2.25528e-15
2.54109e-15
-1.18509e-14
3.20896e-15
1.90578e-15
2.16681e-15
-1.01349e-14
2.73522e-15
1.19845e-15
1.36804e-15
-6.37477e-15
1.69246e-15
2.755e-16
3.21141e-16
-1.52406e-15
3.68537e-16
-8.18864e-16
-9.08769e-16
4.13868e-15
-1.13339e-15
-1.76094e-15
-1.94661e-15
8.82982e-15
-2.34245e-15
-2.42106e-15
-2.66039e-15
1.19567e-14
-3.13536e-15
-2.79925e-15
-3.0407e-15
1.35657e-14
-3.52687e-15
-2.93371e-15
-3.15349e-15
1.3937e-14
-3.59316e-15
-2.90184e-15
-3.08371e-15
1.3481e-14
-3.44822e-15
-2.77997e-15
-2.91273e-15
1.26163e-14
-3.19051e-15
-2.61063e-15
-2.70623e-15
1.15912e-14
-2.90495e-15
-2.4354e-15
-2.50039e-15
1.05991e-14
-2.62924e-15
-2.27534e-15
-2.31126e-15
9.71452e-15
-2.38821e-15
-2.14153e-15
-2.15187e-15
8.98571e-15
-2.18781e-15
-2.02956e-15
-2.03503e-15
8.39387e-15
-2.03604e-15
-1.95208e-15
-1.9404e-15
7.98476e-15
-1.92064e-15
-1.92113e-15
-1.89519e-15
7.74512e-15
-1.85098e-15
-1.91089e-15
-1.88134e-15
7.65585e-15
-1.82931e-15
-1.93273e-15
-1.91324e-15
7.7312e-15
-1.83561e-15
-2.02059e-15
-1.97298e-15
8.00237e-15
-1.89443e-15
-2.15696e-15
-2.08529e-15
8.45708e-15
-1.98337e-15
-2.28581e-15
-2.23162e-15
8.98177e-15
-2.11752e-15
-2.51055e-15
-2.43998e-15
9.77388e-15
-2.28259e-15
-2.76481e-15
-2.64571e-15
1.06883e-14
-2.48265e-15
-3.05433e-15
-2.94898e-15
1.17651e-14
-2.73403e-15
-3.39168e-15
-3.24833e-15
1.29229e-14
-3.00957e-15
-3.78901e-15
-3.61538e-15
1.44583e-14
-3.32364e-15
-4.22001e-15
-4.03301e-15
1.58864e-14
-3.6828e-15
-4.71024e-15
-4.49063e-15
1.77268e-14
-4.08601e-15
-5.34154e-15
-5.04689e-15
1.98102e-14
-4.5101e-15
-5.93583e-15
-5.63425e-15
2.1865e-14
-5.02278e-15
-6.83738e-15
-6.36713e-15
2.44572e-14
-5.473e-15
-7.78338e-15
-7.18405e-15
2.71063e-14
-5.91049e-15
-9.04228e-15
-8.18353e-15
3.00873e-14
-6.55192e-15
-9.27162e-15
-8.15856e-15
3.01315e-14
-6.38435e-15
-8.23496e-15
-7.38728e-15
2.7662e-14
-5.99481e-15
-5.98226e-15
-5.48683e-15
2.00953e-14
-4.51386e-15
-3.05282e-15
-2.66906e-15
8.96071e-15
-1.93958e-15
-1.63839e-15
-1.29605e-15
-8.79867e-16
-4.91423e-16
-2.16338e-16
-8.31489e-17
-6.24882e-17
-1.14044e-16
-2.01892e-16
-3.01311e-16
-3.87054e-16
-4.38319e-16
-4.3245e-16
-3.59569e-16
-2.19605e-16
-4.10745e-17
1.68823e-16
3.50262e-16
4.92828e-16
5.74166e-16
6.19727e-16
6.25587e-16
6.12649e-16
5.88731e-16
5.64765e-16
5.35359e-16
5.12864e-16
5.05363e-16
4.86274e-16
4.88309e-16
4.88197e-16
5.18342e-16
5.26622e-16
5.68403e-16
6.22518e-16
6.95214e-16
7.4872e-16
8.49667e-16
9.39809e-16
1.0474e-15
1.18706e-15
1.3096e-15
1.48962e-15
1.66228e-15
1.91865e-15
2.24313e-15
2.5979e-15
2.66807e-15
2.4674e-15
2.00508e-15
1.15321e-15
)
;
    }
    wedge2
    {
        type            wedge;
        value           nonuniform List<scalar> 
344
(
-1.63866e-15
-1.29647e-15
-8.82205e-16
-4.9229e-16
-2.20131e-16
-8.6408e-17
-6.67206e-17
-1.18401e-16
-2.0697e-16
-3.04881e-16
-3.91306e-16
-4.41447e-16
-4.36493e-16
-3.61675e-16
-2.25221e-16
-4.35683e-17
1.61661e-16
3.46379e-16
4.83764e-16
5.68492e-16
6.08866e-16
6.15966e-16
5.99643e-16
5.73465e-16
5.46775e-16
5.13772e-16
4.87294e-16
4.70354e-16
4.53326e-16
4.42636e-16
4.4148e-16
4.58382e-16
4.65623e-16
4.86094e-16
5.34913e-16
5.82275e-16
6.33886e-16
7.06934e-16
7.94277e-16
8.69546e-16
1.01375e-15
1.1054e-15
1.3e-15
1.44553e-15
1.7215e-15
2.02265e-15
2.39864e-15
2.44036e-15
2.25807e-15
1.75791e-15
9.36299e-16
1.94428e-14
1.9558e-14
-8.0897e-14
1.94233e-14
1.89202e-14
2.21223e-14
2.13714e-14
-8.51983e-14
1.97031e-14
1.84681e-14
2.12371e-14
1.99633e-14
-7.74693e-14
1.75533e-14
1.62676e-14
1.77226e-14
1.67287e-14
-6.50998e-14
1.4855e-14
1.39761e-14
1.46318e-14
1.40669e-14
-5.57397e-14
1.29447e-14
1.24139e-14
1.28081e-14
1.25392e-14
-5.03833e-14
1.18403e-14
1.14537e-14
1.19911e-14
1.18235e-14
-4.76815e-14
1.12252e-14
1.08548e-14
1.16505e-14
1.14775e-14
-4.61588e-14
1.08399e-14
1.04475e-14
1.1396e-14
1.11968e-14
-4.49376e-14
1.0533e-14
1.01197e-14
1.1067e-14
1.08739e-14
-4.36883e-14
1.0231e-14
9.82332e-15
1.06606e-14
1.051e-14
-4.23353e-14
9.92319e-15
9.5544e-15
1.02189e-14
1.01272e-14
-4.09623e-14
9.63976e-15
9.34045e-15
9.77699e-15
9.75503e-15
-3.97323e-14
9.42574e-15
9.25562e-15
9.34814e-15
9.41138e-15
-3.87429e-14
9.32616e-15
9.31835e-15
8.89351e-15
9.04868e-15
-3.78001e-14
9.27819e-15
9.456e-15
8.26256e-15
8.49806e-15
-3.61692e-14
9.09534e-15
9.51431e-15
7.20297e-15
7.46704e-15
-3.23123e-14
8.2427e-15
8.69055e-15
5.53034e-15
5.6724e-15
-2.41969e-14
5.98032e-15
6.0139e-15
3.38606e-15
3.22265e-15
-1.24125e-14
2.63551e-15
2.14614e-15
1.40041e-15
9.64377e-16
-1.9638e-15
-2.19847e-16
-1.06496e-15
1.24943e-16
-4.98863e-16
4.77095e-15
-1.83468e-15
-2.45678e-15
-4.41531e-16
-9.72567e-16
6.19415e-15
-1.99568e-15
-2.37309e-15
-3.34528e-16
-7.17576e-16
4.49959e-15
-1.43074e-15
-1.66605e-15
1.20076e-16
-1.05781e-16
1.36896e-15
-5.47299e-16
-6.95777e-16
7.05718e-16
6.14198e-16
-2.19724e-15
4.51019e-16
3.98073e-16
1.32845e-15
1.36094e-15
-5.83794e-15
1.46887e-15
1.87321e-15
2.02063e-15
-9.0971e-15
2.39558e-15
2.22097e-15
2.46102e-15
-1.13446e-14
3.04815e-15
2.25513e-15
2.54094e-15
-1.1851e-14
3.20884e-15
1.90592e-15
2.16621e-15
-1.01351e-14
2.73454e-15
1.19846e-15
1.3674e-15
-6.37521e-15
1.69206e-15
2.75599e-16
3.20445e-16
-1.52408e-15
3.6797e-16
-8.18832e-16
-9.09858e-16
4.13831e-15
-1.13433e-15
-1.76086e-15
-1.94741e-15
8.8299e-15
-2.34314e-15
-2.42082e-15
-2.6617e-15
1.19564e-14
-3.13686e-15
-2.79893e-15
-3.04142e-15
1.35657e-14
-3.52734e-15
-2.93326e-15
-3.15476e-15
1.39374e-14
-3.59458e-15
-2.90107e-15
-3.08432e-15
1.34811e-14
-3.44878e-15
-2.77914e-15
-2.91412e-15
1.26166e-14
-3.19189e-15
-2.60927e-15
-2.70736e-15
1.15915e-14
-2.90559e-15
-2.43375e-15
-2.50205e-15
1.05999e-14
-2.63023e-15
-2.27343e-15
-2.31293e-15
9.71545e-15
-2.38897e-15
-2.13929e-15
-2.15394e-15
8.98689e-15
-2.18911e-15
-2.02618e-15
-2.03727e-15
8.39554e-15
-2.0372e-15
-1.94915e-15
-1.94294e-15
7.98656e-15
-1.92213e-15
-1.9169e-15
-1.89795e-15
7.74741e-15
-1.85303e-15
-1.90664e-15
-1.88434e-15
7.65823e-15
-1.83142e-15
-1.92688e-15
-1.9171e-15
7.73425e-15
-1.83784e-15
-2.01497e-15
-1.97731e-15
8.00575e-15
-1.89722e-15
-2.14928e-15
-2.091e-15
8.46177e-15
-1.98728e-15
-2.27748e-15
-2.23811e-15
8.98675e-15
-2.12163e-15
-2.49963e-15
-2.44878e-15
9.78069e-15
-2.28822e-15
-2.7537e-15
-2.65492e-15
1.06956e-14
-2.48897e-15
-3.04003e-15
-2.96067e-15
1.17745e-14
-2.74229e-15
-3.3768e-15
-3.26072e-15
1.29329e-14
-3.01845e-15
-3.77064e-15
-3.63069e-15
1.44712e-14
-3.33467e-15
-4.20197e-15
-4.04829e-15
1.58994e-14
-3.69401e-15
-4.68869e-15
-4.50921e-15
1.77429e-14
-4.09976e-15
-5.32139e-15
-5.06466e-15
1.98257e-14
-4.5237e-15
-5.91209e-15
-5.65561e-15
2.18834e-14
-5.03919e-15
-6.81483e-15
-6.38658e-15
2.44755e-14
-5.48958e-15
-7.75853e-15
-7.20708e-15
2.7128e-14
-5.93038e-15
-9.02102e-15
-8.20554e-15
3.01057e-14
-6.57141e-15
-9.24891e-15
-8.18491e-15
3.01525e-14
-6.40577e-15
-8.21566e-15
-7.40912e-15
2.76775e-14
-6.0126e-15
-5.96108e-15
-5.51329e-15
2.01082e-14
-4.52307e-15
-3.03987e-15
-2.68031e-15
8.96089e-15
-1.9404e-15
)
;
    }
    axis
    {
        type            empty;
        value           nonuniform 0();
    }
    procBoundary23to17
    {
        type            processor;
        value           nonuniform List<scalar> 
68
(
-0.000159154
-0.000127985
-9.22404e-05
-5.87483e-05
-3.40755e-05
-2.03521e-05
-1.59955e-05
-1.79864e-05
-2.34771e-05
-3.02511e-05
-3.62775e-05
-3.9603e-05
-3.84876e-05
-3.19862e-05
-2.02601e-05
-5.16411e-06
1.15485e-05
2.62961e-05
3.80257e-05
4.60975e-05
5.05476e-05
5.24683e-05
5.21472e-05
5.11024e-05
4.87786e-05
4.74876e-05
4.50505e-05
4.43016e-05
4.26456e-05
4.26646e-05
4.27562e-05
4.35962e-05
4.58458e-05
4.85506e-05
5.38194e-05
5.75412e-05
6.53294e-05
7.12225e-05
8.29306e-05
9.03928e-05
0.000104535
0.000115405
0.000134177
0.000149537
0.000176897
0.000208653
0.000246787
0.000260487
0.000239299
0.000205655
0.000128161
-0.000426947
-0.00049597
-0.000499948
-0.000440496
-0.000370184
-0.000324251
-0.000303426
-0.000295564
-0.000290141
-0.000282521
-0.000272441
-0.000260996
-0.00024901
-0.000236955
-0.000224303
-0.000212548
-0.000207992
)
;
    }
    procBoundary23to22
    {
        type            processor;
        value           nonuniform List<scalar> 4(-8.04007e-05 -5.42372e-05 -2.68309e-05 -1.35859e-06);
    }
    procBoundary23to28
    {
        type            processor;
        value           uniform 2.23424e-05;
    }
    procBoundary23to29
    {
        type            processor;
        value           nonuniform List<scalar> 
68
(
4.07766e-05
6.83094e-05
8.8872e-05
9.52271e-05
8.23596e-05
5.20543e-05
1.26537e-05
-2.57874e-05
-5.74707e-05
-7.92502e-05
-9.09002e-05
-9.3977e-05
-9.09355e-05
-8.44651e-05
-7.66891e-05
-6.905e-05
-6.22841e-05
-5.66464e-05
-5.22896e-05
-4.89842e-05
-4.70146e-05
-4.60032e-05
-4.61334e-05
-4.73059e-05
-4.94965e-05
-5.24976e-05
-5.65262e-05
-6.13962e-05
-6.71593e-05
-7.37089e-05
-8.1465e-05
-8.96923e-05
-9.92214e-05
-0.000109548
-0.00012081
-0.000130807
-0.000141869
-0.000158233
-0.000159048
-0.000157612
-0.000122159
-5.24255e-05
0.000458179
0.000450805
0.000408201
0.00036233
0.00032782
0.00030466
0.000289593
0.000279314
0.000271258
0.000264222
0.000257955
0.000253694
0.000253723
0.000258296
0.000267849
0.000277753
0.000257699
0.00017693
5.78922e-05
-3.53101e-05
-6.98971e-05
-6.42718e-05
-4.35846e-05
-1.78458e-05
0.000121101
1.15226e-05
)
;
    }
}


// ************************************************************************* //
