/*--------------------------------*- C++ -*----------------------------------*\
  =========                 |
  \\      /  F ield         | OpenFOAM: The Open Source CFD Toolbox
   \\    /   O peration     | Website:  https://openfoam.org
    \\  /    A nd           | Version:  7
     \\/     M anipulation  |
\*---------------------------------------------------------------------------*/
FoamFile
{
    version     2.0;
    format      ascii;
    class       volScalarField;
    location    "13.999398";
    object      p;
}
// * * * * * * * * * * * * * * * * * * * * * * * * * * * * * * * * * * * * * //

dimensions      [0 2 -2 0 0 0 0];

internalField   nonuniform List<scalar> 
5800
(
-0.232893
-0.232712
-0.23235
-0.231805
-0.23108
-0.227496
-0.223423
-0.21913
-0.21476
-0.210316
-0.205793
-0.201199
-0.196542
-0.191827
-0.18706
-0.182247
-0.177395
-0.172508
-0.167594
-0.162658
-0.157707
-0.152748
-0.147789
-0.142837
-0.137898
-0.132981
-0.128093
-0.123241
-0.118433
-0.113675
-0.108974
-0.104337
-0.0997711
-0.0952809
-0.0908726
-0.0865511
-0.0823213
-0.0781875
-0.0741535
-0.0702226
-0.0663978
-0.0626814
-0.0590754
-0.0555812
-0.0521998
-0.0489317
-0.045777
-0.0427355
-0.0398062
-0.0369882
-0.0342799
-0.0316796
-0.0291851
-0.0267941
-0.0245041
-0.0223122
-0.0202157
-0.0182116
-0.016297
-0.0144691
-0.0127248
-0.0110626
-0.0094781
-0.00797455
-0.00653918
-0.00519827
-0.00389111
-0.00275479
-0.00149533
-0.000750784
0.000806192
0.00041712
0.00365839
-0.000643237
0.00945017
-0.227842
-0.223766
-0.219402
-0.215001
-0.210541
-0.206003
-0.201397
-0.196729
-0.192005
-0.187232
-0.182413
-0.177554
-0.172662
-0.167743
-0.162802
-0.157847
-0.152885
-0.147921
-0.142965
-0.138023
-0.133102
-0.12821
-0.123354
-0.118542
-0.113781
-0.109077
-0.104437
-0.0998669
-0.0953734
-0.0909618
-0.0866372
-0.0824043
-0.0782675
-0.0742305
-0.0702967
-0.066469
-0.0627499
-0.0591412
-0.0556444
-0.0522605
-0.04899
-0.045833
-0.0427892
-0.0398578
-0.0370378
-0.0343275
-0.0317254
-0.0292291
-0.0268364
-0.0245448
-0.0223514
-0.0202535
-0.0182481
-0.0163322
-0.014503
-0.0127576
-0.0110943
-0.00950875
-0.00800418
-0.00656778
-0.00522589
-0.0039177
-0.00278037
-0.00151998
-0.000773942
0.000782844
0.000398362
0.00363247
-0.000648382
0.00940293
-0.22853
-0.22445
-0.219945
-0.215482
-0.210988
-0.206421
-0.201789
-0.197101
-0.19236
-0.187572
-0.18274
-0.17787
-0.172968
-0.168039
-0.163089
-0.158125
-0.153154
-0.148183
-0.143219
-0.138269
-0.13334
-0.128441
-0.123578
-0.118759
-0.113991
-0.10928
-0.104633
-0.100057
-0.0955573
-0.0911393
-0.0868084
-0.0825694
-0.0784265
-0.0743836
-0.0704441
-0.0666108
-0.0628862
-0.0592722
-0.0557703
-0.0523814
-0.0491061
-0.0459445
-0.0428963
-0.0399606
-0.0371365
-0.0344224
-0.0318165
-0.0293167
-0.0269207
-0.0246259
-0.0224295
-0.0203288
-0.0183206
-0.0164022
-0.0145707
-0.012823
-0.0111574
-0.00956972
-0.00806311
-0.00662465
-0.00528081
-0.00397056
-0.00283122
-0.00156898
-0.000819969
0.000736431
0.000361095
0.00358095
-0.000658606
0.00930913
-0.22955
-0.225466
-0.220751
-0.216196
-0.211653
-0.20704
-0.20237
-0.197651
-0.192885
-0.188074
-0.183223
-0.178336
-0.173418
-0.168475
-0.163512
-0.158535
-0.153552
-0.148569
-0.143593
-0.138632
-0.133693
-0.128783
-0.12391
-0.119081
-0.114302
-0.109582
-0.104925
-0.100339
-0.0958301
-0.0914028
-0.0870627
-0.0828147
-0.078663
-0.0746114
-0.0706634
-0.0668219
-0.0630892
-0.0594673
-0.0559578
-0.0525615
-0.0492791
-0.0461106
-0.0430558
-0.0401138
-0.0372836
-0.0345637
-0.0319522
-0.0294472
-0.0270462
-0.0247467
-0.0225458
-0.0204408
-0.0184287
-0.0165064
-0.0146712
-0.0129201
-0.0112512
-0.00966036
-0.00815068
-0.00670915
-0.0053624
-0.00404909
-0.00290674
-0.00164175
-0.000888297
0.000667511
0.000305806
0.00350447
-0.000673777
0.00917009
-0.230883
-0.226805
-0.221813
-0.217134
-0.212525
-0.207853
-0.203131
-0.19837
-0.193569
-0.188729
-0.183853
-0.178943
-0.174005
-0.169042
-0.164062
-0.159069
-0.15407
-0.149072
-0.144081
-0.139106
-0.134153
-0.12923
-0.124344
-0.119502
-0.11471
-0.109977
-0.105308
-0.10071
-0.0961884
-0.0917491
-0.0873972
-0.0831376
-0.0789744
-0.0749116
-0.0709525
-0.0671001
-0.0633569
-0.0597248
-0.0562052
-0.0527993
-0.0495075
-0.04633
-0.0432664
-0.0403161
-0.0374778
-0.0347502
-0.0321315
-0.0296195
-0.0272119
-0.024906
-0.0226992
-0.0205886
-0.0185711
-0.0166438
-0.0148038
-0.013048
-0.0113748
-0.00977969
-0.00826595
-0.00682035
-0.00546973
-0.00415238
-0.00300605
-0.00173743
-0.000978093
0.0005769
0.000233208
0.00340396
-0.000693701
0.00898777
-0.232504
-0.22845
-0.223116
-0.218284
-0.213594
-0.208847
-0.204059
-0.199246
-0.194402
-0.189525
-0.184617
-0.179679
-0.174715
-0.16973
-0.164728
-0.159715
-0.154697
-0.149681
-0.144674
-0.139682
-0.134713
-0.129774
-0.124872
-0.120015
-0.115209
-0.11046
-0.105777
-0.101164
-0.0966279
-0.0921743
-0.0878082
-0.0835345
-0.0793575
-0.075281
-0.0713086
-0.0674431
-0.0636871
-0.0600424
-0.0565106
-0.0530928
-0.0497895
-0.0466008
-0.0435265
-0.0405658
-0.0377177
-0.0349806
-0.0323528
-0.0298321
-0.0274163
-0.0251026
-0.0228884
-0.0207708
-0.0187466
-0.016813
-0.014967
-0.0132056
-0.0115269
-0.00992647
-0.00840769
-0.00695704
-0.00560162
-0.00427927
-0.003128
-0.00185493
-0.00108829
0.000465651
0.000144219
0.00328062
-0.000718129
0.00876469
-0.23438
-0.230378
-0.224641
-0.219628
-0.214843
-0.210007
-0.205141
-0.200264
-0.195368
-0.190447
-0.1855
-0.180528
-0.175535
-0.170523
-0.165497
-0.160461
-0.155422
-0.150386
-0.14536
-0.14035
-0.135363
-0.130407
-0.125488
-0.120613
-0.11579
-0.111025
-0.106325
-0.101696
-0.0971433
-0.0926733
-0.0882911
-0.0840014
-0.0798085
-0.0757163
-0.0717284
-0.0678477
-0.0640767
-0.0604174
-0.0568713
-0.0534396
-0.0501227
-0.046921
-0.043834
-0.0408611
-0.0380012
-0.0352529
-0.0326143
-0.0300834
-0.0276578
-0.0253348
-0.0231118
-0.0209858
-0.0189537
-0.0170125
-0.0151594
-0.0133911
-0.0117059
-0.0100992
-0.00857442
-0.00711776
-0.00575664
-0.00442837
-0.00327123
-0.00199293
-0.00121759
0.000335025
3.99334e-05
0.00313591
-0.000746762
0.0085039
-0.236476
-0.232556
-0.226364
-0.221145
-0.216252
-0.211313
-0.206357
-0.201406
-0.196448
-0.191475
-0.186484
-0.181475
-0.176448
-0.171406
-0.166353
-0.161293
-0.156231
-0.151174
-0.146127
-0.141098
-0.136092
-0.131117
-0.12618
-0.121287
-0.116446
-0.111664
-0.106946
-0.102299
-0.0977285
-0.0932408
-0.0888408
-0.0845333
-0.0803229
-0.0762133
-0.0722081
-0.0683103
-0.0645225
-0.0608467
-0.0572844
-0.0538369
-0.0505047
-0.047288
-0.0441865
-0.0411997
-0.0383263
-0.0355651
-0.0329141
-0.0303713
-0.0279344
-0.0256007
-0.0233675
-0.0212317
-0.0191904
-0.0172405
-0.0153791
-0.0136029
-0.0119102
-0.0102962
-0.00876447
-0.00730087
-0.00593316
-0.00459809
-0.00343419
-0.00214992
-0.00136456
0.000186458
-7.84081e-05
0.00297147
-0.000779261
0.00820888
-0.238739
-0.234941
-0.22825
-0.222805
-0.217796
-0.212743
-0.207684
-0.202649
-0.197623
-0.192591
-0.18755
-0.182498
-0.177435
-0.172361
-0.167279
-0.162193
-0.157108
-0.152029
-0.146962
-0.141913
-0.136888
-0.131895
-0.126939
-0.122028
-0.117169
-0.112368
-0.107631
-0.102966
-0.0983769
-0.0938704
-0.0894516
-0.0851252
-0.0808958
-0.0767673
-0.0727434
-0.068827
-0.0650207
-0.0613268
-0.0577467
-0.0542817
-0.0509324
-0.047699
-0.0445814
-0.0415789
-0.0386905
-0.0359147
-0.0332498
-0.0306937
-0.028244
-0.0258982
-0.0236533
-0.0215066
-0.0194549
-0.0174951
-0.0156243
-0.0138391
-0.0121378
-0.0105156
-0.00897597
-0.00750455
-0.00612942
-0.00478671
-0.00361519
-0.00232428
-0.0015276
2.15251e-05
-0.000209452
0.00278912
-0.000815256
0.00788346
-0.237474
-0.230255
-0.224571
-0.219442
-0.214266
-0.209095
-0.203968
-0.198866
-0.19377
-0.188676
-0.183578
-0.178475
-0.173368
-0.168257
-0.163145
-0.158037
-0.152937
-0.14785
-0.142782
-0.137739
-0.132727
-0.127754
-0.122825
-0.117948
-0.113129
-0.108374
-0.10369
-0.0990816
-0.0945558
-0.0901173
-0.0857712
-0.081522
-0.0773736
-0.0733297
-0.0693934
-0.0655674
-0.0618538
-0.0582545
-0.0547705
-0.0514026
-0.048151
-0.0450158
-0.0419961
-0.039091
-0.0362992
-0.0336189
-0.031048
-0.0285842
-0.0262248
-0.0239672
-0.0218082
-0.0197449
-0.017774
-0.0158927
-0.0140975
-0.0123867
-0.0107553
-0.00920698
-0.00772687
-0.00634352
-0.00499237
-0.00381241
-0.00251424
-0.00170502
-0.000158096
-0.000351767
0.0025908
-0.00085436
0.00753177
-0.240082
-0.232324
-0.2264
-0.22115
-0.215847
-0.210556
-0.205332
-0.200149
-0.194986
-0.189835
-0.18469
-0.179548
-0.174407
-0.169267
-0.164131
-0.159001
-0.153881
-0.148776
-0.143691
-0.138631
-0.133603
-0.128614
-0.123668
-0.118774
-0.113938
-0.109165
-0.104462
-0.0998352
-0.09529
-0.0908318
-0.0864656
-0.0821958
-0.0780268
-0.0739621
-0.070005
-0.0661582
-0.0624239
-0.058804
-0.0552997
-0.0519119
-0.0486408
-0.0454864
-0.0424482
-0.0395251
-0.0367158
-0.0340187
-0.0314317
-0.0289524
-0.0265783
-0.0243065
-0.0221341
-0.0200581
-0.0180751
-0.0161822
-0.0143761
-0.0126549
-0.0110134
-0.00945543
-0.00796583
-0.00657348
-0.00521317
-0.00402399
-0.00271802
-0.00189507
-0.000350667
-0.000503882
0.00237853
-0.000896185
0.00715811
-0.242674
-0.234387
-0.228234
-0.222871
-0.217441
-0.21203
-0.206707
-0.201442
-0.19621
-0.191002
-0.18581
-0.180629
-0.175456
-0.170291
-0.165132
-0.159983
-0.154846
-0.149726
-0.144626
-0.139552
-0.134511
-0.129507
-0.124547
-0.119637
-0.114785
-0.109995
-0.105275
-0.10063
-0.0960661
-0.0915884
-0.0872021
-0.0829117
-0.0787217
-0.0746357
-0.0706571
-0.0667886
-0.0630327
-0.0593913
-0.0558656
-0.0524567
-0.0491649
-0.0459902
-0.0429321
-0.0399897
-0.0371617
-0.0344465
-0.0318421
-0.0293461
-0.026956
-0.024669
-0.0224821
-0.0203921
-0.018396
-0.0164906
-0.0146726
-0.01294
-0.0112876
-0.00971926
-0.0082194
-0.00681734
-0.00544717
-0.00424803
-0.00293377
-0.002096
-0.000554421
-0.000664318
0.00215436
-0.00094035
0.00676686
-0.23636
-0.230005
-0.224546
-0.218995
-0.213469
-0.208051
-0.202707
-0.197409
-0.192147
-0.186912
-0.181696
-0.176495
-0.171307
-0.16613
-0.160966
-0.155817
-0.150685
-0.145574
-0.14049
-0.135437
-0.130422
-0.125451
-0.120528
-0.115662
-0.110857
-0.106121
-0.101459
-0.0968773
-0.0923807
-0.0879747
-0.083664
-0.0794529
-0.0753454
-0.0713449
-0.0674543
-0.0636762
-0.0600124
-0.0564645
-0.0530335
-0.0497199
-0.0465237
-0.0434447
-0.0404818
-0.037634
-0.0348996
-0.0322766
-0.0297627
-0.0273555
-0.0250521
-0.0228496
-0.0207447
-0.0187344
-0.0168156
-0.0149847
-0.01324
-0.0115758
-0.00999638
-0.00848554
-0.00707309
-0.00569245
-0.00448267
-0.00315968
-0.00230606
-0.000767603
-0.000831621
0.00192035
-0.000986497
0.00636244
-0.231635
-0.226103
-0.220448
-0.214821
-0.20932
-0.203906
-0.19855
-0.193241
-0.187969
-0.182725
-0.177502
-0.172298
-0.167109
-0.161935
-0.156778
-0.151639
-0.146523
-0.141432
-0.136373
-0.13135
-0.12637
-0.121438
-0.11656
-0.111743
-0.106993
-0.102316
-0.097717
-0.0932026
-0.0887777
-0.0844472
-0.0802154
-0.0760865
-0.072064
-0.0681509
-0.06435
-0.0606634
-0.0570925
-0.0536386
-0.0503024
-0.0470839
-0.0439828
-0.0409985
-0.0381297
-0.035375
-0.0327323
-0.0301996
-0.0277742
-0.0254534
-0.0232342
-0.0211135
-0.0190881
-0.017155
-0.0153104
-0.0135527
-0.011876
-0.0102848
-0.00876228
-0.00733881
-0.00594712
-0.00472606
-0.00339397
-0.00252355
-0.00098849
-0.00100439
0.0016785
-0.00103432
0.00594917
-0.233027
-0.227458
-0.221727
-0.216025
-0.210462
-0.204996
-0.199597
-0.194254
-0.188956
-0.183693
-0.178458
-0.173245
-0.168051
-0.162874
-0.157716
-0.152576
-0.147459
-0.142367
-0.137306
-0.13228
-0.127295
-0.122356
-0.117471
-0.112644
-0.107882
-0.103192
-0.0985781
-0.0940474
-0.0896047
-0.0852552
-0.0810033
-0.0768533
-0.072809
-0.0688735
-0.0650497
-0.0613397
-0.0577455
-0.0542681
-0.0509085
-0.0476668
-0.044543
-0.0415363
-0.0386456
-0.0358696
-0.0332064
-0.0306538
-0.0282093
-0.0258701
-0.0236334
-0.021496
-0.0194547
-0.0175064
-0.0156473
-0.0138759
-0.0121861
-0.0105824
-0.00904762
-0.00761257
-0.00620933
-0.00497641
-0.0036349
-0.00274683
-0.0012154
-0.00118129
0.00143078
-0.0010836
0.00553128
-0.228508
-0.222742
-0.217007
-0.211416
-0.205923
-0.200504
-0.195146
-0.189838
-0.184571
-0.179334
-0.174123
-0.168934
-0.163763
-0.158611
-0.153478
-0.148367
-0.14328
-0.138222
-0.133198
-0.128213
-0.123272
-0.118382
-0.113549
-0.108779
-0.104077
-0.0994514
-0.0949062
-0.0904475
-0.0860802
-0.0818093
-0.0776391
-0.0735734
-0.0696158
-0.0657692
-0.062036
-0.0584181
-0.054917
-0.0515336
-0.0482683
-0.0451211
-0.0420913
-0.0391781
-0.0363801
-0.0336955
-0.0311222
-0.0286578
-0.0262996
-0.0240445
-0.0218897
-0.0198317
-0.0178675
-0.0159934
-0.0142076
-0.012504
-0.0108873
-0.00933974
-0.0078926
-0.00647736
-0.00523207
-0.00388087
-0.00297438
-0.00144677
-0.00136114
0.00117909
-0.00113424
0.00511274
-0.229122
-0.223381
-0.217675
-0.212106
-0.20663
-0.201224
-0.19588
-0.190587
-0.185334
-0.180114
-0.174919
-0.169746
-0.164592
-0.159456
-0.154339
-0.149241
-0.144166
-0.139118
-0.134101
-0.129121
-0.124183
-0.119293
-0.114457
-0.109681
-0.104972
-0.100336
-0.0957785
-0.0913054
-0.0869219
-0.0826331
-0.0784434
-0.0743571
-0.0703778
-0.0665086
-0.0627521
-0.0591104
-0.0555853
-0.0521776
-0.0488881
-0.0457168
-0.0426633
-0.0397268
-0.036906
-0.0341993
-0.0316045
-0.0291193
-0.0267411
-0.0244669
-0.0222937
-0.0202183
-0.0182375
-0.0163475
-0.0145467
-0.0128287
-0.0111983
-0.00963748
-0.00817772
-0.00675003
-0.00549183
-0.00413068
-0.00320501
-0.00168138
-0.00154282
0.000924783
-0.00118571
0.00469686
-0.223671
-0.218088
-0.212608
-0.207196
-0.201842
-0.196541
-0.191283
-0.186062
-0.180871
-0.175704
-0.170556
-0.165426
-0.160312
-0.155215
-0.150135
-0.145076
-0.140041
-0.135035
-0.130062
-0.125129
-0.12024
-0.115403
-0.110624
-0.105908
-0.101262
-0.0966929
-0.0922054
-0.0878055
-0.0834983
-0.0792886
-0.0751807
-0.0711785
-0.0672854
-0.0635043
-0.0598373
-0.0562865
-0.0528529
-0.0495375
-0.0463404
-0.0432614
-0.0402998
-0.0374544
-0.0347237
-0.0321057
-0.0295981
-0.0271984
-0.0249035
-0.0227107
-0.0206164
-0.0186177
-0.0167107
-0.0148938
-0.0131604
-0.0115155
-0.00994049
-0.00846735
-0.00702664
-0.0057548
-0.00438344
-0.0034376
-0.00191835
-0.00172502
0.000668383
-0.00123627
0.00428617
-0.218151
-0.212819
-0.207518
-0.202252
-0.197023
-0.191825
-0.186655
-0.181508
-0.176381
-0.171271
-0.166175
-0.161092
-0.156024
-0.15097
-0.145935
-0.14092
-0.135931
-0.130973
-0.12605
-0.121169
-0.116336
-0.111557
-0.106839
-0.102187
-0.0976089
-0.0931098
-0.0886958
-0.0843721
-0.0801439
-0.0760157
-0.0719915
-0.0680752
-0.0642696
-0.0605775
-0.0570009
-0.0535412
-0.0501994
-0.0469759
-0.0438707
-0.0408833
-0.0380126
-0.0352571
-0.0326151
-0.0300842
-0.0276621
-0.0253457
-0.0231323
-0.0210184
-0.0190012
-0.0170764
-0.0152428
-0.0134934
-0.0118335
-0.010244
-0.00875712
-0.00730316
-0.00601738
-0.00463586
-0.00366943
-0.00215491
-0.00190628
0.000412763
-0.00128751
0.00388655
-0.215777
-0.210867
-0.205919
-0.200949
-0.195966
-0.190975
-0.185982
-0.180988
-0.175996
-0.171004
-0.166015
-0.161028
-0.156047
-0.151072
-0.146108
-0.141159
-0.136228
-0.131321
-0.126444
-0.121603
-0.116805
-0.112056
-0.107362
-0.102731
-0.0981688
-0.0936817
-0.0892758
-0.0849569
-0.0807303
-0.0766009
-0.0725731
-0.0686507
-0.0648373
-0.0611357
-0.057548
-0.0540761
-0.0507211
-0.0474838
-0.0443641
-0.0413618
-0.0384759
-0.0357052
-0.033048
-0.0305021
-0.0280651
-0.0257342
-0.0235066
-0.0213789
-0.0193483
-0.0174106
-0.0155645
-0.0138029
-0.0121314
-0.0105302
-0.00903235
-0.00756713
-0.00626995
-0.00487885
-0.00389562
-0.00238246
-0.00208897
0.000172963
-0.00136079
0.0035161
-0.210778
-0.205887
-0.200959
-0.19601
-0.191047
-0.186077
-0.181103
-0.176128
-0.171151
-0.166175
-0.1612
-0.156229
-0.151264
-0.146309
-0.141367
-0.136444
-0.131544
-0.126673
-0.121838
-0.117045
-0.112301
-0.107612
-0.102985
-0.0984261
-0.0939424
-0.0895395
-0.0852232
-0.0809989
-0.0768714
-0.0728453
-0.0689243
-0.0651119
-0.0614109
-0.0578237
-0.054352
-0.050997
-0.0477593
-0.0446391
-0.041636
-0.0387492
-0.0359773
-0.0333186
-0.0307711
-0.0283322
-0.0259992
-0.0237692
-0.0216388
-0.0196052
-0.017664
-0.0158142
-0.0140482
-0.0123721
-0.0107652
-0.00926192
-0.00778924
-0.00648566
-0.00508542
-0.00409312
-0.00257284
-0.00225753
-1.23268e-05
-0.00146417
0.00322503
-0.20749
-0.202937
-0.198296
-0.193594
-0.188848
-0.184072
-0.179272
-0.174454
-0.169623
-0.16478
-0.15993
-0.155075
-0.150219
-0.145366
-0.14052
-0.135687
-0.130873
-0.126082
-0.121323
-0.116601
-0.111922
-0.107295
-0.102725
-0.0982202
-0.0937856
-0.0894281
-0.0851534
-0.0809671
-0.0768741
-0.0728791
-0.0689862
-0.0651988
-0.0615201
-0.0579525
-0.0544978
-0.0511576
-0.0479325
-0.044823
-0.0418287
-0.038949
-0.0361827
-0.0335283
-0.0309837
-0.0285467
-0.0262145
-0.0239844
-0.0218531
-0.0198179
-0.0178744
-0.0160218
-0.0142523
-0.0125724
-0.0109611
-0.00945277
-0.00797517
-0.00666435
-0.00526058
-0.00425412
-0.00274052
-0.00238518
-0.000192576
-0.00150776
0.00294753
-0.203545
-0.199315
-0.19496
-0.190513
-0.185997
-0.181428
-0.176819
-0.172177
-0.167509
-0.162819
-0.158113
-0.153393
-0.148666
-0.143935
-0.139206
-0.134484
-0.129775
-0.125085
-0.120421
-0.115789
-0.111197
-0.106651
-0.102158
-0.0977248
-0.0933578
-0.0890633
-0.0848474
-0.0807155
-0.076673
-0.0727243
-0.0688739
-0.0651254
-0.0614819
-0.0579461
-0.0545201
-0.0512055
-0.0480031
-0.0449136
-0.0419368
-0.0390722
-0.0363189
-0.0336754
-0.03114
-0.0287104
-0.0263841
-0.0241586
-0.0220307
-0.0199977
-0.0180556
-0.0162033
-0.0144334
-0.0127522
-0.0111394
-0.00962798
-0.0081486
-0.00683115
-0.00542857
-0.00440504
-0.00290797
-0.00249998
-0.000384603
-0.00152394
0.00265055
-0.199646
-0.195705
-0.191614
-0.187408
-0.183112
-0.178746
-0.174323
-0.169854
-0.165348
-0.160809
-0.156246
-0.151662
-0.147063
-0.142454
-0.137842
-0.133231
-0.128628
-0.124039
-0.119471
-0.114931
-0.110426
-0.105962
-0.101547
-0.0971871
-0.0928891
-0.0886593
-0.0845038
-0.0804282
-0.0764378
-0.0725374
-0.0687313
-0.0650234
-0.0614171
-0.057915
-0.0545195
-0.0512322
-0.0480543
-0.0449864
-0.0420287
-0.0391808
-0.0364419
-0.0338108
-0.0312857
-0.0288648
-0.0265456
-0.0243257
-0.0222021
-0.0201722
-0.0182321
-0.0163809
-0.0146113
-0.0129293
-0.0113155
-0.00980121
-0.0083206
-0.00699637
-0.00559586
-0.00455424
-0.00307568
-0.002612
-0.000578209
-0.00153479
0.00234779
-0.195642
-0.191978
-0.188147
-0.184182
-0.18011
-0.175951
-0.171721
-0.167432
-0.163094
-0.158714
-0.1543
-0.149857
-0.145393
-0.140912
-0.13642
-0.131925
-0.127432
-0.122949
-0.118481
-0.114036
-0.109621
-0.105242
-0.100908
-0.0966236
-0.092397
-0.0882341
-0.0841411
-0.0801236
-0.0761872
-0.0723367
-0.0685766
-0.0649109
-0.061343
-0.0578759
-0.054512
-0.0512531
-0.0481005
-0.0450552
-0.0421174
-0.0392869
-0.0365631
-0.0339448
-0.0314307
-0.0290189
-0.0267071
-0.0244931
-0.022374
-0.0203474
-0.0184095
-0.0165593
-0.0147901
-0.0131073
-0.0114924
-0.00997517
-0.00849333
-0.00716192
-0.00576368
-0.0047031
-0.00324374
-0.00272265
-0.000771948
-0.00154333
0.00204265
-0.191476
-0.188079
-0.184503
-0.180779
-0.176934
-0.172988
-0.168958
-0.164857
-0.160696
-0.156483
-0.152226
-0.147933
-0.14361
-0.139264
-0.134901
-0.130528
-0.126152
-0.121779
-0.117417
-0.113072
-0.108752
-0.104464
-0.100215
-0.0960109
-0.0918598
-0.0877677
-0.0837408
-0.0797849
-0.0759057
-0.0721081
-0.0683968
-0.0647759
-0.0612489
-0.057819
-0.0544887
-0.0512601
-0.0481347
-0.0451136
-0.042197
-0.0393852
-0.0366776
-0.0340733
-0.031571
-0.0291691
-0.0268654
-0.0246579
-0.0225438
-0.0205209
-0.0185855
-0.0167367
-0.014968
-0.0132845
-0.0116688
-0.0101485
-0.00866554
-0.00732667
-0.00593106
-0.00485073
-0.00341152
-0.0028312
-0.000965624
-0.00154877
0.00173664
-0.18717
-0.184026
-0.180698
-0.177213
-0.173596
-0.169867
-0.166041
-0.162133
-0.158155
-0.154115
-0.150022
-0.145885
-0.141711
-0.137506
-0.133278
-0.129034
-0.12478
-0.120524
-0.116273
-0.112034
-0.107814
-0.103621
-0.0994615
-0.0953425
-0.0912711
-0.0872537
-0.0832968
-0.0794062
-0.0755876
-0.0718462
-0.0681867
-0.0646133
-0.0611299
-0.0577397
-0.0544454
-0.0512493
-0.048153
-0.0451578
-0.0422643
-0.0394726
-0.0367826
-0.0341934
-0.0317041
-0.029313
-0.0270183
-0.024818
-0.0227096
-0.0206909
-0.0187585
-0.0169115
-0.0151437
-0.0134597
-0.0118434
-0.0103201
-0.00883634
-0.00748984
-0.00609723
-0.00499655
-0.0035783
-0.00293737
-0.00115844
-0.00155149
0.00143183
-0.182743
-0.17984
-0.176752
-0.173502
-0.170112
-0.166599
-0.162981
-0.159271
-0.15548
-0.151619
-0.147696
-0.143721
-0.139701
-0.135644
-0.131556
-0.127446
-0.12332
-0.119186
-0.115051
-0.110922
-0.106807
-0.102714
-0.0986483
-0.0946183
-0.0906305
-0.0866918
-0.0828084
-0.0789866
-0.075232
-0.0715498
-0.0679451
-0.0644222
-0.060985
-0.057637
-0.054381
-0.0512195
-0.0481543
-0.0451869
-0.042318
-0.0395481
-0.036877
-0.0343043
-0.031829
-0.0294498
-0.027165
-0.0249727
-0.0228707
-0.0208569
-0.018928
-0.0170832
-0.0153166
-0.0136324
-0.0120157
-0.0104896
-0.00900523
-0.00765102
-0.00626169
-0.00514028
-0.00374347
-0.00304118
-0.00134939
-0.0015524
0.0011305
-0.178206
-0.175534
-0.172678
-0.169658
-0.166493
-0.163197
-0.159788
-0.156278
-0.152678
-0.149
-0.145252
-0.141444
-0.137583
-0.133678
-0.129736
-0.125765
-0.121772
-0.117765
-0.11375
-0.109737
-0.105732
-0.101742
-0.0977746
-0.0938375
-0.0899374
-0.086081
-0.0822749
-0.0785252
-0.0748378
-0.0712181
-0.0676711
-0.0642014
-0.0608131
-0.0575097
-0.0542943
-0.0511696
-0.0481375
-0.0451997
-0.0423572
-0.0396106
-0.03696
-0.034405
-0.0319449
-0.0295786
-0.0273047
-0.0251213
-0.0230264
-0.0210181
-0.0190932
-0.0172511
-0.0154861
-0.0138021
-0.0121853
-0.0106565
-0.00917173
-0.00780983
-0.00642397
-0.00528167
-0.00390644
-0.00314268
-0.00153752
-0.00155235
0.000834846
-0.173572
-0.171121
-0.168491
-0.165696
-0.162751
-0.159672
-0.156471
-0.153162
-0.149756
-0.146264
-0.142694
-0.139057
-0.13536
-0.131612
-0.12782
-0.123992
-0.120137
-0.116261
-0.112372
-0.108478
-0.104586
-0.100704
-0.0968396
-0.0929993
-0.0891906
-0.0854202
-0.0816948
-0.0780206
-0.0744037
-0.0708495
-0.0673632
-0.0639495
-0.0606127
-0.0573565
-0.0541841
-0.0510983
-0.0481015
-0.0451952
-0.0423809
-0.0396591
-0.0370304
-0.0344945
-0.0320509
-0.0296987
-0.0274366
-0.025263
-0.0231759
-0.0211738
-0.0192536
-0.0174146
-0.0156517
-0.0139682
-0.0123517
-0.0108203
-0.00933538
-0.00796586
-0.00658359
-0.00542042
-0.00406665
-0.00324188
-0.00172193
-0.00155207
0.000546905
-0.168853
-0.166617
-0.164205
-0.161628
-0.158901
-0.156034
-0.153042
-0.149935
-0.146723
-0.143419
-0.14003
-0.136567
-0.133037
-0.129449
-0.125811
-0.122131
-0.118417
-0.114676
-0.110917
-0.107146
-0.103372
-0.0996016
-0.095843
-0.0921032
-0.0883894
-0.0847086
-0.0810673
-0.0774719
-0.0739286
-0.0704429
-0.0670202
-0.0636654
-0.0603827
-0.0571761
-0.054049
-0.0510045
-0.0480449
-0.0451721
-0.0423877
-0.0396926
-0.0370873
-0.0345719
-0.0321461
-0.029809
-0.0275598
-0.0253969
-0.0233186
-0.0213233
-0.0194085
-0.0175731
-0.0158128
-0.0141302
-0.0125142
-0.0109806
-0.00949569
-0.00811872
-0.00674009
-0.00555628
-0.00422354
-0.00333878
-0.00190178
-0.00155224
0.00026858
-0.164063
-0.162034
-0.159834
-0.157471
-0.154956
-0.152299
-0.149512
-0.146606
-0.143589
-0.140473
-0.137267
-0.133979
-0.130619
-0.127194
-0.123713
-0.120184
-0.116614
-0.113012
-0.109386
-0.105742
-0.102089
-0.098434
-0.094785
-0.0911491
-0.0875337
-0.0839456
-0.0803916
-0.0768782
-0.0734116
-0.0699974
-0.0666412
-0.0633478
-0.0601218
-0.0569674
-0.053888
-0.0508869
-0.0479666
-0.0451293
-0.0423767
-0.0397098
-0.0371296
-0.0346361
-0.0322294
-0.0299088
-0.0276734
-0.0255222
-0.0234535
-0.0214659
-0.0195571
-0.017726
-0.0159688
-0.0142874
-0.0126724
-0.0111369
-0.0096522
-0.00826803
-0.00689302
-0.00568899
-0.00437662
-0.00343338
-0.00207626
-0.00155345
1.60395e-06
-0.159215
-0.157388
-0.155394
-0.153239
-0.150931
-0.14848
-0.145896
-0.143187
-0.140365
-0.137437
-0.134413
-0.131303
-0.128113
-0.124854
-0.121532
-0.118156
-0.114733
-0.111273
-0.107782
-0.104268
-0.100739
-0.0972025
-0.0936663
-0.0901375
-0.0866235
-0.0831313
-0.0796677
-0.0762392
-0.0728521
-0.0695122
-0.0662251
-0.0629959
-0.0598292
-0.0567294
-0.0537
-0.0507445
-0.0478656
-0.0450658
-0.0423468
-0.03971
-0.0371563
-0.0346863
-0.0323
-0.029997
-0.0277768
-0.0256383
-0.0235801
-0.021601
-0.0196988
-0.0178728
-0.0161191
-0.0144395
-0.0128258
-0.0112888
-0.00980449
-0.00841344
-0.00704197
-0.00581832
-0.0045254
-0.00352569
-0.00224464
-0.00155623
-0.000252473
-0.154325
-0.152695
-0.1509
-0.148947
-0.146841
-0.144591
-0.142205
-0.139692
-0.137061
-0.13432
-0.131478
-0.128545
-0.125527
-0.122433
-0.119272
-0.116051
-0.112778
-0.109461
-0.106108
-0.102726
-0.0993242
-0.0959089
-0.0924881
-0.0890692
-0.0856594
-0.0822659
-0.0788954
-0.0755546
-0.0722498
-0.0689869
-0.0657716
-0.0626091
-0.0595042
-0.0564612
-0.0534842
-0.0505764
-0.0477411
-0.0449806
-0.0422971
-0.039692
-0.0371666
-0.0347215
-0.032357
-0.030073
-0.027869
-0.0257443
-0.0236976
-0.0217278
-0.0198332
-0.0180127
-0.0162632
-0.014586
-0.012974
-0.0114358
-0.00995216
-0.00855462
-0.00718656
-0.00594404
-0.00466947
-0.0036157
-0.00240626
-0.00156102
-0.000492307
-0.149407
-0.147968
-0.146367
-0.144609
-0.142699
-0.140645
-0.138453
-0.136132
-0.133689
-0.131133
-0.128472
-0.125714
-0.122868
-0.11994
-0.11694
-0.113875
-0.110752
-0.107581
-0.104367
-0.10112
-0.097847
-0.0945551
-0.0912521
-0.0879455
-0.0846424
-0.0813501
-0.0780753
-0.0748247
-0.0716047
-0.0684214
-0.0652803
-0.0621869
-0.0591461
-0.0561623
-0.0532397
-0.050382
-0.0475921
-0.044873
-0.0422267
-0.0396552
-0.0371596
-0.034741
-0.0323997
-0.030136
-0.0279494
-0.0258396
-0.0238054
-0.0218459
-0.0199595
-0.0181453
-0.0164007
-0.0147263
-0.0131165
-0.0115775
-0.0100948
-0.00869126
-0.00732644
-0.00606596
-0.00480843
-0.00370341
-0.00256056
-0.00156817
-0.000716779
-0.144477
-0.143222
-0.141809
-0.14024
-0.13852
-0.136656
-0.134653
-0.132519
-0.130261
-0.127886
-0.125404
-0.12282
-0.120144
-0.117382
-0.114543
-0.111634
-0.108663
-0.105637
-0.102565
-0.0994534
-0.0963105
-0.0931437
-0.0899605
-0.0867681
-0.0835739
-0.0803849
-0.0772081
-0.07405
-0.0709171
-0.0678155
-0.064751
-0.061729
-0.0587545
-0.0558322
-0.0529662
-0.0501604
-0.0474181
-0.0447422
-0.0421351
-0.0395987
-0.0371347
-0.034744
-0.0324274
-0.0301853
-0.0280174
-0.0259235
-0.0239028
-0.0219545
-0.0200772
-0.0182701
-0.016531
-0.01486
-0.0132529
-0.0117137
-0.0102321
-0.00882308
-0.00746131
-0.00618389
-0.00494196
-0.00378881
-0.00270703
-0.00157792
-0.000925007
-0.139549
-0.138473
-0.137241
-0.135854
-0.134318
-0.132637
-0.130817
-0.128865
-0.126788
-0.124591
-0.122284
-0.119872
-0.117364
-0.114766
-0.112087
-0.109334
-0.106514
-0.103635
-0.100704
-0.0977294
-0.0947181
-0.0916777
-0.0886156
-0.0855391
-0.0824555
-0.0793718
-0.0762948
-0.0732313
-0.0701876
-0.0671699
-0.064184
-0.0612355
-0.0583294
-0.0554705
-0.0526633
-0.0499114
-0.0472186
-0.0445877
-0.0420215
-0.039522
-0.0370911
-0.0347299
-0.0324395
-0.0302202
-0.0280723
-0.0259955
-0.0239894
-0.0220532
-0.0201859
-0.0183867
-0.0166537
-0.0149868
-0.0133828
-0.011844
-0.0103638
-0.00894982
-0.00759087
-0.00629766
-0.00506976
-0.00387185
-0.0028453
-0.00159043
-0.00111633
-0.134639
-0.133735
-0.132676
-0.131464
-0.130104
-0.128601
-0.126958
-0.125183
-0.123281
-0.121258
-0.119122
-0.116879
-0.114536
-0.112101
-0.109581
-0.106982
-0.104312
-0.101579
-0.0987903
-0.0959525
-0.0930733
-0.0901602
-0.0872203
-0.084261
-0.0812893
-0.0783123
-0.0753368
-0.0723695
-0.0694168
-0.0664849
-0.0635796
-0.0607065
-0.0578708
-0.0550773
-0.0523306
-0.0496346
-0.0469931
-0.0444091
-0.0418855
-0.0394246
-0.0370283
-0.0346982
-0.0324353
-0.0302403
-0.0281135
-0.0260551
-0.0240646
-0.0221416
-0.0202851
-0.0184946
-0.0167685
-0.0151064
-0.013506
-0.011968
-0.0104895
-0.00907125
-0.00771491
-0.00640713
-0.00519161
-0.0039525
-0.00297506
-0.0016058
-0.00129033
-0.129761
-0.12902
-0.128127
-0.127083
-0.125893
-0.124559
-0.123087
-0.121483
-0.119751
-0.117897
-0.115928
-0.11385
-0.11167
-0.109394
-0.10703
-0.104584
-0.102064
-0.0994763
-0.0968283
-0.0941272
-0.0913803
-0.0885947
-0.0857777
-0.0829363
-0.0800776
-0.0772085
-0.0743359
-0.0714662
-0.0686061
-0.0657615
-0.0629384
-0.0601424
-0.0573789
-0.0546526
-0.0519683
-0.0493299
-0.0467414
-0.044206
-0.0417267
-0.039306
-0.036946
-0.0346484
-0.0324144
-0.030245
-0.0281407
-0.0261017
-0.0241279
-0.0222191
-0.0203745
-0.0185934
-0.0168749
-0.0152182
-0.0136221
-0.0120856
-0.010609
-0.00918719
-0.0078332
-0.00651216
-0.00530731
-0.00403072
-0.00309611
-0.00162401
-0.00144682
-0.124928
-0.124343
-0.123607
-0.122723
-0.121694
-0.120524
-0.119216
-0.117776
-0.116208
-0.114518
-0.112711
-0.110794
-0.108773
-0.106654
-0.104443
-0.102148
-0.0997751
-0.0973312
-0.0948232
-0.0922582
-0.0896432
-0.0869851
-0.084291
-0.081568
-0.0788229
-0.0760626
-0.0732937
-0.0705229
-0.0677565
-0.0650007
-0.0622613
-0.059544
-0.0568542
-0.0541967
-0.0515764
-0.0489973
-0.0464635
-0.0439783
-0.0415449
-0.039166
-0.0368437
-0.0345801
-0.0323764
-0.030234
-0.0281533
-0.026135
-0.0241791
-0.0222854
-0.0204535
-0.0186829
-0.0169728
-0.0153222
-0.0137309
-0.0121965
-0.0107222
-0.00929745
-0.00794559
-0.00661264
-0.00541674
-0.00410645
-0.00320832
-0.00164498
-0.00158581
-0.120153
-0.119713
-0.119127
-0.118395
-0.117519
-0.116505
-0.115354
-0.114071
-0.112661
-0.111129
-0.10948
-0.107719
-0.105852
-0.103886
-0.101826
-0.0996793
-0.0974516
-0.0951496
-0.0927803
-0.0903502
-0.0878662
-0.0853351
-0.0827638
-0.0801592
-0.0775279
-0.0748768
-0.0722124
-0.0695413
-0.0668697
-0.0642037
-0.0615492
-0.058912
-0.0562973
-0.0537101
-0.0511552
-0.048637
-0.0461593
-0.0437259
-0.04134
-0.0390043
-0.0367213
-0.034493
-0.0323211
-0.0302069
-0.0281512
-0.0261547
-0.0242177
-0.0223402
-0.020522
-0.0187627
-0.0170617
-0.0154181
-0.0138321
-0.0123004
-0.0108288
-0.00940188
-0.00805195
-0.00670848
-0.0055198
-0.00417962
-0.00331169
-0.00166856
-0.00170757
-0.115446
-0.115144
-0.114698
-0.114108
-0.113379
-0.112512
-0.111511
-0.110379
-0.109121
-0.10774
-0.106243
-0.104633
-0.102917
-0.1011
-0.0991868
-0.0971847
-0.0950994
-0.0929372
-0.0907045
-0.0884078
-0.0860536
-0.0836487
-0.0811996
-0.078713
-0.0761956
-0.0736538
-0.0710943
-0.0685233
-0.0659472
-0.0633719
-0.0608034
-0.0582473
-0.0557089
-0.0531933
-0.0507053
-0.0482492
-0.0458292
-0.043449
-0.0411119
-0.0388209
-0.0365785
-0.034387
-0.0322482
-0.0301634
-0.028134
-0.0261605
-0.0242435
-0.0223833
-0.0205797
-0.0188325
-0.0171415