/*--------------------------------*- C++ -*----------------------------------*\
  =========                 |
  \\      /  F ield         | OpenFOAM: The Open Source CFD Toolbox
   \\    /   O peration     | Website:  https://openfoam.org
    \\  /    A nd           | Version:  7
     \\/     M anipulation  |
\*---------------------------------------------------------------------------*/
FoamFile
{
    version     2.0;
    format      ascii;
    class       volScalarField;
    location    "86.000586";
    object      p;
}
// * * * * * * * * * * * * * * * * * * * * * * * * * * * * * * * * * * * * * //

dimensions      [0 2 -2 0 0 0 0];

internalField   nonuniform List<scalar> 
5800
(
-0.226278
-0.226768
-0.227186
-0.2275
-0.227676
-0.227672
-0.227452
-0.227001
-0.226297
-0.218472
-0.220213
-0.221268
-0.222091
-0.222807
-0.223438
-0.224021
-0.224581
-0.22513
-0.225665
-0.226173
-0.226634
-0.227023
-0.227308
-0.227455
-0.227426
-0.227183
-0.226722
-0.226031
-0.218833
-0.220515
-0.221533
-0.222328
-0.223017
-0.223623
-0.22418
-0.224713
-0.225234
-0.22574
-0.226218
-0.226649
-0.227006
-0.22726
-0.227376
-0.227319
-0.227047
-0.226557
-0.225885
-0.219444
-0.221041
-0.222009
-0.222762
-0.223413
-0.223982
-0.224504
-0.225003
-0.225489
-0.225959
-0.226402
-0.226797
-0.22712
-0.227339
-0.227422
-0.227335
-0.22703
-0.226483
-0.225876
-0.220288
-0.221777
-0.222679
-0.223379
-0.223981
-0.224503
-0.224979
-0.225434
-0.225876
-0.226304
-0.226704
-0.227058
-0.227341
-0.227522
-0.227569
-0.227451
-0.227112
-0.226457
-0.226036
-0.22134
-0.222703
-0.223527
-0.224163
-0.224703
-0.225167
-0.225587
-0.225987
-0.226375
-0.22675
-0.2271
-0.227405
-0.227642
-0.22778
-0.227785
-0.227632
-0.227276
-0.226414
-0.226417
-0.222623
-0.222575
-0.223798
-0.224535
-0.225094
-0.225562
-0.225956
-0.226307
-0.226639
-0.226961
-0.227272
-0.227561
-0.227808
-0.22799
-0.228079
-0.228035
-0.227837
-0.227509
-0.226252
-0.227058
-0.221377
-0.223966
-0.225041
-0.22568
-0.226154
-0.226537
-0.226847
-0.227116
-0.227366
-0.227608
-0.227842
-0.228056
-0.228233
-0.22835
-0.22838
-0.22828
-0.228007
-0.227795
-0.225908
-0.227821
-0.220162
-0.225486
-0.22641
-0.226946
-0.227325
-0.22761
-0.227822
-0.227992
-0.228144
-0.22829
-0.22843
-0.228555
-0.228648
-0.228687
-0.228648
-0.228483
-0.228088
-0.228039
-0.225696
-0.228181
-0.21903
-0.227113
-0.227888
-0.228315
-0.228589
-0.228764
-0.228863
-0.228917
-0.228952
-0.228983
-0.229012
-0.229031
-0.229025
-0.228971
-0.228847
-0.228609
-0.228138
-0.228084
-0.225337
-0.228612
-0.217598
-0.228829
-0.22946
-0.229775
-0.229934
-0.229985
-0.229953
-0.229872
-0.229771
-0.229667
-0.229565
-0.22946
-0.229337
-0.229174
-0.228951
-0.228625
-0.228035
-0.228061
-0.22468
-0.229078
-0.215931
-0.230623
-0.231118
-0.231317
-0.231351
-0.231264
-0.231084
-0.230847
-0.230589
-0.230328
-0.230075
-0.229826
-0.229568
-0.22928
-0.228941
-0.228518
-0.227761
-0.227936
-0.223747
-0.229397
-0.214188
-0.232492
-0.23286
-0.23294
-0.232839
-0.232598
-0.232249
-0.231836
-0.231397
-0.230959
-0.230533
-0.230121
-0.229712
-0.229282
-0.22881
-0.228281
-0.227321
-0.227639
-0.222629
-0.229312
-0.212628
-0.234443
-0.234692
-0.234649
-0.2344
-0.233987
-0.23345
-0.232839
-0.232198
-0.23156
-0.230942
-0.230348
-0.22977
-0.229185
-0.228563
-0.227912
-0.226737
-0.227089
-0.221467
-0.228494
-0.211475
-0.23649
-0.236627
-0.236454
-0.236043
-0.235441
-0.234696
-0.233865
-0.233
-0.232141
-0.231311
-0.23052
-0.229758
-0.229002
-0.228214
-0.227412
-0.226035
-0.226197
-0.220382
-0.226671
-0.210687
-0.238661
-0.238687
-0.238376
-0.237784
-0.236976
-0.236002
-0.234928
-0.233819
-0.23272
-0.231663
-0.230658
-0.229698
-0.228757
-0.227783
-0.226786
-0.225222
-0.224907
-0.219366
-0.223817
-0.209879
-0.24099
-0.2409
-0.240433
-0.239652
-0.238614
-0.237388
-0.236053
-0.23468
-0.233326
-0.232025
-0.230793
-0.22962
-0.228473
-0.227287
-0.226033
-0.224267
-0.223217
-0.218226
-0.220179
-0.208542
-0.243522
-0.243301
-0.242665
-0.24167
-0.240382
-0.238885
-0.237269
-0.235616
-0.233991
-0.232434
-0.230961
-0.229557
-0.228177
-0.226736
-0.225148
-0.223098
-0.221157
-0.216665
-0.216033
-0.20638
-0.246306
-0.245933
-0.245107
-0.243874
-0.242313
-0.240525
-0.23861
-0.236664
-0.234755
-0.23293
-0.2312
-0.229539
-0.227882
-0.226121
-0.22411
-0.221635
-0.21875
-0.214435
-0.211429
-0.203441
-0.2494
-0.24884
-0.247799
-0.246302
-0.244445
-0.242346
-0.240117
-0.237863
-0.23566
-0.233552
-0.231542
-0.229586
-0.227591
-0.225418
-0.222876
-0.219811
-0.216
-0.211438
-0.206331
-0.199959
-0.252858
-0.252073
-0.250783
-0.248995
-0.246819
-0.244389
-0.241832
-0.239258
-0.236747
-0.234337
-0.232013
-0.229707
-0.227289
-0.22459
-0.221394
-0.217589
-0.212899
-0.207722
-0.201175
-0.195794
-0.25674
-0.255679
-0.254104
-0.251997
-0.249477
-0.246697
-0.243797
-0.240891
-0.238055
-0.235313
-0.232627
-0.229892
-0.226943
-0.22359
-0.219617
-0.214964
-0.209415
-0.203413
-0.196355
-0.190137
-0.261101
-0.259707
-0.257809
-0.25535
-0.252461
-0.249314
-0.246056
-0.242802
-0.239616
-0.2365
-0.233381
-0.230115
-0.226508
-0.222368
-0.217513
-0.211951
-0.205546
-0.19881
-0.191195
-0.184318
-0.265994
-0.264203
-0.26194
-0.259097
-0.255814
-0.252282
-0.24865
-0.245026
-0.241454
-0.237901
-0.234253
-0.230333
-0.225932
-0.220882
-0.215069
-0.208574
-0.201366
-0.193942
-0.185878
-0.178575
-0.271466
-0.26921
-0.266538
-0.263282
-0.259581
-0.255642
-0.251616
-0.24759
-0.243577
-0.239502
-0.235207
-0.23049
-0.225159
-0.219099
-0.212287
-0.204877
-0.196923
-0.188899
-0.180444
-0.172794
-0.277557
-0.274765
-0.271644
-0.267943
-0.2638
-0.259435
-0.254986
-0.250512
-0.245982
-0.24127
-0.236185
-0.230524
-0.224139
-0.216998
-0.20918
-0.200898
-0.192268
-0.183714
-0.17491
-0.167004
-0.284298
-0.280901
-0.277291
-0.273117
-0.26851
-0.263693
-0.258782
-0.253793
-0.24864
-0.243152
-0.237118
-0.230366
-0.222827
-0.214571
-0.205768
-0.196672
-0.187431
-0.178405
-0.169296
-0.161149
-0.291712
-0.287643
-0.283508
-0.278837
-0.273742
-0.268441
-0.263012
-0.257415
-0.251505
-0.245074
-0.237925
-0.229951
-0.221189
-0.211814
-0.202069
-0.192221
-0.182425
-0.172972
-0.163586
-0.155219
-0.299808
-0.295005
-0.290315
-0.285125
-0.279516
-0.273687
-0.267663
-0.261333
-0.2545
-0.246946
-0.238519
-0.229217
-0.219198
-0.208727
-0.198095
-0.187553
-0.177251
-0.167404
-0.157768
-0.149188
-0.308581
-0.302989
-0.297719
-0.291992
-0.285839
-0.279421
-0.272693
-0.265475
-0.25753
-0.248662
-0.238814
-0.228112
-0.216833
-0.20531
-0.193845
-0.182665
-0.171897
-0.161684
-0.151821
-0.143038
-0.318005
-0.31158
-0.305714
-0.299432
-0.292693
-0.285602
-0.278032
-0.269738
-0.260473
-0.250112
-0.238727
-0.226589
-0.214075
-0.201553
-0.189313
-0.177543
-0.166341
-0.155789
-0.145722
-0.136747
-0.328032
-0.320742
-0.31427
-0.307414
-0.300033
-0.292159
-0.283576
-0.273991
-0.263196
-0.251181
-0.238183
-0.224608
-0.210902
-0.19744
-0.184479
-0.172162
-0.160559
-0.149696
-0.139449
-0.130294
-0.338589
-0.330417
-0.323334
-0.315879
-0.307782
-0.298982
-0.289183
-0.278081
-0.265554
-0.251761
-0.237112
-0.222127
-0.207288
-0.192947
-0.179317
-0.166497
-0.154523
-0.143378
-0.132977
-0.123661
-0.349571
-0.340516
-0.332823
-0.324734
-0.315823
-0.305925
-0.294684
-0.281834
-0.267402
-0.251748
-0.23545
-0.219107
-0.203201
-0.188044
-0.173796
-0.160514
-0.148204
-0.13681
-0.126283
-0.116827
-0.360838
-0.350917
-0.342617
-0.333847
-0.323998
-0.312802
-0.299881
-0.285068
-0.268598
-0.251048
-0.233135
-0.215503
-0.198604
-0.182694
-0.167881
-0.154182
-0.141571
-0.129967
-0.119344
-0.109773
-0.372219
-0.361466
-0.352562
-0.343049
-0.332112
-0.319398
-0.30456
-0.287602
-0.269008
-0.249569
-0.230107
-0.211268
-0.193454
-0.176857
-0.161535
-0.147465
-0.134595
-0.122823
-0.112138
-0.102481
-0.383506
-0.371973
-0.362464
-0.352128
-0.339932
-0.325471
-0.308496
-0.289255
-0.268506
-0.247228
-0.226305
-0.206352
-0.187705
-0.170492
-0.154719
-0.140331
-0.127249
-0.115354
-0.104644
-0.0949356
-0.394456
-0.382211
-0.372094
-0.360836
-0.347194
-0.330761
-0.311467
-0.289859
-0.266974
-0.243943
-0.221668
-0.200704
-0.181312
-0.163557
-0.147397
-0.132749
-0.119506
-0.10754
-0.0968425
-0.0871212
-0.404798
-0.391924
-0.381187
-0.368894
-0.353615
-0.335005
-0.313256
-0.289257
-0.264306
-0.239639
-0.216133
-0.194269
-0.174227
-0.156009
-0.139534
-0.124688
-0.111343
-0.0993607
-0.0887164
-0.0790291
-0.414234
-0.400826
-0.389451
-0.376
-0.358896
-0.337939
-0.313659
-0.287305
-0.260402
-0.234241
-0.209643
-0.186997
-0.166404
-0.14781
-0.131096
-0.116122
-0.102738
-0.0907984
-0.080255
-0.0706592
-0.422448
-0.408608
-0.396571
-0.381836
-0.36274
-0.339315
-0.31249
-0.283874
-0.255173
-0.227681
-0.202138
-0.178837
-0.157801
-0.138924
-0.122054
-0.107027
-0.0936716
-0.0818372
-0.0714505
-0.0620167
-0.42911
-0.414948
-0.40222
-0.386079
-0.364855
-0.338899
-0.309583
-0.278852
-0.248537
-0.219896
-0.193567
-0.169744
-0.148379
-0.12932
-0.112384
-0.0973831
-0.084128
-0.0724617
-0.0622918
-0.0530962
-0.43389
-0.419518
-0.406068
-0.388415
-0.364969
-0.336483
-0.304794
-0.27214
-0.240423
-0.210829
-0.18388
-0.159677
-0.138106
-0.118972
-0.102065
-0.0871754
-0.0740938
-0.0626598
-0.052764
-0.0438643
-0.436461
-0.421992
-0.407793
-0.388545
-0.362836
-0.331889
-0.298001
-0.263657
-0.230772
-0.20043
-0.173039
-0.148604
-0.126955
-0.10786
-0.0910832
-0.0763923
-0.0635597
-0.0524286
-0.0428648
-0.0342464
-0.436515
-0.422058
-0.40709
-0.386196
-0.358241
-0.324967
-0.28911
-0.253338
-0.219535
-0.188663
-0.161011
-0.136501
-0.114908
-0.0959689
-0.0794255
-0.0650245
-0.0525224
-0.0417736
-0.0326224
-0.0241852
-0.433764
-0.419429
-0.403683
-0.381132
-0.351006
-0.315601
-0.278048
-0.241137
-0.206678
-0.1755
-0.147775
-0.123349
-0.10195
-0.0832891
-0.0670859
-0.0530666
-0.0409927
-0.0307048
-0.0220426
-0.0137914
-0.427957
-0.413846
-0.397332
-0.373154
-0.340996
-0.303709
-0.264769
-0.227026
-0.192181
-0.160924
-0.133317
-0.109139
-0.0880755
-0.0698192
-0.0540749
-0.0405275
-0.028997
-0.0192576
-0.0110067
-0.00323554
-0.418879
-0.405091
-0.387838
-0.36211
-0.328113
-0.289243
-0.249252
-0.210994
-0.176039
-0.144929
-0.117631
-0.0938658
-0.0733008
-0.0555762
-0.0404227
-0.0274611
-0.0165168
-0.00739842
0.000392599
0.00754419
-0.406364
-0.392992
-0.375053
-0.347897
-0.312307
-0.272186
-0.231498
-0.193051
-0.158256
-0.12752
-0.100733
-0.0775495
-0.0576672
-0.0406044
-0.0261156
-0.013848
-0.00358605
0.00485995
0.0121062
0.0185723
-0.390293
-0.377426
-0.358879
-0.330459
-0.293564
-0.252556
-0.211537
-0.17322
-0.138853
-0.108733
-0.08268
-0.0602686
-0.0411489
-0.0248956
-0.0111927
0.000287079
0.00977508
0.0174882
0.0241092
0.0298408
-0.370603
-0.358325
-0.339273
-0.309792
-0.271917
-0.230404
-0.189421
-0.151548
-0.11788
-0.0886532
-0.0634852
-0.0420069
-0.0238085
-0.00848532
0.00431412
0.0149109
0.0235398
0.0304543
0.0363804
0.0413254
-0.347285
-0.335674
-0.316245
-0.28594
-0.24744
-0.205812
-0.165224
-0.128115
-0.0954502
-0.0672698
-0.0432
-0.0228169
-0.00569098
0.00858112
0.020366
0.0299854
0.0376744
0.0437242
0.0488907
0.0529925
-0.320387
-0.309514
-0.28986
-0.259
-0.22025
-0.178882
-0.139045
-0.103021
-0.0715898
-0.0446809
-0.0218908
-0.0027616
0.0131497
0.0262516
0.0369171
0.0454676
0.0521398
0.0572608
0.0616043
0.0648019
-0.290011
-0.279941
-0.260242
-0.229129
-0.190482
-0.149717
-0.111008
-0.0763608
-0.0464021
-0.0209733
0.000363059
0.0180867
0.0326504
0.0444679
0.0539146
0.0613093
0.0668921
0.0710247
0.0744832
0.0767122
-0.256313
-0.247102
-0.227569
-0.196499
-0.158228
-0.11851
-0.0812625
-0.0482619
-0.0200021
0.00375272
0.023471
0.0396464
0.0527386
0.0631646
0.0712992
0.0774561
0.0818834
0.0849771
0.087494
0.0886888
-0.219478
-0.211208
-0.192056
-0.161199
-0.123715
-0.0854794
-0.049974
-0.0188703
0.00748127
0.029384
0.0473316
0.061827
0.0733335
0.0822694
0.089005
0.093848
0.0970623
0.0990792
0.1006
0.100689
-0.179693
-0.172548
-0.153851
-0.123411
-0.0873234
-0.0508135
-0.0173264
0.0116523
0.035906
0.0557953
0.0718335
0.0845292
0.0943472
0.101704
0.106961
0.110422
0.112379
0.113289
0.113727
0.112569
-0.137189
-0.131442
-0.113035
-0.0837433
-0.0492279
-0.0147361
0.0164811
0.0431313
0.065118
0.08285
0.0968555
0.107646
0.115685
0.121383
0.125093
0.127119
0.127793
0.127552
0.126712
0.123991
-0.0922987
-0.0880634
-0.0703318
-0.0423459
-0.00969119
0.0225112
0.0512364
0.0753799
0.0949522
0.110402
0.122268
0.131062
0.137244
0.141218
0.143324
0.14388
0.143262
0.141795
0.139345
0.134682
-0.0457379
-0.0426337
-0.0259716
0.000480722
0.0310014
0.0606739
0.0867154
0.1082
0.125234
0.138297
0.147935
0.154657
0.158919
0.161114
0.161574
0.160644
0.158719
0.155903
0.151587
0.145281
0.00238433
0.00430964
0.0197197
0.0444016
0.0725476
0.0994854
0.122684
0.141386
0.15578
0.166373
0.173713
0.178305
0.180597
0.180972
0.179762
0.177331
0.174049
0.169741
0.163553
0.157797
0.0516801
0.052347
0.0663693
0.0890677
0.114633
0.138669
0.158898
0.174723
0.186402
0.194463
0.199454
0.201875
0.202164
0.200695
0.197799
0.193848
0.189138
0.183311
0.175785
0.170262
0.101715
0.101074
0.113585
0.13412
0.156938
0.177943
0.195111
0.207992
0.216906
0.222395
0.225007
0.225232
0.223502
0.220179
0.215595
0.210112
0.203947
0.19669
0.18811
0.182219
0.152055
0.150075
0.160968
0.179192
0.199135
0.21702
0.231068
0.240969
0.247094
0.249996
0.250218
0.248243
0.244492
0.239319
0.233053
0.226035
0.218424
0.209833
0.200311
0.193743
0.202261
0.198928
0.208115
0.223919
0.2409
0.255612
0.266519
0.273432
0.276769
0.27709
0.274932
0.27077
0.265014
0.258009
0.250079
0.24154
0.232511
0.222659
0.212213
0.204802
0.251896
0.247209
0.254626
0.267937
0.281909
0.293435
0.301209
0.305157
0.305734
0.303503
0.298996
0.292678
0.284948
0.276144
0.266579
0.256546
0.246142
0.235088
0.223725
0.215388
0.300524
0.294498
0.300107
0.310886
0.321843
0.330207
0.334891
0.335925
0.333793
0.329063
0.322257
0.313832
0.304176
0.293619
0.282461
0.270976
0.259245
0.247038
0.234771
0.225466
0.347722
0.340381
0.34417
0.352418
0.360391
0.365653
0.367322
0.365519
0.360757
0.353601
0.344567
0.334102
0.322583
0.310332
0.297636
0.28475
0.271747
0.258442
0.245291
0.235
0.393074
0.384458
0.386443
0.392194
0.397255
0.399508
0.398267
0.393733
0.38644
0.376954
0.365781
0.353359
0.340056
0.326183
0.312016
0.297793
0.28358
0.269234
0.255228
0.24395
0.436184
0.426346
0.426567
0.429893
0.432146
0.431518
0.427499
0.420365
0.410666
0.398965
0.385761
0.371483
0.356488
0.341078
0.325518
0.31003
0.294677
0.279354
0.264532
0.25228
0.476675
0.465679
0.464203
0.465208
0.464793
0.461442
0.454807
0.445226
0.433266
0.419485
0.404376
0.388356
0.371776
0.354927
0.338063
0.321392
0.304976
0.288747
0.273153
0.259955
0.514193
0.502116
0.499035
0.497854
0.494942
0.489054
0.479989
0.468139
0.454083
0.438375
0.421501
0.403871
0.385824
0.367645
0.349577
0.331813
0.31442
0.297359
0.281047
0.266944
0.548409
0.53534
0.530769
0.527567
0.522359
0.514147
0.50286
0.48894
0.472971
0.455507
0.437024
0.417926
0.398544
0.379155
0.359991
0.341234
0.322955
0.305143
0.288171
0.273218
0.579026
0.565063
0.559138
0.554107
0.54683
0.536531
0.523253
0.507478
0.489797
0.470761
0.45084
0.43043
0.409855
0.389385
0.369242
0.349599
0.330532
0.312055
0.294489
0.278752
0.605776
0.591028
0.583905
0.57726
0.568165
0.556037
0.541017
0.523619
0.504444
0.484034
0.462857
0.441301
0.419685
0.398272
0.377275
0.35686
0.337107
0.318054
0.299966
0.283526
0.628428
0.613011
0.604863
0.59684
0.586198
0.572518
0.55602
0.537249
0.516806
0.495234
0.472993
0.450467
0.427971
0.40576
0.384041
0.362973
0.342642
0.323105
0.304574
0.287522
0.646783
0.630823
0.621837
0.61269
0.600789
0.585848
0.568152
0.548267
0.526797
0.504283
0.48118
0.457869
0.43466
0.411802
0.389499
0.367902
0.347106
0.327179
0.308286
0.290728
0.660682
0.644309
0.634684
0.624683
0.611825
0.595927
0.577324
0.556594
0.534346
0.511118
0.487363
0.463457
0.439707
0.416361
0.393616
0.371619
0.35047
0.330251
0.311083
0.293133
0.670005
0.653353
0.643298
0.632721
0.61922
0.602679
0.583466
0.562169
0.539399
0.515691
0.491498
0.467193
0.443081
0.419408
0.396366
0.3741
0.352716
0.332301
0.312949
0.294733
0.469054
0.44476
0.420922
0.397732
0.375332
0.353831
0.333318
0.313873
0.295523
-0.225949
-0.225586
-0.224814
-0.223536
-0.225399
-0.221773
-0.224113
-0.223372
-0.219576
-0.222068
-0.221693
-0.216933
-0.219248
-0.219275
-0.219231
-0.21373
-0.21569
-0.216123
-0.216397
-0.209953
-0.211539
-0.212307
-0.212851
-0.213463
-0.205983
-0.207154
-0.208014
-0.208676
-0.209442
-0.21027
-0.202107
-0.202954
-0.203473
-0.20394
-0.204691
-0.205565
-0.196544
-0.198853
-0.199635
-0.2003
-0.201198
-0.202171
-0.203117
-0.191967
-0.19475
-0.19562
-0.196303
-0.197284
-0.19837
-0.199414
-0.187447
-0.19054
-0.191368
-0.19202
-0.193067
-0.194259
-0.195395
-0.182891
-0.186157
-0.186972
-0.187623
-0.188736
-0.19002
-0.191237
-0.178157
-0.181604
-0.182474
-0.183154
-0.184325
-0.185686
-0.186975
-0.173286
-0.176931
-0.177902
-0.178627
-0.179848
-0.181275
-0.182629
-0.168371
-0.172182
-0.173273
-0.174056
-0.175324
-0.176809
-0.178224
-0.16345
-0.167383
-0.168602
-0.169455
-0.17077
-0.172309
-0.17378
-0.158539
-0.162562
-0.163909
-0.164839
-0.166201
-0.167788
-0.169311
-0.153658
-0.157745
-0.15921
-0.160219
-0.161628
-0.16326
-0.164831
-0.14882
-0.152947
-0.15452
-0.155606
-0.157061
-0.158734
-0.16035
-0.144033
-0.148181
-0.149851
-0.151011
-0.152509
-0.15422
-0.155876
-0.139302
-0.143457
-0.145213
-0.146443
-0.147982
-0.149726
-0.151418
-0.134635
-0.138783
-0.140617
-0.141911
-0.143486
-0.14526
-0.146986
-0.13004
-0.134168
-0.13607
-0.137424
-0.139032
-0.140831
-0.142585
-0.125525
-0.12962
-0.131581
-0.132989
-0.134627
-0.136446
-0.138224
-0.121096
-0.125147
-0.127158
-0.128615
-0.130277
-0.132113
-0.13391
-0.116761
-0.120756
-0.122808
-0.124308
-0.12599
-0.127837
-0.129649
-0.112523
-0.116454
-0.118536
-0.120073
-0.12177
-0.123625
-0.125448
-0.108386
-0.112244
-0.114349
-0.115916
-0.117624
-0.119481
-0.12131
-0.104352
-0.108131
-0.110249
-0.11184
-0.113554
-0.11541
-0.117241
-0.100423
-0.104118
-0.106242
-0.10785
-0.109566
-0.111416
-0.113245
-0.0966004
-0.100207
-0.102329
-0.103949
-0.105663
-0.107504
-0.109326
-0.0928847
-0.0963993
-0.0985124
-0.10014
-0.101847
-0.103675
-0.105487
-0.089277
-0.0926962
-0.0947951
-0.096424
-0.098122
-0.0999332
-0.101732
-0.0857775
-0.089099
-0.0911782
-0.0928044
-0.0944891
-0.0962809
-0.0980627
-0.0823864
-0.0856081
-0.0876629
-0.0892822
-0.0909507
-0.0927202
-0.0944822
-0.0791035
-0.082224
-0.0842501
-0.0858587
-0.0875082
-0.0892528
-0.0909922
-0.0759283
-0.0789468
-0.0809403
-0.0825346
-0.0841626
-0.08588
-0.0875944
-0.0728599
-0.0757759
-0.0777336
-0.0793106
-0.0809147
-0.0826029
-0.0842901
-0.0698972
-0.0727109
-0.0746298
-0.0761867
-0.0777649
-0.0794222
-0.0810801
-0.0670389
-0.0697508
-0.0716286
-0.0731628
-0.0747134
-0.0763381
-0.0779651
-0.0642835
-0.0668945
-0.0687291
-0.0702384
-0.0717599
-0.0733508
-0.0749454
-0.0616293
-0.0641407
-0.0659304
-0.067413
-0.0689041
-0.0704601
-0.0720211
-0.0590746
-0.0614878
-0.0632314
-0.0646857
-0.0661453
-0.0676655
-0.0691918
-0.0566174
-0.0589343
-0.0606308
-0.0620554
-0.0634826
-0.0649665
-0.0664572
-0.0542556
-0.0564783
-0.0581271
-0.0595208
-0.060915
-0.0623621
-0.0638167
-0.0519874
-0.0541179
-0.0557187
-0.0570807
-0.0584414
-0.0598513
-0.0612694
-0.0498105
-0.0518513
-0.0534039
-0.0547335
-0.0560604
-0.0574331
-0.0588144
-0.0477228
-0.0496765
-0.0511809
-0.0524778
-0.0537706
-0.0551061
-0.0564505
-0.0457221
-0.0475913
-0.0490479
-0.0503117
-0.0515706
-0.052869
-0.0541766
-0.0438065
-0.0455938
-0.0470031
-0.0482337
-0.0494588
-0.0507204
-0.0519914
-0.0419736
-0.0436819
-0.0450445
-0.0462419
-0.0474334
-0.0486587
-0.0498934
-0.0402215
-0.0418535
-0.0431702
-0.0443347
-0.045493
-0.0466825
-0.0478813
-0.0385481
-0.0401067
-0.0413784
-0.0425103
-0.0436358
-0.0447901
-0.0459536
-0.0369514
-0.0384394
-0.0396672
-0.0407669
-0.0418601
-0.0429799
-0.0441087
-0.0354294
-0.0368498
-0.0380347
-0.0391027
-0.0401644
-0.0412504
-0.0423453
-0.0339803
-0.0353358
-0.0364791
-0.0375161
-0.0385469
-0.0396001
-0.0406618
-0.0326022
-0.0338958
-0.0349988
-0.0360053
-0.0370061
-0.0380273
-0.0390567
-0.0312934
-0.0325279
-0.0335919
-0.0345689
-0.0355405
-0.0365306
-0.0375288
-0.0300523
-0.0312305
-0.0322569
-0.0332052
-0.0341485
-0.0351087
-0.0360764
-0.0288774
-0.0300021
-0.0309923
-0.0319128
-0.0328288
-0.03376
-0.0346985
-0.0277671
-0.0288411
-0.0297967
-0.0306903
-0.03158
-0.0324834
-0.0333937
-0.0267202
-0.0277462
-0.0286686
-0.0295365
-0.0304009
-0.0312777
-0.0321609
-0.0257354
-0.0267161
-0.027607
-0.0284502
-0.0292904
-0.0301418
-0.0309991
-0.0248116
-0.0257498
-0.0266108
-0.0274304
-0.0282475
-0.0290747
-0.0299074
-0.023948
-0.0248463
-0.0256789
-0.0264762
-0.0272714
-0.0280756
-0.028885
-0.0231436
-0.0240047
-0.0248107
-0.0255868
-0.0263614
-0.027144
-0.0279313
-0.0223979
-0.0232244
-0.0240054
-0.0247617
-0.0255169
-0.0262792
-0.0270459
-0.0217105
-0.022505
-0.0232628
-0.0240005
-0.0247376
-0.025481
-0.0262284
-0.021081
-0.0218462
-0.0225825
-0.023303
-0.0240234
-0.0247492
-0.0254788
-0.0205093
-0.0212479
-0.0219646
-0.0226693
-0.0233743
-0.0240842
-0.0247973
-0.0199958
-0.0207103
-0.0214093
-0.0220996
-0.0227908
-0.0234861
-0.0241845
-0.0195408
-0.020234
-0.0209172
-0.0215947
-0.0222734
-0.0229558
-0.023641
-0.0191451
-0.0198198
-0.0204891
-0.0211554
-0.0218232
-0.0224943
-0.0231679
-0.0188098
-0.0194687
-0.0201263
-0.020783
-0.0214416
-0.022103
-0.0227668
-0.0185362
-0.0191823
-0.0198303
-0.0204792
-0.0211303
-0.0217839
-0.0224396
-0.0183263
-0.0189624
-0.019603
-0.020246
-0.0208912
-0.0215389
-0.0221884
-0.0181839
-0.0188134
-0.0194489
-0.0200878
-0.0207291
-0.0213725
-0.0220178
-0.0181051
-0.0187322
-0.019366
-0.0200035
-0.0206433
-0.021285
-0.0219284
-0.0650456
-0.073192
-0.0811131
-0.08881
-0.0962899
-0.103563
-0.110643
-0.117542
-0.124275
-0.130856
-0.137301
-0.143624
-0.149838
-0.155951
-0.161969
-0.167894
-0.173692
-0.17952
-0.184912
-0.191756
-0.0621126
-0.0700069
-0.0776966
-0.0851872
-0.092487
-0.0996053
-0.106553
-0.11334
-0.11998
-0.126484
-0.132865
-0.139133
-0.145296
-0.151366
-0.157335
-0.163252
-0.168982
-0.175022
-0.180279
-0.187657
-0.0593123
-0.0669082
-0.0743165
-0.0815454
-0.0886028
-0.095497
-0.102237
-0.108833
-0.115294
-0.121631
-0.127853
-0.133971
-0.13999
-0.145936
-0.15178
-0.157657
-0.163307
-0.169492
-0.174751
-0.182083
-0.0566263
-0.0639508
-0.0711077
-0.0781045
-0.0849486
-0.0916475
-0.0982095
-0.104643
-0.110958
-0.117163
-0.123267
-0.129285
-0.135215
-0.141105
-0.146896
-0.152797
-0.158422
-0.164655
-0.16999
-0.176978
-0.0540716
-0.0611431
-0.0680667
-0.0748492
-0.0814973
-0.0880187
-0.0944211
-0.100713
-0.106904
-0.113003
-0.119017
-0.124966
-0.13084
-0.136706
-0.142462
-0.148369
-0.153953
-0.160107
-0.165477
-0.172021
-0.0516474
-0.0584735
-0.0651692
-0.0717402
-0.0781932
-0.0845359
-0.0907757
-0.0969216
-0.10298
-0.108965
-0.114876
-0.120741
-0.126535
-0.132341
-0.138019
-0.143858
-0.14937
-0.155364
-0.160769
-0.166973
-0.0493429
-0.0559296
-0.062401
-0.0687621
-0.0750191
-0.0811797
-0.0872506
-0.0932408
-0.0991556
-0.105008
-0.110796
-0.11655
-0.122233
-0.127938
-0.133512
-0.139242
-0.144695
-0.150527
-0.155994
-0.161967
-0.0471498
-0.0535036
-0.0597554
-0.0659098
-0.0719725
-0.0779507
-0.0838503
-0.0896803
-0.0954441
-0.101156
-0.10681
-0.112438
-0.117999
-0.123591
-0.129065
-0.134682
-0.140096
-0.14578
-0.151276
-0.157054
-0.0450614
-0.0511894
-0.0572271
-0.063179
-0.06905
-0.0748471
-0.0805755
-0.086244
-0.0918547
-0.0974226
-0.102939
-0.108439
-0.113879
-0.119354
-0.124736
-0.130233
-0.135595
-0.141125
-0.146589
-0.152196
-0.0430725
-0.0489815
-0.0548105
-0.060564
-0.0662463
-0.0718641
-0.0774221
-0.0829289
-0.0883855
-0.0938075
-0.0991847
-0.104553
-0.109871
-0.115221
-0.120503
-0.125866
-0.13115
-0.136525
-0.141923
-0.147391
-0.0411777
-0.0468743
-0.0525001
-0.0580593
-0.0635561
-0.0689967
-0.0743852
-0.0797302
-0.0850322
-0.0903061
-0.0955424
-0.100773
-0.105964
-0.11118
-0.116349
-0.12157
-0.126761
-0.131993
-0.137306
-0.142648
-0.0393718
-0.0448625
-0.0502905
-0.0556599
-0.0609744
-0.06624
-0.0714606
-0.0766441
-0.0817909
-0.0869148
-0.0920079
-0.0970963
-0.102156
-0.107232
-0.112282
-0.117363
-0.122449
-0.127547
-0.132756
-0.137968
-0.0376501
-0.0429412
-0.0481768
-0.0533608
-0.0584966
-0.06359
-0.0686443
-0.073667
-0.0786589
-0.0836317
-0.0885799
-0.093524
-0.0984486
-0.103384
-0.108311
-0.113254
-0.118223
-0.123186
-0.128276
-0.133355
-0.0360079
-0.0411056
-0.0461544
-0.0511576
-0.0561186
-0.0610425
-0.0659327
-0.070796
-0.0756335
-0.0804551
-0.085258
-0.0900571
-0.0948452
-0.0996398
-0.104438
-0.109242
-0.114085
-0.118911
-0.123875
-0.128816
-0.0344408
-0.0393515
-0.044219
-0.049046
-0.0538359
-0.0585936
-0.0633223
-0.0680279
-0.0727123
-0.0773833
-0.0820408
-0.0866947
-0.0913444
-0.0959975
-0.100662
-0.105327
-0.110038
-0.114727
-0.11956
-0.124361
-0.0329445
-0.0376745
-0.0423661
-0.0470218
-0.0516448
-0.0562396
-0.0608095
-0.0653597
-0.0698925
-0.074414
-0.0789262
-0.0834353
-0.0879449
-0.0924563
-0.0969845
-0.10151
-0.106087
-0.110638
-0.115337
-0.119996
-0.0315163
-0.0360714
-0.0405923
-0.0450812
-0.0495413
-0.0539769
-0.0583911
-0.0627882
-0.0671713
-0.0715449
-0.0759124
-0.0802775
-0.0846465
-0.0890167
-0.0934071
-0.0977941
-0.102234
-0.106647
-0.111208
-0.115726
-0.0301516
-0.034538
-0.0388934
-0.0432203
-0.0475219
-0.051802
-0.0560636
-0.0603105
-0.064546
-0.0687737
-0.0729977
-0.07722
-0.0814486
-0.0856786
-0.0899305
-0.0941786
-0.0984807
-0.102755
-0.107176
-0.111554
-0.0288471
-0.033071
-0.0372659
-0.0414356
-0.0455831
-0.0497116
-0.053824
-0.0579236
-0.062014
-0.0660979
-0.0701801
-0.0742613
-0.0783503
-0.082441
-0.0865544
-0.0906641
-0.0948276
-0.0989642
-0.103244
-0.107482
-0.0276013
-0.0316677
-0.0357071
-0.0397241
-0.0437217
-0.0477024
-0.051669
-0.0556246
-0.0595725
-0.0635153
-0.0674576
-0.0713996
-0.0753503
-0.0793029
-0.0832785
-0.0872508
-0.0912757
-0.0952752
-0.0994125
-0.103513
-0.0264125
-0.0303258
-0.0342144
-0.0380832
-0.0419349
-0.0457715
-0.0495959
-0.0534106
-0.0572191
-0.0610233
-0.064828
-0.068633
-0.072447
-0.0762633
-0.0801023
-0.0839384
-0.0878252
-0.0916885
-0.0956836
-0.0996454
-0.0252755
-0.029041
-0.0327842
-0.0365094
-0.0402193
-0.0439158
-0.0476016
-0.0512789
-0.054951
-0.0586196
-0.0622893
-0.0659596
-0.0696391
-0.073321
-0.0770248
-0.0807264
-0.0844761
-0.0882043
-0.0920581
-0.0958818
-0.0241886
-0.0278114
-0.0314138
-0.0349999
-0.0385722
-0.0421326
-0.0456834
-0.0492268
-0.0527657
-0.0563017
-0.0598391
-0.0633775
-0.0669247
-0.0704746
-0.0740452
-0.077614
-0.0812283
-0.0848226
-0.0885365
-0.0922227
-0.0231498
-0.0266344
-0.0301006
-0.033552
-0.0369909
-0.0404191
-0.0438387
-0.0472516
-0.0506607
-0.0540673
-0.0574754
-0.0608845
-0.0643021
-0.0677223
-0.071162
-0.0746002
-0.0780811
-0.0815434
-0.0851192
-0.0886688
-0.0221563
-0.0255075
-0.0288421
-0.0321631
-0.0354728
-0.0387727
-0.0420648
-0.0453509
-0.0486335
-0.0519139
-0.0551958
-0.0584787
-0.0617695
-0.0650627
-0.0683741
-0.071684
-0.0750339
-0.0783661
-0.0818061
-0.0852208
-0.021206
-0.0244284
-0.0276358
-0.0308307
-0.0340152
-0.0371907
-0.0403592
-0.043522
-0.0466817
-0.0498392
-0.0529981
-0.0561579
-0.0593248
-0.062494
-0.0656798
-0.0688641
-0.0720857
-0.0752901
-0.0785969
-0.0818787
-0.0202968
-0.023395
-0.0264794
-0.0295524
-0.0326158
-0.0356709
-0.0387194
-0.0417626
-0.0448028
-0.047841
-0.0508801
-0.05392
-0.0569662
-0.0600143
-0.0630776
-0.0661391
-0.0692353
-0.0723146
-0.075491
-0.0786425
-0.0194267
-0.0224051
-0.0253708
-0.028326
-0.0312723
-0.0342108
-0.0371431
-0.0400705
-0.0429947
-0.0459169
-0.0488397
-0.0517629
-0.0546917
-0.0576218
-0.0605658
-0.0635075
-0.0664813
-0.0694385
-0.0724874
-0.0755115
-0.0185939
-0.0214569
-0.0243081
-0.0271495
-0.0299826
-0.0328084
-0.0356282
-0.0384432
-0.0412551
-0.0440647
-0.0468746
-0.0496845
-0.0524992
-0.0553146
-0.0581424
-0.0609676
-0.0638223
-0.0666605
-0.0695851
-0.072485
-0.0177969
-0.0205485
-0.0232892
-0.0260209
-0.0287446
-0.0314614
-0.0341724
-0.0368787
-0.0395817
-0.0422824
-0.0449828
-0.0476828
-0.0503867
-0.0530908
-0.0558058
-0.0585176
-0.0612566
-0.0639791
-0.0667828
-0.0695619
-0.0170339
-0.0196783
-0.0223125
-0.0249382
-0.0275563
-0.0301678
-0.0327737
-0.0353748
-0.0379726
-0.0405677
-0.0431621
-0.0457556
-0.0483521
-0.0509483
-0.0535539
-0.0561559
-0.0587824
-0.0613928
-0.0640789
-0.0667408
-0.0163036
-0.0188446
-0.0213762
-0.0238996
-0.0264159
-0.0289258
-0.0314301
-0.0339296
-0.0364256
-0.0389186
-0.0414105
-0.0439009
-0.0463936
-0.0488852
-0.0513849
-0.0538804
-0.0563981
-0.0588997
-0.0614719
-0.0640202
-0.0156047
-0.0180461
-0.0204786
-0.0229036
-0.0253217
-0.0277335
-0.0301398
-0.0325412
-0.0349388
-0.0373332
-0.039726
-0.0421168
-0.0445089
-0.0468995
-0.0492967
-0.0516893
-0.0541017
-0.056498
-0.0589601
-0.0613984
-0.0149356
-0.0172811
-0.0196183
-0.0219484
-0.0242719
-0.0265891
-0.0289008
-0.0312076
-0.0335104
-0.0358095
-0.0381066
-0.0404012
-0.0426963
-0.0449892
-0.0472874
-0.0495805
-0.0518912
-0.054186
-0.0565415
-0.0588738
-0.0142952
-0.0165482
-0.0187937
-0.0210325
-0.0232648
-0.025491
-0.0277115
-0.029927
-0.0321383
-0.0343457
-0.0365504
-0.0387522
-0.0409537
-0.0431523
-0.0453551
-0.0475523
-0.0497648
-0.0519616
-0.0542143
-0.0564443
-0.0136828
-0.0158468
-0.018004
-0.0201548
-0.0222992
-0.0244376
-0.0265703
-0.0286979
-0.030821
-0.0329399
-0.0350556
-0.0371679
-0.0392792
-0.041387
-0.0434978
-0.0456024
-0.0477204
-0.0498228
-0.0519765
-0.0541079
-0.0130948
-0.0151744
-0.0172472
-0.0193135
-0.0213734
-0.0234273
-0.0254756
-0.0275186
-0.0295568
-0.0315904
-0.0336204
-0.0356466
-0.0376709
-0.0396913
-0.0417135
-0.0437291
-0.0457561
-0.0477676
-0.0498261
-0.0518628
-0.0125293
-0.0145297
-0.0165221
-0.0185072
-0.0204859
-0.0224587
-0.0244257
-0.0263873
-0.0283438
-0.0302955
-0.0322431
-0.0341863
-0.0361271
-0.0380634
-0.0400004
-0.0419304
-0.0438699
-0.0457941
-0.0477611
-0.0497068
-0.0119914
-0.013914
-0.0158284
-0.0177354
-0.0196359
-0.0215306
-0.0234195
-0.0253028
-0.0271808
-0.0290536
-0.0309219
-0.0327855
-0.0346459
-0.0365013
-0.0383565
-0.0402043
-0.0420598
-0.0439002
-0.0457793
-0.0476377
-0.0114802
-0.0133266
-0.0151654
-0.0169971
-0.0188225
-0.020642
-0.0224557
-0.0242637
-0.0260661
-0.0278632
-0.0296553
-0.0314423
-0.0332256
-0.0350034
-0.03678
-0.0385489
-0.0403239
-0.0420839