/*--------------------------------*- C++ -*----------------------------------*\
  =========                 |
  \\      /  F ield         | OpenFOAM: The Open Source CFD Toolbox
   \\    /   O peration     | Website:  https://openfoam.org
    \\  /    A nd           | Version:  7
     \\/     M anipulation  |
\*---------------------------------------------------------------------------*/
FoamFile
{
    version     2.0;
    format      ascii;
    class       volVectorField;
    location    "62.00019";
    object      U;
}
// * * * * * * * * * * * * * * * * * * * * * * * * * * * * * * * * * * * * * //

dimensions      [0 1 -1 0 0 0 0];

internalField   nonuniform List<vector> 
5800
(
(-0.000609414 0.000845819 -2.05507e-21)
(-0.00365197 0.00213094 -7.25261e-21)
(-0.00991724 0.00309591 1.3196e-21)
(-0.0182469 0.00379356 4.99978e-21)
(-0.0281136 0.00426296 2.13096e-21)
(-0.0390998 0.00454182 -5.19612e-21)
(-0.0508001 0.00466713 -1.65193e-21)
(-0.0628711 0.00467311 -6.49085e-22)
(-0.0750357 0.00458992 -5.9764e-21)
(-0.0870746 0.00444246 -1.15218e-21)
(0.00706419 0.00863688 -6.32472e-21)
(0.0374254 0.0193205 -2.15175e-20)
(0.0932736 0.0247373 3.93785e-21)
(0.158122 0.0264577 1.42961e-20)
(0.224691 0.0259488 5.86752e-21)
(0.289468 0.0243636 -1.40181e-20)
(0.350713 0.0224314 -4.25653e-21)
(0.407946 0.0205034 -1.70972e-21)
(0.461214 0.0187001 -8.58536e-21)
(0.510698 0.0170436 -7.62908e-21)
(0.556603 0.0155283 -9.55924e-21)
(0.00706396 -0.00862486 6.32475e-21)
(0.0374249 -0.019293 2.15176e-20)
(0.0932729 -0.0247009 -3.93787e-21)
(0.158122 -0.0264175 -1.42961e-20)
(0.22469 -0.0259079 -5.86754e-21)
(0.289467 -0.0243236 1.40182e-20)
(0.350712 -0.0223929 4.25655e-21)
(0.407945 -0.0204666 1.70973e-21)
(0.461213 -0.018665 1.43499e-20)
(0.510697 -0.0170102 2.52297e-21)
(0.556602 -0.0154965 9.55928e-21)
(0.599132 -0.0141136 -1.3795e-21)
(0.638491 -0.0128514 4.49388e-21)
(0.674874 -0.0117001 -7.5685e-21)
(0.708472 -0.01065 9.08221e-21)
(0.73947 -0.00969256 9.25397e-21)
(0.768047 -0.00881974 2.58357e-21)
(0.794355 -0.00801951 -1.30969e-20)
(0.818512 -0.00727508 1.05263e-20)
(0.840667 -0.00659197 -1.51355e-21)
(0.00839223 -0.0258037 -9.29754e-21)
(0.0403235 -0.0577434 -1.39661e-20)
(0.0968945 -0.0739536 -4.27169e-21)
(0.161924 -0.0791145 -1.23602e-20)
(0.228365 -0.0776045 2.73127e-21)
(0.292869 -0.07287 -1.78607e-20)
(0.353802 -0.067093 -6.50061e-21)
(0.41073 -0.0613266 -1.39156e-20)
(0.463716 -0.0559326 7.63363e-21)
(0.512944 -0.0509775 -1.79872e-20)
(0.558617 -0.0464445 -5.46616e-20)
(0.600938 -0.0423032 8.66642e-21)
(0.640109 -0.0385232 -1.20043e-20)
(0.676323 -0.0350749 7.08664e-21)
(0.709769 -0.0319296 -1.6819e-20)
(0.740629 -0.0290618 1.73462e-21)
(0.769086 -0.0264471 -8.60265e-21)
(0.795293 -0.0240495 4.87376e-20)
(0.819359 -0.0218195 -4.73288e-21)
(0.841379 -0.0197757 5.97443e-21)
(0.0110312 -0.0427348 -2.84713e-20)
(0.0460882 -0.0957059 -2.78217e-20)
(0.104102 -0.122651 6.37115e-21)
(0.169497 -0.131278 1.35131e-20)
(0.235685 -0.128822 5.62809e-21)
(0.299651 -0.120995 -1.73684e-20)
(0.359962 -0.111422 -2.48577e-20)
(0.416282 -0.101858 5.23463e-20)
(0.468706 -0.0929079 -1.42156e-20)
(0.517423 -0.0846855 1.83866e-20)
(0.562634 -0.0771628 2.86772e-20)
(0.604539 -0.0702896 4.89029e-21)
(0.643334 -0.0640157 8.02646e-21)
(0.679212 -0.0582915 1.73073e-20)
(0.712354 -0.0530701 -1.77983e-20)
(0.742941 -0.0483091 1.68282e-20)
(0.771156 -0.0439676 -1.98042e-21)
(0.797165 -0.0399854 -4.7635e-20)
(0.821049 -0.0362831 3.16276e-20)
(0.842801 -0.0328982 -2.56801e-20)
(0.0149455 -0.0592559 2.1875e-20)
(0.0546529 -0.13286 -3.49367e-20)
(0.114825 -0.170429 5.13719e-20)
(0.180774 -0.182557 -2.31759e-20)
(0.246593 -0.179245 1.21585e-19)
(0.309761 -0.16842 7.13453e-20)
(0.369148 -0.155134 -4.35999e-20)
(0.424562 -0.141843 -1.02269e-19)
(0.476149 -0.129399 3.9965e-20)
(0.524105 -0.117964 2.69209e-20)
(0.568628 -0.1075 3.57531e-20)
(0.609912 -0.0979392 -6.96926e-20)
(0.648148 -0.0892106 -8.06674e-20)
(0.683523 -0.081246 6.06786e-20)
(0.716214 -0.07398 4.69892e-20)
(0.746393 -0.0673541 -1.60124e-20)
(0.774247 -0.0613106 3.4711e-20)
(0.799957 -0.0557649 2.09432e-21)
(0.82357 -0.050612 -5.1444e-20)
(0.84493 -0.045917 -1.61551e-20)
(0.0200825 -0.0752096 -8.06468e-20)
(0.0659194 -0.168894 -2.23038e-20)
(0.128955 -0.216928 -7.7426e-20)
(0.195656 -0.232606 2.2207e-20)
(0.261005 -0.228564 -1.15277e-19)
(0.323127 -0.214874 -6.81078e-20)
(0.381297 -0.197991 7.93496e-20)
(0.435516 -0.18107 9.73653e-20)
(0.485996 -0.165216 -8.6252e-20)
(0.532946 -0.150644 2.25328e-20)
(0.57656 -0.137308 -3.15355e-20)
(0.617023 -0.125121 1.21443e-19)
(0.65452 -0.113992 -3.84052e-20)
(0.689231 -0.103836 -1.3498e-20)
(0.721324 -0.0945693 -7.80346e-21)
(0.750963 -0.0861177 -2.71181e-20)
(0.77834 -0.0784068 -6.61864e-20)
(0.803652 -0.071327 -1.35887e-21)
(0.826908 -0.0647525 1.82961e-20)
(0.847759 -0.0587882 -1.72427e-20)
(0.026373 -0.0904449 -5.26181e-20)
(0.0797579 -0.203504 -2.22043e-20)
(0.146351 -0.261803 1.25122e-19)
(0.214011 -0.28109 6.87371e-20)
(0.278805 -0.276475 2.83534e-20)
(0.33965 -0.26009 -8.72945e-20)
(0.396323 -0.239757 -1.00228e-19)
(0.449068 -0.219331 1.18993e-20)
(0.498181 -0.200177 2.29527e-20)
(0.543889 -0.182564 1.72834e-20)
(0.586378 -0.166443 5.62914e-20)
(0.625827 -0.151706 -1.23968e-19)
(0.662411 -0.138247 1.76275e-21)
(0.6963 -0.125962 4.3142e-20)
(0.727654 -0.11475 2.60285e-21)
(0.756626 -0.104523 -8.47273e-21)
(0.78341 -0.0951884 -2.18664e-20)
(0.808227 -0.086612 8.10582e-20)
(0.831042 -0.0786515 -3.50096e-20)
(0.85128 -0.0714659 2.84872e-20)
(0.0337316 -0.104819 8.34103e-20)
(0.0960082 -0.236403 -4.40803e-20)
(0.166837 -0.304718 -5.07692e-20)
(0.235678 -0.327685 -4.70146e-20)
(0.299853 -0.322688 -9.28619e-20)
(0.359211 -0.303812 -1.1958e-20)
(0.414123 -0.280208 1.59496e-20)
(0.465126 -0.256428 -3.63511e-20)
(0.512623 -0.234104 5.21793e-20)
(0.55686 -0.213567 4.38658e-21)
(0.598019 -0.194764 -2.20598e-20)
(0.636268 -0.177572 1.00595e-19)
(0.671771 -0.161867 2.97185e-20)
(0.704688 -0.147527 -2.90281e-20)
(0.735167 -0.134437 6.44992e-20)
(0.763349 -0.122495 -6.8179e-20)
(0.789429 -0.11159 -7.34074e-21)
(0.813655 -0.101562 8.52021e-21)
(0.835949 -0.092257 9.46605e-20)
(0.855482 -0.0839037 -5.29722e-20)
(0.0420584 -0.118198 2.8535e-20)
(0.114481 -0.267318 3.3395e-20)
(0.190205 -0.345357 1.46849e-19)
(0.260464 -0.37208 6.20828e-20)
(0.323981 -0.366923 2.12748e-19)
(0.381665 -0.345793 1.78487e-20)
(0.434572 -0.319127 9.93905e-20)
(0.483582 -0.29217 6.90292e-20)
(0.529226 -0.266828 -1.47937e-19)
(0.571777 -0.243502 -2.35293e-20)
(0.61141 -0.222139 -5.50788e-20)
(0.648281 -0.202601 -6.83383e-20)
(0.682542 -0.184747 2.2538e-20)
(0.714344 -0.16844 7.03571e-20)
(0.743819 -0.15355 -6.18289e-20)
(0.771092 -0.139962 -5.44418e-20)
(0.796363 -0.127548 5.31926e-20)
(0.819904 -0.116122 -7.11221e-20)
(0.841602 -0.105519 -1.02463e-19)
(0.860351 -0.0960551 -2.76707e-20)
(0.0512393 -0.130461 -8.19679e-20)
(0.134958 -0.295995 -8.36381e-20)
(0.216217 -0.383419 -4.37135e-20)
(0.288145 -0.413983 -1.03705e-19)
(0.350996 -0.408912 -5.07415e-20)
(0.406848 -0.385799 -1.20529e-19)
(0.457527 -0.35631 -1.04628e-19)
(0.504312 -0.326375 3.91366e-20)
(0.547881 -0.298188 6.04704e-20)
(0.588541 -0.272228 -1.05901e-19)
(0.626463 -0.248442 6.60431e-20)
(0.66179 -0.226681 -4.42929e-20)
(0.69466 -0.206789 -5.92818e-20)
(0.72521 -0.188613 -6.2194e-20)
(0.753558 -0.172011 1.75008e-19)
(0.779813 -0.156855 7.79232e-20)
(0.804171 -0.143004 1.88546e-20)
(0.826939 -0.130239 -8.11199e-20)
(0.847972 -0.118388 1.70068e-19)
(0.865869 -0.107875 6.34137e-20)
(0.0611477 -0.141498 -1.06721e-19)
(0.157199 -0.322202 1.22271e-19)
(0.244602 -0.418628 1.19945e-19)
(0.318473 -0.453117 1.25944e-19)
(0.380681 -0.448407 7.57596e-20)
(0.434573 -0.423612 1.83502e-20)
(0.482829 -0.391564 1.20872e-19)
(0.527174 -0.358876 -1.46547e-19)
(0.568462 -0.328036 -4.10266e-20)
(0.607043 -0.29961 -3.45697e-20)
(0.643084 -0.273555 1.52971e-19)
(0.676711 -0.249708 -2.12447e-20)
(0.70805 -0.227899 1.80119e-20)
(0.737221 -0.207963 3.89042e-21)
(0.764328 -0.189747 6.23147e-20)
(0.789462 -0.173111 -7.79731e-20)
(0.812812 -0.157901 1.57095e-20)
(0.83472 -0.143865 1.78344e-19)
(0.855023 -0.130821 -2.56063e-20)
(0.872018 -0.119318 -1.14821e-19)
(0.0716459 -0.151216 -6.37989e-20)
(0.180935 -0.345732 2.13251e-20)
(0.275065 -0.450731 -1.27382e-19)
(0.351168 -0.489229 -6.26465e-20)
(0.412794 -0.485175 -8.32554e-20)
(0.464636 -0.459028 -6.72663e-21)
(0.5103 -0.424712 -1.62032e-19)
(0.552015 -0.389515 1.42813e-19)
(0.590836 -0.356232 6.25695e-20)
(0.627165 -0.325527 2.646e-20)
(0.661166 -0.297368 -1.48512e-19)
(0.692952 -0.271584 2.64802e-20)
(0.72263 -0.247992 -1.87636e-20)
(0.750306 -0.226416 -8.07765e-20)
(0.776068 -0.20669 -7.55169e-20)
(0.799984 -0.18867 1.24022e-19)
(0.822238 -0.172186 6.2832e-20)
(0.843204 -0.156954 -3.61485e-20)
(0.862721 -0.142775 -1.01038e-19)
(0.878775 -0.130343 1.50495e-20)
(0.0825867 -0.159534 8.63623e-20)
(0.20588 -0.366402 3.93648e-20)
(0.307283 -0.479499 4.85651e-20)
(0.385929 -0.522088 5.42468e-20)
(0.447072 -0.519004 -5.77527e-20)
(0.496812 -0.491859 1.2716e-19)
(0.539749 -0.455592 -1.26018e-19)
(0.578668 -0.41815 -5.1763e-21)
(0.614856 -0.382652 1.00512e-19)
(0.648777 -0.349867 2.10857e-20)
(0.680598 -0.319783 8.84994e-20)
(0.710412 -0.292221 -3.72601e-20)
(0.738313 -0.26699 2.33409e-20)
(0.764389 -0.2439 1.48947e-19)
(0.788709 -0.22278 -8.87769e-21)
(0.811321 -0.203477 -4.38038e-20)
(0.832396 -0.185812 -9.27257e-20)
(0.852346 -0.169465 -1.52477e-19)
(0.871026 -0.154213 -2.36428e-20)
(0.886115 -0.140914 1.53392e-19)
(0.0938149 -0.16639 1.00756e-19)
(0.231726 -0.384059 3.95934e-21)
(0.340909 -0.504734 -1.86275e-19)
(0.42243 -0.551489 7.43926e-20)
(0.483232 -0.549703 1.68393e-22)
(0.53086 -0.52194 7.93555e-20)
(0.570971 -0.484059 7.57647e-20)
(0.606954 -0.444656 -6.86118e-21)
(0.640364 -0.407182 -4.26995e-20)
(0.671741 -0.37253 -1.48754e-19)
(0.701256 -0.34071 4.54673e-20)
(0.728986 -0.311541 1.87986e-19)
(0.755006 -0.284821 -1.32048e-19)
(0.779387 -0.260354 -1.09193e-19)
(0.802181 -0.237959 -6.85451e-20)
(0.823411 -0.217482 -1.64159e-19)
(0.843233 -0.198734 4.83159e-20)
(0.862096 -0.18136 2.29693e-19)
(0.879896 -0.165103 -3.45366e-20)
(0.894009 -0.150995 -4.32343e-20)
(0.10517 -0.171738 4.23128e-20)
(0.258153 -0.39858 -6.64281e-20)
(0.375577 -0.526269 5.80973e-20)
(0.460323 -0.57725 -9.39943e-20)
(0.520971 -0.577105 1.03689e-19)
(0.566524 -0.54912 -1.03702e-19)
(0.603746 -0.509984 -2.53095e-20)
(0.636684 -0.46892 1.11729e-19)
(0.667195 -0.429726 -8.61305e-20)
(0.695912 -0.39343 9.55719e-20)
(0.723012 -0.360073 -1.13287e-19)
(0.74856 -0.329474 -6.53472e-20)
(0.772609 -0.301425 -4.61839e-20)
(0.795214 -0.275722 7.16487e-20)
(0.816407 -0.252179 1.44006e-20)
(0.836188 -0.230639 8.80639e-20)
(0.85469 -0.210913 -5.89984e-20)
(0.872401 -0.192607 -3.98984e-21)
(0.889283 -0.175416 9.01422e-20)
(0.902427 -0.160558 -4.08978e-20)
(0.116486 -0.17555 -9.87116e-21)
(0.284823 -0.409875 -3.95304e-20)
(0.410902 -0.543968 -7.51447e-21)
(0.49924 -0.599222 -2.19631e-20)
(0.559967 -0.601063 -7.10632e-20)
(0.603533 -0.573273 -6.14989e-20)
(0.637845 -0.533259 -4.06296e-20)
(0.667661 -0.49085 -5.62587e-20)
(0.695176 -0.450202 1.16265e-19)
(0.721137 -0.412493 1.25485e-20)
(0.745734 -0.377806 1.78995e-19)
(0.769018 -0.345961 5.53483e-20)
(0.791021 -0.316748 6.03076e-20)
(0.81178 -0.289957 -9.64162e-20)
(0.831311 -0.265397 1.46805e-19)
(0.849583 -0.242912 -2.62829e-20)
(0.866706 -0.222315 -1.51845e-20)
(0.883206 -0.20318 -1.29241e-19)
(0.89914 -0.185137 6.00311e-20)
(0.911338 -0.169582 -4.82261e-20)
(0.127597 -0.177818 -8.08495e-20)
(0.311393 -0.417885 -3.55287e-20)
(0.446481 -0.557731 -5.33236e-20)
(0.538799 -0.617285 -4.65183e-20)
(0.599886 -0.62146 -1.18921e-20)
(0.641603 -0.594294 1.24566e-19)
(0.673028 -0.553794 1.05911e-19)
(0.699679 -0.510368 8.99137e-20)
(0.724128 -0.468541 -9.13308e-20)
(0.747259 -0.429659 -5.28142e-20)
(0.769283 -0.393854 -1.8805e-19)
(0.790238 -0.360955 1.46836e-19)
(0.810135 -0.330748 -5.62563e-20)
(0.828993 -0.30302 1.01909e-19)
(0.84681 -0.277576 -7.56765e-20)
(0.863529 -0.254264 2.78048e-20)
(0.879219 -0.232903 -3.66954e-20)
(0.894446 -0.213042 1.15485e-19)
(0.90941 -0.194234 -9.11159e-20)
(0.920711 -0.178047 -4.01382e-20)
(0.138336 -0.178552 9.10122e-20)
(0.337512 -0.42259 -3.4152e-20)
(0.481903 -0.567494 6.42479e-20)
(0.578598 -0.631348 6.68055e-20)
(0.640375 -0.638203 -2.06038e-20)
(0.680438 -0.6121 -1.34019e-19)
(0.709048 -0.571521 9.62088e-20)
(0.732526 -0.527416 -1.87028e-20)
(0.753868 -0.484695 2.97671e-20)
(0.774117 -0.444885 3.57636e-20)
(0.793518 -0.408179 -7.40288e-20)
(0.812096 -0.374418 -1.74235e-19)
(0.829842 -0.343389 7.56011e-21)
(0.846756 -0.314879 -1.7176e-20)
(0.862822 -0.28869 5.07598e-21)
(0.877953 -0.264673 8.81945e-20)
(0.892166 -0.242663 -8.50133e-20)
(0.906054 -0.222199 -1.30204e-19)
(0.920025 -0.202747 -3.40188e-20)
(0.930521 -0.185994 6.84277e-20)
(0.148538 -0.177781 7.87569e-21)
(0.362828 -0.424003 -3.92534e-20)
(0.516745 -0.573228 8.50729e-21)
(0.618226 -0.641354 -5.06526e-20)
(0.681072 -0.651225 -2.04343e-20)
(0.719734 -0.626631 -1.4194e-20)
(0.745649 -0.586389 2.23579e-20)
(0.765985 -0.541955 -6.83617e-20)
(0.784207 -0.498628 -1.58759e-20)
(0.801547 -0.458138 4.43958e-20)
(0.818295 -0.420751 2.96295e-20)
(0.834466 -0.386324 1.0901e-19)
(0.850032 -0.354649 1.08006e-19)
(0.864974 -0.325512 -2.74819e-20)
(0.879262 -0.298714 7.56692e-21)
(0.892788 -0.274108 3.01324e-20)
(0.905498 -0.251543 1.11018e-19)
(0.917972 -0.230552 1.30001e-19)
(0.930902 -0.210528 1.45334e-19)
(0.940762 -0.193308 -1.84575e-20)
(0.158044 -0.175554 -1.24791e-20)
(0.386991 -0.422173 2.46073e-20)
(0.550581 -0.574943 2.51969e-20)
(0.65726 -0.647281 1.87473e-20)
(0.721604 -0.66049 -4.25634e-20)
(0.759177 -0.63785 1.3614e-19)
(0.782572 -0.59837 -3.97637e-20)
(0.799839 -0.553963 1.13177e-20)
(0.814959 -0.510325 -5.89008e-20)
(0.829386 -0.469405 -6.01148e-21)
(0.84347 -0.431556 9.96145e-20)
(0.857223 -0.396659 -5.00052e-20)
(0.870596 -0.364512 -1.80607e-20)
(0.883549 -0.334905 -4.5036e-20)
(0.896044 -0.307639 4.31168e-20)
(0.907957 -0.282572 -8.55591e-20)
(0.919153 -0.259575 3.32119e-20)
(0.930114 -0.238219 -2.15052e-20)
(0.941855 -0.217895 9.43981e-21)
(0.95139 -0.200517 4.20642e-20)
(0.1667 -0.171939 -6.71537e-21)
(0.409653 -0.417189 9.1538e-22)
(0.582983 -0.572688 -2.46072e-21)
(0.695271 -0.64914 -9.55613e-21)
(0.761587 -0.665987 1.79344e-20)
(0.798446 -0.645745 -8.56566e-20)
(0.819552 -0.607456 -8.8369e-21)
(0.833865 -0.563438 -4.79361e-20)
(0.845933 -0.519783 7.41196e-20)
(0.857468 -0.478685 5.65939e-20)
(0.868898 -0.440593 -9.50428e-20)
(0.880239 -0.405421 7.30839e-20)
(0.891423 -0.372975 -6.14643e-20)
(0.902387 -0.343053 1.39012e-20)
(0.913082 -0.315457 -1.94066e-19)
(0.923389 -0.290039 6.634e-21)
(0.933112 -0.266673 -6.64309e-20)
(0.94253 -0.24492 -9.611e-20)
(0.952853 -0.224115 -5.72537e-20)
(0.962696 -0.206362 -9.23866e-20)
(0.174375 -0.167028 1.44876e-20)
(0.430474 -0.409168 -2.11241e-20)
(0.613525 -0.566553 9.2539e-21)
(0.731826 -0.646977 1.093e-20)
(0.800632 -0.667737 1.23659e-22)
(0.837215 -0.650327 3.98248e-20)
(0.856323 -0.61366 -2.06635e-20)
(0.867844 -0.570394 -1.54146e-20)
(0.876941 -0.52702 -8.69349e-21)
(0.885631 -0.485991 -3.49563e-20)
(0.894438 -0.447872 2.47154e-20)
(0.90339 -0.412617 -6.99265e-20)
(0.912404 -0.380044 6.00408e-20)
(0.921394 -0.349959 6.01507e-20)
(0.930294 -0.322169 1.07843e-19)
(0.939004 -0.296524 3.65172e-20)
(0.947317 -0.272893 7.4153e-20)
(0.955263 -0.250943 8.15635e-20)
(0.963669 -0.230582 7.30998e-20)
(0.973276 -0.214013 3.6551e-20)
(0.180998 -0.160937 4.1074e-20)
(0.449117 -0.398232 -1.34101e-20)
(0.641791 -0.556672 -1.67873e-20)
(0.766493 -0.640874 -2.84e-20)
(0.838346 -0.665786 6.94241e-21)
(0.875154 -0.651629 -1.35817e-20)
(0.892615 -0.617014 1.68437e-20)
(0.901554 -0.574865 -6.88018e-21)
(0.9078 -0.532068 -3.03579e-20)
(0.913715 -0.491352 -1.01332e-20)
(0.91995 -0.453419 8.1915e-20)
(0.926554 -0.418268 1.91277e-20)
(0.933431 -0.385735 1.33063e-20)
(0.940476 -0.355636 -4.88719e-20)
(0.947602 -0.327789 -1.4714e-19)
(0.95472 -0.302038 4.58701e-20)
(0.96166 -0.278248 3.02536e-20)
(0.968285 -0.256194 -8.48301e-20)
(0.974933 -0.236064 -4.75372e-20)
(0.982961 -0.218706 -2.29437e-20)
(0.186428 -0.153638 -4.78196e-20)
(0.465309 -0.384507 3.16902e-20)
(0.66737 -0.543254 -6.75236e-20)
(0.798847 -0.630954 2.69399e-21)
(0.874333 -0.660214 1.80361e-20)
(0.91193 -0.649708 -1.322e-20)
(0.928159 -0.617568 8.95068e-21)
(0.934777 -0.576901 1.10429e-21)
(0.938325 -0.534973 3.01803e-20)
(0.941563 -0.494812 2.67691e-20)
(0.945297 -0.45727 -5.43596e-20)
(0.94961 -0.422404 -9.54008e-20)
(0.954402 -0.390073 3.51983e-20)
(0.959544 -0.360104 2.86551e-20)
(0.96493 -0.332328 7.64281e-20)
(0.970473 -0.306588 -9.79484e-21)
(0.976054 -0.282733 8.28325e-22)
(0.981488 -0.260613 2.83172e-21)
(0.986692 -0.240596 -7.42217e-21)
(0.992857 -0.222783 -1.11297e-19)
(0.19048 -0.145319 6.63662e-20)
(0.478805 -0.368383 7.18413e-20)
(0.689816 -0.526468 7.11301e-20)
(0.828517 -0.617363 1.70479e-20)
(0.908209 -0.651123 -2.47021e-20)
(0.947208 -0.644643 -1.96743e-20)
(0.962687 -0.615391 -1.1423e-20)
(0.967299 -0.576567 1.51628e-23)
(0.968342 -0.535799 -8.90581e-21)
(0.969026 -0.496426 -1.37008e-20)
(0.97035 -0.459473 4.98935e-21)
(0.972446 -0.425067 4.11929e-20)
(0.975214 -0.393092 -3.56508e-20)
(0.97851 -0.363392 2.78508e-21)
(0.982206 -0.335809 -1.88845e-20)
(0.986209 -0.310191 -1.05988e-20)
(0.990448 -0.286372 5.79476e-21)
(0.994754 -0.264259 -1.80011e-20)
(0.998774 -0.244368 1.72924e-20)
(1.00332 -0.226367 1.0326e-19)
(0.193107 -0.136221 4.79185e-20)
(0.489377 -0.350081 -1.38788e-19)
(0.708738 -0.506552 7.16893e-20)
(0.854979 -0.600319 2.08882e-20)
(0.93962 -0.638627 -4.89925e-20)
(0.980658 -0.636528 2.50674e-20)
(0.995928 -0.610567 1.74082e-21)
(0.998907 -0.573942 -1.33338e-20)
(0.997677 -0.53462 1.97094e-21)
(0.995959 -0.496262 4.83633e-22)
(0.994982 -0.460088 -5.42209e-21)
(0.994952 -0.426307 1.23499e-20)
(0.995771 -0.394837 2.21182e-20)
(0.997289 -0.365536 -3.68214e-20)
(0.999358 -0.338264 1.97127e-20)
(1.00187 -0.312877 -6.66156e-21)
(1.0048 -0.2892 2.035e-20)
(1.00799 -0.26718 -3.32862e-22)
(1.01094 -0.247439 2.34056e-20)
(1.01408 -0.229396 -3.03541e-20)
(0.194287 -0.12651 -6.16918e-21)
(0.496788 -0.329866 -5.37118e-20)
(0.723926 -0.483806 -4.46695e-20)
(0.877761 -0.580017 2.68024e-20)
(0.968103 -0.62291 -5.34064e-21)
(1.01196 -0.625465 2.65644e-20)
(1.02762 -0.603193 1.26264e-20)
(1.02939 -0.56912 3.15059e-21)
(1.02616 -0.531524 1.36237e-21)
(1.02222 -0.494401 -1.97624e-21)
(1.01908 -0.459185 -9.12212e-22)
(1.01702 -0.426186 -4.35433e-21)
(1.01598 -0.395358 6.89146e-21)
(1.0158 -0.366582 -3.78426e-22)
(1.01631 -0.339731 -2.68008e-20)
(1.01741 -0.314677 4.88921e-20)
(1.01906 -0.291247 -2.40172e-20)
(1.02115 -0.2694 -2.31762e-20)
(1.02306 -0.24982 -1.02933e-20)
(1.0249 -0.231831 -1.79833e-20)
(0.193998 -0.11632 -1.85164e-20)
(0.500863 -0.308042 1.15119e-19)
(0.735097 -0.458536 3.84861e-20)
(0.896581 -0.556729 -1.05728e-19)
(0.993201 -0.604155 -1.92183e-20)
(1.04074 -0.611603 3.1778e-20)
(1.05749 -0.593376 1.36192e-20)
(1.05855 -0.562204 3.45818e-20)
(1.05365 -0.52661 -2.15695e-21)
(1.04769 -0.490933 3.1835e-21)
(1.04252 -0.456845 2.13186e-21)
(1.03857 -0.424771 8.47014e-21)
(1.03577 -0.394715 1.16935e-21)
(1.03397 -0.366579 1.38097e-20)
(1.03301 -0.340254 -9.37805e-21)
(1.03275 -0.315629 -6.21476e-20)
(1.03317 -0.292537 -2.92859e-20)
(1.03418 -0.270936 3.04427e-20)
(1.03508 -0.251536 1.54238e-20)
(1.03569 -0.233683 -6.69635e-21)
(0.192228 -0.105792 1.08307e-19)
(0.501488 -0.284938 -1.54164e-19)
(0.741965 -0.431094 -1.37525e-19)
(0.911138 -0.530734 1.65887e-19)
(1.01458 -0.582574 4.12902e-20)
(1.06664 -0.595105 -2.62754e-20)
(1.08525 -0.581242 -4.55484e-20)
(1.08616 -0.553305 -4.45132e-20)
(1.07996 -0.519984 2.77637e-20)
(1.07224 -0.485957 7.03485e-21)
(1.06522 -0.453154 7.70455e-21)
(1.05949 -0.42214 4.38511e-21)
(1.05505 -0.392974 -3.54074e-21)
(1.05173 -0.365584 2.9969e-21)
(1.04937 -0.33988 1.10308e-20)
(1.04784 -0.315772 3.30566e-20)
(1.04709 -0.293102 1.53188e-20)
(1.04705 -0.271816 -5.22218e-20)
(1.04696 -0.252625 -1.07469e-20)
(1.04644 -0.23499 1.54716e-20)
(0.18899 -0.0950855 -1.18204e-19)
(0.498598 -0.260898 1.14229e-19)
(0.744303 -0.401856 -4.80802e-22)
(0.921092 -0.50234 -3.77167e-20)
(1.03191 -0.558401 -5.95768e-21)
(1.0893 -0.57614 -8.34418e-21)
(1.11063 -0.566936 -4.31087e-20)
(1.11204 -0.542549 4.21223e-20)
(1.10496 -0.51176 -5.08371e-20)
(1.09576 -0.479581 3.15543e-21)
(1.08707 -0.448209 -2.45027e-21)
(1.07971 -0.418375 -7.53655e-22)
(1.07374 -0.390206 -2.93721e-21)
(1.06902 -0.363658 -1.07437e-22)
(1.06535 -0.338663 1.93777e-21)
(1.06262 -0.31515 -5.44177e-21)
(1.06077 -0.292978 1.37458e-20)
(1.05971 -0.272072 3.25028e-21)
(1.05869 -0.253129 1.17897e-21)
(1.05713 -0.235785 -2.56725e-20)
(0.184328 -0.0843638 1.82283e-20)
(0.492184 -0.236278 3.31049e-20)
(0.74195 -0.371221 6.08133e-20)
(0.926139 -0.471888 -3.19332e-20)
(1.04484 -0.531887 -8.77661e-20)
(1.10841 -0.554895 2.42216e-20)
(1.13334 -0.550606 3.7576e-20)
(1.13598 -0.530062 2.16589e-20)
(1.12852 -0.502063 4.51658e-20)
(1.11812 -0.471914 -9.71341e-21)
(1.108 -0.442107 -3.5045e-21)
(1.09917 -0.413565 3.91274e-21)
(1.0918 -0.386488 -8.99319e-21)
(1.08577 -0.360865 -7.49622e-21)
(1.0809 -0.336656 -1.64798e-22)
(1.07705 -0.313809 4.25863e-22)
(1.07415 -0.292203 -1.36103e-20)
(1.07214 -0.27174 7.23811e-21)
(1.07024 -0.253082 1.29161e-20)
(1.06773 -0.236091 -9.16352e-22)
(0.178312 -0.0737886 3.32856e-20)
(0.482293 -0.211439 6.73087e-21)
(0.734815 -0.339604 -8.50676e-20)
(0.926028 -0.439746 1.03585e-19)
(1.05302 -0.503308 1.89072e-20)
(1.12364 -0.531566 -9.67359e-20)
(1.15309 -0.532402 3.035e-20)
(1.15775 -0.515981 -3.19887e-20)
(1.15049 -0.491008 3.83296e-22)
(1.13925 -0.463068 4.66811e-21)
(1.12791 -0.434963 1.03296e-20)
(1.11778 -0.407801 2.7151e-21)
(1.10916 -0.381901 1.80931e-20)
(1.10194 -0.357276 1.26278e-21)
(1.09596 -0.333921 -4.2208e-21)
(1.09108 -0.3118 8.35271e-22)
(1.08722 -0.29082 -2.44357e-21)
(1.08429 -0.270857 -2.31975e-22)
(1.08159 -0.252518 1.56485e-21)
(1.07821 -0.235927 5.88205e-21)
(0.171039 -0.063514 -3.87488e-20)
(0.469031 -0.18674 2.0186e-21)
(0.722876 -0.307436 1.77913e-20)
(0.920566 -0.406303 -4.27692e-20)
(1.05614 -0.47296 8.09789e-20)
(1.13463 -0.506363 3.96659e-20)
(1.1696 -0.512476 -3.70302e-20)
(1.17714 -0.500433 -2.08417e-20)
(1.1707 -0.478721 1.59373e-20)
(1.15907 -0.453162 -1.89597e-20)
(1.14676 -0.42687 1.47863e-20)
(1.13551 -0.40119 8.39242e-22)
(1.12577 -0.376529 9.15089e-22)
(1.11748 -0.352957 -5.63149e-21)
(1.11051 -0.330518 1.04687e-20)
(1.10468 -0.309175 -1.47529e-21)
(1.09992 -0.288873 1.418e-22)
(1.09614 -0.26946 1.84669e-21)
(1.0927 -0.251472 -3.78182e-21)
(1.08853 -0.235312 -3.61313e-22)
(0.162629 -0.0536827 6.40938e-20)
(0.452568 -0.162533 7.27951e-20)
(0.706187 -0.275154 5.13324e-20)
(0.909622 -0.371968 -8.36366e-21)
(1.05392 -0.441161 8.2661e-21)
(1.14105 -0.479503 -7.889e-22)
(1.18256 -0.49098 7.94928e-20)
(1.19391 -0.483542 -2.13496e-20)
(1.18901 -0.465321 1.1848e-20)
(1.17745 -0.442314 -5.73475e-20)
(1.16449 -0.417951 1.00012e-20)
(1.15233 -0.393817 1.85782e-20)
(1.1416 -0.370446 -5.87952e-21)
(1.13236 -0.347996 1.22218e-20)
(1.12449 -0.326512 -9.36612e-21)
(1.11781 -0.305984 1.22491e-20)
(1.11224 -0.286405 1.34552e-21)
(1.10767 -0.267592 -2.1408e-21)
(1.10356 -0.249982 -5.11368e-22)
(1.09869 -0.234275 -2.74395e-21)
(0.153225 -0.0444231 -1.20855e-19)
(0.433135 -0.139153 2.91857e-20)
(0.684885 -0.243195 -1.17336e-20)
(0.893133 -0.337165 -7.58287e-20)
(1.04611 -0.408242 -2.38349e-20)
(1.14256 -0.451219 -4.53387e-20)
(1.19164 -0.468073 -3.56045e-20)
(1.20782 -0.465427 -3.42976e-20)
(1.20524 -0.450919 3.00653e-20)
(1.1943 -0.430635 1.11003e-20)
(1.18103 -0.408308 -3.3712e-20)
(1.16817 -0.38578 -4.235e-21)
(1.15662 -0.363751 -2.12733e-21)
(1.14657 -0.342457 -1.06044e-20)
(1.1379 -0.321959 -1.22738e-21)
(1.13046 -0.302294 -2.00871e-21)
(1.12415 -0.283464 -1.02112e-20)
(1.11884 -0.265289 2.01252e-21)
(1.11415 -0.248085 3.45506e-21)
(1.10867 -0.232833 -6.31915e-22)
(0.142987 -0.0358461 4.14219e-21)
(0.411023 -0.116911 -5.24852e-20)
(0.659191 -0.211986 2.34987e-20)
(0.871118 -0.302325 -1.58388e-20)
(1.03252 -0.374555 1.85874e-20)
(1.13884 -0.421752 7.47868e-20)
(1.19649 -0.443912 -3.22123e-20)
(1.21859 -0.446203 6.80117e-20)
(1.21923 -0.435616 2.39969e-21)
(1.20951 -0.418226 2.68236e-20)
(1.19631 -0.398041 2.71861e-21)
(1.18299 -0.377179 1.60018e-20)
(1.17081 -0.356529 2.77305e-21)
(1.16007 -0.336416 4.08319e-22)
(1.15071 -0.316936 -1.63258e-20)
(1.14262 -0.298152 2.56692e-21)
(1.13564 -0.280082 1.00048e-20)
(1.12967 -0.262608 3.53379e-22)
(1.12441 -0.24582 -2.17297e-21)
(1.1185 -0.231036 9.75835e-22)
(0.132092 -0.0280422 1.44231e-20)
(0.386577 -0.0960838 4.1838e-20)
(0.629414 -0.181938 4.39824e-20)
(0.843687 -0.267884 -1.24679e-20)
(1.01301 -0.340461 5.18268e-20)
(1.12958 -0.391353 -1.01106e-20)
(1.19677 -0.418654 7.32347e-20)
(1.22591 -0.425975 -8.5153e-20)
(1.23075 -0.4195 -1.39523e-20)
(1.22296 -0.405177 -1.26068e-20)
(1.21028 -0.387245 -1.35904e-20)
(1.19678 -0.368108 -1.89307e-21)
(1.18414 -0.348866 5.73577e-21)
(1.17285 -0.329948 -1.48617e-20)
(1.16292 -0.311505 1.12209e-20)
(1.15425 -0.293613 -4.77267e-21)
(1.14671 -0.276321 -2.45262e-21)
(1.14015 -0.259551 -3.33273e-21)
(1.13431 -0.243251 -2.3436e-21)
(1.12818 -0.228904 -4.49207e-21)
(0.120726 -0.0210804 6.64969e-20)
(0.360192 -0.0769115 -6.33099e-20)
(0.595949 -0.153432 7.49398e-21)
(0.811049 -0.234274 -8.4115e-21)
(0.987523 -0.306336 -1.96492e-20)
(1.1145 -0.360287 -3.68131e-20)
(1.1921 -0.39246 -4.45814e-21)
(1.22944 -0.404839 2.14147e-20)
(1.23956 -0.402648 8.28139e-21)
(1.23451 -0.391567 -1.07003e-20)
(1.22287 -0.376006 1.14906e-20)
(1.20951 -0.358653 -9.9664e-22)
(1.1966 -0.340841 -1.89821e-20)
(1.18489 -0.323128 2.56983e-20)
(1.17449 -0.305726 6.87015e-21)
(1.16535 -0.288735 -3.38835e-21)
(1.15733 -0.272229 4.24104e-21)
(1.15027 -0.256163 4.78468e-21)
(1.14393 -0.240433 4.25169e-21)
(1.13754 -0.226526 4.06372e-21)
(0.109082 -0.0150058 -6.83305e-20)
(0.3323 -0.0595873 5.1597e-20)
(0.559276 -0.126813 2.18827e-20)
(0.773521 -0.201914 -4.41784e-20)
(0.956084 -0.272565 -9.33507e-21)
(1.09336 -0.328832 -3.36099e-20)
(1.18209 -0.365493 1.30446e-20)
(1.2288 -0.382884 -2.06785e-20)
(1.24536 -0.385116 1.11029e-21)
(1.24397 -0.377457 2.66919e-21)
(1.234 -0.364394 5.7952e-21)
(1.22114 -0.348892 -1.85108e-20)
(1.20819 -0.332531 1.83246e-20)
(1.1962 -0.316026 -1.2325e-20)
(1.18545 -0.299664 -2.65008e-21)
(1.17591 -0.283575 9.5581e-22)
(1.16749 -0.267855 -3.07897e-21)
(1.16001 -0.252495 -7.56112e-21)
(1.15325 -0.237359 -1.62405e-22)
(1.14654 -0.223872 -4.15781e-21)
(0.0973519 -0.0098399 -8.16753e-21)
(0.303362 -0.044254 -2.38497e-20)
(0.51995 -0.102376 -8.12012e-21)
(0.731532 -0.171204 1.27266e-20)
(0.918831 -0.239537 -7.28256e-21)
(1.06598 -0.297279 7.64594e-21)
(1.16636 -0.337925 1.7015e-20)
(1.22354 -0.360191 1.44407e-20)
(1.24779 -0.366948 1.11156e-20)
(1.25112 -0.362886 -2.4154e-21)
(1.24353 -0.352467 -5.54899e-21)
(1.23162 -0.338892 6.83372e-21)
(1.21888 -0.324007 -3.01817e-21)
(1.20678 -0.308708 4.18918e-21)
(1.19578 -0.293377 -1.93443e-21)
(1.18595 -0.278184 4.79176e-21)
(1.1772 -0.263244 -1.3965e-21)
(1.16937 -0.248585 4.49287e-21)
(1.16225 -0.234034 -1.35256e-21)
(1.15524 -0.220951 2.40079e-22)
(0.0857215 -0.00558046 -9.90557e-23)
(0.273853 -0.0310003 -9.82538e-23)
(0.478589 -0.0803636 -2.71849e-21)
(0.685626 -0.14251 1.33757e-20)
(0.876025 -0.207645 8.46982e-21)
(1.03227 -0.265938 -6.33397e-21)
(1.14455 -0.309939 -4.63715e-21)
(1.21321 -0.336838 -1.34374e-21)
(1.24644 -0.348168 -6.39944e-21)
(1.25565 -0.347873 -4.12448e-22)
(1.25131 -0.340257 2.67943e-22)
(1.24089 -0.328704 -2.59404e-21)
(1.22866 -0.315331 -1.57266e-21)
(1.21663 -0.301237 -3.51119e-21)
(1.20551 -0.286924 -3.7402e-21)
(1.19546 -0.272612 -2.93879e-22)
(1.18646 -0.258439 1.33819e-21)
(1.17835 -0.244471 1.36552e-21)
(1.17094 -0.230493 1.45292e-21)
(1.16369 -0.217801 2.10389e-21)
(0.0743667 -0.00220278 9.23735e-21)
(0.24425 -0.0198592 -1.42771e-21)
(0.435861 -0.0609511 -2.41595e-21)
(0.636456 -0.116157 6.05817e-21)
(0.828066 -0.177273 1.2139e-20)
(0.992235 -0.235135 -5.34876e-21)
(1.11633 -0.281735 -4.33675e-21)
(1.1973 -0.312907 -8.03516e-21)
(1.24081 -0.328787 -7.20201e-21)
(1.25719 -0.332412 1.34459e-21)
(1.25711 -0.327775 -1.18649e-21)
(1.24883 -0.318365 -5.43436e-22)
(1.2375 -0.306552 -2.78981e-21)
(1.22575 -0.293669 -4.48141e-21)
(1.21463 -0.280357 -1.09085e-21)
(1.20447 -0.266906 -3.58551e-22)
(1.19528 -0.253482 -7.50565e-23)
(1.18696 -0.24019 9.3941e-22)
(1.17932 -0.226781 3.41492e-21)
(1.1719 -0.214455 2.84018e-21)
(0.0634466 0.000338231 -5.53753e-21)
(0.215014 -0.0108089 -8.04042e-21)
(0.392457 -0.0442462 -1.07084e-20)
(0.584774 -0.0924166 1.40468e-20)
(0.775506 -0.14879 1.35388e-20)
(0.946029 -0.205215 2.61157e-22)
(1.08143 -0.253541 5.14838e-21)
(1.17529 -0.28849 1.42554e-20)
(1.23033 -0.308806 1.54193e-20)
(1.25527 -0.316473 9.99169e-21)
(1.26061 -0.315005 -2.43536e-20)
(1.25528 -0.307884 9.9716e-21)
(1.24534 -0.297706 -4.68101e-21)
(1.23413 -0.286048 1.006e-20)
(1.22316 -0.273724 -6.61678e-22)
(1.21297 -0.261113 -1.5875e-21)
(1.20368 -0.248415 1.03726e-21)
(1.1952 -0.23578 9.80763e-21)
(1.18739 -0.222937 -3.41314e-21)
(1.17988 -0.210942 3.2475e-22)
(0.0531 0.0021052 -1.70244e-20)
(0.186578 -0.00377609 3.87769e-20)
(0.349077 -0.0302844 3.85403e-21)
(0.53141 -0.0714961 -4.83981e-20)
(0.71905 -0.122539 -9.02356e-21)
(0.893977 -0.176535 2.08982e-20)
(1.03972 -0.225614 -4.82311e-20)
(1.14669 -0.263701 -4.36548e-22)
(1.21435 -0.288227 4.47206e-21)
(1.24932 -0.300007 -9.06784e-22)
(1.26141 -0.3019 1.29321e-20)
(1.26002 -0.297245 -2.25193e-20)
(1.25206 -0.288807 3.60268e-21)
(1.24173 -0.278411 -8.51817e-21)
(1.23109 -0.267068 -7.06639e-21)
(1.22099 -0.255274 6.49447e-21)
(1.21166 -0.243276 -7.621e-22)
(1.2031 -0.231274 -1.54535e-20)
(1.19517 -0.218998 4.36231e-22)
(1.18762 -0.207291 -7.82975e-21)
(0.043442 0.0031749 1.32161e-20)
(0.159329 0.00135922 -2.14918e-20)
(0.306399 -0.0190287 -1.70479e-21)
(0.477245 -0.0535284 -3.98634e-20)
(0.659548 -0.0988225 -2.48296e-20)