/*--------------------------------*- C++ -*----------------------------------*\
  =========                 |
  \\      /  F ield         | OpenFOAM: The Open Source CFD Toolbox
   \\    /   O peration     | Website:  https://openfoam.org
    \\  /    A nd           | Version:  7
     \\/     M anipulation  |
\*---------------------------------------------------------------------------*/
FoamFile
{
    version     2.0;
    format      ascii;
    class       volScalarField;
    location    "2.5";
    object      rho;
}
// * * * * * * * * * * * * * * * * * * * * * * * * * * * * * * * * * * * * * //

dimensions      [1 -3 0 0 0 0 0];

internalField   nonuniform List<scalar> 
4116
(
1.25713
1.25563
1.25419
1.25255
1.25063
1.2478
1.24344
1.23727
1.22963
1.2214
1.21399
1.20601
1.19501
1.18491
1.18046
1.1792
1.1777
1.17635
1.17543
1.17472
1.17454
1.17747
1.17976
1.17856
1.17749
1.17712
1.17634
1.17528
1.17379
1.172
1.17046
1.16885
1.16701
1.16502
1.16276
1.15993
1.15653
1.15182
1.14415
1.13136
1.11811
1.11162
1.10834
1.10482
1.10124
1.09931
1.09808
1.09701
1.09615
1.0954
1.09484
1.09456
1.09509
1.09718
1.09972
1.09957
1.09825
1.09713
1.09624
1.09517
1.09408
1.09296
1.09175
1.09036
1.08863
1.08611
1.0814
1.07126
1.05344
1.03877
1.03562
1.03507
1.03472
1.0348
1.03539
1.03523
1.03464
1.03469
1.03826
1.06428
1.13291
1.28957
1.5021
1.71688
1.85316
1.91462
1.96037
2.00173
2.01531
2.02267
2.02948
2.0312
2.0309
2.02705
2.01725
2.00318
1.98482
1.96578
1.9544
1.94769
1.94178
1.93694
1.93315
1.93045
1.92894
1.92821
1.9277
1.9273
1.92714
1.92756
1.92816
1.92866
1.92921
1.92985
1.93152
1.93692
1.94487
1.94846
1.94882
1.94787
1.94319
1.92347
1.88928
1.87099
1.86674
1.86402
1.86053
1.85553
1.85204
1.85016
1.84775
1.84406
1.84162
1.8406
1.83949
1.83826
1.83685
1.83544
1.83458
1.8352
1.84024
1.8546
1.87148
1.87665
1.87584
1.87222
1.84425
1.25339
1.25182
1.25034
1.24874
1.24709
1.24509
1.24171
1.23603
1.22873
1.22264
1.21732
1.21054
1.20095
1.18881
1.17982
1.17685
1.17586
1.17523
1.17478
1.17408
1.1733
1.17304
1.17506
1.1763
1.17545
1.17499
1.17489
1.17397
1.17245
1.17097
1.16954
1.16782
1.16579
1.16369
1.16172
1.16033
1.159
1.15619
1.149
1.13537
1.11776
1.10842
1.10551
1.10294
1.09998
1.09854
1.09752
1.09658
1.09576
1.09507
1.09455
1.09414
1.09444
1.0972
1.09981
1.09927
1.09796
1.09701
1.09619
1.09519
1.0941
1.09296
1.09177
1.09041
1.0886
1.08589
1.08124
1.07272
1.05672
1.03888
1.03372
1.03311
1.03252
1.032
1.03193
1.03255
1.03293
1.03273
1.03251
1.0323
1.03514
1.05461
1.12502
1.26162
1.47191
1.68998
1.85826
1.90776
1.9435
1.98329
2.01829
2.03273
2.03629
2.03457
2.02413
2.00454
1.97928
1.95319
1.93719
1.93198
1.93002
1.92897
1.92886
1.92896
1.92736
1.92546
1.92445
1.92455
1.92761
1.93035
1.93074
1.93059
1.93031
1.9311
1.93473
1.93897
1.9406
1.94236
1.94348
1.94332
1.93994
1.92252
1.88836
1.86634
1.86174
1.85945
1.85651
1.85183
1.84687
1.84453
1.84281
1.84017
1.83758
1.83653
1.83619
1.83587
1.83492
1.83384
1.83343
1.8373
1.85168
1.8699
1.87674
1.87687
1.87513
1.87082
1.84254
1.25258
1.25104
1.24948
1.24775
1.24576
1.2435
1.24072
1.23679
1.23072
1.22289
1.21544
1.20913
1.20214
1.19192
1.18182
1.17729
1.17524
1.17365
1.17225
1.17119
1.17029
1.16968
1.17064
1.1742
1.17497
1.1747
1.17479
1.17401
1.17228
1.17111
1.16996
1.16835
1.16617
1.16411
1.16289
1.16199
1.16037
1.15654
1.14848
1.13458
1.1161
1.10502
1.10248
1.10147
1.10065
1.09976
1.09892
1.09812
1.09737
1.09672
1.09613
1.0956
1.09599
1.09983
1.10196
1.10096
1.09977
1.09904
1.09833
1.0973
1.09615
1.09495
1.09365
1.0921
1.08995
1.08654
1.08149
1.07387
1.06053
1.04236
1.0327
1.03096
1.03015
1.02946
1.02888
1.02865
1.03025
1.03191
1.03161
1.03108
1.03062
1.03022
1.03281
1.04734
1.11421
1.2462
1.45095
1.65547
1.85651
1.92079
1.949
1.98287
2.0145
2.02148
2.02008
2.01165
1.98924
1.95656
1.9291
1.91841
1.9163
1.91583
1.91862
1.92392
1.92507
1.92438
1.92412
1.92394
1.92452
1.92754
1.93179
1.93498
1.93747
1.94172
1.94387
1.94135
1.93913
1.93788
1.93728
1.93667
1.93317
1.91865
1.88902
1.8656
1.85771
1.85443
1.851
1.84562
1.83979
1.83729
1.83629
1.83476
1.83357
1.83387
1.83445
1.8344
1.8336
1.83302
1.8362
1.85107
1.87188
1.87633
1.87525
1.87488
1.87308
1.86825
1.83947
1.25234
1.25088
1.2494
1.24783
1.24588
1.24293
1.23888
1.23361
1.22753
1.22139
1.2156
1.21017
1.20419
1.19588
1.18449
1.17645
1.17333
1.17123
1.16982
1.16879
1.16789
1.1672
1.16715
1.17006
1.17406
1.17504
1.17556
1.17468
1.17245
1.17107
1.17023
1.16957
1.16877
1.1679
1.1667
1.16515
1.1626
1.15777
1.14942
1.13523
1.11683
1.10425
1.10018
1.09837
1.09713
1.09622
1.09544
1.09482
1.0944
1.09409
1.0937
1.0931
1.09293
1.09553
1.09867
1.098
1.09691
1.09638
1.09581
1.09472
1.09358
1.09245
1.09121
1.08977
1.08799
1.08554
1.08168
1.07562
1.06489
1.04672
1.03163
1.02849
1.02781
1.02722
1.0267
1.02641
1.02716
1.03092
1.03207
1.03095
1.03043
1.02936
1.02907
1.02897
1.03136
1.04419
1.10216
1.22931
1.44052
1.63814
1.80674
1.94991
1.97459
1.9802
1.98366
1.98244
1.97446
1.95586
1.93542
1.92016
1.9143
1.91255
1.91115
1.91091
1.91511
1.92282
1.92611
1.92576
1.92602
1.92947
1.93485
1.938
1.94018
1.94209
1.94145
1.93962
1.93761
1.93568
1.93339
1.93024
1.92422
1.91108
1.88933
1.86798
1.85687
1.8516
1.84687
1.84041
1.83428
1.83187
1.83033
1.82896
1.82907
1.83133
1.83336
1.83394
1.83394
1.83661
1.84962
1.86971
1.87357
1.87225
1.87105
1.86991
1.86762
1.8623
1.83435
1.25435
1.25281
1.25118
1.24912
1.2462
1.24243
1.23794
1.23252
1.2262
1.22049
1.21623
1.21273
1.2078
1.19773
1.18262
1.17387
1.17169
1.17048
1.16914
1.16748
1.16601
1.1649
1.16417
1.16514
1.17016
1.17497
1.17678
1.17568
1.1733
1.17197
1.17143
1.17064
1.16932
1.16764
1.16566
1.16341
1.16068
1.15685
1.15031
1.13751
1.11693
1.1018
1.0982
1.09697
1.09597
1.09513
1.09447
1.09397
1.09384
1.09373
1.09347
1.09316
1.09286
1.09333
1.0965
1.09734
1.09642
1.09582
1.0952
1.09406
1.09291
1.09175
1.09049
1.08904
1.08725
1.08497
1.08223
1.0781
1.06919
1.05109
1.03256
1.02775
1.02685
1.02588
1.02478
1.02404
1.02364
1.02399
1.02737
1.03132
1.03115
1.02989
1.02829
1.02749
1.02799
1.02865
1.03068
1.04258
1.09103
1.21751
1.40355
1.6196
1.78243
1.92228
1.96776
1.96643
1.94052
1.92398
1.91625
1.91363
1.91319
1.91167
1.91073
1.91078
1.91292
1.91552
1.91888
1.92396
1.93118
1.93897
1.9425
1.94365
1.94358
1.94171
1.93832
1.93408
1.93121
1.92883
1.92559
1.9208
1.91364
1.90247
1.88627
1.86833
1.8547
1.84741
1.84212
1.8364
1.83007
1.82614
1.82377
1.8221
1.82199
1.82502
1.83067
1.83499
1.83922
1.84869
1.86585
1.87146
1.86957
1.86715
1.86518
1.86326
1.85969
1.85317
1.82701
1.25095
1.24988
1.24869
1.24728
1.24516
1.24209
1.23687
1.23026
1.2249
1.22077
1.21786
1.21493
1.21036
1.20029
1.18345
1.173
1.17024
1.16876
1.16715
1.16533
1.16382
1.16275
1.16198
1.1622
1.16679
1.17597
1.18006
1.17907
1.17689
1.17563
1.17459
1.17315
1.17123
1.16875
1.16615
1.16338
1.16053
1.15752
1.15218
1.13944
1.11704
1.10074
1.09734
1.09626
1.09531
1.0947
1.09454
1.09474
1.09495
1.09488
1.09408
1.0933
1.09282
1.09267
1.09445
1.09777
1.09732
1.09611
1.09525
1.09433
1.09336
1.09236
1.09126
1.08996
1.08838
1.0865
1.08415
1.08034
1.07257
1.05686
1.03558
1.02578
1.02431
1.02331
1.02238
1.02172
1.02121
1.02098
1.02246
1.02879
1.03271
1.03109
1.02832
1.02739
1.02738
1.02761
1.02795
1.02765
1.02853
1.03924
1.07792
1.19249
1.36124
1.58353
1.75428
1.87162
1.9205
1.92182
1.90084
1.89021
1.88952
1.89013
1.89941
1.90955
1.91409
1.91594
1.91947
1.92445
1.92873
1.9337
1.94189
1.94603
1.94486
1.94222
1.93855
1.93329
1.92683
1.92076
1.91478
1.90824
1.90146
1.89406
1.88341
1.86807
1.85306
1.8433
1.83744
1.83276
1.82729
1.82212
1.81948
1.81809
1.81804
1.82168
1.83056
1.8422
1.85331
1.86384
1.86877
1.86741
1.86484
1.86225
1.85963
1.85688
1.85178
1.84365
1.81912
1.24923
1.24878
1.24822
1.24719
1.24553
1.24145
1.23348
1.22644
1.22356
1.22219
1.2205
1.21771
1.21197
1.19934
1.18068
1.17074
1.16814
1.1661
1.16439
1.16346
1.16262
1.16179
1.16122
1.16088
1.16188
1.16863
1.17701
1.17709
1.17533
1.17428
1.17327
1.17189
1.1704
1.16886
1.16657
1.16333
1.1592
1.15442
1.14934
1.14011
1.12023
1.1012
1.09513
1.09354
1.0924
1.09142
1.09059
1.09005
1.08978
1.08998
1.09128
1.09232
1.09284
1.09271
1.09272
1.09376
1.09337
1.09225
1.09126
1.09023
1.08913
1.08797
1.08674
1.08546
1.08419
1.08291
1.08119
1.07824
1.073
1.06111
1.03913
1.02435
1.02217
1.02154
1.02088
1.02022
1.01949
1.01867
1.01836
1.02119
1.02875
1.03051
1.02904
1.02789
1.02779
1.02789
1.02771
1.02699
1.02634
1.02497
1.0243
1.03181
1.06203
1.16087
1.32464
1.54408
1.70208
1.80552
1.87387
1.89076
1.87893
1.876
1.87826
1.88116
1.89429
1.91209
1.92447
1.92961
1.93202
1.935
1.93687
1.93786
1.93684
1.93515
1.93354
1.93016
1.92333
1.91437
1.90513
1.89689
1.89047
1.88531
1.87948
1.86994
1.85527
1.84029
1.83251
1.8285
1.82388
1.81933
1.81719
1.81626
1.81659
1.82224
1.83641
1.8486
1.85509
1.86112
1.86385
1.86201
1.85951
1.85649
1.85303
1.84869
1.84089
1.83148
1.81201
1.24788
1.24672
1.24552
1.24387
1.24115
1.23651
1.23014
1.22609
1.22422
1.2224
1.22017
1.21738
1.21287
1.20039
1.17963
1.16851
1.16576
1.16374
1.16232
1.16153
1.16067
1.15987
1.15925
1.15849
1.15833
1.16221
1.17239
1.17618
1.17484
1.17372
1.17304
1.17193
1.17063
1.16903
1.1667
1.16352
1.15955
1.15445
1.14715
1.13676
1.12082
1.10125
1.09268
1.09076
1.08972
1.08884
1.08808
1.08745
1.08692
1.08669
1.08847
1.0926
1.09276
1.09176
1.09118
1.09139
1.09096
1.08964
1.08852
1.08751
1.08643
1.08519
1.08398
1.08292
1.08193
1.08105
1.08006
1.07839
1.07453
1.06456
1.04393
1.02457
1.02009
1.01926
1.01848
1.01779
1.01696
1.01601
1.01551
1.01648
1.02315
1.03069
1.03065
1.02967
1.02969
1.02996
1.02914
1.02793
1.02669
1.02451
1.02189
1.01917
1.01727
1.0225
1.04846
1.13514
1.29726
1.49287
1.65484
1.75953
1.8365
1.87691
1.87491
1.87207
1.87762
1.88313
1.89675
1.91995
1.93687
1.9415
1.94007
1.93718
1.93314
1.92742
1.92209
1.91734
1.91143
1.90374
1.89683
1.89148
1.88677
1.88199
1.87582
1.8655
1.85071
1.83735
1.83113
1.82723
1.82215
1.81665
1.81404
1.81312
1.81702
1.83238
1.84541
1.85046
1.85434
1.85855
1.85875
1.85689
1.8542
1.85023
1.84466
1.83717
1.82788
1.82144
1.80868
1.24517
1.24396
1.2427
1.24071
1.23591
1.23046
1.22918
1.22818
1.22668
1.22469
1.22232
1.21896
1.21184
1.19607
1.1742
1.16442
1.16196
1.16015
1.15912
1.15846
1.15772
1.15709
1.15649
1.15579
1.15547
1.15703
1.16435
1.17405
1.17553
1.17461
1.17418
1.17342
1.1721
1.1704
1.16832
1.16572
1.16201
1.15588
1.14703
1.13517
1.11793
1.09842
1.08865
1.08656
1.08561
1.08476
1.08397
1.08329
1.08275
1.08237
1.08267
1.08542
1.08857
1.08883
1.08809
1.08781
1.08724
1.08593
1.08483
1.08389
1.08287
1.0817
1.08065
1.07981
1.07897
1.07794
1.07645
1.07423
1.07098
1.06415
1.04716
1.02509
1.01749
1.0165
1.01593
1.0154
1.01465
1.01384
1.01346
1.01361
1.01665
1.02338
1.02641
1.02616
1.02613
1.0266
1.0259
1.02472
1.02362
1.02212
1.01982
1.01676
1.01306
1.01046
1.00827
1.01294
1.03866
1.10903
1.26023
1.44259
1.61788
1.73361
1.80983
1.87062
1.87835
1.87728
1.88408
1.89406
1.90617
1.92192
1.93507
1.93854
1.93591
1.92948
1.91948
1.90697
1.89508
1.88985
1.88771
1.88546
1.88332
1.88079
1.87511
1.86465
1.84858
1.8356
1.83102
1.8268
1.82135
1.81649
1.81382
1.81318
1.81833
1.8286
1.83885
1.8478
1.85368
1.85497
1.85389
1.85167
1.84761
1.84085
1.83249
1.82462
1.81875
1.81505
1.80425
1.24113
1.2397
1.23809
1.23534
1.23014
1.22566
1.22402
1.22294
1.22182
1.22027
1.21831
1.21542
1.20891
1.19239
1.16967
1.16031
1.15794
1.15647
1.1556
1.15499
1.15447
1.15393
1.15325
1.15269
1.15243
1.15298
1.15729
1.16572
1.16945
1.16908
1.16876
1.16819
1.16688
1.16531
1.16366
1.16177
1.15906
1.15469
1.14745
1.13542
1.11651
1.09414
1.08309
1.08109
1.08016
1.07927
1.07848
1.07791
1.0776
1.07739
1.07751
1.07916
1.08205
1.08364
1.08371
1.08362
1.08301
1.08179
1.08077
1.07986
1.07871
1.07737
1.07635
1.07565
1.07492
1.07405
1.07293
1.07135
1.06876
1.06303
1.04851
1.02638
1.01543
1.01419
1.0137
1.0131
1.01218
1.01122
1.01065
1.01032
1.0111
1.01635
1.02266
1.02408
1.02418
1.02438
1.02352
1.02243
1.02146
1.0202
1.01821
1.01516
1.01087
1.00688
1.00287
1.00013
0.997178
0.99807
1.01661
1.07198
1.21705
1.40959
1.59271
1.71338
1.79298
1.86328
1.89111
1.89266
1.89454
1.8977
1.90385
1.91338
1.9225
1.92332
1.91905
1.90936
1.89584
1.88504
1.87897
1.87485
1.87265
1.87191
1.87147
1.86661
1.85202
1.83525
1.82481
1.82187
1.82102
1.81974
1.81867
1.81871
1.82265
1.82822
1.83373
1.8402
1.84619
1.84763
1.84674
1.8438
1.83659
1.82719
1.82081
1.81657
1.8132
1.81025
1.80052
1.23485
1.2331
1.2307
1.22702
1.22334
1.22187
1.22089
1.22006
1.21892
1.21739
1.21553
1.21262
1.20587
1.18907
1.16584
1.15591
1.15354
1.15219
1.15124
1.15059
1.15018
1.14963
1.14871
1.14808
1.14778
1.14786
1.15049
1.15829
1.16497
1.16562
1.16524
1.16447
1.16313
1.16162
1.15999
1.15775
1.15442
1.14982
1.14337
1.13296
1.11457
1.09007
1.07727
1.07509
1.07407
1.0731
1.07225
1.07167
1.07135
1.0712
1.0714
1.07274
1.07464
1.07639
1.07828
1.07929
1.07856
1.07737
1.07646
1.07545
1.07395
1.07257
1.07177
1.07123
1.07055
1.06967
1.06868
1.06742
1.06515
1.06044
1.04962
1.02917
1.01397
1.01124
1.01057
1.00979
1.00861
1.00748
1.00678
1.00626
1.00624
1.00964
1.0169
1.02041
1.02135
1.02146
1.02039
1.0193
1.0185
1.01737
1.01562
1.01288
1.00866
1.00325
0.998126
0.994278
0.990377
0.986877
0.979007
0.97182
0.987882
1.04458
1.18372
1.38024
1.572
1.69367
1.78018
1.84702
1.89495
1.90241
1.89942
1.8964
1.8955
1.89532
1.8985
1.89858
1.89461
1.88713
1.87881
1.87369
1.86948
1.86454
1.86029
1.8578
1.85274
1.83917
1.8262
1.82035
1.81744
1.81546
1.81493
1.81799
1.82262
1.82759
1.83288
1.83741
1.83949
1.83923
1.83687
1.82977
1.82032
1.81562
1.8132
1.81116
1.80884
1.80597
1.79702
1.22676
1.22497
1.22267
1.21978
1.21753
1.21632
1.21543
1.21464
1.21348
1.21207
1.2104
1.20775
1.20146
1.18557
1.16232
1.15087
1.14809
1.14664
1.14565
1.14502
1.14444
1.14343
1.1424
1.14178
1.14141
1.14137
1.1435
1.15083
1.15912
1.16021
1.15933
1.15831
1.15699
1.15548
1.15372
1.1513
1.14802
1.144
1.1387
1.12985
1.11244
1.08599
1.07074
1.06814
1.06707
1.06608
1.06519
1.06454
1.06419
1.06411
1.06441
1.06529
1.06667
1.06929
1.07297
1.07388
1.073
1.07209
1.07134
1.07017
1.06843
1.06727
1.06664
1.06624
1.06557
1.06465
1.06361
1.06226
1.05995
1.05532
1.04553
1.02749
1.01164
1.00763
1.00673
1.00582
1.00447
1.00326
1.00254
1.0019
1.00153
1.00303
1.00929
1.01497
1.0175
1.01742
1.01614
1.01502
1.0142
1.0131
1.01158
1.00918
1.00503
0.999273
0.993624
0.989234
0.985494
0.980724
0.973188
0.960088
0.951717
0.953429
0.972208
1.02801
1.15168
1.34408
1.54024
1.66695
1.76596
1.83382
1.88409
1.89852
1.89841
1.88753
1.8782
1.87345
1.87077
1.87182
1.87628
1.87594
1.87199
1.86523
1.85743
1.84787
1.83874
1.83333
1.82819
1.8219
1.81765
1.81524
1.81359
1.81332
1.81458
1.8191
1.82707
1.83298
1.83349
1.83116
1.82391
1.81229
1.80702
1.8056
1.80502
1.80543
1.80394
1.80142
1.79377
1.21687
1.21531
1.21351
1.21156
1.2101
1.20897
1.20819
1.20757
1.20652
1.20526
1.20384
1.20154
1.19597
1.18178
1.15935
1.14572
1.14158
1.1398
1.13887
1.13809
1.13718
1.13616
1.1354
1.13496
1.13465
1.13464
1.13647
1.14276
1.1513
1.15297
1.15178
1.15042
1.14895
1.14743
1.14571
1.14354
1.14097
1.13789
1.13358
1.12583
1.10946
1.08193
1.06378
1.06052
1.05943
1.05846
1.05751
1.05677
1.05643
1.05628
1.05607
1.05605
1.05751
1.06173
1.06673
1.06753
1.06667
1.06609
1.06558
1.06419
1.06244
1.06145
1.06097
1.06064
1.05989
1.05887
1.05771
1.05617
1.05385
1.04969
1.04137
1.02624
1.01009
1.00395
1.0026
1.00152
1.00002
0.998771
0.998023
0.997323
0.996758
0.997095
1.00152
1.00881
1.01261
1.01221
1.01076
1.00971
1.00878
1.00764
1.00628
1.00412
1.00035
0.995038
0.989399
0.984343
0.97963
0.974276
0.966333
0.955168
0.945984
0.942771
0.943029
0.94535
0.960115
1.01099
1.11816
1.29879
1.5065
1.6463
1.74819
1.81787
1.86754
1.8844
1.88464
1.87326
1.85788
1.85437
1.85408
1.859
1.86544
1.86514
1.86012
1.84889
1.83365
1.81896
1.81459
1.8152
1.81666
1.81464
1.81081
1.80883
1.80789
1.80778
1.8109
1.81778
1.82197
1.8202
1.81236
1.80432
1.80152
1.79986
1.79877
1.79949
1.80004
1.7984
1.79198
1.20641
1.2056
1.20438
1.20294
1.20179
1.20081
1.20014
1.19935
1.19821
1.19696
1.19563
1.1936
1.18884
1.17655
1.15531
1.13977
1.13422
1.13225
1.13132
1.13037
1.1292
1.12824
1.12769
1.12744
1.12727
1.12718
1.12824
1.133
1.1413
1.14392
1.14259
1.14085
1.13955
1.13842
1.13681
1.13468
1.13234
1.12965
1.12598
1.11938
1.10484
1.07786
1.05673
1.05229
1.05112
1.05015
1.04927
1.04859
1.04812
1.04763
1.047
1.04662
1.0476
1.05241
1.05893
1.06065
1.06004
1.0598
1.05939
1.05771
1.05607
1.05524
1.05489
1.05447
1.05357
1.05243
1.05117
1.04962
1.04746
1.04389
1.03667
1.02253
1.00627
0.999598
0.998046
0.996809
0.995114
0.993792
0.993008
0.992256
0.991567
0.991292
0.993616
1.00146
1.00644
1.00583
1.00451
1.00363
1.00289
1.00186
1.00063
0.99874
0.995303
0.990022
0.984099
0.978894
0.974156
0.968617
0.960534
0.949478
0.94101
0.938387
0.937017
0.935357
0.935376
0.937237
0.948012
0.991449
1.08835
1.26136
1.47842
1.63453
1.73113
1.80276
1.8501
1.86461
1.86634
1.85524
1.84472
1.84488
1.84531
1.84529
1.84636
1.84547
1.83709
1.82099
1.80755
1.80316
1.80246
1.8031
1.80565
1.8044
1.80155
1.79994
1.79867
1.79834
1.80136
1.80286
1.80023
1.79831
1.79672
1.79467
1.7931
1.79319
1.79471
1.79394
1.78958
1.19602
1.19575
1.19499
1.19347
1.19239
1.1918
1.19122
1.19021
1.18894
1.18768
1.18633
1.18432
1.18007
1.16972
1.15029
1.13306
1.12677
1.1249
1.12383
1.12264
1.12102
1.11984
1.11916
1.11872
1.11842
1.11814
1.11826
1.12134
1.12955
1.13368
1.13236
1.13076
1.12983
1.12874
1.12698
1.12488
1.12273
1.12034
1.11725
1.11179
1.09968
1.07522
1.05088
1.04403
1.04261
1.0416
1.04076
1.04011
1.03951
1.03879
1.03822
1.03791
1.0384
1.04222
1.0493
1.05331
1.05357
1.05352
1.05291
1.0511
1.04967
1.04895
1.04863
1.04804
1.04701
1.04577
1.04439
1.04281
1.04084
1.03762
1.0307
1.01658
1.00077
0.994902
0.993535
0.992321
0.990519
0.988771
0.987848
0.987031
0.986184
0.98556
0.986284
0.992935
0.999688
0.999416
0.99822
0.997557
0.996824
0.995703
0.994323
0.992224
0.988848
0.984159
0.979177
0.974886
0.970778
0.965077
0.955128
0.941622
0.933758
0.932275
0.931351
0.930022
0.929317
0.929001
0.92932
0.931178
0.939747
0.97893
1.07118
1.24384
1.45891
1.63567
1.72117
1.78095
1.81979
1.84442
1.85328
1.85095
1.8402
1.82899
1.82266
1.82043
1.82031
1.81865
1.81144
1.79903
1.79272
1.79037
1.78901
1.78922
1.79136
1.79212
1.79123
1.78994
1.78827
1.78722
1.78697
1.78732
1.78766
1.78801
1.7888
1.79153
1.79293
1.79156
1.78737
1.18457
1.18417
1.18401
1.18348
1.183
1.18303
1.18245
1.18119
1.17979
1.17837
1.17671
1.17435
1.17006
1.16081
1.14318
1.12557
1.11897
1.11719
1.11605
1.11478
1.11306
1.11108
1.10981
1.10896
1.10824
1.10759
1.10723
1.10881
1.11676
1.12276
1.12176
1.12032
1.11949
1.11828
1.11653
1.1147
1.11283
1.11069
1.10792
1.10324
1.09323
1.07149
1.04499
1.03551
1.03394
1.03297
1.03227
1.03183
1.03115
1.03035
1.02991
1.02969
1.02971
1.03168
1.03795
1.04436
1.04666
1.04683
1.04603
1.04441
1.04329
1.04276
1.04244
1.04165
1.04047
1.03907
1.03756
1.03601
1.0342
1.03125
1.02465
1.01095
0.995628
0.989871
0.988467
0.987255
0.985474
0.983322
0.982063
0.981166
0.980274
0.979574
0.979554
0.983738
0.991911
0.993113
0.991827
0.990823
0.989764
0.988552
0.987139
0.985365
0.983017
0.980021
0.976743
0.973374
0.969154
0.961864
0.948196
0.9326
0.926994
0.92632
0.92603
0.926034
0.925876
0.925423
0.924945
0.923632
0.922527
0.923261
0.929434
0.969182
1.06684
1.23767
1.45203
1.63234
1.70199
1.76049
1.80833
1.83451
1.83917
1.83743
1.82411
1.80391
1.79146
1.78825
1.79056
1.79286
1.79221
1.7866
1.77904
1.77585
1.77376
1.77306
1.77576
1.78137
1.78226
1.78086
1.7793
1.77811
1.77711
1.7772
1.78049
1.78747
1.79192
1.79165
1.78908
1.17326
1.17384
1.17416
1.17439
1.17458
1.17449
1.17365
1.17216
1.17051
1.16884
1.16684
1.164
1.15942
1.15047
1.13415
1.11769
1.11137
1.10964
1.1085
1.10726
1.10544
1.10244
1.09934
1.09794
1.09699
1.09607
1.09537
1.09586
1.1026
1.11115
1.11102
1.10942
1.1086
1.10759
1.10594
1.10428
1.10254
1.10055
1.09794
1.09378
1.08543
1.06713
1.04136
1.02908
1.02695
1.02598
1.02523
1.02461
1.02358
1.02266
1.02209
1.02164
1.02125
1.02171
1.02642
1.035
1.04042
1.04069
1.03972
1.0385
1.03766
1.03717
1.03656
1.03555
1.03419
1.03265
1.03115
1.02976
1.0282
1.0254
1.01871
1.00467
0.989484
0.984077
0.98273
0.981602
0.980124
0.978169
0.976603
0.975674
0.974813
0.974076
0.973669
0.974993
0.981933
0.986518
0.985561
0.984271
0.983519
0.982678
0.981682
0.980487
0.978828
0.976625
0.973929
0.970467
0.965497
0.956856
0.94134
0.926696
0.922733
0.922073
0.921634
0.921346
0.920861
0.920181
0.919328
0.918032
0.917163
0.916585
0.916554
0.919234
0.931653
0.9777
1.07625
1.23729
1.43215
1.61826
1.6986
1.75177
1.79597
1.81429
1.81573
1.81222
1.79216
1.76909
1.76179
1.76094
1.76519
1.77265
1.77579
1.7723
1.76332
1.75819
1.75643
1.7574
1.7624
1.76923
1.77349
1.77258
1.7702
1.76845
1.76808
1.77376
1.78953
1.79964
1.7978
1.16201
1.16374
1.16405
1.16409
1.16485
1.16564
1.16496
1.16333
1.16166
1.15997
1.1578
1.1546
1.14946
1.14006
1.12409
1.10909
1.10353
1.10178
1.10053
1.0992
1.09715
1.09302
1.08839
1.08676
1.08575
1.08474
1.08378
1.08353
1.08807
1.09858
1.10081
1.09909
1.09784
1.09731
1.09608
1.09459
1.09316
1.09156
1.0895
1.08618
1.07901
1.06238
1.03762
1.02401
1.02103
1.01957
1.01821
1.0171
1.01606
1.01506
1.0143
1.01365
1.01312
1.01323
1.017
1.02678
1.03487
1.0352
1.03398
1.03285
1.03207
1.03149
1.03082
1.0298
1.02858
1.02728
1.02593
1.02459
1.02302
1.02005
1.01267
0.997598
0.983116
0.978737
0.977485
0.976367
0.97507
0.973389
0.97133
0.969851
0.968894
0.968029
0.967313
0.967145
0.97097
0.979361
0.980992
0.979774
0.978988
0.978148
0.977086
0.975634
0.973701
0.971745
0.969845
0.967345
0.962789
0.953763
0.938022
0.924265
0.920086
0.918642
0.917231
0.915721
0.914541
0.9139
0.913744
0.914112
0.914472
0.914602
0.914616
0.914691
0.917074
0.924109
0.937943
0.977315
1.06598
1.22533
1.41535
1.61219
1.70264
1.7362
1.76894
1.77972
1.78075
1.77787
1.75827
1.73847
1.73667
1.73725
1.74557
1.75391
1.756
1.75356
1.74764
1.74332
1.7419
1.74361
1.75279
1.76425
1.76814
1.76718
1.76686
1.77188
1.78363
1.79505
1.79474
1.14859
1.15108
1.15209
1.15311
1.15552
1.15728
1.15665
1.15511
1.15344
1.15165
1.14936
1.14598
1.1404
1.1301
1.11363
1.10006
1.09539
1.0935
1.09189
1.09008
1.08753
1.08302
1.07795
1.07613
1.07514
1.07416
1.07318
1.07252
1.07455
1.08431
1.09062
1.08956
1.08801
1.08747
1.0869
1.08567
1.08451
1.08338
1.08193
1.07924
1.07248
1.05582
1.03129
1.01861
1.01601
1.01448
1.01263
1.0109
1.00997
1.00925
1.00867
1.00823
1.0078
1.0077
1.00996
1.01761
1.0271
1.02915
1.02799
1.02678
1.02621
1.0263
1.02595
1.02491
1.02384
1.02274
1.02148
1.02005
1.01831
1.01498
1.00656
0.990303
0.977015
0.973558
0.972306
0.971095
0.969713
0.967918
0.965785
0.964418
0.963499
0.962633
0.961864
0.961398
0.963014
0.971069
0.977292
0.976733
0.974955
0.973358
0.972158
0.971157
0.969988
0.968773
0.967494
0.965835
0.962483
0.952829
0.934039
0.919554
0.915875
0.914524
0.913151
0.911728
0.91079
0.910275
0.910135
0.91055
0.910696
0.910461
0.909973
0.90976
0.911629
0.918763
0.927104
0.933047
0.942066
0.976417
1.06175
1.22271
1.41422
1.6029
1.68517
1.70473
1.72381
1.73895
1.74015
1.74032
1.73118
1.71915
1.71844
1.71895
1.72597
1.73308
1.73397
1.73286
1.7312
1.73
1.73145
1.74168
1.75511
1.76402
1.76895
1.77407
1.77966
1.78651
1.78637
1.13851
1.14272
1.14522
1.14682
1.14894
1.15001
1.14909
1.14764
1.14617
1.14457
1.14247
1.13919
1.13318
1.12104
1.10248
1.09006
1.0865
1.08475
1.08302
1.08096
1.07832
1.07467
1.06991
1.06715
1.06597
1.06479
1.06345
1.06226
1.06245
1.07011
1.08075
1.08149
1.08007
1.07925
1.07916
1.07881
1.07798
1.07712
1.07604
1.07384
1.06743
1.05043
1.02539
1.01368
1.01177
1.01067
1.00929
1.00739
1.00568
1.00482
1.00403
1.00319
1.00248
1.00211
1.00312
1.0083
1.01757
1.0239
1.02377
1.02264
1.02213
1.02239
1.02203
1.02084
1.02001
1.01937
1.01842
1.01707
1.01511
1.01111
1.00103
0.983116
0.971311
0.968762
0.967451
0.965944
0.964392
0.962832
0.961278
0.960186
0.959334
0.958518
0.957764
0.957244
0.957534
0.961973
0.970328
0.972832
0.971734
0.970478
0.969681
0.969479
0.969197
0.968493
0.967433
0.965503
0.960824
0.948195
0.926253
0.913831
0.912067
0.911457
0.91085
0.91017
0.909344
0.908316
0.907136
0.906088
0.905167
0.904379
0.903938
0.904735
0.908352
0.917426
0.926795
0.930583
0.930906
0.931812
0.937787
0.970239
1.05685
1.2176
1.39345
1.56693
1.63952
1.65879
1.6766
1.69836
1.71316
1.7183
1.71515
1.70517
1.70242
1.70157
1.702
1.70792
1.71561
1.7218
1.72718
1.73259
1.73741
1.74474
1.75644
1.76997
1.77935
1.78204
1.77757
1.13746
1.13945
1.1401
1.14006
1.14002
1.14091
1.14049
1.13947
1.13866
1.13754
1.13578
1.1327
1.12602
1.11111
1.09042
1.0807
1.07882
1.07754
1.07606
1.07422
1.07167
1.06763
1.06196
1.05829
1.05655
1.05488
1.05339
1.05228
1.05235
1.0594
1.07266
1.07549
1.07409
1.07318
1.07317
1.07361
1.07305
1.07221
1.07121
1.06908
1.06252
1.04489
1.01977
1.00927
1.00794
1.00714
1.00617
1.00473
1.00239
1.00054
0.999673
0.998869
0.998282
0.997993
0.998527
1.00184
1.0091
1.01799
1.02077
1.02
1.01921
1.01861
1.0185
1.0182
1.01784
1.01748
1.01664
1.01512
1.01249
1.00722
0.994841
0.975545
0.965771
0.963889
0.962495
0.960732
0.959238
0.95825
0.957339
0.956537
0.955884
0.955235
0.954485
0.953822
0.953488
0.954627
0.960509
0.968072
0.970279
0.970346
0.970255
0.96968
0.968685
0.967481
0.965934
0.963329
0.957352
0.943079
0.921764
0.91175
0.910581
0.910044
0.909421
0.908624
0.907486
0.905856
0.903772
0.902092
0.90133
0.900888
0.900743
0.90248
0.907969
0.916299
0.924869
0.92751
0.926843
0.925744
0.92498
0.925708
0.931693
0.961967
1.04514
1.18796
1.33983
1.50653
1.59084
1.61938
1.64945
1.67863
1.69593
1.70262
1.70136
1.69241
1.68392
1.68199
1.68481
1.70024
1.7208
1.73224
1.73667
1.73913
1.74136
1.74839
1.76208
1.7733
1.77024
1.13425
1.13309
1.13151
1.13064
1.13132
1.13348
1.13439
1.13425
1.13379
1.13283
1.1312
1.12806
1.12022
1.10231
1.08155
1.07437
1.07282
1.07145
1.0698
1.06755
1.06402
1.0585
1.05282
1.05024
1.04882
1.04749
1.04638
1.04572
1.04598
1.05143
1.06421
1.07053
1.0698
1.06906
1.06927
1.0699
1.06932
1.06845
1.06735
1.06494
1.0579
1.04011
1.01618
1.00648
1.00501
1.00409
1.00306
1.00186
1.00021
0.99813
0.996981
0.996313
0.995795
0.995515
0.995464
0.996722
1.0015
1.0102
1.01654
1.01682
1.01615
1.01578
1.01605
1.0166
1.01631
1.01568
1.01484
1.01327
1.01025
1.00389
0.98908
0.969018
0.961214
0.959702
0.958297
0.956834
0.955818
0.955024
0.95437
0.953885
0.953262
0.952332
0.951227
0.9502
0.949608
0.950245
0.955483
0.965201
0.970506
0.970401
0.969578
0.968839
0.967747
0.966437
0.964788
0.962013
0.95568
0.941434
0.921694
0.911154
0.909007
0.907975
0.90683
0.905391
0.903685
0.902499
0.901847
0.901037
0.900308
0.900084
0.901015
0.902746
0.905795
0.911549
0.919392
0.924494
0.924571
0.923646
0.922862
0.922585
0.922434
0.922489
0.926313
0.948423
1.00975
1.13139
1.28902
1.46781
1.57716
1.60504
1.632
1.66078
1.68317
1.68995
1.68813
1.68063
1.67847
1.68039
1.69217
1.71543
1.73551
1.74072
1.7395
1.7388
1.74034
1.74794
1.75172
1.12836
1.12887
1.12808
1.12772
1.12968
1.13216
1.1323
1.13176
1.13085
1.12943
1.12729
1.12336
1.11392
1.09397
1.07423
1.06808
1.06632
1.0648
1.06308
1.06078
1.05726
1.05269
1.04929
1.04698
1.04522
1.04388
1.04273
1.04201
1.04178
1.04466
1.05549
1.06627
1.06774
1.06737
1.06753
1.06712
1.06618
1.0652
1.06392
1.0614
1.05454
1.03697
1.0132
1.00377
1.00244
1.00169
1.0009
1
0.998906
0.997298
0.995513
0.99463
0.993989
0.993417
0.992983
0.992854
0.994844
1.00162
1.0099
1.01352
1.01421
1.01477
1.0159
1.01593
1.01528
1.0146
1.01374
1.01228
1.00921
1.00152
0.983823
0.963767
0.957825
0.956624
0.955399
0.954232
0.953328
0.952585
0.951768
0.950917
0.950104
0.949356
0.94876
0.948311
0.947967
0.948862
0.953512
0.961237
0.967986
0.969949
0.969421
0.968485
0.967509
0.966328
0.964816
0.962236
0.95618
0.941643
0.919914
0.908569
0.906057
0.904726
0.903349
0.902028
0.901197
0.900696
0.90068
0.901522
0.901402
0.900826
0.90047
0.900324
0.901198
0.906065
0.915963
0.923445
0.923776
0.922879
0.922094
0.921496
0.920799
0.919767
0.918062
0.912782
0.901289
0.911869
0.969929
1.10367
1.27478
1.45968
1.57006
1.59407
1.6193
1.64916
1.67674
1.68699
1.68554
1.6824
1.68482
1.69249
1.70896
1.72825
1.73913
1.74001
1.73515
1.73099
1.72821
1.1243
1.12707
1.12799
1.12957
1.13099
1.13023
1.12904
1.12826
1.12708
1.12539
1.123
1.11863
1.10812
1.08705
1.06866
1.06347
1.06169
1.06013
1.05846
1.05647
1.05396
1.05083
1.04747
1.04468
1.04254
1.04093
1.03966
1.03876
1.03844
1.04072
1.05026
1.06299
1.06652
1.06574
1.06504
1.06453
1.06357
1.0625
1.0612
1.05887
1.05249
1.03497
1.01052
1.00162
1.0008
1.00038
1.00024
0.999782
0.998946
0.997566
0.994994
0.992691
0.991519
0.9906
0.989752
0.989097
0.989615
0.99471
1.00349
1.01029
1.01343
1.01521
1.01652
1.01623
1.0155
1.01465
1.01362
1.01201
1.00832
0.998733
0.978672
0.959992
0.955604
0.954522
0.953271
0.95201
0.951038
0.950157
0.949289
0.948515
0.94785
0.947382
0.947289
0.947887
0.948611
0.949455
0.952307
0.958386
0.964868
0.968095
0.969395
0.969758
0.969035
0.968169
0.967101
0.965036
0.958705
0.940536
0.915391
0.905005
0.903271
0.90234
0.901517
0.900802
0.90024
0.899916
0.899823
0.899885
0.899787
0.89935
0.898896
0.898617
0.899375
0.904123
0.914367
0.922228
0.922798
0.921917
0.921202
0.920464
0.919567
0.918329
0.915884
0.90986
0.896146
0.876742
0.876285
0.89568
0.963626
1.10271
1.27345
1.45696
1.55552
1.58326
1.61621
1.65239
1.68277
1.69325
1.69245
1.69125
1.69254
1.69799
1.71288
1.72472
1.72666
1.72607
1.71433
1.12324
1.12629
1.1272
1.12786
1.1285
1.12781
1.12684
1.12616
1.12506
1.12344
1.12121
1.11683
1.10503
1.08214
1.06474
1.06027
1.05843
1.05672
1.055
1.05324
1.05133
1.04897
1.04575
1.04286
1.04118
1.0398
1.03853
1.0376
1.03738
1.03996
1.04727
1.05795
1.06426
1.06418
1.06328
1.06279
1.06209
1.06114
1.06003
1.0579
1.05152
1.0339
1.00987
1.00112
1.00025
0.999786
0.999247
0.9985
0.997491
0.995833
0.992957
0.990411
0.989329
0.988525
0.987716
0.987104
0.987313
0.990958
0.998119
1.00634
1.01334
1.01735
1.01745
1.01649
1.01561
1.01457
1.01338
1.01162
1.00759
0.996451
0.9742
0.957382
0.953991
0.952816
0.951408
0.950093
0.949128
0.948333
0.947663
0.947148
0.9468
0.94665
0.946702
0.946774
0.946851
0.947683
0.950089
0.955062
0.962124
0.967463
0.968777
0.968289
0.967701
0.967209
0.966295
0.964282
0.957412
0.937132
0.912039
0.903711
0.902396
0.901628
0.900937
0.900246
0.899556
0.898948
0.89859