/*--------------------------------*- C++ -*----------------------------------*\
  =========                 |
  \\      /  F ield         | OpenFOAM: The Open Source CFD Toolbox
   \\    /   O peration     | Website:  https://openfoam.org
    \\  /    A nd           | Version:  7
     \\/     M anipulation  |
\*---------------------------------------------------------------------------*/
FoamFile
{
    version     2.0;
    format      ascii;
    class       surfaceScalarField;
    location    "8";
    object      phi;
}
// * * * * * * * * * * * * * * * * * * * * * * * * * * * * * * * * * * * * * //

dimensions      [0 3 -1 0 0 0 0];

internalField   nonuniform List<scalar> 
613
(
3.27888e-05
-6.30291e-07
3.33603e-05
-5.71494e-07
3.38689e-05
-5.0862e-07
3.43135e-05
-4.44593e-07
-3.81732e-07
3.46953e-05
9.82898e-05
0.000100008
-2.28997e-06
0.000101535
-2.0349e-06
0.000102866
-1.77594e-06
-1.52234e-06
0.000104006
0.00016641
-5.17103e-06
0.000168958
-4.58228e-06
0.000171169
-3.98754e-06
-3.40769e-06
0.000173055
0.000232404
-9.23912e-06
0.000235976
-8.15403e-06
0.000239054
-7.06567e-06
-6.01111e-06
0.000241658
0.000297834
0.000302429
0.000306348
0.000309625
3.50126e-05
-3.17306e-07
3.52758e-05
-2.63176e-07
3.54895e-05
-2.13753e-07
3.56589e-05
-1.69395e-07
3.57891e-05
-1.30153e-07
3.58849e-05
-9.58366e-08
3.5951e-05
-6.60953e-08
3.59915e-05
-4.04921e-08
3.60101e-05
-1.85746e-08
3.601e-05
8.53818e-11
3.5994e-05
1.60095e-08
3.59645e-05
2.94631e-08
3.59237e-05
4.08192e-08
3.58733e-05
5.03797e-08
3.58149e-05
5.84053e-08
3.57498e-05
6.51174e-08
3.56791e-05
7.07047e-08
3.56037e-05
7.53284e-08
3.55246e-05
7.91262e-08
3.54424e-05
8.22156e-08
3.53577e-05
8.46973e-08
3.5271e-05
8.66574e-08
3.51829e-05
8.81701e-08
3.50936e-05
8.92993e-08
3.50035e-05
9.01001e-08
3.49129e-05
9.06204e-08
3.4822e-05
9.09017e-08
3.4731e-05
9.09801e-08
3.46401e-05
9.0887e-08
3.45494e-05
9.06496e-08
3.44591e-05
9.02919e-08
3.43693e-05
8.98347e-08
3.428e-05
8.92959e-08
3.41913e-05
8.86915e-08
3.41033e-05
8.80349e-08
3.40159e-05
8.73382e-08
3.39293e-05
8.66117e-08
3.38435e-05
8.58642e-08
3.37584e-05
8.51033e-08
3.3674e-05
8.43357e-08
3.35905e-05
8.3567e-08
3.35077e-05
8.28019e-08
3.34256e-05
8.20443e-08
3.33443e-05
8.12977e-08
3.32638e-05
8.05648e-08
3.31839e-05
7.98479e-08
3.31048e-05
7.91487e-08
3.30263e-05
7.84688e-08
3.29485e-05
7.7809e-08
3.28713e-05
7.71703e-08
3.27948e-05
7.65532e-08
3.27188e-05
7.59578e-08
3.26434e-05
7.53844e-08
3.25686e-05
7.48329e-08
3.24943e-05
7.43029e-08
3.24205e-05
7.37943e-08
3.23472e-05
7.33066e-08
3.22743e-05
7.28391e-08
3.22019e-05
7.23915e-08
3.213e-05
7.1963e-08
3.20584e-05
7.15529e-08
3.19873e-05
7.11605e-08
3.19165e-05
7.07851e-08
3.18461e-05
7.04258e-08
7.0082e-08
0.000104952
-1.26325e-06
0.000105735
-1.04584e-06
0.000106369
-8.47735e-07
0.00010687
-6.70303e-07
0.000107253
-5.13636e-07
0.000107534
-3.76849e-07
0.000107727
-2.58448e-07
0.000107843
-1.56617e-07
0.000107894
-6.95174e-08
0.000107889
4.5922e-09
0.000107838
6.78687e-08
0.000107746
1.21279e-07
0.00010762
1.66367e-07
0.000107466
2.04345e-07
0.000107288
2.36243e-07
0.000107091
2.62936e-07
0.000106876
2.85176e-07
0.000106648
3.03601e-07
0.000106408
3.18758e-07
0.000106159
3.31112e-07
0.000105903
3.4106e-07
0.000105641
3.48945e-07
0.000105374
3.55058e-07
0.000105103
3.59653e-07
0.000104831
3.62948e-07
0.000104556
3.65132e-07
0.000104281
3.66368e-07
0.000104005
3.66799e-07
0.000103729
3.66549e-07
0.000103454
3.65726e-07
0.00010318
3.64423e-07
0.000102907
3.62722e-07
0.000102636
3.60694e-07
0.000102366
3.58401e-07
0.000102098
3.55897e-07
0.000101832
3.53229e-07
0.000101568
3.50436e-07
0.000101307
3.47555e-07
0.000101047
3.44614e-07
0.00010079
3.4164e-07
0.000100535
3.38655e-07
0.000100282
3.35677e-07
0.000100031
3.32722e-07
9.97826e-05
3.29803e-07
9.95363e-05
3.26932e-07
9.9292e-05
3.24116e-07
9.90498e-05
3.21364e-07
9.88096e-05
3.18681e-07
9.85713e-05
3.16071e-07
9.8335e-05
3.13538e-07
9.81004e-05
3.11084e-07
9.78677e-05
3.08709e-07
9.76366e-05
3.06415e-07
9.74073e-05
3.04202e-07
9.71795e-05
3.02069e-07
9.69533e-05
3.00014e-07
9.67286e-05
2.98037e-07
9.65053e-05
2.96135e-07
9.62833e-05
2.94307e-07
9.60628e-05
2.9255e-07
9.58434e-05
2.90862e-07
9.56254e-05
2.89239e-07
9.54085e-05
2.8768e-07
9.51927e-05
2.86182e-07
2.84741e-07
0.00017461
-2.81857e-06
0.00017589
-2.32537e-06
0.00017692
-1.87768e-06
0.000177728
-1.47821e-06
0.000178341
-1.12673e-06
0.000178785
-8.20775e-07
0.000179083
-5.56586e-07
0.000179256
-3.29796e-07
0.000179322
-1.36121e-07
0.000179298
2.86519e-08
0.000179197
1.69146e-07
0.000179031
2.87736e-07
0.000178809
3.8787e-07
0.000178541
4.72277e-07
0.000178234
5.43242e-07
0.000177894
6.0271e-07
0.000177527
6.52344e-07
0.000177137
6.9356e-07
0.000176729
7.27562e-07
0.000176304
7.55378e-07
0.000175867
7.77884e-07
0.000175421
7.95831e-07
0.000174966
8.09864e-07
0.000174505
8.2054e-07
0.000174039
8.28338e-07
0.000173571
8.33672e-07
0.0001731
8.36903e-07
0.000172629
8.38343e-07
0.000172157
8.38263e-07
0.000171686
8.369e-07
0.000171216
8.34458e-07
0.000170748
8.31117e-07
0.000170281
8.27031e-07
0.000169817
8.22337e-07
0.000169356
8.17151e-07
0.000168898
8.11576e-07
0.000168442
8.057e-07
0.00016799
7.99599e-07
0.000167542
7.93339e-07
0.000167096
7.86976e-07
0.000166654
7.80558e-07
0.000166216
7.74128e-07
0.000165781
7.67718e-07
0.000165349
7.6136e-07
0.000164921
7.55076e-07
0.000164496
7.48888e-07
0.000164075
7.42812e-07
0.000163657
7.36861e-07
0.000163242
7.31045e-07
0.00016283
7.25372e-07
0.000162421
7.19847e-07
0.000162015
7.14475e-07
0.000161613
7.09258e-07
0.000161213
7.04197e-07
0.000160815
6.99291e-07
0.000160421
6.94538e-07
0.000160029
6.89937e-07
0.00015964
6.85484e-07
0.000159253
6.81176e-07
0.000158868
6.7701e-07
0.000158486
6.72979e-07
0.000158106
6.6908e-07
0.000157729
6.65308e-07
0.000157353
6.61657e-07
6.58122e-07
0.000243787
-4.94816e-06
0.000245523
-4.06123e-06
0.000246906
-3.26058e-06
0.000247978
-2.55003e-06
0.000248779
-1.92796e-06
0.000249347
-1.38876e-06
0.000249715
-9.24721e-07
0.000249913
-5.27412e-07
0.000249965
-1.88749e-07
0.000249894
9.95304e-08
0.000249719
3.44674e-07
0.000249455
5.51769e-07
0.000249116
7.26781e-07
0.000248714
8.74503e-07
0.000248258
9.98925e-07
0.000247757
1.10343e-06
0.000247219
1.19092e-06
0.000246649
1.26382e-06
0.000246052
1.32423e-06
0.000245433
1.37392e-06
0.000244797
1.41439e-06
0.000244146
1.44693e-06
0.000243483
1.47267e-06
0.000242811
1.49255e-06
0.000242132
1.5074e-06
0.000241448
1.51793e-06
0.00024076
1.52476e-06
0.00024007
1.52843e-06
0.000239378
1.5294e-06
0.000238687
1.52808e-06
0.000237997
1.52482e-06
0.000237308
1.51993e-06
0.000236621
1.51367e-06
0.000235938
1.50628e-06
0.000235257
1.49796e-06
0.000234579
1.48889e-06
0.000233906
1.47922e-06
0.000233236
1.46908e-06
0.000232571
1.45858e-06
0.00023191
1.44782e-06
0.000231254
1.4369e-06
0.000230602
1.42587e-06
0.000229955
1.41481e-06
0.000229313
1.40376e-06
0.000228675
1.39277e-06
0.000228042
1.38188e-06
0.000227414
1.37111e-06
0.00022679
1.3605e-06
0.000226171
1.35006e-06
0.000225557
1.33981e-06
0.000224947
1.32976e-06
0.000224341
1.31992e-06
0.00022374
1.3103e-06
0.000223144
1.3009e-06
0.000222551
1.29172e-06
0.000221963
1.28276e-06
0.000221379
1.27403e-06
0.000220799
1.26552e-06
0.000220223
1.25722e-06
0.000219651
1.24914e-06
0.000219082
1.24126e-06
0.000218518
1.23358e-06
0.000217957
0.0002174
0.000312273
0.000314402
0.000316072
0.000317341
0.000318268
0.000318901
0.000319284
0.000319455
0.000319446
0.000319284
0.000318993
0.000318592
0.000318098
0.000317524
0.000316884
0.000316186
0.00031544
0.000314653
0.000313832
0.000312982
0.000312109
0.000311216
0.000310306
0.000309384
0.000308452
0.000307512
0.000306566
0.000305616
0.000304664
0.000303712
0.000302759
0.000301808
0.000300859
0.000299913
0.00029897
0.000298032
0.000297098
0.00029617
0.000295246
0.000294329
0.000293417
0.000292512
0.000291613
0.00029072
0.000289834
0.000288954
0.000288081
0.000287214
0.000286355
0.000285502
0.000284655
0.000283816
0.000282982
0.000282156
0.000281336
0.000280522
0.000279715
0.000278914
0.00027812
0.000277331
0.000276549
)
;

boundaryField
{
    inlet
    {
        type            calculated;
        value           nonuniform 0();
    }
    outlet
    {
        type            calculated;
        value           nonuniform 0();
    }
    wall
    {
        type            calculated;
        value           nonuniform 0();
    }
    wedge1
    {
        type            wedge;
        value           nonuniform List<scalar> 
344
(
1.70737e-16
1.43231e-16
1.56558e-16
1.31431e-16
1.32999e-15
-1.98927e-16
-3.81153e-16
1.40903e-16
1.18333e-16
1.19034e-15
-1.78356e-16
-3.3938e-16
1.24522e-16
1.04615e-16
1.04607e-15
-1.57136e-16
-2.96792e-16
1.08197e-16
9.09265e-17
9.0302e-16
-1.36176e-16
-2.55099e-16
9.10131e-17
7.65242e-17
7.54724e-16
-1.14389e-16
-2.12379e-16
7.65942e-17
6.43564e-17
6.29691e-16
-9.61016e-17
-1.76647e-16
6.31384e-17
5.31302e-17
5.15254e-16
-7.93666e-17
-1.44241e-16
5.09888e-17
4.30425e-17
4.12167e-16
-6.43188e-17
-1.15354e-16
4.01331e-17
3.39248e-17
3.20843e-16
-5.09475e-17
-8.98956e-17
3.07442e-17
2.59018e-17
2.40765e-16
-3.9248e-17
-6.77588e-17
2.22811e-17
1.88581e-17
1.71371e-16
-2.90458e-17
-4.8643e-17
1.49527e-17
1.28295e-17
1.11474e-16
-2.02586e-17
-3.2237e-17
8.75865e-18
7.59413e-18
6.02879e-17
-1.26486e-17
-1.81367e-17
3.56908e-18
3.02065e-18
1.64193e-17
-6.15236e-18
-6.09324e-18
-1.01959e-18
-8.49202e-19
-1.94007e-17
-5.65456e-19
4.08035e-18
-5.02682e-18
-4.00577e-18
-4.92814e-17
4.13698e-18
1.26399e-17
-8.32621e-18
-6.78861e-18
-7.48377e-17
8.18581e-18
2.00243e-17
-1.09909e-17
-9.23645e-18
-9.67627e-17
1.16355e-17
2.63512e-17
-1.32731e-17
-1.12344e-17
-1.15383e-16
1.46026e-17
3.17544e-17
-1.54537e-17
-1.28626e-17
-1.31246e-16
1.70888e-17
3.63244e-17
-1.71327e-17
-1.42762e-17
-1.44653e-16
1.92351e-17
4.0235e-17
-1.83877e-17
-1.55595e-17
-1.55981e-16
2.10431e-17
4.35944e-17
-1.94731e-17
-1.6522e-17
-1.65481e-16
2.25629e-17
4.63972e-17
-2.06353e-17
-1.73173e-17
-1.73359e-16
2.38467e-17
4.87657e-17
-2.12994e-17
-1.79355e-17
-1.79964e-16
2.49002e-17
5.07208e-17
-2.19314e-17
-1.84379e-17
-1.85347e-16
2.57856e-17
5.23702e-17
-2.23026e-17
-1.89598e-17
-1.89692e-16
2.64894e-17
5.37604e-17
-2.26351e-17
-1.92938e-17
-1.93161e-16
2.70796e-17
5.4864e-17
-2.30988e-17
-1.94704e-17
-1.95813e-16
2.75405e-17
5.57276e-17
-2.32522e-17
-1.96062e-17
-1.97871e-16
2.79139e-17
5.6407e-17
-2.3298e-17
-1.98288e-17
-1.99299e-16
2.81701e-17
5.69711e-17
-2.33187e-17
-1.987e-17
-2.00235e-16
2.83674e-17
5.73517e-17
-2.34687e-17
-1.98499e-17
-2.00639e-16
2.84829e-17
5.75742e-17
-2.34115e-17
-1.98019e-17
-2.00674e-16
2.856e-17
5.76898e-17
-2.32914e-17
-1.98024e-17
-2.00324e-16
2.85687e-17
5.77535e-17
-2.31106e-17
-1.9717e-17
-1.99736e-16
2.85454e-17
5.7711e-17
-2.31177e-17
-1.95762e-17
-1.98888e-16
2.84797e-17
5.7584e-17
-2.29396e-17
-1.94345e-17
-1.97875e-16
2.83926e-17
5.74034e-17
-2.27363e-17
-1.93443e-17
-1.96691e-16
2.8275e-17
5.72012e-17
-2.2541e-17
-1.91977e-17
-1.95409e-16
2.81404e-17
5.69411e-17
-2.24416e-17
-1.90181e-17
-1.94011e-16
2.79809e-17
5.66342e-17
-2.22147e-17
-1.883e-17
-1.92552e-16
2.78181e-17
5.63046e-17
-2.1987e-17
-1.86941e-17
-1.91028e-16
2.76361e-17
5.59748e-17
-2.17601e-17
-1.85304e-17
-1.89485e-16
2.74518e-17
5.56127e-17
-2.16293e-17
-1.83557e-17
-1.87903e-16
2.72544e-17
5.52321e-17
-2.14146e-17
-1.81643e-17
-1.86322e-16
2.70595e-17
5.48419e-17
-2.1191e-17
-1.80122e-17
-1.84731e-16
2.68592e-17
5.44572e-17
-2.09704e-17
-1.78371e-17
-1.83154e-16
2.66602e-17
5.40575e-17
-2.08139e-17
-1.76665e-17
-1.8158e-16
2.64615e-17
5.36575e-17
-2.06095e-17
-1.74982e-17
-1.80043e-16
2.62592e-17
5.32544e-17
-2.04159e-17
-1.73299e-17
-1.78528e-16
2.60619e-17
5.28542e-17
-2.02304e-17
-1.71828e-17
-1.77036e-16
2.58676e-17
5.24623e-17
-2.00454e-17
-1.70254e-17
-1.75581e-16
2.56762e-17
5.20688e-17
-1.98826e-17
-1.68756e-17
-1.74159e-16
2.54875e-17
5.16797e-17
-1.97099e-17
-1.67294e-17
-1.72777e-16
2.53023e-17
5.12958e-17
-1.95558e-17
-1.6589e-17
-1.71433e-16
2.51202e-17
5.09159e-17
-1.9397e-17
-1.64493e-17
-1.70129e-16
2.49413e-17
5.05425e-17
-1.92418e-17
-1.63254e-17
-1.68865e-16
2.4769e-17
5.01779e-17
-1.9096e-17
-1.62017e-17
-1.67641e-16
2.45972e-17
4.98166e-17
-1.8972e-17
-1.60707e-17
-1.6646e-16
2.44325e-17
4.94591e-17
-1.88397e-17
-1.59487e-17
-1.65314e-16
2.42689e-17
4.91121e-17
-1.86873e-17
-1.58485e-17
-1.64212e-16
2.41145e-17
4.87759e-17
-1.85671e-17
-1.5751e-17
-1.63142e-16
2.39577e-17
4.84443e-17
-1.84755e-17
-1.56267e-17
-1.62113e-16
2.38104e-17
4.81097e-17
-1.83651e-17
-1.55208e-17
-1.61114e-16
2.36624e-17
4.77892e-17
-1.82198e-17
-1.54407e-17
-1.60158e-16
2.35263e-17
4.74842e-17
-1.81175e-17
-1.53562e-17
-1.59226e-16
2.33852e-17
-1.80373e-17
-1.52542e-17
-1.5834e-16
2.32557e-17
-1.79394e-17
-1.51815e-17
-1.57468e-16
2.31203e-17
)
;
    }
    wedge2
    {
        type            wedge;
        value           nonuniform List<scalar> 
344
(
1.7156e-16
1.45577e-16
1.57415e-16
1.33749e-16
1.33467e-15
-1.93256e-16
-3.75651e-16
1.41755e-16
1.20658e-16
1.19493e-15
-1.72861e-16
-3.34038e-16
1.25461e-16
1.07024e-16
1.0505e-15
-1.51843e-16
-2.91628e-16
1.0914e-16
9.33754e-17
9.07358e-16
-1.31052e-16
-2.50081e-16
9.20467e-17
7.90139e-17
7.58802e-16
-1.09551e-16
-2.07643e-16
7.74675e-17
6.68456e-17
6.33708e-16
-9.14075e-17
-1.72059e-16
6.41913e-17
5.56425e-17
5.19059e-16
-7.48535e-17
-1.39809e-16
5.20961e-17
4.53714e-17
4.15899e-16
-5.99523e-17
-1.11022e-16
4.1293e-17
3.62871e-17
3.24354e-16
-4.67722e-17
-8.57688e-17
3.15732e-17
2.82361e-17
2.44243e-16
-3.51978e-17
-6.37859e-17
2.33356e-17
2.12189e-17
1.74627e-16
-2.51699e-17
-4.47975e-17
1.61949e-17
1.50364e-17
1.14728e-16
-1.64773e-17
-2.84604e-17
9.91198e-18
9.72712e-18
6.32635e-17
-9.05706e-18
-1.45336e-17
4.39328e-18
5.23369e-18
1.94863e-17
-2.66216e-18
-2.63684e-18
-1.77084e-19
1.33875e-18
-1.67369e-17
2.74699e-18
7.35261e-18
-3.93275e-18
-2.11338e-18
-4.66505e-17
7.37552e-18
1.58898e-17
-7.24833e-18
-4.96623e-18
-7.23723e-17
1.1295e-17
2.31392e-17
-1.01943e-17
-7.31227e-18
-9.42944e-17
1.46436e-17
2.93246e-17
-1.26705e-17
-9.38513e-18
-1.13062e-16
1.74655e-17
3.46048e-17
-1.44736e-17
-1.12012e-17
-1.28977e-16
1.98967e-17
3.91392e-17
-1.61487e-17
-1.26933e-17
-1.42487e-16
2.19148e-17
4.2969e-17
-1.76947e-17
-1.38431e-17
-1.53867e-16
2.36201e-17
4.61703e-17
-1.89472e-17
-1.4913e-17
-1.63432e-16
2.5051e-17
4.89078e-17
-1.96856e-17
-1.58015e-17
-1.71462e-16
2.62316e-17
5.11942e-17
-2.05821e-17
-1.65661e-17
-1.78032e-16
2.72206e-17
5.31262e-17
-2.12064e-17
-1.71895e-17
-1.83458e-16
2.80129e-17
5.46967e-17
-2.18295e-17
-1.75636e-17
-1.8787e-16
2.86705e-17
5.59456e-17
-2.22753e-17
-1.79345e-17
-1.91383e-16
2.91677e-17
5.69767e-17
-2.23776e-17
-1.82959e-17
-1.94172e-16
2.95574e-17
5.78087e-17
-2.26332e-17
-1.85572e-17
-1.96228e-16
2.98294e-17
5.84429e-17
-2.28544e-17
-1.86031e-17
-1.97761e-16
3.00421e-17
5.88601e-17
-2.29769e-17
-1.87264e-17
-1.98715e-16
3.01574e-17
5.91622e-17
-2.28697e-17
-1.88189e-17
-1.99214e-16
3.02195e-17
5.93586e-17
-2.28801e-17
-1.88599e-17
-1.99264e-16
3.02049e-17
5.94386e-17
-2.28795e-17
-1.87904e-17
-1.99022e-16
3.01621e-17
5.9382e-17
-2.28738e-17
-1.87506e-17
-1.98458e-16
3.00696e-17
5.92711e-17
-2.26381e-17
-1.8721e-17
-1.97692e-16
2.99513e-17
5.91096e-17
-2.25417e-17
-1.8654e-17
-1.9671e-16
2.97976e-17
5.88886e-17
-2.24371e-17
-1.85073e-17
-1.95594e-16
2.96276e-17
5.85944e-17
-2.22957e-17
-1.83919e-17
-1.9433e-16
2.94361e-17
5.828e-17
-2.20426e-17
-1.82905e-17
-1.92989e-16
2.92387e-17
5.79473e-17
-2.18996e-17
-1.81828e-17
-1.91561e-16
2.90199e-17
5.75848e-17
-2.17467e-17
-1.80135e-17
-1.90089e-16
2.88015e-17
5.71805e-17
-2.15851e-17
-1.78644e-17
-1.8856e-16
2.85711e-17
5.67757e-17
-2.13266e-17
-1.77222e-17
-1.87023e-16
2.83436e-17
5.63638e-17
-2.115e-17
-1.7595e-17
-1.85462e-16
2.81071e-17
5.59431e-17
-2.09844e-17
-1.7429e-17
-1.83907e-16
2.78723e-17
5.55041e-17
-2.08193e-17
-1.72881e-17
-1.82354e-16
2.76354e-17
5.50725e-17
-2.05963e-17
-1.71464e-17
-1.80826e-16
2.73992e-17
5.46377e-17
-2.04279e-17
-1.70073e-17
-1.79303e-16
2.71697e-17
5.42059e-17
-2.02568e-17
-1.6874e-17
-1.77809e-16
2.69393e-17
5.37743e-17
-2.00867e-17
-1.67262e-17
-1.7635e-16
2.6712e-17
5.33398e-17
-1.99257e-17
-1.6596e-17
-1.74919e-16
2.64881e-17
5.2915e-17
-1.9753e-17
-1.64663e-17
-1.73526e-16
2.62694e-17
5.24951e-17
-1.96008e-17
-1.63411e-17
-1.72166e-16
2.60551e-17
5.20808e-17
-1.94409e-17
-1.62185e-17
-1.70846e-16
2.58465e-17
5.16746e-17
-1.92968e-17
-1.61038e-17
-1.69563e-16
2.56436e-17
5.12751e-17
-1.91602e-17
-1.59821e-17
-1.68319e-16
2.54436e-17
5.08804e-17
-1.90253e-17
-1.58688e-17
-1.67115e-16
2.52522e-17
5.04963e-17
-1.88796e-17
-1.57716e-17
-1.65947e-16
2.50634e-17
5.0123e-17
-1.87526e-17
-1.56738e-17
-1.64822e-16
2.48828e-17
4.97537e-17
-1.86569e-17
-1.55626e-17
-1.63729e-16
2.47026e-17
4.93887e-17
-1.8539e-17
-1.54569e-17
-1.6268e-16
2.45339e-17
4.90334e-17
-1.84025e-17
-1.53862e-17
-1.61664e-16
2.43649e-17
4.86957e-17
-1.8294e-17
-1.53046e-17
-1.60687e-16
2.42052e-17
4.83584e-17
-1.82308e-17
-1.52048e-17
-1.59738e-16
2.40423e-17
4.80195e-17
-1.8133e-17
-1.51163e-17
-1.5883e-16
2.38931e-17
-1.80216e-17
-1.50526e-17
-1.5794e-16
2.374e-17
-1.79363e-17
-1.49656e-17
-1.57098e-16
2.36008e-17
)
;
    }
    axis
    {
        type            empty;
        value           nonuniform 0();
    }
    procBoundary3to2
    {
        type            processor;
        value           nonuniform List<scalar> 5(-3.21585e-05 -9.63908e-05 -2.52929e-06 -0.000163529 -0.000228336);
    }
    procBoundary3to4
    {
        type            processor;
        value           nonuniform List<scalar> 4(3.1776e-05 9.49781e-05 0.00015698 0.000216846);
    }
    procBoundary3to8
    {
        type            processor;
        value           uniform -0.000292549;
    }
    procBoundary3to9
    {
        type            processor;
        value           nonuniform List<scalar> 
70
(
-1.45242e-05
-1.27488e-05
-1.09844e-05
-9.28833e-06
1.22609e-06
1.21879e-06
1.21167e-06
-7.5961e-06
-6.1902e-06
-4.93017e-06
-3.81992e-06
-2.85421e-06
-2.02156e-06
-1.30775e-06
-6.98542e-07
-1.80417e-07
2.61458e-07
6.35957e-07
9.52808e-07
1.22106e-06
1.44798e-06
1.63963e-06
1.80115e-06
1.9369e-06
2.05057e-06
2.14527e-06
2.22365e-06
2.28799e-06
2.34021e-06
2.38199e-06
2.41475e-06
2.43973e-06
2.458e-06
2.4705e-06
2.47802e-06
2.48127e-06
2.48087e-06
2.47734e-06
2.47116e-06
2.46272e-06
2.45239e-06
2.44047e-06
2.42723e-06
2.4129e-06
2.3977e-06
2.3818e-06
2.36535e-06
2.34849e-06
2.33134e-06
2.31399e-06
2.29653e-06
2.27903e-06
2.26155e-06
2.24416e-06
2.22688e-06
2.20977e-06
2.19285e-06
2.17614e-06
2.15966e-06
2.14344e-06
2.12747e-06
2.11178e-06
2.09637e-06
2.08123e-06
2.06637e-06
2.05179e-06
2.03749e-06
2.02346e-06
0.000275773
2.00969e-06
)
;
    }
}


// ************************************************************************* //
