/*--------------------------------*- C++ -*----------------------------------*\
  =========                 |
  \\      /  F ield         | OpenFOAM: The Open Source CFD Toolbox
   \\    /   O peration     | Website:  https://openfoam.org
    \\  /    A nd           | Version:  7
     \\/     M anipulation  |
\*---------------------------------------------------------------------------*/
FoamFile
{
    version     2.0;
    format      ascii;
    class       volVectorField;
    location    "12";
    object      U;
}
// * * * * * * * * * * * * * * * * * * * * * * * * * * * * * * * * * * * * * //

dimensions      [0 1 -1 0 0 0 0];

internalField   nonuniform List<vector> 
433
(
(0.384894 -0.0325885 7.51468e-20)
(0.414704 -0.0301739 8.70828e-20)
(0.44574 -0.0273091 -5.05793e-20)
(0.477973 -0.0239907 6.21301e-20)
(0.511361 -0.0202208 -4.70337e-20)
(0.391244 -0.030572 -6.53226e-20)
(0.421382 -0.0278975 -2.22815e-20)
(0.452704 -0.0247427 -1.05726e-19)
(0.485177 -0.0211046 7.9309e-20)
(0.518756 -0.0169849 -1.28276e-19)
(0.553381 -0.0123914 1.38984e-19)
(0.588977 -0.00733835 -5.74203e-20)
(0.62545 -0.00184793 -6.02002e-20)
(0.662689 0.00404925 7.99575e-20)
(0.70056 0.0103132 -4.75013e-20)
(0.396333 -0.0276197 1.27213e-20)
(0.426801 -0.0246798 3.7276e-21)
(0.458411 -0.0212307 -1.29475e-20)
(0.491125 -0.0172694 9.31143e-20)
(0.524898 -0.0127979 -1.06656e-19)
(0.559667 -0.0078241 1.90729e-19)
(0.595353 -0.0023622 -2.2921e-19)
(0.631862 0.0035661 3.37045e-20)
(0.66908 0.00993104 -7.82611e-20)
(0.706874 0.016694 1.20653e-19)
(0.745088 0.0238071 -1.44896e-19)
(0.783544 0.0312125 1.6719e-19)
(0.822041 0.0388419 -4.07354e-20)
(0.860353 0.0466166 -4.65297e-20)
(0.89823 0.054453 6.29084e-21)
(0.400017 -0.0237533 6.55411e-21)
(0.430824 -0.0205428 -9.85358e-20)
(0.462728 -0.016796 9.93935e-21)
(0.495691 -0.0125103 3.59882e-20)
(0.529665 -0.00768811 1.73287e-20)
(0.564585 -0.00233753 -1.04263e-19)
(0.600373 0.0035267 7.74294e-20)
(0.636933 0.0098826 5.08839e-20)
(0.674151 0.0167003 1.07897e-19)
(0.711894 0.0239413 -1.95292e-19)
(0.750008 0.031558 7.54184e-20)
(0.78832 0.0394936 1.65264e-20)
(0.826634 0.0476816 -2.11689e-20)
(0.86473 0.0560456 3.32987e-21)
(0.90237 0.0645006 -6.67654e-20)
(0.939291 0.0729571 5.6701e-20)
(0.975217 0.0813302 -1.39949e-20)
(1.00984 0.0894886 4.84132e-20)
(1.04276 0.0970984 -6.78036e-20)
(1.07363 0.104219 8.59174e-21)
(0.402137 -0.0190165 2.99865e-20)
(0.433296 -0.015528 -1.34901e-20)
(0.465507 -0.0114789 -6.04093e-20)
(0.49873 -0.00686694 6.37898e-20)
(0.532916 -0.00169491 -1.89476e-20)
(0.568 0.00402839 2.02328e-20)
(0.603902 0.0102876 1.13118e-22)
(0.640528 0.0170601 4.75828e-20)
(0.677763 0.0243153 -3.17389e-20)
(0.715477 0.032014 -2.5422e-20)
(0.75352 0.0401083 3.6153e-20)
(0.79172 0.0485406 2.31739e-21)
(0.829887 0.0572444 4.85871e-20)
(0.867812 0.0661436 -7.33171e-20)
(0.905262 0.0751535 1.04826e-19)
(0.94199 0.0841816 -8.28691e-20)
(0.977728 0.0931323 2.42647e-20)
(1.0122 0.101915 2.0169e-20)
(1.04509 0.110398 5.37319e-20)
(1.07604 0.118285 -1.04975e-19)
(1.10472 0.125653 -4.54744e-21)
(0.402525 -0.0134764 6.6219e-20)
(0.434054 -0.0096985 -5.03028e-20)
(0.466588 -0.00533901 2.77925e-20)
(0.500087 -0.000395958 3.1743e-20)
(0.5345 0.00512728 -4.81669e-21)
(0.569762 0.0112213 4.01847e-20)
(0.605794 0.01787 -8.81528e-21)
(0.642502 0.0250498 -5.44272e-20)
(0.679774 0.0327292 4.86914e-20)
(0.71748 0.040868 -4.07864e-20)
(0.755475 0.0494173 7.27707e-21)
(0.793591 0.0583184 9.05002e-22)
(0.831643 0.0675038 8.16478e-21)
(0.86943 0.0768963 -5.32994e-20)
(0.906729 0.0864104 -1.25693e-21)
(0.943303 0.0959528 -2.53084e-20)
(0.978898 0.105423 -2.75511e-20)
(1.01325 0.114721 1.22512e-20)
(1.04608 0.123749 4.89109e-20)
(1.07709 0.132378 -6.87617e-20)
(1.10595 0.140347 5.23403e-20)
(1.13235 0.147742 4.80252e-20)
(0.432931 -0.00314058 3.28342e-21)
(0.465806 0.00154243 2.50353e-20)
(0.499599 0.00682595 -1.72379e-20)
(0.534257 0.0127061 -3.29135e-20)
(0.569715 0.0191728 4.65271e-20)
(0.605896 0.0262091 -5.61159e-20)
(0.642705 0.0337905 3.46083e-20)
(0.680033 0.0418846 8.45045e-20)
(0.717755 0.05045 -1.986e-20)
(0.755725 0.0594365 -1.70882e-21)
(0.793783 0.0687842 2.80468e-20)
(0.831751 0.0784241 2.99032e-20)
(0.869431 0.0882776 7.2971e-21)
(0.906612 0.0982577 -3.63314e-20)
(0.943066 0.108269 -1.34893e-20)
(0.978553 0.118211 -2.03575e-21)
(1.01282 0.127976 4.4432e-20)
(1.04561 0.137459 1.19579e-20)
(1.07665 0.146558 -1.57753e-20)
(1.10566 0.155148 8.16005e-21)
(1.13235 0.163002 1.3661e-20)
(1.15642 0.170206 4.37435e-22)
(0.429759 0.00403479 -1.23896e-20)
(0.462997 0.00906069 -1.90078e-21)
(0.497104 0.0147001 -2.97135e-20)
(0.532027 0.0209485 3.53848e-20)
(0.567702 0.0277953 1.31557e-20)
(0.604051 0.0352227 1.11327e-20)
(0.640983 0.0432053 -1.07928e-19)
(0.67839 0.0517097 1.24533e-19)
(0.716149 0.0606935 -4.0658e-20)
(0.754121 0.070105 1.50425e-20)
(0.792148 0.0798833 -7.84254e-20)
(0.830059 0.0899576 -1.18164e-20)
(0.867664 0.100248 -1.50114e-21)
(0.904759 0.110666 -1.84549e-20)
(0.941126 0.121114 -2.32608e-20)
(0.976536 0.131489 4.93488e-20)
(1.01075 0.141683 -3.66601e-20)
(1.04352 0.151583 6.052e-20)
(1.0746 0.16108 -5.82082e-20)
(1.10374 0.170071 9.22391e-21)
(1.13068 0.178436 -1.62388e-20)
(1.15516 0.185984 3.25608e-20)
(1.1769 0.192791 -7.91979e-20)
(0.457999 0.0170861 -1.14043e-20)
(0.492441 0.0231037 7.82427e-21)
(0.527651 0.0297387 -2.54897e-20)
(0.563564 0.0369796 7.32914e-20)
(0.600104 0.044808 -5.62683e-20)
(0.637181 0.0531979 6.3087e-20)
(0.674691 0.0621146 -1.79507e-20)
(0.712513 0.0715148 8.42686e-21)
(0.750513 0.0813458 -4.27809e-20)
(0.788537 0.0915454 2.06589e-21)
(0.826421 0.102041 2.21744e-20)
(0.863981 0.112753 -1.62973e-20)
(0.901022 0.123589 3.64529e-20)
(0.937335 0.134451 -8.78084e-20)
(0.972701 0.145234 8.12094e-20)
(1.00689 0.155826 -3.75712e-20)
(1.03968 0.166114 4.82145e-20)
(1.07082 0.175983 -2.46552e-20)
(1.10009 0.185322 1.42393e-20)
(1.12726 0.194027 -2.77356e-20)
(1.15209 0.201988 1.90554e-20)
(1.17435 0.209049 1.9163e-20)
(1.1938 0.215271 1.52633e-20)
(0.48546 0.0318889 -8.69478e-21)
(0.520977 0.0389362 1.76108e-20)
(0.557149 0.0465929 -1.8655e-20)
(0.593903 0.0548398 1.39836e-20)
(0.631149 0.0636501 2.06327e-20)
(0.668786 0.0729884 -2.82388e-20)
(0.706698 0.0828106 -1.40141e-20)
(0.744752 0.0930628 4.36928e-21)
(0.782802 0.103682 -6.90264e-21)
(0.820689 0.114595 1.01084e-20)
(0.858236 0.125718 -8.82489e-21)
(0.895256 0.136961 1.67859e-20)
(0.931548 0.148224 -2.74196e-20)
(0.966905 0.159398 -7.05726e-21)
(1.00111 0.170371 2.51939e-20)
(1.03394 0.181027 -3.20267e-21)
(1.06517 0.191248 2.26692e-20)
(1.09459 0.200918 -2.76885e-20)
(1.12198 0.209928 1.55061e-20)
(1.14713 0.218178 2.6769e-20)
(1.16985 0.225567 -3.02411e-20)
(1.18993 0.231975 -9.87318e-21)
(1.20717 0.237443 -1.1629e-20)
(0.511864 0.0483753 -6.44591e-21)
(0.548317 0.0564774 1.14224e-20)
(0.585305 0.0651682 -6.48432e-21)
(0.622744 0.0744202 6.39299e-21)
(0.660532 0.0841975 -1.35017e-20)
(0.698558 0.0944549 3.41565e-21)
(0.736694 0.105138 1.46382e-21)
(0.7748 0.116183 -1.28418e-20)
(0.81272 0.127515 7.61738e-21)
(0.850286 0.139052 1.66482e-20)
(0.887318 0.150699 -2.26932e-21)
(0.923624 0.162356 -8.96684e-21)
(0.959005 0.173915 -4.84125e-21)
(0.993254 0.18526 1.224e-20)
(1.02616 0.196274 1.06134e-20)
(1.05751 0.206836 -1.2398e-20)
(1.0871 0.216828 -1.07467e-20)
(1.11474 0.226136 -1.16037e-20)
(1.14021 0.234654 1.00645e-20)
(1.16336 0.242287 -9.17668e-21)
(1.184 0.248951 5.2888e-21)
(1.20198 0.254559 8.01103e-21)
(1.21713 0.259131 2.17675e-21)
(0.500189 0.0578639 5.7657e-22)
(0.53694 0.0664496 -1.92731e-21)
(0.574182 0.0756182 -4.70014e-21)
(0.611833 0.0853417 -3.03104e-21)
(0.649795 0.0955836 8.76225e-21)
(0.68796 0.106298 -3.66476e-21)
(0.726204 0.117431 2.25924e-21)
(0.764392 0.128916 2.10659e-21)
(0.802376 0.140679 -1.59689e-21)
(0.839993 0.152637 1.7213e-21)
(0.87707 0.164695 -9.22582e-21)
(0.913424 0.176751 4.49362e-21)
(0.948864 0.188695 -2.51827e-21)
(0.983192 0.200412 1.22674e-21)
(1.01621 0.211782 6.77691e-21)
(1.04771 0.222684 -9.56217e-21)
(1.07751 0.232996 1.45422e-21)
(1.1054 0.242601 8.93906e-21)
(1.13122 0.25139 -9.6705e-21)
(1.15479 0.259264 3.02668e-21)
(1.17597 0.266137 -1.47357e-21)
(1.19461 0.271939 -3.05888e-21)
(1.2106 0.276622 -2.00721e-21)
(1.22378 0.280179 3.55418e-22)
(0.522912 0.0763006 -5.75023e-22)
(0.560423 0.0859894 2.89921e-21)
(0.598302 0.0962227 5.10487e-21)
(0.636457 0.106964 -9.09486e-22)
(0.674782 0.118166 -6.92869e-21)
(0.713158 0.129774 4.38022e-21)
(0.751455 0.141723 -2.34696e-21)
(0.789529 0.153939 7.01763e-22)
(0.827226 0.166335 5.35116e-22)
(0.86438 0.178818 8.07034e-22)
(0.900815 0.191285 1.067e-20)
(0.936348 0.203626 -7.08774e-21)
(0.970791 0.215724 8.25326e-21)
(1.00395 0.227458 -7.38742e-21)
(1.03564 0.238706 -7.8418e-21)
(1.06567 0.249344 5.88219e-21)
(1.09385 0.259254 -5.9526e-21)
(1.12003 0.268323 8.38854e-22)
(1.14404 0.276448 7.49105e-21)
(1.16575 0.28354 1.70078e-21)
(1.18503 0.289524 -4.15105e-21)
(1.20178 0.29435 -3.68234e-21)
(1.2159 0.298004 2.5784e-21)
(1.22729 0.300453 -4.89022e-21)
(0.582062 0.106847 1.88438e-21)
(0.620423 0.118129 -3.85793e-21)
(0.658924 0.129859 8.84517e-21)
(0.697451 0.141979 -9.35201e-21)
(0.735878 0.154424 7.16087e-21)
(0.774067 0.16712 -9.38105e-21)
(0.81187 0.179981 -5.11202e-21)
(0.849129 0.192912 1.88878e-20)
(0.885675 0.205812 -4.79452e-21)
(0.921333 0.218569 -5.94739e-21)
(0.955923 0.231066 7.18115e-21)
(0.989262 0.243181 -4.76664e-21)
(1.02117 0.254791 1.74576e-20)
(1.05146 0.265771 -1.35388e-21)
(1.07997 0.276 -6.10755e-21)
(1.10653 0.285364 -2.33136e-21)
(1.131 0.293757 -1.23783e-20)
(1.15325 0.301086 1.64725e-20)
(1.17316 0.307275 -2.45135e-20)
(1.19064 0.312261 2.27912e-20)
(1.20563 0.316015 1.72321e-21)
(1.21804 0.318561 -1.47575e-20)
(1.22782 0.319835 6.67303e-21)
(0.601623 0.128849 1.5328e-20)
(0.64031 0.141152 -2.06645e-20)
(0.678999 0.153828 1.40246e-20)
(0.717571 0.166811 -1.06164e-20)
(0.755894 0.180025 -2.20705e-20)
(0.793825 0.193386 2.59387e-20)
(0.831212 0.206799 4.6834e-21)
(0.867895 0.220162 -2.17019e-20)
(0.903706 0.233363 -1.44762e-21)
(0.938472 0.246285 -1.26752e-20)
(0.97202 0.258807 -6.47106e-21)
(1.00417 0.270803 -1.2625e-21)
(1.03476 0.282148 2.9552e-20)
(1.06362 0.29272 5.65073e-21)
(1.0906 0.302402 -1.4411e-20)
(1.11555 0.311087 -6.11414e-21)
(1.13835 0.318678 1.09155e-20)
(1.15891 0.325097 7.77422e-21)
(1.17712 0.330278 2.98529e-22)
(1.19294 0.334177 -2.77874e-20)
(1.20631 0.336787 3.42043e-20)
(1.21719 0.338167 -1.3295e-20)
(1.22555 0.338223 3.06172e-21)
(0.618893 0.151802 6.7386e-21)
(0.657749 0.165085 -1.52609e-20)
(0.696474 0.178654 1.99729e-20)
(0.734941 0.192432 -5.35379e-20)
(0.773014 0.206337 4.36737e-20)
(0.810546 0.220272 -4.79726e-20)
(0.847386 0.234137 2.67985e-20)
(0.883372 0.24782 7.73171e-21)
(0.918339 0.261203 3.19735e-20)
(0.952121 0.274165 -1.55938e-20)
(0.98455 0.286581 -1.03721e-20)
(1.01546 0.298323 4.12094e-21)
(1.0447 0.30927 -4.48491e-20)
(1.07211 0.319302 5.80147e-20)
(1.09757 0.32831 -7.18497e-21)
(1.12095 0.336195 -4.94633e-21)
(1.14216 0.342874 -4.48419e-20)
(1.16112 0.348283 2.36844e-20)
(1.17776 0.352373 -1.06517e-20)
(1.19205 0.355117 1.90322e-20)
(1.20398 0.35653 -2.4293e-20)
(1.21351 0.356707 2.08913e-20)
(1.22066 0.355526 -4.00903e-21)
(0.633682 0.175491 1.03098e-20)
(0.672557 0.189702 6.53814e-21)
(0.711169 0.204099 1.93289e-20)
(0.749389 0.218598 -4.4847e-20)
(0.787076 0.233105 5.44854e-21)
(0.824084 0.247519 -9.06686e-21)
(0.86026 0.261728 6.80857e-20)
(0.895446 0.275616 -1.11567e-19)
(0.929481 0.289061 2.2625e-20)
(0.962206 0.301938 4.57357e-21)
(0.993463 0.314119 5.0128e-20)
(1.0231 0.32548 -1.05471e-20)
(1.05098 0.335902 -1.64299e-20)
(1.07696 0.345272 2.60857e-22)
(1.10094 0.353491 -2.22674e-20)
(1.12283 0.360471 -9.06215e-21)
(1.14253 0.366145 3.07764e-20)
(0.684577 0.214762 -5.71254e-21)
(0.722937 0.229913 -1.61344e-20)
(0.760777 0.245048 4.28398e-21)
(0.797955 0.260065 2.22654e-20)
(0.834326 0.274854 -4.61702e-20)
(0.869738 0.289299 5.43865e-20)
(0.904039 0.303277 -3.95167e-22)
(1.23967 0.284045 1.28157e-21)
(1.23594 0.265193 -1.38836e-21)
(1.22922 0.245565 1.41916e-20)
(1.21936 0.225273 -1.67992e-20)
(1.20621 0.204452 4.48906e-22)
(1.18967 0.183262 -2.9562e-20)
(1.16966 0.16189 -8.32337e-21)
(1.14616 0.140555 -1.41624e-20)
(1.1192 0.119511 -1.26432e-20)
(1.25186 0.284357 -5.65115e-22)
(1.25162 0.269047 1.99867e-21)
(1.24892 0.252961 -6.55279e-21)
(1.24361 0.236158 -7.56096e-21)
(1.2355 0.218712 1.38098e-20)
(1.22446 0.20072 8.19525e-22)
(1.21036 0.182298 1.29142e-20)
(1.19309 0.163592 1.95531e-20)
(1.17261 0.144776 -1.7041e-20)
(1.25633 0.28042 7.11685e-22)
(1.25886 0.268068 -2.22587e-21)
(1.25945 0.25499 -3.74229e-21)
(1.25794 0.241199 7.01932e-21)
(1.25413 0.226722 1.16882e-20)
(1.24785 0.211598 -9.51074e-22)
(1.23895 0.195885 -1.62941e-21)
(1.22726 0.179661 -1.37188e-21)
(1.21267 0.163033 3.94273e-20)
(1.25515 0.273034 -1.11466e-21)
(1.25964 0.263177 2.66899e-21)
(1.26267 0.252684 9.4338e-22)
(1.26408 0.241541 7.49468e-21)
(1.26369 0.229739 -6.491e-22)
(1.26133 0.217279 1.40357e-20)
(1.25682 0.204173 -1.92149e-20)
(1.24997 0.190452 1.8096e-20)
(1.24063 0.176163 -3.5095e-20)
(1.25035 0.263232 9.3217e-22)
(1.25605 0.25541 -1.81043e-21)
(1.26071 0.247076 -4.96587e-21)
(1.26419 0.238198 -8.60004e-21)
(1.26634 0.228748 3.24133e-21)
(1.267 0.218699 2.49283e-21)
(1.26598 0.208033 -2.02214e-21)
(1.26311 0.196742 -3.3963e-20)
(1.25821 0.18483 2.04565e-20)
(1.24345 0.251931 -1.23857e-21)
(1.24975 0.245687 -9.47881e-22)
(1.25536 0.239057 7.89469e-21)
(1.26015 0.232005 5.21122e-21)
(1.26401 0.224493 -1.06119e-23)
(1.26679 0.216481 -9.30313e-21)
(1.26835 0.207934 6.37135e-21)
(1.26851 0.198819 1.03694e-20)
(1.26711 0.189111 1.01611e-20)
(1.25349 0.223822 -2.03495e-21)
(1.25836 0.217836 1.03731e-21)
(1.2625 0.211463 -4.20755e-21)
(1.26579 0.20466 1.48532e-21)
(1.26809 0.197385 3.25173e-21)
(1.26925 0.189596 -1.41277e-20)
(1.2283 0.350046 1.2068e-20)
(1.23472 0.335089 -1.12383e-20)
(1.23888 0.319064 1.00254e-21)
(1.2406 0.302028 -1.08156e-21)
(1.23183 0.337064 -3.58051e-21)
(1.23964 0.325224 6.03829e-21)
(1.2457 0.312477 -2.09922e-21)
(1.24982 0.298846 7.70529e-22)
(1.23012 0.322492 3.82973e-21)
(1.23878 0.313071 1.79077e-21)
(1.24613 0.302921 2.14912e-21)
(1.25203 0.292038 -7.72699e-22)
(1.22551 0.306475 -4.45722e-21)
(1.23442 0.298976 -1.35227e-21)
(1.2424 0.290915 -2.15947e-21)
(1.24936 0.282274 1.01863e-21)
(1.2195 0.28996 5.64018e-21)
(1.22822 0.283911 3.64955e-21)
(1.23633 0.277456 1.57329e-21)
(1.24374 0.270571 -8.57121e-22)
(1.2129 0.273632 -3.60011e-21)
(1.2212 0.26865 -5.72907e-21)
(1.2291 0.263386 9.99776e-22)
(1.23654 0.257821 1.07869e-21)
(1.20622 0.257817 1.31658e-21)
)
;

boundaryField
{
    inlet
    {
        type            uniformFixedValue;
        uniformValue    constant (1 0 0);
        value           nonuniform 0();
    }
    outlet
    {
        type            pressureInletOutletVelocity;
        value           nonuniform 0();
    }
    cylinder
    {
        type            fixedValue;
        value           nonuniform 0();
    }
    top
    {
        type            symmetryPlane;
    }
    bottom
    {
        type            symmetryPlane;
    }
    defaultFaces
    {
        type            empty;
    }
    procBoundary26to20
    {
        type            processor;
        value           nonuniform List<vector> 
28
(
(0.349212 -0.0354181 -3.32146e-21)
(0.356328 -0.0345604 -8.94636e-21)
(0.356328 -0.0345604 -8.94636e-21)
(0.362311 -0.0327737 -3.41419e-20)
(0.362311 -0.0327737 -3.41419e-20)
(0.367029 -0.0300576 -3.11567e-20)
(0.367029 -0.0300576 -3.11567e-20)
(0.370332 -0.0264346 -3.77374e-20)
(0.370332 -0.0264346 -3.77374e-20)
(0.372056 -0.0219513 -3.36981e-20)
(0.372056 -0.0219513 -3.36981e-20)
(0.37203 -0.0166793 1.03593e-19)
(0.401012 -0.00722465 -4.94998e-21)
(0.401012 -0.00722465 -4.94998e-21)
(0.397429 -0.000378814 -3.11393e-20)
(0.424377 0.0116907 3.03975e-20)
(0.450662 0.0254629 7.63726e-21)
(0.47602 0.0408816 1.84748e-21)
(0.47602 0.0408816 1.84748e-21)
(0.464004 0.0498815 -8.35046e-21)
(0.485853 0.0671849 9.06678e-21)
(0.543943 0.0960567 7.90739e-22)
(0.543943 0.0960567 7.90739e-22)
(0.56305 0.116973 -3.60636e-21)
(0.580021 0.138869 -3.30694e-20)
(0.594666 0.161541 2.53054e-20)
(0.64583 0.199687 8.75867e-21)
(0.64583 0.199687 8.75867e-21)
)
;
    }
    procBoundary26to25
    {
        type            processor;
        value           nonuniform List<vector> 
23
(
(1.16001 0.370464 -1.86496e-20)
(1.17522 0.373398 4.69441e-20)
(1.18815 0.374937 -2.78994e-21)
(1.19881 0.375121 9.69422e-21)
(1.20719 0.374081 -4.98677e-20)
(0.937073 0.316664 -2.74172e-20)
(0.968691 0.329333 5.23279e-21)
(0.998746 0.341158 -1.16249e-20)
(1.0271 0.352017 -7.84271e-21)
(1.05363 0.361798 -1.54554e-20)
(1.07823 0.370398 -1.26502e-20)
(1.1008 0.377726 4.06387e-20)
(1.12127 0.383713 1.36983e-20)
(1.16001 0.370464 -1.86496e-20)
(1.13958 0.388304 2.70833e-20)
(0.693686 0.240013 6.11677e-20)
(0.731663 0.255836 3.00419e-20)
(0.769002 0.271517 -3.67887e-20)
(0.805561 0.286944 -3.25686e-20)
(0.841198 0.302004 1.73182e-20)
(0.875764 0.316574 -2.37096e-20)
(0.937073 0.316664 -2.74172e-20)
(0.909112 0.330528 -1.31924e-20)
)
;
    }
    procBoundary26to27
    {
        type            processor;
        value           nonuniform List<vector> 
17
(
(0.377408 -0.0336681 7.34439e-20)
(0.406885 -0.0315051 5.62166e-22)
(0.43763 -0.0289214 -1.62885e-19)
(0.469619 -0.0259137 1.45251e-19)
(0.54585 -0.0160073 1.14356e-19)
(0.54585 -0.0160073 1.14356e-19)
(0.581366 -0.0113657 -8.55126e-20)
(0.617821 -0.00631947 7.54477e-20)
(0.655107 -0.000901985 -1.61007e-19)
(0.738907 0.0168935 -9.80281e-20)
(0.738907 0.0168935 -9.80281e-20)
(0.777549 0.0237288 3.06865e-20)
(0.81628 0.0307457 -7.57511e-20)
(0.854868 0.0378643 3.76976e-20)
(0.935404 0.0622714 4.01154e-20)
(0.935404 0.0622714 4.01154e-20)
(0.971567 0.0699405 -6.49962e-20)
)
;
    }
    procBoundary26to31
    {
        type            processor;
        value           nonuniform List<vector> 8((1.21333 0.371664 3.42078e-21) (1.2198 0.363886 -1.91734e-22) (1.22242 0.34798 -8.32871e-21) (1.2203 0.331188 -7.71806e-21) (1.21578 0.313425 2.90503e-22) (1.21023 0.295619 -2.42857e-21) (1.20424 0.278349 7.62631e-23) (1.19824 0.261823 -2.05371e-22));
    }
    procBoundary26to32
    {
        type            processor;
        value           nonuniform List<vector> 
15
(
(1.23549 0.239851 -8.20892e-22)
(1.24197 0.234795 -2.63345e-21)
(1.24799 0.229463 6.13161e-21)
(1.24799 0.229463 6.13161e-21)
(1.24534 0.214405 4.56827e-22)
(1.25071 0.209582 5.01989e-21)
(1.2556 0.204478 -6.61078e-21)
(1.25994 0.199052 -1.21377e-20)
(1.26361 0.193261 -1.18422e-20)
(1.2665 0.187059 -1.65499e-20)
(1.21396 0.253627 -4.46676e-21)
(1.22144 0.249247 1.90593e-21)
(1.22863 0.244661 1.0491e-21)
(1.21396 0.253627 -4.46676e-21)
(1.19962 0.242699 -4.43072e-22)
)
;
    }
    procBoundary26to33
    {
        type            processor;
        value           nonuniform List<vector> 9((1.0063 0.077088 -9.33206e-20) (1.03924 0.0837438 -6.33952e-21) (1.08885 0.0990401 -3.01987e-20) (1.1489 0.126054 1.05658e-20) (1.19508 0.146134 3.28143e-20) (1.22864 0.161384 -4.05629e-20) (1.25111 0.172323 2.69143e-20) (1.26397 0.178795 2.7004e-20) (1.26911 0.181256 -1.08297e-20));
    }
}


// ************************************************************************* //
