/*--------------------------------*- C++ -*----------------------------------*\
  =========                 |
  \\      /  F ield         | OpenFOAM: The Open Source CFD Toolbox
   \\    /   O peration     | Website:  https://openfoam.org
    \\  /    A nd           | Version:  7
     \\/     M anipulation  |
\*---------------------------------------------------------------------------*/
FoamFile
{
    version     2.0;
    format      ascii;
    class       volScalarField;
    location    "3";
    object      p;
}
// * * * * * * * * * * * * * * * * * * * * * * * * * * * * * * * * * * * * * //

dimensions      [0 2 -2 0 0 0 0];

internalField   nonuniform List<scalar> 
5600
(
-0.361318
-0.371733
-0.366705
-0.35881
-0.345548
-0.32811
-0.306742
-0.280785
-0.253885
-0.219411
-0.36249
-0.372522
-0.367417
-0.359442
-0.346174
-0.328764
-0.307467
-0.281578
-0.254833
-0.219871
-0.364816
-0.374087
-0.368829
-0.360691
-0.347408
-0.330048
-0.30889
-0.283084
-0.256728
-0.220773
-0.36826
-0.376406
-0.370916
-0.362531
-0.349217
-0.331923
-0.310959
-0.28525
-0.259485
-0.222082
-0.372772
-0.379445
-0.373641
-0.364921
-0.351554
-0.334328
-0.313596
-0.288
-0.262984
-0.223747
-0.378286
-0.383162
-0.376962
-0.367814
-0.354362
-0.337198
-0.316721
-0.291224
-0.267083
-0.225707
-0.384729
-0.38751
-0.380827
-0.371157
-0.357578
-0.340453
-0.320238
-0.294814
-0.271623
-0.227893
-0.392019
-0.392436
-0.385185
-0.374894
-0.361137
-0.344014
-0.324046
-0.298655
-0.276438
-0.230236
-0.400072
-0.397888
-0.389982
-0.378971
-0.364975
-0.347807
-0.328048
-0.302641
-0.281361
-0.232668
-0.408803
-0.403809
-0.395166
-0.383337
-0.369036
-0.351763
-0.332153
-0.306677
-0.286233
-0.235127
-0.418133
-0.410149
-0.400691
-0.387947
-0.37327
-0.355823
-0.336282
-0.31068
-0.290907
-0.237558
-0.427974
-0.416866
-0.406514
-0.392765
-0.377636
-0.35994
-0.340368
-0.314583
-0.295251
-0.239913
-0.43826
-0.423915
-0.4126
-0.397762
-0.382104
-0.364077
-0.344354
-0.318332
-0.29915
-0.242146
-0.448928
-0.431256
-0.418922
-0.402916
-0.386652
-0.368209
-0.348198
-0.321886
-0.302502
-0.244223
-0.459919
-0.438858
-0.425455
-0.408215
-0.391267
-0.372315
-0.351862
-0.325214
-0.305229
-0.246129
-0.471183
-0.446693
-0.432183
-0.413648
-0.395938
-0.37638
-0.35532
-0.328291
-0.307257
-0.247852
-0.482674
-0.454734
-0.439091
-0.419209
-0.400659
-0.380389
-0.358547
-0.331096
-0.308485
-0.249267
-0.494351
-0.462958
-0.446166
-0.424891
-0.405421
-0.384325
-0.361529
-0.333622
-0.308756
-0.250142
-0.506175
-0.471341
-0.453393
-0.430685
-0.41021
-0.388163
-0.364256
-0.33587
-0.308055
-0.251346
-0.518104
-0.479858
-0.460755
-0.436577
-0.415005
-0.391868
-0.366708
-0.337783
-0.306937
-0.257213
-0.530094
-0.488479
-0.468228
-0.442542
-0.419774
-0.395395
-0.368836
-0.339178
-0.306052
-0.271737
-0.542094
-0.49717
-0.475783
-0.448547
-0.424473
-0.398685
-0.370574
-0.339909
-0.304609
-0.275323
-0.554049
-0.505887
-0.483377
-0.454547
-0.429045
-0.401671
-0.371856
-0.339882
-0.302647
-0.274746
-0.565889
-0.514581
-0.490961
-0.460484
-0.43342
-0.404281
-0.372615
-0.339087
-0.30021
-0.272266
-0.577538
-0.523191
-0.498471
-0.466287
-0.437519
-0.406433
-0.372782
-0.337524
-0.29723
-0.268412
-0.588905
-0.531646
-0.50583
-0.471871
-0.441247
-0.408042
-0.37229
-0.33519
-0.293657
-0.26355
-0.599888
-0.539862
-0.512949
-0.477139
-0.444502
-0.409017
-0.371075
-0.332081
-0.289464
-0.257944
-0.61037
-0.547747
-0.519727
-0.481981
-0.447174
-0.409269
-0.369075
-0.328192
-0.284636
-0.251749
-0.620224
-0.555194
-0.526047
-0.486276
-0.449148
-0.408707
-0.366235
-0.323517
-0.279164
-0.245046
-0.629312
-0.562086
-0.531784
-0.489896
-0.450305
-0.407242
-0.362505
-0.318047
-0.273041
-0.237873
-0.637484
-0.568296
-0.536801
-0.492706
-0.450525
-0.404791
-0.35784
-0.311775
-0.266263
-0.230238
-0.644581
-0.573687
-0.540953
-0.494566
-0.449691
-0.401277
-0.352201
-0.304692
-0.258825
-0.222138
-0.650438
-0.578115
-0.544089
-0.495334
-0.447692
-0.396629
-0.345558
-0.296791
-0.250724
-0.213562
-0.654884
-0.581427
-0.546052
-0.494869
-0.444419
-0.390786
-0.337883
-0.288065
-0.241957
-0.204495
-0.657745
-0.583468
-0.546685
-0.493035
-0.439777
-0.383694
-0.329155
-0.278508
-0.232521
-0.194925
-0.658846
-0.584079
-0.54583
-0.489701
-0.433677
-0.37531
-0.319361
-0.268117
-0.222413
-0.184839
-0.658017
-0.583101
-0.543335
-0.484746
-0.426043
-0.3656
-0.308491
-0.256892
-0.211634
-0.174229
-0.655088
-0.580378
-0.539051
-0.478058
-0.416812
-0.354539
-0.296542
-0.244834
-0.200185
-0.163091
-0.6499
-0.575758
-0.532843
-0.469539
-0.405935
-0.342113
-0.283516
-0.231948
-0.188069
-0.151423
-0.642302
-0.569096
-0.524583
-0.459108
-0.393374
-0.328316
-0.26942
-0.218241
-0.175292
-0.139229
-0.632158
-0.560259
-0.514162
-0.446697
-0.379108
-0.313154
-0.254266
-0.203725
-0.161864
-0.126515
-0.619344
-0.549127
-0.501484
-0.432258
-0.363129
-0.296639
-0.238074
-0.188414
-0.147797
-0.113295
-0.603757
-0.535595
-0.486476
-0.415761
-0.345444
-0.278795
-0.220867
-0.172329
-0.133108
-0.0995719
-0.585313
-0.519575
-0.469082
-0.397195
-0.326073
-0.259652
-0.202675
-0.155492
-0.11781
-0.0853258
-0.563949
-0.501001
-0.449271
-0.376566
-0.30505
-0.239251
-0.183534
-0.137931
-0.101928
-0.0705592
-0.539628
-0.479828
-0.427033
-0.353902
-0.282422
-0.217641
-0.163484
-0.119678
-0.0855001
-0.0554946
-0.512337
-0.456036
-0.402384
-0.329249
-0.258248
-0.194877
-0.142572
-0.100778
-0.0685294
-0.0400325
-0.48209
-0.429629
-0.375362
-0.302669
-0.232602
-0.171026
-0.120855
-0.0812727
-0.0510685
-0.0241901
-0.44893
-0.400638
-0.346029
-0.274246
-0.205567
-0.146159
-0.0983913
-0.0612051
-0.033162
-0.0080094
-0.412926
-0.369118
-0.314473
-0.24408
-0.177235
-0.120359
-0.0752445
-0.0406279
-0.0148525
0.00846617
-0.374177
-0.335153
-0.280807
-0.212285
-0.147711
-0.0937112
-0.0514867
-0.0195989
0.00381311
0.0251896
-0.33281
-0.298856
-0.24516
-0.178976
-0.117122
-0.0663112
-0.0271947
0.00181949
0.022784
0.0421089
-0.288981
-0.260382
-0.207652
-0.144316
-0.085581
-0.0382599
-0.00245065
0.0235605
0.0420055
0.0591649
-0.242871
-0.219913
-0.168432
-0.10846
-0.0532232
-0.00966463
0.0226583
0.045553
0.0614189
0.0762892
-0.194666
-0.177506
-0.127827
-0.0715691
-0.0201884
0.019362
0.0480401
0.0677218
0.0809618
0.0934068
-0.144594
-0.133502
-0.0859452
-0.0338193
0.0133768
0.0487027
0.0735986
0.0899889
0.100574
0.110438
-0.0929977
-0.0880478
-0.0430042
0.00460107
0.0473206
0.078236
0.0992337
0.112278
0.120208
0.127259
-0.0400788
-0.0414301
0.000757278
0.0434977
0.0814869
0.107836
0.124843
0.134519
0.139811
0.143628
0.0138709
0.0060885
0.0450979
0.0826711
0.115715
0.137375
0.150323
0.156642
0.159263
0.159227
0.0685354
0.0542351
0.0897694
0.121917
0.149843
0.166722
0.175573
0.178555
0.178296
0.173887
0.123591
0.102723
0.134517
0.161029
0.183706
0.195748
0.200494
0.200136
0.19656
0.188308
0.178706
0.151255
0.179081
0.199797
0.217139
0.224321
0.224975
0.221276
0.214774
0.204287
0.23354
0.19953
0.2232
0.238013
0.249976
0.25231
0.248909
0.241866
0.232535
0.220101
0.287748
0.247241
0.266613
0.27547
0.282055
0.279586
0.272187
0.261831
0.249714
0.235421
0.340984
0.294083
0.309061
0.311962
0.313215
0.306022
0.294708
0.2811
0.266272
0.250142
0.392903
0.339752
0.350289
0.347288
0.343298
0.331493
0.316372
0.299598
0.282155
0.264206
0.443164
0.383946
0.390046
0.381253
0.372151
0.355879
0.337081
0.31725
0.2973
0.277566
0.491434
0.426375
0.428092
0.413669
0.399628
0.379064
0.356742
0.333984
0.311647
0.290175
0.537389
0.466754
0.464194
0.444353
0.425585
0.400935
0.375268
0.349731
0.32514
0.30199
0.580719
0.504813
0.498131
0.473133
0.44989
0.421388
0.392572
0.364423
0.337724
0.312971
0.62113
0.540296
0.529693
0.499848
0.472415
0.440321
0.408576
0.377999
0.349347
0.323082
0.658344
0.572961
0.558686
0.524345
0.493043
0.457643
0.423205
0.390398
0.359959
0.332289
0.692106
0.602586
0.58493
0.546486
0.511664
0.473266
0.436391
0.401566
0.369515
0.340561
0.722182
0.628969
0.608263
0.566146
0.528181
0.487114
0.44807
0.411453
0.377973
0.347867
0.748363
0.651929
0.628539
0.583211
0.542506
0.499116
0.458188
0.420014
0.385295
0.354181
0.770466
0.67131
0.645634
0.597584
0.554563
0.509213
0.466696
0.427209
0.391449
0.359481
0.788338
0.686977
0.659439
0.609183
0.564287
0.517353
0.473552
0.433006
0.396407
0.363745
0.801852
0.698823
0.669869
0.617941
0.571626
0.523494
0.478724
0.437378
0.400145
0.366958
0.810915
0.706765
0.676858
0.623808
0.57654
0.527606
0.482186
0.440304
0.402647
0.369107
0.815463
0.710751
0.680364
0.62675
0.579004
0.529667
0.483921
0.441771
0.403901
0.370183
0.815463
0.710751
0.680364
0.62675
0.579004
0.529667
0.483921
0.441771
0.403901
0.370183
0.810915
0.706765
0.676858
0.623808
0.57654
0.527606
0.482186
0.440304
0.402647
0.369107
0.801852
0.698823
0.669869
0.617941
0.571626
0.523494
0.478724
0.437378
0.400145
0.366958
0.788338
0.686977
0.659439
0.609183
0.564287
0.517353
0.473552
0.433006
0.396407
0.363745
0.770466
0.67131
0.645634
0.597584
0.554563
0.509213
0.466696
0.427209
0.391449
0.359481
0.748363
0.651929
0.628539
0.583211
0.542506
0.499116
0.458188
0.420014
0.385295
0.354181
0.722182
0.628969
0.608263
0.566146
0.528181
0.487114
0.44807
0.411453
0.377973
0.347867
0.692106
0.602586
0.58493
0.546486
0.511664
0.473266
0.436391
0.401566
0.369515
0.340561
0.658344
0.572961
0.558686
0.524345
0.493043
0.457643
0.423205
0.390398
0.359959
0.332289
0.62113
0.540296
0.529693
0.499848
0.472415
0.440321
0.408576
0.377999
0.349347
0.323082
0.580719
0.504813
0.498131
0.473133
0.44989
0.421388
0.392572
0.364423
0.337724
0.312971
0.537389
0.466754
0.464194
0.444353
0.425585
0.400935
0.375268
0.349731
0.32514
0.30199
0.491434
0.426375
0.428092
0.413669
0.399628
0.379064
0.356742
0.333984
0.311647
0.290175
0.443164
0.383946
0.390046
0.381253
0.372151
0.355879
0.337081
0.31725
0.2973
0.277566
0.392903
0.339752
0.350289
0.347288
0.343298
0.331493
0.316372
0.299598
0.282155
0.264206
0.340984
0.294083
0.309061
0.311962
0.313215
0.306022
0.294708
0.2811
0.266272
0.250142
0.287748
0.247241
0.266613
0.27547
0.282055
0.279586
0.272187
0.261831
0.249714
0.235421
0.23354
0.19953
0.2232
0.238013
0.249976
0.25231
0.248909
0.241866
0.232535
0.220101
0.178706
0.151255
0.179081
0.199797
0.217139
0.224321
0.224975
0.221276
0.214774
0.204287
0.123591
0.102723
0.134517
0.161029
0.183706
0.195748
0.200494
0.200136
0.19656
0.188308
0.0685355
0.0542351
0.0897694
0.121917
0.149843
0.166722
0.175573
0.178555
0.178296
0.173887
0.013871
0.00608853
0.0450979
0.0826711
0.115715
0.137375
0.150323
0.156642
0.159263
0.159227
-0.0400788
-0.04143
0.000757289
0.0434977
0.0814869
0.107836
0.124843
0.134519
0.139811
0.143628
-0.0929977
-0.0880478
-0.0430042
0.00460107
0.0473206
0.0782359
0.0992337
0.112278
0.120208
0.127259
-0.144594
-0.133502
-0.0859452
-0.0338193
0.0133768
0.0487027
0.0735986
0.0899889
0.100574
0.110438
-0.194666
-0.177506
-0.127827
-0.0715691
-0.0201884
0.019362
0.0480401
0.0677218
0.0809618
0.0934068
-0.242871
-0.219913
-0.168432
-0.10846
-0.0532232
-0.00966463
0.0226583
0.045553
0.0614189
0.0762892
-0.288981
-0.260382
-0.207652
-0.144316
-0.085581
-0.0382599
-0.00245065
0.0235605
0.0420055
0.0591649
-0.33281
-0.298856
-0.24516
-0.178976
-0.117122
-0.0663112
-0.0271947
0.00181948
0.022784
0.0421089
-0.374177
-0.335153
-0.280807
-0.212285
-0.147711
-0.0937112
-0.0514868
-0.0195989
0.00381311
0.0251896
-0.412926
-0.369118
-0.314473
-0.24408
-0.177235
-0.120359
-0.0752445
-0.0406279
-0.0148525
0.00846616
-0.44893
-0.400638
-0.346029
-0.274246
-0.205567
-0.146159
-0.0983913
-0.0612051
-0.033162
-0.00800941
-0.48209
-0.429629
-0.375362
-0.302669
-0.232602
-0.171026
-0.120855
-0.0812727
-0.0510685
-0.0241902
-0.512337
-0.456036
-0.402384
-0.329249
-0.258248
-0.194877
-0.142572
-0.100778
-0.0685294
-0.0400325
-0.539628
-0.479828
-0.427033
-0.353902
-0.282422
-0.217641
-0.163484
-0.119678
-0.0855001
-0.0554946
-0.563949
-0.501001
-0.449271
-0.376566
-0.30505
-0.239251
-0.183534
-0.137931
-0.101928
-0.0705592
-0.585313
-0.519575
-0.469082
-0.397195
-0.326073
-0.259652
-0.202675
-0.155492
-0.11781
-0.0853258
-0.603757
-0.535595
-0.486476
-0.415761
-0.345444
-0.278795
-0.220867
-0.172329
-0.133108
-0.0995719
-0.619344
-0.549127
-0.501484
-0.432258
-0.363129
-0.296639
-0.238074
-0.188414
-0.147797
-0.113295
-0.632158
-0.560259
-0.514162
-0.446697
-0.379108
-0.313154
-0.254266
-0.203725
-0.161864
-0.126515
-0.642302
-0.569096
-0.524583
-0.459108
-0.393374
-0.328316
-0.26942
-0.218241
-0.175292
-0.139229
-0.6499
-0.575758
-0.532843
-0.469539
-0.405935
-0.342113
-0.283516
-0.231948
-0.188069
-0.151423
-0.655088
-0.580378
-0.539051
-0.478058
-0.416812
-0.354539
-0.296542
-0.244834
-0.200185
-0.163091
-0.658017
-0.583101
-0.543334
-0.484746
-0.426043
-0.3656
-0.308491
-0.256892
-0.211634
-0.174229
-0.658846
-0.584079
-0.54583
-0.489701
-0.433677
-0.37531
-0.319361
-0.268117
-0.222413
-0.184839
-0.657745
-0.583468
-0.546685
-0.493035
-0.439777
-0.383694
-0.329155
-0.278508
-0.232521
-0.194925
-0.654884
-0.581427
-0.546052
-0.494869
-0.444419
-0.390786
-0.337883
-0.288064
-0.241957
-0.204495
-0.650438
-0.578115
-0.544089
-0.495333
-0.447692
-0.396629
-0.345558
-0.296791
-0.250724
-0.213562
-0.644581
-0.573687
-0.540953
-0.494566
-0.449691
-0.401277
-0.352201
-0.304692
-0.258825
-0.222138
-0.637484
-0.568296
-0.536801
-0.492706
-0.450525
-0.404791
-0.35784
-0.311775
-0.266263
-0.230238
-0.629312
-0.562086
-0.531784
-0.489896
-0.450305
-0.407242
-0.362505
-0.318047
-0.273041
-0.237873
-0.620224
-0.555194
-0.526047
-0.486276
-0.449148
-0.408707
-0.366235
-0.323517
-0.279164
-0.245046
-0.61037
-0.547747
-0.519727
-0.48198
-0.447174
-0.409269
-0.369075
-0.328192
-0.284636
-0.251749
-0.599887
-0.539862
-0.512949
-0.477139
-0.444502
-0.409017
-0.371075
-0.332081
-0.289464
-0.257944
-0.588905
-0.531646
-0.50583
-0.471871
-0.441247
-0.408042
-0.37229
-0.335189
-0.293657
-0.26355
-0.577538
-0.523191
-0.498471
-0.466287
-0.437519
-0.406433
-0.372782
-0.337524
-0.29723
-0.268412
-0.565889
-0.514581
-0.490961
-0.460484
-0.43342
-0.404281
-0.372615
-0.339087
-0.30021
-0.272266
-0.554049
-0.505887
-0.483377
-0.454547
-0.429045
-0.401671
-0.371856
-0.339882
-0.302647
-0.274746
-0.542094
-0.49717
-0.475783
-0.448546
-0.424473
-0.398685
-0.370574
-0.339909
-0.304609
-0.275323
-0.530094
-0.488479
-0.468228
-0.442541
-0.419774
-0.395395
-0.368836
-0.339178
-0.306052
-0.271737
-0.518104
-0.479858
-0.460755
-0.436577
-0.415005
-0.391868
-0.366708
-0.337783
-0.306937
-0.257213
-0.506175
-0.471341
-0.453393
-0.430685
-0.41021
-0.388162
-0.364256
-0.33587
-0.308055
-0.251346
-0.494351
-0.462958
-0.446166
-0.424891
-0.405421
-0.384325
-0.361529
-0.333622
-0.308756
-0.250142
-0.482674
-0.454734
-0.439091
-0.419208
-0.400659
-0.380389
-0.358547
-0.331096
-0.308485
-0.249267
-0.471183
-0.446692
-0.432183
-0.413647
-0.395938
-0.37638
-0.35532
-0.328291
-0.307257
-0.247852
-0.459919
-0.438858
-0.425455
-0.408214
-0.391267
-0.372315
-0.351862
-0.325214
-0.305229
-0.246129
-0.448928
-0.431256
-0.418922
-0.402916
-0.386652
-0.368209
-0.348198
-0.321886
-0.302502
-0.244223
-0.438261
-0.423915
-0.4126
-0.397762
-0.382104
-0.364077
-0.344354
-0.318332
-0.299149
-0.242146
-0.427974
-0.416866
-0.406514
-0.392765
-0.377636
-0.35994
-0.340368
-0.314583
-0.295251
-0.239913
-0.418133
-0.410149
-0.400691
-0.387947
-0.37327
-0.355823
-0.336282
-0.31068
-0.290907
-0.237558
-0.408803
-0.403809
-0.395166
-0.383337
-0.369036
-0.351763
-0.332153
-0.306677
-0.286233
-0.235127
-0.400072
-0.397888
-0.389982
-0.378971
-0.364975
-0.347807
-0.328048
-0.302641
-0.281361
-0.232668
-0.392019
-0.392436
-0.385185
-0.374894
-0.361137
-0.344014
-0.324046
-0.298655
-0.276438
-0.230236
-0.384729
-0.38751
-0.380827
-0.371157
-0.357578
-0.340453
-0.320238
-0.294813
-0.271623
-0.227893
-0.378286
-0.383162
-0.376962
-0.367814
-0.354362
-0.337198
-0.316721
-0.291224
-0.267083
-0.225707
-0.372772
-0.379445
-0.373641
-0.364921
-0.351554
-0.334328
-0.313596
-0.288
-0.262984
-0.223747
-0.36826
-0.376406
-0.370916
-0.362531
-0.349217
-0.331923
-0.310959
-0.28525
-0.259485
-0.222082
-0.364816
-0.374087
-0.368829
-0.360691
-0.347408
-0.330048
-0.30889
-0.283084
-0.256728
-0.220773
-0.36249
-0.372522
-0.367417
-0.359442
-0.346174
-0.328764
-0.307467
-0.281578
-0.254833
-0.219871
-0.361318
-0.371733
-0.366705
-0.35881
-0.345548
-0.32811
-0.306742
-0.280785
-0.253885
-0.219411
-0.20169
-0.189441
-0.175549
-0.160589
-0.144539
-0.12745
-0.10952
-0.0910357
-0.0723809
-0.0540498
-0.0366319
-0.0207492
-0.00708568
0.00401984
0.0116524
0.017169
0.01712
0.0200698
0.00871925
0.020408
-0.203167
-0.190874
-0.176826
-0.161797
-0.145698
-0.128554
-0.110566
-0.0920194
-0.0732952
-0.0548873
-0.0373861
-0.0214151
-0.00766076
0.00353576
0.011257
0.0168538
0.0168868
0.0198806
0.0086356
0.0202463
-0.20605
-0.193677
-0.179325
-0.164161
-0.147965
-0.130715
-0.112616
-0.0939484
-0.0750895
-0.0565324
-0.0388692
-0.0227261
-0.00879446
0.00258022
0.0104755
0.0162301
0.0164249
0.0195055
0.00846973
0.0199265
-0.210197
-0.197727
-0.18294
-0.167582
-0.151249
-0.133848
-0.115589
-0.0967485
-0.0776976
-0.0589274
-0.0410324
-0.0246422
-0.010455
0.00117762
0.00932602
0.0153109
0.0157431
0.0189512
0.0082244
0.0194554
-0.215409
-0.202846
-0.18752
-0.171919
-0.155418
-0.137827
-0.119369
-0.100316
-0.0810264
-0.0619914
-0.0438069
-0.0271068
-0.0125971
-0.000637265
0.00783442
0.0141147
0.0148541
0.0182271
0.00790366
0.0188431
-0.221442
-0.208819
-0.19288
-0.177003
-0.160309
-0.142503
-0.123819
-0.104523
-0.0849625
-0.0656251
-0.0471085
-0.0300503
-0.0151653
-0.00282137
0.00603296
0.012665
0.0137741
0.0173452
0.00751265
0.018102
-0.228027
-0.215396
-0.198808
-0.182639
-0.165744
-0.147709
-0.128784
-0.109228
-0.0893792
-0.0697177
-0.0508427
-0.0333944
-0.0180963
-0.00532562
0.00395867
0.0109888
0.0125217
0.0163199
0.00705744
0.0172472
-0.234883
-0.222313
-0.205082
-0.188626
-0.171534
-0.153268
-0.1341
-0.114285
-0.0941441
-0.0741532
-0.05491
-0.0370562
-0.0213232
-0.00809738
0.00165162
0.00911548
0.0111175
0.0151667
0.00654479
0.0162949
-0.241738
-0.229304
-0.211476
-0.19476
-0.177489
-0.159005
-0.139608
-0.119546
-0.0991257
-0.0788158
-0.0592111
-0.0409525
-0.0247779
-0.0110827
-0.000846762
0.00707603
0.00958347
0.0139026
0.00598196
0.0152626
-0.248343
-0.236112
-0.21777
-0.200845
-0.183429
-0.164754
-0.145154
-0.124872
-0.104199
-0.0835954
-0.0636508
-0.0450028
-0.0283942
-0.0142287
-0.00349516
0.00490156
0.00794173
0.012545
0.00537646
0.0141682
-0.254479
-0.242502
-0.223765
-0.206703
-0.189185
-0.170361
-0.150598
-0.130135
-0.10925
-0.0883912
-0.0681414
-0.0491325
-0.0321098
-0.0174847
-0.00625369
0.00262257
0.00621441
0.0111112
0.00473584
0.0130292
-0.259968
-0.248271
-0.229279
-0.212171
-0.194608
-0.175688
-0.155816
-0.135225
-0.114178
-0.0931145
-0.0726053
-0.0532748
-0.0358682
-0.0208042
-0.00908503
0.000268065
0.00442278
0.00961824
0.00406751
0.0118629
-0.264667
-0.253249
-0.234164
-0.217112
-0.19957
-0.18062
-0.160704
-0.140047
-0.1189
-0.0976909
-0.0769771
-0.0573725
-0.0396203
-0.024146
-0.0119555
-0.00213534
0.00258667
0.00808235
0.00337845
0.0106853
-0.268479
-0.25731
-0.238299
-0.221415
-0.203966
-0.185061
-0.165178
-0.144527
-0.12335
-0.102061
-0.0812034
-0.0613781
-0.0433244
-0.0274743
-0.0148351
-0.00456334
0.000724451
0.00651869
0.00267524
0.0095112
-0.271359
-0.260371
-0.241595
-0.224987
-0.207707
-0.188934
-0.169168
-0.148603
-0.127472
-0.106175
-0.0852375
-0.0652485
-0.0469411
-0.0307543
-0.017694
-0.00699157
-0.00114525
0.00494238
0.00196456
0.00835417
-0.273281
-0.262353
-0.243962
-0.22774
-0.21071
-0.19217
-0.172617
-0.152224
-0.131218
-0.109985
-0.0890352
-0.0689416
-0.0504315
-0.0339511
-0.0205023
-0.00939555
-0.00300379
0.00336837
0.00125308
0.00722644
-0.274214
-0.263202
-0.245368
-0.229656
-0.212972
-0.194774
-0.175533
-0.155398
-0.134597
-0.113501
-0.0926021
-0.0724615
-0.0537978
-0.0370655
-0.0232597
-0.0117735
-0.00484925
0.00180153
0.000541812
0.00613717
-0.27451
-0.26323
-0.246076
-0.230921
-0.214639
-0.19688
-0.178047
-0.158259
-0.137743
-0.116855
-0.0960684
-0.0759296
-0.0571493
-0.0401907
-0.0260419
-0.0141814
-0.00672196
0.000221075
-0.000182608
0.00508925
-0.274811
-0.262408
-0.245836
-0.231165
-0.215346
-0.198182
-0.179914
-0.160619
-0.140516
-0.119941
-0.099352
-0.0792817
-0.0604335
-0.0432841
-0.0288137
-0.0165931
-0.00860147
-0.00136111
-0.000912787
0.00409022
-0.271071
-0.256935
-0.242328
-0.22864
-0.213628
-0.197326
-0.179807
-0.161147
-0.141578
-0.121434
-0.101168
-0.0813099
-0.0625519
-0.0453925
-0.0307757
-0.0183956
-0.0100275
-0.00267503
-0.00148809
0.00319646
-0.252716
-0.248394
-0.239782
-0.227341
-0.212789
-0.19679
-0.179445
-0.160906
-0.141444
-0.121408
-0.101254
-0.0815194
-0.0628708
-0.0458395
-0.0312674
-0.0190369
-0.0105437
-0.00347918
-0.00173508
0.00237586
-0.237595
-0.23334
-0.226307
-0.215422
-0.20254
-0.188199
-0.172423
-0.15537
-0.137315
-0.118596
-0.099645
-0.0809693
-0.06319
-0.0468353
-0.0326595
-0.0206878
-0.0120365
-0.00501571
-0.00245468
0.00131623
-0.222924
-0.218487
-0.211457
-0.201742
-0.190401
-0.177658
-0.163498
-0.148068
-0.131615
-0.114444
-0.096946
-0.0795837
-0.062919
-0.0474579
-0.0338678
-0.02228
-0.0135742
-0.00659323
-0.00325855
0.000262625
-0.207912
-0.203867
-0.196858
-0.188141
-0.178192
-0.166912
-0.154265
-0.140387
-0.125493
-0.109849
-0.0937986
-0.0777619
-0.0622416
-0.0477164
-0.034772
-0.0236249
-0.0149445
-0.00804091
-0.00402795
-0.000721897
-0.191957
-0.188707
-0.182022
-0.174233
-0.165588
-0.155731
-0.144573
-0.132238
-0.118906
-0.104803
-0.0902248
-0.0755445
-0.0612082
-0.0476625
-0.0354201
-0.02476
-0.0161759
-0.00937122
-0.00477424
-0.00162555
-0.175223
-0.172989
-0.16693
-0.160075
-0.152659
-0.144175
-0.134473
-0.123656
-0.111876
-0.099316
-0.0862257
-0.0729281
-0.0598138
-0.0472919
-0.0358085
-0.0256828
-0.0172671
-0.0105792
-0.00549794
-0.00243335
-0.158252
-0.15699
-0.151771
-0.145888
-0.139638
-0.132459
-0.124154
-0.114801
-0.104529
-0.0934807
-0.0818617
-0.0699454
-0.058068
-0.0465969
-0.0359173
-0.026368
-0.0181908
-0.0116407
-0.00618192
-0.00312854
-0.14148
-0.141033
-0.136759
-0.131873
-0.126722
-0.120766
-0.11378
-0.10582
-0.0969859
-0.0873929
-0.0772023
-0.0666408
-0.0559922
-0.0455803
-0.0357345
-0.0267954
-0.0189214
-0.0125337
-0.00680592
-0.00370024
-0.125272
-0.125448
-0.122128
-0.118218
-0.114088
-0.109258
-0.1035
-0.0968398
-0.0893589
-0.081143
-0.0723165
-0.0630622
-0.0536148
-0.0442537
-0.0352569
-0.0269537
-0.0194396
-0.0132422
-0.00735057
-0.00414484
-0.109914
-0.110528
-0.108096
-0.105101
-0.1019
-0.0980867
-0.093446
-0.0879822
-0.0817527
-0.0748196
-0.0672754
-0.0592629
-0.0509715
-0.042637
-0.0344904
-0.0268391
-0.0197328
-0.0137553
-0.0077983
-0.00446511
-0.0955978
-0.0964961
-0.0948456
-0.0926722
-0.0902944
-0.0873826
-0.0837415
-0.0793575
-0.0742666
-0.06851
-0.0621525
-0.0553018
-0.0481062
-0.0407597
-0.0334505
-0.0264575
-0.0197959
-0.0140686
-0.00813519
-0.00466927
-0.082438
-0.0835064
-0.082514
-0.0810524
-0.0793882
-0.0772591
-0.0744947
-0.071068
-0.066996
-0.0623012
-0.0570252
-0.0512448
-0.045072
-0.0386621
-0.0321642
-0.025825
-0.019634
-0.0141852
-0.00835303
-0.00476967
-0.0704961
-0.0716558
-0.0712006
-0.0703377
-0.0692776
-0.0678151
-0.065805
-0.0632115
-0.0600352
-0.0562829
-0.0519764
-0.0471664
-0.0419332
-0.0363968
-0.0306715
-0.0249704
-0.0192632
-0.0141168
-0.00845088
-0.00478138
-0.0598059
-0.0610053
-0.060978
-0.0606065
-0.0600468
-0.0591407
-0.057767
-0.0558845
-0.053481
-0.0505501
-0.0470972
-0.0431514
-0.0387659
-0.0340298
-0.0290263
-0.0239357
-0.0187122
-0.0138849
-0.00843594
-0.00472112
-0.0503936
-0.0515996
-0.0519062
-0.0519289
-0.0517748
-0.0513232
-0.0504748
-0.0491863
-0.0474354
-0.0452053
-0.0424886
-0.0392966
-0.0356599
-0.0316412
-0.0272969
-0.0227768
-0.0180228
-0.0135209
-0.0083238
-0.00460658
-0.0422901
-0.043482
-0.0440434
-0.0443749
-0.0445413
-0.0444519
-0.0440266
-0.0432217
-0.042008
-0.0403608
-0.0382628
-0.0357112
-0.0327188
-0.0293259
-0.0255669
-0.021564
-0.0172498
-0.0130663
-0.00813824
-0.00445614
-0.0355443
-0.0367107
-0.0374604
-0.0380259
-0.0384374
-0.0386272
-0.0385313
-0.038107
-0.0373205
-0.0361416
-0.0345454
-0.0325189
-0.0300606
-0.0271935
-0.0239341
-0.020381
-0.0164604
-0.0125724
-0.00791038
-0.00428888
-0.0302227
-0.0313612
-0.0322441
-0.0329795
-0.0335701
-0.0339653
-0.0341138
-0.0339743
-0.0335105
-0.0326882
-0.0314778
-0.0298584
-0.0278187
-0.0253682
-0.0225103
-0.0193245
-0.0157333
-0.012099
-0.00767742
-0.00412396
-0.0264601
-0.0275719
-0.028539
-0.0293848
-0.0300931
-0.0306243
-0.0309362
-0.0309893
-0.0307454
-0.0301681
-0.0292247
-0.0278896
-0.0261446
-0.0239903
-0.0214211
-0.0185027
-0.0151567
-0.0117135
-0.00748353
-0.00397846
-0.0244023
-0.0255044
-0.0265185
-0.0274247
-0.0281967
-0.0288007
-0.0291997
-0.0293548
-0.0292276
-0.0287807
-0.0279797
-0.0267968
-0.0252105
-0.0232162
-0.0208049
-0.0180324
-0.0148264
-0.0114846
-0.00738436
-0.00386892
-0.11827
-0.128919
-0.13909
-0.148772
-0.157959
-0.166643
-0.174821
-0.182489
-0.189648
-0.196305
-0.202471
-0.208169
-0.213438
-0.218341
-0.222983
-0.227531
-0.232253
-0.237555
-0.244847
-0.258038
-0.106972
-0.116826
-0.126254
-0.135249
-0.143806
-0.151923
-0.159599
-0.166841
-0.173661
-0.180077
-0.186124
-0.191849
-0.197329
-0.202672
-0.208036
-0.213643
-0.219794
-0.226778
-0.235415
-0.248503
-0.0961517
-0.105276
-0.114045
-0.122456
-0.130506
-0.138199
-0.14554
-0.152538
-0.15921
-0.165579
-0.171677
-0.177546
-0.183245
-0.188846
-0.194439
-0.200136
-0.206061
-0.212267
-0.219218
-0.229437
-0.0857548
-0.0941852
-0.102318
-0.11015
-0.117682
-0.124917
-0.131861
-0.138521
-0.14491
-0.151046
-0.156949
-0.162648
-0.168176
-0.173577
-0.178901
-0.184221
-0.18963
-0.195206
-0.201361
-0.209892
-0.0758155
-0.0835807
-0.0910918
-0.0983472
-0.105347
-0.112093
-0.118589
-0.124842
-0.13086
-0.136657
-0.142247
-0.147652
-0.152899
-0.158022
-0.163066
-0.168093
-0.173179
-0.178378
-0.18392
-0.190823
-0.0663492
-0.0734812
-0.080396
-0.0870921
-0.0935687
-0.0998268
-0.105869
-0.1117
-0.117328
-0.12276
-0.12801
-0.133093
-0.13803
-0.142846
-0.147571
-0.152241
-0.156899
-0.161571
-0.16638
-0.171905
-0.0573515
-0.0638891
-0.0702394
-0.0764005
-0.0823714
-0.0881521
-0.0937441
-0.0991504
-0.104375
-0.109425
-0.114308
-0.119034
-0.123616
-0.128068
-0.132408
-0.136659
-0.140846
-0.144989
-0.149148
-0.153636
-0.0488365
-0.054816
-0.0606329
-0.066285
-0.0717702
-0.0770878
-0.0822378
-0.0872213
-0.0920407
-0.0966994
-0.101202
-0.105554
-0.109763
-0.113838
-0.11779
-0.121633
-0.125381
-0.129049
-0.132639
-0.136327
-0.0408123
-0.0462718
-0.0515891
-0.0567611
-0.0617853
-0.0666598
-0.0713837
-0.0759567
-0.0803794
-0.0846532
-0.0887804
-0.0927639
-0.0966079
-0.100317
-0.103898
-0.107356
-0.110702
-0.113939
-0.117041
-0.120124
-0.0332923
-0.0382709
-0.0431238
-0.0478475
-0.0524389
-0.0568955
-0.0612153
-0.0653973
-0.0694407
-0.0733456
-0.0771125
-0.0807426
-0.0842376
-0.0875998
-0.0908319
-0.0939371
-0.0969209
-0.0997838
-0.102483
-0.105117
-0.0262928
-0.0308294
-0.0352544
-0.0395637
-0.0437534
-0.0478206
-0.051763
-0.0555784
-0.0592655
-0.0628234
-0.0662515
-0.0695499
-0.072719
-0.0757597
-0.0786729
-0.0814603
-0.0841252
-0.0866656
-0.0890372
-0.0913294
-0.019825
-0.0239602
-0.0279957
-0.0319265
-0.0357486
-0.0394585
-0.0430534
-0.0465309
-0.0498891
-0.0531265
-0.056242
-0.059235
-0.0621053
-0.0648529
-0.0674782
-0.0699819
-0.0723663
-0.0746284
-0.0767294
-0.0787517
-0.0139044
-0.0176829
-0.0213685
-0.0249578
-0.0284472
-0.0318332
-0.0351128
-0.0382832
-0.0413424
-0.0442885
-0.0471202
-0.0498365
-0.0524368
-0.0549208
-0.0572886
-0.0595405
-0.0616784
-0.0636992
-0.0655723
-0.0673703
-0.00856438
-0.0120211
-0.0153936
-0.0186778
-0.0218701
-0.0249666
-0.0279642
-0.0308601
-0.033652
-0.0363378
-0.0389161
-0.0413857
-0.0437458
-0.0459961
-0.0481363
-0.0501668
-0.052089
-0.0539005
-0.0555785
-0.0571837
-0.00382145
-0.00699638
-0.0100941
-0.0131105
-0.0160415
-0.0188834
-0.0216331
-0.0242877
-0.0268447
-0.0293021
-0.0316583
-0.0339119
-0.0360623
-0.0381087
-0.0400511
-0.0418897
-0.0436257
-0.045257
-0.0467682
-0.0482062
0.000299027
-0.00263447
-0.00549643
-0.0082826
-0.0109891
-0.0136122
-0.0161488
-0.0185961
-0.0209515
-0.023213
-0.0253789
-0.027448
-0.0294193
-0.0312922
-0.0330666
-0.0347426
-0.036321
-0.0378006
-0.0391715
-0.0404674
0.0037618
0.00102979
-0.00163532
-0.00422938
-0.00674858
-0.00918942
-0.0115487
-0.0138237
-0.016012
-0.0181114
-0.0201203
-0.0220374
-0.0238617
-0.0255925
-0.0272296
-0.0287731
-0.0302236
-0.0315803
-0.0328377
-0.0340174
0.00650282
0.00393302
0.00142645
-0.00101295
-0.00338155
-0.00567599
-0.00789324
-0.0100306
-0.0120857
-0.0140566
-0.0159415
-0.0177392
-0.0194485
-0.0210689
-0.0226
-0.0240417
-0.0253944
-0.0266581
-0.0278299
-0.0289218
0.00847671
0.00602352
0.00363051
0.00130145
-0.000960163
-0.00315111
-0.00526844
-0.00730952
-0.00927203
-0.0111539
-0.0129535
-0.0146694
-0.0163006
-0.0178461
-0.0193057
-0.020679
-0.0219664
-0.0231678
-0.0242827
-0.0253157
0.00951805
0.00714721
0.00483423
0.00258237
0.000394709
-0.00172589
-0.0037768
-0.0057556
-0.00766013
-0.00948846
-0.0112389
-0.01291
-0.0145006
-0.0160098
-0.0174368
-0.0187812
-0.0200428
-0.0212215
-0.0223174
-0.0233312
0.163754
0.147984
0.132202
0.117257
0.102052
0.0866643
0.0713125
0.0560502
0.0409106
0.02594
0.0111804
-0.0033333
-0.0175703
-0.0315046
-0.0451224
-0.0584334
-0.0711449
-0.0835657
-0.0955832
-0.107154
0.154895
0.139833
0.124192
0.110087
0.0959576
0.0816471
0.067423
0.0533417
0.039406
0.0256437
0.0120867
-0.00123862
-0.0143084
-0.0270996
-0.0395907
-0.051766
-0.0634984
-0.0749466
-0.086026
-0.096703
0.143855
0.129594
0.114715
0.101621
0.0887454
0.0757041
0.0627456
0.0499488
0.0373016
0.0248161
0.0125172
0.000426109
-0.0114382
-0.0230566
-0.0344102
-0.0454832
-0.0562204
-0.0667071
-0.0768647
-0.0866794
0.132979
0.119931
0.106261
0.0942534
0.0825716
0.0707402
0.0589623
0.0473408
0.0358667
0.0245416
0.0133845
0.00241333
-0.00835651
-0.0189099
-0.029232
-0.0393078
-0.0491026
-0.0587166
-0.0680231
-0.0770323
0.122754
0.110955
0.0985837
0.0876508
0.0770773
0.0663877
0.0557294
0.0452109
0.0348307
0.0245845
0.0144852
0.00454806
-0.00521425
-0.0147892
-0.0241626
-0.0333111
-0.0421825
-0.0510146
-0.0595408
-0.067801
0.113387
0.102751
0.0916549
0.0817632
0.0722194
0.0625945
0.0529879