/*--------------------------------*- C++ -*----------------------------------*\
  =========                 |
  \\      /  F ield         | OpenFOAM: The Open Source CFD Toolbox
   \\    /   O peration     | Website:  https://openfoam.org
    \\  /    A nd           | Version:  7
     \\/     M anipulation  |
\*---------------------------------------------------------------------------*/
FoamFile
{
    version     2.0;
    format      ascii;
    class       volVectorField;
    location    "0.4";
    object      U;
}
// * * * * * * * * * * * * * * * * * * * * * * * * * * * * * * * * * * * * * //

dimensions      [0 1 -1 0 0 0 0];

internalField   nonuniform List<vector> 
100800
(
(3 -1.28528e-16 0)
(3 -1.32217e-16 0)
(3 -2.7617e-17 0)
(3 5.42558e-16 0)
(3 9.4821e-16 0)
(3 1.15495e-15 0)
(3 7.22292e-16 0)
(3 -4.09723e-17 0)
(3 -3.23296e-16 0)
(3 -2.88592e-16 0)
(3 3.68761e-16 0)
(3 9.0032e-16 0)
(3 5.1267e-16 0)
(3 4.69875e-17 0)
(3 3.35445e-16 0)
(3 8.53489e-16 0)
(3 3.05603e-16 0)
(3 7.8264e-17 0)
(3 4.91085e-16 0)
(3 1.02617e-16 0)
(3 3.30739e-17 0)
(3 3.00126e-17 0)
(3 2.72314e-16 0)
(3 8.15157e-16 0)
(3 5.90503e-16 0)
(3 5.63332e-16 0)
(3 4.02135e-16 0)
(3 -1.50331e-16 0)
(3 -3.22993e-16 0)
(3 -6.57355e-16 0)
(3 -7.29782e-16 0)
(3 -1.04203e-16 0)
(3 4.08678e-16 0)
(3 -7.87316e-16 0)
(3 -1.45888e-15 0)
(3 -1.49134e-15 0)
(3 -1.2605e-15 0)
(3 -2.84132e-16 0)
(3 4.46883e-16 0)
(3 7.8887e-16 0)
(3 4.30117e-16 0)
(3 3.49091e-16 0)
(3 3.25362e-16 0)
(3 -4.21001e-16 0)
(3 -6.56079e-16 0)
(3 -4.48107e-16 0)
(3 -4.33764e-16 0)
(3 -8.38276e-16 0)
(3 -1.19791e-15 0)
(3 -1.28867e-15 0)
(3 -1.70099e-15 0)
(3 -1.02574e-15 0)
(3 9.41148e-16 0)
(3 1.43086e-15 0)
(3 1.71906e-15 0)
(3 1.38859e-15 0)
(3 5.05885e-16 0)
(3 -4.947e-16 0)
(3 -6.8134e-16 0)
(3 -3.10774e-16 0)
(3 -2.07005e-16 0)
(3 -3.12716e-16 0)
(3 2.76468e-17 0)
(3 2.5714e-16 0)
(3 4.16582e-16 0)
(3 9.69011e-16 0)
(3 2.59432e-15 0)
(3 2.47701e-15 0)
(3 5.70652e-16 0)
(3 -1.47584e-16 0)
(3 5.4482e-16 0)
(3 -4.15612e-16 0)
(3 -1.19928e-15 0)
(3 -1.2727e-15 0)
(3 -1.37184e-15 0)
(3 -1.32938e-15 0)
(3 -1.06116e-15 0)
(3 7.68767e-16 0)
(3 -7.16952e-16 0)
(1.4696 0.00442606 0)
(0.671089 0.00426012 0)
(0.618985 0.00964789 0)
(0.602988 0.00730801 0)
(0.583106 0.00732376 0)
(0.561121 0.00731862 0)
(0.533714 0.00692343 0)
(0.509688 0.00653938 0)
(0.491751 0.00665615 0)
(0.480563 0.00699187 0)
(0.475315 0.00738896 0)
(0.471471 0.0076374 0)
(0.465809 0.00777316 0)
(0.455322 0.00783827 0)
(0.439688 0.00787128 0)
(0.422191 0.00779444 0)
(0.406522 0.00780242 0)
(0.389872 0.00783911 0)
(0.367939 0.00772502 0)
(0.339409 0.00765908 0)
(0.310579 0.00762142 0)
(0.290189 0.0075552 0)
(0.281777 0.00763195 0)
(0.28045 0.00786309 0)
(0.276231 0.00766853 0)
(0.26333 0.008018 0)
(0.246773 0.00856101 0)
(0.231507 0.00909584 0)
(0.216937 0.0094543 0)
(0.200044 0.00921455 0)
(0.176748 0.00888263 0)
(0.144627 0.00821643 0)
(0.117969 0.00780967 0)
(0.0914725 0.00773867 0)
(0.0763691 0.00768158 0)
(0.0731167 0.00775952 0)
(0.0738377 0.00784903 0)
(0.0771735 0.00787138 0)
(0.074475 0.00787221 0)
(0.0586749 0.00776798 0)
(0.0177715 0.00772468 0)
(3 -1.28668e-16 0)
(3 -1.43712e-17 0)
(3 1.47914e-16 0)
(3 8.58813e-16 0)
(3 1.25764e-15 0)
(3 1.63154e-15 0)
(3 1.18728e-15 0)
(3 8.75636e-16 0)
(3 1.79477e-17 0)
(3 -3.57443e-16 0)
(3 -1.2879e-16 0)
(3 3.12931e-16 0)
(3 3.64723e-17 0)
(3 -5.94182e-16 0)
(3 5.13049e-18 0)
(3 1.19466e-15 0)
(3 1.04532e-15 0)
(3 1.20294e-15 0)
(3 1.64e-15 0)
(3 1.72523e-15 0)
(3 1.36301e-15 0)
(3 9.3632e-16 0)
(3 2.19164e-16 0)
(3 -2.30868e-16 0)
(3 -6.46923e-17 0)
(3 3.28517e-16 0)
(3 -4.60662e-16 0)
(3 -6.66003e-16 0)
(3 -2.9518e-16 0)
(3 -3.8489e-16 0)
(3 -3.87775e-16 0)
(3 1.88161e-16 0)
(3 -5.7853e-17 0)
(3 -1.428e-15 0)
(3 -2.72981e-15 0)
(3 -2.98274e-15 0)
(3 -2.75642e-15 0)
(3 -7.61012e-16 0)
(3 8.62297e-16 0)
(3 5.39938e-16 0)
(3 -5.80129e-16 0)
(3 -8.01964e-16 0)
(3 -2.44415e-16 0)
(3 -2.49079e-16 0)
(3 3.84426e-17 0)
(3 8.7352e-17 0)
(3 1.45732e-17 0)
(3 -8.92099e-16 0)
(3 -1.4865e-15 0)
(3 -1.80007e-15 0)
(3 -1.8808e-15 0)
(3 -1.0529e-15 0)
(3 -2.02492e-16 0)
(3 -4.53104e-16 0)
(3 -6.25578e-16 0)
(3 -9.65664e-16 0)
(3 -1.02618e-15 0)
(3 -6.69825e-16 0)
(3 -4.4776e-16 0)
(3 4.00583e-16 0)
(3 6.01322e-16 0)
(3 -5.33454e-16 0)
(3 -3.59232e-16 0)
(3 9.35539e-16 0)
(3 9.27104e-16 0)
(3 2.40454e-15 0)
(3 2.75774e-15 0)
(3 2.90024e-15 0)
(3 2.84769e-15 0)
(3 1.22974e-15 0)
(3 1.30834e-15 0)
(3 1.94468e-16 0)
(3 -8.2112e-16 0)
(3 -4.50691e-16 0)
(3 -5.48498e-16 0)
(3 -1.23996e-15 0)
(3 -1.30883e-15 0)
(3 7.4925e-16 0)
(3 1.48297e-15 0)
(1.47749 0.0204555 0)
(0.669192 0.0181839 0)
(0.613817 0.0289204 0)
(0.597871 0.0210788 0)
(0.577891 0.0202603 0)
(0.556399 0.0206849 0)
(0.529715 0.0201278 0)
(0.506571 0.0192518 0)
(0.488921 0.0193602 0)
(0.478063 0.0201647 0)
(0.472777 0.0212688 0)
(0.468598 0.022108 0)
(0.462495 0.0226585 0)
(0.451683 0.0229624 0)
(0.435924 0.0231296 0)
(0.418412 0.0229709 0)
(0.402648 0.0229824 0)
(0.385877 0.0230736 0)
(0.363804 0.0227636 0)
(0.33516 0.0225781 0)
(0.306393 0.0223963 0)
(0.28614 0.0220907 0)
(0.277747 0.0221945 0)
(0.276225 0.0226366 0)
(0.2717 0.0221244 0)
(0.258291 0.0230621 0)
(0.241379 0.0246412 0)
(0.225955 0.0261893 0)
(0.211728 0.027172 0)
(0.195668 0.0266331 0)
(0.17346 0.0258437 0)
(0.142391 0.0243822 0)
(0.116663 0.0233363 0)
(0.0906416 0.0231661 0)
(0.075688 0.022993 0)
(0.0723665 0.0232053 0)
(0.0729418 0.0234176 0)
(0.0762154 0.0235045 0)
(0.0735443 0.0235646 0)
(0.0579408 0.0234048 0)
(0.0174133 0.0233668 0)
(3 -6.12284e-17 0)
(3 -5.09709e-16 0)
(3 -9.1366e-16 0)
(3 -7.47444e-16 0)
(3 -2.60953e-16 0)
(3 -3.02209e-16 0)
(3 -4.61393e-16 0)
(3 -2.69469e-16 0)
(3 -6.32108e-16 0)
(3 -7.17749e-16 0)
(3 -1.54437e-15 0)
(3 -1.78872e-15 0)
(3 -9.52062e-16 0)
(3 -1.89615e-16 0)
(3 -2.78798e-16 0)
(3 -3.39122e-16 0)
(3 3.99111e-16 0)
(3 1.92595e-15 0)
(3 2.14205e-15 0)
(3 1.31317e-15 0)
(3 5.32213e-16 0)
(3 1.98383e-16 0)
(3 -6.17898e-16 0)
(3 -1.33522e-15 0)
(3 -1.35034e-15 0)
(3 -1.19815e-15 0)
(3 -9.65089e-16 0)
(3 -2.50126e-16 0)
(3 -3.15489e-16 0)
(3 -3.93306e-16 0)
(3 -6.38418e-16 0)
(3 -4.01577e-16 0)
(3 -3.43563e-16 0)
(3 -1.04729e-15 0)
(3 -1.81697e-15 0)
(3 -2.11372e-15 0)
(3 -1.6353e-15 0)
(3 -7.45843e-16 0)
(3 -1.57984e-16 0)
(3 5.81343e-16 0)
(3 3.27096e-16 0)
(3 1.98328e-16 0)
(3 -4.8508e-17 0)
(3 4.32804e-16 0)
(3 1.06117e-15 0)
(3 6.92887e-16 0)
(3 -4.45658e-16 0)
(3 -1.43843e-15 0)
(3 -1.4759e-15 0)
(3 -1.02443e-15 0)
(3 -1.28076e-15 0)
(3 -1.14147e-15 0)
(3 6.47056e-16 0)
(3 1.24926e-15 0)
(3 1.17293e-15 0)
(3 3.13273e-16 0)
(3 -1.2975e-15 0)
(3 -9.15762e-16 0)
(3 2.46266e-16 0)
(3 7.54834e-16 0)
(3 7.23664e-16 0)
(3 -7.31583e-16 0)
(3 -9.7283e-16 0)
(3 -2.56302e-16 0)
(3 9.24701e-16 0)
(3 2.00745e-15 0)
(3 1.73158e-15 0)
(3 1.85316e-15 0)
(3 2.2709e-15 0)
(3 3.04102e-15 0)
(3 2.68625e-15 0)
(3 1.17527e-15 0)
(3 -1.01683e-15 0)
(3 -4.89445e-16 0)
(3 1.13195e-15 0)
(3 1.30093e-15 0)
(3 -2.75053e-16 0)
(3 -1.5586e-15 0)
(3 5.88088e-16 0)
(1.50282 0.0361206 0)
(0.672613 0.0328031 0)
(0.61426 0.0475302 0)
(0.59855 0.036482 0)
(0.577174 0.0339638 0)
(0.555231 0.0340725 0)
(0.52878 0.0336071 0)
(0.50634 0.0327364 0)
(0.488991 0.0330599 0)
(0.478559 0.0343684 0)
(0.473186 0.0359412 0)
(0.468544 0.0371854 0)
(0.46182 0.0380306 0)
(0.450443 0.0385063 0)
(0.434328 0.0388023 0)
(0.416663 0.0385834 0)
(0.400678 0.038573 0)
(0.383669 0.0386398 0)
(0.36133 0.0380974 0)
(0.332443 0.0377988 0)
(0.303678 0.0375669 0)
(0.283547 0.0371518 0)
(0.275179 0.0375405 0)
(0.273452 0.0383082 0)
(0.268545 0.0378571 0)
(0.254417 0.0394621 0)
(0.236628 0.0416378 0)
(0.220365 0.0434537 0)
(0.205798 0.0441878 0)
(0.190094 0.0428776 0)
(0.168607 0.0415056 0)
(0.138558 0.0395961 0)
(0.114191 0.0383574 0)
(0.0889068 0.0383229 0)
(0.0743398 0.0381335 0)
(0.0711928 0.0385596 0)
(0.0718196 0.0388656 0)
(0.0751485 0.038984 0)
(0.072549 0.0390036 0)
(0.0571975 0.0386974 0)
(0.0169979 0.0385045 0)
(3 -1.32378e-16 0)
(3 -1.71232e-15 0)
(3 -2.04648e-15 0)
(3 -1.80568e-15 0)
(3 -1.50888e-15 0)
(3 -1.15435e-15 0)
(3 -1.16298e-15 0)
(3 -7.35614e-16 0)
(3 -7.52067e-16 0)
(3 -1.62366e-15 0)
(3 -2.0507e-15 0)
(3 -1.77923e-15 0)
(3 -1.11431e-15 0)
(3 -1.38268e-16 0)
(3 -1.93499e-17 0)
(3 -1.00062e-16 0)
(3 -2.84847e-16 0)
(3 3.14413e-16 0)
(3 1.1182e-15 0)
(3 9.68925e-16 0)
(3 -1.33948e-16 0)
(3 -1.08992e-15 0)
(3 -1.55862e-15 0)
(3 -1.51532e-15 0)
(3 -1.51089e-15 0)
(3 -1.45175e-15 0)
(3 -4.31461e-16 0)
(3 -9.76167e-17 0)
(3 -1.39841e-15 0)
(3 -2.02139e-15 0)
(3 -1.66336e-15 0)
(3 -1.62859e-15 0)
(3 -1.39731e-15 0)
(3 -5.32889e-16 0)
(3 -6.8165e-16 0)
(3 -5.83965e-16 0)
(3 -1.23295e-16 0)
(3 -8.46276e-17 0)
(3 6.73536e-17 0)
(3 -1.15039e-17 0)
(3 -1.46704e-16 0)
(3 -3.3506e-17 0)
(3 3.03303e-16 0)
(3 5.89215e-16 0)
(3 2.09677e-16 0)
(3 -2.14497e-17 0)
(3 -5.30062e-16 0)
(3 -8.49064e-16 0)
(3 -8.07069e-16 0)
(3 -1.11702e-16 0)
(3 -6.26299e-18 0)
(3 -4.79591e-17 0)
(3 3.12322e-16 0)
(3 9.741e-16 0)
(3 1.43629e-15 0)
(3 7.91748e-16 0)
(3 9.38565e-16 0)
(3 -1.47193e-16 0)
(3 -5.51531e-16 0)
(3 -5.52021e-16 0)
(3 -8.30989e-16 0)
(3 -1.72815e-15 0)
(3 -1.84605e-15 0)
(3 -1.6852e-15 0)
(3 -8.48831e-16 0)
(3 3.89894e-16 0)
(3 7.19855e-16 0)
(3 7.93672e-16 0)
(3 8.93219e-16 0)
(3 1.24023e-15 0)
(3 5.22139e-16 0)
(3 6.52995e-17 0)
(3 -5.31617e-16 0)
(3 -1.11126e-16 0)
(3 8.54921e-16 0)
(3 1.49028e-15 0)
(3 9.3099e-16 0)
(3 1.95763e-15 0)
(3 -2.32738e-15 0)
(1.53977 0.0500022 0)
(0.676679 0.0481201 0)
(0.613977 0.0649904 0)
(0.599833 0.0517444 0)
(0.578097 0.04731 0)
(0.556013 0.0469985 0)
(0.530089 0.0468692 0)
(0.508679 0.0462125 0)
(0.492078 0.0467248 0)
(0.48243 0.0484506 0)
(0.477059 0.0504165 0)
(0.471961 0.0520753 0)
(0.464603 0.0532669 0)
(0.452626 0.0539691 0)
(0.436094 0.0544443 0)
(0.418271 0.0542533 0)
(0.402034 0.0542865 0)
(0.384744 0.0543531 0)
(0.36207 0.053613 0)
(0.33286 0.0532048 0)
(0.304126 0.0529476 0)
(0.28422 0.052516 0)
(0.275975 0.0532737 0)
(0.274098 0.0544922 0)
(0.268794 0.0544926 0)
(0.253908 0.0569041 0)
(0.235036 0.0595964 0)
(0.217641 0.0614224 0)
(0.202322 0.0613405 0)
(0.186539 0.0587225 0)
(0.165242 0.0565032 0)
(0.136054 0.0542415 0)
(0.113269 0.052961 0)
(0.0887945 0.053153 0)
(0.0744743 0.0530007 0)
(0.0713085 0.0537748 0)
(0.0717622 0.0542251 0)
(0.0749075 0.0543732 0)
(0.0720613 0.0543241 0)
(0.0566531 0.0538546 0)
(0.0165786 0.0534209 0)
(3 5.62018e-17 0)
(3 -5.2857e-17 0)
(3 1.2653e-16 0)
(3 2.72536e-16 0)
(3 -5.15776e-16 0)
(3 -4.88027e-16 0)
(3 3.71713e-17 0)
(3 -2.74083e-16 0)
(3 -4.09104e-16 0)
(3 -1.36498e-15 0)
(3 -1.83294e-15 0)
(3 -1.72903e-15 0)
(3 -1.58732e-15 0)
(3 -1.04131e-15 0)
(3 -4.08878e-16 0)
(3 -3.95078e-16 0)
(3 -7.70341e-16 0)
(3 -7.55646e-16 0)
(3 -9.32285e-16 0)
(3 -7.2937e-16 0)
(3 -1.22232e-15 0)
(3 -2.31987e-15 0)
(3 -2.40359e-15 0)
(3 -1.47774e-15 0)
(3 -1.17496e-15 0)
(3 -1.2802e-15 0)
(3 -8.05461e-16 0)
(3 -1.14484e-15 0)
(3 -1.09429e-15 0)
(3 -3.66527e-16 0)
(3 -5.42604e-16 0)
(3 -7.51761e-16 0)
(3 -1.05725e-15 0)
(3 -6.61512e-16 0)
(3 -5.58028e-16 0)
(3 -3.40355e-16 0)
(3 2.32995e-16 0)
(3 4.08127e-16 0)
(3 4.8416e-16 0)
(3 -8.24827e-18 0)
(3 -9.21583e-16 0)
(3 -1.49338e-15 0)
(3 -9.94261e-16 0)
(3 -6.20321e-16 0)
(3 -9.00938e-16 0)
(3 -1.78303e-15 0)
(3 -1.19255e-15 0)
(3 -5.15724e-16 0)
(3 -5.61043e-16 0)
(3 -1.17654e-15 0)
(3 2.42253e-16 0)
(3 -3.33492e-16 0)
(3 -9.8146e-16 0)
(3 -4.90569e-16 0)
(3 -1.89036e-16 0)
(3 9.78087e-16 0)
(3 2.021e-15 0)
(3 6.7124e-16 0)
(3 -7.5894e-16 0)
(3 -1.755e-15 0)
(3 -1.59166e-15 0)
(3 -1.33938e-15 0)
(3 -1.24428e-15 0)
(3 -9.88075e-16 0)
(3 -3.48683e-16 0)
(3 6.86773e-18 0)
(3 4.33117e-16 0)
(3 8.83462e-16 0)
(3 9.85189e-16 0)
(3 7.32801e-16 0)
(3 3.91904e-17 0)
(3 -5.67176e-16 0)
(3 -4.07426e-16 0)
(3 -2.23849e-17 0)
(3 -4.82834e-17 0)
(3 9.00154e-16 0)
(3 2.22381e-15 0)
(3 4.07035e-15 0)
(3 1.57708e-15 0)
(1.58757 0.0644706 0)
(0.680554 0.0650483 0)
(0.612531 0.081217 0)
(0.600159 0.0663093 0)
(0.578055 0.0602838 0)
(0.555382 0.0597058 0)
(0.529994 0.060131 0)
(0.509863 0.0598643 0)
(0.494572 0.0607325 0)
(0.485967 0.0628742 0)
(0.480579 0.0651788 0)
(0.475026 0.0671739 0)
(0.467063 0.0686011 0)
(0.454522 0.0694245 0)
(0.437628 0.0700068 0)
(0.419821 0.0698493 0)
(0.403537 0.0699285 0)
(0.386176 0.0699868 0)
(0.363371 0.0690818 0)
(0.33406 0.0685952 0)
(0.305703 0.0683866 0)
(0.286379 0.0680372 0)
(0.278633 0.0692334 0)
(0.277005 0.0709446 0)
(0.271646 0.0715639 0)
(0.256356 0.0746256 0)
(0.236525 0.0777149 0)
(0.218021 0.0793789 0)
(0.201857 0.078292 0)
(0.185756 0.0743509 0)
(0.164253 0.0712922 0)
(0.135734 0.0685966 0)
(0.114391 0.0672578 0)
(0.0904977 0.0677149 0)
(0.076034 0.0676548 0)
(0.0724925 0.0689672 0)
(0.0724319 0.0696525 0)
(0.0751382 0.0698651 0)
(0.0717623 0.0697345 0)
(0.0561089 0.0690551 0)
(0.0160786 0.0683669 0)
(3 3.92942e-16 0)
(3 1.19843e-15 0)
(3 8.86794e-16 0)
(3 1.43581e-16 0)
(3 -2.46484e-16 0)
(3 -4.13792e-16 0)
(3 -2.1245e-16 0)
(3 -4.53679e-16 0)
(3 -8.22134e-16 0)
(3 -7.07166e-16 0)
(3 -7.94682e-16 0)
(3 -9.91824e-16 0)
(3 -1.06713e-15 0)
(3 -1.17823e-15 0)
(3 -1.17545e-15 0)
(3 -1.42393e-15 0)
(3 -1.6043e-15 0)
(3 -2.07715e-15 0)
(3 -2.993e-15 0)
(3 -2.98189e-15 0)
(3 -2.5656e-15 0)
(3 -3.21367e-15 0)
(3 -2.00996e-15 0)
(3 -1.14341e-15 0)
(3 -1.06145e-15 0)
(3 -7.76899e-16 0)
(3 -6.98442e-16 0)
(3 -2.02191e-16 0)
(3 9.7526e-16 0)
(3 1.16211e-15 0)
(3 6.50351e-16 0)
(3 1.20726e-15 0)
(3 1.10398e-15 0)
(3 2.58188e-17 0)
(3 1.87236e-16 0)
(3 2.73037e-16 0)
(3 -7.5526e-17 0)
(3 -4.013e-16 0)
(3 8.98472e-18 0)
(3 1.39259e-16 0)
(3 7.53157e-17 0)
(3 -2.1273e-16 0)
(3 -9.53385e-16 0)
(3 -8.10117e-16 0)
(3 -8.0011e-16 0)
(3 -9.66876e-16 0)
(3 -5.04386e-16 0)
(3 -1.72109e-16 0)
(3 -7.05605e-16 0)
(3 -2.06436e-15 0)
(3 -1.48968e-15 0)
(3 -9.78671e-16 0)
(3 -7.00707e-16 0)
(3 -5.47715e-16 0)
(3 -1.24588e-16 0)
(3 7.26954e-16 0)
(3 1.10752e-15 0)
(3 1.52959e-15 0)
(3 1.13836e-15 0)
(3 6.04105e-16 0)
(3 8.74677e-16 0)
(3 1.19769e-15 0)
(3 1.18683e-15 0)
(3 2.20484e-16 0)
(3 -7.68668e-18 0)
(3 7.75484e-17 0)
(3 2.85081e-16 0)
(3 6.29319e-16 0)
(3 9.62102e-16 0)
(3 5.3819e-16 0)
(3 2.70386e-16 0)
(3 3.2489e-16 0)
(3 2.9396e-16 0)
(3 1.2534e-16 0)
(3 1.38126e-16 0)
(3 7.30319e-16 0)
(3 1.88602e-15 0)
(3 2.67732e-15 0)
(3 4.01685e-15 0)
(1.64992 0.0791798 0)
(0.685942 0.0833038 0)
(0.610802 0.0966616 0)
(0.599957 0.0799432 0)
(0.577379 0.0729096 0)
(0.554063 0.0722612 0)
(0.529955 0.0731887 0)
(0.511331 0.0733701 0)
(0.497764 0.0747409 0)
(0.489927 0.0773712 0)
(0.484193 0.0801048 0)
(0.478012 0.0824256 0)
(0.469334 0.0839851 0)
(0.456173 0.0847843 0)
(0.438919 0.0853731 0)
(0.421128 0.0852386 0)
(0.404809 0.0853823 0)
(0.38739 0.0854513 0)
(0.364472 0.0844254 0)
(0.335154 0.0839023 0)
(0.307457 0.0838211 0)
(0.289005 0.083643 0)
(0.282026 0.0853827 0)
(0.280884 0.0875049 0)
(0.275657 0.0888587 0)
(0.26017 0.092668 0)
(0.239464 0.0961302 0)
(0.219856 0.0976308 0)
(0.202702 0.0955245 0)
(0.18599 0.0901488 0)
(0.163995 0.0861525 0)
(0.136068 0.0829722 0)
(0.116047 0.0815795 0)
(0.0926224 0.0823542 0)
(0.0777838 0.0824443 0)
(0.0736699 0.0843592 0)
(0.07288 0.0852943 0)
(0.0750104 0.0855565 0)
(0.0710028 0.0852871 0)
(0.0551307 0.0843097 0)
(0.0153595 0.0833295 0)
(3 -2.50628e-16 0)
(3 6.54074e-17 0)
(3 1.12534e-16 0)
(3 -2.62582e-16 0)
(3 -1.491e-16 0)
(3 -5.3427e-17 0)
(3 -5.60989e-17 0)
(3 2.02935e-16 0)
(3 7.37123e-17 0)
(3 4.08566e-16 0)
(3 3.46008e-16 0)
(3 -2.75404e-16 0)
(3 -6.5564e-16 0)
(3 -9.60197e-16 0)
(3 -8.51588e-16 0)
(3 -5.89934e-16 0)
(3 -1.06648e-15 0)
(3 -2.08505e-15 0)
(3 -2.5282e-15 0)
(3 -2.36761e-15 0)
(3 -1.27376e-15 0)
(3 -1.70172e-16 0)
(3 2.81606e-16 0)
(3 6.95095e-17 0)
(3 3.69971e-16 0)
(3 -3.80003e-17 0)
(3 -2.7138e-16 0)
(3 -9.22504e-19 0)
(3 3.06512e-16 0)
(3 -9.27191e-16 0)
(3 -1.06583e-15 0)
(3 1.85192e-16 0)
(3 2.91344e-16 0)
(3 1.82633e-16 0)
(3 4.06743e-17 0)
(3 -6.08247e-16 0)
(3 -1.37913e-15 0)
(3 -1.25471e-15 0)
(3 -5.58514e-16 0)
(3 2.03391e-16 0)
(3 8.51709e-16 0)
(3 1.14365e-15 0)
(3 8.95261e-16 0)
(3 8.19858e-16 0)
(3 7.28597e-16 0)
(3 1.03341e-15 0)
(3 1.33105e-15 0)
(3 8.3866e-16 0)
(3 -8.09056e-16 0)
(3 -1.76779e-15 0)
(3 -1.76634e-15 0)
(3 -6.9518e-16 0)
(3 2.70114e-16 0)
(3 2.15677e-16 0)
(3 7.04366e-16 0)
(3 1.28576e-15 0)
(3 1.25322e-15 0)
(3 1.14146e-15 0)
(3 2.24036e-15 0)
(3 2.04565e-15 0)
(3 1.42536e-15 0)
(3 2.00349e-15 0)
(3 1.95773e-15 0)
(3 1.94042e-15 0)
(3 1.16669e-15 0)
(3 2.99581e-16 0)
(3 5.59398e-17 0)
(3 -1.27415e-16 0)
(3 1.75524e-16 0)
(3 4.44385e-16 0)
(3 1.37186e-15 0)
(3 2.1331e-15 0)
(3 1.03348e-15 0)
(3 4.062e-16 0)
(3 -4.93676e-16 0)
(3 -4.32358e-16 0)
(3 -3.08442e-16 0)
(3 7.12021e-16 0)
(3 -1.45024e-15 0)
(1.72783 0.0934605 0)
(0.692809 0.103021 0)
(0.609148 0.111497 0)
(0.599738 0.0925395 0)
(0.576609 0.0848956 0)
(0.552626 0.0845152 0)
(0.530516 0.0861956 0)
(0.513311 0.0871096 0)
(0.501663 0.0891615 0)
(0.494208 0.0922337 0)
(0.487948 0.0953756 0)
(0.480991 0.0978962 0)
(0.471365 0.0994304 0)
(0.457382 0.10006 0)
(0.439739 0.10056 0)
(0.421903 0.100423 0)
(0.405512 0.100616 0)
(0.388003 0.100674 0)
(0.364952 0.0995312 0)
(0.335722 0.0990279 0)
(0.309008 0.0991805 0)
(0.291662 0.0993167 0)
(0.28559 0.101663 0)
(0.284989 0.104193 0)
(0.279987 0.106195 0)
(0.264467 0.110652 0)
(0.242966 0.114557 0)
(0.222214 0.11603 0)
(0.203912 0.11305 0)
(0.186374 0.106399 0)
(0.16385 0.101427 0)
(0.136669 0.0976459 0)
(0.11806 0.0961196 0)
(0.0951888 0.0971844 0)
(0.0799126 0.0974442 0)
(0.0751215 0.099946 0)
(0.0734179 0.101131 0)
(0.0747861 0.101399 0)
(0.0699868 0.100942 0)
(0.0538152 0.0996073 0)
(0.0144866 0.098262 0)
(3 9.40159e-17 0)
(3 6.27676e-17 0)
(3 5.56422e-16 0)
(3 7.75947e-16 0)
(3 3.47099e-16 0)
(3 7.4953e-16 0)
(3 8.00031e-16 0)
(3 1.02819e-15 0)
(3 1.22223e-15 0)
(3 1.02515e-15 0)
(3 4.54353e-16 0)
(3 1.85213e-16 0)
(3 -4.20257e-16 0)
(3 -5.60326e-17 0)
(3 -5.94252e-17 0)
(3 -2.24421e-17 0)
(3 -2.47866e-16 0)
(3 -2.4423e-16 0)
(3 -3.98633e-16 0)
(3 -1.38485e-16 0)
(3 -3.60403e-16 0)
(3 1.16516e-16 0)
(3 7.0788e-16 0)
(3 1.23119e-15 0)
(3 1.08648e-15 0)
(3 -2.74734e-17 0)
(3 -1.06182e-15 0)
(3 -1.5715e-15 0)
(3 -1.53585e-15 0)
(3 -1.48967e-15 0)
(3 -1.44794e-15 0)
(3 -1.34337e-15 0)
(3 -1.31431e-15 0)
(3 -9.67502e-16 0)
(3 -6.90218e-16 0)
(3 -1.01252e-15 0)
(3 -1.42352e-15 0)
(3 -1.79623e-15 0)
(3 -1.96388e-15 0)
(3 -1.55954e-15 0)
(3 -9.94046e-16 0)
(3 -8.50814e-16 0)
(3 -4.45175e-18 0)
(3 6.57497e-16 0)
(3 1.22905e-15 0)
(3 1.67954e-15 0)
(3 1.60712e-15 0)
(3 9.32795e-16 0)
(3 -3.51641e-16 0)
(3 -2.86823e-16 0)
(3 -8.7202e-16 0)
(3 -1.5903e-15 0)
(3 -1.43983e-15 0)
(3 -4.22342e-16 0)
(3 3.49384e-16 0)
(3 1.07966e-15 0)
(3 1.02653e-15 0)
(3 1.22686e-15 0)
(3 1.51205e-15 0)
(3 1.11876e-15 0)
(3 8.80947e-16 0)
(3 7.522e-16 0)
(3 1.06382e-15 0)
(3 1.6324e-15 0)
(3 2.02483e-15 0)
(3 1.51917e-15 0)
(3 1.10785e-15 0)
(3 1.28433e-15 0)
(3 1.50011e-15 0)
(3 2.24159e-15 0)
(3 3.15863e-15 0)
(3 2.97241e-15 0)
(3 2.01655e-15 0)
(3 8.91074e-16 0)
(3 6.0607e-16 0)
(3 9.57013e-16 0)
(3 7.05209e-16 0)
(3 9.15124e-18 0)
(3 2.89604e-16 0)
(1.822 0.106992 0)
(0.701579 0.123969 0)
(0.607817 0.12544 0)
(0.59962 0.103862 0)
(0.575759 0.0960409 0)
(0.55177 0.0966311 0)
(0.532011 0.0995808 0)
(0.516626 0.101328 0)
(0.506603 0.103974 0)
(0.499173 0.107475 0)
(0.492192 0.110988 0)
(0.484233 0.113568 0)
(0.473386 0.114893 0)
(0.45849 0.115252 0)
(0.440595 0.115594 0)
(0.422645 0.115437 0)
(0.406094 0.11566 0)
(0.38837 0.11565 0)
(0.36511 0.114353 0)
(0.336073 0.113941 0)
(0.310629 0.114446 0)
(0.294533 0.115056 0)
(0.289331 0.118031 0)
(0.289097 0.120892 0)
(0.284288 0.123406 0)
(0.26882 0.128421 0)
(0.246607 0.132736 0)
(0.224688 0.134362 0)
(0.205138 0.130886 0)
(0.186678 0.123189 0)
(0.163751 0.117156 0)
(0.137557 0.112712 0)
(0.120496 0.110972 0)
(0.0983033 0.112249 0)
(0.0825508 0.112695 0)
(0.07697 0.115722 0)
(0.0741186 0.117162 0)
(0.0744696 0.11739 0)
(0.0686715 0.11671 0)
(0.0521105 0.114998 0)
(0.0134574 0.113239 0)
(3 4.64247e-16 0)
(3 3.86895e-16 0)
(3 2.77721e-16 0)
(3 3.89225e-16 0)
(3 3.35852e-16 0)
(3 6.37529e-16 0)
(3 1.02974e-15 0)
(3 7.62044e-16 0)
(3 2.2004e-16 0)
(3 -8.06708e-17 0)
(3 -1.76876e-16 0)
(3 4.27891e-17 0)
(3 -2.1664e-16 0)
(3 -4.11553e-16 0)
(3 -8.99902e-16 0)
(3 -1.1906e-15 0)
(3 -1.01174e-15 0)
(3 -3.5259e-16 0)
(3 -3.18699e-17 0)
(3 4.46823e-16 0)
(3 2.95151e-16 0)
(3 2.85675e-16 0)
(3 1.96112e-16 0)
(3 4.11979e-16 0)
(3 -3.71557e-16 0)
(3 -1.96421e-16 0)
(3 -3.52798e-16 0)
(3 -1.16366e-15 0)
(3 -1.21341e-15 0)
(3 -9.84309e-16 0)
(3 -9.90029e-16 0)
(3 -1.30873e-15 0)
(3 -9.54263e-16 0)
(3 -6.83105e-16 0)
(3 -6.70455e-16 0)
(3 -2.53393e-16 0)
(3 -7.04669e-16 0)
(3 -2.16637e-15 0)
(3 -2.76076e-15 0)
(3 -3.00394e-15 0)
(3 -3.15036e-15 0)
(3 -2.80075e-15 0)
(3 -1.13512e-15 0)
(3 -5.55307e-16 0)
(3 4.68787e-16 0)
(3 8.9332e-16 0)
(3 -2.44947e-16 0)
(3 -4.94662e-16 0)
(3 -1.85881e-16 0)
(3 6.33246e-16 0)
(3 -8.21987e-17 0)
(3 -1.23935e-15 0)
(3 -2.10611e-15 0)
(3 -1.7812e-15 0)
(3 -1.15648e-15 0)
(3 -2.99946e-16 0)
(3 3.81204e-16 0)
(3 1.03779e-15 0)
(3 2.37298e-16 0)
(3 3.49191e-18 0)
(3 2.03845e-16 0)
(3 3.56099e-16 0)
(3 7.19171e-16 0)
(3 1.08055e-15 0)
(3 2.12821e-15 0)
(3 2.35068e-15 0)
(3 2.54073e-15 0)
(3 2.41276e-15 0)
(3 2.54664e-15 0)
(3 3.81022e-15 0)
(3 4.02599e-15 0)
(3 3.43659e-15 0)
(3 2.70383e-15 0)
(3 2.2415e-15 0)
(3 2.27494e-15 0)
(3 1.84993e-15 0)
(3 1.31627e-15 0)
(3 9.38924e-16 0)
(3 -1.4912e-15 0)
(1.93306 0.119584 0)
(0.712672 0.145754 0)
(0.606933 0.137828 0)
(0.599537 0.113726 0)
(0.574723 0.106422 0)
(0.552486 0.109122 0)
(0.534543 0.113904 0)
(0.521316 0.116316 0)
(0.51232 0.119295 0)
(0.504694 0.123203 0)
(0.496817 0.126935 0)
(0.487617 0.129345 0)
(0.47531 0.130294 0)
(0.459644 0.130327 0)
(0.441628 0.130514 0)
(0.42355 0.130353 0)
(0.406713 0.130595 0)
(0.388607 0.130444 0)
(0.365109 0.128929 0)
(0.336524 0.128714 0)
(0.312672 0.129684 0)
(0.297839 0.130963 0)
(0.293291 0.134468 0)
(0.293065 0.137581 0)
(0.288322 0.140455 0)
(0.272926 0.145905 0)
(0.250038 0.150626 0)
(0.226905 0.152606 0)
(0.206046 0.148919 0)
(0.186606 0.140541 0)
(0.163505 0.133301 0)
(0.138625 0.128183 0)
(0.123268 0.126214 0)
(0.10192 0.127588 0)
(0.085687 0.12824 0)
(0.0791909 0.131702 0)
(0.0749381 0.133325 0)
(0.0740533 0.133531 0)
(0.0670538 0.132607 0)
(0.0499736 0.130521 0)
(0.0122744 0.128332 0)
(3 -3.51596e-16 0)
(3 -3.84502e-16 0)
(3 -7.94782e-16 0)
(3 -7.44542e-16 0)
(3 3.10597e-16 0)
(3 1.6223e-16 0)
(3 2.26063e-16 0)
(3 8.89374e-17 0)
(3 -4.28904e-16 0)
(3 -3.53601e-16 0)
(3 -8.73387e-17 0)
(3 4.95805e-17 0)
(3 3.99002e-16 0)
(3 -1.66121e-16 0)
(3 -7.17808e-16 0)
(3 -1.18932e-15 0)
(3 -1.55877e-15 0)
(3 -1.4864e-15 0)
(3 -5.45511e-16 0)
(3 5.01254e-16 0)
(3 9.1745e-16 0)
(3 1.00318e-15 0)
(3 7.22789e-16 0)
(3 -2.62564e-16 0)
(3 -3.69009e-16 0)
(3 2.93944e-17 0)
(3 2.7958e-16 0)
(3 -1.65025e-16 0)
(3 -8.20958e-16 0)
(3 -1.72761e-15 0)
(3 -1.77287e-15 0)
(3 -1.79448e-15 0)
(3 -1.18818e-15 0)
(3 -1.05975e-15 0)
(3 -1.29128e-15 0)
(3 -7.8765e-16 0)
(3 -8.59458e-16 0)
(3 -1.19881e-15 0)
(3 -2.37469e-15 0)
(3 -2.3333e-15 0)
(3 -1.75397e-15 0)
(3 -9.65341e-16 0)
(3 -8.80216e-16 0)
(3 -1.25914e-15 0)
(3 -6.83253e-16 0)
(3 -5.48274e-16 0)
(3 -7.73345e-16 0)
(3 -8.26407e-16 0)
(3 -5.67107e-16 0)
(3 -7.5107e-16 0)
(3 -5.49731e-16 0)
(3 -1.25965e-15 0)
(3 -2.29265e-15 0)
(3 -2.49769e-15 0)
(3 -2.14112e-15 0)
(3 -1.70218e-15 0)
(3 -1.15129e-15 0)
(3 -7.41223e-16 0)
(3 -1.50154e-16 0)
(3 7.66874e-16 0)
(3 1.10304e-15 0)
(3 2.30668e-15 0)
(3 2.56826e-15 0)
(3 2.44594e-15 0)
(3 1.99811e-15 0)
(3 1.94215e-15 0)
(3 2.35745e-15 0)
(3 2.18599e-15 0)
(3 1.28429e-15 0)
(3 1.04198e-15 0)
(3 2.56658e-15 0)
(3 2.97219e-15 0)
(3 2.45244e-15 0)
(3 2.04353e-15 0)
(3 2.44276e-15 0)
(3 1.57452e-15 0)
(3 7.63432e-16 0)
(3 1.33036e-15 0)
(3 -2.27919e-15 0)
(2.06249 0.130223 0)
(0.727 0.167477 0)
(0.607022 0.147743 0)
(0.59957 0.122125 0)
(0.574168 0.116788 0)
(0.554875 0.122941 0)
(0.538499 0.129272 0)
(0.527085 0.13195 0)
(0.518651 0.135075 0)
(0.510662 0.139342 0)
(0.501614 0.143075 0)
(0.490895 0.145087 0)
(0.477046 0.145543 0)
(0.460945 0.145268 0)
(0.442925 0.145354 0)
(0.424776 0.145217 0)
(0.407487 0.145464 0)
(0.388808 0.145101 0)
(0.365109 0.143318 0)
(0.337415 0.143448 0)
(0.315506 0.144989 0)
(0.301756 0.147128 0)
(0.297501 0.151014 0)
(0.296898 0.15427 0)
(0.292057 0.157358 0)
(0.276703 0.163115 0)
(0.253184 0.168244 0)
(0.228793 0.170722 0)
(0.206604 0.167104 0)
(0.186161 0.158333 0)
(0.16316 0.149803 0)
(0.139894 0.144043 0)
(0.126321 0.141879 0)
(0.105972 0.143207 0)
(0.0892055 0.144089 0)
(0.0816196 0.147894 0)
(0.0757614 0.149626 0)
(0.0734495 0.14978 0)
(0.0650799 0.148633 0)
(0.0473629 0.146204 0)
(0.0109403 0.14359 0)
(3 -2.28084e-16 0)
(3 -1.8169e-16 0)
(3 -8.82436e-17 0)
(3 9.81343e-17 0)
(3 5.77267e-16 0)
(3 9.7862e-16 0)
(3 2.83029e-16 0)
(3 -3.21653e-16 0)
(3 -7.26534e-16 0)
(3 -9.60431e-16 0)
(3 -5.16057e-16 0)
(3 2.71009e-18 0)
(3 3.12511e-16 0)
(3 2.22588e-16 0)
(3 5.29961e-16 0)
(3 3.73887e-16 0)
(3 -1.50366e-16 0)
(3 -1.13165e-16 0)
(3 1.58281e-16 0)
(3 2.35257e-16 0)
(3 6.69528e-16 0)
(3 7.05807e-16 0)
(3 3.56989e-16 0)
(3 1.50827e-16 0)
(3 3.74765e-16 0)
(3 4.58103e-16 0)
(3 1.75994e-16 0)
(3 5.38245e-16 0)
(3 7.11367e-16 0)
(3 -3.27903e-17 0)
(3 -8.73599e-16 0)
(3 -1.60307e-15 0)
(3 -2.41121e-15 0)
(3 -2.33842e-15 0)
(3 -1.70285e-15 0)
(3 -6.7807e-16 0)
(3 5.27286e-16 0)
(3 7.95716e-16 0)
(3 -5.56728e-16 0)
(3 -9.15925e-16 0)
(3 -6.2009e-16 0)
(3 -8.58332e-16 0)
(3 -1.97475e-15 0)
(3 -1.82176e-15 0)
(3 -1.72338e-15 0)
(3 -2.04454e-15 0)
(3 -1.94844e-15 0)
(3 -4.2411e-16 0)
(3 -5.23377e-16 0)
(3 -6.2824e-16 0)
(3 -6.77245e-16 0)
(3 -8.41846e-16 0)
(3 -2.07355e-15 0)
(3 -2.95318e-15 0)
(3 -2.34463e-15 0)
(3 -1.80901e-15 0)
(3 -9.29714e-16 0)
(3 -4.3578e-16 0)
(3 4.06604e-16 0)
(3 6.28876e-16 0)
(3 3.58046e-16 0)
(3 -5.06199e-16 0)
(3 3.79037e-16 0)
(3 1.75961e-15 0)
(3 2.27395e-15 0)
(3 2.14738e-15 0)
(3 2.22639e-15 0)
(3 2.32469e-15 0)
(3 1.25782e-15 0)
(3 -1.65312e-15 0)
(3 -1.25531e-15 0)
(3 3.93229e-18 0)
(3 1.84641e-15 0)
(3 3.46081e-15 0)
(3 4.51684e-15 0)
(3 3.95316e-15 0)
(3 3.92521e-15 0)
(3 3.22701e-15 0)
(3 1.2502e-15 0)
(2.21256 0.137469 0)
(0.746489 0.1881 0)
(0.608933 0.154862 0)
(0.599815 0.129703 0)
(0.575934 0.128621 0)
(0.558293 0.138937 0)
(0.543586 0.145815 0)
(0.533597 0.147964 0)
(0.525456 0.151258 0)
(0.516757 0.15581 0)
(0.506182 0.159192 0)
(0.493605 0.160557 0)
(0.478652 0.160494 0)
(0.462355 0.160082 0)
(0.444542 0.16014 0)
(0.426332 0.160046 0)
(0.408404 0.160274 0)
(0.388948 0.159642 0)
(0.36514 0.157613 0)
(0.339136 0.158249 0)
(0.319174 0.160496 0)
(0.306539 0.163583 0)
(0.301943 0.167724 0)
(0.300684 0.170999 0)
(0.295583 0.174168 0)
(0.28023 0.180149 0)
(0.256129 0.185602 0)
(0.230436 0.188655 0)
(0.206898 0.185333 0)
(0.185425 0.176414 0)
(0.16274 0.166673 0)
(0.141358 0.160366 0)
(0.129681 0.157984 0)
(0.110516 0.159093 0)
(0.0931271 0.160217 0)
(0.0842163 0.164305 0)
(0.0765721 0.166097 0)
(0.0726573 0.16616 0)
(0.0627966 0.164788 0)
(0.04432 0.16206 0)
(0.00948746 0.159042 0)
(3 3.88782e-16 0)
(3 1.01949e-15 0)
(3 1.12145e-15 0)
(3 1.2768e-15 0)
(3 1.45023e-15 0)
(3 1.49606e-15 0)
(3 2.20076e-16 0)
(3 -4.73535e-16 0)
(3 -9.90065e-16 0)
(3 -1.55778e-15 0)
(3 -1.81589e-15 0)
(3 -1.35137e-15 0)
(3 -7.83521e-16 0)
(3 -1.54227e-16 0)
(3 3.88186e-16 0)
(3 9.21223e-16 0)
(3 3.67919e-16 0)
(3 7.56412e-17 0)
(3 -8.15725e-16 0)
(3 -6.45089e-16 0)
(3 2.05443e-16 0)
(3 3.09165e-16 0)
(3 2.76605e-16 0)
(3 2.2758e-16 0)
(3 7.48431e-16 0)
(3 5.37374e-16 0)
(3 1.32048e-16 0)
(3 8.37685e-17 0)
(3 4.61964e-16 0)
(3 1.04487e-15 0)
(3 8.91749e-16 0)
(3 -9.26861e-18 0)
(3 -2.65839e-16 0)
(3 -5.60524e-16 0)
(3 -6.21258e-16 0)
(3 -5.71557e-16 0)
(3 7.41697e-16 0)
(3 1.12122e-15 0)
(3 1.12e-15 0)
(3 1.56435e-15 0)
(3 3.68879e-16 0)
(3 -2.58894e-16 0)
(3 -1.99291e-15 0)
(3 -2.06194e-15 0)
(3 -2.35429e-15 0)
(3 -1.61131e-15 0)
(3 -1.10264e-15 0)
(3 -1.8733e-16 0)
(3 1.97685e-16 0)
(3 5.55005e-16 0)
(3 7.57351e-17 0)
(3 1.19533e-16 0)
(3 -4.23043e-16 0)
(3 -3.58585e-16 0)
(3 -3.5397e-16 0)
(3 -2.54209e-16 0)
(3 -1.45425e-16 0)
(3 4.76252e-16 0)
(3 1.16784e-15 0)
(3 1.92921e-15 0)
(3 2.11716e-15 0)
(3 1.10952e-15 0)
(3 1.12107e-15 0)
(3 1.98917e-15 0)
(3 2.24976e-15 0)
(3 2.20014e-15 0)
(3 1.48433e-15 0)
(3 1.06887e-15 0)
(3 1.80714e-16 0)
(3 -6.79644e-16 0)
(3 -1.05074e-15 0)
(3 2.26455e-16 0)
(3 2.76106e-15 0)
(3 3.41058e-15 0)
(3 3.46264e-15 0)
(3 2.73742e-15 0)
(3 2.3467e-15 0)
(3 2.04153e-15 0)
(3 -9.62659e-16 0)
(2.38296 0.138778 0)
(0.774099 0.205362 0)
(0.611238 0.159027 0)
(0.599882 0.13773 0)
(0.580163 0.14388 0)
(0.562411 0.157021 0)
(0.549487 0.16274 0)
(0.54078 0.164133 0)
(0.532571 0.167788 0)
(0.522598 0.172348 0)
(0.510248 0.174958 0)
(0.495851 0.175652 0)
(0.480346 0.175175 0)
(0.464104 0.174797 0)
(0.446589 0.174899 0)
(0.428228 0.174844 0)
(0.409449 0.175009 0)
(0.389056 0.174059 0)
(0.365245 0.171905 0)
(0.342065 0.173239 0)
(0.323766 0.176272 0)
(0.312251 0.180296 0)
(0.30668 0.184625 0)
(0.304533 0.187807 0)
(0.299041 0.190942 0)
(0.283666 0.197006 0)
(0.259039 0.202726 0)
(0.232011 0.206438 0)
(0.207061 0.203515 0)
(0.184527 0.194687 0)
(0.162375 0.183959 0)
(0.14312 0.177165 0)
(0.133455 0.17448 0)
(0.115664 0.175248 0)
(0.0975548 0.176608 0)
(0.0870517 0.180921 0)
(0.0774105 0.182759 0)
(0.0717098 0.182708 0)
(0.0602748 0.181102 0)
(0.040916 0.178115 0)
(0.00797356 0.17473 0)
(3 -1.14203e-16 0)
(3 -3.75024e-17 0)
(3 -1.19906e-16 0)
(3 -1.92343e-16 0)
(3 -2.5139e-16 0)
(3 -9.68522e-16 0)
(3 -1.26666e-15 0)
(3 -1.25565e-15 0)
(3 -1.46545e-15 0)
(3 -1.56708e-15 0)
(3 -1.47669e-15 0)
(3 -1.2212e-15 0)
(3 -1.07234e-15 0)
(3 -6.04057e-16 0)
(3 -9.51052e-16 0)
(3 -6.72781e-16 0)
(3 -6.01418e-16 0)
(3 1.68278e-16 0)
(3 7.09637e-16 0)
(3 6.63407e-16 0)
(3 2.74792e-16 0)
(3 3.21363e-16 0)
(3 8.40045e-16 0)
(3 1.41759e-15 0)
(3 1.17928e-15 0)
(3 3.87177e-16 0)
(3 6.28942e-16 0)
(3 5.24755e-16 0)
(3 7.59483e-17 0)
(3 4.58123e-16 0)
(3 1.54045e-15 0)
(3 2.07718e-15 0)
(3 9.50836e-16 0)
(3 -3.2626e-16 0)
(3 -8.3446e-16 0)
(3 -8.78142e-16 0)
(3 -6.61704e-16 0)
(3 -3.9395e-16 0)
(3 4.96182e-16 0)
(3 5.77801e-16 0)
(3 -1.34782e-16 0)