/*--------------------------------*- C++ -*----------------------------------*\
  =========                 |
  \\      /  F ield         | OpenFOAM: The Open Source CFD Toolbox
   \\    /   O peration     | Website:  https://openfoam.org
    \\  /    A nd           | Version:  7
     \\/     M anipulation  |
\*---------------------------------------------------------------------------*/
FoamFile
{
    version     2.0;
    format      ascii;
    class       volScalarField;
    location    "0.8";
    object      p;
}
// * * * * * * * * * * * * * * * * * * * * * * * * * * * * * * * * * * * * * //

dimensions      [0 2 -2 0 0 0 0];

internalField   nonuniform List<scalar> 
344
(
-0.0423538
-0.191564
-0.305243
-0.388082
-0.236228
-0.363255
-0.455209
-0.517221
-0.449593
-0.542553
-0.605991
-0.644529
-0.649136
-0.699697
-0.734299
-0.754469
-0.788938
-0.801586
-0.818394
-0.836527
1.01598
1.03404
1.04672
1.05484
-0.443979
-0.477797
-0.495885
-0.504417
-0.507065
-0.505489
-0.499781
-0.490584
-0.478439
-0.46365
-0.44643
-0.427
-0.405615
-0.38256
-0.358146
-0.332709
-0.30661
-0.280232
-0.253974
-0.228244
-0.203446
-0.179974
-0.158195
-0.138439
-0.120986
-0.106052
-0.0937772
-0.0842176
-0.0773341
-0.0729869
-0.0709304
-0.0708123
-0.0721741
-0.0744568
-0.0770085
-0.0790955
-0.0799204
-0.0786409
-0.0743927
-0.0663185
-0.0536009
-0.0354967
-0.0113742
0.0192489
0.0566682
0.100959
0.151947
0.209191
0.271973
0.339311
0.40998
0.482561
0.555506
0.627214
0.696123
0.760799
0.820022
0.872853
0.918686
0.95726
0.988658
1.01326
1.03168
1.04469
1.0531
-0.552627
-0.565368
-0.56456
-0.55908
-0.551444
-0.541606
-0.529743
-0.515871
-0.500016
-0.482165
-0.462338
-0.440626
-0.41719
-0.392246
-0.366057
-0.338929
-0.311207
-0.283271
-0.255525
-0.228388
-0.202286
-0.177634
-0.154823
-0.134211
-0.1161
-0.10073
-0.0882586
-0.0787561
-0.0721916
-0.068427
-0.0672118
-0.0681816
-0.0708597
-0.0746614
-0.0789027
-0.0828101
-0.0855421
-0.0862085
-0.0838901
-0.0776723
-0.0666792
-0.05011
-0.027278
0.00234891
0.039108
0.0831048
0.134181
0.191892
0.2555
0.323977
0.396038
0.470184
0.544776
0.618121
0.68857
0.754617
0.814994
0.868744
0.915267
0.954341
0.986097
1.01097
1.02962
1.04285
1.05149
-0.657219
-0.644959
-0.623427
-0.603716
-0.58701
-0.570979
-0.554484
-0.537098
-0.518475
-0.498331
-0.476519
-0.453032
-0.427961
-0.401474
-0.373802
-0.345234
-0.31611
-0.286808
-0.257744
-0.22935
-0.202071
-0.176342
-0.15258
-0.131164
-0.112418
-0.0966
-0.0838855
-0.0743548
-0.0679837
-0.0646357
-0.0640548
-0.0658639
-0.0695701
-0.0745674
-0.0801458
-0.0854946
-0.0897321
-0.0919314
-0.0911221
-0.0863393
-0.0766573
-0.0612264
-0.0393138
-0.010347
0.0260434
0.0699833
0.121321
0.179601
0.244054
0.313606
0.386904
0.462371
0.538283
0.612863
0.684391
0.751312
0.812335
0.866509
0.913272
0.952454
0.98425
1.00915
1.02785
1.04118
1.04997
-0.747239
-0.705786
-0.664425
-0.63493
-0.612504
-0.592527
-0.573224
-0.553752
-0.533435
-0.51181
-0.488649
-0.463898
-0.437618
-0.409957
-0.381135
-0.351437
-0.321202
-0.290816
-0.260701
-0.231303
-0.20308
-0.176485
-0.151952
-0.129873
-0.110591
-0.0943727
-0.0814038
-0.0717706
-0.0654518
-0.0623105
-0.0620884
-0.064396
-0.0687262
-0.0744533
-0.0808537
-0.087085
-0.0922342
-0.095362
-0.0954378
-0.0914632
-0.0824778
-0.067597
-0.0460569
-0.0172598
0.0191797
0.0633925
0.115218
0.174176
0.239457
0.30993
0.384177
0.460546
0.537241
0.612428
0.684344
0.751421
0.812386
0.866333
0.912765
0.951585
0.983054
1.00771
1.02628
1.03957
1.04843
-0.81809
-0.745497
-0.690284
-0.65558
-0.629944
-0.607825
-0.587155
-0.566622
-0.545321
-0.522742
-0.498654
-0.473003
-0.445848
-0.417338
-0.387696
-0.357206
-0.326209
-0.295096
-0.264291
-0.234248
-0.205429
-0.178294
-0.153278
-0.130782
-0.111145
-0.0946395
-0.0814487
-0.0716578
-0.0652429
-0.0620627
-0.0618574
-0.064232
-0.0686834
-0.0745649
-0.0811264
-0.0875213
-0.0927892
-0.0960894
-0.0962483
-0.0922792
-0.0832085
-0.068136
-0.046287
-0.0170605
0.0199233
0.0647781
0.117314
0.177009
0.243001
0.3141
0.388824
0.465464
0.542183
0.617124
0.688533
0.754881
0.814961
0.867952
0.913447
0.951432
)
;

boundaryField
{
    inlet
    {
        type            zeroGradient;
    }
    outlet
    {
        type            fixedValue;
        value           nonuniform 0();
    }
    wall
    {
        type            zeroGradient;
    }
    wedge1
    {
        type            wedge;
    }
    wedge2
    {
        type            wedge;
    }
    axis
    {
        type            empty;
    }
    procBoundary15to9
    {
        type            processor;
        value           nonuniform List<scalar> 
70
(
0.123578
-0.0389745
-0.167892
-0.267047
1.01899
1.0366
1.04891
1.05669
-0.339684
-0.390445
-0.424364
-0.446095
-0.45918
-0.465638
-0.466588
-0.462785
-0.454936
-0.443688
-0.429479
-0.412673
-0.393624
-0.372693
-0.350245
-0.326653
-0.3023
-0.277577
-0.252881
-0.22861
-0.205152
-0.182878
-0.162133
-0.143221
-0.126396
-0.111853
-0.0997131
-0.0900175
-0.0827188
-0.0776751
-0.0746458
-0.0732907
-0.0731713
-0.0737552
-0.0744241
-0.074486
-0.0731905
-0.0697472
-0.0633488
-0.0531988
-0.0385413
-0.0186948
0.0069136
0.0387121
0.0769505
0.121669
0.172675
0.229523
0.291514
0.357702
0.426924
0.497837
0.568981
0.638851
0.705975
0.769001
0.826767
0.878372
0.923216
0.961021
0.991832
0.991832
)
;
    }
    procBoundary15to10
    {
        type            processor;
        value           nonuniform List<scalar> 2(1.05921 1.05775);
    }
    procBoundary15to14
    {
        type            processor;
        value           nonuniform List<scalar> 4(0.14949 -0.0661723 -0.318435 -0.572835);
    }
    procBoundary15to16
    {
        type            processor;
        value           nonuniform List<scalar> 3(1.05637 1.05503 1.05362);
    }
    procBoundary15to20
    {
        type            processor;
        value           uniform -0.772069;
    }
    procBoundary15to21
    {
        type            processor;
        value           nonuniform List<scalar> 
70
(
-0.889042
-0.857438
-0.859914
-0.902229
0.982225
1.00639
1.02467
1.03783
1.0467
-0.878862
-0.766477
-0.708269
-0.670834
-0.642754
-0.61919
-0.597679
-0.576415
-0.554373
-0.531056
-0.50626
-0.479944
-0.452178
-0.423118
-0.392987
-0.362073
-0.330713
-0.299295
-0.268239
-0.237993
-0.20901
-0.181741
-0.156611
-0.134006
-0.114255
-0.097616
-0.0842622
-0.0742698
-0.0676084
-0.0641312
-0.0635768
-0.0655493
-0.0695259
-0.0748869
-0.0808824
-0.086674
-0.0913576
-0.0938036
-0.0931283
-0.0882813
-0.0782769
-0.0622201
-0.03935
-0.00908786
0.028914
0.074727
0.128109
0.18848
0.254917
0.326169
0.400709
0.476803
0.552615
0.626321
0.696239
0.760933
0.819313
0.870672
0.914707
0.982225
0.951475
)
;
    }
}


// ************************************************************************* //
