/*--------------------------------*- C++ -*----------------------------------*\
  =========                 |
  \\      /  F ield         | OpenFOAM: The Open Source CFD Toolbox
   \\    /   O peration     | Website:  https://openfoam.org
    \\  /    A nd           | Version:  7
     \\/     M anipulation  |
\*---------------------------------------------------------------------------*/
FoamFile
{
    version     2.0;
    format      ascii;
    class       volScalarField;
    location    "164";
    object      p;
}
// * * * * * * * * * * * * * * * * * * * * * * * * * * * * * * * * * * * * * //

dimensions      [0 2 -2 0 0 0 0];

internalField   nonuniform List<scalar> 
12400
(
-0.375759
-0.378712
-0.380462
-0.381696
-0.382783
-0.383826
-0.38492
-0.386123
-0.38744
-0.388831
-0.390221
-0.391517
-0.392624
-0.393485
-0.394121
-0.394694
-0.395599
-0.397544
-0.401167
-0.406796
-0.382374
-0.385493
-0.387419
-0.388889
-0.390298
-0.391756
-0.393358
-0.395152
-0.397127
-0.399209
-0.401271
-0.403127
-0.404543
-0.405262
-0.405038
-0.403709
-0.401334
-0.398325
-0.395138
-0.392121
-0.389652
-0.392836
-0.394888
-0.396569
-0.398289
-0.400164
-0.402285
-0.404691
-0.407353
-0.410169
-0.412954
-0.415431
-0.417222
-0.41786
-0.416815
-0.413577
-0.407812
-0.399573
-0.389084
-0.376374
-0.39755
-0.400692
-0.402813
-0.404672
-0.406684
-0.408966
-0.411603
-0.414627
-0.41799
-0.421561
-0.425101
-0.428238
-0.430453
-0.431062
-0.429248
-0.424134
-0.414967
-0.401394
-0.383473
-0.360398
-0.405991
-0.408981
-0.41111
-0.413109
-0.415381
-0.418045
-0.421181
-0.424808
-0.428863
-0.433183
-0.437476
-0.441281
-0.443933
-0.444537
-0.441985
-0.435041
-0.422533
-0.403664
-0.378566
-0.344868
-0.414862
-0.417596
-0.41967
-0.421761
-0.42425
-0.427258
-0.430855
-0.435048
-0.439756
-0.444787
-0.449794
-0.454227
-0.45728
-0.457853
-0.454554
-0.445804
-0.43006
-0.406041
-0.374372
-0.330149
-0.424023
-0.426408
-0.428364
-0.430493
-0.433145
-0.436439
-0.440438
-0.445135
-0.450426
-0.456093
-0.461731
-0.466704
-0.470068
-0.470524
-0.466409
-0.455836
-0.436988
-0.408034
-0.370764
-0.316035
-0.433315
-0.435273
-0.437051
-0.439159
-0.441908
-0.445417
-0.449738
-0.45485
-0.46063
-0.466816
-0.472959
-0.478333
-0.481862
-0.482057
-0.477007
-0.464553
-0.442767
-0.409041
-0.367516
-0.3023
-0.442571
-0.444045
-0.44559
-0.447613
-0.450384
-0.454019
-0.458563
-0.463977
-0.470115
-0.476681
-0.483167
-0.48876
-0.49226
-0.492009
-0.485872
-0.471465
-0.446902
-0.408743
-0.363243
-0.291679
-0.45163
-0.452585
-0.453849
-0.455721
-0.45843
-0.462091
-0.466743
-0.472327
-0.478673
-0.485449
-0.492088
-0.49769
-0.500937
-0.500028
-0.492647
-0.476236
-0.448961
-0.407045
-0.358304
-0.28301
-0.460348
-0.460772
-0.461716
-0.463372
-0.465929
-0.469507
-0.474137
-0.479746
-0.486136
-0.492933
-0.499525
-0.504914
-0.507678
-0.505873
-0.497087
-0.478621
-0.448856
-0.403915
-0.352768
-0.276305
-0.468602
-0.468511
-0.469106
-0.470483
-0.472797
-0.476177
-0.48065
-0.48613
-0.492394
-0.499029
-0.505355
-0.510307
-0.512355
-0.509443
-0.499096
-0.478579
-0.446594
-0.399427
-0.346741
-0.27132
-0.476314
-0.475741
-0.475967
-0.477006
-0.47899
-0.482057
-0.486238
-0.491435
-0.497402
-0.503687
-0.509549
-0.513851
-0.514967
-0.510751
-0.498715
-0.476205
-0.442282
-0.393771
-0.340356
-0.267659
-0.483442
-0.482435
-0.482283
-0.482935
-0.484506
-0.487152
-0.490909
-0.495677
-0.501187
-0.50695
-0.512164
-0.515618
-0.5156
-0.509906
-0.496082
-0.471689
-0.436143
-0.387145
-0.3338
-0.264891
-0.489989
-0.488608
-0.488077
-0.4883
-0.489386
-0.491511
-0.494727
-0.498933
-0.503843
-0.508928
-0.513329
-0.515755
-0.514418
-0.507092
-0.491414
-0.465287
-0.428481
-0.379744
-0.327262
-0.262657
-0.496005
-0.49431
-0.493405
-0.493166
-0.493708
-0.49523
-0.497805
-0.501334
-0.50552
-0.509792
-0.513228
-0.514459
-0.511632
-0.502538
-0.484976
-0.457303
-0.419633
-0.371774
-0.320855
-0.260672
-0.501577
-0.499625
-0.498354
-0.49763
-0.497583
-0.498439
-0.500293
-0.503055
-0.506411
-0.509752
-0.512083
-0.511956
-0.507472
-0.496495
-0.477068
-0.448074
-0.40994
-0.363442
-0.314559
-0.25864
-0.506829
-0.504664
-0.503035
-0.501813
-0.501147
-0.501294
-0.502369
-0.504294
-0.506736
-0.509035
-0.510121
-0.50847
-0.50217
-0.489227
-0.46801
-0.437958
-0.399739
-0.354945
-0.3082
-0.256229
-0.511912
-0.50956
-0.507578
-0.50585
-0.504552
-0.503965
-0.504228
-0.505263
-0.506713
-0.50786
-0.507553
-0.504206
-0.495947
-0.480998
-0.458135
-0.427313
-0.38938
-0.346474
-0.301557
-0.253343
-0.516994
-0.514456
-0.51212
-0.509886
-0.507953
-0.506626
-0.506056
-0.506159
-0.506543
-0.506419
-0.504555
-0.499339
-0.489003
-0.47207
-0.447763
-0.416474
-0.379196
-0.338247
-0.294797
-0.250514
-0.522246
-0.519501
-0.516802
-0.514063
-0.5115
-0.509436
-0.508022
-0.507155
-0.506388
-0.504854
-0.501258
-0.494008
-0.481524
-0.462692
-0.437182
-0.405718
-0.369407
-0.33044
-0.28895
-0.248232
-0.527831
-0.524833
-0.521755
-0.518512
-0.51533
-0.512535
-0.510266
-0.508378
-0.506357
-0.503256
-0.497747
-0.488327
-0.473679
-0.45309
-0.426634
-0.395248
-0.360077
-0.323004
-0.284244
-0.247071
-0.533897
-0.530578
-0.527095
-0.523347
-0.519554
-0.516031
-0.512885
-0.509908
-0.506505
-0.501664
-0.494071
-0.482385
-0.465619
-0.443455
-0.416296
-0.385182
-0.351204
-0.315993
-0.279721
-0.24521
-0.54056
-0.536838
-0.532918
-0.528659
-0.524256
-0.519997
-0.515932
-0.511774
-0.506839
-0.500077
-0.49025
-0.476256
-0.457469
-0.433933
-0.406282
-0.375563
-0.342766
-0.30925
-0.275154
-0.242913
-0.547906
-0.543692
-0.539296
-0.534513
-0.52949
-0.52447
-0.519421
-0.513958
-0.50732
-0.49846
-0.486286
-0.469994
-0.449325
-0.424621
-0.396646
-0.366383
-0.334694
-0.302691
-0.270455
-0.240047
-0.555987
-0.551189
-0.546276
-0.540948
-0.535283
-0.529453
-0.523326
-0.516408
-0.507882
-0.496761
-0.48217
-0.46364
-0.441252
-0.415565
-0.387387
-0.357594
-0.326911
-0.296226
-0.265571
-0.236726
-0.564821
-0.559353
-0.553881
-0.547982
-0.541636
-0.534922
-0.527589
-0.519039
-0.508435
-0.494915
-0.477881
-0.457213
-0.43328
-0.40677
-0.378471
-0.349128
-0.319336
-0.289789
-0.260488
-0.23297
-0.574395
-0.568182
-0.562112
-0.555609
-0.548525
-0.540826
-0.532126
-0.521743
-0.508873
-0.492849
-0.473394
-0.450718
-0.425408
-0.398206
-0.369834
-0.340902
-0.311888
-0.283318
-0.255183
-0.22881
-0.584669
-0.577648
-0.570947
-0.5638
-0.555902
-0.547083
-0.536826
-0.524395
-0.509084
-0.490488
-0.468674
-0.444138
-0.417607
-0.389818
-0.361397
-0.332829
-0.304487
-0.276759
-0.249639
-0.224258
-0.595573
-0.587701
-0.58034
-0.572503
-0.563692
-0.553588
-0.541553
-0.52685
-0.508948
-0.487758
-0.463681
-0.437439
-0.409828
-0.381534
-0.353075
-0.324822
-0.297059
-0.270061
-0.243834
-0.219318
-0.607012
-0.598262
-0.590221
-0.581636
-0.571788
-0.5602
-0.546147
-0.528957
-0.508348
-0.484584
-0.458366
-0.430573
-0.402005
-0.37327
-0.344777
-0.316797
-0.289536
-0.263178
-0.237744
-0.213992
-0.618859
-0.609225
-0.600485
-0.591083
-0.580048
-0.566751
-0.550427
-0.530553
-0.507168
-0.48089
-0.452673
-0.423477
-0.394063
-0.36494
-0.336414
-0.308672
-0.281853
-0.256065
-0.231347
-0.208276
-0.630958
-0.620451
-0.610997
-0.600693
-0.588295
-0.573041
-0.554198
-0.531478
-0.505293
-0.476601
-0.446536
-0.41608
-0.385919
-0.356455
-0.327902
-0.300374
-0.273951
-0.248682
-0.22462
-0.202165
-0.643115
-0.631767
-0.621582
-0.610274
-0.596312
-0.578844
-0.557251
-0.531572
-0.502616
-0.471637
-0.439883
-0.408304
-0.377485
-0.347726
-0.319158
-0.291831
-0.265776
-0.240992
-0.217541
-0.195653
-0.655107
-0.642963
-0.632028
-0.619596
-0.603852
-0.583914
-0.559378
-0.530679
-0.499029
-0.465918
-0.432638
-0.400066
-0.368676
-0.338671
-0.310107
-0.282982
-0.257278
-0.232959
-0.210089
-0.188734
-0.666673
-0.653794
-0.642086
-0.628392
-0.61064
-0.587995
-0.56037
-0.528653
-0.49443
-0.459359
-0.424719
-0.391281
-0.359407
-0.32921
-0.300679
-0.273766
-0.248413
-0.224554
-0.202245
-0.1814
-0.677525
-0.663985
-0.651472
-0.636366
-0.61638
-0.590826
-0.560028
-0.525355
-0.488719
-0.451877
-0.416042
-0.381866
-0.349598
-0.319268
-0.290809
-0.264133
-0.239141
-0.215748
-0.193991
-0.173646
-0.687347
-0.673229
-0.659873
-0.643198
-0.620771
-0.592153
-0.558163
-0.520654
-0.481799
-0.443386
-0.406527
-0.371741
-0.339174
-0.308779
-0.280441
-0.254034
-0.229427
-0.206518
-0.185311
-0.165468
-0.695803
-0.681198
-0.666957
-0.648558
-0.623509
-0.591732
-0.554604
-0.51443
-0.473578
-0.433804
-0.396093
-0.360831
-0.328063
-0.297681
-0.269524
-0.243431
-0.219242
-0.196841
-0.176195
-0.156865
-0.702546
-0.68755
-0.672378
-0.65211
-0.624301
-0.589341
-0.549194
-0.506573
-0.463967
-0.423053
-0.384666
-0.349065
-0.316206
-0.28592
-0.258012
-0.232288
-0.208559
-0.186699
-0.166631
-0.147844
-0.707227
-0.691937
-0.675788
-0.653528
-0.622875
-0.584776
-0.541794
-0.496986
-0.452889
-0.411059
-0.372177
-0.336381
-0.303546
-0.273453
-0.245871
-0.220577
-0.197359
-0.176078
-0.156613
-0.13841
-0.709499
-0.694013
-0.676849
-0.652503
-0.618981
-0.577864
-0.532288
-0.485583
-0.440271
-0.397757
-0.358568
-0.322727
-0.290039
-0.260241
-0.23307
-0.208276
-0.185627
-0.164971
-0.146142
-0.128542
-0.709033
-0.693448
-0.675239
-0.648753
-0.612405
-0.568457
-0.520579
-0.472294
-0.426052
-0.383092
-0.343787
-0.308058
-0.275648
-0.246254
-0.219584
-0.195367
-0.173352
-0.153389
-0.135263
-0.118178
-0.705524
-0.689934
-0.670666
-0.642031
-0.602968
-0.55644
-0.506592
-0.457063
-0.410186
-0.367021
-0.327796
-0.292341
-0.260344
-0.231469
-0.205397
-0.181835
-0.160528
-0.141337
-0.12403
-0.107286
-0.698696
-0.683193
-0.662873
-0.63213
-0.590527
-0.541726
-0.490273
-0.439851
-0.392638
-0.349511
-0.310567
-0.275551
-0.244106
-0.215868
-0.190508
-0.167684
-0.147164
-0.128789
-0.112109
-0.0962528
-0.688315
-0.672988
-0.651646
-0.61889
-0.574984
-0.524264
-0.471596
-0.420637
-0.373387
-0.330544
-0.292081
-0.257674
-0.226931
-0.199448
-0.174931
-0.152935
-0.133267
-0.115743
-0.0997804
-0.08483
-0.674193
-0.659128
-0.636821
-0.602196
-0.556279
-0.504032
-0.450553
-0.399419
-0.352429
-0.310112
-0.272335
-0.238712
-0.208842
-0.182261
-0.158639
-0.13758
-0.118847
-0.102229
-0.087065
-0.073028
-0.656191
-0.641471
-0.618285
-0.581985
-0.534395
-0.481037
-0.427164
-0.376213
-0.329774
-0.288231
-0.251354
-0.218712
-0.189832
-0.16428
-0.141673
-0.121639
-0.103921
-0.0882738
-0.0739746
-0.0608744
-0.634222
-0.619931
-0.595978
-0.55824
-0.509352
-0.455321
-0.401465
-0.351039
-0.305466
-0.264953
-0.229174
-0.197664
-0.169932
-0.145532
-0.124057
-0.105139
-0.0885149
-0.0739032
-0.0605235
-0.0484041
-0.608259
-0.594477
-0.569897
-0.53099
-0.48121
-0.426959
-0.373521
-0.323937
-0.2796
-0.240304
-0.205817
-0.175612
-0.149178
-0.126055
-0.105823
-0.0881121
-0.0726599
-0.0591457
-0.0467374
-0.0356501
-0.578329
-0.565131
-0.540087
-0.50032
-0.450082
-0.396062
-0.343432
-0.295097
-0.252115
-0.21433
-0.181338
-0.152607
-0.127616
-0.105894
-0.0870109
-0.0705978
-0.0563922
-0.0440345
-0.0326496
-0.0226487
-0.544514
-0.531973
-0.506655
-0.466381
-0.416146
-0.36272
-0.311272
-0.264509
-0.223185
-0.187113
-0.155807
-0.128712
-0.105303
-0.0850996
-0.0676681
-0.0526403
-0.039753
-0.0286092
-0.0183017
-0.00944111
-0.506947
-0.495133
-0.469769
-0.429387
-0.379559
-0.326949
-0.27721
-0.232309
-0.192904
-0.158749
-0.129305
-0.104001
-0.0823049
-0.0637329
-0.0478492
-0.0342892
-0.0227881
-0.0129139
-0.0037416
0.00392443
-0.465796
-0.454811
-0.429658
-0.389478
-0.34013
-0.28926
-0.241412
-0.198637
-0.16139
-0.129343
-0.101927
-0.0785569
-0.0586968
-0.0418611
-0.0276152
-0.0156002
-0.00554742
0.00300541
0.0109832
0.0173982
-0.421271
-0.411257
-0.386524
-0.346567
-0.298624
-0.249662
-0.204043
-0.163649
-0.128773
-0.0990135
-0.0737772
-0.0524732
-0.0345619
-0.0195587
-0.00703355
0.00336543
0.0119152
0.0191046
0.0258333
0.0309408
-0.373615
-0.364741
-0.340423
-0.301355
-0.255124
-0.208383
-0.165293
-0.127513
-0.0951992
-0.0678895
-0.0449721
-0.0258524
-0.00999119
0.00309313
0.0138219
0.0225405
0.029543
0.0353398
0.0407671
0.0445109
-0.323095
-0.315587
-0.291812
-0.254112
-0.209875
-0.165665
-0.125364
-0.0904082
-0.0608277
-0.0361118
-0.0156362
0.00119476
0.0149176
0.0260073
0.0348729
0.0418566
0.0472823
0.051662
0.0556918
0.057955
-0.270143
-0.264062
-0.241191
-0.205083
-0.163158
-0.121762
-0.0844794
-0.0525283
-0.0258289
-0.00383119
0.0140974
0.0285506
0.0400602
0.0490912
0.0560387
0.0612509
0.0650919
0.0680126
0.0704115
0.0708447
-0.215396
-0.210423
-0.188831
-0.154595
-0.115273
-0.076939
-0.04287
-0.0140769
0.00961721
0.0287932
0.0440877
0.0560906
0.0653265
0.0722477
0.0772374
0.0806655
0.0829327
0.0843104
0.0846869
0.082804
-0.159005
-0.155212
-0.135093
-0.102996
-0.0665352
-0.0314742
-0.000778956
0.0247327
0.0453224
0.0615949
0.0741877
0.0836847
0.090601
0.095375
0.0983848
0.100033
0.100724
0.100416
0.0984821
0.0948199
-0.101382
-0.0988674
-0.0803723
-0.0506483
-0.0172693
0.0143474
0.0415435
0.0636799
0.0810918
0.0944018
0.104245
0.111198
0.115765
0.11837
0.119392
0.119261
0.118322
0.116162
0.111984
0.109697
-0.0429808
-0.0418117
-0.0250806
0.00207274
0.0321927
0.0602342
0.0838411
0.102539
0.116726
0.127037
0.134104
0.138494
0.140697
0.141127
0.140167
0.138245
0.135595
0.131609
0.125997
0.124253
0.0157435
0.0155221
0.0303667
0.0547893
0.0815152
0.105891
0.125854
0.141081
0.152022
0.159323
0.163607
0.165431
0.165274
0.163539
0.160611
0.156894
0.152521
0.146874
0.140175
0.137986
0.0743344
0.0726946
0.0855524
0.107122
0.130362
0.151023
0.167322
0.179075
0.186777
0.191077
0.192593
0.191869
0.189372
0.185497
0.18062
0.175116
0.169051
0.161894
0.15419
0.151096
0.132336
0.129265
0.140061
0.158695
0.1784
0.195335
0.207986
0.216291
0.220786
0.222121
0.220904
0.217669
0.212868
0.206889
0.200097
0.192833
0.185132
0.17656
0.167827
0.163616
0.189296
0.184796
0.193484
0.209137
0.2253
0.238536
0.247587
0.252503
0.253849
0.252276
0.248383
0.24269
0.235639
0.227607
0.218946
0.209966
0.200691
0.190773
0.180991
0.175569
0.244771
0.238859
0.245418
0.258087
0.270741
0.280345
0.285877
0.287488
0.285768
0.281368
0.274874
0.266796
0.257565
0.247544
0.237071
0.226434
0.215651
0.204444
0.19361
0.186938
0.29833
0.291035
0.295477
0.305194
0.314412
0.320484
0.32261
0.321029
0.316352
0.309226
0.300228
0.289856
0.278527
0.266596
0.254384
0.242158
0.229937
0.2175
0.205632
0.197699
0.349557
0.340924
0.343285
0.350121
0.356015
0.358691
0.357552
0.352918
0.345416
0.335688
0.324301
0.31174
0.298414
0.284663
0.270796
0.257059
0.243477
0.229875
0.217005
0.207822
0.398055
0.388141
0.388488
0.392549
0.395266
0.394712
0.390481
0.382957
0.372784
0.360597
0.346953
0.332328
0.317117
0.301651
0.286223
0.271065
0.256204
0.241509
0.22768
0.217276
0.44345
0.432327
0.430751
0.432177
0.431897
0.428312
0.421184
0.410958
0.398289
0.383805
0.368056
0.351504
0.334535
0.31747
0.300588
0.284105
0.268056
0.252347
0.237614
0.226033
0.485393
0.473145
0.469763
0.468726
0.46566
0.459269
0.449466
0.436748
0.421777
0.405177
0.387487
0.36916
0.350573
0.332036
0.313815
0.296114
0.278974
0.262336
0.246763
0.234066
0.523564
0.510285
0.505238
0.501939
0.496328
0.487382
0.475147
0.460166
0.443106
0.424585
0.405135
0.385199
0.365144
0.345273
0.325839
0.307033
0.288907
0.271431
0.255087
0.241348
0.557672
0.543469
0.536919
0.531586
0.523695
0.512467
0.498064
0.481067
0.462147
0.441916
0.420898
0.39953
0.37817
0.357111
0.336597
0.316808
0.297806
0.279587
0.262551
0.247859
0.587459
0.572449
0.564577
0.55746
0.547577
0.534361
0.518073
0.499322
0.478785
0.457068
0.434688
0.412075
0.38958
0.367489
0.346035
0.325391
0.305628
0.286765
0.269122
0.25358
0.612705
0.597011
0.588016
0.579385
0.567818
0.552925
0.535048
0.514821
0.492921
0.469953
0.446426
0.422764
0.399313
0.376353
0.354106
0.332741
0.312337
0.292932
0.274772
0.258494
0.633222
0.616976
0.607069
0.597212
0.584287
0.568042
0.548885
0.52747
0.504474
0.480498
0.456047
0.431541
0.40732
0.383657
0.360771
0.338823
0.317901
0.298058
0.279478
0.26259
0.648861
0.632203
0.621606
0.610826
0.596878
0.579618
0.559501
0.537194
0.513377
0.488645
0.463501
0.438359
0.413559
0.389368
0.365999
0.343609
0.322296
0.302124
0.283223
0.265861
0.659515
0.642585
0.631531
0.620138
0.605514
0.587584
0.566835
0.543941
0.519581
0.49435
0.468747
0.443186
0.418
0.393457
0.369766
0.34708
0.325504
0.30511
0.285996
0.26831
0.665112
0.648056
0.636781
0.625093
0.610146
0.591898
0.570848
0.547674
0.523056
0.497586
0.471763
0.445998
0.420624
0.395908
0.372056
0.349221
0.32751
0.307002
0.287779
0.269911
0.665624
0.648588
0.637331
0.625668
0.610753
0.592539
0.571522
0.548379
0.523788
0.498341
0.472537
0.446787
0.421424
0.396714
0.372864
0.350027
0.32831
0.307795
0.288558
0.270657
0.66106
0.644191
0.633191
0.621873
0.607344
0.589516
0.568865
0.546061
0.521782
0.49662
0.471073
0.445556
0.420401
0.395876
0.372191
0.349499
0.327906
0.307493
0.288346
0.270556
0.651474
0.634914
0.624406
0.613747
0.599954
0.58286
0.562905
0.540747
0.517061
0.492442
0.46739
0.44232
0.417569
0.393408
0.370048
0.347647
0.326306
0.306103
0.287156
0.26963
0.636954
0.620846
0.611057
0.601364
0.588649
0.57263
0.553694
0.532481
0.509666
0.485843
0.461518
0.437108
0.412953
0.389329
0.366453
0.344486
0.323524
0.303638
0.284993
0.26788
0.617634
0.602111
0.59326
0.584828
0.573521
0.558908
0.541305
0.52133
0.499654
0.476875
0.453503
0.429959
0.406588
0.383672
0.361433
0.34004
0.31958
0.300115
0.281871
0.265308
0.593681
0.578874
0.571165
0.564274
0.554691
0.541801
0.525834
0.507378
0.487101
0.465605
0.443403
0.420924
0.39852
0.376475
0.355024
0.334339
0.314502
0.29556
0.277811
0.261923
0.565302
0.551332
0.544956
0.539866
0.532304
0.52144
0.507395
0.490728
0.472098
0.452113
0.431291
0.410068
0.388803
0.367788
0.347267
0.327421
0.308323
0.290003
0.272836
0.25774
0.53274
0.519719
0.514847
0.511798
0.506533
0.497976
0.486127
0.471501
0.454753
0.436494
0.41725
0.397465
0.377503
0.357668
0.338213
0.31933
0.301082
0.283478
0.266976
0.252773
0.496271
0.4843
0.481086
0.48029
0.477574
0.471585
0.462183
0.449836
0.435189
0.418857
0.401377
0.383198
0.364695
0.34618
0.327919
0.310114
0.292822
0.276027
0.260264
0.247041
0.456203
0.445374
0.443946
0.445589
0.445647
0.442462
0.435738
0.425886
0.413541
0.399324
0.383777
0.367361
0.350461
0.333396
0.316448
0.299831
0.283594
0.267691
0.252734
0.240568
0.412873
0.403266
0.403728
0.407967
0.410992
0.410821
0.406981
0.39982
0.38996
0.378026
0.364569
0.350059
0.334891
0.319397
0.30387
0.288541
0.273451
0.258521
0.244428
0.233376
0.366648
0.358327
0.360761
0.367716
0.373871
0.376893
0.376118
0.371821
0.364608
0.355106
0.343877
0.331402
0.318085
0.304269
0.290262
0.27631
0.262452
0.248567
0.235388
0.225493
0.317917
0.310935
0.315391
0.32515
0.334561
0.340924
0.343368
0.342083
0.337656
0.330718
0.321838
0.311509
0.300146
0.288104
0.275703
0.26321
0.250659
0.237885
0.225659
0.216948
0.267088
0.261485
0.267987
0.280601
0.293358
0.303177
0.308963
0.310812
0.309287
0.305021
0.298593
0.290505
0.281185
0.270998
0.260279
0.249315
0.23814
0.226536
0.215289
0.207771
0.214591
0.210391
0.218936
0.234417
0.250568
0.263922
0.273143
0.278221
0.27969
0.278184
0.274289
0.268521
0.261317
0.253052
0.244078
0.234704
0.224967
0.214584
0.204329
0.197989
0.160867
0.158082
0.168636
0.186957
0.206513
0.223444
0.236159
0.244533
0.249062
0.25038
0.249081
0.245691
0.24066
0.234372
0.227192
0.219456
0.211215
0.202104
0.192833
0.187628
0.106367
0.104994
0.117497
0.138593
0.161522
0.182033
0.198268
0.209973
0.217603
0.221786
0.223124
0.222154
0.219336
0.215064
0.209713
0.203652
0.196961
0.189181
0.180873
0.176708
0.051551
0.0515718
0.0659365
0.0897023
0.115928
0.139984
0.159731
0.174774
0.185518
0.192583
0.196578
0.198049
0.197468
0.195238
0.191739
0.187371
0.182275
0.175911
0.168542
0.165218
-0.00312197
-0.00174057
0.0143748
0.040667
0.0700715
0.0975947
0.12081
0.139166
0.153011
0.162951
0.169602
0.173517
0.175181
0.175004
0.173368
0.170693
0.167215
0.162398
0.156044
0.15315
-0.0571924
-0.0545026
-0.0367675
-0.00812976
0.0242922
0.0551655
0.081769
0.103383
0.120287
0.133073
0.142356
0.148699
0.152597
0.154472
0.1547
0.153706
0.151826
0.148701
0.143676
0.14038
-0.110203
-0.106282
-0.087074
-0.0563075
-0.0210717
0.0129929
0.0428684
0.067654
0.0875503
0.103126
0.114998
0.123734
0.129839
0.133747
0.135833
0.136499
0.136141
0.134734
0.131763
0.127358
-0.161721
-0.156644
-0.136138
-0.103493
-0.0656873
-0.0286308
0.00436411
0.0322041
0.0549985
0.0732873
0.0876828
0.0987582
0.107026
0.112932
0.116857
0.119172
0.120276
0.120428
0.119553
0.116678
-0.211465
-0.205096
-0.183582
-0.149325
-0.109229
-0.0694212
-0.0334951
-0.0027475
0.0228251
0.0437262
0.060561
0.0739047
0.0842755
0.0921296
0.097858
0.101812
0.104358
0.105923
0.106881
0.106033
-0.259035
-0.251251
-0.229093
-0.193461
-0.15138
-0.109105
-0.0704704
-0.0369905
-0.00878406
0.0146072
0.0337772
0.0493008
0.0616995
0.0714374
0.0789178
0.0844848
0.0884666
0.0913499
0.0937834
0.0945735
-0.30385
-0.294843
-0.27234
-0.235616
-0.191839
-0.147424
-0.106335
-0.0703243
-0.0396522
-0.0139139
0.00746912
0.0250682
0.0394056
0.0509503
0.0601158
0.0672477
0.0726452
0.076795
0.0804801
0.082594
-0.345615
-0.335567
-0.312551
-0.275773
-0.230317
-0.184143
-0.140876
-0.10256
-0.0696131
-0.0416899
-0.0182334
0.0013214
0.017495
0.0307576
0.0415297
0.0501616
0.0569348
0.0623162
0.0671519
0.0704706
-0.384081
-0.37315
-0.349825
-0.312746
-0.266916
-0.219047
-0.173887
-0.133522
-0.0985122
-0.0685845
-0.0432098
-0.0218329
-0.00393827
0.0109429
0.0232343
0.0332912
0.0413858
0.0479595
0.0538853
0.0583478
-0.419034
-0.407321
-0.383968
-0.346921
-0.300786
-0.251916
-0.205182
-0.163048
-0.126207
-0.0944729
-0.067349
-0.0442962
-0.0248071
-0.00841635
0.00529959
0.0166996
0.0260506
0.0337653
0.0407197
0.0462647
-0.450289
-0.43786
-0.414711
-0.378095
-0.331934
-0.282467
-0.234587
-0.190988
-0.152569
-0.119244
-0.0905512
-0.0659792
-0.0450326
-0.0272499
-0.0122109
0.000444178
0.0109792
0.0197739
0.0276899
0.0342551
-0.477699
-0.464619
-0.441858
-0.40602
-0.360268
-0.310595
-0.261956
-0.217218
-0.177483
-0.142801
-0.112727
-0.086802
-0.0645447
-0.0454947
-0.0292402
-0.0154236
-0.00378282
0.0060263
0.0148376
0.0223613
-0.501167
-0.487511
-0.465295
-0.430541
-0.385632
-0.336187
-0.287179
-0.241649
-0.200847
-0.165062
-0.133796
-0.106694
-0.0832844
-0.0630952
-0.0457378
-0.030858
-0.018194
-0.00743829
0.00220411
0.0106247
-0.520657
-0.506502
-0.484968
-0.451567
-0.407904
-0.359131
-0.310157
-0.264186
-0.222661
-0.185913
-0.153697
-0.125596
-0.101202
-0.0800018
-0.0616603
-0.0458192
-0.0322178
-0.0205854
-0.0101752
-0.00092008
-0.536189
-0.521616
-0.500874
-0.469058
-0.42701
-0.379342
-0.330811
-0.284746
-0.242783
-0.205375
-0.1724
-0.143457
-0.11826
-0.0961707
-0.076972
-0.0602725
-0.045823
-0.0333859
-0.0222732
-0.0122446
-0.547843
-0.532936
-0.513067
-0.483025
-0.442923
-0.396772
-0.349093
-0.303285
-0.261178
-0.223386
-0.189879
-0.160328
-0.134363
-0.111567
-0.0916446
-0.0741892
-0.058985
-0.0458138
-0.0340703
-0.0233247
-0.555755
-0.540603
-0.52166
-0.493529
-0.455657
-0.411404
-0.364978
-0.319789
-0.277837
-0.239909
-0.206081
-0.176089
-0.149577
-0.126206
-0.105644
-0.0875475
-0.0716862
-0.0578449
-0.0455506
-0.0341449
-0.560116
-0.544809
-0.526818
-0.500684
-0.465267
-0.423257
-0.378467
-0.334253
-0.292759
-0.254941
-0.220994
-0.190739
-0.163864
-0.140051
-0.118983
-0.100356
-0.0839069
-0.0694636
-0.0566885
-0.0447064
-0.561166
-0.545799
-0.528763
-0.504655
-0.471857
-0.432384
-0.389584
-0.346691
-0.305952
-0.26849
-0.234634
-0.204292
-0.177208
-0.153087
-0.131641
-0.112584
-0.095659
-0.0807026
-0.0674133
-0.0550501
-0.559186
-0.543858
-0.527758
-0.505659
-0.475573
-0.43887
-0.39838
-0.357135
-0.317443
-0.280581
-0.24702
-0.216764
-0.189618
-0.165322
-0.143612
-0.124226
-0.106921
-0.091529
-0.0777988
-0.0651216
-0.554494
-0.539307
-0.524112
-0.503953
-0.476602
-0.442837
-0.404928
-0.365636
-0.327271
-0.291247
-0.258178
-0.228176
-0.201112
-0.176767
-0.154906
-0.135289
-0.117689
-0.101941
-0.0878483
-0.0748343
-0.547433
-0.532493
-0.51816
-0.499836
-0.475173
-0.444439
-0.409329
-0.372262
-0.335488
-0.300531
-0.268145
-0.238558
-0.211714
-0.187443
-0.165538
-0.145786
-0.127974
-0.111944
-0.0975465
-0.084216
-0.538363
-0.523777
-0.510261
-0.493635
-0.471553
-0.443865
-0.411706
-0.377097
-0.34216
-0.308487
-0.276967
-0.247947
-0.221456
-0.197374
-0.175529
-0.155733
-0.137791
-0.12155
-0.1069
-0.0933132
-0.527653
-0.513524
-0.500783
-0.485699
-0.466035
-0.441331
-0.412206
-0.38024
-0.34736
-0.315176
-0.284695
-0.256388
-0.230372
-0.206589
-0.184903
-0.165151
-0.147159
-0.130775
-0.115927
-0.102151
-0.515667
-0.502096
-0.49009
-0.476386
-0.458936
-0.437083
-0.410999
-0.381805
-0.351169
-0.320663
-0.291387
-0.263929
-0.238507
-0.215126
-0.19369
-0.174066
-0.156098
-0.13964
-0.124645
-0.110738
-0.502756
-0.489838
-0.478536
-0.466052
-0.450584
-0.431387
-0.408273
-0.381918
-0.353676
-0.325019
-0.297102
-0.270624
-0.245905
-0.223021
-0.201922
-0.182504
-0.164634
-0.148168
-0.133074
-0.119086
-0.489252
-0.477071
-0.466452
-0.455039
-0.441312
-0.424526
-0.404239
-0.38072
-0.354974
-0.328312
-0.301898
-0.276526
-0.252614
-0.230319
-0.209638
-0.190501
-0.172796
-0.156385
-0.141237
-0.127212
-0.475459
-0.464085
-0.454137
-0.443664
-0.43144
-0.41679
-0.399121
-0.378364
-0.355164
-0.330613
-0.305834
-0.281684
-0.258681
-0.23706
-0.216877
-0.19809
-0.180615
-0.164322
-0.149164
-0.135141
-0.461643
-0.451133
-0.441852
-0.432212
-0.421268
-0.408465
-0.393155
-0.375015
-0.354349
-0.33199
-0.30896
-0.286147
-0.264151
-0.243289
-0.223677
-0.20531
-0.188128
-0.172013
-0.156887
-0.142906
-0.448037
-0.43843
-0.429818
-0.420925
-0.411065
-0.399826
-0.38658
-0.370848
-0.352642
-0.33251
-0.311324
-0.289954
-0.269062
-0.249045
-0.230079
-0.2122
-0.195371
-0.179495
-0.164446
-0.150542
-0.434829
-0.426149
-0.41821
-0.410004
-0.401062
-0.39112
-0.379631
-0.366048
-0.350158
-0.332239
-0.312963
-0.293136
-0.273448
-0.254363
-0.236122
-0.218801
-0.202387
-0.186809
-0.171882
-0.158089
-0.422169
-0.414423
-0.407164
-0.399601
-0.391444
-0.382565
-0.372528
-0.360798
-0.347023
-0.331243
-0.31391
-0.295711
-0.277328
-0.259271
-0.241839
-0.225152
-0.209217
-0.194
-0.179241
-0.165593
-0.410165
-0.403348
-0.396772
-0.389824
-0.38235
-0.374334
-0.365468
-0.355281
-0.343368
-0.329592
-0.314189
-0.297688
-0.280711
-0.263786
-0.247257
-0.231289
-0.215905
-0.201117
-0.186576
-0.173107
-0.39889
-0.392984
-0.38709
-0.380738
-0.373871
-0.366558
-0.358611
-0.349662
-0.339326
-0.327363
-0.313824
-0.29906
-0.283588
-0.26791
-0.252396
-0.237247
-0.222496
-0.208211
-0.193944
-0.180691
-0.388384
-0.383363
-0.378144
-0.372373
-0.366057
-0.35932
-0.35208
-0.344088
-0.335029
-0.32464
-0.312845
-0.299819
-0.285936
-0.27163
-0.257259
-0.243049
-0.229033
-0.215338
-0.20141
-0.188414
-0.378667
-0.374498
-0.369936
-0.364727
-0.358918
-0.35266
-0.345956
-0.338673
-0.330601
-0.321518
-0.311289
-0.299951
-0.28772
-0.274914
-0.261836
-0.248713
-0.235556
-0.222559
-0.20905
-0.196355
-0.369745
-0.366387
-0.362456
-0.357783
-0.35244
-0.346585
-0.340282
-0.333503
-0.326153
-0.318097
-0.309214
-0.299457
-0.288899
-0.277712
-0.266093
-0.254236
-0.242099
-0.229937
-0.216944
-0.204613
-0.36162
-0.359025
-0.355687
-0.351514
-0.346594
-0.34108
-0.335072
-0.328632
-0.321776
-0.314483
-0.306697
-0.29836
-0.289439
-0.279963
-0.269977
-0.259597
-0.24868
-0.237535
-0.225197
-0.213287
-0.354302
-0.352411
-0.349617
-0.345898
-0.341353
-0.336122
-0.33033
-0.324101
-0.317554
-0.310784
-0.30384
-0.296714
-0.289334
-0.28161
-0.273416
-0.264747
-0.255302
-0.24541
-0.233902
-0.222553
-0.347812
-0.346554
-0.344243
-0.340923
-0.336702
-0.3317
-0.326058
-0.319945
-0.313562
-0.307115
-0.300771
-0.294618
-0.288614
-0.282613
-0.276329
-0.269611
-0.261926
-0.253608
-0.243206
-0.232517
-0.342175
-0.341473
-0.339576
-0.336597
-0.332646
-0.327825
-0.32228
-0.316214
-0.30989
-0.303604
-0.297643
-0.292216
-0.28737
-0.282977
-0.278647
-0.274086
-0.268488
-0.262113
-0.253189
-0.243638
-0.337434
-0.337186
-0.335634
-0.332938
-0.32921
-0.32453
-0.319046
-0.312982
-0.306643
-0.3004
-0.294641
-0.289702
-0.285759
-0.282775
-0.280339
-0.278064
-0.274849
-0.270913
-0.263921
-0.255843
-0.333618
-0.333713
-0.332438
-0.329973
-0.326429
-0.321866
-0.316426
-0.310343
-0.303952
-0.297674
-0.291979
-0.287317
-0.28401
-0.282162
-0.281449
-0.281452
-0.28089
-0.279646
-0.275868
-0.269674
-0.33074
-0.331065
-0.329997
-0.327725
-0.324339
-0.319886
-0.314495
-0.308403
-0.301958
-0.295612
-0.289891
-0.285338
-0.282412
-0.281386
-0.282121
-0.284214
-0.286496
-0.288121
-0.288437
-0.283748
-0.32879
-0.329232
-0.32831
-0.326197
-0.322962
-0.318629
-0.313315
-0.307251
-0.300787
-0.294387
-0.288607
-0.284053
-0.281297
-0.280778
-0.282609
-0.28644
-0.29153
-0.296035
-0.30032
-0.297898
-0.327723
-0.328182
-0.327354
-0.325378
-0.322294
-0.318106
-0.312916
-0.306942
-0.300525
-0.294128
-0.288313
-0.283717
-0.280994
-0.280713
-0.283264
-0.288379
-0.295957
-0.303203
-0.311306
-0.312135
-0.327464
-0.32786
-0.327085
-0.325231
-0.322306
-0.318296
-0.313286
-0.307479
-0.301201
-0.294897
-0.28912
-0.284511
-0.281766
-0.281548
-0.284486
-0.290417
-0.299981
-0.30962
-0.321591
-0.326256
-0.327914
-0.328193
-0.327443
-0.325703
-0.322945
-0.319148
-0.314376
-0.308818
-0.302778
-0.296677
-0.291044
-0.286504
-0.283764
-0.283537
-0.286641
-0.292994
-0.304016
-0.31545
-0.331355
-0.33983
-0.328959
-0.329098
-0.328358
-0.326727
-0.324152
-0.320596
-0.316115
-0.31088
-0.305173
-0.299386
-0.294013
-0.289653
-0.287001
-0.286789
-0.289963
-0.296487
-0.308527
-0.321066
-0.340763
-0.352417
-0.330484
-0.330489
-0.32976
-0.328241
-0.325858
-0.322568
-0.31842
-0.313569
-0.308274
-0.302895
-0.297891
-0.293822
-0.291364
-0.291252
-0.294502
-0.301114
-0.313845
-0.326997
-0.349974
-0.364094
-0.332381
-0.332288
-0.331585
-0.330185
-0.328004
-0.324998
-0.321212
-0.316788
-0.311963
-0.307064
-0.302509
-0.298824
-0.296657
-0.296746
-0.300134
-0.306887
-0.320071
-0.333727
-0.359056
-0.375127
-0.334562
-0.334428
-0.333778
-0.33251
-0.33054
-0.32783
-0.324424
-0.320453
-0.316132
-0.311754
-0.3077
-0.30446
-0.302656
-0.303029
-0.306618
-0.31363
-0.327113
-0.341418
-0.368089
-0.386116
-0.336962
-0.336861
-0.336298
-0.33518
-0.333431
-0.331024
-0.328006
-0.324498
-0.320692
-0.316851
-0.313319
-0.310551
-0.309145
-0.309849
-0.313678
-0.321041
-0.334717
-0.349979
-0.37717
-0.39729
-0.339541
-0.339555