/*--------------------------------*- C++ -*----------------------------------*\
  =========                 |
  \\      /  F ield         | OpenFOAM: The Open Source CFD Toolbox
   \\    /   O peration     | Website:  https://openfoam.org
    \\  /    A nd           | Version:  7
     \\/     M anipulation  |
\*---------------------------------------------------------------------------*/
FoamFile
{
    version     2.0;
    format      ascii;
    class       volVectorField;
    location    "65";
    object      U;
}
// * * * * * * * * * * * * * * * * * * * * * * * * * * * * * * * * * * * * * //

dimensions      [0 1 -1 0 0 0 0];

internalField   nonuniform List<vector> 
12400
(
(-0.000693117 0.00100473 -4.65322e-21)
(-0.00393148 0.00259168 -1.73382e-20)
(-0.0105353 0.00384834 3.21329e-21)
(-0.0193587 0.00482125 1.23961e-20)
(-0.0297834 0.00554527 5.37086e-21)
(-0.0413646 0.00605625 -1.32955e-20)
(-0.0536787 0.00639354 -4.28676e-21)
(-0.0663664 0.00659804 -1.70572e-21)
(-0.0791408 0.00670969 -1.58994e-20)
(-0.091777 0.00676453 -3.09964e-21)
(-0.104101 0.00679158 -1.19713e-20)
(-0.115977 0.00681074 1.97892e-21)
(-0.127287 0.00683194 -6.30225e-21)
(-0.137922 0.00685574 1.14483e-20)
(-0.147762 0.00687543 -1.48763e-20)
(-0.156678 0.0068802 -1.60097e-20)
(-0.164545 0.00686127 -4.65954e-21)
(-0.171309 0.00682356 2.55738e-20)
(-0.176935 0.00677611 -2.19078e-20)
(-0.181522 0.00676166 3.17283e-21)
(-0.000820114 0.00273265 6.83651e-21)
(-0.00421239 0.00693467 1.11577e-20)
(-0.0108585 0.0101425 3.64315e-21)
(-0.0196433 0.0125134 1.0805e-20)
(-0.029964 0.0141671 -2.58281e-21)
(-0.0413851 0.0152191 1.66025e-20)
(-0.0534902 0.0157858 6.27609e-21)
(-0.0659248 0.0159789 1.48089e-20)
(-0.0784037 0.0158998 -8.59246e-21)
(-0.090702 0.0156352 2.09923e-20)
(-0.102644 0.0152515 6.82821e-20)
(-0.114089 0.0147927 -1.15667e-20)
(-0.124917 0.0142805 1.7211e-20)
(-0.135011 0.0137168 -1.05302e-20)
(-0.144248 0.0130911 2.76201e-20)
(-0.152487 0.0123911 -3.33241e-21)
(-0.159585 0.0116215 1.55111e-20)
(-0.165468 0.0108456 -9.53791e-20)
(-0.170065 0.0101676 9.52342e-21)
(-0.173192 0.00976634 -1.34791e-20)
(-0.00106538 0.00439568 2.20429e-20)
(-0.0047572 0.0111267 2.32012e-20)
(-0.0114912 0.016233 -5.27735e-21)
(-0.0202091 0.0199712 -1.17704e-20)
(-0.0303366 0.0225397 -4.65988e-21)
(-0.0414553 0.0241279 1.68393e-20)
(-0.0531624 0.0249255 2.5158e-20)
(-0.0651117 0.0251119 -5.63646e-20)
(-0.0770217 0.0248486 1.63585e-20)
(-0.0886672 0.0242715 -2.08449e-20)
(-0.0998684 0.0234845 -3.61691e-20)
(-0.110478 0.0225563 -7.1042e-21)
(-0.120368 0.0215208 -1.10941e-20)
(-0.129409 0.0203819 -2.54979e-20)
(-0.137467 0.0191243 3.01776e-20)
(-0.144384 0.0177302 -2.88684e-20)
(-0.14998 0.0162076 3.73034e-21)
(-0.154141 0.0146663 9.36603e-20)
(-0.156771 0.0133303 -6.63408e-20)
(-0.156994 0.0123589 5.68734e-20)
(-0.00141903 0.00595704 -1.63073e-20)
(-0.00554615 0.0150813 3.08702e-20)
(-0.012413 0.0220014 -4.47012e-20)
(-0.0210396 0.0270574 2.0917e-20)
(-0.0308907 0.0305148 -1.14901e-19)
(-0.0415717 0.0326298 -7.11849e-20)
(-0.0526982 0.033659 4.52628e-20)
(-0.0639357 0.0338453 1.11136e-19)
(-0.0750078 0.0334072 -4.6175e-20)
(-0.0856883 0.0325285 -3.20136e-20)
(-0.095791 0.0313502 -4.61806e-20)
(-0.105159 0.0299661 9.49751e-20)
(-0.113648 0.0284239 1.18442e-19)
(-0.121115 0.0267304 -9.40779e-20)
(-0.127404 0.0248645 -7.70232e-20)
(-0.132336 0.0227986 2.8917e-20)
(-0.135678 0.0205277 -6.44852e-20)
(-0.137243 0.018183 -3.09174e-21)
(-0.137052 0.0161711 1.09295e-19)
(-0.132824 0.0142921 3.67873e-20)
(-0.00186742 0.00738495 6.46036e-20)
(-0.00655172 0.0187222 2.05848e-20)
(-0.0135949 0.0273416 7.12625e-20)
(-0.022111 0.0336456 -2.17564e-20)
(-0.0316108 0.037954 1.12087e-19)
(-0.0417279 0.0405795 6.85178e-20)
(-0.0521 0.041838 -8.31164e-20)
(-0.0624067 0.0420303 -1.07907e-19)
(-0.0723774 0.0414279 9.99343e-20)
(-0.0817837 0.0402604 -2.84452e-20)
(-0.0904304 0.0387053 4.26218e-20)
(-0.0981447 0.0368826 -1.69865e-19)
(-0.104763 0.034855 6.00108e-20)
(-0.110118 0.0326342 2.24088e-20)
(-0.114025 0.0301936 1.27622e-20)
(-0.116277 0.0274927 4.78672e-20)
(-0.116581 0.0244976 1.26088e-19)
(-0.114585 0.0213066 3.33393e-21)
(-0.11085 0.0186521 -3.84782e-20)
(-0.100399 0.0153768 3.83525e-20)
(-0.00239412 0.00865412 4.47136e-20)
(-0.00774042 0.0219865 2.22574e-20)
(-0.0150012 0.0321627 -1.16035e-19)
(-0.023393 0.0396247 -6.96878e-20)
(-0.0324759 0.0447316 -2.76413e-20)
(-0.0419134 0.0478417 9.30092e-20)
(-0.0513674 0.0493213 1.11326e-19)
(-0.0605327 0.0495224 -1.37814e-20)
(-0.0691444 0.048765 -2.67329e-20)
(-0.07697 0.0473215 -2.34724e-20)
(-0.0838018 0.0454049 -7.63812e-20)
(-0.0894457 0.0431618 1.75075e-19)
(-0.0937099 0.0406725 -9.75891e-22)
(-0.0963924 0.0379562 -6.93406e-20)
(-0.0972667 0.0349831 -6.02634e-21)
(-0.0960899 0.0317002 1.42412e-20)
(-0.0925281 0.0280368 4.51242e-20)
(-0.0858288 0.0239572 -1.67727e-19)
(-0.0779598 0.0207448 7.71843e-20)
(-0.0591997 0.0156999 -6.57556e-20)
(-0.00298115 0.00974675 -7.46538e-20)
(-0.00907499 0.0248268 4.34717e-20)
(-0.0165916 0.0363925 5.22009e-20)
(-0.0248502 0.0449016 4.5141e-20)
(-0.0334595 0.0507379 9.82342e-20)
(-0.0421122 0.0542941 1.43775e-20)
(-0.0504942 0.0559775 -1.41554e-20)
(-0.0583154 0.0561841 4.32512e-20)
(-0.0653151 0.0552768 -6.53167e-20)
(-0.0712545 0.0535677 -6.59306e-21)
(-0.075908 0.0513034 3.23241e-20)
(-0.079053 0.0486576 -1.48677e-19)
(-0.080459 0.0457301 -4.9797e-20)
(-0.0798765 0.0425515 4.68042e-20)
(-0.0770183 0.0390937 -1.13508e-19)
(-0.0715866 0.035295 1.27223e-19)
(-0.0632862 0.0310608 1.58446e-20)
(-0.0504904 0.0261236 -1.92396e-20)
(-0.0378306 0.022285 -2.10651e-19)
(-0.00868544 0.0160185 1.23862e-19)
(-0.00361028 0.0106531 -2.95327e-20)
(-0.0105167 0.0272128 -3.22825e-20)
(-0.0183224 0.0399789 -1.53822e-19)
(-0.0264425 0.0494037 -6.88198e-20)
(-0.0345289 0.055882 -2.3621e-19)
(-0.0423001 0.0598301 -2.0119e-20)
(-0.049464 0.0616876 -1.19289e-19)
(-0.0557435 0.0618871 -8.6016e-20)
(-0.0608797 0.0608287 1.91319e-19)
(-0.0646232 0.05886 3.28089e-20)
(-0.0667244 0.0562591 8.29979e-20)
(-0.0669226 0.0532261 1.05463e-19)
(-0.0649352 0.0498821 -3.61123e-20)
(-0.060449 0.0462738 -1.21419e-19)
(-0.0530929 0.0423811 1.10602e-19)
(-0.0424634 0.0381397 1.0556e-19)
(-0.0284621 0.0334447 -1.06995e-19)
(-0.00805265 0.0279642 1.51373e-19)
(0.0106148 0.0232436 2.38074e-19)
(0.0518765 0.0161085 6.70001e-20)
(-0.00426432 0.0113716 7.85107e-20)
(-0.0120277 0.0291313 9.565e-20)
(-0.0201491 0.0428911 4.71029e-20)
(-0.0281255 0.05308 1.18338e-19)
(-0.0356432 0.060093 5.4979e-20)
(-0.0424408 0.0643612 1.47137e-19)
(-0.0482437 0.0663485 1.28651e-19)
(-0.0527839 0.0665166 -5.1454e-20)
(-0.0557999 0.0652976 -8.36549e-20)
(-0.0570257 0.0630697 1.51029e-19)
(-0.056179 0.0601396 -9.62482e-20)
(-0.0529487 0.0567331 7.14038e-20)
(-0.0469835 0.0529938 9.79783e-20)
(-0.0378859 0.0489883 1.09599e-19)
(-0.0251792 0.0447126 -3.24491e-19)
(-0.00827501 0.0401168 -1.5561e-19)
(0.0126157 0.0350846 -4.26691e-20)
(0.0424123 0.0293315 1.82129e-19)
(0.0677838 0.0240458 -3.9981e-19)
(0.125717 0.0159384 -1.52454e-19)
(-0.00492825 0.0119082 1.16662e-19)
(-0.0135725 0.0305857 -1.42198e-19)
(-0.0220267 0.045119 -1.50441e-19)
(-0.0298501 0.055902 -1.57272e-19)
(-0.0367515 0.0633225 -9.83176e-20)
(-0.0424813 0.0678199 -2.36373e-20)
(-0.0467758 0.0698759 -1.62947e-19)
(-0.0493702 0.0699757 2.04786e-19)
(-0.0499934 0.0685771 5.98674e-20)
(-0.0483538 0.0660848 5.91851e-20)
(-0.0441245 0.0628312 -2.41934e-19)
(-0.0369284 0.0590662 3.7621e-20)
(-0.0263242 0.054957 -3.04245e-20)
(-0.0118042 0.0505936 -1.04314e-20)
(0.00723603 0.0459971 -1.2225e-19)
(0.0316708 0.0411548 1.60829e-19)
(0.0606584 0.0358982 -3.54756e-20)
(0.102433 0.0301186 -4.07909e-19)
(0.134472 0.0248245 5.78726e-20)
(0.214713 0.0164599 2.85589e-19)
(-0.00559001 0.0122751 8.32201e-20)
(-0.0151198 0.0315935 -2.72251e-20)
(-0.0239109 0.0466714 1.5788e-19)
(-0.0315616 0.0578625 7.9667e-20)
(-0.037789 0.0655442 1.1516e-19)
(-0.042345 0.0701614 1.08216e-20)
(-0.0449684 0.0722087 2.21403e-19)
(-0.0453884 0.0721902 -2.01106e-19)
(-0.0433143 0.0705849 -9.24972e-20)
(-0.0384159 0.0678199 -3.79242e-20)
(-0.0303052 0.0642504 2.40803e-19)
(-0.0185181 0.0601501 -4.27579e-20)
(-0.00249803 0.055711 3.69986e-20)
(0.0184043 0.0510508 1.53846e-19)
(0.0449302 0.0462209 1.48955e-19)
(0.0784003 0.0412917 -2.62369e-19)
(0.116761 0.0358641 -1.47202e-19)
(0.173512 0.030758 8.01834e-20)
(0.211956 0.0251623 2.57223e-19)
(0.320242 0.0185124 -3.4146e-20)
(-0.00624102 0.0124899 -1.10175e-19)
(-0.0166424 0.0321843 -6.17665e-20)
(-0.0257572 0.0475738 -8.62982e-20)
(-0.033197 0.0589742 -8.41636e-20)
(-0.038672 0.0667548 9.66821e-20)
(-0.0419243 0.0713653 -1.88622e-19)
(-0.0426834 0.0733123 1.87051e-19)
(-0.0406606 0.0731151 1.29117e-20)
(-0.0355307 0.0712711 -1.62054e-19)
(-0.026907 0.0682269 -3.73334e-20)
(-0.0143181 0.0643593 -1.5304e-19)
(0.00281322 0.0599661 6.98715e-20)
(0.0251893 0.055268 -4.86736e-20)
(0.053634 0.0504168 -2.96709e-19)
(0.0890129 0.045494 1.40043e-20)
(0.13326 0.0407632 9.44353e-20)
(0.18246 0.0351268 2.09604e-19)
(0.257024 0.0318768 3.69368e-19)
(0.301834 0.0251479 6.35381e-20)
(0.442281 0.0225849 -4.01158e-19)
(-0.00687607 0.0125729 -1.52448e-19)
(-0.018117 0.0323952 -2.20993e-20)
(-0.0275188 0.0478641 3.08191e-19)
(-0.0346815 0.0592671 -1.39469e-19)
(-0.0392926 0.0669722 7.15176e-21)
(-0.0410711 0.0714376 -1.36288e-19)
(-0.0397235 0.0731826 -1.31741e-19)
(-0.0349266 0.0727415 2.14467e-20)
(-0.0263007 0.0706282 7.08978e-20)
(-0.0133786 0.0673088 2.65209e-19)
(0.0044231 0.0631825 -8.46918e-20)
(0.0278264 0.058575 -3.66118e-19)
(0.0577079 0.053742 2.62356e-19)
(0.0950938 0.0488807 2.29362e-19)
(0.140932 0.04409 1.50684e-19)
(0.197823 0.0400169 3.81697e-19)
(0.259619 0.0341841 -1.25147e-19)
(0.353636 0.0341112 -5.80214e-19)
(0.405826 0.0257066 9.41248e-20)
(0.578114 0.0290137 1.10956e-19)
(-0.00749275 0.0125456 -7.93297e-20)
(-0.0195222 0.0322674 1.05861e-19)
(-0.029144 0.0475886 -1.07355e-19)
(-0.0359238 0.0587849 1.71384e-19)
(-0.0395111 0.0662343 -1.98451e-19)
(-0.0395877 0.0704109 1.84947e-19)
(-0.035819 0.0718498 3.70155e-20)
(-0.0278265 0.0711024 -2.01221e-19)
(-0.0151505 0.0687012 1.69623e-19)
(0.00278758 0.0651337 -1.84898e-19)
(0.0267164 0.0608264 2.31224e-19)
(0.0575335 0.0561403 1.25514e-19)
(0.0963082 0.0513768 1.0178e-19)
(0.144265 0.0467941 -1.56213e-19)
(0.20236 0.0424817 -2.60087e-20)
(0.273607 0.0396595 -2.01829e-19)
(0.350004 0.0340212 1.41941e-19)
(0.462629 0.0378893 6.62665e-21)
(0.524742 0.0284224 -2.51662e-19)
(0.721496 0.0381296 1.09441e-19)
(-0.00809026 0.0124281 1.7907e-20)
(-0.0208356 0.0318413 6.78972e-20)
(-0.0305716 0.0467971 1.49214e-20)
(-0.0368107 0.0575818 5.70711e-20)
(-0.0391494 0.0645977 1.36918e-19)
(-0.0372164 0.0683447 1.29292e-19)
(-0.0306155 0.0693809 9.24073e-20)
(-0.0188865 0.06828 1.16651e-19)
(-0.00145794 0.0655978 -2.37281e-19)
(0.0223942 0.0618494 -3.49029e-20)
(0.0535763 0.0574976 -3.81068e-19)
(0.0931815 0.0529504 -1.20213e-19)
(0.142458 0.0485675 -1.37961e-19)
(0.202755 0.0446858 2.27005e-19)
(0.274908 0.0413626 -3.5802e-19)
(0.361647 0.0403674 6.9457e-20)
(0.454337 0.0359972 2.78695e-20)
(0.581571 0.0434575 3.58375e-19)
(0.656647 0.0347872 -1.7714e-19)
(0.863098 0.0499926 1.35669e-19)
(-0.00866776 0.0122373 2.37716e-19)
(-0.0220304 0.0311528 8.63821e-20)
(-0.0317261 0.0455391 1.58497e-19)
(-0.0372006 0.0557181 1.44791e-19)
(-0.0379839 0.0621337 2.46817e-20)
(-0.033633 0.0653247 -3.14105e-19)
(-0.0236663 0.0658823 -2.324e-19)
(-0.00751078 0.0644105 -2.11776e-19)
(0.0155507 0.061497 2.0072e-19)
(0.0464208 0.0576954 1.2177e-19)
(0.0862036 0.0535173 4.34571e-19)
(0.136176 0.0494316 -3.57384e-19)
(0.197688 0.045868 1.33791e-19)
(0.272017 0.0432457 -2.561e-19)
(0.359646 0.041609 1.91813e-19)
(0.461981 0.042854 -6.88321e-20)
(0.571084 0.0413198 9.32425e-20)
(0.706381 0.0510945 -3.29393e-19)
(0.795266 0.0453942 2.73989e-19)
(0.992483 0.0638889 1.19862e-19)
(-0.00922238 0.0119852 -3.28787e-19)
(-0.0230705 0.0302299 1.35593e-19)
(-0.0325123 0.0438595 -2.15531e-19)
(-0.0369187 0.0532562 -2.04188e-19)
(-0.0357399 0.0589264 7.47337e-20)
(-0.0284417 0.0614625 3.75882e-19)
(-0.0144297 0.0615009 -2.75472e-19)
(0.00701418 0.0596875 3.50655e-20)
(0.0367853 0.0566549 -7.93235e-20)
(0.0759852 0.0530093 -7.8313e-20)
(0.125904 0.0493259 2.03953e-19)
(0.187927 0.0461465 4.5158e-19)
(0.263326 0.0439722 -1.68298e-20)
(0.352953 0.0432717 3.87401e-20)
(0.456496 0.0441295 -1.52777e-20)
(0.573073 0.0478772 -2.58174e-19)
(0.695736 0.0504644 2.52172e-19)
(0.831499 0.0610446 3.99333e-19)
(0.930332 0.0596368 1.15022e-19)
(1.1008 0.0782679 -2.20231e-19)
(-0.00974685 0.0116775 -8.52784e-20)
(-0.0239064 0.0290905 2.77351e-19)
(-0.0328102 0.0417947 -8.88767e-21)
(-0.035752 0.0502585 1.96936e-19)
(-0.0320895 0.0550708 9.20044e-20)
(-0.0211763 0.0568935 8.92542e-20)
(-0.00227693 0.0564231 -1.11696e-19)
(0.0255012 0.0543626 1.92263e-19)
(0.0632517 0.0514049 3.35561e-20)
(0.112266 0.0482251 -1.16995e-19)
(0.17395 0.0454746 -6.82449e-20)
(0.249621 0.0437689 -3.08911e-19)
(0.34015 0.0436586 -3.1195e-19)
(0.445439 0.0455765 7.34197e-20)
(0.563716 0.0496382 -2.63348e-20)
(0.691318 0.0560765 -1.04621e-19)
(0.821276 0.063017 -3.43196e-19)
(0.950178 0.0731362 -4.13478e-19)
(1.05051 0.0760016 -4.80777e-19)
(1.18302 0.0913355 5.17863e-20)
(-0.0102271 0.0113133 1.73858e-20)
(-0.0244712 0.0277405 -2.50836e-19)
(-0.0324711 0.0393726 -2.3765e-19)
(-0.0334472 0.0467861 -1.59525e-19)
(-0.0266524 0.0506706 2.87957e-19)
(-0.011307 0.0517755 -6.23755e-19)
(0.0134904 0.0508739 1.27833e-19)
(0.0488254 0.0487427 -7.38479e-20)
(0.0959831 0.0461529 2.12907e-19)
(0.156382 0.0438616 2.6378e-20)
(0.231384 0.0425986 -3.30705e-19)
(0.32193 0.0430303 1.45351e-19)
(0.427995 0.0456931 4.58898e-20)
(0.547897 0.0508461 1.45054e-19)
(0.677689 0.0584667 -1.54488e-19)
(0.811009 0.0676064 2.74032e-19)
(0.939741 0.0778961 -1.16863e-19)
(1.0555 0.0866202 6.07539e-20)
(1.14725 0.0927066 -4.11848e-20)
(1.23873 0.101625 -1.59538e-19)
(-0.0106407 0.0108856 2.77584e-19)
(-0.0246763 0.0261758 -5.24027e-20)
(-0.0313154 0.0366133 -3.34305e-20)
(-0.0297112 0.0428982 1.92442e-19)
(-0.0190017 0.045838 -9.84338e-20)
(0.00174455 0.0462874 5.63265e-19)
(0.0336099 0.0451135 2.64455e-20)
(0.0778686 0.0431851 1.74808e-19)
(0.135944 0.0413653 -2.9541e-19)
(0.209241 0.0404976 -2.26551e-19)
(0.298793 0.0413703 3.3561e-19)
(0.404706 0.0446375 -2.76358e-19)
(0.525436 0.0506988 2.24215e-19)
(0.657094 0.0594592 -4.03207e-20)
(0.793169 0.0704724 6.87328e-19)
(0.925204 0.0818812 -1.42083e-20)
(1.04414 0.093682 2.36349e-19)
(1.14218 0.100497 3.40925e-19)
(1.21714 0.108102 2.03496e-19)
(1.27134 0.108006 3.23659e-19)
(-0.0109556 0.0103824 1.3472e-19)
(-0.0244104 0.0243841 -3.03055e-19)
(-0.0291317 0.033531 1.02541e-19)
(-0.0242144 0.0386547 1.68084e-19)
(-0.00867401 0.0406952 1.42251e-19)
(0.0185832 0.0406293 -4.10024e-19)
(0.0588173 0.0394355 1.85637e-19)
(0.113448 0.0380889 8.51547e-20)
(0.183916 0.0375509 3.67899e-20)
(0.271362 0.0387359 1.53325e-19)
(0.376074 0.042434 -9.01101e-20)
(0.496735 0.0491692 2.79819e-19)
(0.62965 0.0590177 -2.35237e-19)
(0.76835 0.0713342 -2.41968e-19)
(0.904038 0.0850231 -4.17116e-19)
(1.02734 0.0976896 -1.31688e-19)
(1.12994 0.109028 -2.83846e-19)
(1.20792 0.113902 -3.12107e-19)
(1.26192 0.120441 -2.80471e-19)
(1.28772 0.109907 -1.54119e-19)
(-0.0111296 0.00978864 2.05798e-19)
(-0.0235393 0.0223493 -5.32376e-20)
(-0.0256792 0.0301394 -1.42142e-19)
(-0.0165975 0.0341211 -4.61702e-19)
(0.00481541 0.0353778 -3.68166e-20)
(0.039812 0.0350242 4.9194e-19)
(0.089796 0.0341636 -1.11192e-19)
(0.156233 0.0338848 9.6097e-20)
(0.240368 0.0352365 2.29733e-19)
(0.342707 0.0391555 6.90589e-20)
(0.46225 0.0463266 -4.4879e-19)
(0.595633 0.056965 -1.11468e-19)
(0.736582 0.0706029 -7.81785e-20)
(0.876207 0.0858947 2.2352e-19)
(1.0045 0.101089 6.44533e-19)
(1.11284 0.113618 -2.03303e-19)
(1.19571 0.123052 -1.33159e-19)
(1.25345 0.125939 3.43178e-19)
(1.28691 0.12827 1.8632e-19)
(1.3049 0.119011 8.04864e-20)
(-0.0111104 0.00908883 -2.20901e-19)
(-0.0219067 0.0200572 1.63223e-19)
(-0.0206917 0.0264582 -3.34124e-19)
(-0.00648069 0.0293746 3.77603e-20)
(0.0219543 0.0300407 2.34726e-19)
(0.0659985 0.0297207 -4.99531e-19)
(0.12712 0.0296496 -5.25698e-19)
(0.206656 0.0310223 9.61247e-21)
(0.305338 0.0349359 -3.15273e-19)
(0.422545 0.0422555 -2.23668e-19)
(0.555388 0.0533934 3.58251e-19)
(0.697972 0.0680365 5.71936e-19)
(0.841462 0.0849839 -2.24647e-19)
(0.975427 0.102187 -1.42423e-19)
(1.09029 0.11748 -3.58871e-19)
(1.17991 0.128536 2.53572e-20)
(1.24265 0.13536 -1.27451e-20)
(1.28179 0.135584 -1.29182e-20)
(1.30145 0.13539 3.6871e-20)
(1.31068 0.124925 4.74649e-19)
(-0.0108365 0.0082698 2.21773e-19)
(-0.0193376 0.0175016 2.45711e-19)
(-0.0138844 0.0225207 3.24534e-19)
(0.00652372 0.0245131 1.2921e-19)
(0.0432112 0.0248654 -1.77431e-19)
(0.0976365 0.024997 -1.24772e-19)
(0.171195 0.0262694 -1.77746e-20)
(0.264828 0.0299528 1.80299e-19)
(0.378327 0.0371128 1.67152e-19)
(0.50938 0.0483925 1.07959e-19)
(0.652673 0.063716 -1.32076e-20)
(0.799652 0.0820323 -2.74324e-19)
(0.939583 0.101345 2.2207e-19)
(1.06198 0.11911 -3.30459e-20)
(1.15942 0.133158 1.0316e-19)
(1.22931 0.141832 4.51379e-20)
(1.27363 0.145697 -3.45128e-20)
(1.29806 0.143594 8.86232e-20)
(1.30746 0.141078 -6.8038e-20)
(1.31044 0.130123 -4.70729e-19)
(-0.010239 0.00732346 1.1609e-19)
(-0.0156426 0.0146904 -4.42839e-19)
(-0.00496178 0.0183828 2.18676e-19)
(0.0227968 0.0196635 9.16621e-20)
(0.06901 0.0200671 -2.70258e-19)
(0.135106 0.0211636 2.64983e-19)
(0.222194 0.0244166 1.49907e-19)
(0.330463 0.0311062 -3.60573e-19)
(0.458245 0.0421359 4.42603e-20)
(0.600984 0.0577228 -6.96909e-20)
(0.75067 0.0770748 1.65678e-19)
(0.896501 0.0982861 -1.26227e-19)
(1.02712 0.118703 -1.93268e-19)
(1.13367 0.135671 2.86875e-19)
(1.21207 0.14746 -1.40219e-19)
(1.26341 0.153303 5.65261e-20)
(1.29245 0.154347 -1.33352e-19)
(1.30578 0.150248 1.05675e-21)
(1.30836 0.14605 -1.19698e-19)
(1.30784 0.134716 1.30869e-19)
(-0.00924301 0.00624917 -2.88516e-20)
(-0.0106232 0.0116518 -1.31866e-19)
(0.00637236 0.0141302 -1.48897e-19)
(0.042696 0.01499 8.60924e-20)
(0.0997024 0.0159004 -2.53439e-20)
(0.178629 0.0185625 1.6149e-19)
(0.280009 0.0244893 1.15635e-19)
(0.402824 0.0348607 1.11212e-19)
(0.543406 0.0502329 3.66634e-20)
(0.694563 0.0701622 9.80172e-20)
(0.845747 0.0929685 1.66478e-19)
(0.984915 0.115946 3.69102e-20)
(1.10168 0.13612 -8.37695e-20)
(1.19015 0.151171 6.35576e-20)
(1.25 0.160118 2.0957e-19)
(1.28534 0.163096 -3.78104e-19)
(1.30248 0.161662 1.216e-19)
(1.308 0.156024 1.41572e-19)
(1.30628 0.150537 4.69158e-20)
(1.30327 0.139007 9.25994e-20)
(-0.00776972 0.00505572 -4.63176e-20)
(-0.00407789 0.00843909 2.87766e-19)
(0.0204028 0.00988506 1.0117e-19)
(0.0665348 0.0106995 -3.1088e-19)
(0.135537 0.0126612 -8.37643e-20)
(0.22823 0.0175602 1.59217e-19)
(0.344195 0.0268688 7.80284e-20)
(0.480705 0.0415055 2.74101e-19)
(0.631623 0.0614501 -1.03813e-20)
(0.787043 0.0853826 1.33536e-20)
(0.934574 0.110698 -1.41017e-19)
(1.06236 0.134147 -2.22287e-19)
(1.16243 0.152872 -2.39375e-20)
(1.23256 0.165256 -1.40502e-19)
(1.27575 0.171176 1.17787e-19)
(1.29816 0.171519 5.73031e-19)
(1.30654 0.168042 2.23788e-19)
(1.3068 0.161254 -2.18402e-19)
(1.3024 0.154783 -1.08132e-19)
(1.29795 0.143155 4.40624e-20)
(-0.00573873 0.00376272 2.28563e-19)
(0.00419001 0.00513387 -3.51235e-19)
(0.0373895 0.00580965 -3.36036e-19)
(0.0945611 0.00704379 4.59375e-19)
(0.176626 0.0106821 1.38442e-19)
(0.283694 0.0185323 -8.63675e-20)
(0.413953 0.0318907 -2.51003e-19)
(0.562475 0.051203 -3.1365e-19)
(0.720385 0.0756327 2.11204e-19)
(0.875433 0.102857 3.76452e-20)
(1.01455 0.129497 1.13164e-19)
(1.12756 0.152157 9.35399e-20)
(1.20986 0.16852 -5.22556e-21)
(1.26284 0.177861 -6.30264e-20)
(1.29202 0.180863 -1.27003e-19)
(1.30449 0.17893 -3.42778e-19)
(1.30669 0.173826 -1.34559e-19)
(1.30351 0.166189 4.48703e-19)
(1.29751 0.158925 7.44755e-20)
(1.29208 0.147269 -1.09633e-19)
(-0.00307022 0.00240153 -2.39081e-19)
(0.0143646 0.00184807 2.47794e-19)
(0.0575519 0.00210721 5.52298e-21)
(0.126933 0.00431587 -1.04086e-19)
(0.222916 0.010322 -3.36178e-20)
(0.344539 0.0218416 -2.99965e-20)
(0.488129 0.0398112 -1.84875e-19)
(0.646166 0.0639606 2.24729e-19)
(0.807105 0.0924385 -3.74465e-19)
(0.957185 0.121947 1.09835e-21)
(1.08407 0.148653 -6.75753e-20)
(1.18042 0.169462 -3.36121e-20)
(1.24536 0.182887 7.74323e-20)
(1.28328 0.189123 -1.71571e-19)
(1.30123 0.189484 -9.81706e-21)
(1.30636 0.185658 9.42282e-20)
(1.30434 0.179274 -2.30546e-19)
(1.29896 0.170994 -2.74148e-21)
(1.29201 0.163055 -2.03983e-22)
(1.28591 0.151387 1.93645e-19)
(0.000312319 0.00101569 3.49779e-20)
(0.0266082 -0.00127611 6.85584e-20)
(0.0810529 -0.000980626 1.34695e-19)
(0.163696 0.00284204 -7.36486e-20)
(0.27416 0.0119479 -2.38528e-19)
(0.410007 0.0278093 6.25919e-20)
(0.565264 0.0507762 1.41606e-19)
(0.729644 0.0796215 7.84801e-20)
(0.889398 0.111387 2.64224e-19)
(1.03044 0.142001 -7.25387e-20)
(1.14248 0.167604 -4.34074e-20)
(1.22174 0.185779 3.69475e-20)
(1.27074 0.196003 -1.05581e-19)
(1.29606 0.199278 -1.46022e-19)
(1.30535 0.197347 -9.49574e-20)
(1.30525 0.191972 7.77812e-20)
(1.3004 0.18457 1.95999e-19)
(1.29364 0.17577 -9.48735e-20)
(1.2861 0.167216 -1.47122e-19)
(1.27951 0.155537 2.1714e-20)
(0.00447903 -0.0003391 6.26528e-20)
(0.0410513 -0.00406784 1.43051e-20)
(0.107982 -0.00317975 -1.82006e-19)
(0.204759 0.00296874 2.41343e-19)
(0.329903 0.015913 5.37159e-20)
(0.479077 0.0366858 -2.83554e-19)
(0.643683 0.0647999 1.08364e-19)
(0.810791 0.0978836 -1.42495e-19)
(0.965307 0.131929 7.00888e-21)
(1.09413 0.162445 2.34249e-20)
(1.19001 0.185972 6.76057e-20)
(1.25281 0.201019 7.69295e-21)
(1.2879 0.208017 2.96679e-19)
(1.30307 0.208596 1.16927e-19)
(1.3059 0.204717 -5.45834e-20)
(1.30215 0.198072 -6.38388e-20)
(1.29545 0.189834 3.67649e-20)
(1.2878 0.180573 3.6635e-20)
(1.27989 0.171432 -6.05788e-20)
(1.27292 0.159723 -6.88937e-20)
(0.00949011 -0.00159533 -7.35552e-20)
(0.0577824 -0.00633109 4.71729e-21)
(0.138338 -0.0041925 3.72583e-20)
(0.249881 0.0050457 -1.01765e-19)
(0.389479 0.0225317 1.98009e-19)
(0.55051 0.0486258 1.13172e-19)
(0.721617 0.081762 -1.15465e-19)
(0.887702 0.118341 -7.63248e-20)
(1.03345 0.153525 6.89846e-20)
(1.14791 0.18283 -1.0676e-19)
(1.22743 0.203552 7.91594e-20)
(1.27519 0.215232 -1.71997e-21)
(1.29857 0.219141 2.36127e-21)
(1.30584 0.21733 -5.74776e-20)
(1.30396 0.211807 1.63227e-19)
(1.29771 0.204096 -1.30275e-20)
(1.28979 0.195135 6.82033e-20)
(1.28157 0.18543 -9.87224e-20)
(1.27342 0.175708 7.57902e-20)
(1.26614 0.163945 -2.88674e-20)
(0.0153919 -0.00267473 1.22e-19)
(0.0768379 -0.00784976 1.47494e-19)
(0.17202 -0.00370926 1.09533e-19)
(0.298663 0.00940678 -1.58981e-20)
(0.452027 0.0320556 2.30281e-20)
(0.622919 0.0636727 1.94481e-21)
(0.797343 0.101423 2.5038e-19)
(0.958828 0.140536 -7.41919e-20)
(1.09303 0.175696 5.17218e-20)
(1.19205 0.202846 -2.61127e-19)
(1.25586 0.220278 3.80025e-20)
(1.29041 0.228551 1.12402e-19)
(1.30425 0.229597 -5.11298e-20)
(1.30551 0.225697 1.03745e-19)
(1.30028 0.21877 -1.33517e-19)
(1.29233 0.21013 1.80214e-19)
(1.28362 0.200508 5.36433e-21)
(1.27502 0.190346 -5.83073e-20)
(1.26669 0.180042 2.63673e-21)
(1.25917 0.168195 8.87035e-20)
(0.0222131 -0.00348982 -2.31371e-19)
(0.0981932 -0.00839443 6.00581e-20)
(0.208814 -0.00142187 -2.27719e-20)
(0.35055 0.0163503 -1.69556e-19)
(0.516528 0.0446543 -6.20162e-20)
(0.694856 0.0817563 -1.20294e-19)
(0.86931 0.123455 -1.037e-19)
(1.02305 0.164013 -1.11455e-19)
(1.1438 0.198057 1.1362e-19)
(1.2272 0.222315 5.55481e-20)
(1.27656 0.236187 -1.61907e-19)
(1.29987 0.241145 -3.95293e-20)
(1.30614 0.239591 -1.86869e-20)
(1.30293 0.233862 -7.79054e-20)
(1.29535 0.22571 -1.31572e-20)
(1.28626 0.216222 -3.15051e-20)
(1.27702 0.205964 -1.24479e-19)
(1.26816 0.195316 6.08162e-20)
(1.25971 0.184424 7.22206e-20)
(1.252 0.17246 -1.79069e-20)
(0.0299609 -0.00394609 8.71809e-21)
(0.121756 -0.0077305 -1.08859e-19)
(0.248392 0.00296179 5.05961e-20)
(0.404844 0.0261207 -3.51996e-20)
(0.581857 0.0604034 4.3719e-20)
(0.764913 0.102703 1.98708e-19)
(0.936235 0.147479 -8.68948e-20)
(1.07971 0.188355 2.13648e-19)
(1.18595 0.220325 1.01957e-20)
(1.25424 0.241158 1.04204e-19)
(1.29076 0.251372 9.06186e-21)
(1.30474 0.253189 7.01886e-20)
(1.30515 0.24929 1.40032e-20)
(1.29868 0.241945 6.99626e-21)
(1.28946 0.232686 -9.94718e-20)
(1.27961 0.222393 1.728e-20)
(1.27002 0.211499 8.87407e-20)
(1.26099 0.200327 4.52192e-21)
(1.25247 0.188842 -4.2595e-20)
(1.24461 0.176726 1.71174e-20)
(0.0386176 -0.00394493 2.91541e-20)
(0.147361 -0.00562762 8.95354e-20)
(0.290316 0.009703 9.646e-20)
(0.460731 0.0388932 -2.59506e-20)
(0.646839 0.0792801 1.26185e-19)
(0.8318 0.126256 -2.52654e-20)
(0.997151 0.173102 2.04947e-19)
(1.12852 0.213206 -2.58435e-19)
(1.21994 0.24231 -4.5378e-20)
(1.27417 0.259373 -4.50969e-20)
(1.29956 0.265951 -5.38358e-20)
(1.30601 0.264838 -1.27316e-20)
(1.30196 0.258826 1.76068e-20)
(1.29315 0.250021 -6.36178e-20)
(1.28281 0.239729 6.61217e-20)
(1.27245 0.228641 -2.82155e-20)
(1.26264 0.217097 -2.18946e-20)
(1.2535 0.20536 -1.88071e-20)
(1.24495 0.193277 -1.13115e-20)
(1.23698 0.180972 -3.6805e-20)
(0.0481386 -0.00338711 1.38854e-19)
(0.174772 -0.00186979 -1.38749e-19)
(0.334048 0.0190182 1.66055e-20)
(0.517315 0.0547632 -1.72027e-20)
(0.710316 0.101168 -4.6379e-20)
(0.894412 0.1521 -9.46833e-20)
(1.05141 0.199941 -1.40253e-20)
(1.16953 0.238276 6.30581e-20)
(1.24645 0.263895 2.86145e-20)
(1.28795 0.276998 -3.44547e-20)
(1.30395 0.280047 3.85731e-20)
(1.30442 0.27622 -8.65601e-21)
(1.29704 0.268285 -7.43192e-20)
(1.28658 0.258132 1.06984e-19)
(1.27549 0.246842 2.92362e-20)
(1.2648 0.234953 -1.46774e-20)
(1.25486 0.222734 1.80992e-20)
(1.24568 0.210392 2.77318e-20)
(1.23715 0.197711 2.67876e-20)
(1.22911 0.185179 2.76818e-20)
(0.0584511 -0.00217675 -1.45167e-19)
(0.20368 0.00373437 1.16881e-19)
(0.378965 0.0310668 5.1254e-20)
(0.573658 0.0737404 -1.05135e-19)
(0.771204 0.125868 -2.29827e-20)
(0.951862 0.179883 -8.70484e-20)
(1.09867 0.227642 3.47548e-20)
(1.20302 0.263338 -5.73572e-20)
(1.26619 0.285018 4.3266e-21)
(1.29647 0.294094 9.0199e-21)
(1.30469 0.293767 1.66873e-20)
(1.30052 0.287429 -6.27972e-20)
(1.29071 0.277719 6.30668e-20)
(1.27911 0.266288 -4.46528e-20)
(1.26754 0.25401 -1.24761e-20)
(1.25667 0.241302 5.67033e-21)
(1.24668 0.228381 -1.23553e-20)
(1.23751 0.215399 -2.70591e-20)
(1.22904 0.20212 -1.36768e-21)
(1.22098 0.189324 -1.76298e-20)
(0.0694542 -0.000225437 -1.82729e-20)
(0.233716 0.0113418 -5.52901e-20)
(0.424385 0.0459417 -1.88438e-20)
(0.628818 0.0957488 3.00536e-20)
(0.828533 0.153111 -1.90633e-20)
(1.0035 0.20924 1.95756e-20)
(1.13881 0.255888 4.5288e-20)
(1.22943 0.288218 3.97849e-20)
(1.27991 0.305652 3.11979e-20)
(1.30051 0.310724 -6.61824e-21)
(1.30244 0.307195 -1.7642e-20)
(1.29473 0.298523 2.05892e-20)
(1.28318 0.287149 -1.00657e-20)
(1.27084 0.274478 1.21812e-20)
(1.25899 0.261207 -7.33816e-21)
(1.24805 0.247655 1.5085e-20)
(1.23808 0.234005 -4.02603e-21)
(1.22898 0.220351 1.72017e-20)
(1.22062 0.206478 -3.53164e-21)
(1.21258 0.19338 2.82233e-21)
(0.0810201 0.00254353 -4.37424e-22)
(0.264457 0.0210665 -2.02123e-22)
(0.469586 0.0636631 -6.63337e-21)
(0.681892 0.120631 3.34219e-20)
(0.881482 0.18258 2.14802e-20)
(1.04888 0.239806 -1.64498e-20)
(1.17194 0.2844 -1.22842e-20)
(1.24926 0.312782 -3.75475e-21)
(1.28832 0.325788 -1.76035e-20)
(1.30073 0.326939 -1.09837e-21)
(1.29766 0.320385 6.4731e-22)
(1.28733 0.309528 -7.20918e-21)
(1.2746 0.296568 -4.55351e-21)
(1.2618 0.282674 -1.00361e-20)
(1.24983 0.268394 -1.02492e-20)
(1.23892 0.253975 -7.7511e-22)
(1.22904 0.239567 3.51003e-21)
(1.22008 0.225219 3.56468e-21)
(1.21187 0.210756 4.05026e-21)
(1.2039 0.197321 5.38793e-21)
(0.0929973 0.00619129 2.24055e-20)
(0.295438 0.0329722 -3.67032e-21)
(0.513837 0.084176 -6.36491e-21)
(0.732044 0.148156 1.6112e-20)
(0.929389 0.213916 3.20227e-20)
(1.08777 0.271227 -1.41105e-20)
(1.19828 0.312933 -1.13304e-20)
(1.26307 0.336922 -2.06481e-20)
(1.29205 0.34542 -1.79694e-20)
(1.29767 0.342775 3.44984e-21)
(1.29072 0.333366 -2.83378e-21)
(1.27851 0.320443 -1.06726e-21)
(1.26503 0.305947 -6.27732e-21)
(1.25202 0.290834 -9.57073e-21)
(1.24007 0.275527 -1.93898e-21)
(1.22927 0.260217 -7.7381e-22)
(1.21956 0.24503 -3.42585e-22)
(1.2108 0.229969 1.47659e-21)
(1.2028 0.214922 5.07703e-21)
(1.19496 0.201118 3.40249e-21)
(0.105214 0.01076 -1.36933e-20)
(0.326173 0.047068 -2.19076e-20)
(0.556424 0.107351 -2.91204e-20)
(0.778531 0.17803 3.88113e-20)
(0.971756 0.246741 3.63217e-20)
(1.12008 0.303163 5.66073e-23)
(1.21814 0.341267 1.30518e-20)
(1.27139 0.360548 3.58084e-20)
(1.29165 0.364538 3.78197e-20)
(1.29177 0.358245 2.30223e-20)
(1.2819 0.346135 -5.46577e-20)
(1.26842 0.331241 2.21127e-20)
(1.25452 0.315243 -8.67181e-21)
(1.24149 0.298905 2.06556e-20)
(1.22967 0.282552 -2.89566e-22)
(1.21908 0.266333 -3.02677e-21)
(1.20962 0.250349 1.59556e-21)
(1.20113 0.234562 1.11319e-20)
(1.19341 0.218936 -4.41097e-21)
(1.18576 0.204742 -1.10068e-21)
(0.117484 0.0162702 -4.54398e-20)
(0.356162 0.0633058 1.05604e-19)
(0.596667 0.132989 1.02126e-20)
(0.820721 0.209909 -1.32495e-19)
(1.00824 0.280664 -2.33358e-20)
(1.14588 0.33529 5.44438e-20)
(1.23191 0.369206 -1.23141e-19)
(1.27473 0.383575 -4.80665e-22)
(1.28761 0.383118 9.47403e-21)
(1.28337 0.373338 -2.69689e-21)
(1.27139 0.358665 2.8648e-20)
(1.25712 0.341875 -4.32293e-20)
(1.2431 0.324397 6.41958e-21)
(1.23021 0.306828 -1.22325e-20)
(1.21865 0.289415 -8.16306e-21)
(1.20835 0.272274 8.02484e-21)
(1.19921 0.25548 -5.41545e-22)
(1.19106 0.23896 -1.712e-20)
(1.18368 0.222758 8.78624e-22)
(1.17628 0.208166 -4.05808e-21)
(0.129611 0.0227187 3.41843e-20)
(0.384914 0.0815801 -6.04921e-20)
(0.633946 0.160826 -4.91147e-21)
(0.858099 0.243407 -1.13287e-19)
(1.03863 0.315286 -6.64065e-20)
(1.16531 0.367301 5.3914e-20)
(1.23997 0.396567 -6.10541e-20)
(1.27357 0.405918 6.54287e-21)
(1.28031 0.401123 4.51911e-20)
(1.27273 0.388019 -1.19398e-20)
(1.25932 0.370907 5.13183e-21)
(1.24469 0.352283 1.4376e-20)
(1.23078 0.333341 -4.04325e-20)
(1.21818 0.314537 4.66134e-20)
(1.20699 0.296056 3.88516e-20)
(1.19707 0.277988 -9.65406e-21)
(1.18833 0.260379 -9.52639e-21)