/*--------------------------------*- C++ -*----------------------------------*\
  =========                 |
  \\      /  F ield         | OpenFOAM: The Open Source CFD Toolbox
   \\    /   O peration     | Website:  https://openfoam.org
    \\  /    A nd           | Version:  7
     \\/     M anipulation  |
\*---------------------------------------------------------------------------*/
FoamFile
{
    version     2.0;
    format      ascii;
    class       volScalarField;
    location    "17.999464";
    object      p;
}
// * * * * * * * * * * * * * * * * * * * * * * * * * * * * * * * * * * * * * //

dimensions      [0 2 -2 0 0 0 0];

internalField   nonuniform List<scalar> 
5800
(
-0.294164
-0.298366
-0.300823
-0.302176
-0.302733
-0.302465
-0.301382
-0.299508
-0.296858
-0.293447
0.816451
0.777399
0.749727
0.727132
0.706037
0.685775
0.665502
0.64452
0.622483
0.599324
0.575172
0.816451
0.777399
0.749727
0.727132
0.706037
0.685775
0.665502
0.64452
0.622483
0.599324
0.575172
0.550285
0.524974
0.49956
0.474337
0.449556
0.425425
0.402101
0.379719
0.358343
0.811919
0.773048
0.745525
0.723088
0.702178
0.682126
0.662082
0.641341
0.619549
0.59663
0.57271
0.548041
0.522934
0.497707
0.472656
0.448032
0.424044
0.40085
0.378578
0.357327
0.802891
0.764379
0.737153
0.71503
0.694489
0.674854
0.655265
0.635004
0.613699
0.59126
0.567801
0.543567
0.518865
0.494012
0.469303
0.444992
0.421291
0.398355
0.376303
0.3553
0.789434
0.751458
0.724674
0.703019
0.683024
0.66401
0.645099
0.625551
0.604971
0.583246
0.560474
0.536888
0.512789
0.488493
0.464295
0.440451
0.417178
0.394627
0.372904
0.35227
0.771647
0.734383
0.708182
0.687144
0.667869
0.649671
0.631652
0.613044
0.593419
0.572636
0.550771
0.528041
0.504741
0.481182
0.457659
0.434433
0.411725
0.389685
0.368397
0.34825
0.749665
0.713282
0.687803
0.667523
0.649134
0.631939
0.615016
0.597564
0.579116
0.559495
0.538749
0.517078
0.494764
0.472116
0.449429
0.426967
0.40496
0.383552
0.362804
0.343256
0.723652
0.688314
0.66369
0.644304
0.626955
0.610938
0.595305
0.579213
0.562152
0.543902
0.524478
0.504059
0.482913
0.461344
0.439648
0.418092
0.396915
0.376259
0.35615
0.337309
0.6938
0.659668
0.636025
0.617658
0.601494
0.586817
0.572651
0.558111
0.542633
0.525951
0.508042
0.489058
0.469253
0.448923
0.428365
0.407852
0.38763
0.367838
0.348467
0.330432
0.660331
0.627558
0.605013
0.587783
0.572935
0.559746
0.54721
0.534394
0.520681
0.505751
0.489536
0.472159
0.453857
0.434919
0.41564
0.396297
0.377148
0.35833
0.339789
0.322652
0.623493
0.592224
0.570888
0.5549
0.541485
0.529913
0.519152
0.508218
0.496434
0.483422
0.469067
0.453457
0.43681
0.419405
0.401536
0.383484
0.36552
0.347778
0.330155
0.313997
0.583555
0.553928
0.533903
0.519251
0.507369
0.497529
0.488667
0.479752
0.470042
0.459097
0.446752
0.433056
0.418202
0.402461
0.386124
0.369475
0.3528
0.33623
0.319604
0.304498
0.540811
0.512952
0.49433
0.481095
0.470834
0.462819
0.455961
0.44918
0.441669
0.432923
0.422719
0.411067
0.398133
0.384176
0.369481
0.354339
0.339045
0.323736
0.308182
0.294186
0.495568
0.469596
0.45246
0.440712
0.43214
0.426024
0.421252
0.416699
0.41149
0.405053
0.397106
0.387612
0.37671
0.364641
0.351689
0.338145
0.32432
0.31035
0.295933
0.283093
0.448155
0.424177
0.408599
0.398392
0.391561
0.387397
0.384772
0.382516
0.379691
0.375653
0.370056
0.362818
0.354043
0.343958
0.332836
0.320972
0.308689
0.29613
0.282905
0.271248
0.398908
0.37702
0.363062
0.354439
0.349383
0.347204
0.346763
0.346851
0.346466
0.344894
0.341723
0.33682
0.330253
0.322229
0.313013
0.3029
0.292223
0.281135
0.269148
0.258682
0.348177
0.328463
0.316175
0.309164
0.305901
0.305718
0.307476
0.30993
0.312018
0.312956
0.312265
0.309757
0.305462
0.299563
0.292316
0.284011
0.274995
0.265428
0.254716
0.24542
0.296314
0.278847
0.268268
0.262885
0.261415
0.26322
0.267167
0.271984
0.276555
0.280023
0.281846
0.281773
0.279798
0.276074
0.270845
0.264395
0.25708
0.24908
0.239669
0.23147
0.243677
0.228515
0.219676
0.215924
0.21623
0.219995
0.226099
0.233253
0.240289
0.246287
0.250632
0.253018
0.25339
0.251875
0.248701
0.244142
0.23856
0.232162
0.224071
0.216811
0.190624
0.177812
0.170729
0.1686
0.170651
0.176328
0.184535
0.193975
0.203438
0.211937
0.218794
0.22364
0.226373
0.227086
0.22599
0.223347
0.219517
0.214739
0.20798
0.201423
0.137506
0.127076
0.121758
0.12123
0.12498
0.132504
0.142739
0.154393
0.166217
0.17717
0.186506
0.193793
0.19888
0.201825
0.202818
0.202109
0.200036
0.196876
0.191641
0.185531
0.0846705
0.0766393
0.0730842
0.0741253
0.0795142
0.0888033
0.100974
0.114745
0.128844
0.142178
0.153938
0.163629
0.171046
0.176212
0.179293
0.180529
0.180225
0.178744
0.175959
0.171437
0.032454
0.0268231
0.0250181
0.0275874
0.0345439
0.0455019
0.0594959
0.0752697
0.0915356
0.107156
0.121262
0.133299
0.143007
0.150365
0.155516
0.15869
0.160157
0.160269
0.159461
0.156995
-0.0188145
-0.0220682
-0.0221429
-0.0180946
-0.00965219
0.0028656
0.0185557
0.0361983
0.0545019
0.0722937
0.0886502
0.102955
0.114894
0.124401
0.131589
0.136676
0.139903
0.141565
0.142369
0.141967
-0.0688264
-0.0697445
-0.0681188
-0.0626469
-0.0528084
-0.0388507
-0.0216054
-0.00224402
0.0179498
0.0377778
0.0562678
0.0727455
0.086839
0.0984356
0.107615
0.114577
0.119546
0.122768
0.125053
0.126405
-0.117384
-0.115879
-0.11264
-0.105814
-0.0946755
-0.0794054
-0.0607571
-0.0398412
-0.0179209
0.00379006
0.0242785
0.0428149
0.0589706
0.0725835
0.0836962
0.0924862
0.0991656
0.103951
0.10768
0.110549
-0.164089
-0.160311
-0.155467
-0.147356
-0.135023
-0.118573
-0.0986827
-0.0763876
-0.0529191
-0.0294945
-0.00715977
0.0133047
0.0314146
0.0469565
0.0599328
0.0704949
0.078842
0.0851723
0.0903146
0.0945947
-0.208751
-0.202773
-0.196382
-0.187059
-0.173635
-0.156152
-0.135182
-0.111691
-0.0868633
-0.0619088
-0.0378953
-0.0156487
0.00429244
0.0216629
0.0364219
0.0486912
0.0586549
0.0664951
0.0730137
0.0786437
-0.251163
-0.24306
-0.23519
-0.224734
-0.210328
-0.191946
-0.17007
-0.145577
-0.119584
-0.0932948
-0.0677834
-0.0439149
-0.022279
-0.00319306
0.0132569
0.0271594
0.0386809
0.047988
0.0558412
0.0627655
-0.291137
-0.281001
-0.271724
-0.260217
-0.244937
-0.225796
-0.203182
-0.177873
-0.150929
-0.123506
-0.0966879
-0.0713703
-0.0481885
-0.0275119
-0.00947322
0.0059796
0.0189924
0.0297155
0.038858
0.0470232
-0.328514
-0.31645
-0.305845
-0.29337
-0.277323
-0.257561
-0.234374
-0.208444
-0.180751
-0.152406
-0.124483
-0.0978987
-0.0733313
-0.0511997
-0.0316844
-0.0147728
-0.000342884
0.0117379
0.0221194
0.0314727
-0.363166
-0.349291
-0.337443
-0.324084
-0.307374
-0.287122
-0.263525
-0.237162
-0.208926
-0.179871
-0.151051
-0.123393
-0.0976094
-0.0741685
-0.053298
-0.0350275
-0.0192624
-0.00588926
0.00567533
0.0161632
-0.394994
-0.379437
-0.366436
-0.352276
-0.335005
-0.314388
-0.290537
-0.263922
-0.235346
-0.205794
-0.176288
-0.147753
-0.120933
-0.0963366
-0.0742413
-0.0547197
-0.0377085
-0.0231146
-0.0104294
0.00113955
-0.423931
-0.40683
-0.39277
-0.377895
-0.360159
-0.339295
-0.315333
-0.28864
-0.25992
-0.230081
-0.2001
-0.170892
-0.14322
-0.11763
-0.0944478
-0.0737892
-0.0556289
-0.0398894
-0.0261573
-0.0135562
-0.44994
-0.431441
-0.416422
-0.400915
-0.382806
-0.361804
-0.337865
-0.311255
-0.282577
-0.252654
-0.222407
-0.192731
-0.164396
-0.137982
-0.113857
-0.092186
-0.0729744
-0.0561664
-0.0414753
-0.0278838
-0.473014
-0.453271
-0.437394
-0.421338
-0.402943
-0.381901
-0.358106
-0.331726
-0.303264
-0.273453
-0.243145
-0.213203
-0.184396
-0.157331
-0.132415
-0.109858
-0.089707
-0.07194
-0.0562932
-0.0418414
-0.493173
-0.472344
-0.455716
-0.439193
-0.420591
-0.3996
-0.376055
-0.350039
-0.321952
-0.292433
-0.26226
-0.232251
-0.203165
-0.175625
-0.150072
-0.126763
-0.105784
-0.0871431
-0.0706339
-0.0555383
-0.510464
-0.488714
-0.471441
-0.454533
-0.435799
-0.414937
-0.391735
-0.366197
-0.338628
-0.309568
-0.279715
-0.249833
-0.220658
-0.192819
-0.166789
-0.142863
-0.121172
-0.101754
-0.0844636
-0.0686962
-0.524959
-0.502454
-0.484645
-0.467431
-0.448636
-0.427971
-0.405191
-0.38023
-0.353302
-0.324851
-0.29549
-0.265917
-0.236837
-0.208876
-0.182529
-0.158127
-0.135844
-0.115749
-0.0977574
-0.0813564
-0.536754
-0.51366
-0.495425
-0.477984
-0.459192
-0.438783
-0.416489
-0.392186
-0.366003
-0.338293
-0.309577
-0.280485
-0.251677
-0.223768
-0.197263
-0.172529
-0.149776
-0.129108
-0.1105
-0.0935448
-0.545963
-0.522446
-0.503895
-0.486304
-0.467576
-0.447472
-0.425716
-0.402133
-0.37678
-0.349921
-0.321987
-0.293532
-0.265163
-0.237472
-0.21097
-0.186045
-0.162948
-0.141813
-0.122677
-0.105248
-0.552718
-0.528942
-0.510184
-0.492518
-0.47391
-0.454155
-0.432975
-0.410159
-0.385701
-0.359781
-0.332745
-0.305065
-0.27729
-0.249977
-0.223631
-0.19866
-0.175344
-0.15385
-0.134272
-0.116451
-0.557169
-0.533291
-0.514432
-0.496767
-0.478331
-0.458961
-0.438384
-0.416366
-0.392848
-0.367936
-0.341891
-0.315107
-0.288065
-0.261279
-0.235239
-0.210361
-0.186954
-0.165209
-0.145276
-0.127145
-0.559472
-0.535647
-0.516792
-0.499198
-0.480986
-0.462031
-0.442075
-0.420872
-0.39832
-0.374463
-0.349482
-0.323692
-0.297504
-0.271381
-0.245789
-0.221141
-0.197768
-0.175883
-0.155683
-0.137327
-0.559797
-0.536169
-0.517419
-0.499968
-0.482026
-0.463511
-0.444188
-0.423805
-0.402231
-0.379454
-0.355588
-0.330869
-0.305637
-0.280298
-0.255284
-0.230998
-0.207782
-0.185868
-0.16549
-0.146996
-0.558317
-0.535023
-0.516474
-0.499234
-0.481608
-0.463557
-0.44487
-0.425303
-0.404702
-0.383015
-0.360292
-0.336698
-0.312503
-0.288053
-0.263735
-0.239935
-0.216995
-0.195162
-0.174695
-0.156156
-0.555209
-0.532375
-0.51412
-0.497157
-0.479889
-0.462322
-0.444273
-0.425508
-0.405865
-0.385258
-0.363688
-0.341253
-0.318155
-0.294677
-0.271158
-0.247957
-0.22541
-0.203767
-0.183302
-0.164816
-0.550652
-0.528393
-0.510515
-0.493892
-0.477026
-0.459961
-0.442547
-0.424567
-0.405857
-0.386309
-0.36588
-0.344616
-0.322653
-0.300212
-0.27758
-0.255079
-0.233033
-0.211686
-0.191314
-0.172989
-0.54482
-0.523239
-0.505818
-0.489594
-0.47317
-0.456625
-0.439843
-0.422627
-0.404818
-0.386294
-0.366983
-0.346881
-0.326069
-0.304707
-0.28303
-0.261318
-0.239871
-0.218925
-0.198737
-0.180696
-0.537883
-0.517071
-0.500179
-0.484409
-0.468466
-0.45246
-0.436305
-0.41983
-0.402886
-0.385345
-0.367112
-0.348148
-0.328483
-0.308223
-0.287549
-0.266697
-0.245939
-0.225492
-0.205581
-0.187963
-0.530006
-0.510042
-0.493742
-0.478478
-0.463053
-0.447604
-0.432074
-0.416317
-0.400198
-0.383592
-0.36639
-0.348524
-0.329984
-0.310827
-0.291183
-0.271244
-0.251251
-0.231397
-0.211854
-0.194824
-0.521345
-0.502293
-0.486642
-0.471932
-0.457059
-0.442185
-0.427277
-0.412217
-0.396887
-0.381165
-0.364938
-0.348119
-0.330664
-0.312591
-0.293984
-0.274992
-0.255826
-0.236649
-0.217565
-0.201316
-0.512044
-0.493958
-0.479005
-0.46489
-0.450603
-0.436321
-0.422036
-0.407654
-0.393074
-0.378186
-0.362875
-0.347042
-0.330621
-0.313597
-0.296013
-0.277982
-0.259683
-0.241257
-0.222721
-0.207477
-0.502239
-0.485159
-0.470944
-0.457462
-0.443791
-0.430119
-0.416459
-0.402739
-0.388876
-0.374771
-0.360315
-0.345404
-0.329955
-0.313927
-0.297334
-0.280254
-0.262844
-0.245227
-0.227322
-0.213341
-0.492052
-0.476009
-0.462564
-0.449748
-0.43672
-0.423674
-0.410642
-0.397571
-0.384394
-0.371027
-0.357367
-0.343309
-0.328763
-0.313669
-0.298016
-0.281857
-0.265333
-0.248562
-0.231358
-0.218922
-0.481593
-0.466606
-0.453959
-0.441835
-0.429473
-0.41707
-0.40467
-0.392237
-0.379721
-0.367049
-0.354129
-0.340858
-0.327141
-0.312909
-0.298131
-0.282842
-0.267174
-0.251255
-0.234808
-0.224188
-0.470958
-0.45704
-0.445208
-0.433799
-0.422123
-0.410377
-0.398613
-0.386811
-0.374934
-0.36292
-0.350688
-0.338139
-0.325181
-0.311733
-0.297755
-0.283264
-0.268393
-0.253294
-0.237626
-0.229023
-0.460235
-0.447389
-0.436385
-0.425707
-0.414733
-0.403656
-0.392534
-0.381357
-0.370099
-0.358711
-0.34712
-0.335235
-0.322964
-0.310223
-0.296961
-0.283183
-0.269019
-0.254657
-0.239747
-0.233153
-0.449495
-0.437718
-0.42755
-0.417614
-0.407355
-0.396956
-0.386479
-0.375922
-0.365269
-0.35448
-0.343489
-0.332215
-0.320565
-0.308456
-0.295826
-0.282664
-0.26909
-0.255328
-0.241122
-0.236112
-0.438802
-0.428087
-0.418756
-0.40957
-0.400033
-0.390318
-0.380488
-0.370547
-0.360486
-0.350272
-0.339847
-0.329135
-0.31805
-0.306503
-0.294422
-0.281776
-0.268648
-0.255295
-0.241715
-0.237107
-0.42821
-0.418545
-0.410048
-0.401614
-0.392803
-0.383775
-0.374592
-0.365262
-0.355781
-0.346121
-0.336231
-0.326043
-0.315471
-0.304425
-0.292822
-0.280596
-0.267752
-0.254528
-0.240914
-0.232697
-0.417764
-0.409133
-0.401465
-0.39378
-0.385695
-0.377353
-0.368814
-0.360088
-0.351175
-0.342051
-0.332672
-0.322973
-0.312873
-0.302279
-0.291094
-0.279217
-0.266536
-0.253199
-0.238035
-0.210879
-0.407503
-0.39989
-0.39304
-0.386098
-0.378732
-0.371071
-0.36317
-0.355041
-0.346683
-0.338079
-0.329188
-0.31995
-0.310287
-0.300107
-0.289306
-0.277756
-0.265248
-0.251944
-0.237453
-0.203866
-0.397463
-0.390847
-0.384803
-0.378593
-0.371937
-0.364948
-0.357675
-0.350131
-0.342316
-0.334214
-0.32579
-0.316988
-0.307736
-0.297942
-0.287504
-0.27629
-0.264052
-0.251028
-0.237936
-0.204487
-0.387674
-0.382036
-0.376779
-0.371289
-0.365329
-0.358998
-0.352339
-0.345366
-0.338078
-0.330462
-0.322485
-0.314098
-0.305232
-0.295803
-0.285712
-0.274837
-0.262932
-0.250288
-0.238132
-0.205815
-0.378167
-0.373483
-0.368997
-0.364206
-0.358925
-0.353234
-0.347173
-0.340753
-0.333974
-0.326825
-0.319276
-0.311283
-0.302782
-0.293697
-0.283938
-0.273394
-0.261837
-0.249597
-0.237966
-0.207118
-0.368973
-0.365218
-0.36148
-0.357368
-0.352743
-0.347672
-0.342187
-0.336299
-0.330009
-0.323307
-0.316165
-0.308544
-0.300389
-0.29163
-0.282186
-0.271962
-0.260752
-0.248929
-0.237649
-0.20862
-0.360123
-0.35727
-0.354255
-0.350797
-0.346803
-0.342325
-0.337392
-0.332012
-0.326188
-0.319909
-0.313154
-0.305885
-0.298055
-0.289604
-0.280462
-0.270545
-0.259679
-0.248274
-0.23727
-0.210296
-0.351652
-0.34967
-0.347349
-0.344517
-0.341125
-0.337212
-0.332802
-0.327903
-0.322519
-0.31664
-0.310247
-0.303309
-0.295785
-0.287623
-0.278768
-0.269148
-0.258621
-0.247626
-0.236855
-0.212048
-0.343595
-0.34245
-0.340792
-0.338554
-0.335731
-0.332351
-0.328433
-0.323986
-0.319014
-0.313508
-0.307453
-0.300823
-0.293585
-0.285696
-0.277111
-0.267777
-0.257583
-0.246981
-0.23643
-0.213813
-0.335992
-0.335645
-0.334614
-0.332935
-0.330646
-0.327764
-0.324304
-0.320277
-0.315686
-0.310526
-0.304783
-0.298439
-0.291466
-0.28383
-0.275503
-0.266442
-0.256572
-0.246342
-0.236016
-0.215542
-0.328884
-0.32929
-0.328848
-0.32769
-0.325897
-0.323474
-0.320436
-0.316795
-0.312554
-0.30771
-0.302253
-0.29617
-0.28944
-0.282041
-0.273954
-0.265153
-0.255598
-0.245716
-0.235627
-0.217197
-0.322316
-0.323424
-0.323528
-0.32285
-0.32151
-0.319508
-0.316854
-0.313562
-0.309638
-0.30508
-0.299882
-0.294036
-0.287527
-0.280345
-0.27248
-0.263926
-0.254669
-0.245111
-0.235273
-0.218742
-0.316331
-0.318086
-0.318688
-0.318445
-0.317515
-0.315891
-0.313582
-0.310603
-0.306961
-0.302658
-0.297691
-0.292056
-0.285747
-0.27876
-0.2711
-0.262774
-0.253797
-0.244534
-0.234956
-0.220152
-0.310974
-0.313312
-0.314361
-0.314507
-0.313941
-0.312651
-0.310646
-0.307942
-0.304548
-0.300468
-0.295703
-0.290254
-0.28412
-0.277308
-0.269833
-0.261716
-0.252995
-0.243996
-0.234679
-0.221408
-0.306288
-0.309141
-0.310581
-0.311065
-0.310816
-0.309815
-0.308072
-0.305604
-0.302423
-0.298534
-0.293943
-0.288653
-0.282672
-0.276012
-0.268698
-0.260767
-0.252275
-0.243508
-0.234442
-0.222496
-0.302313
-0.305606
-0.307379
-0.308149
-0.308166
-0.307408
-0.305884
-0.303614
-0.30061
-0.29688
-0.292433
-0.287277
-0.281423
-0.274891
-0.267717
-0.259946
-0.25165
-0.24308
-0.234245
-0.299086
-0.302738
-0.304781
-0.305782
-0.306015
-0.305452
-0.304104
-0.301992
-0.29913
-0.295528
-0.291196
-0.286146
-0.280395
-0.273968
-0.266906
-0.259267
-0.251133
-0.242723
-0.234088
-0.296638
-0.300563
-0.302811
-0.303988
-0.304382
-0.303967
-0.302751
-0.300757
-0.298002
-0.294496
-0.290251
-0.285281
-0.279607
-0.273259
-0.266283
-0.258745
-0.250735
-0.242447
-0.23397
-0.294991
-0.299101
-0.301488
-0.302782
-0.303285
-0.302968
-0.30184
-0.299926
-0.297241
-0.293799
-0.289611
-0.284695
-0.279073
-0.272778
-0.26586
-0.25839
-0.250465
-0.242258
-0.233892
-0.294164
-0.298366
-0.300823
-0.302176
-0.302733
-0.302465
-0.301382
-0.299508
-0.296858
-0.293447
-0.289289
-0.2844
-0.278803
-0.272535
-0.265646
-0.25821
-0.250328
-0.242161
-0.233854
0.171918
0.175996
0.18357
0.192169
0.201289
0.208478
0.213946
0.213834
0.211995
0.198517
0.173449
0.177633
0.185518
0.194609
0.204478
0.212726
0.219626
0.22148
0.221759
0.212237
0.174875
0.179107
0.187184
0.196608
0.207042
0.21614
0.224269
0.227876
0.230153
0.224014
0.17627
0.180544
0.188826
0.198606
0.209637
0.219634
0.229029
0.234444
0.238743
0.235768
0.177606
0.181936
0.190431
0.200573
0.212195
0.223081
0.233696
0.240869
0.24709
0.247014
0.178873
0.183275
0.191967
0.202454
0.214634
0.226364
0.238119
0.246958
0.254996
0.25761
0.180072
0.184548
0.193425
0.204239
0.216944
0.229475
0.242299
0.252713
0.262484
0.267607
0.1812
0.185675
0.194804
0.205927
0.219126
0.232415
0.246241
0.258136
0.269554
0.277008
0.182255
0.186813
0.196096
0.207512
0.221171
0.235174
0.249932
0.26321
0.276179
0.285796
0.183234
0.187858
0.197297
0.208989
0.223074
0.237742
0.253361
0.267917
0.282336
0.293953
0.184133
0.188813
0.198404
0.210351
0.224826
0.240107
0.256518
0.272244
0.288005
0.301457
0.18495
0.189683
0.199412
0.211594
0.226423
0.242262
0.259391
0.276177
0.293166
0.308286
0.185683
0.190464
0.200318
0.212713
0.227857
0.244199
0.261972
0.279706
0.2978
0.314418
0.186328
0.191153
0.201122
0.213704
0.229125
0.24591
0.264252
0.282818
0.301891
0.319833
0.186885
0.191748
0.201817
0.214562
0.230221
0.247389
0.266222
0.285505
0.305426
0.324511
0.187352
0.192247
0.202343
0.215282
0.23114
0.24863
0.267875
0.287758
0.30839
0.328436
0.187728
0.19265
0.20284
0.215862
0.23188
0.249628
0.269204
0.289569
0.310775
0.331593
0.18801
0.192953
0.203193
0.216298
0.232438
0.250381
0.270206
0.290933
0.312571
0.333971
0.188199
0.193157
0.203429
0.216589
0.232811
0.250884
0.270876
0.291845
0.313772
0.335561
0.188294
0.193258
0.203548
0.216735
0.232998
0.251136
0.271212
0.292301
0.314373
0.336357
0.0486596
0.0473491
0.0450934
0.0424024
0.0396024
0.0368762
0.0343249
0.0320009
0.0299202
0.028083
0.0487973
0.0474827
0.0452161
0.0425134
0.039701
0.036962
0.0343986
0.0320635
0.0299725
0.0281267
0.0490657
0.0477415
0.0454552
0.0427298
0.0398929
0.0371293
0.0345422
0.0321855
0.0300746
0.0282119
0.0494579
0.0481192
0.0458047
0.0430463
0.0401736
0.037374
0.0347523
0.032364
0.0302238
0.0283363
0.0499675
0.0486101
0.0462595
0.0434581
0.0405389
0.0376925
0.0350257
0.0325962
0.030418
0.0284983
0.0505892
0.0492091
0.0468148
0.0439613
0.0409853
0.0380818
0.0353601
0.0328802
0.0306553
0.0286961
0.051318
0.0499114
0.0474666
0.0445523
0.0415099
0.0385394
0.035753
0.0332139
0.0309341
0.0289284
0.0521493
0.050713
0.0482112
0.0452279
0.04211
0.0390631
0.0362028
0.0335957
0.0312527
0.029194
0.0530789
0.0516099
0.0490453
0.0459855
0.0427833
0.039651
0.0367077
0.0340244
0.0316102
0.0294916
0.0541031
0.0525986
0.0499658
0.0468226
0.0435278
0.0403015
0.0372664
0.0344987
0.0320055
0.0298206
0.0552183
0.0536758
0.0509702
0.0477371
0.044342
0.0410132
0.0378779
0.0350177
0.0324376
0.0301801
0.056421
0.0548387
0.0520559
0.0487271
0.0452243
0.0417852
0.0385414
0.0355809
0.0329061
0.0305697
0.0577081
0.0560843
0.0532207
0.0497909
0.0461735
0.0426166
0.0392561
0.0361876
0.0334105
0.0309888
0.0590764
0.0574099
0.0544626
0.050927
0.0471888
0.0435067
0.0400218
0.0368377
0.0339504
0.0314373
0.0605231
0.0588129
0.0557795
0.0521342
0.0482693
0.0444552
0.0408381
0.0375309
0.0345257
0.031915
0.0620451
0.0602908
0.0571696
0.0534113
0.0494143
0.0454618
0.041705
0.0382674
0.0351366
0.032422
0.0636396
0.0618412
0.0586313
0.0547572
0.0506235
0.0465264
0.0426228
0.0390475
0.0357831
0.0329585
0.0653037
0.0634616
0.0601628
0.056171
0.0518964
0.0476491
0.0435916
0.0398715
0.0364658
0.0335248
0.0670345
0.0651496
0.0617625
0.0576519
0.0532329
0.0488303
0.044612
0.04074
0.0371851
0.0341215
0.0688293
0.0669028
0.0634288
0.059199
0.0546328
0.0500702
0.0456847
0.0416539
0.0379419
0.0347491
0.070685
0.0687187
0.0651602
0.0608116
0.0560963
0.0513695
0.0468105
0.042614
0.0387369
0.0354086
0.0725987
0.070595
0.0669551
0.0624891
0.0576233
0.0527288
0.0479904
0.0436216
0.0395713
0.0361008
0.0745674
0.0725291
0.0688118
0.0642307
0.0592141
0.0541488
0.0492255
0.0446779
0.0404463
0.0368269
0.076588
0.0745184
0.0707287
0.0660357
0.0608689
0.0556306
0.0505171
0.0457844
0.0413634
0.0375882
0.0786574
0.0765603
0.0727042
0.0679036
0.0625881
0.0571751
0.0518667
0.0469428
0.0423243
0.0383863
0.0807725
0.0786522
0.0747366
0.0698337
0.064372
0.0587834
0.0532759
0.0481548
0.0433306
0.0392227
0.0829299
0.0807912
0.076824
0.0718251
0.066221
0.0604568
0.0547465
0.0494225
0.0443846
0.0400994
0.0851264
0.0829747
0.0789648
0.0738773
0.0681355
0.0621965
0.0562804
0.0507481
0.0454883
0.0410182
0.0873586
0.0851996
0.0811568
0.0759894
0.070116
0.0640039
0.0578796
0.0521338
0.0466444
0.0419816
0.089623
0.0874631
0.0833983
0.0781606
0.0721629
0.0658804
0.0595463
0.0535824
0.0478553
0.0429918
0.0919162
0.0897622
0.0856869
0.08039
0.0742767
0.0678274
0.0612829
0.0550963
0.0491241
0.0440515
0.0942347
0.0920937
0.0880207
0.0826765
0.0764576
0.0698465
0.0630918
0.0566786
0.0504538
0.0451635
0.0965749
0.0944545
0.0903973
0.0850191
0.0787061
0.0719391
0.0649756
0.0583322
0.0518478
0.0463309
0.0989332
0.0968415
0.0928143
0.0874166
0.0810225
0.0741068
0.066937
0.0600603
0.0533097
0.0475569
0.101306
0.0992513
0.0952693
0.0898677
0.0834068
0.0763511
0.0689787
0.0618663
0.0548433
0.048845
0.10369
0.101681
0.0977596
0.0923709
0.0858592
0.0786733
0.0711036
0.0637536
0.0564528
0.050199
0.106081
0.104126
0.100283
0.0949247
0.0883797
0.081075
0.0733146
0.0657259
0.0581424
0.0516227
0.108476
0.106585
0.102836
0.0975274
0.0909681
0.0835575
0.0756148
0.0677868
0.0599168
0.0531204
0.110871
0.109053
0.105416
0.100177
0.093624
0.086122
0.078007
0.0699402
0.0617808
0.0546965
0.113263
0.111527
0.10802
0.102872
0.096347
0.0887697
0.0804943
0.0721901
0.0637396
0.0563556
0.115648
0.114004
0.110645
0.10561
0.0991364
0.0915016
0.0830798
0.0745404
0.0657986
0.0581028
0.118023
0.11648
0.113288
0.108388
0.101991
0.0943185
0.0857662
0.0769952
0.0679633
0.0599431
0.120385
0.118952
0.115945
0.111204
0.10491
0.097221
0.0885566
0.0795587
0.0702397
0.0618819
0.12273
0.121417
0.118614
0.114056
0.107892
0.10021
0.0914535
0.082235
0.0726338
0.0639251
0.125055
0.123871
0.12129
0.11694
0.110935
0.103285
0.0944596
0.0850282
0.0751521
0.0660783
0.127357
0.126311
0.123971
0.119854
0.114038
0.106446
0.0975773
0.0879425
0.0778011
0.0683479
0.129634
0.128735
0.126654
0.122794
0.117197
0.109694
0.100809
0.0909818
0.0805873
0.0707402
0.131882
0.131138
0.129333
0.125757
0.120412
0.113026
0.104155
0.0941503
0.0835178
0.0732618
0.134099
0.133518
0.132007
0.128739
0.123678
0.116443
0.107619
0.0974516
0.0865995
0.0759195
0.136283
0.135872
0.134671
0.131738
0.126993
0.119944
0.111202
0.10089
0.0898392
0.0787204
0.138431
0.138197
0.137323
0.134748
0.130353
0.123526
0.114903
0.104468
0.0932441
0.0816716
0.14054
0.140491
0.139958
0.137767
0.133754
0.127187
0.118723
0.10819
0.096821
0.0847806
0.142609
0.142751
0.142573
0.14079
0.137194
0.130924
0.122663
0.112058
0.100577
0.0880549
0.144637
0.144974
0.145165
0.143813
0.140666
0.134736
0.126721
0.116076
0.104518
0.0915021
0.14662
0.147158
0.14773
0.146831
0.144168
0.138619
0.130896
0.120246
0.10865
0.0951299
0.148559
0.149302
0.150266
0.149842
0.147693
0.142568
0.135186
0.12457
0.11298
0.0989462
0.15045
0.151402
0.152768
0.152839
0.151237
0.146579
0.139588
0.12905
0.117512
0.102959
0.152294
0.153458
0.155235
0.15582
0.154795
0.150649
0.1441
0.133687
0.122252
0.107176
0.154089
0.155467
0.157663
0.158779
0.158362
0.154771
0.148717
0.138481
0.127203
0.111604
0.155833
0.157428
0.160049
0.161712
0.161931
0.15894
0.153435
0.143434
0.132368
0.116253
0.157528
0.15934
0.162391
0.164616
0.165496
0.16315
0.158248
0.148545
0.13775
0.12113
0.159171
0.161201
0.164686
0.167486
0.169053
0.167395
0.163151
0.153813
0.143349
0.126242
0.160762
0.163011
0.166933
0.170318
0.172594
0.171668
0.168136
0.159236
0.149165
0.131596
0.162302
0.164767
0.169127
0.173107
0.176115
0.175961
0.173195
0.164813
0.155195
0.137196
0.163789
0.166471
0.171269
0.175851
0.179609
0.180269
0.178324
0.170547
0.161447
0.143062
0.165225
0.168122
0.173357
0.178549
0.183075
0.18459
0.183523
0.176447
0.16794
0.149235
0.166608
0.169718
0.17539
0.181195
0.186504
0.188911
0.188771
0.18249
0.174628
0.155657
0.167937
0.171253
0.177352
0.183763
0.189851
0.193155
0.193946
0.188505
0.18124
0.161893
0.169212
0.172721
0.179227
0.18622
0.19306
0.197246
0.19896
0.194402
0.187694
0.167747
0.170452
0.174174
0.181102
0.188718
0.196411
0.201677
0.204666
0.201534
0.196209
0.176921
0.0268655
0.0261687
0.0254687
0.0247648
0.0240566
0.0233445
0.022629
0.0219106
0.0211897
0.0204668
0.0197421
0.0190163
0.0182895
0.0175624
0.0168352
0.0161084
0.0153824
0.0146575
0.0139342
0.0132129
0.0269038
0.0262065
0.0255062
0.0248017
0.0240926
0.0233791
0.0226618
0.0219413
0.0212178
0.0204919
0.0197639
0.0190343
0.0183036
0.0175722
0.0168404
0.0161089
0.015378
0.0146481
0.0139196
0.0131931
0.0269762
0.0262739
0.025569
0.02486
0.0241459
0.0234272
0.0227044
0.021978
0.0212486
0.0205165
0.0197821
0.019046
0.0183086
0.0175703
0.0168317
0.0160931
0.0153551
0.0146181
0.0138826
0.013149
0.0270814
0.0263703
0.0256575
0.0249408
0.0242189
0.023492
0.0227608
0.0220259
0.0212877
0.0205466
0.0198032
0.0190578
0.0183111
0.0175634
0.0168152
0.0160671
0.0153195
0.0145729
0.0138277
0.0130845
0.0272175
0.0264941
0.0257702
0.0250429
0.02431
0.023572
0.0228295
0.0220832
0.0213334
0.0205807
0.0198255
0.0190683
0.0183096
0.0175499
0.0167897
0.0160295
0.0152699
0.0145112
0.0137541
0.012999
0.0273832
0.0266438
0.0259058
0.0251649
0.0244184
0.0236664
0.0229099
0.0221494
0.0213854
0.0206184
0.0198488
0.0190772
0.0183041
0.01753
0.0167554
0.0159808
0.0152067
0.0144337
0.0136624
0.0128931
0.0275772
0.0268185
0.0260632
0.0253061
0.0245432
0.0237745
0.0230012
0.0222239
0.0214431
0.0206592
0.0198728
0.0190844
0.0182944
0.0175034
0.016712
0.0159207
0.0151299
0.0143403
0.0135524
0.0127667
0.0277984
0.0270168
0.0262416
0.0254655
0.0246834
0.0238954
0.0231027
0.0223061
0.0215059
0.0207028
0.019897
0.0190893
0.0182801
0.0174699
0.0166594
0.015849
0.0150393
0.0142308
0.0134241
0.0126198
0.0280456
0.027238
0.02644
0.0256423
0.0248385
0.0240285
0.0232139
0.0223954
0.0215734
0.0207484
0.019921
0.0190916
0.0182607
0.0174291
0.0165971
0.0157654
0.0149345
0.0141049
0.0132773
0.0124521
0.0283181
0.0274812
0.0266576
0.0258358
0.0250077
0.0241732
0.0233341
0.0224912
0.0216449
0.0207957
0.0199441
0.0190907
0.0182359
0.0173804
0.0165247
0.0156694
0.0148151
0.0139622
0.0131115
0.0122634
0.0286152
0.0277457
0.0268938
0.0260454
0.0251904
0.0243288
0.0234627
0.0225929
0.0217199
0.0208441
0.019966
0.0190861
0.0182051
0.0173235
0.0164418
0.0155607
0.0146807
0.0138023
0.0129262
0.0120529
0.0289363
0.0280309
0.0271481
0.0262705
0.0253861
0.0244949
0.0235993
0.0227002
0.021798
0.0208931
0.0199861
0.0190775
0.0181678
0.0172578
0.0163478
0.0154386
0.0145307
0.0136246
0.012721
0.0118203
0.029281
0.0283364
0.02742
0.0265107
0.0255944
0.024671
0.0237433
0.0228124
0.0218785
0.0209422
0.0200038
0.0190641
0.0181235
0.0171827
0.0162422
0.0153026
0.0143644
0.0134284
0.012495
0.0115649
0.0296489
0.0286619
0.0277091
0.0267656
0.0258148
0.0248567
0.0238944
0.0229291
0.0219611
0.0209908
0.0200188
0.0190455
0.0180716
0.0170977
0.0161242
0.0151519
0.0141814
0.0132131
0.0122477
0.0112858
0.03004
0.0290071
0.0280153
0.027035
0.0260471
0.0250516
0.0240522
0.02305
0.0220454
0.0210387
0.0200304
0.0190212
0.0180115
0.0170021
0.0159934
0.0149861
0.0139807
0.0129779
0.0119783
0.0109823
0.0304543
0.0293721
0.0283383
0.0273187
0.0262911
0.0252556
0.0242164
0.0231748
0.022131
0.0210853
0.0200383
0.0189906
0.0179428
0.0168954
0.015849
0.0148043
0.0137618
0.0127221
0.0116859
0.0106536
0.0308918
0.0297568
0.0286783
0.0276167
0.0265466
0.0254684
0.0243868
0.023303
0.0222174
0.0211302
0.0200419
0.0189533
0.0178647
0.0167769
0.0156905
0.0146059
0.0135238
0.0124449
0.0113696
0.0102986
0.0313529
0.0301614
0.0290353
0.027929
0.0268137
0.02569
0.0245631
0.0234346
0.0223045
0.021173
0.0200409
0.0189087
0.0177769
0.0166461
0.015517
0.0143901
0.013266
0.0121453
0.0110287
0.00991656
0.031838
0.0305864
0.0294096
0.0282558
0.0270924
0.0259203
0.0247454
0.0235692
0.0223919
0.0212135
0.0200348
0.0188563
0.0176786
0.0165023
0.015328
0.0141562
0.0129875
0.0118226
0.010662
0.0095063
0.0323476
0.0310322
0.0298016
0.0285973
0.0273828
0.0261594
0.0249336
0.0237069
0.0224795
0.0212514
0.0200233
0.0187958
0.0175695
0.0163449
0.0151227
0.0139033
0.0126875
0.0114757
0.0102687
0.0090668
0.0328827
0.0314994
0.0302117
0.0289539
0.0276853
0.0264075
0.0251277
0.0238476
0.0225671
0.0212863
0.020006
0.0187267
0.0174489
0.0161733
0.0149004
0.0136308
0.0123651
0.0111038
0.00984762
0.00859696
0.0334441
0.0319888
0.0306406
0.0293262
0.0280002
0.0266648
0.0253278
0.0239912
0.0226546
0.0213182
0.0199826
0.0186485
0.0173164
0.0159869
0.0146605
0.0133378
0.0120194
0.0107058
0.0093978
0.00809563
0.0340329
0.0325013
0.0310891
0.0297147
0.0283281
0.0269317
0.0255343
0.0241378
0.022742
0.0213468
0.0199529
0.0185609
0.0171714
0.015785
0.0144022
0.0130235
0.0116495
0.0102808
0.0089181
0.00756162
0.0346505
0.0330382
0.0315581
0.0301202
0.0286694
0.0272086
0.0257473
0.0242877
0.0228292
0.021372
0.0199165
0.0184635
0.0170136
0.0155671
0.0141248
0.0126871
0.0112545
0.00982772
0.0084074
0.0069937
0.0352982
0.0336006
0.0320487
0.0305436
0.0290249
0.027496
0.0259673
0.0244411
0.0229165
0.0213938
0.0198734
0.0183561
0.0168423
0.0153326
0.0138276
0.0123277
0.0108335
0.0093455
0.00786454
0.0063906
0.0359778
0.0341901
0.032562
0.0309859
0.0293955
0.0277946
0.0261948
0.0245981
0.0230039
0.0214121
0.0198233
0.0182382
0.0166572
0.0150809
0.0135099
0.0119445
0.0103854
0.00883304
0.00728832
0.00575101
0.0366911
0.0348083
0.0330996
0.0314483
0.029782
0.0281052
0.0264302
0.0247594
0.0230916