/*--------------------------------*- C++ -*----------------------------------*\
  =========                 |
  \\      /  F ield         | OpenFOAM: The Open Source CFD Toolbox
   \\    /   O peration     | Website:  https://openfoam.org
    \\  /    A nd           | Version:  7
     \\/     M anipulation  |
\*---------------------------------------------------------------------------*/
FoamFile
{
    version     2.0;
    format      ascii;
    class       volScalarField;
    location    "19.00073";
    object      p;
}
// * * * * * * * * * * * * * * * * * * * * * * * * * * * * * * * * * * * * * //

dimensions      [0 2 -2 0 0 0 0];

internalField   nonuniform List<scalar> 
5800
(
-0.292921
-0.297121
-0.299577
-0.300929
-0.301488
-0.301221
-0.300139
-0.298267
-0.295621
-0.292215
0.81739
0.778344
0.750675
0.728083
0.706991
0.686732
0.666461
0.645483
0.62345
0.600294
0.576147
0.81739
0.778344
0.750675
0.728083
0.706991
0.686732
0.666461
0.645483
0.62345
0.600294
0.576147
0.551263
0.525956
0.500545
0.475324
0.450546
0.426416
0.403094
0.380712
0.359336
0.81286
0.773994
0.746474
0.72404
0.703133
0.683083
0.663042
0.642305
0.620517
0.597602
0.573685
0.54902
0.523916
0.498692
0.473643
0.449022
0.425036
0.401843
0.379572
0.358321
0.803833
0.765326
0.738103
0.715983
0.695444
0.675812
0.656227
0.635969
0.614668
0.592232
0.568777
0.544546
0.519847
0.494997
0.470291
0.445982
0.422283
0.399348
0.377297
0.356294
0.790378
0.752407
0.725626
0.703974
0.683982
0.66497
0.646062
0.626518
0.605941
0.584219
0.56145
0.537868
0.513773
0.48948
0.465284
0.441442
0.41817
0.395621
0.373898
0.353264
0.772594
0.735334
0.709138
0.688101
0.66883
0.650634
0.632618
0.614012
0.59439
0.573611
0.551749
0.529023
0.505725
0.482169
0.458648
0.435424
0.412718
0.390679
0.369391
0.349244
0.750616
0.714237
0.688762
0.668485
0.650098
0.632904
0.615985
0.598535
0.58009
0.560472
0.539729
0.518061
0.49575
0.473104
0.450419
0.42796
0.405953
0.384547
0.363799
0.344251
0.724606
0.689274
0.664653
0.645269
0.627923
0.611907
0.596276
0.580187
0.563128
0.544881
0.52546
0.505044
0.4839
0.462334
0.440639
0.419086
0.397909
0.377254
0.357146
0.338304
0.694759
0.660633
0.636992
0.618628
0.602466
0.587791
0.573627
0.559088
0.543612
0.526933
0.509027
0.490045
0.470242
0.449915
0.429359
0.408846
0.388625
0.368834
0.349464
0.331428
0.661296
0.628529
0.605987
0.588759
0.573912
0.560724
0.54819
0.535376
0.521664
0.506736
0.490524
0.473149
0.454849
0.435913
0.416635
0.397293
0.378145
0.359328
0.340787
0.323648
0.624464
0.593201
0.571868
0.555882
0.542468
0.530898
0.520137
0.509204
0.497421
0.484411
0.470058
0.45445
0.437804
0.420401
0.402532
0.384482
0.366518
0.348777
0.331153
0.314994
0.584534
0.554911
0.53489
0.520239
0.508359
0.49852
0.489658
0.480743
0.471034
0.460091
0.447746
0.434051
0.419199
0.403459
0.387123
0.370475
0.353799
0.33723
0.320604
0.305496
0.541797
0.513943
0.495324
0.482091
0.471831
0.463816
0.456958
0.450177
0.442666
0.433921
0.423718
0.412066
0.399133
0.385176
0.370482
0.35534
0.340047
0.324737
0.309182
0.295185
0.496563
0.470596
0.453463
0.441716
0.433145
0.427028
0.422256
0.417702
0.412493
0.406056
0.398108
0.388615
0.377713
0.365645
0.352693
0.339149
0.325323
0.311353
0.296935
0.284093
0.449158
0.425186
0.409611
0.399405
0.392574
0.388409
0.385783
0.383526
0.3807
0.376661
0.371064
0.363825
0.35505
0.344964
0.333843
0.321978
0.309695
0.297134
0.283908
0.27225
0.399922
0.378039
0.364083
0.355461
0.350405
0.348224
0.347782
0.347868
0.347482
0.345907
0.342736
0.337831
0.331264
0.323239
0.314023
0.303908
0.293231
0.282141
0.270153
0.259685
0.3492
0.329492
0.317206
0.310196
0.306933
0.306748
0.308503
0.310955
0.31304
0.313976
0.313283
0.310773
0.306477
0.300577
0.293329
0.285022
0.276004
0.266436
0.255722
0.246424
0.297349
0.279887
0.269311
0.263929
0.262457
0.26426
0.268203
0.273018
0.277585
0.28105
0.28287
0.282795
0.280817
0.277092
0.271861
0.265409
0.258092
0.25009
0.240677
0.232475
0.244724
0.229567
0.22073
0.216978
0.217283
0.221045
0.227145
0.234295
0.241327
0.24732
0.251662
0.254045
0.254415
0.252897
0.24972
0.245159
0.239575
0.233174
0.225081
0.217817
0.191682
0.178875
0.171796
0.169666
0.171715
0.177389
0.185591
0.195026
0.204483
0.212978
0.219831
0.224673
0.227402
0.228112
0.227013
0.224368
0.220535
0.215753
0.208992
0.202431
0.138577
0.128152
0.122837
0.122308
0.126056
0.133575
0.143806
0.155453
0.167272
0.178219
0.187549
0.194832
0.199915
0.202856
0.203845
0.203133
0.201056
0.197893
0.192654
0.18654
0.0857548
0.0777287
0.0741757
0.0752162
0.0806023
0.0898868
0.102051
0.115816
0.129908
0.143236
0.154989
0.164674
0.172087
0.177248
0.180324
0.181556
0.181248
0.179764
0.176974
0.172446
0.033552
0.027926
0.0261229
0.0286914
0.0356447
0.0465975
0.0605848
0.076351
0.092609
0.108222
0.122321
0.134352
0.144053
0.151406
0.156552
0.159722
0.161184
0.161291
0.160478
0.158006
-0.0177025
-0.0209515
-0.0210244
-0.0169772
-0.00853835
0.00397363
0.0196563
0.0372905
0.0555853
0.0733686
0.0897171
0.104015
0.115947
0.125447
0.13263
0.137712
0.140934
0.14259
0.143389
0.142981
-0.0676999
-0.0686139
-0.0669864
-0.0615159
-0.0516813
-0.0377299
-0.0204927
-0.00114058
0.0190436
0.0388621
0.0573431
0.0738125
0.0878983
0.0994879
0.108661
0.115617
0.12058
0.123796
0.126075
0.127421
-0.116243
-0.114734
-0.111493
-0.104669
-0.0935348
-0.0782716
-0.059632
-0.0387262
-0.0168164
0.00488402
0.0253625
0.0438895
0.0600367
0.0736418
0.0847472
0.0935303
0.100203
0.104983
0.108706
0.111566
-0.162933
-0.159152
-0.154306
-0.146197
-0.133869
-0.117426
-0.0975451
-0.0752608
-0.0518037
-0.0283906
-0.00606684
0.0143874
0.0324877
0.0480209
0.0609891
0.0715437
0.0798837
0.0862073
0.0913425
0.0956145
-0.20758
-0.201599
-0.195207
-0.185886
-0.172467
-0.154991
-0.134032
-0.110552
-0.0857367
-0.0607946
-0.0367931
-0.0145578
0.00537285
0.0227337
0.0374838
0.0497448
0.0597006
0.0675335
0.0740444
0.0796659
-0.249978
-0.241872
-0.234
-0.223547
-0.209146
-0.190773
-0.168907
-0.144425
-0.118446
-0.0921701
-0.0666717
-0.0428155
-0.021191
-0.00211567
0.0143245
0.0282179
0.0397309
0.0490299
0.056875
0.0637902
-0.289938
-0.279798
-0.270521
-0.259016
-0.243742
-0.224609
-0.202006
-0.17671
-0.149779
-0.122371
-0.0955665
-0.0702622
-0.0470928
-0.0264277
-0.00839963
0.00704329
0.0200468
0.0307612
0.0398949
0.0480505
-0.3273
-0.315233
-0.304628
-0.292156
-0.276114
-0.25636
-0.233185
-0.207268
-0.17959
-0.151259
-0.123352
-0.0967817
-0.0722276
-0.0501084
-0.0306047
-0.0137038
0.000716055
0.0127874
0.0231595
0.0325026
-0.361937
-0.34806
-0.336213
-0.322856
-0.306152
-0.285908
-0.262324
-0.235974
-0.207753
-0.178714
-0.14991
-0.122266
-0.0964976
-0.0730701
-0.052212
-0.033953
-0.0181987
-0.00483583
0.0067188
0.0171959
-0.393751
-0.378193
-0.365192
-0.351035
-0.33377
-0.313162
-0.289322
-0.262722
-0.234161
-0.204626
-0.175136
-0.146618
-0.119813
-0.0952308
-0.0731487
-0.0536396
-0.03664
-0.0220571
-0.0093824
0.00217496
-0.422675
-0.405573
-0.391514
-0.376641
-0.358912
-0.338057
-0.314107
-0.287428
-0.258724
-0.228902
-0.198938
-0.169747
-0.142091
-0.116517
-0.0933486
-0.0727033
-0.0545553
-0.0388279
-0.0251064
-0.0125181
-0.448671
-0.430172
-0.415154
-0.399649
-0.381547
-0.360554
-0.336626
-0.310031
-0.281369
-0.251464
-0.221235
-0.191577
-0.163258
-0.136861
-0.112751
-0.091094
-0.0718956
-0.0551011
-0.0404199
-0.0268439
-0.471733
-0.45199
-0.436114
-0.420061
-0.401672
-0.38064
-0.356856
-0.330491
-0.302046
-0.272252
-0.241963
-0.212039
-0.18325
-0.156202
-0.131302
-0.10876
-0.0886227
-0.0708689
-0.0552346
-0.040801
-0.49188
-0.471052
-0.454425
-0.437906
-0.41931
-0.398327
-0.374794
-0.348792
-0.320722
-0.291221
-0.261067
-0.231078
-0.202011
-0.174488
-0.148952
-0.125658
-0.104694
-0.0860671
-0.0695709
-0.0544932
-0.50916
-0.487411
-0.47014
-0.453235
-0.434508
-0.413654
-0.390464
-0.364941
-0.337388
-0.308346
-0.278513
-0.24865
-0.219494
-0.191674
-0.165661
-0.141752
-0.120077
-0.100673
-0.0833966
-0.0676453
-0.523645
-0.501142
-0.483335
-0.466125
-0.447336
-0.426679
-0.40391
-0.378964
-0.352052
-0.32362
-0.294278
-0.264725
-0.235665
-0.207723
-0.181394
-0.15701
-0.134743
-0.114664
-0.0966862
-0.0803007
-0.535431
-0.512339
-0.494107
-0.476669
-0.457884
-0.437482
-0.4152
-0.39091
-0.364744
-0.337052
-0.308355
-0.279284
-0.250496
-0.222606
-0.196121
-0.171404
-0.148669
-0.128017
-0.109425
-0.092485
-0.544631
-0.521117
-0.502569
-0.484982
-0.46626
-0.446164
-0.424419
-0.400849
-0.375512
-0.348671
-0.320756
-0.292321
-0.263973
-0.236303
-0.20982
-0.184914
-0.161835
-0.140716
-0.121597
-0.104184
-0.55138
-0.527607
-0.508851
-0.49119
-0.472587
-0.452841
-0.43167
-0.408867
-0.384425
-0.358523
-0.331505
-0.303846
-0.276092
-0.2488
-0.222474
-0.197522
-0.174225
-0.152748
-0.133187
-0.115383
-0.555823
-0.53195
-0.513094
-0.495433
-0.477003
-0.457641
-0.437074
-0.415068
-0.391564
-0.366669
-0.340644
-0.313879
-0.286858
-0.260093
-0.234074
-0.209216
-0.185828
-0.164102
-0.144186
-0.126072
-0.558121
-0.5343
-0.515449
-0.49786
-0.479653
-0.460705
-0.440759
-0.419568
-0.39703
-0.373189
-0.348227
-0.322457
-0.296289
-0.270187
-0.244616
-0.219989
-0.196635
-0.17477
-0.154588
-0.13625
-0.558441
-0.534818
-0.516073
-0.498626
-0.48069
-0.462182
-0.442868
-0.422496
-0.400935
-0.378174
-0.354326
-0.329626
-0.304414
-0.279097
-0.254104
-0.229839
-0.206643
-0.184749
-0.16439
-0.145914
-0.556958
-0.533669
-0.515125
-0.49789
-0.480269
-0.462225
-0.443547
-0.42399
-0.403402
-0.381729
-0.359023
-0.335449
-0.311273
-0.286844
-0.262547
-0.238768
-0.21585
-0.194037
-0.17359
-0.155069
-0.553848
-0.53102
-0.512769
-0.49581
-0.478549
-0.460988
-0.442947
-0.424192
-0.404561
-0.383968
-0.362413
-0.339997
-0.316918
-0.293461
-0.269963
-0.246784
-0.224258
-0.202635
-0.18219
-0.163723
-0.549288
-0.527036
-0.509163
-0.492545
-0.475684
-0.458626
-0.441219
-0.423249
-0.40455
-0.385015
-0.364601
-0.343354
-0.32141
-0.298988
-0.276378
-0.253898
-0.231873
-0.210548
-0.190196
-0.171891
-0.543455
-0.521881
-0.504466
-0.488246
-0.471828
-0.45529
-0.438514
-0.421307
-0.403508
-0.384997
-0.3657
-0.345614
-0.32482
-0.303478
-0.281821
-0.26013
-0.238705
-0.21778
-0.197614
-0.179592
-0.536518
-0.515714
-0.498827
-0.483062
-0.467125
-0.451125
-0.434977
-0.41851
-0.401575
-0.384045
-0.365826
-0.346877
-0.327229
-0.306988
-0.286334
-0.265502
-0.244767
-0.224341
-0.204451
-0.186854
-0.528642
-0.508685
-0.492391
-0.477133
-0.461713
-0.44627
-0.430746
-0.414997
-0.398887
-0.382291
-0.365102
-0.34725
-0.328725
-0.309586
-0.289961
-0.270043
-0.250072
-0.230239
-0.210718
-0.193709
-0.519982
-0.500938
-0.485293
-0.470588
-0.455721
-0.440852
-0.425951
-0.410898
-0.395576
-0.379864
-0.363648
-0.346842
-0.329402
-0.311346
-0.292757
-0.273786
-0.25464
-0.235485
-0.216423
-0.200195
-0.510684
-0.492605
-0.477658
-0.463548
-0.449267
-0.43499
-0.420712
-0.406337
-0.391765
-0.376885
-0.361584
-0.345763
-0.329356
-0.312347
-0.294781
-0.276769
-0.258491
-0.240086
-0.221572
-0.206351
-0.500881
-0.483809
-0.4696
-0.456124
-0.442458
-0.428791
-0.415137
-0.401424
-0.387568
-0.373471
-0.359025
-0.344124
-0.328688
-0.312674
-0.296098
-0.279036
-0.261646
-0.244051
-0.226167
-0.21221
-0.490697
-0.474662
-0.461223
-0.448413
-0.43539
-0.42235
-0.409323
-0.396258
-0.383088
-0.369729
-0.356077
-0.34203
-0.327495
-0.312414
-0.296776
-0.280635
-0.26413
-0.247379
-0.230197
-0.217785
-0.480241
-0.465262
-0.452621
-0.440503
-0.428146
-0.415748
-0.403354
-0.390927
-0.378417
-0.365753
-0.35284
-0.339578
-0.325873
-0.311652
-0.296889
-0.281616
-0.265966
-0.250067
-0.233641
-0.223047
-0.469611
-0.4557
-0.443874
-0.43247
-0.4208
-0.409059
-0.397301
-0.385505
-0.373633
-0.361626
-0.349401
-0.336861
-0.323912
-0.310475
-0.29651
-0.282035
-0.26718
-0.2521
-0.236453
-0.227877
-0.458891
-0.446053
-0.435054
-0.424382
-0.413414
-0.402342
-0.391225
-0.380053
-0.368802
-0.35742
-0.345835
-0.333958
-0.321695
-0.308965
-0.295715
-0.281951
-0.267803
-0.253459
-0.238568
-0.232002
-0.448156
-0.436386
-0.426224
-0.416293
-0.40604
-0.395646
-0.385174
-0.374623
-0.363975
-0.353192
-0.342207
-0.33094
-0.319298
-0.307198
-0.294579
-0.28143
-0.267871
-0.254126
-0.239939
-0.234956
-0.437468
-0.42676
-0.417434
-0.408253
-0.398722
-0.389012
-0.379187
-0.369252
-0.359196
-0.348987
-0.338567
-0.327863
-0.316785
-0.305246
-0.293175
-0.280541
-0.267427
-0.254089
-0.240527
-0.235945
-0.426881
-0.417222
-0.408731
-0.400302
-0.391496
-0.382473
-0.373295
-0.36397
-0.354494
-0.344839
-0.334955
-0.324773
-0.314208
-0.30317
-0.291576
-0.279361
-0.26653
-0.253319
-0.239722
-0.231528
-0.41644
-0.407815
-0.400152
-0.392472
-0.384391
-0.376055
-0.36752
-0.3588
-0.349891
-0.340773
-0.331399
-0.321706
-0.311612
-0.301025
-0.289849
-0.277982
-0.265313
-0.251988
-0.236838
-0.209691
-0.406184
-0.398577
-0.391732
-0.384795
-0.377433
-0.369777
-0.361881
-0.353756
-0.345403
-0.336804
-0.327918
-0.318685
-0.309029
-0.298856
-0.288063
-0.276522
-0.264025
-0.250733
-0.236255
-0.202675
-0.396149
-0.389539
-0.383499
-0.377294
-0.370642
-0.363658
-0.356389
-0.348849
-0.341039
-0.332943
-0.324523
-0.315727
-0.30648
-0.296694
-0.286263
-0.275058
-0.26283
-0.249818
-0.236739
-0.203303
-0.386365
-0.380732
-0.37548
-0.369994
-0.364038
-0.357711
-0.351057
-0.344088
-0.336805
-0.329194
-0.321222
-0.31284
-0.30398
-0.294557
-0.284473
-0.273607
-0.261712
-0.24908
-0.236937
-0.204633
-0.376864
-0.372184
-0.367702
-0.362916
-0.357638
-0.351952
-0.345895
-0.339478
-0.332704
-0.32556
-0.318016
-0.310027
-0.301533
-0.292454
-0.282702
-0.272167
-0.26062
-0.248392
-0.236772
-0.20594
-0.367675
-0.363924
-0.36019
-0.356082
-0.35146
-0.346393
-0.340912
-0.335028
-0.328742
-0.322044
-0.314908
-0.307292
-0.299143
-0.29039
-0.280954
-0.270738
-0.259538
-0.247726
-0.236459
-0.207447
-0.358831
-0.355981
-0.352969
-0.349515
-0.345524
-0.34105
-0.33612
-0.330744
-0.324925
-0.31865
-0.311899
-0.304636
-0.296812
-0.288367
-0.279232
-0.269324
-0.258468
-0.247075
-0.236083
-0.209128
-0.350365
-0.348386
-0.346068
-0.343239
-0.33985
-0.33594
-0.331533
-0.326639
-0.321259
-0.315384
-0.308995
-0.302063
-0.294545
-0.28639
-0.277541
-0.26793
-0.257413
-0.24643
-0.235671
-0.210886
-0.342313
-0.341171
-0.339515
-0.33728
-0.33446
-0.331083
-0.327168
-0.322725
-0.317756
-0.312255
-0.306204
-0.29958
-0.292348
-0.284465
-0.275889
-0.266563
-0.256379
-0.245789
-0.23525
-0.212655
-0.334716
-0.33437
-0.333341
-0.331665
-0.329379
-0.326499
-0.323042
-0.319018
-0.314431
-0.309275
-0.303538
-0.297199
-0.290231
-0.282603
-0.274283
-0.265231
-0.255372
-0.245154
-0.23484
-0.214388
-0.327613
-0.32802
-0.32758
-0.326424
-0.324632
-0.322213
-0.319178
-0.315539
-0.311302
-0.306462
-0.301011
-0.294933
-0.288209
-0.280817
-0.272737
-0.263946
-0.254401
-0.244532
-0.234455
-0.216046
-0.32105
-0.322159
-0.322264
-0.321587
-0.320249
-0.318249
-0.315598
-0.31231
-0.308389
-0.303835
-0.298642
-0.292801
-0.286299
-0.279123
-0.271267
-0.262722
-0.253476
-0.24393
-0.234105
-0.217595
-0.31507
-0.316825
-0.317427
-0.317186
-0.316258
-0.314635
-0.312329
-0.309353
-0.305715
-0.301415
-0.296454
-0.290824
-0.284521
-0.277541
-0.26989
-0.261574
-0.252608
-0.243356
-0.233792
-0.219008
-0.309717
-0.312055
-0.313104
-0.31325
-0.312687
-0.311398
-0.309395
-0.306694
-0.303304
-0.299228
-0.294467
-0.289024
-0.282897
-0.276092
-0.268626
-0.260518
-0.251808
-0.242822
-0.233518
-0.220266
-0.305035
-0.307887
-0.309327
-0.309812
-0.309564
-0.308564
-0.306823
-0.304359
-0.301181
-0.297296
-0.29271
-0.287426
-0.281451
-0.274798
-0.267494
-0.259573
-0.251091
-0.242336
-0.233284
-0.221356
-0.301064
-0.304355
-0.306128
-0.306898
-0.306916
-0.306159
-0.304637
-0.30237
-0.299369
-0.295644
-0.291202
-0.286051
-0.280204
-0.27368
-0.266514
-0.258754
-0.250469
-0.241911
-0.23309
-0.29784
-0.301489
-0.303532
-0.304533
-0.304766
-0.304205
-0.302858
-0.300749
-0.29789
-0.294293
-0.289966
-0.284922
-0.279178
-0.272759
-0.265706
-0.258077
-0.249955
-0.241557
-0.232935
-0.295393
-0.299316
-0.301564
-0.30274
-0.303135
-0.302721
-0.301507
-0.299516
-0.296764
-0.293262
-0.289022
-0.284058
-0.278391
-0.272051
-0.265084
-0.257556
-0.249558
-0.241282
-0.232819
-0.293748
-0.297855
-0.300241
-0.301535
-0.302039
-0.301723
-0.300597
-0.298685
-0.296004
-0.292566
-0.288383
-0.283473
-0.277858
-0.271571
-0.264662
-0.257202
-0.249288
-0.241094
-0.232742
-0.292921
-0.297121
-0.299577
-0.300929
-0.301488
-0.301221
-0.300139
-0.298267
-0.295621
-0.292215
-0.288061
-0.283178
-0.277589
-0.271328
-0.264449
-0.257023
-0.249152
-0.240998
-0.232704
0.172884
0.176964
0.184542
0.193145
0.20227
0.209463
0.214936
0.214829
0.212995
0.19952
0.174415
0.178601
0.18649
0.195585
0.205459
0.213711
0.220616
0.222473
0.222757
0.213239
0.175842
0.180076
0.188156
0.197584
0.208022
0.217126
0.225259
0.22887
0.23115
0.225015
0.177238
0.181513
0.189799
0.199583
0.210618
0.220619
0.230018
0.235437
0.23974
0.236768
0.178573
0.182906
0.191404
0.20155
0.213177
0.224066
0.234685
0.241862
0.248087
0.248013
0.179842
0.184245
0.19294
0.203431
0.215616
0.227349
0.239108
0.24795
0.255992
0.258608
0.181041
0.185519
0.194399
0.205216
0.217926
0.23046
0.243288
0.253705
0.26348
0.268604
0.182169
0.186645
0.195777
0.206904
0.220107
0.2334
0.24723
0.259128
0.270549
0.278005
0.183224
0.187784
0.19707
0.20849
0.222153
0.23616
0.250921
0.264202
0.277174
0.286792
0.184203
0.18883
0.198272
0.209967
0.224056
0.238727
0.25435
0.268909
0.283331
0.294948
0.185103
0.189785
0.199378
0.211329
0.225808
0.241092
0.257507
0.273235
0.288999
0.302452
0.18592
0.190654
0.200387
0.212573
0.227405
0.243248
0.26038
0.277169
0.294159
0.30928
0.186653
0.191436
0.201293
0.213691
0.22884
0.245184
0.262961
0.280697
0.298793
0.315413
0.187299
0.192125
0.202096
0.214682
0.230107
0.246895
0.265241
0.283809
0.302884
0.320827
0.187856
0.192721
0.202793
0.21554
0.231203
0.248374
0.26721
0.286496
0.306419
0.325505
0.188323
0.193219
0.203318
0.216261
0.232123
0.249615
0.268863
0.288749
0.309383
0.329429
0.188699
0.193622
0.203815
0.216841
0.232863
0.250614
0.270193
0.29056
0.311768
0.332586
0.188981
0.193926
0.204169
0.217277
0.233421
0.251366
0.271195
0.291924
0.313563
0.334964
0.18917
0.194129
0.204405
0.217568
0.233794
0.25187
0.271865
0.292835
0.314764
0.336554
0.189265
0.194231
0.204523
0.217714
0.233981
0.252122
0.272201
0.293292
0.315366
0.337351
0.0495403
0.0482281
0.0459693
0.0432745
0.0404702
0.0377396
0.035184
0.0328559
0.0307712
0.0289305
0.0496782
0.0483619
0.0460922
0.0433857
0.040569
0.0378257
0.0352579
0.0329187
0.0308238
0.0289744
0.049947
0.0486211
0.0463317
0.0436025
0.0407613
0.0379934
0.035402
0.0330412
0.0309263
0.02906
0.0503397
0.0489993
0.0466817
0.0439195
0.0410426
0.0382387
0.0356127
0.0332203
0.0310762
0.0291852
0.05085
0.0494909
0.0471372
0.0443321
0.0414087
0.038558
0.035887
0.0334534
0.0312713
0.029348
0.0514725
0.0500907
0.0476934
0.0448362
0.0418561
0.0389483
0.0362223
0.0337384
0.0315097
0.029547
0.0522022
0.050794
0.0483463
0.0454282
0.0423818
0.0394071
0.0366165
0.0340733
0.0317897
0.0297805
0.0530345
0.0515966
0.049092
0.0461051
0.0429831
0.0399321
0.0370675
0.0344565
0.0321098
0.0300475
0.0539654
0.0524947
0.0499273
0.046864
0.0436577
0.0405214
0.0375739
0.0348867
0.0324688
0.0303468
0.0549909
0.0534847
0.0508492
0.0477025
0.0444038
0.0411734
0.0381343
0.0353626
0.0328657
0.0306775
0.0561074
0.0545634
0.051855
0.0486185
0.0452195
0.0418868
0.0387475
0.0358835
0.0332997
0.0310389
0.0573115
0.0557278
0.0529423
0.0496101
0.0461035
0.0426606
0.0394128
0.0364485
0.0337702
0.0314304
0.0586001
0.0569749
0.0541087
0.0506756
0.0470546
0.0434938
0.0401295
0.0370573
0.0342766
0.0318517
0.0599701
0.0583021
0.0553523
0.0518135
0.0480718
0.0443859
0.0408972
0.0377095
0.0348187
0.0323024
0.0614183
0.0597068
0.056671
0.0530226
0.0491542
0.0453365
0.0417157
0.038405
0.0353963
0.0327825
0.062942
0.0611865
0.0580629
0.0543016
0.0503013
0.0463452
0.0425849
0.0391438
0.0360096
0.0332919
0.0645383
0.0627386
0.0595265
0.0556495
0.0515126
0.047412
0.0435049
0.0399262
0.0366586
0.033831
0.0662041
0.0643609
0.0610599
0.0570654
0.0527876
0.048537
0.0444761
0.0407527
0.0373439
0.0343999
0.0679368
0.0660507
0.0626616
0.0585483
0.0541263
0.0497205
0.045499
0.0416238
0.0380658
0.0349993
0.0697334
0.0678058
0.0643299
0.0600976
0.0555285
0.0509628
0.0465742
0.0425402
0.0388253
0.0356297
0.0715909
0.0696237
0.0660633
0.0617123
0.0569943
0.0522645
0.0477025
0.0435031
0.039623
0.0362919
0.0735065
0.0715019
0.0678602
0.0633919
0.0585236
0.0536262
0.048885
0.0445133
0.0404602
0.036987
0.075477
0.0734379
0.0697189
0.0651357
0.0601167
0.0550488
0.0501227
0.0455724
0.0413381
0.0377161
0.0774995
0.0754291
0.0716379
0.066943
0.0617739
0.0565331
0.051417
0.0466817
0.0422581
0.0384805
0.0795708
0.0774729
0.0736155
0.0688131
0.0634955
0.0580801
0.0527692
0.0478428
0.0432219
0.0392816
0.0816877
0.0795667
0.0756499
0.0707453
0.0652817
0.059691
0.0541812
0.0490577
0.0442312
0.0401211
0.083847
0.0817077
0.0777394
0.072739
0.0671331
0.0613669
0.0556545
0.0503283
0.0452882
0.0410008
0.0860453
0.0838931
0.0798822
0.0747934
0.06905
0.0631092
0.0571911
0.0516567
0.046395
0.0419228
0.0882793
0.0861199
0.0820763
0.0769077
0.0710329
0.0649191
0.058793
0.0530454
0.0475541
0.0428893
0.0905455
0.0883853
0.0843197
0.0790811
0.0730822
0.0667981
0.0604625
0.0544968
0.0487681
0.0439027
0.0928405
0.0906862
0.0866104
0.0813126
0.0751983
0.0687477
0.0622018
0.0560137
0.0500399
0.0449656
0.0951607
0.0930195
0.0889461
0.0836013
0.0773816
0.0707693
0.0640135
0.0575988
0.0513727
0.0460808
0.0975026
0.0953821
0.0913246
0.085946
0.0796324
0.0728645
0.0659
0.0592553
0.0527698
0.0472514
0.0998626
0.0977708
0.0937436
0.0883456
0.081951
0.0750346
0.067864
0.0609863
0.0542348
0.0484806
0.102237
0.100182
0.0962004
0.0907987
0.0843376
0.0772814
0.0699084
0.0627952
0.0557715
0.0497719
0.104623
0.102613
0.0986926
0.0933039
0.0867922
0.0796061
0.072036
0.0646853
0.057384
0.0511291
0.107015
0.105061
0.101217
0.0958597
0.0893149
0.0820102
0.0742496
0.0666604
0.0590766
0.052556
0.109412
0.107521
0.103772
0.0984644
0.0919055
0.084495
0.0765524
0.0687241
0.060854
0.0540569
0.111808
0.10999
0.106354
0.101116
0.0945635
0.0870619
0.0789472
0.0708803
0.0627211
0.0556361
0.114202
0.112466
0.10896
0.103813
0.0972886
0.0897118
0.081437
0.0731329
0.0646828
0.0572983
0.116588
0.114944
0.111586
0.106552
0.10008
0.0924459
0.0840249
0.0754859
0.0667447
0.0590486
0.118965
0.117422
0.114231
0.109332
0.102937
0.095265
0.0867138
0.0779433
0.0689123
0.0608919
0.121328
0.119895
0.11689
0.11215
0.105858
0.0981697
0.0895066
0.0805094
0.0711915
0.0628338
0.123674
0.122362
0.11956
0.115003
0.108842
0.10116
0.0924058
0.0831883
0.0735885
0.0648799
0.126
0.124817
0.122238
0.117889
0.111887
0.104238
0.0954142
0.085984
0.0761095
0.0670361
0.128304
0.127259
0.124921
0.120805
0.114991
0.107401
0.0985341
0.0889007
0.0787612
0.0693085
0.130582
0.129683
0.127604
0.123746
0.118152
0.11065
0.101768
0.0919424
0.0815501
0.0717036
0.132831
0.132088
0.130285
0.126711
0.121368
0.113985
0.105117
0.0951131
0.0844832
0.0742279
0.135049
0.134469
0.13296
0.129695
0.124636
0.117404
0.108583
0.0984167
0.0875673
0.0768883
0.137234
0.136824
0.135626
0.132695
0.127952
0.120906
0.112167
0.101857
0.0908095
0.0796918
0.139383
0.139151
0.138278
0.135706
0.131314
0.124489
0.11587
0.105437
0.0942168
0.0826456
0.141493
0.141446
0.140915
0.138726
0.134717
0.128152
0.119692
0.109161
0.0977959
0.0857571
0.143564
0.143706
0.143531
0.141751
0.138158
0.131892
0.123634
0.113032
0.101554
0.0890338
0.145592
0.14593
0.146124
0.144775
0.141632
0.135705
0.127693
0.117052
0.105497
0.0924833
0.147576
0.148116
0.14869
0.147794
0.145134
0.139589
0.13187
0.121223
0.109631
0.0961133
0.149515
0.15026
0.151227
0.150806
0.148661
0.143539
0.136161
0.125549
0.113963
0.0999317
0.151408
0.152361
0.15373
0.153804
0.152206
0.147552
0.140565
0.13003
0.118498
0.103946
0.153252
0.154418
0.156198
0.156786
0.155766
0.151623
0.145078
0.134669
0.123239
0.108165
0.155048
0.156428
0.158627
0.159746
0.159333
0.155746
0.149697
0.139465
0.128191
0.112596
0.156793
0.15839
0.161014
0.162681
0.162903
0.159916
0.154416
0.144419
0.133358
0.117246
0.158488
0.160302
0.163357
0.165585
0.166469
0.164127
0.15923
0.149531
0.138741
0.122125
0.160132
0.162164
0.165653
0.168456
0.170027
0.168373
0.164134
0.1548
0.144342
0.127238
0.161724
0.163974
0.167899
0.171288
0.173569
0.172647
0.16912
0.160225
0.150159
0.132593
0.163264
0.165731
0.170095
0.174078
0.177091
0.176941
0.17418
0.165803
0.15619
0.138195
0.164752
0.167436
0.172237
0.176823
0.180586
0.18125
0.17931
0.171537
0.162444
0.144062
0.166188
0.169087
0.174326
0.179521
0.184052
0.185572
0.18451
0.177439
0.168937
0.150236
0.167572
0.170684
0.176359
0.182168
0.187482
0.189893
0.189758
0.183482
0.175626
0.156659
0.168902
0.172219
0.178322
0.184737
0.190829
0.194138
0.194935
0.189498
0.182239
0.162896
0.170177
0.173688
0.180197
0.187195
0.194039
0.19823
0.199949
0.195395
0.188693
0.168751
0.171417
0.175142
0.182073
0.189693
0.197391
0.202662
0.205656
0.202528
0.197208
0.177925
0.0277105
0.0270122
0.0263108
0.0256053
0.0248956
0.0241819
0.0234648
0.0227447
0.0220222
0.0212975
0.0205711
0.0198434
0.0191148
0.0183858
0.0176567
0.0169279
0.0161999
0.0154731
0.0147477
0.0140243
0.027749
0.0270503
0.0263485
0.0256425
0.0249318
0.0242168
0.0234979
0.0227757
0.0220505
0.0213229
0.0205931
0.0198617
0.0191292
0.0183959
0.0176622
0.0169287
0.0161958
0.0154639
0.0147334
0.0140047
0.0278219
0.0271182
0.0264118
0.0257012
0.0249856
0.0242653
0.0235409
0.0228129
0.0220818
0.0213479
0.0206118
0.0198739
0.0191346
0.0183945
0.0176539
0.0169134
0.0161734
0.0154344
0.0146968
0.0139611
0.0279278
0.0272153
0.026501
0.0257828
0.0250593
0.0243309
0.0235981
0.0228615
0.0221216
0.0213788
0.0206336
0.0198864
0.0191378
0.0183882
0.0176382
0.0168881
0.0161385
0.0153898
0.0146426
0.0138972
0.0280648
0.0273399
0.0266146
0.0258858
0.0251514
0.0244118
0.0236677
0.0229197
0.0221682
0.0214138
0.0206568
0.0198978
0.0191372
0.0183756
0.0176135
0.0168514
0.0160897
0.015329
0.0145698
0.0138126
0.0282317
0.0274908
0.0267513
0.0260089
0.0252609
0.0245073
0.0237491
0.022987
0.0222213
0.0214525
0.0206812
0.0199078
0.0191328
0.0183568
0.0175802
0.0168037
0.0160276
0.0152526
0.0144791
0.0137077
0.0284269
0.0276667
0.02691
0.0261514
0.0253869
0.0246166
0.0238417
0.0230627
0.0222802
0.0214946
0.0207065
0.0199162
0.0191243
0.0183315
0.0175381
0.0167448
0.015952
0.0151604
0.0143704
0.0135825
0.0286495
0.0278665
0.0270898
0.0263122
0.0255286
0.024739
0.0239447
0.0231464
0.0223445
0.0215396
0.0207321
0.0199225
0.0191114
0.0182994
0.0174869
0.0166745
0.0158628
0.0150523
0.0142435
0.013437
0.0288984
0.0280893
0.0272898
0.0264906
0.0256852
0.0248737
0.0240574
0.0232372
0.0224135
0.0215868
0.0207576
0.0199263
0.0190936
0.0182601
0.0174261
0.0165924
0.0157595
0.0149279
0.0140982
0.0132709
0.0291727
0.0283343
0.0275092
0.0266859
0.0258562
0.0250201
0.0241793
0.0233347
0.0224868
0.0216358
0.0207824
0.0199271
0.0190705
0.0182131
0.0173555
0.0164982
0.0156418
0.0147869
0.013934
0.0130838
0.0294717
0.0286007
0.0277473
0.0268973
0.0260408
0.0251776
0.0243098
0.0234384
0.0225636
0.0216861
0.0208061
0.0199245
0.0190416
0.018158
0.0172744
0.0163913
0.0155092
0.0146288
0.0137506
0.0128752
0.0297948
0.028888
0.0280036
0.0271245
0.0262385
0.0253457
0.0244484
0.0235476
0.0226437
0.021737
0.0208282
0.0199177
0.0190062
0.0180943
0.0171824
0.0162711
0.0153612
0.014453
0.0135473
0.0126445
0.0301417
0.0291957
0.0282776
0.0273668
0.0264489
0.0255239
0.0245946
0.0236619
0.0227263
0.0217882
0.0208481
0.0199065
0.018964
0.0180213
0.0170788
0.0161372
0.015197
0.0142589
0.0133234
0.0123912
0.0305119
0.0295234
0.028569
0.027624
0.0266715
0.0257118
0.0247479
0.0237809
0.0228112
0.0218391
0.0208652
0.0198901
0.0189143
0.0179384
0.0169631
0.0159888
0.0150162
0.0140458
0.0130783
0.0121143
0.0309054
0.0298711
0.0288776
0.0278957
0.0269062
0.0259091
0.024908
0.0239042
0.0228978
0.0218893
0.0208792
0.0198681
0.0188566
0.0178452
0.0168345
0.0158252
0.0148178
0.013813
0.0128112
0.0118131
0.0313221
0.0302385
0.0292031
0.0281819
0.0271526
0.0261156
0.0250747
0.0240313
0.0229858
0.0219383
0.0208895
0.0198399
0.0187902
0.0177409
0.0166926
0.0156459
0.0146013
0.0135596
0.0125212
0.0114868
0.0317622
0.0306258
0.0295457
0.0284825
0.0274107
0.0263309
0.0252476
0.0241621
0.0230747
0.0219857
0.0208956
0.0198051
0.0187147
0.017625
0.0165365
0.01545
0.0143659
0.0132849
0.0122075
0.0111344
0.032226
0.0310331
0.0299053
0.0287974
0.0276805
0.0265551
0.0254266
0.0242963
0.0231644
0.0220312
0.0208972
0.0197631
0.0186294
0.0174968
0.0163657
0.0152368
0.0141107
0.0129879
0.0118692
0.0107549
0.0327138
0.0314609
0.0302824
0.0291269
0.0279619
0.0267882
0.0256116
0.0244337
0.0232545
0.0220744
0.0208939
0.0197135
0.0185339
0.0173557
0.0161793
0.0150055
0.0138349
0.0126679
0.0115052
0.0103474
0.0332264
0.0319095
0.0306772
0.0294712
0.0282551
0.0270301
0.0258025
0.0245741
0.0233449
0.022115
0.0208851
0.0196558
0.0184275
0.017201
0.0159768
0.0147555
0.0135376
0.0123238
0.0111147
0.00991071
0.0337644
0.0323796
0.0310902
0.0298308
0.0285605
0.0272811
0.0259995
0.0247176
0.0234354
0.0221529
0.0208707
0.0195895
0.0183098
0.0170323
0.0157574
0.0144858
0.0132181
0.0119548
0.0106965
0.00944377
0.0343288
0.0328719
0.0315221
0.030206
0.0288784
0.0275413
0.0262026
0.0248642
0.0235258
0.0221876
0.0208502
0.0195142
0.0181802
0.0168488
0.0155204
0.0141958
0.0128753
0.0115598
0.0102497
0.00894542
0.0349206
0.0333876
0.0319736
0.0305975
0.0292092
0.0278112
0.026412
0.0250139
0.0236162
0.0222192
0.0208235
0.0194297
0.0180383
0.0166499
0.0152651
0.0138845
0.0125085
0.0111378
0.00977302
0.00841447
0.0355412
0.0339275
0.0324456
0.0310061
0.0295536
0.0280911
0.0266281
0.0251668
0.0237065
0.0222475
0.0207902
0.0193353
0.0178835
0.0164351
0.0149908
0.0135511
0.0121166
0.0106878
0.00926544
0.00784968
0.0361921
0.0344931
0.0329393
0.0314326
0.0299123
0.0283816
0.0268513
0.0253232
0.0237969
0.0222724
0.0207502
0.019231
0.0177153
0.0162038
0.0146968
0.0131949
0.0116988
0.0102087
0.00872578
0.00724979
0.0368749
0.0350858
0.0334559
0.0318781
0.030286
0.0286834
0.0270819
0.0254835
0.0238875
0.0222939
0.0207033
0.0191163
0.0175334
0.0159553
0.0143823
0.012815
0.0112539
0.00969953
0.00815281
0.00661347
0.0375914
0.0357071
0.0339966
0.0323437
0.0306758
0.0289972
0.0273206
0.025648
0.0239785
0.022312