/*--------------------------------*- C++ -*----------------------------------*\
  =========                 |
  \\      /  F ield         | OpenFOAM: The Open Source CFD Toolbox
   \\    /   O peration     | Website:  https://openfoam.org
    \\  /    A nd           | Version:  7
     \\/     M anipulation  |
\*---------------------------------------------------------------------------*/
FoamFile
{
    version     2.0;
    format      ascii;
    class       volVectorField;
    location    "1";
    object      U;
}
// * * * * * * * * * * * * * * * * * * * * * * * * * * * * * * * * * * * * * //

dimensions      [0 1 -1 0 0 0 0];

internalField   nonuniform List<vector> 
344
(
(1.0446 -9.49151e-05 1.74211e-15)
(1.04463 -8.11751e-05 2.02527e-15)
(1.04465 -6.93773e-05 4.57638e-16)
(1.04467 -5.92568e-05 2.87987e-15)
(1.04469 -5.05824e-05 2.0687e-15)
(1.04471 -4.31524e-05 4.48925e-15)
(1.04472 -3.6792e-05 1.32315e-15)
(1.04473 -3.13493e-05 5.13057e-15)
(1.04474 -2.66931e-05 3.6987e-15)
(1.04475 -2.27099e-05 6.02666e-15)
(1.04475 -1.93019e-05 3.21755e-15)
(1.04476 -1.63849e-05 8.67576e-16)
(1.04476 -1.38862e-05 1.04714e-15)
(1.04477 -1.17434e-05 6.44026e-15)
(1.04477 -9.90261e-06 3.9987e-15)
(1.04477 -8.31739e-06 4.99653e-15)
(1.04478 -6.94758e-06 4.92355e-15)
(1.04478 -5.75848e-06 6.45061e-15)
(1.04478 -4.71978e-06 2.72905e-15)
(1.04478 -3.80508e-06 5.21647e-15)
(1.04478 -2.99121e-06 8.24518e-16)
(1.04478 -2.25753e-06 4.5353e-15)
(1.04478 -1.58552e-06 2.69062e-15)
(1.04478 -9.58218e-07 8.82358e-15)
(1.04479 -3.59875e-07 4.36517e-15)
(1.04479 2.2467e-07 1.02595e-14)
(1.04478 8.1e-07 4.32697e-15)
(1.04478 1.41086e-06 1.0449e-14)
(1.04478 2.04237e-06 3.93709e-15)
(1.04478 2.72049e-06 1.44487e-14)
(1.04478 3.46245e-06 5.34026e-15)
(1.04478 4.28738e-06 1.48135e-14)
(1.04478 5.21682e-06 3.80359e-15)
(1.04478 6.27526e-06 1.7758e-14)
(1.04478 7.49041e-06 5.42219e-15)
(1.04477 8.89667e-06 2.16941e-14)
(1.04477 1.05303e-05 4.4582e-15)
(1.04477 1.24435e-05 1.84102e-14)
(1.04476 1.468e-05 4.90771e-15)
(1.04476 1.73297e-05 1.9389e-14)
(1.04475 2.04262e-05 8.01565e-15)
(1.04474 2.41581e-05 2.2897e-14)
(1.04473 2.84667e-05 1.09961e-14)
(1.04473 3.38347e-05 2.43566e-14)
(1.04471 3.98017e-05 1.4445e-14)
(1.0447 4.77696e-05 2.05298e-14)
(1.04468 5.58324e-05 1.4906e-14)
(1.04467 6.82386e-05 2.00994e-14)
(1.04464 7.84434e-05 1.57764e-14)
(1.04462 9.90337e-05 2.22215e-14)
(1.04457 0.000110062 2.17536e-14)
(1.04457 0.00014642 2.44647e-14)
(1.04445 0.00015406 2.51508e-14)
(1.04452 0.000219623 2.38144e-14)
(1.04423 0.000217593 2.49456e-14)
(1.04454 0.00032679 2.32568e-14)
(1.04376 0.000324764 2.73005e-14)
(1.0448 0.000452819 2.1623e-14)
(1.04406 -0.000424761 -7.52472e-15)
(1.04417 -0.000366655 7.36803e-15)
(1.04426 -0.00031598 -7.22626e-15)
(1.04434 -0.000271911 4.85134e-15)
(1.0444 -0.000233684 -4.65057e-15)
(1.04446 -0.000200598 1.40687e-15)
(1.04451 -0.000172018 -2.81084e-16)
(1.04455 -0.000147373 2.15505e-17)
(1.04459 -0.000126154 -2.44834e-16)
(1.04462 -0.000107909 -2.6931e-15)
(1.04464 -9.224e-05 2.57549e-15)
(1.04467 -7.87975e-05 -4.95202e-15)
(1.04468 -6.72749e-05 5.64912e-15)
(1.0447 -5.74053e-05 -6.90942e-15)
(1.04471 -4.89569e-05 6.54772e-15)
(1.04473 -4.17286e-05 -4.15617e-15)
(1.04474 -3.55461e-05 6.02854e-15)
(1.04474 -3.02592e-05 -3.667e-15)
(1.04475 -2.57383e-05 8.16978e-15)
(1.04476 -2.18715e-05 -2.75167e-15)
(1.04476 -1.85628e-05 5.76326e-15)
(1.04477 -1.57293e-05 -3.02212e-15)
(1.04477 -1.32998e-05 7.33679e-15)
(1.04477 -1.12131e-05 -3.8724e-15)
(1.04478 -9.4164e-06 5.79466e-15)
(1.04478 -7.86403e-06 -2.97874e-15)
(1.04478 -6.5165e-06 6.95118e-15)
(1.04478 -5.33942e-06 -3.73442e-15)
(1.04478 -4.30286e-06 3.33173e-15)
(1.04478 -3.38057e-06 -3.16525e-15)
(1.04478 -2.5491e-06 1.57836e-15)
(1.04479 -1.78741e-06 -9.58684e-16)
(1.04479 -1.07627e-06 3.60529e-15)
(1.04479 -3.97838e-07 2.2815e-15)
(1.04479 2.65003e-07 4.07564e-15)
(1.04479 9.28741e-07 2.69565e-15)
(1.04479 1.61005e-06 2.11248e-15)
(1.04478 2.32598e-06 4.19502e-15)
(1.04478 3.09456e-06 2.31004e-15)
(1.04478 3.93517e-06 2.24645e-15)
(1.04478 4.86948e-06 1.40519e-15)
(1.04478 5.92129e-06 1.45804e-15)
(1.04478 7.1185e-06 2.23455e-15)
(1.04478 8.49162e-06 5.14839e-15)
(1.04477 1.00795e-05 1.79585e-15)
(1.04477 1.19217e-05 3.86627e-15)
(1.04477 1.40781e-05 8.49486e-16)
(1.04476 1.65932e-05 1.57639e-16)
(1.04476 1.95749e-05 1.29332e-15)
(1.04475 2.30429e-05 2.15159e-15)
(1.04475 2.72411e-05 4.18423e-15)
(1.04474 3.20316e-05 1.66537e-15)
(1.04473 3.80939e-05 4.60377e-15)
(1.04472 4.46223e-05 2.11226e-15)
(1.04471 5.3753e-05 2.3926e-15)
(1.04469 6.22184e-05 1.51565e-15)
(1.04468 7.69664e-05 3.80181e-15)
(1.04466 8.64228e-05 2.17184e-15)
(1.04464 0.000112729 4.29613e-15)
(1.0446 0.000118415 4.74289e-15)
(1.04459 0.000170504 5.73777e-15)
(1.0445 0.000157526 4.99598e-15)
(1.04454 0.000267709 6.41224e-15)
(1.0443 0.000200035 6.21705e-15)
(1.04457 0.000431532 6.48101e-15)
(1.04387 0.000245745 5.24871e-15)
(1.04485 0.000684041 4.987e-15)
(1.04413 -0.000472517 -1.77429e-15)
(1.04423 -0.000407282 4.05886e-16)
(1.04431 -0.000350522 -3.19154e-15)
(1.04438 -0.000301267 -1.82321e-15)
(1.04444 -0.000258625 -1.15474e-15)
(1.04449 -0.000221784 2.99702e-16)
(1.04454 -0.000190012 7.93913e-17)
(1.04458 -0.000162655 2.36036e-16)
(1.04461 -0.000139133 -8.35542e-16)
(1.04464 -0.000118932 -7.95976e-16)
(1.04466 -0.000101602 -6.75506e-16)
(1.04468 -8.67492e-05 -4.51905e-16)
(1.0447 -7.40287e-05 -6.77182e-16)
(1.04471 -6.31416e-05 -1.72187e-15)
(1.04472 -5.38287e-05 -2.18241e-15)
(1.04473 -4.58655e-05 -2.16628e-15)
(1.04474 -3.90583e-05 -1.97247e-15)
(1.04475 -3.324e-05 -1.96731e-15)
(1.04476 -2.82667e-05 -1.09313e-15)
(1.04476 -2.40147e-05 -1.74297e-15)
(1.04477 -2.03775e-05 -1.86014e-15)
(1.04477 -1.72636e-05 -2.40561e-15)
(1.04477 -1.45943e-05 -8.08587e-16)
(1.04478 -1.23021e-05 -1.99132e-15)
(1.04478 -1.03286e-05 -3.89029e-16)
(1.04478 -8.62378e-06 6.42329e-17)
(1.04478 -7.14398e-06 -1.06192e-15)
(1.04478 -5.8514e-06 -1.36774e-15)
(1.04478 -4.71315e-06 -1.65141e-15)
(1.04478 -3.70026e-06 -1.78862e-15)
(1.04479 -2.78703e-06 -1.64875e-15)
(1.04479 -1.95032e-06 -2.23956e-15)
(1.04479 -1.16897e-06 -7.46189e-16)
(1.04479 -4.2338e-07 -1.72555e-15)
(1.04479 3.05139e-07 -3.0703e-16)
(1.04479 1.03473e-06 -1.43868e-15)
(1.04479 1.78359e-06 -3.06166e-15)
(1.04479 2.57046e-06 -1.95343e-15)
(1.04478 3.41487e-06 -1.0875e-15)
(1.04478 4.33814e-06 -2.52771e-15)
(1.04478 5.36377e-06 -9.79667e-16)
(1.04478 6.51754e-06 -2.66467e-15)
(1.04478 7.82975e-06 -1.45155e-15)
(1.04478 9.33329e-06 -1.37402e-15)
(1.04478 1.10706e-05 -1.68267e-15)
(1.04477 1.30831e-05 -1.32441e-15)
(1.04477 1.54371e-05 -1.60932e-15)
(1.04477 1.81763e-05 -1.77644e-15)
(1.04476 2.1424e-05 -1.0995e-15)
(1.04476 2.51843e-05 -3.06822e-15)
(1.04475 2.97526e-05 -1.79652e-15)
(1.04475 3.49064e-05 -3.08371e-15)
(1.04474 4.15244e-05 -1.43517e-15)
(1.04473 4.84268e-05 -1.30871e-15)
(1.04472 5.8534e-05 -4.41291e-16)
(1.04471 6.70674e-05 -5.64953e-16)
(1.04469 8.39857e-05 1.28909e-15)
(1.04467 9.19439e-05 1.35267e-15)
(1.04465 0.000124203 1.24056e-15)
(1.04463 0.000122381 1.67974e-15)
(1.0446 0.000192575 6.92291e-16)
(1.04455 0.000151767 8.60926e-16)
(1.04455 0.000317563 4.08615e-16)
(1.04441 0.000159681 5.7546e-16)
(1.04455 0.000554445 4.18183e-18)
(1.04408 0.000105647 -2.62737e-16)
(1.04477 0.00098624 3.27672e-17)
(1.04421 -0.000512948 -4.80446e-15)
(1.04429 -0.000441393 5.0484e-15)
(1.04437 -0.0003793 -5.78622e-15)
(1.04443 -0.000325549 3.15339e-15)
(1.04448 -0.000279118 -3.83317e-15)
(1.04453 -0.000239085 3.02119e-15)
(1.04457 -0.000204625 -2.3535e-15)
(1.0446 -0.000175003 6.97053e-16)
(1.04463 -0.000149571 -2.61213e-15)
(1.04466 -0.00012776 -1.03016e-15)
(1.04468 -0.000109072 -3.02523e-16)
(1.04469 -9.30723e-05 -2.87665e-15)
(1.04471 -7.93828e-05 1.52436e-15)
(1.04472 -6.76766e-05 -4.48548e-15)
(1.04473 -5.76707e-05 3.48356e-15)
(1.04474 -4.91209e-05 -2.91702e-15)
(1.04475 -4.18165e-05 3.33429e-15)
(1.04475 -3.55767e-05 -2.13097e-15)
(1.04476 -3.02456e-05 4.05804e-15)
(1.04477 -2.56895e-05 -3.57887e-15)
(1.04477 -2.17935e-05 3.6806e-15)
(1.04477 -1.84591e-05 -4.0697e-15)
(1.04478 -1.56015e-05 3.1544e-15)
(1.04478 -1.31482e-05 -3.94656e-15)
(1.04478 -1.10363e-05 4.10725e-15)
(1.04478 -9.21206e-06 -3.05765e-15)
(1.04478 -7.6287e-06 3.37201e-15)
(1.04478 -6.24565e-06 -3.62356e-15)
(1.04479 -5.02772e-06 2.9329e-15)
(1.04479 -3.94381e-06 -2.66825e-15)
(1.04479 -2.96641e-06 6.86252e-17)
(1.04479 -2.07066e-06 -3.10572e-15)
(1.04479 -1.23393e-06 -1.36233e-16)
(1.04479 -4.35337e-07 -7.68344e-16)
(1.04479 3.45061e-07 -9.40782e-16)
(1.04479 1.12674e-06 -8.79328e-16)
(1.04479 1.92913e-06 -7.04466e-16)
(1.04479 2.77216e-06 5.77729e-16)
(1.04479 3.67658e-06 -7.05878e-16)
(1.04478 4.6651e-06 -1.1048e-15)
(1.04478 5.76253e-06 -1.87796e-15)
(1.04478 6.99625e-06 -4.71425e-16)
(1.04478 8.3979e-06 -6.49311e-16)
(1.04478 1.00026e-05 1.14848e-15)
(1.04478 1.18544e-05 -3.34797e-16)
(1.04478 1.39968e-05 1.39427e-15)
(1.04477 1.64994e-05 5.43219e-16)
(1.04477 1.94054e-05 -2.18654e-16)
(1.04477 2.28485e-05 -5.1208e-16)
(1.04476 2.68199e-05 -2.3573e-15)
(1.04476 3.16521e-05 -5.65632e-16)
(1.04475 3.70558e-05 -1.81749e-15)
(1.04474 4.40609e-05 -6.22633e-16)
(1.04474 5.11881e-05 -1.68588e-16)
(1.04473 6.19861e-05 6.91378e-16)
(1.04472 7.04162e-05 -6.5304e-16)
(1.0447 8.89846e-05 2.56493e-15)
(1.0447 9.5313e-05 8.7821e-16)
(1.04467 0.00013255 3.51752e-15)
(1.04467 0.000123219 4.00416e-15)
(1.04461 0.000209887 2.33932e-15)
(1.04463 0.000141046 1.23251e-15)
(1.04454 0.000361049 2.39795e-15)
(1.04457 0.000109412 2.35569e-15)
(1.04446 0.000673017 2.70881e-15)
(1.04443 -6.0867e-05 9.15156e-16)
(1.04446 0.00130362 1.72688e-15)
(1.04429 -0.00054515 1.01166e-15)
(1.04436 -0.000468224 4.87999e-16)
(1.04443 -0.000401669 3.45513e-16)
(1.04448 -0.000344214 -5.16003e-16)
(1.04453 -0.000294709 -3.14564e-16)
(1.04457 -0.000252122 8.15181e-17)
(1.0446 -0.000215539 -1.79505e-16)
(1.04463 -0.00018415 -2.15456e-16)
(1.04466 -0.000157247 -2.67373e-16)
(1.04468 -0.000134209 8.87726e-16)
(1.04469 -0.000114495 -3.82337e-16)
(1.04471 -9.76367e-05 -2.74535e-16)
(1.04472 -8.32284e-05 -1.07082e-15)
(1.04473 -7.09191e-05 -7.94497e-16)
(1.04474 -6.04065e-05 -2.2808e-15)
(1.04475 -5.14303e-05 -2.28617e-15)
(1.04476 -4.37667e-05 -8.8422e-16)
(1.04476 -3.72237e-05 -8.00386e-16)
(1.04477 -3.16365e-05 -9.41877e-16)
(1.04477 -2.68635e-05 -1.03665e-15)
(1.04477 -2.27837e-05 -1.45819e-15)
(1.04478 -1.92931e-05 -1.67642e-15)
(1.04478 -1.63025e-05 -1.7669e-15)
(1.04478 -1.37354e-05 -1.34902e-15)
(1.04478 -1.1526e-05 -8.58229e-17)
(1.04478 -9.61768e-06 -1.06956e-15)
(1.04478 -7.96141e-06 -1.65678e-15)
(1.04479 -6.5147e-06 -2.23943e-15)
(1.04479 -5.24058e-06 -6.19157e-16)
(1.04479 -4.10649e-06 -1.80163e-16)
(1.04479 -3.0836e-06 -1.07133e-15)
(1.04479 -2.14593e-06 -1.12316e-15)
(1.04479 -1.26973e-06 -9.2184e-16)
(1.04479 -4.33158e-07 -1.37474e-15)
(1.04479 3.84653e-07 -2.18691e-15)
(1.04479 1.20395e-06 -2.48849e-15)
(1.04479 2.04501e-06 -1.86025e-15)
(1.04479 2.9285e-06 -1.73983e-15)
(1.04479 3.87627e-06 -2.39939e-15)
(1.04479 4.91166e-06 -2.40689e-15)
(1.04479 6.06055e-06 -1.10001e-15)
(1.04478 7.3509e-06 -1.3817e-15)
(1.04478 8.81575e-06 -7.24176e-16)
(1.04478 1.04906e-05 -1.29881e-15)
(1.04478 1.24211e-05 -1.12279e-15)
(1.04478 1.46513e-05 -5.62407e-16)
(1.04478 1.7252e-05 -2.76169e-17)
(1.04477 2.02669e-05 2.17225e-16)
(1.04477 2.38317e-05 -2.97418e-16)
(1.04477 2.79342e-05 -1.69939e-15)
(1.04476 3.29174e-05 -2.25413e-15)
(1.04476 3.84671e-05 -2.26661e-15)
(1.04475 4.56684e-05 -1.57525e-15)
(1.04475 5.29132e-05 -3.84097e-16)
(1.04474 6.40283e-05 5.92943e-16)
(1.04473 7.23576e-05 -4.67425e-17)
(1.04472 9.17154e-05 1.57894e-15)
(1.04472 9.69371e-05 3.07955e-16)
(1.04468 0.000136935 1.30011e-15)
(1.04471 0.000122413 1.41336e-15)
(1.04462 0.000219641 -1.10776e-15)
(1.04472 0.000130291 -9.96354e-16)
(1.0445 0.00038931 -1.10622e-15)
(1.04478 6.42326e-05 -1.75941e-15)
(1.04428 0.000761351 -2.92867e-16)
(1.04494 -0.000212175 1.2129e-16)
(1.04388 0.00156711 -5.99501e-16)
(1.04437 -0.000568293 -3.77859e-15)
(1.04444 -0.000487087 4.47575e-15)
(1.04449 -0.000417065 -3.33656e-15)
(1.04454 -0.000356802 2.98309e-15)
(1.04458 -0.00030502 -3.48832e-15)
(1.04461 -0.000260586 9.84114e-16)
(1.04464 -0.000222502 -3.01867e-15)
(1.04466 -0.000189892 -4.21863e-16)
(1.04468 -0.000161992 -1.60489e-15)
(1.0447 -0.000138139 -1.22633e-15)
(1.04471 -0.000117757 -5.84926e-16)
(1.04473 -0.00010035 -1.6433e-15)
(1.04474 -8.54893e-05 2.49331e-15)
(1.04474 -7.28063e-05 -2.85157e-15)
(1.04475 -6.19842e-05 2.52178e-15)
(1.04476 -5.27509e-05 -3.9626e-15)
(1.04476 -4.48734e-05 1.72103e-15)
(1.04477 -3.81518e-05 -2.84762e-15)
)
;

boundaryField
{
    inlet
    {
        type            uniformFixedValue;
        uniformValue    constant (1 0 0);
        value           nonuniform 0();
    }
    outlet
    {
        type            pressureInletOutletVelocity;
        value           nonuniform 0();
    }
    wall
    {
        type            fixedValue;
        value           nonuniform 0();
    }
    wedge1
    {
        type            wedge;
    }
    wedge2
    {
        type            wedge;
    }
    axis
    {
        type            empty;
    }
    procBoundary7to1
    {
        type            processor;
        value           nonuniform List<vector> 
68
(
(1.04459 -8.02115e-05 -1.06504e-14)
(1.04462 -6.86302e-05 -8.64725e-15)
(1.04464 -5.86787e-05 -1.11249e-14)
(1.04467 -5.01366e-05 -7.17589e-15)
(1.04468 -4.28108e-05 -1.10026e-14)
(1.0447 -3.65328e-05 -6.26471e-15)
(1.04471 -3.11559e-05 -6.78782e-15)
(1.04473 -2.6553e-05 -7.05962e-15)
(1.04474 -2.26138e-05 -6.8042e-15)
(1.04474 -1.92428e-05 -6.39927e-15)
(1.04475 -1.63578e-05 -6.21871e-15)
(1.04476 -1.38879e-05 -7.07129e-15)
(1.04476 -1.17718e-05 -7.35147e-15)
(1.04477 -9.95673e-06 -3.83022e-15)
(1.04477 -8.39722e-06 -2.90129e-15)
(1.04477 -7.05396e-06 -3.61834e-15)
(1.04478 -5.89309e-06 -3.12704e-15)
(1.04478 -4.88532e-06 -5.84526e-15)
(1.04478 -4.0051e-06 -4.0531e-15)
(1.04478 -3.23003e-06 -6.7429e-15)
(1.04478 -2.54038e-06 -6.88149e-15)
(1.04478 -1.91875e-06 -7.74663e-15)
(1.04478 -1.34944e-06 -5.13177e-15)
(1.04478 -8.17972e-07 -3.12685e-15)
(1.04478 -3.11022e-07 -2.81774e-15)
(1.04478 1.84178e-07 -2.50816e-15)
(1.04478 6.80022e-07 -2.04104e-15)
(1.04478 1.18906e-06 -7.53651e-16)
(1.04478 1.72416e-06 3.70868e-16)
(1.04478 2.29889e-06 -2.63993e-16)
(1.04478 2.9279e-06 -1.06057e-15)
(1.04478 3.62761e-06 -1.92109e-15)
(1.04478 4.41611e-06 -1.28566e-15)
(1.04478 5.31469e-06 -3.33441e-15)
(1.04477 6.34716e-06 -3.48552e-15)
(1.04477 7.54289e-06 -2.27731e-15)
(1.04477 8.93344e-06 -4.86608e-15)
(1.04476 1.05625e-05 -5.45065e-15)
(1.04476 1.24703e-05 -3.2185e-15)
(1.04475 1.4729e-05 -2.69224e-15)
(1.04475 1.738e-05 -2.3243e-15)
(1.04474 2.05613e-05 1.8618e-15)
(1.04473 2.4274e-05 1.77277e-15)
(1.04472 2.88324e-05 3.73027e-15)
(1.04471 3.40442e-05 1.27932e-15)
(1.04469 4.07201e-05 1.90676e-16)
(1.04467 4.79967e-05 8.82358e-16)
(1.04466 5.80425e-05 1.4573e-15)
(1.04462 6.80639e-05 -3.95909e-16)
(1.0446 8.35757e-05 2.42162e-15)
(1.04455 9.72649e-05 4.66292e-15)
(1.04454 0.000121206 5.77543e-15)
(1.04442 0.000141106 4.84695e-15)
(1.04448 0.000174713 4.44164e-15)
(1.04419 0.000212366 3.35534e-15)
(1.04448 0.000241033 4.39566e-15)
(1.04371 0.000346397 5.82247e-15)
(1.04467 0.00028675 8.09162e-15)
(1.044 -0.000370633 -9.31273e-15)
(1.04412 -0.000320331 -1.90125e-15)
(1.04421 -0.000276376 -4.54393e-15)
(1.0443 -0.000238081 6.38449e-17)
(1.04437 -0.000204807 -5.9727e-15)
(1.04443 -0.000175963 8.18298e-16)
(1.04448 -0.000151012 -6.6713e-16)
(1.04453 -0.000129469 6.82531e-16)
(1.04457 -0.000110899 1.06117e-15)
(1.04457 -0.000110899 1.06117e-15)
)
;
    }
    procBoundary7to6
    {
        type            processor;
        value           nonuniform List<vector> 4((1.04394 -0.000491176 5.68562e-15) (1.04402 -0.000547265 9.79814e-16) (1.0441 -0.000595173 6.99427e-15) (1.0442 -0.000633838 1.72179e-15));
    }
    procBoundary7to8
    {
        type            processor;
        value           nonuniform List<vector> 5((1.04272 0.000562132 2.8007e-14) (1.04287 0.000340165 2.52543e-15) (1.04324 -4.33151e-05 -7.41296e-16) (1.04401 -0.000507249 1.11412e-15) (1.04523 -0.000946193 9.9338e-16));
    }
    procBoundary7to12
    {
        type            processor;
        value           uniform (1.0443 -0.000662257 4.14263e-15);
    }
    procBoundary7to13
    {
        type            processor;
        value           nonuniform List<vector> 
68
(
(1.04477 -3.2415e-05 2.81074e-15)
(1.04477 -2.75167e-05 -3.36696e-15)
(1.04478 -2.33313e-05 3.13892e-15)
(1.04478 -1.97515e-05 -2.77609e-15)
(1.04478 -1.66854e-05 2.81985e-15)
(1.04478 -1.4054e-05 -2.88775e-15)
(1.04478 -1.17897e-05 3.77395e-15)
(1.04479 -9.83397e-06 -2.87359e-15)
(1.04479 -8.13667e-06 2.89149e-15)
(1.04479 -6.65409e-06 -3.23893e-15)
(1.04479 -5.34822e-06 2.69283e-15)
(1.04479 -4.18563e-06 -1.19232e-15)
(1.04479 -3.13662e-06 1.33854e-15)
(1.04479 -2.17467e-06 -8.43057e-16)
(1.04479 -1.27551e-06 1.01156e-16)
(1.04479 -4.1657e-07 2.31176e-16)
(1.04479 4.23514e-07 -9.08883e-16)
(1.04479 1.26544e-06 -9.84871e-17)
(1.04479 2.1298e-06 -6.34291e-16)
(1.04479 3.03773e-06 3.47648e-16)
(1.04479 4.01168e-06 -4.39611e-16)
(1.04479 5.07528e-06 -4.63025e-17)
(1.04479 6.25453e-06 -1.55615e-16)
(1.04479 7.57806e-06 8.28766e-16)
(1.04478 9.07904e-06 1.0905e-15)
(1.04478 1.07932e-05 1.09971e-15)
(1.04478 1.27661e-05 -1.10851e-16)
(1.04478 1.5042e-05 5.51569e-16)
(1.04478 1.76904e-05 8.76431e-16)
(1.04478 2.07567e-05 5.42364e-16)
(1.04477 2.43691e-05 1.0271e-15)
(1.04477 2.85269e-05 5.64798e-16)
(1.04477 3.35433e-05 1.64606e-15)
(1.04476 3.91521e-05 3.37989e-16)
(1.04476 4.63332e-05 1.47292e-15)
(1.04476 5.36568e-05 7.20778e-16)
(1.04475 6.45946e-05 2.35404e-15)
(1.04475 7.30996e-05 7.46306e-16)
(1.04473 9.18624e-05 2.31384e-15)
(1.04474 9.76048e-05 1.95349e-15)
(1.04469 0.000135994 1.96552e-15)
(1.04475 0.000122917 1.92964e-15)
(1.04462 0.000216464 1.55087e-15)
(1.04482 0.000130217 7.74836e-16)
(1.04444 0.000382806 1.91418e-15)
(1.04503 6.09682e-05 -3.85403e-16)
(1.04401 0.000753953 3.36567e-16)
(1.04559 -0.000230608 5.3696e-16)
(1.04304 0.00157679 8.11807e-16)
(1.04446 -0.000581579 -3.08868e-15)
(1.04452 -0.000497342 -2.68617e-15)
(1.04456 -0.000424974 -5.03028e-16)
(1.0446 -0.0003629 -1.95231e-15)
(1.04463 -0.000309724 -6.28977e-16)
(1.04465 -0.000264217 -2.33046e-15)
(1.04468 -0.000225308 -8.0221e-16)
(1.04469 -0.000192064 -2.60413e-15)
(1.04471 -0.000163676 -7.54403e-16)
(1.04472 -0.000139447 -1.76024e-15)
(1.04473 -0.000118777 -4.93641e-16)
(1.04474 -0.000101146 -1.24389e-15)
(1.04475 -8.61132e-05 5.55409e-16)
(1.04476 -7.32964e-05 -2.28205e-16)
(1.04476 -6.23702e-05 6.25889e-18)
(1.04477 -5.30557e-05 -8.36904e-16)
(1.04477 -4.51146e-05 -4.95228e-16)
(1.04477 -3.2415e-05 2.81074e-15)
(1.04477 -3.83431e-05 -1.32069e-15)
)
;
    }
}


// ************************************************************************* //
