0.255495 	0.438912 	1.36526e-18 	0.545998
0.259111 	0.445124 	1.22223e-18 	0.544996
0.261839 	0.44981 	1.72137e-18 	0.543816
0.266406 	0.457656 	1.84328e-18 	0.542837
0.269567 	0.463086 	2.37683e-18 	0.541816
0.272295 	0.467771 	2.91919e-18 	0.540914
0.277295 	0.476361 	3.69672e-18 	0.540101
0.280022 	0.481047 	4.51934e-18 	0.539326
0.282772 	0.485771 	4.1901e-18 	0.538939
0.28775 	0.494322 	3.59892e-18 	0.53846
0.290478 	0.499008 	3.84708e-18 	0.537796
