0.176854 	0.475337 	1.91679e-18 	4.0206
0.179078 	0.481315 	1.68473e-18 	4.01996
0.180379 	0.484814 	1.73212e-18 	4.01451
0.182061 	0.489332 	1.66141e-18 	4.01357
0.184664 	0.49633 	1.5512e-18 	4.01304
