0.115145 	0.49633 	-1.9292e-18 	0.628674 	-0.0156426 	-5.622e-16
