/*--------------------------------*- C++ -*----------------------------------*\
  =========                 |
  \\      /  F ield         | OpenFOAM: The Open Source CFD Toolbox
   \\    /   O peration     | Website:  https://openfoam.org
    \\  /    A nd           | Version:  7
     \\/     M anipulation  |
\*---------------------------------------------------------------------------*/
FoamFile
{
    version     2.0;
    format      ascii;
    class       surfaceScalarField;
    location    "70.999922";
    object      phi;
}
// * * * * * * * * * * * * * * * * * * * * * * * * * * * * * * * * * * * * * //

dimensions      [0 3 -1 0 0 0 0];

internalField   nonuniform List<scalar> 
11438
(
0.000100885
-0.00102889
0.000178214
-0.000983079
0.000236689
-0.000892923
0.000267272
-0.000758949
-0.000581485
-0.00104518
2.44609e-05
-0.0010618
2.54063e-05
-0.001078
2.55831e-05
-0.00109357
2.55131e-05
-0.00110839
2.5302e-05
-0.00112242
2.49834e-05
-0.00113565
2.45658e-05
-0.00114806
2.40374e-05
-0.00115967
2.33736e-05
-0.00117048
2.2541e-05
-0.00118048
2.15089e-05
-0.00118969
2.02404e-05
-0.00119809
1.8695e-05
-0.00120567
1.68309e-05
-0.00121241
1.46062e-05
-0.0012183
1.19785e-05
-0.00122331
8.90091e-06
-0.00122742
5.33901e-06
-0.00123054
1.22268e-06
-0.00123273
-3.26866e-06
-0.00123396
-8.20152e-06
-0.00123421
-1.36761e-05
-0.0012334
-1.96819e-05
-0.00123149
-2.61974e-05
-0.00122842
-3.31834e-05
-0.00122414
-4.05798e-05
-0.00121855
-4.83028e-05
-0.0012116
-5.62419e-05
-0.00120318
-6.4259e-05
-0.0011932
-7.21865e-05
-0.00118155
-7.98248e-05
-0.00116813
-8.69396e-05
-0.00115279
-9.32703e-05
-0.0011354
-9.85345e-05
-0.00111582
-0.000102436
-0.0010939
-0.000104645
-0.00106946
-0.000104846
-0.00104236
-0.000102739
-0.0010124
-9.80244e-05
-0.000979408
-9.04861e-05
-0.00094318
-7.99411e-05
-0.000903584
-6.63735e-05
-0.00086043
-4.9786e-05
-0.000813579
-3.04095e-05
-0.00076279
-8.68681e-06
-0.00070807
1.51686e-05
-0.000649245
4.01107e-05
-0.000586138
6.51867e-05
-0.000518869
8.96279e-05
-0.000447346
0.000111879
-0.000183402
-0.000371569
0.000130642
-0.000206419
-0.000291582
0.000144506
-0.000224494
-0.000207482
0.000152228
-0.000236328
-0.000119396
0.000152422
-0.000240508
-2.74887e-05
0.000144212
-0.000236119
6.79866e-05
0.000126713
-0.000222188
0.000166839
9.97105e-05
-0.000198562
0.000268592
6.34788e-05
-0.000165233
0.000373015
1.86202e-05
-0.000123043
0.00047955
-3.37966e-05
-7.27386e-05
0.00058785
-9.13575e-05
-1.69425e-05
0.000697299
-0.000152719
4.32708e-05
0.000807823
-0.000214127
0.000103603
0.000918222
-0.000272563
0.000162163
0.00102982
-0.000327453
0.000215852
0.0011395
-0.000365578
0.000255898
0.00125254
-0.000406897
0.000293855
0.00136088
-0.000396892
0.000288557
0.00147751
-0.000427055
0.00031042
-0.000317632
0.000204233
-0.000998595
3.99765e-05
-0.00101455
4.1359e-05
-0.00103015
4.11816e-05
-0.00104516
4.05264e-05
-0.00105947
3.96147e-05
-0.00107303
3.85379e-05
-0.0010858
3.73402e-05
-0.00109779
3.60254e-05
-0.00110899
3.45756e-05
-0.00111941
3.29612e-05
-0.00112905
3.11476e-05
-0.0011379
2.90949e-05
-0.00114597
2.67588e-05
-0.00115323
2.40929e-05
-0.00115967
2.10496e-05
-0.00116528
1.75813e-05
-0.00117002
1.36413e-05
-0.00117387
9.18814e-06
-0.00117681
4.16549e-06
-0.00117868
-1.39806e-06
-0.00117968
-7.2021e-06
-0.0011797
-1.36502e-05
-0.0011787
-2.06886e-05
-0.0011766
-2.8291e-05
-0.00117337
-3.64213e-05
-0.00116892
-4.50253e-05
-0.0011632
-5.40264e-05
-0.00115612
-6.33221e-05
-0.00114759
-7.27825e-05
-0.00113753
-8.22485e-05
-0.00112583
-9.15297e-05
-0.00111236
-0.000100403
-0.00109702
-0.000108619
-0.00107965
-0.000115903
-0.00106012
-0.000121966
-0.00103827
-0.000126494
-0.00101393
-0.00012918
-0.000986947
-0.000129726
-0.00095712
-0.000127852
-0.000924267
-0.000123339
-0.000888187
-0.000116021
-0.0008487
-0.000105861
-0.000805609
-9.28767e-05
-0.000758744
-7.72752e-05
-0.000708016
-5.94148e-05
-0.000653087
-3.97603e-05
-0.000593876
-1.90998e-05
-0.000530173
1.48353e-06
-0.000462197
2.16517e-05
-0.000389705
3.93874e-05
-0.000312704
5.36407e-05
-0.000231238
6.3041e-05
-0.000145416
6.64057e-05
-5.53825e-05
6.23893e-05
3.86231e-05
5.0206e-05
0.00013627
2.90662e-05
0.000237374
-1.39421e-06
0.000341252
-4.0399e-05
0.000447524
-8.76512e-05
0.000555673
-0.000141946
0.000665155
-0.00020084
0.000775173
-0.000262737
0.000885633
-0.000324587
0.000995162
-0.000382091
0.00110512
-0.000437411
0.00121234
-0.000472796
0.00132203
-0.000516589
0.00142665
-0.000501511
0.00153851
-0.00053892
-0.000427525
-0.00090705
5.41037e-05
-0.000921754
5.60632e-05
-0.000936212
5.56392e-05
-0.000950194
5.45082e-05
-0.000963555
5.29759e-05
-0.000976216
5.11992e-05
-0.000988144
4.92682e-05
-0.000999326
4.7207e-05
-0.00100976
4.50064e-05
-0.00101944
4.26402e-05
-0.00102836
4.00727e-05
-0.00103653
3.72612e-05
-0.00104393
3.41579e-05
-0.00105054
3.07115e-05
-0.00105636
2.68694e-05
-0.00106136
2.25788e-05
-0.00106551
1.77897e-05
-0.00106878
1.24573e-05
-0.00107115
6.53706e-06
-0.00107243
-1.23044e-07
-0.00107288
-6.7513e-06
-0.00107235
-1.41759e-05
-0.0010708
-2.22412e-05
-0.00106817
-3.09238e-05
-0.0010644
-4.01918e-05
-0.00105942
-4.99965e-05
-0.00105318
-6.02677e-05
-0.00104559
-7.09107e-05
-0.00103657
-8.18036e-05
-0.00102603
-9.27957e-05
-0.00101385
-0.000103705
-0.000999932
-0.000114321
-0.00098415
-0.000124401
-0.000966371
-0.000133682
-0.000946453
-0.000141884
-0.000924242
-0.000148705
-0.000899573
-0.000153849
-0.000872274
-0.000157026
-0.000842157
-0.000157969
-0.000809031
-0.000156465
-0.000772692
-0.000152359
-0.000732946
-0.000145607
-0.000689583
-0.00013624
-0.000642416
-0.000124443
-0.000591247
-0.000110583
-0.000535881
-9.51265e-05
-0.000476169
-7.88118e-05
-0.000412103
-6.25826e-05
-0.000343263
-4.71884e-05
-0.000269802
-3.40732e-05
-0.000191674
-2.44875e-05
-0.000108922
-1.97114e-05
-2.16247e-05
-2.08914e-05
6.98905e-05
-2.91259e-05
0.00016547
-4.53731e-05
0.000264748
-7.0212e-05
0.000367205
-0.000103851
0.000472519
-0.000145713
0.000579956
-0.000195088
0.000688823
-0.000250813
0.000798581
-0.000310597
0.000908235
-0.00037239
0.00101772
-0.000434069
0.00112544
-0.000489818
0.00123287
-0.000544834
0.00133675
-0.000576681
0.00144219
-0.000622028
0.00154236
-0.000601683
0.00164833
-0.000644886
-0.000532971
-0.000771268
6.64227e-05
-0.000784231
6.90267e-05
-0.00079706
6.8468e-05
-0.000809571
6.70193e-05
-0.000821583
6.4988e-05
-0.000832988
6.26035e-05
-0.000843733
6.00132e-05
-0.000853793
5.72668e-05
-0.000863153
5.43668e-05
-0.000871805
5.12925e-05
-0.000879742
4.8009e-05
-0.000886953
4.44722e-05
-0.000893426
4.06313e-05
-0.000899145
3.6431e-05
-0.000904089
3.18131e-05
-0.00090823
2.67194e-05
-0.000911534
2.10938e-05
-0.000913962
1.48854e-05
-0.000915472
8.04741e-06
-0.000915996
4.00156e-07
-0.000915609
-7.13817e-06
-0.000914266
-1.55184e-05
-0.000911901
-2.4607e-05
-0.000908455
-3.43689e-05
-0.000903873
-4.4774e-05
-0.000898091
-5.57787e-05
-0.000891039
-6.73194e-05
-0.000882642
-7.93081e-05
-0.000872815
-9.16304e-05
-0.000861467
-0.000104144
-0.000848497
-0.000116675
-0.000833796
-0.000129022
-0.000817242
-0.000140955
-0.000798707
-0.000152217
-0.000778053
-0.000162538
-0.000755129
-0.000171629
-0.000729773
-0.000179205
-0.000701814
-0.000184985
-0.000671067
-0.000188716
-0.000637339
-0.000190192
-0.000600427
-0.000189272
-0.000560127
-0.000185907
-0.000516223
-0.000180143
-0.000468523
-0.000172143
-0.000416815
-0.000162292
-0.000360887
-0.000151055
-0.000300559
-0.00013914
-0.000235742
-0.000127399
-0.000166231
-0.0001167
-9.1986e-05
-0.000108318
-1.29684e-05
-0.000103505
7.06359e-05
-0.000103316
0.000158815
-0.00010907
0.000251347
-0.000121659
0.000347937
-0.000141963
0.000448157
-0.000170432
0.000551448
-0.000207142
0.000657286
-0.000251552
0.000764984
-0.000302786
0.000873679
-0.000359508
0.000982808
-0.000419727
0.0010912
-0.000480778
0.00119884
-0.000541715
0.00130394
-0.000594913
0.00140806
-0.000648958
0.00150792
-0.000676537
0.00160841
-0.000722523
0.00170362
-0.000696892
0.0018029
-0.000744163
-0.000633205
-0.000591977
7.69153e-05
-0.000602809
7.98582e-05
-0.000613617
7.92759e-05
-0.000624305
7.77079e-05
-0.000634657
7.53398e-05
-0.000644535
7.24808e-05
-0.00065386
6.93385e-05
-0.000662587
6.59935e-05
-0.000670685
6.24652e-05
-0.000678134
5.87414e-05
-0.000684916
5.47907e-05
-0.000691013
5.057e-05
-0.000696409
4.60271e-05
-0.000701082
4.11035e-05
-0.000705005
3.57362e-05
-0.000708146
2.98603e-05
-0.000710465
2.34129e-05
-0.000711917
1.63375e-05
-0.000712464
8.5946e-06
-0.000712003
-6.10048e-08
-0.00071069
-8.45136e-06
-0.000708385
-1.78227e-05
-0.000705052
-2.79406e-05
-0.000700636
-3.87851e-05
-0.000695078
-5.03312e-05
-0.000688316
-6.25406e-05
-0.00068028
-7.53553e-05
-0.000670895
-8.8694e-05
-0.000660076
-0.000102449
-0.000647734
-0.000116485
-0.000633771
-0.000130639
-0.000618079
-0.000144714
-0.000600542
-0.000158492
-0.000581034
-0.000171725
-0.000559421
-0.000184151
-0.000535558
-0.000195491
-0.00050929
-0.000205474
-0.000480447
-0.000213828
-0.000448851
-0.000220312
-0.000414312
-0.000224731
-0.000376631
-0.000226953
-0.000335601
-0.000226937
-0.000291007
-0.000224737
-0.000242655
-0.000220495
-0.000190326
-0.00021462
-0.000133804
-0.000207577
-7.2915e-05
-0.000200029
-7.5208e-06
-0.000192793
6.25445e-05
-0.000186765
0.000137316
-0.00018309
0.000216807
-0.000182995
0.000300954
-0.000187464
0.000389625
-0.000197741
0.000482575
-0.000214608
0.000579474
-0.000238861
0.000679845
-0.000270803
0.000783122
-0.000310419
0.000888637
-0.000357067
0.000995695
-0.000409843
0.00110331
-0.000467123
0.00121093
-0.000527345
0.0013172
-0.000587047
0.00142221
-0.000646732
0.00152396
-0.000696664
0.00162415
-0.000749146
0.00171947
-0.00077185
0.00181454
-0.000817592
0.00190447
-0.000786824
0.00199663
-0.000836326
-0.000727663
-0.000369347
8.58231e-05
-0.000377775
8.82857e-05
-0.000386416
8.79175e-05
-0.000395115
8.64062e-05
-0.000403657
8.38826e-05
-0.0004119
8.07234e-05
-0.000419731
7.71699e-05
-0.000427076
7.33378e-05
-0.000433881
6.92708e-05
-0.000440109
6.49695e-05
-0.000445728
6.04097e-05
-0.00045071
5.55521e-05
-0.000455029
5.0346e-05
-0.000458657
4.47316e-05
-0.000461564
3.86424e-05
-0.00046371
3.20068e-05
-0.000465049
2.4752e-05
-0.00046552
1.68085e-05
-0.000465035
8.10891e-06
-0.000463751
-1.34465e-06
-0.00046144
-1.07619e-05
-0.000458159
-2.11041e-05
-0.000453845
-3.22544e-05
-0.000448442
-4.41883e-05
-0.00044189
-5.68834e-05
-0.000434124
-7.03062e-05
-0.000425075
-8.44042e-05
-0.000414667
-9.91019e-05
-0.000402818
-0.000114298
-0.00038944
-0.000129864
-0.000374434
-0.000145644
-0.000357698
-0.000161451
-0.000339118
-0.000177072
-0.000318574
-0.00019227
-0.000295933
-0.000206792
-0.000271059
-0.000220365
-0.000243806
-0.000232727
-0.000214012
-0.000243622
-0.000181505
-0.000252819
-0.000146103
-0.000260132
-0.000107616
-0.00026544
-6.58473e-05
-0.000268705
-2.06049e-05
-0.00026998
2.8422e-05
-0.000269522
8.13776e-05
-0.000267575
0.000138414
-0.000264613
0.000199722
-0.000261337
0.000265461
-0.000258533
0.00033578
-0.000257084
0.000410737
-0.000258047
0.000490324
-0.000262582
0.000574477
-0.000271616
0.000663033
-0.000286297
0.000755725
-0.0003073
0.000852192
-0.000335329
0.00095191
-0.000370521
0.0010543
-0.000412809
0.0011586
-0.000461366
0.00126412
-0.00051536
0.00136975
-0.00057276
0.001475
-0.000632593
0.00157835
-0.000690399
0.00168002
-0.000748401
0.00177782
-0.000794467
0.00187356
-0.000844883
0.00196398
-0.000862271
0.00205333
-0.000906941
0.00213785
-0.000871345
0.00222281
-0.000921281
-0.000816
-0.000100844
8.98545e-05
-0.000107974
9.54158e-05
-0.000115015
9.49578e-05
-0.000121895
9.32865e-05
-0.000128787
9.07753e-05
-0.000135574
8.75097e-05
-0.000142099
8.36947e-05
-0.000148256
7.94951e-05
-0.000153971
7.49863e-05
-0.000159186
7.0184e-05
-0.000163851
6.50743e-05
-0.000167924
5.96253e-05
-0.000171369
5.3791e-05
-0.000174151
4.75135e-05
-0.000176233
4.07248e-05
-0.000177574
3.33481e-05
-0.000178122
2.52994e-05
-0.000177805
1.64916e-05
-0.000176526
6.82984e-06
-0.000174446
-3.42402e-06
-0.000171356
-1.38522e-05
-0.000167264
-2.51966e-05
-0.000162123
-3.73954e-05
-0.000155879
-5.04322e-05
-0.000148473
-6.42893e-05
-0.00013984
-7.89386e-05
-0.000129911
-9.43334e-05
-0.00011861
-0.000110403
-0.000105855
-0.000127053
-9.156e-05
-0.000144159
-7.56305e-05
-0.000161573
-5.79655e-05
-0.000179116
-3.8456e-05
-0.000196581
-1.69846e-05
-0.000213741
6.56496e-06
-0.000230341
3.23366e-05
-0.000246136
6.04775e-05
-0.000260868
9.11348e-05
-0.00027428
0.00012447
-0.000286155
0.000160656
-0.000296318
0.000199873
-0.000304657
0.00024231
-0.000311142
0.000288167
-0.000315837
0.000337624
-0.000318978
0.000390885
-0.000320836
0.000448152
-0.00032188
0.000509592
-0.000322777
0.000575347
-0.000324288
0.000645546
-0.000327283
0.000720236
-0.000332737
0.000799402
-0.000341748
0.000882963
-0.000355178
0.000970741
-0.000374075
0.00106244
-0.000399
0.00115768
-0.000430573
0.00125591
-0.000468745
0.00135653
-0.000513431
0.00145871
-0.000563548
0.00156179
-0.000618438
0.00166458
-0.000675546
0.00176663
-0.000734647
0.00186633
-0.000790093
0.00196399
-0.000846062
0.00205733
-0.000887813
0.0021482
-0.000935749
0.00223351
-0.000947583
0.002317
-0.000990428
0.00239611
-0.000950462
0.00247405
-0.000999217
-0.00089809
0.000215231
9.46122e-05
0.000208675
0.000101971
0.000202491
0.000101142
0.000196598
9.91796e-05
0.00019066
9.67139e-05
0.000184709
9.34599e-05
0.000178908
8.94959e-05
0.000173381
8.50221e-05
0.000168219
8.01483e-05
0.000163498
7.49049e-05
0.000159284
6.92886e-05
0.000155632
6.32776e-05
0.000152589
5.6834e-05
0.000150198
4.99045e-05
0.0001485
4.24228e-05
0.000147538
3.43094e-05
0.000147367
2.54704e-05
0.000148062
1.5797e-05
0.00014974
5.15163e-06
0.000152228
-5.91198e-06
0.000155745
-1.73688e-05
0.000160292
-2.97438e-05
0.000165913
-4.30162e-05
0.00017266
-5.7179e-05
0.000180591
-7.22204e-05
0.000189771
-8.81186e-05
0.00020027
-0.000104833
0.000212165
-0.000122298
0.000225535
-0.000140423
0.000240467
-0.000159091
0.000257052
-0.000178158
0.000275388
-0.000197452
0.000295579
-0.000216772
0.000317735
-0.000235897
0.000341975
-0.000254581
0.000368423
-0.000272584
0.000397207
-0.000289652
0.000428472
-0.000305544
0.000462368
-0.000320051
0.000499055
-0.000333005
0.000538703
-0.000344305
0.000581487
-0.000353926
0.000627594
-0.000361944
0.000677193
-0.000368577
0.000730477
-0.00037412
0.000787628
-0.000379031
0.000848803
-0.000383952
0.000914129
-0.000389614
0.000983714
-0.000396867
0.00105759
-0.000406615
0.00113574
-0.000419895
0.00121805
-0.000437489
0.00130433
-0.000460359
0.00139427
-0.000488938
0.00148748
-0.000523777
0.00158335
-0.000564617
0.00168132
-0.000611403
0.0017805
-0.000662725
0.00188026
-0.000718204
0.00197936
-0.000774643
0.00207744
-0.000832722
0.00217279
-0.000885446
0.00226584
-0.000939114
0.0023543
-0.000976272
0.00243996
-0.00102141
0.00252004
-0.00102767
0.00259765
-0.00106803
0.00267146
-0.00102427
0.00274276
-0.00107052
-0.000973999
0.000584908
0.000576871
0.000110008
0.000569711
0.000108302
0.000563146
0.000105744
0.000556713
0.000103147
0.000550336
9.98369e-05
0.00054412
9.57121e-05
0.000538171
9.09708e-05
0.000532577
8.57424e-05
0.000527417
8.00645e-05
0.000522766
7.394e-05
0.000518687
6.73566e-05
0.000515236
6.02852e-05
0.000512461
5.26793e-05
0.000510407
4.44768e-05
0.000509117
3.55991e-05
0.000508641
2.5946e-05
0.00050905
1.53885e-05
0.000510485
3.71665e-06
0.00051279
-8.21745e-06
0.000516167
-2.07453e-05
0.000520622
-3.41991e-05
0.000526198
-4.85916e-05
0.000532943
-6.39246e-05
0.000540914
-8.01911e-05
0.000550172
-9.73768e-05
0.000560787
-0.000115448
0.000572831
-0.000134342
0.000586382
-0.000153974
0.000601522
-0.000174231
0.000618337
-0.000194974
0.00063692
-0.000216035
0.000657368
-0.00023722
0.000679785
-0.000258313
0.000704281
-0.000279078
0.000730971
-0.000299274
0.000759978
-0.000318658
0.000791431
-0.000336998
0.000825472
-0.000354091
0.000862245
-0.000369778
0.000901904
-0.000383965
0.00094461
-0.000396632
0.000990531
-0.000407865
0.00103982
-0.000417871
0.00109266
-0.000426959
0.00114921
-0.000435577
0.0012096
-0.000444344
0.00127395
-0.00045396
0.00134233
-0.000465254
0.00141478
-0.00047906
0.00149124
-0.000496358
0.00157159
-0.000517842
0.00165564
-0.000544401
0.00174302
-0.000576322
0.00183336
-0.000614118
0.00192603
-0.000657288
0.00202049
-0.000705862
0.00211581
-0.00075804
0.00221142
-0.000813819
0.00230604
-0.000869264
0.00239941
-0.000926088
0.0024898
-0.000975835
0.0025777
-0.00102702
0.00266091
-0.00105948
0.00274109
-0.00110159
0.00281589
-0.00110246
0.00288769
-0.00113983
0.00295636
-0.00109294
0.00302153
-0.00113569
-0.00104396
0.00100144
0.000122205
0.000990637
0.000119102
0.000980978
0.000115403
0.000971885
0.00011224
0.000963129
0.000108593
0.00095473
0.000104111
0.000946745
9.89563e-05
0.000939227
9.32599e-05
0.00093224
8.70516e-05
0.000925849
8.03311e-05
0.000920116
7.30901e-05
0.000915095
6.5306e-05
0.000910835
5.69386e-05
0.000907381
4.79309e-05
0.000904773
3.8208e-05
0.000903049
2.76694e-05
0.000902265
1.61723e-05
0.000902542
3.43987e-06
0.000903852
-9.52753e-06
0.000906293
-2.3186e-05
0.000909892
-3.77979e-05
0.000914685
-5.3385e-05
0.000920718
-6.99572e-05
0.000928039
-8.75125e-05
0.000936707
-0.000106045
0.000946788
-0.000125528
0.000958351
-0.000145905
0.000971468
-0.000167091
0.000986215
-0.000188979
0.00100267
-0.000211433
0.00102093
-0.000234291
0.00104107
-0.000257362
0.0010632
-0.000280436
0.0010874
-0.000303282
0.00111379
-0.000325665
0.00114248
-0.000347346
0.00117358
-0.000368102
0.00120723
-0.000387736
0.00124354
-0.000406095
0.00128267
-0.000423091
0.00132475
-0.000438711
0.00136993
-0.000453044
0.00141835
-0.000466293
0.00147017
-0.000478775
0.00152552
-0.000490924
0.00158452
-0.000503343
0.00164725
-0.000516696
0.00171379
-0.000531791
0.00178412
-0.000549391
0.00185819
-0.000570428
0.00193585
-0.000595499
0.00201688
-0.000625434
0.00210092
-0.000660363
0.00218759
-0.000700785
0.00227624
-0.000745939
0.00236636
-0.000795987
0.00245701
-0.00084869
0.0025477
-0.000904506
0.00263713
-0.000958695
0.00272513
-0.00101408
0.00281001
-0.00106072
0.00289231
-0.00110931
0.00296998
-0.00113715
0.00304449
-0.0011761
0.003114
-0.00117198
0.00318014
-0.00120597
0.00324387
-0.00115667
0.00330348
-0.0011953
-0.00110835
0.00148532
0.000141379
0.00146792
0.000136496
0.00145225
0.000131071
0.00143774
0.000126751
0.00142406
0.000122273
0.00141114
0.000117033
0.00139896
0.000111135
0.00138753
0.000104694
0.00137686
9.77169e-05
0.00136701
9.01883e-05
0.001358
8.20957e-05
0.00134989
7.34178e-05
0.00134271
6.41171e-05
0.0013365
5.41409e-05
0.00133129
4.3419e-05
0.0013271
3.18553e-05
0.00132397
1.93028e-05
0.00132194
5.46832e-06
0.00132123
-8.81512e-06
0.00132174
-2.36938e-05
0.00132353
-3.95866e-05
0.00132663
-5.64836e-05
0.00133107
-7.44019e-05
0.0013369
-9.33441e-05
0.00134417
-0.000113314
0.00135294
-0.000134295
0.00136327
-0.000156233
0.00137522
-0.000179044
0.00138887
-0.000202625
0.00140428
-0.000226845
0.00142153
-0.000251544
0.0014407
-0.000276535
0.00146188
-0.000301614
0.00148515
-0.000326552
0.00151061
-0.00035112
0.00153835
-0.000375085
0.00156847
-0.000398228
0.00160109
-0.000420358
0.00163633
-0.000441328
0.00167429
-0.000461054
0.00171511
-0.000479529
0.00175891
-0.000496845
0.00180582
-0.000513201
0.00185596
-0.000528917
0.00190945
-0.000544414
0.00196638
-0.000560279
0.00202683
-0.000577139
0.00209082
-0.000595782
0.00215833
-0.000616899
0.00222928
-0.000641381
0.0023035
-0.000669719
0.00238077
-0.000702706
0.0024607
-0.000740296
0.00254293
-0.000783012
0.0026268
-0.000829806
0.00271184
-0.000881026
0.0027971
-0.000933956
0.00288218
-0.00098958
0.0029658
-0.00104232
0.00304787
-0.00109615
0.00312681
-0.00113966
0.00320313
-0.00118563
0.00327505
-0.00120908
0.00334378
-0.00124483
0.00340807
-0.00123627
0.00346877
-0.00126666
0.0035278
-0.00121571
0.00358244
-0.00124994
-0.00116762
0.00202707
0.00200012
0.00016344
0.00197544
0.000155754
0.00195257
0.000149623
0.00193118
0.000143666
0.00191111
0.000137097
0.00189229
0.000129959
0.00187465
0.000122336
0.00185816
0.000114202
0.00184283
0.000105516
0.00182867
9.62549e-05
0.0018157
8.63899e-05
0.00180394
7.58821e-05
0.0017934
6.46793e-05
0.0017841
5.27147e-05
0.00177606
3.98987e-05
0.00176926
2.61017e-05
0.00176366
1.10671e-05
0.00175973
-4.88159e-06
0.00175714
-2.11104e-05
0.00175604
-3.84782e-05
0.00175641
-5.68593e-05
0.00175829
-7.62804e-05
0.0017617
-9.67496e-05
0.00176667
-0.000118286
0.00177326
-0.000140886
0.00178152
-0.000164495
0.00179151
-0.000189031
0.00180328
-0.000214394
0.00181689
-0.000240457
0.00183241
-0.000267061
0.0018499
-0.000294024
0.00186942
-0.000321143
0.00189107
-0.000348197
0.00191491
-0.000374957
0.00194102
-0.000401196
0.00196949
-0.000426699
0.00200041
-0.000451282
0.00203389
-0.000474801
0.00207001
-0.000497179
0.00210889
-0.000518409
0.00215064
-0.00053859
0.00219535
-0.000557912
0.00224313
-0.000576701
0.00229408
-0.000595359
0.00234826
-0.000614461
0.00240571
-0.000634596
0.00246646
-0.000656529
0.00253045
-0.000680882
0.00259758
-0.000708511
0.00266765
-0.000739796
0.00274045
-0.000775509
0.00281558
-0.000815421
0.00289267
-0.000860107
0.00297108
-0.000908217
0.00305039
-0.00096033
0.00312967
-0.00101323
0.00320857
-0.00106848
0.0032859
-0.00111966
0.00336162
-0.00117187
0.0034343
-0.00121234
0.00350442
-0.00125575
0.00357051
-0.00127516
0.00363347
-0.00130779
0.00369265
-0.00129545
0.00374821
-0.00132222
0.00380284
-0.00127034
0.0038531
-0.0013002
-0.00122231
0.00257815
0.00254201
0.000191888
0.0025083
0.000183335
0.00247676
0.000175206
0.0024472
0.000166661
0.00241946
0.000157696
0.00239344
0.000148351
0.00236909
0.000138561
0.00234634
0.000128262
0.00232518
0.000117412
0.0023056
0.000105969
0.0022876
9.38888e-05
0.00227116
8.11152e-05
0.00225629
6.75834e-05
0.00224298
5.32116e-05
0.00223118
3.78991e-05
0.00222081
2.14393e-05
0.0022124
3.5228e-06
0.00220562
-1.43238e-05
0.00220049
-3.33501e-05
0.00219709
-5.34612e-05
0.00219542
-7.46037e-05
0.00219545
-9.67872e-05
0.00219723
-0.000120061
0.00220078
-0.000144437
0.00220615
-0.000169864
0.00221337
-0.000196255
0.00222249
-0.000223516
0.00223356
-0.000251521
0.00224661
-0.000280114
0.0022617
-0.000309116
0.00227889
-0.000338326
0.00229821
-0.000367527
0.00231975
-0.000396493
0.00234356
-0.000425002
0.0023697
-0.000452844
0.00239826
-0.000479839
0.0024293
-0.000505847
0.00246292
-0.000530797
0.00249919
-0.000554683
0.00253821
-0.00057761
0.00258006
-0.000599759
0.00262482
-0.000621459
0.00267255
-0.000643093
0.00272332
-0.000665227
0.00277713
-0.000688405
0.00283398
-0.000713378
0.00289379
-0.00074069
0.00295645
-0.000771177
0.00302175
-0.000805098
0.00308947
-0.000843226
0.00315919
-0.00088514
0.00323058
-0.000931495
0.003303
-0.000980636
0.00337606
-0.0010334
0.00344891
-0.00108608
0.00352125
-0.00114081
0.00359198
-0.0011904
0.00366111
-0.00124099
0.00372739
-0.00127863
0.00379124
-0.00131959
0.00385154
-0.00133547
0.00390888
-0.00136513
0.00396318
-0.00134975
0.00401398
-0.00137302
0.00406458
-0.00132094
0.00411106
-0.00134668
-0.00127304
0.0031336
0.000240489
0.00308786
0.000229074
0.00304487
0.000218201
0.00300441
0.000207114
0.00296633
0.000195775
0.00293051
0.00018417
0.00289686
0.000172211
0.00286531
0.000159815
0.0028358
0.000146919
0.00280831
0.000133467
0.00278279
0.000119404
0.00275924
0.000104669
0.00273763
8.91953e-05
0.00271794
7.29021e-05
0.00270013
5.57027e-05
0.00268412
3.74505e-05
0.00266965
1.79893e-05
0.00265812
-2.79138e-06
0.00264806
-2.32852e-05
0.00263998
-4.53833e-05
0.0026339
-6.85243e-05
0.00262976
-9.26525e-05
0.00262757
-0.000117865
0.00262734
-0.000144205
0.00262909
-0.000171618
0.00263285
-0.000200018
0.00263865
-0.00022931
0.0026465
-0.000259373
0.00265644
-0.000290053
0.00266849
-0.00032117
0.00268269
-0.000352529
0.00269908
-0.000383914
0.00271769
-0.000415105
0.00273857
-0.000445883
0.00276177
-0.000476042
0.00278734
-0.000505409
0.00281535
-0.000533848
0.00284584
-0.000561293
0.0028789
-0.000587741
0.00291459
-0.000613297
0.00295297
-0.000638139
0.0029941
-0.000662594
0.00303804
-0.000687027
0.00308481
-0.000711995
0.0031344
-0.000737998
0.00318679
-0.000765771
0.00324188
-0.000795783
0.00329956
-0.000828855
0.00335959
-0.000865125
0.00342175
-0.000905382
0.00348562
-0.000949012
0.00355089
-0.00099677
0.00361696
-0.0010467
0.00368348
-0.00109992
0.00374966
-0.00115226
0.00381524
-0.00120639
0.00387928
-0.00125444
0.00394177
-0.00130348
0.00400173
-0.00133858
0.00405944
-0.0013773
0.00411417
-0.0013902
0.00416619
-0.00141716
0.00421597
-0.00139953
0.00426251
-0.00141956
0.00430952
-0.00136794
0.00435284
-0.00139
-0.00132047
0.00372129
0.00366435
0.00028602
0.00361042
0.000272131
0.00355934
0.000258194
0.00351099
0.000244123
0.00346529
0.000229867
0.00342216
0.00021534
0.00338153
0.000200451
0.00334332
0.000185119
0.00330751
0.000169277
0.00327406
0.00015286
0.00324292
0.000135803
0.00321409
0.000118035
0.00318751
9.94783e-05
0.00316316
8.00511e-05
0.00314097
5.96413e-05
0.00312087
3.80907e-05
0.00310277
1.53111e-05
0.00308775
-8.26543e-06
0.00307453
-3.21697e-05
0.00306354
-5.75274e-05
0.00305472
-8.38337e-05
0.00304805
-0.000111198
0.00304354
-0.000139694
0.00304119
-0.000169266
0.00304099
-0.000199826
0.00304297
-0.000231284
0.00304712
-0.00026352
0.00305344
-0.00029638
0.00306196
-0.000329688
0.00307268
-0.000363249
0.00308562
-0.000396854
0.0031008
-0.000430285
0.00311825
-0.000463328
0.00313799
-0.000495783
0.00316006
-0.000527483
0.00318451
-0.000558296
0.00321138
-0.000588163
0.00324072
-0.00061708
0.00327258
-0.000645159
0.00330701
-0.000672569
0.00334406
-0.000699636
0.00338373
-0.000726706
0.00342606
-0.000754325
0.00347102
-0.000782951
0.00351855
-0.000813308
0.00356855
-0.000845784
0.0036209
-0.000881197
0.00367533
-0.000919563
0.00373165
-0.000961696
0.00378944
-0.0010068
0.00384841
-0.00105574
0.003908
-0.00110629
0.0039679
-0.00115982
0.0040274
-0.00121176
0.00408629
-0.00126528
0.00414378
-0.00131192
0.00419985
-0.00135956
0.00425376
-0.00139249
0.00430569
-0.00142923
0.00435525
-0.00143976
0.00440245
-0.00146435
0.00444819
-0.00144527
0.00449106
-0.00146243
0.00453503
-0.00141192
0.00457585
-0.00143082
-0.00136529
0.00420352
0.0003511
0.00414131
0.000334345
0.00408188
0.000317619
0.00402524
0.000300768
0.00397136
0.000283744
0.00392021
0.000266492
0.00387174
0.000248921
0.00382591
0.000230945
0.0037827
0.000212489
0.00374207
0.000193487
0.00370401
0.000173869
0.00366848
0.000153564
0.00363546
0.000132499
0.00360492
0.000110594
0.00357679
8.7763e-05
0.00355099
6.38935e-05
0.00352743
3.88712e-05
0.00350664
1.25254e-05
0.00348862
-1.41485e-05
0.00347275
-4.16589e-05
0.00345921
-7.02929e-05
0.00344798
-9.99709e-05
0.00343906
-0.000130773
0.00343244
-0.000162642
0.0034281
-0.000195484
0.00342603
-0.000229214
0.00342622
-0.000263712
0.00342866
-0.000298824
0.00343335
-0.000334374
0.00344027
-0.000370174
0.00344944
-0.000406017
0.00346084
-0.00044169
0.0034745
-0.000476987
0.00349043
-0.000511711
0.00350865
-0.000545703
0.00352919
-0.000578836
0.00355208
-0.000611057
0.00357736
-0.000642364
0.00360507
-0.000672871
0.00363525
-0.00070274
0.0036679
-0.000732295
0.00370306
-0.000761859
0.0037407
-0.000791973
0.0037808
-0.000823047
0.00382329
-0.000855798
0.00386805
-0.000890537
0.00391493
-0.000928082
0.0039637
-0.000968331
0.00401414
-0.00101214
0.00406587
-0.00105853
0.00411861
-0.00110849
0.00417185
-0.00115954
0.00422533
-0.00121329
0.00427842
-0.00126485
0.00433095
-0.00131782
0.00438229
-0.00136326
0.0044324
-0.00140967
0.00448078
-0.00144087
0.0045275
-0.00147594
0.0045725
-0.00148477
0.00461552
-0.00150738
0.00465785
-0.00148759
0.00469777
-0.00150235
0.00473935
-0.0014535
0.00477837
-0.00146984
-0.00140825
0.00466983
0.00460384
0.00040034
0.00454021
0.000381241
0.00447908
0.000361906
0.00442048
0.000342338
0.00436445
0.000322522
0.004311
0.000302376
0.00426012
0.000281817
0.00421184
0.000260777
0.00416613
0.000239189
0.00412302
0.000216985
0.00408248
0.000194099
0.00404452
0.000170459
0.00400912
0.000145995
0.00397625
0.00012063
0.00394587
9.42777e-05
0.00391789
6.68483e-05
0.00389213
3.8284e-05
0.00386979
8.19802e-06
0.00384963
-2.14984e-05
0.00383173
-5.23985e-05
0.00381629
-8.45316e-05
0.00380326
-0.00011774
0.00379259
-0.000151971
0.00378425
-0.000187144
0.00377822
-0.000223187
0.00377449
-0.000259979
0.00377303
-0.000297363
0.00377382
-0.000335168
0.00377686
-0.000373207
0.00378212
-0.00041128
0.00378961
-0.000449179
0.00379932
-0.000486703
0.00381128
-0.000523662
0.00382548
-0.000559906
0.00384195
-0.000595311
0.00386073
-0.00062983
0.00388182
-0.000663462
0.00390528
-0.000696322
0.0039311
-0.000728564
0.00395931
-0.000760509
0.00398991
-0.000792456
0.00402288
-0.000824939
0.00405815
-0.000858321
0.00409567
-0.000893314
0.00413528
-0.000930154
0.00417686
-0.000969662
0.00422016
-0.00101163
0.00426497
-0.00105695
0.00431094
-0.0011045
0.00435781
-0.00115536
0.00440514
-0.00120686
0.00445267
-0.00126082
0.0044999
-0.00131209
0.00454668
-0.0013646
0.00459252
-0.0014091
0.00463739
-0.00145454
0.00468098
-0.00148446
0.00472327
-0.00151823
0.00476447
-0.00152597
0.00480413
-0.00154704
0.0048438
-0.00152725
0.00488156
-0.00154012
0.00492148
-0.00149341
0.00495943
-0.00150779
-0.00145011
0.00497058
0.00490804
0.000443779
0.00484737
0.000422579
0.00478868
0.000401025
0.00473208
0.00037913
0.00467762
0.000356828
0.00462538
0.000334057
0.00457541
0.000310755
0.00452773
0.000286863
0.0044824
0.000262318
0.00443944
0.000237058
0.00439888
0.000211021
0.00436073
0.000184145
0.00432499
0.000156364
0.00429166
0.000127616
0.00426068
9.78279e-05
0.00423196
6.7002e-05
0.00420518
3.49768e-05
0.00418302
6.57137e-07
0.0041618
-3.11707e-05
0.00414281
-6.55477e-05
0.0041262
-0.000101129
0.00411195
-0.00013772
0.00410001
-0.000175208
0.00409037
-0.000213539
0.00408298
-0.000252593
0.00407783
-0.000292215
0.0040749
-0.000332237
0.00407417
-0.000372479
0.00407564
-0.000412744
0.00407929
-0.00045283
0.00408513
-0.000492545
0.00409317
-0.000531705
0.00410343
-0.000570165
0.00411593
-0.000607806
0.00413068
-0.000644585
0.00414772
-0.000680499
0.00416706
-0.000715665
0.00418872
-0.000750224
0.00421271
-0.000784494
0.004239
-0.000818746
0.00426757
-0.000853509
0.00429834
-0.000889098
0.00433125
-0.00092622
0.00436614