/*--------------------------------*- C++ -*----------------------------------*\
  =========                 |
  \\      /  F ield         | OpenFOAM: The Open Source CFD Toolbox
   \\    /   O peration     | Website:  https://openfoam.org
    \\  /    A nd           | Version:  7
     \\/     M anipulation  |
\*---------------------------------------------------------------------------*/
FoamFile
{
    version     2.0;
    format      ascii;
    class       surfaceScalarField;
    location    "9.8";
    object      phi;
}
// * * * * * * * * * * * * * * * * * * * * * * * * * * * * * * * * * * * * * //

dimensions      [0 3 -1 0 0 0 0];

internalField   nonuniform List<scalar> 
612
(
0.000212327
-6.91264e-07
0.000212509
-6.81645e-07
0.000212688
-6.7225e-07
0.000212865
-6.63088e-07
0.000213039
-6.54168e-07
0.000213211
-6.45503e-07
0.00021338
-6.37109e-07
0.000213548
-6.29006e-07
0.000213713
-6.21216e-07
0.000213876
-6.13766e-07
0.000214038
-6.06689e-07
0.000214198
-6.00024e-07
0.000214355
-5.93819e-07
0.000214512
-5.88128e-07
0.000214667
-5.83018e-07
0.000214821
-5.78565e-07
0.000214974
-5.74863e-07
0.000215126
-5.72019e-07
0.000215278
-5.70164e-07
0.00021543
-5.69448e-07
0.000215581
-5.70051e-07
0.000215734
-5.72185e-07
0.000215888
-5.76098e-07
0.000216043
-5.82084e-07
0.000216201
-5.9049e-07
0.000216362
-6.01722e-07
0.000216527
-6.16261e-07
0.000216697
-6.3467e-07
0.000216874
-6.57613e-07
0.000217058
-6.85868e-07
0.000217253
-7.20353e-07
0.000217459
-7.62143e-07
0.000217679
-8.12498e-07
0.000217915
-8.72896e-07
0.000218173
-9.4507e-07
0.000218454
-1.03104e-06
0.000218763
-1.13318e-06
0.000219107
-1.25423e-06
0.00021949
-1.39741e-06
0.000219921
-1.56645e-06
0.000220408
-1.76564e-06
0.000220961
-1.99997e-06
0.000221592
-2.27516e-06
0.000222314
-2.59774e-06
0.000223144
-2.97515e-06
0.000224099
-3.41577e-06
0.000225201
-3.92896e-06
0.000226475
-4.52509e-06
0.000227949
-5.21539e-06
0.000229656
-6.01185e-06
0.000231633
-6.92686e-06
0.000233921
-7.97273e-06
0.000236566
-9.16089e-06
0.000239619
-1.05008e-05
0.000243136
-1.19984e-05
0.000247172
-1.3654e-05
0.000251784
-1.54597e-05
0.000257027
-1.73966e-05
0.000262945
-1.94297e-05
0.00026957
-2.15084e-05
0.000276906
-2.35543e-05
0.00028493
-2.54786e-05
0.000293567
-2.71511e-05
0.000302701
-2.84556e-05
0.000312151
-2.92444e-05
-2.94059e-05
0.000321687
0.000247484
-8.80981e-07
0.000247671
-8.68629e-07
0.000247855
-8.5657e-07
0.000248037
-8.44814e-07
0.000248216
-8.33374e-07
0.000248393
-8.22268e-07
0.000248568
-8.11514e-07
0.00024874
-8.01138e-07
0.00024891
-7.91169e-07
0.000249078
-7.81643e-07
0.000249243
-7.72601e-07
0.000249408
-7.64095e-07
0.00024957
-7.56185e-07
0.000249731
-7.48942e-07
0.00024989
-7.42452e-07
0.000250048
-7.36816e-07
0.000250206
-7.32153e-07
0.000250362
-7.28605e-07
0.000250518
-7.26337e-07
0.000250675
-7.25548e-07
0.000250831
-7.26469e-07
0.000250988
-7.29376e-07
0.000251147
-7.34591e-07
0.000251307
-7.42495e-07
0.00025147
-7.53539e-07
0.000251637
-7.68251e-07
0.000251808
-7.87253e-07
0.000251984
-8.1128e-07
0.000252168
-8.41193e-07
0.00025236
-8.78007e-07
0.000252563
-9.22915e-07
0.000252778
-9.77315e-07
0.000253008
-1.04285e-06
0.000253257
-1.12146e-06
0.000253527
-1.21539e-06
0.000253823
-1.3273e-06
0.00025415
-1.46028e-06
0.000254514
-1.61795e-06
0.000254921
-1.80452e-06
0.00025538
-2.02492e-06
0.000255899
-2.28484e-06
0.00025649
-2.59088e-06
0.000257165
-2.95067e-06
0.00025794
-3.37298e-06
0.000258833
-3.86781e-06
0.000259864
-4.44657e-06
0.000261057
-5.12211e-06
0.000262441
-5.90878e-06
0.000264048
-6.8224e-06
0.000265916
-7.88016e-06
0.000268089
-9.10025e-06
0.000270618
-1.05014e-05
0.000273559
-1.21018e-05
0.000276976
-1.3918e-05
0.00028094
-1.59627e-05
0.000285529
-1.82422e-05
0.000290821
-2.0752e-05
0.000296898
-2.34736e-05
0.000303833
-2.63651e-05
0.000311688
-2.93634e-05
0.000320492
-3.23576e-05
0.000330242
-3.52292e-05
0.000340855
-3.77642e-05
0.000352208
-3.98083e-05
0.000364043
-4.10794e-05
-4.14109e-05
0.000376048
0.000280682
-1.06482e-06
0.000280863
-1.04978e-06
0.000281042
-1.03509e-06
0.000281218
-1.02079e-06
0.000281391
-1.00687e-06
0.000281562
-9.93368e-07
0.000281731
-9.80302e-07
0.000281898
-9.67703e-07
0.000282062
-9.55607e-07
0.000282225
-9.44057e-07
0.000282385
-9.33106e-07
0.000282544
-9.22816e-07
0.000282701
-9.13262e-07
0.000282856
-9.04531e-07
0.000283011
-8.96729e-07
0.000283164
-8.8998e-07
0.000283316
-8.84431e-07
0.000283468
-8.80256e-07
0.000283619
-8.77662e-07
0.000283771
-8.76891e-07
0.000283922
-8.7823e-07
0.000284075
-8.82019e-07
0.000284229
-8.88655e-07
0.000284385
-8.98611e-07
0.000284544
-9.1244e-07
0.000284707
-9.30797e-07
0.000284874
-9.54452e-07
0.000285047
-9.8431e-07
0.000285227
-1.02144e-06
0.000285416
-1.0671e-06
0.000285616
-1.12276e-06
0.000285829
-1.19015e-06
0.000286057
-1.27133e-06
0.000286304
-1.36868e-06
0.000286574
-1.48502e-06
0.00028687
-1.62363e-06
0.000287199
-1.7884e-06
0.000287564
-1.98382e-06
0.000287975
-2.21519e-06
0.000288439
-2.48868e-06
0.000288966
-2.81147e-06
0.000289567
-3.19191e-06
0.000290256
-3.63969e-06
0.000291049
-4.166e-06
0.000291965
-4.78373e-06
0.000293026
-5.50765e-06
0.000294258
-6.35458e-06
0.000295693
-7.34354e-06
0.000297366
-8.49579e-06
0.000299321
-9.83487e-06
0.000301607
-1.13863e-05
0.000304283
-1.31772e-05
0.000307416
-1.52353e-05
0.000311086
-1.75874e-05
0.00031538
-2.02574e-05
0.000320401
-2.32624e-05
0.000326256
-2.66077e-05
0.000333064
-3.02813e-05
0.00034094
-3.42408e-05
0.000349992
-3.84154e-05
0.000360292
-4.26582e-05
0.000371889
-4.6826e-05
0.000384694
-5.05689e-05
0.000398615
-5.37293e-05
0.000413266
-5.57303e-05
-5.64061e-05
0.000428261
0.000311463
-1.23168e-06
0.000311627
-1.21414e-06
0.000311789
-1.19703e-06
0.000311949
-1.18037e-06
0.000312106
-1.16418e-06
0.000312261
-1.14847e-06
0.000312414
-1.13328e-06
0.000312565
-1.11865e-06
0.000312714
-1.10461e-06
0.000312861
-1.09122e-06
0.000313007
-1.07853e-06
0.00031315
-1.06663e-06
0.000313293
-1.0556e-06
0.000313434
-1.04554e-06
0.000313574
-1.03659e-06
0.000313712
-1.02888e-06
0.000313851
-1.02259e-06
0.000313988
-1.01792e-06
0.000314126
-1.01513e-06
0.000314263
-1.0145e-06
0.000314401
-1.01636e-06
0.000314541
-1.02112e-06
0.000314681
-1.02926e-06
0.000314824
-1.04133e-06
0.000314969
-1.05798e-06
0.000315119
-1.08e-06
0.000315272
-1.1083e-06
0.000315432
-1.14396e-06
0.000315599
-1.18823e-06
0.000315774
-1.24262e-06
0.000315961
-1.30888e-06
0.000316159
-1.38907e-06
0.000316374
-1.48563e-06
0.000316607
-1.60142e-06
0.000316861
-1.73978e-06
0.000317142
-1.90466e-06
0.000317455
-2.10068e-06
0.000317804
-2.33328e-06
0.000318198
-2.6088e-06
0.000318644
-2.93469e-06
0.000319152
-3.31965e-06
0.000319734
-3.77382e-06
0.000320403
-4.30904e-06
0.000321176
-4.93903e-06
0.000322072
-5.67975e-06
0.000323114
-6.54959e-06
0.000324329
-7.56971e-06
0.00032575
-8.76435e-06
0.000327415
-1.0161e-05
0.000329371
-1.17906e-05
0.000331672
-1.36876e-05
0.000334385
-1.58897e-05
0.000337586
-1.84369e-05
0.00034137
-2.13706e-05
0.000345843
-2.47311e-05
0.000351134
-2.85535e-05
0.000357389
-3.28618e-05
0.000364769
-3.76615e-05
0.000373449
-4.29214e-05
0.000383609
-4.85755e-05
0.000395397
0.000408949
0.000424192
0.000441155
0.000459191
0.000477974
0.00033932
0.000339458
0.000339593
0.000339727
0.000339858
0.000339988
0.000340116
0.000340242
0.000340366
0.000340489
0.000340611
0.000340731
0.00034085
0.000340968
0.000341085
0.000341201
0.000341317
0.000341432
0.000341547
0.000341663
0.000341779
0.000341897
0.000342015
0.000342136
0.00034226
0.000342387
0.000342519
0.000342656
0.0003428
0.000342952
0.000343114
0.000343288
0.000343476
0.000343682
0.000343908
0.000344159
0.000344439
0.000344754
0.00034511
0.000345515
0.000345979
0.000346512
0.000347128
0.000347842
0.000348673
0.000349644
0.000350782
0.000352119
0.000353695
0.000355558
0.000357765
0.000360388
0.000363512
0.000367241
0.000371704
0.000377056
0.000383481
0.0003912
0.000400463
0.000272943
-1.98148e-05
0.000280015
-1.89906e-05
0.000286589
-1.77609e-05
-1.62307e-05
0.000331196
-2.93246e-05
0.00034024
-2.80338e-05
0.000348568
-2.6089e-05
-2.36907e-05
0.000388029
-4.13061e-05
0.00039934
-3.93447e-05
0.000409613
-3.63623e-05
-3.27436e-05
0.000443255
-5.63006e-05
0.000457243
-5.33322e-05
0.000469689
-4.88083e-05
-4.34663e-05
0.000496811
0.000514017
0.000528852
)
;

boundaryField
{
    inlet
    {
        type            calculated;
        value           nonuniform 0();
    }
    outlet
    {
        type            calculated;
        value           nonuniform 0();
    }
    wall
    {
        type            calculated;
        value           nonuniform 0();
    }
    wedge1
    {
        type            wedge;
        value           nonuniform List<scalar> 
344
(
1.57263e-17
1.32746e-16
1.98621e-17
1.4909e-16
2.12925e-17
1.55019e-17
1.30793e-16
1.95188e-17
1.46923e-16
2.09457e-17
1.50701e-17
1.28951e-16
1.92348e-17
1.44852e-16
2.06658e-17
1.49345e-17
1.27144e-16
1.88334e-17
1.4275e-16
2.02691e-17
1.47856e-17
1.25149e-16
1.85016e-17
1.40579e-16
1.99259e-17
1.44096e-17
1.23426e-16
1.81712e-17
1.38663e-16
1.96458e-17
1.39869e-17
1.21686e-16
1.78855e-17
1.36766e-16
1.93457e-17
1.36906e-17
1.20087e-16
1.75968e-17
1.34929e-16
1.90551e-17
1.3568e-17
1.18472e-16
1.73023e-17
1.33149e-16
1.87817e-17
1.32855e-17
1.1701e-16
1.70676e-17
1.31465e-16
1.8525e-17
1.31951e-17
1.15541e-16
1.68631e-17
1.29882e-16
1.82959e-17
1.28682e-17
1.14212e-16
1.66466e-17
1.28384e-16
1.80959e-17
1.28031e-17
1.12909e-16
1.64226e-17
1.26941e-16
1.78947e-17
1.25381e-17
1.11678e-16
1.62233e-17
1.25614e-16
1.76995e-17
1.22415e-17
1.10512e-16
1.6043e-17
1.24443e-16
1.75347e-17
1.20271e-17
1.0958e-16
1.58721e-17
1.23367e-16
1.73913e-17
1.20423e-17
1.08684e-16
1.57107e-17
1.22431e-16
1.72551e-17
1.18797e-17
1.08024e-16
1.56138e-17
1.21708e-16
1.7148e-17
1.18838e-17
1.07493e-16
1.5534e-17
1.21183e-16
1.70808e-17
1.17221e-17
1.07186e-16
1.54704e-17
1.20872e-16
1.70363e-17
1.18231e-17
1.07079e-16
1.54423e-17
1.20809e-16
1.70166e-17
1.17421e-17
1.0722e-16
1.54602e-17
1.21099e-16
1.70647e-17
1.16395e-17
1.0762e-16
1.55144e-17
1.21747e-16
1.71737e-17
1.16665e-17
1.08467e-16
1.5599e-17
1.22792e-16
1.73165e-17
1.19214e-17
1.09696e-16
1.57683e-17
1.24341e-16
1.75457e-17
1.20308e-17
1.11515e-16
1.60551e-17
1.26503e-16
1.7883e-17
1.23943e-17
1.13851e-16
1.63824e-17
1.29345e-16
1.82877e-17
1.26298e-17
1.16964e-16
1.6868e-17
1.33038e-16
1.88246e-17
1.32211e-17
1.20807e-16
1.73723e-17
1.37564e-16
1.9401e-17
1.39117e-17
1.25512e-16
1.80867e-17
1.43218e-16
2.02187e-17
1.45135e-17
1.31492e-16
1.89881e-17
1.50302e-16
2.12307e-17
1.52296e-17
1.38734e-16
2.00682e-17
1.58919e-16
2.24661e-17
1.62657e-17
1.47593e-16
2.14089e-17
1.69381e-16
2.39908e-17
1.75898e-17
1.58224e-16
2.30159e-17
1.81977e-16
2.5822e-17
1.91202e-17
1.71068e-16
2.49646e-17
1.97108e-16
2.80151e-17
2.10143e-17
1.86404e-16
2.73107e-17
2.15216e-16
3.06663e-17
2.32108e-17
2.04738e-16
3.01067e-17
2.36802e-16
3.38162e-17
2.59419e-17
2.26469e-16
3.34357e-17
2.62505e-16
3.75809e-17
2.89968e-17
2.52268e-16
3.73994e-17
2.93012e-16
4.20482e-17
3.25986e-17
2.828e-16
4.209e-17
3.2914e-16
4.73493e-17
3.71018e-17
3.18935e-16
4.76661e-17
3.71882e-16
5.36541e-17
4.23085e-17
3.61478e-16
5.42647e-17
4.22375e-16
6.114e-17
4.84981e-17
4.11544e-16
6.20627e-17
4.81891e-16
6.99842e-17
5.57126e-17
4.70331e-16
7.12422e-17
5.51978e-16
8.04396e-17
6.42875e-17
5.39304e-16
8.20423e-17
6.34379e-16
9.27734e-17
7.42967e-17
6.19963e-16
9.47518e-17
7.3111e-16
1.07306e-16
8.58606e-17
7.14097e-16
1.09663e-16
8.44486e-16
1.24416e-16
9.929e-17
8.23644e-16
1.27096e-16
9.77148e-16
1.44539e-16
1.15138e-16
9.50841e-16
1.47402e-16
1.13204e-15
1.68152e-16
1.33279e-16
1.09796e-15
1.71007e-16
1.31256e-15
1.95818e-16
1.54329e-16
1.26755e-15
1.98379e-16
1.52231e-15
2.28126e-16
1.7823e-16
1.46201e-15
2.29944e-16
1.76534e-15
2.65796e-16
2.0548e-16
1.68397e-15
2.66205e-16
2.04582e-15
3.09628e-16
2.36274e-16
1.93538e-15
3.07517e-16
2.36785e-15
3.60302e-16
2.70596e-16
2.21821e-15
3.54397e-16
2.73579e-15
4.18756e-16
3.0851e-16
2.53322e-15
4.07126e-16
3.15313e-15
4.85824e-16
3.49973e-16
2.87997e-15
4.65819e-16
3.62212e-15
5.62189e-16
3.94797e-16
3.25611e-15
5.30211e-16
4.14308e-15
6.48306e-16
4.41866e-16
3.65642e-15
5.99612e-16
4.71276e-15
7.44098e-16
4.90522e-16
4.07339e-15
6.7303e-16
5.3248e-15
8.49089e-16
5.39005e-16
4.49399e-15
7.48242e-16
5.96219e-15
5.85787e-16
4.90434e-15
8.23184e-16
6.61128e-15
6.28585e-16
5.28236e-15
8.9327e-16
7.22534e-15
6.6564e-16
5.61358e-15
9.56549e-16
7.79968e-15
6.96986e-16
5.89543e-15
1.01051e-15
8.28189e-15
7.14333e-16
6.05646e-15
1.04427e-15
8.61263e-15
-4.90479e-16
7.23674e-16
6.13275e-15
1.06029e-15
8.75468e-15
-4.77156e-16
7.02436e-16
5.93096e-15
1.02317e-15
8.39321e-15
-4.52835e-16
6.6357e-16
5.56589e-15
9.54118e-16
7.73443e-15
-4.19912e-16
6.11354e-16
5.08503e-15
8.64559e-16
6.91339e-15
)
;
    }
    wedge2
    {
        type            wedge;
        value           nonuniform List<scalar> 
344
(
1.895e-17
1.35059e-16
2.15222e-17
1.50395e-16
2.24382e-17
1.8684e-17
1.33244e-16
2.12783e-17
1.48281e-16
2.2155e-17
1.86478e-17
1.31402e-16
2.09887e-17
1.4617e-16
2.18197e-17
1.83206e-17
1.29604e-16
2.08302e-17
1.4419e-16
2.16168e-17
1.80131e-17
1.281e-16
2.06163e-17
1.42395e-16
2.13763e-17
1.79496e-17
1.2641e-16
2.04161e-17
1.4045e-16
2.10893e-17
1.79457e-17
1.24838e-16
2.01868e-17
1.38602e-16
2.08398e-17
1.78327e-17
1.23229e-16
1.99772e-17
1.36819e-16
2.05995e-17
1.75527e-17
1.21748e-16
1.97912e-17
1.35111e-16
2.03617e-17
1.74544e-17
1.20237e-16
1.95643e-17
1.33448e-16
2.01286e-17
1.71755e-17
1.18864e-16
1.93286e-17
1.3184e-16
1.98911e-17
1.7156e-17
1.17495e-16
1.91275e-17
1.30316e-16
1.96499e-17
1.68921e-17
1.1626e-16
1.89593e-17
1.28924e-16
1.94381e-17
1.68524e-17
1.15132e-16
1.87945e-17
1.27625e-16
1.92516e-17
1.687e-17
1.1414e-16
1.86423e-17
1.26407e-16
1.907e-17
1.6831e-17
1.13142e-16
1.85165e-17
1.25361e-16
1.89068e-17
1.6601e-17
1.12369e-16
1.84216e-17
1.2448e-16
1.87815e-17
1.65779e-17
1.11657e-16
1.83088e-17
1.23736e-16
1.86786e-17
1.64423e-17
1.11159e-16
1.82317e-17
1.23194e-16
1.8595e-17
1.65067e-17
1.10833e-16
1.81995e-17
1.22903e-16
1.85569e-17
1.63838e-17
1.10764e-16
1.82025e-17
1.22901e-16
1.85727e-17
1.64983e-17
1.10982e-16
1.82416e-17
1.23174e-16
1.86122e-17
1.67133e-17
1.11564e-16
1.83394e-17
1.23818e-16
1.86971e-17
1.68694e-17
1.12426e-16
1.8518e-17
1.24921e-16
1.88721e-17
1.69346e-17
1.13761e-16
1.87415e-17
1.2652e-16
1.91057e-17
1.72322e-17
1.15506e-16
1.89995e-17
1.28682e-16
1.94009e-17
1.74481e-17
1.1791e-16
1.9395e-17
1.31544e-16
1.9828e-17
1.79349e-17
1.20921e-16
1.98413e-17
1.35178e-16
2.03564e-17
1.82752e-17
1.24829e-16
2.05147e-17
1.39889e-16
2.11206e-17
1.87588e-17
1.29783e-16
2.12673e-17
1.45717e-16
2.19672e-17
1.95887e-17
1.35716e-16
2.2173e-17
1.52759e-16
2.30008e-17
2.06289e-17
1.43033e-16
2.33016e-17
1.61377e-16
2.42609e-17
2.17162e-17
1.51846e-16
2.46424e-17
1.7181e-16
2.57623e-17
2.29775e-17
1.62544e-16
2.62746e-17
1.84412e-16
2.75829e-17
2.45402e-17
1.75326e-16
2.82224e-17
1.99537e-16
2.97806e-17
2.63704e-17
1.90659e-16
3.05476e-17
2.1763e-16
3.23919e-17
2.86108e-17
2.08908e-16
3.3336e-17
2.39228e-16
3.55328e-17
3.11808e-17
2.30692e-16
3.66662e-17
2.64908e-16
3.92725e-17
3.44244e-17
2.56522e-16
4.06264e-17
2.95401e-16
4.37394e-17
3.82953e-17
2.87109e-16
4.53457e-17
3.31552e-16
4.90574e-17
4.26406e-17
3.23174e-16
5.09236e-17
3.743e-16
5.5355e-17
4.7895e-17
3.65755e-16
5.75236e-17
4.24761e-16
6.28037e-17
5.40379e-17
4.15857e-16
6.53148e-17
4.84283e-16
7.16342e-17
6.13381e-17
4.74715e-16
7.45161e-17
5.54352e-16
8.20691e-17
6.98014e-17
5.43638e-16
8.53474e-17
6.36733e-16
9.43933e-17
7.97468e-17
6.24277e-16
9.80444e-17
7.33447e-16
1.08927e-16
9.14853e-17
7.18383e-16
1.1291e-16
8.46807e-16
1.26031e-16
1.05186e-16
8.27961e-16
1.30295e-16
9.7944e-16
1.46122e-16
1.20814e-16
9.55107e-16
1.5059e-16
1.13435e-15
1.69698e-16
1.39045e-16
1.10223e-15
1.74193e-16
1.31482e-15
1.97303e-16
1.59834e-16
1.27173e-15
2.01515e-16
1.52456e-15
2.29598e-16
1.83801e-16
1.46626e-15
2.33062e-16
1.76751e-15
2.67251e-16
2.10976e-16
1.68811e-15
2.69276e-16
2.04791e-15
3.10986e-16
2.41603e-16
1.93974e-15
3.1071e-16
2.37021e-15
3.61743e-16
2.75983e-16
2.2226e-15
3.57641e-16
2.73822e-15
4.20257e-16
3.14107e-16
2.53762e-15
4.10361e-16
3.15547e-15
4.87306e-16
3.55719e-16
2.88425e-15
4.68929e-16
3.62429e-15
5.63595e-16
4.00261e-16
3.26026e-15
5.33244e-16
4.14515e-15
6.49601e-16
4.47455e-16
3.66064e-15
6.02666e-16
4.71478e-15
7.45309e-16
4.9595e-16
4.07757e-15
6.76037e-16
5.32678e-15
8.50203e-16
5.44493e-16
4.49816e-15
7.51221e-16
5.96413e-15
5.91203e-16
4.90845e-15
8.26072e-16
6.6131e-15
6.33902e-16
5.2864e-15
8.96086e-16
7.22706e-15
6.70941e-16
5.61756e-15
9.59279e-16
7.80129e-15
7.02239e-16
5.89933e-15
1.0131e-15
8.28336e-15
7.1953e-16
6.06022e-15
1.04678e-15
8.61397e-15
-4.84475e-16
7.28798e-16
6.13647e-15
1.06263e-15
8.75586e-15
-4.71201e-16
7.0738e-16
5.93454e-15
1.0254e-15
8.39423e-15
-4.47054e-16
6.68412e-16
5.56931e-15
9.56247e-16
7.73528e-15
-4.14213e-16
6.16094e-16
5.08837e-15
8.66577e-16
6.91412e-15
)
;
    }
    axis
    {
        type            empty;
        value           nonuniform 0();
    }
    procBoundary8to2
    {
        type            processor;
        value           nonuniform List<scalar> 
71
(
5.06994e-07
4.99989e-07
4.93143e-07
4.86465e-07
4.79961e-07
4.73641e-07
4.67515e-07
4.61599e-07
4.55908e-07
4.50462e-07
4.45286e-07
4.40407e-07
4.3586e-07
4.31684e-07
4.27927e-07
4.24645e-07
4.21906e-07
4.19787e-07
4.18382e-07
4.17801e-07
4.18173e-07
4.19651e-07
4.22414e-07
4.26676e-07
4.32687e-07
4.40739e-07
4.51179e-07
4.64414e-07
4.80923e-07
5.01268e-07
5.26108e-07
5.56218e-07
5.92504e-07
6.36031e-07
6.8804e-07
7.49985e-07
8.23558e-07
9.10731e-07
1.01379e-06
1.1354e-06
1.2786e-06
1.44693e-06
1.64442e-06
1.87565e-06
2.14582e-06
2.46072e-06
2.8268e-06
3.2511e-06
3.74115e-06
4.30487e-06
4.95022e-06
5.68486e-06
6.51552e-06
7.44723e-06
8.48211e-06
9.61815e-06
1.08473e-05
1.21538e-05
1.35115e-05
1.48837e-05
1.62183e-05
1.74545e-05
1.85142e-05
1.93213e-05
1.97949e-05
1.98699e-05
-0.000265541
1.24135e-05
1.19186e-05
1.11864e-05
1.02708e-05
)
;
    }
    procBoundary8to3
    {
        type            processor;
        value           uniform 0.000292549;
    }
    procBoundary8to7
    {
        type            processor;
        value           nonuniform List<scalar> 5(-0.000212143 -0.000247294 -0.000280498 -0.000311296 -0.000339181);
    }
    procBoundary8to9
    {
        type            processor;
        value           nonuniform List<scalar> 4(0.000356028 0.000418666 0.000480412 0.000541219);
    }
    procBoundary8to14
    {
        type            processor;
        value           nonuniform List<scalar> 
71
(
-5.44453e-05
-6.03781e-05
-6.58118e-05
-7.06923e-05
-7.37665e-05
-7.51898e-05
-1.37134e-06
-1.35166e-06
-1.33249e-06
-1.31382e-06
-1.29568e-06
-1.27811e-06
-1.26112e-06
-1.24477e-06
-1.22909e-06
-1.21416e-06
-1.20003e-06
-1.1868e-06
-1.17456e-06
-1.16344e-06
-1.15357e-06
-1.14512e-06
-1.13829e-06
-1.13333e-06
-1.1305e-06
-1.13013e-06
-1.13262e-06
-1.13843e-06
-1.14809e-06
-1.16225e-06
-1.18165e-06
-1.2072e-06
-1.23992e-06
-1.28107e-06
-1.33209e-06
-1.39469e-06
-1.47089e-06
-1.56307e-06
-1.67402e-06
-1.80703e-06
-1.96597e-06
-2.15539e-06
-2.38064e-06
-2.64802e-06
-2.9649e-06
-3.33996e-06
-3.78336e-06
-4.30702e-06
-4.92488e-06
-5.65324e-06
-6.51111e-06
-7.52065e-06
-8.70756e-06
-1.01016e-05
-1.17371e-05
-1.36533e-05
-1.58949e-05
-1.85121e-05
-2.15605e-05
-2.51003e-05
-2.91944e-05
-3.39051e-05
-3.92873e-05
-4.53799e-05
-5.21843e-05
0.000411548
-5.96609e-05
-7.51376e-05
-7.05381e-05
-6.36433e-05
-5.58335e-05
)
;
    }
}


// ************************************************************************* //
