/*--------------------------------*- C++ -*----------------------------------*\
  =========                 |
  \\      /  F ield         | OpenFOAM: The Open Source CFD Toolbox
   \\    /   O peration     | Website:  https://openfoam.org
    \\  /    A nd           | Version:  7
     \\/     M anipulation  |
\*---------------------------------------------------------------------------*/
FoamFile
{
    version     2.0;
    format      ascii;
    class       volScalarField;
    location    "9.8";
    object      p;
}
// * * * * * * * * * * * * * * * * * * * * * * * * * * * * * * * * * * * * * //

dimensions      [0 2 -2 0 0 0 0];

internalField   nonuniform List<scalar> 
344
(
4.42136
4.41049
4.39975
4.38912
4.3786
4.36818
4.35787
4.34765
4.33752
4.32748
4.31752
4.30765
4.29784
4.28812
4.27846
4.26887
4.25935
4.24989
4.24049
4.23115
4.22187
4.21264
4.20347
4.19435
4.18528
4.17627
4.1673
4.15837
4.14949
4.14066
4.13187
5.0515
5.04896
5.03226
5.00848
4.98052
4.95057
4.92029
4.89067
4.86227
4.83534
4.80996
4.78609
4.76364
4.74248
4.72249
4.70353
4.68551
4.6683
4.65182
4.63598
4.62071
4.60595
4.59165
4.57775
4.56422
4.55102
4.53811
4.52548
4.5131
4.50095
4.489
4.47725
4.46568
4.45427
4.44302
4.43192
4.42095
4.41011
4.39939
4.38879
4.37829
4.3679
4.35761
4.3474
4.33729
4.32727
4.31732
4.30746
4.29767
4.28795
4.2783
4.26872
4.25921
4.24975
4.24036
4.23103
4.22175
4.21254
4.20337
4.19426
4.18519
4.17618
4.16721
4.15829
4.14942
4.14059
4.1318
5.06501
5.06199
5.04316
5.01678
4.98632
4.9542
4.92217
4.89123
4.86187
4.83428
4.80847
4.78434
4.76176
4.74055
4.72057
4.70167
4.68372
4.66661
4.65023
4.63449
4.61933
4.60467
4.59046
4.57665
4.56321
4.55008
4.53725
4.52469
4.51237
4.50027
4.48838
4.47668
4.46515
4.45379
4.44257
4.4315
4.42057
4.40975
4.39906
4.38848
4.37801
4.36763
4.35736
4.34717
4.33707
4.32706
4.31713
4.30728
4.2975
4.28779
4.27815
4.26858
4.25907
4.24963
4.24024
4.23092
4.22165
4.21243
4.20327
4.19416
4.1851
4.17609
4.16713
4.15822
4.14934
4.14052
4.13173
5.07988
5.07613
5.05477
5.02536
4.9921
4.95763
4.92378
4.8915
4.8612
4.833
4.8068
4.78246
4.75978
4.73856
4.71863
4.6998
4.68195
4.66494
4.64867
4.63305
4.61799
4.60343
4.58932
4.5756
4.56224
4.54919
4.53644
4.52394
4.51168
4.49964
4.48779
4.47614
4.46465
4.45332
4.44215
4.43111
4.4202
4.40941
4.39875
4.38819
4.37773
4.36738
4.35712
4.34695
4.33687
4.32687
4.31695
4.3071
4.29734
4.28764
4.27801
4.26844
4.25894
4.24951
4.24013
4.23081
4.22154
4.21233
4.20318
4.19407
4.18502
4.17601
4.16705
4.15814
4.14927
4.14045
4.13167
5.09639
5.09153
5.06714
5.03419
4.99781
4.96082
4.92506
4.89144
4.86025
4.83148
4.80496
4.78046
4.75773
4.73654
4.71667
4.69795
4.6802
4.66331
4.64716
4.63165
4.6167
4.60225
4.58823
4.5746
4.56132
4.54835
4.53566
4.52322
4.51102
4.49903
4.48724
4.47563
4.46418
4.45289
4.44174
4.43073
4.41985
4.40909
4.39845
4.38791
4.37747
4.36714
4.35689
4.34674
4.33667
4.32668
4.31677
4.30694
4.29718
4.28749
4.27787
4.26831
4.25882
4.24939
4.24002
4.2307
4.22144
4.21224
4.20309
4.19399
4.18494
4.17593
4.16698
4.15807
4.1492
4.14038
4.1316
5.11492
5.10834
5.08031
5.04324
5.00337
4.96368
4.92598
4.89104
4.85901
4.82975
4.80297
4.77836
4.75563
4.7345
4.71472
4.69611
4.6785
4.66173
4.6457
4.6303
4.61546
4.60111
4.58719
4.57365
4.56044
4.54755
4.53492
4.52255
4.5104
4.49846
4.48671
4.47514
4.46373
4.45248
4.44136
4.43038
4.41953
4.40879
4.39817
4.38765
4.37723
4.36691
4.35668
4.34654
4.33648
)
;

boundaryField
{
    inlet
    {
        type            zeroGradient;
    }
    outlet
    {
        type            fixedValue;
        value           nonuniform 0();
    }
    wall
    {
        type            zeroGradient;
    }
    wedge1
    {
        type            wedge;
    }
    wedge2
    {
        type            wedge;
    }
    axis
    {
        type            empty;
    }
    procBoundary24to18
    {
        type            processor;
        value           nonuniform List<scalar> 
68
(
4.42179
4.41089
4.40012
4.38946
4.37892
4.36848
4.35815
4.34791
4.33777
4.32771
4.31774
4.30784
4.29803
4.28829
4.27862
4.26902
4.25949
4.25002
4.24062
4.23127
4.22199
4.21275
4.20358
4.19445
4.18538
4.17636
4.16738
4.15846
4.14957
4.14074
4.13194
5.03914
5.03691
5.02202
5.0005
4.97476
4.94681
4.91818
4.88985
4.86242
4.83618
4.81127
4.7877
4.76542
4.74434
4.72436
4.70538
4.68729
4.67
4.65343
4.6375
4.62213
4.60727
4.59288
4.57889
4.56527
4.55199
4.53901
4.52631
4.51387
4.50165
4.48966
4.47785
4.46624
4.45479
4.4435
4.43236
4.43236
)
;
    }
    procBoundary24to19
    {
        type            processor;
        value           uniform 4.12312;
    }
    procBoundary24to25
    {
        type            processor;
        value           nonuniform List<scalar> 4(4.12306 4.12299 4.12293 4.12287);
    }
    procBoundary24to30
    {
        type            processor;
        value           nonuniform List<scalar> 
68
(
4.32651
4.31661
4.30679
4.29703
4.28735
4.27774
4.26819
4.2587
4.24928
4.23991
4.2306
4.22135
4.21215
4.203
4.1939
4.18485
4.17586
4.1669
4.158
4.14913
4.14032
4.13154
5.13599
5.12672
5.0943
5.05243
5.0087
4.96615
4.92648
4.89028
4.85749
4.82781
4.80084
4.77619
4.7535
4.73245
4.7128
4.69432
4.67683
4.6602
4.64429
4.62902
4.61429
4.60003
4.5862
4.57274
4.55962
4.54679
4.53423
4.52191
4.50982
4.49793
4.48622
4.47469
4.46331
4.45209
4.441
4.43005
4.41922
4.4085
4.3979
4.3874
4.377
4.36669
4.35648
4.34635
4.32651
4.3363
)
;
    }
}


// ************************************************************************* //
