/*--------------------------------*- C++ -*----------------------------------*\
  =========                 |
  \\      /  F ield         | OpenFOAM: The Open Source CFD Toolbox
   \\    /   O peration     | Website:  https://openfoam.org
    \\  /    A nd           | Version:  7
     \\/     M anipulation  |
\*---------------------------------------------------------------------------*/
FoamFile
{
    version     2.0;
    format      ascii;
    class       volScalarField;
    location    "38.999394";
    object      p;
}
// * * * * * * * * * * * * * * * * * * * * * * * * * * * * * * * * * * * * * //

dimensions      [0 2 -2 0 0 0 0];

internalField   nonuniform List<scalar> 
5800
(
-0.226896
-0.22868
-0.22976
-0.230605
-0.231344
-0.231999
-0.232609
-0.233201
-0.233786
-0.234361
0.667163
0.650362
0.640084
0.629209
0.615374
0.598497
0.578961
0.557363
0.534313
0.510348
0.485919
0.667163
0.650362
0.640084
0.629209
0.615374
0.598497
0.578961
0.557363
0.534313
0.510348
0.485919
0.461399
0.437091
0.413241
0.390039
0.367632
0.346123
0.325606
0.306159
0.287808
0.662461
0.645799
0.635739
0.625154
0.611644
0.59509
0.575861
0.554548
0.531761
0.508037
0.483828
0.459509
0.435384
0.411698
0.388647
0.366374
0.344984
0.324565
0.305211
0.286996
0.653096
0.636713
0.627085
0.617077
0.604211
0.588301
0.569684
0.548939
0.526676
0.503432
0.479662
0.455742
0.43198
0.408623
0.385869
0.363865
0.342712
0.32249
0.303322
0.285374
0.639152
0.623182
0.614193
0.605043
0.593135
0.578183
0.560475
0.540576
0.519092
0.496563
0.473446
0.450123
0.426902
0.404035
0.381724
0.360121
0.339321
0.319393
0.3005
0.282946
0.620746
0.60532
0.597171
0.589146
0.578499
0.564811
0.548303
0.529519
0.509063
0.487478
0.465225
0.442688
0.420181
0.397962
0.376237
0.355164
0.334831
0.315293
0.296763
0.279718
0.59804
0.583282
0.57616
0.569516
0.560418
0.548285
0.533256
0.515849
0.496662
0.476241
0.455053
0.433487
0.411863
0.390442
0.36944
0.349022
0.329268
0.310215
0.292131
0.275698
0.57123
0.557258
0.551335
0.546308
0.539032
0.528731
0.515447
0.499663
0.481974
0.462929
0.442999
0.42258
0.401998
0.381522
0.361376
0.341732
0.322664
0.304189
0.286628
0.270901
0.540548
0.52747
0.522904
0.519709
0.514505
0.506295
0.495005
0.481079
0.465104
0.447632
0.429143
0.410038
0.390651
0.371258
0.352092
0.333336
0.315059
0.297251
0.280284
0.265343
0.506261
0.494176
0.491102
0.489933
0.487029
0.481146
0.472081
0.460229
0.446169
0.430457
0.413578
0.395944
0.377894
0.359714
0.341645
0.323884
0.306495
0.289439
0.273133
0.259044
0.468668
0.457664
0.456198
0.457218
0.456816
0.453474
0.446843
0.437264
0.425303
0.411521
0.396409
0.380388
0.363807
0.346959
0.330097
0.31343
0.29702
0.280798
0.265213
0.25203
0.428094
0.418249
0.418483
0.42183
0.424101
0.423487
0.419476
0.412347
0.402651
0.390952
0.377749
0.363472
0.348479
0.333072
0.317517
0.302035
0.28669
0.271377
0.256565
0.24433
0.384896
0.376274
0.378275
0.384053
0.389137
0.391409
0.390181
0.385656
0.378371
0.36889
0.357722
0.345304
0.332006
0.318138
0.303978
0.289764
0.275561
0.261227
0.247233
0.235974
0.339449
0.332102
0.335913
0.344192
0.352196
0.357482
0.35917
0.357381
0.35263
0.345484
0.336458
0.326001
0.31449
0.302247
0.289561
0.276687
0.263696
0.250405
0.237267
0.226999
0.292151
0.286119
0.291754
0.302571
0.313564
0.32196
0.326668
0.327722
0.325606
0.32089
0.314096
0.305683
0.296039
0.285493
0.274348
0.262877
0.251161
0.238971
0.226719
0.217439
0.243415
0.238725
0.246172
0.259526
0.273543
0.285107
0.292912
0.296886
0.297484
0.295272
0.290781
0.284479
0.276764
0.267976
0.258426
0.248411
0.238025
0.226989
0.215644
0.207334
0.193667
0.190331
0.199553
0.215409
0.232442
0.247199
0.258143
0.265089
0.268453
0.268798
0.266661
0.262519
0.256782
0.249797
0.241886
0.233367
0.22436
0.214529
0.204103
0.196721
0.143342
0.14136
0.152292
0.170576
0.190579
0.208517
0.222611
0.232551
0.238709
0.24164
0.241888
0.239938
0.23621
0.231061
0.224818
0.217824
0.210237
0.201671
0.192172
0.185635
0.0928768
0.0922345
0.104791
0.125392
0.148279
0.169347
0.186568
0.199495
0.208449
0.213973
0.216617
0.216872
0.21517
0.211874
0.207317
0.201862
0.195726
0.188496
0.179942
0.174083
0.0427105
0.0433779
0.0574498
0.080223
0.105867
0.129975
0.150266
0.166144
0.17787
0.185973
0.191001
0.193457
0.19378
0.192342
0.189478
0.185559
0.18088
0.175085
0.167588
0.1621
-0.00672167
-0.00479407
0.0106701
0.0354351
0.0636696
0.0906889
0.113958
0.132723
0.147171
0.157812
0.165195
0.169828
0.172159
0.172571
0.171396
0.169
0.165754
0.161483
0.155328
0.149607
-0.054986
-0.0518761
-0.0351565
-0.0086124
0.0220071
0.0517714
0.0778936
0.0994489
0.116544
0.129663
0.139351
0.14612
0.150425
0.152662
0.153163
0.152272
0.150387
0.147611
0.143335
0.137065
-0.101695
-0.0974478
-0.0796566
-0.0515701
-0.018806
0.013499
0.0423149
0.0665376
0.0861799
0.101693
0.113616
0.122462
0.128694
0.132715
0.134866
0.135466
0.134891
0.133468
0.131064
0.126442
-0.146728
-0.140976
-0.122503
-0.0931025
-0.0584669
-0.0238614
0.00745684
0.0341957
0.0562608
0.0740633
0.0881329
0.0989823
0.107076
0.112828
0.116587
0.118662
0.119383
0.119191
0.1184
0.115726
-0.189385
-0.182234
-0.163459
-0.132909
-0.0966899
-0.0600549
-0.026456
0.00262096
0.0269619
0.0469295
0.0630391
0.0758007
0.08568
0.0930946
0.0984074
0.101922
0.103931
0.104892
0.105385
0.104278
-0.229324
-0.221046
-0.20182
-0.170831
-0.133212
-0.0948395
-0.0592114
-0.0279995
-0.0015517
0.0204376
0.0384641
0.0530321
0.0646062
0.0736059
0.0804024
0.0853038
0.0885748
0.0906475
0.0922267
0.0923709
-0.266313
-0.257092
-0.237483
-0.20628
-0.167852
-0.12799
-0.0906097
-0.0574908
-0.0291255
-0.00527578
0.0145289
0.0307839
0.0439502
0.0544459
0.062647
0.0688676
0.0733563
0.0765104
0.0790896
0.0803445
-0.300164
-0.290083
-0.270305
-0.239054
-0.200246
-0.159319
-0.120467
-0.085691
-0.0556174
-0.030085
-0.00865465
0.00915556
0.0238001
0.0356935
0.0452123
0.052676
0.0583254
0.0625231
0.0660482
0.0683415
-0.330691
-0.319807
-0.30007
-0.269068
-0.230149
-0.188609
-0.148616
-0.112454
-0.0808982
-0.0538766
-0.0309851
-0.0117622
0.00423664
0.0174207
0.0281641
0.0367892
0.0435331
0.048724
0.0531386
0.0564051
-0.357737
-0.346114
-0.326601
-0.29615
-0.257473
-0.215665
-0.17491
-0.137652
-0.104853
-0.0765497
-0.052372
-0.0318879
-0.0146673
-0.00030679
0.0115618
0.0212614
0.0290275
0.0351523
0.0403945
0.0445696
-0.381198
-0.368907
-0.349772
-0.320143
-0.282084
-0.240381
-0.199219
-0.161187
-0.127378
-0.0980166
-0.0727361
-0.0511491
-0.0328483
-0.0174307
-0.00454178
0.00614108
0.0148526
0.0218474
0.0278538
0.0328767
-0.401026
-0.388145
-0.369515
-0.340946
-0.303862
-0.262656
-0.221449
-0.182962
-0.148443
-0.118183
-0.0920109
-0.0694829
-0.0502519
-0.0338993
-0.0201006
-0.00852912
0.00104761
0.00884637
0.0155524
0.0213666
-0.417227
-0.40384
-0.38582
-0.358516
-0.322733
-0.282407
-0.241522
-0.202895
-0.16794
-0.137059
-0.11014
-0.0868367
-0.0668327
-0.0496675
-0.0350756
-0.0227115
-0.0123535
-0.00381673
0.00351952
0.0100726
-0.429864
-0.41606
-0.398728
-0.372855
-0.338664
-0.299582
-0.259386
-0.22094
-0.185816
-0.154552
-0.127113
-0.10322
-0.0825336
-0.0647
-0.0494343
-0.0363735
-0.0253235
-0.01611
-0.00822368
-0.000980642
-0.439053
-0.424924
-0.408335
-0.384016
-0.351665
-0.314164
-0.275012
-0.237072
-0.20205
-0.170632
-0.142877
-0.118563
-0.097374
-0.0789989
-0.06314
-0.0494903
-0.0378422
-0.0280048
-0.0196526
-0.0117848
-0.444961
-0.430606
-0.414789
-0.392102
-0.361787
-0.326166
-0.288396
-0.251281
-0.216638
-0.185292
-0.157413
-0.132845
-0.111313
-0.0925267
-0.0762033
-0.0620706
-0.0498837
-0.0394882
-0.0307194
-0.0223631
-0.4478
-0.433321
-0.418287
-0.397265
-0.369125
-0.335636
-0.299559
-0.263578
-0.229584
-0.198538
-0.170726
-0.146068
-0.124336
-0.105266
-0.088596
-0.0740743
-0.0614575
-0.0505954
-0.0413308
-0.0327745
-0.447822
-0.433328
-0.419067
-0.399699
-0.373815
-0.342656
-0.308548
-0.273989
-0.240908
-0.210387
-0.18283
-0.158242
-0.136449
-0.117217
-0.100308
-0.0854908
-0.0725371
-0.0612866
-0.051603
-0.042863
-0.445312
-0.430913
-0.417406
-0.399643
-0.376032
-0.347341
-0.315431
-0.282562
-0.250644
-0.220865
-0.193746
-0.169385
-0.147664
-0.128389
-0.111345
-0.0963233
-0.0831133
-0.0715533
-0.061532
-0.0525078
-0.440581
-0.426389
-0.413608
-0.397367
-0.37599
-0.349838
-0.320306
-0.289359
-0.25884
-0.230011
-0.203507
-0.179522
-0.158003
-0.138797
-0.12172
-0.106581
-0.0931906
-0.0813914
-0.0710897
-0.0617632
-0.433953
-0.420081
-0.407995
-0.39317
-0.373934
-0.350326
-0.323293
-0.294463
-0.265556
-0.237873
-0.212153
-0.188685
-0.167491
-0.148463
-0.131446
-0.116275
-0.102778
-0.0908041
-0.0802784
-0.0707058
-0.42576
-0.412317
-0.400897
-0.387367
-0.370138
-0.349011
-0.324533
-0.29797
-0.270863
-0.244509
-0.21973
-0.196915
-0.17616
-0.157411
-0.140545
-0.125422
-0.11189
-0.0998036
-0.0891136
-0.0793707
-0.416333
-0.403421
-0.392642
-0.38028
-0.36489
-0.346126
-0.324192
-0.299992
-0.27484
-0.24998
-0.226293
-0.204257
-0.18405
-0.165673
-0.149042
-0.134041
-0.120542
-0.108405
-0.0976066
-0.0877637
-0.405987
-0.393703
-0.383546
-0.372227
-0.358489
-0.34192
-0.322456
-0.300658
-0.277578
-0.254356
-0.231899
-0.210762
-0.191204
-0.173286
-0.156966
-0.142158
-0.128754
-0.116626
-0.105765
-0.0958795
-0.395024
-0.383448
-0.373903
-0.363513
-0.351235
-0.336655
-0.319528
-0.300111
-0.279174
-0.25771
-0.236608
-0.216482
-0.197667
-0.180289
-0.164351
-0.149798
-0.136548
-0.124483
-0.113601
-0.103718
-0.383714
-0.372918
-0.363978
-0.354418
-0.343411
-0.330596
-0.315624
-0.298506
-0.279737
-0.26012
-0.240481
-0.22147
-0.203488
-0.186724
-0.171234
-0.156993
-0.143948
-0.131997
-0.121131
-0.111289
-0.372303
-0.362337
-0.354003
-0.345192
-0.335283
-0.324002
-0.310967
-0.296013
-0.279383
-0.261664
-0.243581
-0.225779
-0.208713
-0.192634
-0.17765
-0.163775
-0.150982
-0.13919
-0.128375
-0.118607
-0.360998
-0.351899
-0.344172
-0.336045
-0.327084
-0.317117
-0.305781
-0.29281
-0.278236
-0.262427
-0.245967
-0.22946
-0.213388
-0.198062
-0.18364
-0.170177
-0.157678
-0.146087
-0.135355
-0.125689
-0.349975
-0.341759
-0.334643
-0.327153
-0.319013
-0.310157
-0.300281
-0.289079
-0.27643
-0.262499
-0.2477
-0.232559
-0.217558
-0.203049
-0.189242
-0.176235
-0.164065
-0.152712
-0.142093
-0.132554
-0.339373
-0.33204
-0.325535
-0.318646
-0.311228
-0.303308
-0.294666
-0.285002
-0.274107
-0.261974
-0.248841
-0.235121
-0.221259
-0.207631
-0.194492
-0.181984
-0.170176
-0.159093
-0.148614
-0.13922
-0.329298
-0.322832
-0.316934
-0.310621
-0.303848
-0.296721
-0.289106
-0.280753
-0.271412
-0.260955
-0.249456
-0.237187
-0.224525
-0.211841
-0.199422
-0.187456
-0.176041
-0.165257
-0.154942
-0.145709
-0.319827
-0.314196
-0.308894
-0.303137
-0.296953
-0.290505
-0.283744
-0.276486
-0.268488
-0.25955
-0.24961
-0.238796
-0.227382
-0.215703
-0.204061
-0.192681
-0.181689
-0.171231
-0.161102
-0.15204
-0.311009
-0.306168
-0.301446
-0.296226
-0.290589
-0.284735
-0.278687
-0.272334
-0.265472
-0.257873
-0.249381
-0.239989
-0.229852
-0.219236
-0.208428
-0.197683
-0.187149
-0.177041
-0.167118
-0.158237
-0.302869
-0.298763
-0.294597
-0.289896
-0.284773
-0.279451
-0.274009
-0.268402
-0.262483
-0.256034
-0.248849
-0.240812
-0.231955
-0.222447
-0.212534
-0.202479
-0.192441
-0.182711
-0.173015
-0.16432
-0.295414
-0.291982
-0.288341
-0.284137
-0.279503
-0.274668
-0.26975
-0.264764
-0.259621
-0.25414
-0.2481
-0.241316
-0.233709
-0.22534
-0.216378
-0.207075
-0.197582
-0.188262
-0.178815
-0.170311
-0.288636
-0.285809
-0.282658
-0.278926
-0.274758
-0.270377
-0.265926
-0.261466
-0.256962
-0.252282
-0.247221
-0.241561
-0.23514
-0.227912
-0.219949
-0.211464
-0.202573
-0.193707
-0.184534
-0.176234
-0.282512
-0.280221
-0.277519
-0.274233
-0.270507
-0.266555
-0.262532
-0.258529
-0.254557
-0.250535
-0.246293
-0.241612
-0.23628
-0.230164
-0.223229
-0.215625
-0.207404
-0.199047
-0.190189
-0.182105
-0.277012
-0.275185
-0.272891
-0.270019
-0.266713
-0.26317
-0.259546
-0.255953
-0.252435
-0.248955
-0.245387
-0.241536
-0.237171
-0.232103
-0.226197
-0.219523
-0.212047
-0.204271
-0.195764
-0.187977
-0.272093
-0.270662
-0.268732
-0.266245
-0.263336
-0.260182
-0.256938
-0.253722
-0.250602
-0.247575
-0.244559
-0.241394
-0.237862
-0.233744
-0.228832
-0.223117
-0.216449
-0.209347
-0.201249
-0.193822
-0.267708
-0.266607
-0.265002
-0.262868
-0.26033
-0.257548
-0.254668
-0.251808
-0.249048
-0.24641
-0.243848
-0.241242
-0.238404
-0.235116
-0.231129
-0.226358
-0.220563
-0.214188
-0.206605
-0.199758
-0.263802
-0.262974
-0.261653
-0.259842
-0.257652
-0.255225
-0.252694
-0.250174
-0.247749
-0.245456
-0.243274
-0.241123
-0.238849
-0.236257
-0.233094
-0.229214
-0.224307
-0.218763
-0.211669
-0.205542
-0.260316
-0.259711
-0.25864
-0.257123
-0.255257
-0.253166
-0.25097
-0.248778
-0.246672
-0.244693
-0.24284
-0.24106
-0.23924
-0.237212
-0.23475
-0.231661
-0.227674
-0.222771
-0.217117
-0.209975
-0.257191
-0.256769
-0.255916
-0.254665
-0.253099
-0.251326
-0.249453
-0.247578
-0.245774
-0.244089
-0.24253
-0.241063
-0.239605
-0.238025
-0.236139
-0.233694
-0.230681
-0.226078
-0.222529
-0.213794
-0.254366
-0.254095
-0.253434
-0.252424
-0.251137
-0.249661
-0.248094
-0.246521
-0.24501
-0.243604
-0.242314
-0.241119
-0.239959
-0.238729
-0.237307
-0.235339
-0.23332
-0.228615
-0.227431
-0.217106
-0.251784
-0.251644
-0.251152
-0.250362
-0.249329
-0.248132
-0.246853
-0.245567
-0.244335
-0.243194
-0.242154
-0.241203
-0.240294
-0.239342
-0.238288
-0.236652
-0.235574
-0.230451
-0.231844
-0.219617
-0.249391
-0.249369
-0.249033
-0.24844
-0.247642
-0.246701
-0.24569
-0.244675
-0.243706
-0.242815
-0.24201
-0.241281
-0.24059
-0.23987
-0.239102
-0.237708
-0.237415
-0.231804
-0.235727
-0.221256
-0.247144
-0.247236
-0.247043
-0.246631
-0.246044
-0.245339
-0.244575
-0.24381
-0.243085
-0.242427
-0.241841
-0.241316
-0.24082
-0.240299
-0.239749
-0.238571
-0.238807
-0.232955
-0.238806
-0.222289
-0.245007
-0.245214
-0.245155
-0.244908
-0.244515
-0.244021
-0.243482
-0.242944
-0.242444
-0.241999
-0.241614
-0.241276
-0.240955
-0.240609
-0.240224
-0.239269
-0.239743
-0.234094
-0.240813
-0.223202
-0.242952
-0.243283
-0.243351
-0.243254
-0.243036
-0.242734
-0.242395
-0.242061
-0.241761
-0.241509
-0.241305
-0.241134
-0.24097
-0.240777
-0.240521
-0.239794
-0.240272
-0.235236
-0.24174
-0.224382
-0.240964
-0.241428
-0.241619
-0.241661
-0.241599
-0.241467
-0.241305
-0.241151
-0.241028
-0.240945
-0.2409
-0.240877
-0.240849
-0.240786
-0.240638
-0.240119
-0.240478
-0.236266
-0.241833
-0.225887
-0.239039
-0.239645
-0.239955
-0.240124
-0.240203
-0.24022
-0.240213
-0.240214
-0.240243
-0.240306
-0.240397
-0.2405
-0.240589
-0.240635
-0.240578
-0.240224
-0.240443
-0.237043
-0.241416
-0.227513
-0.237179
-0.237936
-0.238362
-0.238648
-0.238851
-0.238998
-0.239124
-0.239257
-0.239415
-0.2396
-0.239806
-0.240014
-0.240199
-0.240331
-0.240351
-0.240103
-0.240247
-0.237478
-0.240759
-0.229006
-0.235399
-0.236312
-0.236849
-0.237242
-0.237555
-0.237814
-0.238052
-0.238296
-0.23856
-0.238846
-0.239145
-0.239438
-0.239699
-0.239899
-0.239973
-0.239775
-0.239935
-0.237554
-0.240056
-0.230212
-0.233717
-0.234787
-0.23543
-0.235919
-0.236329
-0.236683
-0.237014
-0.23735
-0.2377
-0.238067
-0.23844
-0.238799
-0.239119
-0.239367
-0.239484
-0.239402
-0.239343
-0.237487
-0.239354
-0.231083
-0.232158
-0.233381
-0.234123
-0.234698
-0.235191
-0.235625
-0.236034
-0.236442
-0.236862
-0.237292
-0.237722
-0.238131
-0.238494
-0.238776
-0.238926
-0.2389
-0.238696
-0.237471
-0.238159
-0.232107
-0.23075
-0.232116
-0.232949
-0.233599
-0.234163
-0.234663
-0.235133
-0.2356
-0.236073
-0.236552
-0.237025
-0.237471
-0.237865
-0.23817
-0.238342
-0.238337
-0.238085
-0.237247
-0.237132
-0.233024
-0.229521
-0.231017
-0.231928
-0.232642
-0.233264
-0.233818
-0.234337
-0.234849
-0.235363
-0.235878
-0.236382
-0.236855
-0.237269
-0.23759
-0.237776
-0.237781
-0.237528
-0.23689
-0.236366
-0.228498
-0.230105
-0.231082
-0.231847
-0.232517
-0.233112
-0.233669
-0.234214
-0.234758
-0.235299
-0.235825
-0.236316
-0.236744
-0.237075
-0.237269
-0.237281
-0.237043
-0.236508
-0.235818
-0.227708
-0.229401
-0.230429
-0.231234
-0.231938
-0.232564
-0.233147
-0.233717
-0.234282
-0.234841
-0.235382
-0.235884
-0.236321
-0.236658
-0.236857
-0.236874
-0.236653
-0.236172
-0.235441
-0.227169
-0.228922
-0.229984
-0.230816
-0.231544
-0.232189
-0.23279
-0.233375
-0.233953
-0.234523
-0.235073
-0.235583
-0.236025
-0.236365
-0.236567
-0.236587
-0.23638
-0.235927
-0.235203
-0.226896
-0.22868
-0.22976
-0.230605
-0.231344
-0.231999
-0.232609
-0.233201
-0.233785
-0.234361
-0.234915
-0.235428
-0.235872
-0.236214
-0.236417
-0.236439
-0.236239
-0.235799
-0.235088
0.129237
0.132319
0.139705
0.146324
0.154883
0.160585
0.166078
0.166141
0.165226
0.15556
0.130449
0.133601
0.141236
0.148165
0.157278
0.163796
0.170507
0.172144
0.173513
0.16633
0.13165
0.134811
0.142703
0.149916
0.159609
0.166886
0.174802
0.177862
0.181266
0.176471
0.132803
0.13598
0.144141
0.151631
0.16189
0.169892
0.178951
0.183401
0.188647
0.186229
0.133908
0.137097
0.145524
0.153274
0.164075
0.172769
0.182902
0.188719
0.195639
0.19555
0.134963
0.138171
0.146852
0.154846
0.166163
0.175521
0.186653
0.193804
0.202251
0.204408
0.135965
0.139155
0.148124
0.156344
0.168148
0.178142
0.19019
0.198636
0.208484
0.212782
0.136913
0.140095
0.149309
0.15776
0.17002
0.180624
0.193507
0.203195
0.214333
0.220648
0.137805
0.140982
0.150487
0.159099
0.171773
0.18296
0.196597
0.207464
0.219789
0.227985
0.138637
0.141789
0.15143
0.16035
0.173402
0.185142
0.199455
0.211425
0.22484
0.234771
0.139406
0.142542
0.15246
0.161502
0.174897
0.187161
0.202077
0.215065
0.229474
0.240987
0.140108
0.143228
0.15332
0.162547
0.176256
0.189008
0.204456
0.218371
0.233678
0.246617
0.140741
0.143843
0.154118
0.163492
0.177475
0.190675
0.206589
0.221332
0.237441
0.251646
0.141301
0.144387
0.154817
0.164327
0.178549
0.192153
0.208471
0.22394
0.240752
0.25606
0.141786
0.144858
0.155422
0.165052
0.179476
0.193435
0.210097
0.226189
0.243602
0.259851
0.142193
0.145253
0.15593
0.165662
0.180254
0.194515
0.211461
0.228071
0.245985
0.263013
0.142521
0.145571
0.156338
0.166154
0.180879
0.195386
0.212559
0.229582
0.247896
0.265542
0.142769
0.14581
0.156645
0.166526
0.18135
0.196043
0.213387
0.230719
0.24933
0.267437
0.142935
0.14597
0.156851
0.166776
0.181665
0.196484
0.213941
0.231479
0.250288
0.268699
0.143018
0.146051
0.156954
0.166901
0.181823
0.196704
0.214219
0.231859
0.250767
0.269329
0.0236568
0.0223465
0.0201931
0.0176409
0.0149646
0.0123563
0.00990783
0.00767377
0.00566523
0.0038834
0.0237838
0.0224704
0.0203079
0.0177462
0.0150591
0.0124409
0.0099823
0.00773914
0.00572175
0.0039319
0.0240308
0.0227104
0.0205316
0.0179513
0.0152438
0.0126058
0.0101276
0.00786641
0.0058321
0.00402762
0.0243911
0.0230605
0.0208585
0.0182512
0.0155139
0.012847
0.0103402
0.00805264
0.00599385
0.00416816
0.0248587
0.0235154
0.0212836
0.0186414
0.0158657
0.0131611
0.0106171
0.00829525
0.00620469
0.00435136
0.0254284
0.02407
0.0218023
0.0191178
0.0162954
0.013545
0.0109557
0.00859199
0.00646258
0.00457546
0.0260954
0.0247196
0.0224105
0.019677
0.0168002
0.0139961
0.0113537
0.00894091
0.00676584
0.00483898
0.026855
0.0254603
0.0231045
0.0203157
0.0173772
0.0145121
0.0118093
0.00934035
0.00711302
0.00514065
0.0277031
0.0262881
0.0238808
0.021031
0.018024
0.0150912
0.0123206
0.00978894
0.00750293
0.00547941
0.0286357
0.0271995
0.0247362
0.0218203
0.0187386
0.0157315
0.0128865
0.0102855
0.00793457
0.00585442
0.0296493
0.0281912
0.025668
0.0226812
0.019519
0.0164317
0.0135056
0.0108291
0.00840713
0.00626497
0.0307401
0.0292603
0.0266733
0.0236117
0.0203638
0.0171906
0.0141771
0.011419
0.00892
0.00671057
0.031905
0.0304036
0.0277497
0.0246099
0.0212714
0.018007
0.0149001
0.0120546
0.00947273
0.00719083
0.0331406
0.0316185
0.0288948
0.025674
0.0222406
0.0188803
0.0156741
0.0127354
0.010065
0.00770555
0.0344439
0.0329022
0.0301064
0.0268024
0.0232703
0.0198096
0.0164987
0.0134614
0.0106967
0.00825464
0.0358118
0.0342522
0.0313821
0.0279937
0.0243596
0.0207945
0.0173736
0.0142323
0.0113679
0.00883817
0.0372413
0.0356658
0.03272
0.0292464
0.0255078
0.0218346
0.0182986
0.0150483
0.0120785
0.00945632
0.0387296
0.0371406
0.0341179
0.0305595
0.0267141
0.0229297
0.0192737
0.0159094
0.0128291
0.0101094
0.0402736
0.0386739
0.035574
0.0319317
0.0279779
0.0240796
0.0202991
0.0168161
0.0136198
0.0107979
0.0418705
0.0402633
0.037086
0.033362
0.0292988
0.0252842
0.021375
0.0177688
0.0144514
0.0115224
0.0435174
0.0419062
0.0386523
0.0348494
0.0306763
0.0265436
0.0225017
0.0187681
0.0153244
0.0122835
0.0452115
0.0436
0.0402707
0.036393
0.0321101
0.027858
0.0236799
0.0198148
0.0162396
0.013082
0.04695
0.0453421
0.0419394
0.0379918
0.0335998
0.0292275
0.0249099
0.0209095
0.017198
0.013919
0.0487298
0.0471297
0.0436566
0.039645
0.0351451
0.0306525
0.0261926
0.0220534
0.0182007
0.0147955
0.0505481
0.04896
0.0454202
0.0413518
0.0367458
0.0321333
0.0275288
0.0232475
0.0192487
0.0157126
0.052402
0.0508304
0.0472285
0.0431113
0.0384016
0.0336705
0.0289193
0.0244931
0.0203434
0.0166716
0.0542886
0.0527378
0.0490797
0.0449226
0.0401121
0.0352644
0.0303653
0.0257914
0.0214862
0.0176741
0.0562049
0.0546794
0.0509718
0.0467848
0.0418773
0.0369157
0.0318677
0.0271439
0.0226786
0.0187214
0.0581479
0.0566522
0.052903
0.0486968
0.0436966
0.0386251
0.0334278
0.0285522
0.0239223
0.0198154
0.0601147
0.0586531
0.0548716
0.0506577
0.04557
0.0403931
0.035047
0.0300178
0.0252191
0.0209579
0.0621023
0.0606791
0.0568756
0.0526663
0.0474969
0.0422207
0.0367265
0.0315427
0.0265709
0.0221508
0.0641075
0.0627272
0.0589132
0.0547213
0.0494772
0.0441084
0.0384677
0.0331285
0.0279798
0.0233961
0.0661275
0.0647941
0.0609826
0.0568213
0.0515104
0.0460573
0.0402722
0.0347773
0.0294478
0.0246963
0.0681592
0.0668767
0.0630819
0.0589649
0.0535962
0.048068
0.0421414
0.0364912
0.0309774
0.0260536
0.0701994
0.0689721
0.0652091
0.0611504
0.0557343
0.0501413
0.0440769
0.0382723
0.032571
0.0274705
0.0722453
0.071077
0.0673622
0.063376
0.057924
0.0522781
0.0460802
0.0401227
0.0342312
0.0289499
0.0742938
0.0731885
0.0695393
0.0656399
0.0601651
0.054479
0.048153
0.0420449
0.0359607
0.0304945
0.0763419
0.0753035
0.0717381
0.0679399
0.062457
0.0567447
0.0502967
0.0440413
0.0377624
0.0321073
0.0783866
0.077419
0.0739567
0.0702739
0.0647992
0.0590758
0.0525129
0.0461143
0.0396393
0.0337916
0.0804251
0.0795322
0.0761927
0.0726396
0.0671911
0.0614726
0.0548033
0.0482666
0.0415944
0.0355506
0.0824545
0.0816402
0.0784437
0.0750345
0.0696319
0.0639354
0.0571692
0.0505007
0.0436311
0.0373878
0.0844719
0.0837403
0.0807074
0.0774562
0.0721209
0.0664644
0.0596122
0.0528194
0.0457528
0.0393068
0.0864746
0.0858297
0.0829812
0.0799019
0.0746571
0.0690593
0.0621337
0.0552254
0.0479628
0.0413114
0.0884599
0.0879059
0.0852625
0.082369
0.0772396
0.07172
0.0647352
0.0577214
0.0502648
0.0434057
0.0904254
0.0899663
0.0875487
0.0848546
0.0798672
0.0744459
0.0674179
0.0603102
0.0526625
0.0455935
0.0923684
0.0920086
0.089837
0.0873559
0.0825384
0.0772362
0.0701831
0.0629947
0.0551595
0.0478793
0.0942867
0.0940304
0.0921245
0.0898699
0.0852518
0.0800899
0.0730319
0.0657775
0.0577596
0.0502674
0.096178
0.0960295
0.0944083
0.0923937
0.0880054
0.0830057
0.0759655
0.0686612
0.0604667
0.0527624
0.0980401
0.0980038
0.0966855
0.0949241
0.0907975
0.085982
0.0789847
0.0716486
0.0632846
0.055369
0.099871
0.0999512
0.098953
0.0974582
0.0936256
0.0890171
0.0820904
0.074742
0.066217
0.058092
0.101669
0.10187
0.101208
0.0999928
0.0964873
0.0921087
0.0852832
0.0779438
0.069268
0.0609366
0.103432
0.103758
0.103447
0.102525
0.0993798
0.0952544
0.0885635
0.081256
0.0724411
0.0639078
0.105159
0.105614
0.105668
0.105051
0.1023
0.0984516
0.0919317
0.0846804
0.0757402
0.0670112
0.106848
0.107436
0.107867
0.107569
0.105245
0.101697
0.0953877
0.0882187
0.079169
0.0702524
0.108497
0.109222
0.110041
0.110075
0.10821
0.104988
0.0989314
0.0918719
0.0827313
0.0736372
0.110107
0.110972
0.112188
0.112566
0.111192
0.10832
0.102562
0.0956409
0.0864309
0.0771717
0.111675
0.112683
0.114305
0.115039
0.114187
0.11169
0.106279
0.0995259
0.0902716
0.080862
0.113201
0.114356
0.116389
0.11749
0.11719
0.115094
0.110081
0.103527
0.0942575
0.0847145
0.114684
0.115988
0.118437
0.119918
0.120197
0.118528
0.113966
0.107643
0.098393
0.0887359
0.116124
0.117578
0.120448
0.122319
0.123202
0.121986
0.117932
0.111872
0.102683
0.0929326
0.11752
0.119126
0.122418
0.12469
0.1262
0.125465
0.121975
0.116214
0.107134
0.0973111
0.118871
0.120632
0.124346
0.127029
0.129187
0.128959
0.126094
0.120665
0.111751
0.101877
0.120178
0.122093
0.12623
0.129332
0.132156
0.132465
0.130282
0.125222
0.116543
0.106634
0.121441
0.123511
0.128068
0.131597
0.135102
0.135975
0.134535
0.129883
0.121522
0.111587
0.122659
0.124884
0.129858
0.133821
0.13802
0.139486
0.138847
0.134644
0.126701
0.116746
0.123833
0.126211
0.131599
0.136002
0.140904
0.142993
0.143211
0.139505
0.132097
0.122126
0.124963
0.127495
0.133291
0.13814
0.143752
0.146495
0.147621
0.144461
0.137712
0.127689
0.126048
0.128733
0.134932
0.140232
0.146556
0.149979
0.152051
0.149492
0.14353
0.133253
0.12709
0.129921
0.136511
0.142255
0.149279
0.153396
0.156439
0.15455
0.14962
0.138701
0.128092
0.131049
0.138012
0.144171
0.151891
0.156715
0.160816
0.159745
0.156442
0.145042
0.00270129
0.00201997
0.00133097
0.000637099
-6.08691e-05
-0.000762985
-0.0014692
-0.00217918
-0.0028924
-0.00360833
-0.00432649
-0.00504644
-0.00576773
-0.00648996
-0.00721268
-0.00793546
-0.00865787
-0.00937943
-0.0100996
-0.010818
0.0027455
0.0020632
0.00137287
0.000678159
-2.03717e-05
-0.000723159
-0.00143039
-0.00214178
-0.00285679
-0.00357489
-0.00429559
-0.00501843
-0.00574298
-0.00646878
-0.00719539
-0.00792234
-0.00864921
-0.00937559
-0.0101012
-0.0108256
0.00283358
0.00214754
0.00145203
0.000752225
4.88869e-05
-0.000658764
-0.00137118
-0.00208815
-0.00280907
-0.00353333
-0.00426041
-0.00498984
-0.00572115
-0.0064539
-0.0071876
-0.00792179
-0.00865598
-0.00938966
-0.0101223
-0.0108534
0.00296203
0.00226888
0.0015643
0.000855744
0.000144335
-0.000571173
-0.00129164
-0.00201695
-0.00274647
-0.0034795
-0.00421547
-0.00495391
-0.00569436
-0.00643635
-0.00717938
-0.00792295
-0.00866656
-0.00940973
-0.010152
-0.0108929
0.00312892
0.00242553
0.00170836
0.000987819
0.000265425
-0.000460707
-0.00119197
-0.0019284
-0.00266927
-0.0034138
-0.00416137
-0.0049115
-0.00566373
-0.00641759
-0.00717257
-0.00792815
-0.00868383
-0.00943909
-0.0101934
-0.0109464
0.00333274
0.00261611
0.00188295
0.00114726
0.000411021
-0.000328455
-0.00107321
-0.00182345
-0.00257835
-0.00333701
-0.00409875
-0.0048631
-0.0056296
-0.00639777
-0.0071671
-0.00793705
-0.0087071
-0.00947671
-0.0102454
-0.0110126
0.00357211
0.00283934
0.0020869
0.00133301
0.000580184
-0.000175235
-0.000936064
-0.00170269
-0.00247417
-0.00324947
-0.00402785
-0.00480884
-0.00559199
-0.00637683
-0.00716284
-0.00794945
-0.00873615
-0.00952237
-0.0103076
-0.0110914
0.00384587
0.00309415
0.00231922
0.00154421
0.000772167
-1.69719e-06
-0.000781089
-0.0015666
-0.00235714
-0.00315152
-0.00394894
-0.00474893
-0.00555108
-0.00635489
-0.00715985
-0.00796539
-0.00877096
-0.00957601
-0.01038
-0.0111826
0.00415308
0.00337963
0.00257911
0.00178013
0.000986336
0.000191602
-0.000608781
-0.00141562
-0.00222765
-0.00304349
-0.0038623
-0.0046836
-0.00550701
-0.00633206
-0.0071582
-0.00798487
-0.00881151
-0.00963756
-0.0104625
-0.0112859
0.00449293
0.00369504
0.00286588
0.00204018
0.00122217
0.000404198
-0.000419555
-0.00125012
-0.00208601
-0.00292566
-0.00376814
-0.00461303
-0.00545995
-0.00630845
-0.00715797
-0.00800795
-0.00885781
-0.00970699
-0.010555
-0.0114014
0.00486483
0.00403981
0.003179
0.00232386
0.00147923
0.000635713
-0.00021375
-0.0010704
-0.0019325
-0.00279826
-0.00366669
-0.0045374
-0.00541005
-0.00628419
-0.00715927
-0.00803471
-0.00890993
-0.00978436
-0.0106575
-0.011529
0.0052683
0.00441349
0.00351804
0.00263081
0.0017572
0.000885853
8.36627e-06
-0.000876706
-0.00176734
-0.00266149
-0.00355813
-0.00445688
-0.00535745
-0.00625942
-0.00716222
-0.00806525
-0.00896795
-0.00986975
-0.0107701
-0.0116688
0.00570303
0.00481575
0.00388269
0.00296075
0.00205582
0.0011544
0.000246588
-0.00066924
-0.00159072
-0.00251554
-0.00344261
-0.00437161
-0.0053023
-0.00623426
-0.00716693
-0.0080997
-0.009032
-0.00996325
-0.0108929
-0.0118208
0.00616883
0.00524641
0.00427276
0.00331348
0.00237495
0.0014412
0.000500775
-0.000448138
-0.00140278
-0.00236053
-0.00332027
-0.00428173
-0.00524472
-0.00620885
-0.00717354
-0.00813818
-0.0091022
-0.010065
-0.0110261
-0.0119854
0.00666565
0.0057054
0.00468816
0.00368893
0.00271451
0.0017462
0.000770847
-0.00021349
-0.0012036
-0.00219656
-0.00319121
-0.00418735
-0.00518485
-0.00618332
-0.00718219
-0.00818085
-0.00917871
-0.0101752
-0.0111698
-0.0121625
0.00719357
0.00619276
0.00512889
0.0040871
0.00307449
0.00206938
0.00105679
3.46654e-05
-0.000993252
-0.00202371
-0.00305552
-0.00408856
-0.00512277
-0.00615779
-0.00719302
-0.00822785
-0.0092617
-0.010294
-0.0113242
-0.0123525
0.00775279
0.00670866
0.00559508
0.00450808
0.00345499
0.00241081
0.00135863
0.000296339
-0.000771744
-0.00184201
-0.00291325
-0.00398545
-0.00505861
-0.00613238
-0.00720617
-0.00827936
-0.00935135
-0.0104216
-0.0114896
-0.0125556
0.00834364
0.00725337
0.00608693
0.00495204
0.00385615
0.00277062
0.00167647
0.000571591
-0.000539049
-0.00165147
-0.00276443
-0.00387807
-0.00499245
-0.00610722
-0.0072218
-0.00833554
-0.00944788
-0.0105583
-0.0116662
-0.012772
0.00896656
0.00782727
0.00660475
0.00541926
0.00427822
0.00314902
0.00201047
0.000860528
-0.0002951
-0.00145204
-0.00260908
-0.00376646
-0.00492435
-0.00608242
-0.00724003
-0.00839658
-0.00955148
-0.0107042
-0.0118543
-0.0130021
0.00962211
0.00843087
0.00714894
0.00591007
0.00472151
0.00354626
0.00236083
0.00116331
-3.97896e-05
-0.00124368
-0.00244717
-0.00365066
-0.00485441
-0.00605808
-0.00726104
-0.00846267
-0.0096624
-0.0108597
-0.0120541
-0.0132462
0.010311
0.00906477
0.00772002
0.00642492
0.00518641
0.00396269
0.00272782
0.00148013
0.000227029
-0.00102628
-0.00227865
-0.00353066
-0.00478266
-0.0060343
-0.00728496
-0.008534
-0.00978086
-0.011025
-0.012266
-0.0135046
0.011034
0.00972968
0.00831857
0.00696433
0.00567338
0.00439869
0.00311177
0.00181125
0.000505543
-0.000799711
-0.00210346
-0.00340646
-0.00470915
-0.0060112
-0.00731195
-0.00861078
-0.00990712
-0.0112005