0.256332 	0.440349 	-2.0013e-18 	4.74056
0.259184 	0.445249 	-2.05339e-18 	4.73853
0.261221 	0.448748 	-1.80445e-18 	4.71874
0.264479 	0.454344 	-1.44607e-18 	4.71693
0.268552 	0.461342 	-1.31645e-18 	4.71511
0.272625 	0.468339 	-4.89154e-18 	4.71325
0.276699 	0.475337 	-5.79959e-18 	4.71136
0.279368 	0.479922 	-5.51903e-18 	4.70939
0.281404 	0.483421 	-4.68779e-18 	4.69206
0.284845 	0.489332 	-4.92855e-18 	4.69013
0.288919 	0.49633 	-4.19211e-18 	4.68794
