0.218136 	0.461342 	-2.5327e-18 	0.647323 	-0.0349947 	5.56433e-16
0.219895 	0.465063 	3.04833e-19 	0.542334 	-0.0241245 	4.76588e-16
0.221549 	0.468562 	7.73156e-19 	0.516899 	-0.0203369 	6.04476e-16
0.224753 	0.475337 	1.16933e-18 	0.409757 	-0.0124957 	4.6338e-16
0.228062 	0.482335 	1.49981e-18 	0.297687 	-0.00635477 	3.29754e-16
0.23137 	0.489332 	2.09984e-18 	0.181375 	-0.00218624 	1.90134e-16
0.234679 	0.49633 	2.24803e-18 	0.0614191 	-0.000317846 	7.00476e-17
