/*--------------------------------*- C++ -*----------------------------------*\
  =========                 |
  \\      /  F ield         | OpenFOAM: The Open Source CFD Toolbox
   \\    /   O peration     | Website:  https://openfoam.org
    \\  /    A nd           | Version:  7
     \\/     M anipulation  |
\*---------------------------------------------------------------------------*/
FoamFile
{
    version     2.0;
    format      ascii;
    class       volVectorField;
    location    "12.999798";
    object      U;
}
// * * * * * * * * * * * * * * * * * * * * * * * * * * * * * * * * * * * * * //

dimensions      [0 1 -1 0 0 0 0];

internalField   nonuniform List<vector> 
5800
(
(-0.000689949 0.000927129 -2.58304e-21)
(-0.00410463 0.00232117 -9.10653e-21)
(-0.011113 0.00336138 1.65707e-21)
(-0.0204205 0.00411334 6.27231e-21)
(-0.0314526 0.00462466 2.67216e-21)
(-0.0437692 0.00493987 -6.51528e-21)
(-0.0569515 0.00510145 -2.07107e-21)
(-0.070657 0.00514807 -8.13552e-22)
(-0.0846228 0.00511355 -7.49677e-21)
(-0.0986562 0.00502609 -1.44701e-21)
(0.00714974 0.0087286 -6.02253e-21)
(0.0378403 0.019505 -2.04544e-20)
(0.0942398 0.0249469 3.74456e-21)
(0.159656 0.0266538 1.35632e-20)
(0.226736 0.0261162 5.55363e-21)
(0.291952 0.0245014 -1.325e-20)
(0.353573 0.0225433 -4.0105e-21)
(0.411123 0.0205931 -1.61339e-21)
(0.464655 0.0187696 -8.05666e-21)
(0.514352 0.0170943 -7.12459e-21)
(0.56042 0.0155611 -8.88743e-21)
(0.00714974 -0.0087286 6.02253e-21)
(0.0378403 -0.019505 2.04544e-20)
(0.0942398 -0.0249469 -3.74456e-21)
(0.159656 -0.0266538 -1.35632e-20)
(0.226736 -0.0261162 -5.55363e-21)
(0.291952 -0.0245014 1.325e-20)
(0.353573 -0.0225434 4.0105e-21)
(0.411123 -0.0205931 1.61339e-21)
(0.464655 -0.0187696 1.34497e-20)
(0.514352 -0.0170943 2.34743e-21)
(0.56042 -0.0155611 8.88743e-21)
(0.603064 -0.01416 -1.26823e-21)
(0.642488 -0.0128808 4.14324e-21)
(0.678892 -0.0117136 -6.93328e-21)
(0.712467 -0.0106489 8.25862e-21)
(0.743401 -0.00967815 8.37071e-21)
(0.771876 -0.00879321 2.32733e-21)
(0.798046 -0.00798205 -1.16916e-20)
(0.822032 -0.00722788 9.32293e-21)
(0.843985 -0.00653642 -1.33918e-21)
(0.00849402 -0.0261026 -8.85322e-21)
(0.0407721 -0.0583515 -1.32817e-20)
(0.0979018 -0.0746548 -4.0517e-21)
(0.1635 -0.0797826 -1.17205e-20)
(0.230449 -0.0781881 2.57913e-21)
(0.295392 -0.0733627 -1.69048e-20)
(0.356698 -0.0675052 -6.1424e-21)
(0.41394 -0.0616685 -1.30712e-20)
(0.467188 -0.0562105 7.14681e-21)
(0.516628 -0.0511955 -1.68062e-20)
(0.562461 -0.0466059 -5.08316e-20)
(0.604894 -0.0424115 8.02007e-21)
(0.644129 -0.038582 -1.10456e-20)
(0.680362 -0.0350875 6.50294e-21)
(0.713783 -0.0318998 -1.52905e-20)
(0.744578 -0.0289932 1.55053e-21)
(0.77293 -0.0263434 -7.74978e-21)
(0.798999 -0.0239142 4.35001e-20)
(0.822893 -0.0216561 -4.21116e-21)
(0.844709 -0.0195885 5.23116e-21)
(0.0111648 -0.0432281 -2.70341e-20)
(0.0466027 -0.0967088 -2.63931e-20)
(0.10519 -0.123806 6.05431e-21)
(0.171155 -0.132376 1.28166e-20)
(0.237848 -0.129779 5.35861e-21)
(0.302247 -0.1218 -1.63939e-20)
(0.362926 -0.112093 -2.34146e-20)
(0.419556 -0.102413 4.9131e-20)
(0.472238 -0.093357 -1.32849e-20)
(0.521163 -0.0850353 1.72162e-20)
(0.566531 -0.077419 2.66468e-20)
(0.608544 -0.0704579 4.49165e-21)
(0.6474 -0.0641018 7.41084e-21)
(0.683293 -0.0583014 1.58968e-20)
(0.716407 -0.0530098 -1.61289e-20)
(0.746925 -0.0481846 1.52398e-20)
(0.775034 -0.043785 -1.77575e-21)
(0.800901 -0.0397506 -4.24939e-20)
(0.82461 -0.036002 2.79934e-20)
(0.846156 -0.0325777 -2.25501e-20)
(0.0151267 -0.0599423 2.0813e-20)
(0.0552661 -0.134256 -3.30303e-20)
(0.116033 -0.172035 4.86679e-20)
(0.182555 -0.184083 -2.19339e-20)
(0.248875 -0.180572 1.1485e-19)
(0.312467 -0.169535 6.72118e-20)
(0.372215 -0.156062 -4.09994e-20)
(0.427933 -0.142607 -9.59257e-20)
(0.479772 -0.130015 3.73464e-20)
(0.527929 -0.118442 2.51177e-20)
(0.572603 -0.107848 3.31587e-20)
(0.61399 -0.0981641 -6.43858e-20)
(0.652281 -0.089321 -7.40709e-20)
(0.687667 -0.0812501 5.54658e-20)
(0.720324 -0.0738863 4.27358e-20)
(0.750429 -0.0671709 -1.44171e-20)
(0.778173 -0.0610465 3.11735e-20)
(0.803737 -0.0554281 1.92626e-21)
(0.827172 -0.0502105 -4.54631e-20)
(0.848321 -0.0454609 -1.41349e-20)
(0.0203271 -0.0760872 -7.64155e-20)
(0.0666643 -0.170679 -2.10188e-20)
(0.130323 -0.218982 -7.30933e-20)
(0.197602 -0.234556 2.09038e-20)
(0.263443 -0.230257 -1.08688e-19)
(0.32598 -0.216294 -6.4127e-20)
(0.3845 -0.199169 7.45704e-20)
(0.439014 -0.182038 9.11989e-20)
(0.489738 -0.165995 -8.05821e-20)
(0.536882 -0.151246 2.09256e-20)
(0.580639 -0.137742 -2.91366e-20)
(0.621197 -0.125398 1.11943e-19)
(0.658743 -0.114122 -3.50578e-20)
(0.693457 -0.10383 -1.22482e-20)
(0.72551 -0.094438 -7.09856e-21)
(0.75507 -0.085872 -2.44871e-20)
(0.78233 -0.0780574 -5.92697e-20)
(0.807492 -0.0708844 -1.17588e-21)
(0.830563 -0.0642271 1.61733e-20)
(0.851197 -0.0581929 -1.5142e-20)
(0.0266968 -0.0915112 -4.96734e-20)
(0.0806676 -0.205675 -2.08095e-20)
(0.147919 -0.2643 1.18058e-19)
(0.216163 -0.283458 6.45462e-20)
(0.28144 -0.278529 2.67289e-20)
(0.342686 -0.261808 -8.186e-20)
(0.399697 -0.24118 -9.37865e-20)
(0.452725 -0.220498 1.11109e-20)
(0.502072 -0.201112 2.14375e-20)
(0.547963 -0.183283 1.59512e-20)
(0.590587 -0.166957 5.19909e-20)
(0.630121 -0.152029 -1.14175e-19)
(0.666745 -0.138392 1.71186e-21)
(0.70063 -0.12594 3.93005e-20)
(0.731936 -0.114576 2.26552e-21)
(0.76082 -0.10421 -7.69278e-21)
(0.78748 -0.0947489 -1.93918e-20)
(0.81214 -0.0860589 7.18857e-20)
(0.834765 -0.0779976 -3.08199e-20)
(0.854778 -0.070727 2.48633e-20)
(0.0341506 -0.10607 7.84689e-20)
(0.097116 -0.238954 -4.13422e-20)
(0.168647 -0.307653 -4.755e-20)
(0.238077 -0.330466 -4.43114e-20)
(0.302724 -0.325096 -8.70328e-20)
(0.362467 -0.305821 -1.11084e-20)
(0.4177 -0.281866 1.51516e-20)
(0.468974 -0.257784 -3.38634e-20)
(0.516693 -0.235186 4.84543e-20)
(0.561102 -0.214395 4.01121e-21)
(0.602383 -0.195351 -2.02314e-20)
(0.640706 -0.177934 9.22615e-20)
(0.676238 -0.162019 2.69338e-20)
(0.709141 -0.147484 -2.64349e-20)
(0.739562 -0.134215 5.82326e-20)
(0.767647 -0.122108 -6.11868e-20)
(0.793595 -0.111054 -6.47587e-21)
(0.817656 -0.100893 7.46152e-21)
(0.839752 -0.0914689 8.31802e-20)
(0.85905 -0.0830157 -4.61612e-20)
(0.0425883 -0.119631 2.65433e-20)
(0.11582 -0.270243 3.13641e-20)
(0.192298 -0.348722 1.37341e-19)
(0.263153 -0.375266 5.78933e-20)
(0.327127 -0.369675 1.9866e-19)
(0.385177 -0.348083 1.66666e-20)
(0.438387 -0.321012 9.24399e-20)
(0.487652 -0.293705 6.40659e-20)
(0.533503 -0.268048 -1.36992e-19)
(0.576211 -0.24443 -2.16597e-20)
(0.615953 -0.222791 -5.03765e-20)
(0.652886 -0.202994 -6.24129e-20)
(0.687165 -0.184898 2.05207e-20)
(0.718939 -0.168367 6.36117e-20)
(0.748345 -0.153271 -5.57174e-20)
(0.775511 -0.139494 -4.86344e-20)
(0.800639 -0.12691 4.73302e-20)
(0.824007 -0.11533 -6.28371e-20)
(0.845498 -0.10459 -8.9556e-20)
(0.864001 -0.0950116 -2.39715e-20)
(0.0518959 -0.132071 -7.67291e-20)
(0.136564 -0.299286 -7.75241e-20)
(0.218634 -0.387207 -4.0793e-20)
(0.291166 -0.417565 -9.64772e-20)
(0.354458 -0.412 -4.74682e-20)
(0.410653 -0.388361 -1.11811e-19)
(0.461614 -0.35841 -9.71137e-20)
(0.508634 -0.328079 3.61524e-20)
(0.552393 -0.299536 5.56556e-20)
(0.593195 -0.273244 -9.7285e-20)
(0.631211 -0.249147 6.06031e-20)
(0.666585 -0.227094 -4.0267e-20)
(0.699458 -0.20693 -5.38026e-20)
(0.729968 -0.188501 -5.6101e-20)
(0.758234 -0.171666 1.57054e-19)
(0.784369 -0.156299 6.93545e-20)
(0.808574 -0.142255 1.65086e-20)
(0.831157 -0.129317 -7.1132e-20)
(0.851973 -0.117311 1.48412e-19)
(0.869613 -0.106668 5.49206e-20)
(0.0619467 -0.14328 -9.88119e-20)
(0.159103 -0.32585 1.13153e-19)
(0.247385 -0.422828 1.10449e-19)
(0.321868 -0.457086 1.16244e-19)
(0.384499 -0.45182 6.97929e-20)
(0.438707 -0.426433 1.69422e-20)
(0.48722 -0.393866 1.11262e-19)
(0.531779 -0.360734 -1.34593e-19)
(0.573239 -0.329498 -3.75628e-20)
(0.611944 -0.300704 -3.11371e-20)
(0.648061 -0.274302 1.39193e-19)
(0.681719 -0.25013 -1.91047e-20)
(0.713044 -0.228019 1.63113e-20)
(0.74216 -0.207803 3.28582e-21)
(0.769171 -0.189328 5.55162e-20)
(0.794171 -0.172457 -6.90843e-20)
(0.817355 -0.157032 1.37576e-20)
(0.839067 -0.142803 1.55863e-19)
(0.859143 -0.129587 -2.24974e-20)
(0.875867 -0.11794 -9.88653e-20)
(0.0726027 -0.153162 -5.80493e-20)
(0.183173 -0.349726 1.95679e-20)
(0.278256 -0.455331 -1.17434e-19)
(0.354982 -0.493573 -5.77334e-20)
(0.417008 -0.488901 -7.62158e-20)
(0.469136 -0.462095 -6.06364e-21)
(0.515029 -0.427203 -1.48958e-19)
(0.556934 -0.391514 1.31064e-19)
(0.595905 -0.357794 5.7212e-20)
(0.632338 -0.326684 2.42996e-20)
(0.666397 -0.298145 -1.34763e-19)
(0.698194 -0.272004 2.40688e-20)
(0.727841 -0.24808 -1.66705e-20)
(0.755445 -0.226195 -7.2158e-20)
(0.781095 -0.206186 -6.72339e-20)
(0.804862 -0.187907 1.09474e-19)
(0.826935 -0.171188 5.47061e-20)
(0.847693 -0.155744 -3.17754e-20)
(0.866971 -0.141375 -8.70632e-20)
(0.88274 -0.128785 1.3161e-20)
(0.0837165 -0.161638 7.87692e-20)
(0.208485 -0.370729 3.52731e-20)
(0.310924 -0.484487 4.29189e-20)
(0.390204 -0.526793 4.89365e-20)
(0.451724 -0.523029 -5.17218e-20)
(0.501715 -0.495157 1.15741e-19)
(0.54485 -0.458255 -1.1487e-19)
(0.583931 -0.420275 -4.38089e-21)
(0.620244 -0.384298 9.10311e-20)
(0.654248 -0.351072 1.89055e-20)
(0.686104 -0.320574 7.96997e-20)
(0.715911 -0.292625 -3.32448e-20)
(0.743761 -0.267032 2.05498e-20)
(0.769746 -0.243607 1.32236e-19)
(0.793937 -0.222178 -8.11744e-21)
(0.816383 -0.202594 -3.85697e-20)
(0.837262 -0.184674 -8.1191e-20)
(0.85699 -0.168095 -1.31825e-19)
(0.875418 -0.152637 -1.99827e-20)
(0.890207 -0.139165 1.30647e-19)
(0.0951324 -0.168642 9.00574e-20)
(0.234732 -0.388705 2.38541e-21)
(0.345044 -0.510095 -1.66225e-19)
(0.427211 -0.55654 6.54092e-20)
(0.488362 -0.554011 6.58429e-22)
(0.536203 -0.525452 7.09741e-20)
(0.576475 -0.486877 6.77782e-20)
(0.61259 -0.446887 -5.51746e-21)
(0.646099 -0.408896 -3.85364e-20)
(0.677534 -0.373767 -1.33255e-19)
(0.707061 -0.341501 4.05542e-20)
(0.734762 -0.311913 1.66892e-19)
(0.76071 -0.284804 -1.1707e-19)
(0.78498 -0.259975 -9.61782e-20)
(0.807626 -0.237248 -6.00475e-20)
(0.828672 -0.216467 -1.42666e-19)
(0.848281 -0.197444 4.13231e-20)
(0.866906 -0.179821 1.9713e-19)
(0.88444 -0.16334 -2.93735e-20)
(0.898239 -0.149045 -3.707e-20)
(0.106689 -0.174129 3.66369e-20)
(0.261591 -0.403529 -5.9408e-20)
(0.380248 -0.531985 5.10257e-20)
(0.465653 -0.582631 -8.29905e-20)
(0.52662 -0.581679 9.11438e-20)
(0.572343 -0.552828 -9.22862e-20)
(0.609685 -0.512938 -2.31106e-20)
(0.642722 -0.47124 9.96516e-20)
(0.673302 -0.431489 -7.59771e-20)
(0.70205 -0.394681 8.46581e-20)
(0.729139 -0.360846 -9.97207e-20)
(0.754633 -0.329799 -5.8116e-20)
(0.778588 -0.301333 -4.02864e-20)
(0.801061 -0.275243 6.27302e-20)
(0.822085 -0.251344 1.29918e-20)
(0.841662 -0.22948 7.6733e-20)
(0.859932 -0.209459 -5.10963e-20)
(0.87739 -0.190885 -3.67343e-21)
(0.893993 -0.173454 7.62043e-20)
(0.906806 -0.158395 -3.47649e-20)
(0.11822 -0.178068 -8.5926e-21)
(0.288728 -0.415107 -3.49841e-20)
(0.41615 -0.55002 -6.51688e-21)
(0.505165 -0.604915 -1.81901e-20)
(0.566178 -0.605885 -6.24082e-20)
(0.609865 -0.577159 -5.33928e-20)
(0.644252 -0.536328 -3.48778e-20)
(0.674129 -0.493236 -4.91553e-20)
(0.701682 -0.451993 1.02003e-19)
(0.727644 -0.413739 1.0411e-20)
(0.752203 -0.378542 1.56511e-19)
(0.775408 -0.346222 4.83258e-20)
(0.797292 -0.316565 5.22969e-20)
(0.817897 -0.289363 -8.33051e-20)
(0.837237 -0.264423 1.26295e-19)
(0.855285 -0.241593 -2.22652e-20)
(0.872156 -0.220683 -1.37202e-20)
(0.888384 -0.201263 -1.08637e-19)
(0.904025 -0.182963 4.99224e-20)
(0.915877 -0.167195 -4.04987e-20)
(0.129559 -0.180452 -6.3292e-20)
(0.315795 -0.42338 -2.95795e-20)
(0.452349 -0.564097 -4.25116e-20)
(0.545362 -0.623269 -3.68332e-20)
(0.606699 -0.62651 -1.03247e-20)
(0.648484 -0.598336 1.04566e-19)
(0.679934 -0.556957 9.1493e-20)
(0.706604 -0.512799 7.68493e-20)
(0.731057 -0.470339 -7.91729e-20)
(0.754158 -0.430879 -4.54804e-20)
(0.776115 -0.394535 -1.62155e-19)
(0.796963 -0.361132 1.25642e-19)
(0.816716 -0.330456 -4.84245e-20)
(0.835395 -0.302293 8.69873e-20)
(0.852999 -0.276449 -6.46131e-20)
(0.869471 -0.252771 2.38716e-20)
(0.884888 -0.231079 -3.15291e-20)
(0.899824 -0.210917 9.6484e-20)
(0.914479 -0.191836 -7.55354e-20)
(0.925419 -0.175424 -3.30999e-20)
(0.140537 -0.181287 6.64667e-20)
(0.342442 -0.428323 -2.45352e-20)
(0.488431 -0.574149 4.94515e-20)
(0.585845 -0.637601 5.31716e-20)
(0.647833 -0.643459 -1.56461e-20)
(0.687905 -0.616275 -1.09894e-19)
(0.716484 -0.574754 7.87297e-20)
(0.739935 -0.529869 -1.65993e-20)
(0.761242 -0.486476 2.48662e-20)
(0.78143 -0.446056 3.10733e-20)
(0.800733 -0.408783 -6.16419e-20)
(0.819175 -0.374492 -1.47246e-19)
(0.836749 -0.342971 6.58328e-21)
(0.853458 -0.314003 -1.49566e-20)
(0.869287 -0.287392 4.17102e-21)
(0.884149 -0.262991 7.30558e-20)
(0.898066 -0.240632 -7.0344e-20)
(0.911642 -0.219851 -1.06704e-19)
(0.925286 -0.200111 -2.70483e-20)
(0.935406 -0.183123 5.51785e-20)
(0.150988 -0.180602 1.30676e-21)
(0.368313 -0.429946 -1.91925e-20)
(0.523974 -0.580145 7.97906e-21)
(0.6262 -0.647852 -3.73024e-20)
(0.689217 -0.656665 -1.42812e-20)
(0.727823 -0.630916 -8.22985e-21)
(0.753646 -0.589667 1.50416e-20)
(0.773905 -0.544404 -5.63199e-20)
(0.792051 -0.500368 -1.3839e-20)
(0.809294 -0.459239 3.72568e-20)
(0.825911 -0.421257 2.55645e-20)
(0.841916 -0.386275 9.03539e-20)
(0.857282 -0.354084 8.92936e-20)
(0.871992 -0.324468 -2.31654e-20)
(0.886017 -0.297229 5.96816e-21)
(0.89925 -0.27222 2.37867e-20)
(0.911639 -0.249289 9.07751e-20)
(0.923778 -0.227965 1.05304e-19)
(0.936361 -0.207641 1.16504e-19)
(0.945829 -0.190181 -1.57084e-20)
(0.160752 -0.178444 -1.12718e-20)
(0.393056 -0.428298 6.31014e-21)
(0.558549 -0.582093 8.23867e-21)
(0.666005 -0.653997 7.63824e-21)
(0.730476 -0.666089 -2.29818e-20)
(0.767924 -0.64222 9.49676e-20)
(0.791159 -0.601668 -3.15881e-20)
(0.808293 -0.556382 6.4838e-21)
(0.823293 -0.511998 -4.5444e-20)
(0.837586 -0.470409 -4.33204e-21)
(0.851504 -0.431941 7.91808e-20)
(0.865059 -0.396466 -4.11966e-20)
(0.878203 -0.363781 -1.53508e-20)
(0.890896 -0.333675 -3.62719e-20)
(0.903101 -0.305949 3.36736e-20)
(0.914696 -0.280461 -6.91573e-20)
(0.925548 -0.257081 2.60124e-20)
(0.936148 -0.235377 -1.8112e-20)
(0.947517 -0.21474 6.4978e-21)
(0.956643 -0.197124 3.15688e-20)
(0.169673 -0.174879 1.49042e-20)
(0.416322 -0.423461 -2.94732e-21)
(0.591726 -0.58004 -4.90375e-21)
(0.70483 -0.656045 4.04271e-21)
(0.771229 -0.671719 1.12923e-20)
(0.807888 -0.650175 -4.79722e-20)
(0.828759 -0.610747 -7.14686e-21)
(0.842878 -0.565799 -3.67716e-20)
(0.854778 -0.521362 5.53503e-20)
(0.866139 -0.479567 4.2294e-20)
(0.877368 -0.440832 -7.41938e-20)
(0.888478 -0.40506 5.5925e-20)
(0.8994 -0.372057 -4.76777e-20)
(0.910075 -0.341616 1.14758e-20)
(0.920453 -0.313542 -1.52071e-19)
(0.930417 -0.287687 5.87747e-21)
(0.939771 -0.263923 -5.19096e-20)
(0.948801 -0.241805 -7.49173e-20)
(0.958715 -0.220681 -4.45528e-20)
(0.968105 -0.202714 -7.21264e-20)
(0.177619 -0.169997 2.52075e-20)
(0.437766 -0.41555 -4.38798e-20)
(0.623077 -0.574071 1.68573e-20)
(0.742241 -0.654041 2.30694e-20)
(0.811086 -0.673574 1.00763e-20)
(0.847387 -0.654789 1.21019e-20)
(0.866178 -0.616916 -8.28394e-21)
(0.877438 -0.572669 -9.87324e-21)
(0.886317 -0.528478 -6.34965e-21)
(0.894789 -0.486725 -2.52304e-20)
(0.903358 -0.447941 1.90779e-20)
(0.912044 -0.412066 -5.25086e-20)
(0.920764 -0.378916 4.54366e-20)
(0.929434 -0.348296 4.50799e-20)
(0.93799 -0.320012 8.19502e-20)
(0.94633 -0.293913 2.84919e-20)
(0.95425 -0.269867 5.62223e-20)
(0.961779 -0.247535 6.14093e-20)
(0.969731 -0.226847 5.4456e-20)
(0.97884 -0.210031 2.56991e-20)
(0.184503 -0.163906 5.76491e-20)
(0.457051 -0.40469 -1.75197e-20)
(0.652181 -0.564319 -2.73599e-20)
(0.777804 -0.648065 -6.166e-20)
(0.849652 -0.671701 4.47236e-21)
(0.886092 -0.656096 2.01285e-20)
(0.903146 -0.620206 9.48994e-21)
(0.911752 -0.577025 -4.82127e-22)
(0.917722 -0.533374 -1.53619e-20)
(0.923376 -0.491911 -5.65588e-21)
(0.929334 -0.453292 5.32648e-20)
(0.935636 -0.417503 1.19936e-20)
(0.942187 -0.384376 8.27812e-21)
(0.948881 -0.353725 -3.48105e-20)
(0.955632 -0.325368 -1.06308e-19)
(0.962353 -0.299149 3.27638e-20)
(0.968876 -0.274929 2.13849e-20)
(0.975058 -0.25248 -6.22925e-20)
(0.981211 -0.23202 -3.50901e-20)
(0.988696 -0.214395 -1.83381e-20)
(0.190193 -0.15661 -6.56155e-20)
(0.473894 -0.391019 4.42111e-20)
(0.678623 -0.550981 -9.26779e-20)
(0.811091 -0.638234 5.44119e-21)
(0.886533 -0.666175 3.4683e-20)
(0.923669 -0.654152 -4.77856e-20)
(0.939395 -0.620668 -2.67195e-20)
(0.9456 -0.578915 1.77051e-21)
(0.948812 -0.5361 9.48219e-21)
(0.95174 -0.495166 1.22298e-20)
(0.955157 -0.45692 -3.13126e-20)
(0.959133 -0.4214 -5.87406e-20)
(0.963563 -0.388459 2.06961e-20)
(0.968323 -0.357924 1.95642e-20)
(0.973304 -0.329624 5.34226e-20)
(0.978422 -0.303403 -8.45533e-21)
(0.983559 -0.279104 -2.33544e-22)
(0.988522 -0.256579 2.07442e-21)
(0.993198 -0.236225 -4.42693e-21)
(0.99879 -0.218124 -7.72722e-20)
(0.194513 -0.148269 8.44044e-20)
(0.488042 -0.374881 9.09347e-20)
(0.701969 -0.534238 9.56155e-20)
(0.841713 -0.624695 2.64506e-20)
(0.92134 -0.657099 -3.74286e-20)
(0.959784 -0.649036 -2.84887e-20)
(0.974655 -0.618371 -1.27598e-20)
(0.978767 -0.578407 1.2148e-20)
(0.979407 -0.536715 2.15898e-21)
(0.979732 -0.496547 -6.66643e-21)
(0.980697 -0.458874 4.24906e-21)
(0.982418 -0.423799 2.35348e-20)
(0.98479 -0.391201 -2.13529e-20)
(0.987671 -0.360921 4.90031e-22)
(0.990932 -0.332802 -1.20139e-20)
(0.99448 -0.30669 -7.70315e-21)
(0.998247 -0.282415 3.04296e-21)
(1.00205 -0.259885 -1.1946e-20)
(1.00551 -0.239649 1.25407e-20)
(1.00947 -0.221344 6.78653e-20)
(0.197394 -0.13911 5.74374e-20)
(0.499253 -0.356523 -1.73264e-19)
(0.721811 -0.514311 8.84387e-20)
(0.86919 -0.60766 2.76524e-20)
(0.953705 -0.644592 -6.8464e-20)
(0.994105 -0.640843 4.3633e-20)
(1.00866 -0.613399 1.1967e-20)
(1.01104 -0.575579 -3.7759e-20)
(1.00934 -0.535296 4.94791e-21)
(1.0072 -0.496122 -4.18319e-21)
(1.00583 -0.459212 5.58504e-21)
(1.00538 -0.42475 4.11959e-21)
(1.00577 -0.392644 9.26566e-21)
(1.00684 -0.362753 -1.77588e-20)
(1.00844 -0.334933 9.98189e-21)
(1.01047 -0.30904 -2.75811e-21)
(1.0129 -0.284896 1.02282e-20)
(1.01556 -0.262449 -3.56733e-22)
(1.01793 -0.242352 1.42905e-20)
(1.02045 -0.223993 -2.08233e-20)
(0.198807 -0.129311 -8.52356e-21)
(0.507298 -0.336203 -6.40326e-20)
(0.737894 -0.491509 -5.60396e-20)
(0.893026 -0.58733 3.3233e-20)
(0.983209 -0.628825 -7.17743e-21)
(1.02631 -0.629681 3.79873e-20)
(1.04113 -0.605851 2.06294e-20)
(1.04221 -0.570525 1.06739e-20)
(1.03843 -0.531931 3.84197e-21)
(1.03402 -0.49397 4.56162e-21)
(1.03042 -0.458005 1.03392e-20)
(1.02792 -0.424314 -1.76137e-21)
(1.02641 -0.392841 1.25123e-21)
(1.02575 -0.363463 4.04102e-21)
(1.02576 -0.336055 -1.23686e-20)
(1.02634 -0.310485 2.1604e-20)
(1.02746 -0.286576 -1.54336e-20)
(1.029 -0.264291 -1.20084e-20)
(1.03029 -0.244347 -6.64884e-21)
(1.0315 -0.22603 -1.03879e-20)
(0.198734 -0.119015 -2.22854e-20)
(0.51199 -0.314227 1.37638e-19)
(0.749961 -0.466129 4.62416e-20)
(0.912885 -0.563971 -1.29009e-19)
(1.00937 -0.609992 -2.52748e-20)
(1.05605 -0.615685 4.3072e-20)
(1.07182 -0.595839 1.90299e-20)
(1.07206 -0.56335 5.33489e-20)
(1.06653 -0.526718 -2.86519e-21)
(1.06004 -0.490182 4.1268e-21)
(1.05438 -0.455333 -7.24178e-21)
(1.04993 -0.422559 -6.59227e-21)
(1.04663 -0.39185 -6.1868e-22)
(1.04432 -0.363103 4.23733e-21)
(1.04283 -0.336212 -8.55438e-22)
(1.04202 -0.311062 -1.9581e-20)
(1.04189 -0.287481 -1.22643e-20)
(1.04231 -0.265431 1.28914e-20)
(1.04256 -0.245657 6.14092e-21)
(1.04252 -0.227467 -2.73021e-21)
(0.197161 -0.108364 1.26938e-19)
(0.513203 -0.290922 -1.81516e-19)
(0.757724 -0.438522 -1.63284e-19)
(0.928496 -0.537863 2.00273e-19)
(1.03182 -0.588301 5.13135e-20)
(1.08293 -0.599034 -3.24608e-20)
(1.10043 -0.583481 -6.30135e-20)
(1.10041 -0.554168 -6.60234e-20)
(1.09348 -0.519766 4.21284e-20)
(1.08515 -0.484857 9.61721e-21)
(1.07759 -0.451285 1.54182e-20)
(1.07133 -0.419562 1.08591e-20)
(1.06635 -0.389736 -4.19828e-21)
(1.06249 -0.361729 -1.50931e-21)
(1.05957 -0.335452 1.81021e-21)
(1.05746 -0.31081 6.80175e-21)
(1.05612 -0.287641 4.26969e-21)
(1.05546 -0.265897 -1.47252e-20)
(1.05471 -0.246322 -4.34757e-21)
(1.05351 -0.228342 5.257e-21)
(0.194094 -0.0975131 -1.37567e-19)
(0.510862 -0.266632 1.33431e-19)
(0.760937 -0.409065 6.36531e-24)
(0.939519 -0.509313 -4.54881e-20)
(1.05026 -0.563988 -8.40026e-21)
(1.10662 -0.579891 -1.045e-20)
(1.1267 -0.568932 -5.59827e-20)
(1.12703 -0.543104 5.75654e-20)
(1.11912 -0.51119 -7.64211e-20)
(1.10923 -0.478104 3.26631e-21)
(1.09996 -0.445956 -6.95757e-21)
(1.09204 -0.415407 -2.87267e-21)
(1.08549 -0.386571 2.64618e-21)
(1.08018 -0.359402 -1.31071e-20)
(1.07593 -0.333826 1.17165e-21)
(1.07259 -0.309772 2.22704e-21)
(1.07012 -0.287093 -6.02936e-21)
(1.06842 -0.26572 3.66875e-21)
(1.0667 -0.246383 1.63039e-21)
(1.06445 -0.228687 -7.38232e-21)
(0.189574 -0.0866274 2.09485e-20)
(0.504945 -0.241715 3.83296e-20)
(0.759425 -0.378157 7.10732e-20)
(0.945634 -0.478658 -3.73897e-20)
(1.06432 -0.537304 -1.05109e-19)
(1.12679 -0.558449 2.86837e-20)
(1.15032 -0.55234 4.74846e-20)
(1.15174 -0.53029 2.70436e-20)
(1.14333 -0.501114 6.32429e-20)
(1.13217 -0.470034 -1.47181e-20)
(1.12141 -0.43945 -6.50339e-21)
(1.11197 -0.410182 6.65205e-21)
(1.104 -0.382433 -1.68536e-20)
(1.09735 -0.356188 -1.89134e-20)
(1.09186 -0.331392 -8.06866e-21)
(1.08737 -0.307997 7.03493e-21)
(1.08383 -0.285876 3.09089e-21)
(1.08114 -0.264935 -1.12528e-21)
(1.07852 -0.245875 -1.19969e-21)
(1.07529 -0.228525 1.77764e-21)
(0.183665 -0.0758701 3.81669e-20)
(0.495489 -0.216533 7.85631e-21)
(0.753081 -0.346212 -9.8775e-20)
(0.946577 -0.446267 1.21434e-19)
(1.07366 -0.508525 2.2799e-20)
(1.14311 -0.534906 -1.1679e-19)
(1.17104 -0.53386 3.7886e-20)
(1.17431 -0.515863 -4.17965e-20)
(1.16596 -0.489658 9.1266e-22)
(1.15389 -0.460772 6.30069e-21)
(1.14184 -0.431874 1.50675e-20)
(1.13107 -0.403975 3.3807e-21)
(1.1218 -0.377403 4.05616e-20)
(1.11394 -0.352157 1.05582e-20)
(1.10731 -0.328209 -8.88173e-21)
(1.10177 -0.305535 -4.61462e-21)
(1.09722 -0.284032 7.88482e-22)
(1.09359 -0.263582 3.61221e-21)
(1.09014 -0.244832 -5.21473e-21)
(1.08602 -0.227874 -1.41397e-21)
(0.17646 -0.0653979 -4.44285e-20)
(0.482589 -0.191448 2.42235e-21)
(0.741869 -0.313661 2.06112e-20)
(0.942143 -0.412529 -5.02487e-20)
(1.07795 -0.477948 9.51798e-20)
(1.15524 -0.509473 4.76447e-20)
(1.18855 -0.51365 -4.50096e-20)
(1.19452 -0.49996 -2.6114e-20)
(1.18687 -0.476962 2.07199e-20)
(1.1743 -0.450424 -2.64215e-20)
(1.16121 -0.423323 2.05832e-20)
(1.14928 -0.3969 7.91159e-22)
(1.13885 -0.371565 1.21823e-21)
(1.1299 -0.347381 -1.05567e-20)
(1.12224 -0.324339 2.45285e-20)
(1.11573 -0.302438 -2.8786e-21)
(1.11026 -0.281604 6.83885e-21)
(1.10575 -0.261696 -8.0178e-21)
(1.10153 -0.243289 4.04196e-21)
(1.0966 -0.226755 -4.25181e-21)
(0.168077 -0.0553567 7.33624e-20)
(0.466403 -0.166818 8.36636e-20)
(0.725824 -0.280946 5.93267e-20)
(0.932183 -0.377853 -9.52128e-21)
(1.0769 -0.445891 9.82884e-21)
(1.16284 -0.482373 -6.68867e-22)
(1.20255 -0.491869 9.68229e-20)
(1.21217 -0.48271 -2.64964e-20)
(1.20588 -0.463143 1.55003e-20)
(1.19328 -0.439112 -7.6057e-20)
(1.17947 -0.413921 1.28625e-20)
(1.16656 -0.389042 2.75499e-20)
(1.15513 -0.36501 -9.78021e-21)
(1.1452 -0.341938 2.0974e-20)
(1.13661 -0.319843 -2.15069e-20)
(1.12923 -0.298761 2.94562e-20)
(1.12291 -0.278638 2.08463e-21)
(1.11759 -0.259322 -8.79058e-21)
(1.11267 -0.241285 -3.69838e-22)
(1.10702 -0.225196 7.90329e-21)
(0.158654 -0.0458786 -1.38364e-19)
(0.447151 -0.142981 3.34207e-20)
(0.705066 -0.248505 -1.34337e-20)
(0.916616 -0.342664 -8.79322e-20)
(1.07026 -0.412688 -2.82298e-20)
(1.16556 -0.453841 -5.36549e-20)
(1.21272 -0.468678 -4.2734e-20)
(1.22699 -0.464238 -4.2034e-20)
(1.22285 -0.448314 3.80384e-20)
(1.21073 -0.426957 1.51493e-20)
(1.19653 -0.403779 -4.59868e-20)
(1.18288 -0.380508 -7.45554e-21)
(1.1706 -0.357819 -3.68579e-21)
(1.15981 -0.335894 -1.73312e-20)
(1.15041 -0.314796 -2.47007e-21)
(1.14225 -0.294563 -5.17435e-21)
(1.13517 -0.275177 -2.38837e-20)
(1.12908 -0.256499 8.82991e-21)
(1.12356 -0.238854 1.29642e-20)
(1.11726 -0.223211 -2.89872e-21)
(0.148352 -0.0370783 4.75303e-21)
(0.425113 -0.120257 -6.02771e-20)
(0.679797 -0.216772 2.71239e-20)
(0.895442 -0.307394 -1.83549e-20)
(1.05781 -0.37869 2.16374e-20)
(1.16308 -0.42412 8.85363e-20)
(1.21873 -0.444241 -3.81439e-20)
(1.23873 -0.444666 8.29395e-20)
(1.23761 -0.432586 3.20062e-21)
(1.22657 -0.414066 3.462e-20)
(1.21235 -0.393003 3.4657e-21)
(1.19819 -0.371394 2.19247e-20)
(1.18524 -0.35008 4.20892e-21)
(1.17373 -0.329335 1.02731e-21)
(1.16362 -0.309257 -2.63077e-20)
(1.15476 -0.289894 4.47172e-21)
(1.14701 -0.271269 2.01793e-20)
(1.14023 -0.25328 5.89079e-22)
(1.13412 -0.236044 -7.95007e-21)
(1.12734 -0.220853 3.4439e-21)
(0.137345 -0.029051 1.6486e-20)
(0.400628 -0.0989309 4.80489e-20)
(0.650308 -0.186163 5.07618e-20)
(0.868745 -0.272483 -1.43545e-20)
(1.0394 -0.34426 6.05043e-20)
(1.15509 -0.393466 -1.18409e-20)
(1.22022 -0.418722 8.73612e-20)
(1.24708 -0.424108 -1.03226e-19)
(1.24996 -0.416056 -1.73285e-20)
(1.24067 -0.400537 -1.59594e-20)
(1.22687 -0.38169 -1.77638e-20)
(1.21246 -0.361795 -2.9086e-21)
(1.19901 -0.341884 7.44772e-21)
(1.18692 -0.322335 -2.14572e-20)
(1.17622 -0.303292 1.79134e-20)
(1.16676 -0.284819 -7.90545e-21)
(1.15843 -0.26697 -4.98195e-21)
(1.15104 -0.249675 -6.0195e-21)
(1.14435 -0.232889 -4.20079e-21)
(1.13729 -0.218067 -1.06646e-20)
(0.125821 -0.02187 7.62265e-20)
(0.374084 -0.0792523 -7.27917e-20)
(0.616977 -0.157069 8.62072e-21)
(0.836709 -0.238366 -9.67061e-21)
(1.01495 -0.309774 -2.27756e-20)
(1.14129 -0.362145 -4.32702e-20)
(1.21682 -0.392285 -5.45583e-21)
(1.25172 -0.402668 2.58846e-20)
(1.25965 -0.398809 1.03701e-20)
(1.25292 -0.386456 -1.34669e-20)
(1.24002 -0.369931 1.46463e-20)
(1.22567 -0.351802 -1.54318e-21)
(1.21191 -0.333315 -2.60651e-20)
(1.19938 -0.314971 3.6698e-20)
(1.18819 -0.296967 1.01031e-20)
(1.17824 -0.279394 -5.49168e-21)
(1.1694 -0.262325 6.7688e-21)
(1.16149 -0.245721 8.93343e-21)
(1.15428 -0.229483 8.67504e-21)
(1.14699 -0.215092 9.0864e-21)
(0.113974 -0.0155852 -7.84021e-20)
(0.345911 -0.0614246 5.93774e-20)
(0.58027 -0.129843 2.5303e-20)
(0.799625 -0.205468 -5.12039e-20)
(0.984461 -0.275619 -1.08344e-20)
(1.12142 -0.330434 -3.95481e-20)
(1.20815 -0.365101 1.54401e-20)
(1.25227 -0.380444 -2.47338e-20)
(1.26642 -0.380914 1.40018e-21)
(1.26312 -0.371891 3.36649e-21)
(1.25173 -0.357806 7.2923e-21)
(1.23779 -0.341498 -2.42873e-20)
(1.22393 -0.324452 2.4717e-20)
(1.21111 -0.307314 -1.7012e-20)
(1.19954 -0.290348 -3.89774e-21)
(1.18918 -0.273673 1.68366e-21)
(1.17992 -0.257384 -4.8876e-21)
(1.17158 -0.241474 -1.22913e-20)
(1.16392 -0.225817 -3.34132e-22)
(1.1563 -0.211835 -7.8745e-21)
(0.101999 -0.0102223 -9.37667e-21)
(0.31657 -0.0456013 -2.74829e-20)
(0.54073 -0.104794 -9.37886e-21)
(0.757896 -0.174193 1.47536e-20)
(0.948033 -0.242185 -8.55816e-21)
(1.09529 -0.298627 8.92357e-21)
(1.19382 -0.337342 2.01512e-20)
(1.24831 -0.357525 1.73392e-20)
(1.26991 -0.362424 1.35248e-20)
(1.27108 -0.356896 -3.04432e-21)
(1.26189 -0.345378 -7.13448e-21)
(1.24878 -0.330957 8.83178e-21)
(1.23507 -0.31537 -4.02685e-21)
(1.2221 -0.299433 5.63783e-21)
(1.21027 -0.283495 -2.86043e-21)
(1.1996 -0.267711 6.98197e-21)
(1.18999 -0.252194 -2.03291e-21)
(1.18128 -0.236972 7.35463e-21)
(1.17325 -0.221888 -2.23859e-21)
(1.1653 -0.208293 6.88446e-22)
(0.0900868 -0.00578302 -1.29495e-22)
(0.286541 -0.0318817 -1.27551e-22)
(0.498968 -0.0821743 -3.16215e-21)
(0.71204 -0.144918 1.55559e-20)
(0.90589 -0.209865 9.89184e-21)
(1.06276 -0.267031 -7.45816e-21)
(1.17345 -0.309195 -5.51323e-21)
(1.23938 -0.333996 -1.60931e-21)
(1.26974 -0.343376 -7.74215e-21)
(1.27652 -0.3415 -4.81876e-22)
(1.27035 -0.332692 3.58023e-22)
(1.25858 -0.320238 -3.30252e-21)
(1.24531 -0.306135 -2.05755e-21)
(1.23237 -0.291394 -4.71293e-21)
(1.22039 -0.276468 -5.17161e-21)
(1.20949 -0.26156 -4.50378e-22)
(1.19962 -0.246802 1.96012e-21)
(1.19062 -0.232256 2.11638e-21)
(1.18227 -0.217728 2.37019e-21)
(1.17405 -0.204505 3.54054e-21)
(0.0784186 -0.00224622 1.06894e-20)
(0.256307 -0.0203093 -1.64239e-21)
(0.455648 -0.0621747 -2.80334e-21)
(0.662687 -0.117978 7.09066e-21)
(0.858395 -0.179046 1.42443e-20)
(1.02381 -0.235971 -6.29919e-21)
(1.14668 -0.28086 -5.13444e-21)
(1.22497 -0.309945 -9.62276e-21)
(1.26542 -0.323791 -8.74086e-21)
(1.27909 -0.325712 1.62641e-21)
(1.27691 -0.319772 -1.49952e-21)
(1.2671 -0.309385 -7.00599e-22)
(1.25463 -0.296804 -3.6058e-21)
(1.24191 -0.283255 -5.91157e-21)
(1.22991 -0.269323 -1.45129e-21)
(1.21888 -0.255269 -4.66995e-22)
(1.20882 -0.24125 -1.07769e-22)
(1.19959 -0.227365 1.3429e-21)
(1.191 -0.213383 5.11883e-21)
(1.18259 -0.200505 4.40208e-21)
(0.06716 0.000430466 -6.42849e-21)
(0.226343 -0.0108715 -9.39788e-21)
(0.411469 -0.044916 -1.2521e-20)
(0.610574 -0.0936545 1.6494e-20)
(0.806058 -0.150101 1.59727e-20)
(0.978547 -0.205786 3.44686e-22)
(1.11324 -0.252561 6.13476e-21)
(1.20458 -0.285467 1.70626e-20)
(1.2564 -0.303682 1.86474e-20)
(1.27834 -0.309517 1.22815e-20)
(1.28129 -0.306615 -3.01988e-20)
(1.2742 -0.298421 1.24901e-20)
(1.26297 -0.287418 -6.03331e-21)
(1.25073 -0.275068 1.31415e-20)
(1.23885 -0.26211 -7.8264e-22)
(1.22778 -0.248886 -2.1803e-21)
(1.2176 -0.235582 1.39671e-21)
(1.20821 -0.222338 1.38671e-20)
(1.19944 -0.208898 -5.07829e-21)
(1.19092 -0.196323 3.28387e-22)
(0.0564574 0.00230782 -1.98649e-20)
(0.197094 -0.00350275 4.52479e-20)
(0.367141 -0.0304467 4.48379e-21)
(0.556522 -0.0721693 -5.68531e-20)
(0.749545 -0.123379 -1.0641e-20)
(0.927233 -0.176832 2.4759e-20)
(1.07291 -0.224548 -5.7398e-20)
(1.17766 -0.260676 -5.76114e-22)
(1.24206 -0.283059 5.40666e-21)
(1.27374 -0.29288 -1.12305e-21)
(1.28311 -0.293192 1.60299e-20)
(1.27968 -0.287344 -2.81891e-20)
(1.27025 -0.278003 4.51609e-21)
(1.25879 -0.266874 -1.11142e-20)
(1.2472 -0.254876 -9.31318e-21)
(1.2362 -0.242456 8.61525e-21)
(1.22598 -0.229838 -1.02771e-21)
(1.2165 -0.21721 -2.18501e-20)
(1.2076 -0.204311 6.45422e-22)
(1.19902 -0.19199 -1.15439e-20)
(0.0464332 0.00346164 1.53455e-20)
(0.16897 0.00191098 -2.51765e-20)
(0.323359 -0.0187419 -1.97753e-21)
(0.501413 -0.0536695 -4.71114e-20)
(0.689676 -0.0991888 -2.94393e-20)
(0.870327 -0.14947 2.41273e-20)