/*--------------------------------*- C++ -*----------------------------------*\
  =========                 |
  \\      /  F ield         | OpenFOAM: The Open Source CFD Toolbox
   \\    /   O peration     | Website:  https://openfoam.org
    \\  /    A nd           | Version:  7
     \\/     M anipulation  |
\*---------------------------------------------------------------------------*/
FoamFile
{
    version     2.0;
    format      ascii;
    class       volVectorField;
    location    "2.8";
    object      U;
}
// * * * * * * * * * * * * * * * * * * * * * * * * * * * * * * * * * * * * * //

dimensions      [0 1 -1 0 0 0 0];

internalField   nonuniform List<vector> 
344
(
(1.84215 -0.000715153 -6.93154e-16)
(1.84424 -0.000705404 -2.4994e-16)
(1.84631 -0.000695857 1.25577e-16)
(1.84834 -0.00068652 -4.64143e-16)
(1.85035 -0.000677402 1.44134e-16)
(1.85233 -0.000668514 5.82815e-17)
(1.85428 -0.00065987 7.24804e-16)
(1.85621 -0.000651486 -7.12111e-17)
(1.85811 -0.000643383 -9.37126e-17)
(1.86 -0.000635586 -2.45262e-16)
(1.86185 -0.000628124 -1.06383e-16)
(1.86369 -0.000621035 -3.00937e-16)
(1.86551 -0.000614361 -1.04393e-16)
(1.86731 -0.000608154 3.12327e-16)
(1.86909 -0.000602476 5.05237e-16)
(1.87085 -0.000597401 -5.6089e-16)
(1.8726 -0.000593017 6.6697e-16)
(1.87434 -0.000589429 -4.81916e-18)
(1.87607 -0.00058676 6.41261e-16)
(1.8778 -0.000585157 1.98195e-16)
(1.87952 -0.000584795 -2.79333e-16)
(1.88124 -0.000585878 -4.64958e-16)
(1.88296 -0.000588651 9.73027e-16)
(1.8847 -0.000593401 -7.2104e-17)
(1.88646 -0.000600465 5.95888e-16)
(1.88824 -0.000610245 7.41777e-16)
(1.89005 -0.000623209 1.96645e-16)
(1.8919 -0.000639912 -7.88536e-16)
(1.89382 -0.000661005 7.94055e-17)
(1.8958 -0.000687253 6.21268e-16)
(1.89786 -0.000719553 -1.53335e-16)
(1.90003 -0.000758958 1.34308e-15)
(1.90233 -0.000806699 1.78126e-16)
(1.90478 -0.000864217 1.02147e-15)
(1.90742 -0.000933194 2.32444e-16)
(1.91028 -0.00101559 -1.46072e-16)
(1.9134 -0.00111367 -8.52505e-16)
(1.91684 -0.0012301 -1.02361e-16)
(1.92065 -0.00136791 2.2905e-16)
(1.9249 -0.00153062 8.16395e-16)
(1.92967 -0.00172227 6.21979e-16)
(1.93505 -0.00194746 8.99914e-16)
(1.94115 -0.0022114 -7.06879e-17)
(1.94808 -0.00251996 1.21717e-16)
(1.956 -0.00287967 6.37813e-17)
(1.96506 -0.00329775 -5.54301e-17)
(1.97544 -0.00378199 7.84326e-16)
(1.98736 -0.0043407 1.0894e-15)
(2.00104 -0.00498248 1.29795e-16)
(2.01674 -0.00571591 -5.11735e-16)
(2.03475 -0.00654911 6.04322e-16)
(2.05536 -0.00748906 1.30457e-15)
(2.07892 -0.00854083 1.12474e-17)
(2.10575 -0.00970638 3.76245e-16)
(2.13618 -0.0109833 6.62758e-16)
(2.17055 -0.0123633 1.01577e-15)
(2.20915 -0.0138305 1.23056e-15)
(2.25219 -0.0153595 1.1095e-15)
(2.29982 -0.0169144 9.80806e-16)
(2.35205 -0.0184481 6.63115e-16)
(2.40876 -0.0199016 1.15067e-15)
(2.46962 -0.0212073 8.05483e-16)
(2.53408 -0.0222913 6.08292e-16)
(2.60139 -0.0230799 8.31908e-16)
(2.67058 -0.0235077 1.11804e-15)
(2.74048 -0.0235249 1.02535e-15)
(1.83906 -0.00165759 -2.18037e-15)
(1.84111 -0.00163497 -1.01422e-16)
(1.84314 -0.00161282 -1.61419e-15)
(1.84514 -0.00159116 -6.64413e-16)
(1.84711 -0.00157 1.96572e-16)
(1.84906 -0.00154938 8.64027e-16)
(1.85098 -0.00152933 1.60825e-15)
(1.85287 -0.00150988 -9.45574e-16)
(1.85475 -0.00149108 8.15233e-16)
(1.8566 -0.00147299 -1.1005e-15)
(1.85842 -0.00145568 7.6846e-16)
(1.86023 -0.00143924 -1.50994e-15)
(1.86201 -0.00142376 1.63923e-16)
(1.86378 -0.00140936 8.2381e-16)
(1.86553 -0.00139619 1.83264e-15)
(1.86727 -0.00138442 -1.84724e-16)
(1.86899 -0.00137426 1.50669e-15)
(1.87069 -0.00136594 -8.04814e-16)
(1.87239 -0.00135975 1.0158e-15)
(1.87409 -0.00135603 -6.81411e-16)
(1.87578 -0.00135519 4.03258e-16)
(1.87747 -0.00135771 7.54154e-16)
(1.87917 -0.00136414 1.89931e-15)
(1.88088 -0.00137516 -1.86041e-17)
(1.8826 -0.00139155 1.62494e-15)
(1.88435 -0.00141424 -5.41548e-16)
(1.88613 -0.00144432 8.77803e-16)
(1.88796 -0.00148307 -7.75022e-16)
(1.88984 -0.001532 6.5271e-16)
(1.89179 -0.0015929 1.43417e-15)
(1.89382 -0.00166783 1.91833e-15)
(1.89595 -0.00175926 2.82707e-15)
(1.89822 -0.00187003 3.16243e-16)
(1.90063 -0.00200349 1.904e-15)
(1.90323 -0.00216354 -1.6194e-16)
(1.90605 -0.00235473 1.40653e-15)
(1.90912 -0.00258237 -4.62505e-16)
(1.91251 -0.00285257 7.76227e-16)
(1.91627 -0.00317244 1.46789e-15)
(1.92046 -0.00355016 2.43975e-15)
(1.92517 -0.0039951 5.71674e-16)
(1.93048 -0.00451799 2.40464e-15)
(1.9365 -0.00513097 2.80137e-16)
(1.94335 -0.00584772 1.91804e-15)
(1.95117 -0.00668351 -1.11559e-16)
(1.96013 -0.00765517 1.17751e-15)
(1.97039 -0.00878098 1.78356e-15)
(1.98218 -0.0100804 2.90202e-15)
(1.99573 -0.0115737 7.05225e-16)
(2.01128 -0.0132811 2.07081e-15)
(2.02913 -0.0152219 5.04219e-16)
(2.04958 -0.0174129 1.74377e-15)
(2.07296 -0.0198664 5.91332e-16)
(2.09962 -0.0225877 1.09743e-15)
(2.12989 -0.025572 2.10795e-15)
(2.16411 -0.0288007 2.6438e-15)
(2.20258 -0.0322374 3.23571e-15)
(2.24554 -0.0358238 1.60265e-15)
(2.29315 -0.0394762 2.49705e-15)
(2.34544 -0.0430839 1.34072e-15)
(2.40229 -0.0465084 2.42277e-15)
(2.46337 -0.0495896 1.61541e-15)
(2.52817 -0.0521514 2.17369e-15)
(2.59591 -0.0540183 2.49184e-15)
(2.6656 -0.055033 3.26811e-15)
(2.73606 -0.0550761 2.63332e-15)
(1.83215 -0.00265153 2.6368e-15)
(1.83413 -0.00261523 3.03888e-15)
(1.83608 -0.0025797 2.99567e-15)
(1.838 -0.00254496 2.78876e-15)
(1.8399 -0.00251103 2.85082e-15)
(1.84178 -0.00247797 3.13122e-15)
(1.84362 -0.00244582 3.52606e-15)
(1.84545 -0.00241464 3.60607e-15)
(1.84725 -0.00238451 3.89677e-15)
(1.84903 -0.00235553 3.633e-15)
(1.85079 -0.00232779 3.78331e-15)
(1.85252 -0.00230145 3.50476e-15)
(1.85424 -0.00227666 3.61563e-15)
(1.85594 -0.0022536 3.85045e-15)
(1.85762 -0.00223253 4.32775e-15)
(1.85929 -0.00221369 4.23106e-15)
(1.86095 -0.00219744 4.58868e-15)
(1.86259 -0.00218415 4.20246e-15)
(1.86423 -0.00217428 4.24473e-15)
(1.86586 -0.00216839 4.19562e-15)
(1.86748 -0.00216711 4.20205e-15)
(1.86911 -0.00217123 4.41414e-15)
(1.87074 -0.00218164 4.79339e-15)
(1.87239 -0.00219942 4.62316e-15)
(1.87405 -0.00222582 4.91884e-15)
(1.87573 -0.00226235 4.62414e-15)
(1.87745 -0.00231074 4.56003e-15)
(1.87921 -0.00237307 4.65411e-15)
(1.88102 -0.00245177 4.63989e-15)
(1.8829 -0.0025497 4.68945e-15)
(1.88486 -0.00267019 4.91277e-15)
(1.88692 -0.00281719 5.09432e-15)
(1.8891 -0.00299529 5.14706e-15)
(1.89144 -0.00320989 5.18188e-15)
(1.89395 -0.00346726 4.85782e-15)
(1.89667 -0.00377474 5.00892e-15)
(1.89965 -0.00414087 4.86664e-15)
(1.90293 -0.00457553 5.02248e-15)
(1.90658 -0.0050902 4.73802e-15)
(1.91064 -0.00569808 5.24384e-15)
(1.91521 -0.00641435 5.15207e-15)
(1.92037 -0.00725638 5.54057e-15)
(1.92622 -0.00824388 5.23077e-15)
(1.93289 -0.00939909 5.56812e-15)
(1.94051 -0.0107469 5.28449e-15)
(1.94923 -0.0123148 5.05159e-15)
(1.95925 -0.0141328 5.26255e-15)
(1.97077 -0.016233 5.67545e-15)
(1.98401 -0.0186489 5.35067e-15)
(1.99923 -0.0214144 5.43872e-15)
(2.01673 -0.0245622 5.33082e-15)
(2.03682 -0.0281212 5.55861e-15)
(2.05982 -0.0321136 5.5481e-15)
(2.0861 -0.0365507 5.20706e-15)
(2.11601 -0.0414276 5.3543e-15)
(2.1499 -0.0467173 5.53842e-15)
(2.1881 -0.0523634 5.61495e-15)
(2.23089 -0.058274 5.55711e-15)
(2.27844 -0.0643136 5.70372e-15)
(2.33084 -0.0703017 5.60433e-15)
(2.38798 -0.0760081 5.5937e-15)
(2.44958 -0.0811649 5.55614e-15)
(2.51512 -0.0854729 5.57369e-15)
(2.58381 -0.0886313 5.61934e-15)
(2.65464 -0.0903669 5.89299e-15)
(2.72636 -0.0904692 5.68982e-15)
(1.82139 -0.00358498 6.10733e-15)
(1.82325 -0.00353569 6.31429e-15)
(1.82509 -0.00348745 6.52124e-15)
(1.8269 -0.00344029 5.35728e-15)
(1.82869 -0.00339425 5.70856e-15)
(1.83046 -0.00334939 6.01474e-15)
(1.8322 -0.00330578 6.34707e-15)
(1.83392 -0.00326349 6.61662e-15)
(1.83561 -0.00322264 6.77804e-15)
(1.83729 -0.00318335 6.96226e-15)
(1.83894 -0.00314577 7.05898e-15)
(1.84058 -0.00311009 7.1112e-15)
(1.84219 -0.00307651 7.11891e-15)
(1.8438 -0.00304531 7.22388e-15)
(1.84538 -0.00301679 7.38185e-15)
(1.84695 -0.00299134 7.58248e-15)
(1.84851 -0.0029694 7.73827e-15)
(1.85006 -0.00295149 7.71836e-15)
(1.8516 -0.00293825 7.71301e-15)
(1.85313 -0.00293042 7.67909e-15)
(1.85466 -0.00292888 7.72464e-15)
(1.85619 -0.00293468 7.81587e-15)
(1.85773 -0.00294906 8.06e-15)
(1.85928 -0.00297347 8.01029e-15)
(1.86085 -0.00300963 8.2896e-15)
(1.86244 -0.00305958 8.17572e-15)
(1.86405 -0.0031257 7.99541e-15)
(1.86571 -0.00321082 8.34292e-15)
(1.86742 -0.00331825 7.30318e-15)
(1.8692 -0.00345188 7.70414e-15)
(1.87105 -0.00361628 7.87497e-15)
(1.87301 -0.00381683 8.15176e-15)
(1.87507 -0.00405981 8.26577e-15)
(1.87729 -0.00435258 8.39902e-15)
(1.87967 -0.00470374 8.26506e-15)
(1.88226 -0.00512333 8.42204e-15)
(1.88509 -0.00562301 8.40805e-15)
(1.88822 -0.00621638 8.24509e-15)
(1.89169 -0.00691915 8.34511e-15)
(1.89557 -0.00774949 8.47976e-15)
(1.89993 -0.00872831 8.42721e-15)
(1.90486 -0.00987953 8.56605e-15)
(1.91046 -0.0112304 8.62611e-15)
(1.91685 -0.0128119 8.75804e-15)
(1.92416 -0.0146584 8.68402e-15)
(1.93255 -0.0168086 8.51989e-15)
(1.94219 -0.0193045 8.62458e-15)
(1.95329 -0.0221915 8.78901e-15)
(1.96607 -0.0255175 8.69922e-15)
(1.9808 -0.0293315 8.79333e-15)
(1.99777 -0.0336814 8.68043e-15)
(2.01729 -0.0386109 8.74655e-15)
(2.03971 -0.0441552 8.98889e-15)
(2.0654 -0.0503357 7.91066e-15)
(2.09474 -0.057152 8.12771e-15)
(2.12811 -0.0645737 8.28134e-15)
(2.16588 -0.0725295 8.14733e-15)
(2.20836 -0.0808979 8.27366e-15)
(2.2558 -0.0894934 8.31633e-15)
(2.30834 -0.0980653 8.25824e-15)
(2.36591 -0.106284 8.17658e-15)
(2.42829 -0.113764 8.17117e-15)
(2.49498 -0.12006 8.12499e-15)
(2.56516 -0.124723 7.99497e-15)
(2.63778 -0.127332 7.99413e-15)
(2.71148 -0.127557 7.71898e-15)
(1.80648 -0.00442248 4.74479e-15)
(1.8082 -0.00436134 4.92931e-15)
(1.80989 -0.00430151 5.0628e-15)
(1.81156 -0.00424304 4.8229e-15)
(1.81321 -0.00418597 4.89893e-15)
(1.81483 -0.00413038 5.10387e-15)
(1.81643 -0.00407635 5.38338e-15)
(1.81801 -0.00402399 5.42544e-15)
(1.81957 -0.00397342 5.58809e-15)
(1.82112 -0.0039248 5.71199e-15)
(1.82264 -0.00387831 5.95799e-15)
(1.82414 -0.00383418 5.95585e-15)
(1.82563 -0.00379268 5.94098e-15)
(1.8271 -0.00375415 6.08918e-15)
(1.82856 -0.00371897 6.15046e-15)
(1.83 -0.0036876 6.37536e-15)
(1.83144 -0.0036606 6.68453e-15)
(1.83286 -0.00363863 6.58567e-15)
(1.83428 -0.00362248 6.69614e-15)
(1.83569 -0.00361307 6.63729e-15)
(1.8371 -0.00361149 6.72247e-15)
(1.83851 -0.00361907 6.74832e-15)
(1.83993 -0.00363733 6.96219e-15)
(1.84135 -0.00366809 6.95641e-15)
(1.8428 -0.00371351 7.10053e-15)
(1.84426 -0.00377611 6.93891e-15)
(1.84575 -0.00385888 6.94925e-15)
(1.84729 -0.00396534 7.13745e-15)
(1.84887 -0.00409962 6.91719e-15)
(1.85051 -0.0042666 6.98818e-15)
(1.85223 -0.00447198 7.0107e-15)
(1.85403 -0.00472248 7.21125e-15)
(1.85596 -0.00502596 7.27436e-15)
(1.85801 -0.00539164 7.35066e-15)
(1.86023 -0.00583028 7.21526e-15)
(1.86264 -0.00635447 7.29402e-15)
(1.86528 -0.00697888 7.20162e-15)
(1.8682 -0.00772055 7.32323e-15)
(1.87145 -0.0085993 7.35014e-15)
(1.87509 -0.00963803 7.53629e-15)
(1.87918 -0.0108631 7.55419e-15)
(1.88382 -0.012305 7.62611e-15)
(1.88909 -0.0139982 7.60058e-15)
(1.89511 -0.0159821 7.77542e-15)
(1.90202 -0.0183011 7.62298e-15)
(1.90996 -0.0210047 7.57096e-15)
(1.9191 -0.0241476 7.71283e-15)
(1.92964 -0.0277892 7.85933e-15)
(1.94182 -0.0319928 7.66134e-15)
(1.95588 -0.0368242 7.9029e-15)
(1.97213 -0.0423489 7.71284e-15)
(1.99089 -0.048629 7.74912e-15)
(2.01251 -0.0557172 7.72457e-15)
(2.03739 -0.0636503 7.45565e-15)
(2.06593 -0.0724394 7.48909e-15)
(2.09855 -0.0820587 7.37553e-15)
(2.13568 -0.0924299 7.55404e-15)
(2.1777 -0.10341 7.3997e-15)
(2.22493 -0.114768 7.51508e-15)
(2.27758 -0.126186 7.42088e-15)
(2.33569 -0.137225 7.40935e-15)
(2.3991 -0.147373 7.39035e-15)
(2.46733 -0.156002 7.36181e-15)
(2.53959 -0.162486 7.28644e-15)
(2.61473 -0.166202 7.29086e-15)
(2.69124 -0.166652 7.09248e-15)
(2.81038 -0.023105 9.29071e-16)
(2.87892 -0.0222435 8.03994e-16)
(2.94426 -0.0209865 1.00665e-15)
(2.80653 -0.0540841 2.63144e-15)
(2.87561 -0.0520457 1.88584e-15)
(2.94142 -0.0490732 2.53209e-15)
(2.79811 -0.0888262 5.88745e-15)
(2.86841 -0.0854155 6.01757e-15)
(2.93525 -0.0804323 5.74217e-15)
(2.9974 -0.0741979 5.71323e-15)
(2.78528 -0.12522 7.71473e-15)
(2.8575 -0.12028 7.46089e-15)
(2.92597 -0.113033 7.11631e-15)
(2.98932 -0.103987 7.02485e-15)
)
;

boundaryField
{
    inlet
    {
        type            uniformFixedValue;
        uniformValue    constant (1 0 0);
        value           nonuniform 0();
    }
    outlet
    {
        type            pressureInletOutletVelocity;
        value           nonuniform 0();
    }
    wall
    {
        type            fixedValue;
        value           nonuniform 0();
    }
    wedge1
    {
        type            wedge;
    }
    wedge2
    {
        type            wedge;
    }
    axis
    {
        type            empty;
    }
    procBoundary2to1
    {
        type            processor;
        value           nonuniform List<vector> 5((1.84003 -0.0007251 -9.66371e-16) (1.83698 -0.00168068 -5.33599e-16) (1.83015 -0.00268856 2.67138e-15) (1.8195 -0.00363528 6.03327e-15) (1.80474 -0.00448489 4.78661e-15));
    }
    procBoundary2to3
    {
        type            processor;
        value           nonuniform List<vector> 5((3.00528 -0.019408 9.80705e-16) (3.0028 -0.0453478 2.69421e-15) (3.0028 -0.0453478 2.69421e-15) (3.05396 -0.0671148 5.59805e-15) (3.04659 -0.0937665 6.78038e-15));
    }
    procBoundary2to8
    {
        type            processor;
        value           nonuniform List<vector> 
71
(
(1.78703 -0.00513863 4.0752e-15)
(1.78857 -0.00506712 4.74913e-15)
(1.79009 -0.00499718 4.34367e-15)
(1.79159 -0.00492884 4.10414e-15)
(1.79306 -0.00486216 4.79267e-15)
(1.79452 -0.00479724 5.10977e-15)
(1.79596 -0.00473416 5.66308e-15)
(1.79738 -0.00467305 5.0493e-15)
(1.79877 -0.00461405 5.67812e-15)
(1.80016 -0.00455735 5.10317e-15)
(1.80152 -0.00450316 5.76165e-15)
(1.80287 -0.00445176 5.27988e-15)
(1.8042 -0.00440346 5.64444e-15)
(1.80552 -0.00435864 5.91883e-15)
(1.80683 -0.00431777 6.33391e-15)
(1.80813 -0.00428139 5.85161e-15)
(1.80941 -0.00425015 6.40051e-15)
(1.81069 -0.00422483 5.80214e-15)
(1.81196 -0.00420634 6.38752e-15)
(1.81322 -0.00419579 5.82075e-15)
(1.81449 -0.00419447 6.32673e-15)
(1.81575 -0.00420392 6.63202e-15)
(1.81703 -0.00422593 7.00339e-15)
(1.81831 -0.00426267 6.38988e-15)
(1.8196 -0.00431666 6.85443e-15)
(1.82092 -0.00439089 6.31937e-15)
(1.82227 -0.00448887 6.72408e-15)
(1.82365 -0.00461476 6.36996e-15)
(1.82507 -0.00477344 6.21942e-15)
(1.82655 -0.00497065 6.70429e-15)
(1.82811 -0.00521315 6.97852e-15)
(1.82975 -0.00550885 7.34721e-15)
(1.83149 -0.00586707 6.7002e-15)
(1.83336 -0.0062987 7.17711e-15)
(1.83537 -0.00681651 6.6637e-15)
(1.83757 -0.00743542 7.16598e-15)
(1.83999 -0.00817284 6.58005e-15)
(1.84266 -0.00904905 6.93459e-15)
(1.84564 -0.0100876 7.20342e-15)
(1.84898 -0.011316 7.65061e-15)
(1.85275 -0.0127656 6.98007e-15)
(1.85703 -0.0144731 7.41149e-15)
(1.8619 -0.01648 6.88517e-15)
(1.86748 -0.0188341 7.39997e-15)
(1.87389 -0.0215893 6.84164e-15)
(1.88127 -0.0248063 7.21813e-15)
(1.88979 -0.0285526 7.34391e-15)
(1.89965 -0.0329023 7.74217e-15)
(1.91107 -0.0379353 7.10824e-15)
(1.9243 -0.0437361 7.4251e-15)
(1.93965 -0.0503909 6.94943e-15)
(1.95743 -0.057984 7.32679e-15)
(1.97802 -0.0665913 6.95799e-15)
(2.00184 -0.0762725 6.62107e-15)
(2.02931 -0.0870595 6.99038e-15)
(2.06093 -0.0989418 7.05833e-15)
(2.09717 -0.111846 7.36864e-15)
(2.1385 -0.125621 6.75394e-15)
(2.18534 -0.14 7.14556e-15)
(2.23803 -0.154604 6.66571e-15)
(2.29673 -0.168875 6.89298e-15)
(2.36137 -0.18217 6.51633e-15)
(2.43158 -0.193618 6.58608e-15)
(2.50654 -0.202394 6.5228e-15)
(2.58505 -0.207567 6.61442e-15)
(2.66539 -0.208413 6.30022e-15)
(2.76796 -0.163569 7.25892e-15)
(2.76796 -0.163569 7.25892e-15)
(2.84295 -0.156868 7.06566e-15)
(2.91371 -0.146985 6.8563e-15)
(2.97869 -0.134695 6.76055e-15)
)
;
    }
}


// ************************************************************************* //
