/*--------------------------------*- C++ -*----------------------------------*\
  =========                 |
  \\      /  F ield         | OpenFOAM: The Open Source CFD Toolbox
   \\    /   O peration     | Website:  https://openfoam.org
    \\  /    A nd           | Version:  7
     \\/     M anipulation  |
\*---------------------------------------------------------------------------*/
FoamFile
{
    version     2.0;
    format      ascii;
    class       volScalarField;
    location    "2";
    object      p;
}
// * * * * * * * * * * * * * * * * * * * * * * * * * * * * * * * * * * * * * //

dimensions      [0 2 -2 0 0 0 0];

internalField   nonuniform List<scalar> 
433
(
-0.334577
-0.330365
-0.325793
-0.320844
-0.315481
-0.309692
-0.303691
-0.357714
-0.355875
-0.353787
-0.351438
-0.348813
-0.3459
-0.342683
-0.339149
-0.335283
-0.331073
-0.326505
-0.321564
-0.316209
-0.310414
-0.304465
-0.359247
-0.357381
-0.355268
-0.352896
-0.350253
-0.347323
-0.344093
-0.34055
-0.33668
-0.332469
-0.327907
-0.322982
-0.317637
-0.311817
-0.305946
-0.35961
-0.357459
-0.355053
-0.352379
-0.349423
-0.346173
-0.342615
-0.338735
-0.334522
-0.32997
-0.325066
-0.319736
-0.313901
-0.308262
-0.362528
-0.360324
-0.357871
-0.355155
-0.352163
-0.348882
-0.3453
-0.341404
-0.337184
-0.332638
-0.327756
-0.322434
-0.316572
-0.311212
-0.366093
-0.363823
-0.361307
-0.358535
-0.355493
-0.35217
-0.348553
-0.344631
-0.340396
-0.335851
-0.330988
-0.325671
-0.319764
-0.31472
-0.367906
-0.365313
-0.362469
-0.359363
-0.355982
-0.352316
-0.348354
-0.344091
-0.339535
-0.334684
-0.329362
-0.323389
-0.318699
-0.372523
-0.369836
-0.366904
-0.363716
-0.360261
-0.356529
-0.352509
-0.348199
-0.343616
-0.33876
-0.333415
-0.327349
-0.323039
-0.374828
-0.371789
-0.368501
-0.364951
-0.361132
-0.357033
-0.352653
-0.348018
-0.343134
-0.337738
-0.331541
-0.327627
-0.377078
-0.373669
-0.370003
-0.366072
-0.361867
-0.357389
-0.352671
-0.347725
-0.342241
-0.335864
-0.332342
-0.38273
-0.379179
-0.375375
-0.371306
-0.366965
-0.362354
-0.357513
-0.352462
-0.346838
-0.340216
-0.337065
-0.385003
-0.381036
-0.376802
-0.372291
-0.367506
-0.362494
-0.357282
-0.351451
-0.344498
-0.341671
-0.386969
-0.382542
-0.377826
-0.372821
-0.367581
-0.362138
-0.356011
-0.348613
-0.346028
-0.388525
-0.383568
-0.378296
-0.372763
-0.367003
-0.360467
-0.352467
-0.34999
-0.389541
-0.383955
-0.378058
-0.371879
-0.364785
-0.355967
-0.353377
-0.38986
-0.383531
-0.376819
-0.368982
-0.389344
-0.291808
-0.265296
-0.237943
-0.206744
-0.173679
-0.139988
-0.107127
-0.0765337
-0.0493888
-0.0265094
-0.00827882
0.00533881
0.0147259
0.0205021
0.0234049
0.0241813
0.0235074
-0.29319
-0.266422
-0.23906
-0.20783
-0.174726
-0.140986
-0.108058
-0.0773857
-0.0501508
-0.0271751
-0.00884657
0.00486597
0.0143409
0.0201953
0.0231649
0.0239967
0.0233672
-0.296014
-0.26856
-0.241259
-0.209974
-0.176796
-0.142959
-0.109903
-0.0790751
-0.0516635
-0.028498
-0.00997596
0.00392454
0.0135739
0.0195835
0.0226861
0.023628
0.0230872
-0.300155
-0.271659
-0.244483
-0.213123
-0.179841
-0.145867
-0.112626
-0.0815735
-0.0539048
-0.0304615
-0.0116549
0.0025229
0.0124305
0.0186703
0.0219706
0.0230766
0.0226681
-0.305522
-0.275653
-0.248648
-0.2172
-0.18379
-0.149648
-0.116177
-0.0848395
-0.0568421
-0.033041
-0.0138658
0.000673385
0.0109187
0.017461
0.0210218
0.0223445
0.022111
-0.311982
-0.280446
-0.253648
-0.222109
-0.188556
-0.154226
-0.120489
-0.08882
-0.060434
-0.0362054
-0.0165856
-0.00160802
0.00904953
0.0159626
0.0198438
0.0214341
0.0214173
-0.319375
-0.285926
-0.259362
-0.227737
-0.194036
-0.159509
-0.125487
-0.0934527
-0.0646312
-0.0399169
-0.0197871
-0.004302
0.00683587
0.0141834
0.018442
0.0203484
0.0205887
-0.327532
-0.291972
-0.265656
-0.23396
-0.200116
-0.165397
-0.131085
-0.098667
-0.0693778
-0.044133
-0.0234387
-0.00738629
0.00429286
0.0121332
0.0168223
0.0190912
0.0196272
-0.336277
-0.298455
-0.272388
-0.240644
-0.206675
-0.171784
-0.137191
-0.104387
-0.0746131
-0.0488068
-0.0275056
-0.0108362
0.00143738
0.00982315
0.0149916
0.0176663
0.0185351
-0.345436
-0.30525
-0.279413
-0.247656
-0.21359
-0.178557
-0.14371
-0.110533
-0.0802727
-0.0538883
-0.0319506
-0.0146247
-0.00171207
0.00726526
0.0129574
0.0160783
0.0173147
-0.354829
-0.312232
-0.286589
-0.254859
-0.220736
-0.185606
-0.150545
-0.117024
-0.0862905
-0.0593253
-0.0367339
-0.0187232
-0.00513552
0.00447279
0.0107282
0.0143321
0.0159688
0.016241
-0.364277
-0.319291
-0.29378
-0.26212
-0.227994
-0.192823
-0.1576
-0.123777
-0.0925991
-0.0650643
-0.0418147
-0.0231015
-0.00881183
0.00145985
0.00831264
0.0124328
0.0145003
0.0151213
-0.373589
-0.326329
-0.300858
-0.269316
-0.23525
-0.200103
-0.164784
-0.130715
-0.0991326
-0.0710523
-0.0471521
-0.0277297
-0.0127202
-0.00175999
0.00571915
0.0103852
0.0129113
0.0139062
-0.382536
-0.333262
-0.307708
-0.276326
-0.242398
-0.207351
-0.172012
-0.137763
-0.10583
-0.0772402
-0.0527085
-0.0325804
-0.0168418
-0.00517464
0.00295468
0.00819269
0.0112033
0.0125957
-0.214481
-0.179205
-0.14485
-0.112627
-0.0835739
-0.0584391
-0.0376177
-0.021149
-0.00876364
3.3865e-05
0.00586537
0.00938293
0.0111943
)
;

boundaryField
{
    inlet
    {
        type            zeroGradient;
    }
    outlet
    {
        type            fixedValue;
        value           nonuniform 0();
    }
    cylinder
    {
        type            zeroGradient;
    }
    top
    {
        type            symmetryPlane;
    }
    bottom
    {
        type            symmetryPlane;
    }
    defaultFaces
    {
        type            empty;
    }
    procBoundary22to16
    {
        type            processor;
        value           nonuniform List<scalar> 
33
(
-0.356941
-0.355115
-0.35304
-0.350702
-0.348087
-0.345181
-0.34197
-0.33844
-0.33844
-0.334577
-0.330365
-0.325793
-0.320844
-0.315481
-0.309692
-0.303691
-0.291808
-0.265296
-0.237943
-0.206744
-0.173679
-0.139988
-0.107127
-0.0765337
-0.0493888
-0.0265094
-0.00827882
0.0053388
0.0147259
0.0205021
0.0234049
0.0241813
0.0235074
)
;
    }
    procBoundary22to21
    {
        type            processor;
        value           nonuniform List<scalar> 
16
(
-0.359318
-0.360882
-0.361518
-0.361518
-0.364493
-0.368132
-0.37026
-0.37026
-0.374978
-0.377627
-0.377627
-0.380241
-0.380241
-0.386037
-0.388715
-0.388715
)
;
    }
    procBoundary22to23
    {
        type            processor;
        value           nonuniform List<scalar> 
16
(
0.0219407
0.0218354
0.021625
0.02131
0.0208909
0.0203684
0.0197434
0.019017
0.0181903
0.0172645
0.0172645
0.0156368
0.0147927
0.0138745
0.0128816
0.0118169
)
;
    }
    procBoundary22to27
    {
        type            processor;
        value           nonuniform List<scalar> 
11
(
-0.391122
-0.391122
-0.393171
-0.393171
-0.394768
-0.394768
-0.395796
-0.395796
-0.396138
-0.396138
-0.39575
)
;
    }
    procBoundary22to28
    {
        type            processor;
        value           nonuniform List<scalar> 
26
(
-0.359045
-0.355985
-0.390803
-0.382014
-0.359045
-0.373254
-0.382014
-0.390803
-0.340007
-0.31423
-0.283047
-0.249344
-0.249344
-0.221409
-0.186274
-0.151887
-0.119436
-0.0899689
-0.0642663
-0.042773
-0.0255833
-0.0124786
-0.00300446
0.00343366
0.00747349
0.00971942
)
;
    }
}


// ************************************************************************* //
