/*--------------------------------*- C++ -*----------------------------------*\
  =========                 |
  \\      /  F ield         | OpenFOAM: The Open Source CFD Toolbox
   \\    /   O peration     | Website:  https://openfoam.org
    \\  /    A nd           | Version:  7
     \\/     M anipulation  |
\*---------------------------------------------------------------------------*/
FoamFile
{
    version     2.0;
    format      ascii;
    class       volVectorField;
    location    "2";
    object      U;
}
// * * * * * * * * * * * * * * * * * * * * * * * * * * * * * * * * * * * * * //

dimensions      [0 1 -1 0 0 0 0];

internalField   nonuniform List<vector> 
433
(
(-0.0319992 -0.000996501 6.23389e-21)
(-0.0305017 -0.00134009 -7.67355e-21)
(-0.028535 -0.00168572 2.59025e-21)
(-0.0260811 -0.0020292 2.35716e-22)
(-0.023123 -0.00236628 1.52295e-22)
(-0.019646 -0.0026917 -3.05973e-21)
(-0.0157037 -0.00299841 5.93696e-21)
(-0.029522 0.00380918 -6.84901e-21)
(-0.0305434 0.00314633 3.8009e-21)
(-0.031339 0.00241879 -7.24992e-21)
(-0.0318735 0.00162975 -6.99209e-21)
(-0.032111 0.000783441 -1.94466e-21)
(-0.032016 -0.000114797 -6.4728e-21)
(-0.0315536 -0.00105838 3.85656e-21)
(-0.0306906 -0.00203937 -1.01825e-21)
(-0.0293962 -0.00304847 7.9643e-21)
(-0.027643 -0.00407497 -1.78972e-20)
(-0.0254089 -0.0051069 1.34809e-20)
(-0.0226771 -0.00613161 -4.89416e-21)
(-0.0194308 -0.00713615 1.4487e-21)
(-0.0156505 -0.0081045 2.64933e-21)
(-0.0114001 -0.00901559 -1.55419e-20)
(-0.0274993 0.00609057 1.53007e-21)
(-0.0282091 0.0049899 1.82863e-20)
(-0.0286697 0.00378242 -1.93614e-20)
(-0.0288452 0.00247351 1.42452e-20)
(-0.0286995 0.00107015 7.23032e-21)
(-0.0281965 -0.000418689 1.11504e-20)
(-0.0273009 -0.00198194 -1.88544e-21)
(-0.0259796 -0.00360625 -1.9557e-20)
(-0.0242019 -0.00527581 -1.15775e-20)
(-0.0219409 -0.00697237 1.08176e-20)
(-0.0191759 -0.00867547 8.79075e-21)
(-0.0158929 -0.0103634 3.39482e-20)
(-0.0120756 -0.0120131 -2.64194e-20)
(-0.00769505 -0.0135951 4.74927e-20)
(-0.00283319 -0.0150763 -4.14901e-20)
(-0.0246906 0.00646085 -2.44568e-20)
(-0.0246534 0.00478102 -2.89764e-20)
(-0.0242958 0.00296126 -2.32094e-20)
(-0.023581 0.00101139 3.437e-20)
(-0.0224722 -0.00105601 -6.17384e-20)
(-0.0209338 -0.0032253 5.13331e-20)
(-0.0189325 -0.00547748 -2.69189e-20)
(-0.0164378 -0.00778995 1.14521e-20)
(-0.0134236 -0.0101364 1.16301e-20)
(-0.00987095 -0.0124873 -4.28756e-21)
(-0.00576905 -0.014811 4.49166e-20)
(-0.00110086 -0.0170728 -1.62435e-20)
(0.00417392 -0.0192256 -5.90312e-20)
(0.0099226 -0.0212303 5.25863e-20)
(-0.0199664 0.00742661 8.35886e-21)
(-0.0192739 0.00528498 -5.17954e-20)
(-0.0182151 0.00296694 1.08407e-20)
(-0.016752 0.000485082 5.46531e-21)
(-0.0148473 -0.00214439 -1.23058e-20)
(-0.0124648 -0.00490117 2.68467e-21)
(-0.0095711 -0.00776039 1.045e-20)
(-0.00613601 -0.0106923 1.41843e-21)
(-0.00213468 -0.0136621 4.043e-20)
(0.00244922 -0.0166303 -2.3107e-20)
(0.00762198 -0.0195545 -3.10233e-20)
(0.0134019 -0.0223863 1.59136e-20)
(0.0198421 -0.0250589 1.34468e-20)
(0.0267446 -0.0275287 -3.57612e-20)
(-0.0140057 0.00777087 -3.87415e-20)
(-0.0125073 0.00518112 6.26659e-20)
(-0.0105866 0.00238089 -4.12507e-20)
(-0.00820469 -0.000614428 9.27046e-21)
(-0.00532333 -0.00378508 5.33182e-20)
(-0.00190599 -0.00710599 -3.47227e-20)
(0.002081 -0.0105462 6.7355e-20)
(0.0066671 -0.0140684 -2.10594e-20)
(0.0118756 -0.0176284 -3.47386e-20)
(0.0177191 -0.0211759 -8.40312e-21)
(0.0241976 -0.0246559 1.33969e-20)
(0.0313293 -0.0280039 -8.39063e-20)
(0.0391827 -0.031128 -1.48548e-20)
(0.0474842 -0.0339822 1.47094e-20)
(-0.00431941 0.00437711 -1.17965e-20)
(-0.00138516 0.00111453 9.94473e-21)
(0.00207611 -0.00237174 -1.686e-20)
(0.00610357 -0.00605835 5.18083e-21)
(0.0107342 -0.00991551 -1.42449e-20)
(0.0160017 -0.013906 4.62782e-20)
(0.0219346 -0.0179845 -4.22805e-20)
(0.028554 -0.0220964 -3.8739e-20)
(0.0358678 -0.0261793 8.06793e-20)
(0.0438681 -0.0301641 -7.67173e-20)
(0.0525711 -0.0339659 6.87992e-20)
(0.0620618 -0.037461 1.94089e-20)
(0.0719787 -0.0406045 4.05573e-20)
(0.00533524 0.00280571 6.6881e-20)
(0.00942499 -0.00089534 -4.7938e-20)
(0.0141152 -0.0048457 -8.40228e-20)
(0.0194458 -0.00901857 7.35851e-21)
(0.0254545 -0.0133796 1.52346e-19)
(0.0321745 -0.0178853 -8.19123e-20)
(0.0396332 -0.0224817 5.75707e-20)
(0.0478492 -0.0271033 2.72188e-20)
(0.0568246 -0.0316738 -1.07763e-19)
(0.0665416 -0.0361076 5.99337e-20)
(0.0770125 -0.0402957 1.04531e-20)
(0.088339 -0.0440735 -9.19652e-20)
(0.100059 -0.0473999 5.54152e-20)
(0.0218927 -0.00368247 7.82431e-20)
(0.0279495 -0.00806507 -1.96742e-19)
(0.0347272 -0.0126897 7.10912e-20)
(0.0422636 -0.0175174 2.40958e-22)
(0.0505916 -0.0224988 5.20584e-20)
(0.0597373 -0.0275711 1.48101e-20)
(0.069716 -0.0326569 8.21533e-20)
(0.0805233 -0.0376649 3.10367e-20)
(0.0921295 -0.0424904 -6.04184e-20)
(0.104541 -0.0469947 1.27388e-20)
(0.117875 -0.0509624 -6.00325e-20)
(0.131555 -0.0543574 4.63103e-20)
(0.0436304 -0.0120247 4.82055e-20)
(0.0519851 -0.0170604 -1.36028e-20)
(0.0611832 -0.0223123 -3.50963e-20)
(0.0712574 -0.027725 3.24769e-20)
(0.0822319 -0.0332274 -1.26472e-19)
(0.0941188 -0.03873 -3.21732e-20)
(0.106906 -0.0441247 -5.78127e-20)
(0.120551 -0.0492853 4.62027e-20)
(0.135051 -0.0540375 -9.19764e-20)
(0.150538 -0.0581029 8.44499e-21)
(0.166308 -0.0614493 3.11536e-20)
(0.0612243 -0.0166825 -3.0345e-20)
(0.0712719 -0.0220813 8.57677e-20)
(0.0822499 -0.0277076 9.42002e-21)
(0.09419 -0.0335012 7.33061e-20)
(0.107115 -0.0393836 -6.5946e-20)
(0.121034 -0.0452531 9.82219e-20)
(0.135926 -0.0509846 -7.60336e-20)
(0.151735 -0.0564278 2.14198e-20)
(0.168449 -0.0613662 1.08657e-19)
(0.186209 -0.065444 -1.36277e-19)
(0.204174 -0.0686285 1.56442e-20)
(0.0926558 -0.0276623 -1.43762e-20)
(0.105515 -0.0336036 -1.02344e-19)
(0.119423 -0.0397194 1.33614e-19)
(0.134399 -0.0459249 -3.53325e-20)
(0.150449 -0.0521084 1.08107e-20)
(0.167547 -0.058128 -2.5842e-20)
(0.185621 -0.0638078 -1.55667e-19)
(0.204649 -0.0688827 1.09536e-19)
(0.22478 -0.0729026 9.80074e-21)
(0.245024 -0.0758261 -6.74383e-20)
(0.131047 -0.0398567 3.92106e-20)
(0.147004 -0.0462231 -1.15084e-19)
(0.16411 -0.052685 1.35802e-19)
(0.182367 -0.059123 5.85079e-23)
(0.201745 -0.0653815 -7.88742e-20)
(0.222159 -0.07126 3.51048e-20)
(0.243575 -0.0764393 1.43013e-19)
(0.266155 -0.0803567 -1.32552e-19)
(0.288749 -0.0829479 -9.94682e-20)
(0.176997 -0.0528089 -4.53974e-20)
(0.196289 -0.059443 -9.83037e-21)
(0.216803 -0.0660633 -7.4403e-21)
(0.238504 -0.0725064 1.00486e-19)
(0.261301 -0.0785522 -4.83898e-20)
(0.285155 -0.083826 -1.10367e-19)
(0.310244 -0.0876335 1.49517e-19)
(0.335251 -0.0898676 -1.38008e-19)
(0.230992 -0.0659277 -3.65706e-19)
(0.253784 -0.0726335 1.13588e-19)
(0.277821 -0.0791899 1.0408e-19)
(0.30301 -0.0853694 -1.53599e-19)
(0.329317 -0.0907487 8.0111e-20)
(0.356953 -0.0944879 -1.43959e-19)
(0.38444 -0.0964104 5.55522e-20)
(0.293359 -0.0784826 -1.41252e-19)
(0.31971 -0.0850412 -7.61566e-20)
(0.347257 -0.0912963 -3.66945e-20)
(0.375992 -0.0967991 -3.05877e-20)
(0.364227 -0.0896114 2.66724e-20)
(-0.00740537 -0.0035741 1.03327e-21)
(0.00992928 -0.0052277 -6.91649e-22)
(0.0362045 -0.00685358 4.91122e-22)
(0.0703162 -0.00843289 -1.49016e-22)
(0.112827 -0.00982322 -1.06509e-21)
(0.163035 -0.0109212 7.60371e-22)
(0.219807 -0.0116626 -4.18507e-23)
(0.281615 -0.0120175 -3.61783e-22)
(0.346657 -0.0119914 1.16747e-22)
(0.413032 -0.0116189 5.23855e-23)
(0.478881 -0.010956 -3.12086e-23)
(0.542509 -0.0100716 6.4261e-24)
(0.602493 -0.00903981 -2.73607e-23)
(0.657739 -0.00793361 3.78238e-23)
(0.707526 -0.00681907 1.14076e-24)
(0.751505 -0.00575115 -4.91903e-23)
(0.789664 -0.00477077 1.11504e-22)
(-0.00265498 -0.0107259 4.29491e-21)
(0.0147812 -0.0156906 -3.39282e-21)
(0.0413382 -0.0205411 -2.07169e-21)
(0.0756001 -0.0252588 2.38888e-21)
(0.118149 -0.0294113 -3.00903e-21)
(0.168268 -0.0326891 2.26246e-22)
(0.224821 -0.0349014 1.75008e-21)
(0.286292 -0.0359587 -1.40952e-22)
(0.350903 -0.0358782 -7.08394e-23)
(0.416784 -0.0347636 1.83961e-22)
(0.482106 -0.0327818 1.21041e-22)
(0.545208 -0.0301383 8.81342e-23)
(0.604692 -0.0270545 -1.70587e-22)
(0.659485 -0.0237478 6.63316e-23)
(0.708878 -0.0204155 -1.7715e-22)
(0.752526 -0.0172218 4.52898e-23)
(0.790419 -0.0142892 -2.39976e-22)
(0.00678425 -0.0179035 1.15168e-20)
(0.0244255 -0.0261634 -5.70576e-21)
(0.0515434 -0.0341689 4.90696e-21)
(0.0860968 -0.0419663 -8.38528e-21)
(0.128717 -0.0488261 3.38588e-21)
(0.178653 -0.054236 -2.27373e-21)
(0.234765 -0.0578829 2.82578e-21)
(0.295563 -0.0596208 -2.84684e-21)
(0.359316 -0.0594797 7.05161e-23)
(0.424212 -0.0576315 -2.29596e-22)
(0.48849 -0.0543515 -3.00817e-23)
(0.550551 -0.0499782 6.89609e-23)
(0.609046 -0.0448762 -3.24665e-22)
(0.662942 -0.0394042 1.08252e-22)
(0.711555 -0.0338877 3.35099e-22)
(0.754549 -0.0285983 4.84615e-23)
(0.791915 -0.0237387 -6.07016e-23)
(0.0207795 -0.0251245 -8.99235e-21)
(0.038755 -0.0366335 -9.04347e-21)
(0.0666935 -0.047694 1.52889e-21)
(0.101667 -0.058476 6.00325e-21)
(0.144378 -0.0679524 2.41699e-21)
(0.194029 -0.075416 -1.04502e-21)
(0.249474 -0.0804384 -1.89142e-21)
(0.309263 -0.0828219 2.81302e-21)
(0.371736 -0.082611 4.36561e-22)
(0.435173 -0.080044 -9.58498e-22)
(0.497907 -0.0755003 -7.37248e-23)
(0.55843 -0.0694457 -2.65322e-22)
(0.615467 -0.0623817 3.49199e-22)
(0.668043 -0.0548022 -5.52145e-22)
(0.715507 -0.0471566 6.33337e-22)
(0.757539 -0.0398204 -2.21819e-22)
(0.794127 -0.0330752 -5.50037e-22)
(0.0391945 -0.0323885 1.1047e-20)
(0.0576137 -0.0470893 -1.3757e-21)
(0.0866056 -0.0610714 9.65623e-21)
(0.122111 -0.0747069 -5.05304e-22)
(0.164915 -0.0866753 1.02657e-20)
(0.214165 -0.096085 -1.40636e-20)
(0.268708 -0.102403 4.79741e-21)
(0.327154 -0.105386 7.55752e-23)
(0.387937 -0.105094 -1.98474e-21)
(0.449456 -0.101831 8.69423e-22)
(0.510172 -0.0960725 4.85566e-23)
(0.568689 -0.0884041 1.14312e-23)
(0.62383 -0.0794555 -3.56458e-22)
(0.67469 -0.0698479 5.31697e-22)
(0.720661 -0.0601485 -6.98422e-23)
(0.761443 -0.0508325 4.28889e-22)
(0.797021 -0.0422579 -8.58341e-23)
(0.0618437 -0.0397004 2.36868e-20)
(0.0808085 -0.0575162 -2.20086e-20)
(0.111052 -0.0742528 1.15817e-20)
(0.147176 -0.0905769 -1.62212e-20)
(0.190053 -0.10488 9.21058e-21)
(0.238764 -0.116101 -7.60021e-22)
(0.29216 -0.123616 1.04359e-21)
(0.348929 -0.127143 -2.9153e-21)
(0.407625 -0.126762 5.08044e-21)
(0.466795 -0.122833 -1.0017e-21)
(0.525049 -0.115924 1.00187e-22)
(0.58113 -0.106728 -5.30501e-23)
(0.633975 -0.0959925 1.28974e-22)
(0.682758 -0.0844563 3.53973e-22)
(0.726925 -0.0727968 4.8393e-23)
(0.766195 -0.0615842 -6.64073e-22)
(0.80055 -0.0512499 2.54282e-22)
(0.0885114 -0.047057 -6.93921e-21)
(0.108121 -0.0678907 -9.7088e-21)
(0.139772 -0.0871856 -5.33118e-21)
(0.176571 -0.106001 1.30762e-20)
(0.219465 -0.122452 8.32356e-21)
(0.267478 -0.135326 -9.07152e-21)
(0.319469 -0.143924 2.75984e-21)
(0.374228 -0.147935 5.35579e-22)
(0.430458 -0.147457 -2.89462e-21)
(0.486875 -0.142906 2.71771e-21)
(0.542264 -0.134926 -5.37416e-22)
(0.595522 -0.124307 6.07515e-22)
(0.645713 -0.1119 1.84535e-22)
(0.692103 -0.0985528 -4.23951e-22)
(0.734189 -0.0850435 9.60591e-23)
(0.771716 -0.0720314 -2.2987e-22)
(0.80466 -0.060019 7.11661e-23)
(0.118971 -0.0544433 1.22062e-20)
(0.139319 -0.0781793 -1.80358e-20)
(0.172482 -0.0998117 9.30986e-21)
(0.209972 -0.120893 -2.37047e-22)
(0.252792 -0.139276 4.53488e-21)
(0.299915 -0.153624 5.00871e-21)
(0.350227 -0.163181 -7.70355e-21)
(0.402647 -0.167614 7.65259e-22)
(0.456048 -0.167041 -3.49608e-22)
(0.509345 -0.16192 -1.05982e-21)
(0.561509 -0.152965 7.08676e-22)
(0.611609 -0.141044 -7.05579e-22)
(0.658839 -0.1271 -3.16028e-22)
(0.702562 -0.112075 7.69858e-22)
(0.742334 -0.0968401 -6.30858e-23)
(0.77792 -0.0821379 4.25571e-22)
(0.809291 -0.0685386 -6.87151e-22)
(0.152998 -0.0618347 -4.71558e-21)
(0.174167 -0.0883385 4.22975e-23)
(0.208893 -0.112067 -5.26382e-21)
(0.247042 -0.13516 -5.69699e-21)
(0.289647 -0.155236 -4.29497e-21)
(0.33565 -0.170862 1.52627e-20)
(0.383992 -0.181247 -6.29025e-21)
(0.433747 -0.186045 1.93397e-21)
(0.483984 -0.185386 1.36042e-22)
(0.53383 -0.179765 -5.59209e-22)
(0.58246 -0.169945 1.10111e-21)
(0.629117 -0.15686 -1.16056e-23)
(0.673132 -0.141528 1.86837e-22)
(0.713966 -0.124973 4.99615e-22)
(0.751231 -0.108148 -5.35383e-22)
(0.784715 -0.091875 -2.81802e-23)
(0.81438 -0.0767875 8.6135e-23)
(0.190379 -0.0691994 -1.87907e-20)
(0.212443 -0.0983142 4.11369e-20)
(0.248716 -0.123878 -9.51503e-21)
(0.287433 -0.148704 -3.00553e-20)
(0.329623 -0.170213 2.65915e-20)
(0.374236 -0.186912 4.08053e-21)
(0.4203 -0.197994 -8.61294e-21)
(0.467069 -0.203105 8.08345e-21)
(0.513833 -0.202385 5.83216e-22)
(0.559943 -0.196348 -1.11159e-21)
(0.604782 -0.185791 8.02976e-22)
(0.647767 -0.171695 -9.61723e-22)
(0.688369 -0.155137 9.50878e-23)
(0.726141 -0.137209 4.50755e-22)
(0.760751 -0.11894 -6.40633e-22)
(0.792008 -0.101222 4.44085e-22)
(0.819861 -0.0847508 -1.79268e-23)
(0.230923 -0.0764996 2.6505e-20)
(0.253942 -0.108042 -3.16001e-20)
(0.291674 -0.135164 4.61625e-20)
(0.330794 -0.161422 -2.29999e-20)
(0.372306 -0.184086 -9.72342e-21)
(0.415213 -0.201648 -2.79849e-21)
(0.458671 -0.213302 6.59198e-21)
(0.502146 -0.21869 -1.22981e-20)
(0.54516 -0.217947 7.37033e-21)
(0.587295 -0.211595 4.20119e-22)
(0.628139 -0.200444 5.92572e-22)
(0.667283 -0.185503 1.06157e-21)
(0.704327 -0.167892 -2.47982e-22)
(0.738914 -0.148759 3.39238e-23)
(0.770765 -0.129198 7.30021e-24)
(0.799703 -0.110165 -2.72721e-24)
(0.825668 -0.0924188 4.37215e-23)
(0.848707 -0.0764768 -1.48099e-22)
(0.274468 -0.0836949 2.16685e-20)
(0.298498 -0.117445 1.67772e-20)
(0.337512 -0.145832 -2.34263e-20)
(0.376781 -0.173199 1.06145e-20)
(0.417272 -0.196732 1.16518e-20)
(0.45811 -0.21495 -1.14785e-20)
(0.498622 -0.227064 -6.30465e-21)
(0.538509 -0.232708 -4.51209e-21)
(0.577535 -0.232002 -3.32191e-21)
(0.615506 -0.225453 1.02289e-21)
(0.652211 -0.213865 2.16592e-21)
(0.687399 -0.198257 -3.26488e-22)
(0.720794 -0.179775 5.09753e-22)
(0.752121 -0.159611 2.97166e-22)
(0.781148 -0.138913 -2.90967e-22)
(0.807711 -0.1187 7.81924e-22)
(0.831737 -0.0997875 -1.08279e-22)
(0.853239 -0.0827429 -9.1305e-22)
(0.320887 -0.0907499 4.72739e-22)
(0.345982 -0.126439 -8.30495e-21)
(0.385992 -0.155774 6.54384e-20)
(0.425046 -0.183909 -2.36296e-20)
(0.464091 -0.208023 9.39855e-21)
(0.50245 -0.226702 -3.05717e-20)
(0.539671 -0.239185 9.39017e-21)
(0.575702 -0.245087 8.47811e-21)
(0.610544 -0.244497 -3.96435e-21)
(0.644216 -0.237886 5.03767e-21)
(0.676691 -0.226033 1.67287e-21)
(0.707864 -0.209945 -1.39747e-21)
(0.73757 -0.19078 -7.75255e-22)
(0.765607 -0.169761 -7.23724e-22)
(0.791784 -0.148084 9.79304e-22)
(0.815947 -0.126826 -6.89582e-22)
(0.838009 -0.106858 3.73526e-22)
(0.857947 -0.0887967 -3.56898e-22)
(0.370093 -0.0976401 -6.56375e-21)
(0.396317 -0.134929 4.80924e-20)
(0.436899 -0.164865 1.61242e-21)
(0.475239 -0.193414 5.4264e-21)
(0.512325 -0.217827 -1.83504e-20)
(0.547758 -0.236797 2.21903e-20)
(0.581345 -0.249586 2.80023e-21)
(0.613283 -0.255776 -8.53798e-21)
(0.643794 -0.255403 -1.11446e-20)
(0.673089 -0.248881 7.40144e-21)
(0.7013 -0.236943 1.02945e-21)
(0.728453 -0.22057 2.2764e-21)
(0.754476 -0.200915 -2.11064e-21)
(0.779233 -0.179219 4.79914e-22)
(0.802567 -0.156722 1.7174e-22)
(0.824333 -0.134552 2.21721e-22)
(0.844426 -0.113636 -5.45969e-22)
(0.862792 -0.0946428 8.07965e-23)
(0.593554 -0.245139 1.08945e-20)
(0.623186 -0.258205 5.76335e-21)
(0.65084 -0.264742 -7.48062e-21)
(0.676928 -0.264707 1.14182e-21)
(0.701822 -0.25844 -1.3104e-21)
(0.72579 -0.246608 1.81946e-21)
(0.748963 -0.230147 6.01601e-21)
(0.771352 -0.210194 -3.44116e-21)
(0.792875 -0.188001 7.90738e-22)
(0.813404 -0.16484 6.65552e-23)
(0.832799 -0.141888 8.11484e-23)
(0.85094 -0.120131 -4.07145e-22)
(0.867739 -0.100288 1.09509e-21)
)
;

boundaryField
{
    inlet
    {
        type            uniformFixedValue;
        uniformValue    constant (1 0 0);
        value           nonuniform 0();
    }
    outlet
    {
        type            pressureInletOutletVelocity;
        value           nonuniform 0();
    }
    cylinder
    {
        type            fixedValue;
        value           nonuniform 0();
    }
    top
    {
        type            symmetryPlane;
    }
    bottom
    {
        type            symmetryPlane;
    }
    defaultFaces
    {
        type            empty;
    }
    procBoundary22to16
    {
        type            processor;
        value           nonuniform List<vector> 
33
(
(-0.0305292 0.00129585 2.81278e-21)
(-0.0317073 0.00107448 -2.64906e-21)
(-0.0326714 0.000831427 -3.49173e-21)
(-0.0333863 0.000567786 -1.30507e-21)
(-0.0338167 0.000284948 3.65837e-21)
(-0.033927 -1.53118e-05 1.55916e-21)
(-0.0336826 -0.000330798 -5.5646e-21)
(-0.0330503 -0.000658893 3.19397e-21)
(-0.0330503 -0.000658893 3.19397e-21)
(-0.0319993 0.000996342 -3.63402e-21)
(-0.0305018 0.00133991 9.58569e-21)
(-0.0285351 0.00168553 1.58063e-21)
(-0.0260811 0.002029 -2.72876e-21)
(-0.023123 0.00236605 -7.70281e-22)
(-0.019646 0.00269146 -1.44236e-21)
(-0.0157037 0.00299813 3.33415e-21)
(-0.00740538 0.00357376 -1.06747e-21)
(0.00992927 0.00522726 5.06859e-22)
(0.0362045 0.00685305 -5.6643e-22)
(0.0703162 0.00843229 -1.12067e-22)
(0.112827 0.00982259 1.35638e-21)
(0.163035 0.0109205 -7.02644e-22)
(0.219807 0.0116621 -1.10956e-22)
(0.281615 0.012017 3.05089e-22)
(0.346657 0.011991 -5.63435e-23)
(0.413032 0.0116186 -2.70924e-23)
(0.478881 0.0109558 3.42462e-23)
(0.542509 0.0100714 -2.22332e-23)
(0.602493 0.00903975 4.33721e-23)
(0.657739 0.00793362 1.78839e-23)
(0.707526 0.00681913 1.97385e-24)
(0.751505 0.00575124 4.7141e-23)
(0.789664 0.00477088 -5.92045e-23)
)
;
    }
    procBoundary22to21
    {
        type            processor;
        value           nonuniform List<vector> 
16
(
(-0.0283093 0.00440495 -1.4456e-20)
(-0.0265755 0.0070805 -8.86325e-21)
(-0.0244442 0.00799329 -2.73662e-20)
(-0.0244442 0.00799329 -2.73662e-20)
(-0.0203303 0.00938228 -2.08012e-20)
(-0.015121 0.0101387 -7.02607e-20)
(-0.00676678 0.00739806 -2.48675e-20)
(-0.00676678 0.00739806 -2.48675e-20)
(0.00180458 0.00623716 -2.65464e-20)
(0.0165157 0.000428422 3.76774e-20)
(0.0165157 0.000428422 3.76774e-20)
(0.0360811 -0.00724759 4.50737e-20)
(0.0360811 -0.00724759 4.50737e-20)
(0.0520689 -0.0115564 1.45576e-20)
(0.0808132 -0.0219583 -5.79932e-20)
(0.0808132 -0.0219583 -5.79932e-20)
)
;
    }
    procBoundary22to23
    {
        type            processor;
        value           nonuniform List<vector> 
16
(
(0.822277 -0.00390379 2.64035e-24)
(0.822823 -0.0116951 -1.87292e-22)
(0.823908 -0.0194376 -1.06834e-22)
(0.825515 -0.0271002 -3.1071e-22)
(0.827619 -0.034654 3.00696e-22)
(0.830192 -0.0420727 -5.81864e-23)
(0.833197 -0.0493335 4.16963e-22)
(0.836594 -0.0564173 3.93493e-22)
(0.840341 -0.063309 -9.46404e-24)
(0.844394 -0.0699978 -1.9619e-22)
(0.844394 -0.0699978 -1.9619e-22)
(0.868962 -0.0626147 -5.75605e-23)
(0.872307 -0.0678758 2.12721e-22)
(0.875803 -0.0729896 -6.98455e-22)
(0.879423 -0.077959 3.51319e-23)
(0.883144 -0.0827883 1.55652e-21)
)
;
    }
    procBoundary22to27
    {
        type            processor;
        value           nonuniform List<vector> 
11
(
(0.11622 -0.0336728 -3.49355e-20)
(0.11622 -0.0336728 -3.49355e-20)
(0.158928 -0.0462815 -2.08662e-20)
(0.158928 -0.0462815 -2.08662e-20)
(0.209481 -0.0592322 -2.8514e-19)
(0.209481 -0.0592322 -2.8514e-19)
(0.268293 -0.071831 -2.70732e-19)
(0.268293 -0.071831 -2.70732e-19)
(0.335608 -0.083235 -6.34234e-21)
(0.335608 -0.083235 -6.34234e-21)
(0.41149 -0.0924509 -1.75958e-19)
)
;
    }
    procBoundary22to28
    {
        type            processor;
        value           nonuniform List<vector> 
26
(
(0.406188 -0.100566 -2.55854e-20)
(0.436237 -0.102323 -5.512e-21)
(0.422044 -0.10435 -6.37662e-21)
(0.394062 -0.0958164 1.36041e-19)
(0.406188 -0.100566 -2.55854e-20)
(0.42515 -0.101431 -1.58589e-19)
(0.394062 -0.0958164 1.36041e-19)
(0.422044 -0.10435 -6.37662e-21)
(0.449484 -0.142804 -1.81584e-20)
(0.49003 -0.172955 1.20223e-20)
(0.526997 -0.201557 -1.9064e-20)
(0.56152 -0.226012 3.16655e-20)
(0.56152 -0.226012 3.16655e-20)
(0.639364 -0.251644 4.81475e-21)
(0.664756 -0.264998 -1.11569e-20)
(0.687988 -0.271965 3.07843e-21)
(0.709621 -0.272408 3.14915e-21)
(0.730149 -0.266569 1.1807e-20)
(0.749943 -0.255036 -2.73504e-21)
(0.769222 -0.238687 -6.15844e-21)
(0.788061 -0.218629 5.96222e-22)
(0.806427 -0.196115 6.26625e-23)
(0.824213 -0.172444 -2.42394e-22)
(0.841285 -0.148841 2.77272e-23)
(0.857506 -0.126346 2.32845e-22)
(0.872757 -0.105733 -5.31666e-22)
)
;
    }
}


// ************************************************************************* //
