/*--------------------------------*- C++ -*----------------------------------*\
  =========                 |
  \\      /  F ield         | OpenFOAM: The Open Source CFD Toolbox
   \\    /   O peration     | Website:  https://openfoam.org
    \\  /    A nd           | Version:  7
     \\/     M anipulation  |
\*---------------------------------------------------------------------------*/
FoamFile
{
    version     2.0;
    format      ascii;
    class       volVectorField;
    location    "16.000264";
    object      U;
}
// * * * * * * * * * * * * * * * * * * * * * * * * * * * * * * * * * * * * * //

dimensions      [0 1 -1 0 0 0 0];

internalField   nonuniform List<vector> 
5800
(
(-0.195925 0.00264116 -5.63291e-22)
(-0.186761 0.00768881 -1.71197e-20)
(-0.168698 0.0120534 2.55992e-20)
(-0.142148 0.0153585 8.43108e-21)
(-0.107478 0.0173819 -2.1436e-20)
(-0.202708 0.00316367 3.34065e-21)
(-0.208137 0.00325845 3.20856e-21)
(-0.213721 0.00327069 -5.97126e-21)
(-0.219405 0.00326724 2.88264e-21)
(-0.225198 0.00326007 -1.70374e-21)
(-0.231097 0.00325284 -6.14021e-22)
(-0.237106 0.00324647 3.48105e-21)
(-0.243228 0.00324012 -5.12229e-21)
(-0.249464 0.00323207 2.24162e-21)
(-0.255811 0.00322016 2.15603e-21)
(-0.262262 0.00320186 -4.53443e-21)
(-0.268802 0.00317436 -1.48092e-22)
(-0.275411 0.00313465 3.79202e-21)
(-0.282059 0.00307954 -2.91482e-22)
(-0.28871 0.00300571 -1.662e-21)
(-0.295316 0.00290987 1.4703e-21)
(-0.301821 0.00278893 -7.24914e-22)
(-0.308154 0.00263953 9.97521e-22)
(-0.314234 0.00245813 -7.44429e-22)
(-0.319964 0.00224131 -5.21333e-22)
(-0.325234 0.00198584 2.28173e-21)
(-0.329917 0.00168901 -6.56282e-22)
(-0.333872 0.00134876 -1.56358e-21)
(-0.336942 0.000963833 1.04629e-21)
(-0.338952 0.000534884 3.54493e-22)
(-0.339733 6.51565e-05 -1.32704e-21)
(-0.33913 -0.000459894 1.55081e-21)
(-0.336961 -0.00102989 -1.27651e-21)
(-0.333021 -0.00164157 -8.98311e-22)
(-0.327113 -0.00229057 2.57351e-21)
(-0.319046 -0.00297136 -1.78027e-21)
(-0.308639 -0.00367715 -2.93637e-22)
(-0.29572 -0.00440138 3.65067e-22)
(-0.280148 -0.00513037 2.49862e-23)
(-0.261806 -0.00585775 8.46329e-22)
(-0.240607 -0.00656899 -1.05179e-21)
(-0.216503 -0.00725323 8.57238e-22)
(-0.189508 -0.00789226 -8.14377e-24)
(-0.159698 -0.00847278 -4.10107e-23)
(-0.127171 -0.00898703 -6.25332e-23)
(-0.0921391 -0.00940704 3.50187e-22)
(-0.0548479 -0.00974706 -3.80636e-23)
(-0.0155826 -0.00997722 -1.00693e-22)
(0.0252779 -0.0100945 -2.24018e-23)
(0.0673365 -0.0101097 5.49616e-24)
(0.110186 -0.0100211 3.33766e-24)
(0.15341 -0.00983609 -3.93868e-23)
(0.1966 -0.0095654 2.08891e-23)
(0.239371 -0.00922271 -8.27199e-23)
(0.281388 -0.00882198 2.58758e-23)
(0.322343 -0.00837951 -5.60936e-24)
(0.362023 -0.00790799 -2.34452e-23)
(0.400197 -0.00742385 9.87012e-23)
(0.436817 -0.00693423 -1.28737e-22)
(0.471664 -0.00645632 1.19936e-22)
(0.504928 -0.00598715 -1.08942e-23)
(0.53623 -0.00554689 -9.13674e-23)
(0.566188 -0.00511843 3.30625e-24)
(0.593934 -0.00473344 4.24846e-23)
(0.620934 -0.00435333 2.34144e-23)
(0.645184 -0.00403213 1.21677e-23)
(0.669833 -0.00369827 -3.38731e-23)
(0.690563 -0.00344394 3.07742e-23)
(0.71374 -0.00314799 2.23093e-23)
(0.73068 -0.00296176 -1.18899e-23)
(0.753623 -0.00269293 3.33935e-23)
(0.766079 -0.00257655 -1.18261e-23)
(0.790585 -0.00232777 8.05421e-24)
(0.797233 -0.00228105 -3.18525e-24)
(0.826079 -0.00206497 -8.66999e-25)
(-0.192542 0.0092595 -1.2429e-21)
(-0.197694 0.00954701 -2.23229e-21)
(-0.202936 0.00958692 -2.14302e-21)
(-0.208252 0.00957764 3.03253e-22)
(-0.213672 0.00955507 -1.5657e-21)
(-0.219189 0.00953142 1.26359e-20)
(-0.224803 0.00951017 -9.22056e-21)
(-0.230519 0.00948906 6.95154e-21)
(-0.236336 0.0094631 -5.26825e-21)
(-0.242252 0.00942583 -3.60416e-21)
(-0.248258 0.00936972 3.73437e-21)
(-0.254342 0.00928643 3.80655e-21)
(-0.260481 0.00916696 -8.4245e-21)
(-0.266648 0.00900178 1.94203e-21)
(-0.272806 0.00878098 -3.62988e-21)
(-0.278907 0.00849458 3.73638e-21)
(-0.284895 0.00813307 -9.46794e-22)
(-0.290703 0.00768691 7.27869e-21)
(-0.296249 0.00714563 -2.98645e-21)
(-0.30144 0.00649894 1.11789e-21)
(-0.306166 0.00573702 1.79056e-21)
(-0.310303 0.00485184 -5.36361e-21)
(-0.313712 0.0038374 6.72509e-22)
(-0.316238 0.00269121 -8.78393e-22)
(-0.317707 0.00141492 -1.64408e-23)
(-0.317968 9.50027e-06 6.58187e-22)
(-0.316864 -0.00155448 2.74101e-21)
(-0.314205 -0.00325168 -9.42058e-22)
(-0.309799 -0.00507267 -2.0997e-21)
(-0.303453 -0.00700462 3.89449e-21)
(-0.294984 -0.00903094 -6.48155e-21)
(-0.284216 -0.0111311 1.6314e-21)
(-0.270981 -0.0132864 5.23219e-21)
(-0.255147 -0.0154537 -3.46287e-21)
(-0.236604 -0.0176161 -1.28505e-21)
(-0.215271 -0.0197294 1.88169e-21)
(-0.191101 -0.0217607 -2.88788e-21)
(-0.164115 -0.0236562 3.83658e-21)
(-0.1344 -0.0253752 -1.54911e-21)
(-0.102046 -0.0268998 -3.34679e-22)
(-0.0672811 -0.0281404 2.78674e-22)
(-0.0303446 -0.0291541 5.42086e-24)
(0.00848697 -0.0298024 6.56215e-23)
(0.0488252 -0.0301465 -3.33163e-23)
(0.0902758 -0.030179 3.70245e-23)
(0.132444 -0.0299014 -2.69897e-23)
(0.174918 -0.0293371 -9.43895e-23)
(0.217301 -0.0285182 1.07886e-22)
(0.259218 -0.0274859 4.9787e-23)
(0.300346 -0.0262821 1.22188e-22)
(0.34039 -0.0249556 -3.93871e-22)
(0.379147 -0.0235441 5.14594e-22)
(0.416399 -0.0220967 1.88742e-22)
(0.452105 -0.0206343 -1.81357e-22)
(0.486057 -0.019208 3.94344e-23)
(0.518447 -0.0178089 6.7167e-23)
(0.548909 -0.0164968 3.30486e-23)
(0.578053 -0.0152207 -4.17318e-23)
(0.605032 -0.0140746 1.89278e-22)
(0.631285 -0.0129437 -1.49847e-22)
(0.654851 -0.0119882 -3.0146e-23)
(0.678819 -0.0109959 6.86731e-24)
(0.698955 -0.0102397 -7.84689e-23)
(0.721504 -0.00936087 5.06702e-23)
(0.737952 -0.008807 4.28102e-24)
(0.760296 -0.00800977 4.20027e-24)
(0.772381 -0.0076629 -4.38676e-24)
(0.796273 -0.00692657 1.1757e-23)
(0.802715 -0.006786 -8.4384e-24)
(0.830858 -0.00614798 5.99934e-24)
(-0.172598 0.0146918 5.52855e-23)
(-0.177234 0.0151715 6.91411e-21)
(-0.181828 0.0152475 1.46421e-21)
(-0.186442 0.0152364 -1.37664e-20)
(-0.191151 0.0151962 -8.66851e-21)
(-0.195939 0.0151509 7.71888e-21)
(-0.200804 0.0151089 1.84365e-20)
(-0.205747 0.0150673 -1.02169e-20)
(-0.210768 0.0150183 -3.88527e-21)
(-0.215864 0.0149514 2.2148e-21)
(-0.221027 0.0148543 5.01126e-21)
(-0.226243 0.0147132 -6.81017e-21)
(-0.231491 0.0145133 7.76435e-21)
(-0.236743 0.014239 -6.73283e-21)
(-0.241964 0.013874 1.36856e-20)
(-0.247106 0.0134014 -1.2984e-20)
(-0.252117 0.0128048 2.32655e-21)
(-0.256929 0.0120688 -1.83215e-20)
(-0.261466 0.0111774 6.60133e-21)
(-0.265638 0.0101133 -5.18132e-21)
(-0.269339 0.00885999 1.99591e-21)
(-0.272449 0.0074041 1.80303e-20)
(-0.274833 0.00573528 -9.77784e-21)
(-0.276339 0.00384744 3.29512e-21)
(-0.276805 0.00173842 -9.04606e-21)
(-0.276102 -0.000571591 7.67294e-21)
(-0.274064 -0.00313466 -1.06746e-20)
(-0.270503 -0.00592034 4.4364e-21)
(-0.265242 -0.00890933 -1.32368e-21)
(-0.258101 -0.0120801 3.35453e-21)
(-0.248905 -0.0154053 3.23941e-21)
(-0.237493 -0.0188497 4.14607e-21)
(-0.223698 -0.0223852 -3.6185e-21)
(-0.207409 -0.0259339 6.40953e-22)
(-0.188527 -0.0294746 -1.67738e-21)
(-0.166982 -0.0329316 3.04524e-21)
(-0.142732 -0.0362513 -1.64979e-21)
(-0.115803 -0.0393452 5.95735e-22)
(-0.0863061 -0.0421437 -2.75676e-21)
(-0.0543213 -0.0446403 6.401e-22)
(-0.0200957 -0.0466661 7.76589e-22)
(0.0161484 -0.0482275 -1.12183e-21)
(0.0541414 -0.0492678 7.81174e-22)
(0.0934578 -0.0498046 4.17338e-22)
(0.133745 -0.0498157 -3.39241e-22)
(0.174613 -0.0493167 -8.68687e-23)
(0.215663 -0.0483474 1.10635e-22)
(0.256518 -0.0469617 -2.25767e-24)
(0.296823 -0.0452286 -1.23816e-22)
(0.336276 -0.0432177 -3.95325e-22)
(0.374607 -0.0410099 3.88402e-22)
(0.41163 -0.0386673 -3.75953e-22)
(0.447151 -0.0362704 -3.23019e-22)
(0.481141 -0.0338532 2.65334e-22)
(0.513414 -0.031499 -1.93219e-23)
(0.544165 -0.0291934 -2.8982e-22)
(0.573051 -0.0270337 1.12319e-22)
(0.600666 -0.0249361 -3.55759e-25)
(0.626203 -0.0230535 -1.98712e-22)
(0.651055 -0.0211984 1.0503e-23)
(0.673332 -0.0196314 -2.75891e-22)
(0.696019 -0.0180068 2.08155e-22)
(0.715035 -0.0167677 8.31837e-23)
(0.7364 -0.0153319 -1.99811e-22)
(0.751918 -0.014424 8.91832e-23)
(0.773126 -0.013125 -8.68275e-23)
(0.784512 -0.0125541 -5.36729e-23)
(0.807234 -0.0113592 -4.13494e-23)
(0.813286 -0.0111235 4.13038e-23)
(0.84009 -0.0100933 -1.03542e-23)
(-0.143531 0.0191307 2.89847e-22)
(-0.147489 0.0197605 -2.58931e-20)
(-0.151195 0.0198851 -5.83221e-21)
(-0.154838 0.0198825 2.96241e-20)
(-0.158565 0.019823 -2.11519e-20)
(-0.16235 0.0197498 3.62974e-21)
(-0.166183 0.0196788 1.31477e-20)
(-0.170064 0.0196082 -1.09911e-20)
(-0.173992 0.0195281 -1.06269e-20)
(-0.177961 0.0194247 1.76615e-20)
(-0.181963 0.0192813 5.83706e-21)
(-0.185985 0.0190791 -6.61013e-21)
(-0.190006 0.018798 -6.83609e-21)
(-0.194 0.0184164 4.62966e-22)
(-0.197932 0.0179119 1.58245e-20)
(-0.201758 0.0172613 -7.8547e-21)
(-0.205426 0.016441 -7.36593e-22)
(-0.208873 0.0154287 -8.80835e-21)
(-0.212028 0.0142036 -6.28739e-22)
(-0.214807 0.0127441 3.63384e-21)
(-0.217111 0.0110256 9.10322e-21)
(-0.218826 0.00903008 -1.00366e-20)
(-0.219825 0.0067455 8.63325e-21)
(-0.219967 0.00417392 -4.86076e-21)
(-0.219079 0.00132234 -2.29512e-21)
(-0.217077 -0.00189949 -1.09007e-21)
(-0.213805 -0.00542207 6.00812e-21)
(-0.20906 -0.00923801 6.53699e-21)
(-0.202686 -0.0133289 -1.24435e-20)
(-0.194518 -0.0176674 -2.52802e-21)
(-0.184395 -0.0222169 1.13728e-20)
(-0.172178 -0.0269244 -3.82326e-21)
(-0.157697 -0.031762 -6.50863e-21)
(-0.140866 -0.0366033 2.82274e-21)
(-0.121605 -0.0414328 -3.39069e-21)
(-0.0998599 -0.0461468 3.52248e-21)
(-0.0755969 -0.0506787 -1.65793e-21)
(-0.048831 -0.054902 6.27157e-21)
(-0.0197271 -0.0587048 3.53839e-22)
(0.0116522 -0.0620107 -5.71656e-22)
(0.0451129 -0.0647484 -1.52933e-21)
(0.080333 -0.066787 -1.62014e-21)
(0.117069 -0.0681727 1.14425e-23)
(0.154941 -0.0688346 1.21917e-21)
(0.193589 -0.0687677 -9.21593e-24)
(0.232636 -0.0680009 -5.35893e-23)
(0.271708 -0.0665907 3.68914e-23)
(0.31045 -0.0646133 9.27067e-24)
(0.348538 -0.0621653 -4.05806e-22)
(0.385698 -0.0593439 2.74306e-22)
(0.421687 -0.056261 2.71109e-22)
(0.45635 -0.0530023 8.26542e-24)
(0.489518 -0.0496781 -9.32434e-22)
(0.52118 -0.0463345 5.14208e-22)
(0.551177 -0.0430843 6.71805e-22)
(0.579707 -0.0399079 -2.51299e-22)
(0.606459 -0.0369376 -1.11492e-22)
(0.632005 -0.0340578 -5.00819e-23)
(0.655589 -0.0314762 5.18864e-22)
(0.678539 -0.028937 -2.94212e-22)
(0.699068 -0.026793 4.86081e-23)
(0.720013 -0.0245756 -1.10272e-22)
(0.737507 -0.0228822 1.56433e-22)
(0.757254 -0.0209289 1.95809e-22)
(0.771505 -0.0196871 -1.10503e-22)
(0.791153 -0.0179272 6.48609e-23)
(0.801587 -0.0171417 6.92573e-23)
(0.822693 -0.0155324 5.6443e-23)
(0.828215 -0.0151995 -2.56154e-23)
(0.853159 -0.0138222 1.62485e-23)
(-0.106035 0.0224442 2.69868e-20)
(-0.109293 0.0230391 -9.60894e-21)
(-0.111932 0.0232355 6.81197e-21)
(-0.11443 0.0232583 -4.35849e-20)
(-0.117003 0.0231796 2.06565e-20)
(-0.119609 0.0230732 -2.73998e-20)
(-0.122232 0.0229648 3.06719e-20)
(-0.124868 0.022855 -2.89531e-20)
(-0.127512 0.0227336 -7.46401e-21)
(-0.130159 0.0225844 5.97184e-20)
(-0.132797 0.0223872 -3.30247e-20)
(-0.135414 0.0221191 2.8747e-20)
(-0.137991 0.021755 -5.84255e-21)
(-0.140501 0.0212682 9.97169e-23)
(-0.142913 0.0206306 -1.7671e-20)
(-0.145187 0.0198132 -7.72771e-21)
(-0.147273 0.0187862 -3.76293e-21)
(-0.149114 0.0175199 9.66509e-21)
(-0.150642 0.0159844 -2.4194e-20)
(-0.151785 0.0141608 1.17372e-20)
(-0.152452 0.0120143 -7.01357e-21)
(-0.152536 0.00952202 3.06417e-21)
(-0.151912 0.00666532 6.84278e-21)
(-0.150442 0.00344503 1.39201e-20)
(-0.148056 -0.000116576 -9.02034e-21)
(-0.144613 -0.00414484 -7.82014e-21)
(-0.139904 -0.00853956 6.03595e-21)
(-0.133818 -0.0132999 9.31511e-22)
(-0.126204 -0.0184026 6.25944e-21)
(-0.116912 -0.0238128 -5.13726e-21)
(-0.105791 -0.0294849 -6.53225e-21)
(-0.0927358 -0.0353523 1.03642e-20)
(-0.0775676 -0.0414185 -8.6427e-21)
(-0.0602116 -0.04745 5.72561e-21)
(-0.0406304 -0.0534591 1.92018e-21)
(-0.018785 -0.0593307 -3.36669e-21)
(0.00533972 -0.0649255 -1.81354e-21)
(0.0317746 -0.0701229 2.13863e-21)
(0.0603351 -0.0748362 -3.45565e-21)
(0.090872 -0.0788573 8.69845e-22)
(0.123231 -0.0821977 -8.87407e-22)
(0.157115 -0.0846933 3.04007e-22)
(0.192259 -0.0863186 -1.63819e-22)
(0.22831 -0.0870273 6.03006e-22)
(0.264916 -0.0868198 -4.32319e-22)
(0.301722 -0.0857345 8.59937e-23)
(0.338379 -0.0838458 2.82442e-22)
(0.374565 -0.0812522 8.22174e-23)
(0.409988 -0.0780781 -6.92544e-22)
(0.444408 -0.0744473 7.19549e-22)
(0.477618 -0.070502 6.84568e-22)
(0.509491 -0.0663497 -8.89517e-22)
(0.53989 -0.062129 7.81872e-22)
(0.568822 -0.0578964 -4.62486e-22)
(0.596158 -0.0537916 -1.18976e-22)
(0.622096 -0.0497896 -1.69491e-22)
(0.646362 -0.0460549 7.62127e-22)
(0.6695 -0.0424418 -2.43672e-22)
(0.690811 -0.0392073 3.69792e-23)
(0.711548 -0.0360332 -4.00006e-22)
(0.730043 -0.033354 6.87865e-22)
(0.748955 -0.0305924 -2.75836e-22)
(0.764675 -0.0284794 -1.04439e-22)
(0.782526 -0.0260567 -1.07207e-22)
(0.795299 -0.0245054 3.96737e-23)
(0.813107 -0.0223346 -6.25001e-23)
(0.822427 -0.0213454 -1.00092e-22)
(0.841612 -0.0193761 5.90849e-23)
(0.846516 -0.0189431 5.58872e-23)
(0.869236 -0.0172734 -3.69262e-23)
(-0.060588 0.0246432 -1.22027e-20)
(-0.0633244 0.0248631 1.11444e-20)
(-0.0647201 0.0251934 7.82605e-21)
(-0.0660318 0.0252369 -5.03917e-20)
(-0.067405 0.0251391 5.23227e-20)
(-0.0687793 0.025 -9.26138e-23)
(-0.0701383 0.0248479 -3.59018e-20)
(-0.0714739 0.0246882 2.25823e-20)
(-0.0727767 0.0245132 6.94713e-21)
(-0.074037 0.0243062 7.43376e-21)
(-0.0752429 0.0240448 -2.78119e-20)
(-0.0763798 0.0237029 -2.50604e-20)
(-0.0774293 0.0232516 8.28461e-21)
(-0.0783677 0.0226598 2.32986e-20)
(-0.0791659 0.0218948 -1.45695e-20)
(-0.0797883 0.0209226 3.95944e-20)
(-0.0801913 0.0197079 -4.37237e-20)
(-0.0803248 0.0182146 4.86487e-20)
(-0.0801219 0.0164002 -1.32358e-20)
(-0.0795208 0.0142513 -3.50587e-20)
(-0.0784484 0.0117232 3.04272e-20)
(-0.0768095 0.00878962 -2.9054e-21)
(-0.074492 0.0054348 -4.85638e-21)
(-0.0713462 0.00168091 1.51854e-20)
(-0.0673438 -0.00261925 -1.0518e-20)
(-0.0623638 -0.00734014 -2.52387e-20)
(-0.0562077 -0.012511 2.05683e-20)
(-0.0487641 -0.0181184 -4.87013e-21)
(-0.0399035 -0.0241315 -4.33451e-21)
(-0.0294971 -0.0305089 8.56754e-21)
(-0.0174092 -0.0371958 1.64296e-20)
(-0.00359472 -0.0441329 -5.03469e-21)
(0.012158 -0.0511984 -2.89537e-20)
(0.0299571 -0.0583069 2.11111e-20)
(0.0497343 -0.0653761 -1.00265e-20)
(0.0715552 -0.0722817 3.19585e-21)
(0.0953987 -0.0788192 6.75959e-21)
(0.121266 -0.0848713 -2.72686e-21)
(0.149005 -0.0903632 -2.41731e-22)
(0.178457 -0.095064 1.02683e-21)
(0.209446 -0.0989016 -3.58834e-21)
(0.241694 -0.101735 -1.05724e-21)
(0.27493 -0.103514 2.70258e-21)
(0.308823 -0.104197 2.19795e-22)
(0.343044 -0.103788 -8.66431e-22)
(0.377261 -0.102338 7.69943e-23)
(0.41116 -0.0999387 -6.34706e-23)
(0.444453 -0.096712 4.38129e-22)
(0.476888 -0.0928094 2.60183e-22)
(0.508263 -0.0883802 -9.72421e-22)
(0.53841 -0.0835952 -6.17673e-22)
(0.56723 -0.0785821 -8.50264e-22)
(0.59462 -0.0735053 3.54244e-22)
(0.620604 -0.0684305 -1.07166e-21)
(0.645081 -0.0635209 1.35805e-21)
(0.668248 -0.0587465 -8.07162e-22)
(0.689864 -0.0543004 7.92565e-22)
(0.710444 -0.050009 -2.1888e-23)
(0.729347 -0.046173 -6.16043e-22)
(0.74774 -0.0424182 5.51026e-22)
(0.764082 -0.0392497 -3.64052e-22)
(0.780841 -0.0359968 2.43129e-22)
(0.794683 -0.0335012 4.71945e-22)
(0.810518 -0.0306619 2.15699e-22)
(0.821726 -0.0288266 -4.1457e-23)
(0.837562 -0.0262996 2.60015e-23)
(0.845706 -0.0251176 9.25455e-23)
(0.862814 -0.0228471 4.10929e-23)
(0.867069 -0.0223106 -3.37787e-23)
(0.887368 -0.0204065 1.93355e-23)
(-0.00711058 0.0246658 4.0816e-20)
(-0.00966122 0.0253861 -3.1427e-20)
(-0.00970292 0.0258001 5.20861e-20)
(-0.00998173 0.0258163 -1.95898e-20)
(-0.0102462 0.0257208 1.62203e-20)
(-0.0104799 0.0255605 -4.18372e-20)
(-0.010669 0.0253611 6.44505e-21)
(-0.0107943 0.0251405 -1.87021e-21)
(-0.0108416 0.0248971 9.58701e-21)
(-0.0107978 0.024616 2.72552e-20)
(-0.0106481 0.0242747 -2.21623e-20)
(-0.0103764 0.0238457 1.60357e-20)
(-0.00996411 0.0232979 9.94459e-21)
(-0.00938906 0.0225967 4.18961e-21)
(-0.00862457 0.0217054 -2.87656e-20)
(-0.00763979 0.0205851 1.69509e-20)
(-0.00639776 0.0191958 -2.48043e-20)
(-0.00486157 0.0174961 2.97765e-21)
(-0.00296282 0.0154496 -7.55746e-22)
(-0.000646156 0.0130165 3.38747e-20)
(0.00214083 0.0101573 -2.90455e-20)
(0.00548784 0.00684418 -4.08968e-21)
(0.0095161 0.00307387 -7.19762e-21)
(0.0142425 -0.0011953 3.14223e-20)
(0.0197582 -0.00606216 -1.13273e-20)
(0.0262646 -0.0114077 -1.10673e-20)
(0.0338306 -0.0172592 -6.87325e-21)
(0.0425704 -0.0236033 2.6319e-20)
(0.0526 -0.0304086 -9.46907e-21)
(0.06403 -0.0376294 -1.25932e-20)
(0.0769756 -0.0452019 -1.02691e-20)
(0.0915041 -0.0530694 2.85838e-20)
(0.107725 -0.0610035 -7.80279e-21)
(0.125751 -0.0690553 -2.69716e-21)
(0.145557 -0.0770453 -5.64992e-21)
(0.167162 -0.0848354 -4.2119e-21)
(0.190526 -0.0922238 4.39785e-21)
(0.215623 -0.0990562 3.59899e-21)
(0.24231 -0.105195 -3.757e-21)
(0.270422 -0.110436 -4.74627e-21)
(0.29977 -0.114663 6.22222e-21)
(0.330092 -0.117737 -8.08063e-22)
(0.361121 -0.119588 -8.57157e-24)
(0.392551 -0.120176 -6.53099e-22)
(0.424079 -0.119513 6.01563e-22)
(0.455407 -0.117659 -4.33773e-22)
(0.48626 -0.114729 -8.99853e-23)
(0.516394 -0.110865 -2.23118e-22)
(0.545602 -0.106245 -6.0052e-23)
(0.573721 -0.101043 3.30699e-22)
(0.600626 -0.0954547 6.64967e-22)
(0.626247 -0.0896267 -2.90525e-22)
(0.650515 -0.0837464 -9.22946e-22)
(0.673466 -0.0778865 2.17858e-21)
(0.695025 -0.0722313 -1.71007e-21)
(0.715385 -0.0667448 9.83032e-22)
(0.734334 -0.0616461 -4.55766e-22)
(0.752352 -0.0567361 -3.15595e-22)
(0.768853 -0.0523529 4.7034e-22)
(0.784917 -0.0480744 1.22994e-22)
(0.799127 -0.0444636 -3.6315e-22)
(0.813751 -0.0407735 1.28455e-22)
(0.825741 -0.0379327 -1.8858e-22)
(0.839573 -0.03473 -5.29275e-22)
(0.849242 -0.0326355 -4.30737e-23)
(0.863107 -0.029807 -8.1913e-23)
(0.870098 -0.0284424 -2.57592e-22)
(0.88511 -0.0259287 7.6292e-24)
(0.888735 -0.0252854 7.01725e-24)
(0.906573 -0.0232025 1.19733e-24)
(0.0556949 0.0238286 2.15223e-20)
(0.0538144 0.0251234 4.48812e-20)
(0.0536284 0.0252767 -5.27771e-20)
(0.0541248 0.0252464 -1.54556e-21)
(0.0547177 0.0251495 1.185e-20)
(0.0553477 0.0249597 -1.09487e-20)
(0.0560667 0.0247015 -2.29769e-20)
(0.0569042 0.0244033 -3.45693e-21)
(0.0578734 0.024071 5.62164e-20)
(0.0589886 0.0236932 -1.72074e-21)
(0.0602671 0.0232492 -4.67688e-21)
(0.0617272 0.0227121 -9.00604e-21)
(0.0633879 0.0220498 8.55882e-21)
(0.0652704 0.0212263 -6.39905e-21)
(0.0673987 0.0202018 9.37692e-21)
(0.0698002 0.0189337 -2.5139e-20)
(0.0725059 0.0173787 -2.15523e-20)
(0.0755498 0.0154923 3.04661e-20)
(0.0789811 0.0132425 2.12801e-21)
(0.0828468 0.0105648 -1.54516e-20)
(0.087199 0.00742512 3.57392e-20)
(0.0921131 0.00379605 -5.07215e-21)
(0.0976585 -0.000344172 -2.44195e-21)
(0.103868 -0.00510559 -3.24033e-20)
(0.110839 -0.0103916 2.18547e-21)
(0.118702 -0.0162441 2.88508e-20)
(0.127538 -0.0226623 -1.18215e-20)
(0.137439 -0.0296249 -1.9291e-20)
(0.148501 -0.0370971 1.23897e-20)
(0.160816 -0.0450275 -3.46586e-21)
(0.174475 -0.0533448 3.86514e-21)
(0.18954 -0.0619768 1.20859e-20)
(0.206084 -0.0707504 -3.27334e-21)
(0.224191 -0.0796035 -1.53e-20)
(0.243846 -0.0883754 1.61025e-20)
(0.265041 -0.096912 2.75752e-21)
(0.287722 -0.105004 3.32065e-21)
(0.311833 -0.112472 -2.14371e-21)
(0.337235 -0.11914 -1.45287e-20)
(0.363755 -0.124805 6.84071e-21)
(0.391197 -0.129318 9.64326e-22)
(0.419314 -0.132538 -2.34956e-22)
(0.447849 -0.134383 8.18547e-22)
(0.476527 -0.134813 1.37614e-22)
(0.505077 -0.13385 -2.19694e-22)
(0.533244 -0.131568 1.30483e-22)
(0.560803 -0.1281 -2.43502e-23)
(0.587556 -0.12361 1.21407e-22)
(0.613348 -0.118302 -1.87445e-22)
(0.638063 -0.112368 -4.47364e-22)
(0.661616 -0.10603 4.73806e-22)
(0.683969 -0.0994482 6.24325e-22)
(0.705081 -0.0928303 -2.19181e-22)
(0.725002 -0.0862544 -1.23692e-22)
(0.743675 -0.0799225 -2.74013e-23)
(0.761285 -0.0737919 -5.67468e-22)
(0.777644 -0.0681051 1.43891e-22)
(0.793195 -0.0626401 1.65056e-21)
(0.807399 -0.0577665 3.26008e-22)
(0.821248 -0.0530221 2.79169e-22)
(0.833441 -0.0490162 -3.05383e-22)
(0.84605 -0.0449423 -2.70205e-22)
(0.856303 -0.0417926 4.58815e-22)
(0.868247 -0.0382776 7.73671e-23)
(0.87648 -0.0359475 1.81942e-22)
(0.888479 -0.032869 3.22487e-22)
(0.894403 -0.0313312 -9.02121e-23)
(0.907414 -0.0286274 1.09214e-22)
(0.910464 -0.0278747 -2.53325e-23)
(0.925936 -0.0256615 8.63528e-24)
(0.128612 0.0234632 -4.2325e-20)
(0.127279 0.0242891 5.22429e-20)
(0.12668 0.0241754 6.93654e-20)
(0.127383 0.0240151 -7.98602e-20)
(0.128383 0.0238434 -5.13818e-20)
(0.129452 0.0235791 3.62598e-20)
(0.130664 0.0232293 3.48226e-20)
(0.132064 0.022823 5.09714e-20)
(0.133663 0.0223701 -5.95084e-20)
(0.135472 0.0218627 -4.07751e-22)
(0.13751 0.0212828 -4.81901e-20)
(0.139797 0.0206053 1.29367e-20)
(0.142352 0.0197991 3.84835e-20)
(0.145197 0.0188279 -2.96353e-21)
(0.148354 0.0176509 -2.32394e-20)
(0.151847 0.0162242 6.0553e-21)
(0.155703 0.0145021 1.35207e-20)
(0.15995 0.012438 -2.49155e-20)
(0.164625 0.00998962 5.32344e-20)
(0.169763 0.00709784 -2.51714e-20)
(0.175418 0.00372479 -1.44701e-20)
(0.181646 -0.000160864 3.37604e-20)
(0.188463 -0.00463842 -3.32583e-20)
(0.195925 -0.00973144 1.12397e-20)
(0.204129 -0.0154057 4.45461e-21)
(0.213151 -0.0216866 1.44534e-20)
(0.22306 -0.0285737 -1.10252e-20)
(0.23393 -0.0360477 -1.71304e-20)
(0.245839 -0.0440724 4.65776e-21)
(0.258856 -0.0525921 -8.0995e-21)
(0.273049 -0.0615311 3.64597e-20)
(0.288467 -0.0708018 -1.43522e-20)
(0.305156 -0.0802482 -2.26565e-20)
(0.323164 -0.0897653 2.97187e-20)
(0.342475 -0.0991872 -1.78791e-20)
(0.363058 -0.108338 -3.46264e-21)
(0.384842 -0.117001 8.72873e-21)
(0.407745 -0.124972 -2.87259e-21)
(0.431622 -0.132049 6.05546e-21)
(0.456295 -0.138019 -2.24401e-21)
(0.481565 -0.142714 3.5724e-21)
(0.5072 -0.145988 -6.86637e-21)
(0.532963 -0.147751 4.24328e-21)
(0.558612 -0.147969 1.49387e-21)
(0.58392 -0.146672 -2.29597e-21)
(0.608683 -0.14395 4.1237e-22)
(0.63273 -0.139954 3.71761e-22)
(0.655922 -0.134868 6.04577e-22)
(0.678158 -0.128917 -1.1166e-21)
(0.69937 -0.122312 3.89967e-22)
(0.719515 -0.115295 -1.88022e-22)
(0.738585 -0.108037 1.13468e-22)
(0.756565 -0.100761 -2.20239e-23)
(0.773515 -0.0935503 9.2939e-22)
(0.78939 -0.0866204 -1.1287e-21)
(0.804364 -0.0799211 -4.809e-22)
(0.818265 -0.0737161 -2.54976e-22)
(0.831501 -0.0677631 5.4923e-24)
(0.843566 -0.062458 -1.35389e-21)
(0.855371 -0.0573063 9.47765e-22)
(0.865717 -0.0529522 -8.68789e-22)
(0.876488 -0.0485462 1.65924e-22)
(0.885169 -0.0451223 -6.26482e-22)
(0.895401 -0.041343 1.29757e-22)
(0.902352 -0.0387992 4.51126e-23)
(0.912656 -0.0355175 -1.44657e-22)
(0.917639 -0.0338152 1.18304e-22)
(0.928821 -0.0309671 -1.1044e-22)
(0.931374 -0.0301039 -5.79257e-23)
(0.944672 -0.0277991 1.42953e-23)
(0.212424 0.023658 -5.27749e-21)
(0.211025 0.0231454 -1.13927e-19)
(0.211278 0.0227232 1.25688e-19)
(0.212096 0.0223737 -6.39867e-20)
(0.213054 0.0219554 -5.58258e-21)
(0.214217 0.02145 5.35694e-20)
(0.215651 0.0208818 -5.73508e-20)
(0.217366 0.0202593 -8.87337e-21)
(0.219369 0.0195745 4.45982e-20)
(0.221676 0.0188111 -9.62523e-21)
(0.224308 0.0179469 -4.79758e-20)
(0.227285 0.0169527 8.49436e-20)
(0.230628 0.015793 -2.23265e-20)
(0.23436 0.0144276 -3.76295e-20)
(0.238501 0.0128122 4.51302e-20)
(0.243077 0.0109001 6.50293e-21)
(0.248109 0.00864407 -2.02877e-20)
(0.253625 0.0059964 -2.48184e-20)
(0.259652 0.00290067 -3.0829e-20)
(0.266241 -0.000680469 1.63512e-20)
(0.273401 -0.00482425 1.16859e-20)
(0.281158 -0.00958044 2.05681e-20)
(0.289577 -0.0149381 -2.96336e-20)
(0.298705 -0.0209202 1.80418e-20)
(0.308598 -0.0275441 -2.37971e-21)
(0.31931 -0.0348072 -1.62762e-20)
(0.330894 -0.0426907 1.12341e-20)
(0.343404 -0.0511572 1.25119e-21)
(0.356888 -0.0601493 -2.42851e-20)
(0.371391 -0.0695871 7.46887e-21)
(0.38694 -0.0793726 1.53221e-20)
(0.403554 -0.0893567 -9.32975e-21)
(0.421249 -0.0994048 4.64241e-21)
(0.439994 -0.109341 9.77132e-21)
(0.459735 -0.118972 -1.52642e-20)
(0.480384 -0.128071 7.21531e-21)
(0.501832 -0.136413 7.21217e-21)
(0.523926 -0.143775 -6.49641e-21)
(0.546485 -0.149935 6.49437e-22)
(0.569309 -0.154709 -6.50614e-21)
(0.592184 -0.157949 3.61558e-21)
(0.614903 -0.159564 1.55104e-21)
(0.637264 -0.159525 3.07954e-22)
(0.659093 -0.157874 -1.57306e-21)
(0.680245 -0.154715 8.19814e-23)
(0.70061 -0.150218 6.28651e-22)
(0.720112 -0.144584 -6.31567e-22)
(0.738706 -0.138055 3.93931e-22)
(0.756373 -0.130858 -3.64834e-23)
(0.77311 -0.123248 3.12893e-22)
(0.788937 -0.115405 -3.43294e-22)
(0.803858 -0.107565 -2.50334e-22)
(0.81794 -0.0998092 -6.08202e-22)
(0.831145 -0.0923683 5.63321e-22)
(0.843632 -0.0851819 3.8913e-23)
(0.85524 -0.0785327 7.69412e-22)
(0.866338 -0.0721615 3.47413e-24)
(0.87645 -0.0664851 1.24525e-22)
(0.886404 -0.0609844 -2.39824e-22)
(0.895095 -0.0563287 4.77122e-22)
(0.904229 -0.0516402 5.74602e-22)
(0.911527 -0.0479757 -1.98424e-22)
(0.920248 -0.043976 6.52313e-22)
(0.926089 -0.0412396 -5.64102e-22)
(0.934902 -0.0377955 1.12582e-23)
(0.939085 -0.0359377 9.9335e-23)
(0.948654 -0.032983 8.65558e-23)
(0.950795 -0.0320101 -2.26103e-23)
(0.962168 -0.0296422 -7.90539e-24)
(0.310632 0.023945 -6.25072e-20)
(0.308003 0.0228928 2.82891e-20)
(0.307133 0.0220705 -1.92165e-20)
(0.307107 0.0214203 -1.79365e-20)
(0.30733 0.020736 4.12556e-21)
(0.307833 0.0199763 -2.91234e-21)
(0.308697 0.0191613 8.58299e-21)
(0.309936 0.0182955 4.86335e-20)
(0.311552 0.0173667 -7.66911e-20)
(0.313559 0.016357 5.84368e-20)
(0.315975 0.015245 1.88042e-20)
(0.318822 0.0140037 -9.35575e-20)
(0.322119 0.0125994 8.93762e-20)
(0.325889 0.010993 -3.54268e-20)
(0.330152 0.0091412 1.7334e-21)
(0.33493 0.0069976 2.39735e-20)
(0.340244 0.00451542 -3.74591e-20)
(0.346109 0.00164604 1.75126e-20)
(0.352552 -0.00166186 -3.81762e-20)
(0.359595 -0.00547487 -1.5795e-20)
(0.367247 -0.0098623 5.99058e-20)
(0.375541 -0.0148352 -9.18527e-21)
(0.384506 -0.0204319 7.29242e-21)
(0.394171 -0.0266763 1.97679e-20)
(0.404571 -0.0335812 -3.60971e-21)
(0.415741 -0.041146 -1.66211e-20)
(0.42771 -0.0493529 -2.23847e-20)
(0.44051 -0.0581647 2.52937e-20)
(0.454163 -0.0675229 4.11575e-22)
(0.468687 -0.0773445 -1.55574e-20)
(0.484087 -0.0875238 5.57669e-21)
(0.500354 -0.0979145 1.65904e-20)
(0.517467 -0.108363 -3.23138e-20)
(0.535377 -0.118683 7.84472e-21)
(0.554004 -0.128663 1.0222e-20)
(0.573238 -0.138066 2.78035e-21)
(0.592949 -0.146649 -1.15392e-20)
(0.612975 -0.154175 2.69275e-22)
(0.63313 -0.160412 -9.77172e-22)
(0.653223 -0.165169 8.72155e-21)
(0.673065 -0.168296 -4.99719e-21)
(0.692483 -0.169708 -7.78576e-23)
(0.711328 -0.169382 2.31208e-21)
(0.729485 -0.167373 -3.59185e-22)
(0.746872 -0.163801 -1.36063e-21)
(0.763449 -0.158849 7.8774e-22)
(0.779201 -0.152734 -4.71365e-22)
(0.79414 -0.14571 4.60053e-22)
(0.80829 -0.138015 -6.22772e-22)
(0.821684 -0.129912 3.23199e-22)
(0.834366 -0.121588 2.51607e-22)
(0.846353 -0.113284 2.7156e-22)
(0.857713 -0.105083 -7.53808e-22)
(0.86841 -0.0972227 1.43819e-21)
(0.878587 -0.0896348 -3.67666e-22)
(0.888084 -0.0826176 2.77101e-22)
(0.897236 -0.0758987 -9.68638e-22)
(0.905586 -0.0699116 -7.06508e-22)
(0.913889 -0.0641191 6.43652e-22)
(0.921118 -0.0592074 -3.00426e-22)
(0.928817 -0.0542834 -6.30526e-22)
(0.934917 -0.0504107 4.35008e-22)
(0.942332 -0.0462306 -3.38469e-22)
(0.947231 -0.0433219 5.32491e-23)
(0.954763 -0.0397505 -6.07664e-23)
(0.958285 -0.037747 3.55842e-24)
(0.96647 -0.0347151 -4.8222e-23)
(0.968282 -0.0336358 -3.79197e-24)
(0.978002 -0.0312235 -6.1423e-24)
(0.422101 0.0258741 3.54345e-20)
(0.417906 0.024143 -3.4967e-20)
(0.415332 0.0227806 1.14482e-20)
(0.413816 0.0216901 3.09388e-20)
(0.412686 0.0206034 -5.91086e-20)
(0.411924 0.0194643 1.70825e-20)
(0.41162 0.01829 8.89664e-20)
(0.411792 0.0170788 -2.78349e-20)
(0.412435 0.0158132 -5.53278e-20)
(0.413559 0.0144739 4.83775e-20)
(0.415184 0.0130385 -1.44042e-20)
(0.417329 0.0114789 4.04362e-20)
(0.420013 0.0097618 -5.20011e-20)
(0.423258 0.00784915 -6.06824e-20)
(0.427083 0.0056987 1.00567e-19)
(0.431512 0.00326424 -9.66851e-20)
(0.436562 0.000502175 5.74597e-20)
(0.442246 -0.0026252 5.02223e-20)
(0.44857 -0.00618595 -9.84708e-20)
(0.455552 -0.0102525 7.79138e-20)
(0.463207 -0.0148641 -3.89468e-20)
(0.471548 -0.0200643 -3.23636e-20)
(0.480586 -0.0258913 6.56932e-21)
(0.490336 -0.0323699 6.6785e-20)
(0.500812 -0.0395151 -8.29695e-20)
(0.512027 -0.0473282 7.77215e-20)
(0.523987 -0.0557928 1.95539e-20)
(0.536698 -0.064872 -1.40201e-20)
(0.550156 -0.0745062 -5.69065e-20)
(0.564351 -0.0846099 1.49624e-20)
(0.579259 -0.0950726 2.37261e-20)
(0.59484 -0.105748 -2.34669e-20)
(0.611043 -0.116471 1.70713e-20)
(0.627791 -0.127043 -9.34114e-21)
(0.644979 -0.137244 5.46612e-21)
(0.662476 -0.146825 -5.26439e-21)
(0.680132 -0.155529 3.12e-21)
(0.697775 -0.163105 7.997e-22)
(0.715225 -0.169318 -2.4799e-21)
(0.732306 -0.173973 4.95792e-21)
(0.748857 -0.176925 -6.33244e-21)
(0.764754 -0.178096 -1.71471e-21)
(0.779906 -0.177473 8.02433e-22)
(0.794262 -0.175124 3.7245e-22)
(0.807811 -0.171182 -1.73382e-22)
(0.820578 -0.165843 1.44861e-21)
(0.832607 -0.159331 -2.23483e-22)
(0.843961 -0.151912 1.93141e-22)
(0.854704 -0.143825 8.57959e-22)
(0.864895 -0.135341 -1.39605e-21)
(0.874591 -0.126645 -1.06085e-23)
(0.883821 -0.117986 -1.53816e-21)
(0.892646 -0.109439 3.11246e-21)
(0.901029 -0.101253 -2.05685e-21)
(0.909092 -0.0933488 -4.11283e-22)
(0.916674 -0.0860393 4.70497e-22)
(0.924075 -0.0790415 -8.022e-22)
(0.930856 -0.0728025 1.24087e-21)
(0.937701 -0.0667732 -5.73482e-25)
(0.943651 -0.0616494 3.00009e-23)
(0.950105 -0.0565338 7.12018e-22)
(0.955178 -0.0524838 -1.95015e-22)
(0.961477 -0.0481593 1.91165e-22)
(0.965588 -0.0450984 -1.87573e-22)
(0.972038 -0.0414293 7.12613e-24)
(0.97502 -0.0392911 -4.31757e-23)
(0.982043 -0.0362042 9.27235e-23)
(0.983597 -0.0350241 -4.53022e-23)
(0.99193 -0.0325782 8.01722e-24)
(0.539075 0.0275243 -3.91129e-20)
(0.53445 0.0254898 4.36795e-20)
(0.530963 0.0238086 -9.27391e-20)
(0.527991 0.022169 1.35936e-20)
(0.52548 0.0205132 3.89112e-20)
(0.523518 0.0188542 -1.94297e-20)
(0.522125 0.0171795 -1.1753e-20)
(0.521297 0.0154665 1.58759e-20)
(0.521041 0.0136946 1.41306e-20)