0.114218 	0.492331 	-9.30309e-19 	0.595028 	-0.00970892 	-1.24992e-17
0.114899 	0.495267 	-7.14783e-20 	0.202292 	-0.000416912 	-6.66548e-18
0.115479 	0.497766 	-8.91156e-20 	0.197709 	-0.000495178 	3.5143e-17
