0.155265 	0.479017 	2.84542e-18 	1.07191 	-0.0345896 	2.31332e-17
0.156341 	0.482335 	2.5692e-18 	0.971831 	-0.0275618 	1.23134e-17
0.157961 	0.487333 	2.43495e-18 	0.779515 	-0.0166149 	1.92283e-17
0.159385 	0.491728 	2.11402e-18 	0.497249 	-0.00553263 	1.28915e-17
0.160195 	0.494227 	1.62483e-18 	0.489193 	-0.00525613 	4.6538e-18
0.161201 	0.49733 	1.05031e-18 	0.166363 	-0.00050589 	4.51611e-18
