/*--------------------------------*- C++ -*----------------------------------*\
  =========                 |
  \\      /  F ield         | OpenFOAM: The Open Source CFD Toolbox
   \\    /   O peration     | Website:  https://openfoam.org
    \\  /    A nd           | Version:  7
     \\/     M anipulation  |
\*---------------------------------------------------------------------------*/
FoamFile
{
    version     2.0;
    format      ascii;
    class       volScalarField;
    location    "8";
    object      p;
}
// * * * * * * * * * * * * * * * * * * * * * * * * * * * * * * * * * * * * * //

dimensions      [0 2 -2 0 0 0 0];

internalField   nonuniform List<scalar> 
433
(
-0.326252
-0.324736
-0.323112
-0.32138
-0.319531
-0.317568
-0.315618
-0.334819
-0.334148
-0.333374
-0.332494
-0.331507
-0.330411
-0.329206
-0.327891
-0.326467
-0.324934
-0.323296
-0.321551
-0.319687
-0.3177
-0.315774
-0.335528
-0.334821
-0.33401
-0.333094
-0.332071
-0.330939
-0.329698
-0.328349
-0.326891
-0.325326
-0.323658
-0.321887
-0.319991
-0.317955
-0.316075
-0.33582
-0.334955
-0.333984
-0.332906
-0.331719
-0.330425
-0.329022
-0.327512
-0.325898
-0.324185
-0.322375
-0.32043
-0.318318
-0.316505
-0.337136
-0.336197
-0.335152
-0.334
-0.332739
-0.331372
-0.329897
-0.328317
-0.326634
-0.324859
-0.322995
-0.320985
-0.318762
-0.317013
-0.338755
-0.337723
-0.336584
-0.335338
-0.333984
-0.332523
-0.330955
-0.329284
-0.327513
-0.325655
-0.323719
-0.32162
-0.319232
-0.317472
-0.339518
-0.338266
-0.336905
-0.335436
-0.33386
-0.33218
-0.330396
-0.328517
-0.326559
-0.324534
-0.322329
-0.319794
-0.318225
-0.341568
-0.340181
-0.338685
-0.33708
-0.335367
-0.333549
-0.33163
-0.329619
-0.327538
-0.325401
-0.323063
-0.320346
-0.31897
-0.342318
-0.340665
-0.3389
-0.337026
-0.335046
-0.332966
-0.330795
-0.328564
-0.326289
-0.323791
-0.320847
-0.319651
-0.342833
-0.340886
-0.338826
-0.336658
-0.334386
-0.332026
-0.329612
-0.327169
-0.324473
-0.32125
-0.32024
-0.345187
-0.343033
-0.340762
-0.338376
-0.335883
-0.333297
-0.330663
-0.328012
-0.325072
-0.321507
-0.320686
-0.345346
-0.342838
-0.340206
-0.337456
-0.334605
-0.331707
-0.328799
-0.325556
-0.32157
-0.320939
-0.34507
-0.342162
-0.339121
-0.335962
-0.332747
-0.329518
-0.325894
-0.321385
-0.320892
-0.34428
-0.340914
-0.337401
-0.333808
-0.330183
-0.326078
-0.320909
-0.320458
-0.342893
-0.338983
-0.334948
-0.330837
-0.326117
-0.320092
-0.319564
-0.340808
-0.336267
-0.33156
-0.326045
-0.337966
-0.311982
-0.302759
-0.294059
-0.283817
-0.272877
-0.261212
-0.249
-0.236387
-0.223508
-0.210489
-0.197436
-0.184442
-0.171582
-0.158917
-0.146497
-0.134363
-0.122544
-0.312506
-0.302985
-0.294321
-0.28404
-0.273081
-0.261401
-0.249177
-0.236554
-0.223667
-0.210641
-0.197583
-0.184583
-0.171717
-0.159048
-0.146623
-0.134484
-0.122661
-0.313544
-0.303386
-0.294832
-0.28448
-0.273485
-0.261775
-0.249527
-0.236885
-0.223983
-0.210944
-0.197874
-0.184863
-0.171987
-0.159308
-0.146874
-0.134725
-0.122893
-0.315102
-0.304088
-0.295595
-0.285129
-0.27408
-0.262326
-0.250044
-0.237375
-0.224451
-0.211393
-0.198306
-0.18528
-0.172389
-0.159695
-0.147247
-0.135084
-0.123238
-0.317223
-0.304994
-0.2966
-0.285968
-0.274852
-0.263041
-0.250717
-0.238015
-0.225064
-0.211983
-0.198875
-0.185829
-0.172918
-0.160205
-0.147739
-0.135558
-0.123694
-0.319967
-0.305698
-0.297835
-0.286973
-0.27578
-0.263911
-0.251535
-0.238795
-0.225813
-0.212705
-0.199573
-0.186503
-0.17357
-0.160834
-0.148345
-0.136142
-0.124256
-0.322792
-0.307118
-0.299129
-0.288174
-0.276852
-0.264914
-0.252482
-0.239702
-0.226687
-0.213551
-0.200392
-0.187296
-0.174338
-0.161576
-0.149061
-0.136832
-0.12492
-0.325956
-0.308625
-0.300592
-0.289496
-0.278042
-0.266031
-0.253543
-0.240722
-0.227675
-0.21451
-0.201323
-0.188201
-0.175214
-0.162424
-0.14988
-0.137621
-0.12568
-0.329529
-0.310193
-0.302183
-0.290919
-0.279327
-0.267242
-0.254699
-0.24184
-0.228763
-0.21557
-0.202357
-0.189207
-0.176191
-0.163371
-0.150795
-0.138504
-0.12653
-0.33346
-0.311845
-0.303858
-0.292418
-0.280682
-0.268526
-0.255933
-0.243041
-0.229937
-0.216721
-0.203484
-0.190306
-0.177261
-0.164409
-0.1518
-0.139474
-0.127464
-0.337719
-0.313577
-0.305579
-0.293963
-0.282085
-0.269862
-0.257226
-0.244308
-0.231185
-0.21795
-0.204691
-0.191489
-0.178415
-0.165531
-0.152886
-0.140523
-0.128475
-0.116768
-0.342267
-0.315398
-0.307311
-0.295527
-0.283509
-0.271229
-0.25856
-0.245627
-0.232492
-0.219245
-0.205969
-0.192745
-0.179644
-0.166727
-0.154046
-0.141645
-0.129556
-0.117807
-0.346721
-0.317289
-0.309018
-0.297077
-0.284933
-0.272607
-0.259919
-0.246981
-0.233846
-0.220594
-0.207307
-0.194065
-0.180938
-0.16799
-0.155273
-0.142832
-0.130701
-0.118908
-0.350966
-0.319243
-0.310664
-0.298584
-0.286335
-0.27398
-0.261288
-0.248359
-0.235234
-0.221986
-0.208695
-0.195439
-0.18229
-0.169312
-0.156559
-0.144077
-0.131903
-0.120064
-0.27533
-0.262652
-0.249746
-0.236643
-0.22341
-0.210123
-0.196859
-0.183691
-0.170685
-0.157897
-0.145374
-0.133155
-0.121269
)
;

boundaryField
{
    inlet
    {
        type            zeroGradient;
    }
    outlet
    {
        type            fixedValue;
        value           nonuniform 0();
    }
    cylinder
    {
        type            zeroGradient;
    }
    top
    {
        type            symmetryPlane;
    }
    bottom
    {
        type            symmetryPlane;
    }
    defaultFaces
    {
        type            empty;
    }
    procBoundary22to16
    {
        type            processor;
        value           nonuniform List<scalar> 
33
(
-0.334462
-0.33381
-0.333054
-0.332192
-0.331222
-0.330145
-0.328957
-0.32766
-0.32766
-0.326252
-0.324736
-0.323112
-0.32138
-0.319531
-0.317568
-0.315618
-0.311982
-0.302759
-0.294059
-0.283817
-0.272877
-0.261212
-0.249
-0.236387
-0.223508
-0.210489
-0.197436
-0.184442
-0.171582
-0.158917
-0.146497
-0.134363
-0.122544
)
;
    }
    procBoundary22to21
    {
        type            processor;
        value           nonuniform List<scalar> 
16
(
-0.335388
-0.336133
-0.336582
-0.336582
-0.337971
-0.339682
-0.340663
-0.340663
-0.342845
-0.34386
-0.34386
-0.344666
-0.344666
-0.34722
-0.347728
-0.347728
)
;
    }
    procBoundary22to23
    {
        type            processor;
        value           nonuniform List<scalar> 
16
(
-0.111067
-0.111179
-0.111402
-0.111734
-0.112171
-0.112712
-0.11335
-0.11408
-0.114897
-0.115795
-0.115795
-0.105423
-0.106421
-0.107477
-0.108586
-0.109742
)
;
    }
    procBoundary22to27
    {
        type            processor;
        value           nonuniform List<scalar> 
11
(
-0.347839
-0.347839
-0.347488
-0.347488
-0.346613
-0.346613
-0.345149
-0.345149
-0.343047
-0.343047
-0.340368
)
;
    }
    procBoundary22to28
    {
        type            processor;
        value           nonuniform List<scalar> 
26
(
-0.318871
-0.317979
-0.355242
-0.332577
-0.318871
-0.326083
-0.332577
-0.355242
-0.321285
-0.312222
-0.300018
-0.287694
-0.287694
-0.276638
-0.263994
-0.251127
-0.238058
-0.224849
-0.211574
-0.198308
-0.185126
-0.172095
-0.159273
-0.14671
-0.134445
-0.122511
)
;
    }
}


// ************************************************************************* //
