/*--------------------------------*- C++ -*----------------------------------*\
  =========                 |
  \\      /  F ield         | OpenFOAM: The Open Source CFD Toolbox
   \\    /   O peration     | Website:  https://openfoam.org
    \\  /    A nd           | Version:  7
     \\/     M anipulation  |
\*---------------------------------------------------------------------------*/
FoamFile
{
    version     2.0;
    format      ascii;
    class       surfaceScalarField;
    location    "4.6";
    object      phi;
}
// * * * * * * * * * * * * * * * * * * * * * * * * * * * * * * * * * * * * * //

dimensions      [0 3 -1 0 0 0 0];

internalField   nonuniform List<scalar> 
60711
(
2.55637e-06
-7.40108e-11
2.55659e-06
-2.20983e-10
2.55696e-06
-3.66891e-10
2.55747e-06
-5.11678e-10
2.55812e-06
-6.54776e-10
2.55892e-06
-7.95321e-10
2.55985e-06
-9.32522e-10
2.56092e-06
-1.06577e-09
2.56211e-06
-1.19459e-09
2.56343e-06
-1.31858e-09
2.56487e-06
-1.4374e-09
2.56642e-06
-1.55072e-09
2.56808e-06
-1.65827e-09
2.56984e-06
-1.7598e-09
2.57169e-06
-1.85515e-09
2.57364e-06
-1.94418e-09
2.57566e-06
-2.02683e-09
2.57777e-06
-2.10307e-09
2.57994e-06
-2.17293e-09
2.58218e-06
-2.2365e-09
2.58447e-06
-2.29388e-09
2.58681e-06
-2.34522e-09
2.58921e-06
-2.39071e-09
2.59164e-06
-2.43055e-09
2.5941e-06
-2.46496e-09
2.5966e-06
-2.49421e-09
2.59911e-06
-2.51854e-09
2.60165e-06
-2.53824e-09
2.60421e-06
-2.55358e-09
2.60677e-06
-2.56485e-09
2.60934e-06
-2.57233e-09
2.61192e-06
-2.57629e-09
2.6145e-06
-2.57702e-09
2.61707e-06
-2.57479e-09
2.61964e-06
-2.56984e-09
2.6222e-06
-2.56245e-09
2.62476e-06
-2.55284e-09
2.6273e-06
-2.54125e-09
2.62983e-06
-2.52788e-09
2.63234e-06
-2.51295e-09
2.63483e-06
-2.49663e-09
2.63731e-06
-2.47912e-09
2.63977e-06
-2.46057e-09
2.64222e-06
-2.44114e-09
2.64464e-06
-2.42096e-09
2.64704e-06
-2.40016e-09
2.64942e-06
-2.37887e-09
2.65177e-06
-2.35718e-09
2.65411e-06
-2.33519e-09
2.65642e-06
-2.313e-09
2.65871e-06
-2.29067e-09
2.66098e-06
-2.26828e-09
2.66323e-06
-2.24589e-09
2.66545e-06
-2.22356e-09
2.66765e-06
-2.20133e-09
2.66983e-06
-2.17925e-09
2.67199e-06
-2.15735e-09
2.67412e-06
-2.13567e-09
2.67624e-06
-2.11423e-09
2.67833e-06
-2.09306e-09
2.6804e-06
-2.07219e-09
2.68245e-06
-2.05161e-09
2.68449e-06
-2.03136e-09
2.6865e-06
-2.01143e-09
2.68849e-06
-1.99185e-09
2.69046e-06
-1.97261e-09
2.69242e-06
-1.95372e-09
2.69435e-06
-1.93518e-09
2.69627e-06
-1.917e-09
2.69817e-06
-1.89917e-09
2.70005e-06
-1.88169e-09
2.70191e-06
-1.86457e-09
2.70376e-06
-1.84779e-09
2.70559e-06
-1.83136e-09
2.70741e-06
-1.81526e-09
2.70921e-06
-1.79951e-09
2.71099e-06
-1.78408e-09
2.71276e-06
-1.76897e-09
2.71451e-06
-1.75419e-09
2.71625e-06
-1.73971e-09
2.71798e-06
-1.72554e-09
2.71969e-06
-1.71167e-09
2.72139e-06
-1.69809e-09
2.72307e-06
-1.6848e-09
2.72475e-06
-1.67178e-09
2.7264e-06
-1.65903e-09
2.72805e-06
-1.64655e-09
2.72969e-06
-1.63433e-09
2.73131e-06
-1.62236e-09
2.73292e-06
-1.61063e-09
2.73452e-06
-1.59914e-09
2.73611e-06
-1.58789e-09
2.73768e-06
-1.57686e-09
2.73925e-06
-1.56604e-09
2.7408e-06
-1.55544e-09
2.74235e-06
-1.54505e-09
2.74388e-06
-1.53486e-09
2.74541e-06
-1.52486e-09
2.74692e-06
-1.51506e-09
2.74843e-06
-1.50543e-09
2.74992e-06
-1.49599e-09
2.75141e-06
-1.48673e-09
2.75289e-06
-1.47763e-09
2.75436e-06
-1.46869e-09
2.75582e-06
-1.45992e-09
2.75727e-06
-1.4513e-09
2.75871e-06
-1.44284e-09
2.76015e-06
-1.43452e-09
2.76157e-06
-1.42634e-09
2.76299e-06
-1.4183e-09
2.7644e-06
-1.4104e-09
2.7658e-06
-1.40263e-09
2.7672e-06
-1.39499e-09
2.76859e-06
-1.38747e-09
2.76997e-06
-1.38007e-09
2.77134e-06
-1.37279e-09
2.77271e-06
-1.36562e-09
2.77406e-06
-1.35856e-09
2.77542e-06
-1.35161e-09
2.77676e-06
-1.34477e-09
2.7781e-06
-1.33803e-09
2.77943e-06
-1.33139e-09
2.78075e-06
-1.32485e-09
2.78207e-06
-1.3184e-09
2.78338e-06
-1.31205e-09
2.78469e-06
-1.30578e-09
2.78599e-06
-1.29961e-09
2.78728e-06
-1.29352e-09
2.78857e-06
-1.28751e-09
2.78985e-06
-1.28159e-09
2.79113e-06
-1.27575e-09
2.7924e-06
-1.26999e-09
2.79366e-06
-1.2643e-09
2.79492e-06
-1.25869e-09
2.79617e-06
-1.25315e-09
2.79742e-06
-1.24769e-09
2.79866e-06
-1.24229e-09
2.7999e-06
-1.23697e-09
2.80113e-06
-1.23172e-09
2.80236e-06
-1.22653e-09
2.80358e-06
-1.22141e-09
2.8048e-06
-1.21635e-09
2.80601e-06
-1.21137e-09
2.80722e-06
-1.20644e-09
2.80842e-06
-1.20158e-09
2.80961e-06
-1.19678e-09
2.81081e-06
-1.19205e-09
2.81199e-06
-1.18737e-09
2.81318e-06
-1.18276e-09
2.81435e-06
-1.17821e-09
2.81553e-06
-1.17373e-09
2.8167e-06
-1.1693e-09
2.81786e-06
-1.16494e-09
2.81902e-06
-1.16064e-09
2.82018e-06
-1.1564e-09
2.82133e-06
-1.15223e-09
2.82248e-06
-1.14812e-09
2.82362e-06
-1.14408e-09
2.82476e-06
-1.14011e-09
2.8259e-06
-1.1362e-09
2.82703e-06
-1.13236e-09
2.82816e-06
-1.12859e-09
2.82929e-06
-1.1249e-09
2.83041e-06
-1.12128e-09
2.83152e-06
-1.11774e-09
2.83264e-06
-1.11427e-09
2.83375e-06
-1.11089e-09
2.83486e-06
-1.1076e-09
2.83596e-06
-1.1044e-09
2.83706e-06
-1.10129e-09
2.83816e-06
-1.09827e-09
2.83926e-06
-1.09536e-09
2.84035e-06
-1.09255e-09
2.84144e-06
-1.08985e-09
2.84253e-06
-1.08727e-09
2.84361e-06
-1.08481e-09
2.84469e-06
-1.08248e-09
2.84577e-06
-1.08029e-09
2.84685e-06
-1.07824e-09
2.84793e-06
-1.07634e-09
2.849e-06
-1.0746e-09
2.85008e-06
-1.07303e-09
2.85115e-06
-1.07164e-09
2.85222e-06
-1.07044e-09
2.85329e-06
-1.06944e-09
2.85436e-06
-1.06866e-09
2.85542e-06
-1.0681e-09
2.85649e-06
-1.06778e-09
2.85756e-06
-1.06771e-09
2.85863e-06
-1.06792e-09
2.8597e-06
-1.06842e-09
2.86077e-06
-1.06922e-09
2.86184e-06
-1.07035e-09
2.86291e-06
-1.07183e-09
2.86398e-06
-1.07367e-09
2.86506e-06
-1.07591e-09
2.86614e-06
-1.07857e-09
2.86722e-06
-1.08167e-09
2.8683e-06
-1.08525e-09
2.86939e-06
-1.08934e-09
2.87049e-06
-1.09396e-09
2.87159e-06
-1.09915e-09
2.87269e-06
-1.10496e-09
2.8738e-06
-1.11141e-09
2.87492e-06
-1.11856e-09
2.87605e-06
-1.12645e-09
2.87718e-06
-1.13512e-09
2.87833e-06
-1.14462e-09
2.87948e-06
-1.15502e-09
2.88065e-06
-1.16636e-09
2.88183e-06
-1.17871e-09
2.88302e-06
-1.19214e-09
2.88423e-06
-1.2067e-09
2.88545e-06
-1.22249e-09
2.88669e-06
-1.23957e-09
2.88795e-06
-1.25802e-09
2.88922e-06
-1.27794e-09
2.89052e-06
-1.29942e-09
2.89185e-06
-1.32256e-09
2.89319e-06
-1.34746e-09
2.89457e-06
-1.37424e-09
2.89597e-06
-1.403e-09
2.8974e-06
-1.43389e-09
2.89887e-06
-1.46702e-09
2.90037e-06
-1.50255e-09
2.90191e-06
-1.54062e-09
2.9035e-06
-1.58138e-09
2.90512e-06
-1.625e-09
2.90679e-06
-1.67166e-09
2.90851e-06
-1.72155e-09
2.91029e-06
-1.77485e-09
2.91212e-06
-1.83178e-09
2.91401e-06
-1.89256e-09
2.91597e-06
-1.9574e-09
2.918e-06
-2.02656e-09
2.9201e-06
-2.10028e-09
2.92228e-06
-2.17884e-09
2.92454e-06
-2.26251e-09
2.92689e-06
-2.35158e-09
2.92934e-06
-2.44636e-09
2.93188e-06
-2.54718e-09
2.93454e-06
-2.65436e-09
2.93731e-06
-2.76826e-09
2.9402e-06
-2.88923e-09
2.94321e-06
-3.01766e-09
2.94637e-06
-3.15394e-09
2.94967e-06
-3.29846e-09
2.95312e-06
-3.45165e-09
2.95673e-06
-3.61393e-09
2.96052e-06
-3.78575e-09
2.96448e-06
-3.96755e-09
2.96864e-06
-4.1598e-09
2.97301e-06
-4.36294e-09
2.97758e-06
-4.57746e-09
2.98239e-06
-4.80381e-09
2.98743e-06
-5.04247e-09
2.99273e-06
-5.29389e-09
2.99828e-06
-5.55853e-09
3.00412e-06
-5.83682e-09
3.01025e-06
-6.12917e-09
3.01669e-06
-6.43597e-09
3.02344e-06
-6.75758e-09
3.03054e-06
-7.09431e-09
3.03798e-06
-7.44643e-09
3.0458e-06
-7.81415e-09
3.054e-06
-8.1976e-09
3.06259e-06
-8.59684e-09
3.0716e-06
-9.01186e-09
3.08105e-06
-9.44251e-09
3.09094e-06
-9.88856e-09
3.10128e-06
-1.03496e-08
3.11211e-06
-1.08252e-08
3.12342e-06
-1.13147e-08
3.13524e-06
-1.18172e-08
3.14757e-06
-1.23317e-08
3.16043e-06
-1.2857e-08
3.17382e-06
-1.33918e-08
3.18776e-06
-1.39344e-08
3.20224e-06
-1.44831e-08
3.21728e-06
-1.50359e-08
3.23287e-06
-1.55904e-08
3.24901e-06
-1.61443e-08
3.26571e-06
-1.66948e-08
3.28294e-06
-1.72392e-08
3.30072e-06
-1.77744e-08
3.31902e-06
-1.82973e-08
3.33782e-06
-1.88045e-08
3.35711e-06
-1.92926e-08
3.37687e-06
-1.97582e-08
3.39707e-06
-2.01977e-08
3.41768e-06
-2.06078e-08
3.43866e-06
-2.0985e-08
3.45999e-06
-2.13261e-08
3.48162e-06
-2.16279e-08
3.5035e-06
-2.18878e-08
3.52561e-06
-2.2103e-08
3.54788e-06
-2.22714e-08
3.57027e-06
-2.23912e-08
3.59273e-06
-2.24608e-08
-2.24794e-08
3.61521e-06
7.66911e-06
-2.95625e-10
7.66977e-06
-8.84421e-10
7.67088e-06
-1.47146e-09
7.67242e-06
-2.05232e-09
7.67439e-06
-2.62498e-09
7.67678e-06
-3.18702e-09
7.67958e-06
-3.73588e-09
7.68279e-06
-4.26922e-09
7.68638e-06
-4.785e-09
7.69034e-06
-5.28151e-09
7.69466e-06
-5.75723e-09
7.69932e-06
-6.21086e-09
7.7043e-06
-6.64127e-09
7.70959e-06
-7.04755e-09
7.71516e-06
-7.42899e-09
7.72101e-06
-7.78511e-09
7.72709e-06
-8.11562e-09
7.73341e-06
-8.42048e-09
7.73994e-06
-8.69978e-09
7.74666e-06
-8.95385e-09
7.75355e-06
-9.18312e-09
7.76059e-06
-9.38822e-09
7.76777e-06
-9.56986e-09
7.77507e-06
-9.72888e-09
7.78247e-06
-9.86619e-09
7.78996e-06
-9.98281e-09
7.79752e-06
-1.00798e-08
7.80514e-06
-1.01582e-08
7.8128e-06
-1.02192e-08
7.8205e-06
-1.02639e-08
7.82822e-06
-1.02935e-08
7.83596e-06
-1.0309e-08
7.84369e-06
-1.03115e-08
7.85142e-06
-1.03023e-08
7.85913e-06
-1.02822e-08
7.86682e-06
-1.02523e-08
7.87448e-06
-1.02136e-08
7.88211e-06
-1.0167e-08
7.88969e-06
-1.01133e-08
7.89723e-06
-1.00533e-08
7.90472e-06
-9.98785e-09
7.91216e-06
-9.91761e-09
7.91954e-06
-9.84323e-09
7.92687e-06
-9.76533e-09
7.93413e-06
-9.68447e-09
7.94133e-06
-9.60115e-09
7.94847e-06
-9.51585e-09
7.95554e-06
-9.42898e-09
7.96255e-06
-9.34094e-09
7.96949e-06
-9.25207e-09
7.97636e-06
-9.16268e-09
7.98316e-06
-9.07305e-09
7.9899e-06
-8.98344e-09
7.99657e-06
-8.89405e-09
8.00317e-06
-8.80508e-09
8.00971e-06
-8.71671e-09
8.01618e-06
-8.62909e-09
8.02259e-06
-8.54234e-09
8.02893e-06
-8.45657e-09
8.03521e-06
-8.37188e-09
8.04143e-06
-8.28835e-09
8.04758e-06
-8.20604e-09
8.05368e-06
-8.12502e-09
8.05971e-06
-8.04531e-09
8.06569e-06
-7.96697e-09
8.0716e-06
-7.89e-09
8.07746e-06
-7.81444e-09
8.08327e-06
-7.74029e-09
8.08902e-06
-7.66756e-09
8.09472e-06
-7.59625e-09
8.10036e-06
-7.52635e-09
8.10595e-06
-7.45785e-09
8.1115e-06
-7.39075e-09
8.11699e-06
-7.32502e-09
8.12244e-06
-7.26065e-09
8.12783e-06
-7.19763e-09
8.13319e-06
-7.13592e-09
8.13849e-06
-7.07551e-09
8.14375e-06
-7.01637e-09
8.14897e-06
-6.95848e-09
8.15415e-06
-6.90181e-09
8.15928e-06
-6.84634e-09
8.16438e-06
-6.79203e-09
8.16943e-06
-6.73886e-09
8.17445e-06
-6.6868e-09
8.17942e-06
-6.63583e-09
8.18436e-06
-6.58592e-09
8.18927e-06
-6.53704e-09
8.19413e-06
-6.48916e-09
8.19896e-06
-6.44226e-09
8.20376e-06
-6.39631e-09
8.20853e-06
-6.35129e-09
8.21326e-06
-6.30717e-09
8.21795e-06
-6.26393e-09
8.22262e-06
-6.22153e-09
8.22725e-06
-6.17997e-09
8.23186e-06
-6.13921e-09
8.23643e-06
-6.09923e-09
8.24098e-06
-6.06001e-09
8.24549e-06
-6.02154e-09
8.24998e-06
-5.98378e-09
8.25444e-06
-5.94671e-09
8.25887e-06
-5.91033e-09
8.26328e-06
-5.8746e-09
8.26766e-06
-5.83952e-09
8.27201e-06
-5.80505e-09
8.27634e-06
-5.77119e-09
8.28065e-06
-5.73792e-09
8.28492e-06
-5.70522e-09
8.28918e-06
-5.67307e-09
8.29341e-06
-5.64147e-09
8.29762e-06
-5.61039e-09
8.3018e-06
-5.57981e-09
8.30597e-06
-5.54974e-09
8.31011e-06
-5.52015e-09
8.31422e-06
-5.49102e-09
8.31832e-06
-5.46236e-09
8.3224e-06
-5.43413e-09
8.32645e-06
-5.40635e-09
8.33048e-06
-5.37898e-09
8.3345e-06
-5.35202e-09
8.33849e-06
-5.32547e-09
8.34247e-06
-5.2993e-09
8.34642e-06
-5.27352e-09
8.35036e-06
-5.2481e-09
8.35428e-06
-5.22305e-09
8.35817e-06
-5.19835e-09
8.36205e-06
-5.174e-09
8.36592e-06
-5.14998e-09
8.36976e-06
-5.12629e-09
8.37359e-06
-5.10292e-09
8.3774e-06
-5.07987e-09
8.38119e-06
-5.05712e-09
8.38497e-06
-5.03468e-09
8.38873e-06
-5.01254e-09
8.39247e-06
-4.99068e-09
8.3962e-06
-4.96911e-09
8.39991e-06
-4.94782e-09
8.4036e-06
-4.9268e-09
8.40728e-06
-4.90605e-09
8.41095e-06
-4.88558e-09
8.4146e-06
-4.86536e-09
8.41823e-06
-4.84541e-09
8.42185e-06
-4.82571e-09
8.42545e-06
-4.80626e-09
8.42904e-06
-4.78707e-09
8.43262e-06
-4.76813e-09
8.43618e-06
-4.74944e-09
8.43973e-06
-4.731e-09
8.44327e-06
-4.7128e-09
8.44679e-06
-4.69485e-09
8.45029e-06
-4.67715e-09
8.45379e-06
-4.6597e-09
8.45727e-06
-4.6425e-09
8.46074e-06
-4.62556e-09
8.4642e-06
-4.60886e-09
8.46764e-06
-4.59243e-09
8.47107e-06
-4.57626e-09
8.47449e-06
-4.56035e-09
8.4779e-06
-4.54472e-09
8.4813e-06
-4.52937e-09
8.48468e-06
-4.51429e-09
8.48806e-06
-4.49951e-09
8.49142e-06
-4.48503e-09
8.49478e-06
-4.47086e-09
8.49812e-06
-4.45701e-09
8.50145e-06
-4.44349e-09
8.50477e-06
-4.43031e-09
8.50809e-06
-4.41748e-09
8.51139e-06
-4.40503e-09
8.51469e-06
-4.39297e-09
8.51797e-06
-4.3813e-09
8.52125e-06
-4.37007e-09
8.52452e-06
-4.35927e-09
8.52778e-06
-4.34894e-09
8.53103e-06
-4.3391e-09
8.53428e-06
-4.32977e-09
8.53752e-06
-4.32099e-09
8.54076e-06
-4.31278e-09
8.54399e-06
-4.30517e-09
8.54721e-06
-4.2982e-09
8.55043e-06
-4.29191e-09
8.55364e-06
-4.28633e-09
8.55685e-06
-4.28151e-09
8.56006e-06
-4.2775e-09
8.56327e-06
-4.27433e-09
8.56647e-06
-4.27207e-09
8.56967e-06
-4.27078e-09
8.57288e-06
-4.2705e-09
8.57608e-06
-4.2713e-09
8.57929e-06
-4.27326e-09
8.58249e-06
-4.27644e-09
8.5857e-06
-4.28093e-09
8.58892e-06
-4.2868e-09
8.59214e-06
-4.29415e-09
8.59537e-06
-4.30308e-09
8.5986e-06
-4.31367e-09
8.60185e-06
-4.32604e-09
8.6051e-06
-4.34031e-09
8.60837e-06
-4.3566e-09
8.61165e-06
-4.37504e-09
8.61495e-06
-4.39577e-09
8.61826e-06
-4.41894e-09
8.62159e-06
-4.4447e-09
8.62495e-06
-4.47322e-09
8.62833e-06
-4.5047e-09
8.63173e-06
-4.5393e-09
8.63516e-06
-4.57725e-09
8.63863e-06
-4.61874e-09
8.64212e-06
-4.66403e-09
8.64566e-06
-4.71334e-09
8.64923e-06
-4.76694e-09
8.65285e-06
-4.82511e-09
8.65652e-06
-4.88813e-09
8.66023e-06
-4.95633e-09
8.66401e-06
-5.03003e-09
8.66784e-06
-5.10958e-09
8.67173e-06
-5.19536e-09
8.6757e-06
-5.28776e-09
8.67974e-06
-5.3872e-09
8.68386e-06
-5.49414e-09
8.68806e-06
-5.60903e-09
8.69236e-06
-5.73238e-09
8.69676e-06
-5.86472e-09
8.70126e-06
-6.00662e-09
8.70588e-06
-6.15866e-09
8.71062e-06
-6.32147e-09
8.71549e-06
-6.49571e-09
8.7205e-06
-6.6821e-09
8.72566e-06
-6.88137e-09
8.73098e-06
-7.09429e-09
8.73647e-06
-7.3217e-09
8.74215e-06
-7.56447e-09
8.74801e-06
-7.82351e-09
8.75408e-06
-8.09978e-09
8.76038e-06
-8.3943e-09
8.76691e-06
-8.70813e-09
8.77369e-06
-9.04239e-09
8.78073e-06
-9.39825e-09
8.78807e-06
-9.77694e-09
8.7957e-06
-1.01797e-08
8.80365e-06
-1.0608e-08
8.81195e-06
-1.10631e-08
8.8206e-06
-1.15464e-08
8.82965e-06
-1.20596e-08
8.8391e-06
-1.26041e-08
8.84898e-06
-1.31816e-08
8.85932e-06
-1.37938e-08
8.87015e-06
-1.44423e-08
8.88149e-06
-1.5129e-08
8.89338e-06
-1.58556e-08
8.90584e-06
-1.66239e-08
8.91892e-06
-1.74358e-08
8.93263e-06
-1.82933e-08
8.94703e-06
-1.91981e-08
8.96214e-06
-2.01521e-08
8.978e-06
-2.11572e-08
8.99466e-06
-2.22152e-08
9.01215e-06
-2.33278e-08
9.03052e-06
-2.44967e-08
9.0498e-06
-2.57235e-08
9.07005e-06
-2.70096e-08
9.09132e-06
-2.83562e-08
9.11363e-06
-2.97645e-08
9.13706e-06
-3.12353e-08
9.16163e-06
-3.27691e-08
9.1874e-06
-3.43663e-08
9.21441e-06
-3.60267e-08
9.24272e-06
-3.77498e-08
9.27237e-06
-3.95347e-08
9.3034e-06
-4.138e-08
9.33585e-06
-4.32835e-08
9.36978e-06
-4.52427e-08
9.40522e-06
-4.72543e-08
9.4422e-06
-4.93143e-08
9.48076e-06
-5.14179e-08
9.52093e-06
-5.35596e-08
9.56273e-06
-5.5733e-08
9.60618e-06
-5.7931e-08
9.65129e-06
-6.01454e-08
9.69806e-06
-6.23672e-08
9.74651e-06
-6.45867e-08
9.7966e-06
-6.67932e-08
9.84834e-06
-6.89753e-08
9.90169e-06
-7.11208e-08
9.95661e-06
-7.3217e-08
1.00131e-05
-7.52507e-08
1.0071e-05
-7.7208e-08
1.01303e-05
-7.90751e-08
1.01909e-05
-8.0838e-08
1.02528e-05
-8.24827e-08
1.03158e-05
-8.39957e-08
1.03798e-05
-8.53638e-08
1.04448e-05
-8.65747e-08
1.05105e-05
-8.76169e-08
1.05769e-05
-8.84801e-08
1.06438e-05
-8.91554e-08
1.0711e-05
-8.96354e-08
1.07785e-05
-8.99142e-08
-8.99881e-08
1.0846e-05
1.27819e-05
-6.66681e-10
1.2783e-05
-1.99503e-09
1.27848e-05
-3.32001e-09
1.27874e-05
-4.63103e-09
1.27907e-05
-5.92274e-09
1.27947e-05
-7.18987e-09
1.27994e-05
-8.42711e-09
1.28047e-05
-9.62939e-09
1.28107e-05
-1.07921e-08
1.28174e-05
-1.19113e-08
1.28246e-05
-1.29835e-08
1.28324e-05
-1.40056e-08
1.28407e-05
-1.49752e-08
1.28496e-05
-1.58902e-08
1.28589e-05
-1.6749e-08
1.28687e-05
-1.75505e-08
1.28788e-05
-1.82942e-08
1.28894e-05
-1.89799e-08
1.29003e-05
-1.96079e-08
1.29115e-05
-2.01789e-08
1.2923e-05
-2.06939e-08
1.29348e-05
-2.11544e-08
1.29468e-05
-2.1562e-08
1.2959e-05
-2.19185e-08
1.29713e-05
-2.22261e-08
1.29839e-05
-2.24871e-08
1.29965e-05
-2.27039e-08
1.30092e-05
-2.28788e-08
1.3022e-05
-2.30146e-08
1.30348e-05
-2.31137e-08
1.30477e-05
-2.31787e-08
1.30606e-05
-2.32121e-08
1.30735e-05
-2.32165e-08
1.30864e-05
-2.31943e-08
1.30993e-05
-2.31478e-08
1.31121e-05
-2.30793e-08
1.31249e-05
-2.2991e-08
1.31376e-05
-2.2885e-08
1.31503e-05
-2.27631e-08
1.31628e-05
-2.26272e-08
1.31753e-05
-2.2479e-08
1.31877e-05
-2.23201e-08
1.32e-05
-2.21519e-08
1.32123e-05
-2.19759e-08
1.32244e-05
-2.17933e-08
1.32364e-05
-2.16052e-08
1.32483e-05
-2.14128e-08
1.32601e-05
-2.12168e-08
1.32717e-05
-2.10183e-08
1.32833e-05
-2.08179e-08
1.32947e-05
-2.06164e-08
1.33061e-05
-2.04144e-08
1.33173e-05
-2.02125e-08
1.33284e-05
-2.00111e-08
1.33394e-05
-1.98107e-08
1.33503e-05
-1.96117e-08
1.33611e-05
-1.94144e-08
1.33718e-05
-1.9219e-08
1.33824e-05
-1.90259e-08
1.33928e-05
-1.88353e-08
1.34032e-05
-1.86473e-08
1.34134e-05
-1.8462e-08
1.34236e-05
-1.82796e-08
1.34337e-05
-1.81003e-08
1.34436e-05
-1.7924e-08
1.34535e-05
-1.77508e-08
1.34632e-05
-1.75807e-08
1.34729e-05
-1.74139e-08
1.34825e-05
-1.72502e-08
1.3492e-05
-1.70898e-08
1.35014e-05
-1.69325e-08
1.35107e-05
-1.67784e-08
1.352e-05
-1.66275e-08
1.35291e-05
-1.64796e-08
1.35382e-05
-1.63348e-08
1.35472e-05
-1.6193e-08
1.35561e-05
-1.60542e-08
1.35649e-05
-1.59183e-08
1.35737e-05
-1.57853e-08
1.35824e-05
-1.56551e-08
1.3591e-05
-1.55276e-08
1.35996e-05
-1.54028e-08
1.36081e-05
-1.52807e-08
1.36165e-05
-1.51611e-08
1.36249e-05
-1.5044e-08
1.36331e-05
-1.49293e-08
1.36414e-05
-1.48171e-08
1.36495e-05
-1.47071e-08
1.36577e-05
-1.45994e-08
1.36657e-05
-1.44939e-08
1.36737e-05
-1.43906e-08
1.36816e-05
-1.42893e-08
1.36895e-05
-1.41901e-08
1.36974e-05
-1.40928e-08
1.37051e-05
-1.39975e-08
1.37129e-05
-1.3904e-08
1.37205e-05
-1.38123e-08
1.37282e-05
-1.37224e-08
1.37357e-05
-1.36342e-08
1.37433e-05
-1.35476e-08
1.37507e-05
-1.34627e-08
1.37582e-05
-1.33793e-08
1.37656e-05
-1.32975e-08
1.37729e-05
-1.32171e-08
1.37802e-05
-1.31382e-08
1.37874e-05
-1.30607e-08
1.37947e-05
-1.29845e-08
1.38018e-05
-1.29097e-08
1.3809e-05
-1.28361e-08
1.38161e-05
-1.27638e-08
1.38231e-05
-1.26927e-08
1.38301e-05
-1.26228e-08
1.38371e-05
-1.2554e-08
1.3844e-05
-1.24864e-08
1.38509e-05
-1.24198e-08
1.38578e-05
-1.23543e-08
1.38646e-05
-1.22898e-08
1.38714e-05
-1.22263e-08
1.38782e-05
-1.21638e-08
1.38849e-05
-1.21023e-08
1.38916e-05
-1.20416e-08
1.38982e-05
-1.19819e-08
1.39049e-05
-1.1923e-08
1.39115e-05
-1.1865e-08
1.3918e-05
-1.18079e-08
1.39245e-05
-1.17515e-08
1.3931e-05
-1.16959e-08
1.39375e-05
-1.16412e-08
1.39439e-05
-1.15871e-08
1.39504e-05
-1.15338e-08
1.39567e-05
-1.14813e-08
1.39631e-05
-1.14294e-08
1.39694e-05
-1.13782e-08
1.39757e-05
-1.13278e-08
1.3982e-05
-1.12779e-08
1.39882e-05
-1.12288e-08
1.39944e-05
-1.11802e-08
1.40006e-05
-1.11323e-08
1.40067e-05
-1.1085e-08
1.40129e-05
-1.10384e-08
1.4019e-05
-1.09923e-08
1.40251e-05
-1.09468e-08
1.40311e-05
-1.09019e-08
1.40372e-05
-1.08576e-08
1.40432e-05
-1.08139e-08
1.40491e-05
-1.07707e-08
1.40551e-05
-1.07281e-08
1.4061e-05
-1.0686e-08
1.4067e-05
-1.06445e-08
1.40729e-05
-1.06036e-08
1.40787e-05
-1.05632e-08
1.40846e-05
-1.05234e-08
1.40904e-05
-1.04841e-08
1.40962e-05
-1.04454e-08
1.4102e-05
-1.04073e-08
1.41077e-05
-1.03697e-08
1.41135e-05
-1.03327e-08
1.41192e-05
-1.02963e-08
1.41249e-05
-1.02605e-08
1.41306e-05
-1.02254e-08
1.41362e-05
-1.01908e-08
1.41419e-05
-1.01569e-08
1.41475e-05
-1.01236e-08
1.41531e-05
-1.0091e-08
1.41587e-05
-1.00591e-08
1.41643e-05
-1.00279e-08
1.41698e-05
-9.99749e-09
1.41754e-05
-9.96782e-09
1.41809e-05
-9.93895e-09
1.41864e-05
-9.91091e-09
1.41919e-05
-9.88374e-09
1.41974e-05
-9.85747e-09
1.42028e-05
-9.83216e-09
1.42083e-05
-9.80784e-09
1.42137e-05
-9.78456e-09
1.42191e-05
-9.76239e-09
1.42245e-05
-9.74136e-09
1.42299e-05
-9.72156e-09
1.42353e-05
-9.70304e-09
1.42407e-05
-9.68588e-09
1.42461e-05
-9.67015e-09
1.42514e-05
-9.65594e-09
1.42568e-05
-9.64333e-09
1.42622e-05
-9.63243e-09
1.42675e-05
-9.62333e-09
1.42728e-05
-9.61614e-09
1.42782e-05
-9.61098e-09
1.42835e-05
-9.60797e-09
1.42889e-05
-9.60726e-09
1.42942e-05
-9.60898e-09
1.42995e-05
-9.61328e-09
1.43049e-05
-9.62034e-09
1.43102e-05
-9.63032e-09
1.43156e-05
-9.64342e-09
1.43209e-05
-9.65983e-09
1.43263e-05
-9.67976e-09
1.43317e-05
-9.70345e-09
1.43371e-05
-9.73114e-09
1.43425e-05
-9.76308e-09
1.4348e-05
-9.79956e-09
1.43534e-05
-9.84085e-09
1.43589e-05
-9.88729e-09
1.43645e-05
-9.9392e-09
1.437e-05
-9.99694e-09
1.43756e-05
-1.00609e-08
1.43812e-05
-1.01314e-08
1.43869e-05
-1.0209e-08
1.43926e-05
-1.02941e-08
1.43984e-05
-1.03872e-08
1.44042e-05
-1.04887e-08
1.44101e-05
-1.05993e-08
1.4416e-05
-1.07195e-08
1.44221e-05
-1.085e-08
1.44282e-05
-1.09914e-08
1.44344e-05
-1.11444e-08
1.44406e-05
-1.13097e-08
1.4447e-05
-1.14882e-08
1.44535e-05
-1.16807e-08
1.44601e-05
-1.1888e-08
1.44668e-05
-1.21112e-08
1.44737e-05
-1.23511e-08
1.44807e-05
-1.2609e-08
1.44878e-05
-1.28858e-08
1.44952e-05
-1.31828e-08
1.45027e-05
-1.35013e-08
1.45103e-05
-1.38425e-08
1.45182e-05
-1.42079e-08
1.45263e-05
-1.4599e-08
1.45347e-05
-1.50174e-08
1.45432e-05
-1.54647e-08
1.45521e-05
-1.59427e-08
1.45612e-05
-1.64532e-08
1.45707e-05
-1.69982e-08
1.45804e-05
-1.75797e-08
1.45905e-05
-1.81999e-08
1.4601e-05
-1.88612e-08
1.46118e-05
-1.95658e-08
1.46231e-05
-2.03163e-08
1.46348e-05
-2.11153e-08
1.4647e-05
-2.19656e-08
1.46597e-05
-2.28701e-08
1.46729e-05
-2.38318e-08
1.46867e-05
-2.48537e-08
1.47011e-05
-2.59393e-08
1.47161e-05
-2.70918e-08
1.47319e-05
-2.83148e-08
1.47483e-05
-2.9612e-08
1.47655e-05
-3.0987e-08
1.47835e-05
-3.24439e-08
1.48023e-05
-3.39864e-08
1.48221e-05
-3.56188e-08
1.48428e-05
-3.7345e-08
1.48646e-05
-3.91694e-08
1.48874e-05
-4.10961e-08
1.49113e-05
-4.31294e-08
1.49364e-05
-4.52734e-08
1.49628e-05
-4.75325e-08
1.49905e-05
-4.99106e-08
1.50196e-05
-5.24118e-08
1.50501e-05
-5.50398e-08
1.50822e-05
-5.77982e-08
1.51159e-05
-6.06902e-08
1.51512e-05
-6.37188e-08
1.51884e-05
-6.68864e-08
1.52273e-05
-7.0195e-08
1.52682e-05
-7.36459e-08
1.53111e-05
-7.72398e-08
1.5356e-05
-8.09765e-08
1.54031e-05
-8.4855e-08
1.54525e-05
-8.88732e-08
1.55041e-05
-9.30278e-08
1.55581e-05
-9.73145e-08
1.56146e-05
-1.01727e-07
1.56736e-05
-1.06259e-07
1.57352e-05
-1.10901e-07
1.57994e-05
-1.15642e-07
1.58663e-05
-1.20469e-07
1.5936e-05
-1.2537e-07
1.60084e-05
-1.30326e-07
1.60836e-05
-1.35321e-07
1.61615e-05
-1.40334e-07
1.62423e-05
-1.45342e-07
1.63258e-05
-1.50322e-07
1.64121e-05
-1.55249e-07
1.6501e-05
-1.60094e-07
1.65927e-05
-1.64828e-07
1.66868e-05
-1.69422e-07
1.67835e-05
-1.73845e-07
1.68825e-05
-1.78065e-07
1.69837e-05
-1.8205e-07
1.7087e-05
-1.85769e-07
1.71922e-05
-1.8919e-07
1.72991e-05
-1.92285e-07
1.74075e-05
-1.95024e-07
1.75173e-05
-1.97382e-07
1.76281e-05
-1.99336e-07
1.77399e-05
-2.00864e-07
1.78522e-05
-2.01951e-07
1.79648e-05
-2.02582e-07
-2.0275e-07
1.80776e-05
1.78946e-05
-1.18961e-09
1.78962e-05
-3.5599e-09
1.78988e-05
-5.92413e-09
1.79024e-05
-8.26366e-09
1.7907e-05
-1.05683e-08
1.79127e-05
-1.28285e-08
1.79193e-05
-1.50348e-08
1.79268e-05
-1.71784e-08
1.79353e-05
-1.92513e-08
1.79446e-05
-2.12462e-08
1.79548e-05
-2.31567e-08
1.79658e-05
-2.49776e-08
1.79775e-05
-2.67043e-08
1.79899e-05
-2.83332e-08
1.80031e-05
-2.98615e-08
1.80168e-05
-3.12872e-08
1.80311e-05
-3.26095e-08
1.8046e-05
-3.3828e-08
1.80613e-05
-3.49434e-08
1.80771e-05
-3.59569e-08
1.80933e-05
-3.68705e-08
1.81098e-05
-3.76866e-08
1.81266e-05
-3.84083e-08
1.81437e-05
-3.90391e-08
1.81611e-05
-3.95826e-08
1.81787e-05
-4.00431e-08
1.81964e-05
-4.04247e-08
1.82142e-05
-4.0732e-08
1.82322e-05
-4.09695e-08
1.82502e-05
-4.11418e-08
1.82683e-05
-4.12536e-08
1.82864e-05
-4.13094e-08
1.83045e-05
-4.13136e-08
1.83226e-05
-4.12706e-08
1.83406e-05
-4.11846e-08
1.83586e-05
-4.10597e-08
1.83765e-05
-4.08997e-08
1.83943e-05
-4.07082e-08
1.8412e-05
-4.04888e-08
1.84297e-05
-4.02447e-08
1.84472e-05
-3.99788e-08
1.84645e-05
-3.96941e-08
1.84818e-05
-3.93932e-08
1.84989e-05
-3.90785e-08
1.85158e-05
-3.87521e-08
1.85326e-05
-3.84162e-08
1.85493e-05
-3.80726e-08
1.85658e-05
-3.7723e-08
1.85822e-05
-3.73688e-08
1.85984e-05
-3.70116e-08
1.86144e-05
-3.66525e-08
1.86303e-05
-3.62925e-08
1.8646e-05
-3.59328e-08
1.86616e-05
-3.55742e-08
1.8677e-05
-3.52174e-08
1.86922e-05
-3.4863e-08
1.87073e-05
-3.45118e-08
1.87223e-05
-3.41642e-08
1.8737e-05
-3.38206e-08
1.87517e-05
-3.34814e-08
1.87662e-05
-3.31469e-08
1.87805e-05
-3.28173e-08
1.87948e-05
-3.2493e-08
1.88088e-05
-3.2174e-08
1.88228e-05
-3.18604e-08
1.88366e-05
-3.15525e-08
1.88502e-05
-3.12502e-08
1.88638e-05
-3.09536e-08
1.88772e-05
-3.06626e-08
1.88905e-05
-3.03774e-08
1.89036e-05
-3.00979e-08
1.89167e-05
-2.98239e-08
1.89296e-05
-2.95556e-08
1.89424e-05
-2.92928e-08
1.89551e-05
-2.90355e-08
1.89677e-05
-2.87835e-08
1.89802e-05
-2.85368e-08
1.89926e-05
-2.82953e-08
1.90049e-05
-2.80589e-08
1.9017e-05
-2.78274e-08
1.90291e-05
-2.76009e-08
1.90411e-05
-2.73792e-08
1.9053e-05
-2.71621e-08
1.90648e-05
-2.69496e-08
1.90764e-05
-2.67415e-08
1.90881e-05
-2.65378e-08
1.90996e-05
-2.63383e-08
1.9111e-05
-2.61429e-08
1.91224e-05
-2.59515e-08
1.91336e-05
-2.57641e-08
1.91448e-05
-2.55804e-08
1.91559e-05
-2.54005e-08
1.9167e-05
-2.52242e-08
1.91779e-05
-2.50513e-08
1.91888e-05
-2.48819e-08
1.91996e-05
-2.47158e-08
1.92104e-05
-2.45528e-08
1.9221e-05
-2.43931e-08
1.92316e-05
-2.42363e-08
1.92422e-05
-2.40825e-08
1.92526e-05
-2.39316e-08
1.9263e-05
-2.37835e-08
1.92734e-05
-2.3638e-08
1.92837e-05
-2.34952e-08
1.92939e-05
-2.3355e-08
1.9304e-05
-2.32172e-08
1.93141e-05
-2.30819e-08
1.93242e-05
-2.29489e-08
1.93342e-05
-2.28182e-08
1.93441e-05
-2.26897e-08
1.9354e-05
-2.25633e-08
1.93638e-05
-2.24391e-08
1.93735e-05
-2.23169e-08
1.93832e-05
-2.21967e-08
1.93929e-05
-2.20784e-08
1.94025e-05
-2.1962e-08
1.94121e-05
-2.18474e-08
1.94216e-05
-2.17345e-08
1.9431e-05
-2.16234e-08
1.94404e-05
-2.1514e-08
1.94498e-05
-2.14063e-08
1.94591e-05
-2.13001e-08
1.94684e-05
-2.11955e-08
1.94776e-05
-2.10924e-08
1.94868e-05
-2.09908e-08
1.9496e-05
-2.08907e-08
1.9505e-05
-2.07919e-08
1.95141e-05
-2.06945e-08
1.95231e-05
-2.05985e-08
1.95321e-05
-2.05038e-08
1.9541e-05
-2.04104e-08
1.95499e-05
-2.03182e-08
1.95588e-05
-2.02272e-08
1.95676e-05
-2.01375e-08
1.95763e-05
-2.0049e-08
1.95851e-05
-1.99616e-08
1.95938e-05
-1.98753e-08
1.96024e-05
-1.97902e-08
1.9611e-05
-1.97061e-08
1.96196e-05
-1.96232e-08
1.96282e-05
-1.95413e-08
1.96367e-05
-1.94604e-08
1.96452e-05
-1.93806e-08
1.96536e-05
-1.93018e-08
1.9662e-05
-1.92241e-08
1.96704e-05
-1.91473e-08
1.96787e-05
-1.90716e-08
1.9687e-05
-1.89968e-08
1.96953e-05
-1.8923e-08
1.97036e-05
-1.88503e-08
1.97118e-05
-1.87785e-08
1.972e-05
-1.87077e-08
1.97281e-05
-1.86378e-08
1.97363e-05
-1.8569e-08
1.97443e-05
-1.85012e-08
1.97524e-05
-1.84344e-08
1.97604e-05
-1.83687e-08
1.97685e-05
-1.8304e-08
1.97764e-05
-1.82403e-08
1.97844e-05
-1.81778e-08
1.97923e-05
-1.81163e-08
1.98002e-05
-1.8056e-08
1.98081e-05
-1.79968e-08
1.98159e-05
-1.79388e-08
1.98238e-05
-1.78821e-08
1.98316e-05
-1.78266e-08
1.98393e-05
-1.77724e-08
1.98471e-05
-1.77196e-08
1.98548e-05
-1.76683e-08
1.98625e-05
-1.76184e-08
1.98702e-05
-1.757e-08
1.98779e-05
-1.75232e-08
1.98855e-05
-1.74782e-08
1.98931e-05
-1.74349e-08
1.99008e-05
-1.73934e-08
1.99083e-05
-1.73539e-08
1.99159e-05
-1.73164e-08
1.99235e-05
-1.72811e-08
1.9931e-05
-1.72481e-08
1.99386e-05
-1.72175e-08
1.99461e-05
-1.71894e-08
1.99536e-05
-1.7164e-08
1.99611e-05
-1.71414e-08
1.99686e-05
-1.71219e-08
1.99761e-05
-1.71055e-08
1.99835e-05
-1.70926e-08
1.9991e-05
-1.70832e-08
1.99985e-05
-1.70777e-08
2.00059e-05
-1.70762e-08
2.00134e-05
-1.7079e-08
2.00209e-05
-1.70864e-08
2.00284e-05
-1.70987e-08
2.00358e-05
-1.71162e-08
2.00433e-05
-1.71391e-08
2.00508e-05
-1.7168e-08
2.00584e-05
-1.72031e-08
2.00659e-05
-1.72448e-08
2.00735e-05
-1.72937e-08
2.00811e-05
-1.735e-08
2.00887e-05
-1.74144e-08
2.00963e-05
-1.74874e-08
2.0104e-05
-1.75694e-08
2.01117e-05
-1.76612e-08
2.01195e-05
-1.77633e-08
2.01273e-05
-1.78763e-08
2.01352e-05
-1.80011e-08
2.01431e-05
-1.81383e-08
2.01511e-05
-1.82889e-08
2.01592e-05
-1.84535e-08
2.01673e-05
-1.86333e-08
2.01755e-05
-1.8829e-08
2.01839e-05
-1.90418e-08
2.01923e-05
-1.92728e-08
2.02008e-05
-1.95231e-08
2.02095e-05
-1.97939e-08
2.02182e-05
-2.00867e-08
2.02272e-05
-2.04028e-08
2.02362e-05
-2.07436e-08
2.02454e-05
-2.11108e-08
2.02548e-05
-2.1506e-08
2.02644e-05
-2.19309e-08
2.02742e-05
-2.23876e-08
2.02842e-05
-2.2878e-08
2.02944e-05
-2.34041e-08
2.03049e-05
-2.39682e-08
2.03156e-05
-2.45727e-08
2.03266e-05
-2.52202e-08
2.03379e-05
-2.59131e-08
2.03496e-05
-2.66543e-08
2.03616e-05
-2.74469e-08
2.03739e-05
-2.82938e-08
2.03867e-05
-2.91984e-08
2.03998e-05
-3.01642e-08
2.04134e-05
-3.11948e-08
2.04275e-05
-3.2294e-08
2.04421e-05
-3.34659e-08
2.04573e-05
-3.47148e-08
2.0473e-05
-3.60451e-08
2.04894e-05
-3.74614e-08
2.05064e-05
-3.89687e-08
2.05241e-05
-4.05722e-08
2.05425e-05
-4.22771e-08
2.05617e-05
-4.4089e-08
2.05818e-05
-4.60137e-08
2.06028e-05
-4.80574e-08
2.06247e-05
-5.02262e-08
2.06476e-05
-5.25266e-08
2.06716e-05
-5.49653e-08
2.06967e-05
-5.75493e-08
2.0723e-05
-6.02855e-08
2.07506e-05
-6.31812e-08
2.07795e-05
-6.62438e-08
2.08098e-05
-6.94808e-08
2.08416e-05
-7.28997e-08
2.08749e-05
-7.65081e-08
2.091e-05
-8.03135e-08
2.09468e-05
-8.43235e-08
2.09854e-05
-8.85454e-08
2.1026e-05
-9.29863e-08
2.10686e-05
-9.7653e-08
2.11134e-05
-1.02552e-07
2.11604e-05
-1.07689e-07
2.12097e-05
-1.13069e-07
2.12615e-05
-1.18698e-07
2.13159e-05
-1.24578e-07
2.1373e-05
-1.30712e-07
2.14328e-05
-1.37102e-07
2.14956e-05
-1.43746e-07
2.15614e-05
-1.50645e-07
2.16303e-05
-1.57793e-07
2.17025e-05
-1.65186e-07
2.1778e-05
-1.72816e-07
2.18569e-05
-1.80672e-07
2.19394e-05
-1.88742e-07
2.20255e-05
-1.9701e-07
2.21153e-05
-2.05458e-07
2.22089e-05
-2.14062e-07
2.23063e-05
-2.22799e-07
2.24077e-05
-2.31638e-07
2.25129e-05
-2.40548e-07
2.2622e-05
-2.49493e-07
2.27351e-05
-2.58434e-07
2.28521e-05
-2.67327e-07