/*--------------------------------*- C++ -*----------------------------------*\
  =========                 |
  \\      /  F ield         | OpenFOAM: The Open Source CFD Toolbox
   \\    /   O peration     | Website:  https://openfoam.org
    \\  /    A nd           | Version:  7
     \\/     M anipulation  |
\*---------------------------------------------------------------------------*/
FoamFile
{
    version     2.0;
    format      ascii;
    class       surfaceScalarField;
    location    "5.6";
    object      phi;
}
// * * * * * * * * * * * * * * * * * * * * * * * * * * * * * * * * * * * * * //

dimensions      [0 3 -1 0 0 0 0];

internalField   nonuniform List<scalar> 
615
(
9.75142e-05
1.67332e-06
9.76732e-05
1.65187e-06
9.78303e-05
1.63075e-06
9.79855e-05
1.60996e-06
9.81387e-05
1.58949e-06
9.82902e-05
1.56933e-06
9.84398e-05
1.54947e-06
9.85876e-05
1.52991e-06
9.87336e-05
1.51063e-06
9.88779e-05
1.49164e-06
9.90205e-05
1.47292e-06
9.91613e-05
1.45447e-06
9.93005e-05
1.43628e-06
9.9438e-05
1.41835e-06
9.95739e-05
1.40067e-06
9.97081e-05
1.38324e-06
9.98408e-05
1.36606e-06
9.99718e-05
1.34913e-06
0.000100101
1.33245e-06
0.000100229
1.31604e-06
0.000100356
1.29993e-06
0.000100481
1.28414e-06
0.000100604
1.26875e-06
0.000100726
1.25386e-06
0.000100846
1.23962e-06
0.000100965
1.22626e-06
0.000101082
1.2142e-06
0.000101198
1.2038e-06
0.000101312
1.19627e-06
0.000101423
1.19165e-06
0.000101531
1.19297e-06
0.000101636
1.19756e-06
1.20338e-06
8.61938e-05
2.41866e-06
8.64426e-05
2.38303e-06
8.66879e-05
2.3481e-06
8.69299e-05
2.31384e-06
8.71686e-05
2.28025e-06
8.7404e-05
2.24729e-06
8.76363e-05
2.21497e-06
8.78654e-05
2.18326e-06
8.80915e-05
2.15214e-06
8.83146e-05
2.12161e-06
8.85346e-05
2.09164e-06
8.87518e-05
2.06223e-06
8.89661e-05
2.03336e-06
8.91776e-05
2.00501e-06
8.93863e-05
1.97718e-06
8.95923e-05
1.94985e-06
8.97956e-05
1.92301e-06
8.99963e-05
1.89665e-06
9.01944e-05
1.87075e-06
9.03899e-05
1.84531e-06
9.0583e-05
1.82032e-06
9.07735e-05
1.79575e-06
9.09617e-05
1.77161e-06
9.11474e-05
1.74789e-06
9.13308e-05
1.72456e-06
9.15119e-05
1.70163e-06
9.16906e-05
1.67909e-06
9.18672e-05
1.65692e-06
9.20415e-05
1.63512e-06
9.22137e-05
1.61368e-06
9.23837e-05
1.59259e-06
9.25516e-05
1.57184e-06
9.27174e-05
1.55142e-06
9.28812e-05
1.53133e-06
9.3043e-05
1.51156e-06
9.32027e-05
1.4921e-06
9.33605e-05
1.47295e-06
9.35164e-05
1.45409e-06
9.36704e-05
1.43552e-06
9.38225e-05
1.41724e-06
9.39727e-05
1.39923e-06
9.41211e-05
1.38149e-06
9.42677e-05
1.36402e-06
9.44126e-05
1.3468e-06
9.45557e-05
1.32984e-06
9.4697e-05
1.31311e-06
9.48367e-05
1.29663e-06
9.49746e-05
1.28038e-06
9.51109e-05
1.26437e-06
9.52456e-05
1.24858e-06
9.53786e-05
1.23302e-06
9.55101e-05
1.21768e-06
9.56399e-05
1.20259e-06
9.57682e-05
1.18774e-06
9.5895e-05
1.17317e-06
9.60202e-05
1.15892e-06
9.61439e-05
1.14504e-06
9.62661e-05
1.13164e-06
9.63869e-05
1.1189e-06
9.65061e-05
1.10703e-06
9.66238e-05
1.09653e-06
9.67398e-05
1.08774e-06
9.68539e-05
1.08216e-06
9.6966e-05
1.07961e-06
9.70744e-05
1.08448e-06
9.71801e-05
1.09191e-06
1.10577e-06
8.1491e-05
2.16584e-06
8.17403e-05
2.13375e-06
8.19861e-05
2.10229e-06
8.22285e-05
2.07145e-06
8.24675e-05
2.0412e-06
8.27033e-05
2.01154e-06
8.29358e-05
1.98245e-06
8.31652e-05
1.95391e-06
8.33914e-05
1.92591e-06
8.36146e-05
1.89844e-06
8.38347e-05
1.87148e-06
8.40519e-05
1.84503e-06
8.42662e-05
1.81906e-06
8.44777e-05
1.79357e-06
8.46863e-05
1.76854e-06
8.48922e-05
1.74397e-06
8.50954e-05
1.71985e-06
8.52959e-05
1.69615e-06
8.54938e-05
1.67288e-06
8.5689e-05
1.65002e-06
8.58818e-05
1.62756e-06
8.60721e-05
1.60549e-06
8.62599e-05
1.5838e-06
8.64453e-05
1.56249e-06
8.66283e-05
1.54154e-06
8.6809e-05
1.52095e-06
8.69874e-05
1.50071e-06
8.71635e-05
1.48081e-06
8.73374e-05
1.46124e-06
8.7509e-05
1.44199e-06
8.76786e-05
1.42306e-06
8.7846e-05
1.40444e-06
8.80113e-05
1.38612e-06
8.81745e-05
1.36809e-06
8.83357e-05
1.35036e-06
8.84949e-05
1.3329e-06
8.86521e-05
1.31572e-06
8.88074e-05
1.29881e-06
8.89608e-05
1.28216e-06
8.91123e-05
1.26576e-06
8.92619e-05
1.24962e-06
8.94097e-05
1.23371e-06
8.95556e-05
1.21805e-06
8.96998e-05
1.20262e-06
8.98422e-05
1.18741e-06
8.99829e-05
1.17242e-06
9.01219e-05
1.15765e-06
9.02592e-05
1.1431e-06
9.03948e-05
1.12875e-06
9.05288e-05
1.11461e-06
9.06611e-05
1.10067e-06
9.07919e-05
1.08694e-06
9.0921e-05
1.07343e-06
9.10486e-05
1.06015e-06
9.11747e-05
1.04712e-06
9.12992e-05
1.03439e-06
9.14223e-05
1.02201e-06
9.15438e-05
1.0101e-06
9.16639e-05
9.9883e-07
9.17825e-05
9.88418e-07
9.18996e-05
9.79405e-07
9.20152e-05
9.72141e-07
9.2129e-05
9.68374e-07
9.22408e-05
9.67778e-07
9.23493e-05
9.75979e-07
9.24549e-05
9.86305e-07
1.00797e-06
7.6611e-05
1.91477e-06
7.68585e-05
1.88625e-06
7.71025e-05
1.85828e-06
7.73431e-05
1.83087e-06
7.75803e-05
1.804e-06
7.78142e-05
1.77764e-06
7.80448e-05
1.7518e-06
7.82723e-05
1.72645e-06
7.84966e-05
1.70158e-06
7.87179e-05
1.67718e-06
7.89361e-05
1.65325e-06
7.91514e-05
1.62976e-06
7.93637e-05
1.60671e-06
7.95732e-05
1.58408e-06
7.97799e-05
1.56187e-06
7.99838e-05
1.54006e-06
8.0185e-05
1.51866e-06
8.03835e-05
1.49763e-06
8.05794e-05
1.47698e-06
8.07727e-05
1.45671e-06
8.09635e-05
1.43678e-06
8.11518e-05
1.41721e-06
8.13376e-05
1.39798e-06
8.1521e-05
1.37909e-06
8.1702e-05
1.36052e-06
8.18807e-05
1.34226e-06
8.20571e-05
1.32432e-06
8.22312e-05
1.30668e-06
8.24031e-05
1.28934e-06
8.25728e-05
1.27228e-06
8.27404e-05
1.25551e-06
8.29058e-05
1.23901e-06
8.30691e-05
1.22279e-06
8.32304e-05
1.20682e-06
8.33897e-05
1.19111e-06
8.35469e-05
1.17565e-06
8.37022e-05
1.16044e-06
8.38555e-05
1.14547e-06
8.4007e-05
1.13072e-06
8.41565e-05
1.11621e-06
8.43042e-05
1.10192e-06
8.44501e-05
1.08784e-06
8.45942e-05
1.07398e-06
8.47364e-05
1.06032e-06
8.4877e-05
1.04687e-06
8.50158e-05
1.03361e-06
8.51529e-05
1.02054e-06
8.52883e-05
1.00767e-06
8.54221e-05
9.94977e-07
8.55542e-05
9.8247e-07
8.56848e-05
9.70148e-07
8.58137e-05
9.58013e-07
8.59411e-05
9.46072e-07
8.60669e-05
9.3434e-07
8.61911e-05
9.2284e-07
8.63139e-05
9.1161e-07
8.64352e-05
9.00718e-07
8.65551e-05
8.90258e-07
8.66735e-05
8.80416e-07
8.67905e-05
8.71409e-07
8.69061e-05
8.63805e-07
8.70203e-05
8.57962e-07
8.71328e-05
8.55831e-07
8.72436e-05
8.5702e-07
8.73513e-05
8.68241e-07
8.74562e-05
8.81403e-07
9.10518e-07
7.15529e-05
1.66789e-06
7.17962e-05
1.64292e-06
7.2036e-05
1.61844e-06
7.22725e-05
1.59444e-06
7.25056e-05
1.57091e-06
7.27354e-05
1.54785e-06
7.29619e-05
1.52523e-06
7.31853e-05
1.50305e-06
7.34056e-05
1.48129e-06
7.36228e-05
1.45995e-06
7.38371e-05
1.43901e-06
7.40484e-05
1.41847e-06
7.42568e-05
1.39831e-06
7.44623e-05
1.37852e-06
7.46651e-05
1.35911e-06
7.48651e-05
1.34004e-06
7.50624e-05
1.32133e-06
7.52571e-05
1.30295e-06
7.54492e-05
1.28491e-06
7.56387e-05
1.26719e-06
7.58257e-05
1.24978e-06
7.60102e-05
1.23268e-06
7.61923e-05
1.21588e-06
7.6372e-05
1.19938e-06
7.65494e-05
1.18316e-06
7.67245e-05
1.16722e-06
7.68972e-05
1.15155e-06
7.70678e-05
1.13615e-06
7.72361e-05
1.12101e-06
7.74023e-05
1.10612e-06
7.75663e-05
1.09148e-06
7.77282e-05
1.07708e-06
7.78881e-05
1.06292e-06
7.80459e-05
1.04898e-06
7.82018e-05
1.03528e-06
7.83556e-05
1.02179e-06
7.85075e-05
1.00852e-06
7.86576e-05
9.95456e-07
7.88057e-05
9.82598e-07
7.89519e-05
9.6994e-07
7.90964e-05
9.57476e-07
7.9239e-05
9.45203e-07
7.93799e-05
9.33115e-07
7.9519e-05
7.96564e-05
7.97921e-05
7.99261e-05
8.00585e-05
8.01892e-05
8.03183e-05
8.04458e-05
8.05718e-05
8.06962e-05
8.08191e-05
8.09405e-05
8.10604e-05
8.11789e-05
8.1296e-05
8.14117e-05
8.15261e-05
8.16391e-05
8.17509e-05
8.18612e-05
8.197e-05
8.20762e-05
8.21797e-05
6.63154e-05
6.65521e-05
6.67853e-05
6.70152e-05
6.72418e-05
6.74652e-05
6.76854e-05
6.79025e-05
6.81165e-05
6.83275e-05
6.85356e-05
6.87408e-05
6.89432e-05
6.91428e-05
6.93396e-05
6.95338e-05
6.97253e-05
6.99142e-05
7.01006e-05
7.02844e-05
7.04658e-05
7.06448e-05
7.08214e-05
7.09957e-05
7.11676e-05
7.13373e-05
7.15048e-05
7.16701e-05
7.18332e-05
7.19942e-05
7.21532e-05
7.23101e-05
7.24649e-05
7.26178e-05
7.27687e-05
7.29177e-05
7.30648e-05
7.32101e-05
7.33535e-05
7.34951e-05
7.36349e-05
7.3773e-05
)
;

boundaryField
{
    inlet
    {
        type            calculated;
        value           nonuniform 0();
    }
    outlet
    {
        type            calculated;
        value           nonuniform List<scalar> 5(0.000101733 9.72777e-05 9.25527e-05 8.75536e-05 8.22763e-05);
    }
    wall
    {
        type            calculated;
        value           nonuniform 0();
    }
    wedge1
    {
        type            wedge;
        value           nonuniform List<scalar> 
344
(
-4.77722e-16
-1.39939e-16
-1.22467e-16
7.10982e-16
-2.71738e-16
-4.70708e-16
-1.37873e-16
-1.20649e-16
7.00364e-16
-2.6766e-16
-4.63828e-16
-1.35846e-16
-1.18866e-16
6.89958e-16
-2.63664e-16
-4.57083e-16
-1.3386e-16
-1.17118e-16
6.79756e-16
-2.59746e-16
-4.50467e-16
-1.31912e-16
-1.15404e-16
6.69754e-16
-2.55905e-16
-4.43978e-16
-1.30001e-16
-1.13723e-16
6.59947e-16
-2.5214e-16
-4.37612e-16
-1.28127e-16
-1.12075e-16
6.50329e-16
-2.48448e-16
-4.31365e-16
-1.26288e-16
-1.10458e-16
6.40896e-16
-2.44827e-16
-4.25236e-16
-1.24484e-16
-1.08872e-16
6.31644e-16
-2.41276e-16
-4.19221e-16
-1.22714e-16
-1.07316e-16
6.22567e-16
-2.37794e-16
-4.13316e-16
-1.20976e-16
-1.05788e-16
6.13661e-16
-2.34377e-16
-4.07522e-16
-1.19272e-16
-1.0429e-16
6.04923e-16
-2.31025e-16
-4.01834e-16
-1.17598e-16
-1.0282e-16
5.96348e-16
-2.27735e-16
-3.96249e-16
-1.15956e-16
-1.01376e-16
5.87931e-16
-2.24507e-16
-3.90764e-16
-1.14343e-16
-9.99586e-17
5.7967e-16
-2.21338e-16
-3.85378e-16
-1.12759e-16
-9.85671e-17
5.7156e-16
-2.18228e-16
-3.80089e-16
-1.11203e-16
-9.72008e-17
5.63597e-16
-2.15174e-16
-3.74893e-16
-1.09676e-16
-9.5859e-17
5.55779e-16
-2.12177e-16
-3.69788e-16
-1.08175e-16
-9.45413e-17
5.481e-16
-2.09233e-16
-3.64772e-16
-1.067e-16
-9.32468e-17
5.40559e-16
-2.06343e-16
-3.59845e-16
-1.05252e-16
-9.19752e-17
5.33151e-16
-2.03504e-16
-3.55002e-16
-1.0383e-16
-9.07259e-17
5.25874e-16
-2.00714e-16
-3.50243e-16
-1.02431e-16
-8.94984e-17
5.18724e-16
-1.97975e-16
-3.45564e-16
-1.01056e-16
-8.82919e-17
5.11699e-16
-1.95283e-16
-3.40965e-16
-9.97055e-17
-8.71062e-17
5.04795e-16
-1.92638e-16
-3.36444e-16
-9.83775e-17
-8.59407e-17
4.98009e-16
-1.90038e-16
-3.31998e-16
-9.70718e-17
-8.4795e-17
4.91339e-16
-1.87483e-16
-3.27625e-16
-9.57874e-17
-8.36686e-17
4.84782e-16
-1.84972e-16
-3.23326e-16
-9.45252e-17
-8.2561e-17
4.78335e-16
-1.82502e-16
-3.19097e-16
-9.32836e-17
-8.14718e-17
4.71996e-16
-1.80074e-16
-3.14937e-16
-9.20623e-17
-8.04006e-17
4.65762e-16
-1.77687e-16
-3.10843e-16
-9.08609e-17
-7.93469e-17
4.59631e-16
-1.75339e-16
-3.06816e-16
-8.96789e-17
-7.83104e-17
4.536e-16
-1.7303e-16
-3.02853e-16
-8.85158e-17
-7.72906e-17
4.47666e-16
-1.70759e-16
-1.10884e-16
-2.98952e-16
-8.73712e-17
-7.62871e-17
4.41829e-16
-1.68525e-16
-1.09466e-16
-2.95112e-16
-8.62442e-17
-7.52995e-17
4.36085e-16
-1.66327e-16
-1.08071e-16
-2.91333e-16
-8.51356e-17
-7.43276e-17
4.30432e-16
-1.64163e-16
-1.06697e-16
-2.87612e-16
-8.40443e-17
-7.33709e-17
4.24868e-16
-1.62034e-16
-1.05344e-16
-2.83948e-16
-8.29696e-17
-7.2429e-17
4.19391e-16
-1.59938e-16
-1.04011e-16
-2.8034e-16
-8.19113e-17
-7.15016e-17
4.13998e-16
-1.57875e-16
-1.02698e-16
-2.76786e-16
-8.08691e-17
-7.05884e-17
4.08689e-16
-1.55843e-16
-1.01405e-16
-2.73285e-16
-7.98425e-17
-6.9689e-17
4.0346e-16
-1.53843e-16
-1.00131e-16
-2.69836e-16
-7.88311e-17
-6.8803e-17
3.9831e-16
-1.51873e-16
-9.8875e-17
-2.66438e-16
-7.78348e-17
-6.79302e-17
3.93237e-16
-9.76366e-17
-2.63088e-16
-7.68525e-17
-6.70702e-17
3.88239e-16
-9.64169e-17
-2.59787e-16
-7.58851e-17
-6.62227e-17
3.83315e-16
-9.52142e-17
-2.56534e-16
-7.49315e-17
-6.53876e-17
3.78462e-16
-9.40285e-17
-2.53326e-16
-7.39915e-17
-6.45645e-17
3.73679e-16
-9.28587e-17
-2.50163e-16
-7.30645e-17
-6.37531e-17
3.68966e-16
-9.1706e-17
-2.47045e-16
-7.21512e-17
-6.29535e-17
3.64322e-16
-9.05694e-17
-2.43972e-16
-7.12511e-17
-6.21656e-17
3.59746e-16
-8.94492e-17
-2.40944e-16
-7.03642e-17
-6.13896e-17
3.5524e-16
-8.83451e-17
-2.37961e-16
-6.94908e-17
-6.06258e-17
3.50807e-16
-8.72591e-17
-2.35028e-16
-6.86324e-17
-5.9875e-17
3.46451e-16
-8.61918e-17
-2.32147e-16
-6.779e-17
-5.91388e-17
3.42183e-16
-8.51458e-17
-2.29326e-16
-6.69658e-17
-5.84194e-17
3.38015e-16
-8.41247e-17
-2.26577e-16
-6.6164e-17
-5.77206e-17
3.33975e-16
-8.31345e-17
-2.23918e-16
-6.53905e-17
-5.70483e-17
3.30097e-16
-8.21848e-17
-2.21379e-16
-6.46557e-17
-5.64129e-17
3.26453e-16
-8.12885e-17
-2.19002e-16
-6.3973e-17
-5.58279e-17
3.23129e-16
-8.04701e-17
-2.16867e-16
-6.33717e-17
-5.5324e-17
3.20338e-16
-7.97532e-17
-2.15046e-16
-6.2876e-17
-5.49256e-17
3.18247e-16
-7.9199e-17
-2.13771e-16
-6.25748e-17
-5.47323e-17
3.17575e-16
-7.88282e-17
-2.13067e-16
-6.24705e-17
-5.47438e-17
3.18325e-16
-7.87649e-17
-2.13534e-16
-6.2824e-17
-5.5275e-17
3.22922e-16
-7.89504e-17
-2.1463e-16
-6.33642e-17
-5.59858e-17
3.28751e-16
-7.90613e-17
-2.1636e-16
-6.43704e-17
-5.7394e-17
3.40675e-16
)
;
    }
    wedge2
    {
        type            wedge;
        value           nonuniform List<scalar> 
344
(
-4.77727e-16
-1.39945e-16
-1.22473e-16
7.10976e-16
-2.71743e-16
-4.70711e-16
-1.37877e-16
-1.20653e-16
7.0036e-16
-2.67664e-16
-4.63833e-16
-1.35851e-16
-1.18869e-16
6.89954e-16
-2.63666e-16
-4.57085e-16
-1.33863e-16
-1.17121e-16
6.79753e-16
-2.59748e-16
-4.50468e-16
-1.31913e-16
-1.15406e-16
6.69752e-16
-2.55908e-16
-4.43977e-16
-1.30001e-16
-1.13724e-16
6.59945e-16
-2.52142e-16
-4.3761e-16
-1.28126e-16
-1.12075e-16
6.50328e-16
-2.48449e-16
-4.31362e-16
-1.26286e-16
-1.10457e-16
6.40896e-16
-2.44828e-16
-4.25232e-16
-1.24481e-16
-1.0887e-16
6.31644e-16
-2.41277e-16
-4.19216e-16
-1.2271e-16
-1.07313e-16
6.22569e-16
-2.37792e-16
-4.13313e-16
-1.20973e-16
-1.05785e-16
6.13664e-16
-2.34374e-16
-4.07516e-16
-1.19266e-16
-1.04286e-16
6.04927e-16
-2.31021e-16
-4.01826e-16
-1.17592e-16
-1.02814e-16
5.96352e-16
-2.27731e-16
-3.96239e-16
-1.15948e-16
-1.01369e-16
5.87937e-16
-2.24502e-16
-3.90754e-16
-1.14334e-16
-9.99514e-17
5.79676e-16
-2.21333e-16
-3.85367e-16
-1.12749e-16
-9.85593e-17
5.71566e-16
-2.18223e-16
-3.80076e-16
-1.11193e-16
-9.71922e-17
5.63605e-16
-2.15169e-16
-3.7488e-16
-1.09665e-16
-9.58498e-17
5.55786e-16
-2.12171e-16
-3.69774e-16
-1.08163e-16
-9.45313e-17
5.48109e-16
-2.09226e-16
-3.6476e-16
-1.06689e-16
-9.32362e-17
5.40568e-16
-2.06334e-16
-3.5983e-16
-1.0524e-16
-9.19639e-17
5.33161e-16
-2.03495e-16
-3.54987e-16
-1.03816e-16
-9.07138e-17
5.25885e-16
-2.00705e-16
-3.50226e-16
-1.02417e-16
-8.94855e-17
5.18736e-16
-1.97965e-16
-3.45548e-16
-1.01042e-16
-8.82785e-17
5.11711e-16
-1.95272e-16
-3.40948e-16
-9.969e-17
-8.70922e-17
5.04807e-16
-1.92626e-16
-3.36425e-16
-9.83611e-17
-8.59262e-17
4.98022e-16
-1.90026e-16
-3.31979e-16
-9.70547e-17
-8.47798e-17
4.91353e-16
-1.87471e-16
-3.27607e-16
-9.57707e-17
-8.36528e-17
4.84796e-16
-1.84958e-16
-3.23306e-16
-9.45071e-17
-8.25446e-17
4.7835e-16
-1.82489e-16
-3.19076e-16
-9.32646e-17
-8.14548e-17
4.72011e-16
-1.80061e-16
-3.14914e-16
-9.20425e-17
-8.0383e-17
4.65778e-16
-1.77674e-16
-3.1082e-16
-9.08404e-17
-7.93287e-17
4.59647e-16
-1.75326e-16
-3.06792e-16
-8.96576e-17
-7.82915e-17
4.53616e-16
-1.73016e-16
-3.02828e-16
-8.84938e-17
-7.72711e-17
4.47683e-16
-1.70744e-16
-1.10856e-16
-2.98927e-16
-8.73487e-17
-7.6267e-17
4.41847e-16
-1.68509e-16
-1.09439e-16
-2.95088e-16
-8.62221e-17
-7.5279e-17
4.36103e-16
-1.6631e-16
-1.08042e-16
-2.91307e-16
-8.51124e-17
-7.43065e-17
4.30451e-16
-1.64146e-16
-1.06667e-16
-2.87585e-16
-8.40201e-17
-7.33492e-17
4.24887e-16
-1.62016e-16
-1.05313e-16
-2.83921e-16
-8.29448e-17
-7.24068e-17
4.1941e-16
-1.5992e-16
-1.0398e-16
-2.80312e-16
-8.18859e-17
-7.1479e-17
4.14018e-16
-1.57857e-16
-1.02667e-16
-2.76757e-16
-8.08432e-17
-7.05652e-17
4.08709e-16
-1.55825e-16
-1.01373e-16
-2.73256e-16
-7.98161e-17
-6.96654e-17
4.03481e-16
-1.53825e-16
-1.00098e-16
-2.69806e-16
-7.88044e-17
-6.8779e-17
3.98331e-16
-1.51854e-16
-9.88415e-17
-2.66407e-16
-7.78075e-17
-6.79057e-17
3.93259e-16
-9.76041e-17
-2.63059e-16
-7.68257e-17
-6.70454e-17
3.88262e-16
-9.63833e-17
-2.59757e-16
-7.58575e-17
-6.61976e-17
3.83337e-16
-9.518e-17
-2.56502e-16
-7.49033e-17
-6.53621e-17
3.78485e-16
-9.39936e-17
-2.53294e-16
-7.39628e-17
-6.45385e-17
3.73703e-16
-9.28244e-17
-2.50132e-16
-7.3036e-17
-6.37269e-17
3.6899e-16
-9.16708e-17
-2.47013e-16
-7.2122e-17
-6.29269e-17
3.64346e-16
-9.05336e-17
-2.4394e-16
-7.12213e-17
-6.21387e-17
3.5977e-16
-8.94128e-17
-2.40911e-16
-7.03341e-17
-6.13622e-17
3.55265e-16
-8.83091e-17
-2.37929e-16
-6.94609e-17
-6.05982e-17
3.50832e-16
-8.72223e-17
-2.34994e-16
-6.86018e-17
-5.98472e-17
3.46477e-16
-8.61545e-17
-2.32113e-16
-6.77589e-17
-5.91106e-17
3.42208e-16
-8.51078e-17
-2.29291e-16
-6.69344e-17
-5.83909e-17
3.38041e-16
-8.40864e-17
-2.26542e-16
-6.61323e-17
-5.76918e-17
3.34001e-16
-8.30957e-17
-2.23882e-16
-6.53583e-17
-5.70192e-17
3.30123e-16
-8.21456e-17
-2.21344e-16
-6.46232e-17
-5.63835e-17
3.2648e-16
-8.12491e-17
-2.18965e-16
-6.394e-17
-5.5798e-17
3.23156e-16
-8.04303e-17
-2.1683e-16
-6.33385e-17
-5.52938e-17
3.20365e-16
-7.97131e-17
-2.15009e-16
-6.28425e-17
-5.48953e-17
3.18274e-16
-7.91587e-17
-2.13734e-16
-6.25411e-17
-5.47017e-17
3.17603e-16
-7.87877e-17
-2.1303e-16
-6.24366e-17
-5.4713e-17
3.18353e-16
-7.87245e-17
-2.13496e-16
-6.27903e-17
-5.52443e-17
3.2295e-16
-7.89099e-17
-2.14593e-16
-6.33303e-17
-5.5955e-17
3.28779e-16
-7.90207e-17
-2.16323e-16
-6.43364e-17
-5.7363e-17
3.40703e-16
)
;
    }
    axis
    {
        type            empty;
        value           nonuniform 0();
    }
    procBoundary35to29
    {
        type            processor;
        value           nonuniform List<scalar> 
68
(
-1.83427e-06
-1.81086e-06
-1.78782e-06
-1.76512e-06
-1.74278e-06
-1.72077e-06
-1.69908e-06
-1.67772e-06
-1.65667e-06
-1.63593e-06
-1.61548e-06
-1.59533e-06
-1.57545e-06
-1.55586e-06
-1.53654e-06
-1.51749e-06
-1.4987e-06
-1.48019e-06
-1.46194e-06
-1.44399e-06
-1.42634e-06
-1.40904e-06
-1.39214e-06
-1.37575e-06
-1.36e-06
-1.34511e-06
-1.33146e-06
-1.31939e-06
-1.30981e-06
-1.30308e-06
-1.30068e-06
-1.30261e-06
-1.30021e-06
-2.67089e-06
-2.63178e-06
-2.59343e-06
-2.55582e-06
-2.51893e-06
-2.48274e-06
-2.44724e-06
-2.4124e-06
-2.37821e-06
-2.34466e-06
-2.31173e-06
-2.2794e-06
-2.24766e-06
-2.2165e-06
-2.1859e-06
-2.15585e-06
-2.12633e-06
-2.09733e-06
-2.06884e-06
-2.04085e-06
-2.01334e-06
-1.98631e-06
-1.95974e-06
-1.93363e-06
-1.90795e-06
-1.8827e-06
-1.85788e-06
-1.83347e-06
-1.80946e-06
-1.78584e-06
-1.7626e-06
-1.73974e-06
-1.71724e-06
-9.73533e-05
-1.69511e-06
)
;
    }
    procBoundary35to34
    {
        type            processor;
        value           nonuniform List<scalar> 4(-8.59416e-05 -8.12382e-05 -7.63599e-05 -7.1306e-05);
    }
    procBoundary35to40
    {
        type            processor;
        value           uniform -6.60752e-05;
    }
    procBoundary35to41
    {
        type            processor;
        value           nonuniform List<scalar> 
68
(
9.21209e-07
9.09479e-07
8.97922e-07
8.86533e-07
8.75311e-07
8.64252e-07
8.53355e-07
8.4262e-07
8.32051e-07
8.21654e-07
8.11442e-07
8.01439e-07
7.91681e-07
7.82232e-07
7.73183e-07
7.64717e-07
7.57045e-07
7.5075e-07
7.46197e-07
7.4549e-07
7.48227e-07
7.62067e-07
7.7785e-07
8.13947e-07
1.42773e-06
1.40624e-06
1.38518e-06
1.36455e-06
1.34431e-06
1.32448e-06
1.30503e-06
1.28596e-06
1.26726e-06
1.24891e-06
1.23092e-06
1.21327e-06
1.19594e-06
1.17895e-06
1.16226e-06
1.14589e-06
1.12982e-06
1.11404e-06
1.09854e-06
1.08333e-06
1.06838e-06
1.0537e-06
1.03928e-06
1.02512e-06
1.0112e-06
9.97519e-07
9.84076e-07
9.70862e-07
9.57872e-07
9.45101e-07
9.32544e-07
9.20195e-07
9.0805e-07
8.96103e-07
8.84351e-07
8.72788e-07
8.61411e-07
8.50214e-07
8.39193e-07
8.28345e-07
8.17664e-07
8.07147e-07
7.39093e-05
7.9679e-07
)
;
    }
}


// ************************************************************************* //
