/*--------------------------------*- C++ -*----------------------------------*\
  =========                 |
  \\      /  F ield         | OpenFOAM: The Open Source CFD Toolbox
   \\    /   O peration     | Website:  https://openfoam.org
    \\  /    A nd           | Version:  7
     \\/     M anipulation  |
\*---------------------------------------------------------------------------*/
FoamFile
{
    version     2.0;
    format      ascii;
    class       volVectorField;
    location    "5.6";
    object      U;
}
// * * * * * * * * * * * * * * * * * * * * * * * * * * * * * * * * * * * * * //

dimensions      [0 1 -1 0 0 0 0];

internalField   nonuniform List<vector> 
344
(
(0.679331 0.00427634 1.00953e-16)
(0.680447 0.00422165 9.36623e-17)
(0.681549 0.00416779 1.0233e-16)
(0.682637 0.00411477 1.07773e-16)
(0.683712 0.00406255 1.09311e-16)
(0.684774 0.00401112 1.12078e-16)
(0.685824 0.00396046 1.13891e-16)
(0.686861 0.00391056 1.16736e-16)
(0.687885 0.00386138 1.17383e-16)
(0.688897 0.00381293 1.19471e-16)
(0.689897 0.00376517 1.14035e-16)
(0.690885 0.00371809 1.2021e-16)
(0.691861 0.00367168 1.22402e-16)
(0.692826 0.00362592 1.24702e-16)
(0.693779 0.0035808 1.20696e-16)
(0.69472 0.00353632 1.26035e-16)
(0.695651 0.00349246 1.27827e-16)
(0.69657 0.00344923 1.30167e-16)
(0.697478 0.00340665 1.27166e-16)
(0.698376 0.00336475 1.31792e-16)
(0.699262 0.00332358 1.33411e-16)
(0.700138 0.00328325 1.35738e-16)
(0.701004 0.00324389 1.3687e-16)
(0.701859 0.00320575 1.38342e-16)
(0.702704 0.00316921 1.40005e-16)
(0.703537 0.00313478 1.41074e-16)
(0.704362 0.00310346 1.42188e-16)
(0.70517 0.00307611 1.43322e-16)
(0.705979 0.00305533 1.44192e-16)
(0.70674 0.00304152 1.44766e-16)
(0.707569 0.00304032 1.44097e-16)
(0.708146 0.0030482 1.44791e-16)
(0.709277 0.00305254 1.4522e-16)
(0.589547 0.00609561 -1.91582e-17)
(0.591262 0.00600607 -1.14734e-17)
(0.592954 0.00591827 -1.77302e-17)
(0.594623 0.00583216 -8.84465e-18)
(0.596269 0.00574771 -3.77783e-18)
(0.597893 0.00566487 3.35831e-18)
(0.599495 0.0055836 5.67578e-18)
(0.601075 0.00550387 1.1026e-17)
(0.602634 0.00542564 1.54482e-17)
(0.604172 0.00534886 1.86095e-17)
(0.60569 0.0052735 1.23608e-17)
(0.607187 0.00519954 2.16763e-17)
(0.608665 0.00512692 2.95812e-17)
(0.610123 0.00505563 3.30346e-17)
(0.611562 0.00498563 3.81937e-17)
(0.612982 0.00491688 4.00478e-17)
(0.614384 0.00484937 4.43849e-17)
(0.615768 0.00478305 4.6269e-17)
(0.617133 0.0047179 4.82841e-17)
(0.618481 0.00465389 4.30148e-17)
(0.619812 0.00459099 5.11558e-17)
(0.621126 0.00452918 5.56382e-17)
(0.622423 0.00446843 5.91294e-17)
(0.623703 0.00440872 5.53241e-17)
(0.624967 0.00435003 6.21098e-17)
(0.626215 0.00429232 6.57951e-17)
(0.627448 0.00423558 6.92616e-17)
(0.628665 0.00417978 6.53845e-17)
(0.629866 0.0041249 7.19977e-17)
(0.631053 0.00407092 7.58103e-17)
(0.632225 0.00401782 7.99269e-17)
(0.633382 0.00396558 8.2227e-17)
(0.634525 0.00391418 8.57485e-17)
(0.635654 0.0038636 8.80857e-17)
(0.636769 0.00381382 9.06452e-17)
(0.63787 0.00376482 8.658e-17)
(0.638957 0.00371658 9.18355e-17)
(0.640032 0.0036691 9.64279e-17)
(0.641093 0.00362233 9.86601e-17)
(0.642141 0.00357628 1.0117e-16)
(0.643176 0.00353093 1.03171e-16)
(0.644199 0.00348625 1.0559e-16)
(0.645209 0.00344223 1.06261e-16)
(0.646208 0.00339886 1.08173e-16)
(0.647194 0.00335612 1.04932e-16)
(0.648168 0.00331399 1.0888e-16)
(0.64913 0.00327247 1.11019e-16)
(0.650081 0.00323153 1.132e-16)
(0.65102 0.00319117 1.1149e-16)
(0.651948 0.00315139 1.14832e-16)
(0.652865 0.00311217 1.17097e-16)
(0.653771 0.00307353 1.18604e-16)
(0.654666 0.00303547 1.17136e-16)
(0.65555 0.00299804 1.20191e-16)
(0.656423 0.00296129 1.22108e-16)
(0.657286 0.00292532 1.23818e-16)
(0.658139 0.00289028 1.24955e-16)
(0.658981 0.00285641 1.26297e-16)
(0.659813 0.00282412 1.27838e-16)
(0.660635 0.00279392 1.29134e-16)
(0.661447 0.00276694 1.30144e-16)
(0.662245 0.00274401 1.31174e-16)
(0.663042 0.0027284 1.32031e-16)
(0.663794 0.00271989 1.32597e-16)
(0.664613 0.00272745 1.32233e-16)
(0.665186 0.00274183 1.32737e-16)
(0.666303 0.00276563 1.33149e-16)
(0.547711 0.00539441 -1.96534e-17)
(0.549401 0.0053147 -1.40538e-17)
(0.551067 0.00523655 -1.70111e-17)
(0.55271 0.00515992 -1.05959e-17)
(0.55433 0.00508477 -4.7043e-18)
(0.555928 0.00501107 4.34435e-19)
(0.557504 0.00493877 3.65601e-18)
(0.559059 0.00486785 6.96401e-18)
(0.560592 0.00479827 1.08371e-17)
(0.562104 0.00473 1.37416e-17)
(0.563596 0.00466299 1.08945e-17)
(0.565068 0.00459724 1.85154e-17)
(0.566521 0.00453269 2.45285e-17)
(0.567953 0.00446932 2.76498e-17)
(0.569367 0.00440711 3.15302e-17)
(0.570762 0.00434603 3.36821e-17)
(0.572139 0.00428604 3.73375e-17)
(0.573498 0.00422712 3.93758e-17)
(0.574838 0.00416925 4.1727e-17)
(0.576162 0.0041124 3.92846e-17)
(0.577468 0.00405655 4.52419e-17)
(0.578757 0.00400166 4.92181e-17)
(0.580029 0.00394773 5.21758e-17)
(0.581285 0.00389472 4.99729e-17)
(0.582525 0.00384262 5.52281e-17)
(0.583749 0.0037914 5.84112e-17)
(0.584958 0.00374105 6.1552e-17)
(0.586151 0.00369153 5.98327e-17)
(0.587329 0.00364284 6.47953e-17)
(0.588492 0.00359496 6.79324e-17)
(0.58964 0.00354786 7.08076e-17)
(0.590774 0.00350152 7.29816e-17)
(0.591894 0.00345594 7.5983e-17)
(0.592999 0.00341108 7.87275e-17)
(0.594091 0.00336694 8.08028e-17)
(0.59517 0.0033235 7.89278e-17)
(0.596235 0.00328074 8.29918e-17)
(0.597286 0.00323865 8.67158e-17)
(0.598325 0.00319721 8.84075e-17)
(0.599351 0.0031564 9.0673e-17)
(0.600365 0.0031162 9.28214e-17)
(0.601366 0.00307662 9.46324e-17)
(0.602354 0.00303762 9.55631e-17)
(0.603331 0.0029992 9.7677e-17)
(0.604295 0.00296134 9.59264e-17)
(0.605248 0.00292403 9.89849e-17)
(0.606189 0.00288726 1.00639e-16)
(0.607119 0.00285101 1.02559e-16)
(0.608038 0.00281528 1.02145e-16)
(0.608945 0.00278006 1.04547e-16)
(0.609841 0.00274535 1.06483e-16)
(0.610727 0.00271115 1.07802e-16)
(0.611602 0.00267749 1.07262e-16)
(0.612466 0.0026444 1.09571e-16)
(0.613319 0.00261193 1.11101e-16)
(0.614163 0.00258017 1.12545e-16)
(0.614996 0.0025493 1.13455e-16)
(0.615819 0.00251953 1.14736e-16)
(0.616632 0.0024913 1.16054e-16)
(0.617435 0.00246511 1.17601e-16)
(0.61823 0.00244219 1.18738e-16)
(0.61901 0.00242336 1.1956e-16)
(0.619791 0.00241247 1.20433e-16)
(0.620529 0.00240887 1.2101e-16)
(0.621332 0.00242445 1.20682e-16)
(0.621896 0.0024454 1.21176e-16)
(0.622995 0.0024875 1.21573e-16)
(0.50613 0.00471832 -1.96968e-17)
(0.507779 0.00464821 -1.41738e-17)
(0.509405 0.00457948 -1.70088e-17)
(0.511008 0.00451209 -1.05685e-17)
(0.512589 0.00444601 -6.5901e-18)
(0.514148 0.00438122 -3.266e-18)
(0.515685 0.00431767 5.06224e-19)
(0.5172 0.00425533 2.65137e-18)
(0.518695 0.00419419 6.20864e-18)
(0.520169 0.00413419 9.31853e-18)
(0.521623 0.00407532 8.12817e-18)
(0.523057 0.00401756 1.58344e-17)
(0.524472 0.00396086 2.01552e-17)
(0.525868 0.00390521 2.2612e-17)
(0.527245 0.00385057 2.56126e-17)
(0.528603 0.00379693 2.77439e-17)
(0.529943 0.00374427 3.0683e-17)
(0.531266 0.00369254 3.31076e-17)
(0.532571 0.00364175 3.60944e-17)
(0.533858 0.00359185 3.39412e-17)
(0.535129 0.00354283 4.01682e-17)
(0.536383 0.00349467 4.32379e-17)
(0.537621 0.00344735 4.60406e-17)
(0.538842 0.00340085 4.45749e-17)
(0.540048 0.00335515 4.99625e-17)
(0.541238 0.00331023 5.20646e-17)
(0.542413 0.00326607 5.49135e-17)
(0.543573 0.00322265 5.37168e-17)
(0.544717 0.00317996 5.8586e-17)
(0.545848 0.00313797 6.04084e-17)
(0.546963 0.00309668 6.26219e-17)
(0.548065 0.00305607 6.48617e-17)
(0.549153 0.00301612 6.76674e-17)
(0.550227 0.00297681 6.96365e-17)
(0.551287 0.00293813 7.18515e-17)
(0.552334 0.00290007 7.0607e-17)
(0.553368 0.00286261 7.4467e-17)
(0.554389 0.00282573 7.80518e-17)
(0.555398 0.00278943 7.89959e-17)
(0.556393 0.00275369 8.06494e-17)
(0.557377 0.00271849 8.2906e-17)
(0.558348 0.00268382 8.40662e-17)
(0.559307 0.00264968 8.57189e-17)
(0.560255 0.00261604 8.76352e-17)
(0.56119 0.0025829 8.66915e-17)
(0.562115 0.00255024 8.96125e-17)
(0.563028 0.00251805 9.10159e-17)
(0.563929 0.00248633 9.25284e-17)
(0.56482 0.00245506 9.23335e-17)
(0.5657 0.00242425 9.48787e-17)
(0.566569 0.00239388 9.62212e-17)
(0.567427 0.00236398 9.7587e-17)
(0.568275 0.00233455 9.71206e-17)
(0.569113 0.00230563 9.94788e-17)
(0.56994 0.00227727 1.00534e-16)
(0.570757 0.00224957 1.01822e-16)
(0.571565 0.00222267 1.02592e-16)
(0.572363 0.00219682 1.03847e-16)
(0.573151 0.00217242 1.05147e-16)
(0.57393 0.00215 1.06794e-16)
(0.5747 0.00213084 1.07644e-16)
(0.575458 0.00211575 1.08554e-16)
(0.576216 0.00210905 1.09286e-16)
(0.576935 0.00210988 1.09877e-16)
(0.577716 0.00213259 1.09437e-16)
(0.578268 0.0021599 1.10086e-16)
(0.579342 0.002219 1.10472e-16)
(0.464785 0.00407154 -1.92276e-17)
(0.46638 0.00401071 -1.37663e-17)
(0.467952 0.00395109 -7.4605e-18)
(0.469501 0.00389264 -9.27558e-18)
(0.471029 0.00383534 -7.93909e-18)
(0.472535 0.00377915 -5.37334e-18)
(0.474019 0.00372405 -2.47085e-18)
(0.475483 0.00367001 -3.66107e-19)
(0.476927 0.00361701 2.85541e-18)
(0.47835 0.00356501 6.54871e-18)
(0.479754 0.00351399 1.36286e-17)
(0.481138 0.00346394 1.43572e-17)
(0.482503 0.00341481 1.71941e-17)
(0.48385 0.0033666 1.82538e-17)
(0.485178 0.00331927 2.07885e-17)
(0.486489 0.00327282 2.20784e-17)
(0.487781 0.0032272 2.45435e-17)
(0.489057 0.00318242 2.73419e-17)
(0.490315 0.00313843 3.06517e-17)
(0.491556 0.00309523 3.72755e-17)
(0.492781 0.0030528 3.63219e-17)
(0.49399 0.00301112 3.76498e-17)
(0.495182 0.00297016 4.06582e-17)
(0.49636 0.00292992 4.59138e-17)
(0.497521 0.00289038 4.51685e-17)
(0.498668 0.00285151 4.63175e-17)
(0.499799 0.0028133 4.87857e-17)
(0.500916 0.00277575 5.40152e-17)
(0.502018 0.00273882 5.36243e-17)
(0.503107 0.00270251 5.3751e-17)
(0.504181 0.0026668 5.50249e-17)
(0.505241 0.00263169 5.70163e-17)
(0.506288 0.00259714 5.90556e-17)
(0.507322 0.00256316 6.12849e-17)
(0.508342 0.00252973 6.35372e-17)
(0.50935 0.00249683 6.84145e-17)
(0.510345 0.00246445 6.78831e-17)
(0.511327 0.00243258 6.98274e-17)
(0.512297 0.00240121 7.07825e-17)
(0.513254 0.00237033 7.16824e-17)
(0.5142 0.00233992 7.29981e-17)
(0.515134 0.00230998 7.47263e-17)
(0.516056 0.00228048 7.58814e-17)
(0.516967 0.00225143 7.82415e-17)
(0.517867 0.0022228 8.15684e-17)
(0.518755 0.0021946 8.13118e-17)
(0.519633 0.00216681 8.15251e-17)
(0.520499 0.00213942 8.3343e-17)
(0.521355 0.00211243 8.63978e-17)
(0.5222 0.00208583 8.60156e-17)
(0.523035 0.00205963 8.64821e-17)
(0.52386 0.00203382 8.8319e-17)
(0.524675 0.00200844 9.04271e-17)
(0.525479 0.0019835 9.01772e-17)
(0.526274 0.00195907 9.06288e-17)
(0.527059 0.00193522 9.16849e-17)
(0.527835 0.00191211 9.228e-17)
(0.528601 0.00188995 9.35853e-17)
(0.529358 0.00186917 9.48104e-17)
(0.530106 0.00185024 9.65406e-17)
(0.530847 0.0018345 9.72143e-17)
(0.531576 0.00182276 9.79624e-17)
(0.532306 0.00181967 9.86849e-17)
(0.533 0.00182431 9.91484e-17)
(0.533754 0.00185311 9.89888e-17)
(0.534292 0.00188627 9.94311e-17)
(0.535336 0.00196087 9.97994e-17)
(0.423658 0.00345818 -1.97433e-17)
(0.425184 0.00340625 -1.39184e-17)
(0.426688 0.00335535 -5.82764e-18)
(0.42817 0.00330547 -7.65996e-18)
(0.42963 0.00325656 -9.38026e-18)
(0.43107 0.00320862 -6.85655e-18)
(0.43249 0.00316161 -5.55123e-18)
(0.433889 0.0031155 -3.28844e-18)
(0.435268 0.00307029 -1.24049e-18)
(0.436628 0.00302594 3.5899e-18)
(0.43797 0.00298243 1.15397e-17)
(0.439292 0.00293974 1.29806e-17)
(0.440596 0.00289786 1.44241e-17)
(0.441882 0.00285675 1.45019e-17)
(0.443151 0.00281641 1.66973e-17)
(0.444402 0.00277681 1.6702e-17)
(0.445636 0.00273794 1.9829e-17)
(0.446853 0.00269977 2.17414e-17)
(0.448054 0.00266229 2.5944e-17)
(0.449239 0.00262549 3.29038e-17)
(0.450408 0.00258934 3.19999e-17)
(0.451561 0.00255383 3.25792e-17)
(0.452699 0.00251895 3.5456e-17)
(0.453821 0.00248467 4.11087e-17)
(0.454929 0.002451 4.04208e-17)
(0.456022 0.0024179 4.02657e-17)
(0.457101 0.00238537 4.26242e-17)
(0.458166 0.0023534 4.88948e-17)
(0.459217 0.00232197 4.77388e-17)
(0.460254 0.00229106 4.75484e-17)
(0.461278 0.00226067 4.81188e-17)
(0.462289 0.00223079 4.86125e-17)
(0.463286 0.00220139 5.12315e-17)
(0.464271 0.00217248 5.24712e-17)
(0.465243 0.00214403 5.59004e-17)
(0.466203 0.00211605 6.06521e-17)
(0.46715 0.00208851 6.08957e-17)
(0.468086 0.0020614 6.18452e-17)
(0.469009 0.00203472 6.21214e-17)
(0.469921 0.00200846 6.31296e-17)
(0.470822 0.0019826 6.41162e-17)
(0.471711 0.00195714 6.58774e-17)
(0.472589 0.00193207 6.65729e-17)
)
;

boundaryField
{
    inlet
    {
        type            uniformFixedValue;
        uniformValue    constant (1 0 0);
        value           nonuniform 0();
    }
    outlet
    {
        type            pressureInletOutletVelocity;
        value           nonuniform List<vector> 5((0.709277 0.00305254 1.4522e-16) (0.666303 0.00276563 1.33149e-16) (0.622995 0.0024875 1.21573e-16) (0.579342 0.002219 1.10472e-16) (0.535336 0.00196087 9.97994e-17));
    }
    wall
    {
        type            fixedValue;
        value           nonuniform 0();
    }
    wedge1
    {
        type            wedge;
    }
    wedge2
    {
        type            wedge;
    }
    axis
    {
        type            empty;
    }
    procBoundary35to29
    {
        type            processor;
        value           nonuniform List<vector> 
68
(
(0.721792 0.00475207 1.12632e-16)
(0.722913 0.00469156 1.05188e-16)
(0.72402 0.00463199 1.1428e-16)
(0.725114 0.00457332 1.20094e-16)
(0.726195 0.00451555 1.20357e-16)
(0.727263 0.00445864 1.2471e-16)
(0.728319 0.00440257 1.25109e-16)
(0.729362 0.00434733 1.29206e-16)
(0.730392 0.00429289 1.29111e-16)
(0.73141 0.00423925 1.3193e-16)
(0.732416 0.00418637 1.26751e-16)
(0.733411 0.00413424 1.32823e-16)
(0.734393 0.00408284 1.34025e-16)
(0.735364 0.00403215 1.37231e-16)
(0.736323 0.00398217 1.33153e-16)
(0.737272 0.00393288 1.38756e-16)
(0.738208 0.00388428 1.39741e-16)
(0.739134 0.00383636 1.42708e-16)
(0.740049 0.00378915 1.40085e-16)
(0.740953 0.00374267 1.44659e-16)
(0.741846 0.00369697 1.45829e-16)
(0.742729 0.00365214 1.48576e-16)
(0.743601 0.00360834 1.49163e-16)
(0.744462 0.00356578 1.51195e-16)
(0.745313 0.00352483 1.52878e-16)
(0.746153 0.00348598 1.53419e-16)
(0.746983 0.00345007 1.54902e-16)
(0.747797 0.00341803 1.56047e-16)
(0.74861 0.00339168 1.56982e-16)
(0.749375 0.00337234 1.57504e-16)
(0.750209 0.00336174 1.56743e-16)
(0.750787 0.00336343 1.57423e-16)
(0.751924 0.00334726 1.57816e-16)
(0.631655 0.00681767 -1.66107e-17)
(0.633381 0.00671813 -8.13127e-18)
(0.635085 0.00662052 -2.14966e-17)
(0.636766 0.00652478 -4.14307e-18)
(0.638424 0.00643087 3.36462e-19)
(0.640059 0.00633873 8.98022e-18)
(0.641673 0.00624834 9.87236e-18)
(0.643266 0.00615964 1.64727e-17)
(0.644838 0.00607259 2.01074e-17)
(0.646388 0.00598715 2.5136e-17)
(0.647919 0.00590329 1.284e-17)
(0.64943 0.00582095 2.75068e-17)
(0.65092 0.00574012 3.59512e-17)
(0.652392 0.00566074 3.9209e-17)
(0.653844 0.00558279 4.55503e-17)
(0.655278 0.00550623 4.67565e-17)
(0.656694 0.00543103 5.20524e-17)
(0.658091 0.00535715 5.34466e-17)
(0.65947 0.00528457 5.65898e-17)
(0.660832 0.00521324 4.63568e-17)
(0.662177 0.00514315 5.87182e-17)
(0.663504 0.00507427 6.29454e-17)
(0.664815 0.00500656 6.79864e-17)
(0.66611 0.00493999 5.87211e-17)
(0.667388 0.00487455 6.94495e-17)
(0.66865 0.0048102 7.38927e-17)
(0.669897 0.00474692 7.80493e-17)
(0.671128 0.00468469 7.00231e-17)
(0.672344 0.00462348 8.05347e-17)
(0.673545 0.00456326 8.45042e-17)
(0.674731 0.00450402 8.98259e-17)
(0.675902 0.00444572 9.20606e-17)
(0.677059 0.00438836 9.67475e-17)
(0.678202 0.00433191 9.78022e-17)
(0.678202 0.00433191 9.78022e-17)
)
;
    }
    procBoundary35to34
    {
        type            processor;
        value           nonuniform List<vector> 4((0.587807 0.00618694 -2.46408e-17) (0.545997 0.00547572 -2.46538e-17) (0.504456 0.00478985 -2.27449e-17) (0.463167 0.00413361 -2.00635e-17));
    }
    procBoundary35to40
    {
        type            processor;
        value           uniform (0.42211 0.00351117 -1.81967e-17);
    }
    procBoundary35to41
    {
        type            processor;
        value           nonuniform List<vector> 
68
(
(0.473456 0.00190737 6.92223e-17)
(0.474312 0.00188304 7.31593e-17)
(0.475158 0.00185906 7.31123e-17)
(0.475992 0.00183544 7.26793e-17)
(0.476817 0.00181217 7.4602e-17)
(0.477631 0.00178923 7.76559e-17)
(0.478436 0.00176664 7.75545e-17)
(0.47923 0.00174438 7.72275e-17)
(0.480014 0.00172247 7.91911e-17)
(0.480789 0.00170091 8.14438e-17)
(0.481554 0.00167975 8.11164e-17)
(0.48231 0.00165903 8.09092e-17)
(0.483057 0.00163882 8.19154e-17)
(0.483794 0.00161927 8.23151e-17)
(0.484523 0.00160058 8.35518e-17)
(0.485244 0.00158314 8.48182e-17)
(0.485955 0.00156743 8.69141e-17)
(0.486661 0.00155476 8.71443e-17)
(0.487355 0.00154594 8.78244e-17)
(0.488051 0.00154584 8.84433e-17)
(0.488715 0.00155355 8.88904e-17)
(0.489438 0.00158723 8.8803e-17)
(0.489956 0.00162537 8.91715e-17)
(0.490967 0.00171377 8.95259e-17)
(0.382728 0.00288225 -2.00383e-17)
(0.384171 0.00283876 -1.37852e-17)
(0.385593 0.00279613 -4.7077e-18)
(0.386994 0.00275436 -7.44727e-18)
(0.388375 0.00271342 -1.07287e-17)
(0.389735 0.00267328 -8.28892e-18)
(0.391077 0.00263392 -9.28716e-18)
(0.392399 0.00259534 -5.47876e-18)
(0.393702 0.0025575 -4.58894e-18)
(0.394987 0.00252038 1.42583e-18)
(0.396253 0.00248398 1.13209e-17)
(0.397502 0.00244827 1.1686e-17)
(0.398733 0.00241323 1.18974e-17)
(0.399948 0.00237884 1.00494e-17)
(0.401145 0.0023451 1.2764e-17)
(0.402326 0.00231199 1.18578e-17)
(0.403491 0.00227948 1.50791e-17)
(0.404639 0.00224757 1.64154e-17)
(0.405772 0.00221623 2.17879e-17)
(0.40689 0.00218547 3.00673e-17)
(0.407992 0.00215525 2.84664e-17)
(0.40908 0.00212557 2.69891e-17)
(0.410153 0.00209642 3.03479e-17)
(0.411212 0.00206778 3.79287e-17)
(0.412256 0.00203964 3.61597e-17)
(0.413287 0.00201199 3.41909e-17)
(0.414304 0.00198482 3.77023e-17)
(0.415307 0.00195811 4.51973e-17)
(0.416298 0.00193186 4.30341e-17)
(0.417275 0.00190605 4.13858e-17)
(0.41824 0.00188067 4.14533e-17)
(0.419192 0.00185571 4.12335e-17)
(0.420132 0.00183117 4.37369e-17)
(0.42106 0.00180703 4.46507e-17)
(0.421975 0.00178329 4.87746e-17)
(0.422879 0.00175993 5.48019e-17)
(0.423771 0.00173694 5.46447e-17)
(0.424652 0.00171432 5.47694e-17)
(0.425522 0.00169206 5.36688e-17)
(0.426381 0.00167014 5.52606e-17)
(0.427228 0.00164857 5.56765e-17)
(0.428065 0.00162732 5.75643e-17)
(0.473456 0.00190737 6.92223e-17)
(0.428892 0.00160641 5.76431e-17)
)
;
    }
}


// ************************************************************************* //
