0.0608288 	0.499829 	-1.6109e-20 	0.696622 	-0.0322597 	-1.63324e-17
