/*--------------------------------*- C++ -*----------------------------------*\
  =========                 |
  \\      /  F ield         | OpenFOAM: The Open Source CFD Toolbox
   \\    /   O peration     | Website:  https://openfoam.org
    \\  /    A nd           | Version:  7
     \\/     M anipulation  |
\*---------------------------------------------------------------------------*/
FoamFile
{
    version     2.0;
    format      ascii;
    class       volScalarField;
    location    "29.000062";
    object      p;
}
// * * * * * * * * * * * * * * * * * * * * * * * * * * * * * * * * * * * * * //

dimensions      [0 2 -2 0 0 0 0];

internalField   nonuniform List<scalar> 
5800
(
-0.239932
-0.24173
-0.242818
-0.243669
-0.244413
-0.245074
-0.24569
-0.246289
-0.246882
-0.247467
0.657148
0.640326
0.630033
0.61914
0.605279
0.58837
0.568799
0.547165
0.524078
0.500078
0.475615
0.657148
0.640326
0.630033
0.61914
0.605279
0.58837
0.568799
0.547165
0.524078
0.500078
0.475615
0.451065
0.426731
0.402859
0.37964
0.35722
0.335705
0.315185
0.295741
0.277398
0.652437
0.635755
0.62568
0.615078
0.601542
0.584957
0.565694
0.544345
0.521522
0.497763
0.473521
0.449172
0.425021
0.401314
0.378245
0.355961
0.334564
0.314143
0.294793
0.276585
0.643056
0.626652
0.61701
0.606986
0.594096
0.578157
0.559506
0.538726
0.516428
0.49315
0.469348
0.445399
0.421612
0.398235
0.375464
0.353449
0.332289
0.312065
0.292901
0.274962
0.629085
0.613095
0.604095
0.59493
0.583
0.568021
0.550282
0.530349
0.508831
0.48627
0.463123
0.439771
0.416526
0.393639
0.371313
0.3497
0.328894
0.308965
0.290076
0.272532
0.610646
0.5952
0.587041
0.579005
0.568339
0.554625
0.538088
0.519274
0.498786
0.47717
0.454888
0.432324
0.409795
0.387557
0.365818
0.344735
0.324398
0.30486
0.286335
0.2693
0.587898
0.57312
0.565991
0.559338
0.550225
0.53807
0.523016
0.50558
0.486363
0.465914
0.444699
0.423109
0.401464
0.380026
0.359012
0.338585
0.318827
0.299776
0.281697
0.265277
0.561036
0.547045
0.541119
0.536086
0.528799
0.51848
0.505174
0.489366
0.47165
0.452579
0.432625
0.412184
0.391584
0.371093
0.350935
0.331284
0.312215
0.293743
0.276188
0.260475
0.530295
0.517199
0.512632
0.509437
0.504227
0.496003
0.484695
0.470748
0.454751
0.437257
0.418746
0.399622
0.380219
0.360813
0.341638
0.322877
0.304599
0.286795
0.269837
0.254911
0.49594
0.483838
0.480767
0.479603
0.476698
0.470808
0.461729
0.449861
0.435782
0.420051
0.403155
0.385504
0.367441
0.34925
0.331175
0.313411
0.296024
0.278973
0.262678
0.248606
0.458269
0.44725
0.445792
0.446823
0.446426
0.443083
0.436444
0.426853
0.414878
0.401081
0.385956
0.369922
0.353331
0.336475
0.319609
0.302942
0.286536
0.270321
0.254748
0.241585
0.417611
0.407752
0.407998
0.411362
0.413645
0.413036
0.409024
0.401889
0.392184
0.380475
0.367263
0.352977
0.337977
0.322566
0.307009
0.29153
0.276191
0.260887
0.24609
0.233876
0.374319
0.365685
0.367703
0.373505
0.378609
0.380894
0.379671
0.375146
0.367858
0.358372
0.347198
0.334776
0.321475
0.307607
0.293449
0.27924
0.265047
0.250724
0.236747
0.225512
0.328771
0.321414
0.325246
0.333557
0.341589
0.346896
0.348596
0.346815
0.342067
0.334921
0.325895
0.315437
0.303928
0.291688
0.279008
0.266143
0.253164
0.239887
0.226768
0.216526
0.281363
0.275323
0.280985
0.291842
0.302873
0.311297
0.316027
0.317094
0.314988
0.310278
0.30349
0.295082
0.285443
0.274905
0.26377
0.252311
0.24061
0.228437
0.216206
0.206955
0.23251
0.227813
0.235293
0.248697
0.26276
0.274363
0.282197
0.286192
0.286807
0.284608
0.280128
0.273837
0.266132
0.257356
0.247821
0.237821
0.227454
0.216438
0.205117
0.196838
0.182638
0.179296
0.188558
0.204471
0.221561
0.236367
0.24735
0.254325
0.257713
0.258078
0.255959
0.251833
0.246112
0.239143
0.231251
0.222752
0.213767
0.20396
0.193559
0.186212
0.13218
0.130195
0.141173
0.159524
0.179595
0.197592
0.211734
0.221712
0.227903
0.230861
0.231134
0.229206
0.2255
0.220372
0.214152
0.207182
0.199622
0.191083
0.181612
0.175112
0.0815768
0.0809331
0.0935411
0.11422
0.137186
0.158323
0.175603
0.188578
0.197572
0.203132
0.205807
0.206091
0.204416
0.201147
0.196618
0.191192
0.185086
0.177887
0.169364
0.163545
0.0312659
0.031934
0.046064
0.0689244
0.0946596
0.118849
0.139209
0.155145
0.16692
0.175066
0.180133
0.182624
0.18298
0.181575
0.178743
0.174858
0.170214
0.164454
0.156993
0.151546
-0.0183165
-0.0163857
-0.000857899
0.0240045
0.0523419
0.0794548
0.102804
0.121637
0.136144
0.146836
0.154266
0.158941
0.161312
0.161762
0.160625
0.158267
0.155061
0.150829
0.144715
0.139039
-0.0667366
-0.0636196
-0.0468317
-0.02018
0.0105547
0.0404251
0.0666391
0.088273
0.105437
0.118616
0.128358
0.135177
0.139529
0.141809
0.142354
0.141506
0.139664
0.136934
0.132705
0.12648
-0.113606
-0.109346
-0.0914837
-0.0632793
-0.0303875
0.00203643
0.0309562
0.0552685
0.074989
0.0905711
0.102557
0.111461
0.117746
0.121817
0.124017
0.124665
0.124139
0.122765
0.120414
0.115842
-0.158796
-0.153037
-0.134485
-0.104957
-0.0701812
-0.0354437
-0.00400922
0.0228304
0.0449839
0.062865
0.0770054
0.0879197
0.0960743
0.101882
0.105697
0.107825
0.108599
0.10846
0.107727
0.105108
-0.201616
-0.194459
-0.175593
-0.144911
-0.10854
-0.0717599
-0.0380323
-0.00884303
0.0155965
0.0356522
0.0518412
0.0646755
0.0746224
0.0821006
0.0874743
0.0910478
0.0931146
0.0941335
0.0946879
0.0936415
-0.241722
-0.233432
-0.214119
-0.182977
-0.1452
-0.10667
-0.0709002
-0.0395645
-0.0130075
0.00907929
0.0271938
0.0418425
0.0534915
0.0625615
0.069425
0.0743911
0.0777249
0.0798603
0.0815055
0.0817139
-0.278875
-0.269639
-0.249941
-0.218585
-0.179976
-0.139947
-0.102413
-0.0691585
-0.0406736
-0.0167168
0.00318476
0.0195284
0.0327769
0.0433498
0.0516241
0.0579152
0.062472
0.0656937
0.0683434
0.0696668
-0.312887
-0.302789
-0.282919
-0.251511
-0.212515
-0.171403
-0.132386
-0.097463
-0.0672591
-0.0416099
-0.0200741
-0.00216722
0.0125669
0.0245443
0.0341427
0.0416827
0.0474056
0.0516758
0.055276
0.0576423
-0.343572
-0.33267
-0.312839
-0.281674
-0.24256
-0.200824
-0.160652
-0.124331
-0.0926347
-0.0654863
-0.042481
-0.0231535
-0.00705745
0.0062175
0.0170467
0.025754
0.0325769
0.0378454
0.0423397
0.0456837
-0.37077
-0.359129
-0.33952
-0.308902
-0.270023
-0.228009
-0.187063
-0.149635
-0.116685
-0.0882442
-0.0639454
-0.0433488
-0.0260233
-0.0115651
0.000395591
0.0101833
0.018034
0.0242415
0.029568
0.0338252
-0.394378
-0.382068
-0.362836
-0.333039
-0.294771
-0.252852
-0.211489
-0.173275
-0.139307
-0.109795
-0.0843885
-0.0626804
-0.0442666
-0.028745
-0.0157577
-0.00498079
0.00382094
0.0109035
0.0169989
0.0221086
-0.414345
-0.401444
-0.382719
-0.353982
-0.316684
-0.275253
-0.233833
-0.195154
-0.160464
-0.130048
-0.103743
-0.0810853
-0.0617326
-0.0452706
-0.031367
-0.0196957
-0.010023
-0.00213117
0.00466847
0.0105738
-0.430675
-0.417267
-0.399154
-0.371683
-0.335684
-0.295126
-0.25402
-0.215191
-0.180056
-0.149012
-0.121946
-0.0985109
-0.0783756
-0.0610971
-0.046393
-0.033924
-0.0234636
-0.0148287
-0.0073942
-0.000745776
-0.443431
-0.429603
-0.412182
-0.386146
-0.351739
-0.312421
-0.271995
-0.233339
-0.198025
-0.166592
-0.138996
-0.11496
-0.0941422
-0.0761892
-0.0608027
-0.0476337
-0.0364733
-0.0271571
-0.019168
-0.0118254
-0.452728
-0.438573
-0.421898
-0.397422
-0.364857
-0.327117
-0.287729
-0.24957
-0.214352
-0.182755
-0.154837
-0.130373
-0.109047
-0.0905437
-0.0745613
-0.0607996
-0.0490322
-0.039088
-0.0306289
-0.0226563
-0.458729
-0.444346
-0.428449
-0.405612
-0.375087
-0.339227
-0.301217
-0.263876
-0.229029
-0.197497
-0.169449
-0.144726
-0.123051
-0.104129
-0.0876774
-0.073424
-0.0611186
-0.0506087
-0.0417301
-0.0332604
-0.461648
-0.44714
-0.43203
-0.410866
-0.382524
-0.348799
-0.312479
-0.276267
-0.242062
-0.210825
-0.182838
-0.158019
-0.136138
-0.116927
-0.100123
-0.0854748
-0.0727374
-0.0617576
-0.0523766
-0.0436945
-0.461736
-0.447209
-0.432879
-0.413379
-0.387302
-0.355912
-0.32156
-0.286768
-0.253471
-0.222752
-0.195015
-0.170262
-0.148314
-0.128936
-0.11189
-0.0969406
-0.0838616
-0.0724891
-0.0626834
-0.0538188
-0.459277
-0.444843
-0.431271
-0.413388
-0.389596
-0.360681
-0.328532
-0.295426
-0.263289
-0.233308
-0.206004
-0.181472
-0.159593
-0.140167
-0.122981
-0.107823
-0.0944825
-0.0827955
-0.0726486
-0.0634998
-0.454583
-0.440353
-0.427512
-0.411162
-0.389618
-0.363253
-0.333487
-0.302305
-0.271563
-0.242528
-0.215836
-0.191675
-0.169994
-0.150634
-0.13341
-0.118131
-0.104605
-0.0926744
-0.0822433
-0.0727882
-0.447977
-0.434064
-0.421923
-0.407001
-0.387613
-0.363805
-0.336546
-0.307484
-0.278354
-0.250463
-0.22455
-0.200904
-0.179543
-0.160358
-0.143191
-0.127876
-0.114239
-0.102129
-0.0914697
-0.0817632
-0.439793
-0.426307
-0.414836
-0.401219
-0.383853
-0.362544
-0.33785
-0.31106
-0.283731
-0.257168
-0.232195
-0.209198
-0.188274
-0.169364
-0.152345
-0.137074
-0.123398
-0.111172
-0.100344
-0.0904625
-0.430362
-0.417405
-0.406579
-0.39414
-0.378629
-0.359699
-0.337565
-0.313146
-0.287775
-0.262706
-0.238823
-0.216604
-0.196225
-0.177684
-0.160897
-0.145745
-0.132098
-0.119818
-0.108878
-0.0988922
-0.420001
-0.407669
-0.397469
-0.386082
-0.372239
-0.355522
-0.335874
-0.313869
-0.290575
-0.267146
-0.244492
-0.223171
-0.203439
-0.185355
-0.168876
-0.153914
-0.14036
-0.128085
-0.117079
-0.107047
-0.409012
-0.397389
-0.387801
-0.377352
-0.364983
-0.350274
-0.332981
-0.31337
-0.292229
-0.270561
-0.249263
-0.228952
-0.209962
-0.192416
-0.176317
-0.161608
-0.148205
-0.13599
-0.124959
-0.114927
-0.397669
-0.386823
-0.377843
-0.368231
-0.357146
-0.344221
-0.329101
-0.311807
-0.292844
-0.273028
-0.253196
-0.234
-0.215841
-0.198909
-0.183256
-0.168857
-0.155658
-0.143553
-0.132535
-0.12254
-0.386216
-0.376202
-0.367829
-0.358971
-0.348996
-0.337621
-0.324459
-0.309346
-0.292535
-0.274626
-0.256354
-0.238369
-0.221125
-0.204878
-0.18973
-0.175695
-0.162745
-0.150797
-0.139827
-0.129904
-0.374866
-0.365719
-0.357955
-0.349785
-0.340767
-0.330721
-0.319277
-0.306166
-0.291428
-0.275439
-0.258795
-0.242107
-0.22586
-0.210365
-0.195778
-0.182154
-0.169496
-0.157746
-0.146857
-0.137033
-0.363793
-0.355531
-0.348379
-0.340849
-0.33266
-0.323738
-0.313772
-0.30245
-0.289654
-0.275556
-0.260582
-0.245264
-0.230089
-0.21541
-0.201439
-0.188271
-0.17594
-0.164427
-0.153648
-0.143948
-0.35314
-0.345762
-0.339222
-0.332297
-0.324836
-0.31686
-0.308143
-0.298379
-0.287356
-0.275071
-0.261774
-0.247882
-0.23385
-0.220053
-0.206749
-0.194079
-0.18211
-0.170866
-0.160224
-0.150668
-0.343013
-0.336504
-0.330572
-0.324225
-0.317414
-0.310239
-0.302563
-0.294126
-0.284677
-0.274086
-0.262435
-0.250003
-0.237175
-0.224324
-0.211742
-0.199613
-0.188036
-0.17709
-0.16661
-0.157213
-0.333489
-0.327818
-0.322485
-0.316695
-0.310476
-0.303987
-0.297176
-0.28985
-0.281762
-0.272709
-0.262632
-0.251665
-0.240091
-0.228249
-0.216444
-0.204902
-0.193748
-0.183128
-0.172831
-0.163605
-0.324619
-0.319742
-0.31499
-0.309739
-0.30407
-0.29818
-0.292091
-0.285683
-0.278747
-0.271051
-0.26244
-0.252908
-0.24262
-0.231845
-0.220877
-0.209971
-0.199275
-0.189004
-0.178912
-0.169866
-0.31643
-0.312292
-0.308097
-0.303367
-0.298214
-0.292861
-0.287382
-0.281731
-0.275753
-0.269225
-0.261938
-0.253777
-0.24478
-0.235121
-0.225051
-0.214837
-0.204637
-0.194744
-0.184878
-0.176018
-0.308928
-0.305467
-0.3018
-0.297568
-0.292906
-0.288042
-0.283093
-0.278071
-0.272881
-0.267337
-0.261213
-0.254323
-0.246588
-0.238078
-0.228964
-0.219505
-0.209851
-0.200369
-0.190751
-0.182081
-0.302106
-0.299254
-0.296078
-0.292321
-0.288126
-0.283719
-0.27924
-0.27475
-0.270209
-0.265479
-0.260351
-0.254603
-0.24807
-0.240713
-0.232607
-0.22397
-0.21492
-0.205893
-0.196548
-0.188083
-0.295941
-0.293628
-0.290905
-0.287594
-0.283844
-0.279867
-0.275819
-0.27179
-0.267789
-0.263728
-0.259434
-0.254682
-0.249256
-0.243026
-0.235959
-0.22821
-0.219833
-0.211317
-0.202287
-0.194037
-0.290404
-0.288558
-0.286244
-0.283351
-0.280021
-0.276454
-0.272808
-0.269192
-0.265649
-0.26214
-0.258533
-0.254626
-0.250187
-0.245021
-0.238996
-0.232188
-0.224562
-0.21663
-0.207953
-0.199997
-0.285451
-0.284004
-0.282057
-0.27955
-0.276618
-0.273442
-0.270177
-0.266941
-0.2638
-0.260751
-0.257705
-0.2545
-0.25091
-0.246713
-0.241699
-0.235862
-0.229053
-0.2218
-0.213535
-0.205937
-0.281036
-0.279922
-0.278301
-0.276149
-0.273591
-0.270788
-0.267887
-0.265009
-0.262231
-0.259575
-0.256992
-0.254358
-0.251477
-0.248128
-0.244058
-0.239182
-0.233258
-0.226742
-0.218998
-0.211975
-0.277103
-0.276264
-0.27493
-0.273102
-0.270894
-0.268447
-0.265897
-0.263361
-0.26092
-0.258612
-0.256415
-0.254243
-0.251941
-0.249305
-0.246077
-0.242112
-0.237092
-0.231422
-0.22418
-0.21787
-0.273595
-0.27298
-0.271898
-0.270365
-0.268482
-0.266373
-0.264161
-0.261953
-0.259832
-0.257841
-0.255977
-0.254184
-0.252344
-0.250288
-0.247779
-0.244624
-0.240544
-0.235537
-0.229741
-0.222491
-0.27045
-0.270019
-0.269156
-0.267891
-0.266311
-0.264521
-0.262632
-0.260743
-0.258927
-0.257232
-0.255664
-0.254189
-0.25272
-0.251121
-0.249205
-0.246713
-0.243626
-0.238954
-0.235255
-0.226487
-0.267608
-0.26733
-0.266659
-0.265638
-0.264337
-0.262847
-0.261266
-0.259681
-0.258159
-0.256744
-0.255448
-0.254247
-0.253081
-0.251841
-0.250401
-0.248403
-0.246327
-0.241591
-0.240238
-0.229959
-0.26501
-0.264864
-0.264364
-0.263563
-0.26252
-0.26131
-0.260019
-0.258723
-0.257482
-0.256334
-0.25529
-0.254335
-0.253424
-0.252468
-0.251405
-0.249751
-0.248632
-0.243507
-0.244719
-0.232611
-0.262605
-0.262576
-0.262233
-0.261632
-0.260823
-0.259872
-0.258852
-0.257828
-0.256852
-0.255956
-0.255149
-0.254418
-0.253728
-0.253007
-0.252237
-0.250833
-0.250517
-0.244912
-0.248673
-0.23436
-0.260345
-0.260431
-0.260232
-0.259813
-0.259218
-0.258504
-0.257733
-0.256961
-0.256232
-0.255571
-0.254984
-0.25446
-0.253966
-0.253447
-0.2529
-0.251715
-0.251947
-0.246088
-0.251837
-0.235459
-0.258195
-0.258397
-0.258334
-0.25808
-0.257682
-0.257182
-0.256637
-0.256095
-0.255592
-0.255146
-0.254762
-0.254426
-0.254109
-0.253767
-0.253388
-0.252429
-0.252915
-0.247238
-0.253932
-0.236389
-0.256128
-0.256455
-0.256519
-0.256418
-0.256195
-0.255889
-0.255547
-0.255211
-0.25491
-0.254659
-0.254458
-0.254291
-0.254132
-0.253945
-0.253697
-0.252968
-0.253469
-0.248389
-0.254933
-0.237555
-0.254128
-0.254588
-0.254777
-0.254815
-0.254751
-0.254616
-0.254453
-0.254299
-0.254177
-0.254097
-0.254056
-0.254039
-0.254019
-0.253964
-0.253825
-0.253307
-0.25369
-0.249432
-0.255073
-0.239044
-0.252189
-0.252793
-0.253102
-0.253269
-0.253346
-0.253362
-0.253356
-0.253359
-0.253391
-0.253458
-0.253556
-0.253667
-0.253765
-0.25382
-0.253773
-0.253425
-0.253665
-0.250228
-0.25468
-0.240663
-0.250316
-0.251072
-0.251498
-0.251783
-0.251986
-0.252133
-0.252261
-0.252398
-0.25256
-0.252752
-0.252965
-0.253183
-0.253378
-0.253521
-0.253551
-0.253315
-0.253472
-0.250682
-0.25403
-0.242159
-0.248521
-0.249435
-0.249973
-0.250366
-0.250681
-0.250941
-0.251182
-0.251431
-0.251701
-0.251995
-0.252302
-0.252606
-0.252878
-0.25309
-0.253176
-0.253002
-0.253153
-0.250771
-0.253323
-0.243371
-0.246824
-0.247897
-0.248543
-0.249033
-0.249445
-0.249802
-0.250138
-0.250478
-0.250836
-0.251211
-0.251594
-0.251964
-0.252296
-0.252557
-0.252687
-0.252621
-0.252575
-0.250686
-0.252628
-0.244254
-0.245251
-0.246479
-0.247224
-0.247802
-0.248298
-0.248736
-0.249149
-0.249564
-0.249991
-0.25043
-0.250871
-0.251292
-0.251668
-0.251963
-0.252125
-0.252113
-0.251924
-0.250682
-0.251428
-0.245247
-0.243828
-0.245202
-0.246039
-0.246692
-0.24726
-0.247765
-0.248241
-0.248714
-0.249196
-0.249684
-0.250167
-0.250626
-0.251032
-0.251351
-0.251536
-0.251544
-0.251304
-0.250461
-0.250379
-0.246184
-0.242587
-0.244092
-0.245008
-0.245727
-0.246353
-0.246912
-0.247437
-0.247956
-0.248478
-0.249003
-0.249518
-0.250003
-0.25043
-0.250764
-0.250963
-0.250981
-0.250737
-0.250101
-0.249594
-0.241553
-0.243171
-0.244154
-0.244924
-0.245598
-0.246199
-0.246762
-0.247314
-0.247866
-0.248417
-0.248954
-0.249457
-0.249898
-0.250242
-0.250449
-0.250472
-0.250243
-0.249712
-0.24903
-0.240754
-0.242459
-0.243494
-0.244305
-0.245014
-0.245645
-0.246235
-0.246811
-0.247384
-0.247953
-0.248505
-0.249019
-0.249469
-0.249819
-0.25003
-0.250058
-0.249846
-0.24937
-0.248642
-0.240208
-0.241975
-0.243045
-0.243883
-0.244615
-0.245266
-0.245874
-0.246465
-0.247052
-0.247632
-0.248193
-0.248714
-0.249168
-0.249521
-0.249734
-0.249765
-0.249566
-0.249119
-0.248397
-0.239932
-0.24173
-0.242818
-0.243669
-0.244413
-0.245074
-0.24569
-0.246289
-0.246882
-0.247467
-0.248032
-0.248557
-0.249013
-0.249367
-0.249582
-0.249614
-0.249422
-0.248988
-0.248279
0.119195
0.122246
0.129596
0.136159
0.144667
0.150306
0.155748
0.155747
0.154783
0.145045
0.120399
0.123522
0.131122
0.137996
0.147061
0.153517
0.16018
0.161756
0.163079
0.155834
0.121596
0.124727
0.132585
0.139743
0.14939
0.156607
0.164476
0.167478
0.170838
0.16599
0.122744
0.125891
0.134019
0.141455
0.151668
0.159612
0.168626
0.173021
0.178223
0.175759
0.123844
0.127003
0.135399
0.143095
0.153851
0.162489
0.172578
0.178343
0.18522
0.18509
0.124895
0.128074
0.136723
0.144664
0.155937
0.165241
0.176329
0.183432
0.191837
0.193958
0.125892
0.12905
0.137991
0.14616
0.15792
0.167861
0.179867
0.188267
0.198075
0.202339
0.126836
0.129989
0.139176
0.147574
0.15979
0.170342
0.183184
0.192829
0.203929
0.210213
0.127724
0.130871
0.140337
0.14891
0.161541
0.172678
0.186274
0.1971
0.209389
0.217555
0.128553
0.131676
0.141297
0.150158
0.163167
0.17486
0.189132
0.201064
0.214444
0.224347
0.129319
0.132425
0.142311
0.151307
0.164661
0.176878
0.191753
0.204705
0.219081
0.230568
0.130018
0.133109
0.143173
0.15235
0.166019
0.178725
0.194133
0.208012
0.223288
0.236203
0.130648
0.133722
0.143968
0.153294
0.167236
0.180392
0.196267
0.210975
0.227053
0.241235
0.131206
0.134264
0.144665
0.154128
0.168309
0.18187
0.198148
0.213584
0.230367
0.245653
0.131689
0.134732
0.145268
0.154851
0.169235
0.183151
0.199774
0.215834
0.233219
0.249447
0.132095
0.135126
0.145774
0.155461
0.170011
0.184231
0.201138
0.217716
0.235603
0.252611
0.132422
0.135442
0.146181
0.155952
0.170636
0.185101
0.202237
0.219228
0.237515
0.255142
0.132668
0.135681
0.146488
0.156323
0.171106
0.185758
0.203065
0.220366
0.238951
0.257038
0.132834
0.135841
0.146693
0.156572
0.171421
0.186199
0.203619
0.221125
0.239909
0.258301
0.132916
0.135921
0.146796
0.156697
0.171578
0.186419
0.203897
0.221506
0.240389
0.258932
0.0145827
0.0132945
0.0111793
0.00867396
0.00604899
0.00349321
0.00109664
-0.00108767
-0.00304936
-0.00478784
0.0147076
0.0134161
0.0112918
0.00877684
0.00614094
0.00357513
0.0011683
-0.00102521
-0.00299585
-0.00474245
0.0149504
0.0136518
0.0115109
0.0089771
0.00632055
0.00373477
0.00130817
-0.000903595
-0.00289133
-0.00465278
0.0153045
0.0139957
0.0118313
0.00927004
0.00658346
0.00396835
0.00151286
-0.000725588
-0.00273808
-0.00452105
0.0157642
0.0144424
0.0122479
0.0096513
0.00692579
0.00427255
0.0017795
-0.000493613
-0.00253825
-0.00434926
0.0163244
0.0149871
0.0127564
0.010117
0.00734418
0.0046445
0.00210566
-0.000209771
-0.0022937
-0.00413899
0.0169803
0.0156254
0.0133527
0.0106636
0.00783568
0.00508175
0.00248922
0.000124144
-0.00200597
-0.00389158
0.0177275
0.0163532
0.0140332
0.0112881
0.00839773
0.00558215
0.00292841
0.000506623
-0.00167636
-0.00360814
0.0185619
0.0171669
0.0147947
0.0119877
0.00902805
0.00614387
0.0034217
0.00093641
-0.00130593
-0.00328959
0.0194797
0.018063
0.015634
0.01276
0.00972467
0.00676535
0.00396783
0.00141248
-0.000895537
-0.00293664
0.0204772
0.0190383
0.0165485
0.0136027
0.0104858
0.00744526
0.00456575
0.001934
-0.000445857
-0.00254984
0.0215512
0.0200899
0.0175356
0.0145138
0.0113101
0.0081825
0.00521463
0.00250036
4.2613e-05
-0.0021296
0.0226984
0.021215
0.0185927
0.0154916
0.012196
0.00897617
0.00591381
0.00311109
0.000569538
-0.00167615
0.0239155
0.0224108
0.0197178
0.0165343
0.0131426
0.00982555
0.00666283
0.0037659
0.00113473
-0.00118961
0.0251997
0.0236749
0.0209085
0.0176406
0.0141488
0.0107301
0.00746135
0.00446466
0.00173817
-0.000669928
0.0265479
0.0250046
0.0221628
0.018809
0.0152138
0.0116893
0.00830919
0.00520737
0.00237994
-0.000116954
0.0279572
0.0263974
0.0234786
0.0200382
0.016337
0.0127029
0.00920633
0.00599419
0.00306029
0.000469606
0.0294249
0.027851
0.0248541
0.0213272
0.0175176
0.0137708
0.0101528
0.00682539
0.00377958
0.00109017
0.030948
0.0293629
0.0262872
0.0226749
0.0187553
0.0148929
0.0111489
0.0077014
0.00453833
0.00174527
0.0325238
0.0309305
0.027776
0.0240803
0.0200496
0.0160692
0.012195
0.00862276
0.00533714
0.00243557
0.0341494
0.0325515
0.0293188
0.0255425
0.0214001
0.0172999
0.0132914
0.00959015
0.00617678
0.00316184
0.0358221
0.0342232
0.0309135
0.0270607
0.0228066
0.0185852
0.0144387
0.0106043
0.00705812
0.00392499
0.037539
0.0359432
0.0325584
0.0286339
0.0242688
0.0199254
0.0156376
0.0116663
0.00798216
0.00472603
0.0392973
0.0377086
0.0342517
0.0302615
0.0257865
0.0213208
0.0168888
0.012777
0.00895002
0.00556608
0.0410942
0.0395169
0.0359914
0.0319425
0.0273594
0.0227719
0.0181933
0.0139377
0.00996294
0.00644642
0.0429268
0.0413653
0.0377759
0.0336763
0.0289874
0.0242792
0.0195521
0.0151496
0.0110223
0.0073684
0.0447922
0.0432509
0.0396033
0.035462
0.0306702
0.0258433
0.0209661
0.0164141
0.0121295
0.00833353
0.0466875
0.0451709
0.0414718
0.0372987
0.0324077
0.0274648
0.0224366
0.0177328
0.0132862
0.00934344
0.0486098
0.0471223
0.0433796
0.0391854
0.0341995
0.0291444
0.0239648
0.0191071
0.0144942
0.0103999
0.0505561
0.049102
0.0453249
0.0411213
0.0360454
0.0308829
0.0255521
0.0205389
0.0157552
0.0115047
0.0525234
0.0511072
0.0473059
0.043105
0.0379452
0.032681
0.0271999
0.02203
0.0170713
0.01266
0.0545088
0.0531346
0.0493209
0.0451355
0.0398985
0.0345396
0.0289097
0.0235822
0.0184445
0.0138678
0.0565093
0.0551813
0.0513679
0.0472114
0.0419051
0.0364595
0.0306829
0.0251976
0.0198771
0.0151305
0.0585218
0.0572441
0.0534452
0.0493312
0.0439646
0.0384416
0.0325211
0.0268783
0.0213714
0.0164505
0.0605433
0.0593199
0.0555507
0.0514933
0.0460767
0.0404867
0.0344259
0.0286265
0.0229299
0.0178304
0.0625709
0.0614057
0.0576827
0.053696
0.0482409
0.0425956
0.0363989
0.0304443
0.0245553
0.019273
0.0646015
0.0634984
0.059839
0.0559373
0.0504569
0.0447691
0.0384417
0.0323343
0.0262504
0.0207812
0.0666321
0.0655951
0.0620176
0.0582152
0.0527241
0.0470079
0.0405559
0.0342989
0.028018
0.0223579
0.0686599
0.0676927
0.0642163
0.0605277
0.0550421
0.0493125
0.0427431
0.0363406
0.0298612
0.0240064
0.0706818
0.0697884
0.066433
0.0628723
0.0574102
0.0516834
0.0450049
0.038462
0.0317832
0.0257301
0.0726951
0.0718794
0.0686652
0.0652467
0.0598278
0.0541209
0.0473428
0.0406658
0.0337872
0.0275325
0.074697
0.0739628
0.0709106
0.0676483
0.0622942
0.056625
0.0497583
0.0429546
0.0358766
0.0294172
0.0766846
0.0760361
0.0731667
0.0700745
0.0648084
0.0591957
0.0522529
0.0453314
0.038055
0.0313881
0.0786554
0.0780966
0.0754309
0.0725225
0.0673694
0.0618328
0.0548281
0.0477988
0.040326
0.0334492
0.0806067
0.0801418
0.0777004
0.0749897
0.0699761
0.0645357
0.0574852
0.0503598
0.0426933
0.0356046
0.0825361
0.0821692
0.0799726
0.077473
0.0726271
0.0673036
0.0602254
0.053017
0.0451606
0.0378585
0.0844412
0.0841767
0.0822446
0.0799696
0.0753209
0.0701356
0.0630499
0.0557732
0.0477317
0.0402155
0.0863197
0.0861619
0.0845134
0.0824764
0.0780556
0.0730304
0.0659599
0.0586312
0.0504104
0.04268
0.0881695
0.0881228
0.0867762
0.0849905
0.0808293
0.0759863
0.0689562
0.0615935
0.0532007
0.0452569
0.0899886
0.0900572
0.0890299
0.0875087
0.0836398
0.0790016
0.0720398
0.0646626
0.0561064
0.0479511
0.0917752
0.0919634
0.0912714
0.090028
0.0864846
0.0820742
0.0752112
0.0678409
0.0591313
0.0507676
0.0935273
0.0938394
0.0934979
0.0925453
0.0893607
0.0852015
0.078471
0.0711304
0.0622793
0.0537117
0.0952436
0.0956836
0.0957062
0.0950575
0.0922653
0.0883808
0.0818193
0.0745329
0.0655541
0.0567888
0.0969224
0.0974943
0.0978934
0.0975615
0.095195
0.0916093
0.0852564
0.0780501
0.0689595
0.0600046
0.0985625
0.09927
0.100057
0.100054
0.098146
0.0948836
0.0887819
0.0816831
0.0724993
0.0633649
0.100163
0.101009
0.102193
0.102532
0.101115
0.0982001
0.0923952
0.0854326
0.0761773
0.0668758
0.101722
0.102711
0.104299
0.104993
0.104096
0.101555
0.0960956
0.089299
0.0799974
0.0705436
0.10324
0.104374
0.106373
0.107433
0.107087
0.104944
0.0998818
0.0932821
0.0839637
0.0743746
0.104715
0.105997
0.108412
0.10985
0.110082
0.108364
0.103752
0.097381
0.0880806
0.0783754
0.106147
0.107578
0.110414
0.11224
0.113076
0.111809
0.107704
0.101594
0.0923532
0.0825526
0.107535
0.109118
0.112375
0.114601
0.116064
0.115275
0.111735
0.105921
0.096787
0.0869125
0.10888
0.110616
0.114295
0.11693
0.11904
0.118758
0.115841
0.110357
0.101389
0.0914607
0.11018
0.11207
0.116171
0.119224
0.122
0.122252
0.120018
0.114901
0.106167
0.0962012
0.111436
0.11348
0.118001
0.12148
0.124937
0.125752
0.12426
0.119549
0.111132
0.101138
0.112648
0.114846
0.119784
0.123696
0.127845
0.129253
0.128561
0.124298
0.1163
0.106283
0.113816
0.116167
0.121519
0.125869
0.130722
0.132751
0.132915
0.129148
0.121684
0.111649
0.11494
0.117444
0.123204
0.128
0.133562
0.136243
0.137317
0.134094
0.127289
0.117199
0.11602
0.118677
0.12484
0.130084
0.136358
0.139719
0.141739
0.139114
0.133098
0.122751
0.117057
0.119859
0.126413
0.1321
0.139075
0.143129
0.146119
0.144165
0.13918
0.128186
0.118054
0.120982
0.127908
0.134011
0.14168
0.146441
0.150491
0.149355
0.145999
0.134517
-0.0059402
-0.00660411
-0.00727515
-0.00795055
-0.00862962
-0.00931242
-0.00999889
-0.0106887
-0.0113813
-0.0120761
-0.0127728
-0.0134707
-0.0141696
-0.014869
-0.0155683
-0.0162674
-0.0169655
-0.0176624
-0.0183575
-0.0190501
-0.0058992
-0.00656417
-0.00723655
-0.00791284
-0.00859254
-0.00927609
-0.00996364
-0.0106549
-0.0113493
-0.0120464
-0.0127456
-0.0134464
-0.0141485
-0.0148514
-0.0155547
-0.0162578
-0.0169603
-0.0176619
-0.0183622
-0.0190609
-0.00581739
-0.00648617
-0.00716371
-0.00784508
-0.0085296
-0.00921804
-0.0099108
-0.0106076
-0.011308
-0.0120112
-0.0127167
-0.0134241
-0.014133
-0.0148428
-0.0155531
-0.0162634
-0.0169732
-0.0176821
-0.0183895
-0.0190947
-0.00569806
-0.00637403
-0.00706055
-0.0077506
-0.00844319
-0.00913951
-0.00984034
-0.0105455
-0.0112545
-0.0119664
-0.0126808
-0.0133973
-0.0141152
-0.0148342
-0.0155538
-0.0162735
-0.0169927
-0.017711
-0.0184279
-0.019143
-0.00554296
-0.00622925
-0.00692823
-0.00763017
-0.00833372
-0.00904068
-0.00975232
-0.0104686
-0.0111889
-0.0119123
-0.0126383
-0.0133664
-0.0140961
-0.014827
-0.0155585
-0.0162902
-0.0170214
-0.0177518
-0.0184807
-0.0192078
-0.00535345
-0.00605304
-0.00676784
-0.00748479
-0.00820215
-0.00892246
-0.00964761
-0.0103777
-0.011112
-0.0118495
-0.0125897
-0.013332
-0.0140759
-0.0148211
-0.0155669
-0.0163129
-0.0170585
-0.0178032
-0.0185464
-0.0192878
-0.00513072
-0.00584653
-0.0065804
-0.00731539
-0.00804928
-0.00878554
-0.00952677
-0.0102733
-0.0110241
-0.0117782
-0.012535
-0.0132939
-0.0140545
-0.0148163
-0.0155788
-0.0163414
-0.0171036
-0.0178649
-0.0186247
-0.0193827
-0.00487579
-0.00561063
-0.00636674
-0.00712266
-0.00787571
-0.00863041
-0.00939021
-0.0101556
-0.0109254
-0.0116986
-0.0124744
-0.0132523
-0.0140318
-0.0148126
-0.015594
-0.0163755
-0.0171566
-0.0179367
-0.0187153
-0.019492
-0.00458948
-0.00534611
-0.00612754
-0.00690721
-0.00768193
-0.00845751
-0.0092383
-0.010025
-0.0108163
-0.0116109
-0.012408
-0.0132072
-0.014008
-0.01481
-0.0156126
-0.0164152
-0.0172174
-0.0180185
-0.018818
-0.0196156
-0.00427241
-0.00505355
-0.00586333
-0.00666949
-0.00746835
-0.00826717
-0.00907132
-0.00988169
-0.0106968
-0.0115152
-0.012336
-0.0131588
-0.0139831
-0.0148085
-0.0156344
-0.0164604
-0.0172858
-0.01811
-0.0189326
-0.0197532
-0.00392507
-0.00473343
-0.00557453
-0.00640986
-0.00723527
-0.00805964
-0.00888951
-0.00972594
-0.0105673
-0.0114117
-0.0122585
-0.013107
-0.013957
-0.0148081
-0.0156596
-0.016511
-0.0173618
-0.0182113
-0.0190591
-0.0199048
-0.00354781
-0.00438604
-0.00526143
-0.0061286
-0.00698291
-0.00783511
-0.008693
-0.00955784
-0.0104277
-0.0113005
-0.0121754
-0.013052
-0.0139299
-0.0148088
-0.0156881
-0.0165671
-0.0174454
-0.0183223
-0.0191974
-0.0200703
-0.00314081
-0.00401161
-0.00492424
-0.00582585
-0.00671139
-0.00759368
-0.00848191
-0.00937748
-0.0102781
-0.0111816
-0.0120869
-0.0129938
-0.0139018
-0.0148107
-0.0157198
-0.0166287
-0.0175366
-0.018443
-0.0193475
-0.0202498
-0.00270416
-0.00361019
-0.00456304
-0.0055017
-0.00642076
-0.0073354
-0.00825626
-0.0091849
-0.0101187
-0.0110551
-0.0119931
-0.0129323
-0.0138727
-0.0148138
-0.015755
-0.0166957
-0.0176354
-0.0185735
-0.0195095
-0.0204432
-0.00223778
-0.00318175
-0.0041778
-0.00515612
-0.00611102
-0.00706023
-0.00801603
-0.00898009
-0.0099493
-0.0109209
-0.0118938
-0.0128678
-0.0138427
-0.0148182
-0.0157936
-0.0167684
-0.017742
-0.0187138
-0.0196834
-0.0206506
-0.00174149
-0.00272613
-0.00376842
-0.00478902
-0.00578204
-0.0067681
-0.00776116
-0.00876299
-0.00977
-0.0107791
-0.0117892
-0.0128001
-0.0138117
-0.0148238
-0.0158356
-0.0168466
-0.0178563
-0.0188641
-0.0198694
-0.0208723
-0.00121498
-0.00224308
-0.00333468
-0.00440021
-0.00543366
-0.00645883
-0.0074915
-0.0085335
-0.00958067
-0.0106296
-0.0116791
-0.0127292
-0.0137799
-0.0148307
-0.0158812
-0.0169307
-0.0179786
-0.0190244
-0.0200676
-0.0211084
-0.000657844
-0.00173222
-0.00287628
-0.00398943
-0.00506563
-0.0061322
-0.00720689
-0.00829148
-0.0093812
-0.0104723
-0.0115636
-0.0126552
-0.0137471
-0.014839
-0.0159303
-0.0170205
-0.0181088
-0.0191949
-0.0202782
-0.021359
-6.953e-05
-0.00119308
-0.00239283
-0.00355631
-0.00467764
-0.00578795
-0.00690707
-0.00803674
-0.00917146
-0.0103071
-0.0114425
-0.0125779
-0.0137134
-0.0148487
-0.0159832
-0.0171162
-0.0182473
-0.0193759
-0.0205015
-0.0216244
0.000550616
-0.000625062
-0.00188383
-0.00310043
-0.00426927
-0.00542571
-0.00659177
-0.00776904
-0.00895125
-0.0101339
-0.0113158
-0.0124974
-0.0136788
-0.0148598
-0.0160398
-0.017218
-0.0183941
-0.0195674
-0.0207375
-0.021905
0.00120337
-2.74825e-05
-0.00134869
-0.00262127
-0.00384008
-0.00504508
-0.00626063
-0.0074881
-0.00872035
-0.00995245
-0.0111833
-0.0124135
-0.0136433
-0.0148724
-0.0161002
-0.017326
-0.0185493
-0.0197697
-0.0209867
-0.0222009
0.00188961
0.000600461
-0.000786736
-0.00211824
-0.00338952
-0.00464558
-0.00591327
-0.00719361
-0.00847851
-0.00976262
-0.0110449
-0.0123262
-0.0136069