/*--------------------------------*- C++ -*----------------------------------*\
  =========                 |
  \\      /  F ield         | OpenFOAM: The Open Source CFD Toolbox
   \\    /   O peration     | Website:  https://openfoam.org
    \\  /    A nd           | Version:  7
     \\/     M anipulation  |
\*---------------------------------------------------------------------------*/
FoamFile
{
    version     2.0;
    format      ascii;
    class       surfaceScalarField;
    location    "29.000062";
    object      phi;
}
// * * * * * * * * * * * * * * * * * * * * * * * * * * * * * * * * * * * * * //

dimensions      [0 3 -1 0 0 0 0];

internalField   nonuniform List<scalar> 
11411
(
-3.86305e-06
3.23107e-10
-1.45208e-05
9.05907e-10
-3.16379e-05
1.46588e-09
-5.48609e-05
1.99481e-09
-8.38248e-05
2.48763e-09
-0.000118177
2.94467e-09
-0.000157598
3.37216e-09
-0.000201821
3.7818e-09
-0.000250642
4.18891e-09
4.60892e-09
-4.0234e-05
7.91509e-11
-0.000139136
1.95718e-10
-0.000280073
2.78439e-10
-0.000448756
3.31065e-10
-0.000635101
3.61729e-10
-0.000833476
3.79359e-10
-0.00104168
3.90844e-10
-0.00125949
4.00066e-10
-0.00148755
4.08543e-10
-0.00172682
4.16694e-10
4.24536e-10
-4.0234e-05
4.0234e-05
-0.000139136
9.8902e-05
-0.000280073
0.000140937
-0.000448756
0.000168684
-0.000635101
0.000186345
-0.000833476
0.000198375
-0.00104168
0.000208202
-0.00125949
0.00021781
-0.00148755
0.000228065
-0.00172682
0.000239264
-0.00197834
0.000251523
-0.00224327
0.000264929
-0.00252283
0.000279565
-0.00281835
0.000295519
-0.00313123
0.000312879
-0.00346297
0.000331745
-0.00381519
0.000352222
-0.00418954
0.000374345
-0.00458757
0.000398034
0.000423562
-0.00501113
-4.00294e-05
8.02635e-05
-0.000138525
0.000197397
-0.000278989
0.000281402
-0.000447211
0.000336906
-0.000633126
0.000372261
-0.000831096
0.000396345
-0.0010389
0.000416005
-0.00125631
0.000435217
-0.00148396
0.000455716
-0.00172279
0.0004781
-0.00197387
0.000502604
-0.00223834
0.000529398
-0.00251743
0.000558653
-0.00281245
0.000590541
-0.00312481
0.00062524
-0.00345602
0.000662948
-0.00380767
0.000703876
-0.00418143
0.000748099
-0.00457885
0.000795462
0.000846495
-0.00500179
-3.96211e-05
0.000119885
-0.000137303
0.000295079
-0.000276825
0.000420923
-0.000444122
0.000504203
-0.000629178
0.000557316
-0.000826335
0.000593502
-0.00103334
0.000623012
-0.00124994
0.000651819
-0.00147677
0.00068254
-0.00171475
0.000716084
-0.00196495
0.000752803
-0.0022285
0.000792953
-0.00250664
0.000836789
-0.00280067
0.000884571
-0.00311199
0.000936565
-0.00344211
0.000993067
-0.00379263
0.00105439
-0.0041652
0.00112067
-0.00456142
0.00119168
0.00126817
-0.00498309
-3.90105e-05
0.000158895
-0.000135475
0.000391544
-0.000273581
0.000559029
-0.000439493
0.000670115
-0.000623258
0.000741082
-0.000819198
0.000789442
-0.00102501
0.000828825
-0.00124041
0.000867213
-0.00146599
0.000908125
-0.0017027
0.000952789
-0.00195157
0.00100168
-0.00221375
0.00105513
-0.00249046
0.0011135
-0.00278301
0.00117711
-0.00309278
0.00124634
-0.00342127
0.00132156
-0.00377009
0.00140321
-0.00414089
0.00149147
-0.00453527
0.00158606
0.00168792
-0.00495503
-3.81998e-05
0.000197095
-0.000133045
0.000486389
-0.000269264
0.000695249
-0.000433326
0.000834176
-0.000615371
0.000923127
-0.000809688
0.00098376
-0.00101391
0.00103305
-0.0012277
0.001081
-0.00145164
0.00113206
-0.00168664
0.00118779
-0.00193376
0.00124879
-0.00219411
0.00131549
-0.00246892
0.00138831
-0.00275949
0.00146768
-0.00306719
0.00155404
-0.00339353
0.00164789
-0.00374007
0.00174976
-0.0041085
0.00185989
-0.00450043
0.001978
0.0021051
-0.00491761
-3.7192e-05
0.000234287
-0.000130017
0.000579214
-0.00026388
0.000829112
-0.000425627
0.000995924
-0.00060552
0.00110302
-0.00079781
0.00117605
-0.00100005
0.00123529
-0.00121183
0.00129279
-0.00143372
0.00135395
-0.0016666
0.00142068
-0.00191152
0.00149372
-0.0021696
0.00157357
-0.00244204
0.00166075
-0.00273014
0.00175578
-0.00303527
0.00185917
-0.0033589
0.00197152
-0.00370261
0.00209347
-0.00406807
0.00222535
-0.00445693
0.00236686
0.00251902
-0.00487085
-3.59908e-05
0.000270278
-0.000126399
0.000669622
-0.000257435
0.000960148
-0.000416404
0.00115489
-0.000593712
0.00128033
-0.00078357
0.00136591
-0.000983432
0.00143515
-0.00119282
0.00150217
-0.00141224
0.00157337
-0.00164259
0.00165103
-0.00188489
0.00173601
-0.00214024
0.00182893
-0.00240985
0.00193036
-0.002695
0.00204092
-0.00299704
0.00216121
-0.00331743
0.00229192
-0.00365774
0.00243378
-0.00401965
0.00258726
-0.0044048
0.00275201
0.00292901
-0.0048148
-3.46009e-05
0.000304879
-0.000122201
0.000757222
-0.000249942
0.00108789
-0.000405665
0.00131062
-0.000579954
0.00145462
-0.000766976
0.00155293
-0.000964072
0.00163225
-0.00117067
0.00170877
-0.00138724
0.00178994
-0.00161464
0.00187843
-0.00185388
0.00197526
-0.00210607
0.00208112
-0.00237239
0.00219668
-0.0026541
0.00232262
-0.00295254
0.00245966
-0.00326918
0.00260855
-0.00360554
0.00277014
-0.00396329
0.00294501
-0.00434412
0.00313283
0.00333441
-0.00474951
-3.30276e-05
0.000337906
-0.000117432
0.000841626
-0.00024141
0.00121187
-0.00039342
0.00146263
-0.000564254
0.00162545
-0.000748036
0.00173671
-0.000941978
0.00182619
-0.0011454
0.0019122
-0.00135872
0.00200325
-0.00158277
0.00210247
-0.00181854
0.00221103
-0.00206713
0.0023297
-0.00232969
0.00245924
-0.00260749
0.00260042
-0.00290185
0.00275402
-0.00321419
0.00292089
-0.00354605
0.003102
-0.00389908
0.00329804
-0.00427495
0.00350871
0.00373455
-0.00467509
-3.12771e-05
0.000369183
-0.000112105
0.000922455
-0.000231855
0.00133162
-0.000379681
0.00161045
-0.000546624
0.00179239
-0.000726762
0.00191685
-0.000917166
0.00201659
-0.00111703
0.00211206
-0.00132671
0.00221293
-0.001547
0.00232276
-0.00177889
0.00244292
-0.00202345
0.00257426
-0.00228181
0.00271761
-0.00255523
0.00287384
-0.00284501
0.0030438
-0.00315255
0.00322843
-0.00347935
0.0034288
-0.00382708
0.00364577
-0.00419741
0.00387903
0.0041288
-0.00459166
-2.93567e-05
0.00039854
-0.000106236
0.000999334
-0.000221292
0.00144667
-0.000364464
0.00175362
-0.000527074
0.001955
-0.000703165
0.00209294
-0.000889648
0.00220308
-0.00108559
0.002308
-0.00129124
0.00241858
-0.00150738
0.00253891
-0.00173498
0.00267052
-0.00197508
0.00281436
-0.00222881
0.00297134
-0.00249738
0.00314241
-0.0027821
0.00332851
-0.00308432
0.00353066
-0.00340554
0.00375002
-0.00374741
0.00398763
-0.00411159
0.00424322
0.00451654
-0.00449933
-2.72744e-05
0.000425814
-9.98387e-05
0.0010719
-0.000209741
0.00155657
-0.000347783
0.00189167
-0.000505618
0.00211284
-0.000677258
0.00226458
-0.000859442
0.00238526
-0.00105108
0.00249964
-0.00125234
0.00261984
-0.00146395
0.00275052
-0.00168685
0.00289342
-0.00192208
0.00304958
-0.00217074
0.00322
-0.00243402
0.00340569
-0.00271319
0.00360768
-0.0030096
0.00382707
-0.00332471
0.00406513
-0.00366015
0.00432308
-0.00401762
0.00460069
0.00489719
-0.00439827
-2.50393e-05
0.000450854
-9.29339e-05
0.00113979
-0.000197224
0.00166086
-0.00032966
0.0020241
-0.000482273
0.00226545
-0.000649056
0.00243136
-0.000826566
0.00256277
-0.00101353
0.0026866
-0.00121003
0.00281634
-0.00141673
0.00295723
-0.00163455
0.00311124
-0.00186451
0.00327953
-0.00210767
0.00346317
-0.00236522
0.00366324
-0.00263838
0.00388085
-0.00292849
0.00411717
-0.00323695
0.0043736
-0.00356543
0.00465155
-0.00391563
0.00495089
0.00527021
-0.00428864
-2.26615e-05
0.000473515
-8.55426e-05
0.00120267
-0.000183766
0.00175909
-0.000310116
0.00215045
-0.000457057
0.00241239
-0.000618576
0.00259288
-0.000791039
0.00273523
-0.000972982
0.00286855
-0.00116436
0.00300771
-0.00136578
0.00315865
-0.00157814
0.0033236
-0.00180242
0.00350381
-0.00203968
0.00370043
-0.00229106
0.00391462
-0.00255777
0.00414756
-0.00284108
0.00440048
-0.00314239
0.00467491
-0.00346335
0.00497251
-0.00380575
0.00529328
0.00563508
-0.00417063
-2.01521e-05
0.000493667
-7.76891e-05
0.00126021
-0.000169396
0.0018508
-0.000289179
0.00227024
-0.000429991
0.0025532
-0.000585837
0.00274873
-0.000752882
0.00290228
-0.00092945
0.00304512
-0.00111535
0.00319361
-0.00131115
0.00335445
-0.00151768
0.00353013
-0.0017359
0.00372204
-0.00196685
0.00393138
-0.00221164
0.0041594
-0.00247145
0.00440737
-0.00274751
0.00467654
-0.00304114
0.00496855
-0.00335403
0.0052854
-0.00368812
0.00562737
0.00599136
-0.0040444
-1.75236e-05
0.000511191
-6.94008e-05
0.00131209
-0.000154149
0.00193554
-0.000266878
0.00238297
-0.000401099
0.00268742
-0.00055086
0.00289849
-0.000712119
0.00306353
-0.000882967
0.00321596
-0.00106306
0.0033737
-0.00125287
0.00354426
-0.00145321
0.00373047
-0.00166501
0.00393384
-0.00188927
0.00415563
-0.00212706
0.00439719
-0.00237954
0.00465985
-0.0026479
0.00494491
-0.00293337
0.00525402
-0.0032376
0.00558963
-0.00356286
0.00595262
0.00633869
-0.00391019
-1.47892e-05
0.00052598
-6.07088e-05
0.00135801
-0.000138062
0.0020129
-0.000243251
0.00248815
-0.00037041
0.00281458
-0.000513668
0.00304175
-0.000668774
0.00321864
-0.000833565
0.00338076
-0.00100752
0.00354766
-0.00119102
0.00372776
-0.00138483
0.00392428
-0.00158984
0.00413885
-0.00180702
0.00437282
-0.00203742
0.00462759
-0.00228215
0.00490458
-0.00254238
0.00520513
-0.00281918
0.00553082
-0.00311406
0.00588451
-0.00342985
0.00626841
0.00667699
-0.00376815
-1.19636e-05
0.000537944
-5.16478e-05
0.00139769
-0.00012118
0.00208243
-0.000218337
0.00258531
-0.000337958
0.0029342
-0.000474291
0.00317808
-0.000622877
0.00336723
-0.000781278
0.00353916
-0.000948772
0.00371515
-0.00112564
0.00390462
-0.00131258
0.00411122
-0.00151046
0.00433673
-0.00172022
0.00458257
-0.00194285
0.00485022
-0.00217944
0.00514118
-0.00243116
0.00545685
-0.00269899
0.00579865
-0.00298396
0.00616948
-0.00328942
0.00657388
0.00700648
-0.00361891
-9.06317e-06
0.000547007
-4.22569e-05
0.00143089
-0.000103552
0.00214372
-0.000192186
0.00267395
-0.000303783
0.0030458
-0.000432759
0.00330706
-0.000574457
0.00350893
-0.000726144
0.00369084
-0.000886871
0.00387588
-0.00105679
0.00407455
-0.00123655
0.00429099
-0.00142698
0.00452715
-0.00162896
0.00478456
-0.00184346
0.00506472
-0.00207151
0.00536923
-0.00231426
0.0056996
-0.00257263
0.00605702
-0.00284679
0.00644364
-0.0031395
0.00686658
0.00732896
-0.00346198
-6.10816e-06
0.000553115
-3.25786e-05
0.00145736
-8.52353e-05
0.00219638
-0.000164855
0.00275357
-0.000267931
0.00314888
-0.00038911
0.00342824
-0.000523549
0.00364336
-0.000668201
0.0038355
-0.000821864
0.00402954
-0.000984547
0.00423723
-0.00115682
0.00446326
-0.00133947
0.0047098
-0.00153336
0.00497844
-0.00173939
0.00527075
-0.00195854
0.00558839
-0.00219198
0.00593304
-0.00244094
0.00630597
-0.00270556
0.00670826
-0.00298412
0.00714514
0.00764635
-0.00330151
-3.13999e-06
0.000556255
-2.26548e-05
0.00147687
-6.62907e-05
0.00224002
-0.000136407
0.00282368
-0.000230458
0.00324293
-0.000343387
0.00354117
-0.00047019
0.00377017
-0.00060749
0.0039728
-0.000753802
0.00417585
-0.000908965
0.00439239
-0.00107347
0.00462777
-0.00124805
0.00488438
-0.00143353
0.00516392
-0.00163077
0.00546799
-0.00184072
0.00579833
-0.00206442
0.00615675
-0.00230316
0.00654472
-0.00255827
0.00696337
-0.00283158
0.00741845
0.00792583
-0.00311105
-3.70876e-07
0.000556626
-1.25047e-05
0.001489
-4.67869e-05
0.0022743
-0.000106917
0.00288381
-0.000191428
0.00332744
-0.000295644
0.00364538
-0.000414427
0.00388895
-0.000544059
0.00410243
-0.00068274
0.00431453
-0.000830117
0.00453977
-0.000986579
0.00478423
-0.00115281
0.00505061
-0.00132958
0.00534069
-0.00151774
0.00565615
-0.00171816
0.00599875
-0.00193179
0.00637038
-0.00215986
0.00677279
-0.00240383
0.00720734
-0.00266429
0.00767891
0.00820107
-0.00293954
3.0004e-06
0.000553625
-1.99432e-06
0.001494
-2.6776e-05
0.00229908
-7.64612e-05
0.0029335
-0.00015092
0.0034019
-0.000245943
0.00374041
-0.000356311
0.00399932
-0.000477957
0.00422407
-0.000608738
0.00444531
-0.000748073
0.0046791
-0.000896237
0.00493239
-0.00105385
0.00520822
-0.00122165
0.00550849
-0.00140043
0.00583494
-0.00159103
0.00618935
-0.00179435
0.0065737
-0.00201154
0.00698998
-0.00224421
0.00744001
-0.00249356
0.00792825
0.00846417
-0.00275665
5.97321e-06
0.000547652
8.0863e-06
0.00149189
-6.09382e-06
0.00231326
-4.51465e-05
0.00297255
-0.000109031
0.00346578
-0.000194363
0.00382574
-0.000295904
0.00410086
-0.000409241
0.00433741
-0.000531857
0.00456793
-0.00066291
0.00481016
-0.000802537
0.00507202
-0.000951285
0.00535697
-0.00110985
0.00566706
-0.00127899
0.00600408
-0.00145951
0.00636987
-0.00165228
0.00676647
-0.00185842
0.00719612
-0.00207948
0.00766107
-0.00231627
0.00816504
0.00871379
-0.0025659
8.8125e-06
0.00053884
1.82622e-05
0.00148244
1.41566e-05
0.00231737
-1.29657e-05
0.00299967
-6.58825e-05
0.0035187
-0.000141003
0.00390086
-0.000233281
0.00419314
-0.000337977
0.00444211
-0.000452165
0.00468212
-0.000574705
0.0049327
-0.000705571
0.00520288
-0.000845227
0.00549662
-0.00099432
0.00581615
-0.00115357
0.00616333
-0.00132375
0.00654005
-0.00150571
0.00694843
-0.00170052
0.00739093
-0.00190956
0.00787012
-0.00213342
0.0083889
0.00894999
-0.00236962
1.15398e-05
0.0005273
2.83251e-05
0.00146565
3.4574e-05
0.00231112
1.93598e-05
0.00301489
-2.15884e-05
0.00355965
-8.59792e-05
0.00396525
-0.000168534
0.00427569
-0.000264237
0.00453781
-0.000369733
0.00478761
-0.000483541
0.00504651
-0.000605437
0.00532478
-0.000735789
0.00562698
-0.000875187
0.00595555
-0.00102431
0.00631245
-0.00118391
0.00669964
-0.00135479
0.00711932
-0.00153795
0.00757409
-0.00173459
0.00806676
-0.00194519
0.00859949
0.00917281
-0.00216801
1.42031e-05
0.000513097
3.82348e-05
0.00144162
5.50553e-05
0.0022943
5.19638e-05
0.00301798
2.3505e-05
0.00358811
-2.94509e-05
0.0040182
-0.000101774
0.00434801
-0.00018811
0.00462415
-0.000284644
0.00488415
-0.000389506
0.00515137
-0.000502236
0.00543751
-0.000623087
0.00574783
-0.000752584
0.00608505
-0.000891366
0.00645123
-0.00104014
0.00684842
-0.00119968
0.00727886
-0.00137091
0.00774531
-0.00155483
0.00825068
-0.00175186
0.00879653
0.00938186
-0.00196091
1.67495e-05
0.000496347
4.78836e-05
0.00141049
7.5365e-05
0.00226681
8.48885e-05
0.00300845
6.92209e-05
0.00360377
2.8406e-05
0.00405902
-3.31362e-05
0.00440956
-0.000109701
0.00470071
-0.000196984
0.00497143
-0.000292693
0.00524708
-0.000396076
0.00554089
-0.000507243
0.00585899
-0.00062665
0.00620445
-0.000754886
0.00657947
-0.000892615
0.00698614
-0.00104057
0.00742682
-0.00119958
0.00790432
-0.00137052
0.00842161
-0.00155374
0.00897975
0.00957674
-0.00174862
1.91284e-05
0.000477219
5.71437e-05
0.00137247
9.53043e-05
0.00222865
0.000117774
0.00298598
0.000115571
0.00360598
8.73895e-05
0.0040872
3.72312e-05
0.00445972
-2.91671e-05
0.00476711
-0.000106865
0.00504913
-0.000193205
0.00533342
-0.000287068
0.00563476
-0.000388383
0.00596031
-0.000497528
0.0063136
-0.000615031
0.00669697
-0.000741512
0.00711263
-0.000877654
0.00756296
-0.00102419
0.00805086
-0.00118187
0.0085793
-0.00135107
0.00914895
0.00975715
-0.00153148
2.13039e-05
0.000455915
6.59028e-05
0.00132787
0.000114657
0.0021799
0.000150336
0.00295031
0.000162156
0.00359416
0.000147334
0.00410202
0.000109169
0.00449788
5.34696e-05
0.00482281
-1.45339e-05
0.00511713
-9.11698e-05
0.00541005
-0.000175343
0.00571893
-0.000266637
0.0060516
-0.000365368
0.00641233
-0.000471967
0.00680357
-0.000587009
0.00722767
-0.000711122
0.00768708
-0.00084495
0.00818468
-0.000989153
0.0087235
-0.00114413
0.00930393
0.00992281
-0.00130979
2.32448e-05
0.00043267
7.40459e-05
0.00127707
0.000133193
0.00212075
0.00018226
0.00290124
0.000208636
0.00356778
0.000207891
0.00410277
0.000182423
0.00452335
0.000137984
0.00486725
8.03061e-05
0.00517481
1.31806e-05
0.00547718
-6.10673e-05
0.00579318
-0.000142155
0.00613269
-0.000230337
0.00650051
-0.000325859
0.00689909
-0.000429299
0.00733111
-0.00054119
0.00779897
-0.000662093
0.00830559
-0.0007926
0.008854
-0.000933188
0.00944451
0.0100735
-0.00108384
2.49231e-05
0.000407747
8.14577e-05
0.00122054
0.000150671
0.00205154
0.000213197
0.00283871
0.00025462
0.00352636
0.000268695
0.00408869
0.000256692
0.00453535
0.000224121
0.00489982
0.000177118
0.00522181
0.000120236
0.00553406
5.57899e-05
0.00585762
-1.5278e-05
0.00620376
-9.26245e-05
0.00657786
-0.000176904
0.00698337
-0.000268589
0.00742279
-0.00036807
0.00789845
-0.000475875
0.00841339
-0.000592473
0.0089706
-0.000718551
0.00957059
0.0102089
-0.000853946
2.63143e-05
0.000381433
8.80254e-05
0.00115882
0.000166842
0.00197272
0.000242766
0.00276279
0.000299659
0.00346946
0.00032931
0.00405904
0.000331612
0.00453305
0.00031162
0.00491981
0.000275775
0.00525766
0.000229253
0.00558058
0.00017508
0.0059118
0.000114516
0.00626432
4.76962e-05
0.00664468
-2.54407e-05
0.00705651
-0.000105113
0.00750246
-0.000192001
0.00798534
-0.000286573
0.00850796
-0.000389016
0.00907305
-0.000500465
0.00968204
0.0103288
-0.000620412
2.73977e-05
0.000354035
9.36425e-05
0.00109258
0.000181452
0.00188491
0.000270555
0.00267368
0.000343244
0.00339678
0.000389224
0.00401306
0.000406739
0.00451553
0.000400143
0.00492641
0.000376046
0.00528175
0.000340255
0.00561637
0.000296469
0.00595558
0.000246413
0.00631438
0.000190588
0.0067005
0.000128906
0.00711819
6.10122e-05
0.00757036
-1.3421e-05
0.00805977
-9.45216e-05
0.00858906
-0.000182641
0.00916117
-0.000279107
0.0097785
0.0104334
-0.000383725
2.81577e-05
0.000325877
9.82123e-05
0.00102252
0.000194246
0.00178888
0.000296129
0.0025718
0.000384807
0.0033081
0.000447835
0.00395004
0.000481539
0.00448183
0.000489271
0.00491867
0.000477628
0.0052934
0.000453011
0.00564099
0.000419845
0.00598875
0.000380425
0.0063538
0.000335583
0.00674534
0.00028541
0.00716836
0.000229707
0.00762606
0.000168166
0.00812131
0.000100338
0.00865689
2.59239e-05
0.00923558
-5.40258e-05
0.00985845
0.0105238
-0.000144431
2.85844e-05
0.000297293
0.000101653
0.000949456
0.000204983
0.00168555
0.000319034
0.00245775
0.000423722
0.00320341
0.00050445
0.00386931
0.000555368
0.00443091
0.000578487
0.00489556
0.000580144
0.00529174
0.000567251
0.00565388
0.000545007
0.00601099
0.000516373
0.00638243
0.000482593
0.00677912
0.000443987
0.00720697
0.000400466
0.00766958
0.000351792
0.00816998
0.000297698
0.00871099
0.000238047
0.00929523
0.000172016
0.00992449
0.0105975
9.83485e-05
2.86745e-05
0.000268618
0.000103902
0.000874229
0.000213443
0.00157601
0.000338816
0.00233238
0.000459314
0.00308291
0.00055828
0.00377034
0.000627458
0.00436173
0.00066715
0.00485586
0.000683117
0.00527577
0.000682639
0.00565436
0.000671709
0.00602192
0.000654051
0.00640009
0.000631429
0.00680175
0.000604445
0.00723395
0.000573156
0.00770087
0.000537421
0.00820572
0.000497031
0.00875138
0.000451759
0.0093405
0.000401209
0.00997504
0.0106535
0.00034518
2.84326e-05
0.000240186
0.000104921
0.000797741
0.000219438
0.00146149
0.000355035
0.00219678
0.000490871
0.00294707
0.00060844
0.00365277
0.000696908
0.00427326
0.000754476
0.0047983
0.000785948
0.0052443
0.000798753
0.00564156
0.000799653
0.00602102
0.000793225
0.00640652
0.000781873
0.0068131
0.000766567
0.00724926
0.000747554
0.00771988
0.000724799
0.00822847
0.000698156
0.00877802
0.000667469
0.00937119
0.000632535
0.01001
0.0106932
0.00059285
2.7871e-05
0.000212315
0.000104701
0.000720911
0.000222831
0.00134336
0.00036729
0.00205232
0.000517672
0.00279669
0.000653963
0.00351648
0.000762673
0.00416455
0.000839514
0.00472145
0.000887885
0.00519593
0.000915056
0.00561439
0.000928468
0.00600761
0.000933623
0.00640136
0.000933693
0.00681303
0.000930126
0.00725283
0.000923419
0.00772659
0.000913671
0.00823822
0.000900819
0.00879087
0.000884776
0.00938723
0.000865289
0.0100295
0.0107167
0.00084183
2.701e-05
0.000185305
0.000103263
0.000644658
0.000223545
0.00122308
0.000375244
0.00190062
0.000539012
0.00263292
0.000693816
0.00336168
0.000823564
0.00403481
0.000921126
0.00462389
0.000987988
0.00512907
0.00103086
0.00557151
0.00105768
0.00598079
0.00107491
0.00638413
0.00108663
0.00680131
0.00109488
0.00724457
0.00110051
0.00772096
0.00110378
0.00823495
0.00110472
0.00878993
0.00110331
0.00938865
0.00109925
0.0100335
0.0107239
0.00109205
2.58776e-05
0.000159427
0.000100662
0.000569874
0.000221572
0.00110217
0.000378652
0.00174354
0.000554247
0.00245733
0.000726939
0.00318899
0.00087826
0.00388348
0.000997967
0.00450419
0.0010851
0.00504194
0.00114528
0.00551133
0.00118669
0.00593939
0.00121669
0.00635413
0.00124037
0.00677763
0.00126057
0.00722438
0.00127856
0.00770297
0.00129485
0.00821867
0.00130958
0.0087752
0.00132278
0.00937545
0.00133422
0.0100221
0.0107148
0.00134327
2.45084e-05
0.000134919
9.69866e-05
0.000497395
0.000216982
0.000982174
0.000377386
0.00158314
0.000562837
0.00227188
0.000752289
0.00299953
0.000925333
0.00371044
0.00106849
0.00436103
0.00117779
0.00493263
0.00125721
0.00543191
0.00131469
0.00588191
0.00135841
0.00631041
0.00139456
0.00674148
0.0014269
0.00719204
0.00145731
0.00767256
0.00148661
0.00818936
0.00151511
0.0087467
0.00154291
0.00934764
0.00156991
0.00999507
0.0106895
0.00159529
2.29425e-05
0.000111976
9.23528e-05
0.000427985
0.000209926
0.000864601
0.00037146
0.00142161
0.000564398
0.00207894
0.000768908
0.00279502
0.000963302
0.00351605
0.00113093
0.00419341
0.00126437
0.00479919
0.00136522
0.00533107
0.00144065
0.00580647
0.00149938
0.00625169
0.00154873
0.00669214
0.00159354
0.00714723
0.00163647
0.00762962
0.0016788
0.00814704
0.00172104
0.00870446
0.00176342
0.00930526
0.00180596
0.00995252
0.0106477
0.0018477
2.12238e-05
9.07524e-05
8.69039e-05
0.000362305
0.000200635
0.00075087
0.000361045
0.0012612
0.000558756
0.00188123
0.000776005
0.00257778
0.000990702
0.00330135
0.00118338
0.00400073
0.00134283
0.00463973
0.00146755
0.00520635
0.00156323
0.00571079
0.00163869
0.00617623
0.00170227
0.00662855
0.00176007
0.00708943
0.00181573
0.00757396
0.00187111
0.00809165
0.00192708
0.0086485
0.00198399
0.00924835
0.00204205
0.00989446
0.0105897
0.00210011
1.93983e-05
7.13541e-05
8.08022e-05
0.000300901
0.000189407
0.000642266
0.00034647
0.00110413
0.000545986
0.00168171
0.000773038
0.00235072
0.00100619
0.00306819
0.00122384
0.00378308
0.00141089
0.00445269
0.00156204
0.0050552
0.00168067
0.00559215
0.00177507
0.00608183
0.00185437
0.00654926
0.00192596
0.00701783
0.00199469
0.00750523
0.00206324
0.00802311
0.00213291
0.00857882
0.0022043
0.00917697
0.00227784
0.00982091
0.0105153
0.00235217
1.7512e-05
5.38421e-05
7.4222e-05
0.000244191
0.000176597
0.000539891
0.000328215
0.000952514
0.000526437
0.00148349
0.000759808
0.00211735
0.00100869
0.00281931
0.00125032
0.00354145
0.001466
0.00423701
0.0016461
0.0048751
0.00179076
0.00544749
0.00190688
0.00596572
0.00200391
0.00645222
0.00209052
0.00693123
0.0021729
0.00742285
0.00225481
0.00794119
0.00233823
0.0084954
0.00242404
0.00909116
0.002513
0.00973195
0.0104248
0.00260351
1.56088e-05
3.82333e-05
6.73405e-05
0.000192459
0.000162597
0.000444635
0.000306887
0.000808224
0.000500737
0.00128964
0.000736527
0.00188156
0.000997494
0.00255834
0.00126104
0.00327791
0.00150552
0.00399253
0.00171676
0.00466385
0.00189072
0.00527353
0.0020319
0.00582454
0.00214936
0.00633476
0.00225274
0.00682785
0.00234973
0.00732586
0.00244541
0.00784551
0.00254268
0.00839814
0.00264287
0.00899096
0.00274719
0.00962763
0.0103182
0.00285378
1.3729e-05
2.45043e-05
6.03306e-05
0.000145858
0.000147813
0.000357152
0.000283185
0.000672853
0.000469768
0.00110306
0.000703859
0.00164747
0.000972463
0.00228974
0.00125459
0.00299578
0.00152685
0.00372027
0.0017707
0.00441999
0.00197721
0.00506703
0.00214729
0.00565446
0.0022886
0.00619344
0.00241123
0.00670522
0.00252432
0.00721277
0.00263449
0.00773534
0.00274585
0.00828677
0.00286045
0.00887636
0.00298007
0.00950801
0.0101957
0.00310263
1.1908e-05
1.25963e-05
5.33527e-05
0.000104413
0.000132649
0.000277856
0.000257859
0.000547642
0.00043461
0.000926307
0.00066291
0.00141917
0.000934094
0.00201856
0.0012302
0.00269968
0.00152769
0.00342278
0.00180447
0.00414322
0.0020463
0.00482519
0.00224942
0.00545134
0.00241877
0.00602409
0.00256401
0.00655998
0.0026954
0.00708138
0.00282127
0.00760948
0.00294726
0.00816078
0.00307639
0.00874723
0.00321129
0.00937312
0.0100573
0.00334971
1.01751e-05
2.42117e-06
4.65499e-05
6.80384e-05
0.000117482
0.000206924
0.000231666
0.000433459
0.000396473
0.000761499
0.000615174
0.00120047
0.000883586
0.00175015
0.00118795
0.00239532
0.0015064
0.00310433
0.00181473
0.00383489
0.00209369
0.00454623
0.00233387
0.00521117
0.00253607
0.00582189
0.00270826
0.00638779
0.00286115
0.00692849
0.00300464
0.00746599
0.00314622
0.0080192
0.00329021
0.00860324
0.00344044
0.00922289
0.00990304
0.00359465
8.55409e-06
-6.13292e-06
4.00438e-05
3.65487e-05
0.000102653
0.000144315
0.000205326
0.000330786
0.000356612
0.000610213
0.000562418
0.000994666
0.000822798
0.00148977
0.0011289
0.00208922
0.00146231
0.00277091
0.00179873
0.00349847
0.00211494
0.00423002
0.0023955
0.00493062
0.00263568
0.00558171
0.00284013
0.00618334
0.00301886
0.00674976
0.0031829
0.00730195
0.00334171
0.00786039
0.0035013
0.00844365
0.00366709
0.0090571
0.00973305
0.00383708
7.0618e-06
-1.31947e-05
3.39334e-05
9.67715e-06
8.84517e-05
8.97963e-05
0.000179493
0.000239745
0.000316249
0.000473456
0.000506556
0.000804359
0.000754119
0.0012422
0.00105514
0.00178819
0.00139608
0.00242998
0.00175478
0.00313976
0.00210599
0.00387881
0.00242871
0.00460789
0.00271168
0.00529874
0.00295444
0.00594058
0.00316464
0.00653956
0.00335349
0.0071131
0.00353221
0.00768166
0.00370874
0.00826712
0.00389062
0.00887522
0.00954713
0.00407654
5.71084e-06
-1.89056e-05
2.82951e-05
-1.29071e-05
7.51173e-05
4.29741e-05
0.000154731
0.000160132
0.000276506
0.00035168
0.000449499
0.000631367
0.000680264
0.00101144
0.00096969
0.00149877
0.00130981
0.00208985
0.00168277
0.00276681
0.00206381
0.00349777
0.00242798
0.00424372
0.00275728
0.00496944
0.00304456
0.00565331
0.00329305
0.00629107
0.00351252
0.00689363
0.00371525
0.00747893
0.00391111
0.00807127
0.00411021
0.00867612
0.00934484
0.0043125
4.50917e-06
-2.34147e-05
2.31848e-05
-3.15827e-05
6.2834e-05
3.3249e-06
0.0001315
9.14658e-05
0.000238355
0.000244825
0.000393027
0.000476695
0.000604041
0.000800423
0.000876169
0.00122664
0.00120705
0.00175897
0.00158456
0.0023893
0.00198719
0.00309514
0.00238869
0.00384222
0.00276538
0.00459275
0.00310251
0.00531618
0.0033968
0.00599678
0.00365434
0.00663609
0.00388702
0.00724625
0.00410609
0.00785221
0.00432449
0.00845771
0.00912512
0.00454421
3.46088e-06
-2.68756e-05
1.86386e-05
-4.67605e-05
5.17335e-05
-2.977e-05
0.000110152
3.30469e-05
0.000202586
0.000152391
0.000338695
0.000340587
0.000528122
0.000610996
0.000778501
0.000976261
0.00109241
0.00144506
0.00146406
0.00201766
0.00187743
0.00268177
0.00230819
0.00341146
0.00272949
0.00417145
0.00311945
0.00492622
0.00346667
0.00564955
0.003771
0.00633176
0.00404164
0.00697561
0.00428989
0.00760396
0.00453128
0.00821632
0.0088861
0.0047703
2.56659e-06
-2.94422e-05
1.46746e-05
-5.88685e-05
4.18966e-05
-5.69919e-05
9.09305e-05
-1.5987e-05
0.000169792
7.35302e-05
0.000287758
0.00022262
0.000454851
0.000443904
0.0006805
0.000750612
0.000971142
0.00115442
0.00132692
0.00166188
0.00173863
0.00227006
0.00218685
0.00296324
0.00264518
0.00371312
0.0030868
0.0044846
0.00349197
0.00524438
0.003852
0.00597173
0.00417051
0.0066571
0.00445639
0.00731808
0.00472677
0.00794594
0.0086238
0.00498908
1.82338e-06
-3.12656e-05
1.12927e-05
-6.83378e-05
3.33543e-05
-7.90535e-05
7.39685e-05
-5.66013e-05
0.000140361
7.1372e-06
0.00024114
0.000121841
0.000386119
0.000298925
0.000585555
0.000551176
0.00084847
0.000891503
0.00117989
0.00133045
0.00157746
0.00187249
0.00202879
0.00251191
0.00251161
0.0032303
0.002998
0.00399821
0.00346173
0.00478065
0.00388458
0.00554888
0.00426173
0.00627995
0.0045964
0.0069834
0.00490445
0.00763789
0.00833191
0.00519634
1.22438e-06
-3.249e-05
8.47452e-06
-7.5588e-05
2.60886e-05
-9.66676e-05
5.92957e-05
-8.98083e-05
0.000114484
-4.80515e-05
0.000199417
3.69087e-05
0.000323284
0.000175057
0.000496386
0.000378075
0.000729108
0.00065878
0.00102993
0.00102963
0.00140238
0.00150004
0.00184169
0.0020726
0.00233266
0.00273933
0.00285067
0.0034802
0.0033669
0.00426443
0.00385509
0.00506069
0.00430018
0.00583487
0.00469627
0.00658731
0.005055
0.00727916
0.00800185
0.00538506
7.58422e-07
-3.32484e-05
6.18301e-06
-8.10126e-05
2.00339e-05
-0.000110519
4.68399e-05
-0.000116614
9.21569e-05
-9.33685e-05
0.000162822
-3.37567e-05
0.00026715
7.07296e-05
0.000414905
0.000230319
0.000616823
0.000456862
0.000883347
0.000763111
0.00122235
0.00116104
0.00163592
0.00165903
0.00211712
0.00225812
0.00264835
0.00294897
0.00320325
0.00370953
0.00375155
0.00451239
0.00426924
0.00531718
0.00473832
0.00611823
0.00516087
0.0068566
0.00760994
0.00555278
4.09896e-07
-3.36583e-05
4.36318e-06
-8.49658e-05
1.50799e-05
-0.000121235
3.64373e-05
-0.000137972
7.32005e-05
-0.000130132
0.000131278
-9.18342e-05
0.000217982
-1.59741e-05
0.000342187
0.000106114
0.000514219
0.00028483
0.000745212
0.000532117
0.00104564
0.000860618
0.00142279
0.00128187
0.00187751
0.00180341
0.00240104
0.00242543
0.00297388
0.0031367
0.00356798
0.00391828
0.00415234
0.00473282
0.00470532
0.00556526
0.00519661
0.00636531
0.00715334
0.00565321
1.59314e-07
-3.38176e-05
2.94401e-06
-8.77505e-05
1.1078e-05
-0.000129369
2.78459e-05
-0.00015474
5.72875e-05
-0.000159573
0.000104432
-0.000138979
0.00017557
-8.71117e-05
0.000278507
3.17691e-06
0.000422675
0.000140662
0.000618945
0.000335847
0.000878835
0.000600729
0.00121286
0.000947842
0.00162787
0.0013884
0.00212378
0.00192952
0.00269019
0.00257029
0.00330724
0.00330124
0.00394189
0.00409816
0.00457118
0.00493597
0.00516213
0.00577436
0.00665937
0.00565609
-1.73159e-08
-3.38003e-05
1.84261e-06
-8.96105e-05
7.85148e-06
-0.000135378
2.07654e-05
-0.000167653
4.39781e-05
-0.000182786
8.17209e-05
-0.000176721
0.000139318
-0.000144709
0.00022346
-8.09654e-05
0.00034245
2.16714e-05
0.000506268
0.00017203
0.000726304
0.000380692
0.00101447
0.000659681
0.00138139
0.00102147
0.00183377
0.00147714
0.00237037
0.00203368
0.00298235
0.00268926
0.00364187
0.00343865
0.0043269
0.00425093
0.00501676
0.00508451
0.00607931
0.00559681
-1.43064e-07
-3.36572e-05
9.70516e-07
-9.0724e-05
5.20864e-06
-0.000139616
1.48626e-05
-0.000177307
3.27637e-05
-0.000200687
6.24435e-05
-0.000206401
0.000108355
-0.00019062
0.000176136
-0.000148746
0.000272884
-7.50768e-05
0.000407379
3.75343e-05
0.000590123