/*--------------------------------*- C++ -*----------------------------------*\
  =========                 |
  \\      /  F ield         | OpenFOAM: The Open Source CFD Toolbox
   \\    /   O peration     | Website:  https://openfoam.org
    \\  /    A nd           | Version:  7
     \\/     M anipulation  |
\*---------------------------------------------------------------------------*/
FoamFile
{
    version     2.0;
    format      ascii;
    class       volVectorField;
    location    "29.000062";
    object      U;
}
// * * * * * * * * * * * * * * * * * * * * * * * * * * * * * * * * * * * * * //

dimensions      [0 1 -1 0 0 0 0];

internalField   nonuniform List<vector> 
5800
(
(-0.000618129 0.000834324 -2.25472e-21)
(-0.00370224 0.00209817 -7.95173e-21)
(-0.0100506 0.00304337 1.4469e-21)
(-0.0184879 0.00372373 5.47847e-21)
(-0.0284795 0.00417875 2.33412e-21)
(-0.0396034 0.0044462 -5.69077e-21)
(-0.0514505 0.00456281 -1.80868e-21)
(-0.0636751 0.00456233 -7.10724e-22)
(-0.0759994 0.00447434 -6.54189e-21)
(-0.0882041 0.00432321 -1.26085e-21)
(0.00708137 0.00865056 -6.17187e-21)
(0.037509 0.0193467 -2.09816e-20)
(0.0934682 0.024765 3.84033e-21)
(0.158432 0.0264811 1.39284e-20)
(0.225103 0.0259661 5.71094e-21)
(0.289969 0.0243754 -1.36362e-20)
(0.35129 0.0224385 -4.13501e-21)
(0.408587 0.0205067 -1.662e-21)
(0.461908 0.0187001 -8.32607e-21)
(0.511435 0.0170405 -7.38336e-21)
(0.557373 0.0155222 -9.23379e-21)
(0.00708137 -0.00865063 6.17187e-21)
(0.037509 -0.0193468 2.09816e-20)
(0.0934683 -0.0247652 -3.84033e-21)
(0.158432 -0.0264814 -1.39284e-20)
(0.225103 -0.0259664 -5.71094e-21)
(0.289969 -0.0243756 1.36362e-20)
(0.35129 -0.0224387 4.13501e-21)
(0.408587 -0.0205069 1.662e-21)
(0.461908 -0.0187003 1.39092e-20)
(0.511435 -0.0170407 2.43786e-21)
(0.557373 -0.0155224 9.23379e-21)
(0.599927 -0.0141352 -1.32612e-21)
(0.639299 -0.012869 4.32525e-21)
(0.675686 -0.0117139 -7.26423e-21)
(0.70928 -0.0106603 8.68891e-21)
(0.740265 -0.00969971 8.83283e-21)
(0.768822 -0.00882396 2.46148e-21)
(0.795102 -0.00802104 -1.24279e-20)
(0.819225 -0.00727418 9.95336e-21)
(0.841339 -0.00658891 -1.43054e-21)
(0.00841306 -0.0258689 -9.07281e-21)
(0.0404147 -0.0578771 -1.36208e-20)
(0.0970986 -0.0741097 -4.16136e-21)
(0.162243 -0.0792655 -1.20396e-20)
(0.228786 -0.0777387 2.65583e-21)
(0.293379 -0.0729856 -1.73838e-20)
(0.354388 -0.0671917 -6.32262e-21)
(0.411379 -0.0614105 -1.35008e-20)
(0.464418 -0.0560028 7.39569e-21)
(0.513688 -0.0510351 -1.74117e-20)
(0.559394 -0.04649 -5.28055e-20)
(0.601738 -0.0423374 8.35469e-21)
(0.640921 -0.0385469 -1.15439e-20)
(0.67714 -0.0350887 6.80681e-21)
(0.710581 -0.0319343 -1.60892e-20)
(0.741428 -0.0290582 1.64707e-21)
(0.769864 -0.0264359 -8.19626e-21)
(0.796044 -0.0240315 4.62447e-20)
(0.820075 -0.0217953 -4.48464e-21)
(0.842054 -0.0197462 5.62029e-21)
(0.0110587 -0.0428391 -2.77496e-20)
(0.046193 -0.0959192 -2.71053e-20)
(0.104323 -0.122899 6.2115e-21)
(0.169833 -0.131516 1.31638e-20)
(0.236123 -0.129032 5.49166e-21)
(0.300176 -0.121174 -1.68851e-20)
(0.360562 -0.111573 -2.41451e-20)
(0.416944 -0.101984 5.07687e-20)
(0.46942 -0.0930128 -1.37619e-20)
(0.518179 -0.0847697 1.78145e-20)
(0.563422 -0.0772275 2.76941e-20)
(0.605349 -0.0703361 4.6992e-21)
(0.644157 -0.064045 7.73033e-21)
(0.680037 -0.0583049 1.66308e-20)
(0.713174 -0.0530688 -1.70024e-20)
(0.743748 -0.0482944 1.60709e-20)
(0.771941 -0.0439406 -1.8831e-21)
(0.797922 -0.0399474 -4.51882e-20)
(0.821771 -0.0362353 2.98982e-20)
(0.843482 -0.032842 -2.41891e-20)
(0.0149827 -0.0593992 2.13391e-20)
(0.0547781 -0.133153 -3.39878e-20)
(0.11507 -0.170767 5.002e-20)
(0.181135 -0.182881 -2.25562e-20)
(0.247056 -0.179529 1.18239e-19)
(0.310309 -0.168662 6.93032e-20)
(0.369769 -0.155337 -4.23195e-20)
(0.425245 -0.142012 -9.91599e-20)
(0.476882 -0.129537 3.86886e-20)
(0.524879 -0.118074 2.60438e-20)
(0.569432 -0.107583 3.44994e-20)
(0.610737 -0.0979971 -6.71374e-20)
(0.648985 -0.0892449 -7.75048e-20)
(0.684362 -0.0812583 5.81859e-20)
(0.717046 -0.0739721 4.49592e-20)
(0.74721 -0.0673277 -1.52528e-20)
(0.775042 -0.0612674 3.30279e-20)
(0.800723 -0.0557066 2.0141e-21)
(0.8243 -0.0505401 -4.85988e-20)
(0.845618 -0.0458336 -1.5193e-20)
(0.0201327 -0.0753914 -7.85333e-20)
(0.0660715 -0.169265 -2.16691e-20)
(0.129233 -0.217357 -7.52763e-20)
(0.196051 -0.233015 2.15639e-20)
(0.261499 -0.228922 -1.12016e-19)
(0.323705 -0.215177 -6.6143e-20)
(0.381946 -0.198244 7.69991e-20)
(0.436224 -0.18128 9.43492e-20)
(0.486754 -0.165388 -8.34892e-20)
(0.533743 -0.150779 2.17556e-20)
(0.577385 -0.137409 -3.0381e-20)
(0.617868 -0.125189 1.16879e-19)
(0.655375 -0.114031 -3.68067e-20)
(0.690087 -0.103846 -1.29017e-20)
(0.722172 -0.0945539 -7.46722e-21)
(0.751795 -0.0860788 -2.58657e-20)
(0.779148 -0.0783465 -6.28978e-20)
(0.80443 -0.0712475 -1.27196e-21)
(0.827649 -0.0646557 1.72847e-20)
(0.848457 -0.0586768 -1.62435e-20)
(0.0264393 -0.0906647 -5.11593e-20)
(0.0799437 -0.203953 -2.15219e-20)
(0.14667 -0.262321 1.21621e-19)
(0.214448 -0.281584 6.66785e-20)
(0.27934 -0.276906 2.75495e-20)
(0.340266 -0.260453 -8.46313e-20)
(0.397007 -0.24006 -9.70821e-20)
(0.449809 -0.219582 1.15156e-20)
(0.498969 -0.20038 2.22148e-20)
(0.544714 -0.182723 1.66434e-20)
(0.58723 -0.16656 5.42222e-20)
(0.626696 -0.151784 -1.19267e-19)
(0.663288 -0.138289 1.73602e-21)
(0.697177 -0.125969 4.13095e-20)
(0.728521 -0.114726 2.44289e-21)
(0.757475 -0.10447 -8.10131e-21)
(0.784234 -0.0951101 -2.06925e-20)
(0.80902 -0.0865103 7.67016e-20)
(0.831797 -0.078529 -3.30212e-20)
(0.85199 -0.0713257 2.67627e-20)
(0.0338173 -0.105076 8.09793e-20)
(0.0962343 -0.236928 -4.27407e-20)
(0.167205 -0.305324 -4.91962e-20)
(0.236166 -0.328262 -4.56778e-20)
(0.300436 -0.32319 -9.00079e-20)
(0.359872 -0.304233 -1.15474e-20)
(0.414848 -0.280558 1.55481e-20)
(0.465906 -0.256717 -3.51438e-20)
(0.513448 -0.234336 5.03789e-20)
(0.557719 -0.213748 4.20834e-21)
(0.598903 -0.194896 -2.11857e-20)
(0.637166 -0.177658 9.6608e-20)
(0.672675 -0.16191 2.8395e-20)
(0.70559 -0.14753 -2.77913e-20)
(0.736057 -0.134404 6.15201e-20)
(0.764219 -0.122427 -6.486e-20)
(0.790273 -0.111492 -6.93248e-21)
(0.814466 -0.101437 8.02028e-21)
(0.83672 -0.0921075 8.92082e-20)
(0.856206 -0.0837336 -4.9733e-20)
(0.0421667 -0.118492 2.75743e-20)
(0.114754 -0.267918 3.23991e-20)
(0.190631 -0.346049 1.42214e-19)
(0.26101 -0.372739 6.00491e-20)
(0.32462 -0.367494 2.05891e-19)
(0.382378 -0.346271 1.72732e-20)
(0.435346 -0.319523 9.60259e-20)
(0.484407 -0.292494 6.66323e-20)
(0.530093 -0.267088 -1.42664e-19)
(0.572675 -0.243703 -2.26329e-20)
(0.61233 -0.222284 -5.28368e-20)
(0.649213 -0.202693 -6.55123e-20)
(0.683478 -0.18479 2.15795e-20)
(0.715275 -0.168437 6.71544e-20)
(0.744735 -0.153505 -5.89306e-20)
(0.771987 -0.139878 -5.16917e-20)
(0.797229 -0.12743 5.04124e-20)
(0.820736 -0.115972 -6.71939e-20)
(0.842392 -0.105341 -9.63434e-20)
(0.861091 -0.0958539 -2.59131e-20)
(0.0513732 -0.13079 -7.94141e-20)
(0.135286 -0.296669 -8.06998e-20)
(0.216708 -0.384197 -4.2295e-20)
(0.288759 -0.414721 -1.00209e-19)
(0.3517 -0.409551 -4.91442e-20)
(0.40762 -0.386332 -1.16325e-19)
(0.458356 -0.356749 -1.01e-19)
(0.505188 -0.326734 3.77036e-20)
(0.548795 -0.298474 5.81651e-20)
(0.589484 -0.272446 -1.01783e-19)
(0.627425 -0.248598 6.34423e-20)
(0.662761 -0.226777 -4.23806e-20)
(0.695632 -0.206829 -5.66782e-20)
(0.726173 -0.188602 -5.93031e-20)
(0.754505 -0.171953 1.66503e-19)
(0.780736 -0.156754 7.38667e-20)
(0.805063 -0.142864 1.77451e-20)
(0.827793 -0.130064 -7.63937e-20)
(0.848782 -0.118181 1.59807e-19)
(0.866628 -0.107641 5.93832e-20)
(0.0613105 -0.141862 -1.02929e-19)
(0.157587 -0.322948 1.179e-19)
(0.245168 -0.419489 1.15416e-19)
(0.319163 -0.453933 1.213e-19)
(0.381457 -0.449111 7.29071e-20)
(0.435413 -0.424197 1.76749e-20)
(0.483719 -0.392044 1.16277e-19)
(0.528108 -0.359265 -1.40843e-19)
(0.569431 -0.328344 -3.93767e-20)
(0.608036 -0.299844 -3.29535e-20)
(0.644092 -0.273719 1.46432e-19)
(0.677725 -0.249806 -2.02359e-20)
(0.709061 -0.227935 1.72041e-20)
(0.738221 -0.207943 3.61229e-21)
(0.765309 -0.189673 5.91075e-20)
(0.790415 -0.17299 -7.3777e-20)
(0.813732 -0.157737 1.47911e-20)
(0.8356 -0.143661 1.67721e-19)
(0.855857 -0.130582 -2.41315e-20)
(0.872798 -0.119049 -1.07253e-19)
(0.0718407 -0.151613 -6.10957e-20)
(0.18139 -0.346547 2.04902e-20)
(0.275714 -0.451672 -1.2263e-19)
(0.351943 -0.49012 -6.02971e-20)
(0.41365 -0.485942 -7.9913e-20)
(0.465549 -0.459662 -6.41698e-21)
(0.511259 -0.42523 -1.5579e-19)
(0.553012 -0.389932 1.37212e-19)
(0.591864 -0.356561 6.00207e-20)
(0.628213 -0.325774 2.54259e-20)
(0.662226 -0.297538 -1.42e-19)
(0.694014 -0.271681 2.53354e-20)
(0.723685 -0.248022 -1.77786e-20)
(0.751347 -0.226383 -7.67114e-20)
(0.777085 -0.2066 -7.16085e-20)
(0.800971 -0.188528 1.17166e-19)
(0.823189 -0.171996 5.90113e-20)
(0.844113 -0.156721 -3.40745e-20)
(0.863581 -0.142503 -9.44327e-20)
(0.879578 -0.130039 1.41538e-20)
(0.0828164 -0.159962 8.27837e-20)
(0.206409 -0.367284 3.74637e-20)
(0.308023 -0.480517 4.59613e-20)
(0.386797 -0.523052 5.176e-20)
(0.448017 -0.519831 -5.49413e-20)
(0.497807 -0.49254 1.21765e-19)
(0.540784 -0.456144 -1.2074e-19)
(0.579735 -0.418593 -4.81329e-21)
(0.615948 -0.382997 9.60388e-20)
(0.649886 -0.350123 2.0063e-20)
(0.681713 -0.319955 8.43539e-20)
(0.711526 -0.292315 -3.53785e-20)
(0.739416 -0.26701 2.2037e-20)
(0.765473 -0.243853 1.4109e-19)
(0.789767 -0.22267 -8.51482e-21)
(0.812345 -0.20331 -4.13369e-20)
(0.833381 -0.185593 -8.72885e-20)
(0.853286 -0.169199 -1.42751e-19)
(0.871915 -0.153906 -2.19166e-20)
(0.886943 -0.140571 1.42635e-19)
(0.0940826 -0.166848 9.5799e-20)
(0.232337 -0.385004 3.27442e-21)
(0.341749 -0.505827 -1.76977e-19)
(0.423401 -0.552522 7.02586e-20)
(0.484274 -0.550587 3.78656e-22)
(0.531944 -0.522663 7.545e-20)
(0.572087 -0.484642 7.20375e-20)
(0.608097 -0.44512 -6.2575e-21)
(0.641526 -0.407541 -4.07425e-20)
(0.672915 -0.372793 -1.41489e-19)
(0.702431 -0.340882 4.3167e-20)
(0.730156 -0.311628 1.78114e-19)
(0.75616 -0.284829 -1.25032e-19)
(0.780519 -0.260289 -1.03097e-19)
(0.803282 -0.237827 -6.45645e-20)
(0.824475 -0.217288 -1.54092e-19)
(0.844254 -0.198485 4.50411e-20)
(0.863069 -0.18106 2.14378e-19)
(0.880815 -0.164758 -3.21122e-20)
(0.894864 -0.150612 -4.03139e-20)
(0.105478 -0.172223 3.97292e-20)
(0.258851 -0.399586 -6.31703e-20)
(0.376525 -0.527433 5.48515e-20)
(0.461405 -0.578349 -8.89179e-20)
(0.522117 -0.578042 9.79075e-20)
(0.567705 -0.549882 -9.83981e-20)
(0.604951 -0.510594 -2.42636e-20)
(0.637909 -0.469402 1.06101e-19)
(0.668432 -0.430095 -8.14208e-20)
(0.697155 -0.393695 9.04911e-20)
(0.724253 -0.360241 -1.06978e-19)
(0.74979 -0.329552 -6.19637e-20)
(0.773819 -0.301418 -4.34434e-20)
(0.796397 -0.275637 6.74839e-20)
(0.817556 -0.252022 1.37284e-20)
(0.837295 -0.230417 8.27494e-20)
(0.85575 -0.210631 -5.52777e-20)
(0.87341 -0.192271 -3.82734e-21)
(0.890235 -0.175031 8.35854e-20)
(0.903312 -0.160132 -3.79942e-20)
(0.116838 -0.176061 -9.28856e-21)
(0.285615 -0.410938 -3.74371e-20)
(0.411966 -0.5452 -7.06104e-21)
(0.500443 -0.600384 -2.02658e-20)
(0.561228 -0.60205 -6.70743e-20)
(0.604818 -0.574071 -5.77799e-20)
(0.639144 -0.533892 -3.80027e-20)
(0.668973 -0.491344 -5.29871e-20)
(0.696494 -0.450576 1.0967e-19)
(0.722455 -0.412757 1.15787e-20)
(0.747044 -0.377966 1.68574e-19)
(0.770311 -0.346026 5.2086e-20)
(0.79229 -0.316723 5.65847e-20)
(0.813017 -0.289849 -9.03255e-20)
(0.832509 -0.265212 1.37254e-19)
(0.850736 -0.242657 -2.44191e-20)
(0.867807 -0.221997 -1.44817e-20)
(0.884252 -0.202804 -1.19592e-19)
(0.900127 -0.184709 5.52886e-20)
(0.912255 -0.169111 -4.45812e-20)
(0.127995 -0.178352 -7.30822e-20)
(0.312286 -0.419001 -3.28579e-20)
(0.447671 -0.559026 -4.85136e-20)
(0.54013 -0.618505 -4.22058e-20)
(0.601268 -0.622493 -1.11726e-20)
(0.642999 -0.595123 1.15514e-19)
(0.674429 -0.554446 9.93086e-20)
(0.701083 -0.510871 8.39472e-20)
(0.725532 -0.468916 -8.57391e-20)
(0.748656 -0.429918 -4.94461e-20)
(0.770666 -0.394004 -1.76118e-19)
(0.791599 -0.361002 1.37071e-19)
(0.811466 -0.3307 -5.26351e-20)
(0.830287 -0.302885 9.49999e-20)
(0.848061 -0.27736 -7.05373e-20)
(0.86473 -0.253974 2.5974e-20)
(0.880364 -0.232546 -3.4273e-20)
(0.895532 -0.212624 1.06594e-19)
(0.910433 -0.193761 -8.38238e-20)
(0.921662 -0.177529 -3.68348e-20)
(0.138782 -0.179107 8.02569e-20)
(0.338511 -0.423753 -2.99455e-20)
(0.483226 -0.568846 5.77029e-20)
(0.580067 -0.632621 6.07267e-20)
(0.641888 -0.639276 -1.84108e-20)
(0.681953 -0.612956 -1.2317e-19)
(0.710556 -0.572186 8.83389e-20)
(0.734027 -0.527923 -1.77266e-20)
(0.755362 -0.485066 2.75399e-20)
(0.775598 -0.445133 3.35962e-20)
(0.794978 -0.408312 -6.83835e-20)
(0.813528 -0.374444 -1.61846e-19)
(0.831239 -0.343316 7.10869e-21)
(0.848111 -0.314713 -1.61421e-20)
(0.864128 -0.288439 4.6584e-21)
(0.879204 -0.264344 8.11853e-20)
(0.893357 -0.242265 -7.82096e-20)
(0.907182 -0.221737 -1.19261e-19)
(0.921087 -0.202227 -3.07609e-20)
(0.931507 -0.185426 6.2223e-20)
(0.149034 -0.178353 5.07836e-21)
(0.363939 -0.425208 -3.06337e-20)
(0.51821 -0.574632 8.24111e-21)
(0.619842 -0.642677 -4.47734e-20)
(0.682724 -0.652336 -1.77291e-20)
(0.721375 -0.627508 -1.15954e-20)
(0.74727 -0.587063 1.91432e-20)
(0.76759 -0.542461 -6.29232e-20)
(0.785796 -0.498991 -1.4931e-20)
(0.803116 -0.458372 4.1145e-20)
(0.819836 -0.420864 2.77537e-20)
(0.835973 -0.386325 1.00499e-19)
(0.851498 -0.354546 9.94475e-20)
(0.866392 -0.325312 -2.54903e-20)
(0.880627 -0.298425 6.84392e-21)
(0.894093 -0.273739 2.72256e-20)
(0.906737 -0.2511 1.01635e-19)
(0.919143 -0.230042 1.18517e-19)
(0.932003 -0.209957 1.31877e-19)
(0.941784 -0.192689 -1.71642e-20)
(0.158592 -0.176139 -1.19068e-20)
(0.388218 -0.423414 1.68071e-20)
(0.552195 -0.576394 1.79458e-20)
(0.659032 -0.648647 1.39707e-20)
(0.723402 -0.661632 -3.4082e-20)
(0.760951 -0.638744 1.18054e-19)
(0.784313 -0.599047 -3.61059e-20)
(0.801552 -0.554463 9.20874e-21)
(0.816647 -0.510673 -5.28895e-20)
(0.831046 -0.469619 -5.26279e-21)
(0.845095 -0.431644 9.0404e-20)
(0.858807 -0.396631 -4.5986e-20)
(0.872134 -0.364375 -1.68062e-20)
(0.885034 -0.334667 -4.10306e-20)
(0.897469 -0.307309 3.88105e-20)
(0.909317 -0.282157 -7.80032e-20)
(0.920443 -0.259083 2.98924e-20)
(0.931331 -0.237657 -1.99227e-20)
(0.942996 -0.21727 8.07868e-21)
(0.952449 -0.199844 3.71601e-20)
(0.167302 -0.172534 2.38409e-21)
(0.411003 -0.418459 -7.11415e-22)
(0.584753 -0.57418 -3.47821e-21)
(0.697208 -0.650544 -3.78805e-21)
(0.763541 -0.667156 1.50382e-20)
(0.80036 -0.646651 -6.92905e-20)
(0.821418 -0.608132 -8.07547e-21)
(0.835691 -0.563925 -4.29595e-20)
(0.847724 -0.520112 6.57758e-20)
(0.859223 -0.478873 5.02186e-20)
(0.870612 -0.440651 -8.56685e-20)
(0.881905 -0.405358 6.53644e-20)
(0.893035 -0.3728 -5.52409e-20)
(0.90394 -0.342773 1.27772e-20)
(0.91457 -0.315081 -1.74904e-19)
(0.924807 -0.289576 6.27173e-21)
(0.934455 -0.26613 -5.97563e-20)
(0.943794 -0.244303 -8.63138e-20)
(0.954035 -0.223434 -5.13571e-20)
(0.963786 -0.205638 -8.29132e-20)
(0.175032 -0.167629 1.88974e-20)
(0.431949 -0.410459 -3.05416e-20)
(0.615458 -0.568078 1.23854e-20)
(0.733936 -0.648412 1.59685e-20)
(0.80275 -0.668926 4.31623e-21)
(0.839277 -0.651238 2.79068e-20)
(0.85832 -0.614328 -1.53158e-20)
(0.869787 -0.570863 -1.29868e-20)
(0.87884 -0.527324 -7.65442e-21)
(0.887485 -0.486148 -3.06384e-20)
(0.896242 -0.447896 2.2176e-20)
(0.905139 -0.412515 -6.21222e-20)
(0.914093 -0.379826 5.34569e-20)
(0.923017 -0.349633 5.33364e-20)
(0.931847 -0.321744 9.60747e-20)
(0.940482 -0.296008 3.28493e-20)
(0.948715 -0.272294 6.593e-20)
(0.956576 -0.250267 7.22717e-20)
(0.96489 -0.229841 6.44577e-20)
(0.974397 -0.213222 3.15048e-20)
(0.181707 -0.161537 4.77783e-20)
(0.450722 -0.399538 -1.50504e-20)
(0.643893 -0.558223 -2.11215e-20)
(0.768783 -0.642335 -4.22249e-20)
(0.840637 -0.66699 5.85758e-21)
(0.877371 -0.652541 7.22343e-22)
(0.894749 -0.617668 1.36436e-20)
(0.903619 -0.575311 -4.13172e-21)
(0.909809 -0.532341 -2.38291e-20)
(0.91567 -0.491474 -8.17081e-21)
(0.921847 -0.453402 6.92557e-20)
(0.928389 -0.418122 1.59695e-20)
(0.9352 -0.38547 1.10718e-20)
(0.942173 -0.35526 -4.2559e-20)
(0.949222 -0.32731 -1.28684e-19)
(0.956259 -0.301466 3.99246e-20)
(0.963113 -0.27759 2.62057e-20)
(0.969649 -0.255457 -7.44769e-20)
(0.976197 -0.235261 -4.17829e-20)
(0.984115 -0.21785 -2.07894e-20)
(0.187189 -0.154238 -5.49938e-20)
(0.467045 -0.385824 3.67449e-20)
(0.669645 -0.54482 -7.76666e-20)
(0.801326 -0.632432 3.82997e-21)
(0.876805 -0.661427 2.4945e-20)
(0.914309 -0.650615 -2.77278e-20)
(0.930436 -0.618203 -6.17868e-21)
(0.936969 -0.577316 1.38123e-21)
(0.940448 -0.535209 2.12378e-20)
(0.943622 -0.494892 2.04406e-20)
(0.947291 -0.457207 -4.42354e-20)
(0.951535 -0.422209 -7.91915e-20)
(0.956252 -0.389755 2.87778e-20)
(0.961316 -0.359673 2.45815e-20)
(0.966619 -0.331792 6.60568e-20)
(0.972074 -0.305956 -9.16517e-21)
(0.977565 -0.282012 3.54515e-22)
(0.982904 -0.259812 2.4922e-21)
(0.988001 -0.239727 -6.0411e-21)
(0.99405 -0.221858 -9.551e-20)
(0.191296 -0.145915 7.35139e-20)
(0.480673 -0.369697 7.93835e-20)
(0.692273 -0.528042 8.09671e-20)
(0.831187 -0.618851 2.09056e-20)
(0.910869 -0.652339 -2.99117e-20)
(0.949756 -0.645539 -2.32756e-20)
(0.965112 -0.616001 -1.19218e-20)
(0.969622 -0.576946 5.14821e-21)
(0.970581 -0.535991 -4.16397e-21)
(0.971192 -0.496458 -1.06298e-20)
(0.972441 -0.459359 4.65535e-21)
(0.974461 -0.424818 3.34116e-20)
(0.977147 -0.392718 -2.93177e-20)
(0.980358 -0.362902 1.77622e-21)
(0.983965 -0.335211 -1.57986e-20)
(0.987875 -0.309495 -9.28157e-21)
(0.992017 -0.285585 4.5413e-21)
(0.996221 -0.263389 -1.52506e-20)
(1.00013 -0.243429 1.50874e-20)
(1.00455 -0.225369 8.6884e-20)
(0.193974 -0.136804 5.15922e-20)
(0.491374 -0.351384 -1.52335e-19)
(0.711381 -0.508123 7.8241e-20)
(0.857854 -0.601808 2.36032e-20)
(0.942472 -0.639839 -5.68928e-20)
(0.983383 -0.637408 3.27516e-20)
(0.998507 -0.611147 6.05641e-21)
(1.00136 -0.57428 -2.35937e-20)
(1.00004 -0.534763 3.22124e-21)
(0.998233 -0.49624 -1.5072e-21)
(0.997174 -0.459917 -6.95645e-22)
(0.997058 -0.425999 8.76271e-21)
(0.997789 -0.394401 1.6466e-20)
(0.999214 -0.364982 -2.83994e-20)
(1.00119 -0.3376 1.53763e-20)
(1.0036 -0.312112 -4.93369e-21)
(1.00643 -0.288343 1.57854e-20)
(1.00952 -0.266238 -3.45699e-22)
(1.01235 -0.246427 1.92363e-20)
(1.01536 -0.228322 -2.59353e-20)
(0.1952 -0.127076 -7.12547e-21)
(0.498912 -0.331148 -5.76673e-20)
(0.72675 -0.485365 -4.91491e-20)
(0.880849 -0.5815 2.93267e-20)
(0.971161 -0.624112 -6.08089e-21)
(1.01487 -0.626324 3.12165e-20)
(1.03036 -0.603737 1.59306e-20)
(1.03199 -0.56941 6.31692e-21)
(1.02865 -0.531612 2.40751e-21)
(1.02461 -0.494319 8.17899e-22)
(1.02137 -0.458952 3.89934e-21)
(1.01922 -0.425813 -3.20735e-21)
(1.01809 -0.394856 4.42781e-21)
(1.01781 -0.365959 1.52071e-21)
(1.01822 -0.338997 -2.03956e-20)
(1.01921 -0.313841 3.67237e-20)
(1.02075 -0.290315 -2.01158e-20)
(1.02273 -0.268382 -1.81072e-20)
(1.02451 -0.248731 -8.60989e-21)
(1.02622 -0.230678 -1.44794e-20)
(0.194955 -0.116864 -1.99758e-20)
(0.503112 -0.309292 1.23759e-19)
(0.738102 -0.460072 4.14722e-20)
(0.89988 -0.558197 -1.14788e-19)
(0.996475 -0.605341 -2.16486e-20)
(1.04384 -0.612435 3.63405e-20)
(1.06039 -0.59388 1.58178e-20)
(1.06128 -0.562441 4.23058e-20)
(1.05625 -0.526636 -2.44261e-21)
(1.05019 -0.490786 3.5651e-21)
(1.04492 -0.456544 -1.87481e-21)
(1.04086 -0.424329 1.96859e-21)
(1.03796 -0.394142 3.88512e-22)
(1.03606 -0.365883 9.60158e-21)
(1.03498 -0.339446 -5.63006e-21)
(1.03461 -0.314717 -4.32335e-20)
(1.03492 -0.291528 -2.16584e-20)
(1.03581 -0.269839 2.25235e-20)
(1.03658 -0.250365 1.12081e-20)
(1.03706 -0.232446 -4.87934e-21)
(0.193224 -0.106312 1.15348e-19)
(0.503855 -0.286147 -1.64526e-19)
(0.745151 -0.432596 -1.47348e-19)
(0.91465 -0.532179 1.79179e-19)
(1.01807 -0.583737 4.52312e-20)
(1.06994 -0.595905 -2.87009e-20)
(1.08833 -0.5817 -5.2635e-20)
(1.08905 -0.553484 -5.33334e-20)
(1.0827 -0.519943 3.3673e-20)
(1.07485 -0.485738 8.08469e-21)
(1.06772 -0.45278 1.09413e-20)
(1.06188 -0.421623 7.12388e-21)
(1.05733 -0.392324 -3.80614e-21)
(1.0539 -0.364811 1.03517e-21)
(1.05142 -0.338993 6.96535e-21)
(1.04977 -0.314779 2.14028e-20)
(1.0489 -0.292011 1.03648e-20)
(1.04873 -0.270635 -3.5366e-20)
(1.04851 -0.25137 -7.84078e-21)
(1.04786 -0.233667 1.08e-20)
(0.190021 -0.095576 -1.2546e-19)
(0.501076 -0.262056 1.21438e-19)
(0.747665 -0.403314 -2.58335e-22)
(0.92482 -0.503753 -4.072e-20)
(1.03563 -0.559535 -6.95941e-21)
(1.09281 -0.576904 -9.1746e-21)
(1.11388 -0.567344 -4.82558e-20)
(1.11508 -0.542665 4.83755e-20)
(1.10783 -0.511647 -6.13565e-20)
(1.09848 -0.479284 3.17974e-21)
(1.08968 -0.447756 -4.35422e-21)
(1.0822 -0.417777 -1.64816e-21)
(1.07611 -0.389475 -5.12297e-22)
(1.07126 -0.362803 -5.72199e-21)
(1.06748 -0.337692 1.58967e-21)
(1.06462 -0.314072 -2.05898e-21)
(1.06264 -0.291801 4.9829e-21)
(1.06145 -0.270804 3.42619e-21)
(1.0603 -0.251784 1.38304e-21)
(1.05859 -0.234373 -1.73218e-20)
(0.185388 -0.0848212 1.92355e-20)
(0.494762 -0.237376 3.50471e-20)
(0.745482 -0.372623 6.46545e-20)
(0.930083 -0.473259 -3.39788e-20)
(1.04878 -0.532986 -9.44245e-20)
(1.11214 -0.555618 2.59196e-20)
(1.13678 -0.55096 4.14998e-20)
(1.13917 -0.53011 2.37804e-20)
(1.13152 -0.501872 5.25253e-20)
(1.12096 -0.471534 -1.17766e-20)
(1.11071 -0.441572 -4.76035e-21)
(1.10175 -0.412882 5.05971e-21)
(1.09426 -0.38567 -1.23049e-20)
(1.0881 -0.359924 -1.23726e-20)
(1.0831 -0.335598 -3.60086e-21)
(1.07912 -0.312643 3.3019e-21)
(1.07609 -0.290936 -6.19259e-21)
(1.07394 -0.27038 3.50658e-21)
(1.0719 -0.251644 6.5591e-21)
(1.06924 -0.234585 3.0617e-22)
(0.179394 -0.0742092 3.50643e-20)
(0.484958 -0.212467 7.15212e-21)
(0.738506 -0.34094 -9.01455e-20)
(0.930185 -0.441066 1.10284e-19)
(1.0572 -0.504366 2.04105e-20)
(1.12758 -0.532245 -1.04475e-19)
(1.15673 -0.5327 3.33169e-20)
(1.1611 -0.515959 -3.59178e-20)
(1.15362 -0.490734 6.0812e-22)
(1.14221 -0.462603 5.3283e-21)
(1.13072 -0.434339 1.22759e-20)
(1.12046 -0.407026 2.98047e-21)
(1.11171 -0.380991 2.76356e-20)
(1.10435 -0.356244 5.27931e-21)
(1.09824 -0.332771 -6.21157e-21)
(1.09322 -0.310542 -1.54787e-21)
(1.08922 -0.28946 -1.0059e-21)
(1.08615 -0.269402 1.47125e-21)
(1.08329 -0.250985 -1.47057e-21)
(1.07976 -0.234324 2.57243e-21)
(0.172134 -0.0638946 -4.08208e-20)
(0.471769 -0.187691 2.17095e-21)
(0.726714 -0.308694 1.88319e-20)
(0.924931 -0.407563 -4.5582e-20)
(1.06056 -0.473971 8.6313e-20)
(1.13881 -0.506994 4.27313e-20)
(1.17344 -0.512715 -4.01189e-20)
(1.18066 -0.500338 -2.29192e-20)
(1.17397 -0.478363 1.78505e-20)
(1.16215 -0.452606 -2.2e-20)
(1.14968 -0.426152 1.7152e-20)
(1.13829 -0.400319 8.12639e-22)
(1.1284 -0.375524 1.04016e-21)
(1.11998 -0.351831 -7.72182e-21)
(1.11286 -0.329272 1.64942e-20)
(1.10689 -0.30782 -2.07915e-21)
(1.10198 -0.287414 3.0877e-21)
(1.09806 -0.267906 -2.52398e-21)
(1.09445 -0.249839 -2.76861e-22)
(1.09013 -0.233608 -2.11012e-21)
(0.16373 -0.0540209 6.74506e-20)
(0.455362 -0.163398 7.6737e-20)
(0.710156 -0.276324 5.42473e-20)
(0.914185 -0.373158 -8.77537e-21)
(1.05858 -0.442119 8.8536e-21)
(1.14547 -0.480086 -7.28376e-22)
(1.18661 -0.491161 8.62078e-20)
(1.19761 -0.483373 -2.33664e-20)
(1.19242 -0.464877 1.3313e-20)
(1.18065 -0.441663 -6.48837e-20)
(1.16751 -0.417132 1.11443e-20)
(1.1552 -0.392846 2.22911e-20)
(1.14432 -0.369343 -7.51331e-21)
(1.13494 -0.346771 1.59103e-20)
(1.12692 -0.325166 -1.45814e-20)
(1.1201 -0.304529 1.96725e-20)
(1.11437 -0.284843 1.66035e-21)
(1.10964 -0.265936 -5.07036e-21)
(1.10537 -0.248246 -4.46597e-22)
(1.10034 -0.232467 2.05457e-21)
(0.154322 -0.0447172 -1.27173e-19)
(0.435966 -0.139926 3.07036e-20)
(0.688964 -0.244267 -1.23481e-20)
(0.897883 -0.338276 -8.02631e-20)
(1.051 -0.409143 -2.5498e-20)
(1.14722 -0.451751 -4.84706e-20)
(1.19591 -0.468196 -3.83317e-20)
(1.2117 -0.465184 -3.73025e-20)
(1.20881 -0.450387 3.32192e-20)
(1.19762 -0.429885 1.27453e-20)
(1.18415 -0.407385 -3.87012e-20)
(1.17113 -0.384706 -5.59299e-21)
(1.15944 -0.362546 -2.78405e-21)
(1.14923 -0.341128 -1.34301e-20)
(1.1404 -0.320512 -1.75998e-21)
(1.13282 -0.300734 -3.38016e-21)
(1.12635 -0.281795 -1.61485e-20)
(1.12087 -0.263528 5.01661e-21)
(1.11602 -0.246243 7.67928e-21)
(1.11037 -0.230915 -1.63936e-21)
(0.144072 -0.0360951 4.35821e-21)
(0.41387 -0.117586 -5.52851e-20)
(0.663356 -0.212952 2.48134e-20)
(0.876038 -0.303349 -1.67611e-20)
(1.03764 -0.375391 1.97091e-20)
(1.14375 -0.422231 7.99639e-20)
(1.201 -0.443978 -3.44412e-20)
(1.22267 -0.445888 7.3782e-20)
(1.22295 -0.434996 2.72307e-21)
(1.21296 -0.417376 2.99343e-20)
(1.19954 -0.397013 3.01497e-21)
(1.18605 -0.376 1.84177e-20)
(1.17371 -0.355218 3.37287e-21)
(1.16281 -0.334979 6.75317e-22)
(1.1533 -0.315382 -2.05376e-20)
(1.14505 -0.296482 3.38004e-21)
(1.13791 -0.278305 1.44024e-20)
(1.13176 -0.260739 4.45755e-22)
(1.12633 -0.243869 -4.74233e-21)
(1.12025 -0.229005 2.07717e-21)
(0.133155 -0.0282461 1.51573e-20)
(0.389417 -0.0966582 4.40557e-20)
(0.633636 -0.18279 4.64247e-20)
(0.848756 -0.268813 -1.31562e-20)
(1.01836 -0.341229 5.50141e-20)
(1.13475 -0.39178 -1.07515e-20)
(1.20153 -0.418666 7.85798e-20)
(1.2302 -0.425592 -9.20997e-20)
(1.23464 -0.418795 -1.52716e-20)
(1.22654 -0.404228 -1.39322e-20)
(1.21363 -0.38611 -1.52645e-20)
(1.19994 -0.366819 -2.31685e-21)
(1.18713 -0.347443 6.42336e-21)
(1.17567 -0.328401 -1.75987e-20)
(1.16558 -0.30984 1.40432e-20)
(1.15675 -0.291833 -6.10389e-21)
(1.14904 -0.274434 -3.54719e-21)
(1.14231 -0.25757 -4.49559e-21)
(1.13629 -0.24118 -3.15141e-21)
(1.12997 -0.226746 -7.23553e-21)
(0.121757 -0.02124 6.99543e-20)
(0.363 -0.0773835 -6.66881e-20)
(0.600199 -0.154165 7.89575e-21)
(0.816239 -0.235099 -8.86975e-21)
(0.993078 -0.30703 -2.07791e-20)
(1.11993 -0.360662 -3.9205e-20)
(1.19711 -0.392422 -4.84864e-21)
(1.23396 -0.404394 2.31253e-20)
(1.24363 -0.401861 9.10358e-21)
(1.23823 -0.39052 -1.17898e-20)
(1.22633 -0.374762 1.27425e-20)
(1.21277 -0.357252 -1.22484e-21)
(1.19968 -0.339305 -2.18787e-20)
(1.18779 -0.321467 3.025e-20)
(1.17723 -0.303948 8.21839e-21)
(1.16792 -0.286844 -4.28656e-21)
(1.15973 -0.27023 5.31884e-21)
(1.15249 -0.254065 6.58901e-21)
(1.14597 -0.238241 6.19758e-21)
(1.13939 -0.22425 6.29692e-21)
(0.110073 -0.0151229 -7.19049e-20)
(0.335052 -0.0599575 5.43605e-20)
(0.56352 -0.127423 2.31027e-20)
(0.778801 -0.20263 -4.66979e-20)
(0.961831 -0.27318 -9.871e-21)
(1.09905 -0.329154 -3.58024e-20)
(1.18738 -0.36541 1.39357e-20)
(1.23356 -0.382383 -2.22081e-20)
(1.24963 -0.384254 1.2257e-21)
(1.24785 -0.376315 2.94444e-21)
(1.23758 -0.363044 6.38415e-21)
(1.22449 -0.347378 -2.08345e-20)
(1.21135 -0.330879 2.09266e-20)
(1.19919 -0.314249 -1.42481e-20)
(1.18826 -0.297769 -3.1694e-21)
(1.17855 -0.281568 1.2688e-21)
(1.16995 -0.265739 -3.85022e-21)
(1.1623 -0.250278 -9.59617e-21)
(1.15535 -0.235045 -2.37157e-22)
(1.14845 -0.221475 -5.79894e-21)
(0.0982937 -0.00991708 -8.59504e-21)
(0.306033 -0.044525 -2.51387e-20)
(0.524151 -0.102862 -8.5686e-21)
(0.736865 -0.171805 1.34552e-20)
(0.924745 -0.24007 -7.74543e-21)
(1.07193 -0.297549 8.10652e-21)
(1.17194 -0.337803 1.81792e-20)
(1.22857 -0.359643 1.55368e-20)
(1.25228 -0.366019 1.20389e-20)
(1.25516 -0.361656 -2.66286e-21)
(1.24724 -0.351011 -6.18087e-21)
(1.23508 -0.337264 7.63204e-21)
(1.22213 -0.322238 -3.42714e-21)
(1.20985 -0.306813 4.77943e-21)
(1.19867 -0.291364 -2.32269e-21)
(1.18866 -0.276058 5.7097e-21)
(1.17973 -0.261008 -1.66363e-21)
(1.17172 -0.246247 5.72364e-21)
(1.16441 -0.231597 -1.73864e-21)
(1.1572 -0.218428 4.41056e-22)
(0.0866071 -0.00562119 -1.09961e-22)
(0.276421 -0.0311769 -1.09202e-22)
(0.48271 -0.0807262 -2.87706e-21)
(0.690969 -0.142992 1.41554e-20)
(0.882073 -0.20809 8.98332e-21)
(1.03845 -0.266155 -6.74613e-21)
(1.15042 -0.309782 -4.96354e-21)
(1.21853 -0.336253 -1.44413e-21)
(1.25117 -0.347183 -6.9105e-21)
(1.25988 -0.346563 -4.37638e-22)
(1.25516 -0.338702 3.045e-22)
(1.24445 -0.326965 -2.87468e-21)
(1.23201 -0.313445 -1.76763e-21)
(1.21978 -0.299223 -4.00038e-21)
(1.20847 -0.28479 -4.33056e-21)
(1.19825 -0.270364 -3.60577e-22)
(1.18906 -0.256081 1.60026e-21)
(1.18076 -0.242008 1.68736e-21)
(1.17316 -0.22793 1.8508e-21)
(1.1657 -0.215148 2.73327e-21)
(0.0751896 -0.0022112 9.75106e-21)
(0.246692 -0.0199484 -1.50327e-21)
(0.439863 -0.0611945 -2.55299e-21)
(0.641763 -0.11652 6.42718e-21)
(0.834208 -0.177626 1.28969e-20)
(0.998639 -0.235299 -5.69315e-21)
(1.12249 -0.281551 -4.62894e-21)
(1.20292 -0.312297 -8.62837e-21)
(1.24581 -0.327759 -7.78662e-21)
(1.26163 -0.331033 1.45137e-21)
(1.26111 -0.326128 -1.3098e-21)
(1.25251 -0.316517 -6.06085e-22)
(1.24094 -0.304549 -3.11602e-21)
(1.22898 -0.291534 -5.05997e-21)
(1.21767 -0.278101 -1.23746e-21)
(1.20732 -0.264536 -4.01995e-22)
(1.19795 -0.251 -8.86298e-23)
(1.18944 -0.237601 1.10925e-21)
(1.1816 -0.224088 4.14578e-21)
(1.17398 -0.211669 3.5199e-21)
(0.0642019 0.000357443 -5.85321e-21)
(0.217311 -0.0108194 -8.52291e-21)
(0.396305 -0.0443771 -1.13535e-20)
(0.589994 -0.0926605 1.49209e-20)
(0.781693 -0.149048 1.44165e-20)
(0.952624 -0.205324 2.97134e-22)
(1.08789 -0.253335 5.51247e-21)
(1.18125 -0.287866 1.52995e-20)
(1.23563 -0.307751 1.66385e-20)
(1.25995 -0.31504 1.08718e-20)
(1.26479 -0.313276 -2.6619e-20)
(1.2591 -0.305934 1.09563e-20)
(1.24888 -0.295588 -5.2207e-21)
(1.23745 -0.283793 1.13001e-20)
(1.22628 -0.271345 -7.05941e-22)
(1.2159 -0.258618 -1.83262e-21)
(1.20642 -0.245806 1.18459e-21)
(1.19775 -0.233061 1.15151e-20)
(1.18974 -0.220112 -4.12678e-21)
(1.18201 -0.208019 3.21649e-22)
(0.0537842 0.00214699 -1.80321e-20)
(0.188712 -0.00371819 4.10748e-20)
(0.352735 -0.0303119 4.07737e-21)
(0.536491 -0.0716247 -5.14221e-20)
(0.725224 -0.1227 -9.6089e-21)
(0.900721 -0.176587 2.23033e-20)
(1.04646 -0.225389 -5.15904e-20)
(1.15299 -0.263076 -4.955e-22)
(1.21999 -0.287161 4.82118e-21)
(1.25428 -0.298537 -9.91523e-22)
(1.26581 -0.300103 1.4132e-20)
(1.26398 -0.295202 -2.47316e-20)
(1.25572 -0.286579 3.95916e-21)
(1.24514 -0.276036 -9.56259e-21)
(1.2343 -0.264565 -7.97706e-21)
(1.224 -0.252652 7.35747e-21)
(1.21448 -0.240539 -8.7135e-22)
(1.20572 -0.228424 -1.81444e-20)
(1.19758 -0.216038 5.25213e-22)
(1.18981 -0.204228 -9.43054e-21)
(0.044053 0.00323401 1.39694e-20)
(0.161288 0.001474 -2.28032e-20)
(0.309836 -0.0189647 -1.801e-21)
(0.482137 -0.0535483 -4.24619e-20)
(0.665648 -0.0988864 -2.64941e-20)
(0.843437 -0.149453 2.17276e-20)