/*--------------------------------*- C++ -*----------------------------------*\
  =========                 |
  \\      /  F ield         | OpenFOAM: The Open Source CFD Toolbox
   \\    /   O peration     | Website:  https://openfoam.org
    \\  /    A nd           | Version:  7
     \\/     M anipulation  |
\*---------------------------------------------------------------------------*/
FoamFile
{
    version     2.0;
    format      ascii;
    class       surfaceScalarField;
    location    "18";
    object      phi;
}
// * * * * * * * * * * * * * * * * * * * * * * * * * * * * * * * * * * * * * //

dimensions      [0 3 -1 0 0 0 0];

internalField   nonuniform List<scalar> 
828
(
0.0141015
-0.000619391
0.0140297
-0.000645545
0.0139618
-0.000661043
0.0138988
-0.000666629
0.013842
-0.000663764
0.013792
-0.000655513
0.0137494
-0.000645264
0.0137137
-0.000639532
0.0136852
-0.000643132
0.0136606
-0.000665902
0.0136406
-0.00071456
0.0136174
-0.000791172
0.0135936
-0.000924933
0.0135593
-0.00104447
-0.00132157
0.0150343
-0.000214958
0.0149727
-0.000285694
0.014908
-0.000352253
0.014841
-0.000413334
0.0147727
-0.000467674
0.0147042
-0.00051413
0.0146366
-0.000551782
0.0145711
-0.000580067
0.0145089
-0.000598903
0.0144512
-0.000608931
0.014399
-0.000611537
0.0143529
-0.000609361
0.0143134
-0.000605769
0.0142799
-0.000606065
0.0142525
-0.000615775
0.0142282
-0.000641581
0.0142071
-0.000693455
0.0141825
-0.000766585
0.0141554
-0.00089784
0.0141185
-0.00100754
-0.00127133
0.0155179
-0.000164688
0.0154637
-0.000231506
0.0154063
-0.000294841
0.0153464
-0.000353506
0.0152851
-0.000406347
0.0152233
-0.000452319
0.0151621
-0.000490578
0.0151026
-0.000520595
0.015046
-0.000542298
0.0149933
-0.000556226
0.0149454
-0.000563678
0.014903
-0.000566893
0.0148664
-0.000569165
0.014835
-0.000574718
0.0148088
-0.000589543
0.0147849
-0.000617717
0.014763
-0.000671541
0.0147375
-0.000741063
0.0147079
-0.000868216
0.0146692
-0.000968843
-0.00121794
0.0160003
-0.000121039
0.0159527
-0.000183968
0.0159019
-0.000244052
0.0158486
-0.000300213
0.0157937
-0.000351403
0.015738
-0.000396667
0.0156827
-0.000435235
0.0156287
-0.000466614
0.0155772
-0.000490734
0.015529
-0.000508037
0.015485
-0.000519728
0.0154458
-0.000527682
0.0154117
-0.000535062
0.0153822
-0.000545167
0.0153568
-0.000564206
0.0153333
-0.000594198
0.0153107
-0.000648897
0.0152844
-0.000714819
0.0152528
-0.000836595
0.0152129
-0.00092893
-0.0011623
0.0164861
-8.33236e-05
0.0164446
-0.000142402
0.0163997
-0.000199221
0.0163523
-0.000252803
0.0163031
-0.0003022
0.016253
-0.000346545
0.0162029
-0.000385137
0.0161538
-0.000417515
0.0161067
-0.00044361
0.0160624
-0.000463776
0.0160218
-0.000479111
0.0159853
-0.000491171
0.0159532
-0.000502936
0.0159249
-0.000516939
0.0159001
-0.000539378
0.0158766
-0.000570734
0.0158532
-0.000625418
0.0158262
-0.000687834
0.0157929
-0.000803287
0.015752
-0.000888081
-0.00110507
0.0169793
-5.09675e-05
0.0169431
-0.000106232
0.0169037
-0.000159765
0.0168616
-0.000210689
0.0168175
-0.000258149
0.0167723
-0.00030136
0.0167269
-0.000339685
0.0166821
-0.000372696
0.0166388
-0.000400319
0.0165978
-0.000422832
0.0165599
-0.000441222
0.0165255
-0.000456763
0.0164948
-0.000472218
0.0164674
-0.000489498
0.0164426
-0.000514599
0.0164188
-0.000546922
0.0163942
-0.000600872
0.0163663
-0.000659918
0.0163314
-0.000768408
0.0162897
-0.000846349
-0.00104667
0.017483
-2.35234e-05
0.0174517
-7.49911e-05
0.0174172
-0.000125207
0.0173799
-0.000173383
0.0173404
-0.000218748
0.0172997
-0.000260598
0.0172584
-0.000298355
0.0172173
-0.00033162
0.0171773
-0.000360316
0.0171391
-0.000384653
0.0171034
-0.000405503
0.0170705
-0.000423904
0.0170407
-0.000442368
0.0170135
-0.000462321
0.0169883
-0.000489407
0.0169637
-0.000522327
0.0169378
-0.000574967
0.0169087
-0.000630776
0.0168722
-0.000731931
0.0168295
-0.000803617
-0.000987324
0.0179997
-6.45816e-07
0.017973
-4.83066e-05
0.017943
-9.51726e-05
0.0179101
-0.000140497
0.0178749
-0.0001836
0.0178382
-0.000223848
0.0178006
-0.00026072
0.0177628
-0.00029385
0.0177256
-0.000323151
0.0176897
-0.000348779
0.0176557
-0.00037149
0.0176239
-0.000392125
0.0175945
-0.000412929
0.0175671
-0.000434956
0.0175411
-0.000463391
0.0175153
-0.000496545
0.0174878
-0.000547408
0.0174571
-0.00060008
0.0174189
-0.000693736
0.0173749
-0.000759663
-0.000927065
0.0185318
1.80162e-05
0.0185094
-2.59078e-05
0.0184836
-6.9364e-05
0.0184548
-0.000111727
0.0184236
-0.000152389
0.0183905
-0.000190787
0.0183562
-0.000226452
0.0183214
-0.000259046
0.0182868
-0.000288478
0.0182529
-0.000314857
0.0182202
-0.000338828
0.0181891
-0.000361068
0.0181598
-0.000383551
0.0181319
-0.000407052
0.0181047
-0.000436233
0.0180774
-0.000469244
0.0180479
-0.000517943
0.0180154
-0.000567523
0.0179753
-0.000653667
0.0179299
-0.000714218
-0.000865823
0.0190814
3.26581e-05
0.019063
-7.52058e-06
0.0190411
-4.7527e-05
0.0190162
-8.68196e-05
0.0189887
-0.000124865
0.0189591
-0.000161162
0.0189279
-0.000195295
0.0188958
-0.000226954
0.0188634
-0.000256044
0.0188312
-0.000282634
0.0187996
-0.000307266
0.018769
-0.000330485
0.0187395
-0.000353995
0.0187108
-0.000378369
0.0186823
-0.000407719
0.0186532
-0.00044019
0.0186217
-0.000486389
0.018587
-0.000532856
0.0185449
-0.000611571
0.0184977
-0.000667024
-0.000803456
0.0196505
4.35271e-05
0.0196359
7.07953e-06
0.0196178
-2.94351e-05
0.0195966
-6.55545e-05
0.0195725
-0.000100811
0.0195461
-0.000134765
0.0195179
-0.000167047
0.0194883
-0.000197378
0.0194579
-0.000225659
0.0194272
-0.000251931
0.0193966
-0.00027664
0.0193663
-0.000300218
0.0193364
-0.000324121
0.0193068
-0.000348769
0.0192769
-0.000377731
0.0192459
-0.000409244
0.0192122
-0.000452639
0.0191752
-0.000495909
0.019131
-0.000567323
0.0190818
-0.00061786
-0.000739793
0.0202414
5.0858e-05
0.0202304
1.81216e-05
0.0202158
-1.48705e-05
0.020198
-4.77205e-05
0.0201772
-8.00254e-05
0.0201538
-0.000111404
0.0201283
-0.000141531
0.0201011
-0.000170155
0.0200726
-0.00019718
0.0200433
-0.00022262
0.0200135
-0.000246839
0.0199835
-0.000270178
0.0199532
-0.00029386
0.0199226
-0.000318193
0.0198911
-0.000346231
0.0198582
-0.000376356
0.0198222
-0.000416658
0.0197829
-0.00045659
0.0197364
-0.00052084
0.0196851
-0.000566561
-0.000674663
0.0208563
5.48893e-05
0.0208485
2.58379e-05
0.0208373
-3.61224e-06
0.0208227
-3.31011e-05
0.0208049
-6.23073e-05
0.0207844
-9.0893e-05
0.0207615
-0.000118576
0.0207365
-0.000145136
0.0207098
-0.000170477
0.0206817
-0.000194599
0.0206527
-0.000217789
0.0206228
-0.000240315
0.0205922
-0.000263191
0.0205606
-0.000286639
0.0205276
-0.000313236
0.0204928
-0.000341538
0.0204546
-0.000378463
0.0204129
-0.000414874
0.0203641
-0.000472081
0.0203106
-0.000513018
-0.000607911
0.0214975
5.5864e-05
0.0214929
3.04639e-05
0.0214847
4.58681e-06
0.0214731
-2.14746e-05
0.0214582
-4.74417e-05
0.0214403
-7.30326e-05
0.0214198
-9.80046e-05
0.0213968
-0.000122165
0.0213718
-0.000145424
0.0213449
-0.000167767
0.0213166
-0.000189423
0.0212868
-0.000210594
0.0212558
-0.00023211
0.0212232
-0.000254128
0.0211888
-0.000278795
0.0211521
-0.00030484
0.0211117
-0.00033811
0.0210677
-0.000370783
0.0210166
-0.000421034
0.0209608
-0.000457168
-0.000539403
0.0221678
5.40354e-05
0.022166
3.22578e-05
0.0221607
9.9689e-06
0.0221518
-1.2594e-05
0.0221395
-3.51969e-05
0.0221241
-5.76066e-05
0.0221057
-7.96192e-05
0.0220846
-0.00010107
0.0220611
-0.000121876
0.0220353
-0.000142017
0.0220076
-0.000161666
0.021978
-0.000180977
0.0219465
-0.000200619
0.021913
-0.000220693
0.0218772
-0.000242965
0.0218387
-0.000266332
0.0217963
-0.00029567
0.0217498
-0.000324366
0.0216965
-0.00036771
0.0216383
-0.000398981
-0.00046902
0.0228701
4.96663e-05
0.0228709
3.1486e-05
0.022868
1.28017e-05
0.0228616
-6.19522e-06
0.0228518
-2.53168e-05
0.0228385
-4.43729e-05
0.0228221
-6.31977e-05
0.0228027
-8.16527e-05
0.0227805
-9.96662e-05
0.0227557
-0.000117213
0.0227284
-0.000134424
0.0226989
-0.000151411
0.0226669
-0.000168701
0.0226326
-0.000186356
0.0225954
-0.000205799
0.0225552
-0.000226085
0.0225107
-0.000251215
0.0224621
-0.000275684
0.0224065
-0.000312128
0.0223459
-0.00033844
-0.00039665
0.0236075
4.30299e-05
0.0236105
2.84324e-05
0.02361
1.33782e-05
0.0236058
-1.99403e-06
0.023598
-1.75154e-05
0.0235866
-3.30595e-05
0.0235719
-4.84852e-05
0.023554
-6.36831e-05
0.0235329
-7.85935e-05
0.0235089
-9.31907e-05
0.023482
-0.000107572
0.0234524
-0.000121811
0.02342
-0.000136318
0.0233848
-0.000151115
0.0233463
-0.000167328
0.0233044
-0.000184153
0.023258
-0.000204807
0.0232071
-0.000224791
0.0231493
-0.000254304
0.0230863
-0.000275529
-0.000322181
0.0243835
3.44149e-05
0.0243886
2.34005e-05
0.0243899
1.20085e-05
0.0243876
3.40992e-07
0.0243816
-1.14778e-05
0.0243719
-2.3355e-05
0.0243586
-3.51865e-05
0.0243418
-4.68888e-05
0.0243216
-5.84157e-05
0.0242981
-6.97443e-05
0.0242715
-8.09435e-05
0.0242418
-9.20588e-05
0.0242088
-0.000103395
0.0241727
-0.000114941
0.0241329
-0.00012756
0.0240893
-0.000140574
0.024041
-0.000156488
0.0239879
-0.00017173
0.0239279
-0.000194238
0.0238626
-0.000210225
-0.000245485
0.0252022
2.41323e-05
0.0252089
1.67245e-05
0.0252119
9.04617e-06
0.025211
1.16535e-06
0.0252064
-6.83938e-06
0.025198
-1.49027e-05
0.0251857
-2.29573e-05
0.0251698
-3.09469e-05
0.0251502
-3.88398e-05
0.0251271
-4.66183e-05
0.0251005
-5.43279e-05
0.0250704
-6.19908e-05
0.0250368
-6.98164e-05
0.0249997
-7.77699e-05
0.0249586
-8.6466e-05
0.0249133
-9.53578e-05
0.0248631
-0.000106274
0.0248079
-0.000116534
0.0247456
-0.000131907
0.0246779
-0.000142481
-0.000166423
0.0260681
1.25282e-05
0.026076
8.77954e-06
0.0260802
4.88871e-06
0.0260805
8.89621e-07
0.0260768
-3.17894e-06
0.0260692
-7.28352e-06
0.0260576
-1.13908e-05
0.0260422
-1.5472e-05
0.0260228
-1.95115e-05
0.0259997
-2.34983e-05
0.0259728
-2.74582e-05
0.0259422
-3.13931e-05
0.0259078
-3.54243e-05
0.0258696
-3.94968e-05
0.0258271
-4.39906e-05
0.0257802
-4.84852e-05
0.0257281
-5.4171e-05
0.0256708
-5.91928e-05
0.0256062
-6.73306e-05
0.0255358
-7.21225e-05
-8.48866e-05
0.0269863
0.0269951
0.027
0.0270008
0.0269977
0.0269904
0.026979
0.0269635
0.026944
0.0269205
0.026893
0.0268617
0.0268262
0.0267867
0.0267427
0.0266943
0.0266401
0.0265809
0.0265136
0.0264414
)
;

boundaryField
{
    inlet
    {
        type            calculated;
        value           nonuniform 0();
    }
    outlet
    {
        type            calculated;
        value           nonuniform List<scalar> 
21
(
0.0135133
0.0140683
0.0146158
0.0151572
0.0156948
0.0162313
0.0167701
0.0173147
0.0178686
0.0184353
0.0190181
0.01962
0.0202438
0.0208923
0.0215679
0.0222736
0.0230119
0.0237859
0.0245988
0.0254543
0.0263566
)
;
    }
    cylinder
    {
        type            calculated;
        value           nonuniform 0();
    }
    top
    {
        type            symmetryPlane;
        value           uniform 0;
    }
    bottom
    {
        type            symmetryPlane;
        value           nonuniform 0();
    }
    defaultFaces
    {
        type            empty;
        value           nonuniform 0();
    }
    procBoundary35to29
    {
        type            processor;
        value           nonuniform List<scalar> 
22
(
0.000693751
0.000717341
0.000728999
0.000729578
0.000720593
0.000705557
0.000687815
0.000675215
0.000671621
0.000690547
0.000734548
0.000814344
0.000948725
0.00107882
0.00136755
0.000272609
0.000347255
0.000416972
0.000480341
0.000535988
-0.0141759
0.000582672
)
;
    }
    procBoundary35to34
    {
        type            processor;
        value           nonuniform List<scalar> 
20
(
-0.015092
-0.0155681
-0.0160439
-0.0165238
-0.0170117
-0.0175104
-0.0180226
-0.0185504
-0.019096
-0.0196614
-0.0202487
-0.0208603
-0.0214985
-0.022166
-0.0228657
-0.0236008
-0.0243749
-0.0251919
-0.0260565
-0.0269738
)
;
    }
}


// ************************************************************************* //
