/*--------------------------------*- C++ -*----------------------------------*\
  =========                 |
  \\      /  F ield         | OpenFOAM: The Open Source CFD Toolbox
   \\    /   O peration     | Website:  https://openfoam.org
    \\  /    A nd           | Version:  7
     \\/     M anipulation  |
\*---------------------------------------------------------------------------*/
FoamFile
{
    version     2.0;
    format      ascii;
    class       volScalarField;
    location    "9.999332";
    object      p;
}
// * * * * * * * * * * * * * * * * * * * * * * * * * * * * * * * * * * * * * //

dimensions      [0 2 -2 0 0 0 0];

internalField   nonuniform List<scalar> 
5800
(
-0.329741
-0.33051
-0.330862
-0.330977
-0.330994
-0.0301352
-0.0304062
-0.0306678
-0.0309189
-0.0311587
-0.031386
-0.0315998
-0.031799
-0.0319825
-0.032149
-0.0322975
-0.0324267
-0.0325354
-0.0326223
-0.0326863
-0.0327261
-0.0327404
-0.0327281
-0.0326879
-0.0326187
-0.0325193
-0.0323887
-0.0322259
-0.03203
-0.0318001
-0.0315354
-0.0312354
-0.0308994
-0.0305271
-0.0301182
-0.0296726
-0.0291904
-0.0286717
-0.028117
-0.0275267
-0.0269015
-0.0262424
-0.0255502
-0.0248262
-0.0240717
-0.0232879
-0.0224766
-0.0216391
-0.0207772
-0.0198925
-0.018987
-0.0180619
-0.0171197
-0.0161612
-0.0151892
-0.0142038
-0.0132084
-0.0122018
-0.0111884
-0.0101648
-0.00913691
-0.00809851
-0.00705755
-0.0060036
-0.00494803
-0.00387437
-0.00279882
-0.00169643
-0.00058871
-0.0302341
-0.0305059
-0.0307683
-0.0310202
-0.0312605
-0.0314883
-0.0317025
-0.031902
-0.0320855
-0.0322521
-0.0324003
-0.0325291
-0.0326372
-0.0327234
-0.0327865
-0.0328252
-0.0328382
-0.0328243
-0.0327824
-0.0327113
-0.0326098
-0.0324769
-0.0323116
-0.0321129
-0.03188
-0.0316123
-0.0313089
-0.0309695
-0.0305936
-0.030181
-0.0297316
-0.0292455
-0.0287228
-0.028164
-0.0275696
-0.0269403
-0.026277
-0.0255809
-0.0248529
-0.0240944
-0.0233069
-0.0224919
-0.021651
-0.0207859
-0.0198981
-0.0189897
-0.0180621
-0.0171175
-0.016157
-0.0151833
-0.0141965
-0.0132
-0.0121925
-0.0111786
-0.0101547
-0.00912704
-0.00808886
-0.00704872
-0.0059954
-0.00494124
-0.00386849
-0.00279493
-0.00169357
-0.000588305
-0.0304248
-0.0306988
-0.030963
-0.0312164
-0.0314581
-0.031687
-0.031902
-0.032102
-0.0322858
-0.0324523
-0.0326002
-0.0327283
-0.0328354
-0.0329202
-0.0329815
-0.033018
-0.0330285
-0.0330117
-0.0329664
-0.0328915
-0.0327859
-0.0326484
-0.0324781
-0.0322741
-0.0320356
-0.0317618
-0.031452
-0.0311059
-0.030723
-0.0303031
-0.0298462
-0.0293524
-0.0288219
-0.0282551
-0.0276527
-0.0270155
-0.0263442
-0.0256401
-0.0249044
-0.0241384
-0.0233435
-0.0225215
-0.0216737
-0.0208023
-0.0199085
-0.0189947
-0.018062
-0.017113
-0.0161486
-0.0151715
-0.0141819
-0.0131832
-0.0121742
-0.0111593
-0.0101351
-0.00910759
-0.00807008
-0.00703126
-0.00597957
-0.00492769
-0.00385733
-0.00278688
-0.0016884
-0.000586879
-0.0307052
-0.0309822
-0.031249
-0.0315047
-0.0317483
-0.0319787
-0.0321949
-0.0323956
-0.0325798
-0.0327462
-0.0328935
-0.0330205
-0.033126
-0.0332087
-0.0332673
-0.0333006
-0.0333072
-0.033286
-0.0332358
-0.0331553
-0.0330435
-0.0328993
-0.0327218
-0.0325099
-0.0322629
-0.0319802
-0.031661
-0.031305
-0.0309118
-0.0304812
-0.0300133
-0.0295082
-0.0289662
-0.0283878
-0.0277736
-0.0271246
-0.0264417
-0.025726
-0.0249789
-0.0242018
-0.0233961
-0.0225638
-0.0217062
-0.0208254
-0.019923
-0.0190012
-0.0180612
-0.0171057
-0.0161355
-0.0151536
-0.01416
-0.0131582
-0.0121469
-0.0111307
-0.0101059
-0.00907879
-0.00804233
-0.00700545
-0.00595623
-0.00490767
-0.00384094
-0.00277492
-0.00168089
-0.000584563
-0.0310713
-0.0313522
-0.0316224
-0.0318811
-0.0321271
-0.0323595
-0.0325772
-0.0327789
-0.0329635
-0.0331297
-0.0332762
-0.0334018
-0.0335051
-0.033585
-0.0336401
-0.0336691
-0.0336707
-0.0336437
-0.0335869
-0.0334991
-0.0333792
-0.0332262
-0.033039
-0.0328167
-0.0325587
-0.0322641
-0.0319326
-0.0315635
-0.0311568
-0.0307122
-0.0302299
-0.02971
-0.0291529
-0.0285592
-0.0279297
-0.0272653
-0.0265671
-0.0258363
-0.0250743
-0.0242827
-0.0234631
-0.0226173
-0.0217469
-0.0208541
-0.0199404
-0.0190082
-0.0180588
-0.0170949
-0.0161174
-0.0151292
-0.0141305
-0.0131247
-0.0121106
-0.0110927
-0.0100673
-0.00904068
-0.0080057
-0.00697139
-0.0059255
-0.00488129
-0.00381939
-0.00275915
-0.00167103
-0.000581439
-0.0315209
-0.0318065
-0.032081
-0.0323432
-0.0325923
-0.0328271
-0.0330466
-0.0332494
-0.0334345
-0.0336003
-0.0337458
-0.0338695
-0.0339701
-0.0340465
-0.0340971
-0.0341207
-0.0341161
-0.0340819
-0.0340169
-0.03392
-0.03379
-0.0336259
-0.0334267
-0.0331916
-0.0329199
-0.0326108
-0.0322639
-0.0318788
-0.0314553
-0.0309934
-0.0304932
-0.0299551
-0.0293794
-0.028767
-0.0281186
-0.0274352
-0.0267182
-0.0259689
-0.0251887
-0.0243794
-0.0235426
-0.0226803
-0.0217943
-0.0208868
-0.0199594
-0.0190146
-0.0180538
-0.0170797
-0.0160933
-0.0150977
-0.0140928
-0.0130823
-0.0120648
-0.011045
-0.010019
-0.00899319
-0.00796015
-0.0069291
-0.00588741
-0.00484859
-0.00379273
-0.00273961
-0.00165884
-0.00057753
-0.0320523
-0.0323435
-0.0326229
-0.0328893
-0.0331418
-0.0333794
-0.0336009
-0.0338051
-0.0339905
-0.0341559
-0.0343
-0.0344214
-0.0345187
-0.0345907
-0.0346359
-0.0346531
-0.0346409
-0.034598
-0.0345232
-0.0344153
-0.0342732
-0.0340959
-0.0338825
-0.033632
-0.0333439
-0.0330174
-0.0326522
-0.032248
-0.0318046
-0.0313221
-0.0308007
-0.0302409
-0.0296432
-0.0290085
-0.0283377
-0.0276321
-0.0268928
-0.0261216
-0.0253199
-0.0244897
-0.0236328
-0.0227512
-0.0218468
-0.020922
-0.0199786
-0.0190191
-0.018045
-0.0170591
-0.0160625
-0.0150582
-0.0140463
-0.0130305
-0.0120092
-0.0109874
-0.00996083
-0.00893612
-0.00790556
-0.00687849
-0.0058419
-0.00480957
-0.00376096
-0.00271631
-0.00164433
-0.000572842
-0.0326641
-0.0329617
-0.0332467
-0.0335179
-0.0337743
-0.034015
-0.0342388
-0.0344443
-0.0346301
-0.0347949
-0.0349372
-0.0350558
-0.0351492
-0.035216
-0.0352548
-0.0352643
-0.0352432
-0.03519
-0.0351037
-0.034983
-0.0348268
-0.0346341
-0.034404
-0.0341356
-0.0338284
-0.0334817
-0.0330953
-0.0326688
-0.0322023
-0.0316959
-0.03115
-0.0305651
-0.0299419
-0.0292815
-0.0285849
-0.0278534
-0.0270886
-0.0262922
-0.0254659
-0.0246117
-0.0237317
-0.022828
-0.0219027
-0.0209582
-0.0199966
-0.0190204
-0.0180313
-0.0170321
-0.0160239
-0.0150099
-0.0139902
-0.0129686
-0.0119433
-0.0109193
-0.00989246
-0.00886924
-0.00784174
-0.00681944
-0.00578891
-0.00476416
-0.00372405
-0.00268924
-0.00162749
-0.000567373
-0.0333557
-0.0336605
-0.0339517
-0.0342282
-0.034489
-0.0347331
-0.0349593
-0.0351661
-0.0353522
-0.0355161
-0.0356563
-0.0357714
-0.0358601
-0.0359209
-0.0359523
-0.0359529
-0.0359214
-0.0358565
-0.0357569
-0.0356214
-0.0354489
-0.0352385
-0.0349893
-0.0347004
-0.0343713
-0.0340015
-0.0335908
-0.0331389
-0.0326461
-0.0321125
-0.0315387
-0.0309253
-0.0302732
-0.0295835
-0.0288576
-0.028097
-0.0273033
-0.0264785
-0.0256244
-0.0247432
-0.0238372
-0.0229088
-0.0219601
-0.0209937
-0.0200117
-0.019017
-0.0180112
-0.0169974
-0.0159765
-0.014952
-0.0139239
-0.0128959
-0.0118665
-0.0108405
-0.00981349
-0.00879223
-0.00776847
-0.00675176
-0.00572829
-0.00471229
-0.00368194
-0.00265835
-0.0016083
-0.000561115
-0.0341268
-0.0344395
-0.0347376
-0.0350198
-0.0352853
-0.0355331
-0.0357618
-0.03597
-0.0361562
-0.0363188
-0.0364565
-0.0365676
-0.0366508
-0.0367045
-0.0367273
-0.0367178
-0.0366744
-0.036596
-0.0364813
-0.036329
-0.0361381
-0.0359076
-0.0356367
-0.0353246
-0.0349708
-0.0345749
-0.0341368
-0.0336564
-0.0331339
-0.0325697
-0.0319645
-0.0313191
-0.0306346
-0.0299124
-0.0291538
-0.0283606
-0.0275347
-0.0266782
-0.0257932
-0.0248822
-0.0239475
-0.0229917
-0.0220171
-0.0210266
-0.0200224
-0.0190074
-0.0179835
-0.0169537
-0.0159192
-0.0148834
-0.0138463
-0.0128118
-0.0117781
-0.0107502
-0.0097235
-0.00870476
-0.00768546
-0.00667527
-0.00565992
-0.00465384
-0.00363456
-0.00262361
-0.00158676
-0.000554062
-0.0349775
-0.0352988
-0.0356043
-0.0358927
-0.0361632
-0.0364149
-0.0366462
-0.0368557
-0.0370418
-0.0372028
-0.0373373
-0.0374437
-0.0375206
-0.0375663
-0.0375793
-0.0375581
-0.0375013
-0.0374077
-0.0372759
-0.0371046
-0.036893
-0.0366399
-0.0363447
-0.0360066
-0.0356252
-0.0352002
-0.0347315
-0.0342192
-0.0336636
-0.0330655
-0.0324254
-0.0317445
-0.0310241
-0.0302657
-0.0294709
-0.0286418
-0.0277804
-0.0268891
-0.0259703
-0.0250265
-0.0240603
-0.0230746
-0.0220719
-0.0210553
-0.0200269
-0.0189901
-0.0179466
-0.0168998
-0.0158508
-0.014803
-0.0137566
-0.0127153
-0.0116775
-0.0106479
-0.00962202
-0.00860646
-0.00759245
-0.00658975
-0.00558362
-0.00458871
-0.00358184
-0.00258497
-0.00156282
-0.000546203
-0.0359082
-0.0362387
-0.0365523
-0.0368473
-0.0371231
-0.0373788
-0.0376128
-0.0378235
-0.0380091
-0.0381681
-0.0382988
-0.0383998
-0.0384693
-0.0385058
-0.0385077
-0.0384734
-0.0384016
-0.0382908
-0.0381398
-0.0379474
-0.0377126
-0.0374344
-0.0371121
-0.0367451
-0.036333
-0.0358756
-0.0353731
-0.0348255
-0.0342335
-0.0335977
-0.0329193
-0.0321993
-0.0314395
-0.0306413
-0.0298069
-0.0289385
-0.0280383
-0.027109
-0.0261533
-0.0251739
-0.0241736
-0.0231556
-0.0221226
-0.0210778
-0.0200236
-0.0189634
-0.0178992
-0.0168343
-0.01577
-0.0147099
-0.0136538
-0.0126058
-0.011564
-0.0105332
-0.00950861
-0.00849695
-0.00748914
-0.00649497
-0.00549923
-0.00451678
-0.0035237
-0.00254239
-0.00153646
-0.00053753
-0.0369195
-0.0372601
-0.0375821
-0.0378841
-0.0381655
-0.0384253
-0.0386619
-0.0388736
-0.0390586
-0.039215
-0.0393413
-0.039436
-0.0394972
-0.0395232
-0.0395125
-0.0394635
-0.0393747
-0.0392448
-0.0390725
-0.0388566
-0.038596
-0.03829
-0.0379377
-0.0375388
-0.0370928
-0.0365999
-0.03606
-0.0354737
-0.0348416
-0.0341647
-0.0334441
-0.0326815
-0.0318785
-0.0310371
-0.0301595
-0.0292483
-0.0283061
-0.0273357
-0.02634
-0.0253222
-0.0242854
-0.0232327
-0.0221672
-0.0210923
-0.0200107
-0.0189258
-0.0178397
-0.016756
-0.0156758
-0.0146029
-0.0135371
-0.0124824
-0.0114369
-0.0104053
-0.00938279
-0.00837589
-0.00737525
-0.00639072
-0.00540661
-0.00443794
-0.00346006
-0.0024958
-0.00150766
-0.000528032
-0.0380126
-0.0383637
-0.0386947
-0.0390041
-0.0392913
-0.0395553
-0.0397944
-0.0400068
-0.0401907
-0.0403442
-0.0404654
-0.0405527
-0.0406042
-0.0406185
-0.0405937
-0.0405283
-0.0404207
-0.0402696
-0.0400736
-0.0398316
-0.0395427
-0.0392059
-0.0388207
-0.0383866
-0.0379035
-0.0373715
-0.0367908
-0.036162
-0.0354862
-0.0347643
-0.033998
-0.0331889
-0.032339
-0.0314507
-0.0305265
-0.0295691
-0.0285815
-0.0275668
-0.0265283
-0.0254694
-0.0243933
-0.0233037
-0.0222038
-0.0210971
-0.0199865
-0.0188756
-0.0177667
-0.0166634
-0.0155669
-0.0144809
-0.0134055
-0.0123444
-0.0112956
-0.0102639
-0.00924414
-0.0082429
-0.0072505
-0.00627679
-0.00530559
-0.00435208
-0.00339087
-0.00244518
-0.00147639
-0.000517704
-0.0391886
-0.039551
-0.0398915
-0.0402085
-0.0405016
-0.0407698
-0.0410113
-0.0412242
-0.0414064
-0.041556
-0.0416713
-0.0417502
-0.0417911
-0.0417921
-0.0417516
-0.0416679
-0.0415395
-0.0413649
-0.0411428
-0.0408722
-0.040552
-0.0401815
-0.0397601
-0.0392876
-0.0387639
-0.0381891
-0.0375639
-0.036889
-0.0361656
-0.035395
-0.0345789
-0.0337195
-0.032819
-0.0318801
-0.0309056
-0.0298985
-0.0288622
-0.0278002
-0.0267159
-0.0256131
-0.0244955
-0.0233667
-0.0222303
-0.0210901
-0.0199492
-0.0188113
-0.0176788
-0.0165552
-0.0154422
-0.0143431
-0.013258
-0.0121909
-0.0111394
-0.0101083
-0.00909221
-0.00809767
-0.00711465
-0.006153
-0.00519605
-0.00425911
-0.00331605
-0.00239048
-0.00144264
-0.000506537
-0.0404491
-0.0408233
-0.0411737
-0.0414986
-0.0417978
-0.0420701
-0.0423138
-0.0425268
-0.0427068
-0.0428518
-0.0429601
-0.0430296
-0.0430584
-0.0430447
-0.0429867
-0.0428828
-0.0427313
-0.0425308
-0.0422801
-0.041978
-0.0416236
-0.0412162
-0.0407553
-0.0402409
-0.0396728
-0.0390517
-0.0383781
-0.0376531
-0.0368781
-0.0360547
-0.035185
-0.0342714
-0.0333164
-0.0323231
-0.0312945
-0.0302343
-0.029146
-0.0280335
-0.0269005
-0.0257513
-0.0245896
-0.0234196
-0.022245
-0.0210698
-0.0198972
-0.0187313
-0.0175744
-0.0164303
-0.0153004
-0.0141883
-0.013094
-0.0120213
-0.0109677
-0.00993807
-0.00892663
-0.00793989
-0.00696746
-0.00601919
-0.00507787
-0.00415898
-0.00323557
-0.00233168
-0.0014064
-0.000494529
-0.0417958
-0.0421824
-0.042543
-0.0428761
-0.0431814
-0.0434578
-0.0437035
-0.043916
-0.0440932
-0.0442329
-0.0443331
-0.0443919
-0.0444072
-0.0443771
-0.0442997
-0.0441734
-0.0439965
-0.0437676
-0.0434855
-0.0431489
-0.0427571
-0.0423095
-0.0418056
-0.0412455
-0.0406295
-0.039958
-0.039232
-0.0384529
-0.0376222
-0.0367419
-0.0358144
-0.0348425
-0.033829
-0.0327774
-0.0316912
-0.0305743
-0.0294306
-0.0282644
-0.02708
-0.0258816
-0.0246736
-0.0234603
-0.0222457
-0.0210341
-0.0198288
-0.018634
-0.0174522
-0.0162872
-0.0151405
-0.0140156
-0.0129125
-0.0118348
-0.01078
-0.00975274
-0.00874704
-0.00776929
-0.00680876
-0.00587523
-0.00495099
-0.00405161
-0.0031494
-0.00226878
-0.00136766
-0.000481677
-0.0432306
-0.0436301
-0.0440014
-0.0443428
-0.0446543
-0.0449346
-0.0451818
-0.0453935
-0.0455671
-0.0457005
-0.0457916
-0.0458383
-0.0458384
-0.0457901
-0.0456913
-0.0455404
-0.0453357
-0.0450756
-0.0447591
-0.0443849
-0.0439524
-0.043461
-0.0429105
-0.0423009
-0.0416328
-0.0409068
-0.0401243
-0.0392868
-0.0383961
-0.0374547
-0.0364652
-0.0354308
-0.0343548
-0.033241
-0.0320933
-0.0309161
-0.0297137
-0.0284908
-0.027252
-0.026002
-0.0247454
-0.0234869
-0.0222307
-0.0209813
-0.0197423
-0.0185179
-0.0173108
-0.0161248
-0.0149614
-0.0138241
-0.0127127
-0.0116308
-0.0105758
-0.00955191
-0.00855314
-0.00758567
-0.00663839
-0.00572102
-0.00481534
-0.003937
-0.00305754
-0.00220177
-0.00132643
-0.000467985
-0.0447554
-0.0451685
-0.0455507
-0.0459007
-0.0462182
-0.0465023
-0.0467508
-0.0469609
-0.0471302
-0.0472562
-0.0473369
-0.0473701
-0.0473534
-0.0472849
-0.0471625
-0.0469846
-0.0467493
-0.0464552
-0.0461012
-0.0456862
-0.0452094
-0.0446705
-0.0440693
-0.0434063
-0.0426819
-0.0418972
-0.0410538
-0.0401534
-0.0391984
-0.0381914
-0.0371355
-0.0360343
-0.0348916
-0.0337116
-0.0324986
-0.0312575
-0.0299931
-0.0287103
-0.0274143
-0.0261102
-0.0248028
-0.0234972
-0.0221979
-0.0209096
-0.0196361
-0.0183816
-0.017149
-0.015942
-0.0147622
-0.013613
-0.012494
-0.0114088
-0.0103545
-0.00933523
-0.00834467
-0.00738882
-0.00645623
-0.0055565
-0.00467089
-0.00381514
-0.00296001
-0.00213067
-0.00128273
-0.000453455
-0.0463727
-0.0467997
-0.0471932
-0.0475518
-0.0478754
-0.048163
-0.0484122
-0.0486203
-0.0487843
-0.0489018
-0.0489708
-0.0489888
-0.0489534
-0.0488626
-0.0487144
-0.0485068
-0.0482381
-0.047907
-0.0475122
-0.0470527
-0.046528
-0.0459376
-0.0452818
-0.044561
-0.043776
-0.0429281
-0.0420192
-0.0410514
-0.0400273
-0.0389502
-0.0378234
-0.0366511
-0.0354374
-0.034187
-0.0329049
-0.0315962
-0.0302663
-0.0289207
-0.0275648
-0.0262041
-0.0248439
-0.0234895
-0.0221457
-0.0208174
-0.0195086
-0.0182236
-0.0169653
-0.0157376
-0.0145418
-0.0133813
-0.0122557
-0.0111682
-0.0101158
-0.00910241
-0.00812143
-0.00717864
-0.00626222
-0.00538165
-0.00451767
-0.00368605
-0.00285683
-0.00205552
-0.00123657
-0.000438095
-0.0480846
-0.0485262
-0.0489313
-0.0492985
-0.049628
-0.0499188
-0.0501682
-0.0503734
-0.0505315
-0.0506392
-0.0506949
-0.0506959
-0.0506399
-0.0505246
-0.0503479
-0.050108
-0.049803
-0.0494315
-0.0489924
-0.0484848
-0.0479082
-0.0472623
-0.0465475
-0.0457644
-0.0449142
-0.0439984
-0.0430192
-0.0419792
-0.0408814
-0.0397293
-0.038527
-0.0372789
-0.0359899
-0.034665
-0.0333098
-0.0319299
-0.0305312
-0.0291196
-0.027701
-0.0262814
-0.0248664
-0.0234616
-0.022072
-0.0207029
-0.0193582
-0.0180425
-0.0167587
-0.0155106
-0.0142994
-0.0131285
-0.0119971
-0.0109085
-0.0098593
-0.00885322
-0.00788326
-0.00695505
-0.00605635
-0.00519648
-0.00435571
-0.0035498
-0.00274807
-0.00197636
-0.00118799
-0.000421917
-0.0498939
-0.0503504
-0.0507673
-0.0511431
-0.0514784
-0.0517719
-0.0520208
-0.052222
-0.0523724
-0.0524698
-0.0525108
-0.0524931
-0.0524144
-0.0522722
-0.0520645
-0.0517892
-0.0514447
-0.0510295
-0.0505425
-0.0499828
-0.0493501
-0.0486443
-0.047866
-0.047016
-0.0460957
-0.0451071
-0.0440527
-0.0429355
-0.0417589
-0.040527
-0.0392444
-0.0379159
-0.036547
-0.0351434
-0.0337111
-0.0322563
-0.0307854
-0.0293048
-0.0278209
-0.0263401
-0.0248684
-0.0234116
-0.0219752
-0.0205645
-0.0191836
-0.0178371
-0.016528
-0.0152599
-0.0140342
-0.0128538
-0.0117179
-0.0106294
-0.00958481
-0.00858747
-0.00763009
-0.00671801
-0.00583863
-0.00500107
-0.0041851
-0.00340648
-0.00263381
-0.00189325
-0.00113704
-0.000404935
-0.0518031
-0.052275
-0.0527038
-0.0530883
-0.0534291
-0.0537249
-0.0539728
-0.0541693
-0.0543113
-0.0543961
-0.0544206
-0.0543822
-0.0542785
-0.0541069
-0.0538653
-0.0535517
-0.0531643
-0.0527017
-0.0521628
-0.0515469
-0.0508538
-0.0500836
-0.0492369
-0.0483151
-0.0473197
-0.0462532
-0.0451184
-0.0439187
-0.0426582
-0.0413415
-0.0399735
-0.0385599
-0.0371065
-0.0356199
-0.0341064
-0.032573
-0.0310265
-0.029474
-0.0279222
-0.026378
-0.0248478
-0.0233378
-0.0218535
-0.0204006
-0.0189833
-0.0176061
-0.0162721
-0.0149848
-0.0137454
-0.0125566
-0.0114175
-0.0103306
-0.00929209
-0.00830506
-0.00736189
-0.00646757
-0.00560914
-0.0047955
-0.00400594
-0.00325618
-0.00251414
-0.00180628
-0.00108376
-0.000387166
-0.0538151
-0.0543027
-0.0547436
-0.0551367
-0.0554827
-0.0557803
-0.0560263
-0.0562172
-0.0563494
-0.0564201
-0.0564263
-0.0563651
-0.056234
-0.0560303
-0.0557519
-0.0553966
-0.0549627
-0.0544489
-0.0538541
-0.0531776
-0.0524194
-0.0515799
-0.05066
-0.0496612
-0.0485855
-0.0474356
-0.046215
-0.0449276
-0.0435778
-0.0421709
-0.0407125
-0.0392087
-0.0376663
-0.0360921
-0.0344934
-0.0328777
-0.0312523
-0.0296249
-0.0280027
-0.0263931
-0.0248027
-0.0232381
-0.0217053
-0.0202097
-0.0187559
-0.0173484
-0.0159901
-0.0146844
-0.0134323
-0.0122365
-0.0110956
-0.0100118
-0.00898101
-0.00800596
-0.00707868
-0.0062038
-0.00536801
-0.00457993
-0.0038184
-0.00309907
-0.00238921
-0.00171555
-0.00102822
-0.000368631
-0.0559326
-0.0564363
-0.0568895
-0.057291
-0.0576419
-0.0579406
-0.058184
-0.058368
-0.0584891
-0.0585441
-0.05853
-0.0584438
-0.0582827
-0.0580441
-0.0577256
-0.0573252
-0.0568411
-0.056272
-0.0556169
-0.0548753
-0.0540472
-0.0531334
-0.0521349
-0.0510537
-0.0498921
-0.0486534
-0.0473413
-0.0459604
-0.0445158
-0.0430133
-0.0414592
-0.0398604
-0.038224
-0.0365579
-0.0348699
-0.033168
-0.0314604
-0.0297552
-0.0280602
-0.0263831
-0.0247311
-0.0231109
-0.0215288
-0.0199903
-0.0185002
-0.0170628
-0.0156809
-0.0143579
-0.0130946
-0.0118931
-0.0107519
-0.00967288
-0.00865153
-0.0076902
-0.00678056
-0.00592686
-0.00511541
-0.00435454
-0.00362265
-0.0029353
-0.00225914
-0.00162116
-0.000970488
-0.000349354
-0.0581586
-0.0586788
-0.0591442
-0.059554
-0.0599093
-0.0602086
-0.0604484
-0.0606244
-0.0607328
-0.0607703
-0.0607339
-0.0606202
-0.0604265
-0.0601499
-0.0597881
-0.0593389
-0.0588006
-0.0581719
-0.0574519
-0.0566403
-0.0557374
-0.0547439
-0.0536614
-0.0524921
-0.0512388
-0.0499054
-0.048496
-0.0470158
-0.0454707
-0.043867
-0.0422117
-0.0405125
-0.0387774
-0.0370148
-0.0352333
-0.0334416
-0.0316485
-0.0298627
-0.0280925
-0.0263461
-0.024631
-0.0229544
-0.0213225
-0.0197411
-0.0182149
-0.0167483
-0.0153439
-0.0140048
-0.0127315
-0.0115259
-0.0103862
-0.00931373
-0.00830366
-0.00735787
-0.00646769
-0.00563694
-0.00485156
-0.00411956
-0.00341893
-0.00276508
-0.00212412
-0.00152324
-0.000910646
-0.000329362
-0.0604961
-0.0610331
-0.0615108
-0.0619286
-0.0622879
-0.062587
-0.0628222
-0.0629888
-0.0630829
-0.0631012
-0.0630402
-0.0628965
-0.0626672
-0.0623495
-0.0619408
-0.061439
-0.0608423
-0.0601496
-0.05936
-0.0584733
-0.0574901
-0.0564114
-0.0552391
-0.0539758
-0.0526249
-0.0511905
-0.0496778
-0.0480923
-0.0464406
-0.0447298
-0.0429679
-0.0411631
-0.0393242
-0.0374605
-0.0355813
-0.033696
-0.0318142
-0.029945
-0.0280975
-0.0262801
-0.0245007
-0.0227669
-0.0210849
-0.0194608
-0.017899
-0.016404
-0.0149782
-0.0136244
-0.0123428
-0.0111349
-0.00999842
-0.00893437
-0.00793748
-0.00700913
-0.00614029
-0.00533428
-0.00457674
-0.00387525
-0.00320747
-0.00258864
-0.00198433
-0.00142193
-0.000848782
-0.000308684
-0.0629483
-0.0635023
-0.0639922
-0.0644177
-0.0647804
-0.0650786
-0.0653081
-0.0654641
-0.0655423
-0.0655392
-0.0654512
-0.0652748
-0.0650069
-0.0646447
-0.0641854
-0.0636269
-0.0629675
-0.062206
-0.0613417
-0.0603747
-0.0593056
-0.0581358
-0.0568677
-0.0555042
-0.0540494
-0.0525078
-0.0508853
-0.0491882
-0.0474237
-0.0456
-0.0437256
-0.0418097
-0.0398621
-0.0378926
-0.0359115
-0.033929
-0.0319552
-0.0300001
-0.028073
-0.026183
-0.0243384
-0.0225467
-0.0208146
-0.019148
-0.0175515
-0.0160292
-0.0145833
-0.0132163
-0.0119281
-0.0107197
-0.00958852
-0.00853488
-0.00755318
-0.00664423
-0.00579863
-0.0050192
-0.00429124
-0.00362192
-0.00298857
-0.00240621
-0.00183997
-0.00131739
-0.000784992
-0.000287353
-0.0655182
-0.0660894
-0.0665915
-0.0670243
-0.0673897
-0.067686
-0.0679087
-0.0680529
-0.0681133
-0.0680867
-0.0679691
-0.0677572
-0.0674476
-0.0670373
-0.0665235
-0.0659041
-0.0651774
-0.0643422
-0.063398
-0.062345
-0.0611841
-0.0599173
-0.058547
-0.0570769
-0.0555115
-0.0538561
-0.0521172
-0.0503019
-0.0484184
-0.0464755
-0.0444827
-0.0424502
-0.0403886
-0.0383087
-0.0362215
-0.0341381
-0.0320692
-0.0300255
-0.028017
-0.026053
-0.0241422
-0.0222923
-0.0205102
-0.0188017
-0.0171714
-0.015623
-0.0141586
-0.0127802
-0.0114873
-0.0102804
-0.00915655
-0.00811542
-0.00715098
-0.00626344
-0.00544305
-0.00469205
-0.00399542
-0.0033599
-0.00276253
-0.00221808
-0.00169127
-0.00120978
-0.000719378
-0.000265403
-0.068209
-0.0687976
-0.0693116
-0.0697513
-0.0701188
-0.0704122
-0.0706267
-0.0707567
-0.070798
-0.0707457
-0.0705962
-0.0703459
-0.0699913
-0.0695292
-0.0689569
-0.0682722
-0.0674733
-0.0665592
-0.0655295
-0.0643847
-0.0631261
-0.0617557
-0.0602767
-0.0586932
-0.0570104
-0.0552343
-0.0533721
-0.0514319
-0.0494226
-0.0473542
-0.045237
-0.0430822
-0.0409014
-0.0387063
-0.0365088
-0.0343208
-0.0321539
-0.0300192
-0.0279273
-0.0258881
-0.0239104
-0.0220023
-0.0201705
-0.0184209
-0.0167578
-0.0151847
-0.0137035
-0.0123157
-0.0110202
-0.00981704
-0.00870267
-0.00767622
-0.0067312
-0.00586715
-0.00507394
-0.00435321
-0.00368969
-0.00308958
-0.0025297
-0.00202453
-0.00153846
-0.00109927
-0.00065205
-0.000242871
-0.0710238
-0.0716299
-0.0721556
-0.0726018
-0.0729707
-0.0732602
-0.0734652
-0.0735798
-0.0735993
-0.073519
-0.0733349
-0.0730431
-0.0726401
-0.0721224
-0.0714873
-0.0707326
-0.0698565
-0.0688581
-0.0677373
-0.0664946
-0.0651316
-0.0636511
-0.0620565
-0.0603525
-0.0585451
-0.0566411
-0.0546485
-0.0525764
-0.0504346
-0.048234
-0.0459862
-0.0437034
-0.041398
-0.0390829
-0.036771
-0.0344749
-0.0322069
-0.029979
-0.0278021
-0.0256865
-0.0236415
-0.0216751
-0.0197942
-0.0180044
-0.0163099
-0.014714
-0.0132179
-0.0118226
-0.0105268
-0.00932963
-0.00822709
-0.0072176
-0.00629421
-0.00545575
-0.00469174
-0.00400315
-0.00337447
-0.00281135
-0.00229044
-0.00182588
-0.00138181
-0.00098606
-0.000583123
-0.000219795
-0.0739659
-0.0745894
-0.0751266
-0.0755787
-0.0759482
-0.0762327
-0.0764268
-0.0765243
-0.07652
-0.0764093
-0.0761877
-0.0758512
-0.075396
-0.0748188
-0.0741165
-0.0732869
-0.0723284
-0.0712401
-0.070022
-0.0686751
-0.0672012
-0.0656035
-0.0638861
-0.0620544
-0.0601149
-0.0580756
-0.0559451
-0.0537337
-0.0514523
-0.0491129
-0.0467282
-0.0443113
-0.041876
-0.0394362
-0.0370056
-0.0345978
-0.032226
-0.0299026
-0.0276392
-0.0254465
-0.0233338
-0.0213095
-0.0193802
-0.0175515
-0.0158273
-0.0142103
-0.0127014
-0.011301
-0.0100072
-0.00881843
-0.00773013
-0.00673995
-0.00584046
-0.00502973
-0.00429694
-0.00364234
-0.00305022
-0.00252564
-0.00204514
-0.00162246
-0.00122158
-0.000870332
-0.000512718
-0.000196217
-0.0770382
-0.0776793
-0.0782276
-0.078685
-0.0790541
-0.0793326
-0.0795143
-0.0795928
-0.0795626
-0.0794188
-0.0791568
-0.0787723
-0.0782613
-0.0776203
-0.0768462
-0.0759368
-0.0748904
-0.0737063
-0.0723847
-0.0709268
-0.069335
-0.0676129
-0.0657652
-0.0637981
-0.0617189
-0.0595363
-0.0572604
-0.0549022
-0.0524739
-0.0499887
-0.0474604
-0.0449036
-0.042333
-0.0397636
-0.0372102
-0.0346873
-0.0322089
-0.029788
-0.0274368
-0.0251662
-0.0229859
-0.0209041
-0.0189275
-0.0170614
-0.0153092
-0.0136732
-0.0121539
-0.0107508
-0.00946153
-0.00828372
-0.00721217
-0.00624372
-0.00537046
-0.00458963
-0.00389009
-0.00327131
-0.00271746
-0.00223292
-0.0017942
-0.00141461
-0.00105803
-0.000752291
-0.000440957
-0.000172177
-0.0802439
-0.0809024
-0.0814615
-0.0819235
-0.0822915
-0.0825626
-0.0827304
-0.082788
-0.0827297
-0.0825502
-0.0822448
-0.0818088
-0.0812381
-0.080529
-0.0796784
-0.0786838
-0.0775439
-0.0762579
-0.0748262
-0.0732505
-0.0715335
-0.0696794
-0.0676936
-0.065583
-0.063356
-0.0610222
-0.0585928
-0.05608
-0.0534973
-0.0508592
-0.0481807
-0.0454778
-0.0427663
-0.0400625
-0.0373822
-0.0347409
-0.0321533
-0.0296332
-0.027193
-0.0248442
-0.0225964
-0.020458
-0.0184353
-0.0165334
-0.0147553
-0.0131027
-0.0115753
-0.0101722
-0.0088901
-0.00772588
-0.00667367
-0.00572945
-0.00488477
-0.00413602
-0.00347175
-0.00289063
-0.0023767
-0.00193366
-0.00153805
-0.00120268
-0.000891473
-0.000632144
-0.000367968
-0.000147719
-0.0835859
-0.0842618
-0.0848312
-0.0852971
-0.0856629
-0.0859255
-0.0860778
-0.0861125
-0.0860238
-0.085806
-0.085454
-0.0849629
-0.0843285
-0.0835469
-0.0826147
-0.0815297
-0.0802903
-0.078896
-0.0773475
-0.0756468
-0.073797
-0.071803
-0.069671
-0.0674087
-0.0650254
-0.062532
-0.0599408
-0.0572654
-0.0545205
-0.0517221
-0.0488867
-0.0460314
-0.0431735
-0.0403305
-0.0375193
-0.0347564
-0.0320571
-0.029436
-0.026906
-0.0244787
-0.022164
-0.0199699
-0.0179027
-0.0159669
-0.0141652
-0.0124984
-0.0109658
-0.00956539
-0.00829325
-0.00714537
-0.00611519
-0.00519772
-0.00438401
-0.00366954
-0.00304256
-0.00250088
-0.00202849
-0.00162835
-0.00127712
-0.000987052
-0.000722182
-0.000510103
-0.00029388
-0.000122886
-0.0870672
-0.0877602
-0.0883394
-0.0888085
-0.0891712
-0.0894239
-0.089559
-0.089569
-0.0894474
-0.0891885
-0.0887867
-0.088237
-0.0875348
-0.086676
-0.0856573
-0.0844761
-0.0831312
-0.081622
-0.0799497
-0.0781164
-0.076126
-0.0739839
-0.0716971
-0.0692744
-0.0667261
-0.0640644
-0.0613028
-0.0584564
-0.0555414
-0.0525752
-0.0495758
-0.0465618
-0.0435521
-0.0405651
-0.037619
-0.0347312
-0.0319181
-0.0291945
-0.026574
-0.0240684
-0.0216873
-0.0194389
-0.017329
-0.0153616
-0.0135386
-0.0118605
-0.0103254
-0.00893064
-0.00767142
-0.00654274
-0.00553732
-0.00464919
-0.00386887
-0.00319086
-0.00260317
-0.00210269
-0.00167343
-0.00131753
-0.00101186
-0.000768089
-0.000550461
-0.000386383
-0.000218825
-9.77228e-05
-0.0906904
-0.0914002
-0.0919887
-0.0924602
-0.0928187
-0.0930604
-0.0931768
-0.09316
-0.0930033
-0.0927003
-0.0922454
-0.0916333
-0.0908591
-0.0899184
-0.0888078
-0.0875248
-0.086068
-0.0844372
-0.0826336
-0.08066
-0.0785207
-0.0762219
-0.0737716
-0.0711795
-0.0684572
-0.0656181
-0.0626772
-0.0596512
-0.0565578
-0.0534161
-0.0502457
-0.0470667
-0.0438993
-0.0407636
-0.0376787
-0.0346632
-0.031734
-0.0289069
-0.0261955
-0.0236117
-0.0211654
-0.0188642
-0.0167136
-0.0147169
-0.0128756
-0.0111889
-0.00965446
-0.0082684
-0.00702514
-0.00591859
-0.00494075
-0.00408457
-0.00334006
-0.0027007
-0.00215426
-0.0016967
-0.00131208
-0.0010017
-0.000742734
-0.000546174
-0.000376611
-0.000261199
-0.000142935
-7.22733e-05
-0.0944581
-0.0951846
-0.0957817
-0.0962548
-0.096608
-0.096837
-0.0969336
-0.0968881
-0.0966935
-0.0963435
-0.0958322
-0.095154
-0.0943035
-0.0932762
-0.0920684
-0.0906776
-0.0891024
-0.0873428
-0.0854004
-0.0832784
-0.0809817
-0.0785174
-0.0758943
-0.0731234
-0.0702176
-0.0671917
-0.0640624
-0.0608478
-0.0575677
-0.0542425
-0.0508938
-0.0475433
-0.0442128
-0.0409236
-0.0376962
-0.03455
-0.031503
-0.0285712
-0.0257687
-0.0231075
-0.0205971
-0.018245
-0.016056
-0.0140328
-0.012176
-0.0104839
-0.00895332
-0.00757918
-0.00635502
-0.00527362
-0.00432622
-0.00350463
-0.00279836
-0.0021998
-0.00169656
-0.00128358
-0.000945077
-0.000681421
-0.000470206
-0.000321692
-0.000200935
-0.000134771
-6.63417e-05
-4.65824e-05
-0.0983728
-0.0991155
-0.0997206
-0.100194
-0.100541
-0.100756
-0.10083
-0.100755
-0.10052
-0.10012
-0.0995496
-0.0988015
-0.0978703
-0.0967514
-0.095441
-0.0939363
-0.092236
-0.0903404
-0.0882513
-0.0859724
-0.0835095
-0.0808704
-0.078065
-0.0751056
-0.0720064
-0.068784
-0.0654567
-0.0620444
-0.0585687
-0.055052
-0.0515177
-0.0479892
-0.0444899
-0.0410425
-0.0376689
-0.0343895
-0.0312229
-0.0281857
-0.0252922
-0.0225544
-0.0199816
-0.0175806
-0.0153559
-0.0133091
-0.01144
-0.00974588
-0.00822245
-0.00686356
-0.00566175
-0.0046086
-0.00369453
-0.00291018
-0.00224456
-0.00168895
-0.00123081
-0.000864006
-0.000573022
-0.000357225
-0.000194744
-9.50284e-05
-2.37355e-05
-7.31316e-06
1.08231e-05
-2.06947e-05
-0.102437
-0.103195
-0.103808
-0.104281
-0.104621
-0.104821
-0.104871
-0.104762
-0.104485
-0.104033
-0.1034
-0.102578
-0.101562
-0.100346
-0.0989276
-0.0973027
-0.0954705
-0.0934313
-0.0911874
-0.088743
-0.0861046
-0.083281
-0.0802833
-0.0771253
-0.0738226
-0.0703936
-0.0668583
-0.0632389
-0.0595586
-0.0558422
-0.0521147
-0.0484016
-0.0447279
-0.0411179
-0.0375946
-0.0341794
-0.0308918
-0.0277486
-0.0247646
-0.0219513
-0.0193179
-0.0168706
-0.0146129
-0.0125458
-0.0106677
-0.00897511
-0.0074624
-0.00612222
-0.00494611
-0.00392434
-0.00304653
-0.00230209
-0.00167952
-0.00116896
-0.000757752
-0.000438683
-0.000196548
-2.96647e-05
8.31814e-05
0.000133432
0.000154684
0.000120958
8.84291e-05
5.34562e-06
-0.106651
-0.107425
-0.108045
-0.108518
-0.108849
-0.109032
-0.109057
-0.108913
-0.108592
-0.108085
-0.107385
-0.106486
-0.10538
-0.104063
-0.10253
-0.100779
-0.0988077
-0.0966171
-0.0942099
-0.0915909
-0.0887675
-0.0857494
-0.0825492
-0.0791819
-0.0756651
-0.072019
-0.0682656
-0.0644292
-0.0605353
-0.0566106
-0.0526824
-0.048778
-0.0449243
-0.0411471
-0.0374707
-0.0339176
-0.0305077
-0.0272585
-0.0241845
-0.0212973
-0.0186055
-0.0161145
-0.0138271
-0.0117429
-0.00985964
-0.00817214
-0.00667383
-0.00535594
-0.00420893
-0.00322173
-0.00238313
-0.00168124
-0.00110411
-0.00064064
-0.000278173
-8.31135e-06
0.000183713
0.00030071
0.000363101
0.000363306
0.000334025
0.000249832
0.000166348
3.14953e-05
-0.111808
-0.112433
-0.112904
-0.113226
-0.113392
-0.113391
-0.11321
-0.112842
-0.112277
-0.111508
-0.110527
-0.109328
-0.107904
-0.106251