/*--------------------------------*- C++ -*----------------------------------*\
  =========                 |
  \\      /  F ield         | OpenFOAM: The Open Source CFD Toolbox
   \\    /   O peration     | Website:  https://openfoam.org
    \\  /    A nd           | Version:  7
     \\/     M anipulation  |
\*---------------------------------------------------------------------------*/
FoamFile
{
    version     2.0;
    format      ascii;
    class       surfaceScalarField;
    location    "16";
    object      phi;
}
// * * * * * * * * * * * * * * * * * * * * * * * * * * * * * * * * * * * * * //

dimensions      [0 3 -1 0 0 0 0];

internalField   nonuniform List<scalar> 
816
(
-6.85669e-08
6.85668e-08
1.65624e-13
-2.78812e-07
2.10245e-07
5.02851e-13
-6.4169e-07
3.62877e-07
8.69942e-13
-1.1683e-06
5.26604e-07
-1.86977e-06
7.01473e-07
-2.75721e-06
8.87439e-07
-3.84157e-06
1.08435e-06
-5.13353e-06
1.29196e-06
-6.6434e-06
1.50987e-06
-8.38096e-06
1.73756e-06
-1.03553e-05
1.97436e-06
-1.25748e-05
2.21945e-06
-1.50466e-05
2.47183e-06
-1.7777e-05
2.73034e-06
-2.07706e-05
2.99365e-06
-2.40308e-05
3.26021e-06
-2.75592e-05
3.52836e-06
-3.13554e-05
3.79621e-06
-3.54172e-05
4.06175e-06
-3.974e-05
4.32284e-06
-4.43172e-05
4.57723e-06
-4.91399e-05
4.82261e-06
-5.41965e-05
5.05667e-06
-5.94737e-05
5.27719e-06
5.48207e-06
-6.73983e-08
1.35965e-07
-2.73989e-07
4.16836e-07
-6.30451e-07
7.19338e-07
-1.14758e-06
1.04373e-06
-1.83618e-06
1.39008e-06
-2.70701e-06
1.75827e-06
-3.77062e-06
2.14797e-06
-5.03729e-06
2.55863e-06
-6.51687e-06
2.98944e-06
-8.21863e-06
3.43932e-06
-1.01512e-05
3.90689e-06
-1.23222e-05
4.39045e-06
-1.47383e-05
4.88795e-06
-1.7405e-05
5.39702e-06
-2.03262e-05
5.9149e-06
-2.35045e-05
6.43849e-06
-2.69405e-05
6.96431e-06
-3.06328e-05
7.48855e-06
-3.45781e-05
8.00708e-06
-3.87708e-05
8.51549e-06
-4.32027e-05
9.00917e-06
-4.78635e-05
9.48336e-06
-5.27401e-05
9.93331e-06
-5.78173e-05
1.03544e-05
1.07422e-05
-6.50797e-08
2.01045e-07
-2.64418e-07
6.16174e-07
-6.0814e-07
1.06306e-06
-1.10644e-06
1.54203e-06
-1.76949e-06
2.05312e-06
-2.60731e-06
2.59609e-06
-3.6297e-06
3.17036e-06
-4.84611e-06
3.77503e-06
-6.26547e-06
4.4088e-06
-7.89607e-06
5.06993e-06
-9.74543e-06
5.75625e-06
-1.18201e-05
6.4651e-06
-1.41254e-05
7.19327e-06
-1.66654e-05
7.93706e-06
-1.94427e-05
8.69217e-06
-2.2458e-05
9.45377e-06
-2.57101e-05
1.02164e-05
-2.91958e-05
1.09743e-05
-3.29096e-05
1.17208e-05
-3.68432e-05
1.24491e-05
-4.09861e-05
1.31521e-05
-4.53249e-05
1.38221e-05
-4.98434e-05
1.44518e-05
-5.45227e-05
1.50336e-05
1.55607e-05
-6.16462e-08
2.62691e-07
-2.50238e-07
8.04766e-07
-5.75078e-07
1.3879e-06
-1.04547e-06
2.01242e-06
-1.6706e-06
2.67825e-06
-2.45944e-06
3.38494e-06
-3.42066e-06
4.13158e-06
-4.56243e-06
4.91681e-06
-5.89236e-06
5.73872e-06
-7.41726e-06
6.59483e-06
-9.14304e-06
7.48204e-06
-1.10745e-05
8.39655e-06
-1.32151e-05
9.3339e-06
-1.55669e-05
1.02888e-05
-1.81301e-05
1.12554e-05
-2.0903e-05
1.22267e-05
-2.38818e-05
1.31953e-05
-2.70603e-05
1.41527e-05
-3.04296e-05
1.50901e-05
-3.39781e-05
1.59977e-05
-3.76913e-05
1.68652e-05
-4.15514e-05
1.76822e-05
-4.55373e-05
1.84378e-05
-4.96251e-05
1.91214e-05
-5.37871e-05
1.97227e-05
2.02326e-05
-5.71462e-08
3.19837e-07
-2.31643e-07
9.79262e-07
-5.31703e-07
1.68796e-06
-9.65441e-07
2.44616e-06
-1.54076e-06
3.25357e-06
-2.26524e-06
4.10942e-06
-3.14602e-06
5.01235e-06
-4.18963e-06
5.96041e-06
-5.40187e-06
6.95096e-06
-6.78763e-06
7.98059e-06
-8.35071e-06
9.04511e-06
-1.00936e-05
1.01394e-05
-1.20173e-05
1.12576e-05
-1.41211e-05
1.23926e-05
-1.64022e-05
1.35365e-05
-1.88557e-05
1.46803e-05
-2.14744e-05
1.58139e-05
-2.4248e-05
1.69264e-05
-2.71635e-05
1.80056e-05
-3.02046e-05
1.90388e-05
-3.33515e-05
2.00122e-05
-3.65808e-05
2.09115e-05
-3.98653e-05
2.17223e-05
-4.31739e-05
2.24299e-05
-4.64713e-05
2.30201e-05
2.34798e-05
-5.16357e-08
3.71473e-07
-2.08857e-07
1.13648e-06
-4.78524e-07
1.95763e-06
-8.67281e-07
2.83492e-06
-1.38143e-06
3.76773e-06
-2.02683e-06
4.75481e-06
-2.80872e-06
5.79424e-06
-3.7316e-06
6.8833e-06
-4.79906e-06
8.01842e-06
-6.01357e-06
9.19511e-06
-7.37633e-06
1.04079e-05
-8.88699e-06
1.16501e-05
-1.05435e-05
1.29141e-05
-1.23417e-05
1.41908e-05
-1.42752e-05
1.547e-05
-1.63353e-05
1.67403e-05
-1.85101e-05
1.79887e-05
-2.07848e-05
1.9201e-05
-2.3141e-05
2.03619e-05
-2.55569e-05
2.14546e-05
-2.80063e-05
2.24615e-05
-3.04588e-05
2.3364e-05
-3.28795e-05
2.4143e-05
-3.52286e-05
2.4779e-05
-3.74616e-05
2.52531e-05
2.55471e-05
-4.51725e-08
4.16645e-07
-1.8211e-07
1.27342e-06
-4.16065e-07
2.19158e-06
-7.51931e-07
3.17078e-06
-1.19412e-06
4.20991e-06
-1.74641e-06
5.3071e-06
-2.41181e-06
6.45965e-06
-3.19241e-06
7.66389e-06
-4.08915e-06
8.91516e-06
-5.10167e-06
1.02076e-05
-6.22806e-06
1.15343e-05
-7.46462e-06
1.28867e-05
-8.80563e-06
1.42551e-05
-1.0243e-05
1.56282e-05
-1.17662e-05
1.69932e-05
-1.33616e-05
1.83356e-05
-1.50122e-05
1.96394e-05
-1.66978e-05
2.08866e-05
-1.83939e-05
2.2058e-05
-2.00718e-05
2.31325e-05
-2.1698e-05
2.40877e-05
-2.32341e-05
2.49001e-05
-2.4636e-05
2.55449e-05
-2.58541e-05
2.59971e-05
-2.68326e-05
2.62316e-05
-2.75095e-05
2.6224e-05
2.59518e-05
-3.7809e-08
4.54454e-07
-1.51613e-07
1.38723e-06
-3.44804e-07
2.38477e-06
-6.20254e-07
3.44623e-06
-9.80176e-07
4.56983e-06
-1.42597e-06
5.7529e-06
-1.95808e-06
6.99175e-06
-2.57577e-06
8.28158e-06
-3.27697e-06
9.61636e-06
-4.05802e-06
1.09887e-05
-4.91347e-06
1.23897e-05
-5.83577e-06
1.3809e-05
-6.81501e-06
1.52343e-05
-7.83864e-06
1.66518e-05
-8.89109e-06
1.80457e-05
-9.95344e-06
1.9398e-05
-1.10031e-05
2.0689e-05
-1.20132e-05
2.18967e-05
-1.29524e-05
2.29973e-05
-1.37846e-05
2.39646e-05
-1.44678e-05
2.4771e-05
-1.49544e-05
2.53867e-05
-1.51902e-05
2.57807e-05
-1.51144e-05
2.59212e-05
-1.46584e-05
2.57757e-05
-1.37465e-05
2.53121e-05
2.44999e-05
-2.95861e-08
4.8404e-07
-1.17529e-07
1.47517e-06
-2.65114e-07
2.53236e-06
-4.72924e-07
3.65404e-06
-7.4069e-07
4.8376e-06
-1.06712e-06
6.07933e-06
-1.44973e-06
7.37436e-06
-1.88464e-06
8.71649e-06
-2.36634e-06
1.00981e-05
-2.8875e-06
1.15098e-05
-3.43865e-06
1.29408e-05
-4.00791e-06
1.43782e-05
-4.58072e-06
1.58071e-05
-5.13942e-06
1.72105e-05
-5.66298e-06
1.85692e-05
-6.12653e-06
1.98615e-05
-6.50098e-06
2.10634e-05
-6.75252e-06
2.21483e-05
-6.84218e-06
2.30869e-05
-6.72528e-06
2.38477e-05
-6.35086e-06
2.43965e-05
-5.66114e-06
2.46969e-05
-4.59085e-06
2.47105e-05
-3.06666e-06
2.4397e-05
-1.0065e-06
2.37155e-05
1.681e-06
2.26246e-05
5.09708e-06
2.10838e-05
1.90551e-05
-2.05276e-08
5.04568e-07
-7.99544e-08
1.53459e-06
-1.77218e-07
2.62962e-06
-3.10351e-07
3.78718e-06
-4.76315e-07
5.00356e-06
-6.70823e-07
6.27384e-06
-8.88141e-07
7.59168e-06
-1.12087e-06
8.94922e-06
-1.35973e-06
1.03369e-05
-1.59326e-06
1.17434e-05
-1.80756e-06
1.31552e-05
-1.98599e-06
1.45567e-05
-2.10879e-06
1.59299e-05
-2.15276e-06
1.72545e-05
-2.09081e-06
1.85073e-05
-1.89155e-06
1.96623e-05
-1.51884e-06
2.06907e-05
-9.31228e-07
2.15607e-05
-8.14167e-08
2.22371e-05
1.08433e-06
2.2682e-05
2.62684e-06
2.2854e-05
4.61475e-06
2.2709e-05
7.12523e-06
2.22e-05
1.02448e-05
2.12774e-05
1.40703e-05
1.98901e-05
1.87093e-05
1.79856e-05
2.42817e-05
1.55115e-05
3.09197e-05
1.2417e-05
8.65525e-06
-1.0637e-08
5.15205e-07
-3.89075e-08
1.56287e-06
-8.11618e-08
2.67188e-06
-1.32625e-07
3.83864e-06
-1.87215e-07
5.05815e-06
-2.37343e-07
6.32397e-06
-2.73709e-07
7.62805e-06
-2.85061e-07
8.96057e-06
-2.57938e-07
1.03098e-05
-1.76392e-07
1.16618e-05
-2.16762e-08
1.30004e-05
2.28094e-07
1.43069e-05
5.98303e-07
1.55597e-05
1.11824e-06
1.67346e-05
1.82154e-06
1.7804e-05
2.74665e-06
1.87372e-05
3.93735e-06
1.95e-05
5.44333e-06
2.00547e-05
7.32077e-06
2.03597e-05
9.63308e-06
2.03697e-05
1.24516e-05
2.00355e-05
1.58563e-05
1.93043e-05
1.9937e-05
1.81193e-05
2.4794e-05
1.64205e-05
3.05392e-05
1.41449e-05
3.72973e-05
1.12274e-05
4.52073e-05
7.6015e-06
5.44231e-05
3.20122e-06
-2.03683e-06
1.00713e-10
5.15104e-07
5.67028e-09
1.5573e-06
2.31779e-08
2.65437e-06
6.04593e-08
3.80136e-06
1.26916e-07
4.9917e-06
2.33729e-07
6.21716e-06
3.94084e-07
7.46769e-06
6.23434e-07
8.73123e-06
9.39768e-07
9.99347e-06
1.36392e-06
1.12377e-05
1.91992e-06
1.24444e-05
2.6353e-06
1.35915e-05
3.54157e-06
1.46534e-05
4.67458e-06
1.56016e-05
6.07504e-06
1.64035e-05
7.78899e-06
1.70232e-05
9.86839e-06
1.74206e-05
1.23717e-05
1.75514e-05
1.53647e-05
1.73667e-05
1.89209e-05
1.68135e-05
2.31226e-05
1.58338e-05
2.80619e-05
1.4365e-05
3.38414e-05
1.23398e-05
4.05755e-05
9.68634e-06
4.83917e-05
6.32869e-06
5.7432e-05
2.18715e-06
6.78542e-05
-2.8207e-06
7.9834e-05
9.35666e-05
1.17179e-08
5.03386e-07
5.38945e-08
1.51512e-06
1.3605e-07
2.57221e-06
2.69329e-07
3.66808e-06
4.66721e-07
4.79431e-06
7.43287e-07
5.94059e-06
1.11642e-06
7.09456e-06
1.60609e-06
8.24155e-06
2.2352e-06
9.36436e-06
3.02985e-06
1.0443e-05
4.01976e-06
1.14545e-05
5.23858e-06
1.23727e-05
6.72439e-06
1.31676e-05
8.52014e-06
1.38058e-05
1.06741e-05
1.42495e-05
1.32405e-05
1.44568e-05
1.62801e-05
1.43811e-05
1.98606e-05
1.39708e-05
2.40579e-05
1.31694e-05
2.89564e-05
1.19151e-05
3.46499e-05
1.01403e-05
4.12428e-05
7.77206e-06
4.88511e-05
4.73143e-06
5.76037e-05
6.76434e-05
7.91291e-05
2.42493e-08
4.79137e-07
1.059e-07
1.43347e-06
2.57744e-07
2.42037e-06
4.94477e-07
3.43135e-06
8.32935e-07
4.45585e-06
1.29235e-06
5.48118e-06
1.89461e-06
6.4923e-06
2.66457e-06
7.47159e-06
3.63037e-06
8.39855e-06
4.82381e-06
9.24959e-06
6.28067e-06
9.99768e-06
8.04122e-06
1.06121e-05
1.01506e-05
1.10583e-05
1.26593e-05
1.12971e-05
1.56239e-05
1.1285e-05
1.91072e-05
1.09735e-05
2.31795e-05
1.03088e-05
2.79185e-05
9.23178e-06
3.34107e-05
7.67718e-06
3.9752e-05
4.70485e-05
5.54175e-05
3.77241e-08
4.41413e-07
1.61788e-07
1.3094e-06
3.88466e-07
2.19369e-06
7.36236e-07
3.08358e-06
1.22603e-06
3.96605e-06
1.88153e-06
4.82568e-06
2.72942e-06
5.64441e-06
3.79975e-06
6.40125e-06
5.12629e-06
7.07202e-06
6.74686e-06
7.62901e-06
8.70382e-06
8.04072e-06
1.10445e-05
8.2715e-06
1.38215e-05
8.28122e-06
1.70936e-05
8.02493e-06
2.09261e-05
7.45251e-06
2.53913e-05
3.05693e-05
3.65489e-05
5.21468e-08
3.89266e-07
2.21561e-07
1.13999e-06
5.28197e-07
1.88705e-06
9.94529e-07
2.61724e-06
1.64583e-06
3.31475e-06
2.51046e-06
3.96105e-06
3.62021e-06
4.53466e-06
5.01065e-06
5.01082e-06
6.72147e-06
5.36119e-06
8.79697e-06
5.55351e-06
1.12864e-05
5.55125e-06
1.42447e-05
5.31325e-06
1.77325e-05
2.18174e-05
6.7483e-08
3.21783e-07
2.85065e-07
9.22409e-07
6.76557e-07
1.49556e-06
1.26862e-06
2.02518e-06
2.09107e-06
2.4923e-06
3.17722e-06
2.87491e-06
4.56418e-06
3.14769e-06
6.29333e-06
3.28168e-06
8.41063e-06
1.09672e-05
1.40196e-05
8.36487e-08
2.38135e-07
3.51947e-07
6.54111e-07
8.32711e-07
1.0148e-06
1.55695e-06
2.55922e-06
3.87793e-06
5.55579e-06
1.00506e-07
4.21641e-07
-6.8567e-08
-2.78812e-07
)
;

boundaryField
{
    inlet
    {
        type            calculated;
        value           nonuniform 0();
    }
    outlet
    {
        type            calculated;
        value           nonuniform 0();
    }
    cylinder
    {
        type            calculated;
        value           uniform 0;
    }
    top
    {
        type            symmetryPlane;
        value           nonuniform 0();
    }
    bottom
    {
        type            symmetryPlane;
        value           nonuniform 0();
    }
    defaultFaces
    {
        type            empty;
        value           nonuniform 0();
    }
    procBoundary21to15
    {
        type            processor;
        value           nonuniform List<scalar> 
26
(
1.25123e-12
1.65456e-12
2.06978e-12
2.50291e-12
2.95282e-12
3.41672e-12
3.89147e-12
4.37327e-12
4.85788e-12
5.34109e-12
5.81906e-12
6.28781e-12
6.7425e-12
7.17724e-12
7.58596e-12
7.96493e-12
8.31304e-12
8.62881e-12
8.90968e-12
9.15756e-12
9.39279e-12
9.60666e-12
6.85671e-08
2.10246e-07
3.62879e-07
-6.4169e-07
)
;
    }
    procBoundary21to16
    {
        type            processor;
        value           uniform -6.49558e-05;
    }
    procBoundary21to22
    {
        type            processor;
        value           nonuniform List<scalar> 
16
(
-6.30774e-05
-5.93412e-05
-1.60267e-05
-5.7993e-05
-4.97185e-05
-3.95289e-05
-2.56446e-05
-2.78167e-05
-1.22947e-05
-2.33112e-05
9.35321e-06
-1.65047e-05
3.87691e-05
6.51152e-05
8.17024e-06
0.000109269
)
;
    }
    procBoundary21to27
    {
        type            processor;
        value           nonuniform List<scalar> 
37
(
-8.77859e-06
-1.57695e-05
-2.38724e-05
9.3382e-07
-3.711e-06
-9.29854e-06
9.22373e-05
-1.59289e-05
5.57377e-06
2.84385e-06
-5.96942e-07
6.49888e-05
-4.83984e-06
6.50832e-06
5.13081e-06
3.2522e-06
4.3428e-05
7.98054e-07
4.79337e-06
3.94005e-06
2.6574e-05
2.69597e-06
3.24388e-06
2.99697e-06
2.49882e-06
1.76307e-05
1.70219e-06
1.30094e-06
1.49004e-06
1.5562e-06
1.46983e-06
7.64019e-06
1.19728e-06
1.37628e-07
3.32976e-07
9.9534e-07
4.41099e-07
)
;
    }
}


// ************************************************************************* //
