/*--------------------------------*- C++ -*----------------------------------*\
  =========                 |
  \\      /  F ield         | OpenFOAM: The Open Source CFD Toolbox
   \\    /   O peration     | Website:  https://openfoam.org
    \\  /    A nd           | Version:  7
     \\/     M anipulation  |
\*---------------------------------------------------------------------------*/
FoamFile
{
    version     2.0;
    format      ascii;
    class       volVectorField;
    location    "16";
    object      U;
}
// * * * * * * * * * * * * * * * * * * * * * * * * * * * * * * * * * * * * * //

dimensions      [0 1 -1 0 0 0 0];

internalField   nonuniform List<vector> 
433
(
(-1.33978e-05 7.71241e-05 -9.60005e-22)
(-7.67803e-05 0.000225151 3.40808e-21)
(-0.000218568 0.000369375 -8.43681e-22)
(-0.000438946 0.000509327 -3.8511e-22)
(-0.000737402 0.000644522 -1.50215e-21)
(-0.00111629 0.000774407 1.23253e-21)
(-0.00157818 0.000898412 -3.2667e-21)
(-0.00212492 0.00101598 3.37491e-21)
(-0.00275771 0.00112655 -6.97171e-22)
(-0.00347718 0.00122959 -2.36506e-21)
(-0.00428334 0.00132457 2.8058e-21)
(-0.00517548 0.00141099 -9.08288e-22)
(-0.00615215 0.00148838 -3.43381e-21)
(-0.00721108 0.00155631 1.60438e-21)
(-0.00834918 0.00161438 6.1559e-22)
(-0.00956247 0.00166227 -2.43378e-21)
(-0.0108461 0.00169969 5.85639e-21)
(-0.0121942 0.00172643 -1.81812e-21)
(-0.0136003 0.00174237 -3.29585e-21)
(-0.0150567 0.00174745 2.16196e-21)
(-0.0165551 0.00174174 1.45986e-21)
(-0.0180865 0.00172538 -1.37835e-21)
(-0.0196409 0.00169866 -1.43969e-21)
(-0.0212082 0.00166198 2.55704e-21)
(-0.0227776 0.00161588 -1.82474e-21)
(-2.52511e-05 0.000229711 9.99955e-22)
(-0.000110778 0.000670552 -4.18949e-21)
(-0.000272839 0.00110003 -4.75458e-22)
(-0.000511496 0.00151675 7.41736e-21)
(-0.000826113 0.00191925 -1.73421e-21)
(-0.00121886 0.00230589 -2.91275e-21)
(-0.00169208 0.00267496 6.82926e-21)
(-0.00224742 0.00302478 -4.50399e-21)
(-0.00288587 0.00335372 -2.28565e-21)
(-0.00360786 0.00366014 3.51234e-21)
(-0.00441316 0.00394249 3.20605e-21)
(-0.00530086 0.00419928 -8.06968e-21)
(-0.00626927 0.00442909 -1.09685e-21)
(-0.00731591 0.00463064 6.92002e-21)
(-0.00843745 0.00480275 2.40459e-21)
(-0.0096297 0.00494443 5.52589e-21)
(-0.0108876 0.00505485 -1.18766e-20)
(-0.012205 0.00513337 1.5933e-21)
(-0.0135753 0.00517962 2.53431e-21)
(-0.0149905 0.00519346 -4.27766e-21)
(-0.0164422 0.00517505 -6.19832e-21)
(-0.017921 0.00512487 2.88618e-21)
(-0.0194169 0.00504373 -5.6674e-21)
(-0.0209194 0.00493287 1.58142e-20)
(-0.0224176 0.0047939 -1.2318e-20)
(-4.85141e-05 0.000377355 -4.95804e-21)
(-0.000177465 0.00110137 -2.67512e-21)
(-0.00037923 0.0018066 8.97291e-21)
(-0.000653623 0.00249074 -4.41844e-21)
(-0.000999757 0.00315137 6.37821e-21)
(-0.00141941 0.00378576 -1.6035e-20)
(-0.00191453 0.00439111 4.34828e-21)
(-0.00248634 0.00496465 -2.09052e-22)
(-0.00313541 0.00550366 1.47233e-22)
(-0.00386174 0.00600546 -1.07417e-20)
(-0.00466467 0.00646747 1.58508e-20)
(-0.00554283 0.00688724 7.68914e-22)
(-0.00649411 0.00726243 2.37384e-21)
(-0.00751558 0.00759092 -1.15106e-20)
(-0.00860347 0.00787078 8.64971e-21)
(-0.00975312 0.00810035 6.79941e-21)
(-0.010959 0.00827827 -8.94331e-21)
(-0.0122147 0.00840352 7.40975e-21)
(-0.0135129 0.00847545 -8.4512e-21)
(-0.0148454 0.00849386 3.13642e-21)
(-0.0162032 0.008459 7.40385e-21)
(-0.0175767 0.00837168 1.27876e-20)
(-0.0189553 0.00823328 -2.46653e-20)
(-0.0203281 0.00804581 1.47146e-20)
(-0.021684 0.00781198 -7.51684e-21)
(-8.23127e-05 0.000516898 1.78835e-21)
(-0.000274265 0.00150826 1.32077e-20)
(-0.000533495 0.00247367 -1.03373e-20)
(-0.000859447 0.00340989 1.14818e-20)
(-0.00125086 0.00431357 -1.19593e-20)
(-0.00170893 0.00518095 1.16923e-21)
(-0.002235 0.00600816 4.98353e-21)
(-0.00282966 0.00679137 -1.39324e-20)
(-0.00349287 0.00752682 4.24589e-21)
(-0.00422397 0.00821083 1.43261e-20)
(-0.00502166 0.00883985 -2.09292e-20)
(-0.00588393 0.00941045 3.70431e-20)
(-0.00680799 0.00991946 -3.202e-20)
(-0.00779024 0.0103639 4.37482e-21)
(-0.00882626 0.0107412 1.78798e-20)
(-0.00991074 0.011049 -4.91533e-21)
(-0.0110375 0.0112854 -6.57525e-21)
(-0.0121994 0.0114491 -2.41054e-20)
(-0.0133885 0.0115391 2.65728e-20)
(-0.014596 0.0115553 -2.07814e-20)
(-0.0158123 0.0114979 -5.76823e-21)
(-0.0170269 0.011368 -5.72814e-22)
(-0.018229 0.0111677 1.75128e-20)
(-0.0194069 0.0108997 -1.39871e-20)
(-0.0205488 0.0105679 1.8121e-20)
(-0.0216426 0.0101769 -2.32872e-20)
(-0.000125365 0.000645377 2.40834e-21)
(-0.000397393 0.00188249 1.21066e-20)
(-0.000729394 0.00308676 1.40529e-20)
(-0.00112032 0.00425406 -1.76791e-20)
(-0.00156839 0.00538017 -5.9138e-21)
(-0.00207408 0.00646031 1.71862e-20)
(-0.00263788 0.0074896 -3.95177e-21)
(-0.00325957 0.00846323 -2.30543e-21)
(-0.00393828 0.00937646 -3.76872e-21)
(-0.00467252 0.0102246 -3.93734e-21)
(-0.00546011 0.0110033 -1.37826e-20)
(-0.00629817 0.0117081 2.36367e-20)
(-0.00718306 0.0123351 1.86774e-20)
(-0.00811029 0.0128805 -2.22045e-20)
(-0.00907455 0.0133411 2.14519e-20)
(-0.0100697 0.0137139 -3.63061e-20)
(-0.0110886 0.0139965 8.07921e-21)
(-0.0121233 0.0141874 5.35776e-21)
(-0.013165 0.0142853 -4.75026e-21)
(-0.0142041 0.0142898 1.78054e-20)
(-0.0152301 0.0142017 -2.35937e-20)
(-0.0162317 0.0140221 -3.81781e-21)
(-0.0171973 0.0137537 -1.73753e-20)
(-0.0181143 0.0134 4.33706e-20)
(-0.0189702 0.0129658 -4.69523e-21)
(-0.0197521 0.0124575 -1.76761e-20)
(-0.000176016 0.000760087 1.8584e-20)
(-0.00054195 0.00221604 -2.21347e-20)
(-0.000958832 0.0036326 5.141e-21)
(-0.00142499 0.00500481 2.18902e-20)
(-0.00193803 0.00632758 -2.32503e-20)
(-0.00249747 0.00759521 3.91479e-22)
(-0.0031028 0.0088019 6.51101e-21)
(-0.00375279 0.0099419 1.48578e-20)
(-0.00444552 0.0110096 -1.04179e-20)
(-0.00517847 0.0119994 8.98784e-21)
(-0.00594839 0.0129059 1.53176e-20)
(-0.00675135 0.0137242 -1.99558e-20)
(-0.0075826 0.0144494 1.42656e-22)
(-0.00843658 0.0150771 -1.20792e-20)
(-0.00930691 0.0156033 2.93739e-20)
(-0.0101863 0.0160247 -2.69387e-20)
(-0.0110667 0.0163385 1.31639e-20)
(-0.0119389 0.0165425 2.31842e-21)
(-0.0127933 0.0166356 4.28446e-21)
(-0.0136189 0.0166173 1.29543e-20)
(-0.0144044 0.0164882 -5.43122e-20)
(-0.0151375 0.0162503 3.26739e-20)
(-0.0158054 0.0159063 3.83212e-20)
(-0.0163948 0.0154607 -4.55303e-20)
(-0.0168921 0.0149194 4.79577e-20)
(-0.0172833 0.0142898 -5.92281e-20)
(-0.000232269 0.000858623 -9.75046e-21)
(-0.000702024 0.00250176 3.83694e-20)
(-0.00121202 0.00409934 -3.26801e-20)
(-0.00175985 0.00564563 -1.64947e-21)
(-0.00234236 0.00713471 -1.15017e-21)
(-0.00295795 0.00856005 3.18929e-20)
(-0.00360491 0.00991501 -4.37517e-21)
(-0.00428082 0.011193 -6.6571e-21)
(-0.00498255 0.0123876 1.54428e-21)
(-0.00570631 0.0134924 -1.32408e-20)
(-0.00644763 0.0145014 2.53595e-20)
(-0.00720129 0.0154086 -5.68116e-20)
(-0.00796126 0.0162088 4.90172e-20)
(-0.00872073 0.0168968 1.37716e-20)
(-0.00947201 0.0174681 -3.07476e-22)
(-0.0102066 0.0179189 -2.41638e-20)
(-0.010915 0.018246 3.10956e-20)
(-0.0115871 0.0184472 2.79026e-20)
(-0.0122116 0.0185208 -5.20708e-20)
(-0.0127767 0.0184667 1.35529e-20)
(-0.0132697 0.0182855 -3.06426e-20)
(-0.013677 0.0179793 2.63649e-20)
(-0.0139848 0.0175516 4.19926e-20)
(-0.0141786 0.0170074 -8.76003e-20)
(-0.0142434 0.0163537 3.40081e-20)
(-0.0141644 0.0155991 2.38014e-20)
(-0.0139266 0.0147547 -2.0861e-20)
(-0.000291829 0.0009389 -3.44979e-21)
(-0.000870794 0.00273347 1.1517e-20)
(-0.00147764 0.00447672 -2.03802e-20)
(-0.00210909 0.00616219 -1.25892e-20)
(-0.00276111 0.00778323 1.22584e-20)
(-0.00343084 0.00933256 5.22578e-21)
(-0.00411519 0.0108028 2.85076e-20)
(-0.00481035 0.0121867 -5.4877e-21)
(-0.00551179 0.013477 -2.8414e-20)
(-0.00621431 0.0146668 -3.3514e-20)
(-0.006912 0.0157492 3.81761e-20)
(-0.00759819 0.016718 -1.3274e-20)
(-0.00826539 0.0175669 -2.8439e-20)
(-0.00890532 0.0182905 -8.38441e-21)
(-0.00950885 0.0188839 7.937e-20)
(-0.010066 0.0193428 -2.95075e-20)
(-0.0105659 0.0196637 2.08393e-20)
(-0.0109969 0.0198441 -3.09337e-20)
(-0.0113464 0.0198825 2.93136e-20)
(-0.0116012 0.0197784 -5.67253e-20)
(-0.0117471 0.0195329 3.25952e-20)
(-0.0117694 0.0191483 7.02208e-21)
(-0.0116527 0.0186285 -1.26257e-20)
(-0.0113811 0.0179792 -5.72905e-20)
(-0.0109386 0.0172083 7.03612e-20)
(-0.0103088 0.0163255 -9.56626e-21)
(-0.00947546 0.0153434 -2.20944e-20)
(-0.000352132 0.000999168 2.02416e-20)
(-0.00104063 0.00290594 4.71448e-21)
(-0.00174297 0.00475607 1.56373e-21)
(-0.00245493 0.00654243 1.72512e-20)
(-0.00317146 0.00825769 -3.01265e-20)
(-0.00388827 0.00989397 -3.02152e-20)
(-0.00460073 0.0114433 3.87879e-20)
(-0.00530348 0.0128978 3.14666e-20)
(-0.00599044 0.0142497 -2.53704e-20)
(-0.00665481 0.0154915 4.34294e-21)
(-0.00728909 0.0166159 -5.1653e-20)
(-0.00788495 0.017616 6.88186e-20)
(-0.00843332 0.0184852 -4.56977e-20)
(-0.00892428 0.0192178 -2.63676e-21)
(-0.00934706 0.0198083 5.30253e-20)
(-0.00969007 0.0202524 -7.70041e-20)
(-0.00994089 0.0205462 -5.47791e-21)
(-0.0100862 0.0206872 5.94221e-20)
(-0.010112 0.0206737 -5.85633e-21)
(-0.0100034 0.0205055 -3.06581e-20)
(-0.00974473 0.0201837 -9.04633e-21)
(-0.00931979 0.0197108 2.47921e-20)
(-0.00871173 0.0190912 -4.35464e-20)
(-0.00790322 0.0183312 3.16743e-20)
(-0.00687661 0.0174394 2.9057e-20)
(-0.00561412 0.0164266 -4.18893e-20)
(-0.00409807 0.0153066 6.84397e-20)
(-0.00231117 0.0140963 3.14444e-20)
(-0.000410373 0.001038 -4.92737e-21)
(-0.00120314 0.00301493 3.28534e-20)
(-0.00199404 0.00493033 -4.3304e-20)
(-0.00277777 0.0067765 5.57645e-20)
(-0.00354815 0.00854553 -4.45595e-20)
(-0.00429934 0.0102291 2.57391e-20)
(-0.005025 0.0118187 -2.59064e-20)
(-0.00571808 0.0133061 -2.47896e-20)
(-0.00637078 0.0146832 4.7068e-20)
(-0.00697459 0.0159419 2.28382e-21)
(-0.0075202 0.0170747 -5.19828e-20)
(-0.00799756 0.0180742 5.80616e-20)
(-0.00839578 0.0189337 -3.08668e-20)
(-0.00870318 0.0196471 -9.53534e-23)
(-0.00890724 0.0202089 -1.47324e-20)
(-0.00899461 0.0206144 3.69839e-20)
(-0.00895113 0.0208598 3.00153e-20)
(-0.00876181 0.0209425 -3.97463e-20)
(-0.00841089 0.0208608 2.42045e-20)
(-0.00788186 0.0206147 -2.18255e-20)
(-0.00715748 0.0202053 -3.86061e-21)
(-0.0062199 0.0196356 8.85021e-21)
(-0.00505067 0.0189102 -4.44449e-21)
(-0.00363088 0.0180359 1.28902e-21)
(-0.00194131 0.0170219 -4.20204e-20)
(3.74414e-05 0.0158799 -1.29515e-20)
(0.00232471 0.0146246 1.35744e-19)
(0.00493945 0.0132744 -1.47673e-19)
(0.00789988 0.0118514 3.72577e-20)
(-0.000463517 0.00105426 1.52231e-20)
(-0.00134927 0.00305709 3.25432e-20)
(-0.00221569 0.00499397 -7.38909e-20)
(-0.00305629 0.00685676 5.84359e-20)
(-0.00386369 0.00863706 -7.79378e-21)
(-0.00463034 0.0103262 -3.76377e-20)
(-0.00534807 0.0119155 -2.85762e-20)
(-0.00600801 0.0133964 4.00707e-20)
(-0.00660051 0.0147605 -4.3798e-20)
(-0.00711517 0.0159996 3.03365e-20)
(-0.0075408 0.0171058 -3.2433e-20)
(-0.00786544 0.0180719 9.02652e-21)
(-0.0080763 0.0188909 7.1312e-20)
(-0.00815979 0.0195565 -9.08866e-20)
(-0.0081015 0.0200633 3.30519e-20)
(-0.00788621 0.0204065 1.7259e-20)
(-0.00749791 0.0205825 3.4603e-20)
(-0.00691981 0.0205887 -5.58236e-20)
(-0.00613436 0.0204236 1.07364e-19)
(-0.00512331 0.0200872 -1.0572e-20)
(-0.00386771 0.0195811 -4.23098e-20)
(-0.00234802 0.0189082 -7.46657e-20)
(-0.000544146 0.0180738 6.3437e-20)
(0.00156445 0.0170849 1.10433e-21)
(0.00399866 0.0159511 6.91593e-20)
(0.00677955 0.0146846 -1.02764e-19)
(0.00992816 0.013301 -8.43166e-21)
(0.0134653 0.0118194 1.18944e-20)
(0.017411 0.0102634 1.19893e-20)
(-0.000508312 0.00104711 -2.02987e-20)
(-0.00146928 0.00302994 2.30244e-21)
(-0.00239163 0.00494296 3.4195e-20)
(-0.00326758 0.00677767 -1.54691e-20)
(-0.00408848 0.00852533 3.54511e-20)
(-0.00484493 0.0101771 -4.55836e-20)
(-0.00552686 0.0117243 3.86518e-20)
(-0.00612343 0.0131581 1.16798e-21)
(-0.00662302 0.0144703 -5.61672e-20)
(-0.00701325 0.0156525 5.06285e-20)
(-0.00728093 0.016697 7.47995e-21)
(-0.00741206 0.0175963 -7.39881e-21)
(-0.00739184 0.0183438 -1.99652e-21)
(-0.00720466 0.0189333 -4.8365e-20)
(-0.00683413 0.0193593 2.84848e-20)
(-0.00626306 0.0196175 5.67788e-20)
(-0.00547349 0.0197043 -1.03299e-19)
(-0.00444674 0.0196174 7.27171e-21)
(-0.0031634 0.0193556 4.21346e-20)
(-0.0016034 0.0189192 3.79748e-20)
(0.000253955 0.0183099 -1.09447e-19)
(0.00242992 0.0175312 8.59238e-20)
(0.00494626 0.0165885 7.4586e-21)
(0.00782518 0.0154892 -4.43745e-21)
(0.0110892 0.014243 3.55754e-20)
(0.014761 0.0128627 -9.71973e-20)
(0.0188633 0.0113638 6.90946e-20)
(0.0234188 0.00976611 -2.92147e-20)
(0.0284495 0.00809359 2.56087e-20)
(0.0339764 0.0063759 -4.73298e-20)
(-0.000541295 0.00101599 -1.68435e-20)
(-0.00155281 0.00293183 1.26938e-20)
(-0.00250448 0.00477468 -6.04071e-20)
(-0.00338719 0.00653577 4.50485e-20)
(-0.00419091 0.00820614 -7.67176e-21)
(-0.00490435 0.009777 3.36607e-20)
(-0.00551539 0.0112397 -2.63579e-20)
(-0.00601113 0.0125858 -2.80576e-20)
(-0.00637791 0.0138069 1.94089e-20)
(-0.00660126 0.0148951 -1.61635e-20)
(-0.00666587 0.0158427 -1.95884e-20)
(-0.00655564 0.0166427 2.05471e-20)
(-0.00625364 0.0172885 1.37833e-20)
(-0.00574218 0.0177744 4.48018e-21)
(-0.00500277 0.0180954 7.47769e-21)
(-0.00401616 0.0182473 -8.46834e-21)
(-0.0027624 0.0182272 -7.18343e-21)
(-0.00122081 0.018033 -1.62939e-20)
(0.000629904 0.017664 5.64968e-21)
(0.00281167 0.0171211 -4.47417e-20)
(0.00534697 0.0164063 9.48394e-20)
(0.00825878 0.0155235 -4.09763e-20)
(0.0115705 0.0144784 4.17554e-20)
(0.015306 0.0132787 8.41677e-21)
(0.0194892 0.0119344 -4.04231e-20)
(0.0241444 0.0104581 -6.75687e-21)
(0.029296 0.00886547 7.3458e-21)
(-0.000558783 0.000960582 -2.5971e-20)
(-0.00158885 0.00276198 7.56261e-20)
(-0.00253584 0.00448798 -1.20791e-20)
(-0.00338925 0.00612971 6.90164e-21)
(-0.00413762 0.00767807 -6.3306e-20)
(-0.00476767 0.00912455 5.72565e-20)
(-0.00526516 0.0104608 -2.54964e-20)
(-0.00561507 0.0116787 -2.54844e-21)
(-0.0058016 0.0127704 6.35358e-20)
(-0.0058081 0.0137281 -8.7145e-20)
(-0.00561708 0.0145449 2.18724e-20)
(-0.00521026 0.015214 -2.38914e-21)
(-0.00456851 0.0157296 2.68042e-20)
(-0.00367194 0.0160863 2.96947e-20)
(-0.00249992 0.0162799 -5.61873e-20)
(-0.00103108 0.0163068 -1.21299e-20)
(0.000756635 0.0161646 1.02718e-19)
(0.00288591 0.0158521 -5.61935e-20)
(0.00538 0.0153691 5.2895e-21)
(0.00826273 0.0147172 5.79874e-20)
(0.0115584 0.0138991 -1.54242e-19)
(0.0152915 0.0129192 9.58191e-20)
(0.0194873 0.0117838 -6.46055e-20)
(-0.000556903 0.000880903 2.09341e-20)
(-0.00156586 0.00252053 -1.90261e-20)
(-0.00246645 0.00408331 -2.34397e-21)
(-0.00324674 0.00556039 -3.38061e-21)
(-0.00389379 0.00694271 5.91094e-20)
(-0.00439228 0.00822216 -4.46888e-20)
(-0.00472578 0.009391 -2.82512e-20)
(-0.00487709 0.0104416 5.68417e-20)
(-0.00482821 0.0113667 -1.50235e-20)
(-0.00456025 0.0121592 2.14114e-20)
(-0.00405349 0.0128129 2.62916e-20)
(-0.00328736 0.0133217 -7.21136e-20)
(-0.00224048 0.0136806 8.44899e-20)
(-0.000890727 0.013885 -1.82144e-20)
(0.00078478 0.0139315 4.04316e-20)
(0.0028096 0.0138175 -5.68807e-20)
(0.00520792 0.0135414 -6.26159e-20)
(0.00800451 0.0131031 4.48517e-20)
(0.0112247 0.0125033 -2.2043e-20)
(-0.000531626 0.000777307 2.98683e-20)
(-0.00147186 0.00220868 -1.31887e-20)
(-0.00227639 0.00356293 2.62058e-20)
(-0.00293181 0.00483134 -5.14787e-20)
(-0.00342365 0.00600498 1.77578e-20)
(-0.00373454 0.00707639 1.84472e-20)
(-0.00384579 0.00803856 -1.03903e-20)
(-0.00373799 0.00888468 4.90646e-20)
(-0.00339088 0.00960823 -4.94559e-20)
(-0.0027833 0.0102031 5.34915e-20)
(-0.00189322 0.0106639 -1.71147e-20)
(-0.00069774 0.0109856 -5.53586e-20)
(0.000826817 0.0111641 3.92845e-20)
(0.0027049 0.011196 -9.27819e-20)
(0.00496168 0.011079 1.17348e-19)
(-0.000478836 0.000650585 -1.09827e-20)
(-0.00129467 0.00182895 -6.38064e-21)
(-0.00194548 0.00293129 4.15425e-20)
(-0.00241634 0.00394911 -4.26173e-20)
(-0.00269126 0.00487373 2.27371e-20)
(-0.00275073 0.00569851 2.99083e-20)
(-0.00257384 0.00641741 -9.55329e-20)
(-0.00213891 0.00702461 3.43632e-20)
(-0.00142339 0.00751461 4.73473e-20)
(-0.000403802 0.00788242 7.59852e-21)
(0.000944227 0.00812368 -2.97748e-20)
(0.00264595 0.0082347 2.51004e-20)
(-0.000394437 0.000502048 2.43866e-20)
(-0.00102222 0.00138541 -5.26636e-20)
(-0.00145379 0.00219535 -1.58087e-20)
(-0.0016727 0.00292374 3.24102e-20)
(-0.0016614 0.00356224 3.56538e-20)
(-0.00139827 0.0041052 4.8765e-21)
(-0.000860119 0.00454775 -1.08407e-19)
(-2.29946e-05 0.00488523 6.09373e-20)
(-0.000274483 0.000333614 1.62581e-20)
(-0.000642929 0.000883894 1.50314e-20)
(-0.0007823 0.00136503 7.74677e-21)
(-1.33979e-05 -7.71249e-05 9.60005e-22)
(-7.67804e-05 -0.000225153 -3.40808e-21)
(-0.000218568 -0.000369379 8.43681e-22)
)
;

boundaryField
{
    inlet
    {
        type            uniformFixedValue;
        uniformValue    constant (1 0 0);
        value           nonuniform 0();
    }
    outlet
    {
        type            pressureInletOutletVelocity;
        value           nonuniform 0();
    }
    cylinder
    {
        type            fixedValue;
        value           uniform (0 0 0);
    }
    top
    {
        type            symmetryPlane;
    }
    bottom
    {
        type            symmetryPlane;
    }
    defaultFaces
    {
        type            empty;
    }
    procBoundary21to15
    {
        type            processor;
        value           nonuniform List<vector> 
26
(
(-0.000438946 -0.000509331 -3.25396e-21)
(-0.000737402 -0.000644528 1.58272e-21)
(-0.00111629 -0.000774414 -1.34099e-21)
(-0.00157818 -0.000898421 3.10297e-21)
(-0.00212492 -0.00101599 -3.61639e-21)
(-0.00275771 -0.00112656 1.09058e-21)
(-0.00347718 -0.0012296 2.24024e-21)
(-0.00428334 -0.00132458 -3.16373e-21)
(-0.00517548 -0.001411 -2.08705e-22)
(-0.00615215 -0.00148839 2.9124e-21)
(-0.00721108 -0.00155632 -1.48335e-21)
(-0.00834918 -0.0016144 -4.10849e-22)
(-0.00956247 -0.00166229 1.91967e-21)
(-0.0108461 -0.00169971 -4.92504e-21)
(-0.0121942 -0.00172645 1.18148e-21)
(-0.0136003 -0.00174238 2.99133e-21)
(-0.0150567 -0.00174747 -2.77328e-21)
(-0.0165551 -0.00174175 -2.59419e-21)
(-0.0180865 -0.0017254 3.96702e-21)
(-0.0196409 -0.00169867 1.52594e-21)
(-0.0212082 -0.00166199 -4.49562e-21)
(-0.0227776 -0.00161589 -4.05095e-22)
(-2.52511e-05 -0.000229712 -8.36842e-22)
(-0.000110778 -0.000670554 4.38025e-21)
(-0.000272839 -0.00110004 3.53724e-22)
(-0.000438946 -0.000509331 -3.25396e-21)
)
;
    }
    procBoundary21to16
    {
        type            processor;
        value           uniform (-0.0243381 0.00156105 2.40675e-21);
    }
    procBoundary21to22
    {
        type            processor;
        value           nonuniform List<vector> 
16
(
(-0.0239005 0.0046289 -5.85028e-21)
(-0.0230113 0.00753525 1.29649e-21)
(-0.0230113 0.00753525 1.29649e-21)
(-0.0226762 0.00973291 -2.07938e-20)
(-0.0204473 0.0118825 7.20174e-21)
(-0.0175548 0.0135813 -3.27285e-20)
(-0.0175548 0.0135813 -3.27285e-20)
(-0.0135158 0.0138338 -9.89642e-21)
(-0.00842294 0.0142772 5.60873e-20)
(-0.00842294 0.0142772 5.60873e-20)
(-0.000236969 0.0128162 6.54435e-20)
(-0.000236969 0.0128162 6.54435e-20)
(0.0112229 0.0103825 4.02171e-20)
(0.0217841 0.00866156 -2.50976e-20)
(0.0217841 0.00866156 -2.50976e-20)
(0.0400189 0.00464955 -1.18421e-20)
)
;
    }
    procBoundary21to27
    {
        type            processor;
        value           nonuniform List<vector> 
37
(
(0.0349682 0.0071759 -5.8115e-20)
(0.0411849 0.0054132 -7.09859e-20)
(0.0479691 0.00360684 1.09379e-20)
(0.024171 0.0105007 -7.47357e-21)
(0.029368 0.00908031 -1.10346e-20)
(0.0351039 0.00753508 5.78377e-20)
(0.0349682 0.0071759 -5.8115e-20)
(0.0414044 0.00588036 3.76246e-20)
(0.0148941 0.0117445 3.18641e-20)
(0.0190388 0.0108303 -9.73409e-20)
(0.0236853 0.00976601 -5.88228e-20)
(0.024171 0.0105007 -7.47357e-21)
(0.02886 0.00855856 4.62855e-20)
(0.00762297 0.0108115 1.19245e-19)
(0.0107152 0.0103935 -1.18098e-19)
(0.0142653 0.00982567 1.29454e-19)
(0.0148941 0.0117445 3.18641e-20)
(0.0183005 0.00911033 3.18474e-20)
(0.00472741 0.00821256 1.31096e-19)
(0.00721545 0.00805526 -7.54342e-20)
(0.00762297 0.0108115 1.19245e-19)
(0.0101376 0.00776176 5.0194e-20)
(0.00113794 0.00511337 5.25902e-20)
(0.0026485 0.00522847 -3.50095e-20)
(0.00453545 0.0052275 -7.34406e-20)
(0.00472741 0.00821256 1.31096e-19)
(0.00682641 0.00510819 8.02958e-20)
(-0.00067462 0.00176933 3.51961e-20)
(-0.000300778 0.0020889 -4.76169e-21)
(0.000362969 0.00231925 9.72589e-21)
(0.00134207 0.00245684 -1.13123e-20)
(0.00113794 0.00511337 5.25902e-20)
(0.00266275 0.00249836 3.63069e-21)
(-0.000115331 0.000147868 3.39676e-21)
(-0.000146119 0.000332184 -2.05574e-22)
(-0.00067462 0.00176933 3.51961e-20)
(8.64474e-05 0.000453383 -2.9004e-20)
)
;
    }
}


// ************************************************************************* //
