/*--------------------------------*- C++ -*----------------------------------*\
  =========                 |
  \\      /  F ield         | OpenFOAM: The Open Source CFD Toolbox
   \\    /   O peration     | Website:  https://openfoam.org
    \\  /    A nd           | Version:  7
     \\/     M anipulation  |
\*---------------------------------------------------------------------------*/
FoamFile
{
    version     2.0;
    format      ascii;
    class       surfaceScalarField;
    location    "12";
    object      phi;
}
// * * * * * * * * * * * * * * * * * * * * * * * * * * * * * * * * * * * * * //

dimensions      [0 3 -1 0 0 0 0];

internalField   nonuniform List<scalar> 
815
(
-0.000140399
-5.23049e-05
-0.000154478
-5.60367e-05
-0.000169156
-5.96154e-05
-0.000184461
-6.30126e-05
-0.000200415
-6.62148e-05
-0.000217019
-7.01915e-05
-7.60381e-05
-0.000234281
-6.96812e-05
-1.11591e-05
-7.23108e-05
-1.56192e-05
-7.72707e-05
-1.96823e-05
-8.42157e-05
-2.33873e-05
-9.27984e-05
-2.68414e-05
-0.000102722
-3.01347e-05
-0.000113751
-3.33297e-05
-0.000125713
-3.64594e-05
-0.000138486
-3.95316e-05
-0.000151991
-4.25324e-05
-0.000166177
-4.5429e-05
-0.000181019
-4.81705e-05
-0.000196508
-5.07261e-05
-0.000212633
-5.40671e-05
-5.92645e-05
-0.000229406
-8.90314e-05
-8.31644e-05
-2.14863e-05
-8.2472e-05
-2.03745e-05
-8.57031e-05
-2.01561e-05
-9.18393e-05
-2.0705e-05
-0.000100099
-2.18754e-05
-0.00010991
-2.35182e-05
-0.000120877
-2.54924e-05
-0.000132738
-2.76707e-05
-0.00014533
-2.9941e-05
-0.000158557
-3.22017e-05
-0.000172371
-3.43566e-05
-0.000186752
-3.63451e-05
-0.000201689
-3.91306e-05
-4.37526e-05
-0.000217201
-4.94941e-05
-1.1539e-05
-5.95135e-05
-1.0355e-05
-6.96046e-05
-1.00648e-05
-7.98177e-05
-1.04919e-05
-9.021e-05
-1.1483e-05
-0.000100831
-1.28967e-05
-0.000111723
-1.46001e-05
-0.000122918
-1.64758e-05
-0.000134441
-1.84184e-05
-0.000146312
-2.03305e-05
-0.000158551
-2.21174e-05
-0.000171179
-2.37178e-05
-0.000184208
-2.61011e-05
-3.0274e-05
-0.000197687
-2.58856e-05
9.27927e-06
-4.29396e-05
6.69911e-06
-5.71902e-05
4.18578e-06
-6.94831e-05
1.80106e-06
-8.05045e-05
-4.61562e-07
-9.07593e-05
-2.64172e-06
-0.000100617
-4.74227e-06
-0.00011032
-6.77247e-06
-0.000120023
-8.71565e-06
-0.000129819
-1.05342e-05
-0.000139767
-1.21698e-05
-0.000149904
-1.35809e-05
-0.000160258
-1.57472e-05
-1.96338e-05
-0.000170898
-4.37533e-05
-5.27003e-05
1.56461e-05
-6.06311e-05
1.21166e-05
-6.79535e-05
9.12335e-06
-7.49468e-05
6.5318e-06
-8.18022e-05
4.21374e-06
-8.86194e-05
2.07489e-06
-9.54492e-05
5.72107e-08
-0.000102306
-1.85874e-06
-0.000109185
-3.65503e-06
-0.000116076
-5.2798e-06
-0.000122968
-6.68841e-06
-0.000129866
-8.84917e-06
-1.26447e-05
-0.000136855
-7.18818e-05
9.0432e-06
-6.86428e-05
8.87775e-06
-6.78891e-05
8.36973e-06
-6.88885e-05
7.5311e-06
-7.10612e-05
6.38633e-06
-7.39608e-05
4.97448e-06
-7.72526e-05
3.34904e-06
-8.06896e-05
1.57812e-06
-8.4092e-05
-2.52722e-07
-8.73335e-05
-2.03839e-06
-9.03311e-05
-3.69086e-06
-9.3045e-05
-6.1356e-06
-1.01256e-05
-9.55643e-05
-6.06421e-05
-5.62819e-05
4.51749e-06
-5.40527e-05
6.14063e-06
-5.32307e-05
6.70905e-06
-5.32422e-05
6.39769e-06
-5.36422e-05
5.37444e-06
-5.40896e-05
3.79649e-06
-5.4324e-05
1.81269e-06
-5.41478e-05
-4.28683e-07
-5.34139e-05
-2.77202e-06
-5.20188e-05
-5.08594e-06
-4.99023e-05
-8.25207e-06
-1.29409e-05
-4.70871e-05
-2.50363e-05
-2.74699e-05
8.57424e-06
-2.86868e-05
7.92598e-06
-2.88523e-05
6.56318e-06
-2.80425e-05
4.56448e-06
-2.62632e-05
2.01689e-06
-2.34712e-05
-9.79625e-07
-1.95945e-05
-4.30563e-06
-1.45479e-05
-7.81878e-06
-8.24435e-06
-1.13896e-05
-6.29474e-07
-1.5867e-05
-2.1741e-05
8.17057e-06
-3.88837e-06
1.20089e-05
-4.77174e-06
8.80943e-06
-3.556e-06
5.3476e-06
-5.11791e-07
1.52044e-06
4.2326e-06
-2.72748e-06
1.06525e-05
-7.3994e-06
1.87899e-05
-1.24427e-05
2.87214e-05
-1.775e-05
4.05302e-05
-2.31981e-05
5.42976e-05
-2.96344e-05
-3.75827e-05
7.01394e-05
1.03364e-05
1.44439e-05
4.70182e-06
2.00294e-05
-2.38034e-07
2.72386e-05
-5.68903e-06
3.62368e-05
-1.17258e-05
4.72054e-05
-1.8368e-05
6.03284e-05
-2.55657e-05
7.57776e-05
-3.31991e-05
9.36927e-05
-4.11133e-05
0.000114166
-5.01072e-05
-6.05104e-05
0.000137093
3.36827e-05
4.43907e-05
-1.09461e-05
5.64141e-05
-1.77124e-05
7.02535e-05
-2.55651e-05
8.63294e-05
-3.44438e-05
0.000105002
-4.42385e-05
0.000126573
-5.47702e-05
0.000151271
-6.58104e-05
0.000179217
-7.80536e-05
-9.15469e-05
0.000210253
7.33006e-05
8.90895e-05
-3.35013e-05
0.000107375
-4.38509e-05
0.000128559
-5.56275e-05
0.000153034
-6.87131e-05
0.000181165
-8.29019e-05
0.000213256
-9.79007e-05
0.000249484
-0.000114282
-0.000131744
0.000289682
0.000124429
0.000147282
-6.67043e-05
0.000173798
-8.21432e-05
0.000204386
-9.93017e-05
0.000239493
-0.000118009
0.000279534
-0.000137941
0.000324802
-0.000159551
-0.000182105
0.000375162
0.000189728
0.000222096
-0.000114511
0.000259191
-0.000136397
0.00030165
-0.000160467
0.000350105
-0.000186397
0.000405084
0.000274251
0.000318072
-0.000180218
0.000368075
-0.00026513
-0.000264015
-0.000286513
-0.000267608
-0.000298734
-0.000259913
-0.000300469
-0.000244905
-0.000292153
-0.000220714
-0.000274054
-0.000187328
-0.000247128
-0.000143863
-0.000212154
-9.05762e-05
-0.000169975
-2.7664e-05
-0.000121321
4.36967e-05
-6.71966e-05
0.000122277
-8.17366e-06
0.000206322
5.51783e-05
0.000292288
0.000122209
0.000377642
0.00019253
0.000457687
0.000265747
0.000527932
0.000583061
-0.000259914
-0.000233507
-0.000280817
-0.000246705
-0.00029268
-0.000248049
-0.000294189
-0.000243396
-0.000285739
-0.000229164
-0.000267575
-0.000205492
-0.000240571
-0.000170868
-0.000205512
-0.000125636
-0.000163178
-6.99975e-05
-0.000114254
-5.22688e-06
-5.97305e-05
6.77532e-05
1.20157e-08
0.00014658
6.38383e-05
0.000228462
0.000131663
0.000309817
0.000202933
0.000386417
0.000277216
0.000453649
0.000506078
-0.000246724
-0.000203984
-0.000266409
-0.00022702
-0.000277293
-0.000237166
-0.000278113
-0.000242575
-0.000269203
-0.000238074
-0.00025074
-0.000223955
-0.000223596
-0.000198011
-0.000188458
-0.000160774
-0.000146088
-0.000112367
-9.70518e-05
-5.42635e-05
-4.23801e-05
1.30815e-05
1.75365e-05
8.6663e-05
8.17891e-05
0.00016421
0.000150087
0.00024152
0.000221957
0.000314547
0.000296944
0.000378661
0.000428306
-0.000225527
-0.000176144
-0.000243388
-0.000209159
-0.000252635
-0.000227918
-0.0002523
-0.00024291
-0.000242659
-0.000247715
-0.00022375
-0.000242865
-0.000196322
-0.000225439
-0.000161198
-0.000195897
-0.000118909
-0.000154656
-6.99147e-05
-0.000103258
-1.53216e-05
-4.15116e-05
4.44539e-05
2.68874e-05
0.000108786
9.98772e-05
0.000177219
0.000173088
0.000249331
0.000242435
0.00032465
0.000303341
0.000350127
-0.000196467
-0.000150575
-0.000211711
-0.000193915
-0.000218944
-0.000220686
-0.000217022
-0.000244832
-0.000206339
-0.000258398
-0.000186797
-0.000262407
-0.000159031
-0.000253204
-0.00012394
-0.000230989
-8.19963e-05
-0.0001966
-3.31853e-05
-0.000152069
2.16508e-05
-9.63477e-05
8.04331e-05
-3.18949e-05
0.000144452
3.58584e-05
0.000212671
0.000104868
0.000284662
0.000170444
0.000359935
0.000228068
0.000271928
-0.000159611
-0.000127819
-0.000171495
-0.000182031
-0.000176505
-0.000215676
-0.000172526
-0.000248811
-0.000160544
-0.000270379
-0.000140253
-0.000282698
-0.000112124
-0.000281333
-7.71715e-05
-0.000265941
-3.53899e-05
-0.000238381
1.33995e-05
-0.000200858
6.62288e-05
-0.000149177
0.000124865
-9.05307e-05
0.000188286
-2.75632e-05
0.000255942
3.72124e-05
0.000327446
9.89403e-05
0.000402292
0.000153221
0.000194098
-0.000115045
-0.000108338
-0.000123304
-0.000173772
-0.000125248
-0.000213733
-0.000119075
-0.000254984
-0.000105639
-0.000283815
-8.44861e-05
-0.000303851
-5.61015e-05
-0.000309718
-2.13818e-05
-0.000300661
2.17089e-05
-0.000281472
6.71189e-05
-0.000246268
0.00011934
-0.000201398
0.00017718
-0.000148372
0.000239679
-9.00622e-05
0.00030642
-2.95281e-05
0.000377078
2.82816e-05
0.000451115
7.91846e-05
0.000117018
-6.25865e-05
-9.28384e-05
-6.71225e-05
-0.000169236
-6.56612e-05
-0.000215194
-5.69718e-05
-0.000263673
-4.17064e-05
-0.00029908
-2.0288e-05
-0.000325269
8.34225e-06
-0.000338348
4.42783e-05
-0.000336597
8.30003e-05
-0.000320194
0.000128719
-0.000291987
0.000180163
-0.000252842
0.000236674
-0.000204882
0.000297938
-0.000151327
0.000363383
-9.49734e-05
0.000432868
-4.12036e-05
0.000505719
6.33376e-06
4.10602e-05
1.86147e-06
-8.65292e-05
-1.2893e-06
-0.000166085
3.62251e-06
-0.000220106
1.24305e-05
-0.000272481
3.20656e-05
-0.000318715
5.50923e-05
-0.000348296
8.10842e-05
-0.00036434
0.000113804
-0.000369317
0.000153
-0.00035939
0.000197688
-0.000336675
0.00024764
-0.000302794
0.000302511
-0.000259753
0.000362248
-0.000211064
0.000426041
-0.000158767
0.000494012
-0.000109175
0.000565329
-6.49831e-05
-3.34257e-05
7.08742e-05
-8.7264e-05
7.29166e-05
-0.000168127
8.10372e-05
-0.000228226
9.2876e-05
-0.00028432
0.000109266
-0.000335106
0.00013099
-0.00037002
0.000158872
-0.000392222
0.000191537
-0.000401982
0.000229522
-0.000397376
0.00027269
-0.000379842
0.000320889
-0.000350993
0.000374027
-0.000312892
0.000431557
-0.000268593
0.000493644
-0.000220854
0.000559568
-0.000175099
0.000629081
-0.000134496
-0.000106115
0.000138252
-8.84223e-05
0.000146496
-0.000176372
0.000157598
-0.000239328
0.000174514
-0.000301236
0.000193078
-0.00035367
0.000215959
-0.0003929
0.000243406
-0.00041967
0.00027509
-0.000433666
0.000311518
-0.000433803
0.000352798
-0.000421123
0.000398928
-0.000397122
0.00044984
-0.000363804
0.000505249
-0.000324002
0.000565097
-0.000280702
0.000628734
-0.000238736
0.00069618
-0.000201942
0.000766767
-0.000176702
-0.000168455
0.000215272
-9.3441e-05
0.000229097
-0.000190197
0.000244393
-0.000254624
0.000263943
-0.000320786
0.000283576
-0.000373303
0.00030656
-0.000415884
0.000333123
-0.000446232
0.000363381
-0.000463924
0.000397913
-0.000468336
0.00043699
-0.0004602
0.000480733
-0.000440865
0.000529136
-0.000412208
0.000582071
-0.000376938
0.000639385
-0.000338017
0.000700621
-0.000299972
0.000765606
-0.000266927
0.000833772
-0.000244867
-0.000239325
0.000300036
-0.000103795
0.000318747
-0.000208908
0.000338045
-0.000273922
0.0003586
-0.000341341
0.000379143
-0.000393846
0.000401684
-0.000438425
0.000426912
-0.000471461
0.000455323
-0.000492335
0.000487598
-0.00050061
0.000524157
-0.000496759
0.000565229
-0.000481937
0.000610887
-0.000457866
0.000661051
-0.000427103
0.000715587
-0.000392552
0.000774134
-0.000358518
0.000836432
-0.000329225
0.000901964
-0.0003104
-0.000307614
0.000391819
0.000414092
0.000437497
0.000458023
0.000478795
0.000500273
-0.000459903
0.000523654
-0.000494842
0.000549767
-0.000518448
0.000579416
-0.000530259
0.000613147
-0.00053049
0.00065128
-0.00052007
0.000693954
-0.00050054
0.00074113
-0.000474278
0.000792693
-0.000444116
0.000848326
-0.000414151
0.000907739
-0.000388639
0.000970446
-0.000373107
-0.000373128
0.000601218
0.000622171
0.000645516
0.000672171
0.000702778
0.000737726
0.000777204
0.000821209
0.000869638
0.000922195
0.000978575
0.0010383
)
;

boundaryField
{
    inlet
    {
        type            calculated;
        value           nonuniform 0();
    }
    outlet
    {
        type            calculated;
        value           nonuniform 0();
    }
    cylinder
    {
        type            calculated;
        value           nonuniform 0();
    }
    top
    {
        type            symmetryPlane;
        value           nonuniform 0();
    }
    bottom
    {
        type            symmetryPlane;
        value           nonuniform 0();
    }
    defaultFaces
    {
        type            empty;
        value           nonuniform 0();
    }
    procBoundary22to16
    {
        type            processor;
        value           nonuniform List<scalar> 
33
(
1.1206e-05
1.82486e-05
2.4642e-05
3.03319e-05
3.54241e-05
4.00582e-05
4.43592e-05
0.000126864
4.84215e-05
6.58391e-05
7.01154e-05
7.42939e-05
7.8318e-05
8.21688e-05
8.67943e-05
9.33005e-05
0.000294864
0.000288992
0.000272133
0.000246639
0.000212399
0.000169228
0.000116935
5.56028e-05
-1.45154e-05
-9.23505e-05
-0.000176401
-0.000265344
-0.00035564
-0.000444672
-0.000528007
-0.000601148
-0.000658886
)
;
    }
    procBoundary22to21
    {
        type            processor;
        value           nonuniform List<scalar> 
16
(
6.96349e-05
0.00010143
-2.35578e-05
3.95465e-05
5.0676e-06
3.32451e-05
1.97878e-05
7.84848e-05
6.80181e-05
1.66752e-06
2.11227e-05
8.43183e-06
4.53627e-07
-7.58982e-06
9.26223e-06
-2.36842e-05
)
;
    }
    procBoundary22to23
    {
        type            processor;
        value           nonuniform List<scalar> 
16
(
0.000341571
0.0003542
0.000374716
0.000402829
0.000438134
0.000480123
0.000528195
0.000581677
0.000639815
0.00070177
9.5226e-05
0.000839995
0.000904641
0.000970254
0.00103596
0.00110089
)
;
    }
    procBoundary22to27
    {
        type            processor;
        value           nonuniform List<scalar> 
11
(
-5.29678e-06
-5.96033e-05
-2.46433e-05
-0.000104904
-5.30264e-05
-0.000161519
-9.49126e-05
-0.000235713
-0.00015305
-0.000331589
-0.000230736
)
;
    }
    procBoundary22to28
    {
        type            processor;
        value           nonuniform List<scalar> 
26
(
-0.000214529
-0.000243576
0.000466555
-0.00021047
0.000425219
-0.00024354
0.000382107
-0.000120452
-0.00023118
-0.000297327
-0.000361866
-0.000414619
-0.000581559
-0.000479562
-0.000515795
-0.000541794
-0.000556913
-0.000561096
-0.000555019
-0.00054002
-0.000518283
-0.000492546
-0.000466708
-0.000445018
-0.000432838
-0.000435714
)
;
    }
}


// ************************************************************************* //
