/*--------------------------------*- C++ -*----------------------------------*\
  =========                 |
  \\      /  F ield         | OpenFOAM: The Open Source CFD Toolbox
   \\    /   O peration     | Website:  https://openfoam.org
    \\  /    A nd           | Version:  7
     \\/     M anipulation  |
\*---------------------------------------------------------------------------*/
FoamFile
{
    version     2.0;
    format      ascii;
    class       surfaceScalarField;
    location    "2";
    object      phi;
}
// * * * * * * * * * * * * * * * * * * * * * * * * * * * * * * * * * * * * * //

dimensions      [0 3 -1 0 0 0 0];

internalField   nonuniform List<scalar> 
819
(
0.0240242
1.77865e-05
0.0240135
1.06839e-05
0.02401
3.54815e-06
-3.60884e-06
0.0240136
0.0231947
3.48207e-05
0.0231845
2.08608e-05
0.0231812
6.83746e-06
-7.22655e-06
0.0231848
0.0224021
5.11083e-05
0.0223925
3.05233e-05
0.0223895
9.84664e-06
-1.08883e-05
0.0223931
0.0216442
6.66354e-05
0.0216351
3.96463e-05
0.0216324
1.25396e-05
-1.46414e-05
0.0216361
0.0209187
8.13933e-05
0.0209102
4.82112e-05
0.0209078
1.48872e-05
-1.8526e-05
0.0209117
0.0202238
9.53677e-05
0.0202158
5.61939e-05
0.0202138
1.68559e-05
-2.25851e-05
0.0202179
0.0195577
0.000108541
0.0195503
6.35683e-05
0.0195488
1.841e-05
-2.68629e-05
0.019553
0.0189189
0.00012089
0.0189122
7.03026e-05
0.0189111
1.95105e-05
-3.14078e-05
0.0189156
0.018306
0.000132385
0.0183
7.63599e-05
0.0182994
2.0112e-05
-3.62722e-05
0.0183042
0.0177178
0.000142989
0.0177124
8.16966e-05
0.0177124
2.01641e-05
-4.15142e-05
0.0177176
0.0171529
0.000152658
0.0171484
8.62614e-05
0.0171489
1.96091e-05
-4.71977e-05
0.0171546
0.0166105
0.000161338
0.0166067
8.99952e-05
0.016608
1.83819e-05
-5.33943e-05
0.0166142
0.0160894
0.000168967
0.0160865
9.28301e-05
0.0160885
1.64091e-05
-6.01828e-05
0.0160953
0.0155886
0.000175471
0.0155868
9.46886e-05
0.0155896
1.36085e-05
-6.76505e-05
0.015597
0.0151074
0.000180768
0.0151066
9.54837e-05
0.0151103
9.88881e-06
-7.58936e-05
0.0151186
0.0146448
0.000184764
0.0146452
9.51174e-05
0.0146499
5.15031e-06
-8.50186e-05
0.014659
0.0142001
0.000187348
0.0142017
9.34748e-05
0.0142076
-6.89825e-07
-9.51458e-05
0.0142177
0.0137725
0.000188416
0.0137755
9.04538e-05
0.0137826
-7.85461e-06
-0.000106385
0.0137939
0.0133612
0.000187827
0.0133658
8.59054e-05
0.0133743
-1.63799e-05
-0.000118889
0.0133868
0.0129656
0.000185442
0.0129719
7.96928e-05
0.0129819
-2.64368e-05
-0.000132798
0.0129958
0.0125851
0.000181107
0.0125931
7.16615e-05
0.0126049
-3.81833e-05
-0.00014827
0.0126204
0.0122189
0.000174657
0.012229
6.16455e-05
0.0122426
-5.17861e-05
-0.000165471
0.0122598
0.0118666
0.000165914
0.0118787
4.94682e-05
0.0118944
-6.74223e-05
-0.00018458
0.0119135
0.0115274
0.000154686
0.0115419
3.49435e-05
0.0115597
-8.52785e-05
-0.000205781
0.0115809
0.0112008
0.000140774
0.0112178
1.78834e-05
0.0112381
-0.000105555
-0.000229272
0.0112616
0.0108864
0.000123933
0.0109061
-1.8102e-06
0.010929
-0.000128475
-0.000255259
0.010955
0.0105833
0.000104034
0.0106062
-2.47598e-05
0.0106319
-0.000154176
-0.000283916
0.0106606
0.0102915
8.07569e-05
0.0103176
-5.07932e-05
0.0103464
-0.000182948
-0.000315482
0.0103779
0.0100104
5.38939e-05
0.0100399
-8.02469e-05
0.0100719
-0.000214995
-0.000350161
0.0101066
0.00973951
2.32131e-05
0.00977265
-0.000113384
0.0098082
-0.000250542
-0.000388159
0.00984619
0.00947853
-1.15537e-05
0.0095156
-0.000150457
0.00955486
-0.000289804
-0.000429658
0.00959636
0.00922728
-5.09972e-05
0.0092685
-0.000191671
0.00931167
-0.000332974
-0.000474786
0.00935679
0.00898525
0.00903091
0.00907814
-0.000380203
-0.000523572
0.00912692
0.00885375
0.00890599
0.0240244
-1.07757e-05
0.0240423
-1.79406e-05
0.0240674
-2.50922e-05
0.0240996
-3.22184e-05
0.0241389
-3.9308e-05
0.0241853
-4.63491e-05
0.0242386
-5.33305e-05
0.0242988
-6.02405e-05
-6.70682e-05
0.0231953
-2.13086e-05
0.0232128
-3.5386e-05
0.0232371
-4.9436e-05
0.0232684
-6.34359e-05
0.0233064
-7.73629e-05
0.0233513
-9.11947e-05
0.0234028
-0.000104908
0.0234611
-0.000118482
-0.000131893
0.0224035
-3.16485e-05
0.0224205
-5.24005e-05
0.0224441
-7.31111e-05
0.0224745
-9.37467e-05
0.0225114
-0.000114274
0.0225548
-0.000134661
0.0226048
-0.000154873
0.0226612
-0.000174879
-0.000194645
0.0216463
-4.18538e-05
0.021663
-6.90537e-05
0.0216861
-9.61981e-05
0.0217156
-0.000123243
0.0217514
-0.000150146
0.0217937
-0.000176862
0.0218421
-0.000203351
0.0218968
-0.000229568
-0.000255471
0.0209218
-5.19753e-05
0.0209382
-8.54077e-05
0.0209607
-0.00011877
0.0209895
-0.000152009
0.0210244
-0.000185072
0.0210655
-0.000217906
0.0211126
-0.000250458
0.0211657
-0.000282677
-0.000314511
0.020228
-6.20659e-05
0.0202441
-0.000101525
0.0202662
-0.0001409
0.0202944
-0.000180127
0.0203284
-0.000219146
0.0203684
-0.000257894
0.0204143
-0.000296309
0.0204659
-0.00033433
-0.000371897
0.0195632
-7.21795e-05
0.0195791
-0.000117469
0.0196009
-0.000162659
0.0196284
-0.00020768
0.0196617
-0.000252459
0.0197008
-0.000296927
0.0197455
-0.000341012
0.0197958
-0.000384646
-0.000427758
0.0189258
-8.23723e-05
0.0189416
-0.000133304
0.0189631
-0.000184122
0.0189902
-0.000234748
0.0190228
-0.000285102
0.019061
-0.000335105
0.0191047
-0.000384677
0.0191538
-0.000433742
-0.000482221
0.0183146
-9.27049e-05
0.0183303
-0.000149098
0.0183516
-0.000205365
0.0183783
-0.000261417
0.0184103
-0.000317167
0.0184477
-0.000372528
0.0184905
-0.000427413
0.0185385
-0.000481735
-0.000535411
0.0177281
-0.000103242
0.017744
-0.000164926
0.0177651
-0.000226468
0.0177914
-0.000287775
0.017823
-0.00034875
0.0178598
-0.0004093
0.0179017
-0.000469329
0.0179487
-0.000528745
-0.000587453
0.0171654
-0.000114056
0.0171814
-0.000180863
0.0172024
-0.000247516
0.0172285
-0.000313913
0.0172597
-0.00037995
0.017296
-0.000445527
0.0173372
-0.000510541
0.0173833
-0.000574891
-0.000638477
0.0166253
-0.000125223
0.0166415
-0.000196994
0.0166625
-0.000268599
0.0166886
-0.000339928
0.0167195
-0.000410871
0.0167553
-0.000481318
0.0167959
-0.000551163
0.0168413
-0.000620297
-0.000688613
0.0161069
-0.000136828
0.0161233
-0.00021341
0.0161445
-0.000289814
0.0161705
-0.000365922
0.0162013
-0.00044162
0.0162367
-0.00051679
0.0162769
-0.000591319
0.0163217
-0.000665091
-0.000737995
0.0156092
-0.000148963
0.015626
-0.000230209
0.0156474
-0.000311264
0.0156735
-0.000392006
0.0157042
-0.000472313
0.0157395
-0.000552063
0.0157793
-0.000631134
0.0158236
-0.000709407
-0.000786762
0.0151313
-0.000161731
0.0151486
-0.000247496
0.0151704
-0.00033306
0.0151967
-0.000418295
0.0152275
-0.000503072
0.0152627
-0.000587264
0.0153023
-0.000670743
0.0153462
-0.000753383
-0.000835059
0.0146726
-0.000175241
0.0146904
-0.000265386
0.0147127
-0.000355322
0.0147393
-0.000444913
0.0147703
-0.000534026
0.0148055
-0.000622526
0.0148451
-0.000710283
0.0148889
-0.000797163
-0.000883036
0.0142321
-0.000189615
0.0142507
-0.000284005
0.0142736
-0.000378178
0.0143006
-0.000471993
0.0143319
-0.000565311
0.0143674
-0.000657993
0.014407
-0.000749901
0.0144507
-0.000840898
-0.000930849
0.0138092
-0.000204972
0.0138287
-0.000303479
0.0138523
-0.00040176
0.01388
-0.000499672
0.0139117
-0.000597069
0.0139475
-0.00069381
0.0139874
-0.000789749
0.0140312
-0.000884746
-0.00097866
0.0134033
-0.000221462
0.0134238
-0.000323955
0.0134482
-0.000426218
0.0134766
-0.000528102
0.013509
-0.000629456
0.0135454
-0.000730135
0.0135856
-0.000829989
0.0136297
-0.000928872
-0.00102664
0.0130136
-0.000239231
0.0130352
-0.000345584
0.0130607
-0.000451705
0.01309
-0.000557439
0.0131232
-0.000662632
0.0131602
-0.000767132
0.013201
-0.000870787
0.0132456
-0.000973447
-0.00107496
0.0126396
-0.000258436
0.0126625
-0.000368527
0.0126892
-0.000478383
0.0127196
-0.000587848
0.0127537
-0.000696763
0.0127916
-0.000804972
0.0128331
-0.000912319
0.0128783
-0.00101865
-0.00112381
0.0122806
-0.000279246
0.012305
-0.000392951
0.012333
-0.000506425
0.0123647
-0.000619504
0.0124
-0.000732027
0.0124388
-0.000843834
0.0124813
-0.000954765
0.0125273
-0.00106466
-0.00117337
0.0119361
-0.000301839
0.0119622
-0.000419037
0.0119917
-0.000536008
0.0120248
-0.000652585
0.0120614
-0.000768604
0.0121015
-0.000883901
0.012145
-0.000998311
0.012192
-0.00111167
-0.00122383
0.0116055
-0.0003264
0.0116334
-0.000446969
0.0116648
-0.000567318
0.0116994
-0.000687279
0.0117375
-0.000806682
0.011779
-0.00092536
0.0118238
-0.00104315
0.011872
-0.00115987
-0.00127538
0.0112883
-0.000353122
0.0113183
-0.000476938
0.0113515
-0.000600547
0.011388
-0.000723775
0.0114278
-0.00084645
0.0114708
-0.000968401
0.0115172
-0.00108946
0.0115667
-0.00120945
-0.00132821
0.010984
-0.000382209
0.0110163
-0.000509145
0.0110516
-0.000635889
0.0110901
-0.000762264
0.0111317
-0.000888096
0.0111765
-0.00101321
0.0112245
-0.00113743
0.0112756
-0.00126058
-0.00138249
0.0106922
-0.000413837
0.0107268
-0.000543765
0.0107645
-0.000673521
0.0108051
-0.000802924
0.0108488
-0.000931793
0.0108956
-0.00105995
0.0109454
-0.00118721
0.0109982
-0.0013134
-0.00143833
0.0104123
-0.000448229
0.0104496
-0.000581009
0.0104897
-0.000713638
0.0105327
-0.000845931
0.0105786
-0.000977703
0.0106274
-0.00110877
0.0106791
-0.00123893
0.0107337
-0.001368
-0.00149579
0.0101439
-0.000485575
0.010184
-0.00062105
0.0102267
-0.000756397
0.0102722
-0.000891422
0.0103205
-0.00102593
0.0103714
-0.00115972
0.0104251
-0.0012926
0.0104814
-0.00142434
-0.00155474
0.00988667
-0.000526056
0.00992967
-0.000664041
0.00997518
-0.000801913
0.0100232
-0.000939466
0.0100738
-0.00107649
0.0101268
-0.00121277
0.0101823
-0.00134807
0.0102401
-0.00148216
-0.00161478
0.00964012
-0.000569816
0.00968615
-0.000710072
0.00973445
-0.000850208
0.00978499
-0.000990002
0.00983771
-0.00112921
0.00989254
-0.0012676
0.00994936
-0.00140489
0.010008
-0.0015408
-0.00167502
0.00940388
-0.0006169
0.0094529
-0.000759091
0.0095038
-0.000901115
0.00955652
-0.00104271
0.00961092
-0.00118361
0.00966684
-0.00132352
0.00972405
-0.00146211
0.00978229
-0.00159903
-0.00173392
0.00917722
-0.000667198
0.00922895
-0.000810818
0.00928198
0.00933616
0.00939124
0.00944694
0.0095029
0.00955868
0.00895905
)
;

boundaryField
{
    inlet
    {
        type            calculated;
        value           nonuniform 0();
    }
    outlet
    {
        type            calculated;
        value           nonuniform 0();
    }
    cylinder
    {
        type            calculated;
        value           nonuniform 0();
    }
    top
    {
        type            symmetryPlane;
        value           nonuniform 0();
    }
    bottom
    {
        type            symmetryPlane;
        value           uniform 0;
    }
    defaultFaces
    {
        type            empty;
        value           nonuniform 0();
    }
    procBoundary2to1
    {
        type            processor;
        value           nonuniform List<scalar> 
33
(
-0.024042
-0.0232117
-0.0224184
-0.0216597
-0.0209335
-0.0202378
-0.0195709
-0.0189313
-0.0183175
-0.0177284
-0.0171626
-0.0166192
-0.016097
-0.0155951
-0.0151127
-0.0146488
-0.0142027
-0.0137735
-0.0133606
-0.0129633
-0.0125808
-0.0122125
-0.0118578
-0.0115161
-0.0111869
-0.0108695
-0.0105634
-0.0102683
-0.00998354
-0.00970883
-0.00944376
-0.00918784
-0.00894113
)
;
    }
    procBoundary2to3
    {
        type            processor;
        value           nonuniform List<scalar> 
33
(
0.0243659
0.0235259
0.0227239
0.0219576
0.0212247
0.0205233
0.0198516
0.0192082
0.0185917
0.0180008
0.0174344
0.0168914
0.0163711
0.0158724
0.0153945
0.0149368
0.0144986
0.0140791
0.0136777
0.0132939
0.0129271
0.0125768
0.0122425
0.0119236
0.0116196
0.0113299
0.011054
0.0107912
0.0105404
0.0103001
0.0100682
0.00984118
0.00961374
)
;
    }
    procBoundary2to8
    {
        type            processor;
        value           nonuniform List<scalar> 
15
(
-9.51173e-05
-0.000237332
-0.00880248
-0.000431478
-0.000575803
-0.00095415
-0.00109689
-0.0012387
-0.00137922
-0.00151807
-0.00165481
-0.00178898
-0.000720258
0.00901276
-0.000864534
)
;
    }
}


// ************************************************************************* //
