/*--------------------------------*- C++ -*----------------------------------*\
  =========                 |
  \\      /  F ield         | OpenFOAM: The Open Source CFD Toolbox
   \\    /   O peration     | Website:  https://openfoam.org
    \\  /    A nd           | Version:  7
     \\/     M anipulation  |
\*---------------------------------------------------------------------------*/
FoamFile
{
    version     2.0;
    format      ascii;
    class       surfaceScalarField;
    location    "28.000462";
    object      phi;
}
// * * * * * * * * * * * * * * * * * * * * * * * * * * * * * * * * * * * * * //

dimensions      [0 3 -1 0 0 0 0];

internalField   nonuniform List<scalar> 
11438
(
8.98328e-05
-0.00105154
0.000169636
-0.00100421
0.000229565
-0.000910103
0.00026013
-0.000770061
-0.00058482
-0.00106889
1.73556e-05
-0.00108663
1.77486e-05
-0.00110398
1.73624e-05
-0.00112072
1.67549e-05
-0.00113676
1.60505e-05
-0.00115205
1.53021e-05
-0.00116658
1.45395e-05
-0.00118034
1.37751e-05
-0.00119333
1.30129e-05
-0.00120556
1.22528e-05
-0.00121704
1.14927e-05
-0.00122774
1.07289e-05
-0.00123767
9.95639e-06
-0.00124682
9.16982e-06
-0.00125516
8.36338e-06
-0.00126266
7.5314e-06
-0.0012693
6.66878e-06
-0.00127505
5.77129e-06
-0.00127986
4.83526e-06
-0.00128369
3.8561e-06
-0.0012865
2.82697e-06
-0.00128822
1.74217e-06
-0.0012888
5.95487e-07
-0.0012882
-5.89837e-07
-0.00128636
-1.83433e-06
-0.00128316
-3.20051e-06
-0.00127848
-4.6859e-06
-0.0012722
-6.2993e-06
-0.00126417
-8.05328e-06
-0.00125424
-9.96253e-06
-0.00124225
-1.20365e-05
-0.00122801
-1.42994e-05
-0.00121131
-1.6767e-05
-0.00119193
-1.94582e-05
-0.00116963
-2.2391e-05
-0.00114415
-2.55828e-05
-0.0011152
-2.90509e-05
-0.00108251
-3.28108e-05
-0.00104576
-3.68736e-05
-0.00100462
-4.12594e-05
-0.000958814
-4.59308e-05
-0.000907999
-5.0933e-05
-0.000851858
-5.62493e-05
-0.000790084
-6.187e-05
-0.000722382
-6.77806e-05
-0.000648507
-7.39322e-05
-0.000568243
-8.02953e-05
-0.000481424
-8.68208e-05
-0.000387854
-9.35396e-05
-0.00028758
-0.00010021
-6.38056e-08
-0.000180569
-0.000106913
-9.70783e-08
-6.69475e-05
-0.000113493
-1.29019e-07
5.31286e-05
-0.000119918
-1.58176e-07
0.000179344
-0.000126033
-1.82841e-07
0.000311391
-0.000131846
-2.01604e-07
0.000448768
-0.000137163
-2.13103e-07
0.000591056
-0.000142071
-2.1653e-07
0.000737517
-0.00014625
-2.11135e-07
0.000887792
-0.000150078
-1.97125e-07
0.00104077
-0.000152801
-1.74691e-07
0.00119656
-0.000155642
-1.44781e-07
0.00135321
-0.000156544
-1.09521e-07
0.0015122
-0.000158924
-6.83187e-08
0.00166975
-0.000157522
-2.85912e-08
0.00183025
-0.000160517
1.78749e-08
0.0019865
-0.000156297
5.10707e-08
0.00214781
-0.000161406
9.67872e-08
0.00230243
-0.000154736
1.13646e-07
0.00246497
-0.000162692
1.50482e-07
-0.000160016
1.51603e-07
-0.00102072
3.38635e-05
-0.00103771
3.47366e-05
-0.00105437
3.40204e-05
-0.00107046
3.28519e-05
-0.00108589
3.14717e-05
-0.00110057
2.99911e-05
-0.00111451
2.84753e-05
-0.00112769
2.69516e-05
-0.0011401
2.54289e-05
-0.00115176
2.39081e-05
-0.00116265
2.23849e-05
-0.00117277
2.08519e-05
-0.00118212
1.92996e-05
-0.00119066
1.77171e-05
-0.00119839
1.60929e-05
-0.00120528
1.44157e-05
-0.00121128
1.26752e-05
-0.00121638
1.08634e-05
-0.00122051
8.97379e-06
-0.00122366
6.99747e-06
-0.00122575
4.91934e-06
-0.00122673
2.72871e-06
-0.00122653
3.89354e-07
-0.00122519
-1.93273e-06
-0.00122255
-4.46863e-06
-0.00121852
-7.22834e-06
-0.00121299
-1.02205e-05
-0.00120582
-1.34659e-05
-0.00119689
-1.69907e-05
-0.00118602
-2.08252e-05
-0.00117307
-2.49847e-05
-0.00115785
-2.952e-05
-0.00114016
-3.44621e-05
-0.00111977
-3.9848e-05
-0.00109645
-4.57132e-05
-0.00106994
-5.20925e-05
-0.00103997
-5.90196e-05
-0.00100625
-6.65258e-05
-0.000968494
-7.46324e-05
-0.000926369
-8.33848e-05
-0.000879605
-9.26952e-05
-0.000827875
-0.000102663
-0.000770873
-0.000113252
-0.000708301
-0.000124441
-0.000639875
-0.000136206
-0.000565363
-0.000148444
-0.000484567
-0.000161092
-0.000397335
-0.000174053
-0.000303472
-0.000187402
-0.000203049
-0.000200634
-9.6039e-05
-0.000213923
1.74351e-05
-0.000226967
0.000137139
-0.000239622
0.000262829
-0.000251723
0.000394168
-0.000263186
0.000530647
-0.000273642
0.000671855
-0.000283279
0.000817044
-0.000291439
0.000965884
-0.000298918
0.00111724
-0.000304159
0.00127127
-0.000309671
0.00142602
-0.000311289
0.00158297
-0.000315883
0.00173841
-0.000312961
0.00189665
-0.000318752
0.00205071
-0.000310353
0.00220954
-0.000320242
0.00236202
-0.000307213
0.00252188
-0.000322549
-0.000317502
-0.000925038
4.87981e-05
-0.000940573
5.02722e-05
-0.000955875
4.93219e-05
-0.000970712
4.76887e-05
-0.000984936
4.56966e-05
-0.000998469
4.35237e-05
-0.00101127
4.1281e-05
-0.00102334
3.90151e-05
-0.00103465
3.67423e-05
-0.00104521
3.4465e-05
-0.001055
3.21777e-05
-0.00106402
2.98699e-05
-0.00107225
2.75277e-05
-0.00107967
2.51349e-05
-0.00108625
2.2674e-05
-0.00109196
2.01278e-05
-0.00109676
1.74809e-05
-0.00110062
1.47216e-05
-0.00110349
1.18408e-05
-0.00110532
8.82425e-06
-0.00110605
5.65564e-06
-0.00110565
2.32468e-06
-0.00110408
-1.17571e-06
-0.00110128
-4.73233e-06
-0.00109714
-8.61664e-06
-0.00109154
-1.28204e-05
-0.0010844
-1.73689e-05
-0.00107557
-2.22956e-05
-0.00106492
-2.76392e-05
-0.00105229
-3.34482e-05
-0.00103754
-3.97344e-05
-0.00102048
-4.65802e-05
-0.00100092
-5.403e-05
-0.000978627
-6.21374e-05
-0.000953386
-7.09541e-05
-0.000924948
-8.05302e-05
-0.000893054
-9.09144e-05
-0.000857427
-0.000102152
-0.000817787
-0.000114273
-0.000773813
-0.000127359
-0.000725265
-0.000141243
-0.000671835
-0.000156093
-0.000613235
-0.000171851
-0.000549191
-0.000188485
-0.000479438
-0.00020596
-0.000403766
-0.000224116
-0.000322011
-0.000242847
-0.000234052
-0.000262012
-0.000139682
-0.000281772
-3.90067e-05
-0.000301309
6.78913e-05
-0.000320821
0.000180922
-0.000339998
0.000299921
-0.000358621
0.000424543
-0.000376344
0.000554464
-0.000393106
0.000689159
-0.000408337
0.00082824
-0.00042236
0.000970937
-0.000434137
0.00111697
-0.000444954
0.00126518
-0.00045237
0.0014158
-0.000460289
0.00156685
-0.000462341
0.00171988
-0.000468913
0.00187125
-0.000464331
0.00202512
-0.000472621
0.00217496
-0.000460192
0.00232904
-0.000474321
0.00247738
-0.000455549
0.00263209
-0.000477266
-0.000470396
-0.000782922
6.16595e-05
-0.000796416
6.37659e-05
-0.000809773
6.26791e-05
-0.000822809
6.07249e-05
-0.000835337
5.82238e-05
-0.000847243
5.54297e-05
-0.000858472
5.25102e-05
-0.000868993
4.95366e-05
-0.000878787
4.6536e-05
-0.000887837
4.35147e-05
-0.000896126
4.04672e-05
-0.000903637
3.73808e-05
-0.000910347
3.42379e-05
-0.00091623
3.10174e-05
-0.000921252
2.7696e-05
-0.000925375
2.42504e-05
-0.000928553
2.06598e-05
-0.000930741
1.69092e-05
-0.000931889
1.29884e-05
-0.000931954
8.88981e-06
-0.000930915
4.61655e-06
-0.000928492
-9.82221e-08
-0.000925118
-4.5502e-06
-0.000920358
-9.49239e-06
-0.00091417
-1.48046e-05
-0.000906464
-2.05265e-05
-0.000897132
-2.67005e-05
-0.000886052
-3.33752e-05
-0.00087309
-4.06015e-05
-0.000858085
-4.84535e-05
-0.000840898
-5.69213e-05
-0.00082135
-6.61277e-05
-0.000799251
-7.61288e-05
-0.000774397
-8.69923e-05
-0.000746567
-9.87837e-05
-0.000715531
-0.000111566
-0.000681045
-0.000125401
-0.000642853
-0.000140344
-0.000600695
-0.000156431
-0.000554255
-0.000173799
-0.000503334
-0.000192163
-0.000447651
-0.000211776
-0.000386948
-0.000232555
-0.000320981
-0.000254451
-0.000249511
-0.000277431
-0.000172354
-0.000301273
-8.93638e-05
-0.000325837
-2.74517e-07
-0.000351101
9.432e-05
-0.000376367
0.000195043
-0.000402032
0.000301669
-0.000427448
0.000414
-0.000452328
0.000531826
-0.000476447
0.000654791
-0.000499309
0.000782572
-0.000520887
0.000914624
-0.00054039
0.00105059
-0.000558325
0.00118967
-0.000573218
0.00133166
-0.000586945
0.00147536
-0.00059607
0.0016211
-0.000606032
0.00176691
-0.000608143
0.00191436
-0.000616363
0.00205997
-0.000609946
0.00220767
-0.000620322
0.00235156
-0.000604078
0.00249894
-0.000621702
0.00264141
-0.000598017
0.00278893
-0.000624794
-0.000616785
-0.000595559
7.23989e-05
-0.000606548
7.4755e-05
-0.000617502
7.36323e-05
-0.000628319
7.15419e-05
-0.000638771
6.86764e-05
-0.000648715
6.53737e-05
-0.000658066
6.1861e-05
-0.000666769
5.82394e-05
-0.000674785
5.45519e-05
-0.000682082
5.0812e-05
-0.000688632
4.70169e-05
-0.000694404
4.31535e-05
-0.000699368
3.92019e-05
-0.000703488
3.51369e-05
-0.000706722
3.09296e-05
-0.000709021
2.65501e-05
-0.000710333
2.1971e-05
-0.000710596
1.71732e-05
-0.000709762
1.21536e-05
-0.000707792
6.92028e-06
-0.00070449
1.31473e-06
-0.000700317
-4.27171e-06
-0.000694659
-1.02076e-05
-0.000687603
-1.65488e-05
-0.000679055
-2.33522e-05
-0.000668916
-3.06656e-05
-0.000657076
-3.85409e-05
-0.000643413
-4.70382e-05
-0.000627797
-5.62177e-05
-0.000610054
-6.61965e-05
-0.000590066
-7.6909e-05
-0.000567662
-8.85316e-05
-0.000542659
-0.000101132
-0.000514863
-0.000114788
-0.00048407
-0.000129577
-0.000450064
-0.000145572
-0.000412622
-0.000162843
-0.000371516
-0.000181449
-0.000326506
-0.000201441
-0.000277289
-0.000223016
-0.0002237
-0.000245752
-0.000165498
-0.000269977
-0.000102448
-0.000295606
-3.43175e-05
-0.000322582
3.89436e-05
-0.000350692
0.000117503
-0.000379832
0.000201561
-0.000409896
0.000291122
-0.000440662
0.000386313
-0.000471558
0.000486948
-0.000502666
0.000592954
-0.000533454
0.000704121
-0.000563496
0.000820228
-0.000592553
0.000940892
-0.000619973
0.00106579
-0.00064579
0.00119437
-0.000668964
0.00132629
-0.000690249
0.00146074
-0.000707668
0.0015976
-0.000723801
0.00173562
-0.000734093
0.00187526
-0.000745671
0.00201454
-0.000747419
0.00215506
-0.000756889
0.00229358
-0.000748462
0.00243368
-0.000760418
0.00257024
-0.000740646
0.00270943
-0.000760883
0.00284465
-0.000733238
0.00298345
-0.000763602
-0.000755152
-0.000363568
8.12611e-05
-0.000371717
8.29033e-05
-0.0003801
8.2015e-05
-0.000388503
7.99452e-05
-0.000396706
7.68799e-05
-0.000404559
7.32268e-05
-0.000411939
6.92407e-05
-0.000418758
6.50578e-05
-0.000424951
6.07449e-05
-0.000430466
5.63273e-05
-0.000435257
5.18079e-05
-0.00043928
4.71763e-05
-0.00044249
4.24126e-05
-0.000444842
3.74889e-05
-0.000446284
3.23715e-05
-0.000446757
2.70233e-05
-0.000446195
2.14087e-05
-0.000444525
1.55032e-05
-0.000441697
9.32508e-06
-0.00043759
2.81378e-06
-0.00043245
-3.82554e-06
-0.000425995
-1.07267e-05
-0.000418135
-1.80672e-05
-0.000408782
-2.59018e-05
-0.000397848
-3.42869e-05
-0.000385236
-4.32773e-05
-0.00037084
-5.29365e-05
-0.000354544
-6.33341e-05
-0.000336215
-7.45474e-05
-0.000315683
-8.67281e-05
-0.000292833
-9.97593e-05
-0.000267509
-0.000113856
-0.000239537
-0.000129103
-0.000208737
-0.000145588
-0.000174918
-0.000163396
-0.00013788
-0.00018261
-9.74155e-05
-0.000203307
-5.33059e-05
-0.000225558
-5.25376e-06
-0.000249494
4.65073e-05
-0.000274778
0.0001026
-0.000301845
0.000163153
-0.00033053
0.000228329
-0.000360782
0.000298275
-0.000392528
0.000373147
-0.000425564
0.000453045
-0.000459729
0.000538005
-0.000494856
0.000628016
-0.000530673
0.000723133
-0.000566675
0.000823175
-0.000602708
0.000928026
-0.000638304
0.00103744
-0.000672909
0.00115118
-0.000706289
0.00126883
-0.000737626
0.00139009
-0.00076705
0.00151436
-0.00079324
0.00164138
-0.000817269
0.0017703
-0.000836583
0.00190108
-0.00085458
0.00203246
-0.000865475
0.002165
-0.000878209
0.00229675
-0.000879174
0.00242933
-0.000889462
0.00255975
-0.000878889
0.0026912
-0.000891866
0.00281947
-0.000868919
0.00294941
-0.000890821
0.00307639
-0.000860212
0.00320548
-0.000892695
-0.000884421
-8.44431e-05
8.42112e-05
-9.10843e-05
8.95445e-05
-9.75157e-05
8.84465e-05
-0.000103694
8.61233e-05
-0.00010983
8.30159e-05
-0.000115795
7.9192e-05
-0.000121418
7.48635e-05
-0.000126578
7.02176e-05
-0.000131185
6.53524e-05
-0.000135165
6.03068e-05
-0.000138449
5.50924e-05
-0.000140978
4.97048e-05
-0.000142692
4.41268e-05
-0.000143533
3.83299e-05
-0.000143438
3.22765e-05
-0.000142335
2.5921e-05
-0.000140141
1.92141e-05
-0.000136769
1.2131e-05
-0.000132154
4.71002e-06
-0.000126373
-2.96644e-06
-0.00011943
-1.07686e-05
-0.000111057
-1.91002e-05
-0.000101191
-2.79334e-05
-8.97488e-05
-3.73436e-05
-7.66422e-05
-4.73936e-05
-6.17689e-05
-5.81506e-05
-4.50167e-05
-6.96886e-05
-2.62642e-05
-8.20866e-05
-5.35213e-06
-9.54595e-05
1.76403e-05
-0.00010972
4.3023e-05
-0.000125142
7.09561e-05
-0.000141789
0.000101592
-0.000159739
0.00013509
-0.000179086
0.000171617
-0.000199923
0.000211345
-0.000222339
0.000254452
-0.000246414
0.000301107
-0.000272213
0.000351471
-0.000299858
0.000405803
-0.000329109
0.000464208
-0.00036025
0.000526832
-0.000393154
0.000593815
-0.000427765
0.000665265
-0.000463978
0.000741288
-0.000501587
0.000821941
-0.000540382
0.000907224
-0.00058014
0.000997085
-0.000620533
0.00109151
-0.000661098
0.0011903
-0.000701498
0.0012933
-0.000741305
0.00140023
-0.000779844
0.00151085
-0.000816902
0.00162471
-0.00085149
0.00174153
-0.00088387
0.0018607
-0.00091241
0.001982
-0.000938568
0.00210456
-0.000959148
0.00222845
-0.000978468
0.00235241
-0.00098943
0.00247706
-0.00100286
0.00260056
-0.00100267
0.00272444
-0.00101334
0.0028461
-0.00100056
0.00296822
-0.00101398
0.00308758
-0.000988278
0.00320767
-0.00101091
0.00332576
-0.000978304
0.00344464
-0.00101158
-0.00100395
0.00024274
8.84483e-05
0.000237101
9.51834e-05
0.000231897
9.36502e-05
0.00022704
9.09799e-05
0.000222214
8.78427e-05
0.000217461
8.39444e-05
0.000212955
7.93699e-05
0.000208834
7.4338e-05
0.000205208
6.8979e-05
0.00020217
6.3345e-05
0.000199806
5.74564e-05
0.000198193
5.13171e-05
0.000197405
4.49152e-05
0.000197511
3.82242e-05
0.000198583
3.12037e-05
0.000200706
2.37987e-05
0.000203975
1.59444e-05
0.000208497
7.60944e-06
0.00021441
-1.20329e-06
0.000221235
-9.79116e-06
0.00022954
-1.90737e-05
0.000239316
-2.88756e-05
0.000250655
-3.92728e-05
0.000263644
-5.03331e-05
0.000278376
-6.21252e-05
0.00029495
-7.47243e-05
0.000313471
-8.821e-05
0.000334051
-0.000102666
0.000356801
-0.00011821
0.000381892
-0.000134811
0.000409436
-0.000152686
0.000439557
-0.00017191
0.0004724
-0.000192583
0.000508115
-0.000214801
0.000546853
-0.000238661
0.000588764
-0.000264251
0.000634003
-0.000291652
0.000682714
-0.000320924
0.000735022
-0.000352167
0.000791136
-0.000385223
0.000851137
-0.000420251
0.000915137
-0.000457154
0.000983227
-0.000495854
0.00105547
-0.000536219
0.00113192
-0.000578035
0.00121258
-0.000621042
0.00129741
-0.000664977
0.00138633
-0.000709453
0.00147926
-0.000754024
0.00157598
-0.000798216
0.0016763
-0.000841626
0.00177991
-0.000883459
0.00188656
-0.000923553
0.0019958
-0.00096073
0.00210736
-0.000995429
0.00222062
-0.00102567
0.00233542
-0.00105337
0.00245091
-0.00107463
0.0025672
-0.00109476
0.00268309
-0.00110532
0.00279925
-0.00111901
0.00291398
-0.0011174
0.00302867
-0.00112803
0.00314118
-0.00111307
0.00325359
-0.00112639
0.00336372
-0.00109841
0.00347372
-0.00112091
0.00358262
-0.0010872
0.00369122
-0.00112018
-0.00111352
0.000624492
0.00061753
0.000102145
0.000611559
9.96211e-05
0.000606277
9.62621e-05
0.000601227
9.28928e-05
0.000596339
8.88325e-05
0.000591726
8.39829e-05
0.000587507
7.85563e-05
0.000583787
7.26991e-05
0.000580665
6.64676e-05
0.000578235
5.98866e-05
0.000576585
5.2967e-05
0.000575797
4.57031e-05
0.00057595
3.80708e-05
0.000577126
3.00274e-05
0.000579419
2.15065e-05
0.000582943
1.24203e-05
0.000587938
2.61425e-06
0.000593802
-7.06695e-06
0.000601231
-1.72208e-05
0.000610104
-2.79465e-05
0.000620528
-3.92998e-05
0.000632596
-5.13406e-05
0.000646395
-6.41325e-05
0.000662022
-7.77517e-05
0.000679576
-9.22782e-05
0.000699161
-0.000107795
0.000720886
-0.000124391
0.000744853
-0.000142177
0.000771223
-0.000161181
0.000800097
-0.000181559
0.000831596
-0.000203409
0.000865848
-0.000226835
0.000902983
-0.000251936
0.000943131
-0.000278809
0.000986421
-0.00030754
0.00103298
-0.000338208
0.00108292
-0.000370865
0.00113634
-0.000405586
0.00119339
-0.000442272
0.00125412
-0.000480989
0.00131862
-0.000521652
0.00138693
-0.000564158
0.00145905
-0.000608347
0.00153501
-0.000653988
0.00161475
-0.000700783
0.0016982
-0.000748429
0.00178523
-0.000796483
0.00187571
-0.000844508
0.00196941
-0.000891916
0.00206612
-0.000938328
0.00216549
-0.000982835
0.00226728
-0.00102534
0.00237103
-0.00106448
0.0024765
-0.0011009
0.00258307
-0.00113225
0.00269065
-0.00116095
0.0027984
-0.00118238
0.0029065
-0.00120287
0.00301383
-0.00121265
0.00312104
-0.00122622
0.00322667
-0.00122303
0.00333189
-0.00123325
0.00343507
-0.00121625
0.00353767
-0.00122899
0.00363851
-0.00119925
0.00373851
-0.00122091
0.00383819
-0.00118688
0.00393675
-0.00121875
-0.00121322
0.00105457
0.000113068
0.00104514
0.00010905
0.00103694
0.000104461
0.00102942
0.000100418
0.00102235
9.59e-05
0.00101577
9.05666e-05
0.00100973
8.45887e-05
0.00100432
7.81096e-05
0.000999616
7.11751e-05
0.000995698
6.38044e-05
0.000992655
5.60099e-05
0.000990569
4.77897e-05
0.000989517
3.91226e-05
0.000989579
2.99652e-05
0.000990843
2.02426e-05
0.000993441
9.82207e-06
0.000997534
-1.47816e-06
0.00100283
-1.23635e-05
0.00100964
-2.40304e-05
0.00101803
-3.63385e-05
0.00102809
-4.93564e-05
0.00103989
-6.31407e-05
0.00105352
-7.7763e-05
0.00106907
-9.33068e-05
0.00108665
-0.000109856
0.00110635
-0.000127495
0.00112828
-0.000146315
0.00115252
-0.000166425
0.00117923
-0.000187886
0.00120849
-0.000210823
0.00124043
-0.000235342
0.00127514
-0.000261547
0.00131274
-0.000289537
0.00135334
-0.000319407
0.00139703
-0.000351238
0.00144393
-0.000385103
0.00149411
-0.000421044
0.00154764
-0.000459117
0.00160461
-0.000499246
0.00166507
-0.000541444
0.00172903
-0.000585614
0.0017965
-0.000631633
0.00186747
-0.000679307
0.00194187
-0.000728392
0.00201963
-0.000778545
0.00210064
-0.000829438
0.00218473
-0.00088057
0.00227173
-0.000931513
0.00236139
-0.000981577
0.00245348
-0.00103042
0.00254766
-0.00107701
0.00264367
-0.00112135
0.00274107
-0.00116187
0.00283964
-0.00119947
0.0029388
-0.00123141
0.0030385
-0.00126064
0.00313796
-0.00128183
0.00323739
-0.0013023
0.0033358
-0.00131106
0.00343379
-0.00132421
0.00353015
-0.00131939
0.00362582
-0.00132892
0.00371969
-0.00131013
0.0038126
-0.00132189
0.0039043
-0.00129095
0.00399461
-0.00131123
0.00408529
-0.00127756
0.00417431
-0.00130777
-0.00130345
0.00155064
0.000130795
0.00153478
0.000124917
0.0015207
0.000118536
0.00150788
0.000113237
0.00149602
0.000107762
0.00148505
0.000101538
0.00147496
9.4675e-05
0.00146578
8.72948e-05
0.00145754
7.94167e-05
0.0014503
7.10425e-05
0.00144413
6.21782e-05
0.0014391
5.28199e-05
0.00143528
4.29456e-05
0.00143273
3.25094e-05
0.00143155
2.14251e-05
0.00143186
9.51106e-06
0.00143356
-3.17943e-06
0.00143691
-1.57143e-05
0.00144191
-2.90276e-05
0.00144863
-4.30548e-05
0.00145713
-5.7863e-05
0.00146751
-7.35129e-05
0.00147983
-9.00844e-05
0.00149419
-0.000107668
0.00151068
-0.00012635
0.0015294
-0.000146216
0.00155045
-0.000167356
0.0015739
-0.000189878
0.00159987
-0.000213861
0.00162847
-0.000239415
0.00165977
-0.000266644
0.00169387
-0.000295652
0.00173087
-0.000326534
0.00177084
-0.000359378
0.00181386
-0.000394261
0.00186001
-0.000431246
0.00190933
-0.000470364
0.00196186
-0.000511647
0.00201764
-0.000555034
0.00207669
-0.000600492
0.00213899
-0.00064791
0.0022045
-0.000697141
0.00227315
-0.00074796
0.00234486
-0.000800106
0.00241952
-0.000853198
0.00249696
-0.000906885
0.00257701
-0.000960613
0.00265946
-0.00101396
0.00274404
-0.00106616
0.00283052
-0.0011169
0.00291855
-0.00116504
0.00300791
-0.00121071
0.00309814
-0.00125211
0.0031891
-0.00129042
0.00328022
-0.00132253
0.0033715
-0.00135192
0.00346224
-0.00137257
0.00355268
-0.00139274
0.00364197
-0.00140035
0.00373062
-0.00141286
0.00381775
-0.00140652
0.00390397
-0.00141514
0.00398875
-0.0013949
0.00407229
-0.00140543
0.00415519
-0.00137385
0.00423635
-0.00139239
0.00431843
-0.00135964
0.00439859
-0.00138794
-0.00138485
0.00210335
0.00207809
0.000150174
0.00205513
0.000141498
0.00203406
0.000134307
0.00201459
0.000127235
0.00199657
0.000119553
0.00197993
0.000111315
0.00196462
0.000102602
0.00195064
9.33967e-05
0.00193801
8.36765e-05
0.00192676
7.34325e-05
0.00191692
6.26524e-05
0.00190856
5.13108e-05
0.0019017
3.9363e-05
0.0018964
2.67319e-05
0.00189267
1.32413e-05
0.00189093
-1.43668e-06
0.00189083
-1.56233e-05
0.00189259
-3.07852e-05
0.00189627
-4.67288e-05
0.00190191
-6.35095e-05
0.00190959
-8.11908e-05
0.00191937
-9.98648e-05
0.00193134
-0.000119633
0.00194557
-0.000140583
0.00196215
-0.000162798
0.00198116
-0.00018637
0.00200269
-0.000211404
0.00202682
-0.000237987
0.00205362
-0.00026622
0.00208318
-0.000296204
0.00211557
-0.000328038
0.00215084
-0.000361811
0.00218907
-0.000397605
0.0022303
-0.000435486
0.00227455
-0.000475504
0.00232187
-0.000517681
0.00237225
-0.000562027
0.0024257
-0.000608478
0.00248217
-0.000656969
0.00254163
-0.000707371
0.00260401
-0.000759513
0.00266919
-0.000813141
0.00273706
-0.000867977
0.00280746
-0.000923602
0.00288023
-0.000979652
0.00295514
-0.00103552
0.00303199
-0.00109081
0.0031105
-0.00114467
0.00319044
-0.00119684
0.00327147
-0.00124608
0.00335339
-0.00129262
0.00343578
-0.00133451
0.00351853
-0.00137317
0.00360114
-0.00140514
0.00368363
-0.00143441
0.00376542
-0.00145436
0.00384673
-0.00147405
0.0039269
-0.00148052
0.00400631
-0.00149228
0.00408441
-0.00148462
0.00416152
-0.00149225
0.00423759
-0.00147097
0.00431228
-0.00148013
0.0043869
-0.00144847
0.00445961
-0.0014651
0.00453371
-0.00143374
0.00460584
-0.00146006
-0.00145821
0.00266461
0.00263037
0.000175739
0.00259861
0.000166065
0.00256913
0.000156722
0.00254172
0.000146956
0.00251627
0.000136772
0.00249267
0.000126199
0.00247088
0.000115183
0.00245088
0.000103676
0.00243267
9.16486e-05
0.00241625
7.9073e-05
0.00240164
6.59151e-05
0.00238888
5.21263e-05
0.00237798
3.76305e-05
0.00236893
2.22857e-05
0.00236176
5.73589e-06
0.00235694
-1.08058e-05
0.00235413
-2.79706e-05
0.00235349
-4.60851e-05
0.00235504
-6.5059e-05
0.00235881
-8.49651e-05
0.00236487
-0.00010592
0.00237327
-0.000128041
0.00238411
-0.000151415
0.00239743
-0.000176122
0.00241331
-0.000202252
0.00243182
-0.000229908
0.00245301
-0.000259178
0.00247694
-0.000290158
0.00250368
-0.000322943
0.00253327
-0.000357625
0.00256574
-0.000394285
0.00260114
-0.000432996
0.00263946
-0.000473812
0.00268073
-0.000516773
0.00272493
-0.000561883
0.00277204
-0.000609133
0.00282201
-0.000658451
0.00287479
-0.000709747
0.00293028
-0.000762867
0.00298839
-0.000817623
0.00304898
-0.000873731
0.00311191
-0.000930901
0.00317699
-0.000988681
0.00324404
-0.0010467
0.00331282
-0.00110431
0.00338314
-0.00116113
0.00345471
-0.00121624
0.00352732
-0.00126945
0.00360065
-0.00131941
0.00367453
-0.0013665
0.0037486
-0.00140857
0.00382276
-0.00144733
0.0038966
-0.00147898
0.00397017
-0.00150798
0.00404299
-0.00152719
0.00411527
-0.00154633
0.00418654
-0.00155179
0.00425705
-0.00156279
0.00432655
-0.00155412
0.00439507
-0.00156076
0.00446301
-0.00153891
0.00452959
-0.0015467
0.00459661
-0.00151549
0.00466173
-0.00153022
0.00472862
-0.00150063
0.00479364
-0.00152508
-0.00152447
0.0032265
0.000222193
0.00318296
0.000209615
0.00314222
0.000197457
0.0031041
0.000185072
0.00306846
0.000172419
0.00303518
0.000159472
0.00300421
0.000146156
0.00297549
0.000132403
0.00294897
0.00011816
0.00292466
0.000103383
0.00290255
8.8028e-05
0.00288263
7.20431e-05
0.0028649
5.53604e-05
0.00284929
3.78982e-05
0.00283561
1.94187e-05
0.00282536
-5.59349e-07
0.00281682
-1.94305e-05
0.00281073
-3.99911e-05
0.00280711
-6.14408e-05
0.00280596
-8.38179e-05
0.00280731
-0.000107262
0.00281119
-0.000131924
0.00281767
-0.000157893
0.00282679
-0.000185242
0.0028386
-0.000214062
0.00285314
-0.000244451
0.00287046
-0.000276496
0.00289058
-0.000310286
0.00291355
-0.000345911
0.00293938
-0.000383453
0.00296808
-0.000422986
0.00299965
-0.000464569
0.00303409
-0.000508247
0.00307136
-0.000554044
0.00311143
-0.000601951
0.00315424
-0.00065194
0.00319971
-0.000703924
0.00324776
-0.000757794
0.00329826
-0.000813373
0.0033511
-0.000870458
0.00340611
-0.00092874
0.00346312
-0.000987917
0.00352195
-0.00104751
0.0035824
-0.00110715
0.00364425
-0.00116616
0.00370729
-0.00122417
0.00377126
-0.00128021
0.00383598
-0.00133417
0.00390115
-0.00138458
0.00396664
-0.001432
0.00403215
-0.00147408
0.00409762
-0.0015128
0.00416271
-0.00154408
0.00422749
-0.00157276
0.00429161
-0.00159131
0.00435523
-0.00160994
0.00441808
-0.00161464
0.00448027
-0.00162498
0.00454182
-0.00161568
0.0046025
-0.00162144
0.00466309
-0.00159951
0.00472242
-0.00160603
0.0047827
-0.00157576
0.00484121
-0.00158873
0.00490179
-0.00156122
0.00496073
-0.00158402
-0.00158468
0.00381329
0.00375885
0.000264048
0.00370747
0.000248836
0.00365899
0.000233557
0.0036133
0.000218107
0.00357035
0.000202423
0.00353007
0.000186438
0.0034924
0.000170072
0.0034573
0.000153255
0.00342476
0.000135928
0.00339475
0.000118037
0.00336727
9.95247e-05
0.00334231
8.0317e-05
0.00331987
6.03365e-05
0.00329987
3.94186e-05
0.00328187
1.74452e-05
0.00326783
-5.39459e-06
0.00325585
-2.80076e-05
0.00324651
-5.21076e-05
0.00323988
-7.71785e-05
0.00323592
-0.000103307
0.00323468
-0.000130685
0.00323619
-0.000159404
0.00324048
-0.000189529
0.00324757
-0.000221152
0.00325749
-0.000254367
0.00327025
-0.000289255
0.00328586
-0.000325899
0.00330433
-0.00036438
0.00332564
-0.000404773
0.0033498
-0.00044714
0.00337676
-0.000491531
0.00340649
-0.000537977
0.00343893
-0.000586488
0.00347402
-0.000637041
0.00351168
-0.000689592
0.00355179
-0.000744039
0.00359425
-0.000800257
0.00363893
-0.000858049
0.00368567
-0.0009172
0.00373431
-0.000977378
0.00378467
-0.00103828
0.00383656
-0.0010994
0.00388979
-0.00116039
0.00394415
-0.00122051
0.00399944
-0.00127947
0.00405545
-0.00133622
0.00411201
-0.00139073
0.00416888
-0.00144145
0.00422596
-0.00148908
0.004283
-0.00153112
0.00433999
-0.00156978
0.00439667
-0.00160076
0.0044531
-0.00162919
0.00450908
-0.00164729
0.00456469
-0.00166555
0.00461985
-0.0016698
0.00467453
-0.00167965
0.004729
-0.00167015
0.00478278
-0.00167523
0.00483697
-0.00165369
0.00489009
-0.00165915
0.0049446
-0.00163027
0.00499758
-0.00164172
0.00505288
-0.00161651
0.00510682
-0.00163796
-0.00163993
0.00429148
0.000326266
0.00423214
0.000308178
0.00417561
0.000290093
0.0041219
0.000271818
0.00407101
0.000253306
0.00402293
0.000234521
0.00397762
0.000215385
0.00393506
0.000195815
0.00389524
0.000175748
0.00385815
0.000155125
0.00382379
0.000133884
0.00379215
0.000111958
0.00376321
8.92746e-05
0.0037369
6.57296e-05
0.0037132
4.11462e-05
0.00369233
1.54716e-05
0.00367504
-1.07166e-05
0.00366016
-3.72214e-05
0.00364805
-6.50706e-05
0.00363875
-9.40089e-05
0.00363229
-0.000124222
0.00362868
-0.000155793
0.00362792
-0.000188777
0.00363004
-0.000223268
0.00363503
-0.000259353
0.00364288
-0.000297106
0.00365358
-0.000336601
0.00366711
-0.000377914
0.00368345
-0.000421108
0.00370255
-0.000466236
0.00372435
-0.000513337
0.0037488
-0.00056243
0.00377583
-0.000613512
0.00380533
-0.000666547
0.00383722
-0.000721476
0.00387136
-0.000778185
0.00390764
-0.000836536
0.00394591
-0.000896316
0.00398601
-0.000957302
0.00402778
-0.00101914
0.00407104
-0.00108154
0.00411562
-0.00114397
0.00416133
-0.0012061
0.00420798
-0.00126716
0.00425542
-0.00132691
0.00430346
-0.00138425
0.00435197
-0.00143923
0.00440075
-0.00149024
0.00444975
-0.00153808
0.00449879
-0.00158015
0.00454785
-0.00161884
0.00459678
-0.00164969
0.00464562
-0.00167804
0.00469429
-0.00169596
0.00474281
-0.00171407
0.00479124
-0.00171823
0.00483944
-0.00172785
0.00488788
-0.00171859
0.00493587
-0.00172322
0.00498473
-0.00170255
0.00503278
-0.0017072
0.00508259
-0.00168009
0.00513119
-0.00169032
0.00518228
-0.0016676
0.00523234
-0.00168803
-0.00169135
0.00474585
0.00468298
0.000371047
0.00462249
0.000350579
0.00456452
0.000329785
0.00450914
0.000308685
0.00445638
0.000287283
0.00440627
0.000265502
0.00435882
0.000243264
0.00431405
0.000220512
0.00427199
0.000197187
0.00423265
0.000173227
0.00419604
0.000148569
0.00416217
0.000123142
0.00413103
9.68697e-05
0.00410254
6.96349e-05
0.00407665
4.13613e-05
0.00405415
1.17827e-05
0.00403467
-1.77352e-05
0.00401773
-4.81335e-05
0.00400362
-7.9903e-05
0.00399239
-0.000112987
0.00398401
-0.000147417
0.00397848
-0.000183248
0.0039758
-0.000220583
0.00397594
-0.000259501
0.0039789
-0.000300065
0.00398464
-0.000342343
0.00399313
-0.000386399
0.00400431
-0.000432291
0.00401814
-0.00048006
0.00403454
-0.000529736
0.00405343
-0.000581324
0.00407473
-0.000634813
0.00409834
-0.000690154
0.00412414
-0.000747278
0.00415201
-0.000806059
0.00418183
-0.000866352
0.00421344
-0.000927928
0.00424671
-0.000990566
0.00428146
-0.0010539
0.00431755
-0.00111764
0.00435482
-0.00118124
0.0043931
-0.00124439
0.00443225
-0.00130631
0.00447213
-0.00136679
0.00451259
-0.00142471
0.00455355
-0.00148019
0.00459485
-0.00153155
0.00463648
-0.0015797
0.0046783
-0.00162197
0.00472032
-0.00166087
0.00476247
-0.00169183
0.00480476
-0.00172034
0.0048472
-0.0017384
0.00488976
-0.00175663
0.00493263
-0.0017611
0.00497554
-0.00177076
0.00501912
-0.00176216
0.00506254
-0.00176664
0.00510723
-0.00174724
0.00515141
-0.00175138
0.00519767
-0.00172635
0.00524304
-0.00173569
0.00529104
-0.0017156
0.00533833
-0.00173532
-0.00174005
0.00503412
0.0049748
0.000409904
0.00491738
0.000387206
0.00486198
0.000364079
0.00480872
0.000340546
0.00475767
0.000316546
0.00470892
0.000292023
0.0046625
0.000266925
0.00461849
0.000241197
0.00457694
0.000214784
0.00453788
0.000187628
0.00450135
0.000159667
0.00446738
0.000130843
0.00443595
0.000101067
0.00440701
7.02974e-05
0.00438044
3.8354e-05
0.00435813
4.57119e-06
0.00433776
-2.77631e-05
0.00431983
-6.19736e-05
0.00430463
-9.77847e-05
0.00429218
-0.000134968
0.00428247
-0.000173534
0.00427548
-0.000213594
0.0042712
-0.000255218
0.00426959
-0.000298458
0.00427062
-0.000343374
0.00427425
-0.000390024
0.00428041
-0.000438454
0.00428905
-0.000488698
0.00430009
-0.000540777
0.00431345
-0.000594688
0.00432905
-0.000650409
0.00434678
-0.000707883
0.00436653
-0.000767032
0.00438819
-0.00082772
0.00441164
-0.0008898
0.00443675
-0.000953032
0.00446337
-0.0010172
0.00449139
-0.00108191
0.00452066
-0.00114691
0.00455105
-0.00121163
0.00458244
-0.00127578
0.00461469
-0.00133856
0.00464773
-0.00139982
0.00468141
-0.0014584
0.00471571
-0.00151449
0.00475052
-0.00156635
0.00478582
-0.00161501
0.00482154
-0.0016577
0.00485771
-0.00169703
0.00489428