/*--------------------------------*- C++ -*----------------------------------*\
  =========                 |
  \\      /  F ield         | OpenFOAM: The Open Source CFD Toolbox
   \\    /   O peration     | Website:  https://openfoam.org
    \\  /    A nd           | Version:  7
     \\/     M anipulation  |
\*---------------------------------------------------------------------------*/
FoamFile
{
    version     2.0;
    format      ascii;
    class       surfaceScalarField;
    location    "3.8";
    object      phi;
}
// * * * * * * * * * * * * * * * * * * * * * * * * * * * * * * * * * * * * * //

dimensions      [0 3 -1 0 0 0 0];

internalField   nonuniform List<scalar> 
615
(
7.41398e-05
7.95629e-07
7.42743e-05
7.85449e-07
7.4407e-05
7.75416e-07
7.45382e-05
7.65527e-07
7.46677e-05
7.55781e-07
7.47956e-05
7.46177e-07
7.49219e-05
7.36716e-07
7.50466e-05
7.27398e-07
7.51698e-05
7.1823e-07
7.52915e-05
7.09219e-07
7.54117e-05
7.0038e-07
7.55304e-05
6.91735e-07
7.56477e-05
6.83322e-07
7.57636e-05
6.75204e-07
7.58781e-05
6.6747e-07
7.59913e-05
6.603e-07
7.61033e-05
6.53904e-07
7.62141e-05
6.48876e-07
7.63237e-05
6.45589e-07
7.64322e-05
6.46294e-07
7.65394e-05
6.50609e-07
7.66446e-05
6.67134e-07
7.67476e-05
6.85811e-07
7.29178e-07
6.09158e-05
1.20405e-06
6.11448e-05
1.1861e-06
6.13704e-05
1.16849e-06
6.15929e-05
1.15124e-06
6.18121e-05
1.13432e-06
6.20283e-05
1.11773e-06
6.22414e-05
1.10147e-06
6.24515e-05
1.08551e-06
6.26586e-05
1.06986e-06
6.28629e-05
1.05451e-06
6.30643e-05
1.03945e-06
6.32629e-05
1.02467e-06
6.34588e-05
1.01016e-06
6.3652e-05
9.95925e-07
6.38426e-05
9.81947e-07
6.40305e-05
9.68224e-07
6.42159e-05
9.54749e-07
6.43988e-05
9.41516e-07
6.45793e-05
9.28518e-07
6.47573e-05
9.1575e-07
6.4933e-05
9.03206e-07
6.51063e-05
8.90881e-07
6.52773e-05
8.78769e-07
6.5446e-05
8.66864e-07
6.56125e-05
8.55163e-07
6.57769e-05
8.43658e-07
6.5939e-05
8.32347e-07
6.60991e-05
8.21223e-07
6.62571e-05
8.10283e-07
6.6413e-05
7.99521e-07
6.65669e-05
7.88933e-07
6.67188e-05
7.78516e-07
6.68688e-05
7.68265e-07
6.70168e-05
7.58175e-07
6.71629e-05
7.48244e-07
6.73072e-05
7.38466e-07
6.74496e-05
7.28839e-07
6.75902e-05
7.19358e-07
6.7729e-05
7.10021e-07
6.78661e-05
7.00825e-07
6.80014e-05
6.91764e-07
6.8135e-05
6.82838e-07
6.82669e-05
6.74042e-07
6.83972e-05
6.65375e-07
6.85258e-05
6.56835e-07
6.86528e-05
6.48418e-07
6.87782e-05
6.40123e-07
6.8902e-05
6.31948e-07
6.90243e-05
6.23893e-07
6.9145e-05
6.15958e-07
6.92643e-05
6.08145e-07
6.93821e-05
6.00458e-07
6.94984e-05
5.92905e-07
6.96133e-05
5.85498e-07
6.97267e-05
5.78259e-07
6.98389e-05
5.71219e-07
6.99496e-05
5.64437e-07
7.00591e-05
5.57993e-07
7.01673e-05
5.52054e-07
7.02744e-05
5.46814e-07
7.03805e-05
5.42849e-07
7.04855e-05
5.40516e-07
7.05897e-05
5.42112e-07
7.0693e-05
5.47277e-07
7.07949e-05
5.65281e-07
7.08952e-05
5.85552e-07
6.34541e-07
5.53119e-05
9.83793e-07
5.5529e-05
9.69052e-07
5.57429e-05
9.54605e-07
5.59536e-05
9.40445e-07
5.61614e-05
9.26564e-07
5.63662e-05
9.12956e-07
5.6568e-05
8.99612e-07
5.6767e-05
8.86526e-07
5.69632e-05
8.73691e-07
5.71566e-05
8.61101e-07
5.73473e-05
8.48749e-07
5.75353e-05
8.3663e-07
5.77208e-05
8.24737e-07
5.79036e-05
8.13065e-07
5.8084e-05
8.01608e-07
5.82618e-05
7.90361e-07
5.84373e-05
7.79318e-07
5.86103e-05
7.68474e-07
5.8781e-05
7.57824e-07
5.89494e-05
7.47363e-07
5.91155e-05
7.37088e-07
5.92794e-05
7.26991e-07
5.94411e-05
7.17071e-07
5.96006e-05
7.07321e-07
5.97581e-05
6.97739e-07
5.99134e-05
6.88319e-07
6.00667e-05
6.79057e-07
6.0218e-05
6.6995e-07
6.03672e-05
6.60994e-07
6.05146e-05
6.52185e-07
6.066e-05
6.43519e-07
6.08035e-05
6.34994e-07
6.09452e-05
6.26604e-07
6.1085e-05
6.18348e-07
6.1223e-05
6.10222e-07
6.13593e-05
6.02222e-07
6.14938e-05
5.94346e-07
6.16265e-05
5.8659e-07
6.17576e-05
5.78953e-07
6.1887e-05
5.7143e-07
6.20147e-05
5.6402e-07
6.21409e-05
5.56719e-07
6.22654e-05
5.49526e-07
6.23883e-05
5.42438e-07
6.25097e-05
5.35455e-07
6.26295e-05
5.28572e-07
6.27479e-05
5.2179e-07
6.28647e-05
5.15106e-07
6.29801e-05
5.08521e-07
6.3094e-05
5.02034e-07
6.32065e-05
4.95648e-07
6.33176e-05
4.89365e-07
6.34273e-05
4.83194e-07
6.35357e-05
4.77143e-07
6.36427e-05
4.71233e-07
6.37484e-05
4.6549e-07
6.38529e-05
4.59966e-07
6.39562e-05
4.54729e-07
6.40583e-05
4.49932e-07
6.41593e-05
4.45745e-07
6.42595e-05
4.42708e-07
6.43589e-05
4.41149e-07
6.44576e-05
4.43341e-07
6.4556e-05
4.48931e-07
6.46536e-05
4.67679e-07
6.47504e-05
4.88699e-07
5.42281e-07
4.95232e-05
7.78363e-07
4.97256e-05
7.66649e-07
4.99251e-05
7.5517e-07
5.01216e-05
7.43921e-07
5.03153e-05
7.32894e-07
5.05061e-05
7.22084e-07
5.06943e-05
7.11486e-07
5.08797e-05
7.01094e-07
5.10625e-05
6.90902e-07
5.12427e-05
6.80906e-07
5.14203e-05
6.711e-07
5.15955e-05
6.6148e-07
5.17682e-05
6.5204e-07
5.19385e-05
6.42776e-07
5.21064e-05
6.33684e-07
5.2272e-05
6.24759e-07
5.24353e-05
6.15996e-07
5.25964e-05
6.07393e-07
5.27553e-05
5.98945e-07
5.2912e-05
5.90647e-07
5.30666e-05
5.82497e-07
5.32191e-05
5.74489e-07
5.33695e-05
5.66622e-07
5.3518e-05
5.58891e-07
5.36644e-05
5.51294e-07
5.38089e-05
5.43825e-07
5.39515e-05
5.36483e-07
5.40922e-05
5.29264e-07
5.4231e-05
5.22166e-07
5.4368e-05
5.15184e-07
5.45032e-05
5.08317e-07
5.46366e-05
5.01561e-07
5.47683e-05
4.94913e-07
5.48983e-05
4.88372e-07
5.50266e-05
4.81934e-07
5.51532e-05
4.75596e-07
5.52782e-05
4.69357e-07
5.54016e-05
4.63214e-07
5.55234e-05
4.57165e-07
5.56436e-05
4.51207e-07
5.57623e-05
4.45338e-07
5.58794e-05
4.39557e-07
5.59951e-05
4.33861e-07
5.61093e-05
4.28249e-07
5.6222e-05
4.22719e-07
5.63333e-05
4.17269e-07
5.64432e-05
4.119e-07
5.65517e-05
4.06608e-07
5.66588e-05
4.01395e-07
5.67646e-05
3.9626e-07
5.68691e-05
3.91205e-07
5.69722e-05
3.86233e-07
5.7074e-05
3.81349e-07
5.71746e-05
3.76563e-07
5.7274e-05
3.7189e-07
5.73721e-05
3.67352e-07
5.74691e-05
3.62993e-07
5.75649e-05
3.5887e-07
5.76598e-05
3.55114e-07
5.77536e-05
3.51869e-07
5.78467e-05
3.49624e-07
5.79392e-05
3.48656e-07
5.80314e-05
3.51147e-07
5.81236e-05
3.56705e-07
5.82159e-05
3.75366e-07
5.83086e-05
3.96039e-07
4.52902e-07
4.35476e-05
5.90584e-07
4.37326e-05
5.81659e-07
4.39148e-05
5.72914e-07
4.40944e-05
5.64344e-07
4.42714e-05
5.55945e-07
4.44457e-05
5.47712e-07
4.46176e-05
5.39641e-07
4.4787e-05
5.31728e-07
4.49539e-05
5.23968e-07
4.51184e-05
5.16358e-07
4.52806e-05
5.08893e-07
4.54405e-05
5.0157e-07
4.55982e-05
4.94386e-07
4.57536e-05
4.87336e-07
4.59069e-05
4.80417e-07
4.6058e-05
4.73626e-07
4.62071e-05
4.66959e-07
4.63541e-05
4.60414e-07
4.6499e-05
4.53988e-07
4.6642e-05
4.47676e-07
4.6783e-05
4.41477e-07
4.69221e-05
4.35388e-07
4.70593e-05
4.29406e-07
4.71947e-05
4.23527e-07
4.73282e-05
4.17751e-07
4.746e-05
4.12073e-07
4.759e-05
4.06492e-07
4.77182e-05
4.01005e-07
4.78448e-05
3.95609e-07
4.79697e-05
3.90303e-07
4.80929e-05
3.85085e-07
4.82145e-05
3.79951e-07
4.83345e-05
3.749e-07
4.8453e-05
3.6993e-07
4.85699e-05
3.65039e-07
4.86852e-05
3.60225e-07
4.87991e-05
3.55485e-07
4.89115e-05
3.50819e-07
4.90224e-05
3.46224e-07
4.9132e-05
3.41699e-07
4.924e-05
3.37243e-07
4.93468e-05
3.32852e-07
4.94521e-05
3.28527e-07
4.95561e-05
3.24265e-07
4.96587e-05
3.20066e-07
4.97601e-05
3.15929e-07
4.98601e-05
3.11852e-07
4.99589e-05
3.07834e-07
5.00564e-05
3.03876e-07
5.01527e-05
2.99978e-07
5.02477e-05
2.96141e-07
5.03416e-05
2.92366e-07
5.04343e-05
5.05258e-05
5.06162e-05
5.07055e-05
5.07938e-05
5.0881e-05
5.09673e-05
5.10528e-05
5.11377e-05
5.12221e-05
5.13065e-05
5.13913e-05
5.14772e-05
5.15647e-05
3.73827e-05
3.75475e-05
3.77097e-05
3.78696e-05
3.80272e-05
3.81824e-05
3.83354e-05
3.84861e-05
3.86346e-05
3.87811e-05
3.89254e-05
3.90677e-05
3.92079e-05
3.93462e-05
3.94825e-05
3.96169e-05
3.97494e-05
3.98801e-05
4.0009e-05
4.01361e-05
4.02615e-05
4.03851e-05
4.05071e-05
4.06274e-05
4.07461e-05
4.08631e-05
4.09787e-05
4.10926e-05
4.1205e-05
4.1316e-05
4.14254e-05
4.15335e-05
4.16401e-05
4.17452e-05
4.18491e-05
4.19515e-05
4.20526e-05
4.21524e-05
4.22509e-05
4.23481e-05
4.24441e-05
4.25388e-05
4.26323e-05
4.27246e-05
4.28157e-05
4.29056e-05
4.29944e-05
4.3082e-05
4.31686e-05
4.3254e-05
4.33383e-05
)
;

boundaryField
{
    inlet
    {
        type            calculated;
        value           nonuniform 0();
    }
    outlet
    {
        type            calculated;
        value           nonuniform List<scalar> 5(7.68441e-05 7.09898e-05 6.48427e-05 5.8398e-05 5.16507e-05);
    }
    wall
    {
        type            calculated;
        value           nonuniform 0();
    }
    wedge1
    {
        type            wedge;
        value           nonuniform List<scalar> 
344
(
-7.54821e-17
-6.15949e-17
-4.88885e-17
-1.13216e-16
1.84176e-16
-7.43598e-17
-6.06752e-17
-4.81554e-17
-1.1151e-16
1.8139e-16
-7.32604e-17
-5.97741e-17
-4.74375e-17
-1.09839e-16
1.78659e-16
-7.21809e-17
-5.88894e-17
-4.67322e-17
-1.082e-16
1.75985e-16
-7.11224e-17
-5.80215e-17
-4.60404e-17
-1.06594e-16
1.73364e-16
-7.00854e-17
-5.7172e-17
-4.53634e-17
-1.0502e-16
1.70794e-16
-6.90678e-17
-5.6338e-17
-4.46989e-17
-1.03476e-16
1.68275e-16
-6.80704e-17
-5.5521e-17
-4.4048e-17
-1.01963e-16
1.65805e-16
-6.70917e-17
-5.47191e-17
-4.34093e-17
-1.00479e-16
1.63384e-16
-6.61323e-17
-5.39338e-17
-4.27838e-17
-9.90242e-17
1.61008e-16
-6.51913e-17
-5.31632e-17
-4.21705e-17
-9.75973e-17
1.58678e-16
-6.42664e-17
-5.2406e-17
-4.15673e-17
-9.61966e-17
1.56392e-16
-6.33588e-17
-5.16627e-17
-4.09754e-17
-9.4822e-17
1.5415e-16
-6.24676e-17
-5.09327e-17
-4.0394e-17
-9.34725e-17
1.51951e-16
-6.15933e-17
-5.02172e-17
-3.98243e-17
-9.21492e-17
1.49792e-16
-6.07345e-17
-4.95139e-17
-3.92645e-17
-9.08494e-17
1.47673e-16
-5.98916e-17
-4.88243e-17
-3.87156e-17
-8.95744e-17
1.45592e-16
-5.90636e-17
-4.81464e-17
-3.81761e-17
-8.83217e-17
1.4355e-16
-5.82509e-17
-4.74818e-17
-3.76473e-17
-8.70928e-17
1.41544e-16
-5.7453e-17
-4.6829e-17
-3.71282e-17
-8.58859e-17
1.39574e-16
-5.66676e-17
-4.61865e-17
-3.66168e-17
-8.46994e-17
1.3764e-16
-5.58958e-17
-4.55548e-17
-3.61141e-17
-8.35333e-17
1.35741e-16
-5.51382e-17
-4.49353e-17
-3.56213e-17
-8.23889e-17
1.33874e-16
-5.4394e-17
-4.43266e-17
-3.51374e-17
-8.12644e-17
1.32039e-16
-5.36612e-17
-4.37274e-17
-3.46606e-17
-8.01584e-17
1.30237e-16
-5.29407e-17
-4.31379e-17
-3.41917e-17
-7.90709e-17
1.28466e-16
-5.22329e-17
-4.25594e-17
-3.37317e-17
-7.8003e-17
1.26724e-16
-5.15374e-17
-4.19907e-17
-3.32797e-17
-7.69531e-17
1.25012e-16
-5.08521e-17
-4.14305e-17
-3.28341e-17
-7.59199e-17
1.23329e-16
-5.01779e-17
-4.0879e-17
-3.23956e-17
-7.49033e-17
1.21674e-16
-4.95151e-17
-4.03373e-17
-3.19648e-17
-7.39042e-17
1.20046e-16
-4.88627e-17
-3.98038e-17
-3.15408e-17
-7.29207e-17
1.18445e-16
-4.8221e-17
-3.92796e-17
-3.1124e-17
-7.19539e-17
1.16869e-16
-4.75893e-17
-3.87632e-17
-3.07137e-17
-7.1002e-17
1.15318e-16
-4.6968e-17
-3.82557e-17
-3.03104e-17
-7.00659e-17
1.13792e-16
-4.63565e-17
-3.77562e-17
-2.99136e-17
-6.91445e-17
1.1229e-16
-4.57535e-17
-3.72636e-17
-2.95221e-17
-6.82368e-17
1.10811e-16
-4.51598e-17
-3.67784e-17
-2.91366e-17
-6.7343e-17
1.09356e-16
-4.45748e-17
-3.63003e-17
-2.87566e-17
-6.64625e-17
1.07923e-16
-4.39988e-17
-3.58299e-17
-2.83829e-17
-6.55959e-17
1.06511e-16
-4.34313e-17
-3.53662e-17
-2.80145e-17
-6.47419e-17
1.05121e-16
-4.28725e-17
-3.49099e-17
-2.7652e-17
-6.39012e-17
1.03752e-16
-4.23216e-17
-3.44598e-17
-2.72945e-17
-6.30725e-17
1.02403e-16
-1.5165e-16
-4.17791e-17
-3.4017e-17
-2.69428e-17
-6.22566e-17
1.01073e-16
-1.49714e-16
-4.12448e-17
-3.35807e-17
-2.65964e-17
-6.14527e-17
9.97629e-17
-1.47806e-16
-4.07174e-17
-3.31501e-17
-2.62543e-17
-6.066e-17
9.84723e-17
-1.45925e-16
-4.01977e-17
-3.27255e-17
-2.59171e-17
-5.98786e-17
9.72008e-17
-1.44071e-16
-3.96859e-17
-3.23078e-17
-2.55853e-17
-5.91093e-17
9.59475e-17
-1.42244e-16
-3.91818e-17
-3.18963e-17
-2.52586e-17
-5.83514e-17
9.47128e-17
-1.40444e-16
-3.86846e-17
-3.14904e-17
-2.49363e-17
-5.76045e-17
9.3497e-17
-1.38672e-16
-3.8195e-17
-3.10906e-17
-2.46189e-17
-5.68691e-17
9.23004e-17
-1.36927e-16
-3.77136e-17
-3.06978e-17
-2.4307e-17
-5.61463e-17
9.11231e-17
-1.35213e-16
-3.72407e-17
-3.0312e-17
-2.40009e-17
-5.54364e-17
-1.3353e-16
-3.67764e-17
-2.99333e-17
-2.37004e-17
-5.47404e-17
-1.31884e-16
-3.63224e-17
-2.9563e-17
-2.34067e-17
-5.40608e-17
-1.30281e-16
-3.58809e-17
-2.92034e-17
-2.31217e-17
-5.34013e-17
-1.28731e-16
-3.54549e-17
-2.88569e-17
-2.28475e-17
-5.27677e-17
-1.27253e-16
-3.50495e-17
-2.85281e-17
-2.2588e-17
-5.21691e-17
-1.25876e-16
-3.46741e-17
-2.82255e-17
-2.23505e-17
-5.16243e-17
-1.24639e-16
-3.43407e-17
-2.79596e-17
-2.21441e-17
-5.11558e-17
-1.23639e-16
-3.40803e-17
-2.77598e-17
-2.19956e-17
-5.08337e-17
-1.22954e-16
-3.39178e-17
-2.76494e-17
-2.19256e-17
-5.07108e-17
-1.22928e-16
-3.39691e-17
-2.77429e-17
-2.20438e-17
-5.10933e-17
-1.23573e-16
-3.42408e-17
-2.8049e-17
-2.23594e-17
-5.19994e-17
-1.26107e-16
-3.51654e-17
-2.90203e-17
-2.33341e-17
-5.48195e-17
-1.29249e-16
-3.63042e-17
-3.02148e-17
-2.45302e-17
-5.82452e-17
-1.35732e-16
-3.8724e-17
-3.28506e-17
-2.73126e-17
-6.68518e-17
)
;
    }
    wedge2
    {
        type            wedge;
        value           nonuniform List<scalar> 
344
(
-7.55102e-17
-6.16209e-17
-4.89117e-17
-1.13236e-16
1.84159e-16
-7.43865e-17
-6.06993e-17
-4.8177e-17
-1.11529e-16
1.81374e-16
-7.32843e-17
-5.97958e-17
-4.74564e-17
-1.09856e-16
1.78645e-16
-7.22055e-17
-5.89116e-17
-4.67519e-17
-1.08218e-16
1.7597e-16
-7.11479e-17
-5.80453e-17
-4.60616e-17
-1.06612e-16
1.73348e-16
-7.011e-17
-5.71945e-17
-4.53837e-17
-1.05037e-16
1.70779e-16
-6.90926e-17
-5.63613e-17
-4.47198e-17
-1.03494e-16
1.6826e-16
-6.80941e-17
-5.5543e-17
-4.40679e-17
-1.0198e-16
1.65791e-16
-6.71149e-17
-5.4741e-17
-4.34289e-17
-1.00496e-16
1.63369e-16
-6.61533e-17
-5.3953e-17
-4.28011e-17
-9.90393e-17
1.60995e-16
-6.52094e-17
-5.31798e-17
-4.2185e-17
-9.76103e-17
1.58667e-16
-6.42846e-17
-5.24223e-17
-4.15818e-17
-9.62092e-17
1.56382e-16
-6.33767e-17
-5.1679e-17
-4.099e-17
-9.48347e-17
1.5414e-16
-6.24859e-17
-5.095e-17
-4.04096e-17
-9.34864e-17
1.51939e-16
-6.16107e-17
-5.02333e-17
-3.9839e-17
-9.2162e-17
1.49781e-16
-6.07518e-17
-4.95304e-17
-3.92795e-17
-9.08628e-17
1.47662e-16
-5.99078e-17
-4.88394e-17
-3.87293e-17
-8.95864e-17
1.45582e-16
-5.90792e-17
-4.81614e-17
-3.81897e-17
-8.83339e-17
1.4354e-16
-5.82646e-17
-4.74944e-17
-3.76587e-17
-8.71028e-17
1.41536e-16
-5.7464e-17
-4.68391e-17
-3.71369e-17
-8.58938e-17
1.39567e-16
-5.66788e-17
-4.61965e-17
-3.66258e-17
-8.47072e-17
1.37633e-16
-5.59072e-17
-4.55657e-17
-3.61238e-17
-8.3542e-17
1.35733e-16
-5.51482e-17
-4.49444e-17
-3.56295e-17
-8.2396e-17
1.33868e-16
-5.44016e-17
-4.43336e-17
-3.51434e-17
-8.12698e-17
1.32034e-16
-5.36689e-17
-4.37343e-17
-3.46667e-17
-8.01637e-17
1.30232e-16
-5.29486e-17
-4.31454e-17
-3.41984e-17
-7.90771e-17
1.28461e-16
-5.22395e-17
-4.25654e-17
-3.37371e-17
-7.80077e-17
1.26721e-16
-5.15417e-17
-4.19947e-17
-3.3283e-17
-7.69562e-17
1.25009e-16
-5.08566e-17
-4.14344e-17
-3.28376e-17
-7.59229e-17
1.23326e-16
-5.01827e-17
-4.08838e-17
-3.23998e-17
-7.49072e-17
1.21671e-16
-4.95192e-17
-4.03413e-17
-3.19686e-17
-7.39073e-17
1.20043e-16
-4.88665e-17
-3.98079e-17
-3.15445e-17
-7.29242e-17
1.18442e-16
-4.82237e-17
-3.92824e-17
-3.11268e-17
-7.19562e-17
1.16867e-16
-4.75913e-17
-3.87656e-17
-3.07159e-17
-7.10042e-17
1.15317e-16
-4.69682e-17
-3.82561e-17
-3.03109e-17
-7.00664e-17
1.13792e-16
-4.63545e-17
-3.77545e-17
-2.9912e-17
-6.91432e-17
1.12291e-16
-4.57511e-17
-3.72613e-17
-2.95201e-17
-6.8235e-17
1.10813e-16
-4.51568e-17
-3.67758e-17
-2.91343e-17
-6.73409e-17
1.09358e-16
-4.45718e-17
-3.6298e-17
-2.87546e-17
-6.64609e-17
1.07924e-16
-4.39951e-17
-3.58268e-17
-2.83802e-17
-6.55936e-17
1.06513e-16
-4.34271e-17
-3.53629e-17
-2.80117e-17
-6.47396e-17
1.05123e-16
-4.28672e-17
-3.49054e-17
-2.76482e-17
-6.38979e-17
1.03754e-16
-4.23157e-17
-3.4455e-17
-2.72903e-17
-6.3069e-17
1.02406e-16
-1.51642e-16
-4.17719e-17
-3.40106e-17
-2.69372e-17
-6.22517e-17
1.01077e-16
-1.49705e-16
-4.12357e-17
-3.35726e-17
-2.65891e-17
-6.14465e-17
9.9768e-17
-1.47796e-16
-4.07081e-17
-3.31417e-17
-2.62468e-17
-6.06534e-17
9.84778e-17
-1.45914e-16
-4.01881e-17
-3.27172e-17
-2.59096e-17
-5.98722e-17
9.72063e-17
-1.44059e-16
-3.96752e-17
-3.22982e-17
-2.55768e-17
-5.91019e-17
9.59539e-17
-1.42231e-16
-3.91695e-17
-3.18852e-17
-2.52487e-17
-5.83428e-17
9.472e-17
-1.40431e-16
-3.8672e-17
-3.14789e-17
-2.49261e-17
-5.75957e-17
9.35046e-17
-1.38657e-16
-3.81821e-17
-3.10791e-17
-2.46087e-17
-5.68603e-17
9.2308e-17
-1.36912e-16
-3.76997e-17
-3.06853e-17
-2.42959e-17
-5.61365e-17
9.11314e-17
-1.35196e-16
-3.72254e-17
-3.02982e-17
-2.39885e-17
-5.54256e-17
-1.33513e-16
-3.67606e-17
-2.9919e-17
-2.36877e-17
-5.47293e-17
-1.31866e-16
-3.63062e-17
-2.95486e-17
-2.33939e-17
-5.40496e-17
-1.30262e-16
-3.58639e-17
-2.91882e-17
-2.31082e-17
-5.33895e-17
-1.28712e-16
-3.54372e-17
-2.88412e-17
-2.28336e-17
-5.27556e-17
-1.27232e-16
-3.50309e-17
-2.85114e-17
-2.25732e-17
-5.21562e-17
-1.25854e-16
-3.46546e-17
-2.82079e-17
-2.23349e-17
-5.16106e-17
-1.24616e-16
-3.43201e-17
-2.79413e-17
-2.21279e-17
-5.11416e-17
-1.23616e-16
-3.40589e-17
-2.77406e-17
-2.19785e-17
-5.08188e-17
-1.2293e-16
-3.38957e-17
-2.76295e-17
-2.19079e-17
-5.06953e-17
-1.22903e-16
-3.39462e-17
-2.77222e-17
-2.20255e-17
-5.10773e-17
-1.23547e-16
-3.42172e-17
-2.80278e-17
-2.23406e-17
-5.1983e-17
-1.2608e-16
-3.51412e-17
-2.89986e-17
-2.33149e-17
-5.48028e-17
-1.29222e-16
-3.62794e-17
-3.01924e-17
-2.45104e-17
-5.8228e-17
-1.35704e-16
-3.86986e-17
-3.28278e-17
-2.72925e-17
-6.68342e-17
)
;
    }
    axis
    {
        type            empty;
        value           nonuniform 0();
    }
    procBoundary41to35
    {
        type            processor;
        value           nonuniform List<scalar> 
68
(
-9.318e-07
-9.19917e-07
-9.08205e-07
-8.9666e-07
-8.85282e-07
-8.74068e-07
-8.63019e-07
-8.52138e-07
-8.41428e-07
-8.309e-07
-8.20568e-07
-8.10458e-07
-8.00609e-07
-7.9109e-07
-7.81996e-07
-7.73516e-07
-7.65869e-07
-7.59652e-07
-7.5524e-07
-7.54779e-07
-7.57871e-07
-7.72291e-07
-7.88761e-07
-8.25705e-07
-1.43639e-06
-1.41507e-06
-1.39417e-06
-1.37368e-06
-1.35358e-06
-1.33388e-06
-1.31456e-06
-1.2956e-06
-1.27701e-06
-1.25877e-06
-1.24086e-06
-1.2233e-06
-1.20605e-06
-1.18912e-06
-1.17251e-06
-1.15619e-06
-1.14016e-06
-1.12442e-06
-1.10896e-06
-1.09378e-06
-1.07885e-06
-1.06419e-06
-1.04977e-06
-1.03561e-06
-1.02168e-06
-1.00799e-06
-9.94524e-07
-9.81282e-07
-9.68256e-07
-9.55442e-07
-9.42835e-07
-9.30429e-07
-9.1822e-07
-9.06203e-07
-8.94372e-07
-8.82725e-07
-8.71255e-07
-8.5996e-07
-8.48835e-07
-8.37876e-07
-8.2708e-07
-8.16442e-07
-7.40036e-05
-8.05959e-07
)
;
    }
    procBoundary41to40
    {
        type            processor;
        value           nonuniform List<scalar> 4(-6.06835e-05 -5.50917e-05 -4.93178e-05 -4.33598e-05);
    }
    procBoundary41to46
    {
        type            processor;
        value           uniform -3.72155e-05;
    }
    procBoundary41to47
    {
        type            processor;
        value           nonuniform List<scalar> 
68
(
2.8866e-07
2.85029e-07
2.81484e-07
2.78045e-07
2.74744e-07
2.71629e-07
2.68806e-07
2.66387e-07
2.64799e-07
2.64248e-07
2.66752e-07
2.71822e-07
2.89498e-07
3.08502e-07
3.66957e-07
4.23337e-07
4.16914e-07
4.1062e-07
4.04454e-07
3.98411e-07
3.92488e-07
3.86683e-07
3.80991e-07
3.7541e-07
3.69937e-07
3.64569e-07
3.59304e-07
3.54139e-07
3.49071e-07
3.44097e-07
3.39216e-07
3.34425e-07
3.29722e-07
3.25104e-07
3.20569e-07
3.16116e-07
3.11741e-07
3.07444e-07
3.03222e-07
2.99073e-07
2.94996e-07
2.90988e-07
2.87048e-07
2.83174e-07
2.79365e-07
2.75618e-07
2.71933e-07
2.68308e-07
2.64741e-07
2.61231e-07
2.57776e-07
2.54375e-07
2.51027e-07
2.4773e-07
2.44484e-07
2.41286e-07
2.38136e-07
2.35034e-07
2.31977e-07
2.28965e-07
2.25997e-07
2.23072e-07
2.20191e-07
2.17352e-07
2.14556e-07
2.11804e-07
4.34216e-05
2.09097e-07
)
;
    }
}


// ************************************************************************* //
