/*--------------------------------*- C++ -*----------------------------------*\
  =========                 |
  \\      /  F ield         | OpenFOAM: The Open Source CFD Toolbox
   \\    /   O peration     | Website:  https://openfoam.org
    \\  /    A nd           | Version:  7
     \\/     M anipulation  |
\*---------------------------------------------------------------------------*/
FoamFile
{
    version     2.0;
    format      ascii;
    class       volScalarField;
    location    "5";
    object      p;
}
// * * * * * * * * * * * * * * * * * * * * * * * * * * * * * * * * * * * * * //

dimensions      [0 2 -2 0 0 0 0];

internalField   nonuniform List<scalar> 
344
(
3.41353
3.4066
3.39969
3.3928
3.38593
3.37909
3.37227
3.36549
3.35874
3.35203
3.34537
3.33876
3.33222
3.32574
3.31935
3.31306
3.30687
3.30082
3.29492
3.28919
3.28367
3.2784
3.27341
3.26875
3.26448
3.26066
3.25736
3.25467
3.25269
3.2515
3.25122
3.25193
3.25369
3.25654
3.26022
3.26494
3.2694
3.27776
3.2813
3.3176
3.59083
3.5836
3.57639
3.56918
3.56199
3.55481
3.54764
3.54048
3.53334
3.5262
3.51907
3.51196
3.50485
3.49776
3.49067
3.4836
3.47654
3.46949
3.46245
3.45542
3.4484
3.4414
3.43441
3.42743
3.42047
3.41353
3.4066
3.39969
3.3928
3.38593
3.37909
3.37228
3.3655
3.35875
3.35205
3.34539
3.33879
3.33225
3.32578
3.3194
3.31312
3.30694
3.30091
3.29502
3.28932
3.28383
3.27858
3.27362
3.269
3.26478
3.26101
3.25778
3.25517
3.25326
3.25217
3.25198
3.2528
3.25467
3.25763
3.26147
3.26635
3.27115
3.27949
3.28383
3.31508
3.59081
3.58359
3.57637
3.56917
3.56198
3.5548
3.54763
3.54047
3.53332
3.52619
3.51906
3.51194
3.50484
3.49774
3.49066
3.48359
3.47653
3.46948
3.46244
3.45541
3.44839
3.44139
3.4344
3.42742
3.42046
3.41352
3.40659
3.39968
3.39279
3.38593
3.37909
3.37228
3.3655
3.35875
3.35205
3.3454
3.3388
3.33226
3.3258
3.31942
3.31314
3.30698
3.30095
3.29507
3.28938
3.2839
3.27867
3.27373
3.26913
3.26492
3.26118
3.25798
3.25539
3.25351
3.25244
3.25228
3.25312
3.25499
3.25795
3.26181
3.26672
3.27173
3.27995
3.28484
3.31154
3.59079
3.58357
3.57636
3.56915
3.56196
3.55478
3.54761
3.54046
3.53331
3.52617
3.51905
3.51193
3.50483
3.49773
3.49065
3.48357
3.47651
3.46946
3.46242
3.4554
3.44838
3.44138
3.43439
3.42741
3.42045
3.41351
3.40658
3.39967
3.39278
3.38592
3.37908
3.37227
3.36549
3.35875
3.35205
3.34539
3.33879
3.33226
3.3258
3.31942
3.31314
3.30697
3.30094
3.29507
3.28938
3.2839
3.27867
3.27373
3.26913
3.26493
3.26118
3.25797
3.25538
3.25348
3.25239
3.25218
3.25296
3.25476
3.25763
3.26141
3.26627
3.27141
3.27946
3.28476
3.30741
3.59078
3.58355
3.57634
3.56914
3.56195
3.55477
3.5476
3.54044
3.53329
3.52616
3.51903
3.51192
3.50481
3.49772
3.49063
3.48356
3.4765
3.46945
3.46241
3.45538
3.44837
3.44136
3.43437
3.4274
3.42044
3.41349
3.40657
3.39966
3.39277
3.3859
3.37906
3.37225
3.36547
3.35873
3.35203
3.34537
3.33877
3.33224
3.32577
3.31939
3.31311
3.30694
3.30091
3.29503
3.28933
3.28384
3.2786
3.27365
3.26903
3.26481
3.26104
3.2578
3.25516
3.25321
3.25205
3.25175
3.25241
3.25407
3.25677
3.26042
3.26516
3.27037
3.27827
3.28391
3.30306
3.59076
3.58353
3.57632
3.56912
3.56193
3.55475
3.54758
3.54042
3.53328
3.52614
3.51901
3.5119
3.50479
3.4977
3.49062
3.48355
3.47648
3.46943
3.46239
3.45537
3.44835
3.44135
3.43436
3.42738
3.42042
3.41348
3.40655
3.39964
3.39275
3.38588
3.37904
3.37223
3.36545
3.3587
3.352
3.34534
3.33874
3.3322
3.32573
3.31934
3.31305
3.30688
3.30083
3.29494
)
;

boundaryField
{
    inlet
    {
        type            zeroGradient;
    }
    outlet
    {
        type            fixedValue;
        value           nonuniform 0();
    }
    wall
    {
        type            zeroGradient;
    }
    wedge1
    {
        type            wedge;
    }
    wedge2
    {
        type            wedge;
    }
    axis
    {
        type            empty;
    }
    procBoundary38to32
    {
        type            processor;
        value           nonuniform List<scalar> 
66
(
3.41353
3.4066
3.39969
3.39279
3.38592
3.37908
3.37226
3.36547
3.35872
3.352
3.34533
3.33872
3.33216
3.32568
3.31927
3.31296
3.30675
3.30068
3.29475
3.28899
3.28344
3.27812
3.27307
3.26835
3.264
3.26009
3.25669
3.25388
3.25174
3.25039
3.24992
3.25042
3.25193
3.25451
3.25787
3.26226
3.26616
3.27436
3.27676
3.31854
3.59084
3.58362
3.5764
3.5692
3.56201
3.55483
3.54766
3.5405
3.53335
3.52621
3.51909
3.51197
3.50486
3.49777
3.49068
3.48361
3.47655
3.4695
3.46246
3.45543
3.44841
3.44141
3.43442
3.42744
3.42048
3.42048
)
;
    }
    procBoundary38to37
    {
        type            processor;
        value           nonuniform List<scalar> 4(3.59806 3.59805 3.59803 3.59801);
    }
    procBoundary38to43
    {
        type            processor;
        value           uniform 3.59799;
    }
    procBoundary38to44
    {
        type            processor;
        value           nonuniform List<scalar> 
66
(
3.28923
3.28373
3.27847
3.27349
3.26885
3.26459
3.26078
3.25748
3.25477
3.25274
3.25147
3.25105
3.25154
3.25301
3.2555
3.25896
3.26355
3.2688
3.27659
3.28257
3.2988
3.59074
3.58351
3.5763
3.5691
3.56191
3.55473
3.54756
3.54041
3.53326
3.52612
3.519
3.51188
3.50478
3.49768
3.4906
3.48353
3.47647
3.46942
3.46238
3.45535
3.44834
3.44133
3.43434
3.42737
3.4204
3.41346
3.40653
3.39962
3.39273
3.38586
3.37902
3.3722
3.36542
3.35867
3.35196
3.3453
3.33869
3.33215
3.32567
3.31928
3.31298
3.30679
3.30073
3.28923
3.29483
)
;
    }
}


// ************************************************************************* //
