/*--------------------------------*- C++ -*----------------------------------*\
  =========                 |
  \\      /  F ield         | OpenFOAM: The Open Source CFD Toolbox
   \\    /   O peration     | Website:  https://openfoam.org
    \\  /    A nd           | Version:  7
     \\/     M anipulation  |
\*---------------------------------------------------------------------------*/
FoamFile
{
    version     2.0;
    format      ascii;
    class       surfaceScalarField;
    location    "1";
    object      phi;
}
// * * * * * * * * * * * * * * * * * * * * * * * * * * * * * * * * * * * * * //

dimensions      [0 3 -1 0 0 0 0];

internalField   nonuniform List<scalar> 
627
(
6.0003e-05
-9.38974e-13
6.0003e-05
-4.89119e-13
6.0003e-05
-2.17724e-13
6.0003e-05
-5.68147e-14
6.0003e-05
2.30415e-14
6.0003e-05
6.23181e-14
6.0003e-05
8.23969e-14
6.0003e-05
8.50473e-14
6.0003e-05
7.79461e-14
6.0003e-05
6.70061e-14
6.0003e-05
4.92714e-14
6.0003e-05
2.25141e-14
6.0003e-05
-1.35517e-14
6.0003e-05
-3.96938e-14
-6.34253e-14
5.03013e-05
2.37442e-11
5.03013e-05
2.09301e-11
5.03013e-05
1.80885e-11
5.03013e-05
1.56725e-11
5.03013e-05
1.36232e-11
5.03013e-05
1.19127e-11
5.03013e-05
1.04462e-11
5.03013e-05
9.15064e-12
5.03013e-05
8.02332e-12
5.03013e-05
7.05902e-12
5.03013e-05
6.20368e-12
5.03013e-05
5.44701e-12
5.03013e-05
4.78963e-12
5.03013e-05
4.21527e-12
5.03013e-05
3.70271e-12
5.03013e-05
3.25466e-12
5.03014e-05
2.86201e-12
5.03014e-05
2.49574e-12
5.03014e-05
2.16112e-12
5.03014e-05
1.88016e-12
5.03014e-05
1.65925e-12
5.03014e-05
1.46082e-12
5.03014e-05
1.28283e-12
5.03014e-05
1.13434e-12
5.03014e-05
1.01647e-12
5.03014e-05
9.11562e-13
5.03014e-05
8.0435e-13
5.03014e-05
6.89002e-13
5.03014e-05
5.83501e-13
5.03014e-05
4.81952e-13
5.03014e-05
3.84974e-13
5.03014e-05
3.00703e-13
5.03014e-05
2.51222e-13
5.03014e-05
2.23619e-13
5.03014e-05
2.04038e-13
5.03014e-05
1.52825e-13
5.03014e-05
6.82617e-14
5.03014e-05
-2.74769e-14
5.03014e-05
-1.27689e-13
5.03014e-05
-2.21535e-13
5.03014e-05
-3.25768e-13
5.03014e-05
-4.47048e-13
5.03014e-05
-5.19627e-13
5.03014e-05
-4.51706e-13
5.03014e-05
-3.94017e-13
5.03014e-05
-4.11473e-13
5.03014e-05
-3.98664e-13
5.03014e-05
-3.7352e-13
5.03014e-05
-3.51801e-13
5.03014e-05
-3.61337e-13
5.03014e-05
-4.57723e-13
5.03014e-05
-7.80452e-13
5.03014e-05
-7.6666e-13
5.03014e-05
-3.82468e-13
5.03014e-05
-1.69889e-13
5.03014e-05
-4.92356e-14
5.03014e-05
1.14142e-14
5.03014e-05
3.97715e-14
5.03014e-05
5.35449e-14
5.03014e-05
5.69563e-14
5.03014e-05
5.39587e-14
5.03014e-05
4.70539e-14
5.03014e-05
3.45482e-14
5.03014e-05
1.72799e-14
5.03014e-05
-7.17108e-15
5.03014e-05
-5.61171e-15
-2.33644e-14
4.00592e-05
1.48917e-11
4.00592e-05
1.31628e-11
4.00592e-05
1.13144e-11
4.00592e-05
9.75549e-12
4.00593e-05
8.4437e-12
4.00593e-05
7.36773e-12
4.00593e-05
6.45054e-12
4.00593e-05
5.63676e-12
4.00593e-05
4.93094e-12
4.00593e-05
4.33442e-12
4.00593e-05
3.80948e-12
4.00593e-05
3.33975e-12
4.00593e-05
2.92982e-12
4.00593e-05
2.5762e-12
4.00593e-05
2.26514e-12
4.00593e-05
1.99103e-12
4.00593e-05
1.74668e-12
4.00593e-05
1.51913e-12
4.00593e-05
1.3131e-12
4.00593e-05
1.14284e-12
4.00593e-05
1.0093e-12
4.00593e-05
8.91266e-13
4.00593e-05
7.85851e-13
4.00593e-05
6.9875e-13
4.00593e-05
6.26304e-13
4.00593e-05
5.58478e-13
4.00593e-05
4.87732e-13
4.00593e-05
4.14121e-13
4.00593e-05
3.49351e-13
4.00593e-05
2.90532e-13
4.00593e-05
2.36847e-13
4.00593e-05
1.92514e-13
4.00593e-05
1.65842e-13
4.00593e-05
1.4913e-13
4.00593e-05
1.35469e-13
4.00593e-05
1.02121e-13
4.00593e-05
4.73528e-14
4.00593e-05
-1.22429e-14
4.00593e-05
-7.33882e-14
4.00593e-05
-1.30728e-13
4.00593e-05
-1.92686e-13
4.00593e-05
-2.62569e-13
4.00593e-05
-2.94087e-13
4.00593e-05
-2.40431e-13
4.00593e-05
-2.06723e-13
4.00593e-05
-2.24955e-13
4.00593e-05
-2.24737e-13
4.00593e-05
-2.17685e-13
4.00593e-05
-2.1385e-13
4.00593e-05
-2.33598e-13
4.00593e-05
-3.20924e-13
4.00593e-05
-5.74339e-13
4.00593e-05
-5.23125e-13
4.00593e-05
-2.22464e-13
4.00593e-05
-1.08698e-13
4.00593e-05
-3.26375e-14
4.00593e-05
4.68962e-15
4.00593e-05
2.16545e-14
4.00593e-05
3.03738e-14
4.00593e-05
3.41129e-14
4.00593e-05
3.39184e-14
4.00593e-05
2.96549e-14
4.00593e-05
2.11783e-14
4.00593e-05
1.18934e-14
4.00593e-05
-3.7117e-15
4.00593e-05
8.24863e-15
-3.33137e-15
2.92796e-05
7.40051e-12
2.92796e-05
6.61369e-12
2.92796e-05
5.64557e-12
2.92796e-05
4.84713e-12
2.92796e-05
4.16984e-12
2.92796e-05
3.63181e-12
2.92796e-05
3.18e-12
2.92796e-05
2.76986e-12
2.92796e-05
2.4144e-12
2.92796e-05
2.12408e-12
2.92796e-05
1.869e-12
2.92796e-05
1.63158e-12
2.92796e-05
1.42524e-12
2.92796e-05
1.25515e-12
2.92796e-05
1.10664e-12
2.92796e-05
9.71003e-13
2.92796e-05
8.48112e-13
2.92796e-05
7.35575e-13
2.92796e-05
6.35418e-13
2.92796e-05
5.53869e-13
2.92796e-05
4.90698e-13
2.92796e-05
4.36221e-13
2.92796e-05
3.8751e-13
2.92796e-05
3.4638e-13
2.92796e-05
3.0873e-13
2.92796e-05
2.7138e-13
2.92796e-05
2.33026e-13
2.92796e-05
1.95138e-13
2.92796e-05
1.64648e-13
2.92796e-05
1.40107e-13
2.92796e-05
1.18179e-13
2.92796e-05
1.00001e-13
2.92796e-05
8.80464e-14
2.92796e-05
7.82898e-14
2.92796e-05
6.96949e-14
2.92796e-05
5.19247e-14
2.92796e-05
2.34111e-14
2.92796e-05
-5.87489e-15
2.92796e-05
-3.46164e-14
2.92796e-05
-6.07133e-14
2.92796e-05
-8.82138e-14
2.92796e-05
-1.19728e-13
2.92796e-05
-1.29756e-13
2.92796e-05
-9.67483e-14
2.92796e-05
-8.07652e-14
2.92796e-05
-9.4696e-14
2.92796e-05
-9.90247e-14
2.92796e-05
-1.00244e-13
2.92796e-05
-1.02929e-13
2.92796e-05
-1.17639e-13
2.92796e-05
-1.72976e-13
2.92796e-05
-2.82691e-13
2.92796e-05
-2.3436e-13
2.92796e-05
-9.73111e-14
2.92796e-05
-5.19126e-14
2.92796e-05
-1.48901e-14
2.92796e-05
1.51939e-15
2.92796e-05
8.8474e-15
2.92796e-05
1.37723e-14
2.92796e-05
1.69723e-14
2.92796e-05
1.7517e-14
2.92796e-05
1.55063e-14
2.92796e-05
1.05628e-14
2.92796e-05
6.87199e-15
2.92796e-05
-2.26278e-15
2.92796e-05
1.24118e-14
6.8379e-15
1.79663e-05
2.13139e-12
1.79663e-05
1.92818e-12
1.79663e-05
1.6287e-12
1.79663e-05
1.39876e-12
1.79663e-05
1.19233e-12
1.79663e-05
1.03478e-12
1.79664e-05
9.09221e-13
1.79664e-05
7.89048e-13
1.79664e-05
6.84475e-13
1.79664e-05
6.04986e-13
1.79664e-05
5.32627e-13
1.79664e-05
4.58347e-13
1.79664e-05
3.96774e-13
1.79664e-05
3.53246e-13
1.79664e-05
3.13541e-13
1.79664e-05
2.72229e-13
1.79664e-05
2.35421e-13
1.79664e-05
2.04489e-13
1.79664e-05
1.77828e-13
1.79664e-05
1.5593e-13
1.79664e-05
1.39749e-13
1.79664e-05
1.2707e-13
1.79664e-05
1.14802e-13
1.79664e-05
1.01877e-13
1.79664e-05
8.74927e-14
1.79664e-05
7.32404e-14
1.79664e-05
6.08284e-14
1.79664e-05
5.04442e-14
1.79664e-05
4.45601e-14
1.79664e-05
4.18544e-14
1.79664e-05
3.74826e-14
1.79664e-05
3.154e-14
1.79664e-05
2.66725e-14
1.79664e-05
2.18195e-14
1.79664e-05
1.83464e-14
1.79664e-05
1.33224e-14
1.79664e-05
5.00551e-15
1.79664e-05
-2.77196e-15
1.79664e-05
-9.34029e-15
1.79664e-05
-1.4447e-14
1.79664e-05
-1.98134e-14
1.79664e-05
-2.71252e-14
1.79664e-05
-2.88754e-14
1.79664e-05
-1.77788e-14
1.79664e-05
-1.46299e-14
1.79664e-05
-2.22203e-14
1.79664e-05
-2.58049e-14
1.79664e-05
-2.72819e-14
1.79664e-05
-2.8522e-14
1.79664e-05
-3.31393e-14
1.79664e-05
-5.1797e-14
1.79664e-05
-8.16877e-14
1.79664e-05
-5.98597e-14
1.79664e-05
-2.1196e-14
1.79664e-05
-1.2394e-14
1.79664e-05
-2.93147e-15
1.79664e-05
-2.56347e-16
1.79664e-05
1.79935e-15
1.79664e-05
4.27361e-15
1.79664e-05
6.08126e-15
1.79664e-05
6.18257e-15
1.79664e-05
5.2803e-15
1.79664e-05
3.09188e-15
1.79664e-05
2.63891e-15
1.79664e-05
-8.38153e-16
1.79664e-05
9.70929e-15
8.47871e-15
6.12451e-06
6.12451e-06
6.12451e-06
6.12451e-06
6.12451e-06
6.12452e-06
6.12452e-06
6.12452e-06
6.12452e-06
6.12452e-06
6.12452e-06
6.12452e-06
6.12452e-06
6.12452e-06
6.12452e-06
6.12452e-06
6.12452e-06
6.12452e-06
6.12452e-06
6.12452e-06
6.12452e-06
6.12452e-06
6.12452e-06
6.12452e-06
6.12452e-06
6.12452e-06
6.12452e-06
6.12452e-06
6.12452e-06
6.12452e-06
6.12452e-06
6.12452e-06
6.12452e-06
6.12452e-06
6.12452e-06
6.12452e-06
6.12452e-06
6.12452e-06
6.12452e-06
6.12452e-06
6.12452e-06
6.12452e-06
6.12452e-06
6.12452e-06
6.12452e-06
6.12452e-06
6.12452e-06
6.12452e-06
6.12452e-06
6.12452e-06
6.12452e-06
6.12452e-06
6.12452e-06
6.12452e-06
6.12452e-06
6.12452e-06
6.12452e-06
6.12452e-06
6.12452e-06
6.12452e-06
6.12452e-06
6.12452e-06
6.12452e-06
6.12452e-06
6.12452e-06
6.12452e-06
)
;

boundaryField
{
    inlet
    {
        type            calculated;
        value           nonuniform 0();
    }
    outlet
    {
        type            calculated;
        value           nonuniform List<scalar> 6(6.0003e-05 5.03014e-05 4.00593e-05 2.92796e-05 1.79664e-05 6.12452e-06);
    }
    wall
    {
        type            calculated;
        value           uniform 0;
    }
    wedge1
    {
        type            wedge;
        value           nonuniform List<scalar> 
350
(
-1.35122e-20
-1.03745e-20
-9.84208e-21
-5.11182e-21
-1.51574e-21
-1.29775e-20
-1.00974e-20
-8.24226e-21
-4.37271e-21
-9.75662e-22
-1.33125e-20
-1.00151e-20
-7.81896e-21
-4.06949e-21
-9.32874e-22
-1.28244e-20
-9.85504e-21
-7.72918e-21
-4.20855e-21
-1.04344e-21
-1.23782e-20
-9.56241e-21
-8.77502e-21
-4.89426e-21
-1.64727e-21
-1.15227e-20
-9.27332e-21
-7.38397e-21
-4.26038e-21
-1.20028e-21
-1.12525e-20
-8.84765e-21
-8.16118e-21
-4.65772e-21
-1.66249e-21
-1.05982e-20
-8.44228e-21
-6.66715e-21
-3.88003e-21
-1.13137e-21
-1.06558e-20
-8.21654e-21
-7.39676e-21
-4.17698e-21
-1.46939e-21
-1.04635e-20
-8.22299e-21
-6.25631e-21
-3.60626e-21
-1.03019e-21
-1.11278e-20
-8.4316e-21
-6.18671e-21
-3.511e-21
-1.03927e-21
-1.11229e-20
-8.36899e-21
-6.1158e-21
-3.45091e-21
-1.02306e-21
-1.0882e-20
-8.4216e-21
-6.22582e-21
-3.63073e-21
-1.1069e-21
-1.06831e-20
-8.26142e-21
-7.25696e-21
-4.22076e-21
-1.58059e-21
-1.01065e-20
-8.07424e-21
-6.14883e-21
-3.72665e-21
-1.19499e-21
-1.00844e-20
-7.86381e-21
-6.9079e-21
-4.09042e-21
-1.56011e-21
-9.65409e-21
-7.76786e-21
-5.86718e-21
-3.58989e-21
-1.15308e-21
-9.59198e-21
-7.49613e-21
-6.53686e-21
-3.89526e-21
-1.48999e-21
-9.63367e-21
-7.55654e-21
-5.57883e-21
-3.35103e-21
-1.0652e-21
-1.01145e-20
-7.68199e-21
-5.48417e-21
-3.18616e-21
-1.01559e-21
-1.01986e-20
-7.88478e-21
-5.6807e-21
-3.40222e-21
-1.0815e-21
-1.01349e-20
-7.8782e-21
-6.66204e-21
-3.96171e-21
-1.52463e-21
-9.78734e-21
-7.63043e-21
-5.57414e-21
-3.32728e-21
-1.08179e-21
-1.00812e-20
-7.64936e-21
-5.40043e-21
-3.18154e-21
-1.01867e-21
-9.98083e-21
-7.72907e-21
-5.56093e-21
-3.353e-21
-1.08081e-21
-9.83802e-21
-7.65686e-21
-6.38084e-21
-3.83176e-21
-1.45543e-21
-9.43951e-21
-7.38475e-21
-5.39153e-21
-3.25705e-21
-1.08425e-21
-9.66913e-21
-7.36202e-21
-5.22734e-21
-3.07576e-21
-1.00295e-21
-9.426e-21
-7.28519e-21
-5.20149e-21
-3.13349e-21
-1.01772e-21
-9.15243e-21
-7.07795e-21
-5.87029e-21
-3.49546e-21
-1.33917e-21
-8.65624e-21
-6.88779e-21
-5.11658e-21
-3.17496e-21
-1.06711e-21
-8.6328e-21
-6.75742e-21
-5.60223e-21
-3.37317e-21
-1.2849e-21
-8.26835e-21
-6.58633e-21
-4.86453e-21
-3.03249e-21
-1.01488e-21
-8.14408e-21
-6.36398e-21
-5.28465e-21
-3.18382e-21
-1.23539e-21
-8.13433e-21
-6.33132e-21
-4.55432e-21
-2.74385e-21
-9.04875e-22
-8.4039e-21
-6.38137e-21
-4.47984e-21
-2.66158e-21
-8.6628e-22
-8.47034e-21
-6.45367e-21
-4.5722e-21
-2.73405e-21
-8.95708e-22
-8.32016e-21
-6.43102e-21
-4.54247e-21
-2.74416e-21
-9.03286e-22
-8.20219e-21
-6.33391e-21
-5.06079e-21
-3.03895e-21
-1.14216e-21
-7.92056e-21
-6.22255e-21
-4.52561e-21
-2.78451e-21
-9.33162e-22
-7.81977e-21
-6.06965e-21
-4.89264e-21
-2.95904e-21
-1.11707e-21
-7.58386e-21
-5.96358e-21
-4.33907e-21
-2.67157e-21
-9.1052e-22
-7.57184e-21
-5.86191e-21
-4.66188e-21
-2.82735e-21
-1.05191e-21
-7.51059e-21
-5.82387e-21
-4.1425e-21
-2.51216e-21
-8.30681e-22
-7.67842e-21
-5.83164e-21
-4.07787e-21
-2.41904e-21
-7.99522e-22
-7.64991e-21
-5.86595e-21
-4.14223e-21
-2.48923e-21
-8.25459e-22
-7.54867e-21
-5.79534e-21
-4.51888e-21
-2.68969e-21
-1.00147e-21
-7.40223e-21
-5.73374e-21
-4.08991e-21
-2.46154e-21
-8.32115e-22
-7.41195e-21
-5.61776e-21
-3.93472e-21
-2.33886e-21
-7.79854e-22
-7.27329e-21
-5.55089e-21
-3.89783e-21
-2.33889e-21
-7.79777e-22
-7.11209e-21
-5.47858e-21
-4.21087e-21
-2.52946e-21
-9.30485e-22
-6.91344e-21
-5.3298e-21
-3.74542e-21
-2.26611e-21
-7.69043e-22
-9.1935e-21
-6.97382e-21
-5.30268e-21
-3.70594e-21
-2.2143e-21
-7.40308e-22
-8.88128e-21
-6.87238e-21
-5.25858e-21
-3.70701e-21
-2.22397e-21
-7.40696e-22
-8.30897e-21
-6.71667e-21
-5.13213e-21
-3.88085e-21
-2.30899e-21
-8.27608e-22
-8.15909e-21
-6.48739e-21
-5.01484e-21
-3.5876e-21
-2.16262e-21
-7.21215e-22
-7.79588e-21
-6.37172e-21
-4.89e-21
-3.68555e-21
-2.20347e-21
-7.78905e-22
-7.8063e-21
-6.24542e-21
-4.79697e-21
-3.41324e-21
-2.04177e-21
-6.71657e-22
-7.78705e-21
-6.24293e-21
-4.79426e-21
-3.41387e-21
-2.03471e-21
-6.72208e-22
-7.64006e-21
-6.2876e-21
-4.90078e-21
-3.63718e-21
-2.21938e-21
-7.57919e-22
-7.63622e-21
-6.13063e-21
-4.71332e-21
-3.36372e-21
-2.00317e-21
-6.58971e-22
-7.57096e-21
-6.04042e-21
-4.59416e-21
-3.23996e-21
-1.91263e-21
-6.28416e-22
-7.47736e-21
-5.94377e-21
-4.50729e-21
-3.16802e-21
-1.86639e-21
-6.14215e-22
-7.33426e-21
-5.80371e-21
-4.38933e-21
-3.07182e-21
-1.807e-21
-5.92507e-22
-7.04458e-21
-5.56013e-21
-4.16732e-21
-2.92472e-21
-1.70431e-21
-5.61371e-22
-7.0356e-21
-5.53193e-21
-4.18377e-21
-2.92871e-21
-1.72146e-21
-5.63911e-22
-7.0104e-21
-5.51325e-21
-4.17573e-21
-2.92727e-21
-1.72217e-21
-5.64166e-22
)
;
    }
    wedge2
    {
        type            wedge;
        value           nonuniform List<scalar> 
350
(
1.05956e-20
8.42101e-21
6.41525e-21
4.57544e-21
2.38053e-21
1.0399e-20
8.36702e-21
5.1933e-21
3.89106e-21
1.76168e-21
1.10711e-20
8.51995e-21
5.20033e-21
3.65841e-21
1.59674e-21
1.08737e-20
8.55916e-21
5.46837e-21
3.8551e-21
1.61163e-21
1.0675e-20
8.43461e-21
6.81381e-21
4.58868e-21
2.13602e-21
1.00315e-20
8.28938e-21
5.67897e-21
3.99545e-21
1.62248e-21
9.94356e-21
7.98548e-21
6.66937e-21
4.42631e-21
2.03059e-21
9.44714e-21
7.68463e-21
5.35686e-21
3.67703e-21
1.45361e-21
9.64321e-21
7.55166e-21
6.24998e-21
3.99967e-21
1.74992e-21
9.57263e-21
7.6395e-21
5.25253e-21
3.45138e-21
1.27451e-21
1.03435e-20
7.9179e-21
5.30269e-21
3.37468e-21
1.25424e-21
1.04323e-20
7.91678e-21
5.33759e-21
3.33093e-21
1.21231e-21
1.02747e-20
8.02434e-21
5.5432e-21
3.52561e-21
1.27224e-21
1.01493e-20
7.91205e-21
6.65648e-21
4.12838e-21
1.72538e-21
9.63709e-21
7.76677e-21
5.61967e-21
3.64521e-21
1.32277e-21
9.67203e-21
7.59426e-21
6.4448e-21
4.01914e-21
1.67215e-21
9.29226e-21
7.53191e-21
5.4629e-21
3.5278e-21
1.2503e-21
9.27495e-21
7.28971e-21
6.18394e-21
3.84128e-21
1.57386e-21
9.35663e-21
7.37669e-21
5.27235e-21
3.30426e-21
1.13765e-21
9.87282e-21
7.5253e-21
5.21738e-21
3.14539e-21
1.07908e-21
9.98759e-21
7.74817e-21
5.44833e-21
3.36671e-21
1.1369e-21
9.95064e-21
7.7593e-21
6.46056e-21
3.93104e-21
1.57216e-21
9.62651e-21
7.52699e-21
5.39958e-21
3.30076e-21
1.12268e-21
9.93985e-21
7.55802e-21
5.24539e-21
3.15787e-21
1.05549e-21
9.85509e-21
7.64712e-21
5.42057e-21
3.33148e-21
1.11458e-21
9.72504e-21
7.58269e-21
6.25302e-21
3.81215e-21
1.4861e-21
9.33814e-21
7.31803e-21
5.27636e-21
3.23939e-21
1.11174e-21
9.57993e-21
7.30305e-21
5.12507e-21
3.06001e-21
1.02755e-21
9.34976e-21
7.23462e-21
5.11358e-21
3.11991e-21
1.03898e-21
9.09e-21
7.03643e-21
5.79814e-21
3.48438e-21
1.35628e-21
8.60775e-21
6.85558e-21
5.06098e-21
3.16653e-21
1.07979e-21
8.59734e-21
6.73393e-21
5.56196e-21
3.36711e-21
1.29394e-21
8.24285e-21
6.56953e-21
4.83596e-21
3.02816e-21
1.02158e-21
8.12413e-21
6.35056e-21
5.26142e-21
3.18019e-21
1.24129e-21
8.11551e-21
6.31769e-21
4.52903e-21
2.7397e-21
9.11891e-22
8.38767e-21
6.36802e-21
4.45243e-21
2.65686e-21
8.74547e-22
8.46237e-21
6.44508e-21
4.55179e-21
2.73027e-21
9.02811e-22
8.32291e-21
6.4299e-21
4.53547e-21
2.74246e-21
9.07237e-22
8.21708e-21
6.34167e-21
5.07056e-21
3.03999e-21
1.1416e-21
7.94915e-21
6.24034e-21
4.55451e-21
2.78869e-21
9.27283e-22
7.86444e-21
6.09856e-21
4.94179e-21
2.96647e-21
1.10584e-21
7.64523e-21
6.00315e-21
4.40632e-21
2.68178e-21
8.9484e-22
7.64244e-21
5.90589e-21
4.73434e-21
2.83806e-21
1.03591e-21
7.57428e-21
5.86237e-21
4.2037e-21
2.52073e-21
8.18986e-22
7.73575e-21
5.86694e-21
4.13477e-21
2.42697e-21
7.88825e-22
7.70936e-21
5.90357e-21
4.2045e-21
2.4982e-21
8.12675e-22
7.60638e-21
5.83214e-21
4.57998e-21
2.69858e-21
9.88782e-22
7.45523e-21
5.76755e-21
4.14598e-21
2.46977e-21
8.20265e-22
7.45951e-21
5.64831e-21
3.98574e-21
2.34648e-21
7.68725e-22
7.31877e-21
5.5814e-21
3.95069e-21
2.34713e-21
7.67235e-22
7.16688e-21
5.51951e-21
4.28739e-21
2.5421e-21
9.09667e-22
7.00451e-21
5.40021e-21
3.8766e-21
2.28601e-21
7.38839e-22
8.51983e-21
7.06591e-21
5.37062e-21
3.82436e-21
2.23063e-21
7.18726e-22
8.49165e-21
6.9217e-21
5.29255e-21
3.76198e-21
2.23153e-21
7.30657e-22
8.12144e-21
6.74072e-21
5.14951e-21
3.91206e-21
2.31393e-21
8.19583e-22
8.09334e-21
6.49674e-21
5.0222e-21
3.60166e-21
2.16494e-21
7.17429e-22
7.8018e-21
6.37214e-21
4.89097e-21
3.68801e-21
2.20393e-21
7.78136e-22
7.85495e-21
6.24045e-21
4.79386e-21
3.40812e-21
2.04097e-21
6.7298e-22
7.86013e-21
6.2347e-21
4.78857e-21
3.40372e-21
2.03305e-21
6.75111e-22
7.72364e-21
6.27795e-21
4.89391e-21
3.62465e-21
2.21728e-21
7.61647e-22
7.71777e-21
6.12149e-21
4.70693e-21
3.35211e-21
2.00127e-21
6.62225e-22
7.64003e-21
6.03341e-21
4.58968e-21
3.23225e-21
1.91146e-21
6.29993e-22
7.52564e-21
5.9397e-21
4.50526e-21
3.16525e-21
1.86614e-21
6.13961e-22
7.35495e-21
5.80257e-21
4.38931e-21
3.07263e-21
1.80732e-21
5.91511e-22
7.03163e-21
5.56227e-21
4.16922e-21
2.92903e-21
1.70517e-21
5.59482e-22
6.98796e-21
5.53588e-21
4.18536e-21
2.92959e-21
1.72132e-21
5.65143e-22
6.94243e-21
5.51903e-21
4.17829e-21
2.92918e-21
1.72208e-21
5.65491e-22
)
;
    }
    axis
    {
        type            empty;
        value           nonuniform 0();
    }
    procBoundary47to41
    {
        type            processor;
        value           nonuniform List<scalar> 
68
(
8.87943e-13
5.37317e-13
2.61213e-13
8.63058e-14
-2.35909e-14
-8.48837e-14
-1.12317e-13
-1.14132e-13
-1.02681e-13
-8.48529e-14
-5.44598e-14
-1.29015e-14
3.65904e-14
9.26127e-14
1.1703e-13
-3.33985e-11
-2.94209e-11
-2.55702e-11
-2.22706e-11
-1.94466e-11
-1.70268e-11
-1.49395e-11
-1.3132e-11
-1.15566e-11
-1.01713e-11
-8.95178e-12
-7.87925e-12
-6.9316e-12
-6.09334e-12
-5.35648e-12
-4.7007e-12
-4.11679e-12
-3.60343e-12
-3.152e-12
-2.75866e-12
-2.40982e-12
-2.10662e-12
-1.84771e-12
-1.62892e-12
-1.44276e-12
-1.29073e-12
-1.15262e-12
-1.01222e-12
-8.6764e-13
-7.19697e-13
-5.72128e-13
-4.30185e-13
-3.22482e-13
-2.60378e-13
-2.44019e-13
-2.03622e-13
-9.61347e-14
3.24761e-14
1.6926e-13
3.19691e-13
4.96399e-13
6.90504e-13
8.21039e-13
7.49829e-13
6.57689e-13
6.71503e-13
6.41111e-13
5.82266e-13
5.18398e-13
4.85232e-13
5.39417e-13
-6.0003e-05
9.09013e-13
)
;
    }
    procBoundary47to46
    {
        type            processor;
        value           nonuniform List<scalar> 5(-5.03013e-05 -4.00592e-05 -2.92796e-05 -1.79663e-05 -6.12451e-06);
    }
}


// ************************************************************************* //
