/*--------------------------------*- C++ -*----------------------------------*\
  =========                 |
  \\      /  F ield         | OpenFOAM: The Open Source CFD Toolbox
   \\    /   O peration     | Website:  https://openfoam.org
    \\  /    A nd           | Version:  7
     \\/     M anipulation  |
\*---------------------------------------------------------------------------*/
FoamFile
{
    version     2.0;
    format      ascii;
    class       volVectorField;
    location    "1.8";
    object      U;
}
// * * * * * * * * * * * * * * * * * * * * * * * * * * * * * * * * * * * * * //

dimensions      [0 1 -1 0 0 0 0];

internalField   nonuniform List<vector> 
344
(
(1.25367 -0.00773879 6.16269e-15)
(1.25304 -0.00751849 6.12887e-15)
(1.25241 -0.00729765 6.00014e-15)
(1.25181 -0.00707615 6.04213e-15)
(1.25121 -0.00685395 5.98013e-15)
(1.25064 -0.00663102 5.8964e-15)
(1.25007 -0.00640743 5.90883e-15)
(1.24952 -0.00618327 5.7606e-15)
(1.24899 -0.00595869 5.65223e-15)
(1.24847 -0.00573386 5.42113e-15)
(1.24797 -0.00550903 5.29072e-15)
(1.24748 -0.00528444 4.99768e-15)
(1.24701 -0.00506039 4.86043e-15)
(1.24655 -0.0048372 4.62925e-15)
(1.24611 -0.00461521 4.49624e-15)
(1.24568 -0.00439478 4.23473e-15)
(1.24527 -0.00417627 4.11097e-15)
(1.24488 -0.00396008 3.85698e-15)
(1.2445 -0.0037466 3.70171e-15)
(1.24414 -0.00353621 3.60841e-15)
(1.2438 -0.00332933 3.40777e-15)
(1.24347 -0.00312635 3.27824e-15)
(1.24316 -0.00292767 3.06298e-15)
(1.24286 -0.00273369 2.97631e-15)
(1.24259 -0.0025448 2.74682e-15)
(1.24232 -0.00236138 2.62448e-15)
(1.24208 -0.00218382 2.43499e-15)
(1.24185 -0.00201246 2.30971e-15)
(1.24163 -0.00184766 2.14063e-15)
(1.24143 -0.00168974 2.02499e-15)
(1.24125 -0.001539 1.857e-15)
(1.24108 -0.0013957 1.7387e-15)
(1.24093 -0.00126009 1.58736e-15)
(1.24079 -0.00113235 1.48866e-15)
(1.24066 -0.00101265 1.30314e-15)
(1.24055 -0.000901098 1.23407e-15)
(1.24045 -0.000797754 1.04935e-15)
(1.24036 -0.000702634 9.817e-16)
(1.24028 -0.000615707 7.86416e-16)
(1.24022 -0.000536888 7.19562e-16)
(1.21745 -0.0134611 7.24726e-15)
(1.21612 -0.0131217 7.16745e-15)
(1.21482 -0.0127949 6.85525e-15)
(1.21355 -0.01248 6.94291e-15)
(1.21231 -0.0121763 6.59948e-15)
(1.21109 -0.0118831 7.00323e-15)
(1.2099 -0.0115999 6.63874e-15)
(1.20873 -0.0113258 6.67816e-15)
(1.20758 -0.0110605 6.36004e-15)
(1.20646 -0.0108032 6.71784e-15)
(1.20536 -0.0105534 6.34849e-15)
(1.20429 -0.0103105 6.41986e-15)
(1.20323 -0.0100741 6.09313e-15)
(1.2022 -0.00984342 6.46815e-15)
(1.20119 -0.00961809 6.21821e-15)
(1.2002 -0.00939751 6.12041e-15)
(1.19923 -0.00918119 6.13989e-15)
(1.19829 -0.00896859 6.24791e-15)
(1.19736 -0.00875923 6.35006e-15)
(1.19645 -0.00855261 6.45144e-15)
(1.19556 -0.00834826 6.56743e-15)
(1.19469 -0.00814574 6.69145e-15)
(1.19384 -0.00794463 6.74641e-15)
(1.19301 -0.00774452 6.8622e-15)
(1.1922 -0.00754507 6.98549e-15)
(1.19141 -0.00734594 7.07869e-15)
(1.19063 -0.00714687 7.02238e-15)
(1.18988 -0.00694761 6.7035e-15)
(1.18914 -0.00674798 6.76451e-15)
(1.18842 -0.00654782 6.46684e-15)
(1.18772 -0.00634706 6.77455e-15)
(1.18704 -0.00614565 6.42699e-15)
(1.18638 -0.00594359 6.44704e-15)
(1.18574 -0.00574093 6.44256e-15)
(1.18511 -0.00553779 6.08045e-15)
(1.18451 -0.0053343 6.01889e-15)
(1.18392 -0.00513065 5.60745e-15)
(1.18336 -0.00492704 5.54715e-15)
(1.18281 -0.00472374 5.10314e-15)
(1.18228 -0.00452101 5.05256e-15)
(1.18177 -0.00431917 4.6301e-15)
(1.18128 -0.00411852 4.57357e-15)
(1.18081 -0.0039194 4.18564e-15)
(1.18036 -0.00372217 4.16284e-15)
(1.17993 -0.00352717 3.73969e-15)
(1.17952 -0.00333477 3.6193e-15)
(1.17913 -0.00314533 3.59362e-15)
(1.17876 -0.00295923 3.23913e-15)
(1.17841 -0.00277682 3.22232e-15)
(1.17808 -0.00259847 2.87747e-15)
(1.17776 -0.00242454 2.87577e-15)
(1.17747 -0.00225537 2.49515e-15)
(1.17719 -0.00209132 2.47869e-15)
(1.17693 -0.0019327 2.13481e-15)
(1.17669 -0.00177983 2.17157e-15)
(1.17647 -0.00163302 1.83503e-15)
(1.17627 -0.00149252 1.83903e-15)
(1.17608 -0.0013586 1.53408e-15)
(1.17591 -0.00123148 1.5656e-15)
(1.17575 -0.00111134 1.26093e-15)
(1.17561 -0.000998344 1.27342e-15)
(1.17548 -0.000892602 9.75768e-16)
(1.17537 -0.000794191 9.8095e-16)
(1.17527 -0.000703146 6.82062e-16)
(1.17518 -0.000619458 7.0276e-16)
(1.1751 -0.00054308 4.1622e-16)
(1.17504 -0.000473915 4.29761e-16)
(1.18521 -0.0126956 7.8412e-15)
(1.18377 -0.0123737 7.62415e-15)
(1.18237 -0.0120639 7.13573e-15)
(1.181 -0.0117655 7.35379e-15)
(1.17965 -0.0114778 6.83361e-15)
(1.17834 -0.0112002 7.31605e-15)
(1.17706 -0.0109321 6.84753e-15)
(1.1758 -0.0106727 7.04031e-15)
(1.17457 -0.0104217 6.51037e-15)
(1.17336 -0.0101783 6.99238e-15)
(1.17219 -0.00994214 6.5167e-15)
(1.17103 -0.00971256 6.74147e-15)
(1.1699 -0.00948907 6.21858e-15)
(1.1688 -0.00927113 6.68435e-15)
(1.16772 -0.00905825 6.33426e-15)
(1.16666 -0.0088499 6.47413e-15)
(1.16562 -0.00864558 6.55203e-15)
(1.16461 -0.0084448 6.65451e-15)
(1.16362 -0.00824709 6.77253e-15)
(1.16265 -0.00805197 6.9004e-15)
(1.1617 -0.00785899 7.00615e-15)
(1.16078 -0.00766773 7.13826e-15)
(1.15987 -0.00747778 7.22232e-15)
(1.15899 -0.00728877 7.33783e-15)
(1.15813 -0.00710036 7.46757e-15)
(1.15728 -0.00691224 7.59387e-15)
(1.15646 -0.00672415 7.38327e-15)
(1.15566 -0.00653587 6.88846e-15)
(1.15488 -0.00634721 7.10604e-15)
(1.15412 -0.00615805 6.60894e-15)
(1.15338 -0.00596831 7.04298e-15)
(1.15266 -0.00577794 6.55363e-15)
(1.15196 -0.00558696 6.75573e-15)
(1.15128 -0.00539543 6.50014e-15)
(1.15063 -0.00520345 6.11975e-15)
(1.14999 -0.00501115 5.98515e-15)
(1.14937 -0.00481872 5.57782e-15)
(1.14878 -0.00462637 5.45346e-15)
(1.14821 -0.00443434 5.03073e-15)
(1.14766 -0.00424289 4.89297e-15)
(1.14713 -0.00405233 4.53394e-15)
(1.14662 -0.00386295 4.40923e-15)
(1.14613 -0.00367507 4.05474e-15)
(1.14566 -0.00348904 3.94602e-15)
(1.14522 -0.00330518 3.60449e-15)
(1.14479 -0.00312386 3.53285e-15)
(1.14439 -0.00294541 3.38298e-15)
(1.14401 -0.00277018 3.0482e-15)
(1.14364 -0.00259852 2.97543e-15)
(1.1433 -0.00243077 2.67546e-15)
(1.14298 -0.00226727 2.58656e-15)
(1.14268 -0.00210835 2.26299e-15)
(1.1424 -0.00195433 2.1831e-15)
(1.14214 -0.0018055 1.92511e-15)
(1.14189 -0.00166217 1.86745e-15)
(1.14167 -0.00152461 1.59545e-15)
(1.14146 -0.00139306 1.52811e-15)
(1.14127 -0.00126776 1.29446e-15)
(1.1411 -0.0011489 1.23483e-15)
(1.14095 -0.00103664 9.89656e-16)
(1.1408 -0.000931136 9.57018e-16)
(1.14068 -0.000832471 7.14652e-16)
(1.14057 -0.000740707 6.61442e-16)
(1.14047 -0.000655868 4.08688e-16)
(1.14038 -0.000577933 3.76288e-16)
(1.1403 -0.000506851 1.38215e-16)
(1.14023 -0.00044252 9.8764e-17)
(1.15138 -0.0119164 8.2136e-15)
(1.14985 -0.0116128 7.99852e-15)
(1.14836 -0.0113207 7.50406e-15)
(1.1469 -0.0110395 7.57961e-15)
(1.14548 -0.0107684 7.1223e-15)
(1.14408 -0.0105069 7.48911e-15)
(1.14272 -0.0102544 7.11942e-15)
(1.14139 -0.0100102 7.21534e-15)
(1.14008 -0.00977396 6.73823e-15)
(1.13881 -0.00954499 7.15133e-15)
(1.13756 -0.00932282 6.75346e-15)
(1.13634 -0.00910692 6.86561e-15)
(1.13515 -0.00889678 6.4124e-15)
(1.13398 -0.00869192 6.7948e-15)
(1.13284 -0.00849183 6.58502e-15)
(1.13172 -0.00829603 6.63772e-15)
(1.13063 -0.00810404 6.74293e-15)
(1.12956 -0.00791539 6.84758e-15)
(1.12852 -0.00772963 7.01354e-15)
(1.1275 -0.0075463 7.1241e-15)
(1.1265 -0.00736498 7.2718e-15)
(1.12553 -0.00718527 7.40299e-15)
(1.12458 -0.00700678 7.49561e-15)
(1.12365 -0.00682915 7.62192e-15)
(1.12274 -0.00665207 7.76345e-15)
(1.12186 -0.00647524 7.86728e-15)
(1.12099 -0.00629842 7.6647e-15)
(1.12015 -0.0061214 7.19614e-15)
(1.11934 -0.00594401 7.27658e-15)
(1.11854 -0.00576613 6.83812e-15)
(1.11777 -0.00558769 7.16044e-15)
(1.11702 -0.00540866 6.78778e-15)
(1.11629 -0.00522905 6.86349e-15)
(1.11558 -0.00504893 6.72343e-15)
(1.1149 -0.00486839 6.28238e-15)
(1.11424 -0.00468756 6.10179e-15)
(1.1136 -0.00450664 5.6844e-15)
(1.11298 -0.0043258 5.49642e-15)
(1.11239 -0.0041453 5.07581e-15)
(1.11182 -0.00396539 4.93735e-15)
(1.11127 -0.00378635 4.55103e-15)
(1.11074 -0.00360846 4.39331e-15)
(1.11024 -0.00343205 4.03639e-15)
(1.10976 -0.00325741 3.91889e-15)
(1.1093 -0.00308489 3.56969e-15)
(1.10887 -0.00291481 3.44199e-15)
(1.10846 -0.00274749 3.34099e-15)
(1.10807 -0.00258326 2.98783e-15)
(1.1077 -0.00242246 2.90796e-15)
(1.10735 -0.0022654 2.57e-15)
(1.10703 -0.00211241 2.49622e-15)
(1.10672 -0.00196377 2.1706e-15)
(1.10644 -0.0018198 2.09335e-15)
(1.10617 -0.00168078 1.82165e-15)
(1.10593 -0.00154696 1.75063e-15)
(1.1057 -0.00141861 1.45972e-15)
(1.10549 -0.00129595 1.40005e-15)
(1.10531 -0.00117918 1.15977e-15)
(1.10513 -0.00106849 1.11832e-15)
(1.10498 -0.000964013 8.19337e-16)
(1.10484 -0.000865875 8.24725e-16)
(1.10471 -0.000774155 5.74949e-16)
(1.1046 -0.000688899 5.19243e-16)
(1.1045 -0.000610121 2.50611e-16)
(1.10441 -0.000537791 2.41658e-16)
(1.10434 -0.000471856 -2.46928e-17)
(1.10427 -0.000412212 -5.82179e-17)
(1.11597 -0.0111277 8.6062e-15)
(1.11437 -0.0108429 8.29364e-15)
(1.1128 -0.0105691 7.70943e-15)
(1.11127 -0.0103055 7.8166e-15)
(1.10978 -0.0100515 7.26653e-15)
(1.10832 -0.00980659 7.76626e-15)
(1.10689 -0.00957012 7.2646e-15)
(1.10549 -0.00934158 7.40523e-15)
(1.10413 -0.00912044 6.87204e-15)
(1.1028 -0.00890621 7.38095e-15)
(1.10149 -0.00869838 6.8873e-15)
(1.10022 -0.00849647 7.01675e-15)
(1.09897 -0.00829999 6.52537e-15)
(1.09775 -0.00810847 6.98633e-15)
(1.09656 -0.00792144 6.77135e-15)
(1.0954 -0.00773845 6.80134e-15)
(1.09426 -0.00755904 6.95114e-15)
(1.09315 -0.00738275 7.087e-15)
(1.09206 -0.00720917 7.24774e-15)
(1.091 -0.00703787 7.38693e-15)
(1.08996 -0.00686843 7.56042e-15)
(1.08895 -0.00670049 7.67681e-15)
(1.08796 -0.00653368 7.79792e-15)
(1.08699 -0.00636765 7.94047e-15)
(1.08605 -0.00620212 8.06761e-15)
(1.08513 -0.00603681 8.20294e-15)
(1.08424 -0.00587148 7.87905e-15)
(1.08337 -0.00570594 7.35182e-15)
(1.08252 -0.00554005 7.45403e-15)
(1.0817 -0.00537368 6.95771e-15)
(1.0809 -0.00520678 7.38905e-15)
(1.08012 -0.00503931 6.8952e-15)
(1.07937 -0.0048713 6.99837e-15)
(1.07864 -0.00470281 6.86162e-15)
(1.07793 -0.00453393 6.32395e-15)
(1.07725 -0.0043648 6.18641e-15)
(1.07659 -0.00419558 5.66305e-15)
(1.07596 -0.00402648 5.52146e-15)
(1.07535 -0.00385771 5.01613e-15)
(1.07477 -0.00368952 4.94146e-15)
(1.07421 -0.00352218 4.45176e-15)
(1.07367 -0.00335596 4.35591e-15)
(1.07316 -0.00319116 3.9358e-15)
(1.07267 -0.00302807 3.85581e-15)
(1.0722 -0.002867 3.41442e-15)
(1.07176 -0.00270827 3.31725e-15)
(1.07134 -0.00255218 3.2613e-15)
(1.07094 -0.00239904 2.84486e-15)
(1.07057 -0.00224915 2.83514e-15)
(1.07022 -0.00210282 2.42939e-15)
(1.06989 -0.00196034 2.38871e-15)
(1.06958 -0.00182199 1.99139e-15)
(1.0693 -0.00168806 1.98148e-15)
(1.06903 -0.00155879 1.62232e-15)
(1.06879 -0.00143443 1.60034e-15)
(1.06856 -0.00131522 1.24912e-15)
(1.06836 -0.00120135 1.27733e-15)
(1.06817 -0.00109301 9.7306e-16)
(1.068 -0.000990361 9.92144e-16)
(1.06784 -0.000893531 6.34574e-16)
(1.0677 -0.000802619 6.79704e-16)
(1.06758 -0.000717694 3.68183e-16)
(1.06747 -0.000638792 3.60998e-16)
(1.06737 -0.000565915 4.20735e-17)
(1.06728 -0.000499033 1.06226e-16)
(1.06721 -0.000438087 -2.35253e-16)
(1.06714 -0.000382977 -2.1495e-16)
(1.07898 -0.0103344 9.03224e-15)
(1.07732 -0.010069 8.49664e-15)
(1.07569 -0.00981383 7.77902e-15)
(1.0741 -0.00956826 8.05577e-15)
(1.07255 -0.00933172 7.29388e-15)
(1.07104 -0.00910365 7.92771e-15)
(1.06956 -0.00888354 7.28714e-15)
(1.06812 -0.00867085 7.61717e-15)
(1.06671 -0.00846512 6.86987e-15)
(1.06533 -0.00826585 7.50636e-15)
(1.06398 -0.00807258 6.86676e-15)
(1.06266 -0.00788486 7.21002e-15)
(1.06138 -0.00770222 6.49089e-15)
(1.06012 -0.00752422 7.11903e-15)
(1.05889 -0.00735043 6.69059e-15)
(1.05769 -0.0071804 6.97604e-15)
(1.05651 -0.00701371 7.17924e-15)
(1.05537 -0.00684994 7.35147e-15)
(1.05424 -0.00668868 7.53811e-15)
(1.05315 -0.00652954 7.69426e-15)
(1.05208 -0.00637213 7.85273e-15)
(1.05104 -0.0062161 7.978e-15)
(1.05002 -0.0060611 8.11938e-15)
(1.04902 -0.00590682 8.26607e-15)
(1.04806 -0.00575298 8.38685e-15)
(1.04711 -0.00559932 8.52169e-15)
(1.04619 -0.00544563 8.01939e-15)
(1.0453 -0.00529173 7.3609e-15)
(1.04443 -0.00513747 7.64267e-15)
(1.04358 -0.00498277 6.92776e-15)
(1.04276 -0.00482755 7.50496e-15)
(1.04197 -0.00467179 6.90263e-15)
(1.0412 -0.00451553 7.16992e-15)
(1.04045 -0.00435881 6.7728e-15)
(1.03973 -0.00420174 6.25122e-15)
(1.03904 -0.00404444 6.06257e-15)
)
;

boundaryField
{
    inlet
    {
        type            uniformFixedValue;
        uniformValue    constant (1 0 0);
        value           nonuniform 0();
    }
    outlet
    {
        type            pressureInletOutletVelocity;
        value           nonuniform 0();
    }
    wall
    {
        type            fixedValue;
        value           nonuniform 0();
    }
    wedge1
    {
        type            wedge;
    }
    wedge2
    {
        type            wedge;
    }
    axis
    {
        type            empty;
    }
    procBoundary19to13
    {
        type            processor;
        value           nonuniform List<vector> 
68
(
(1.33842 -0.00885502 5.10452e-15)
(1.33799 -0.00860768 5.04193e-15)
(1.33757 -0.00835976 4.97806e-15)
(1.33716 -0.00811112 4.97066e-15)
(1.33675 -0.00786167 4.98147e-15)
(1.33635 -0.0076114 4.90723e-15)
(1.33596 -0.00736033 4.90204e-15)
(1.33558 -0.00710855 4.76428e-15)
(1.3352 -0.00685621 4.69274e-15)
(1.33483 -0.00660347 4.58421e-15)
(1.33447 -0.00635057 4.49439e-15)
(1.33411 -0.00609778 4.29597e-15)
(1.33377 -0.00584539 4.24019e-15)
(1.33343 -0.00559375 4.04258e-15)
(1.3331 -0.0053432 3.92093e-15)
(1.33278 -0.00509413 3.73077e-15)
(1.33247 -0.00484694 3.64584e-15)
(1.33216 -0.00460202 3.45049e-15)
(1.33187 -0.00435981 3.37395e-15)
(1.33159 -0.00412073 3.33403e-15)
(1.33131 -0.00388522 3.17618e-15)
(1.33105 -0.00365373 3.05658e-15)
(1.33079 -0.00342669 2.91446e-15)
(1.33055 -0.00320456 2.83225e-15)
(1.33032 -0.00298777 2.62205e-15)
(1.3301 -0.00277677 2.5254e-15)
(1.32989 -0.00257201 2.33089e-15)
(1.32969 -0.0023739 2.26748e-15)
(1.3295 -0.00218288 2.06139e-15)
(1.32933 -0.00199933 2.00877e-15)
(1.32916 -0.00182364 1.85115e-15)
(1.32901 -0.00165616 1.77603e-15)
(1.32887 -0.00149721 1.58913e-15)
(1.32874 -0.00134707 1.56282e-15)
(1.32863 -0.00120596 1.38584e-15)
(1.32852 -0.00107408 1.29888e-15)
(1.32842 -0.000951548 1.1794e-15)
(1.32834 -0.000838443 1.09066e-15)
(1.32826 -0.000734777 9.73066e-16)
(1.3282 -0.000640506 9.11192e-16)
(1.27685 -0.014915 6.12714e-15)
(1.27577 -0.014543 6.21768e-15)
(1.2747 -0.0141847 6.15878e-15)
(1.27365 -0.0138391 6.15293e-15)
(1.27262 -0.0135057 6.0162e-15)
(1.27161 -0.0131836 6.12529e-15)
(1.27062 -0.0128721 6.06292e-15)
(1.26964 -0.0125706 6.01983e-15)
(1.26869 -0.0122785 5.87208e-15)
(1.26775 -0.0119951 5.93587e-15)
(1.26683 -0.0117199 5.84371e-15)
(1.26593 -0.0114521 5.83305e-15)
(1.26504 -0.0111913 5.72243e-15)
(1.26418 -0.0109368 5.79586e-15)
(1.26332 -0.010688 5.33005e-15)
(1.26249 -0.0104445 5.3736e-15)
(1.26167 -0.0102056 5.42768e-15)
(1.26087 -0.00997073 5.51645e-15)
(1.26008 -0.00973944 5.57154e-15)
(1.25931 -0.00951117 5.63827e-15)
(1.25855 -0.00928541 5.7399e-15)
(1.25781 -0.00906169 5.80641e-15)
(1.25708 -0.00883954 5.87609e-15)
(1.25637 -0.00861854 5.97858e-15)
(1.25568 -0.00839829 6.04479e-15)
(1.25499 -0.00817845 6.12589e-15)
(1.25433 -0.0079587 6.23907e-15)
(1.25433 -0.0079587 6.23907e-15)
)
;
    }
    procBoundary19to18
    {
        type            processor;
        value           nonuniform List<vector> 4((1.21881 -0.0138141 7.11152e-15) (1.18667 -0.0130304 7.68729e-15) (1.15294 -0.0122323 8.08032e-15) (1.11762 -0.011424 8.46626e-15));
    }
    procBoundary19to20
    {
        type            processor;
        value           nonuniform List<vector> 5((1.24016 -0.000466062 5.25441e-16) (1.17498 -0.000411852 1.53713e-16) (1.14018 -0.000384834 -1.31832e-16) (1.10422 -0.000358759 -2.85087e-16) (1.06709 -0.000333608 -4.92519e-16));
    }
    procBoundary19to24
    {
        type            processor;
        value           uniform (1.08069 -0.0106107 8.87074e-15);
    }
    procBoundary19to25
    {
        type            processor;
        value           nonuniform List<vector> 
68
(
(1.03837 -0.00388708 5.53711e-15)
(1.03772 -0.00372983 5.29022e-15)
(1.0371 -0.00357291 4.8379e-15)
(1.0365 -0.00341656 4.69269e-15)
(1.03593 -0.00326102 4.24534e-15)
(1.03539 -0.00310656 4.06068e-15)
(1.03487 -0.00295345 3.68308e-15)
(1.03437 -0.00280197 3.57552e-15)
(1.0339 -0.00265242 3.16752e-15)
(1.03346 -0.00250508 3.13951e-15)
(1.03303 -0.00236024 2.96849e-15)
(1.03264 -0.00221818 2.58216e-15)
(1.03226 -0.0020792 2.54219e-15)
(1.03191 -0.00194358 2.17027e-15)
(1.03158 -0.00181157 2.07593e-15)
(1.03127 -0.00168345 1.718e-15)
(1.03099 -0.00155947 1.67778e-15)
(1.03072 -0.00143987 1.36475e-15)
(1.03048 -0.00132486 1.25841e-15)
(1.03025 -0.00121466 9.59603e-16)
(1.03005 -0.00110945 9.73089e-16)
(1.02986 -0.0010094 6.92616e-16)
(1.02969 -0.000914637 6.27736e-16)
(1.02954 -0.000825287 3.36198e-16)
(1.0294 -0.000741433 3.56251e-16)
(1.02928 -0.00066313 6.43272e-17)
(1.02917 -0.000590407 8.26525e-18)
(1.02907 -0.000523259 -2.40795e-16)
(1.02899 -0.000461653 -2.04978e-16)
(1.02892 -0.000405529 -5.18607e-16)
(1.02885 -0.000354792 -5.50805e-16)
(1.04042 -0.00954168 9.23719e-15)
(1.03871 -0.00929586 8.54141e-15)
(1.03704 -0.00905959 7.88528e-15)
(1.03541 -0.00883227 8.1424e-15)
(1.03382 -0.00861336 7.3322e-15)
(1.03227 -0.00840235 8.03098e-15)
(1.03075 -0.00819874 7.37555e-15)
(1.02927 -0.00800206 7.67035e-15)
(1.02783 -0.00781185 6.87383e-15)
(1.02642 -0.00762766 7.58199e-15)
(1.02504 -0.00744906 6.91072e-15)
(1.02369 -0.00727561 7.23088e-15)
(1.02237 -0.0071069 6.47563e-15)
(1.02108 -0.0069425 7.16531e-15)
(1.01983 -0.006782 6.74246e-15)
(1.0186 -0.006625 7.01913e-15)
(1.0174 -0.0064711 7.25866e-15)
(1.01622 -0.0063199 7.46652e-15)
(1.01508 -0.00617103 7.67271e-15)
(1.01396 -0.0060241 7.8329e-15)
(1.01287 -0.00587877 7.98001e-15)
(1.0118 -0.0057347 8.13475e-15)
(1.01076 -0.00559157 8.28755e-15)
(1.00975 -0.0054491 8.41278e-15)
(1.00876 -0.005307 8.5331e-15)
(1.0078 -0.00516506 8.67502e-15)
(1.00687 -0.00502308 8.02828e-15)
(1.00595 -0.00488087 7.39709e-15)
(1.00507 -0.00473833 7.6854e-15)
(1.00421 -0.00459535 6.92443e-15)
(1.00338 -0.00445188 7.59643e-15)
(1.00257 -0.00430791 6.93246e-15)
(1.00179 -0.00416347 7.18578e-15)
(1.00103 -0.00401859 6.78165e-15)
(1.0003 -0.00387339 6.2117e-15)
(1.03837 -0.00388708 5.53711e-15)
(0.999594 -0.00372799 6.04408e-15)
)
;
    }
}


// ************************************************************************* //
