/*--------------------------------*- C++ -*----------------------------------*\
  =========                 |
  \\      /  F ield         | OpenFOAM: The Open Source CFD Toolbox
   \\    /   O peration     | Website:  https://openfoam.org
    \\  /    A nd           | Version:  7
     \\/     M anipulation  |
\*---------------------------------------------------------------------------*/
FoamFile
{
    version     2.0;
    format      ascii;
    class       volScalarField;
    location    "7";
    object      p;
}
// * * * * * * * * * * * * * * * * * * * * * * * * * * * * * * * * * * * * * //

dimensions      [0 2 -2 0 0 0 0];

internalField   nonuniform List<scalar> 
433
(
-334.85
-313.68
-294.434
-483.566
-458.267
-433.521
-403.802
-366.375
-325.46
-284.731
-246.525
153.088
146.45
143.016
140.53
136.914
131.139
121.183
107.146
91.1237
75.7818
62.0463
49.7502
38.8372
557.259
535.025
515.991
488.906
449.773
403.061
352.376
302.207
256.288
215.928
180.544
148.672
119.488
93.2735
70.7602
52.4368
38.3034
92.8311
95.4389
95.5112
87.5913
73.0685
55.064
37.499
23.3236
14.4657
11.2888
12.2089
14.7132
16.6998
17.2094
16.3861
14.8276
13.0223
11.3548
9.98985
8.94838
8.1911
-529.072
-497.567
-468.401
-437.318
-400.493
-360.697
-320.148
-280.204
-241.174
-203.001
-166.059
-131.339
-100.024
-73.1692
-51.2166
-34.0228
-21.0275
-11.5095
-4.76594
-0.165392
2.84283
4.72268
5.8316
6.44446
-278.888
-265.084
-250.368
-231.082
-206.186
-179.064
-152.949
-129.937
-109.851
-91.4169
-74.2959
-58.7809
-45.089
-33.2098
-23.0912
-14.7855
-8.16137
-3.08581
0.637102
3.24955
4.99236
6.08095
6.72259
396.943
379.782
366.558
350.427
327.496
299.228
266.353
231.288
197.374
166.235
138.135
112.524
89.3052
69.0255
52.2674
39.2115
29.4338
22.3195
17.2927
13.8375
11.5245
10.0198
479.349
461.754
445.39
419.659
382.039
337.437
290.45
245.725
206.711
174.251
147.053
123.015
100.797
80.3466
62.3305
47.3811
35.5998
26.7326
20.3195
15.8488
12.8446
-205.647
-188.199
-173.939
-163.875
-155.17
-146.953
-137.002
-124.119
-108.001
-89.2303
-69.5158
-50.8794
-34.8638
-22.1447
-12.5907
-5.71669
-0.880561
2.4709
4.73875
6.22643
-544.459
-514.53
-486.005
-453.446
-413.567
-370.013
-325.623
-282.476
-241.11
-201.688
-164.545
-130.312
-99.7377
-73.4119
-51.6293
-34.3432
-21.0775
-11.2363
-4.19942
-4.12744
-4.31484
-2.47545
1.16332
5.43104
9.25303
11.1724
11.2513
10.5089
9.90597
9.30977
8.43528
7.44632
6.74187
6.53559
6.74723
7.1876
7.66795
530.83
508.382
489.553
464.072
427.357
383.618
336.649
290.895
249.203
211.875
177.905
146.221
116.906
90.8332
68.8551
51.3724
38.0637
28.3273
271.882
265.779
258.178
241.03
213.977
181.608
149.209
120.97
99.3841
84.2691
73.438
64.2964
55.2373
46.0287
37.3122
29.7473
23.6191
-428.205
-399.761
-374.257
-349.486
-321.922
-292.906
-262.679
-231.452
-199.234
-166.444
-134.198
-104.046
-77.4019
-55.0835
-37.2444
-23.4585
-13.0744
-413.952
-392.87
-371.688
-345.64
-312.947
-277.305
-241.567
-207.681
-175.894
-146.07
-118.359
-93.0976
-70.6147
-51.1935
-35.063
-22.1377
-12.1674
255.586
242.537
232.874
222.154
206.9
188.335
167.633
146.762
127.413
109.595
92.5684
76.1719
61.0961
48.2072
37.9456
30.0214
24.0702
534.299
513.472
495.271
468.147
427.964
380.303
330.874
285.347
246.002
211.672
179.945
149.34
120.239
93.9834
71.7078
53.9204
-39.6369
-30.3951
-23.8583
-23.2394
-27.2439
-33.2699
-37.5626
-37.1814
-31.2176
-21.2515
-10.5155
-1.77561
3.88862
6.90952
8.27681
8.87171
-554.371
-523.015
-493.909
-462.298
-425.431
-385.924
-344.617
-302.242
-259.121
-216
-174.317
-135.932
-102.331
-74.1512
-51.3168
-33.3424
-19.6205
-116.832
-113.908
-110.613
-106.303
-101.473
-95.7419
-88.4193
-79.1167
-68.3528
-57.092
-45.9478
-35.2182
-25.1981
-16.2143
-8.55745
-2.39026
2.32123
497.153
475.432
456.552
430.473
392.707
349.299
305.87
266.413
231.392
199.005
167.756
137.813
110.387
86.5653
66.872
51.2603
39.2914
340.343
332.019
323.368
305.143
275.728
241.581
209.348
183.634
164.596
148.787
132.425
113.897
94.0546
74.8909
58.097
44.4771
34.0696
-387.162
-361.983
-340.115
-319.182
-296.396
-271.584
-243.306
-210.759
-174.657
-137.543
-102.978
-74.034
-51.656
-34.9826
-22.5144
-13.0246
-5.75095
-0.251693
-435.876
-415.745
-397.301
-376.611
-352.185
-325.201
-295.779
-264.142
-230.559
-195.754
-161.082
-128.017
-97.8518
-71.5743
-49.5911
-31.8784
246.323
232.986
220.47
203.268
)
;

boundaryField
{
    inlet
    {
        type            zeroGradient;
    }
    outlet
    {
        type            fixedValue;
        value           nonuniform 0();
    }
    cylinder
    {
        type            zeroGradient;
    }
    top
    {
        type            symmetryPlane;
    }
    bottom
    {
        type            symmetryPlane;
    }
    defaultFaces
    {
        type            empty;
    }
    procBoundary20to14
    {
        type            processor;
        value           uniform -359.2;
    }
    procBoundary20to25
    {
        type            processor;
        value           nonuniform List<scalar> 
20
(
-18.1366
-7.94317
178.61
150.76
124.052
101.011
81.616
65.2607
52.0264
41.8302
34.3195
28.9407
25.1222
-18.1366
22.3033
540.905
521.124
503.753
178.61
477.525
)
;
    }
    procBoundary20to26
    {
        type            processor;
        value           nonuniform List<scalar> 
28
(
7.06564
7.06564
9.04577
9.04577
10.8872
10.8872
7.16063
7.16063
0.628056
0.628056
8.08082
8.08082
21.4533
18.9474
18.9474
-5.46883
-4.76738
19.6859
40.3227
40.3227
9.21273
9.21273
-9.47277
5.74269
30.4092
26.468
26.468
3.80433
)
;
    }
    procBoundary20to27
    {
        type            processor;
        value           nonuniform List<scalar> 
29
(
353.545
341.334
319.558
-273.551
-273.551
-251.58
-228.097
-203.137
-211.027
-211.027
-177.542
-145.985
-116.841
-90.6995
29.6334
29.6334
22.4242
17.1848
13.4966
27.8195
27.8195
20.3243
15.1613
11.7296
7.66002
7.66002
7.29552
7.04289
6.74516
)
;
    }
}


// ************************************************************************* //
