/*--------------------------------*- C++ -*----------------------------------*\
  =========                 |
  \\      /  F ield         | OpenFOAM: The Open Source CFD Toolbox
   \\    /   O peration     | Website:  https://openfoam.org
    \\  /    A nd           | Version:  7
     \\/     M anipulation  |
\*---------------------------------------------------------------------------*/
FoamFile
{
    version     2.0;
    format      ascii;
    class       volScalarField;
    location    "98.000784";
    object      p;
}
// * * * * * * * * * * * * * * * * * * * * * * * * * * * * * * * * * * * * * //

dimensions      [0 2 -2 0 0 0 0];

internalField   nonuniform List<scalar> 
5800
(
-0.255865
-0.257582
-0.258619
-0.25943
-0.260143
-0.260788
-0.261409
-0.262038
-0.262689
-0.263365
0.664976
0.648036
0.637675
0.626694
0.612712
0.595654
0.575917
0.55411
0.530854
0.506694
0.482089
0.665388
0.648443
0.638066
0.627065
0.613059
0.595979
0.576222
0.554398
0.531126
0.506953
0.482336
0.457653
0.433215
0.409266
0.386003
0.363569
0.342072
0.321603
0.302239
0.284002
0.661038
0.644228
0.634058
0.62333
0.60963
0.592856
0.57339
0.551837
0.528816
0.504873
0.480467
0.455978
0.431714
0.407925
0.384805
0.362502
0.341119
0.320745
0.301471
0.283362
0.651966
0.635433
0.625685
0.615522
0.602453
0.58631
0.567444
0.546448
0.523942
0.500472
0.476499
0.452404
0.428499
0.405034
0.382208
0.360171
0.339022
0.318843
0.299753
0.281905
0.638255
0.622134
0.613021
0.603706
0.591586
0.576392
0.558428
0.538272
0.51654
0.49378
0.470457
0.446955
0.423589
0.400613
0.378229
0.356591
0.335795
0.31591
0.297096
0.279637
0.620025
0.604447
0.596171
0.587979
0.577115
0.56318
0.546412
0.527369
0.506663
0.484846
0.462386
0.439671
0.417019
0.39469
0.372893
0.351786
0.331457
0.311964
0.293515
0.276564
0.597436
0.582527
0.575279
0.568467
0.559153
0.546773
0.531485
0.513818
0.494383
0.473732
0.452339
0.430598
0.408831
0.387304
0.366234
0.345783
0.326036
0.307032
0.289031
0.272694
0.570684
0.556562
0.550518
0.545328
0.53784
0.527296
0.513757
0.497719
0.479786
0.460516
0.440386
0.419797
0.399079
0.378502
0.358291
0.33862
0.319564
0.301141
0.283669
0.268041
0.540002
0.526776
0.522096
0.518748
0.513342
0.504897
0.49336
0.479187
0.462977
0.445289
0.426608
0.40734
0.387824
0.368337
0.349114
0.330338
0.312078
0.294328
0.277458
0.262622
0.505656
0.493428
0.49025
0.488941
0.485848
0.479744
0.470443
0.458357
0.444073
0.428156
0.411096
0.39331
0.375141
0.356875
0.338759
0.320986
0.303622
0.286632
0.270432
0.256456
0.467946
0.456804
0.455247
0.456145
0.455572
0.452026
0.445176
0.435378
0.423208
0.409234
0.393956
0.377796
0.361108
0.344186
0.327288
0.31062
0.294245
0.278097
0.262628
0.249569
0.427198
0.41722
0.41738
0.420626
0.422749
0.421952
0.417743
0.410414
0.400527
0.388654
0.3753
0.3609
0.345815
0.330349
0.31477
0.299299
0.284
0.268772
0.254087
0.241989
0.383768
0.375019
0.376966
0.382668
0.387631
0.389747
0.388344
0.383642
0.376187
0.366553
0.355253
0.342731
0.329357
0.315447
0.301278
0.28709
0.272946
0.258709
0.244855
0.233747
0.338033
0.330567
0.334343
0.342577
0.350492
0.355652
0.357193
0.355253
0.350357
0.343081
0.333946
0.323404
0.311838
0.29957
0.286893
0.274061
0.261145
0.247964
0.234981
0.224879
0.29039
0.284247
0.289871
0.300677
0.311617
0.319921
0.324515
0.325446
0.323215
0.318394
0.311516
0.303042
0.293364
0.282815
0.271698
0.260287
0.248662
0.236597
0.224515
0.215421
0.241254
0.23646
0.243923
0.257304
0.271308
0.282819
0.290545
0.294431
0.294944
0.292657
0.288109
0.281772
0.274048
0.265278
0.255779
0.245843
0.235567
0.224673
0.213514
0.20541
0.191052
0.187621
0.196887
0.212809
0.229874
0.244622
0.255527
0.262422
0.265735
0.266038
0.263874
0.259726
0.254006
0.247064
0.239226
0.230809
0.221932
0.212262
0.202039
0.194884
0.140219
0.138152
0.149158
0.167552
0.187635
0.205611
0.21971
0.229639
0.235785
0.238709
0.238964
0.237038
0.233356
0.228277
0.222132
0.215264
0.207829
0.199443
0.190165
0.183878
0.0891949
0.0884779
0.101138
0.121896
0.144916
0.166073
0.183347
0.196308
0.20529
0.210846
0.213531
0.213844
0.212219
0.209022
0.204591
0.199287
0.193326
0.186298
0.177983
0.172399
0.0384203
0.0390244
0.0532313
0.0762106
0.102044
0.126296
0.146691
0.162651
0.174449
0.182624
0.187733
0.190281
0.190714
0.189407
0.186696
0.182956
0.178479
0.172908
0.16567
0.16048
-0.011668
-0.00978965
0.00583891
0.0308613
0.0593442
0.0865669
0.109996
0.128893
0.14346
0.154217
0.161722
0.166486
0.168962
0.169537
0.168546
0.166358
0.163341
0.159318
0.153444
0.148042
-0.0606369
-0.0575538
-0.0406449
-0.0137902
0.0171404
0.047171
0.0735121
0.0952535
0.112518
0.125799
0.135651
0.142592
0.14708
0.149515
0.150233
0.149579
0.14795
0.145452
0.141481
0.135543
-0.108096
-0.103845
-0.0858443
-0.0573922
-0.0242517
0.00838577
0.0374828
0.0619487
0.0818126
0.0975369
0.10967
0.11873
0.125184
0.12944
0.131842
0.132711
0.132423
0.131304
0.129232
0.124958
-0.153869
-0.148156
-0.129424
-0.0996068
-0.0645271
-0.02952
0.0021446
0.0291866
0.0515286
0.0695939
0.0839208
0.0950284
0.103387
0.109412
0.113458
0.115834
0.116873
0.117015
0.116582
0.114274
-0.197338
-0.190224
-0.171119
-0.140127
-0.103397
-0.0662893
-0.0322763
-0.00283357
0.0218418
0.0421257
0.0585424
0.0716085
0.0817954
0.0895244
0.0951617
0.0990127
0.101371
0.102697
0.103575
0.102857
-0.238124
-0.229854
-0.21032
-0.178757
-0.140594
-0.101678
-0.0655657
-0.0339233
-0.00708113
0.01528
0.0336651
0.048586
0.0605128
0.0698692
0.0770296
0.0823041
0.0859584
0.0884283
0.0904223
0.0909796
-0.275972
-0.266739
-0.246806
-0.215024
-0.175916
-0.135459
-0.0975227
-0.0639063
-0.0350844
-0.0108054
0.00941129
0.026069
0.0396349
0.0505314
0.0591373
0.0657693
0.0706769
0.0742616
0.0772872
0.0789827
-0.310689
-0.300589
-0.280458
-0.248595
-0.209071
-0.167433
-0.127961
-0.0926192
-0.0620243
-0.0360031
-0.0141064
0.00415773
0.0192508
0.0315905
0.0415568
0.0494717
0.055577
0.0602401
0.0642444
0.0670078
-0.342089
-0.331183
-0.311071
-0.279414
-0.239726
-0.197415
-0.156712
-0.119914
-0.0877705
-0.0601972
-0.0367858
-0.0170562
-0.000557648
0.0131199
0.0243546
0.0334722
0.0407107
0.0464031
0.0513307
0.0550983
-0.370011
-0.358362
-0.338457
-0.307316
-0.267812
-0.225167
-0.183629
-0.145662
-0.112207
-0.0832826
-0.0585375
-0.0374902
-0.0197162
-0.00481411
0.00759094
0.017826
0.0261269
0.0327905
0.0385808
0.0432894
-0.394343
-0.38202
-0.362484
-0.332139
-0.293199
-0.25059
-0.208574
-0.169757
-0.135233
-0.105166
-0.0792846
-0.0570701
-0.0381593
-0.0221525
-0.00868048
0.00258233
0.0118703
0.0194426
0.0260334
0.0316229
-0.415028
-0.40211
-0.383075
-0.353772
-0.315761
-0.273584
-0.231449
-0.192105
-0.156796
-0.125764
-0.098961
-0.0757293
-0.0558309
-0.0388437
-0.0244125
-0.0122156
-0.00201864
0.00639783
0.0137254
0.0201397
-0.432066
-0.418635
-0.400211
-0.372162
-0.335417
-0.294061
-0.252179
-0.212625
-0.176816
-0.145126
-0.117447
-0.0934156
-0.0726843
-0.0548432
-0.039564
-0.0265304
-0.0155048
-0.00630867
0.00168653
0.00887379
-0.445511
-0.431655
-0.413926
-0.387307
-0.352127
-0.311965
-0.270705
-0.231264
-0.19522
-0.163089
-0.134809
-0.110123
-0.0886743
-0.0701152
-0.0541004
-0.0403306
-0.0285593
-0.0186432
-0.0100624
-0.00214811
-0.455472
-0.441283
-0.424308
-0.399251
-0.365896
-0.327272
-0.286997
-0.247993
-0.211982
-0.179631
-0.15098
-0.125814
-0.10381
-0.0846382
-0.0679911
-0.0535907
-0.041162
-0.0305755
-0.0214989
-0.0129136
-0.462109
-0.447685
-0.431498
-0.408091
-0.376768
-0.339992
-0.301046
-0.262803
-0.227102
-0.194759
-0.16593
-0.140452
-0.118045
-0.0984018
-0.081242
-0.0662951
-0.0532988
-0.0420961
-0.0325752
-0.0234369
-0.465628
-0.451072
-0.435685
-0.413969
-0.384831
-0.350169
-0.31287
-0.275702
-0.240586
-0.20848
-0.179658
-0.154032
-0.131365
-0.111383
-0.0938227
-0.0784309
-0.0649677
-0.0532666
-0.0431772
-0.0337696
-0.466277
-0.451694
-0.437103
-0.417075
-0.390215
-0.357877
-0.322513
-0.286715
-0.252451
-0.220807
-0.19218
-0.166565
-0.143777
-0.123577
-0.105723
-0.0899828
-0.0761331
-0.0640007
-0.0534325
-0.0438268
-0.464337
-0.449838
-0.436023
-0.41764
-0.393089
-0.363227
-0.33004
-0.295886
-0.262729
-0.231767
-0.203518
-0.178068
-0.155294
-0.134993
-0.116948
-0.100947
-0.0867851
-0.0742924
-0.063346
-0.0534299
-0.460114
-0.445811
-0.432745
-0.415931
-0.39366
-0.366362
-0.335545
-0.303278
-0.271467
-0.241397
-0.213702
-0.188567
-0.165935
-0.145644
-0.127506
-0.111332
-0.0969322
-0.0841479
-0.0728803
-0.0626188
-0.453934
-0.439937
-0.42759
-0.412241
-0.392169
-0.367453
-0.339142
-0.308968
-0.278725
-0.249745
-0.222773
-0.198095
-0.175725
-0.155551
-0.137414
-0.121148
-0.106585
-0.0935719
-0.0820334
-0.071478
-0.446127
-0.432548
-0.420888
-0.406884
-0.388883
-0.366704
-0.34097
-0.313051
-0.284571
-0.256868
-0.23078
-0.206692
-0.184699
-0.164739
-0.146691
-0.130412
-0.115754
-0.102574
-0.0908206
-0.0800472
-0.437025
-0.423967
-0.412967
-0.400182
-0.38409
-0.364339
-0.34119
-0.315638
-0.289086
-0.26283
-0.237775
-0.214404
-0.192893
-0.17324
-0.155361
-0.139141
-0.124454
-0.111166
-0.099252
-0.0883307
-0.426949
-0.414506
-0.404147
-0.392454
-0.378087
-0.360607
-0.339984
-0.316854
-0.292357
-0.267699
-0.243818
-0.221283
-0.200353
-0.18109
-0.163454
-0.147359
-0.132703
-0.119363
-0.107333
-0.0963196
-0.4162
-0.404459
-0.394725
-0.384007
-0.371172
-0.355766
-0.33755
-0.316838
-0.294484
-0.27155
-0.24897
-0.22738
-0.207124
-0.188329
-0.171002
-0.155091
-0.140521
-0.127181
-0.115072
-0.104011
-0.405058
-0.394088
-0.384973
-0.375126
-0.363633
-0.35008
-0.334101
-0.315742
-0.295569
-0.274458
-0.253293
-0.232753
-0.213255
-0.194998
-0.17804
-0.162367
-0.14793
-0.134635
-0.122483
-0.111409
-0.39377
-0.383627
-0.375128
-0.366065
-0.355737
-0.343808
-0.329858
-0.313733
-0.295728
-0.276504
-0.25685
-0.237454
-0.218795
-0.201141
-0.184607
-0.169217
-0.154954
-0.141747
-0.129581
-0.118526
-0.382552
-0.373273
-0.365391
-0.357044
-0.347725
-0.337195
-0.325043
-0.310984
-0.295083
-0.277772
-0.259703
-0.241537
-0.223792
-0.206801
-0.190739
-0.175673
-0.16162
-0.148536
-0.136386
-0.125375
-0.371585
-0.363189
-0.355926
-0.348243
-0.3398
-0.330464
-0.319871
-0.307676
-0.293764
-0.278348
-0.261913
-0.245049
-0.22829
-0.212021
-0.196475
-0.181768
-0.167953
-0.155024
-0.142914
-0.131968
-0.361014
-0.353502
-0.346858
-0.339801
-0.332128
-0.323806
-0.314543
-0.303987
-0.291907
-0.278324
-0.26354
-0.248038
-0.23233
-0.216838
-0.201851
-0.187536
-0.173983
-0.161233
-0.149185
-0.138319
-0.35095
-0.344307
-0.338278
-0.331818
-0.324835
-0.317375
-0.309235
-0.300092
-0.289655
-0.277799
-0.264645
-0.250543
-0.235945
-0.221285
-0.206899
-0.193006
-0.179735
-0.167184
-0.155216
-0.144439
-0.341472
-0.335668
-0.330246
-0.324362
-0.318008
-0.311291
-0.304092
-0.296145
-0.287147
-0.276874
-0.265294
-0.252602
-0.239163
-0.225389
-0.211646
-0.198207
-0.185234
-0.172898
-0.161023
-0.150342
-0.332633
-0.327625
-0.322793
-0.317468
-0.311697
-0.305632
-0.299226
-0.292282
-0.284516
-0.275658
-0.265553
-0.254253
-0.242004
-0.229166
-0.216113
-0.203159
-0.190504
-0.178394
-0.166623
-0.156039
-0.324457
-0.320194
-0.31593
-0.311146
-0.305925
-0.300445
-0.294716
-0.288607
-0.281881
-0.274253
-0.265497
-0.255534
-0.244484
-0.232627
-0.220309
-0.207878
-0.19556
-0.183687
-0.172029
-0.161539
-0.31695
-0.313371
-0.309648
-0.305386
-0.300689
-0.295745
-0.290605
-0.285198
-0.279337
-0.27276
-0.2652
-0.256488
-0.246618
-0.235769
-0.224233
-0.212368
-0.200413
-0.188787
-0.17725
-0.166848
-0.310098
-0.30714
-0.303926
-0.300162
-0.295967
-0.291523
-0.286909
-0.282099
-0.276959
-0.271262
-0.264738
-0.25716
-0.248421
-0.238589
-0.227874
-0.21662
-0.205061
-0.193701
-0.18229
-0.171973
-0.303874
-0.301472
-0.298731
-0.295441
-0.291724
-0.287753
-0.283619
-0.279328
-0.274792
-0.269826
-0.264181
-0.257603
-0.249913
-0.241077
-0.23121
-0.220613
-0.209491
-0.198419
-0.187147
-0.176908
-0.298241
-0.296332
-0.294024
-0.291181
-0.287919
-0.284396
-0.280707
-0.276879
-0.272857
-0.268499
-0.263586
-0.257867
-0.251119
-0.243232
-0.234216
-0.224313
-0.213673
-0.202922
-0.191794
-0.181676
-0.293154
-0.291676
-0.289764
-0.287336
-0.284504
-0.281407
-0.278136
-0.274729
-0.271155
-0.267304
-0.262996
-0.257999
-0.252073
-0.245055
-0.236868
-0.22768
-0.217561
-0.20718
-0.196204
-0.186224
-0.288562
-0.28746
-0.285905
-0.283861
-0.281431
-0.278736
-0.27586
-0.272842
-0.269665
-0.266248
-0.262441
-0.258038
-0.25281
-0.246561
-0.239152
-0.23067
-0.221116
-0.211117
-0.200337
-0.190619
-0.284416
-0.283639
-0.282403
-0.28071
-0.278655
-0.276337
-0.273832
-0.271176
-0.26836
-0.265319
-0.26193
-0.258017
-0.253365
-0.247774
-0.241067
-0.233256
-0.224274
-0.21472
-0.204062
-0.194638
-0.280662
-0.280169
-0.279217
-0.277843
-0.276132
-0.274165
-0.272007
-0.269689
-0.267204
-0.264496
-0.261463
-0.257951
-0.253771
-0.248726
-0.242628
-0.235416
-0.227043
-0.217752
-0.208031
-0.197292
-0.277251
-0.277008
-0.276306
-0.275222
-0.273824
-0.272181
-0.270344
-0.26834
-0.266159
-0.263752
-0.261027
-0.257852
-0.254055
-0.249453
-0.243868
-0.237151
-0.229455
-0.220121
-0.211944
-0.199327
-0.27414
-0.274116
-0.273641
-0.272813
-0.2717
-0.270352
-0.268812
-0.267097
-0.265196
-0.263061
-0.260608
-0.257718
-0.254238
-0.249993
-0.244833
-0.238489
-0.23153
-0.221785
-0.215456
-0.20085
-0.27129
-0.271462
-0.271189
-0.270594
-0.269735
-0.268654
-0.267383
-0.265933
-0.264288
-0.2624
-0.260191
-0.257549
-0.254333
-0.250379
-0.24557
-0.239492
-0.233275
-0.22283
-0.218647
-0.201615
-0.268668
-0.26902
-0.268928
-0.268539
-0.26791
-0.267068
-0.26604
-0.26483
-0.263418
-0.261756
-0.259767
-0.257344
-0.254356
-0.250646
-0.246123
-0.24025
-0.234691
-0.223487
-0.221528
-0.201613
-0.266249
-0.26677
-0.266842
-0.266637
-0.266211
-0.265584
-0.264773
-0.26378
-0.262579
-0.261123
-0.259333
-0.257108
-0.254321
-0.250827
-0.246533
-0.24086
-0.235774
-0.224078
-0.223884
-0.201227
-0.264017
-0.2647
-0.26492
-0.26488
-0.264634
-0.264197
-0.26358
-0.262781
-0.261772
-0.260502
-0.258896
-0.256854
-0.254251
-0.250953
-0.246852
-0.241405
-0.236561
-0.224868
-0.225489
-0.201085
-0.261962
-0.262802
-0.263159
-0.263265
-0.263179
-0.262909
-0.262465
-0.261839
-0.261003
-0.259903
-0.25847
-0.256599
-0.254172
-0.251061
-0.247135
-0.241945
-0.237159
-0.225955
-0.22637
-0.201716
-0.260083
-0.261076
-0.261559
-0.261795
-0.261851
-0.261728
-0.261436
-0.260966
-0.260287
-0.259347
-0.258073
-0.256368
-0.254114
-0.251187
-0.247442
-0.242523
-0.237725
-0.227306
-0.226839
-0.203303
-0.258386
-0.259528
-0.260126
-0.260479
-0.260658
-0.260666
-0.260508
-0.260177
-0.259642
-0.258851
-0.257732
-0.256191
-0.254113
-0.251376
-0.247831
-0.243178
-0.23842
-0.228854
-0.227324
-0.205736
-0.256882
-0.258167
-0.258871
-0.259327
-0.259615
-0.259736
-0.259698
-0.259492
-0.25909
-0.25844
-0.257473
-0.256098
-0.254204
-0.251672
-0.248348
-0.243959
-0.239371
-0.23056
-0.228185
-0.208824
-0.255585
-0.257006
-0.257806
-0.258353
-0.258736
-0.258956
-0.259024
-0.258932
-0.258653
-0.25814
-0.257325
-0.256121
-0.254422
-0.252111
-0.249033
-0.245013
-0.240551
-0.232478
-0.229633
-0.212417
-0.254515
-0.25606
-0.256945
-0.257571
-0.258036
-0.258343
-0.258505
-0.258517
-0.258356
-0.257976
-0.257315
-0.256289
-0.2548
-0.252733
-0.249943
-0.246307
-0.241928
-0.235092
-0.231501
-0.216489
-0.253691
-0.255344
-0.256302
-0.256995
-0.257531
-0.257913
-0.258159
-0.258268
-0.258219
-0.257972
-0.257468
-0.25663
-0.255366
-0.253566
-0.251103
-0.247867
-0.243781
-0.238036
-0.233609
-0.221918
-0.253131
-0.254874
-0.255892
-0.256641
-0.257234
-0.257682
-0.258003
-0.258202
-0.258262
-0.258147
-0.257804
-0.257164
-0.256141
-0.254636
-0.252533
-0.249727
-0.24609
-0.241273
-0.236667
-0.227429
-0.252851
-0.254662
-0.255726
-0.256517
-0.257158
-0.257661
-0.25805
-0.258333
-0.258499
-0.258516
-0.25834
-0.257907
-0.257142
-0.255954
-0.254243
-0.251907
-0.248818
-0.244834
-0.240504
-0.252863
-0.254717
-0.255809
-0.256631
-0.257308
-0.257858
-0.258308
-0.25867
-0.258939
-0.25909
-0.259084
-0.258868
-0.258375
-0.257527
-0.256235
-0.254407
-0.251932
-0.248746
-0.244993
-0.253175
-0.255041
-0.256146
-0.256985
-0.257688
-0.258275
-0.258779
-0.259216
-0.259586
-0.259871
-0.26004
-0.260047
-0.259838
-0.259347
-0.258499
-0.257213
-0.255397
-0.253009
-0.250032
-0.253785
-0.255633
-0.256734
-0.257576
-0.258294
-0.25891
-0.25946
-0.259968
-0.260436
-0.260854
-0.261199
-0.261435
-0.26152
-0.261399
-0.261013
-0.260292
-0.259164
-0.25759
-0.255505
-0.254687
-0.256485
-0.257563
-0.258396
-0.259118
-0.259753
-0.260343
-0.260914
-0.261477
-0.262026
-0.262547
-0.263014
-0.263397
-0.263655
-0.263741
-0.263602
-0.263176
-0.262428
-0.261295
0.129668
0.132599
0.139801
0.146168
0.154501
0.159968
0.165274
0.165149
0.164079
0.154251
0.130793
0.133784
0.141235
0.14791
0.156795
0.163077
0.169599
0.171055
0.172261
0.164948
0.1319
0.1349
0.142609
0.149564
0.159026
0.166065
0.173786
0.176671
0.179908
0.175008
0.13296
0.135977
0.143954
0.151183
0.161204
0.168967
0.177825
0.182106
0.187181
0.184671
0.133976
0.136997
0.145243
0.152731
0.163287
0.171741
0.181667
0.187318
0.194065
0.193892
0.134941
0.138001
0.146484
0.154208
0.165274
0.174389
0.185306
0.192294
0.200567
0.202645
0.135853
0.138849
0.147645
0.15561
0.167156
0.176905
0.188732
0.197015
0.206688
0.210908
0.136715
0.139742
0.14882
0.156938
0.168927
0.179282
0.191937
0.20146
0.212424
0.218658
0.137524
0.140519
0.14972
0.158186
0.17058
0.181513
0.194914
0.205613
0.217763
0.225875
0.138274
0.141253
0.150752
0.159338
0.172105
0.18359
0.19766
0.209456
0.222695
0.232537
0.138962
0.141925
0.15161
0.160389
0.173501
0.185503
0.200168
0.212976
0.227208
0.238626
0.139586
0.142529
0.152411
0.161344
0.17476
0.187244
0.202434
0.216161
0.231288
0.244124
0.140141
0.143066
0.153117
0.162195
0.17588
0.188805
0.204454
0.218999
0.234924
0.249018
0.140626
0.143533
0.153734
0.16294
0.176856
0.190177
0.206223
0.221484
0.238106
0.253294
0.141038
0.143928
0.154258
0.163574
0.177686
0.191354
0.207735
0.223607
0.240825
0.256944
0.141374
0.144249
0.154686
0.164099
0.178368
0.192328
0.208985
0.225364
0.243075
0.259961
0.141634
0.144495
0.155017
0.164492
0.178899
0.193094
0.209969
0.226749
0.24485
0.262343
0.141816
0.144666
0.155249
0.164812
0.179278
0.193646
0.210683
0.227758
0.246147
0.264088
0.141918
0.144759
0.155378
0.164926
0.179504
0.193988
0.211127
0.228392
0.246968
0.265199
0.14194
0.144775
0.155415
0.165006
0.179566
0.194097
0.211282
0.228636
0.247299
0.265667
0.0326283
0.0314728
0.0295743
0.02733
0.0249857
0.0227123
0.0205894
0.0186626
0.0169389
0.0154171
0.0327408
0.0315818
0.0296742
0.0274202
0.025065
0.0227816
0.0206485
0.0187125
0.0169801
0.0154502
0.0329594
0.0317931
0.0298688
0.0275958
0.02522
0.0229167
0.0207639
0.0188099
0.0170605
0.0155158
0.0332783
0.0321015
0.0301535
0.0278529
0.0254471
0.0231145
0.020933
0.0189525
0.0171785
0.0156123
0.0336926
0.0325024
0.030524
0.0281878
0.025743
0.0233723
0.0211534
0.0191385
0.0173326
0.0157384
0.0341976
0.0329916
0.0309765
0.0285972
0.0261049
0.0236878
0.0214234
0.0193664
0.0175215
0.0158929
0.0347893
0.0335651
0.0315077
0.0290782
0.0265307
0.0240592
0.0217414
0.019635
0.0177442
0.0160752
0.0354639
0.0342197
0.0321144
0.0296284
0.0270181
0.0244849
0.022106
0.0199432
0.0179998
0.0162845
0.0362178
0.0349522
0.032794
0.0302455
0.0275655
0.0249636
0.0225164
0.0202902
0.0182878
0.0165205
0.0370478
0.0357598
0.033544
0.0309276
0.0281715
0.0254941
0.0229716
0.0206756
0.0186076
0.0167827
0.0379509
0.0366397
0.0343622
0.0316729
0.0288346
0.0260756
0.0234711
0.0210988
0.0189592
0.017071
0.0389241
0.0375897
0.0352463
0.03248
0.029554
0.0267074
0.0240144
0.0215596
0.0193423
0.0173855
0.0399647
0.0386072
0.0361946
0.0333475
0.0303287
0.0273891
0.0246014
0.022058
0.0197569
0.0177261
0.04107
0.0396902
0.0372052
0.0342742
0.031158
0.0281203
0.0252319
0.0225941
0.0202033
0.0180932
0.0422376
0.0408364
0.0382763
0.035259
0.0320413
0.0289008
0.0259059
0.023168
0.0206817
0.0184872
0.0434648
0.0420438
0.0394063
0.0363009
0.0329783
0.0297306
0.0266236
0.0237801
0.0211926
0.0189084
0.0447491
0.0433104
0.0405935
0.0373992
0.0339685
0.0306098
0.0273854
0.0244308
0.0217365
0.0193575
0.0460882
0.044634
0.0418364
0.038553
0.0350118
0.0315385
0.0281916
0.0251209
0.0223141
0.0198351
0.0474795
0.0460127
0.0431334
0.0397616
0.0361079
0.032517
0.0290427
0.0258508
0.0229261
0.0203422
0.0489207
0.0474442
0.0444829
0.0410244
0.0372569
0.0335457
0.0299394
0.0266216
0.0235734
0.0208796
0.0504093
0.0489266
0.0458835
0.0423409
0.0384587
0.0346249
0.0308825
0.0274342
0.0242572
0.0214483
0.0519428
0.0504575
0.0473335
0.0437105
0.0397132
0.0357553
0.0318727
0.0282895
0.0249784
0.0220495
0.0535188
0.0520347
0.0488315
0.0451327
0.0410206
0.0369374
0.0329111
0.0291889
0.0257384
0.0226845
0.0551347
0.0536559
0.0503758
0.0466069
0.042381
0.0381717
0.0339985
0.0301335
0.0265385
0.0233546
0.056788
0.0553186
0.051965
0.0481328
0.0437943
0.0394592
0.0351363
0.0311248
0.0273802
0.0240612
0.058476
0.0570205
0.0535976
0.0497097
0.0452606
0.0408004
0.0363256
0.0321643
0.028265
0.0248061
0.0601963
0.0587587
0.055272
0.0513371
0.04678
0.0421963
0.0375676
0.0332537
0.0291947
0.0255909
0.0619461
0.0605309
0.0569867
0.0530145
0.0483525
0.0436477
0.038864
0.0343946
0.030171
0.0264173
0.0637228
0.0623341
0.0587401
0.054741
0.0499781
0.0451556
0.040216
0.0355889
0.031196
0.0272874
0.0655235
0.0641657
0.0605306
0.056516
0.0516569
0.0467209
0.0416254
0.0368384
0.0322715
0.0282033
0.0673457
0.0660228
0.0623568
0.0583385
0.0533887
0.0483447
0.0430937
0.0381454
0.0333999
0.0291671
0.0691865
0.0679025
0.064217
0.0602076
0.0551735
0.050028
0.0446226
0.0395117
0.0345834
0.0301812
0.071043
0.069802
0.0661096
0.0621221
0.0570112
0.0517719
0.0462138
0.0409398
0.0358245
0.031248
0.0729126
0.0717183
0.068033
0.0640808
0.0589017
0.0535775
0.0478692
0.0424318
0.0371256
0.0323702
0.0747922
0.0736485
0.0699853
0.0660821
0.0608448
0.0554457
0.0495904
0.0439901
0.0384895
0.0335506
0.0766791
0.0755896
0.071965
0.0681247
0.0628404
0.0573777
0.0513793
0.0456173
0.039919
0.0347921
0.0785704
0.0775388
0.07397
0.0702066
0.0648881
0.0593744
0.0532378
0.0473159
0.0414171
0.0360977
0.0804633
0.0794932
0.0759986
0.0723262
0.0669877
0.0614366
0.0551676
0.0490886
0.0429868
0.0374706
0.0823549
0.08145
0.0780487
0.0744813
0.0691389
0.0635652
0.0571704
0.0509381
0.0446314
0.0389144
0.0842425
0.0834064
0.0801183
0.0766698
0.0713412
0.0657607
0.0592482
0.0528672
0.0463543
0.0404324
0.0861232
0.0853597
0.082205
0.0788894
0.0735942
0.0680236
0.0614025
0.0548787
0.0481589
0.0420285
0.0879945
0.0873071
0.0843067
0.0811377
0.0758972
0.0703542
0.0636352
0.0569757
0.0500489
0.0437065
0.0898535
0.0892462
0.086421
0.0834123
0.0782496
0.0727526
0.0659478
0.0591611
0.052028
0.0454704
0.0916977
0.0911745
0.0885452
0.0857104
0.0806503
0.0752187
0.0683421
0.0614379
0.0541
0.0473245
0.0935246
0.0930894
0.090677
0.0880294
0.0830985
0.0777522
0.0708194
0.063809
0.0562687
0.049273
0.0953318
0.0949887
0.0928134
0.0903666
0.0855928
0.0803523
0.0733814
0.0662776
0.0585383
0.0513206
0.0971169
0.0968701
0.0949519
0.092719
0.0881319
0.0830183
0.0760293
0.0688466
0.0609127
0.0534718
0.0988777
0.0987314
0.0970894
0.0950838
0.0907141
0.085749
0.0787644
0.0715188
0.0633959
0.0557316
0.100612
0.100571
0.0992232
0.0974579
0.0933374
0.0885429
0.0815878
0.0742971
0.0659922
0.0581048
0.102318
0.102386
0.10135
0.0998386
0.0959998
0.0913983
0.0845005
0.0771841
0.0687055
0.0605968
0.103994
0.104175
0.103467
0.102223
0.0986987
0.0943133
0.0875034
0.0801824
0.07154
0.0632128
0.105638
0.105936
0.105572
0.104607
0.101432
0.0972854
0.090597
0.0832941
0.0744997
0.0659584
0.107248
0.107668
0.107661
0.106989
0.104195
0.100312
0.0937818
0.0865214
0.0775887
0.0688392
0.108823
0.109369
0.109731
0.109365
0.106987
0.10339
0.0970578
0.089866
0.0808108
0.0718612
0.110362
0.111037
0.111779
0.111732
0.109802
0.106517
0.100425
0.0933291
0.0841703
0.0750305
0.111864
0.112671
0.113803
0.114087
0.112637
0.109689
0.103883
0.0969117
0.0876709
0.0783534
0.113326
0.11427
0.1158
0.116427
0.115488
0.112902
0.107431
0.100614
0.091317
0.0818364
0.11475
0.115833
0.117767
0.11875
0.118351
0.116152
0.111068
0.104437
0.0951127
0.0854861
0.116133
0.117358
0.119701
0.121051
0.12122
0.119436
0.114791
0.108378
0.0990628
0.0893093
0.117475
0.118844
0.1216
0.123329
0.124092
0.122747
0.1186
0.112438
0.103172
0.0933129
0.118777
0.120291
0.123461
0.125579
0.126959
0.126083
0.122491
0.116614
0.107447
0.0975033
0.120036
0.121697
0.125283
0.127801
0.129818
0.129438
0.12646
0.120904
0.111894
0.101886
0.121254
0.123063
0.127064
0.129989
0.132663
0.132808
0.130503
0.125305
0.116521
0.106466
0.122429
0.124387
0.128801
0.132143
0.135488
0.136186
0.134614
0.129814
0.121339
0.111248
0.123563
0.125669
0.130493
0.134259
0.138287
0.139568
0.138787
0.134428
0.126364
0.116242
0.124655
0.126908
0.132139
0.136334
0.141056
0.14295
0.143017
0.139145
0.13161
0.121462
0.125705
0.128105
0.133739
0.13837
0.143792
0.14633
0.147297
0.143964
0.13708
0.126871
0.126713
0.12926
0.13529
0.140362
0.146485
0.149695
0.1516
0.14886
0.142758
0.132289
0.12768
0.130367
0.136782
0.142288
0.149103
0.152997
0.155866
0.153792
0.148713
0.137595
0.128608
0.131418
0.1382
0.144114
0.151616
0.15621
0.160132
0.158874
0.155414
0.14381
0.0144116
0.0138331
0.0132495
0.0126633
0.0120751
0.0114846
0.0108919
0.0102974
0.00970168
0.00910515
0.0085083
0.00791155
0.00731529
0.00671994
0.0061259
0.00553358
0.00494336
0.00435568
0.003771
0.00318985
0.0144401
0.0138603
0.0132754
0.0126883
0.0120992
0.0115078
0.010914
0.010318
0.00972041
0.00912175
0.00852247
0.00792298
0.0073237
0.00672507
0.0061275
0.00553142
0.00493725
0.00434537
0.00375611
0.00316973
0.0144975
0.0139138
0.013324
0.0127322
0.0121385
0.0115424
0.0109436
0.0103423
0.00973922
0.00913482
0.00852961
0.00792404
0.00731855
0.00671356
0.00610952
0.00550686
0.00490604
0.0043075
0.00371174
0.00311938
0.0145811
0.0139904
0.0133923
0.0127924
0.0121912
0.0115875
0.010981
0.0103719
0.00976068
0.00914807
0.00853456
0.00792059
0.00730661
0.00669307
0.00608041
0.00546911
0.00485963
0.00425242
0.00364794
0.00304666
0.01469
0.0140891
0.0134796
0.0128687
0.0122572
0.0116435
0.0110267
0.010407
0.0097852
0.00916184
0.00853751
0.00791266
0.00728773
0.00666318
0.00603947
0.00541709
0.00479649
0.00417817
0.0035626
0.00295037
0.0148233
0.0142094
0.0135854
0.0129607
0.0123361
0.0117097
0.0110802
0.0104475
0.00981254
0.00917597
0.00853839
0.00790028
0.00726207
0.00662421
0.00598718
0.00535148
0.00471759
0.00408601
0.00345724
0.00283191
0.0149802
0.0143506
0.013709
0.0130677
0.0124277
0.0117862
0.0111414
0.0104933
0.00984277
0.00919062
0.00853749
0.00788383
0.00723007
0.00657666
0.00592411
0.0052729
0.00462354
0.00397655
0.00333245
0.00269194
0.0151603
0.0145122
0.0138502
0.0131896
0.0125316
0.0118726
0.0112103
0.0105444
0.00987597
0.00920594
0.00853498
0.00786354
0.00719203
0.0065209
0.00585064
0.00518175
0.00451475
0.00385016
0.00318857
0.00253085
0.0153631
0.014694
0.0140087
0.0133262
0.0126478
0.011969
0.0112868
0.0106008
0.00991223
0.00922206
0.00853106
0.00783964
0.00714821
0.00645722
0.00576717
0.00507856
0.00439188
0.00370764
0.00302638
0.0023491
0.0155885
0.0148956
0.0141843
0.0134773
0.0127762
0.0120754
0.0113711
0.0106627
0.00995164
0.00923911
0.00852586
0.00781231
0.00709883
0.00638587
0.00567395
0.00496359
0.00425533
0.00354967
0.00284704
0.00214737
0.0158363
0.0151171
0.0143769
0.0136429
0.0129169
0.0121918
0.0114631
0.0107301
0.00999432
0.00925722
0.00851955
0.00778169
0.00704401
0.00630694
0.00557099
0.0048367
0.00410456
0.00337508
0.00264868
0.00192561
0.0161066
0.0153585
0.0145867
0.0138232
0.01307
0.0123184
0.011563
0.0108031
0.0100404
0.00927655
0.00851228
0.00774797
0.00698395
0.00622064
0.00545856
0.00469824
0.0039402
0.00318493
0.00243289
0.00168428
0.0163995
0.0156198
0.0148136
0.0140182
0.0132355
0.0124553
0.011671
0.010882
0.0100902
0.0092973
0.00850425
0.00771134
0.00691884
0.00612718
0.00533687
0.00454845
0.00376243
0.00297931
0.00219955
0.00142332
0.0167153
0.0159015
0.0150581
0.0142282
0.0134138
0.0126027
0.0117873
0.0109669
0.0101437
0.00931966
0.00849566
0.00767198
0.00684887
0.00602673
0.00520607
0.00438745
0.00357138
0.00275833
0.00194877
0.00114286
0.0170543
0.0162037
0.0153203
0.0144535
0.0136051
0.012761
0.0119123
0.0110582
0.0102013
0.00934386
0.00848672
0.00763011
0.00677422
0.00591945
0.00506632
0.00421538
0.00336714
0.00252208
0.00168064
0.000842936
0.0174172
0.016527
0.0156007
0.0146944
0.0138098
0.0129304
0.0120461
0.0111561
0.0102633
0.00937016
0.00847766
0.00758591
0.00669506
0.00580549
0.00491774
0.00403234
0.0031498
0.0022706
0.00139516
0.00052356
0.0178044
0.0168719
0.0158997
0.0149515
0.0140284
0.0131115
0.0121893
0.0112609
0.0103298
0.00939881
0.00846871
0.00753959
0.00661157
0.00568501
0.00476044
0.00383841
0.00291942
0.00200393
0.00109236
0.0001847
0.0182166
0.0172391
0.016218
0.0152251
0.0142613
0.0133046
0.0123421
0.011373
0.0104014
0.00943011
0.00846012
0.00749139
0.00652394
0.00555815
0.00459455
0.00363368
0.00267603
0.00172207
0.000772183
-0.000173706
0.0186547
0.0176294
0.0165561
0.015516
0.014509
0.0135103
0.0125051
0.0114929
0.0104783
0.00946438
0.00845218
0.00744152
0.00643236
0.00542506
0.00442016
0.0034182
0.00241967
0.001425
0.000434594
-0.00055175
0.0191197
0.0180434
0.0169149
0.0158247
0.0147723
0.0137291
0.0126788
0.011621
0.0105608
0.00950195
0.00844517
0.00739022
0.006337
0.00528587
0.00423736
0.00319203
0.00215033
0.0011127
7.95085e-05
-0.000949552
0.0196125
0.0184823
0.0172952
0.0161521
0.0150517
0.0139616
0.0128637
0.0117577
0.0106496
0.0095432
0.0084394
0.00733775
0.00623808
0.00514073
0.00404626
0.0029552
0.00186801
0.000785103
-0.000293174
-0.00136726
0.0201342
0.018947
0.0176977
0.0164989
0.0153481
0.0142086
0.0130604
0.0119036
0.0107449
0.0095885
0.00843518
0.00728436
0.00613579
0.00498979
0.00384694
0.00270776
0.0015727
0.000442136
-0.000683579
-0.00180505
0.0206862
0.0194387
0.0181237
0.016866
0.0156621
0.0144707
0.0132696
0.0120592
0.0108472
0.00963826
0.00843287
0.00723034
0.00603033
0.00483318
0.00363947
0.00244971
0.00126433
8.36999e-05
-0.00109186
-0.00226313
0.0212697
0.0199586
0.0185741
0.0172545
0.0159949
0.0147488
0.0134919
0.0122252
0.0109572
0.00969293
0.00843282
0.00717595
0.00592191
0.00467104
0.00342391
0.00218105
0.000942858
-0.000290326
-0.00151819
-0.00274173
0.0218863
0.0205081
0.0190501
0.0176653
0.0163472
0.0150437