/*--------------------------------*- C++ -*----------------------------------*\
  =========                 |
  \\      /  F ield         | OpenFOAM: The Open Source CFD Toolbox
   \\    /   O peration     | Website:  https://openfoam.org
    \\  /    A nd           | Version:  7
     \\/     M anipulation  |
\*---------------------------------------------------------------------------*/
FoamFile
{
    version     2.0;
    format      ascii;
    class       volVectorField;
    location    "1";
    object      U;
}
// * * * * * * * * * * * * * * * * * * * * * * * * * * * * * * * * * * * * * //

dimensions      [0 1 -1 0 0 0 0];

internalField   nonuniform List<vector> 
30686
(
(1 -9.34494e-06 4.52891e-16)
(1.00006 -2.7954e-05 -1.1051e-15)
(1.00017 -4.63594e-05 2.53635e-16)
(1.00034 -6.45343e-05 4.96246e-15)
(1.00056 -8.24402e-05 4.49603e-15)
(1.00083 -0.000100003 4.17047e-15)
(1.00116 -0.000117134 3.63073e-15)
(1.00155 -0.000133748 2.83376e-15)
(1.00198 -0.000149772 2.19138e-15)
(1.00245 -0.000165147 1.74071e-15)
(1.00298 -0.000179824 1.27466e-15)
(1.00355 -0.000193762 4.16633e-16)
(1.00415 -0.000206924 1.13755e-15)
(1.0048 -0.000219281 3.24038e-16)
(1.00549 -0.000230808 2.30517e-16)
(1.0062 -0.000241487 8.97925e-17)
(1.00695 -0.000251309 7.27782e-16)
(1.00773 -0.000260269 -4.38607e-16)
(1.00853 -0.00026837 3.93587e-16)
(1.00936 -0.000275619 -8.11766e-17)
(1.01021 -0.000282031 7.10759e-16)
(1.01107 -0.000287623 3.73964e-16)
(1.01195 -0.000292418 1.02128e-15)
(1.01285 -0.00029644 -4.46544e-16)
(1.01376 -0.00029972 1.10254e-15)
(1.01467 -0.000302288 -5.8012e-16)
(1.01559 -0.000304177 1.8232e-15)
(1.01652 -0.000305422 -1.37781e-15)
(1.01745 -0.000306059 2.45035e-15)
(1.01838 -0.000306124 3.00802e-15)
(1.01931 -0.000305653 2.59714e-15)
(1.02023 -0.000304684 2.82228e-15)
(1.02116 -0.000303252 2.53367e-15)
(1.02208 -0.000301394 1.44547e-15)
(1.02299 -0.000299143 1.49817e-15)
(1.02389 -0.000296533 2.15283e-15)
(1.02479 -0.000293597 1.5239e-15)
(1.02568 -0.000290366 1.69421e-15)
(1.02655 -0.00028687 1.51667e-15)
(1.02742 -0.000283139 1.50233e-15)
(1.02827 -0.000279198 1.05048e-15)
(1.02912 -0.000275074 1.55537e-15)
(1.02994 -0.000270791 9.64202e-16)
(1.03076 -0.000266374 9.59219e-16)
(1.03156 -0.000261846 5.80746e-16)
(1.03235 -0.000257225 1.94723e-15)
(1.03312 -0.000252532 3.44936e-16)
(1.03388 -0.000247784 6.25923e-16)
(1.03463 -0.000242999 5.86875e-16)
(1.03536 -0.000238197 1.01741e-15)
(1.03608 -0.000233393 7.24084e-19)
(1.03678 -0.000228601 1.63305e-15)
(1.03747 -0.000223833 -5.76423e-16)
(1.03814 -0.000219101 1.57653e-15)
(1.0388 -0.00021442 -9.00942e-16)
(1.03944 -0.000209804 2.37848e-15)
(1.04007 -0.000205268 -1.69822e-15)
(1.04069 -0.00020082 -1.54703e-15)
(1.04129 -0.000196466 -1.30103e-15)
(1.04188 -0.000192213 -1.24936e-15)
(1.04246 -0.000188069 -1.31541e-15)
(1.04302 -0.000184049 -8.48815e-16)
(1.04357 -0.000180169 -8.3489e-16)
(1.04412 -0.000176439 -6.65288e-16)
(1.04465 -0.000172863 -3.85085e-17)
(1.04517 -0.000169439 -1.1463e-15)
(1.04568 -0.000166165 -7.45983e-16)
(1.04617 -0.000163046 -1.17969e-15)
(1.04667 -0.000160097 -7.69894e-16)
(1.04715 -0.000157342 1.10621e-16)
(1.04762 -0.000154803 3.64084e-16)
(1.04809 -0.000152488 -9.9108e-16)
(1.04855 -0.00015039 4.99238e-16)
(1.049 -0.000148491 -1.0174e-15)
(1.04945 -0.000146773 9.54134e-17)
(1.04989 -0.000145239 -3.14281e-16)
(1.05033 -0.000143917 5.56388e-16)
(1.05077 -0.000142858 -1.16408e-15)
(1.0512 -0.000142124 7.55285e-16)
(1.05163 -0.000141761 -1.23368e-15)
(1.05206 -0.000141783 1.44962e-15)
(1.05249 -0.00014216 -2.28686e-15)
(1.05292 -0.000142835 -1.81492e-15)
(1.05336 -0.00014374 -1.71182e-15)
(1.05379 -0.000144839 -1.17519e-15)
(1.05424 -0.000146152 -6.57254e-16)
(1.05468 -0.000147779 -1.63091e-15)
(1.05513 -0.000149891 -1.50046e-15)
(1.05559 -0.00015271 -1.05201e-15)
(1.05606 -0.000156464 -1.0924e-15)
(1.05654 -0.000161343 -7.58755e-16)
(1.05704 -0.000167446 -8.98641e-16)
(1.05756 -0.000174757 -6.17971e-16)
(1.0581 -0.000183126 -5.78656e-16)
(1.05867 -0.000192279 -7.36223e-16)
(1.05927 -0.000201844 -9.27763e-16)
(1.0599 -0.000211388 -7.71867e-16)
(1.06055 -0.000220462 -2.51109e-16)
(1.06123 -0.000228643 -7.02282e-16)
(1.06194 -0.000235569 -7.1339e-16)
(1.06267 -0.00024096 -1.56441e-16)
(1.0634 -0.000244638 -4.48412e-17)
(1.06415 -0.000246521 3.93579e-16)
(1.0649 -0.000246616 -8.2955e-16)
(1.06565 -0.000245008 -1.34058e-17)
(1.06639 -0.00024184 -1.6181e-17)
(1.06712 -0.000237294 -2.87063e-16)
(1.06783 -0.000231572 -3.73912e-16)
(1.06852 -0.000224884 7.44987e-16)
(1.0692 -0.000217434 4.65351e-17)
(1.06984 -0.000209411 3.23141e-16)
(1.07047 -0.000200987 1.60016e-16)
(1.07106 -0.00019231 -2.5391e-16)
(1.07163 -0.000183506 1.5627e-16)
(1.07218 -0.000174679 -5.62238e-16)
(1.0727 -0.000165914 -5.08171e-17)
(1.07319 -0.00015728 -2.60781e-16)
(1.07365 -0.000148829 2.41725e-16)
(1.07409 -0.000140601 8.38983e-16)
(1.0745 -0.000132627 2.4705e-17)
(1.07489 -0.000124929 -4.08181e-16)
(1.07526 -0.000117523 -3.62543e-16)
(1.07561 -0.000110418 5.12846e-16)
(1.07593 -0.00010362 -8.68232e-17)
(1.07624 -9.71327e-05 6.47731e-17)
(1.07652 -9.09547e-05 6.11395e-17)
(1.07679 -8.50835e-05 3.23889e-16)
(1.07704 -7.95148e-05 -2.62302e-16)
(1.07727 -7.42426e-05 3.3521e-16)
(1.07749 -6.92596e-05 5.2024e-16)
(1.07769 -6.45577e-05 1.26969e-15)
(1.07788 -6.0128e-05 1.1344e-15)
(1.07806 -5.59608e-05 7.69576e-16)
(1.07822 -5.20463e-05 3.73283e-16)
(1.07837 -4.83741e-05 4.60623e-16)
(1.07851 -4.49336e-05 1.47733e-16)
(1.07865 -4.17143e-05 8.86225e-16)
(1.07877 -3.87055e-05 6.61428e-16)
(1.07888 -3.58967e-05 1.09357e-15)
(1.07899 -3.32776e-05 5.97166e-16)
(1.07908 -3.08378e-05 5.07764e-16)
(1.07917 -2.85676e-05 1.68241e-15)
(1.07926 -2.64571e-05 1.12566e-15)
(1.07933 -2.44973e-05 5.47116e-16)
(1.0794 -2.26789e-05 9.77498e-16)
(1.07947 -2.09936e-05 9.96241e-16)
(1.07953 -1.9433e-05 1.49075e-15)
(1.07959 -1.79893e-05 1.80639e-15)
(1.07964 -1.66551e-05 1.38867e-15)
(1.07969 -1.54234e-05 1.74695e-15)
(1.07973 -1.42875e-05 1.24203e-15)
(1.07978 -1.32411e-05 1.59654e-15)
(1.07982 -1.22783e-05 1.21439e-15)
(1.07985 -1.13937e-05 1.34681e-15)
(1.07988 -1.0582e-05 1.86306e-15)
(1.07992 -9.83852e-06 2.36959e-15)
(1.07994 -9.1587e-06 1.77651e-15)
(1.07997 -8.53836e-06 2.11719e-15)
(1.08 -7.97367e-06 1.4224e-15)
(1.08002 -7.46104e-06 2.37501e-15)
(1.08004 -6.99719e-06 1.24438e-15)
(1.08006 -6.5791e-06 2.02551e-15)
(1.08008 -6.20401e-06 2.16987e-15)
(1.0801 -5.86938e-06 1.53876e-15)
(1.08012 -5.57293e-06 2.4333e-15)
(1.08013 -5.31259e-06 1.73193e-15)
(1.08015 -5.08651e-06 1.82034e-15)
(1.08016 -4.89302e-06 2.48424e-15)
(1.08018 -4.73065e-06 2.07052e-15)
(1.08019 -4.59814e-06 1.5669e-15)
(1.08021 -4.49436e-06 2.02073e-15)
(1.08022 -4.41838e-06 2.60461e-15)
(1.08023 -4.36948e-06 2.25212e-15)
(1.08025 -4.34702e-06 2.34402e-15)
(1.08026 -4.35051e-06 2.42387e-15)
(1.08027 -4.3797e-06 2.7244e-15)
(1.08029 -4.43443e-06 2.6037e-15)
(1.0803 -4.5147e-06 2.44789e-15)
(1.08031 -4.62063e-06 2.72974e-15)
(1.08033 -4.75252e-06 3.07017e-15)
(1.08034 -4.91081e-06 3.09682e-15)
(1.08036 -5.09607e-06 2.15874e-15)
(1.08037 -5.30905e-06 2.95569e-15)
(1.08039 -5.55061e-06 2.29935e-15)
(1.08041 -5.82178e-06 2.32634e-15)
(1.08043 -6.12377e-06 2.2316e-15)
(1.08044 -6.45791e-06 2.52521e-15)
(1.08046 -6.82572e-06 3.45618e-15)
(1.08049 -7.22892e-06 2.75434e-15)
(1.08051 -7.66937e-06 3.20738e-15)
(1.08053 -8.14916e-06 2.52101e-15)
(1.08056 -8.67053e-06 3.34973e-15)
(1.08059 -9.23598e-06 2.78851e-15)
(1.08061 -9.84818e-06 3.13793e-15)
(1.08064 -1.05101e-05 2.59036e-15)
(1.08068 -1.12248e-05 3.49555e-15)
(1.08071 -1.19959e-05 2.8884e-15)
(1.08075 -1.2827e-05 3.35737e-15)
(1.08079 -1.37221e-05 2.4103e-15)
(1.08083 -1.46854e-05 3.23622e-15)
(1.08088 -1.57218e-05 2.19856e-15)
(1.08093 -1.68361e-05 3.10685e-15)
(1.08098 -1.80337e-05 2.10906e-15)
(1.08104 -1.93203e-05 3.66753e-15)
(1.0811 -2.07022e-05 2.45361e-15)
(1.08116 -2.21861e-05 3.55498e-15)
(1.08123 -2.37788e-05 3.20967e-15)
(1.08131 -2.54882e-05 3.61654e-15)
(1.08139 -2.73224e-05 2.32521e-15)
(1.08147 -2.929e-05 2.97199e-15)
(1.08157 -3.14005e-05 2.40317e-15)
(1.08167 -3.36637e-05 3.02164e-15)
(1.08177 -3.60906e-05 2.00987e-15)
(1.08188 -3.86924e-05 2.88286e-15)
(1.08201 -4.14813e-05 2.04148e-15)
(1.08214 -4.44705e-05 3.15891e-15)
(1.08228 -4.76739e-05 2.3451e-15)
(1.08243 -5.11063e-05 2.93928e-15)
(1.08259 -5.47837e-05 2.76884e-15)
(1.08276 -5.87229e-05 2.04769e-15)
(1.08294 -6.29421e-05 2.70935e-15)
(1.08314 -6.74605e-05 1.75105e-15)
(1.08335 -7.22986e-05 1.95569e-15)
(1.08358 -7.74783e-05 1.07973e-15)
(1.08382 -8.30228e-05 1.91507e-15)
(1.08408 -8.89569e-05 1.03044e-15)
(1.08436 -9.53068e-05 1.64437e-15)
(1.08466 -0.000102101 4.06944e-16)
(1.08498 -0.000109368 2.02466e-15)
(1.08533 -0.00011714 3.91107e-16)
(1.08569 -0.000125451 1.9348e-15)
(1.08609 -0.000134336 8.78973e-16)
(1.08651 -0.000143832 1.38516e-15)
(1.08696 -0.00015398 6.45491e-16)
(1.08744 -0.00016482 1.82224e-15)
(1.08796 -0.000176398 5.2848e-16)
(1.08851 -0.000188761 1.30884e-15)
(1.08911 -0.000201957 8.11323e-16)
(1.08974 -0.000216039 8.4973e-16)
(1.09042 -0.000231062 3.63743e-16)
(1.09114 -0.000247082 1.02307e-15)
(1.09192 -0.000264161 5.44264e-16)
(1.09275 -0.00028236 1.36509e-15)
(1.09363 -0.000301747 2.79671e-16)
(1.09458 -0.00032239 3.8217e-16)
(1.09559 -0.000344361 5.8643e-16)
(1.09667 -0.000367734 7.13209e-16)
(1.09782 -0.000392586 1.25892e-15)
(1.09905 -0.000418998 -3.43613e-18)
(1.10037 -0.000447052 9.44179e-16)
(1.10177 -0.000476832 -2.1792e-16)
(1.10326 -0.000508426 1.30771e-15)
(1.10485 -0.000541921 -3.44167e-16)
(1.10655 -0.000577409 6.26776e-16)
(1.10836 -0.00061498 1.19374e-16)
(1.11028 -0.000654725 -2.88135e-18)
(1.11233 -0.000696736 -4.48675e-16)
(1.11451 -0.000741103 3.61199e-16)
(1.11683 -0.000787915 -6.94631e-16)
(1.11929 -0.00083726 -2.16719e-16)
(1.12191 -0.000889219 -7.45906e-16)
(1.12469 -0.000943871 -4.68419e-16)
(1.12764 -0.00100129 2.46952e-16)
(1.13077 -0.00106154 5.14944e-17)
(1.13408 -0.00112467 1.12061e-16)
(1.13759 -0.00119074 -6.0715e-16)
(1.14131 -0.00125977 -8.83128e-16)
(1.14524 -0.00133178 -1.04165e-15)
(1.14939 -0.00140678 -5.52875e-16)
(1.15378 -0.00148475 -6.24729e-16)
(1.1584 -0.00156565 -1.05737e-15)
(1.16328 -0.00164942 -1.03057e-15)
(1.16841 -0.00173597 -9.12572e-16)
(1.17381 -0.0018252 -1.2617e-15)
(1.17949 -0.00191694 -5.86329e-16)
(1.18545 -0.00201102 -8.85115e-16)
(1.19169 -0.00210724 -7.26525e-16)
(1.19823 -0.00220533 -1.24169e-15)
(1.20508 -0.002305 -7.58296e-16)
(1.21222 -0.00240593 -9.50332e-16)
(1.21967 -0.00250773 -1.08578e-15)
(1.22744 -0.00261 -1.38621e-15)
(1.23551 -0.00271227 -1.10175e-15)
(1.2439 -0.00281405 -1.3208e-15)
(1.25259 -0.0029148 -1.12577e-15)
(1.26159 -0.00301393 -1.5706e-15)
(1.27088 -0.00311085 -1.37065e-15)
(1.28046 -0.00320491 -1.54033e-15)
(1.29033 -0.00329543 -1.59314e-15)
(1.30046 -0.00338174 -1.68593e-15)
(1.31085 -0.00346313 -1.36026e-15)
(1.32148 -0.00353889 -1.6097e-15)
(1.33233 -0.00360833 -1.36875e-15)
(1.34338 -0.00367074 -1.72059e-15)
(1.35462 -0.00372545 -1.39669e-15)
(1.366 -0.00377183 -1.76897e-15)
(1.37751 -0.00380926 -1.34282e-15)
(1.38913 -0.00383719 -1.76544e-15)
(1.40081 -0.00385514 -1.19771e-15)
(1.41254 -0.00386266 -1.75076e-15)
(1 -2.17804e-05 4.58982e-16)
(1.00006 -6.51869e-05 -6.45572e-16)
(1.00017 -0.000108211 6.47117e-16)
(1.00034 -0.000150714 -6.15372e-16)
(1.00056 -0.000192555 -7.3103e-16)
(1.00084 -0.000233559 -2.37718e-15)
(1.00117 -0.000273537 -1.7645e-15)
(1.00155 -0.000312303 -2.17018e-15)
(1.00198 -0.000349698 -1.42924e-15)
(1.00246 -0.000385582 -1.69333e-15)
(1.00298 -0.000419839 -9.44565e-16)
(1.00355 -0.000452368 -1.89366e-15)
(1.00416 -0.000483086 -7.10482e-16)
(1.00481 -0.000511919 -1.76214e-15)
(1.0055 -0.000538813 -3.82342e-16)
(1.00621 -0.000563728 -1.11635e-16)
(1.00696 -0.000586639 -2.87868e-16)
(1.00774 -0.000607537 1.36513e-16)
(1.00855 -0.00062643 1.55733e-15)
(1.00938 -0.000643335 -2.03479e-16)
(1.01022 -0.000658284 1.93489e-15)
(1.01109 -0.00067132 1.05452e-15)
(1.01197 -0.000682495 1.57605e-15)
(1.01287 -0.000691869 7.22746e-16)
(1.01378 -0.000699508 1.57742e-15)
(1.01469 -0.000705487 4.05327e-16)
(1.01561 -0.000709882 2.08354e-15)
(1.01654 -0.000712775 -4.06127e-17)
(1.01747 -0.000714249 1.99954e-15)
(1.0184 -0.00071439 1.31955e-15)
(1.01933 -0.000713282 2.09113e-15)
(1.02026 -0.00071101 7.84609e-16)
(1.02118 -0.000707661 2.27357e-15)
(1.0221 -0.000703315 7.7305e-17)
(1.02302 -0.000698056 2.21087e-15)
(1.02392 -0.000691958 1.62379e-15)
(1.02482 -0.0006851 2.12354e-15)
(1.02571 -0.000677554 1.03587e-15)
(1.02658 -0.000669393 1.84735e-15)
(1.02745 -0.000660681 6.05573e-16)
(1.0283 -0.000651481 1.90181e-15)
(1.02914 -0.000641854 1.9196e-15)
(1.02997 -0.000631857 1.53404e-15)
(1.03079 -0.000621547 1.12181e-15)
(1.03159 -0.000610976 1.04417e-15)
(1.03238 -0.000600192 1.24017e-15)
(1.03315 -0.000589237 8.33265e-16)
(1.03391 -0.000578154 1.27184e-15)
(1.03466 -0.000566987 7.93934e-16)
(1.03539 -0.000555779 7.77981e-16)
(1.03611 -0.000544568 6.91403e-16)
(1.03681 -0.000533384 7.05961e-16)
(1.03749 -0.000522255 2.92251e-16)
(1.03817 -0.000511211 6.46815e-16)
(1.03882 -0.000500285 3.15391e-16)
(1.03947 -0.000489513 1.62271e-16)
(1.0401 -0.000478925 2.10697e-16)
(1.04071 -0.000468544 -2.56677e-16)
(1.04132 -0.000458384 2.71297e-17)
(1.04191 -0.000448457 -2.30436e-16)
(1.04248 -0.000438786 -3.63633e-16)
(1.04305 -0.000429404 -5.79369e-16)
(1.0436 -0.000420347 -2.95008e-16)
(1.04414 -0.000411641 -8.89486e-16)
(1.04467 -0.000403296 -3.93854e-16)
(1.04519 -0.000395306 -1.09394e-15)
(1.0457 -0.000387665 1.24345e-17)
(1.0462 -0.000380385 -1.64513e-15)
(1.04669 -0.000373503 4.08505e-17)
(1.04717 -0.000367074 -2.6267e-16)
(1.04765 -0.000361148 2.89994e-17)
(1.04811 -0.000355745 -4.35827e-16)
(1.04857 -0.000350849 -2.95494e-16)
(1.04902 -0.000346416 -4.61569e-16)
(1.04947 -0.000342408 -3.96746e-16)
(1.04992 -0.000338827 -4.87587e-16)
(1.05035 -0.000335741 -4.05163e-16)
(1.05079 -0.000333269 -6.4238e-16)
(1.05122 -0.000331555 -4.21446e-16)
(1.05165 -0.000330707 -4.80154e-16)
(1.05208 -0.000330756 -2.62257e-16)
(1.05251 -0.000331636 -5.65787e-16)
(1.05294 -0.000333208 -7.33943e-16)
(1.05338 -0.000335319 -4.69288e-16)
(1.05382 -0.000337881 -6.57149e-16)
(1.05426 -0.000340945 -2.10139e-16)
(1.0547 -0.000344738 -6.8076e-16)
(1.05515 -0.000349664 -7.82568e-16)
(1.05561 -0.000356238 -1.07322e-15)
(1.05608 -0.000364996 -5.68792e-16)
(1.05656 -0.000376376 -9.99493e-16)
(1.05706 -0.000390616 -3.15089e-16)
(1.05758 -0.000407675 -1.0945e-15)
(1.05812 -0.000427204 -1.39039e-16)
(1.05869 -0.000448565 -3.02621e-17)
(1.05929 -0.000470888 -2.00066e-16)
(1.05991 -0.000493163 -7.63418e-18)
(1.06057 -0.000514343 -2.69365e-16)
(1.06125 -0.000533439 -4.2687e-16)
(1.06196 -0.000549605 -3.91111e-16)
(1.06268 -0.000562192 -1.59558e-16)
(1.06342 -0.000570778 -1.11006e-16)
(1.06417 -0.000575174 -5.04327e-16)
(1.06492 -0.000575397 -1.88363e-16)
(1.06566 -0.000571645 -4.99196e-16)
(1.0664 -0.000564251 6.64054e-18)
(1.06713 -0.000553639 -7.69844e-16)
(1.06784 -0.000540283 1.78663e-16)
(1.06854 -0.000524672 -3.84326e-16)
(1.06921 -0.000507282 6.59542e-16)
(1.06986 -0.000488556 -1.94762e-16)
(1.07048 -0.000468893 1.11508e-15)
(1.07108 -0.000448639 -7.09167e-16)
(1.07165 -0.000428089 -3.18796e-16)
(1.07219 -0.000407487 -7.40492e-16)
(1.07271 -0.000387031 -2.01879e-17)
(1.0732 -0.000366879 -2.87341e-16)
(1.07366 -0.000347155 5.89878e-17)
(1.0741 -0.000327953 5.85854e-17)
(1.07451 -0.000309345 3.10871e-16)
(1.0749 -0.000291381 4.86373e-16)
(1.07527 -0.000274098 8.46679e-16)
(1.07562 -0.000257519 8.18465e-16)
(1.07594 -0.000241659 8.41137e-16)
(1.07625 -0.000226522 8.87269e-16)
(1.07653 -0.000212109 7.54052e-16)
(1.0768 -0.000198411 1.20358e-15)
(1.07705 -0.00018542 9.11049e-16)
(1.07728 -0.000173121 1.20372e-15)
(1.0775 -0.000161497 8.59354e-16)
(1.0777 -0.00015053 1.76299e-15)
(1.07789 -0.000140198 1.23009e-15)
(1.07806 -0.000130478 2.2916e-15)
(1.07823 -0.000121348 1.40087e-15)
(1.07838 -0.000112784 2.48916e-15)
(1.07852 -0.00010476 1.25794e-15)
(1.07865 -9.72524e-05 2.81984e-15)
(1.07877 -9.0236e-05 1.50438e-15)
(1.07888 -8.36862e-05 1.95107e-15)
(1.07899 -7.75787e-05 1.80829e-15)
(1.07909 -7.18897e-05 2.36254e-15)
(1.07918 -6.65961e-05 2.27392e-15)
(1.07926 -6.16754e-05 2.77451e-15)
(1.07934 -5.71058e-05 2.43907e-15)
(1.07941 -5.28663e-05 2.90433e-15)
(1.07947 -4.89369e-05 2.55603e-15)
(1.07953 -4.52985e-05 2.89688e-15)
(1.07959 -4.19327e-05 3.28629e-15)
(1.07964 -3.88223e-05 3.42071e-15)
(1.07969 -3.59507e-05 3.81046e-15)
(1.07974 -3.33026e-05 3.77113e-15)
(1.07978 -3.08632e-05 3.81498e-15)
(1.07982 -2.86188e-05 3.73728e-15)
(1.07985 -2.65566e-05 3.99513e-15)
(1.07989 -2.46645e-05 3.73768e-15)
(1.07992 -2.29313e-05 4.54813e-15)
(1.07995 -2.13466e-05 4.13604e-15)
(1.07997 -1.99005e-05 4.67248e-15)
(1.08 -1.85842e-05 3.6937e-15)
(1.08002 -1.73892e-05 4.8619e-15)
(1.08004 -1.6308e-05 3.9415e-15)
(1.08006 -1.53334e-05 5.36054e-15)
(1.08008 -1.4459e-05 3.72431e-15)
(1.0801 -1.3679e-05 4.38377e-15)
(1.08012 -1.29879e-05 4.19475e-15)
(1.08013 -1.2381e-05 4.73976e-15)
(1.08015 -1.1854e-05 4.63373e-15)
(1.08016 -1.14029e-05 5.13021e-15)
(1.08018 -1.10243e-05 4.95321e-15)
(1.08019 -1.07154e-05 5.55863e-15)
(1.08021 -1.04734e-05 5.39483e-15)
(1.08022 -1.02962e-05 5.51145e-15)
(1.08023 -1.01821e-05 5.54987e-15)
(1.08025 -1.01296e-05 5.56879e-15)
(1.08026 -1.01376e-05 5.53351e-15)
(1.08027 -1.02055e-05 5.61917e-15)
(1.08029 -1.03329e-05 6.00525e-15)
(1.0803 -1.05198e-05 5.90313e-15)
(1.08031 -1.07665e-05 5.93246e-15)
(1.08033 -1.10738e-05 5.55191e-15)
(1.08034 -1.14425e-05 5.77182e-15)
(1.08036 -1.18741e-05 5.56236e-15)
(1.08037 -1.23702e-05 6.06884e-15)
(1.08039 -1.29329e-05 5.7936e-15)
(1.08041 -1.35647e-05 6.36233e-15)
(1.08042 -1.42682e-05 5.95857e-15)
(1.08044 -1.50467e-05 6.56517e-15)
(1.08046 -1.59037e-05 5.83631e-15)
(1.08049 -1.68431e-05 5.65331e-15)
(1.08051 -1.78693e-05 6.24493e-15)
(1.08053 -1.89871e-05 5.44857e-15)
(1.08056 -2.02019e-05 6.47312e-15)
(1.08058 -2.15193e-05 5.45282e-15)
(1.08061 -2.29457e-05 6.931e-15)
(1.08064 -2.44878e-05 5.48873e-15)
(1.08068 -2.61532e-05 7.68476e-15)
(1.08071 -2.79497e-05 5.298e-15)
(1.08075 -2.98861e-05 7.90764e-15)
(1.08079 -3.19716e-05 5.19549e-15)
(1.08083 -3.42163e-05 8.65514e-15)
(1.08088 -3.66309e-05 4.62385e-15)
(1.08093 -3.92272e-05 8.07862e-15)
(1.08098 -4.20176e-05 2.91778e-15)
(1.08104 -4.50156e-05 8.7368e-15)
(1.0811 -4.82355e-05 3.58637e-15)
(1.08116 -5.16928e-05 7.97545e-15)
(1.08123 -5.5404e-05 2.87679e-15)
(1.08131 -5.9387e-05 7.04079e-15)
(1.08139 -6.36606e-05 3.6585e-15)
(1.08147 -6.82453e-05 6.4279e-15)
(1.08156 -7.31628e-05 1.74075e-15)
(1.08166 -7.84365e-05 6.39054e-15)
(1.08177 -8.40912e-05 2.77769e-15)
(1.08188 -9.01537e-05 6.02696e-15)
(1.082 -9.66522e-05 2.2568e-15)
(1.08213 -0.000103617 5.61904e-15)
(1.08227 -0.000111082 2.79242e-15)
(1.08242 -0.00011908 4.74744e-15)
(1.08258 -0.000127649 1.98879e-15)
(1.08275 -0.000136828 4.59216e-15)
(1.08294 -0.000146659 2.8735e-15)
(1.08313 -0.000157188 3.18717e-15)
(1.08335 -0.000168462 2.80782e-15)
(1.08357 -0.000180532 2.34932e-15)
(1.08382 -0.000193452 4.48323e-15)
(1.08408 -0.00020728 4.02166e-16)
(1.08435 -0.000222078 4.02364e-15)
(1.08465 -0.00023791 -1.22502e-15)
(1.08497 -0.000254845 3.89995e-15)
(1.08532 -0.000272957 -4.15363e-16)
(1.08568 -0.000292325 3.57219e-15)
(1.08608 -0.00031303 -9.64721e-16)
(1.0865 -0.000335161 3.36349e-15)
(1.08695 -0.00035881 -1.73573e-17)
(1.08743 -0.000384074 3.07706e-15)
(1.08795 -0.000411057 -1.74622e-15)
(1.0885 -0.000439869 2.92159e-15)
(1.08909 -0.000470625 -9.88432e-16)
(1.08972 -0.000503446 2.27951e-15)
(1.0904 -0.000538459 -9.07614e-16)
(1.09112 -0.000575798 1.83875e-15)
(1.0919 -0.000615605 -1.76317e-16)
(1.09272 -0.000658025 1.68588e-15)
(1.09361 -0.000703214 -1.29445e-15)
(1.09455 -0.000751331 1.1544e-15)
(1.09556 -0.000802544 9.34929e-18)
(1.09664 -0.000857027 5.03582e-16)
(1.09779 -0.000914961 2.47211e-16)
(1.09902 -0.000976531 -4.28518e-16)
(1.10033 -0.00104193 1.53854e-15)
(1.10173 -0.00111136 -2.03418e-15)
(1.10322 -0.00118501 9.93426e-16)
(1.10481 -0.00126311 -3.38542e-15)
(1.1065 -0.00134585 9.36318e-16)
(1.10831 -0.00143345 -2.57017e-15)
(1.11023 -0.00152612 8.19584e-16)
(1.11227 -0.00162409 -2.90889e-15)
(1.11445 -0.00172755 4.30931e-16)
(1.11677 -0.00183672 -2.28519e-15)
(1.11923 -0.00195179 -1.4128e-16)
(1.12184 -0.00207298 -3.69147e-15)
(1.12462 -0.00220045 -9.04792e-17)
(1.12756 -0.00233437 -2.97476e-15)
(1.13069 -0.00247491 -5.15029e-16)
(1.134 -0.00262219 -2.73479e-15)
(1.1375 -0.00277632 -8.77506e-16)
(1.14122 -0.00293737 -2.08548e-15)
(1.14514 -0.0031054 -1.61712e-15)
(1.14929 -0.00328041 -3.08643e-15)
(1.15367 -0.00346235 -2.12691e-15)
(1.15829 -0.00365115 -2.86254e-15)
(1.16317 -0.00384667 -2.35006e-15)
(1.1683 -0.0040487 -2.56684e-15)
(1.17369 -0.00425697 -2.98499e-15)
(1.17937 -0.00447115 -2.10754e-15)
(1.18532 -0.00469082 -3.43456e-15)
(1.19156 -0.00491548 -2.2729e-15)
(1.1981 -0.00514453 -3.93731e-15)
(1.20494 -0.00537731 -2.27099e-15)
(1.21209 -0.00561304 -3.83224e-15)
(1.21954 -0.00585084 -2.43639e-15)
(1.2273 -0.00608975 -3.71095e-15)
(1.23538 -0.00632869 -2.55673e-15)
(1.24376 -0.00656651 -3.76076e-15)
(1.25246 -0.00680193 -2.73862e-15)
(1.26146 -0.00703362 -4.17036e-15)
(1.27075 -0.00726015 -2.83626e-15)
(1.28034 -0.00748 -3.79027e-15)
(1.29021 -0.00769162 -3.01984e-15)
(1.30035 -0.00789341 -3.82894e-15)
(1.31075 -0.00808372 -2.94761e-15)
(1.32139 -0.00826088 -3.42573e-15)
(1.33224 -0.00842327 -2.92089e-15)
(1.34331 -0.00856925 -3.45251e-15)
(1.35455 -0.00869723 -2.73867e-15)
(1.36594 -0.00880573 -3.31528e-15)
(1.37747 -0.00889332 -2.49632e-15)
(1.3891 -0.00895871 -3.22425e-15)
(1.40079 -0.00900073 -2.16137e-15)
(1.41253 -0.0090184 -3.22824e-15)
(1 -3.55089e-05 -7.53474e-16)
(1.00006 -0.000106303 1.01809e-15)
(1.00017 -0.000176554 6.04109e-18)
(1.00034 -0.000245972 6.85874e-17)
(1.00056 -0.000314278 1.30828e-16)
(1.00084 -0.000381178 4.99294e-17)
(1.00117 -0.000446378 5.95226e-17)
(1.00155 -0.000509594 -5.72346e-17)
(1.00199 -0.000570572 -1.22764e-16)
(1.00247 -0.000629087 -2.11231e-17)
(1.003 -0.000684945 -2.99193e-17)
(1.00357 -0.000737981 -1.502e-16)
(1.00418 -0.000788052 -1.8865e-16)
(1.00483 -0.000835042 -3.8507e-17)
(1.00552 -0.000878861 -4.09068e-16)
(1.00624 -0.000919445 3.00885e-17)
(1.00699 -0.000956755 -3.75019e-16)
(1.00777 -0.000990778 -2.10974e-16)
(1.00858 -0.00102152 -5.1315e-16)
(1.00941 -0.00104903 6.8888e-17)
(1.01026 -0.00107334 -6.13461e-16)
(1.01113 -0.00109453 2.73116e-16)
(1.01201 -0.00111268 -9.72403e-16)
(1.01291 -0.00112789 4.11521e-16)
(1.01382 -0.00114028 -1.77409e-16)
(1.01474 -0.00114996 3.89702e-16)
(1.01566 -0.00115706 -4.1277e-16)
(1.01659 -0.00116171 5.08971e-16)
(1.01752 -0.00116405 -8.17633e-16)
(1.01845 -0.00116422 -5.88392e-16)
(1.01939 -0.00116235 -1.01449e-15)
(1.02032 -0.0011586 -4.84961e-16)
(1.02124 -0.00115308 -1.22549e-15)
(1.02216 -0.00114595 -4.51014e-16)
(1.02307 -0.00113733 -1.51745e-15)
(1.02398 -0.00112735 -1.22272e-15)
(1.02488 -0.00111613 -1.62166e-15)
(1.02577 -0.00110379 -1.2742e-15)
(1.02664 -0.00109046 -1.81423e-15)
(1.02751 -0.00107623 -9.90514e-16)
(1.02837 -0.0010612 -1.96358e-15)
(1.02921 -0.00104549 -1.97333e-15)
(1.03004 -0.00102917 -1.87077e-15)
(1.03085 -0.00101234 -2.02615e-15)
(1.03166 -0.000995095 -1.8424e-15)
(1.03244 -0.0009775 -1.80816e-15)
(1.03322 -0.00095963 -1.68253e-15)
(1.03398 -0.000941553 -1.84455e-15)
(1.03472 -0.00092334 -1.66549e-15)
(1.03545 -0.000905062 -1.80689e-15)
(1.03617 -0.000886779 -1.66212e-15)
(1.03687 -0.000868543 -1.77155e-15)
(1.03756 -0.000850397 -1.88417e-15)
(1.03823 -0.000832391 -2.09905e-15)
(1.03889 -0.000814577 -2.07339e-15)
(1.03953 -0.000797015 -2.02573e-15)
(1.04016 -0.000779755 -2.0005e-15)
(1.04078 -0.000762833 -1.98776e-15)
(1.04138 -0.00074627 -2.03776e-15)
(1.04197 -0.000730089 -2.03465e-15)
(1.04255 -0.000714326 -2.05179e-15)
(1.04311 -0.000699034 -2.26131e-15)
(1.04366 -0.000684272 -2.12581e-15)
(1.0442 -0.000670083 -2.3085e-15)
(1.04473 -0.000656483 -2.05774e-15)
(1.04525 -0.000643461 -2.26594e-15)
(1.04576 -0.000631009 -2.21715e-15)
(1.04626 -0.000619145 -2.38006e-15)
(1.04675 -0.00060793 -2.23301e-15)
(1.04723 -0.000597454 -2.56421e-15)
(1.0477 -0.000587797 -1.81561e-15)
(1.04817 -0.000578994 -2.75509e-15)
(1.04862 -0.000571016 -1.4803e-15)
(1.04908 -0.000563793 -2.08934e-15)
(1.04952 -0.000557263 -1.42922e-15)
(1.04997 -0.000551429 -2.14197e-15)
(1.0504 -0.000546399 -1.0584e-15)
(1.05084 -0.00054237 -1.55528e-15)
(1.05127 -0.000539575 -1.01194e-15)
(1.0517 -0.000538189 -1.66681e-15)
(1.05213 -0.000538265 -7.42879e-16)
(1.05256 -0.000539695 -9.39212e-16)
(1.05299 -0.000542253 -7.71153e-16)
(1.05342 -0.000545689 -1.01554e-15)
(1.05386 -0.000549858 -7.58144e-16)
(1.0543 -0.000554843 -7.79732e-16)
(1.05475 -0.000561014 -7.97259e-16)
(1.0552 -0.000569026 -9.80534e-16)
(1.05565 -0.000579722 -9.41016e-16)
(1.05612 -0.000593974 -1.24012e-15)
(1.0566 -0.000612498 -9.2016e-16)
(1.0571 -0.000635682 -1.35114e-15)
(1.05762 -0.000663464 -9.01173e-16)
(1.05816 -0.000695276 -1.33358e-15)
(1.05873 -0.000730079 -1.03719e-15)
(1.05932 -0.000766455 -1.48856e-15)
(1.05995 -0.000802761 -1.04963e-15)
(1.0606 -0.000837286 -1.45909e-15)
(1.06129 -0.000868419 -8.51187e-17)
(1.06199 -0.000894779 -1.68298e-15)
(1.06271 -0.000915307 2.58963e-16)
(1.06345 -0.000929316 -8.5349e-16)
(1.0642 -0.000936491 8.07541e-16)
(1.06495 -0.000936865 -4.38125e-16)
(1.0657 -0.000930757 1.08337e-15)
(1.06644 -0.000918711 3.85716e-16)
(1.06716 -0.000901416 1.18907e-15)
(1.06787 -0.000879646 1.34384e-15)
(1.06857 -0.000854199 1.18526e-15)
(1.06924 -0.000825851 2.14731e-15)
(1.06989 -0.000795326 1.12358e-15)
(1.07051 -0.000763272 3.14912e-15)
(1.07111 -0.000730257 7.46813e-16)
(1.07167 -0.000696761 3.50852e-15)
(1.07222 -0.000663182 1.12204e-15)
(1.07273 -0.000629843 3.93707e-15)
(1.07322 -0.000597003 1.49578e-15)
(1.07369 -0.000564862 4.26332e-15)
(1.07412 -0.000533576 2.03841e-15)
(1.07454 -0.000503259 4.46587e-15)
(1.07493 -0.000473996 2.47412e-15)
(1.07529 -0.000445845 4.86984e-15)
(1.07564 -0.000418844 2.92263e-15)
(1.07596 -0.000393016 5.35725e-15)
(1.07626 -0.000368369 3.46414e-15)
(1.07655 -0.000344902 5.35796e-15)
(1.07681 -0.000322604 3.58294e-15)
(1.07706 -0.000301459 5.7407e-15)
(1.07729 -0.000281442 4.18768e-15)
(1.07751 -0.000262526 5.50172e-15)
(1.07771 -0.00024468 4.68051e-15)
(1.0779 -0.00022787 5.61269e-15)
(1.07807 -0.000212058 5.427e-15)
(1.07824 -0.000197207 5.62413e-15)
(1.07839 -0.000183277 5.94453e-15)
(1.07853 -0.000170229 5.56321e-15)
(1.07866 -0.00015802 6.90911e-15)
(1.07878 -0.000146611 5.50685e-15)
(1.07889 -0.000135962 7.16806e-15)
(1.079 -0.000126033 5.75229e-15)
(1.07909 -0.000116786 7.9879e-15)
(1.07918 -0.000108181 6.0374e-15)
(1.07926 -0.000100183 8.18242e-15)
(1.07934 -9.27568e-05 6.48347e-15)
(1.07941 -8.58673e-05 8.20123e-15)
(1.07948 -7.94822e-05 6.86149e-15)
(1.07954 -7.35701e-05 8.24702e-15)
(1.07959 -6.81015e-05 7.3445e-15)
(1.07965 -6.3048e-05 9.25405e-15)
(1.07969 -5.83828e-05 7.64493e-15)
(1.07974 -5.40808e-05 9.08897e-15)
(1.07978 -5.01182e-05 7.86428e-15)
(1.07982 -4.64725e-05 9.20762e-15)
(1.07985 -4.31229e-05 8.28246e-15)
(1.07989 -4.00498e-05 8.91714e-15)
(1.07992 -3.7235e-05 8.88952e-15)
(1.07995 -3.46612e-05 9.41461e-15)
(1.07997 -3.23127e-05 9.06613e-15)
(1.08 -3.0175e-05 9.06765e-15)
(1.08002 -2.82345e-05 9.63911e-15)
(1.08004 -2.64787e-05 8.99558e-15)
(1.08006 -2.48962e-05 1.01205e-14)
(1.08008 -2.34764e-05 8.45825e-15)
(1.0801 -2.22099e-05 1.00614e-14)
(1.08012 -2.10879e-05 8.76357e-15)
(1.08013 -2.01026e-05 1.09348e-14)
(1.08015 -1.9247e-05 8.93302e-15)
(1.08016 -1.85148e-05 1.09396e-14)
(1.08018 -1.79003e-05 9.21708e-15)
(1.08019 -1.73989e-05 1.11202e-14)
(1.08021 -1.70063e-05 9.74142e-15)
(1.08022 -1.67189e-05 1.09671e-14)
(1.08023 -1.65338e-05 9.5066e-15)
(1.08025 -1.64489e-05 1.14571e-14)
(1.08026 -1.64623e-05 9.84125e-15)
(1.08027 -1.65728e-05 1.14574e-14)
(1.08029 -1.67801e-05 1.00496e-14)
(1.0803 -1.70839e-05 1.13059e-14)
(1.08031 -1.74849e-05 1.02823e-14)
(1.08033 -1.79841e-05 1.08492e-14)
(1.08034 -1.85833e-05 1.02916e-14)
(1.08036 -1.92846e-05 1.13333e-14)
(1.08037 -2.00907e-05 1.05375e-14)
(1.08039 -2.10049e-05 1.10705e-14)
(1.08041 -2.20313e-05 1.07773e-14)
(1.08042 -2.31743e-05 1.059e-14)
(1.08044 -2.44389e-05 1.12474e-14)
(1.08046 -2.58311e-05 1.00976e-14)
(1.08048 -2.73571e-05 1.11152e-14)
(1.08051 -2.90242e-05 1.04357e-14)
(1.08053 -3.08401e-05 1.14224e-14)
(1.08056 -3.28134e-05 1.06304e-14)
(1.08058 -3.49534e-05 1.13551e-14)
(1.08061 -3.72705e-05 1.09445e-14)
(1.08064 -3.97756e-05 1.09973e-14)
(1.08067 -4.24809e-05 1.09702e-14)
(1.08071 -4.53992e-05 1.09245e-14)
(1.08075 -4.85447e-05 1.15467e-14)
(1.08079 -5.19325e-05 1.11899e-14)
(1.08083 -5.55788e-05 1.21552e-14)
(1.08088 -5.95012e-05 1.10312e-14)
(1.08092 -6.37188e-05 1.17407e-14)
(1.08098 -6.82518e-05 1.05748e-14)
(1.08103 -7.31218e-05 1.11903e-14)
(1.08109 -7.83525e-05 1.01462e-14)
(1.08116 -8.39688e-05 1.06929e-14)
(1.08123 -8.99976e-05 9.63402e-15)
(1.0813 -9.64679e-05 9.88502e-15)
(1.08138 -0.00010341 8.88733e-15)
(1.08147 -0.000110858 9.33151e-15)
(1.08156 -0.000118847 8.7421e-15)
(1.08166 -0.000127414 8.81649e-15)
(1.08176 -0.0001366 8.25684e-15)
(1.08187 -0.000146449 8.36394e-15)
(1.08199 -0.000157007 7.96797e-15)
(1.08212 -0.000168322 7.93131e-15)
(1.08226 -0.000180449 7.74406e-15)
(1.08241 -0.000193443 7.49033e-15)
(1.08257 -0.000207364 7.51313e-15)
(1.08274 -0.000222277 7.14069e-15)
(1.08292 -0.00023825 7.31089e-15)
(1.08312 -0.000255356 6.61273e-15)
(1.08333 -0.000273673 6.88443e-15)
(1.08356 -0.000293283 6.02788e-15)
(1.0838 -0.000314275 6.65474e-15)
(1.08406 -0.000336743 5.54291e-15)
(1.08434 -0.000360786 6.27886e-15)
(1.08463 -0.00038651 5.1457e-15)
(1.08495 -0.000414027 5.89336e-15)
(1.08529 -0.000443458 4.81269e-15)
(1.08566 -0.000474929 5.41333e-15)
(1.08605 -0.000508575 4.48066e-15)
(1.08647 -0.000544537 5.09511e-15)
(1.08692 -0.000582966 4.51514e-15)
(1.0874 -0.000624022 4.88502e-15)
(1.08791 -0.000667873 4.27941e-15)
(1.08846 -0.000714697 4.54627e-15)
(1.08905 -0.000764681 4.07548e-15)
(1.08968 -0.000818023 4.31695e-15)