/*--------------------------------*- C++ -*----------------------------------*\
  =========                 |
  \\      /  F ield         | OpenFOAM: The Open Source CFD Toolbox
   \\    /   O peration     | Website:  https://openfoam.org
    \\  /    A nd           | Version:  7
     \\/     M anipulation  |
\*---------------------------------------------------------------------------*/
FoamFile
{
    version     2.0;
    format      ascii;
    class       volScalarField;
    location    "49.000392";
    object      p;
}
// * * * * * * * * * * * * * * * * * * * * * * * * * * * * * * * * * * * * * //

dimensions      [0 2 -2 0 0 0 0];

internalField   nonuniform List<scalar> 
23200
(
-0.221686
-0.223464
-0.224541
-0.225383
-0.22612
-0.226773
-0.22738
-0.227968
-0.228549
-0.22912
-0.22967
-0.230177
-0.230616
-0.230952
-0.231149
-0.231166
-0.230961
-0.230517
-0.229804
-0.22873
-0.221958
-0.223705
-0.224764
-0.225594
-0.226319
-0.226962
-0.22756
-0.228141
-0.228715
-0.229281
-0.229826
-0.230331
-0.230766
-0.231101
-0.231297
-0.231312
-0.2311
-0.230644
-0.229918
-0.22872
-0.222494
-0.224182
-0.225206
-0.226009
-0.226711
-0.227334
-0.227915
-0.228481
-0.229042
-0.229596
-0.230132
-0.23063
-0.23106
-0.231392
-0.231585
-0.231595
-0.23137
-0.230886
-0.230153
-0.228677
-0.22328
-0.224882
-0.225856
-0.226619
-0.227287
-0.227879
-0.228433
-0.228975
-0.229515
-0.230052
-0.230573
-0.231058
-0.23148
-0.231806
-0.231993
-0.231999
-0.231756
-0.231219
-0.230526
-0.228558
-0.224297
-0.225789
-0.226698
-0.22741
-0.228031
-0.228582
-0.229099
-0.229607
-0.230117
-0.230628
-0.231127
-0.231594
-0.232002
-0.232317
-0.232496
-0.232495
-0.232237
-0.231598
-0.231067
-0.228289
-0.225521
-0.226884
-0.227714
-0.228363
-0.228925
-0.229423
-0.229891
-0.230355
-0.230824
-0.231299
-0.231766
-0.232207
-0.232594
-0.232894
-0.233059
-0.233047
-0.232791
-0.231953
-0.231824
-0.227753
-0.226923
-0.228143
-0.228884
-0.229458
-0.229949
-0.230382
-0.230788
-0.231193
-0.23161
-0.232035
-0.23246
-0.232864
-0.233221
-0.233497
-0.23364
-0.233607
-0.233397
-0.232178
-0.232843
-0.226844
-0.228475
-0.229543
-0.230186
-0.230674
-0.231083
-0.231435
-0.231765
-0.232097
-0.232445
-0.232807
-0.233175
-0.233529
-0.233843
-0.234085
-0.234197
-0.234107
-0.234042
-0.232197
-0.234036
-0.225807
-0.23015
-0.231062
-0.2316
-0.231992
-0.232305
-0.232562
-0.232799
-0.233041
-0.233302
-0.233584
-0.233878
-0.234166
-0.234422
-0.234616
-0.234684
-0.234475
-0.23464
-0.232259
-0.23474
-0.224942
-0.231924
-0.232681
-0.233108
-0.233394
-0.233597
-0.233743
-0.233868
-0.234
-0.234155
-0.234337
-0.234538
-0.234742
-0.234922
-0.235049
-0.235064
-0.234809
-0.234948
-0.232187
-0.235441
-0.223739
-0.233777
-0.234384
-0.234696
-0.234865
-0.234944
-0.234961
-0.234954
-0.234954
-0.234981
-0.235042
-0.23513
-0.235229
-0.235314
-0.235354
-0.235293
-0.234936
-0.235145
-0.231761
-0.236101
-0.222247
-0.235697
-0.236162
-0.236355
-0.236397
-0.236337
-0.236205
-0.236044
-0.23589
-0.235766
-0.235681
-0.235633
-0.235607
-0.235576
-0.235509
-0.235356
-0.234836
-0.235183
-0.230991
-0.236527
-0.220619
-0.237679
-0.238012
-0.238082
-0.237987
-0.23777
-0.23747
-0.237132
-0.236799
-0.236499
-0.236246
-0.23604
-0.235867
-0.235699
-0.235503
-0.235243
-0.234516
-0.234985
-0.229967
-0.236454
-0.219106
-0.239728
-0.239938
-0.239881
-0.239636
-0.239246
-0.238755
-0.238218
-0.237682
-0.237182
-0.236737
-0.236351
-0.236011
-0.235688
-0.23534
-0.234951
-0.233997
-0.234466
-0.228829
-0.235557
-0.217921
-0.241861
-0.241954
-0.241764
-0.241355
-0.240772
-0.24007
-0.239309
-0.238546
-0.237824
-0.237166
-0.23658
-0.236054
-0.235557
-0.235034
-0.234482
-0.233306
-0.233543
-0.227694
-0.233587
-0.217014
-0.244102
-0.244083
-0.24375
-0.243161
-0.242366
-0.24143
-0.240423
-0.239411
-0.238445
-0.237555
-0.236751
-0.236021
-0.23533
-0.23461
-0.233842
-0.232452
-0.232168
-0.226554
-0.230545
-0.216007
-0.246489
-0.246352
-0.245863
-0.245077
-0.24405
-0.242858
-0.241583
-0.240302
-0.239074
-0.237934
-0.236896
-0.235945
-0.235037
-0.234087
-0.233036
-0.231407
-0.230346
-0.225223
-0.226693
-0.214415
-0.249064
-0.248797
-0.24814
-0.247135
-0.245853
-0.244384
-0.242822
-0.241254
-0.239748
-0.238344
-0.237057
-0.235863
-0.234705
-0.233479
-0.232064
-0.230108
-0.228113
-0.223421
-0.22231
-0.211963
-0.251882
-0.251463
-0.250615
-0.24937
-0.247811
-0.246044
-0.244177
-0.242308
-0.240509
-0.238828
-0.237272
-0.235809
-0.234355
-0.232782
-0.230909
-0.228483
-0.225501
-0.220927
-0.217442
-0.208721
-0.254999
-0.254398
-0.253332
-0.251821
-0.249962
-0.247879
-0.245691
-0.243505
-0.241404
-0.23943
-0.237582
-0.235807
-0.233994
-0.231979
-0.229536
-0.226474
-0.222526
-0.217666
-0.212073
-0.204977
-0.258475
-0.257651
-0.256337
-0.254533
-0.252351
-0.249932
-0.247408
-0.244896
-0.242478
-0.24019
-0.238015
-0.235871
-0.233609
-0.231035
-0.227899
-0.224055
-0.219194
-0.213705
-0.206674
-0.200626
-0.26237
-0.261275
-0.259676
-0.25755
-0.255021
-0.252248
-0.249376
-0.246524
-0.243771
-0.24114
-0.238587
-0.235993
-0.233172
-0.229909
-0.225957
-0.22123
-0.215489
-0.209174
-0.20166
-0.194889
-0.266742
-0.265318
-0.263396
-0.260917
-0.258017
-0.254873
-0.251637
-0.24843
-0.245319
-0.242301
-0.239297
-0.236149
-0.23264
-0.228555
-0.223686
-0.218023
-0.211414
-0.204376
-0.19635
-0.188997
-0.271647
-0.269828
-0.267542
-0.26468
-0.261384
-0.257851
-0.254237
-0.250653
-0.247145
-0.243677
-0.240125
-0.236297
-0.231963
-0.226935
-0.221079
-0.214463
-0.20705
-0.199341
-0.190908
-0.183192
-0.277132
-0.27485
-0.272157
-0.268881
-0.265166
-0.261225
-0.257212
-0.253219
-0.24926
-0.245254
-0.241034
-0.236382
-0.231089
-0.225021
-0.218142
-0.2106
-0.202445
-0.194156
-0.185371
-0.177358
-0.283238
-0.280422
-0.277281
-0.27356
-0.269403
-0.265034
-0.260594
-0.256146
-0.251658
-0.246999
-0.241966
-0.236343
-0.229968
-0.222795
-0.214893
-0.206473
-0.197649
-0.188851
-0.179752
-0.171523
-0.289997
-0.286577
-0.282948
-0.278755
-0.274134
-0.269311
-0.264405
-0.259435
-0.254311
-0.248857
-0.242852
-0.236113
-0.228559
-0.22025
-0.211352
-0.202116
-0.192691
-0.18344
-0.174066
-0.165633
-0.297432
-0.29334
-0.289186
-0.284497
-0.279388
-0.274079
-0.268651
-0.263063
-0.257169
-0.250753
-0.243611
-0.235626
-0.226828
-0.217385
-0.207538
-0.197551
-0.187582
-0.177922
-0.168297
-0.159674
-0.305551
-0.300725
-0.296016
-0.290809
-0.285186
-0.279347
-0.273317
-0.266987
-0.260155
-0.252597
-0.244156
-0.234823
-0.22475
-0.214201
-0.203461
-0.192785
-0.182319
-0.172281
-0.16243
-0.15362
-0.314347
-0.308733
-0.303445
-0.297701
-0.291532
-0.285101
-0.278362
-0.271132
-0.263173
-0.254283
-0.244401
-0.233651
-0.222305
-0.210695
-0.199122
-0.187811
-0.176889
-0.1665
-0.156442
-0.147451
-0.323796
-0.317348
-0.311464
-0.305166
-0.298409
-0.291301
-0.283713
-0.275395
-0.2661
-0.255699
-0.244264
-0.232064
-0.219473
-0.206859
-0.194511
-0.182614
-0.171267
-0.160553
-0.150308
-0.141145
-0.333848
-0.326535
-0.320045
-0.313171
-0.305772
-0.297875
-0.289264
-0.279643
-0.268802
-0.256732
-0.24367
-0.230022
-0.216233
-0.202676
-0.189607
-0.177168
-0.165429
-0.154415
-0.144005
-0.13468
-0.344428
-0.336233
-0.329132
-0.321658
-0.31354
-0.304711
-0.294874
-0.283722
-0.271135
-0.257274
-0.24255
-0.227484
-0.212557
-0.198119
-0.184383
-0.171445
-0.159343
-0.148058
-0.137508
-0.128037
-0.35543
-0.346352
-0.338641
-0.330532
-0.321595
-0.311661
-0.300371
-0.287459
-0.272954
-0.257222
-0.240839
-0.224409
-0.208412
-0.193158
-0.178807
-0.165412
-0.15298
-0.141456
-0.130792
-0.121193
-0.366715
-0.356771
-0.348453
-0.339662
-0.329781
-0.31854
-0.305559
-0.290672
-0.274118
-0.256479
-0.238477
-0.220754
-0.203762
-0.187756
-0.172841
-0.159033
-0.146308
-0.134582
-0.123833
-0.114132
-0.37811
-0.367334
-0.358411
-0.348874
-0.337899
-0.325132
-0.310221
-0.293179
-0.274492
-0.254958
-0.235402
-0.21647
-0.198562
-0.18187
-0.166449
-0.152275
-0.139297
-0.127411
-0.11661
-0.106833
-0.389405
-0.37785
-0.368323
-0.357958
-0.345717
-0.331193
-0.314136
-0.2948
-0.273951
-0.252574
-0.231554
-0.211507
-0.192767
-0.17546
-0.159591
-0.145104
-0.131919
-0.119918
-0.1091
-0.0992804
-0.400358
-0.388093
-0.377956
-0.366665
-0.352971
-0.336464
-0.317079
-0.295369
-0.272379
-0.249245
-0.226871
-0.205813
-0.186329
-0.168482
-0.152229
-0.137486
-0.124146
-0.112081
-0.101282
-0.091459
-0.410696
-0.397804
-0.387046
-0.374715
-0.359376
-0.340683
-0.318834
-0.294726
-0.269667
-0.244896
-0.221292
-0.199335
-0.179201
-0.160893
-0.144329
-0.129392
-0.115955
-0.10388
-0.0931417
-0.0833597
-0.420122
-0.406697
-0.395299
-0.381806
-0.364634
-0.343585
-0.319198
-0.292731
-0.265718
-0.239453
-0.214757
-0.192019
-0.171337
-0.152656
-0.135855
-0.120795
-0.107324
-0.0952972
-0.0846661
-0.0749823
-0.428318
-0.414463
-0.402401
-0.387618
-0.368446
-0.344922
-0.317985
-0.289254
-0.260442
-0.232848
-0.207208
-0.183816
-0.162693
-0.143732
-0.126779
-0.11167
-0.0982325
-0.0863162
-0.0758475
-0.066332
-0.434956
-0.42078
-0.408024
-0.39183
-0.370523
-0.344461
-0.31503
-0.284183
-0.253758
-0.225016
-0.198593
-0.174681
-0.153232
-0.134092
-0.117076
-0.101997
-0.0886645
-0.0769213
-0.0666748
-0.0574032
-0.439703
-0.425318
-0.411839
-0.394127
-0.370592
-0.341996
-0.310189
-0.277419
-0.245595
-0.215901
-0.188862
-0.164573
-0.14292
-0.123708
-0.106725
-0.091761
-0.0786065
-0.0671005
-0.0571327
-0.0481618
-0.442234
-0.427753
-0.413523
-0.394211
-0.368407
-0.337347
-0.303342
-0.268883
-0.235894
-0.205456
-0.177975
-0.153458
-0.131731
-0.112561
-0.0957111
-0.0809497
-0.0680491
-0.0568505
-0.0472189
-0.0385322
-0.44224
-0.427774
-0.412771
-0.391809
-0.363755
-0.330367
-0.294394
-0.25851
-0.224606
-0.193641
-0.165903
-0.141313
-0.119646
-0.100635
-0.0840219
-0.0695542
-0.0569883
-0.0461762
-0.0369615
-0.0284585
-0.439435
-0.425091
-0.409309
-0.386686
-0.35646
-0.32094
-0.283272
-0.246253
-0.211697
-0.180429
-0.152622
-0.12812
-0.10665
-0.0879206
-0.0716517
-0.0575703
-0.0454339
-0.0350866
-0.0263652
-0.0180564
-0.433567
-0.419449
-0.402896
-0.378643
-0.346383
-0.308984
-0.269932
-0.232085
-0.197147
-0.165804
-0.138119
-0.113868
-0.0927375
-0.0744171
-0.0586106
-0.0450079
-0.033412
-0.0236193
-0.0153129
-0.00748916
-0.424423
-0.410629
-0.393335
-0.367531
-0.333432
-0.294451
-0.254352
-0.215996
-0.180951
-0.14976
-0.122388
-0.0985544
-0.0779247
-0.0601416
-0.0449275
-0.0319123
-0.02091
-0.01174
-0.00389732
0.00330358
-0.411837
-0.398459
-0.380478
-0.353245
-0.317554
-0.277326
-0.236535
-0.197994
-0.163115
-0.132303
-0.105446
-0.0821995
-0.062252
-0.0451346
-0.0305904
-0.0182708
-0.00795667
0.000538396
0.00783295
0.0143455
-0.39569
-0.382819
-0.364229
-0.335731
-0.298738
-0.257627
-0.21651
-0.178105
-0.143659
-0.113465
-0.0873494
-0.0648764
-0.0456974
-0.0293913
-0.0156371
-0.00410807
0.00542775
0.0131869
0.0198532
0.0256287
-0.375922
-0.363639
-0.344544
-0.314986
-0.277017
-0.235405
-0.19433
-0.156374
-0.122633
-0.0933355
-0.0681086
-0.046573
-0.0283203
-0.012947
-9.97645e-05
0.0105431
0.0192162
0.0261736
0.0321423
0.0371283
-0.352523
-0.340907
-0.321435
-0.291055
-0.252464
-0.210743
-0.170069
-0.132883
-0.100149
-0.0719043
-0.047778
-0.0273418
-0.0101658
0.00415321
0.0159826
0.0256448
0.033375
0.0394646
0.044671
0.0488111
-0.325542
-0.314665
-0.294969
-0.264036
-0.225199
-0.183743
-0.143826
-0.107731
-0.076235
-0.0492673
-0.0264242
-0.00724572
0.00871185
0.0218573
0.0325642
0.0411543
0.0478647
0.0530226
0.0574034
0.0606368
-0.295082
-0.285007
-0.265269
-0.234085
-0.195356
-0.154508
-0.115726
-0.0810126
-0.0509945
-0.0255117
-0.0041262
0.0136429
0.0282493
0.0401071
0.0495921
0.0570234
0.0626415
0.0668083
0.0703016
0.0725638
-0.261299
-0.252085
-0.232514
-0.201376
-0.163025
-0.123234
-0.0859182
-0.0528568
-0.0245424
-0.000738175
0.0190253
0.0352427
0.048374
0.058837
0.0670069
0.0731976
0.0776574
0.0807828
0.083332
0.0845577
-0.22438
-0.216107
-0.196918
-0.165994
-0.128441
-0.0901366
-0.0545686
-0.0234092
0.00299218
0.0249401
0.0429291
0.0574628
0.0690052
0.0779749
0.0847429
0.0896169
0.0928612
0.0949072
0.0964585
0.0965753
-0.184511
-0.177364
-0.158628
-0.128132
-0.0919785
-0.0554052
-0.021861
0.00716827
0.0314673
0.0513976
0.0674734
0.080204
0.0900547
0.0974422
0.102729
0.106219
0.108203
0.109139
0.109606
0.108474
-0.141925
-0.136176
-0.117736
-0.0883893
-0.0538133
-0.0192638
0.012005
0.038701
0.0607286
0.0784978
0.0925372
0.103359
0.111428
0.117154
0.120891
0.122942
0.123642
0.123426
0.122612
0.119914
-0.0969573
-0.0927162
-0.0749552
-0.0469187
-0.0142088
0.0180456
0.0468173
0.071002
0.0906111
0.106094
0.117991
0.126813
0.133022
0.137021
0.139152
0.139732
0.139136
0.137692
0.135266
0.130622
-0.0503172
-0.0472103
-0.0305196
-0.00402119
0.0265494
0.0562686
0.0823518
0.103874
0.12094
0.134033
0.143698
0.150446
0.154732
0.156949
0.157432
0.156523
0.154619
0.151824
0.147528
0.141238
-0.00211908
-0.000192799
0.0152443
0.039968
0.0681588
0.0951384
0.118374
0.137109
0.151532
0.162152
0.169515
0.17413
0.176444
0.176839
0.175648
0.173237
0.169974
0.165685
0.159514
0.153774
0.0472493
0.0479164
0.0619637
0.0846998
0.110305
0.134379
0.15464
0.170494
0.182199
0.190283
0.195295
0.197736
0.198044
0.196593
0.193715
0.189782
0.185088
0.179278
0.171766
0.16626
0.0973541
0.0967123
0.109246
0.129815
0.152668
0.173706
0.190903
0.203809
0.212746
0.218256
0.220886
0.221129
0.219415
0.216108
0.21154
0.206072
0.199923
0.19268
0.184113
0.178237
0.14776
0.14578
0.156693
0.174947
0.194922
0.212835
0.226909
0.236832
0.242976
0.245896
0.246134
0.244174
0.240437
0.235279
0.229027
0.222022
0.214424
0.205847
0.196335
0.189783
0.19803
0.194696
0.203901
0.219732
0.23674
0.251478
0.262406
0.269338
0.272692
0.273028
0.270884
0.266735
0.260991
0.253999
0.246081
0.237554
0.228537
0.218696
0.208259
0.200862
0.247724
0.243037
0.25047
0.263804
0.2778
0.289348
0.297141
0.301105
0.301696
0.299479
0.294983
0.288676
0.280957
0.272164
0.262609
0.252587
0.242193
0.231148
0.219794
0.21147
0.29641
0.290382
0.296005
0.306805
0.317783
0.326166
0.330866
0.331913
0.329794
0.325075
0.318279
0.309863
0.300217
0.289668
0.278519
0.267042
0.25532
0.243123
0.230862
0.22157
0.343662
0.33632
0.340121
0.348386
0.356378
0.361656
0.363338
0.361547
0.356795
0.349648
0.340622
0.330165
0.318654
0.306409
0.293721
0.280843
0.267848
0.25455
0.241405
0.231125
0.389066
0.380449
0.382443
0.38821
0.393286
0.395553
0.394322
0.389798
0.382514
0.373035
0.361869
0.349454
0.336157
0.322289
0.308128
0.293912
0.279705
0.265366
0.251365
0.240096
0.432225
0.422385
0.422614
0.425954
0.428219
0.427603
0.423593
0.416467
0.406774
0.395079
0.381881
0.367608
0.352618
0.337213
0.321658
0.306175
0.290827
0.275509
0.260692
0.248448
0.472762
0.461764
0.460295
0.461311
0.460907
0.457565
0.450937
0.441363
0.429408
0.415632
0.400527
0.384511
0.367935
0.351089
0.33423
0.317563
0.301151
0.284925
0.269335
0.256145
0.510323
0.498244
0.495169
0.493998
0.491095
0.485215
0.476155
0.46431
0.450258
0.434554
0.417683
0.400056
0.382012
0.363835
0.34577
0.32801
0.31062
0.293561
0.277252
0.263155
0.544581
0.53151
0.526944
0.523749
0.518549
0.510343
0.499061
0.485144
0.469178
0.451717
0.433236
0.41414
0.39476
0.375373
0.35621
0.337456
0.319179
0.301369
0.284399
0.269451
0.575237
0.561273
0.555352
0.550327
0.543055
0.532762
0.519487
0.503714
0.486036
0.467002
0.447082
0.426673
0.406099
0.38563
0.365488
0.345847
0.32678
0.308304
0.290739
0.275007
0.602026
0.587276
0.580157
0.573516
0.564425
0.552301
0.537283
0.519888
0.500713
0.480305
0.459128
0.437572
0.415957
0.394544
0.373547
0.353132
0.33338
0.314327
0.29624
0.279802
0.624714
0.609296
0.601151
0.593131
0.582492
0.568814
0.552319
0.533548
0.513106
0.491534
0.469293
0.446767
0.42427
0.402059
0.38034
0.35927
0.33894
0.319402
0.30087
0.28382
0.643104
0.627143
0.618159
0.609015
0.597116
0.582177
0.564482
0.544597
0.523127
0.500612
0.477509
0.454197
0.430986
0.408128
0.385824
0.364225
0.343427
0.3235
0.304605
0.287047
0.657038
0.640664
0.631041
0.621041
0.608185
0.592288
0.573684
0.552954
0.530706
0.507476
0.48372
0.459812
0.436061
0.412713
0.389966
0.367967
0.346816
0.326595
0.307425
0.289474
0.666395
0.649743
0.639689
0.629112
0.615612
0.599071
0.579857
0.558559
0.535788
0.512079
0.487884
0.463577
0.439463
0.415786
0.392742
0.370474
0.349087
0.328669
0.309314
0.291095
0.671094
0.654302
0.64403
0.633163
0.619339
0.602475
0.582954
0.561372
0.538338
0.514388
0.489973
0.465465
0.441169
0.417328
0.394134
0.371731
0.350226
0.329709
0.310261
0.291907
0.671094
0.654302
0.64403
0.633163
0.619339
0.602475
0.582954
0.561372
0.538338
0.514388
0.489973
0.465465
0.441169
0.417328
0.394134
0.371731
0.350226
0.329709
0.310261
0.291907
0.666395
0.649743
0.639688
0.629111
0.615611
0.599071
0.579856
0.558559
0.535788
0.512078
0.487883
0.463577
0.439462
0.415786
0.392742
0.370474
0.349087
0.328669
0.309314
0.291095
0.657038
0.640664
0.631041
0.62104
0.608184
0.592287
0.573684
0.552954
0.530705
0.507476
0.483719
0.459812
0.436061
0.412713
0.389966
0.367967
0.346816
0.326595
0.307425
0.289474
0.643104
0.627142
0.618159
0.609015
0.597116
0.582176
0.564481
0.544596
0.523126
0.500611
0.477508
0.454196
0.430986
0.408127
0.385823
0.364225
0.343427
0.323499
0.304605
0.287047
0.624713
0.609295
0.60115
0.59313
0.582491
0.568813
0.552318
0.533547
0.513105
0.491533
0.469292
0.446766
0.42427
0.402058
0.380339
0.35927
0.338939
0.319401
0.300869
0.283819
0.602025
0.587275
0.580156
0.573515
0.564424
0.5523
0.537282
0.519887
0.500712
0.480304
0.459127
0.437571
0.415956
0.394543
0.373547
0.353131
0.333379
0.314326
0.296239
0.279802
0.575236
0.561271
0.555351
0.550325
0.543054
0.53276
0.519486
0.503713
0.486035
0.467001
0.447081
0.426672
0.406098
0.385629
0.365487
0.345846
0.326779
0.308303
0.290739
0.275006
0.544579
0.531508
0.526942
0.523748
0.518547
0.510342
0.49906
0.485143
0.469177
0.451715
0.433235
0.414139
0.394759
0.375372
0.356209
0.337455
0.319178
0.301368
0.284398
0.26945
0.510321
0.498243
0.495168
0.493996
0.491093
0.485213
0.476153
0.464309
0.450257
0.434553
0.417682
0.400054
0.38201
0.363834
0.345769
0.328009
0.310619
0.29356
0.277251
0.263154
0.47276
0.461762
0.460293
0.461309
0.460905
0.457563
0.450936
0.441362
0.429407
0.415631
0.400525
0.38451
0.367933
0.351088
0.334228
0.317561
0.30115
0.284924
0.269334
0.256144
0.432223
0.422383
0.422612
0.425951
0.428217
0.427601
0.423591
0.416465
0.406773
0.395077
0.381879
0.367606
0.352616
0.337211
0.321656
0.306173
0.290826
0.275508
0.26069
0.248447
0.389063
0.380446
0.382441
0.388208
0.393283
0.395551
0.39432
0.389796
0.382512
0.373033
0.361867
0.349452
0.336155
0.322287
0.308127
0.29391
0.279703
0.265364
0.251364
0.240095
0.343659
0.336317
0.340118
0.348384
0.356375
0.361653
0.363336
0.361545
0.356793
0.349646
0.34062
0.330163
0.318652
0.306408
0.293719
0.280841
0.267846
0.254548
0.241403
0.231123
0.296407
0.290379
0.296002
0.306802
0.31778
0.326163
0.330863
0.331911
0.329792
0.325072
0.318277
0.309861
0.300214
0.289666
0.278517
0.26704
0.255318
0.243121
0.230861
0.221568
0.247721
0.243034
0.250467
0.263801
0.277797
0.289345
0.297138
0.301103
0.301694
0.299476
0.294981
0.288674
0.280955
0.272162
0.262607
0.252584
0.242191
0.231146
0.219792
0.211468
0.198026
0.194692
0.203897
0.219728
0.236737
0.251474
0.262403
0.269335
0.272689
0.273025
0.270881
0.266733
0.260989
0.253997
0.246079
0.237551
0.228535
0.218694
0.208257
0.200861
0.147756
0.145776
0.156689
0.174944
0.194918
0.212832
0.226906
0.236829
0.242973
0.245893
0.246131
0.244172
0.240435
0.235276
0.229024
0.22202
0.214422
0.205845
0.196333
0.189781
0.0973496
0.0967078
0.109242
0.12981
0.152664
0.173702
0.190899
0.203806
0.212743
0.218253
0.220883
0.221126
0.219412
0.216105
0.211537
0.20607
0.199921
0.192678
0.18411
0.178235
0.0472444
0.0479115
0.0619589
0.0846952
0.110301
0.134374
0.154636
0.17049
0.182195
0.19028
0.195292
0.197733
0.198041
0.19659
0.193712
0.189779
0.185086
0.179275
0.171764
0.166258
-0.00212441
-0.000198122
0.0152391
0.0399631
0.0681541
0.0951339
0.118369
0.137105
0.151528
0.162148
0.169512
0.174127
0.176441
0.176836
0.175645
0.173234
0.169971
0.165683
0.159511
0.153772
-0.050323
-0.0472161
-0.0305252
-0.00402655
0.0265443
0.0562638
0.0823472
0.103869
0.120936
0.134029
0.143694
0.150442
0.154728
0.156946
0.157429
0.15652
0.154616
0.151821
0.147525
0.141236
-0.0969635
-0.0927224
-0.0749612
-0.0469245
-0.0142143
0.0180404
0.0468124
0.0709973
0.0906066
0.10609
0.117987
0.126809
0.133019
0.137018
0.139148
0.139728
0.139133
0.137689
0.135263
0.13062
-0.141931
-0.136182
-0.117742
-0.0883955
-0.0538192
-0.0192694
0.0119997
0.038696
0.0607238
0.0784932
0.0925329
0.103355
0.111424
0.117151
0.120887
0.122939
0.123638
0.123423
0.122609
0.119911
-0.184518
-0.177371
-0.158635
-0.128139
-0.0919848
-0.0554112
-0.0218667
0.00716292
0.0314622
0.0513927
0.0674688
0.0801996
0.0900505
0.0974382
0.102725
0.106215
0.1082
0.109136
0.109603
0.108471
-0.224388
-0.216115
-0.196925
-0.166001
-0.128448
-0.090143
-0.0545746
-0.0234149
0.00298678
0.024935
0.0429242
0.0574582
0.0690008
0.0779708
0.084739
0.0896132
0.0928576
0.0949039
0.0964554
0.0965724
-0.261307
-0.252093
-0.232521
-0.201383
-0.163032
-0.12324
-0.0859245
-0.0528628
-0.0245481
-0.000743588
0.0190202
0.0352378
0.0483694
0.0588326
0.0670028
0.0731937
0.0776537
0.0807793
0.0833288
0.0845548
-0.295091
-0.285016
-0.265277
-0.234093
-0.195364
-0.154516
-0.115733
-0.081019
-0.0510005
-0.0255174
-0.0041316
0.0136378
0.0282445
0.0401025
0.0495877
0.0570193
0.0626377
0.0668048
0.0702983
0.0725608
-0.325551
-0.314674
-0.294978
-0.264045
-0.225207
-0.183751
-0.143833
-0.107737
-0.0762413
-0.0492733
-0.0264298
-0.00725108
0.00870679
0.0218525
0.0325597
0.0411501
0.0478607
0.0530189
0.0574
0.0606337
-0.352532
-0.340917
-0.321445
-0.291064
-0.252473
-0.210751
-0.170077
-0.13289
-0.100156
-0.0719106
-0.047784
-0.0273475
-0.0101711
0.00414823
0.0159779
0.0256404
0.0333709
0.0394608
0.0446675
0.0488079
-0.375932
-0.363649
-0.344554
-0.314996
-0.277026
-0.235414
-0.194338
-0.156382
-0.12264
-0.0933421
-0.0681148
-0.0465789
-0.0283258
-0.0129521
-0.000104628
0.0105385
0.019212
0.0261697
0.0321386
0.037125
-0.395701
-0.382829
-0.364239
-0.335741
-0.298748
-0.257636
-0.216519
-0.178112
-0.143666
-0.113472
-0.0873559
-0.0648826
-0.0457032
-0.0293967
-0.0156421
-0.00411278
0.00542337
0.0131829
0.0198495
0.0256253
-0.411848
-0.39847
-0.380489
-0.353255
-0.317564
-0.277335
-0.236544
-0.198002
-0.163123
-0.13231
-0.105453
-0.0822059
-0.062258
-0.0451402
-0.0305957
-0.0182757
-0.00796118
0.000534234
0.00782913
0.014342
-0.424435
-0.41064
-0.393346
-0.367542
-0.333443
-0.294461
-0.254361
-0.216004
-0.180959
-0.149768
-0.122395
-0.098561
-0.0779309
-0.0601475
-0.0449329
-0.0319174
-0.0209146
-0.0117442
-0.00390122
0.00330003
-0.433579
-0.419461
-0.402908
-0.378655
-0.346394
-0.308994
-0.269942
-0.232094
-0.197156
-0.165812
-0.138126
-0.113875
-0.092744
-0.0744232
-0.0586162
-0.0450131
-0.0334167
-0.0236236
-0.0153169
-0.00749277
-0.439448
-0.425104
-0.409321
-0.386698
-0.356471
-0.320951
-0.283282
-0.246263
-0.211705
-0.180437
-0.15263
-0.128127
-0.106656
-0.0879268
-0.0716575
-0.0575756
-0.0454388
-0.0350911
-0.0263692
-0.0180601
-0.442253
-0.427787
-0.412784
-0.391822
-0.363767
-0.330378
-0.294404
-0.25852
-0.224615
-0.193649
-0.165911
-0.141321
-0.119652
-0.100641
-0.0840279
-0.0695597
-0.0569934
-0.0461808
-0.0369656
-0.0284622
-0.442247
-0.427767
-0.413536
-0.394223
-0.36842
-0.337359
-0.303353
-0.268893
-0.235903
-0.205465
-0.177984
-0.153466
-0.131738
-0.112567
-0.0957173
-0.0809554
-0.0680543
-0.0568552
-0.0472231
-0.0385359
-0.439716
-0.425332
-0.411852
-0.39414
-0.370605
-0.342008
-0.3102
-0.27743
-0.245605
-0.215911
-0.18887
-0.164581
-0.142927
-0.123715
-0.106732
-0.0917668
-0.0786118
-0.0671053
-0.057137
-0.0481656
-0.43497
-0.420794
-0.408038
-0.391843
-0.370536
-0.344473
-0.315041
-0.284193
-0.253768
-0.225025
-0.198601
-0.174689
-0.15324
-0.134099
-0.117083
-0.102003
-0.0886699
-0.0769262
-0.0666791
-0.0574071
-0.428333
-0.414477
-0.402415
-0.387632
-0.368459
-0.344934
-0.317997
-0.289265
-0.260453
-0.232857
-0.207218
-0.183825
-0.162701
-0.14374
-0.126786
-0.111676
-0.098238
-0.0863212
-0.0758519
-0.0663358
-0.420137
-0.406711
-0.395313
-0.38182
-0.364647
-0.343598
-0.31921
-0.292742
-0.265729
-0.239463
-0.214767
-0.192028
-0.171345
-0.152663
-0.135862
-0.120801
-0.107329
-0.0953023
-0.0846706
-0.0749861
-0.410711
-0.397818
-0.38706
-0.374729
-0.35939
-0.340696
-0.318846
-0.294738
-0.269678
-0.244906
-0.221302
-0.199344
-0.179209
-0.160901
-0.144336
-0.129399
-0.115961
-0.103885
-0.0931463
-0.0833635
-0.400372
-0.388107
-0.37797
-0.366679
-0.352985
-0.336478
-0.317092
-0.295381
-0.27239
-0.249256
-0.226881
-0.205823
-0.186338
-0.16849
-0.152237
-0.137493
-0.124152
-0.112087
-0.101287
-0.0914628
-0.389419
-0.377864
-0.368337
-0.357972
-0.345731
-0.331206
-0.314149
-0.294813
-0.273963
-0.252585
-0.231565
-0.211517
-0.192776
-0.175468
-0.159598
-0.145111
-0.131925
-0.119924
-0.109104
-0.0992842
-0.378124
-0.367348
-0.358426
-0.348888
-0.337913
-0.325145
-0.310235
-0.293191
-0.274504
-0.25497
-0.235413
-0.21648
-0.198571
-0.181879
-0.166457
-0.152283
-0.139303
-0.127417
-0.116615
-0.106837
-0.36673
-0.356785
-0.348467
-0.339676
-0.329795
-0.318554
-0.305572
-0.290685
-0.27413
-0.256491
-0.238488
-0.220764
-0.203771
-0.187764
-0.172849
-0.159041
-0.146315
-0.134588
-0.123838
-0.114136
-0.355445
-0.346366
-0.338655
-0.330547
-0.321609
-0.311675
-0.300385
-0.287472
-0.272967
-0.257234
-0.24085
-0.22442
-0.208422
-0.193168
-0.178815
-0.165419
-0.152987
-0.141462
-0.130797
-0.121197
-0.344443
-0.336247
-0.329146
-0.321672
-0.313554
-0.304725
-0.294888
-0.283735
-0.271148
-0.257286
-0.242561
-0.227495
-0.212567
-0.198129
-0.184392
-0.171453
-0.15935
-0.148064
-0.137513
-0.12804
-0.333863
-0.326549
-0.320059
-0.313185
-0.305786
-0.297889
-0.289278
-0.279657
-0.268815
-0.256745
-0.243682
-0.230033
-0.216244
-0.202686
-0.189616
-0.177177
-0.165436
-0.154421
-0.14401
-0.134684
-0.323811
-0.317362
-0.311478
-0.30518
-0.298423
-0.291315
-0.283727
-0.275408
-0.266113
-0.255712
-0.244277
-0.232076
-0.219485
-0.20687
-0.194521
-0.182622
-0.171275
-0.16056
-0.150314
-0.141148
-0.314362
-0.308747
-0.303459
-0.297715
-0.291546
-0.285115
-0.278376
-0.271146
-0.263186
-0.254296
-0.244414
-0.233663
-0.222317
-0.210706
-0.199133
-0.18782
-0.176896
-0.166507
-0.156447
-0.147454
-0.305565
-0.300739
-0.29603
-0.290823
-0.2852
-0.27936
-0.273331
-0.267001
-0.260169
-0.252611
-0.244169
-0.234836
-0.224763
-0.214212
-0.203472
-0.192794
-0.182328
-0.172288
-0.162436
-0.153624
-0.297446
-0.293354
-0.2892
-0.284511
-0.279401
-0.274093
-0.268665
-0.263077
-0.257182
-0.250767
-0.243625
-0.235639
-0.226841
-0.217397
-0.207549
-0.197561
-0.187591
-0.177929
-0.168303
-0.159677
-0.290011
-0.286591
-0.282962
-0.278769
-0.274147
-0.269324
-0.264419
-0.259448
-0.254325
-0.248871
-0.242866
-0.236127
-0.228572
-0.220262
-0.211364
-0.202127
-0.1927
-0.183448
-0.174072
-0.165637
-0.283252
-0.280436
-0.277295
-0.273574
-0.269417
-0.265047
-0.260608
-0.25616
-0.251672
-0.247013
-0.241981
-0.236358
-0.229982
-0.222808
-0.214906
-0.206484
-0.197659
-0.18886
-0.179758
-0.171527
-0.277146
-0.274864
-0.272171
-0.268894
-0.265179
-0.261238
-0.257225
-0.253233
-0.249274
-0.245268
-0.241049
-0.236397
-0.231104
-0.225035
-0.218156
-0.210612
-0.202456
-0.194165
-0.185377
-0.177362
-0.271661
-0.269842
-0.267555
-0.264693
-0.261397
-0.257864
-0.25425
-0.250667
-0.247159
-0.243692
-0.240141
-0.236312
-0.231979
-0.226951
-0.221094
-0.214477
-0.207062
-0.199351
-0.190915
-0.183196
-0.266756
-0.265331
-0.263409
-0.260931
-0.25803
-0.254886
-0.251651
-0.248444
-0.245333
-0.242316
-0.239312
-0.236165
-0.232657
-0.228572
-0.223702
-0.218037
-0.211427
-0.204387
-0.196357
-0.189001
-0.262384
-0.261288
-0.25969
-0.257563
-0.255034
-0.252261
-0.249389
-0.246538
-0.243785
-0.241155
-0.238603
-0.236009
-0.233189
-0.229926
-0.225974
-0.221246
-0.215503
-0.209185
-0.201669
-0.194894
-0.258488
-0.257665
-0.25635
-0.254546
-0.252364
-0.249945
-0.247422
-0.24491
-0.242492
-0.240205
-0.238031
-0.235888
-0.233627
-0.231053
-0.227916
-0.224072
-0.219209
-0.213717
-0.206683
-0.20063
-0.255013
-0.254411
-0.253346
-0.251834
-0.249976
-0.247892
-0.245705
-0.24352
-0.241419
-0.239445
-0.237598
-0.235825
-0.234012
-0.231997
-0.229554
-0.226492
-0.222542
-0.21768
-0.212084
-0.204983
-0.251895
-0.251477
-0.250628
-0.249383
-0.247824
-0.246057
-0.244191
-0.242322
-0.240524
-0.238844
-0.237289
-0.235826
-0.234374
-0.232802
-0.230928
-0.228502
-0.225519
-0.220942
-0.217454
-0.208727
-0.249077
-0.24881
-0.248152
-0.247148
-0.245866
-0.244397
-0.242835
-0.241268
-0.239763
-0.23836
-0.237073
-0.235881
-0.234724
-0.233499
-0.232084
-0.230128
-0.228133
-0.223438
-0.222323
-0.211971
-0.246501
-0.246365
-0.245876
-0.24509
-0.244063
-0.24287
-0.241596
-0.240316
-0.239088
-0.23795
-0.236913
-0.235963
-0.235056
-0.234107
-0.233057
-0.231428
-0.230366
-0.225241
-0.226708
-0.214425
-0.244115
-0.244095
-0.243762
-0.243173
-0.242378
-0.241442
-0.240436
-0.239425
-0.238459
-0.23757
-0.236767
-0.236039
-0.235349
-0.23463
-0.233863
-0.232473
-0.232189
-0.226574
-0.230561
-0.216018
-0.241873
-0.241966
-0.241776
-0.241367
-0.240784
-0.240082
-0.239322
-0.23856
-0.237838
-0.237181
-0.236597
-0.236072
-0.235576
-0.235055
-0.234504
-0.233328
-0.233565
-0.227715
-0.233604
-0.217026
-0.23974
-0.239949
-0.239892
-0.239648
-0.239257
-0.238767
-0.23823
-0.237694
-0.237195
-0.236752
-0.236367
-0.236029
-0.235707
-0.235359
-0.234972
-0.234019
-0.234487
-0.22885
-0.235575
-0.217934
-0.23769
-0.238022
-0.238092
-0.237998
-0.237781
-0.237481
-0.237144
-0.236811
-0.236512
-0.23626
-0.236055
-0.235884
-0.235717
-0.235522
-0.235264
-0.234537
-0.235006
-0.229988
-0.236472
-0.219119
-0.235707
-0.236172
-0.236365
-0.236408
-0.236347
-0.236216
-0.236056
-0.235902
-0.235778
-0.235694
-0.235648
-0.235623
-0.235593
-0.235527
-0.235376
-0.234856
-0.235204
-0.231011
-0.236545
-0.220632
-0.233787
-0.234394
-0.234705
-0.234875
-0.234954
-0.234971
-0.234964
-0.234965
-0.234993
-0.235054
-0.235143
-0.235244
-0.23533
-0.235372
-0.235312
-0.234956
-0.235165
-0.23178
-0.236118
-0.222259
-0.231933
-0.23269
-0.233116
-0.233402
-0.233606
-0.233752
-0.233877
-0.23401
-0.234166
-0.234349
-0.234551
-0.234756
-0.234938
-0.235066
-0.235082
-0.234828
-0.234966
-0.232205
-0.235458