/*--------------------------------*- C++ -*----------------------------------*\
  =========                 |
  \\      /  F ield         | OpenFOAM: The Open Source CFD Toolbox
   \\    /   O peration     | Website:  https://openfoam.org
    \\  /    A nd           | Version:  7
     \\/     M anipulation  |
\*---------------------------------------------------------------------------*/
FoamFile
{
    version     2.0;
    format      ascii;
    class       volScalarField;
    location    "12";
    object      p;
}
// * * * * * * * * * * * * * * * * * * * * * * * * * * * * * * * * * * * * * //

dimensions      [0 2 -2 0 0 0 0];

internalField   nonuniform List<scalar> 
433
(
-0.462546
-0.418017
-0.377201
-0.339676
-0.305268
-0.273352
-0.244014
-0.216051
-0.190372
-0.164279
-0.14105
-0.114093
-0.0931815
-0.0614025
-0.0453018
-0.00224352
-0.784524
-0.714544
-0.650051
-0.59065
-0.535992
-0.485742
-0.439606
-0.397253
-0.35843
-0.322717
-0.289974
-0.259573
-0.231664
-0.205005
-0.180609
-0.155676
-0.133741
-0.107867
-0.0884138
-0.057596
-0.0433609
-0.00089954
-0.742776
-0.67645
-0.615335
-0.559056
-0.507281
-0.459692
-0.416008
-0.375912
-0.339164
-0.305352
-0.274357
-0.245562
-0.219148
-0.193868
-0.170794
-0.147078
-0.126428
-0.101682
-0.0836272
-0.0538382
-0.0413562
0.000399976
-0.701233
-0.638548
-0.580797
-0.527625
-0.478718
-0.433773
-0.392525
-0.354666
-0.319977
-0.288045
-0.25878
-0.231576
-0.206636
-0.182712
-0.160954
-0.138451
-0.119084
-0.0954689
-0.0788128
-0.0500669
-0.0393288
0.00168361
-0.659455
-0.600462
-0.546116
-0.496085
-0.450074
-0.407795
-0.368996
-0.333386
-0.300759
-0.270706
-0.243168
-0.217542
-0.194076
-0.171498
-0.151059
-0.129769
-0.111691
-0.0892115
-0.073964
-0.0462716
-0.0372825
0.00295615
-0.617299
-0.562054
-0.511164
-0.464318
-0.42124
-0.381657
-0.345335
-0.311993
-0.281445
-0.253283
-0.227484
-0.203438
-0.181446
-0.160222
-0.141106
-0.121034
-0.104249
-0.0829161
-0.0690817
-0.0424583
-0.0352135
0.0042143
-0.574791
-0.523346
-0.475959
-0.432338
-0.392227
-0.35537
-0.321548
-0.290494
-0.262041
-0.235779
-0.211733
-0.189273
-0.168757
-0.148893
-0.131103
-0.112254
-0.0967679
-0.0765891
-0.0641691
-0.0386315
-0.0331212
0.00545541
-0.531963
-0.484371
-0.440529
-0.400172
-0.36306
-0.328956
-0.297655
-0.268906
-0.242562
-0.21821
-0.195901
-0.17505
-0.156017
-0.137519
-0.121056
-0.103436
-0.0892495
-0.0702337
-0.0592287
-0.0347934
-0.0310062
0.00667786
-0.488845
-0.445153
-0.404899
-0.367841
-0.333758
-0.302431
-0.273671
-0.247241
-0.22302
-0.200586
-0.180032
-0.16078
-0.143233
-0.126103
-0.11097
-0.0945827
-0.0816979
-0.0638536
-0.0542626
-0.0309462
-0.028869
0.00788007
-0.445464
-0.405718
-0.369091
-0.335365
-0.304339
-0.275811
-0.249609
-0.225513
-0.203426
-0.182918
-0.164122
-0.146471
-0.130411
-0.114653
-0.10085
-0.0857004
-0.0741176
-0.0574528
-0.0492736
-0.0270926
-0.0267106
0.00906031
-0.440621
-0.401852
-0.366092
-0.333128
-0.302764
-0.274819
-0.24911
-0.225482
-0.20373
-0.183789
-0.165202
-0.148172
-0.132129
-0.117559
-0.103174
-0.0907026
-0.0767943
-0.0665134
-0.0510352
-0.0442649
-0.0232352
-0.0245318
0.0102168
-0.392427
-0.358039
-0.326303
-0.297034
-0.270059
-0.245218
-0.222346
-0.201305
-0.181906
-0.164124
-0.147447
-0.132195
-0.117762
-0.104683
-0.0916745
-0.0805338
-0.06787
-0.0588902
-0.0446054
-0.0392394
-0.0193772
-0.0223339
0.0113479
-0.344026
-0.314058
-0.28638
-0.260834
-0.237271
-0.215553
-0.195532
-0.177089
-0.160052
-0.144456
-0.129683
-0.116199
-0.103378
-0.09179
-0.0801593
-0.0703496
-0.0589333
-0.0512529
-0.038168
-0.0341993
-0.0155216
-0.0201181
0.0124517
-0.295457
-0.269942
-0.246351
-0.224553
-0.204422
-0.185843
-0.168686
-0.152848
-0.138176
-0.124795
-0.111903
-0.100191
-0.0889835
-0.078887
-0.0686352
-0.0601559
-0.0499898
-0.0436064
-0.0317276
-0.0291502
-0.0116714
-0.0178859
0.0135266
-0.246759
-0.225726
-0.206246
-0.188216
-0.171533
-0.156105
-0.141821
-0.128596
-0.116286
-0.10468
-0.0941126
-0.0841799
-0.0745858
-0.0659804
-0.0571087
-0.0499587
-0.0410453
-0.0359557
-0.0252889
-0.0240945
-0.00782986
-0.0156389
0.0145709
-0.197972
-0.181444
-0.166095
-0.151848
-0.138626
-0.126358
-0.114954
-0.104346
-0.0944068
-0.085017
-0.0763319
-0.0681723
-0.0601918
-0.0530768
-0.045586
-0.0397641
-0.0321054
-0.028306
-0.0188566
-0.0190355
-0.00400026
-0.0133787
0.0155831
-0.149138
-0.137131
-0.125927
-0.115474
-0.105722
-0.0966203
-0.0880985
-0.0801094
-0.0725442
-0.0653444
-0.0585659
-0.0521763
-0.0458083
-0.0401828
-0.0340733
-0.0295779
-0.0231758
-0.0206622
-0.0124353
-0.0139771
-0.000185731
-0.0111072
0.0165617
-0.100297
-0.0928242
-0.0857727
-0.0791213
-0.0728422
-0.0669088
-0.0612703
-0.0558998
-0.0507018
-0.0456735
-0.0408211
-0.0361988
-0.0314421
-0.0273045
-0.0225767
-0.0194059
-0.0142621
-0.0130293
-0.00602964
-0.00892288
0.00361038
-0.00882626
0.0175053
-0.0514918
-0.0485576
-0.0456625
-0.0428135
-0.0400074
-0.0372411
-0.0344836
-0.0317291
-0.0289014
-0.0260305
-0.0231052
-0.0202467
-0.0170997
-0.0144483
-0.0111023
-0.00925392
-0.00536987
-0.00541219
0.000355772
-0.00387641
0.00738496
-0.00653781
0.0184126
-0.00276303
-0.00436701
-0.0056261
-0.0065761
-0.00723847
-0.00763459
-0.00775268
-0.00760893
-0.00714586
-0.0064249
-0.00542557
-0.00432707
)
;

boundaryField
{
    inlet
    {
        type            zeroGradient;
    }
    outlet
    {
        type            fixedValue;
        value           uniform 0;
    }
    cylinder
    {
        type            zeroGradient;
    }
    top
    {
        type            symmetryPlane;
    }
    bottom
    {
        type            symmetryPlane;
    }
    defaultFaces
    {
        type            empty;
    }
    procBoundary17to10
    {
        type            processor;
        value           nonuniform List<scalar> 5(-0.860433 -0.814729 -0.769242 -0.723463 -0.677243);
    }
    procBoundary17to11
    {
        type            processor;
        value           nonuniform List<scalar> 
23
(
-0.491848
-0.444689
-0.401482
-0.361808
-0.325434
-0.291751
-0.260718
-0.231222
-0.20392
-0.176384
-0.151355
-0.122979
-0.0998811
-0.0668515
-0.0479126
-0.00416798
-0.825195
-0.751631
-0.683828
-0.621373
-0.563899
-0.51106
-0.51106
)
;
    }
    procBoundary17to16
    {
        type            processor;
        value           nonuniform List<scalar> 
15
(
-0.630608
-0.583597
-0.536241
-0.48857
-0.48857
-0.482637
-0.429675
-0.376463
-0.323043
-0.269461
-0.215765
-0.162001
-0.108217
-0.0544633
-0.000787076
)
;
    }
    procBoundary17to23
    {
        type            processor;
        value           nonuniform List<scalar> 
24
(
0.0458495
0.0397131
0.0343077
0.0295668
0.0254439
0.0218944
0.0189088
0.0164498
0.0145556
0.013135
0.0122105
0.0115536
-0.00278738
-0.00161991
0.000345925
0.000870333
0.00349623
0.00218114
0.00671267
0.0011575
0.0111336
-0.00424498
0.0192837
-0.00278738
)
;
    }
}


// ************************************************************************* //
