/*--------------------------------*- C++ -*----------------------------------*\
  =========                 |
  \\      /  F ield         | OpenFOAM: The Open Source CFD Toolbox
   \\    /   O peration     | Website:  https://openfoam.org
    \\  /    A nd           | Version:  7
     \\/     M anipulation  |
\*---------------------------------------------------------------------------*/
FoamFile
{
    version     2.0;
    format      ascii;
    class       surfaceScalarField;
    location    "16";
    object      phi;
}
// * * * * * * * * * * * * * * * * * * * * * * * * * * * * * * * * * * * * * //

dimensions      [0 3 -1 0 0 0 0];

internalField   nonuniform List<scalar> 
10970
(
-1.85536e-05
1.85535e-05
2.09072e-11
-5.08578e-05
3.23042e-05
5.09898e-11
-8.61548e-05
3.52969e-05
7.62743e-11
-0.000115406
2.92506e-05
9.90388e-11
-0.000131643
1.6237e-05
1.20699e-10
-0.000128358
-3.28444e-06
1.39964e-10
-9.94592e-05
-2.88993e-05
1.53759e-10
-3.89602e-05
-6.04991e-05
1.58211e-10
5.45021e-05
-9.34625e-05
1.50686e-10
-0.000131441
1.25412e-10
0.000185943
-1.81725e-05
3.6726e-05
-4.95293e-05
6.3661e-05
-8.33031e-05
6.90707e-05
-0.000110405
5.63524e-05
-0.000123778
2.961e-05
-0.000116797
-1.02649e-05
-8.32228e-05
-6.2474e-05
-1.69238e-05
-0.000126798
8.39387e-05
-0.000194325
-0.000271963
0.000224461
-1.74168e-05
5.41428e-05
-4.6891e-05
9.31352e-05
-7.76357e-05
9.98154e-05
-0.000100463
7.91798e-05
-0.000108139
3.72858e-05
-9.38058e-05
-2.4598e-05
-5.09318e-05
-0.000105348
2.70531e-05
-0.000204783
0.00014246
-0.000309732
-0.000430404
0.000300901
-1.6299e-05
7.04418e-05
-4.29795e-05
0.000119816
-6.9224e-05
0.00012606
-8.56975e-05
9.56533e-05
-8.49049e-05
3.64933e-05
-5.96437e-05
-4.98592e-05
-2.79299e-06
-0.000162199
9.23994e-05
-0.000299975
0.000229269
-0.000446601
-0.000615199
0.000414064
-1.48372e-05
8.5279e-05
-3.78477e-05
0.000142826
-5.8171e-05
0.000146383
-6.62784e-05
0.000103761
-5.43366e-05
2.45514e-05
-1.47163e-05
-8.94795e-05
6.01124e-05
-0.000237027
0.000178122
-0.000417985
0.000343157
-0.000611635
-0.0008342
0.000562158
-1.30541e-05
9.83331e-05
-3.15627e-05
0.000161335
-4.46078e-05
0.000159428
-4.24239e-05
0.000101577
-1.67686e-05
-1.10388e-06
4.04975e-05
-0.000146746
0.000137555
-0.000334085
0.000283205
-0.000563635
0.000482541
-0.000810971
-0.00109446
0.000742803
-1.0976e-05
0.000109309
-2.42025e-05
0.000174561
-2.86889e-05
0.000163915
-1.43916e-05
8.72794e-05
2.73982e-05
-4.28937e-05
0.000105396
-0.000224743
0.000228484
-0.000457174
0.00040631
-0.000741461
0.000645459
-0.00105012
-0.00140204
0.000953038
-8.63165e-06
0.000117941
-1.58535e-05
0.000181783
-1.05859e-05
0.000158647
1.75274e-05
5.9166e-05
7.77106e-05
-0.000103077
0.000179289
-0.000326322
0.000331867
-0.000609752
0.000545865
-0.000955459
0.000829579
-0.00133383
-0.00176179
0.00118933
-6.05098e-06
0.000123992
-6.60592e-06
0.000182338
9.51819e-06
0.000142523
5.30204e-05
1.56638e-05
0.000133671
-0.000183727
0.000261413
-0.000454064
0.000446547
-0.000794886
0.000700088
-0.001209
0.00103221
-0.00166596
-0.00217714
0.00144756
-3.26542e-06
0.000127257
3.44642e-06
0.000175626
3.14345e-05
0.000114535
9.1759e-05
-4.46606e-05
0.000194749
-0.000286718
0.000350942
-0.000610257
0.00057125
-0.00101519
0.000867
-0.00150475
0.00125031
-0.00204927
-0.00264988
0.00172306
-2.6426e-07
0.000127521
1.42175e-05
0.000161144
5.49745e-05
7.3778e-05
0.000133408
-0.000123094
0.000260391
-0.000413702
0.000446993
-0.000796858
0.000704599
-0.0012728
0.00104445
-0.0018446
0.00148052
-0.00248534
-0.00317999
0.00201063
2.83868e-06
0.000124683
2.56186e-05
0.000138365
7.99544e-05
1.94421e-05
0.000177629
-0.000220768
0.000330027
-0.000566099
0.000548639
-0.00101547
0.000845114
-0.00156928
0.0012301
-0.00222959
0.00171917
-0.00297441
-0.00376542
0.0023046
6.09379e-06
0.000118589
3.75734e-05
0.000106885
0.000106198
-4.91822e-05
0.00022409
-0.000338661
0.000403071
-0.000745079
0.000654901
-0.0012673
0.000991209
-0.00190558
0.0014215
-0.00265988
0.00196233
-0.00351525
-0.00440202
0.00259893
9.4653e-06
0.000109124
5.00121e-05
6.63382e-05
0.000133538
-0.000132708
0.000272461
-0.000477584
0.000478924
-0.000951543
0.000764754
-0.00155313
0.00114119
-0.00228202
0.001616
-0.00313468
0.00220581
-0.00410506
-0.00508356
0.00288735
1.29379e-05
9.61857e-05
6.28726e-05
1.64035e-05
0.00016182
-0.000231655
0.000322415
-0.000638179
0.000556971
-0.0011861
0.00087711
-0.00187327
0.00129323
-0.00269814
0.00181084
-0.00365229
0.00244529
-0.00473951
-0.00580181
0.00316354
1.65015e-05
7.96842e-05
7.61014e-05
-4.31964e-05
0.000190892
-0.000346446
0.000373623
-0.00082091
0.000636568
-0.00144904
0.000990816
-0.00222752
0.00144541
-0.00315273
0.00200313
-0.00421001
0.0026763
-0.00541268
-0.00654704
0.00342153
2.01493e-05
5.95349e-05
8.96507e-05
-0.000112698
0.000220611
-0.000477406
0.000425747
-0.00102605
0.000717035
-0.00174033
0.00110464
-0.00261512
0.00159564
-0.00364373
0.00218987
-0.00480424
0.00289428
-0.00611709
-0.00730905
0.00365628
2.38774e-05
3.56575e-05
0.000103477
-0.000192297
0.000250829
-0.000624759
0.000478434
-0.00125365
0.000797644
-0.00205954
0.00121724
-0.00303472
0.00174178
-0.00416826
0.00236809
-0.00543055
0.00309473
-0.00684374
-0.00807831
0.00386399
2.76835e-05
7.97394e-06
0.000117536
-0.000282149
0.000281394
-0.000788617
0.0005313
-0.00150356
0.000877607
-0.00240585
0.00132722
-0.00348433
0.0018816
-0.00472265
0.00253493
-0.00608388
0.00327388
-0.00758269
-0.00884981
0.00404539
3.15655e-05
-2.35916e-05
0.000131783
-0.000382367
0.000312138
-0.000968972
0.00058393
-0.00177535
0.000956069
-0.00277799
0.00143302
-0.00396127
0.00201272
-0.00530235
0.00268707
-0.00675823
0.0034314
-0.00832702
-0.00963276
0.00421435
3.55204e-05
-5.91119e-05
0.000146164
-0.00049301
0.000342873
-0.00116568
0.000635863
-0.00206834
0.00103211
-0.00317423
0.00153304
-0.0044622
0.00213255
-0.00590186
0.00281952
-0.00744521
0.00356877
-0.00907627
-0.0105783
0.00451432
3.95429e-05
-9.86549e-05
0.000160617
-0.000614085
0.000373388
-0.00137845
0.000686599
-0.00238155
0.00110475
-0.00359239
0.00162566
-0.0049831
0.00223869
-0.00651489
0.00292882
-0.00813533
0.00366537
-0.00981282
-0.0114291
0.0045162
4.36243e-05
-0.000142279
0.000175068
-0.000745528
0.000403443
-0.00160683
0.00073559
-0.0027137
0.00117301
-0.00402981
0.00170933
-0.00551943
0.00232918
-0.00713474
0.0030128
-0.00881896
0.00372668
-0.0105267
-0.0122024
0.00449995
4.77514e-05
-0.000190031
0.000189425
-0.000887201
0.000432768
-0.00185017
0.000782256
-0.00306319
0.00123586
-0.00448341
0.00178264
-0.00606622
0.00240248
-0.00775457
0.00307119
-0.00948767
0.00375532
-0.0112108
-0.0129061
0.00445906
5.19057e-05
-0.000241936
0.000203582
-0.00103888
0.000461065
-0.00210765
0.000825987
-0.00342811
0.00129231
-0.00494973
0.00184433
-0.00661823
0.00245745
-0.00836769
0.00310396
-0.0101342
0.00375206
-0.0118589
-0.0135462
0.00439213
5.60628e-05
-0.000297999
0.000217417
-0.00120023
0.000488009
-0.00237824
0.000866156
-0.00380626
0.00134144
-0.00542502
0.00189331
-0.0071701
0.00249332
-0.0089677
0.00311142
-0.0107523
0.00371847
-0.012466
-0.0141268
0.00429903
6.01927e-05
-0.000358192
0.000230791
-0.00137083
0.000513255
-0.00266071
0.000902138
-0.00419514
0.00138237
-0.00590525
0.00192875
-0.00771648
0.00250972
-0.00954868
0.00309429
-0.0113368
0.00365672
-0.0130284
-0.014651
0.00418093
6.42594e-05
-0.000422451
0.000243552
-0.00155012
0.000536446
-0.0029536
0.000933331
-0.00459202
0.00141434
-0.00638626
0.00195003
-0.00825217
0.00250669
-0.0101053
0.00305368
-0.0118838
0.0035693
-0.013544
-0.0151215
0.00403983
6.82216e-05
-0.000490673
0.000255536
-0.00173744
0.00055722
-0.00325529
0.000959167
-0.00499397
0.00143675
-0.00686384
0.00195684
-0.00877226
0.0024846
-0.0106331
0.00299102
-0.0123903
0.00345879
-0.0140118
-0.0155409
0.00387818
7.20334e-05
-0.000562706
0.000266572
-0.00193198
0.000575222
-0.00356394
0.00097914
-0.00539789
0.00144913
-0.00733383
0.00194911
-0.00927224
0.0024442
-0.0111282
0.002908
-0.0128541
0.00332785
-0.0144316
-0.0159116
0.00369856
7.56453e-05
-0.000638352
0.000276487
-0.00213282
0.000590114
-0.00387756
0.000992822
-0.0058006
0.00145118
-0.00779219
0.00192705
-0.0097481
0.00238647
-0.0115876
0.0028065
-0.0132741
0.00317908
-0.0148042
-0.0162361
0.00350354
7.90051e-05
-0.000717357
0.000285108
-0.00233892
0.000601587
-0.00419404
0.00099987
-0.00619888
0.0014428
-0.00823513
0.00189107
-0.0101964
0.00231261
-0.0120092
0.00268844
-0.0136499
0.00301497
-0.0151308
-0.0165167
0.00329555
8.2059e-05
-0.000799416
0.000292268
-0.00254913
0.000609368
-0.00451114
0.00100004
-0.00658956
0.00142404
-0.00865912
0.00184181
-0.0106141
0.00222397
-0.0123913
0.00255581
-0.0139818
0.00283785
-0.0154128
-0.0167556
0.00307683
8.47535e-05
-0.000884169
0.000297811
-0.00276219
0.00061323
-0.00482656
0.00099321
-0.00696953
0.00139511
-0.00906102
0.00178006
-0.0109991
0.00212197
-0.0127332
0.00241051
-0.0142703
0.00264985
-0.0156521
-0.0169552
0.00284938
8.70357e-05
-0.000971205
0.000301597
-0.00297675
0.000612999
-0.00513796
0.000979336
-0.00733587
0.00135637
-0.00943806
0.00170674
-0.0113495
0.0020081
-0.0130346
0.00225439
-0.0145166
0.00245292
-0.0158507
-0.0171172
0.00261497
8.88554e-05
-0.00106006
0.000303501
-0.00319139
0.000608554
-0.00544302
0.000958494
-0.00768581
0.0013083
-0.00978786
0.00162285
-0.011664
0.00188382
-0.0132956
0.00208915
-0.0147219
0.00224878
-0.0160103
-0.0172436
0.00237515
9.01656e-05
-0.00115023
0.000303423
-0.00340465
0.000599833
-0.00573943
0.000930852
-0.00801683
0.00125148
-0.0101085
0.00152944
-0.011942
0.00175054
-0.0135167
0.00191639
-0.0148878
0.00203895
-0.0161328
-0.0173359
0.00213126
9.09239e-05
-0.00124115
0.000301284
-0.00361501
0.000586833
-0.00602498
0.000896661
-0.00832666
0.00118657
-0.0103984
0.00142758
-0.012183
0.00160962
-0.0136987
0.00173754
-0.0150157
0.00182477
-0.0162201
-0.0173956
0.00188445
9.10935e-05
-0.00133224
0.000297032
-0.00382095
0.000569605
-0.00629755
0.000856249
-0.0086133
0.00111427
-0.0106564
0.00131834
-0.0123871
0.00146234
-0.0138427
0.00155389
-0.0151072
0.0016074
-0.0162736
-0.0174239
0.00163571
9.06436e-05
-0.00142289
0.00029064
-0.00402094
0.000548253
-0.00655516
0.000810001
-0.00887505
0.00103532
-0.0108817
0.00120276
-0.0125545
0.00130987
-0.0139498
0.00136661
-0.015164
0.00138787
-0.0162948
-0.017422
0.00138592
8.95502e-05
-0.00151244
0.000282109
-0.0042135
0.000522929
-0.00679598
0.000758353
-0.00911047
0.000950494
-0.0110739
0.00108183
-0.0126858
0.00115332
-0.0140213
0.00117671
-0.0151874
0.00116705
-0.0162852
-0.0173907
0.00113582
8.77969e-05
-0.00160023
0.000271464
-0.00439717
0.000493827
-0.00701835
0.000701778
-0.00931842
0.000860536
-0.0112326
0.000956504
-0.0127818
0.000993652
-0.0140584
0.000985102
-0.0151788
0.000945722
-0.0162458
-0.0173311
0.000886056
8.53745e-05
-0.00168561
0.000258754
-0.00457055
0.000461178
-0.00722077
0.000640769
-0.00949802
0.000766192
-0.0113581
0.000827662
-0.0128433
0.000831777
-0.0140625
0.000792599
-0.0151396
0.000724557
-0.0161778
-0.0172437
0.000637199
8.22816e-05
-0.00176789
0.000244053
-0.00473232
0.00042524
-0.00740196
0.000575835
-0.00964861
0.000668185
-0.0114504
0.000696132
-0.0128712
0.000668502
-0.0140349
0.000599913
-0.0150711
0.000504149
-0.016082
-0.0171293
0.000389737
7.85246e-05
-0.00184641
0.000227452
-0.00488125
0.000386296
-0.0075608
0.000507491
-0.00976981
0.000567207
-0.0115101
0.000562676
-0.0128667
0.000504556
-0.0139768
0.000407684
-0.0149742
0.000285033
-0.0159593
-0.0169882
0.000143955
7.4117e-05
-0.00192053
0.000209064
-0.0050162
0.000344647
-0.00769638
0.000436245
-0.0098614
0.000463913
-0.0115378
0.000427996
-0.0128308
0.000340592
-0.0138894
0.000216484
-0.0148501
6.78023e-05
-0.0158107
-0.0168209
-9.95182e-05
6.90796e-05
-0.00198961
0.000189015
-0.00513613
0.000300604
-0.00780797
0.000362597
-0.0099234
0.000358922
-0.0115341
0.000292733
-0.0127646
0.000177198
-0.0137739
2.6679e-05
-0.0146996
-0.00014734
-0.0156366
-0.0166287
-0.000339576
6.34398e-05
-0.00205305
0.000167446
-0.00524014
0.000254483
-0.00789501
0.000287031
-0.00995594
0.000252813
-0.0114999
0.000157469
-0.0126692
1.48975e-05
-0.0136313
-0.000160889
-0.0145238
-0.000359853
-0.0154377
-0.0164116
-0.000576912
5.7231e-05
-0.00211028
0.000144505
-0.00532741
0.000206606
-0.00795711
0.000210013
-0.00995935
0.000146122
-0.011436
2.27335e-05
-0.0125458
-0.00014577
-0.0134628
-0.000346154
-0.0143234
-0.00056935
-0.0152145
-0.0161701
-0.00081088
5.04924e-05
-0.00216077
0.000120352
-0.00539727
0.000157288
-0.00799405
0.000131986
-0.00993405
3.93478e-05
-0.0113434
-0.000110972
-0.0123955
-0.000304438
-0.0132693
-0.000528629
-0.0140992
-0.000775511
-0.0149676
-0.0159045
-0.00104113
4.32678e-05
-0.00220404
9.51487e-05
-0.00544915
0.000106841
-0.00800574
5.33725e-05
-0.00988058
-6.70522e-05
-0.011223
-0.000243228
-0.0122194
-0.000460687
-0.0130519
-0.000707941
-0.0138519
-0.000978001
-0.0146975
-0.0156151
-0.00126734
3.56051e-05
-0.00223965
6.90653e-05
-0.00548261
5.55675e-05
-0.00799224
-2.54296e-05
-0.00979958
-0.000172658
-0.0110757
-0.000373633
-0.0120184
-0.000614153
-0.0128113
-0.000883745
-0.0135823
-0.00117649
-0.0144048
-0.0153024
-0.00148922
2.75554e-05
-0.0022672
4.2274e-05
-0.00549733
3.92302e-06
-0.00795389
-0.000104063
-0.0096916
-0.000277087
-0.0109027
-0.000501824
-0.0117936
-0.000764502
-0.0125487
-0.00105571
-0.0132911
-0.00137066
-0.0140899
-0.0149666
-0.00170647
1.91758e-05
-0.00228638
1.49505e-05
-0.0054931
-4.83128e-05
-0.00789063
-0.000182189
-0.00955772
-0.000379985
-0.0107049
-0.000627475
-0.0115461
-0.000911429
-0.0122647
-0.00122354
-0.012979
-0.00156017
-0.0137532
-0.0146079
-0.00191881
1.05183e-05
-0.0022969
-1.27437e-05
-0.00546984
-0.000100368
-0.007803
-0.000259475
-0.00939862
-0.000481035
-0.0104833
-0.000750291
-0.0112769
-0.00105466
-0.0119603
-0.00138691
-0.0126468
-0.00174471
-0.0133954
-0.0142267
-0.00212591
1.50959e-06
-0.00229841
-4.07401e-05
-0.00542759
-0.000152159
-0.00769158
-0.000335629
-0.00921515
-0.000579946
-0.010239
-0.000870006
-0.0109868
-0.00119393
-0.0116364
-0.00154556
-0.0122951
-0.00192392
-0.0130171
-0.0138231
-0.0023275
-7.48938e-06
-0.00229092
-6.87607e-05
-0.00536632
-0.000203447
-0.0075569
-0.000410382
-0.00900821
-0.000676453
-0.00997295
-0.000986382
-0.0106769
-0.00132902
-0.0112938
-0.00169923
-0.0119249
-0.00209752
-0.0126188
-0.0133973
-0.00252336
-1.66379e-05
-0.00227428
-9.66902e-05
-0.00528627
-0.000254011
-0.00739958
-0.000483486
-0.00877874
-0.000770321
-0.00968612
-0.0010992
-0.010348
-0.00145973
-0.0109333
-0.0018477
-0.0115369
-0.00226514
-0.0122014
-0.0129497
-0.00271277
-2.58511e-05
-0.00224843
-0.000124387
-0.00518773
-0.000303644
-0.00722032
-0.000554713
-0.00852767
-0.000861332
-0.0093795
-0.00120828
-0.0100011
-0.00158587
-0.0105557
-0.00199079
-0.011132
-0.00242609
-0.0117661
-0.0124809
-0.00289491
-3.50618e-05
-0.00221337
-0.000151714
-0.00507108
-0.000352153
-0.00701988
-0.000623856
-0.00825596
-0.000949293
-0.00905406
-0.00131343
-0.00963694
-0.00170732
-0.0101618
-0.00212834
-0.010711
-0.00258033
-0.0113141
-0.0119902
-0.00307102
-4.4213e-05
-0.00216915
-0.000178538
-0.00493676
-0.000399358
-0.00679906
-0.000690724
-0.0079646
-0.00103403
-0.00871076
-0.00141451
-0.00925645
-0.00182399
-0.00975229
-0.00226023
-0.0102748
-0.00272213
-0.0108522
-0.0114971
-0.0032152
-5.32507e-05
-0.0021159
-0.000204738
-0.00478527
-0.000445093
-0.00655871
-0.000755145
-0.00765455
-0.00111537
-0.00835054
-0.00151136
-0.00886046
-0.0019357
-0.00932795
-0.00238668
-0.00982378
-0.00286439
-0.0103744
-0.0109891
-0.00337237
-6.21231e-05
-0.00205378
-0.000230197
-0.00461719
-0.000489206
-0.0062997
-0.000816961
-0.00732679
-0.00119317
-0.00797433
-0.00160386
-0.00844977
-0.00204231
-0.00888949
-0.00250733
-0.00935876
-0.00299981
-0.00988198
-0.0104662
-0.00352271
-7.07809e-05
-0.001983
-0.000254806
-0.00443317
-0.000531556
-0.00602295
-0.000876029
-0.00698232
-0.00126731
-0.00758304
-0.00169186
-0.00802522
-0.00214369
-0.00843766
-0.00262202
-0.00888043
-0.00312824
-0.00937576
-0.00992896
-0.0036655
-7.9177e-05
-0.00190382
-0.000278463
-0.00423388
-0.000572015
-0.00572939
-0.00093222
-0.00662212
-0.00133766
-0.00717761
-0.00177527
-0.00758761
-0.00223972
-0.00797321
-0.00273069
-0.00838947
-0.00324989
-0.00885656
-0.00937829
-0.00380056
-8.72667e-05
-0.00181656
-0.000301074
-0.00402008
-0.000610465
-0.00542
-0.000985416
-0.00624717
-0.00140411
-0.00675891
-0.00185398
-0.00713775
-0.00233034
-0.00749685
-0.00283325
-0.00788655
-0.00336476
-0.00832504
-0.00881493
-0.00392812
-9.5008e-05
-0.00172155
-0.000322553
-0.00379253
-0.000646799
-0.00509576
-0.00103551
-0.00585845
-0.00146657
-0.00632785
-0.0019279
-0.00667641
-0.00241543
-0.00700932
-0.00292962
-0.00737237
-0.00347279
-0.00778187
-0.00823951
-0.0040482
-0.000102362
-0.00161919
-0.000342819
-0.00355207
-0.000680919
-0.00475766
-0.00108241
-0.00545696
-0.00152494
-0.00588531
-0.00199695
-0.0062044
-0.00249493
-0.00651135
-0.0030197
-0.0068476
-0.00357385
-0.00722772
-0.00765268
-0.00416069
-0.000109291
-0.00150989
-0.000361798
-0.00329957
-0.000712736
-0.00440672
-0.00112602
-0.00504368
-0.00157915
-0.00543218
-0.00206105
-0.00572251
-0.00256874
-0.00600366
-0.0031034
-0.00631293
-0.00366784
-0.00666328
-0.00705508
-0.00426544
-0.000115762
-0.00139413
-0.000379424
-0.00303591
-0.00074217
-0.00404397
-0.00116627
-0.00461959
-0.00162911
-0.00496934
-0.0021201
-0.00523152
-0.00263676
-0.005487
-0.00318059
-0.0057691
-0.00375462
-0.00608924
-0.00644741
-0.00436229
-0.000121744
-0.00127239
-0.000395635
-0.00276201
-0.000769149
-0.00367046
-0.00120307
-0.00418566
-0.00167476
-0.00449765
-0.00217404
-0.00473223
-0.00269891
-0.00496212
-0.00325117
-0.00521684
-0.00383405
-0.00550637
-0.0058304
-0.00445106
-0.000127208
-0.00114518
-0.000410378
-0.00247884
-0.000793608
-0.00328723
-0.00123638
-0.00374289
-0.00171603
-0.00401801
-0.0022228
-0.00422546
-0.00275512
-0.00442981
-0.00331504
-0.00465692
-0.00390599
-0.00491542
-0.00520484
-0.00453154
-0.00013213
-0.00101305
-0.000423603
-0.00218737
-0.000815491
-0.00289534
-0.00126613
-0.00329225
-0.00175286
-0.00353128
-0.00226632
-0.003712
-0.00280529
-0.00389083
-0.0033721
-0.00409012
-0.0039703
-0.00431722
-0.00457157
-0.00460357
-0.000136485
-0.000876565
-0.000435267
-0.00188859
-0.000834746
-0.00249586
-0.00129227
-0.00283472
-0.0017852
-0.00303835
-0.00230453
-0.00319267
-0.00284937
-0.003346
-0.00342224
-0.00351724
-0.00402686
-0.0037126
-0.00393145
-0.00466698
-0.000140256
-0.000736309
-0.000445334
-0.00158351
-0.00085133
-0.00208987
-0.00131476
-0.00237129
-0.00181301
-0.0025401
-0.00233738
-0.0026683
-0.00288727
-0.00279611
-0.00346538
-0.00293913
-0.00407556
-0.00310243
-0.0032854
-0.00472161
-0.000143423
-0.000592886
-0.000453771
-0.00127316
-0.000865206
-0.00167843
-0.00133356
-0.00190294
-0.00183625
-0.00203741
-0.00236483
-0.00213972
-0.00291895
-0.00224199
-0.00350146
-0.00235662
-0.0041163
-0.00248759
-0.00263437
-0.00476733
-0.000145974
-0.000446912
-0.000460552
-0.000958586
-0.000876343
-0.00126264
-0.00134863
-0.00143065
-0.00185487
-0.00153117
-0.00238684
-0.00160775
-0.00294435
-0.00168447
-0.0035304
-0.00177057
-0.00414899
-0.001869
-0.00197932
-0.00480404
-0.000147898
-0.000299014
-0.000465656
-0.000640828
-0.000884717
-0.000843578
-0.00135996
-0.000955407
-0.00186887
-0.00102226
-0.00240337
-0.00107325
-0.00296344
-0.00112441
-0.00355215
-0.00118187
-0.00417357
-0.00124758
-0.00132124
-0.00483165
-0.000149185
-0.000149829
-0.000469067
-0.000320946
-0.00089031
-0.000422334
-0.00136752
-0.000478196
-0.00187821
-0.000511577
-0.00241441
-0.000537047
-0.00297618
-0.00056263
-0.00356667
-0.000591378
-0.00418999
-0.000624263
-0.000661126
-0.0048501
-0.000149829
2.1801e-11
-0.000470775
5.03788e-11
-0.00089311
6.94421e-11
-0.00137131
8.10785e-11
-0.00188288
8.80417e-11
-0.00241993
9.20777e-11
-0.00298256
9.42244e-11
-0.00357394
9.4877e-11
-0.0041982
9.43082e-11
9.25505e-11
-0.00485933
-0.000149829
0.000149829
-0.000470775
0.000320946
-0.00089311
0.000422335
-0.00137131
0.000478196
-0.00188288
0.000511577
-0.00241993
0.000537047
-0.00298256
0.00056263
-0.00357394
0.000591379
-0.0041982
0.000624264
0.000661126
-0.00485933
-0.000149185
0.000299014
-0.000469067
0.000640829
-0.00089031
0.000843578
-0.00136752
0.000955407
-0.00187821
0.00102226
-0.00241441
0.00107325
-0.00297618
0.00112441
-0.00356667
0.00118187
-0.00418999
0.00124758
0.00132124
-0.0048501
-0.000147898
0.000446912
-0.000465656
0.000958587
-0.000884717
0.00126264
-0.00135996
0.00143065
-0.00186887
0.00153117
-0.00240337
0.00160775
-0.00296344
0.00168447
-0.00355215
0.00177057
-0.00417357
0.001869
0.00197932
-0.00483165
-0.000145974
0.000592886
-0.000460552
0.00127316
-0.000876343
0.00167843
-0.00134863
0.00190294
-0.00185487
0.00203741
-0.00238684
0.00213972
-0.00294435
0.00224199
-0.0035304
0.00235662
-0.00414899
0.00248759
0.00263437
-0.00480404
-0.000143423
0.000736309
-0.000453771
0.00158351
-0.000865206
0.00208987
-0.00133356
0.00237129
-0.00183625
0.0025401
-0.00236483
0.0026683
-0.00291895
0.00279611
-0.00350146
0.00293913
-0.0041163
0.00310243
0.0032854
-0.00476733
-0.000140256
0.000876565
-0.000445334
0.00188859
-0.00085133
0.00249586
-0.00131476
0.00283472
-0.00181301
0.00303835
-0.00233738
0.00319267
-0.00288727
0.003346
-0.00346538
0.00351724
-0.00407556
0.0037126
0.00393145
-0.00472161
-0.000136485
0.00101305
-0.000435267
0.00218737
-0.000834746
0.00289534
-0.00129227
0.00329225
-0.0017852
0.00353128
-0.00230453
0.003712
-0.00284937
0.00389083
-0.00342224
0.00409012
-0.00402686
0.00431722
0.00457157
-0.00466698
-0.00013213
0.00114518
-0.000423603
0.00247884
-0.000815491
0.00328723
-0.00126613
0.00374289
-0.00175286
0.00401801
-0.00226632
0.00422546
-0.00280529
0.00442981
-0.0033721
0.00465692
-0.0039703
0.00491542
0.00520485
-0.00460357
-0.000127208
0.00127239
-0.000410378
0.00276201
-0.000793608
0.00367046
-0.00123638
0.00418566
-0.00171603
0.00449765
-0.0022228
0.00473223
-0.00275512
0.00496212
-0.00331504
0.00521684
-0.00390599
0.00550637
0.0058304
-0.00453154
-0.000121744
0.00139413
-0.000395635
0.00303591
-0.000769149
0.00404397
-0.00120307
0.00461959
-0.00167476
0.00496934
-0.00217404
0.00523152
-0.00269891
0.005487
-0.00325117
0.0057691
-0.00383405
0.00608924
0.00644741
-0.00445106
-0.000115762
0.00150989
-0.000379424
0.00329957
-0.00074217
0.00440672
-0.00116627
0.00504368
-0.00162911
0.00543218
-0.0021201
0.00572251
-0.00263676
0.00600366
-0.00318059
0.00631293
-0.00375462
0.00666328
0.00705508
-0.00436229
-0.000109291
0.00161919
-0.000361798
0.00355207
-0.000712736
0.00475766
-0.00112602
0.00545696
-0.00157915
0.00588531
-0.00206105
0.0062044
-0.00256874
0.00651135
-0.0031034
0.0068476
-0.00366784
0.00722772
0.00765268
-0.00426544
-0.000102362
0.00172155
-0.000342819
0.00379253
-0.000680919
0.00509576
-0.00108241
0.00585845
-0.00152494
0.00632785
-0.00199695
0.00667641
-0.00249493
0.00700932
-0.0030197
0.00737237
-0.00357385
0.00778187
0.00823951
-0.00416069
-9.5008e-05
0.00181656
-0.000322553
0.00402008
-0.000646799
0.00542
-0.00103551
0.00624717
-0.00146657
0.00675891
-0.0019279
0.00713775
-0.00241543
0.00749685
-0.00292962
0.00788655
-0.00347279
0.00832504
0.00881493
-0.0040482
-8.72667e-05
0.00190382
-0.000301074
0.00423388
-0.000610465
0.00572939
-0.000985416
0.00662212
-0.00140411
0.00717761
-0.00185398
0.00758761
-0.00233034
0.00797321
-0.00283325
0.00838947
-0.00336476
0.00885656
0.00937829
-0.00392812
-7.9177e-05
0.001983
-0.000278463
0.00443317
-0.000572015
0.00602295
-0.00093222
0.00698232
-0.00133766
0.00758304
-0.00177527
0.00802522
-0.00223972
0.00843766
-0.00273069
0.00888043
-0.00324989
0.00937576
0.00992896
-0.00380056
-7.07809e-05
0.00205378
-0.000254806
0.00461719
-0.000531556
0.0062997
-0.000876029
0.00732679
-0.00126731
0.00797433
-0.00169186
0.00844977
-0.00214369
0.00888949
-0.00262202
0.00935876
-0.00312824
0.00988198
0.0104662
-0.0036655
-6.21231e-05
0.0021159
-0.000230197
0.00478527
-0.000489206
0.00655871
-0.000816961
0.00765455
-0.00119317
0.00835054
-0.00160386
0.00886046
-0.00204231
0.00932795
-0.00250733
0.00982378
-0.00299981
0.0103744
0.0109891
-0.00352271
-5.32507e-05
0.00216915
-0.000204738
0.00493676
-0.000445093
0.00679906
-0.000755145
0.0079646
-0.00111537
0.00871076
-0.00151136
0.00925645
-0.0019357
0.00975229
-0.00238668
0.0102748
-0.00286439
0.0108522
0.0114971
-0.00337237
-4.4213e-05
0.00221337
-0.000178538
0.00507108
-0.000399358
0.00701988
-0.000690724
0.00825596
-0.00103403
0.00905406
-0.00141451
0.00963694
-0.00182399
0.0101618
-0.00226023
0.010711
-0.00272213
0.0113141
0.0119902
-0.0032152
-3.50618e-05
0.00224843
-0.000151714
0.00518773
-0.000352153
0.00722032
-0.000623856
0.00852767
-0.000949293
0.0093795
-0.00131343
0.0100011
-0.00170732
0.0105557
-0.00212834
0.011132
-0.00258033
0.0117661
0.0124809
-0.00307102
-2.58511e-05
0.00227428
-0.000124387
0.00528627
-0.000303644
0.00739958
-0.000554713
0.00877874
-0.000861332
0.00968612
-0.00120828
0.010348
-0.00158587
0.0109333
-0.00199079
0.0115369
-0.00242609
0.0122014
0.0129497
-0.00289491
-1.66379e-05
0.00229092
-9.66902e-05
0.00536632
-0.000254011
0.0075569
-0.000483486
0.00900821
-0.000770321
0.00997295
-0.0010992
0.0106769
-0.00145973
0.0112938
-0.0018477
0.0119249
-0.00226514
0.0126188
0.0133973
-0.00271277
-7.48938e-06
0.00229841
-6.87607e-05
0.00542759
-0.000203447
0.00769158
-0.000410382
0.00921515
-0.000676453
0.010239
-0.000986382
0.0109868
-0.00132902
0.0116364
-0.00169923
0.0122951
-0.00209752
0.0130171
0.0138231
-0.00252336
1.50959e-06
0.0022969
-4.07401e-05
0.00546984
-0.000152159
0.007803
-0.000335629
0.00939862
-0.000579946
0.0104833
-0.000870006
0.0112769
-0.00119393
0.0119603
-0.00154556
0.0126468
-0.00192392
0.0133954
0.0142267
-0.0023275
1.05183e-05
0.00228638
-1.27437e-05
0.0054931
-0.000100368
0.00789063
-0.000259475
0.00955772
-0.000481035
0.0107049
-0.000750291
0.0115461
-0.00105466
0.0122647
-0.00138691
0.012979
-0.00174471
0.0137532
0.0146079
-0.00212591
1.91758e-05
0.0022672
1.49505e-05
0.00549733
-4.83128e-05
0.00795389
-0.000182189
0.0096916
-0.000379985
0.0109027
-0.000627475
0.0117936
-0.000911429
0.0125487
-0.00122354
0.0132911
-0.00156017
0.0140899
0.0149666
-0.00191881
2.75554e-05
0.00223965
4.2274e-05
0.00548261
3.92302e-06
0.00799224
-0.000104063
0.00979958
-0.000277087
0.0110757
-0.000501824
0.0120184
-0.000764502
0.0128113
-0.00105571
0.0135823
-0.00137066
0.0144048
0.0153024
-0.00170647
3.56051e-05
0.00220404
6.90653e-05
0.00544915
5.55675e-05
0.00800574
-2.54296e-05
0.00988058
-0.000172658
0.011223
-0.000373633
0.0122194
-0.000614153
0.0130519
-0.000883745
0.0138519
-0.00117649
0.0146975
0.0156151
-0.00148922
4.32678e-05
0.00216077
9.51487e-05
0.00539727
0.000106841
0.00799405
5.33725e-05
0.00993405
-6.70522e-05
0.0113434
-0.000243228
0.0123955
-0.000460687
0.0132693
-0.000707941
0.0140992
-0.000978001
0.0149676
0.0159045
-0.00126734
5.04924e-05
0.00211028
0.000120352
0.00532741
0.000157288
0.00795711
0.000131986
0.00995935
3.93478e-05
0.011436
-0.000110972
0.0125458
-0.000304438
0.0134628
-0.000528629
0.0143234
-0.000775511
0.0152145
0.0161701
-0.00104113
5.7231e-05
0.00205305
0.000144505
0.00524014
0.000206606
0.00789501
0.000210013
0.00995594
0.000146122
0.0114999
2.27335e-05
0.0126692
-0.00014577
0.0136313
-0.000346154
0.0145238
-0.00056935
0.0154377
0.0164116
-0.00081088
6.34398e-05
0.00198961
0.000167446
0.00513613
0.000254483
0.00780797
0.000287031
0.0099234
0.000252813
0.0115341
0.000157469
0.0127646
1.48975e-05
0.0137739
-0.000160889
0.0146996
-0.000359853
0.0156366
0.0166287
-0.000576912
6.90796e-05
0.00192053
0.000189015
0.0050162
0.000300604
0.00769638
0.000362597
0.0098614
0.000358922
0.0115378
0.000292733
0.0128308
0.000177198
0.0138894
2.66791e-05
0.0148501
-0.00014734
0.0158107
0.0168209
-0.000339576
7.4117e-05
0.00184641
0.000209064
0.00488125
0.000344647
0.0075608
0.000436245
0.00976981
0.000463913
0.0115101
0.000427996
0.0128667
0.000340592
0.0139768
0.000216484
0.0149742
6.78023e-05
0.0159593
0.0169882
-9.95182e-05
7.85246e-05
0.00176789
0.000227452
0.00473232
0.000386296
0.00740196
0.000507491
0.00964861
0.000567207
0.0114504
0.000562676
0.0128712
0.000504556
0.0140349
0.000407684
0.0150711
0.000285033
0.016082
0.0171293
0.000143955
8.22816e-05
0.00168561
0.000244053
0.00457055
0.00042524
0.00722077
0.000575835
0.00949802
0.000668185
0.0113581
0.000696132
0.0128433
0.000668502
0.0140625
0.000599913
0.0151396
0.00050415
0.0161778
0.0172437
0.000389737
8.53745e-05
0.00160023
0.000258754
0.00439717
0.000461178
0.00701835
0.000640769
0.00931842
0.000766192
0.0112326
0.000827662
0.0127818
0.000831777
0.0140584
0.000792599
0.0151788
0.000724557
0.0162458
0.0173311
0.000637199
8.77969e-05
0.00151244
0.000271464
0.0042135
0.000493827
0.00679598
0.000701778
0.00911047
0.000860536
0.0110739
0.000956504
0.0126858
0.000993652
0.0140213
0.000985102
0.0151874
0.000945722
0.0162852
0.0173907
0.000886056
8.95502e-05
0.00142289
0.000282109
0.00402094
0.000522929
0.00655516
0.000758353
0.00887505
0.000950494
0.0108817
0.00108183
0.0125545
0.00115332
0.0139498
0.00117671
0.015164
0.00116705
0.0162948
0.017422
0.00113582
9.06436e-05
0.00133224
0.00029064
0.00382095
0.000548253
0.00629755
0.000810001
0.0086133
0.00103532
0.0106564
0.00120276
0.0123871
0.00130987
0.0138427
0.00136661
0.0151072
0.00138787
0.0162736
0.0174239
0.00138592
9.10935e-05
0.00124115
0.000297032
0.00361501
0.000569605
0.00602498
0.000856249
0.00832666
0.00111427
0.0103984
0.00131834
0.012183
0.00146234
0.0136987
0.00155389
0.0150157
0.0016074
0.0162201
0.0173956
0.00163571
9.09239e-05
0.00115023
0.000301284
0.00340465
0.000586833
0.00573943
0.000896661
0.00801683
0.00118657
0.0101085
0.00142758
0.011942
0.00160962
0.0135167
0.00173754
0.0148878
0.00182477
0.0161328
0.0173359
0.00188445
9.01656e-05
0.00106006
0.000303423
0.00319139
0.000599833
0.00544302
0.000930852
0.00768581
0.00125148
0.00978786
0.00152944
0.011664
0.00175054
0.0132956
0.00191639
0.0147219
0.00203895
0.0160103
0.0172436
0.00213126
8.88554e-05
0.000971205
0.000303501
0.00297675
0.000608554
0.00513796
0.000958494
0.00733587
0.0013083
0.00943806
0.00162285
0.0113495
0.00188382
0.0130346
0.00208915
0.0145166
0.00224878
0.0158507
0.0171172
0.00237515
8.70357e-05
0.000884169