/*--------------------------------*- C++ -*----------------------------------*\
  =========                 |
  \\      /  F ield         | OpenFOAM: The Open Source CFD Toolbox
   \\    /   O peration     | Website:  https://openfoam.org
    \\  /    A nd           | Version:  7
     \\/     M anipulation  |
\*---------------------------------------------------------------------------*/
FoamFile
{
    version     2.0;
    format      ascii;
    class       volScalarField;
    location    "4";
    object      p;
}
// * * * * * * * * * * * * * * * * * * * * * * * * * * * * * * * * * * * * * //

dimensions      [0 2 -2 0 0 0 0];

internalField   nonuniform List<scalar> 
433
(
-0.523712
-0.484056
-0.480763
-0.477536
-0.474552
-0.471585
-0.512801
-0.509216
-0.505695
-0.502435
-0.499192
-0.495886
-0.492506
-0.489035
-0.485445
-0.481704
-0.477778
-0.473632
-0.469229
-0.46453
-0.459497
-0.45409
-0.538484
-0.534639
-0.530856
-0.527347
-0.523856
-0.520299
-0.51667
-0.512954
-0.509125
-0.505154
-0.50101
-0.49666
-0.49207
-0.487203
-0.482023
-0.476491
-0.470569
-0.464221
-0.561098
-0.557025
-0.553011
-0.549284
-0.545572
-0.541793
-0.537942
-0.534008
-0.529967
-0.525792
-0.521456
-0.516928
-0.512176
-0.507166
-0.501864
-0.496232
-0.490237
-0.580673
-0.576406
-0.572195
-0.568278
-0.564376
-0.560403
-0.556358
-0.552234
-0.548007
-0.543655
-0.539152
-0.534471
-0.529581
-0.524453
-0.519052
-0.513347
-0.507302
-0.597264
-0.592838
-0.588464
-0.584389
-0.580326
-0.576189
-0.57198
-0.567693
-0.563309
-0.558807
-0.554163
-0.549353
-0.54435
-0.539126
-0.533652
-0.527895
-0.521824
-0.610955
-0.606404
-0.601901
-0.597699
-0.593506
-0.589235
-0.584891
-0.580471
-0.575957
-0.571331
-0.566572
-0.561659
-0.556567
-0.551272
-0.545746
-0.539959
-0.533884
-0.621851
-0.617211
-0.612612
-0.608314
-0.604021
-0.599646
-0.595198
-0.590672
-0.586057
-0.581334
-0.576487
-0.571495
-0.566338
-0.560994
-0.555437
-0.549642
-0.63008
-0.625383
-0.620723
-0.61636
-0.611996
-0.607548
-0.603023
-0.598422
-0.593732
-0.58894
-0.584029
-0.578984
-0.573785
-0.568413
-0.562847
-0.557064
-0.635787
-0.631067
-0.626376
-0.621977
-0.617573
-0.61308
-0.608508
-0.603859
-0.599123
-0.594287
-0.589339
-0.584264
-0.579046
-0.573669
-0.568114
-0.56236
-0.556386
-0.639133
-0.63442
-0.629729
-0.625323
-0.620907
-0.616398
-0.611807
-0.607137
-0.602381
-0.597528
-0.592566
-0.587485
-0.582271
-0.576909
-0.571383
-0.565677
-0.55977
-0.640288
-0.635611
-0.63095
-0.626564
-0.622162
-0.617663
-0.61308
-0.608416
-0.603666
-0.59882
-0.59387
-0.588805
-0.583616
-0.578289
-0.572811
-0.567168
-0.561344
-0.639433
-0.634819
-0.630214
-0.625874
-0.621511
-0.617048
-0.612498
-0.607865
-0.603145
-0.59833
-0.593414
-0.588388
-0.583243
-0.57797
-0.572558
-0.566995
-0.561267
-0.636752
-0.632225
-0.627701
-0.62343
-0.61913
-0.614727
-0.610233
-0.605655
-0.600988
-0.596227
-0.591366
-0.586399
-0.58132
-0.576119
-0.570789
-0.565319
-0.559701
-0.553921
-0.632432
-0.628015
-0.623594
-0.619412
-0.615197
-0.610875
-0.60646
-0.601958
-0.597366
-0.59268
-0.587896
-0.583008
-0.578011
-0.5729
-0.567668
-0.562307
-0.556809
-0.551166
-0.545366
-0.626658
-0.622369
-0.618071
-0.613999
-0.609887
-0.605666
-0.601349
-0.596944
-0.592447
-0.587856
-0.583167
-0.578377
-0.573481
-0.568476
-0.563357
-0.558118
-0.552753
-0.547255
-0.541617
-0.61961
-0.615466
-0.611308
-0.607361
-0.603371
-0.599269
-0.595069
-0.590778
-0.586395
-0.581917
-0.577341
-0.572666
-0.567888
-0.563004
-0.558012
-0.552908
-0.547686
-0.542344
-0.536874
-0.531273
-0.611461
-0.607477
-0.603474
-0.599667
-0.595813
-0.591846
-0.587779
-0.58362
-0.579367
-0.575019
-0.570573
-0.566028
-0.561383
-0.556636
-0.551785
-0.546827
-0.54176
-0.536581
-0.531287
-0.525873
-0.520337
-0.602375
-0.598563
-0.594727
-0.591073
-0.587368
-0.58355
-0.579631
-0.575618
-0.571511
-0.567308
-0.563008
-0.558609
-0.554112
-0.549515
-0.544817
-0.540018
-0.535115
-0.530108
-0.524995
-0.519775
-0.514444
-0.509
-0.592503
-0.588873
-0.585215
-0.581726
-0.578182
-0.574525
-0.570766
-0.566914
-0.562966
-0.558923
-0.554782
-0.550544
-0.546208
-0.541774
-0.537242
-0.532612
-0.527884
-0.523058
-0.518132
-0.513108
-0.507985
-0.502761
-0.497437
-0.581986
-0.578546
-0.575076
-0.57176
-0.568387
-0.564902
-0.561316
-0.557636
-0.553861
-0.549989
-0.546021
-0.541956
-0.537795
-0.533537
-0.529183
-0.524734
-0.520189
-0.515551
-0.51082
-0.505997
-0.501082
-0.496076
-0.490982
-0.485799
-0.570949
-0.567707
-0.564432
-0.561298
-0.558106
-0.554803
-0.5514
-0.547903
-0.544311
-0.540624
-0.536841
-0.532961
-0.528986
-0.524916
-0.520751
-0.516492
-0.512141
-0.507698
-0.503166
-0.498547
-0.559505
-0.556467
-0.553395
-0.550451
-0.547447
-0.544335
-0.541124
-0.537821
-0.534424
-0.530932
-0.527344
-0.523661
-0.519883
-0.51601
-0.512044
-0.507984
-0.547757
-0.54493
-0.542067
-0.539319
-0.536511
-0.533598
-0.530588
-0.527487
-0.524292
-0.521004
-0.517622
-0.514144
-0.535796
-0.533185
-0.530538
-0.527992
-0.525386
-0.522678
-0.519876
-0.516984
-0.523711
-0.521321
-0.518894
)
;

boundaryField
{
    inlet
    {
        type            zeroGradient;
    }
    outlet
    {
        type            fixedValue;
        value           nonuniform 0();
    }
    cylinder
    {
        type            zeroGradient;
    }
    top
    {
        type            symmetryPlane;
    }
    bottom
    {
        type            symmetryPlane;
    }
    defaultFaces
    {
        type            empty;
    }
    procBoundary14to7
    {
        type            processor;
        value           nonuniform List<scalar> 
20
(
-0.452275
-0.449305
-0.4464
-0.443719
-0.441052
-0.468555
-0.468555
-0.465451
-0.46225
-0.458923
-0.455436
-0.451752
-0.447833
-0.443641
-0.439135
-0.434274
-0.429017
-0.448269
-0.448269
-0.441997
)
;
    }
    procBoundary14to8
    {
        type            processor;
        value           nonuniform List<scalar> 
28
(
-0.457412
-0.48384
-0.48384
-0.500883
-0.515407
-0.527489
-0.543583
-0.543583
-0.551039
-0.551039
-0.55017
-0.553645
-0.555322
-0.55536
-0.55536
-0.547967
-0.547967
-0.5394
-0.535831
-0.535831
-0.525531
-0.525531
-0.514671
-0.514671
-0.503441
-0.503441
-0.49201
-0.49201
)
;
    }
    procBoundary14to9
    {
        type            processor;
        value           nonuniform List<scalar> 
30
(
-0.493842
-0.489054
-0.484186
-0.480529
-0.479241
-0.503834
-0.499595
-0.495269
-0.493842
-0.490858
-0.510573
-0.506908
-0.50315
-0.503834
-0.499301
-0.514001
-0.510926
-0.507758
-0.510573
-0.504497
-0.516555
-0.514157
-0.511661
-0.509073
-0.514001
-0.506398
-0.511587
-0.509421
-0.516555
-0.507217
)
;
    }
    procBoundary14to20
    {
        type            processor;
        value           nonuniform List<scalar> 2(-0.521321 -0.535797);
    }
    procBoundary14to27
    {
        type            processor;
        value           uniform -0.511586;
    }
}


// ************************************************************************* //
