/*--------------------------------*- C++ -*----------------------------------*\
  =========                 |
  \\      /  F ield         | OpenFOAM: The Open Source CFD Toolbox
   \\    /   O peration     | Website:  https://openfoam.org
    \\  /    A nd           | Version:  7
     \\/     M anipulation  |
\*---------------------------------------------------------------------------*/
FoamFile
{
    version     2.0;
    format      ascii;
    class       volVectorField;
    location    "33.000128";
    object      U;
}
// * * * * * * * * * * * * * * * * * * * * * * * * * * * * * * * * * * * * * //

dimensions      [0 1 -1 0 0 0 0];

internalField   nonuniform List<vector> 
5800
(
(0.0154851 -0.00325083 -4.19921e-22)
(0.0215869 -0.00970631 -1.28979e-20)
(0.0337656 -0.0160215 1.91215e-20)
(0.0519695 -0.0220974 6.14695e-21)
(0.0761164 -0.0278281 -1.62789e-20)
(0.0227877 -0.00290002 2.39258e-21)
(0.0274874 -0.00272784 2.19656e-21)
(0.032028 -0.00262525 -4.09057e-21)
(0.0365425 -0.00256211 1.93586e-21)
(0.0410713 -0.00252668 -1.11951e-21)
(0.0456521 -0.00251346 -3.80307e-22)
(0.0503229 -0.00251741 2.17421e-21)
(0.0551141 -0.00253429 -3.13368e-21)
(0.0600507 -0.00256086 1.36713e-21)
(0.065153 -0.00259459 1.24797e-21)
(0.0704383 -0.00263336 -2.56005e-21)
(0.0759207 -0.00267543 -3.40071e-23)
(0.0816116 -0.00271931 2.04917e-21)
(0.0875199 -0.00276371 -1.61157e-22)
(0.0936522 -0.00280754 -8.31329e-22)
(0.100013 -0.00284985 7.25718e-22)
(0.106605 -0.00288982 -3.40409e-22)
(0.113429 -0.00292678 4.54405e-22)
(0.120484 -0.00296016 -3.34208e-22)
(0.127768 -0.00298953 -2.19511e-22)
(0.135276 -0.00301453 9.31555e-22)
(0.143003 -0.00303492 -2.79895e-22)
(0.150944 -0.00305052 -6.03021e-22)
(0.159091 -0.00306123 3.92211e-22)
(0.167437 -0.00306704 1.21822e-22)
(0.175971 -0.00306796 -4.64164e-22)
(0.184686 -0.00306408 5.27141e-22)
(0.193572 -0.0030555 -4.25399e-22)
(0.202617 -0.00304238 -2.8566e-22)
(0.211812 -0.00302488 8.20673e-22)
(0.221146 -0.00300321 -5.61476e-22)
(0.230608 -0.00297758 -9.0745e-23)
(0.240187 -0.00294821 1.13497e-22)
(0.249872 -0.00291534 6.31709e-24)
(0.259651 -0.00287922 2.71256e-22)
(0.269514 -0.00284008 -3.48742e-22)
(0.27945 -0.00279817 2.88977e-22)
(0.289448 -0.00275374 -3.17315e-24)
(0.299498 -0.00270702 -1.69392e-23)
(0.309588 -0.00265827 -2.96335e-23)
(0.319709 -0.00260771 1.79036e-22)
(0.329852 -0.00255557 -7.17365e-24)
(0.340006 -0.00250207 -7.07305e-23)
(0.350162 -0.00244742 -3.12354e-23)
(0.360311 -0.00239184 1.73168e-23)
(0.370446 -0.0023355 -8.87963e-23)
(0.380557 -0.00227861 1.0971e-22)
(0.390637 -0.00222134 -2.77476e-23)
(0.400678 -0.00216386 5.62951e-23)
(0.410674 -0.00210632 -1.84422e-23)
(0.420618 -0.00204888 1.58986e-24)
(0.430504 -0.00199166 6.63656e-24)
(0.440325 -0.00193482 -2.99811e-23)
(0.450078 -0.00187845 3.29394e-23)
(0.459757 -0.00182268 -2.79103e-23)
(0.469357 -0.00176761 2.44064e-24)
(0.478875 -0.00171334 1.63269e-23)
(0.488307 -0.00165994 -7.29726e-25)
(0.49765 -0.0016075 -5.99973e-24)
(0.506904 -0.00155608 -2.97654e-24)
(0.516056 -0.00150576 -1.34726e-24)
(0.52513 -0.0014565 3.26374e-24)
(0.534068 -0.00140856 -2.5183e-24)
(0.542995 -0.00136127 -1.47812e-24)
(0.551627 -0.00131636 2.92516e-25)
(0.560581 -0.0012691 -2.66558e-25)
(0.568522 -0.00123071 -4.82131e-26)
(0.578272 -0.00117279 8.90972e-25)
(0.583906 -0.0011597 3.07183e-25)
(0.597596 -0.00104754 -9.27777e-25)
(0.0290166 -0.0086554 -9.22094e-22)
(0.033609 -0.00814774 -1.56891e-21)
(0.0380563 -0.00784591 -1.447e-21)
(0.0425101 -0.00765935 2.34191e-22)
(0.0469871 -0.00755472 -9.86929e-22)
(0.0515195 -0.00751617 8.07059e-21)
(0.0561449 -0.00752872 -5.85592e-21)
(0.0608933 -0.00757981 4.21027e-21)
(0.0657885 -0.00765985 -3.2179e-21)
(0.0708502 -0.00776121 -2.09786e-21)
(0.0760951 -0.00787765 2.12009e-21)
(0.081537 -0.0080039 2.03907e-21)
(0.0871868 -0.0081355 -4.53874e-21)
(0.093053 -0.0082686 1.03876e-21)
(0.099142 -0.00839991 -1.78904e-21)
(0.105458 -0.00852658 1.86452e-21)
(0.112003 -0.00864621 -4.29609e-22)
(0.118778 -0.00875678 3.29483e-21)
(0.125782 -0.00885661 -1.38043e-21)
(0.133012 -0.00894437 4.35507e-22)
(0.140463 -0.00901905 6.8061e-22)
(0.148132 -0.0090799 -2.16395e-21)
(0.156012 -0.00912643 2.65439e-22)
(0.164094 -0.00915835 -3.17243e-22)
(0.172373 -0.00917559 9.41665e-24)
(0.180839 -0.00917824 2.39687e-22)
(0.189482 -0.00916651 9.22915e-22)
(0.198294 -0.00914076 -3.26369e-22)
(0.207264 -0.00910144 -6.81625e-22)
(0.216381 -0.00904905 1.23301e-21)
(0.225636 -0.0089842 -2.03612e-21)
(0.235017 -0.00890751 5.12003e-22)
(0.244514 -0.00881967 1.63094e-21)
(0.254115 -0.00872137 -1.08033e-21)
(0.26381 -0.00861334 -4.13519e-22)
(0.273588 -0.00849631 6.15965e-22)
(0.283438 -0.00837101 -9.98215e-22)
(0.293349 -0.00823816 1.39038e-21)
(0.303312 -0.00809851 -5.80089e-22)
(0.313315 -0.00795275 -1.57752e-22)
(0.323349 -0.0078016 1.20835e-22)
(0.333405 -0.00764572 -2.2332e-24)
(0.343472 -0.00748578 5.58507e-23)
(0.353541 -0.00732241 -2.09899e-23)
(0.363605 -0.00715623 1.25603e-22)
(0.373654 -0.00698783 -7.54717e-23)
(0.38368 -0.00681774 1.28421e-22)
(0.393676 -0.00664652 -1.78107e-22)
(0.403634 -0.00647466 -3.97087e-23)
(0.413548 -0.00630263 -5.8476e-23)
(0.42341 -0.00613088 1.61998e-22)
(0.433216 -0.00595982 -1.86056e-22)
(0.442959 -0.00578985 -4.6748e-23)
(0.452633 -0.00562132 5.1902e-23)
(0.462235 -0.00545457 -9.56559e-24)
(0.47176 -0.00528991 -1.35025e-23)
(0.481204 -0.00512761 -6.00657e-24)
(0.490564 -0.00496795 5.81343e-24)
(0.499835 -0.00481114 -2.751e-23)
(0.509018 -0.00465739 1.95667e-23)
(0.518102 -0.00450691 2.81541e-24)
(0.527109 -0.00435961 -8.32779e-25)
(0.535981 -0.00421626 5.75111e-24)
(0.544844 -0.00407485 -3.49849e-24)
(0.553414 -0.00394057 -1.11197e-25)
(0.562306 -0.00379923 -7.40276e-26)
(0.570189 -0.00368451 -5.01197e-25)
(0.579877 -0.00351127 1.41482e-24)
(0.585467 -0.00347227 8.82389e-25)
(0.599076 -0.00313735 8.02369e-24)
(0.0414409 -0.0142756 3.7498e-23)
(0.0458187 -0.0134586 4.77431e-21)
(0.050078 -0.0129753 8.89337e-22)
(0.054408 -0.0126741 -9.26089e-21)
(0.0587794 -0.0125055 -5.55268e-21)
(0.0632127 -0.0124451 5.11564e-21)
(0.0677458 -0.0124686 1.15377e-20)
(0.072407 -0.0125554 -6.38963e-21)
(0.077218 -0.01269 -2.32913e-21)
(0.0821974 -0.0128597 1.30562e-21)
(0.0873607 -0.0130542 2.7982e-21)
(0.0927207 -0.0132648 -3.7993e-21)
(0.0982875 -0.0134841 4.11716e-21)
(0.104069 -0.0137056 -3.56035e-21)
(0.110071 -0.0139238 6.79836e-21)
(0.116296 -0.0141342 -6.45956e-21)
(0.122747 -0.0143327 1.07127e-21)
(0.129424 -0.0145159 -8.27747e-21)
(0.136324 -0.0146812 3.09981e-21)
(0.143446 -0.0148264 -2.05095e-21)
(0.150784 -0.0149498 9.95116e-22)
(0.158335 -0.0150502 7.19606e-21)
(0.166091 -0.0151269 -3.801e-21)
(0.174045 -0.0151794 1.22885e-21)
(0.18219 -0.0152075 -3.22257e-21)
(0.190517 -0.0152115 2.71472e-21)
(0.199018 -0.0151918 -3.57695e-21)
(0.207683 -0.0151489 1.53076e-21)
(0.216501 -0.0150835 -3.86451e-22)
(0.225464 -0.0149966 1.09058e-21)
(0.23456 -0.014889 1.01911e-21)
(0.24378 -0.0147619 1.28258e-21)
(0.253113 -0.0146164 -1.1201e-21)
(0.262548 -0.0144536 2.01413e-22)
(0.272075 -0.0142748 -5.3473e-22)
(0.281683 -0.014081 9.96579e-22)
(0.291362 -0.0138736 -5.43354e-22)
(0.301101 -0.0136537 2.33397e-22)
(0.310891 -0.0134226 -1.06437e-21)
(0.320721 -0.0131814 2.37482e-22)
(0.330582 -0.0129312 3.78443e-22)
(0.340465 -0.0126732 -6.78378e-22)
(0.35036 -0.0124085 5.07844e-22)
(0.360257 -0.0121381 5.34357e-22)
(0.37015 -0.0118631 -3.54098e-22)
(0.380029 -0.0115844 -9.86348e-23)
(0.389887 -0.0113029 -2.89979e-22)
(0.399716 -0.0110195 6.48032e-23)
(0.409509 -0.010735 8.76992e-23)
(0.41926 -0.0104502 1.78424e-22)
(0.428961 -0.0101659 -1.94641e-22)
(0.438607 -0.00988276 1.2115e-22)
(0.448193 -0.00960137 7.69233e-23)
(0.457713 -0.00932235 -8.10632e-23)
(0.467163 -0.00904628 5.1792e-24)
(0.476539 -0.00877364 5.96612e-23)
(0.485835 -0.00850493 -2.17218e-23)
(0.495051 -0.00824055 1.33654e-24)
(0.50418 -0.0079809 3.01264e-23)
(0.513225 -0.0077263 -5.46419e-25)
(0.522173 -0.00747712 3.03124e-23)
(0.531046 -0.00723319 -2.17363e-23)
(0.539788 -0.00699581 -6.22036e-24)
(0.548523 -0.00676163 1.27792e-23)
(0.556969 -0.00653933 -3.5483e-24)
(0.565739 -0.00630521 9.09046e-25)
(0.573507 -0.00611549 4.08793e-25)
(0.583071 -0.00582851 -5.88585e-24)
(0.588574 -0.00576438 -2.23034e-24)
(0.602023 -0.00521125 -1.38487e-23)
(0.0599926 -0.0196656 2.32693e-23)
(0.0640488 -0.0185817 -1.81978e-20)
(0.0680222 -0.0179467 -3.83883e-21)
(0.0721612 -0.0175464 1.99178e-20)
(0.0763689 -0.0173232 -1.4014e-20)
(0.0806489 -0.0172474 2.39646e-21)
(0.0850393 -0.0172864 8.21551e-21)
(0.089566 -0.0174121 -6.84909e-21)
(0.0942478 -0.0176033 -6.29417e-21)
(0.099101 -0.0178429 1.03544e-20)
(0.104139 -0.0181165 3.15946e-21)
(0.109375 -0.0184119 -3.80441e-21)
(0.114815 -0.0187188 -3.69652e-21)
(0.120468 -0.0190283 2.7139e-22)
(0.126337 -0.0193328 7.88747e-21)
(0.132424 -0.0196258 -4.01108e-21)
(0.138732 -0.0199018 -4.39387e-22)
(0.14526 -0.0201563 -4.0457e-21)
(0.152004 -0.0203855 -2.16504e-22)
(0.158962 -0.0205865 1.59613e-21)
(0.16613 -0.0207571 3.70784e-21)
(0.173502 -0.0208958 -4.02726e-21)
(0.181072 -0.0210014 3.29447e-21)
(0.188833 -0.0210734 -1.85346e-21)
(0.196777 -0.0211118 -8.22743e-22)
(0.204897 -0.0211167 -3.56097e-22)
(0.213183 -0.0210887 2.02871e-21)
(0.221627 -0.0210287 2.09734e-21)
(0.230219 -0.0209377 -4.03037e-21)
(0.23895 -0.0208168 -7.73222e-22)
(0.24781 -0.0206675 3.54355e-21)
(0.25679 -0.0204912 -1.18632e-21)
(0.265878 -0.0202894 -2.00529e-21)
(0.275065 -0.0200637 8.651e-22)
(0.284342 -0.0198158 -1.08833e-21)
(0.293697 -0.0195473 1.10481e-21)
(0.303122 -0.01926 -5.95775e-22)
(0.312606 -0.0189554 2.22272e-21)
(0.322139 -0.0186352 2.22033e-22)
(0.331712 -0.0183011 -1.43423e-22)
(0.341317 -0.0179545 -6.69428e-22)
(0.350943 -0.0175972 -9.82938e-22)
(0.360582 -0.0172305 -2.21185e-22)
(0.370225 -0.016856 1.04633e-21)
(0.379864 -0.016475 1.126e-22)
(0.389492 -0.0160888 -3.91399e-22)
(0.399101 -0.0156988 9.13341e-23)
(0.408683 -0.0153062 5.46501e-23)
(0.418231 -0.014912 3.21671e-22)
(0.42774 -0.0145174 -1.75878e-22)
(0.437202 -0.0141235 -1.07197e-22)
(0.446613 -0.013731 1.87768e-23)
(0.455967 -0.013341 2.85658e-22)
(0.465258 -0.0129543 -1.53459e-22)
(0.474483 -0.0125716 -1.58855e-22)
(0.483637 -0.0121937 5.29665e-23)
(0.492716 -0.0118212 1.78652e-23)
(0.501718 -0.0114547 4.40283e-24)
(0.510637 -0.0110947 -8.00165e-23)
(0.519477 -0.0107417 3.73255e-23)
(0.528223 -0.0103962 -8.13284e-24)
(0.5369 -0.010058 8.3658e-24)
(0.545448 -0.00972888 -1.46452e-23)
(0.553995 -0.00940414 -1.19505e-23)
(0.562257 -0.00909603 4.95761e-24)
(0.570846 -0.00877129 -7.77717e-25)
(0.578445 -0.00850875 -2.03957e-24)
(0.587826 -0.00811062 5.92904e-24)
(0.593201 -0.00802262 1.06814e-24)
(0.606412 -0.00725879 2.25751e-23)
(0.0845659 -0.0247229 1.92493e-20)
(0.0881949 -0.0234301 -7.14873e-21)
(0.0917807 -0.0226857 4.3016e-21)
(0.0956555 -0.022209 -2.95328e-20)
(0.0996359 -0.0219458 1.37315e-20)
(0.103703 -0.0218653 -1.75947e-20)
(0.107896 -0.0219272 1.94884e-20)
(0.112237 -0.0220973 -1.77787e-20)
(0.116741 -0.0223492 -4.11159e-21)
(0.121421 -0.0226614 3.49755e-20)
(0.12629 -0.0230159 -1.91185e-20)
(0.131354 -0.0233972 1.57166e-20)
(0.136623 -0.0237921 -3.57897e-21)
(0.1421 -0.0241893 -3.28213e-22)
(0.147789 -0.0245791 -9.17745e-21)
(0.153691 -0.0249533 -3.81296e-21)
(0.159805 -0.0253052 -1.72301e-21)
(0.16613 -0.025629 4.446e-21)
(0.172664 -0.0259201 -1.05768e-20)
(0.179402 -0.026175 5.23895e-21)
(0.186339 -0.0263909 -2.71161e-21)
(0.193471 -0.026566 1.42112e-21)
(0.200792 -0.0266991 2.7539e-21)
(0.208293 -0.0267895 5.15662e-21)
(0.215969 -0.0268372 -3.28359e-21)
(0.223811 -0.0268426 -2.67446e-21)
(0.231812 -0.0268063 2.08927e-21)
(0.239963 -0.0267295 3.20384e-22)
(0.248254 -0.0266135 1.99472e-21)
(0.256678 -0.0264598 -1.63108e-21)
(0.265225 -0.0262702 -2.013e-21)
(0.273886 -0.0260464 3.18023e-21)
(0.282651 -0.0257904 -2.64436e-21)
(0.291512 -0.0255042 1.75698e-21)
(0.300458 -0.0251899 6.14845e-22)
(0.309481 -0.0248496 -1.04828e-21)
(0.31857 -0.0244854 -5.91919e-22)
(0.327717 -0.0240994 7.69194e-22)
(0.336913 -0.0236936 -1.28931e-21)
(0.346149 -0.0232701 3.4312e-22)
(0.355416 -0.022831 -4.16466e-22)
(0.364705 -0.0223781 1.50558e-22)
(0.374008 -0.0219134 -1.33104e-22)
(0.383318 -0.0214386 6.12365e-22)
(0.392625 -0.0209557 -5.69088e-22)
(0.401924 -0.0204662 3.65995e-22)
(0.411205 -0.0199717 -6.78956e-22)
(0.420464 -0.0194739 2.36886e-22)
(0.429692 -0.0189741 6.04654e-22)
(0.438884 -0.0184737 -4.62996e-22)
(0.448034 -0.017974 -2.83888e-22)
(0.457137 -0.0174763 3.52988e-22)
(0.466187 -0.0169816 -2.50535e-22)
(0.475179 -0.016491 1.25162e-22)
(0.484109 -0.0160055 1.93458e-23)
(0.492973 -0.015526 2.80304e-23)
(0.501768 -0.0150533 -1.46347e-22)
(0.51049 -0.0145881 4.69783e-23)
(0.519136 -0.0141313 -2.08445e-24)
(0.527706 -0.0136832 5.43287e-23)
(0.53619 -0.0132447 -8.12526e-23)
(0.544608 -0.0128154 2.99666e-23)
(0.552905 -0.0123977 8.26033e-24)
(0.561204 -0.0119855 6.09739e-24)
(0.569227 -0.0115946 -5.97035e-25)
(0.577578 -0.0111822 2.20574e-24)
(0.584956 -0.0108498 -1.08188e-24)
(0.594097 -0.0103441 4.83148e-24)
(0.599305 -0.010234 -5.03353e-24)
(0.612204 -0.0092697 -5.58275e-23)
(0.115013 -0.0293347 -8.85374e-21)
(0.118111 -0.0279058 7.79395e-21)
(0.121204 -0.0271074 5.1644e-21)
(0.124735 -0.0265858 -3.41047e-20)
(0.128418 -0.0263037 3.48091e-20)
(0.132208 -0.0262343 -4.03643e-22)
(0.136143 -0.0263311 -2.28473e-20)
(0.140243 -0.0265542 1.40353e-20)
(0.144517 -0.0268731 4.00883e-21)
(0.148975 -0.0272628 4.07888e-21)
(0.153624 -0.0277014 -1.60558e-20)
(0.158471 -0.0281705 -1.36335e-20)
(0.163519 -0.0286542 4.93767e-21)
(0.168772 -0.0291389 1.23984e-20)
(0.174231 -0.0296132 -7.29758e-21)
(0.179895 -0.0300672 1.93845e-20)
(0.185762 -0.030493 -2.08211e-20)
(0.19183 -0.0308839 2.22895e-20)
(0.198096 -0.0312346 -6.22222e-21)
(0.204554 -0.0315411 -1.49769e-20)
(0.211201 -0.0318002 1.262e-20)
(0.21803 -0.03201 -1.31903e-21)
(0.225036 -0.032169 -1.97397e-21)
(0.232212 -0.0322767 5.46731e-21)
(0.239551 -0.0323331 -3.96029e-21)
(0.247047 -0.0323386 -8.73534e-21)
(0.254691 -0.0322943 6.99298e-21)
(0.262476 -0.0322015 -1.61747e-21)
(0.270393 -0.0320617 -1.37475e-21)
(0.278436 -0.0318768 2.68019e-21)
(0.286595 -0.0316489 5.00948e-21)
(0.294861 -0.0313801 -1.57962e-21)
(0.303228 -0.0310728 -8.79685e-21)
(0.311684 -0.0307293 6.42632e-21)
(0.320223 -0.0303522 -3.09306e-21)
(0.328836 -0.0299439 9.82254e-22)
(0.337513 -0.0295069 2.23717e-21)
(0.346247 -0.0290437 -8.72135e-22)
(0.355029 -0.0285568 -3.79452e-23)
(0.36385 -0.0280487 5.12965e-22)
(0.372703 -0.0275217 -1.56794e-21)
(0.38158 -0.0269782 -6.90638e-22)
(0.390472 -0.0264204 1.66942e-21)
(0.399373 -0.0258506 3.90038e-22)
(0.408274 -0.0252708 -1.034e-21)
(0.41717 -0.0246831 3.7193e-22)
(0.426052 -0.0240893 -2.67229e-22)
(0.434915 -0.0234914 -6.29732e-22)
(0.443752 -0.0228911 -4.82033e-23)
(0.452558 -0.02229 7.07377e-22)
(0.461327 -0.0216897 2.99726e-22)
(0.470053 -0.0210916 2.94426e-22)
(0.478732 -0.0204971 -1.60964e-22)
(0.487359 -0.0199075 2.75409e-22)
(0.49593 -0.0193239 -3.56362e-22)
(0.504441 -0.0187474 1.77996e-22)
(0.512889 -0.0181791 -1.54935e-22)
(0.52127 -0.0176198 8.78156e-24)
(0.529582 -0.0170704 9.24696e-23)
(0.537825 -0.0165316 -8.02948e-23)
(0.545987 -0.0160042 4.12668e-23)
(0.554091 -0.0154878 -2.862e-23)
(0.56208 -0.0149855 -4.27587e-23)
(0.570079 -0.0144895 -1.43743e-23)
(0.577809 -0.0140198 1.99094e-24)
(0.585871 -0.0135234 -2.54301e-25)
(0.59298 -0.013125 -1.91159e-24)
(0.601828 -0.0125162 5.62822e-24)
(0.606832 -0.0123859 3.07082e-24)
(0.619349 -0.011234 2.69473e-23)
(0.151137 -0.0333781 2.96375e-20)
(0.153605 -0.0318998 -2.22482e-20)
(0.156097 -0.0311163 3.63196e-20)
(0.159199 -0.030591 -1.36274e-20)
(0.16251 -0.0303189 1.06012e-20)
(0.165952 -0.0302831 -2.73348e-20)
(0.169565 -0.030432 4.37797e-21)
(0.173364 -0.0307211 -9.23829e-22)
(0.177353 -0.031117 5.99286e-21)
(0.181534 -0.0315913 1.59787e-20)
(0.185912 -0.0321191 -1.29419e-20)
(0.190489 -0.0326792 8.82598e-21)
(0.195267 -0.0332532 5.04341e-21)
(0.200244 -0.0338258 1.74906e-21)
(0.205419 -0.0343838 -1.4915e-20)
(0.210791 -0.0349161 8.22502e-21)
(0.216355 -0.0354138 -1.19139e-20)
(0.222108 -0.0358695 1.47899e-21)
(0.228045 -0.0362774 -2.45699e-22)
(0.234163 -0.0366331 1.43754e-20)
(0.240455 -0.0369334 -1.22224e-20)
(0.246917 -0.037176 -1.56412e-21)
(0.253542 -0.0373597 -2.61587e-21)
(0.260325 -0.0374838 1.16735e-20)
(0.267259 -0.0375486 -4.21621e-21)
(0.274338 -0.0375547 -3.85843e-21)
(0.281555 -0.0375032 -2.23739e-21)
(0.288903 -0.0373957 8.59407e-21)
(0.296375 -0.037234 -3.11229e-21)
(0.303964 -0.0370204 -3.94053e-21)
(0.311662 -0.0367571 -3.10932e-21)
(0.319462 -0.0364467 8.67709e-21)
(0.327356 -0.0360919 -2.36425e-21)
(0.335336 -0.0356953 -8.05104e-22)
(0.343395 -0.0352598 -1.71935e-21)
(0.351524 -0.0347883 -1.34168e-21)
(0.359717 -0.0342837 1.38076e-21)
(0.367964 -0.0337487 1.23939e-21)
(0.37626 -0.0331863 -1.33009e-21)
(0.384595 -0.0325993 -1.99947e-21)
(0.392964 -0.0319904 2.61026e-21)
(0.401357 -0.0313622 -3.99778e-22)
(0.409769 -0.0307175 8.97983e-25)
(0.418191 -0.0300587 -5.19728e-22)
(0.426618 -0.0293882 8.45646e-22)
(0.435043 -0.0287085 -1.02084e-21)
(0.443459 -0.0280216 1.17994e-21)
(0.451861 -0.0273299 -3.47736e-23)
(0.460242 -0.0266351 -1.00983e-22)
(0.468598 -0.0259394 -3.06349e-22)
(0.476922 -0.0252444 -3.61071e-22)
(0.48521 -0.0245519 1.25525e-22)
(0.493457 -0.0238635 2.92474e-22)
(0.501658 -0.0231805 -6.57837e-22)
(0.509811 -0.0225045 4.53536e-22)
(0.517911 -0.0218366 -2.38844e-22)
(0.525955 -0.021178 8.75626e-23)
(0.53394 -0.0205299 4.86839e-23)
(0.541862 -0.0198932 -8.03441e-23)
(0.549724 -0.0192686 -1.58176e-23)
(0.557512 -0.0186572 4.54406e-23)
(0.565251 -0.0180586 -1.49061e-23)
(0.572882 -0.0174763 1.87014e-23)
(0.580531 -0.0169012 3.82469e-23)
(0.587921 -0.0163571 3.09027e-24)
(0.595646 -0.0157812 1.35874e-24)
(0.602441 -0.0153211 7.55813e-25)
(0.610948 -0.0146147 -3.92963e-24)
(0.615716 -0.0144666 -2.82671e-24)
(0.627787 -0.0131421 -1.66894e-24)
(0.192686 -0.0367235 1.57256e-20)
(0.194427 -0.035294 3.19045e-20)
(0.196212 -0.0346067 -3.73511e-20)
(0.198799 -0.0341292 -8.79471e-22)
(0.201658 -0.0339052 8.05103e-21)
(0.204678 -0.0339337 -7.10551e-21)
(0.207901 -0.0341586 -1.43711e-20)
(0.211337 -0.0345322 -1.59825e-21)
(0.214981 -0.0350189 3.4432e-20)
(0.21883 -0.035588 -1.34913e-21)
(0.222882 -0.0362122 -2.96273e-21)
(0.227136 -0.0368678 -5.18969e-21)
(0.231587 -0.0375348 4.54996e-21)
(0.236233 -0.038196 -3.53321e-21)
(0.241068 -0.0388372 4.62941e-21)
(0.246088 -0.0394465 -1.25227e-20)
(0.251289 -0.0400142 -1.00086e-20)
(0.256666 -0.0405325 1.43437e-20)
(0.262213 -0.0409955 9.10057e-22)
(0.267925 -0.0413984 -6.58957e-21)
(0.273798 -0.0417381 1.47658e-20)
(0.279826 -0.0420123 -2.35614e-21)
(0.286003 -0.0422199 -1.19728e-21)
(0.292325 -0.0423603 -1.20895e-20)
(0.298785 -0.0424339 9.7137e-22)
(0.305378 -0.0424415 1.00354e-20)
(0.312098 -0.0423845 -4.087e-21)
(0.31894 -0.0422647 -6.25349e-21)
(0.325897 -0.0420841 4.04909e-21)
(0.332962 -0.0418451 -1.02877e-21)
(0.340129 -0.0415504 1.22427e-21)
(0.347393 -0.0412029 3.6592e-21)
(0.354745 -0.0408054 -9.87938e-22)
(0.362179 -0.0403609 -4.61064e-21)
(0.369689 -0.0398728 4.87246e-21)
(0.377268 -0.0393441 8.86696e-22)
(0.384908 -0.0387779 1.15111e-21)
(0.392603 -0.0381777 -5.76195e-22)
(0.400346 -0.0375464 -5.19346e-21)
(0.40813 -0.0368872 2.4784e-21)
(0.415948 -0.0362033 3.9564e-22)
(0.423794 -0.0354976 -1.35794e-22)
(0.431662 -0.034773 4.71198e-22)
(0.439544 -0.0340324 1.49016e-22)
(0.447435 -0.0332785 -2.99309e-22)
(0.455328 -0.0325139 1.46574e-22)
(0.463218 -0.0317411 2.22819e-22)
(0.471099 -0.0309626 -3.70503e-22)
(0.478966 -0.0301806 1.93452e-22)
(0.486814 -0.0293972 2.59204e-22)
(0.494637 -0.0286146 -3.0427e-22)
(0.502431 -0.0278345 -2.53043e-22)
(0.510191 -0.0270587 1.0847e-22)
(0.517914 -0.0262891 5.51852e-23)
(0.525596 -0.025527 1.73993e-23)
(0.533233 -0.024774 1.28232e-22)
(0.540823 -0.0240314 -5.03463e-23)
(0.548362 -0.0233005 -3.23026e-22)
(0.555846 -0.0225823 -5.06935e-23)
(0.563279 -0.0218777 -3.63727e-23)
(0.570647 -0.021188 4.32299e-23)
(0.577974 -0.0205125 3.0477e-23)
(0.585203 -0.0198557 -4.4057e-23)
(0.592458 -0.0192065 -4.29161e-24)
(0.599465 -0.0185933 -1.1274e-23)
(0.60681 -0.017943 -6.9682e-24)
(0.613254 -0.0174262 -1.59037e-24)
(0.621375 -0.0166284 8.16841e-24)
(0.62588 -0.016465 -1.00045e-24)
(0.637445 -0.0149847 9.42808e-24)
(0.239342 -0.0392364 -3.11338e-20)
(0.24027 -0.0379632 3.81637e-20)
(0.241248 -0.0374653 4.84319e-20)
(0.243231 -0.037098 -5.57649e-20)
(0.245559 -0.0369704 -3.42096e-20)
(0.248083 -0.0371028 2.46465e-20)
(0.250847 -0.0374353 2.25551e-20)
(0.253857 -0.0379178 3.14779e-20)
(0.257096 -0.0385139 -3.70921e-20)
(0.260554 -0.0391914 -2.76327e-22)
(0.264224 -0.0399214 -2.76606e-20)
(0.268096 -0.0406787 7.99562e-21)
(0.272163 -0.041442 2.13521e-20)
(0.276417 -0.0421934 -1.6589e-21)
(0.280851 -0.0429178 -1.18303e-20)
(0.285458 -0.0436031 3.32679e-21)
(0.290232 -0.0442392 6.65792e-21)
(0.295167 -0.0448185 -1.13663e-20)
(0.300257 -0.0453347 2.3936e-20)
(0.305497 -0.0457835 -1.11186e-20)
(0.310882 -0.0461616 -5.92295e-21)
(0.316407 -0.046467 1.3586e-20)
(0.322068 -0.0466986 -1.29242e-20)
(0.32786 -0.0468562 4.35165e-21)
(0.333778 -0.0469401 1.6502e-21)
(0.339817 -0.0469515 4.97277e-21)
(0.345973 -0.0468918 -3.82094e-21)
(0.35224 -0.0467631 -5.57266e-21)
(0.358614 -0.0465676 1.58268e-21)
(0.36509 -0.046308 -2.4431e-21)
(0.371661 -0.0459871 1.11634e-20)
(0.378322 -0.045608 -4.38225e-21)
(0.385068 -0.0451739 -6.7875e-21)
(0.391894 -0.0446882 8.90678e-21)
(0.398792 -0.0441541 -5.39045e-21)
(0.405757 -0.0435752 -1.11535e-21)
(0.412784 -0.042955 2.71209e-21)
(0.419865 -0.042297 -9.86986e-22)
(0.426996 -0.0416046 2.09377e-21)
(0.434169 -0.0408812 -8.3364e-22)
(0.44138 -0.0401303 1.55206e-21)
(0.448622 -0.039355 -3.36489e-21)
(0.455888 -0.0385587 2.18392e-21)
(0.463175 -0.0377445 1.20109e-21)
(0.470475 -0.0369152 -2.25433e-21)
(0.477783 -0.036074 -8.62686e-24)
(0.485095 -0.0352234 1.35998e-21)
(0.492404 -0.0343661 -1.66813e-21)
(0.499705 -0.0335047 1.78431e-21)
(0.506995 -0.0326415 -4.64852e-22)
(0.514268 -0.0317788 8.12175e-23)
(0.52152 -0.0309188 -7.44632e-23)
(0.528747 -0.0300632 1.38868e-23)
(0.535945 -0.0292142 -2.85346e-22)
(0.543111 -0.0283733 3.39355e-22)
(0.55024 -0.0275422 1.12605e-22)
(0.557331 -0.0267225 4.97012e-23)
(0.564381 -0.0259154 -5.64289e-24)
(0.571386 -0.0251222 2.31863e-22)
(0.578349 -0.024344 -1.54023e-22)
(0.585257 -0.0235822 1.23556e-22)
(0.592133 -0.0228359 -1.74996e-23)
(0.598921 -0.0221104 5.98425e-23)
(0.605744 -0.0213931 -1.18195e-23)
(0.612332 -0.0207164 -2.41794e-24)
(0.619262 -0.0199973 2.96553e-24)
(0.62532 -0.0194292 -9.17892e-25)
(0.633018 -0.0185469 -1.21519e-23)
(0.637235 -0.0183708 2.49802e-24)
(0.648244 -0.0167534 1.98167e-23)
(0.290755 -0.0397783 -4.78168e-21)
(0.290836 -0.0395742 -8.12796e-20)
(0.292135 -0.0393909 8.76069e-20)
(0.293858 -0.0394189 -4.41659e-20)
(0.295815 -0.0397049 -3.67696e-21)
(0.298056 -0.0401848 3.4473e-20)
(0.300577 -0.0408068 -3.67347e-20)
(0.303352 -0.0415353 -5.27563e-21)
(0.30636 -0.0423381 2.67581e-20)
(0.309587 -0.0431855 -6.04632e-21)
(0.313017 -0.0440519 -2.72333e-20)
(0.316637 -0.0449159 4.67046e-20)
(0.320435 -0.0457594 -1.27464e-20)
(0.324402 -0.0465676 -1.97781e-20)
(0.328529 -0.0473284 2.23817e-20)
(0.332807 -0.0480321 2.44832e-21)
(0.337231 -0.0486713 -1.00955e-20)
(0.341795 -0.0492401 -1.14377e-20)
(0.346492 -0.0497343 -1.32324e-20)
(0.35132 -0.0501511 7.16901e-21)
(0.356274 -0.0504885 4.77833e-21)
(0.361349 -0.0507458 7.84047e-21)
(0.366543 -0.0509227 -1.12901e-20)
(0.371851 -0.05102 6.50968e-21)
(0.377269 -0.0510388 -9.64514e-22)
(0.382795 -0.0509808 -5.54377e-21)
(0.388424 -0.0508482 3.71879e-21)
(0.394152 -0.0506434 3.61343e-22)
(0.399975 -0.0503693 -7.55041e-21)
(0.405888 -0.0500288 2.38128e-21)
(0.411888 -0.0496252 4.65003e-21)
(0.417969 -0.0491619 -2.79479e-21)
(0.424127 -0.0486425 1.3886e-21)
(0.430357 -0.0480706 2.95705e-21)
(0.436654 -0.0474499 -4.66025e-21)
(0.443012 -0.0467841 2.25023e-21)
(0.449426 -0.046077 2.43803e-21)
(0.455892 -0.0453323 -2.13175e-21)
(0.462404 -0.0445536 3.05948e-22)
(0.468957 -0.0437447 -2.72181e-21)
(0.475545 -0.042909 1.50079e-21)
(0.482163 -0.0420501 8.55257e-22)
(0.488806 -0.0411712 3.35652e-22)
(0.495469 -0.0402757 -1.37943e-21)
(0.502147 -0.0393666 -3.08775e-22)
(0.508835 -0.0384471 2.53493e-21)
(0.515529 -0.0375199 -2.25415e-22)
(0.522223 -0.0365877 -1.30287e-21)
(0.528913 -0.0356533 1.48823e-23)
(0.535595 -0.034719 -2.08582e-22)
(0.542265 -0.0337872 1.94235e-22)
(0.548919 -0.03286 9.75288e-23)
(0.555553 -0.0319395 1.86478e-22)
(0.562164 -0.0310276 -1.91604e-22)
(0.56875 -0.030126 -1.65307e-23)
(0.575306 -0.0292365 -1.82554e-22)
(0.581832 -0.0283605 2.9913e-24)
(0.588323 -0.0274995 -1.94741e-23)
(0.594781 -0.0266545 3.45394e-23)
(0.601195 -0.0258273 -7.11753e-23)
(0.607588 -0.0250167 -7.24685e-23)
(0.613904 -0.0242291 2.11895e-23)
(0.620264 -0.0234497 -5.1279e-23)
(0.626403 -0.0227158 3.75853e-23)
(0.632886 -0.0219339 -2.05981e-24)
(0.638533 -0.0213205 -3.9478e-24)
(0.645775 -0.0203613 8.30062e-24)
(0.649686 -0.0201751 1.19282e-24)
(0.660093 -0.0184402 -1.22006e-23)
(0.345426 -0.040613 -4.66676e-20)
(0.344543 -0.0408171 2.00995e-20)
(0.34509 -0.040903 -1.38548e-20)
(0.346145 -0.0411572 -1.23384e-20)
(0.347477 -0.0416564 2.89889e-21)
(0.349136 -0.042331 -1.78499e-21)
(0.351113 -0.0431288 5.56893e-21)
(0.353366 -0.0440166 2.98911e-20)
(0.355865 -0.0449638 -4.67026e-20)
(0.358587 -0.0459417 3.44925e-20)
(0.36151 -0.0469257 1.01123e-20)
(0.364617 -0.0478953 -5.21116e-20)
(0.36789 -0.0488336 4.82802e-20)
(0.371319 -0.0497267 -1.89864e-20)
(0.374893 -0.0505634 7.06616e-22)
(0.378603 -0.0513348 1.13328e-20)
(0.382443 -0.0520342 -1.79667e-20)
(0.386407 -0.0526563 7.90842e-21)
(0.39049 -0.0531973 -1.66592e-20)
(0.39469 -0.0536546 -6.10423e-21)
(0.399001 -0.0540267 2.47198e-20)
(0.403423 -0.054313 -3.75026e-21)
(0.407951 -0.0545135 2.65841e-21)
(0.412584 -0.0546289 6.98315e-21)
(0.417318 -0.0546607 -1.61768e-21)
(0.422152 -0.0546106 -5.87311e-21)
(0.427081 -0.0544808 -7.39014e-21)
(0.432105 -0.0542739 8.17611e-21)
(0.437218 -0.0539929 3.98615e-23)
(0.442418 -0.0536409 -4.82399e-21)
(0.447702 -0.0532213 1.69853e-21)
(0.453066 -0.0527377 4.9639e-21)
(0.458506 -0.0521937 -9.68055e-21)
(0.464017 -0.0515933 2.33145e-21)
(0.469597 -0.0509403 3.10461e-21)
(0.47524 -0.0502387 9.1104e-22)
(0.480943 -0.0494923 -3.7313e-21)
(0.4867 -0.0487052 1.4337e-23)
(0.492507 -0.0478812 -4.76846e-22)
(0.498359 -0.0470242 3.47319e-21)
(0.504253 -0.046138 -2.1694e-21)
(0.510183 -0.0452263 -1.51834e-22)
(0.516144 -0.0442927 1.45128e-21)
(0.522132 -0.0433406 -1.83631e-23)
(0.528143 -0.0423735 -1.55215e-21)
(0.534172 -0.0413946 2.15226e-21)
(0.540215 -0.0404069 -3.30833e-22)
(0.546267 -0.0394133 -1.31577e-21)
(0.552324 -0.0384168 8.16111e-22)
(0.558382 -0.0374199 -3.16453e-22)
(0.564438 -0.0364252 -1.41561e-22)
(0.570488 -0.0354349 -1.16375e-22)
(0.576528 -0.0344514 2.80086e-22)
(0.582556 -0.0334767 -4.91283e-22)
(0.588568 -0.0325128 1.07781e-22)
(0.594562 -0.0315614 -6.20068e-23)
(0.600535 -0.0306242 2.18036e-22)
(0.606485 -0.0297028 1.29413e-22)
(0.612413 -0.0287983 -1.14513e-22)
(0.618307 -0.0279128 5.33189e-23)
(0.624191 -0.0270449 8.36134e-23)
(0.630009 -0.0262018 -4.70508e-23)
(0.635882 -0.025367 3.10089e-23)
(0.641549 -0.0245825 -1.90507e-24)
(0.647562 -0.0237443 2.84383e-24)
(0.652776 -0.0230916 -2.08693e-24)
(0.659537 -0.0220636 -9.37919e-24)
(0.663128 -0.0218699 -1.5441e-24)
(0.672897 -0.0200377 -6.19838e-24)
(0.403745 -0.0403527 2.66085e-20)
(0.401862 -0.0410877 -2.52564e-20)
(0.401617 -0.0415385 8.49307e-21)
(0.401962 -0.0421002 2.14711e-20)
(0.402626 -0.0428805 -3.97985e-20)
(0.403661 -0.0438031 1.18843e-20)
(0.405045 -0.0448165 5.70126e-20)
(0.406722 -0.0458926 -1.83515e-20)
(0.408654 -0.0470045 -3.39643e-20)
(0.410806 -0.0481263 2.87277e-20)
(0.413153 -0.0492364 -8.6836e-21)
(0.415673 -0.050317 2.21481e-20)
(0.418347 -0.0513533 -2.87329e-20)
(0.421161 -0.0523335 -3.14393e-20)
(0.424104 -0.0532478 5.15488e-20)
(0.427169 -0.0540888 -4.75309e-20)
(0.430349 -0.0548506 2.78937e-20)
(0.433638 -0.0555287 2.26818e-20)
(0.437034 -0.0561199 -4.37328e-20)
(0.440534 -0.056622 3.34302e-20)
(0.444135 -0.0570337 -1.62627e-20)
(0.447835 -0.0573547 -1.2514e-20)
(0.451634 -0.0575851 3.03834e-21)
(0.455529 -0.0577258 2.4662e-20)
(0.45952 -0.0577781 -2.95298e-20)
(0.463603 -0.057744 2.69427e-20)
(0.467779 -0.0576257 6.14346e-21)
(0.472044 -0.0574258 -4.92792e-21)
(0.476397 -0.0571474 -1.80716e-20)
(0.480836 -0.0567937 4.75392e-21)
(0.485357 -0.0563682 7.23425e-21)
(0.489958 -0.0558745 -7.08921e-21)
(0.494637 -0.0553166 5.1325e-21)
(0.499389 -0.0546983 -2.81115e-21)
(0.504212 -0.0540237 1.67138e-21)
(0.509102 -0.053297 -1.64338e-21)
(0.514055 -0.0525222 9.90729e-22)
(0.519067 -0.0517035 3.0045e-22)
(0.524135 -0.050845 -8.55692e-22)
(0.529255 -0.0499508 2.08432e-21)
(0.534422 -0.0490249 -2.59932e-21)
(0.539633 -0.0480711 -9.25516e-22)
(0.544883 -0.0470932 3.12372e-22)
(0.550168 -0.0460951 2.98021e-23)
(0.555483 -0.0450802 -7.0318e-22)
(0.560826 -0.044052 2.1455e-21)
(0.566192 -0.0430137 -4.59841e-22)
(0.571576 -0.0419686 -7.26479e-22)
(0.576976 -0.0409196 -8.06108e-22)
(0.582387 -0.0398695 1.48215e-21)
(0.587805 -0.0388211 -5.78911e-23)
(0.593229 -0.0377769 6.96919e-22)
(0.598653 -0.0367392 -1.35347e-21)
(0.604075 -0.0357103 7.77449e-22)
(0.609493 -0.0346924 1.11467e-22)
(0.614904 -0.0336873 -1.30175e-22)
(0.620305 -0.0326969 1.88682e-22)
(0.625693 -0.0317229 -2.62615e-22)
(0.631072 -0.0307666 3.30852e-24)
(0.636428 -0.0298302 -9.47236e-24)
(0.641786 -0.0289122 -1.02283e-22)
(0.647089 -0.0280207 2.30987e-23)
(0.652457 -0.0271373 -1.80733e-23)
(0.657635 -0.0263089 1.3771e-23)
(0.663161 -0.0254211 -2.95712e-24)
(0.667927 -0.0247355 2.00087e-24)
(0.674189 -0.0236472 8.72845e-24)
(0.677451 -0.0234483 -2.93731e-24)
(0.686554 -0.0215395 3.25629e-24)
(0.462226 -0.0402994 -2.97912e-20)
(0.461186 -0.04122 3.04844e-20)
(0.460812 -0.0421787 -6.53532e-20)
(0.460791 -0.0433134 9.619e-21)
(0.461173 -0.0445392 2.58182e-20)
(0.461924 -0.0458081 -1.29399e-20)
(0.462976 -0.0471007 -7.46562e-21)