/*--------------------------------*- C++ -*----------------------------------*\
  =========                 |
  \\      /  F ield         | OpenFOAM: The Open Source CFD Toolbox
   \\    /   O peration     | Website:  https://openfoam.org
    \\  /    A nd           | Version:  7
     \\/     M anipulation  |
\*---------------------------------------------------------------------------*/
FoamFile
{
    version     2.0;
    format      ascii;
    class       surfaceScalarField;
    location    "8.8";
    object      phi;
}
// * * * * * * * * * * * * * * * * * * * * * * * * * * * * * * * * * * * * * //

dimensions      [0 3 -1 0 0 0 0];

internalField   nonuniform List<scalar> 
615
(
0.000127322
-4.55306e-06
0.00012884
-4.78871e-06
0.000130412
-4.97575e-06
0.000132024
-5.11783e-06
0.000133664
-5.21909e-06
0.00013532
-5.28395e-06
0.000136982
-5.31684e-06
0.000138642
-5.32208e-06
0.000140294
-5.30376e-06
0.00014193
-5.26569e-06
0.000143546
-5.21129e-06
0.000145139
-5.14367e-06
0.000146705
-5.06555e-06
0.000148243
-4.9793e-06
0.000149749
-4.88698e-06
0.000151223
-4.79032e-06
0.000152665
-4.69081e-06
0.000154073
-4.58968e-06
0.000155449
-4.48795e-06
0.000156791
-4.38643e-06
0.0001581
-4.28581e-06
0.000159377
-4.1866e-06
0.000160622
-4.08921e-06
0.000161836
-3.99395e-06
0.000163019
-3.90103e-06
0.000164173
-3.81063e-06
0.000165299
-3.72282e-06
0.000166396
-3.63766e-06
0.000167467
-3.55517e-06
0.000168511
-3.47532e-06
0.00016953
-3.39807e-06
0.000170524
-3.32336e-06
0.000171495
-3.25113e-06
0.000172443
-3.18129e-06
0.000173368
-3.11376e-06
0.000174272
-3.04844e-06
0.000175156
-2.98524e-06
0.000176019
-2.92407e-06
0.000176863
-2.86484e-06
0.000177688
-2.80746e-06
0.000178495
-2.75184e-06
0.000179284
-2.6979e-06
0.000180056
-2.64555e-06
0.000180812
-2.59472e-06
0.000181551
-2.54535e-06
0.000182275
-2.49735e-06
0.000182984
-2.45067e-06
0.000183679
-2.40525e-06
0.000184359
-2.36102e-06
0.000185025
-2.31794e-06
0.000185678
-2.27596e-06
0.000186318
-2.23502e-06
0.000186945
-2.19509e-06
0.000187559
-2.15612e-06
0.000188162
-2.11808e-06
0.000188753
-2.08093e-06
0.000189332
-2.04463e-06
-2.00915e-06
0.00014048
-4.20518e-07
0.000140844
-1.26555e-06
0.000141447
-2.09524e-06
0.000142278
-2.89057e-06
0.000143319
-3.63644e-06
0.000144553
-4.32121e-06
0.000145957
-4.93656e-06
0.000147509
-5.47746e-06
0.000149185
-5.94205e-06
0.000150963
-6.33111e-06
0.000152822
-6.64759e-06
0.000154742
-6.89598e-06
0.000156706
-7.08183e-06
0.000158698
-7.21129e-06
0.000160705
-7.29075e-06
0.000162715
-7.32655e-06
0.000164717
-7.32479e-06
0.000166705
-7.29119e-06
0.00016867
-7.23098e-06
0.000170608
-7.14889e-06
0.000172513
-7.04914e-06
0.000174383
-6.93543e-06
0.000176215
-6.81096e-06
0.000178006
-6.67851e-06
0.000179756
-6.54042e-06
0.000181464
-6.39867e-06
0.00018313
-6.25492e-06
0.000184752
-6.11053e-06
0.000186332
-5.96661e-06
0.000187871
-5.82406e-06
0.000189368
-5.68358e-06
0.000190824
-5.54573e-06
0.000192241
-5.41092e-06
0.000193619
-5.27945e-06
0.00019496
-5.15154e-06
0.000196265
-5.02731e-06
0.000197534
-4.90684e-06
0.000198769
-4.79014e-06
0.000199971
-4.6772e-06
0.000201141
-4.56797e-06
0.00020228
-4.46235e-06
0.000203389
-4.36027e-06
0.000204469
-4.26161e-06
0.000205522
-4.16626e-06
0.000206547
-4.07408e-06
0.000207547
-3.98496e-06
0.000208522
-3.89878e-06
0.000209472
-3.81539e-06
0.0002104
-3.73468e-06
0.000211304
-3.65654e-06
0.000212187
-3.58083e-06
0.000213049
-3.50746e-06
0.000213891
-3.43631e-06
0.000214713
-3.36728e-06
0.000215516
-3.30028e-06
0.0002163
-3.23521e-06
0.000217067
-3.17199e-06
0.000217816
-3.11053e-06
0.000218549
-3.05076e-06
0.000219266
-2.9926e-06
0.000219967
-2.93599e-06
0.000220652
-2.88085e-06
0.000221324
-2.82714e-06
0.00022198
-2.7748e-06
0.000222623
-2.72376e-06
0.000223252
-2.67398e-06
-2.62541e-06
0.000162102
-5.69914e-07
0.000162552
-1.71572e-06
0.000163296
-2.83947e-06
0.00016432
-3.91375e-06
0.0001656
-4.91717e-06
0.000167113
-5.83366e-06
0.000168828
-6.65218e-06
0.000170718
-7.36658e-06
0.000172751
-7.9752e-06
0.0001749
-8.48011e-06
0.000177138
-8.88621e-06
0.000179443
-9.20041e-06
0.000181792
-9.43085e-06
0.000184167
-9.58631e-06
0.000186552
-9.67573e-06
0.000188933
-9.70781e-06
0.000191299
-9.69084e-06
0.00019364
-9.63248e-06
0.000195949
-9.5397e-06
0.000198219
-9.41875e-06
0.000200445
-9.27518e-06
0.000202623
-9.11382e-06
0.000204751
-8.93887e-06
0.000206827
-8.75391e-06
0.000208848
-8.56202e-06
0.000210815
-8.36576e-06
0.000212728
-8.16728e-06
0.000214586
-7.96836e-06
0.000216389
-7.77043e-06
0.00021814
-7.57466e-06
0.000219838
-7.38197e-06
0.000221486
-7.19307e-06
0.000223083
-7.00851e-06
0.000224633
-6.82867e-06
0.000226135
-6.65384e-06
0.000227592
-6.48417e-06
0.000229005
-6.31977e-06
0.000230375
-6.16064e-06
0.000231705
-6.00677e-06
0.000232995
-5.85807e-06
0.000234247
-5.71445e-06
0.000235462
-5.57577e-06
0.000236643
-5.44188e-06
0.000237789
-5.31262e-06
0.000238903
-5.18783e-06
0.000239985
-5.06734e-06
0.000241037
-4.95096e-06
0.00024206
-4.83853e-06
0.000243056
-4.72988e-06
0.000244024
-4.62483e-06
0.000244966
-4.52323e-06
0.000245884
-4.42492e-06
0.000246777
-4.32976e-06
0.000247648
-4.23759e-06
0.000248496
-4.14829e-06
0.000249322
-4.06173e-06
0.000250128
-3.97777e-06
0.000250914
-3.89631e-06
0.00025168
-3.81724e-06
0.000252428
-3.74044e-06
0.000253158
-3.66583e-06
0.00025387
-3.59331e-06
0.000254566
-3.52279e-06
0.000255245
-3.4542e-06
0.000255909
-3.38744e-06
0.000256558
-3.32245e-06
-3.25917e-06
0.00018373
-7.53262e-07
0.000184283
-2.26861e-06
0.000185196
-3.75278e-06
0.000186449
-5.16682e-06
0.000188013
-6.48104e-06
0.000189853
-7.67388e-06
0.000191932
-8.7313e-06
0.000194212
-9.64631e-06
0.000196655
-1.04182e-05
0.000199226
-1.10511e-05
0.000201893
-1.1553e-05
0.000204627
-1.19342e-05
0.000207402
-1.22062e-05
0.000210197
-1.23811e-05
0.000212992
-1.24712e-05
0.000215773
-1.24881e-05
0.000218524
-1.24428e-05
0.000221237
-1.23451e-05
0.000223902
-1.22042e-05
0.000226511
-1.20282e-05
0.00022906
-1.18242e-05
0.000231544
-1.15983e-05
0.000233962
-1.1356e-05
0.000236309
-1.11017e-05
0.000238587
-1.08395e-05
0.000240794
-1.05726e-05
0.00024293
-1.03037e-05
0.000244997
-1.00351e-05
0.000246995
-9.76855e-06
0.000248926
-9.50555e-06
0.000250791
-9.24727e-06
0.000252593
-8.99458e-06
0.000254332
-8.74816e-06
0.000256012
-8.5085e-06
0.000257634
-8.2759e-06
0.000259201
-8.05058e-06
0.000260714
-7.83262e-06
0.000262175
-7.62202e-06
0.000263587
-7.41872e-06
0.000264951
-7.2226e-06
0.000266271
-7.03351e-06
0.000267546
-6.85125e-06
0.00026878
-6.67562e-06
0.000269974
-6.50637e-06
0.000271129
-6.34329e-06
0.000272248
-6.18612e-06
0.000273331
-6.03463e-06
0.000274381
-5.88856e-06
0.000275399
-5.74768e-06
0.000276386
-5.61176e-06
0.000277344
-5.48058e-06
0.000278273
-5.35392e-06
0.000279174
-5.23156e-06
0.00028005
-5.11331e-06
0.000280901
-4.99898e-06
0.000281727
-4.88839e-06
0.000282531
-4.78137e-06
0.000283312
-4.67774e-06
0.000284073
-4.57737e-06
0.000284812
-4.4801e-06
0.000285532
-4.38579e-06
0.000286233
-4.29431e-06
0.000286916
-4.20555e-06
0.000287581
-4.11938e-06
0.000288229
-4.03569e-06
0.000288861
-3.95439e-06
-3.87536e-06
0.000205365
-9.78081e-07
0.000206044
-2.94732e-06
0.000207164
-4.87276e-06
0.000208696
-6.69952e-06
0.000210602
-8.38701e-06
0.000212835
-9.90705e-06
0.000215347
-1.12425e-05
0.000218086
-1.2386e-05
0.000221007
-1.33391e-05
0.000224066
-1.41094e-05
0.000227222
-1.47091e-05
0.00023044
-1.51529e-05
0.000233691
-1.54571e-05
0.000236949
-1.56382e-05
0.00024019
-1.57124e-05
0.000243396
-1.56948e-05
0.000246553
-1.55999e-05
0.000249649
-1.54404e-05
0.000252673
0.000255617
0.000258478
0.00026125
0.000263931
0.000266521
0.000269018
0.000271424
0.000273739
0.000275965
0.000278105
0.000280161
0.000282136
0.000284032
0.000285853
0.000287601
0.00028928
0.000290892
0.000292441
0.000293929
0.000295359
0.000296735
0.000298057
0.00029933
0.000300555
0.000301735
0.000302872
0.000303968
0.000305024
0.000306044
0.000307027
0.000307977
0.000308895
0.000309782
0.00031064
0.00031147
0.000312274
0.000313051
0.000313805
0.000314535
0.000315243
0.00031593
0.000316596
0.000317242
0.00031787
0.000318481
0.000319073
0.00031965
0.00022701
0.000227847
0.000229225
0.000231105
0.000233433
0.000236146
0.000239181
0.000242471
0.000245958
0.000249587
0.000253307
0.000257076
0.000260858
0.00026462
0.000268338
0.000271989
0.000275557
)
;

boundaryField
{
    inlet
    {
        type            calculated;
        value           nonuniform List<scalar> 5(-0.000140359 -0.000161953 -0.000183546 -0.00020514 -0.000226734);
    }
    outlet
    {
        type            calculated;
        value           nonuniform 0();
    }
    wall
    {
        type            calculated;
        value           nonuniform 0();
    }
    wedge1
    {
        type            wedge;
        value           nonuniform List<scalar> 
344
(
4.05045e-17
5.1055e-18
5.94779e-17
7.49696e-18
8.40627e-17
1.56405e-16
2.478e-17
2.22323e-16
3.48e-17
3.0644e-16
2.73534e-16
4.55438e-17
3.86451e-16
6.31588e-17
5.2946e-16
3.87354e-16
6.57597e-17
5.44955e-16
9.05168e-17
7.43425e-16
4.94771e-16
8.44782e-17
6.93719e-16
1.15784e-16
9.42358e-16
5.94534e-16
1.01866e-16
8.30631e-16
1.38973e-16
1.12284e-15
6.85106e-16
1.17473e-16
9.53584e-16
1.59552e-16
1.28247e-15
7.657e-16
1.31175e-16
1.06172e-15
1.77469e-16
1.42032e-15
8.3597e-16
1.43056e-16
1.15465e-15
1.92768e-16
1.5363e-15
1.07747e-16
8.95871e-16
1.53122e-16
1.23257e-15
2.05406e-16
1.63103e-15
1.13978e-16
9.45681e-16
1.61398e-16
1.2961e-15
2.15573e-16
1.70595e-15
1.19221e-16
9.8615e-16
1.68149e-16
1.34638e-15
2.23575e-16
1.76272e-15
1.23466e-16
1.01754e-15
1.73416e-16
1.38426e-15
2.29527e-16
1.80306e-15
1.26433e-16
1.04076e-15
1.77065e-16
1.41105e-15
2.33422e-16
1.82878e-15
1.28486e-16
1.05679e-15
1.79501e-16
1.42793e-15
2.35634e-16
1.84068e-15
1.30077e-16
1.06609e-15
1.80815e-16
1.43543e-15
2.3634e-16
1.84056e-15
1.30615e-16
1.06922e-15
1.81085e-16
1.43492e-15
2.35733e-16
1.83044e-15
1.30652e-16
1.06724e-15
1.80545e-16
1.42771e-15
2.3409e-16
1.81216e-15
1.30327e-16
1.06084e-15
1.79304e-16
1.41498e-15
2.31572e-16
1.29221e-16
1.05087e-15
1.77453e-16
1.39771e-15
2.28319e-16
1.27891e-16
1.03809e-15
1.75138e-16
1.37678e-15
2.24491e-16
1.26442e-16
1.02291e-15
1.72435e-16
1.35297e-15
2.20196e-16
1.24457e-16
1.0059e-15
1.69428e-16
1.32691e-15
2.15544e-16
1.22401e-16
9.87532e-16
1.66215e-16
1.29925e-15
2.10658e-16
1.2015e-16
9.68177e-16
1.6282e-16
1.27041e-15
2.05599e-16
1.17839e-16
9.48131e-16
1.59309e-16
1.24081e-15
2.00424e-16
1.15466e-16
9.2769e-16
1.55762e-16
1.21082e-15
1.95205e-16
1.1309e-16
9.07074e-16
1.52223e-16
1.18073e-15
1.90032e-16
1.10662e-16
8.86323e-16
1.48534e-16
1.15057e-15
1.84757e-16
1.08242e-16
8.65775e-16
1.44824e-16
1.12078e-15
1.79497e-16
1.05859e-16
8.45507e-16
1.41369e-16
1.09148e-15
1.74497e-16
1.0352e-16
8.25549e-16
1.37942e-16
1.06273e-15
1.69583e-16
1.01193e-16
8.05955e-16
1.34546e-16
1.03461e-15
1.64792e-16
9.89574e-17
7.86834e-16
1.31215e-16
1.00719e-15
1.60124e-16
9.67875e-17
7.68249e-16
1.28003e-16
9.80549e-16
1.55582e-16
9.46649e-17
7.50175e-16
1.24894e-16
9.5469e-16
1.51185e-16
9.25915e-17
7.3263e-16
1.2187e-16
9.29639e-16
1.46945e-16
9.06031e-17
7.1562e-16
1.1892e-16
9.05379e-16
1.42837e-16
8.86431e-17
6.99106e-16
1.16059e-16
8.81917e-16
1.38872e-16
8.67586e-17
6.83128e-16
1.13266e-16
8.59247e-16
1.35056e-16
8.4941e-17
6.67683e-16
1.10572e-16
8.3736e-16
1.31374e-16
8.31973e-17
6.52747e-16
1.07986e-16
8.1625e-16
1.27836e-16
8.14914e-17
6.38319e-16
1.05496e-16
7.95898e-16
1.24425e-16
7.98508e-17
6.24349e-16
1.03092e-16
7.76262e-16
1.21143e-16
7.82474e-17
6.10841e-16
1.00739e-16
7.57311e-16
1.17989e-16
7.66753e-17
5.9778e-16
9.84962e-17
7.39025e-16
1.14943e-16
7.52173e-17
5.85144e-16
9.63094e-17
7.21383e-16
1.12018e-16
7.38012e-17
5.72923e-16
9.42039e-17
7.04359e-16
1.09221e-16
7.24049e-17
5.61094e-16
9.21772e-17
6.87919e-16
1.065e-16
7.10796e-17
5.49636e-16
9.01957e-17
6.72039e-16
1.03874e-16
6.97609e-17
5.38502e-16
8.82747e-17
6.56714e-16
1.01351e-16
6.84705e-17
5.2772e-16
8.64228e-17
6.41887e-16
9.89215e-17
6.72575e-17
5.1725e-16
8.46184e-17
6.27548e-16
9.65587e-17
6.60422e-17
5.07095e-16
8.28602e-17
6.13685e-16
9.42758e-17
6.48624e-17
4.97261e-16
8.1185e-17
6.00266e-16
9.20641e-17
6.38201e-17
4.87739e-16
7.95299e-17
5.87253e-16
8.98983e-17
6.25541e-17
4.78412e-16
7.79413e-17
5.74795e-16
8.79156e-17
6.14077e-17
4.69221e-16
7.65921e-17
5.62644e-16
8.60964e-17
6.0335e-17
4.6045e-16
7.5038e-17
5.50805e-16
8.41328e-17
5.93034e-17
4.51878e-16
7.35472e-17
5.39329e-16
8.22654e-17
5.8323e-17
4.43537e-16
7.21182e-17
5.28221e-16
8.04834e-17
5.73607e-17
4.35419e-16
7.07344e-17
5.17427e-16
7.87512e-17
5.64013e-17
4.27484e-16
6.93874e-17
5.06925e-16
7.70319e-17
5.54686e-17
4.19745e-16
6.80901e-17
4.96734e-16
7.53755e-17
5.4574e-17
4.12196e-16
6.68154e-17
4.86824e-16
7.37918e-17
5.37004e-17
4.04835e-16
6.55556e-17
4.77187e-16
7.22643e-17
5.28246e-17
3.97629e-16
6.43458e-17
4.67837e-16
7.07632e-17
)
;
    }
    wedge2
    {
        type            wedge;
        value           nonuniform List<scalar> 
344
(
4.04628e-17
5.09051e-18
5.94929e-17
7.50253e-18
8.40867e-17
1.5591e-16
2.42617e-17
2.22066e-16
3.4373e-17
3.06159e-16
2.72646e-16
4.43741e-17
3.85608e-16
6.22481e-17
5.29018e-16
3.85244e-16
6.35803e-17
5.43097e-16
8.88087e-17
7.42206e-16
4.92328e-16
8.20475e-17
6.91654e-16
1.13953e-16
9.40943e-16
5.91635e-16
9.90105e-17
8.28157e-16
1.36802e-16
1.1212e-15
6.82087e-16
1.14473e-16
9.51088e-16
1.57301e-16
1.28075e-15
7.62755e-16
1.2829e-16
1.05918e-15
1.75205e-16
1.41838e-15
8.33127e-16
1.40253e-16
1.15209e-15
1.90395e-16
1.53409e-15
1.05304e-16
8.93147e-16
1.5037e-16
1.23001e-15
2.03042e-16
1.62878e-15
1.11546e-16
9.43063e-16
1.58736e-16
1.29358e-15
2.13221e-16
1.7036e-15
1.16475e-16
9.83136e-16
1.65289e-16
1.34354e-15
2.20986e-16
1.76019e-15
1.20204e-16
1.01445e-15
1.70222e-16
1.38132e-15
2.26627e-16
1.80048e-15
1.23227e-16
1.03768e-15
1.73972e-16
1.40813e-15
2.30597e-16
1.82622e-15
1.25368e-16
1.05352e-15
1.76422e-16
1.42503e-15
2.32861e-16
1.83803e-15
1.26325e-16
1.06274e-15
1.77699e-16
1.43255e-15
2.33584e-16
1.83795e-15
1.26876e-16
1.06582e-15
1.78003e-16
1.43205e-15
2.33045e-16
1.82792e-15
1.26646e-16
1.06362e-15
1.77409e-16
1.42484e-15
2.31388e-16
1.80958e-15
1.25747e-16
1.05718e-15
1.76093e-16
1.41206e-15
2.2883e-16
1.24726e-16
1.04716e-15
1.7421e-16
1.39475e-15
2.25559e-16
1.23189e-16
1.03414e-15
1.71839e-16
1.37379e-15
2.21707e-16
1.21214e-16
1.01889e-15
1.69097e-16
1.34997e-15
2.17418e-16
1.19305e-16
1.00186e-15
1.66069e-16
1.32395e-15
2.12801e-16
1.17117e-16
9.83451e-16
1.62802e-16
1.29625e-15
2.07918e-16
1.14866e-16
9.64043e-16
1.59397e-16
1.26741e-15
2.02867e-16
1.12499e-16
9.4397e-16
1.55889e-16
1.23783e-15
1.97724e-16
1.1008e-16
9.23466e-16
1.5229e-16
1.20781e-15
1.92528e-16
1.07607e-16
9.02747e-16
1.48625e-16
1.17762e-15
1.8728e-16
1.05174e-16
8.82132e-16
1.45109e-16
1.14772e-15
1.82203e-16
1.02757e-16
8.61574e-16
1.41673e-16
1.11801e-15
1.77244e-16
1.00355e-16
8.41226e-16
1.38067e-16
1.0887e-15
1.72201e-16
9.79861e-17
8.21238e-16
1.34553e-16
1.05993e-15
1.67287e-16
9.56988e-17
8.01695e-16
1.31151e-16
1.03183e-15
1.62493e-16
9.34248e-17
7.82592e-16
1.27844e-16
1.00443e-15
1.57838e-16
9.12012e-17
7.63938e-16
1.24592e-16
9.77776e-16
1.53335e-16
8.90524e-17
7.45805e-16
1.21417e-16
9.51904e-16
1.48972e-16
8.69786e-17
7.28207e-16
1.18343e-16
9.26828e-16
1.44744e-16
8.49477e-17
7.11149e-16
1.15384e-16
9.02579e-16
1.40674e-16
8.30144e-17
6.94667e-16
1.12525e-16
8.79147e-16
1.36751e-16
8.11312e-17
6.78713e-16
1.09785e-16
8.56517e-16
1.32963e-16
7.93037e-17
6.63269e-16
1.07129e-16
8.34673e-16
1.29321e-16
7.75225e-17
6.48334e-16
1.04546e-16
8.13579e-16
1.25805e-16
7.58198e-17
6.33881e-16
1.0204e-16
7.93216e-16
1.22428e-16
7.41633e-17
6.19926e-16
9.96184e-17
7.73576e-16
1.19175e-16
7.25774e-17
6.0643e-16
9.73088e-17
7.54642e-16
1.16041e-16
7.10641e-17
5.93373e-16
9.50473e-17
7.3638e-16
1.13034e-16
6.95358e-17
5.8074e-16
9.28803e-17
7.18758e-16
1.10133e-16
6.80596e-17
5.68506e-16
9.07775e-17
7.0175e-16
1.0732e-16
6.66543e-17
5.56657e-16
8.87344e-17
6.85337e-16
1.04638e-16
6.52635e-17
5.45178e-16
8.67789e-17
6.69493e-16
1.02058e-16
6.3948e-17
5.34084e-16
8.48901e-17
6.54171e-16
9.9565e-17
6.2682e-17
5.23314e-16
8.30533e-17
6.39382e-16
9.7158e-17
6.14125e-17
5.12876e-16
8.12853e-17
6.25086e-16
9.48552e-17
6.0216e-17
5.02739e-16
7.95815e-17
6.11255e-16
9.26369e-17
5.90511e-17
4.92867e-16
7.79005e-17
5.97874e-16
9.05028e-17
5.78128e-17
4.83241e-16
7.62998e-17
5.84943e-16
8.84715e-17
5.68587e-17
4.73953e-16
7.47187e-17
5.72272e-16
8.63928e-17
5.58433e-17
4.65045e-16
7.30111e-17
5.60075e-16
8.4297e-17
5.48096e-17
4.56201e-16
7.15861e-17
5.48309e-16
8.24682e-17
5.37876e-17
4.47626e-16
7.01821e-17
5.36892e-16
8.06659e-17
5.27653e-17
4.39266e-16
6.87968e-17
5.25788e-16
7.88957e-17
5.17733e-17
4.3111e-16
6.74433e-17
5.15021e-16
7.71872e-17
5.08246e-17
4.23182e-16
6.6127e-17
5.04583e-16
7.55728e-17
4.9894e-17
4.15452e-16
6.48318e-17
4.94433e-16
7.3997e-17
4.89685e-17
4.0791e-16
6.3582e-17
4.84572e-16
7.24461e-17
4.80626e-17
4.00543e-16
6.23825e-17
4.74987e-16
7.09326e-17
4.71987e-17
3.93371e-16
6.11963e-17
4.65641e-16
6.94821e-17
)
;
    }
    axis
    {
        type            empty;
        value           nonuniform 0();
    }
    procBoundary6to0
    {
        type            processor;
        value           nonuniform List<scalar> 
68
(
3.10618e-06
3.27148e-06
3.40385e-06
3.50557e-06
3.57932e-06
3.62797e-06
3.65446e-06
3.6617e-06
3.65248e-06
3.62938e-06
3.59477e-06
3.55081e-06
3.49939e-06
3.44218e-06
3.38062e-06
3.31593e-06
3.24917e-06
3.1812e-06
3.11274e-06
3.04439e-06
2.9766e-06
2.90976e-06
2.84415e-06
2.77998e-06
2.71742e-06
2.65656e-06
2.59747e-06
2.5402e-06
2.48473e-06
2.43106e-06
2.37916e-06
2.32898e-06
2.28047e-06
2.23357e-06
2.18822e-06
2.14435e-06
2.1019e-06
2.0608e-06
2.02099e-06
1.98239e-06
1.94497e-06
1.90864e-06
1.87336e-06
1.83908e-06
1.80574e-06
1.77331e-06
1.74172e-06
1.71095e-06
1.68096e-06
1.6517e-06
1.62315e-06
1.59528e-06
1.56805e-06
1.54144e-06
1.51542e-06
1.48998e-06
1.46508e-06
1.44071e-06
2.99507e-07
9.01136e-07
1.49237e-06
2.06035e-06
2.59475e-06
3.08743e-06
3.53239e-06
3.92581e-06
-0.000125876
4.26599e-06
)
;
    }
    procBoundary6to1
    {
        type            processor;
        value           uniform 0.000189901;
    }
    procBoundary6to7
    {
        type            processor;
        value           nonuniform List<scalar> 4(0.000223869 0.000257191 0.000289477 0.00032021);
    }
    procBoundary6to12
    {
        type            processor;
        value           nonuniform List<scalar> 
68
(
-1.5228e-05
-1.49731e-05
-1.46846e-05
-1.43704e-05
-1.40374e-05
-1.36912e-05
-1.33368e-05
-1.29782e-05
-1.26189e-05
-1.22616e-05
-1.19085e-05
-1.15615e-05
-1.12219e-05
-1.08908e-05
-1.05689e-05
-1.02567e-05
-9.95468e-06
-9.66291e-06
-9.38144e-06
-9.11022e-06
-8.84911e-06
-8.59788e-06
-8.35629e-06
-8.12403e-06
-7.9008e-06
-7.68624e-06
-7.48002e-06
-7.28178e-06
-7.09119e-06
-6.90788e-06
-6.73154e-06
-6.56184e-06
-6.39845e-06
-6.24108e-06
-6.08944e-06
-5.94325e-06
-5.80225e-06
-5.66618e-06
-5.53481e-06
-5.40792e-06
-5.28529e-06
-5.16672e-06
-5.05202e-06
-4.94102e-06
-4.83354e-06
-4.72943e-06
-4.62853e-06
-4.5307e-06
-4.43582e-06
-1.25464e-06
-3.78359e-06
-6.25101e-06
-8.57967e-06
-1.07149e-05
-1.26206e-05
-1.42766e-05
-1.56768e-05
-1.68262e-05
-1.77376e-05
-1.84293e-05
-1.89223e-05
-1.92387e-05
-1.94008e-05
-1.94299e-05
-1.93461e-05
-1.91679e-05
0.000279028
-1.89118e-05
)
;
    }
}


// ************************************************************************* //
