/*--------------------------------*- C++ -*----------------------------------*\
  =========                 |
  \\      /  F ield         | OpenFOAM: The Open Source CFD Toolbox
   \\    /   O peration     | Website:  https://openfoam.org
    \\  /    A nd           | Version:  7
     \\/     M anipulation  |
\*---------------------------------------------------------------------------*/
FoamFile
{
    version     2.0;
    format      ascii;
    class       volVectorField;
    location    "8.8";
    object      U;
}
// * * * * * * * * * * * * * * * * * * * * * * * * * * * * * * * * * * * * * //

dimensions      [0 1 -1 0 0 0 0];

internalField   nonuniform List<vector> 
344
(
(1.06578 -0.0324562 -3.00749e-15)
(1.07829 -0.0341629 -2.94016e-15)
(1.09133 -0.0355247 -4.27192e-15)
(1.10476 -0.0365663 -3.96705e-15)
(1.11848 -0.0373163 -3.80446e-15)
(1.13238 -0.0378054 -4.77357e-15)
(1.14637 -0.0380645 -4.59041e-15)
(1.16038 -0.0381244 -4.68532e-15)
(1.17433 -0.038014 -5.94389e-15)
(1.18819 -0.0377605 -5.56415e-15)
(1.20189 -0.0373886 -5.46098e-15)
(1.21541 -0.0369204 -6.66478e-15)
(1.22872 -0.0363756 -6.5065e-15)
(1.24179 -0.0357715 -6.4407e-15)
(1.2546 -0.0351228 -6.46728e-15)
(1.26715 -0.0344423 -6.55434e-15)
(1.27943 -0.0337407 -6.51182e-15)
(1.29143 -0.0330268 -6.66092e-15)
(1.30315 -0.0323082 -6.77303e-15)
(1.31459 -0.0315908 -6.76454e-15)
(1.32575 -0.0308795 -6.74288e-15)
(1.33664 -0.0301781 -6.85112e-15)
(1.34726 -0.0294895 -6.74974e-15)
(1.35761 -0.0288159 -6.69582e-15)
(1.3677 -0.0281591 -6.81278e-15)
(1.37754 -0.0275199 -6.86228e-15)
(1.38713 -0.0268993 -6.87949e-15)
(1.39649 -0.0262974 -6.872e-15)
(1.40561 -0.0257145 -6.90446e-15)
(1.41452 -0.0251502 -6.87335e-15)
(1.4232 -0.0246044 -6.92792e-15)
(1.43167 -0.0240766 -6.96498e-15)
(1.43994 -0.0235662 -6.95846e-15)
(1.44802 -0.0230728 -6.91354e-15)
(1.4559 -0.0225955 -6.96567e-15)
(1.46361 -0.0221338 -6.91059e-15)
(1.47113 -0.0216871 -6.94961e-15)
(1.47848 -0.0212545 -7.06181e-15)
(1.48567 -0.0208355 -7.12119e-15)
(1.49269 -0.0204295 -7.11544e-15)
(1.49956 -0.0200357 -7.2329e-15)
(1.50628 -0.0196536 -7.04217e-15)
(1.51285 -0.0192826 -7.15859e-15)
(1.51928 -0.0189222 -7.18818e-15)
(1.52558 -0.0185719 -7.10915e-15)
(1.53174 -0.0182312 -7.19456e-15)
(1.53777 -0.0178995 -7.35204e-15)
(1.54368 -0.0175766 -6.92942e-15)
(1.54946 -0.0172619 -6.86326e-15)
(1.55513 -0.0169552 -6.78869e-15)
(1.56068 -0.016656 -6.734e-15)
(1.56612 -0.016364 -6.78908e-15)
(1.57145 -0.016079 -6.84771e-15)
(1.57668 -0.0158006 -6.79493e-15)
(1.58181 -0.0155286 -6.90006e-15)
(1.58683 -0.0152628 -7.05224e-15)
(1.59176 -0.0150028 -6.96712e-15)
(1.59659 -0.0147485 -6.89563e-15)
(1.00018 -0.00258872 -5.7066e-17)
(1.00177 -0.00777854 -7.12399e-16)
(1.00516 -0.0128725 -1.24224e-15)
(1.0103 -0.017761 -2.97426e-15)
(1.01701 -0.0223537 -2.97793e-15)
(1.02515 -0.0265802 -3.66347e-15)
(1.03458 -0.0303891 -3.77779e-15)
(1.04515 -0.0337485 -3.72867e-15)
(1.05669 -0.036645 -3.52643e-15)
(1.06903 -0.0390815 -3.28941e-15)
(1.08203 -0.0410739 -3.27266e-15)
(1.09552 -0.042648 -3.67527e-15)
(1.10939 -0.0438362 -3.72164e-15)
(1.12351 -0.0446753 -3.7648e-15)
(1.13778 -0.0452038 -4.03147e-15)
(1.15211 -0.0454601 -4.19688e-15)
(1.16642 -0.0454817 -4.16362e-15)
(1.18065 -0.0453037 -4.41264e-15)
(1.19474 -0.0449585 -4.4606e-15)
(1.20866 -0.0444757 -4.60126e-15)
(1.22235 -0.0438813 -4.80323e-15)
(1.23581 -0.0431986 -4.90737e-15)
(1.249 -0.0424476 -4.94955e-15)
(1.26191 -0.0416458 -5.05192e-15)
(1.27453 -0.0408077 -5.04343e-15)
(1.28685 -0.039946 -5.08659e-15)
(1.29887 -0.039071 -5.2411e-15)
(1.31058 -0.0381912 -5.24335e-15)
(1.32199 -0.0373137 -5.19989e-15)
(1.33309 -0.036444 -5.17812e-15)
(1.34391 -0.0355866 -5.27885e-15)
(1.35443 -0.034745 -5.30381e-15)
(1.36466 -0.0339217 -5.14004e-15)
(1.37462 -0.0331186 -5.16431e-15)
(1.3843 -0.0323371 -5.30429e-15)
(1.39372 -0.031578 -5.34925e-15)
(1.40289 -0.0308416 -5.52356e-15)
(1.41181 -0.0301282 -5.55446e-15)
(1.42049 -0.0294376 -5.45814e-15)
(1.42893 -0.0287695 -5.48607e-15)
(1.43716 -0.0281233 -5.38757e-15)
(1.44516 -0.0274985 -5.47008e-15)
(1.45296 -0.0268945 -5.45241e-15)
(1.46056 -0.0263104 -5.46136e-15)
(1.46796 -0.0257455 -5.3861e-15)
(1.47517 -0.0251991 -5.4438e-15)
(1.4822 -0.0246703 -5.42444e-15)
(1.48906 -0.0241585 -5.41275e-15)
(1.49575 -0.0236627 -5.48242e-15)
(1.50227 -0.0231824 -5.43929e-15)
(1.50864 -0.0227167 -5.42739e-15)
(1.51485 -0.022265 -5.46894e-15)
(1.52092 -0.0218266 -5.38904e-15)
(1.52685 -0.021401 -5.36684e-15)
(1.53263 -0.0209875 -5.41959e-15)
(1.53829 -0.0205856 -5.52454e-15)
(1.54381 -0.0201947 -4.8871e-15)
(1.54921 -0.0198144 -5.18574e-15)
(1.55449 -0.0194442 -5.20171e-15)
(1.55965 -0.0190837 -5.23604e-15)
(1.5647 -0.0187324 -5.31928e-15)
(1.56964 -0.0183899 -5.3212e-15)
(1.57447 -0.018056 -5.25655e-15)
(1.5792 -0.0177302 -5.33464e-15)
(1.58383 -0.0174123 -5.30126e-15)
(1.58836 -0.017102 -5.23554e-15)
(1.5928 -0.0167989 -5.17182e-15)
(1.00019 -0.00308872 -1.21158e-16)
(1.00189 -0.00928268 -9.28733e-16)
(1.00553 -0.0153558 -1.81697e-15)
(1.01102 -0.0211698 -3.16206e-15)
(1.01817 -0.0266124 -3.08612e-15)
(1.02684 -0.0315979 -4.03521e-15)
(1.03685 -0.036066 -3.66734e-15)
(1.04802 -0.0399817 -3.61051e-15)
(1.06018 -0.0433331 -3.5425e-15)
(1.07313 -0.0461286 -3.55144e-15)
(1.08672 -0.0483917 -3.2904e-15)
(1.10078 -0.0501573 -4.2352e-15)
(1.11518 -0.0514676 -3.93838e-15)
(1.12979 -0.0523686 -3.83298e-15)
(1.14451 -0.0529079 -3.85101e-15)
(1.15925 -0.0531321 -3.83307e-15)
(1.17392 -0.0530859 -3.77585e-15)
(1.18847 -0.0528109 -3.89501e-15)
(1.20284 -0.0523452 -3.97231e-15)
(1.21698 -0.0517231 -3.9517e-15)
(1.23087 -0.0509748 -4.05264e-15)
(1.24447 -0.050127 -4.14791e-15)
(1.25777 -0.0492028 -4.15719e-15)
(1.27075 -0.048222 -4.25633e-15)
(1.2834 -0.0472015 -4.15003e-15)
(1.29572 -0.0461555 -4.22183e-15)
(1.3077 -0.0450958 -4.26211e-15)
(1.31934 -0.0440322 -4.4213e-15)
(1.33064 -0.0429727 -3.63198e-15)
(1.34161 -0.0419237 -3.90382e-15)
(1.35226 -0.0408903 -4.06107e-15)
(1.36259 -0.0398765 -4.19549e-15)
(1.3726 -0.0388852 -4.13444e-15)
(1.38232 -0.0379186 -4.16717e-15)
(1.39174 -0.0369783 -4.21264e-15)
(1.40087 -0.0360653 -4.34222e-15)
(1.40973 -0.0351799 -4.33862e-15)
(1.41832 -0.0343224 -4.35661e-15)
(1.42665 -0.0334927 -4.2883e-15)
(1.43474 -0.0326903 -4.27006e-15)
(1.44258 -0.0319148 -4.21661e-15)
(1.4502 -0.0311654 -4.18668e-15)
(1.45759 -0.0304413 -4.27747e-15)
(1.46478 -0.0297417 -4.22494e-15)
(1.47175 -0.0290657 -4.2636e-15)
(1.47853 -0.0284125 -4.28465e-15)
(1.48512 -0.027781 -4.1693e-15)
(1.49152 -0.0271703 -4.28167e-15)
(1.49775 -0.0265796 -4.28362e-15)
(1.50381 -0.026008 -4.1647e-15)
(1.50971 -0.0254546 -4.24645e-15)
(1.51545 -0.0249186 -4.1706e-15)
(1.52104 -0.0243992 -4.05252e-15)
(1.52648 -0.0238957 -4.02571e-15)
(1.53179 -0.0234073 -4.01685e-15)
(1.53696 -0.0229333 -4.02924e-15)
(1.54199 -0.0224732 -4.69175e-15)
(1.54691 -0.0220262 -4.41496e-15)
(1.5517 -0.0215919 -4.19957e-15)
(1.55637 -0.0211697 -4.13276e-15)
(1.56093 -0.020759 -4.0302e-15)
(1.56539 -0.0203594 -4.05757e-15)
(1.56973 -0.0199705 -4.03759e-15)
(1.57398 -0.0195917 -4.08132e-15)
(1.57812 -0.0192227 -3.91462e-15)
(1.58217 -0.0188632 -3.88771e-15)
(1.58613 -0.0185127 -3.88876e-15)
(1.0002 -0.00364269 -2.22467e-17)
(1.00205 -0.0109502 -3.02183e-16)
(1.00599 -0.0181058 -1.10017e-15)
(1.01193 -0.0249354 -2.51502e-15)
(1.01965 -0.0313003 -2.54047e-15)
(1.02897 -0.0370978 -3.01513e-15)
(1.0397 -0.0422588 -3.03528e-15)
(1.05163 -0.0467465 -3.11526e-15)
(1.06454 -0.0505537 -3.19567e-15)
(1.07825 -0.0536966 -3.18722e-15)
(1.09256 -0.0562094 -3.12131e-15)
(1.10731 -0.0581387 -3.53971e-15)
(1.12235 -0.059538 -3.58784e-15)
(1.13756 -0.0604646 -3.57098e-15)
(1.15281 -0.060976 -3.51013e-15)
(1.16802 -0.0611282 -3.58201e-15)
(1.18311 -0.0609736 -3.44082e-15)
(1.19801 -0.0605608 -3.55758e-15)
(1.21267 -0.0599338 -3.62294e-15)
(1.22705 -0.0591319 -3.63675e-15)
(1.24111 -0.0581899 -3.66184e-15)
(1.25482 -0.0571381 -3.64989e-15)
(1.26818 -0.0560027 -3.64102e-15)
(1.28116 -0.0548062 -3.72709e-15)
(1.29376 -0.0535678 -3.69509e-15)
(1.30598 -0.0523034 -3.67007e-15)
(1.31781 -0.0510266 -3.76809e-15)
(1.32926 -0.0497483 -3.87528e-15)
(1.34033 -0.0484777 -3.50101e-15)
(1.35103 -0.0472219 -3.39084e-15)
(1.36137 -0.0459868 -3.41954e-15)
(1.37136 -0.0447767 -3.41183e-15)
(1.381 -0.0435951 -3.38279e-15)
(1.39031 -0.0424443 -3.37649e-15)
(1.39931 -0.0413262 -3.39556e-15)
(1.40799 -0.0402417 -3.45447e-15)
(1.41637 -0.0391914 -3.4905e-15)
(1.42447 -0.0381753 -3.40947e-15)
(1.4323 -0.0371934 -3.43998e-15)
(1.43986 -0.036245 -3.33275e-15)
(1.44717 -0.0353295 -3.30123e-15)
(1.45423 -0.0344461 -3.27001e-15)
(1.46107 -0.0335938 -3.31928e-15)
(1.46768 -0.0327715 -3.34125e-15)
(1.47407 -0.0319782 -3.24002e-15)
(1.48027 -0.0312128 -3.2628e-15)
(1.48626 -0.0304741 -3.21919e-15)
(1.49207 -0.029761 -3.24552e-15)
(1.4977 -0.0290724 -3.14657e-15)
(1.50316 -0.0284073 -3.13507e-15)
(1.50846 -0.0277646 -3.11588e-15)
(1.5136 -0.0271432 -3.06701e-15)
(1.51858 -0.0265422 -3.0477e-15)
(1.52342 -0.0259608 -3.03627e-15)
(1.52812 -0.0253979 -2.94122e-15)
(1.53269 -0.0248528 -2.88928e-15)
(1.53713 -0.0243246 -3.11998e-15)
(1.54145 -0.0238126 -3.14856e-15)
(1.54565 -0.0233161 -2.99634e-15)
(1.54973 -0.0228343 -2.9744e-15)
(1.55371 -0.0223667 -2.97298e-15)
(1.55758 -0.0219127 -2.96421e-15)
(1.56134 -0.0214716 -2.84525e-15)
(1.56502 -0.0210429 -2.81152e-15)
(1.56859 -0.0206261 -2.72114e-15)
(1.57208 -0.0202208 -2.71925e-15)
(1.57548 -0.0198264 -2.74155e-15)
(1.00022 -0.00426569 4.08313e-17)
(1.00225 -0.012827 -7.90209e-16)
(1.00657 -0.021197 -1.37418e-15)
(1.01308 -0.0291556 -2.5198e-15)
(1.02153 -0.0365321 -2.2565e-15)
(1.03167 -0.0432051 -3.04881e-15)
(1.0433 -0.0490975 -2.74364e-15)
(1.05616 -0.0541735 -2.86268e-15)
(1.07001 -0.0584334 -3.0167e-15)
(1.08464 -0.0619055 -2.8438e-15)
(1.09983 -0.064638 -2.88963e-15)
(1.11541 -0.0666915 -3.76732e-15)
(1.13122 -0.0681339 -3.58171e-15)
(1.14711 -0.0690352 -3.46809e-15)
(1.16298 -0.0694644 -3.41866e-15)
(1.17872 -0.0694877 -3.34487e-15)
(1.19425 -0.0691664 -3.29003e-15)
(1.2095 -0.0685569 -3.31871e-15)
(1.22443 -0.0677097 -3.40333e-15)
(1.23898 -0.06667 -3.40579e-15)
(1.25314 -0.0654772 -3.44805e-15)
(1.26687 -0.0641661 -3.45035e-15)
(1.28017 -0.0627662 -3.37126e-15)
(1.29301 -0.0613032 -3.40502e-15)
(1.30541 -0.0597987 -3.37735e-15)
(1.31736 -0.0582707 -3.29442e-15)
(1.32887 -0.0567344 -3.28429e-15)
(1.33993 -0.0552022 -3.3833e-15)
(1.35057 -0.0536842 -2.68323e-15)
(1.3608 -0.0521885 -2.75233e-15)
(1.37062 -0.0507214 -2.77935e-15)
(1.38005 -0.0492878 -2.83482e-15)
(1.3891 -0.0478913 -2.85209e-15)
(1.3978 -0.0465345 -2.8406e-15)
(1.40615 -0.0452191 -2.79721e-15)
(1.41417 -0.0439462 -2.69949e-15)
(1.42187 -0.042716 -2.68407e-15)
(1.42927 -0.0415286 -2.67048e-15)
(1.43638 -0.0403836 -2.60409e-15)
(1.44321 -0.03928 -2.58802e-15)
(1.44978 -0.0382171 -2.56889e-15)
(1.45611 -0.0371937 -2.5219e-15)
(1.46219 -0.0362084 -2.47654e-15)
(1.46805 -0.03526 -2.45187e-15)
(1.4737 -0.0343471 -2.4501e-15)
(1.47914 -0.0334682 -2.4033e-15)
(1.48438 -0.0326219 -2.39401e-15)
(1.48944 -0.0318069 -2.35718e-15)
(1.49432 -0.0310216 -2.29531e-15)
(1.49903 -0.0302648 -2.21981e-15)
(1.50358 -0.0295352 -2.24363e-15)
(1.50798 -0.0288315 -2.16232e-15)
(1.51223 -0.0281525 -2.08352e-15)
(1.51634 -0.027497 -2.00656e-15)
(1.52032 -0.0268639 -1.93373e-15)
(1.52417 -0.0262522 -1.81575e-15)
(1.5279 -0.0256609 -2.4536e-15)
(1.53152 -0.025089 -2.21516e-15)
(1.53502 -0.0245356 -2.04301e-15)
(1.53842 -0.0239999 -1.96268e-15)
(1.54172 -0.0234811 -1.97737e-15)
(1.54491 -0.0229784 -1.90972e-15)
(1.54802 -0.0224911 -1.73138e-15)
(1.55104 -0.0220185 -1.6409e-15)
(1.55397 -0.02156 -1.71101e-15)
(1.55682 -0.0211151 -1.60177e-15)
(1.55959 -0.020683 -1.61896e-15)
(1.00025 -0.00497738 -6.92098e-18)
(1.0025 -0.0149739 -3.71368e-16)
(1.00732 -0.0247271 -5.67529e-16)
(1.01456 -0.0339576 -1.7068e-15)
(1.02392 -0.0424561 -1.81405e-15)
(1.03511 -0.0500806 -2.06305e-15)
(1.04785 -0.0567477 -2.12544e-15)
(1.06187 -0.0624264 -2.36596e-15)
(1.07689 -0.0671291 -2.7848e-15)
(1.09264 -0.0709006 -2.77042e-15)
(1.1089 -0.0738068 -2.89286e-15)
(1.12546 -0.0759265 -3.12848e-15)
(1.14215 -0.077344 -3.13185e-15)
(1.15882 -0.0781446 -3.16802e-15)
(1.17535 -0.0784111 -3.26872e-15)
(1.19162 -0.0782215 -3.19165e-15)
(1.20756 -0.0776477 -3.11283e-15)
(1.2231 -0.0767554 -3.16486e-15)
)
;

boundaryField
{
    inlet
    {
        type            uniformFixedValue;
        uniformValue    constant (1 0 0);
        value           uniform (1 0 0);
    }
    outlet
    {
        type            pressureInletOutletVelocity;
        value           nonuniform 0();
    }
    wall
    {
        type            fixedValue;
        value           nonuniform 0();
    }
    wedge1
    {
        type            wedge;
    }
    wedge2
    {
        type            wedge;
    }
    axis
    {
        type            empty;
    }
    procBoundary6to0
    {
        type            processor;
        value           nonuniform List<vector> 
68
(
(1.06323 -0.0261699 -2.42697e-15)
(1.07536 -0.0275803 -2.68768e-15)
(1.08803 -0.0287144 -2.98998e-15)
(1.10112 -0.0295907 -3.53168e-15)
(1.11452 -0.0302309 -4.30353e-15)
(1.12812 -0.0306587 -3.45728e-15)
(1.14184 -0.0308985 -4.51501e-15)
(1.1556 -0.0309746 -5.29577e-15)
(1.16933 -0.0309102 -6.00262e-15)
(1.18299 -0.0307273 -6.43667e-15)
(1.19652 -0.030446 -6.98908e-15)
(1.20988 -0.0300844 -7.50976e-15)
(1.22306 -0.0296587 -7.79973e-15)
(1.23601 -0.0291831 -7.9318e-15)
(1.24874 -0.0286699 -9.12743e-15)
(1.26121 -0.0281297 -8.75209e-15)
(1.27344 -0.0275714 -8.76838e-15)
(1.2854 -0.0270025 -8.78647e-15)
(1.29709 -0.0264292 -8.97841e-15)
(1.30852 -0.0258565 -8.81881e-15)
(1.31969 -0.0252885 -8.67595e-15)
(1.3306 -0.0247284 -8.67676e-15)
(1.34126 -0.0241787 -8.91589e-15)
(1.35166 -0.0236411 -8.96375e-15)
(1.36182 -0.0231171 -9.19127e-15)
(1.37175 -0.0226075 -8.77983e-15)
(1.38144 -0.0221129 -8.78264e-15)
(1.3909 -0.0216336 -8.91898e-15)
(1.40015 -0.0211695 -9.10557e-15)
(1.40919 -0.0207207 -9.15783e-15)
(1.41802 -0.0202867 -9.22613e-15)
(1.42665 -0.0198672 -9.05795e-15)
(1.43509 -0.0194618 -8.96263e-15)
(1.44335 -0.0190699 -9.32377e-15)
(1.45143 -0.018691 -9.20363e-15)
(1.45933 -0.0183245 -9.24953e-15)
(1.46707 -0.0179698 -9.17781e-15)
(1.47464 -0.0176265 -9.29524e-15)
(1.48206 -0.0172938 -9.38279e-15)
(1.48932 -0.0169713 -9.40805e-15)
(1.49644 -0.0166585 -9.73419e-15)
(1.50341 -0.0163547 -9.65152e-15)
(1.51024 -0.0160597 -9.71331e-15)
(1.51694 -0.0157729 -9.78263e-15)
(1.5235 -0.0154939 -9.85232e-15)
(1.52994 -0.0152222 -9.75482e-15)
(1.53626 -0.0149576 -1.00874e-14)
(1.54245 -0.0146997 -8.48577e-15)
(1.54853 -0.0144481 -8.67918e-15)
(1.5545 -0.0142026 -8.87288e-15)
(1.56035 -0.0139628 -8.94686e-15)
(1.56609 -0.0137286 -9.04425e-15)
(1.57173 -0.0134996 -9.14935e-15)
(1.57727 -0.0132757 -9.17241e-15)
(1.5827 -0.0130566 -9.12425e-15)
(1.58804 -0.0128422 -9.17976e-15)
(1.59328 -0.0126322 -9.23722e-15)
(1.59843 -0.0124266 -9.34514e-15)
(1.00017 -0.00213098 -2.16384e-18)
(1.00167 -0.0064021 -1.23343e-15)
(1.00488 -0.0105979 -1.20767e-15)
(1.00973 -0.0146323 -2.5793e-15)
(1.01609 -0.0184337 -3.58205e-15)
(1.02381 -0.0219449 -4.51837e-15)
(1.03279 -0.0251234 -3.94653e-15)
(1.04288 -0.0279415 -3.44928e-15)
(1.05393 -0.0303859 -3.02964e-15)
(1.05393 -0.0303859 -3.02964e-15)
)
;
    }
    procBoundary6to1
    {
        type            processor;
        value           uniform (1.60133 -0.0144997 -6.96895e-15);
    }
    procBoundary6to7
    {
        type            processor;
        value           nonuniform List<vector> 4((1.59714 -0.0165028 -5.23537e-15) (1.59 -0.0181709 -3.78958e-15) (1.57879 -0.0194426 -2.6311e-15) (1.56228 -0.0202633 -1.54892e-15));
    }
    procBoundary6to12
    {
        type            processor;
        value           nonuniform List<vector> 
68
(
(1.23818 -0.075603 -3.17301e-15)
(1.25278 -0.0742425 -3.07293e-15)
(1.26686 -0.0727193 -3.22776e-15)
(1.28041 -0.071073 -3.22143e-15)
(1.29343 -0.0693374 -3.10051e-15)
(1.3059 -0.0675415 -3.05107e-15)
(1.31784 -0.0657096 -3.0481e-15)
(1.32925 -0.063862 -2.97029e-15)
(1.34015 -0.0620157 -2.91104e-15)
(1.35055 -0.0601842 -2.95153e-15)
(1.36047 -0.0583785 -2.73958e-15)
(1.36993 -0.0566074 -2.51862e-15)
(1.37895 -0.0548774 -2.47328e-15)
(1.38754 -0.0531936 -2.41067e-15)
(1.39572 -0.0515596 -2.27601e-15)
(1.40352 -0.0499778 -2.24115e-15)
(1.41096 -0.0484497 -2.14114e-15)
(1.41805 -0.0469758 -2.04479e-15)
(1.42481 -0.0455561 -2.04296e-15)
(1.43126 -0.0441902 -1.99116e-15)
(1.43742 -0.0428771 -1.90831e-15)
(1.4433 -0.0416155 -1.9007e-15)
(1.44892 -0.0404041 -1.76425e-15)
(1.45429 -0.0392411 -1.6855e-15)
(1.45943 -0.0381248 -1.59563e-15)
(1.46434 -0.0370534 -1.56929e-15)
(1.46905 -0.0360251 -1.5383e-15)
(1.47355 -0.0350379 -1.41553e-15)
(1.47788 -0.03409 -1.46994e-15)
(1.48202 -0.0331796 -1.5102e-15)
(1.486 -0.032305 -1.44051e-15)
(1.48982 -0.0314644 -1.41262e-15)
(1.49349 -0.0306561 -1.29335e-15)
(1.49702 -0.0298786 -1.17793e-15)
(1.50041 -0.0291303 -1.11077e-15)
(1.50368 -0.0284098 -1.0649e-15)
(1.50683 -0.0277158 -9.34693e-16)
(1.50986 -0.0270469 -8.33217e-16)
(1.51278 -0.0264019 -8.9947e-16)
(1.51561 -0.0257795 -9.46726e-16)
(1.51833 -0.0251788 -9.02837e-16)
(1.52096 -0.0245987 -8.41725e-16)
(1.5235 -0.0240381 -8.74273e-16)
(1.52595 -0.0234962 -8.05961e-16)
(1.52833 -0.0229721 -7.02959e-16)
(1.53062 -0.022465 -6.1747e-16)
(1.53285 -0.021974 -5.68275e-16)
(1.535 -0.0214984 -5.46853e-16)
(1.53709 -0.0210377 -4.85456e-16)
(1.00028 -0.00580403 -5.35503e-18)
(1.00283 -0.0174727 -2.99521e-16)
(1.00829 -0.028828 -6.41757e-16)
(1.01648 -0.0395117 -1.04682e-15)
(1.02701 -0.0492686 -1.43175e-15)
(1.03952 -0.0579351 -1.75975e-15)
(1.05369 -0.0654237 -1.96981e-15)
(1.06916 -0.0717133 -2.6093e-15)
(1.0856 -0.0768341 -2.99839e-15)
(1.10272 -0.0808529 -2.75188e-15)
(1.12024 -0.0838584 -3.11159e-15)
(1.13793 -0.0859516 -2.99371e-15)
(1.1556 -0.0872378 -2.93941e-15)
(1.17308 -0.0878213 -2.83872e-15)
(1.19023 -0.0878021 -3.30141e-15)
(1.20694 -0.0872734 -2.97122e-15)
(1.22315 -0.0863209 -2.75528e-15)
(1.23818 -0.075603 -3.17301e-15)
(1.23877 -0.0850217 -3.22916e-15)
)
;
    }
}


// ************************************************************************* //
