/*--------------------------------*- C++ -*----------------------------------*\
  =========                 |
  \\      /  F ield         | OpenFOAM: The Open Source CFD Toolbox
   \\    /   O peration     | Website:  https://openfoam.org
    \\  /    A nd           | Version:  7
     \\/     M anipulation  |
\*---------------------------------------------------------------------------*/
FoamFile
{
    version     2.0;
    format      ascii;
    class       volScalarField;
    location    "1.6";
    object      p;
}
// * * * * * * * * * * * * * * * * * * * * * * * * * * * * * * * * * * * * * //

dimensions      [0 2 -2 0 0 0 0];

internalField   nonuniform List<scalar> 
344
(
3.62293
3.61591
3.60888
3.60186
3.59484
3.58782
3.5808
3.57378
3.56676
3.55975
3.55273
3.54572
3.53871
3.53171
3.5247
3.51771
3.51071
3.50373
3.49675
3.48978
3.48282
3.47587
3.46894
3.46202
3.45512
3.44824
3.44139
3.43457
3.42778
3.42104
3.41434
3.4077
3.40113
3.39464
3.38824
3.38194
3.37577
3.36974
3.36388
3.35821
3.35276
3.34757
3.34268
3.33812
3.33394
3.33019
3.32692
3.32418
3.32201
3.32044
3.31943
3.31897
3.3186
3.31867
3.31654
3.31952
3.30964
3.37714
3.67912
3.6721
3.66507
3.65805
3.65102
3.644
3.63698
3.62995
3.62293
3.61591
3.60889
3.60186
3.59484
3.58782
3.5808
3.57378
3.56677
3.55975
3.55274
3.54573
3.53872
3.53172
3.52472
3.51773
3.51074
3.50375
3.49678
3.48981
3.48286
3.47592
3.46899
3.46208
3.45519
3.44833
3.44149
3.43469
3.42793
3.42121
3.41455
3.40794
3.40142
3.39497
3.38863
3.38241
3.37632
3.37039
3.36465
3.35912
3.35384
3.34885
3.3442
3.33993
3.3361
3.33278
3.33003
3.32792
3.32652
3.32589
3.32602
3.32694
3.32825
3.3303
3.33073
3.33631
3.33123
3.39282
3.6721
3.66507
3.65805
3.65102
3.644
3.63698
3.62995
3.62293
3.61591
3.60889
3.60187
3.59484
3.58782
3.58081
3.57379
3.56677
3.55976
3.55275
3.54574
3.53873
3.53173
3.52473
3.51774
3.51075
3.50377
3.4968
3.48984
3.48289
3.47596
3.46904
3.46214
3.45526
3.4484
3.44158
3.43479
3.42805
3.42135
3.41471
3.40814
3.40165
3.39525
3.38896
3.38279
3.37677
3.37093
3.36528
3.35987
3.35473
3.34991
3.34545
3.34142
3.33787
3.33489
3.33255
3.33094
3.33014
3.33023
3.33123
3.33317
3.3357
3.33914
3.34139
3.3486
3.34696
3.40228
3.6721
3.66507
3.65805
3.65102
3.644
3.63698
3.62995
3.62293
3.61591
3.60889
3.60187
3.59485
3.58783
3.58081
3.57379
3.56678
3.55976
3.55275
3.54574
3.53874
3.53174
3.52474
3.51775
3.51077
3.50379
3.49682
3.48987
3.48292
3.47599
3.46907
3.46218
3.45531
3.44846
3.44165
3.43488
3.42815
3.42147
3.41485
3.4083
3.40184
3.39547
3.38922
3.3831
3.37713
3.37135
3.36579
3.36047
3.35544
3.35074
3.34644
3.3426
3.33928
3.33656
3.33454
3.3333
3.33295
3.33357
3.33519
3.33786
3.34124
3.3456
3.34912
3.35728
3.35806
3.40716
3.6721
3.66507
3.65805
3.65103
3.644
3.63698
3.62996
3.62293
3.61591
3.60889
3.60187
3.59485
3.58783
3.58081
3.57379
3.56678
3.55977
3.55276
3.54575
3.53875
3.53175
3.52475
3.51776
3.51078
3.5038
3.49684
3.48988
3.48294
3.47601
3.4691
3.46221
3.45535
3.44851
3.44171
3.43494
3.42822
3.42156
3.41495
3.40842
3.40198
3.39564
3.38942
3.38333
3.37741
3.37168
3.36617
3.36092
3.35598
3.35138
3.3472
3.34349
3.34034
3.33782
3.33602
3.33506
3.33502
3.33601
3.33805
3.34119
3.34512
3.35007
3.35444
3.36308
3.36558
3.40868
3.6721
3.66507
3.65805
3.65103
3.644
3.63698
3.62996
3.62293
3.61591
3.60889
3.60187
3.59485
3.58783
3.58081
3.5738
3.56678
3.55977
3.55276
3.54575
3.53875
3.53175
3.52476
3.51777
3.51079
3.50381
)
;

boundaryField
{
    inlet
    {
        type            zeroGradient;
    }
    outlet
    {
        type            fixedValue;
        value           nonuniform 0();
    }
    wall
    {
        type            zeroGradient;
    }
    wedge1
    {
        type            wedge;
    }
    wedge2
    {
        type            wedge;
    }
    axis
    {
        type            empty;
    }
    procBoundary32to26
    {
        type            processor;
        value           nonuniform List<scalar> 
67
(
3.62293
3.6159
3.60888
3.60186
3.59484
3.58781
3.58079
3.57377
3.56676
3.55974
3.55272
3.54571
3.5387
3.53169
3.52469
3.51769
3.51069
3.5037
3.49671
3.48974
3.48277
3.47581
3.46887
3.46194
3.45502
3.44813
3.44126
3.43442
3.4276
3.42083
3.4141
3.40742
3.4008
3.39424
3.38777
3.38139
3.37512
3.36897
3.36297
3.35713
3.35149
3.34605
3.34087
3.33596
3.33135
3.32708
3.32318
3.31967
3.31655
3.3138
3.31132
3.30906
3.30645
3.30382
3.29814
3.29719
3.28063
3.35305
3.67912
3.67209
3.66507
3.65805
3.65102
3.644
3.63697
3.62995
3.62995
)
;
    }
    procBoundary32to31
    {
        type            processor;
        value           nonuniform List<scalar> 5(3.68614 3.67912 3.67912 3.67912 3.67912);
    }
    procBoundary32to37
    {
        type            processor;
        value           uniform 3.67912;
    }
    procBoundary32to38
    {
        type            processor;
        value           nonuniform List<scalar> 
66
(
3.49685
3.4899
3.48295
3.47603
3.46912
3.46224
3.45538
3.44854
3.44175
3.43499
3.42828
3.42162
3.41503
3.40851
3.40208
3.39576
3.38956
3.3835
3.37761
3.37192
3.36645
3.36125
3.35636
3.35184
3.34774
3.34413
3.34109
3.3387
3.33706
3.33627
3.33644
3.33765
3.33995
3.34336
3.34761
3.35289
3.35781
3.36663
3.37031
3.4078
3.6721
3.66507
3.65805
3.65103
3.644
3.63698
3.62996
3.62293
3.61591
3.60889
3.60187
3.59485
3.58783
3.58081
3.5738
3.56678
3.55977
3.55276
3.54575
3.53875
3.53175
3.52476
3.51777
3.51079
3.49685
3.50382
)
;
    }
}


// ************************************************************************* //
