0 	0.502225 	1.38778e-18 	1.0436 	-0.702761 	1.58368e-18
0 	0.50678 	1.04083e-18 	4.26825 	-1.79789 	-6.05042e-18
0 	0.511549 	-2.42861e-18 	8.22744 	-2.69315 	1.69734e-18
0 	0.516543 	-2.77556e-18 	10.5863 	-3.0313 	-6.16981e-20
0 	0.521771 	-1.38778e-18 	9.6609 	-2.65519 	2.31785e-18
0 	0.527245 	3.85186e-34 	5.701 	-2.12069 	-1.55535e-18
0 	0.532976 	3.1225e-18 	0.452324 	-1.57557 	3.34103e-18
0 	0.538976 	5.89806e-18 	-3.95712 	-1.137 	-3.41161e-18
0 	0.545259 	6.93889e-18 	-6.27439 	-0.814749 	3.20168e-18
0 	0.551837 	6.93889e-18 	-6.51048 	-0.546634 	-2.66563e-18
0 	0.558725 	6.93889e-18 	-5.44263 	-0.305187 	1.68236e-18
0 	0.565936 	8.67362e-18 	-3.90359 	-0.114397 	-2.60453e-19
0 	0.573486 	9.02056e-18 	-2.42142 	-0.00013871 	-1.21063e-18
0 	0.581392 	9.36751e-18 	-1.23177 	0.0388425 	4.39028e-19
0 	0.589669 	1.11022e-17 	-0.394339 	0.0307701 	-5.67013e-19
0 	0.598335 	1.11022e-17 	0.122805 	0.00659172 	6.31539e-19
-6.84809e-19 	0.607408 	6.98705e-18 	0.575715 	0.202966 	1.99829e-20
-6.84809e-19 	0.616908 	6.96495e-18 	0.619061 	0.177392 	1.56096e-19
-6.84809e-19 	0.626855 	6.94252e-18 	0.609858 	0.153219 	1.95456e-19
-6.84809e-19 	0.637269 	6.91978e-18 	0.587505 	0.132292 	-5.46144e-20
-6.84809e-19 	0.648173 	6.89677e-18 	0.572773 	0.116065 	-2.13621e-19
-6.84809e-19 	0.65959 	6.87348e-18 	0.572803 	0.10533 	1.35122e-19
-6.84809e-19 	0.671543 	6.84995e-18 	0.587184 	0.100013 	-6.58172e-20
-6.84809e-19 	0.684059 	6.82619e-18 	0.612825 	0.0996835 	2.21905e-20
-6.84809e-19 	0.697162 	6.80223e-18 	0.646276 	0.103582 	1.62952e-20
-6.84809e-19 	0.710882 	6.77809e-18 	0.684783 	0.110919 	2.29108e-20
-6.84809e-19 	0.725247 	6.75379e-18 	0.726392 	0.120968 	3.02651e-19
-6.84809e-19 	0.740287 	6.72937e-18 	0.769773 	0.133079 	-2.03958e-19
-6.84809e-19 	0.756034 	6.70483e-18 	0.814003 	0.146695 	2.41058e-19
-6.84809e-19 	0.772522 	6.68021e-18 	0.858402 	0.161353 	-2.1949e-19
-6.84809e-19 	0.789785 	6.65554e-18 	0.902439 	0.176661 	-2.39252e-19
-6.84809e-19 	0.807859 	6.63084e-18 	0.945665 	0.192284 	1.83665e-19
-6.84809e-19 	0.826783 	6.60613e-18 	0.987675 	0.207928 	-1.89765e-19
-6.84809e-19 	0.846597 	6.58145e-18 	1.02809 	0.22333 	2.63306e-20
-6.84809e-19 	0.867342 	6.55681e-18 	1.06655 	0.238246 	2.52208e-19
-6.84809e-19 	0.889063 	6.53225e-18 	1.10269 	0.252457 	6.03939e-20
-6.84809e-19 	0.911805 	6.50778e-18 	1.13616 	0.265696 	-1.47614e-19
-6.84809e-19 	0.935616 	6.48344e-18 	1.16666 	0.277917 	-1.3583e-19
-6.84809e-19 	0.960546 	8.19397e-18 	1.19407 	0.28893 	9.97979e-20
-6.84809e-19 	0.986649 	9.90468e-18 	1.21827 	0.298279 	-1.97394e-19
-6.84809e-19 	1.02877 	9.45664e-18 	1.24972 	0.310227 	-5.09496e-20
-6.84809e-19 	1.08734 	9.02056e-18 	1.27759 	0.318827 	3.67889e-20
-6.84809e-19 	1.14803 	9.02056e-18 	1.29278 	0.321393 	-4.06847e-20
-6.84809e-19 	1.21092 	9.02056e-18 	1.29838 	0.318256 	5.33715e-20
-6.84809e-19 	1.27609 	9.02056e-18 	1.29724 	0.310824 	-4.87103e-20
-6.84809e-19 	1.34361 	7.63278e-18 	1.29167 	0.300341 	6.27402e-20
-1.92134e-18 	1.41358 	2.08167e-18 	1.2835 	0.287914 	6.54572e-20
-1.92134e-18 	1.48608 	2.08167e-18 	1.27397 	0.274429 	-1.29048e-20
-1.92134e-18 	1.5612 	3.81639e-18 	1.26388 	0.260521 	-3.67698e-20
-1.92134e-18 	1.63904 	5.55112e-18 	1.25368 	0.246608 	2.36924e-20
-1.92134e-18 	1.7197 	5.55112e-18 	1.24361 	0.232938 	2.37008e-21
-1.92134e-18 	1.80327 	5.55112e-18 	1.23379 	0.21966 	-1.14703e-20
-1.92134e-18 	1.88987 	7.28584e-18 	1.22424 	0.206857 	7.95323e-21
-1.92134e-18 	1.97961 	1.07553e-17 	1.21496 	0.194554 	1.08926e-20
-1.92134e-18 	2.07259 	1.249e-17 	1.20596 	0.182762 	-2.79727e-21
-1.92134e-18 	2.16893 	1.42247e-17 	1.19719 	0.171488 	-1.98974e-20
-1.92134e-18 	2.26876 	1.59595e-17 	1.18863 	0.160711 	1.01e-20
-1.92134e-18 	2.37221 	1.59595e-17 	1.18027 	0.150417 	-1.52314e-20
-1.92134e-18 	2.47939 	1.76942e-17 	1.1721 	0.14058 	-2.83534e-22
-1.92134e-18 	2.59046 	1.94289e-17 	1.16411 	0.13118 	-2.47258e-21
-1.92134e-18 	2.70554 	1.94289e-17 	1.15631 	0.1222 	2.05811e-20
-1.92134e-18 	2.82479 	1.94289e-17 	1.14869 	0.113616 	-1.57908e-20
-1.92134e-18 	2.94835 	1.94289e-17 	1.14127 	0.105407 	-6.55951e-21
-1.92134e-18 	3.07639 	2.11636e-17 	1.13407 	0.097553 	-1.51541e-21
-1.92134e-18 	3.20906 	2.28983e-17 	1.12709 	0.0900342 	6.13668e-21
-1.92134e-18 	3.34653 	2.28983e-17 	1.12036 	0.0828312 	-5.0712e-21
