/*--------------------------------*- C++ -*----------------------------------*\
  =========                 |
  \\      /  F ield         | OpenFOAM: The Open Source CFD Toolbox
   \\    /   O peration     | Website:  https://openfoam.org
    \\  /    A nd           | Version:  7
     \\/     M anipulation  |
\*---------------------------------------------------------------------------*/
FoamFile
{
    version     2.0;
    format      ascii;
    class       surfaceScalarField;
    location    "3.6";
    object      phi;
}
// * * * * * * * * * * * * * * * * * * * * * * * * * * * * * * * * * * * * * //

dimensions      [0 3 -1 0 0 0 0];

internalField   nonuniform List<scalar> 
615
(
0.000444521
-2.13627e-05
0.000444424
-2.02389e-05
0.000444242
-1.91887e-05
0.000443989
-1.82079e-05
0.000443678
-1.72923e-05
0.000443318
-1.64378e-05
0.000442918
-1.56405e-05
0.000442486
-1.48962e-05
0.000442029
-1.42013e-05
0.000441551
-1.35523e-05
0.000441058
-1.29457e-05
0.000440553
-1.23784e-05
0.00044004
-1.18476e-05
0.000439522
-1.13504e-05
0.000439
-1.08844e-05
0.000438478
-1.04471e-05
0.000437956
-1.00365e-05
0.000437435
-9.65048e-06
0.000436918
-9.28727e-06
0.000436405
-8.94515e-06
0.000435897
-8.62256e-06
0.000435395
-8.31806e-06
0.000434898
-8.03034e-06
0.000434408
-7.75819e-06
0.000433924
-7.50049e-06
0.000433448
-7.25622e-06
0.000432979
-7.02445e-06
0.000432517
-6.8043e-06
0.000432062
-6.59498e-06
0.000431615
-6.39577e-06
0.000431175
-6.206e-06
0.000430743
-6.02504e-06
0.000430318
-5.85232e-06
0.000429901
-5.68733e-06
0.00042949
-5.52958e-06
0.000429087
-5.37861e-06
0.000428692
-5.23403e-06
0.000428303
-5.09544e-06
0.000427921
-4.9625e-06
-4.83488e-06
0.000120761
-4.59486e-06
0.000122027
-1.42115e-05
0.000124066
-2.31694e-05
0.000126712
-3.10779e-05
0.000129761
-3.76468e-05
0.000133014
-4.27566e-05
0.000136296
-4.64361e-05
0.000139464
-4.88064e-05
0.00014242
-5.00403e-05
0.000145097
-5.03317e-05
0.000147464
-4.9873e-05
0.000149511
-4.88409e-05
0.000151247
-4.73896e-05
0.000152692
-4.56477e-05
0.00015387
-4.37195e-05
0.00015481
-4.16872e-05
0.00015554
-3.96136e-05
0.00015609
-3.75458e-05
0.000156484
-3.55181e-05
0.000156745
-3.35544e-05
0.000156896
-3.16708e-05
0.000156954
-2.98774e-05
0.000156935
-2.81797e-05
0.000156852
-2.65797e-05
0.000156718
-2.5077e-05
0.000156542
-2.36696e-05
0.000156332
-2.23541e-05
0.000156096
-2.11264e-05
0.000155839
-1.9982e-05
0.000155566
-1.8916e-05
0.000155282
-1.79235e-05
0.000154989
-1.69996e-05
0.000154691
-1.61397e-05
0.00015439
-1.53391e-05
0.000154087
-1.45935e-05
0.000153784
-1.38988e-05
0.000153483
-1.32512e-05
0.000153185
-1.26471e-05
0.000152889
-1.20831e-05
0.000152598
-1.15561e-05
0.000152311
-1.10632e-05
0.000152028
-1.06019e-05
0.000151751
-1.01696e-05
0.000151478
-9.76417e-06
0.000151211
-9.38348e-06
0.00015095
-9.02565e-06
0.000150694
-8.68894e-06
0.000150443
-8.37176e-06
0.000150197
-8.07264e-06
0.000149957
-7.79025e-06
0.000149722
-7.52335e-06
0.000149493
-7.27082e-06
0.000149268
-7.03163e-06
0.000149049
-6.80483e-06
0.000148834
-6.58955e-06
0.000148624
-6.38499e-06
0.000148418
-6.19042e-06
0.000148218
-6.00517e-06
0.000148021
-5.82862e-06
0.000147829
-5.66021e-06
0.000147641
-5.49939e-06
0.000147457
-5.34571e-06
0.000147277
-5.1987e-06
0.000147101
-5.05797e-06
0.000146929
-4.92313e-06
0.00014676
-4.79383e-06
-4.66975e-06
0.000123379
-5.06294e-06
0.000124808
-1.56407e-05
0.000127102
-2.54627e-05
0.000130043
-3.40193e-05
0.000133387
-4.09906e-05
0.000136897
-4.62668e-05
0.000140372
-4.99115e-05
0.00014366
-5.20942e-05
0.000146658
-5.30379e-05
0.000149307
-5.29812e-05
0.000151586
-5.2152e-05
0.000153498
-5.07527e-05
0.000155063
-4.89543e-05
0.000156311
-4.68955e-05
0.000157276
-4.46853e-05
0.000157996
-4.24069e-05
0.000158505
-4.01221e-05
0.000158834
-3.78754e-05
0.000159014
-3.56978e-05
0.000159069
-3.36099e-05
0.000159023
-3.16244e-05
0.000158894
-2.97482e-05
0.000158698
-2.79838e-05
0.000158449
-2.63309e-05
0.000158159
-2.47867e-05
0.000157837
-2.33474e-05
0.00015749
-2.20078e-05
0.000157126
-2.07626e-05
0.00015675
-1.96059e-05
0.000156366
-1.8532e-05
0.000155978
-1.75352e-05
0.000155588
-1.66098e-05
0.000155199
-1.57507e-05
0.000154813
-1.49527e-05
0.000154431
-1.42112e-05
0.000154053
-1.35217e-05
0.000153682
-1.28801e-05
0.000153318
-1.22826e-05
0.00015296
-1.17257e-05
0.000152611
-1.12062e-05
0.000152268
-1.0721e-05
0.000151934
-1.02674e-05
0.000151607
-9.84298e-06
0.000151288
-9.44533e-06
0.000150977
-9.07237e-06
0.000150674
-8.72217e-06
0.000150378
-8.39296e-06
0.000150089
-8.08313e-06
0.000149808
-7.79119e-06
0.000149533
-7.51581e-06
0.000149266
-7.25574e-06
0.000149005
-7.00984e-06
0.00014875
-6.7771e-06
0.000148502
-6.55655e-06
0.00014826
-6.34734e-06
0.000148023
-6.14866e-06
0.000147793
-5.95978e-06
0.000147568
-5.78005e-06
0.000147348
-5.60884e-06
0.000147133
-5.4456e-06
0.000146924
-5.2898e-06
0.000146719
-5.14096e-06
0.000146519
-4.99865e-06
0.000146323
-4.86247e-06
0.000146132
-4.73204e-06
0.000145945
-4.60701e-06
-4.48707e-06
0.000126006
-5.59354e-06
0.000127637
-1.72719e-05
0.000130228
-2.80531e-05
0.000133504
-3.72957e-05
0.000137166
-4.46526e-05
0.000140935
-5.00355e-05
0.000144584
-5.35605e-05
0.000147952
-5.54623e-05
0.000150941
-5.60268e-05
0.000153504
-5.55449e-05
0.000155636
-5.42833e-05
0.000157353
-5.24706e-05
0.000158693
-5.02935e-05
0.000159696
-4.78984e-05
0.000160407
-4.53968e-05
0.000160871
-4.28705e-05
0.000161127
-4.03782e-05
0.000161211
-3.79602e-05
0.000161157
-3.5643e-05
0.000160989
-3.34427e-05
0.000160733
-3.1368e-05
0.000160407
-2.9422e-05
0.000160027
-2.76039e-05
0.000159607
-2.59105e-05
0.000159157
-2.43369e-05
0.000158686
-2.28769e-05
0.000158202
-2.15238e-05
0.000157711
-2.02709e-05
0.000157216
-1.91112e-05
0.000156722
-1.80379e-05
0.000156231
-1.70445e-05
0.000155746
-1.61248e-05
0.000155268
-1.5273e-05
0.000154799
-1.44837e-05
0.00015434
-1.37518e-05
0.000153891
-1.30725e-05
0.000153452
-1.24416e-05
0.000153025
-1.1855e-05
0.000152608
-1.13092e-05
0.000152203
-1.08007e-05
0.000151808
-1.03265e-05
0.000151424
-9.88371e-06
0.000151051
-9.46986e-06
0.000150689
-9.08258e-06
0.000150336
-8.71973e-06
0.000149993
-8.37935e-06
0.00014966
-8.05968e-06
0.000149336
-7.75908e-06
0.000149021
-7.47607e-06
0.000148714
-7.20932e-06
0.000148416
-6.95758e-06
0.000148126
-6.71972e-06
0.000147844
-6.49473e-06
0.000147569
-6.28165e-06
0.000147301
-6.07964e-06
0.00014704
-5.88791e-06
0.000146786
-5.70574e-06
0.000146539
-5.53246e-06
0.000146297
-5.36748e-06
0.000146062
-5.21023e-06
0.000145832
-5.06022e-06
0.000145608
-4.91698e-06
0.00014539
-4.78006e-06
0.000145176
-4.64909e-06
0.000144968
-4.52368e-06
0.000144764
-4.40352e-06
-4.28827e-06
0.000128651
-6.20413e-06
0.000130524
-1.91454e-05
0.000133462
-3.09912e-05
0.000137115
-4.09485e-05
0.000141113
-4.8651e-05
0.000145131
-5.40532e-05
0.000148919
-5.73482e-05
0.000152313
-5.88568e-05
0.000155228
-5.89417e-05
0.000157636
-5.79528e-05
0.000159551
-5.61978e-05
0.00016101
-5.39301e-05
0.000162066
-5.13494e-05
0.000162774
-4.86064e-05
0.000163189
-4.58115e-05
0.000163361
-4.30429e-05
0.000163336
-4.03535e-05
0.000163154
-3.77778e-05
0.000162847
-3.53363e-05
0.000162444
-3.30399e-05
0.000161969
-3.08922e-05
0.000161439
-2.88922e-05
0.000160871
-2.70357e-05
0.000160276
-2.53163e-05
0.000159666
-2.37266e-05
0.000159048
-2.22585e-05
0.000158427
-2.09035e-05
0.00015781
-1.96535e-05
0.000157199
-1.85004e-05
0.000156598
-1.74365e-05
0.000156008
-1.64547e-05
0.000155431
-1.55481e-05
0.000154869
-1.47104e-05
0.000154321
-1.39358e-05
0.000153788
-1.3219e-05
0.000153271
-1.25551e-05
0.000152769
0.000152282
0.00015181
0.000151352
0.000150909
0.000150479
0.000150063
0.000149659
0.000149268
0.000148889
0.000148522
0.000148165
0.000147819
0.000147483
0.000147157
0.00014684
0.000146533
0.000146233
0.000145943
0.00014566
0.000145384
0.000145116
0.000144855
0.000144601
0.000144354
0.000144112
0.000143877
0.000143647
0.000143423
0.000143205
0.000131318
0.000133485
0.000136829
0.000140898
0.000145242
0.000149483
0.000153356
0.000156704
0.000159464
0.000161634
0.000163255
0.000164387
0.0001651
0.000165463
0.00016554
0.00016539
0.000165059
0.000164591
0.00016402
0.000163372
0.000162671
0.000161935
0.000161178
0.000160411
0.000159642
0.000158879
0.000158126
0.000157387
0.000156665
0.000155962
0.000155278
0.000154615
0.000153972
0.00015335
0.000152749
)
;

boundaryField
{
    inlet
    {
        type            calculated;
        value           nonuniform List<scalar> 5(-0.000120347 -0.000122911 -0.000125475 -0.00012804 -0.000130604);
    }
    outlet
    {
        type            calculated;
        value           nonuniform 0();
    }
    wall
    {
        type            calculated;
        value           nonuniform 0();
    }
    wedge1
    {
        type            wedge;
        value           nonuniform List<scalar> 
344
(
2.23317e-16
2.11886e-16
2.01137e-16
1.91128e-16
1.8173e-16
1.72916e-16
1.64643e-16
1.56896e-16
1.49647e-16
1.42852e-16
1.36486e-16
1.30514e-16
1.24901e-16
1.19638e-16
1.14701e-16
1.10052e-16
1.05677e-16
1.01552e-16
9.76615e-17
9.40125e-17
9.0555e-17
8.72815e-17
8.4182e-17
8.12429e-17
7.84579e-17
7.58117e-17
7.33048e-17
7.09197e-17
6.86211e-17
6.65307e-17
6.45693e-17
6.25893e-17
6.06973e-17
5.88951e-17
5.71682e-17
5.55072e-17
5.39199e-17
5.23949e-17
5.09337e-17
4.9535e-17
-1.49123e-16
-1.64514e-16
7.49598e-16
-1.93571e-16
-2.11421e-16
-5.1742e-16
-5.62973e-16
2.51827e-15
-6.59848e-16
-7.18942e-16
-8.69689e-16
-9.41166e-16
4.19522e-15
-1.09777e-15
-1.19127e-15
-1.18516e-15
-1.27562e-15
5.65969e-15
-1.47349e-15
-1.58816e-15
-1.45176e-15
-1.55306e-15
6.84999e-15
-1.77123e-15
-1.89315e-15
-1.66344e-15
-1.76777e-15
7.74479e-15
-1.98694e-15
-2.10421e-15
-1.82017e-15
-1.92092e-15
8.35483e-15
-2.12573e-15
-2.22979e-15
-1.92561e-15
-2.01783e-15
8.711e-15
-2.19772e-15
-2.2835e-15
-1.98578e-15
-2.06621e-15
8.85372e-15
-2.21526e-15
-2.2807e-15
-2.00782e-15
-2.07474e-15
8.82577e-15
-2.19078e-15
-2.23596e-15
-1.99887e-15
-2.0518e-15
8.66759e-15
-2.13535e-15
-2.16178e-15
-1.96572e-15
-2.00508e-15
8.41484e-15
-2.05851e-15
-2.06842e-15
-1.91455e-15
-1.94133e-15
8.09719e-15
-1.96797e-15
-1.96389e-15
-1.85051e-15
-1.86603e-15
7.73848e-15
-1.86959e-15
-1.85405e-15
-1.77776e-15
-1.78346e-15
7.35724e-15
-1.76765e-15
-1.74298e-15
-1.69984e-15
-1.69716e-15
6.96716e-15
-1.66556e-15
-1.63382e-15
-1.61937e-15
-1.60971e-15
6.57842e-15
-1.56549e-15
-1.52846e-15
-1.53827e-15
-1.5229e-15
6.1983e-15
-1.46883e-15
-1.42799e-15
-1.45818e-15
-1.43822e-15
5.83151e-15
-1.37669e-15
-1.33326e-15
-1.38013e-15
-1.35657e-15
5.48125e-15
-1.28958e-15
-1.24453e-15
-1.30479e-15
-1.27847e-15
5.14947e-15
-1.20765e-15
-1.16176e-15
-1.23277e-15
-1.2044e-15
4.83689e-15
-1.13112e-15
-1.085e-15
-1.16432e-15
-1.13449e-15
4.54381e-15
-1.05984e-15
-1.01396e-15
-1.09958e-15
-1.06878e-15
4.26997e-15
-9.93618e-16
-9.48343e-16
-1.0386e-15
-1.00722e-15
4.01476e-15
-9.32229e-16
-8.87815e-16
-9.8132e-16
-9.49692e-16
3.77739e-15
-8.75401e-16
-8.32041e-16
-9.27652e-16
-8.96028e-16
3.55693e-15
-8.22842e-16
-7.80667e-16
-8.77458e-16
-8.46043e-16
3.35237e-15
-7.74265e-16
-7.33363e-16
-8.3056e-16
-7.99509e-16
3.16273e-15
-7.29325e-16
-6.89736e-16
-7.86821e-16
-7.56245e-16
2.98689e-15
-6.87847e-16
-6.49599e-16
-7.46026e-16
-7.16036e-16
2.82391e-15
-6.4952e-16
-6.12623e-16
-7.07999e-16
-6.78659e-16
2.67282e-15
-6.14085e-16
-5.78524e-16
-6.72556e-16
-6.43914e-16
2.53272e-15
-5.81309e-16
-5.47056e-16
-6.39525e-16
-6.11611e-16
2.40275e-15
-5.50978e-16
-5.18e-16
-6.087e-16
-5.81539e-16
2.28215e-15
-5.22827e-16
-4.91084e-16
-5.79985e-16
-5.53558e-16
2.17009e-15
-4.9678e-16
-4.66217e-16
-5.53187e-16
-5.27516e-16
2.06592e-15
-4.7261e-16
-5.28165e-16
-5.03243e-16
1.969e-15
-4.50161e-16
-5.04788e-16
-4.80604e-16
1.87875e-15
-4.29292e-16
-4.82938e-16
-4.59474e-16
1.79461e-15
-4.09869e-16
-4.62461e-16
-4.39708e-16
1.71614e-15
-3.91718e-16
-4.43316e-16
-4.21228e-16
1.64281e-15
-3.74835e-16
-4.25361e-16
-4.03937e-16
1.57423e-15
-3.59061e-16
-4.08515e-16
-3.87735e-16
1.51002e-15
-3.44317e-16
-3.92692e-16
-3.72531e-16
1.44984e-15
-3.3051e-16
-3.77813e-16
-3.58252e-16
1.39336e-15
-3.17569e-16
-3.63781e-16
-3.44793e-16
1.34034e-15
-3.05372e-16
-3.50586e-16
-3.32145e-16
1.29044e-15
-2.93952e-16
-3.38138e-16
-3.20232e-16
1.24344e-15
-2.8321e-16
-3.26386e-16
-3.08992e-16
1.19912e-15
-2.73093e-16
-3.15276e-16
-2.98377e-16
1.15729e-15
-2.63552e-16
-3.04763e-16
-2.88337e-16
1.11775e-15
-2.54539e-16
-2.94802e-16
-2.78832e-16
1.08035e-15
-2.46018e-16
-2.85356e-16
-2.69823e-16
1.04493e-15
-2.37951e-16
-2.76388e-16
-2.61278e-16
1.01133e-15
-2.30307e-16
-2.67873e-16
-2.53167e-16
9.79436e-16
-2.23059e-16
-2.59711e-16
-2.4541e-16
9.49184e-16
-2.16108e-16
-2.51992e-16
-2.38045e-16
9.20366e-16
-2.09554e-16
-2.44632e-16
-2.31048e-16
8.92915e-16
-2.03321e-16
-2.37615e-16
-2.24376e-16
8.66749e-16
-1.97382e-16
-2.30912e-16
-2.18008e-16
8.41784e-16
-1.91719e-16
-2.24508e-16
-2.11925e-16
8.17938e-16
-1.86315e-16
-2.18383e-16
-2.06111e-16
7.95146e-16
-1.81151e-16
-2.12519e-16
-2.00546e-16
7.73339e-16
-1.76213e-16
-2.06902e-16
-1.95217e-16
7.52457e-16
-1.71487e-16
-2.01512e-16
-1.90106e-16
7.32448e-16
-1.66957e-16
-1.9634e-16
-1.85201e-16
7.13258e-16
-1.62614e-16
)
;
    }
    wedge2
    {
        type            wedge;
        value           nonuniform List<scalar> 
344
(
2.2443e-16
2.13246e-16
2.02744e-16
1.92806e-16
1.83501e-16
1.74788e-16
1.66643e-16
1.59015e-16
1.51862e-16
1.45168e-16
1.38895e-16
1.33019e-16
1.2752e-16
1.22356e-16
1.175e-16
1.12946e-16
1.08665e-16
1.04642e-16
1.00856e-16
9.72659e-17
9.38902e-17
9.07072e-17
8.77006e-17
8.48592e-17
8.21667e-17
7.9617e-17
7.71911e-17
7.48881e-17
7.27267e-17
7.05691e-17
6.84846e-17
6.66037e-17
6.48093e-17
6.30887e-17
6.1446e-17
5.98822e-17
5.83796e-17
5.69423e-17
5.5561e-17
5.42304e-17
-1.49124e-16
-1.64513e-16
7.49602e-16
-1.93568e-16
-2.1142e-16
-5.17457e-16
-5.62963e-16
2.51831e-15
-6.59803e-16
-7.18898e-16
-8.69739e-16
-9.41149e-16
4.19528e-15
-1.0977e-15
-1.1912e-15
-1.18522e-15
-1.2756e-15
5.65979e-15
-1.47334e-15
-1.58799e-15
-1.45176e-15
-1.55297e-15
6.85016e-15
-1.77099e-15
-1.89286e-15
-1.6635e-15
-1.76772e-15
7.74492e-15
-1.98674e-15
-2.10396e-15
-1.82016e-15
-1.92082e-15
8.35503e-15
-2.12546e-15
-2.22946e-15
-1.92557e-15
-2.0177e-15
8.7112e-15
-2.19746e-15
-2.28319e-15
-1.98574e-15
-2.06609e-15
8.8539e-15
-2.21503e-15
-2.28043e-15
-2.0077e-15
-2.07456e-15
8.82603e-15
-2.19046e-15
-2.2356e-15
-1.99873e-15
-2.05159e-15
8.66785e-15
-2.13504e-15
-2.16142e-15
-1.96564e-15
-2.00492e-15
8.41506e-15
-2.05823e-15
-2.06811e-15
-1.91442e-15
-1.94113e-15
8.09748e-15
-1.96762e-15
-1.9635e-15
-1.8503e-15
-1.86573e-15
7.73886e-15
-1.86914e-15
-1.85354e-15
-1.77761e-15
-1.78323e-15
7.35752e-15
-1.76733e-15
-1.74261e-15
-1.69965e-15
-1.69691e-15
6.96749e-15
-1.66518e-15
-1.6334e-15
-1.6191e-15
-1.60937e-15
6.57884e-15
-1.56501e-15
-1.52793e-15
-1.53806e-15
-1.52263e-15
6.19864e-15
-1.46842e-15
-1.42753e-15
-1.45792e-15
-1.4379e-15
5.83191e-15
-1.37622e-15
-1.33273e-15
-1.3798e-15
-1.35616e-15
5.48175e-15
-1.28901e-15
-1.2439e-15
-1.30451e-15
-1.27812e-15
5.14989e-15
-1.20715e-15
-1.16121e-15
-1.23245e-15
-1.204e-15
4.83738e-15
-1.13055e-15
-1.08438e-15
-1.16394e-15
-1.13402e-15
4.54438e-15
-1.05919e-15
-1.01325e-15
-1.09915e-15
-1.06825e-15
4.2706e-15
-9.92899e-16
-9.47552e-16
-1.0381e-15
-1.00663e-15
4.01546e-15
-9.31441e-16
-8.86952e-16
-9.80771e-16
-9.49035e-16
3.77816e-15
-8.74541e-16
-8.31101e-16
-9.27048e-16
-8.95314e-16
3.55776e-15
-8.21918e-16
-7.79659e-16
-8.768e-16
-8.45269e-16
3.35326e-15
-7.73271e-16
-7.32281e-16
-8.29879e-16
-7.98718e-16
3.16359e-15
-7.28372e-16
-6.8871e-16
-7.86073e-16
-7.55412e-16
2.98782e-15
-6.86835e-16
-6.48522e-16
-7.45228e-16
-7.15141e-16
2.8249e-15
-6.48439e-16
-6.11469e-16
-7.07151e-16
-6.77709e-16
2.67388e-15
-6.12941e-16
-5.773e-16
-6.7166e-16
-6.4291e-16
2.53383e-15
-5.80103e-16
-5.4577e-16
-6.38574e-16
-6.10547e-16
2.40393e-15
-5.49701e-16
-5.1664e-16
-6.07758e-16
-5.80467e-16
2.2833e-15
-5.21596e-16
-4.89768e-16
-5.78984e-16
-5.52463e-16
2.17129e-15
-4.9549e-16
-4.64861e-16
-5.5214e-16
-5.26366e-16
2.06717e-15
-4.71265e-16
-5.27079e-16
-5.02047e-16
1.97031e-15
-4.48764e-16
-5.03663e-16
-4.79362e-16
1.8801e-15
-4.27839e-16
-4.81763e-16
-4.58181e-16
1.79602e-15
-4.08357e-16
-4.613e-16
-4.3841e-16
1.71753e-15
-3.90256e-16
-4.42099e-16
-4.19909e-16
1.64424e-15
-3.73316e-16
-4.24107e-16
-4.02576e-16
1.5757e-15
-3.57498e-16
-4.07219e-16
-3.86324e-16
1.51154e-15
-3.42698e-16
-3.91354e-16
-3.71077e-16
1.45141e-15
-3.2884e-16
-3.76436e-16
-3.56753e-16
1.39498e-15
-3.15846e-16
-3.62421e-16
-3.43314e-16
1.34192e-15
-3.037e-16
-3.49186e-16
-3.30638e-16
1.29206e-15
-2.92241e-16
-3.36702e-16
-3.18683e-16
1.2451e-15
-2.81455e-16
-3.2491e-16
-3.07402e-16
1.20083e-15
-2.7129e-16
-3.13761e-16
-2.96743e-16
1.15904e-15
-2.61699e-16
-3.03209e-16
-2.86664e-16
1.11955e-15
-2.52644e-16
-2.93213e-16
-2.77122e-16
1.08219e-15
-2.44081e-16
-2.83733e-16
-2.68078e-16
1.0468e-15
-2.35976e-16
-2.74733e-16
-2.59496e-16
1.01324e-15
-2.28293e-16
-2.66172e-16
-2.51338e-16
9.8139e-16
-2.20999e-16
-2.5809e-16
-2.43628e-16
9.51068e-16
-2.14138e-16
-2.50339e-16
-2.36271e-16
9.22263e-16
-2.07559e-16
-2.42955e-16
-2.29244e-16
8.94843e-16
-2.01293e-16
-2.35906e-16
-2.22541e-16
8.68708e-16
-1.95321e-16
-2.29175e-16
-2.16143e-16
8.43772e-16
-1.89625e-16
-2.2274e-16
-2.10029e-16
8.19962e-16
-1.84185e-16
-2.16583e-16
-2.04181e-16
7.97202e-16
-1.78988e-16
-2.10688e-16
-1.98584e-16
7.75428e-16
-1.74017e-16
-2.05037e-16
-1.93221e-16
7.5458e-16
-1.69257e-16
-1.99621e-16
-1.88084e-16
7.34599e-16
-1.64699e-16
-1.94423e-16
-1.83155e-16
7.15435e-16
-1.60329e-16
)
;
    }
    axis
    {
        type            empty;
        value           nonuniform 0();
    }
    procBoundary18to12
    {
        type            processor;
        value           nonuniform List<scalar> 
68
(
2.13578e-05
2.03356e-05
1.93704e-05
1.84606e-05
1.76039e-05
1.67979e-05
1.60402e-05
1.5328e-05
1.46588e-05
1.40299e-05
1.34388e-05
1.28832e-05
1.23606e-05
1.18689e-05
1.14059e-05
1.09698e-05
1.05586e-05
1.01706e-05
9.80432e-06
9.45813e-06
9.13069e-06
8.8207e-06
8.52698e-06
8.2484e-06
7.98396e-06
7.7327e-06
7.49375e-06
7.26629e-06
7.04958e-06
6.84293e-06
6.6457e-06
6.45729e-06
6.27716e-06
6.10481e-06
5.93976e-06
5.78158e-06
5.62988e-06
5.48427e-06
5.3444e-06
5.20997e-06
4.18038e-06
1.29458e-05
2.11298e-05
2.84321e-05
3.45977e-05
3.95034e-05
4.31549e-05
4.56377e-05
4.70853e-05
4.76544e-05
4.75062e-05
4.67935e-05
4.56533e-05
4.42033e-05
4.25416e-05
4.07473e-05
3.88829e-05
3.69965e-05
3.51242e-05
3.32925e-05
3.15201e-05
2.98196e-05
2.81988e-05
2.66622e-05
2.52113e-05
2.38458e-05
-0.000444516
2.25639e-05
)
;
    }
    procBoundary18to13
    {
        type            processor;
        value           uniform 0.000427546;
    }
    procBoundary18to19
    {
        type            processor;
        value           nonuniform List<scalar> 4(0.000146595 0.000145763 0.000144566 0.000142992);
    }
    procBoundary18to24
    {
        type            processor;
        value           nonuniform List<scalar> 
68
(
-1.19395e-05
-1.13681e-05
-1.08371e-05
-1.03432e-05
-9.88311e-06
-9.45412e-06
-9.05359e-06
-8.67916e-06
-8.3287e-06
-8.00025e-06
-7.69205e-06
-7.40247e-06
-7.13006e-06
-6.87346e-06
-6.63147e-06
-6.40297e-06
-6.18696e-06
-5.9825e-06
-5.78877e-06
-5.60498e-06
-5.43043e-06
-5.26448e-06
-5.10654e-06
-4.95607e-06
-4.81258e-06
-4.6756e-06
-4.54472e-06
-4.41956e-06
-4.29976e-06
-4.18499e-06
-4.07496e-06
-6.91785e-06
-2.13122e-05
-3.43351e-05
-4.5018e-05
-5.29945e-05
-5.82944e-05
-6.12208e-05
-6.22055e-05
-6.17014e-05
-6.0123e-05
-5.78182e-05
-5.50622e-05
-5.20623e-05
-4.89695e-05
-4.58892e-05
-4.28921e-05
-4.00234e-05
-3.73097e-05
-3.47646e-05
-3.23923e-05
-3.01913e-05
-2.8156e-05
-2.62784e-05
-2.45491e-05
-2.29581e-05
-2.14953e-05
-2.01507e-05
-1.89147e-05
-1.77783e-05
-1.6733e-05
-1.57709e-05
-1.48848e-05
-1.40679e-05
-1.33142e-05
-1.2618e-05
0.000152169
-1.19743e-05
)
;
    }
}


// ************************************************************************* //
