/*--------------------------------*- C++ -*----------------------------------*\
  =========                 |
  \\      /  F ield         | OpenFOAM: The Open Source CFD Toolbox
   \\    /   O peration     | Website:  https://openfoam.org
    \\  /    A nd           | Version:  7
     \\/     M anipulation  |
\*---------------------------------------------------------------------------*/
FoamFile
{
    version     2.0;
    format      ascii;
    class       volVectorField;
    location    "8";
    object      U;
}
// * * * * * * * * * * * * * * * * * * * * * * * * * * * * * * * * * * * * * //

dimensions      [0 1 -1 0 0 0 0];

internalField   nonuniform List<vector> 
435
(
(1.11332 0.223715 4.88239e-22)
(1.09161 0.215647 -4.09336e-23)
(1.0977 0.214124 -7.70903e-22)
(1.10325 0.212518 -1.15592e-21)
(1.10862 0.210855 2.51942e-21)
(1.11401 0.209135 -1.18421e-22)
(1.09425 0.201658 -1.4933e-21)
(1.0996 0.200164 4.78933e-21)
(1.10448 0.198611 -1.04281e-21)
(1.10923 0.197018 -8.89469e-22)
(1.114 0.195383 -3.97984e-22)
(1.09594 0.188391 -3.82597e-22)
(1.10064 0.186948 -2.95763e-21)
(1.10493 0.185464 8.61428e-22)
(1.10913 0.183951 1.50362e-22)
(1.11336 0.18241 7.07052e-22)
(1.09679 0.175816 -3.2245e-22)
(1.10092 0.17444 -1.54395e-22)
(1.1047 0.173034 -9.13801e-22)
(1.10842 0.171608 -5.83089e-22)
(1.11217 0.170163 -6.36767e-22)
(1.09688 0.163903 3.88809e-21)
(1.10051 0.162601 -2.72997e-22)
(1.10385 0.161279 1.79266e-21)
(1.10714 0.159944 -2.42134e-22)
(1.11048 0.158596 7.25614e-22)
(1.0963 0.152616 -4.7537e-21)
(1.09951 0.151395 -3.66188e-22)
(1.10245 0.150159 -6.50387e-22)
(1.10538 0.148916 1.0384e-21)
(1.10835 0.147664 -1.29707e-22)
(1.09514 0.141924 3.87736e-21)
(1.09797 0.140785 1.49517e-21)
(1.10058 0.139637 5.18013e-22)
(1.10318 0.138484 -3.90326e-22)
(1.10583 0.137327 -3.30815e-22)
(1.09346 0.131794 -2.86501e-21)
(1.09597 0.130738 5.41081e-22)
(1.09828 0.129676 -3.03491e-22)
(1.1006 0.128613 -6.77019e-22)
(1.10298 0.127547 5.40058e-22)
(1.09134 0.122195 -4.22304e-22)
(1.09357 0.121221 -2.44203e-21)
(1.09563 0.120245 -4.08448e-23)
(1.09771 0.119268 9.21117e-22)
(1.09983 0.11829 -2.11566e-22)
(1.08885 0.1131 -3.1396e-23)
(1.09083 0.112206 1.18246e-21)
(1.09268 0.111312 -3.91561e-22)
(1.09454 0.110418 -1.19697e-21)
(1.09645 0.109524 -4.36083e-22)
(1.08605 0.10448 1.22616e-21)
(1.08782 0.103664 4.39519e-22)
(1.08948 0.102849 6.16873e-22)
(1.09116 0.102035 7.52292e-22)
(1.09288 0.101221 9.37733e-23)
(1.08299 0.0963089 6.59536e-22)
(1.08459 0.0955684 8.62343e-22)
(1.08608 0.0948284 -3.47098e-22)
(1.0876 0.0940899 -3.45808e-23)
(1.08917 0.0933521 1.48304e-22)
(1.07975 0.0885623 1.26456e-22)
(1.08119 0.0878931 -1.06625e-21)
(1.08255 0.0872247 -6.15885e-23)
(1.08393 0.0865578 -2.26865e-23)
(1.08535 0.0858915 1.30053e-22)
(1.07637 0.0812156 -2.42055e-22)
(1.07768 0.0806139 -3.77263e-24)
(1.07892 0.080013 -1.20828e-22)
(1.08018 0.0794135 -3.49637e-22)
(1.08148 0.0788145 1.68577e-22)
(1.07291 0.074245 -5.15448e-22)
(1.07411 0.0737069 -2.54934e-22)
(1.07524 0.0731694 3.98648e-22)
(1.07641 0.072633 3.88205e-22)
(1.0776 0.0720969 7.06776e-23)
(1.06942 0.0676272 5.73868e-22)
(1.07051 0.0671486 -3.69454e-22)
(1.07157 0.0666704 -1.16992e-22)
(1.07264 0.0661929 -3.77496e-22)
(1.07375 0.0657155 5.99484e-23)
(1.06593 0.0613393 -7.0924e-22)
(1.06695 0.0609161 2.24211e-22)
(1.06793 0.0604931 -7.31155e-22)
(1.06893 0.0600704 7.46327e-22)
(1.06996 0.0596475 -1.02063e-22)
(1.06251 0.0553581 5.41099e-22)
(1.06345 0.0549864 5.86633e-22)
(1.06437 0.0546145 3.67471e-22)
(1.06531 0.0542425 4.45257e-23)
(1.06627 0.0538702 3.85098e-23)
(1.05918 0.0496605 -1.72035e-22)
(1.06006 0.0493363 -3.74286e-22)
(1.06093 0.0490115 5.29764e-23)
(1.06181 0.0486864 -2.90197e-22)
(1.06271 0.0483608 -2.47506e-22)
(1.05598 0.0442227 -2.91107e-22)
(1.05682 0.0439422 -1.7346e-22)
(1.05764 0.0436609 -3.15728e-22)
(1.05847 0.043379 -4.65165e-22)
(1.05932 0.0430963 -6.96482e-23)
(1.05296 0.03902 7.42681e-22)
(1.05375 0.0387796 9.25265e-22)
(1.05453 0.0385382 4.55901e-22)
(1.05533 0.038296 8.90249e-23)
(1.05614 0.0380529 1.25507e-22)
(1.05014 0.0340269 2.19069e-22)
(1.0509 0.0338232 -9.84307e-22)
(1.05165 0.0336184 -6.74787e-22)
(1.05241 0.0334126 2.80522e-22)
(1.05318 0.0332058 -4.5369e-23)
(1.04755 0.0292157 -7.55844e-22)
(1.04828 0.0290456 2.98786e-22)
(1.04901 0.0288743 4.76393e-22)
(1.04974 0.028702 -2.54073e-22)
(1.05048 0.0285287 -8.11251e-23)
(1.04523 0.024557 2.06331e-23)
(1.04594 0.0244177 1.13237e-22)
(1.04664 0.0242772 -4.65639e-23)
(1.04735 0.0241358 -1.92589e-22)
(1.04807 0.0239932 2.36683e-22)
(1.04322 0.0200181 3.82024e-22)
(1.0439 0.0199072 -3.4098e-22)
(1.04459 0.0197951 2.89219e-22)
(1.04528 0.0196821 -5.62068e-24)
(1.04597 0.0195682 2.90429e-22)
(1.04153 0.0155632 -1.90666e-22)
(1.0422 0.0154786 2.48915e-22)
(1.04287 0.0153931 -1.45759e-22)
(1.04355 0.0153067 -3.17188e-22)
(1.04423 0.0152196 1.70781e-22)
(1.0402 0.0111507 -1.0161e-22)
(1.04087 0.0110908 -1.52301e-22)
(1.04153 0.0110301 2.21758e-22)
(1.04219 0.0109689 -9.87866e-23)
(1.04286 0.010907 1.22602e-22)
(1.03928 0.00673468 1.4065e-22)
(1.03993 0.00669865 7.0678e-23)
(1.04059 0.00666223 6.74838e-23)
(1.04125 0.0066255 7.40937e-25)
(1.04191 0.00658845 2.12218e-23)
(1.03879 0.00225797 7.52621e-23)
(1.03945 0.00224493 2.84529e-23)
(1.04011 0.00223174 -2.14584e-22)
(1.04077 0.00221847 1.6799e-22)
(1.04142 0.00220515 6.65031e-23)
(0.99814 0.0303452 0)
(0.996161 0.0520302 0)
(0.995117 0.0756011 0)
(0.997585 0.101748 0)
(1.00392 0.128732 0)
(1.01583 0.155584 0)
(1.03246 0.180279 0)
(1.05294 0.199253 0)
(1.07619 0.219323 0)
(1.00007 0.0103388 0)
(0.998749 0.0306406 0)
(0.997733 0.0522116 0)
(0.998073 0.0752494 0)
(1.00186 0.100238 0)
(1.00959 0.125481 0)
(1.0221 0.149853 0)
(1.03897 0.171887 0)
(1.05845 0.188117 0)
(1.08051 0.205329 0)
(1.00007 0.0104188 0)
(0.99934 0.0308013 0)
(0.99924 0.0521504 0)
(1.00086 0.0745578 0)
(1.0058 0.0983046 0)
(1.01468 0.121806 0)
(1.02759 0.143822 0)
(1.04443 0.163399 0)
(1.06288 0.177267 0)
(1.0837 0.191987 0)
(1.00008 0.0104516 0)
(0.999906 0.0308239 0)
(1.00067 0.0518475 0)
(1.00345 0.0735369 0)
(1.0094 0.0959831 0)
(1.01917 0.117759 0)
(1.03232 0.137564 0)
(1.0489 0.154888 0)
(1.06631 0.166727 0)
(1.08588 0.17929 0)
(1.00008 0.0104363 0)
(1.00044 0.0307066 0)
(1.00201 0.051307 0)
(1.00582 0.0722009 0)
(1.01264 0.0933104 0)
(1.02307 0.113395 0)
(1.0363 0.131146 0)
(1.05245 0.146416 0)
(1.06883 0.156517 0)
(1.08717 0.16722 0)
(1.00008 0.0103725 0)
(1.00094 0.030449 0)
(1.00324 0.0505355 0)
(1.00796 0.0705672 0)
(1.01549 0.0903252 0)
(1.02639 0.108766 0)
(1.03955 0.124626 0)
(1.05516 0.138039 0)
(1.07051 0.146649 0)
(1.08765 0.155756 0)
(1.00008 0.0102604 0)
(1.0014 0.030052 0)
(1.00437 0.0495425 0)
(1.00986 0.0686566 0)
(1.01797 0.0870664 0)
(1.02914 0.103925 0)
(1.04212 0.118055 0)
(1.0571 0.1298 0)
(1.07144 0.137133 0)
(1.08741 0.144873 0)
(1.00008 0.0101008 0)
(1.00182 0.0295187 0)
(1.00538 0.0483397 0)
(1.01152 0.0664923 0)
(1.02006 0.0835731 0)
(1.03135 0.0989209 0)
(1.04404 0.111478 0)
(1.05833 0.121734 0)
(1.07171 0.127974 0)
(1.08656 0.134545 0)
(1.00008 0.00989499 0)
(1.00218 0.0288534 0)
(1.00627 0.0469408 0)
(1.01292 0.0640993 0)
(1.02178 0.0798833 0)
(1.03305 0.0938014 0)
(1.04537 0.104934 0)
(1.05893 0.113869 0)
(1.07138 0.119174 0)
(1.08516 0.124746 0)
(1.00008 0.00964492 0)
(1.0025 0.028062 0)
(1.00704 0.0453612 0)
(1.01409 0.0615044 0)
(1.02314 0.0760338 0)
(1.03428 0.0886089 0)
(1.04617 0.0984582 0)
(1.05898 0.106225 0)
(1.07055 0.110732 0)
(1.0833 0.115451 0)
(1.00009 0.00935286 0)
(1.00277 0.0271519 0)
(1.00768 0.0436175 0)
(1.01501 0.0587348 0)
(1.02416 0.0720595 0)
(1.03507 0.0833818 0)
(1.04647 0.0920783 0)
(1.05853 0.0988174 0)
(1.06927 0.102644 0)
(1.08105 0.106634 0)
(1.00009 0.00902157 0)
(1.003 0.0261317 0)
(1.0082 0.0417274 0)
(1.01572 0.055818 0)
(1.02485 0.0679936 0)
(1.03547 0.0781544 0)
(1.04635 0.0858185 0)
(1.05766 0.0916566 0)
(1.06762 0.0949027 0)
(1.07848 0.0982728 0)
(1.0001 0.00865411 0)
(1.00317 0.0250111 0)
(1.00859 0.0397091 0)
(1.01621 0.0527812 0)
(1.02526 0.0638666 0)
(1.03551 0.0729564 0)
(1.04586 0.0796982 0)
(1.05644 0.0847484 0)
(1.06566 0.0875007 0)
(1.07566 0.0903425 0)
(1.0001 0.0082538 0)
(1.0033 0.0238006 0)
(1.00888 0.0375812 0)
(1.01651 0.0496502 0)
(1.0254 0.0597062 0)
(1.03525 0.0678129 0)
(1.04505 0.0737326 0)
(1.05492 0.0780953 0)
(1.06346 0.080428 0)
(1.07264 0.0828202 0)
(1.0001 0.00782414 0)
(1.00339 0.022511 0)
(1.00906 0.0353617 0)
(1.01663 0.0464497 0)
(1.0253 0.0555373 0)
(1.03473 0.0627451 0)
(1.04398 0.067933 0)
(1.05317 0.0716965 0)
(1.06108 0.0736728 0)
(1.0695 0.075683 0)
(1.00011 0.00736871 0)
(1.00345 0.0211534 0)
(1.00914 0.0330682 0)
(1.0166 0.0432024 0)
(1.02501 0.0513818 0)
(1.03398 0.0577697 0)
(1.0427 0.0623067 0)
(1.05124 0.0655485 0)
(1.05857 0.0672223 0)
(1.06628 0.0689081 0)
(1.00011 0.00689108 0)
(1.00346 0.0197388 0)
(1.00914 0.0307175 0)
(1.01644 0.0399283 0)
(1.02455 0.0472581 0)
(1.03307 0.0528996 0)
(1.04126 0.0568578 0)
(1.0492 0.0596454 0)
(1.05598 0.0610623 0)
(1.06304 0.0624728 0)
(1.00011 0.00639473 0)
(1.00345 0.0182777 0)
(1.00906 0.0283248 0)
(1.01617 0.0366454 0)
(1.02396 0.0431812 0)
(1.03202 0.0481438 0)
(1.03971 0.0515869 0)
(1.04707 0.0539786 0)
(1.05337 0.0551771 0)
(1.05982 0.0563543 0)
(1.00011 0.0058829 0)
(1.00342 0.0167798 0)
(1.00893 0.0259036 0)
(1.01581 0.0333683 0)
(1.02327 0.0391625 0)
(1.03088 0.0435074 0)
(1.03809 0.0464913 0)
(1.04493 0.0485375 0)
(1.05077 0.0495498 0)
(1.05667 0.0505292 0)
(1.00011 0.00535857 0)
(1.00336 0.015254 0)
(1.00875 0.0234656 0)
(1.01539 0.0301086 0)
(1.0225 0.0352099 0)
(1.02969 0.0389917 0)
(1.03645 0.0415653 0)
(1.0428 0.043309 0)
(1.04823 0.044162 0)
(1.05363 0.0449735 0)
(1.00011 0.00482432 0)
(1.0033 0.0137075 0)
(1.00853 0.02102 0)
(1.01492 0.0268747 0)
(1.02171 0.0313273 0)
(1.02849 0.0345946 0)
(1.03483 0.0367999 0)
(1.04073 0.0382776 0)
(1.04579 0.0389936 0)
(1.05073 0.0396625 0)
(1.00011 0.00428225 0)
(1.00322 0.0121464 0)
(1.00829 0.0185734 0)
(1.01443 0.0236711 0)
(1.0209 0.027515 0)
(1.0273 0.0303098 0)
(1.03326 0.0321828 0)
(1.03876 0.0334253 0)
(1.04349 0.0340225 0)
(1.04803 0.0345699 0)
(1.00011 0.00373387 0)
(1.00313 0.0105746 0)
(1.00805 0.0161296 0)
(1.01394 0.020499 0)
(1.02011 0.0237689 0)
(1.02616 0.0261275 0)
(1.03177 0.0276984 0)
(1.03692 0.0287311 0)
(1.04136 0.0292244 0)
(1.04554 0.0296677 0)
(1.00011 0.00318003 0)
(1.00305 0.00899403 0)
(1.0078 0.013689 0)
(1.01347 0.017355 0)
(1.01936 0.0200807 0)
(1.0251 0.0220334 0)
(1.03041 0.0233271 0)
(1.03525 0.024171 0)
(1.03943 0.0245721 0)
(1.0433 0.0249257 0)
(1.0001 0.00262083 0)
(1.00296 0.00740445 0)
(1.00757 0.0112488 0)
(1.01303 0.0142318 0)
(1.01868 0.0164377 0)
(1.02416 0.0180089 0)
(1.0292 0.0190455 0)
(1.03377 0.0197171 0)
(1.03774 0.0200352 0)
(1.04135 0.0203105 0)
(1.0001 0.00205552 0)
(1.00289 0.00580304 0)
(1.00737 0.00880228 0)
(1.01265 0.0111173 0)
(1.0181 0.0128218 0)
(1.02335 0.0140304 0)
(1.02817 0.0148251 0)
(1.03253 0.0153371 0)
(1.03631 0.015579 0)
(1.03971 0.015785 0)
(1.0001 0.00148234 0)
(1.00283 0.00418428 0)
(1.00721 0.00633866 0)
(1.01234 0.00799441 0)
(1.01762 0.00920958 0)
(1.0227 0.0100684 0)
(1.02736 0.0106317 0)
(1.03154 0.0109932 0)
(1.03519 0.0111637 0)
(1.03843 0.0113069 0)
(1.0001 0.000898532 0)
(1.00279 0.00253927 0)
(1.00709 0.00384249 0)
(1.01212 0.00484048 0)
(1.01729 0.00557145 0)
(1.02224 0.00608715 0)
(1.02678 0.0064248 0)
(1.03085 0.00664096 0)
(1.03441 0.0067428 0)
(1.03753 0.00682811 0)
(1.0001 0.000301757 0)
(1.00277 0.000854412 0)
(1.00702 0.00129198 0)
(1.012 0.00162621 0)
(1.01711 0.0018708 0)
(1.022 0.00204327 0)
(1.02648 0.00215607 0)
(1.03049 0.00222826 0)
(1.03399 0.0022621 0)
(1.03706 0.00229137 0)
)
;

boundaryField
{
    inlet
    {
        type            uniformFixedValue;
        uniformValue    constant (1 0 0);
        value           uniform (1 0 0);
    }
    outlet
    {
        type            pressureInletOutletVelocity;
        value           nonuniform 0();
    }
    cylinder
    {
        type            fixedValue;
        value           nonuniform 0();
    }
    top
    {
        type            symmetryPlane;
    }
    bottom
    {
        type            symmetryPlane;
    }
    defaultFaces
    {
        type            empty;
    }
    procBoundary30to24
    {
        type            processor;
        value           nonuniform List<vector> 
17
(
(1.11183 0.239176 1.04183e-21)
(1.08788 0.230379 -1.16113e-21)
(1.09482 0.228858 -1.45672e-21)
(1.10114 0.227224 1.54422e-21)
(1.10723 0.225509 2.67105e-21)
(1.10723 0.225509 2.67105e-21)
(0.997521 0.0299198 0)
(0.994536 0.0516085 0)
(0.992019 0.0756065 0)
(0.993022 0.102804 0)
(0.997701 0.131508 0)
(1.00878 0.160932 0)
(1.02484 0.188492 0)
(1.0463 0.210636 0)
(1.07062 0.233959 0)
(1.00007 0.0102132 0)
(1.00007 0.0102132 0)
)
;
    }
    procBoundary30to31
    {
        type            processor;
        value           nonuniform List<vector> 
30
(
(1.11939 0.221843 2.92987e-22)
(1.11939 0.207357 -2.61719e-22)
(1.11877 0.193707 -3.12508e-22)
(1.1176 0.180838 1.94025e-22)
(1.11594 0.168697 3.79498e-23)
(1.11384 0.157233 -4.16951e-24)
(1.11135 0.146402 3.68508e-23)
(1.10851 0.136163 1.355e-22)
(1.10538 0.126477 -1.72625e-22)
(1.10199 0.11731 1.47288e-22)
(1.09839 0.108629 -1.97731e-22)
(1.09464 0.100407 -2.11826e-23)
(1.09076 0.0926142 -1.50156e-22)
(1.0868 0.0852255 3.40905e-22)
(1.08281 0.0782157 -1.55491e-22)
(1.07882 0.071561 2.26163e-22)
(1.07487 0.0652381 -1.92759e-22)
(1.071 0.0592244 -1.0821e-22)
(1.06724 0.0534974 3.70343e-22)
(1.06363 0.0480344 1.36073e-22)
(1.06019 0.0428127 -1.62512e-22)
(1.05696 0.0378087 -1.56174e-22)
(1.05396 0.032998 1.46535e-22)
(1.05123 0.0283542 -5.75526e-23)
(1.04879 0.0238497 6.1846e-23)
(1.04667 0.0194533 -4.16131e-23)
(1.04491 0.0151317 5.062e-23)
(1.04353 0.0108446 1.02053e-22)
(1.04257 0.00655111 1.25156e-22)
(1.04208 0.00219183 3.72088e-22)
)
;
    }
}


// ************************************************************************* //
