/*--------------------------------*- C++ -*----------------------------------*\
  =========                 |
  \\      /  F ield         | OpenFOAM: The Open Source CFD Toolbox
   \\    /   O peration     | Website:  https://openfoam.org
    \\  /    A nd           | Version:  7
     \\/     M anipulation  |
\*---------------------------------------------------------------------------*/
FoamFile
{
    version     2.0;
    format      ascii;
    class       surfaceScalarField;
    location    "29";
    object      phi;
}
// * * * * * * * * * * * * * * * * * * * * * * * * * * * * * * * * * * * * * //

dimensions      [0 3 -1 0 0 0 0];

internalField   nonuniform List<scalar> 
10970
(
-1.85356e-05
1.85356e-05
1.82024e-12
-5.08082e-05
3.22726e-05
2.55285e-12
-8.60678e-05
3.52596e-05
5.45688e-13
-0.000115282
2.92145e-05
-3.56895e-12
-0.000131491
1.62085e-05
-9.55533e-12
-0.000128194
-3.2973e-06
-1.74436e-11
-9.93081e-05
-2.88854e-05
-2.74011e-11
-3.88658e-05
-6.04423e-05
-3.95466e-11
5.44812e-05
-9.33469e-05
-5.33927e-11
-0.000131243
-6.8679e-11
0.000185724
-1.81551e-05
3.66907e-05
-4.94816e-05
6.35991e-05
-8.32201e-05
6.89982e-05
-0.000110289
5.62834e-05
-0.000123638
2.95574e-05
-0.000116651
-1.02845e-05
-8.30982e-05
-6.24379e-05
-1.68672e-05
-0.000126673
8.38649e-05
-0.000194079
-0.000271548
0.00022417
-1.74006e-05
5.40912e-05
-4.68471e-05
9.30457e-05
-7.75608e-05
9.97119e-05
-0.000100361
7.9084e-05
-0.000108022
3.72179e-05
-9.36942e-05
-2.46122e-05
-5.08588e-05
-0.000105273
2.70363e-05
-0.000204568
0.000142283
-0.000309326
-0.000429734
0.000300469
-1.62845e-05
7.03757e-05
-4.29411e-05
0.000119702
-6.91607e-05
0.000125932
-8.56165e-05
9.55397e-05
-8.48213e-05
3.64227e-05
-5.9583e-05
-4.98505e-05
-2.79496e-06
-0.000162061
9.22765e-05
-0.00029964
0.000228944
-0.000445993
-0.000614222
0.000413432
-1.48248e-05
8.52005e-05
-3.78164e-05
0.000142694
-5.81226e-05
0.000146238
-6.62237e-05
0.000103641
-5.42953e-05
2.44942e-05
-1.47199e-05
-8.94259e-05
6.0017e-05
-0.000236798
0.000177867
-0.00041749
0.000342649
-0.000610775
-0.000832852
0.000561279
-1.30443e-05
9.82448e-05
-3.15397e-05
0.000161189
-4.45771e-05
0.000159275
-4.24002e-05
0.000101464
-1.67772e-05
-1.12876e-06
4.04185e-05
-0.000146622
0.000137351
-0.000333731
0.000282798
-0.000562936
0.000481824
-0.000809802
-0.00109267
0.000741647
-1.09691e-05
0.000109214
-2.41888e-05
0.000174409
-2.86778e-05
0.000163764
-1.44025e-05
8.71886e-05
2.73343e-05
-4.28655e-05
0.000105234
-0.000224521
0.000228161
-0.000456657
0.000405738
-0.000740513
0.00064452
-0.00104858
-0.00139975
0.000951592
-8.62773e-06
0.000117842
-1.58498e-05
0.000181631
-1.05959e-05
0.00015851
1.74795e-05
5.91132e-05
7.75878e-05
-0.000102974
0.000179039
-0.000325972
0.000331419
-0.000609037
0.000545123
-0.000954218
0.000828416
-0.00133188
-0.00175893
0.0011876
-6.05018e-06
0.000123892
-6.61255e-06
0.000182193
9.48639e-06
0.000142411
5.29342e-05
1.56654e-05
0.000133488
-0.000183527
0.000261074
-0.000453559
0.000445973
-0.000793936
0.000699179
-0.00120742
0.00103083
-0.00166353
-0.00217366
0.00144556
-3.26771e-06
0.00012716
3.42937e-06
0.000175496
3.13807e-05
0.00011446
9.16345e-05
-4.45883e-05
0.000194506
-0.000286399
0.000350515
-0.000609568
0.000570556
-0.00101398
0.000865936
-0.0015028
0.00124874
-0.00204633
-0.00264575
0.00172084
-2.70203e-07
0.00012743
1.41902e-05
0.000161036
5.48992e-05
7.3751e-05
0.000133246
-0.000122935
0.00026009
-0.000413244
0.000446483
-0.000795961
0.000703794
-0.00127129
0.00104324
-0.00184225
0.00147879
-0.00248188
-0.0031752
0.00200823
2.83043e-06
0.000124599
2.55815e-05
0.000138285
7.98583e-05
1.94741e-05
0.000177432
-0.000220508
0.000329671
-0.000565483
0.000548053
-0.00101434
0.00084421
-0.00156745
0.00122878
-0.00222683
0.00171732
-0.00297042
-0.00375998
0.0023021
6.08281e-06
0.000118516
3.75272e-05
0.00010684
0.000106082
-4.90811e-05
0.00022386
-0.000338286
0.000402666
-0.000744289
0.000654249
-0.00126593
0.000990223
-0.00190342
0.00142009
-0.00265669
0.00196039
-0.00351072
-0.00439597
0.00259639
9.45183e-06
0.000109065
4.99574e-05
6.6335e-05
0.000133405
-0.000132529
0.000272202
-0.000477083
0.000478477
-0.000950565
0.000764046
-0.00155149
0.00114014
-0.00227951
0.00161453
-0.00313108
0.00220385
-0.00410004
-0.00507695
0.00288483
1.29223e-05
9.61424e-05
6.28103e-05
1.64469e-05
0.000161671
-0.00023139
0.00032213
-0.000637541
0.000556488
-0.00118492
0.000876359
-0.00187136
0.00129214
-0.0026953
0.00180934
-0.00364828
0.00244335
-0.00473404
-0.00579473
0.00316112
1.64839e-05
7.96585e-05
7.60324e-05
-4.31016e-05
0.00019073
-0.000346087
0.000373316
-0.000820128
0.000636057
-0.00144766
0.000990035
-0.00222534
0.00144429
-0.00314955
0.00200164
-0.00420562
0.00267442
-0.00540683
-0.00653958
0.00341927
2.013e-05
5.95285e-05
8.95759e-05
-0.000112547
0.000220437
-0.000476948
0.000425423
-0.00102511
0.000716503
-0.00173874
0.00110384
-0.00261268
0.00159453
-0.00364024
0.00218842
-0.00479951
0.00289251
-0.00611093
-0.00730131
0.00365424
2.38567e-05
3.56718e-05
0.000103397
-0.000192088
0.000250646
-0.000624198
0.000478097
-0.00125256
0.0007971
-0.00205775
0.00121644
-0.00303202
0.00174069
-0.00416448
0.00236671
-0.00542553
0.00309313
-0.00683735
-0.0080704
0.00386222
2.76616e-05
8.01013e-06
0.000117452
-0.000281879
0.000281204
-0.000787949
0.000530955
-0.00150231
0.000877058
-0.00240385
0.00132643
-0.00348139
0.00188055
-0.00471861
0.00253365
-0.00607863
0.00327248
-0.00757617
-0.00884184
0.00404391
3.15426e-05
-2.35325e-05
0.000131696
-0.000382032
0.000311942
-0.000968195
0.00058358
-0.00177395
0.000955524
-0.00277579
0.00143225
-0.00395812
0.00201174
-0.0052981
0.00268593
-0.00675282
0.00343021
-0.00832045
-0.00962488
0.00421326
3.54967e-05
-5.90292e-05
0.000146075
-0.00049261
0.000342674
-0.00116479
0.000635514
-0.00206679
0.00103157
-0.00317186
0.00153231
-0.00445885
0.00213165
-0.00589744
0.00281853
-0.00743971
0.00356783
-0.00906975
-0.0105708
0.00451371
3.95186e-05
-9.85479e-05
0.000160527
-0.000613618
0.000373188
-0.00137746
0.000686253
-0.00237986
0.00110424
-0.00358984
0.00162497
-0.00497958
0.00223789
-0.00651035
0.00292799
-0.00812981
0.00366467
-0.00980643
-0.011422
0.00451589
4.35996e-05
-0.000142147
0.000174976
-0.000744995
0.000403244
-0.00160572
0.000735253
-0.00271186
0.00117252
-0.0040271
0.00170871
-0.00551577
0.00232848
-0.00713013
0.00301215
-0.00881347
0.00372622
-0.0105205
-0.0121957
0.00449992
4.77264e-05
-0.000189874
0.000189333
-0.000886602
0.000432572
-0.00184896
0.000781931
-0.00306122
0.0012354
-0.00448057
0.00178208
-0.00606246
0.00240189
-0.00774994
0.0030707
-0.00948228
0.00375509
-0.0112049
-0.0128999
0.00445929
5.18804e-05
-0.000241754
0.000203492
-0.00103821
0.000460874
-0.00210635
0.000825677
-0.00342603
0.00129189
-0.00494679
0.00184384
-0.00661441
0.00245698
-0.00836308
0.00310365
-0.0101289
0.00375204
-0.0118533
-0.0135404
0.00439259
5.60376e-05
-0.000297792
0.000217328
-0.0011995
0.000487825
-0.00237684
0.000865865
-0.00380407
0.00134106
-0.00542198
0.0018929
-0.00716625
0.00249298
-0.00896315
0.00311127
-0.0107472
0.00371865
-0.0124607
-0.0141215
0.00429968
6.01676e-05
-0.000357959
0.000230704
-0.00137004
0.00051308
-0.00265922
0.000901871
-0.00419286
0.00138203
-0.00590214
0.00192842
-0.00771263
0.0025095
-0.00954424
0.00309429
-0.011332
0.00365708
-0.0130235
-0.0146461
0.00418174
6.42346e-05
-0.000422194
0.000243468
-0.00154927
0.000536281
-0.00295203
0.000933088
-0.00458966
0.00141406
-0.00638312
0.00194978
-0.00824836
0.00250658
-0.010101
0.00305382
-0.0118793
0.0035698
-0.0135394
-0.0151171
0.00404077
6.81973e-05
-0.000490391
0.000255455
-0.00173653
0.000557067
-0.00325364
0.000958952
-0.00499155
0.00143652
-0.00686069
0.00195667
-0.00876851
0.0024846
-0.010629
0.00299128
-0.012386
0.00345941
-0.0140076
-0.0155369
0.00387922
7.20098e-05
-0.000562401
0.000266495
-0.00193102
0.000575081
-0.00356223
0.000978955
-0.00539542
0.00144895
-0.00733068
0.00194902
-0.00926858
0.0024443
-0.0111242
0.00290838
-0.01285
0.00332857
-0.0144278
-0.015908
0.00369967
7.56225e-05
-0.000638024
0.000276415
-0.00213181
0.000589988
-0.0038758
0.000992667
-0.0057981
0.00145106
-0.00778907
0.00192703
-0.00974455
0.00238666
-0.0115839
0.00280696
-0.0132703
0.00317988
-0.0148007
-0.0162328
0.00350471
7.89833e-05
-0.000717007
0.000285042
-0.00233787
0.000601477
-0.00419224
0.000999747
-0.00619637
0.00144273
-0.00823205
0.00189112
-0.0101929
0.00231287
-0.0120056
0.00268898
-0.0136465
0.00301583
-0.0151275
-0.0165138
0.00329675
8.20385e-05
-0.000799045
0.000292208
-0.00254804
0.000609274
-0.0045093
0.000999953
-0.00658705
0.00142401
-0.00865612
0.00184192
-0.0106109
0.0022243
-0.012388
0.00255641
-0.0139786
0.00283875
-0.0154099
-0.0167531
0.00307804
8.47343e-05
-0.00088378
0.000297758
-0.00276106
0.000613154
-0.0048247
0.00099315
-0.00696705
0.00139513
-0.0090581
0.00178023
-0.010996
0.00212236
-0.0127301
0.00241116
-0.0142674
0.00265078
-0.0156495
-0.0169529
0.00285059
8.70181e-05
-0.000970798
0.00030155
-0.00297559
0.00061294
-0.00513609
0.000979307
-0.00733341
0.00135644
-0.00943522
0.00170696
-0.0113465
0.00200854
-0.0130317
0.00225507
-0.0145139
0.00245386
-0.0158483
-0.0171152
0.00261617
8.88395e-05
-0.00105964
0.000303462
-0.00319022
0.000608512
-0.00544114
0.000958495
-0.0076834
0.00130841
-0.00978514
0.00162312
-0.0116612
0.00188429
-0.0132929
0.00208986
-0.0147195
0.00224972
-0.0160081
-0.0172418
0.00237633
9.01515e-05
-0.00114979
0.000303391
-0.00340346
0.000599809
-0.00573756
0.00093088
-0.00801447
0.00125162
-0.0101059
0.00152974
-0.0119393
0.00175104
-0.0135142
0.00191711
-0.0148855
0.00203988
-0.0161309
-0.0173343
0.00213241
9.09118e-05
-0.0012407
0.00030126
-0.0036138
0.000586825
-0.00602312
0.000896716
-0.00832436
0.00118674
-0.0103959
0.00142792
-0.0121805
0.00161014
-0.0136964
0.00173827
-0.0150137
0.00182569
-0.0162183
-0.0173942
0.00188556
9.10834e-05
-0.00133178
0.000297016
-0.00381974
0.000569613
-0.00629572
0.000856327
-0.00861107
0.00111447
-0.010654
0.0013187
-0.0123847
0.00146287
-0.0138406
0.00155462
-0.0151054
0.0016083
-0.016272
-0.0174227
0.00163679
9.06355e-05
-0.00142242
0.000290632
-0.00401973
0.000548276
-0.00655336
0.000810101
-0.0088729
0.00103555
-0.0108795
0.00120314
-0.0125523
0.00131042
-0.0139478
0.00136732
-0.0151623
0.00138874
-0.0162934
-0.0174209
0.00138695
8.95442e-05
-0.00151196
0.000282108
-0.0042123
0.000522966
-0.00679422
0.000758472
-0.0091084
0.000950735
-0.0110717
0.00108222
-0.0126838
0.00115386
-0.0140195
0.00117741
-0.0151858
0.0011679
-0.0162839
-0.0173898
0.00113681
8.7793e-05
-0.00159976
0.00027147
-0.00439597
0.000493877
-0.00701663
0.000701913
-0.00931644
0.000860792
-0.0112306
0.000956901
-0.0127799
0.000994196
-0.0140568
0.000985789
-0.0151774
0.000946541
-0.0162447
-0.0173302
0.000886998
8.53727e-05
-0.00168513
0.000258767
-0.00456937
0.000461239
-0.0072191
0.000640918
-0.00949612
0.00076646
-0.0113562
0.000828064
-0.0128415
0.000832316
-0.014061
0.000793268
-0.0151384
0.000725345
-0.0161768
-0.017243
0.000638095
8.22819e-05
-0.00176741
0.000244072
-0.00473116
0.000425312
-0.00740034
0.000575997
-0.0096468
0.000668462
-0.0114486
0.000696535
-0.0128696
0.000669032
-0.0140335
0.00060056
-0.0150699
0.000504905
-0.0160811
-0.0171287
0.000390589
7.85268e-05
-0.00184594
0.000227477
-0.00488011
0.000386378
-0.00755924
0.000507662
-0.00976809
0.000567489
-0.0115085
0.000563078
-0.0128652
0.000505074
-0.0139755
0.000408309
-0.0149731
0.000285756
-0.0159586
-0.0169877
0.000144766
7.4121e-05
-0.00192006
0.000209095
-0.00501508
0.000344737
-0.00769488
0.000436423
-0.00985977
0.000464199
-0.0115362
0.000428394
-0.0128294
0.000341096
-0.0138882
0.000217085
-0.0148491
6.84893e-05
-0.01581
-0.0168204
-9.87571e-05
6.90854e-05
-0.00198914
0.000189051
-0.00513505
0.0003007
-0.00780653
0.00036278
-0.00992185
0.000359209
-0.0115327
0.000293124
-0.0127633
0.000177688
-0.0137728
2.7259e-05
-0.0146987
-0.000146684
-0.015636
-0.0166283
-0.000338853
6.34472e-05
-0.00205259
0.000167485
-0.00523909
0.000254585
-0.00789363
0.000287219
-0.00995449
0.000253098
-0.0114985
0.000157852
-0.0126681
1.53713e-05
-0.0136303
-0.000160336
-0.014523
-0.00035923
-0.0154371
-0.0164113
-0.000576229
5.724e-05
-0.00210983
0.000144548
-0.00532639
0.000206712
-0.00795579
0.000210203
-0.00995798
0.000146405
-0.0114347
2.3107e-05
-0.0125448
-0.000145314
-0.0134619
-0.000345626
-0.0143227
-0.000568759
-0.015214
-0.0161698
-0.000810236
5.05027e-05
-0.00216033
0.000120398
-0.00539629
0.000157398
-0.00799279
0.000132177
-0.00993276
3.96264e-05
-0.0113422
-0.000110609
-0.0123945
-0.000303999
-0.0132685
-0.000528125
-0.0140986
-0.00077495
-0.0149672
-0.0159042
-0.00104052
4.32794e-05
-0.00220361
9.5198e-05
-0.00544821
0.000106953
-0.00800455
5.35631e-05
-0.00987937
-6.67789e-05
-0.0112219
-0.000242877
-0.0122184
-0.000460266
-0.0130511
-0.000707461
-0.0138514
-0.00097747
-0.0146972
-0.0156149
-0.00126677
3.56177e-05
-0.00223923
6.91167e-05
-0.00548171
5.56814e-05
-0.00799111
-2.52404e-05
-0.00979845
-0.000172391
-0.0110747
-0.000373293
-0.0120175
-0.00061375
-0.0128107
-0.000883289
-0.0135818
-0.00117599
-0.0144045
-0.0153022
-0.00148868
2.7569e-05
-0.0022668
4.2327e-05
-0.00549646
4.03423e-06
-0.00795282
-0.000103877
-0.00969053
-0.000276827
-0.0109018
-0.000501497
-0.0117929
-0.000764117
-0.012548
-0.00105528
-0.0132907
-0.00137018
-0.0140896
-0.0149664
-0.00170597
1.91901e-05
-0.00228599
1.50047e-05
-0.00549228
-4.81979e-05
-0.00788962
-0.000182005
-0.00955673
-0.000379733
-0.010704
-0.000627161
-0.0115454
-0.000911061
-0.0122641
-0.00122313
-0.0129786
-0.00155972
-0.013753
-0.0146078
-0.00191833
1.05333e-05
-0.00229652
-1.26882e-05
-0.00546906
-0.000100254
-0.00780205
-0.000259295
-0.00939769
-0.000480791
-0.0104825
-0.000749989
-0.0112762
-0.0010543
-0.0119598
-0.00138652
-0.0126464
-0.00174428
-0.0133952
-0.0142266
-0.00212547
1.5263e-06
-0.00229805
-4.06842e-05
-0.00542685
-0.000152046
-0.00769069
-0.000335453
-0.00921428
-0.00057971
-0.0102383
-0.000869717
-0.0109862
-0.00119359
-0.0116359
-0.00154519
-0.0122948
-0.00192353
-0.0130169
-0.0138231
-0.00232708
-7.47351e-06
-0.00229058
-6.87047e-05
-0.00536562
-0.000203336
-0.00755606
-0.000410211
-0.0090074
-0.000676226
-0.00997226
-0.000986105
-0.0106763
-0.0013287
-0.0112933
-0.00169888
-0.0119246
-0.00209714
-0.0126186
-0.0133973
-0.00252296
-1.66216e-05
-0.00227395
-9.66343e-05
-0.0052856
-0.000253902
-0.00739879
-0.00048332
-0.00877799
-0.000770102
-0.00968548
-0.00109894
-0.0103475
-0.00145942
-0.0109329
-0.00184737
-0.0115367
-0.00226478
-0.0122012
-0.0129496
-0.0027124
-2.58346e-05
-0.00224812
-0.000124332
-0.00518711
-0.000303537
-0.00721959
-0.000554552
-0.00852697
-0.000861122
-0.00937891
-0.00120803
-0.0100006
-0.00158559
-0.0105553
-0.00199048
-0.0111318
-0.00242576
-0.0117659
-0.0124808
-0.00289456
-3.50451e-05
-0.00221308
-0.000151659
-0.00507049
-0.000352048
-0.0070192
-0.0006237
-0.00825532
-0.000949091
-0.00905351
-0.00131319
-0.0096365
-0.00170705
-0.0101614
-0.00212804
-0.0107108
-0.00258001
-0.0113139
-0.0119902
-0.0030707
-4.41963e-05
-0.00216888
-0.000178484
-0.0049362
-0.000399256
-0.00679843
-0.000690574
-0.007964
-0.00103383
-0.00871026
-0.00141428
-0.00925605
-0.00182373
-0.00975199
-0.00225995
-0.0102745
-0.00272184
-0.010852
-0.0114971
-0.00321491
-5.32341e-05
-0.00211564
-0.000204685
-0.00478475
-0.000444994
-0.00655812
-0.000755
-0.007654
-0.00111518
-0.00835008
-0.00151114
-0.00886009
-0.00193546
-0.00932767
-0.00238641
-0.00982359
-0.00286411
-0.0103743
-0.0109891
-0.00337209
-6.21067e-05
-0.00205354
-0.000230145
-0.00461672
-0.00048911
-0.00629915
-0.000816821
-0.00732629
-0.001193
-0.0079739
-0.00160365
-0.00844944
-0.00204208
-0.00888924
-0.00250708
-0.00935859
-0.00299954
-0.00988189
-0.0104662
-0.00352244
-7.07646e-05
-0.00198277
-0.000254755
-0.00443273
-0.000531463
-0.00602244
-0.000875894
-0.00698185
-0.00126714
-0.00758266
-0.00169166
-0.00802492
-0.00214346
-0.00843744
-0.00262178
-0.00888028
-0.00312799
-0.00937568
-0.00992895
-0.00366524
-7.91609e-05
-0.00190361
-0.000278413
-0.00423347
-0.000571925
-0.00572893
-0.00093209
-0.00662169
-0.0013375
-0.00717725
-0.00177508
-0.00758734
-0.00223951
-0.007973
-0.00273046
-0.00838933
-0.00324965
-0.00885649
-0.00937828
-0.00380032
-8.72508e-05
-0.00181636
-0.000301026
-0.0040197
-0.000610378
-0.00541958
-0.000985292
-0.00624678
-0.00140396
-0.00675859
-0.0018538
-0.00713749
-0.00233013
-0.00749667
-0.00283303
-0.00788643
-0.00336454
-0.00832498
-0.00881493
-0.00392789
-9.49925e-05
-0.00172137
-0.000322506
-0.00379218
-0.000646715
-0.00509537
-0.00103539
-0.0058581
-0.00146642
-0.00632756
-0.00192773
-0.00667618
-0.00241524
-0.00700916
-0.00292941
-0.00737226
-0.00347257
-0.00778182
-0.00823952
-0.00404798
-0.000102346
-0.00161902
-0.000342773
-0.00355176
-0.000680837
-0.00475731
-0.00108229
-0.00545664
-0.0015248
-0.00588505
-0.00199679
-0.0062042
-0.00249475
-0.0065112
-0.00301951
-0.0068475
-0.00357365
-0.00722768
-0.00765269
-0.00416048
-0.000109276
-0.00150975
-0.000361753
-0.00329928
-0.000712657
-0.0044064
-0.00112591
-0.00504339
-0.00157901
-0.00543195
-0.00206089
-0.00572232
-0.00256856
-0.00600352
-0.00310321
-0.00631285
-0.00366765
-0.00666324
-0.00705509
-0.00426525
-0.000115748
-0.001394
-0.00037938
-0.00303565
-0.000742093
-0.00404369
-0.00116616
-0.00461933
-0.00162898
-0.00496913
-0.00211995
-0.00523136
-0.00263659
-0.00548688
-0.00318041
-0.00576903
-0.00375444
-0.00608921
-0.00644742
-0.00436211
-0.00012173
-0.00127227
-0.000395593
-0.00276179
-0.000769075
-0.00367021
-0.00120297
-0.00418543
-0.00167463
-0.00449747
-0.00217389
-0.00473209
-0.00269875
-0.00496202
-0.003251
-0.00521678
-0.00383387
-0.00550634
-0.00583042
-0.00445088
-0.000127194
-0.00114508
-0.000410336
-0.00247864
-0.000793536
-0.00328701
-0.00123628
-0.00374269
-0.0017159
-0.00401785
-0.00222266
-0.00422533
-0.00275496
-0.00442972
-0.00331488
-0.00465686
-0.00390582
-0.0049154
-0.00520486
-0.00453137
-0.000132116
-0.00101296
-0.000423562
-0.0021872
-0.00081542
-0.00289515
-0.00126603
-0.00329207
-0.00175274
-0.00353114
-0.00226618
-0.00371189
-0.00280514
-0.00389076
-0.00337194
-0.00409007
-0.00397013
-0.00431721
-0.00457158
-0.00460341
-0.000136472
-0.000876487
-0.000435228
-0.00188844
-0.000834677
-0.0024957
-0.00129218
-0.00283457
-0.00178509
-0.00303823
-0.0023044
-0.00319258
-0.00284922
-0.00334593
-0.00342209
-0.0035172
-0.0040267
-0.00371259
-0.00393146
-0.00466682
-0.000140242
-0.000736245
-0.000445295
-0.00158339
-0.000851263
-0.00208973
-0.00131467
-0.00237117
-0.0018129
-0.00254
-0.00233725
-0.00266823
-0.00288713
-0.00279605
-0.00346524
-0.0029391
-0.00407541
-0.00310242
-0.00328541
-0.00472146
-0.00014341
-0.000592835
-0.000453733
-0.00127307
-0.00086514
-0.00167832
-0.00133347
-0.00190284
-0.00183613
-0.00203734
-0.0023647
-0.00213966
-0.00291881
-0.00224195
-0.00350131
-0.00235659
-0.00411615
-0.00248759
-0.00263438
-0.00476719
-0.000145961
-0.000446873
-0.000460514
-0.000958514
-0.000876278
-0.00126256
-0.00134854
-0.00143058
-0.00185476
-0.00153111
-0.00238671
-0.00160771
-0.00294422
-0.00168444
-0.00353026
-0.00177055
-0.00414885
-0.00186899
-0.00197932
-0.0048039
-0.000147885
-0.000298989
-0.000465618
-0.00064078
-0.000884653
-0.000843525
-0.00135987
-0.000955359
-0.00186876
-0.00102223
-0.00240325
-0.00107322
-0.00296331
-0.00112439
-0.00355201
-0.00118185
-0.00417343
-0.00124757
-0.00132124
-0.00483151
-0.000149172
-0.000149817
-0.00046903
-0.000320922
-0.000890247
-0.000422308
-0.00136743
-0.000478172
-0.0018781
-0.000511558
-0.00241429
-0.000537033
-0.00297605
-0.00056262
-0.00356653
-0.000591373
-0.00418985
-0.000624262
-0.000661128
-0.00484996
-0.000149817
-6.07277e-14
-0.000470738
1.80857e-13
-0.000893047
2.56016e-13
-0.00137122
7.57587e-13
-0.00188278
1.65056e-12
-0.00241981
2.67821e-12
-0.00298243
3.61428e-12
-0.0035738
4.35477e-12
-0.00419806
4.88973e-12
5.26335e-12
-0.00485919
-0.000149817
0.000149817
-0.000470738
0.000320922
-0.000893047
0.000422308
-0.00137122
0.000478172
-0.00188278
0.000511558
-0.00241981
0.000537033
-0.00298243
0.00056262
-0.0035738
0.000591373
-0.00419806
0.000624262
0.000661128
-0.00485919
-0.000149172
0.000298989
-0.00046903
0.00064078
-0.000890247
0.000843525
-0.00136743
0.000955359
-0.0018781
0.00102223
-0.00241429
0.00107322
-0.00297605
0.00112439
-0.00356653
0.00118185
-0.00418985
0.00124757
0.00132124
-0.00484996
-0.000147885
0.000446873
-0.000465618
0.000958514
-0.000884653
0.00126256
-0.00135987
0.00143058
-0.00186876
0.00153111
-0.00240325
0.00160771
-0.00296331
0.00168444
-0.00355201
0.00177055
-0.00417343
0.00186899
0.00197932
-0.00483151
-0.000145961
0.000592835
-0.000460514
0.00127307
-0.000876278
0.00167832
-0.00134854
0.00190284
-0.00185476
0.00203734
-0.00238671
0.00213966
-0.00294422
0.00224195
-0.00353026
0.00235659
-0.00414885
0.00248759
0.00263438
-0.0048039
-0.00014341
0.000736245
-0.000453733
0.00158339
-0.00086514
0.00208973
-0.00133347
0.00237117
-0.00183613
0.00254
-0.0023647
0.00266823
-0.00291881
0.00279605
-0.00350131
0.0029391
-0.00411615
0.00310242
0.00328541
-0.00476719
-0.000140242
0.000876487
-0.000445295
0.00188844
-0.000851263
0.0024957
-0.00131467
0.00283457
-0.0018129
0.00303823
-0.00233725
0.00319258
-0.00288713
0.00334593
-0.00346524
0.0035172
-0.00407541
0.00371259
0.00393146
-0.00472146
-0.000136472
0.00101296
-0.000435228
0.0021872
-0.000834677
0.00289515
-0.00129218
0.00329207
-0.00178509
0.00353114
-0.0023044
0.00371189
-0.00284922
0.00389076
-0.00342209
0.00409007
-0.0040267
0.00431721
0.00457158
-0.00466682
-0.000132116
0.00114508
-0.000423562
0.00247864
-0.00081542
0.00328701
-0.00126603
0.00374269
-0.00175274
0.00401785
-0.00226618
0.00422533
-0.00280514
0.00442972
-0.00337194
0.00465686
-0.00397013
0.0049154
0.00520486
-0.00460341
-0.000127194
0.00127227
-0.000410336
0.00276179
-0.000793536
0.00367021
-0.00123628
0.00418543
-0.0017159
0.00449747
-0.00222266
0.00473209
-0.00275496
0.00496202
-0.00331488
0.00521678
-0.00390582
0.00550634
0.00583042
-0.00453137
-0.00012173
0.001394
-0.000395593
0.00303565
-0.000769075
0.00404369
-0.00120297
0.00461933
-0.00167463
0.00496913
-0.00217389
0.00523136
-0.00269875
0.00548688
-0.003251
0.00576903
-0.00383387
0.00608921
0.00644742
-0.00445088
-0.000115748
0.00150975
-0.00037938
0.00329928
-0.000742093
0.0044064
-0.00116616
0.00504339
-0.00162898
0.00543195
-0.00211995
0.00572232
-0.00263659
0.00600352
-0.00318041
0.00631285
-0.00375444
0.00666324
0.00705509
-0.00436211
-0.000109276
0.00161902
-0.000361753
0.00355176
-0.000712657
0.00475731
-0.00112591
0.00545664
-0.00157901
0.00588505
-0.00206089
0.0062042
-0.00256856
0.0065112
-0.00310321
0.0068475
-0.00366765
0.00722768
0.00765269
-0.00426525
-0.000102346
0.00172137
-0.000342773
0.00379218
-0.000680837
0.00509537
-0.00108229
0.0058581
-0.0015248
0.00632756
-0.00199679
0.00667618
-0.00249475
0.00700916
-0.00301951
0.00737226
-0.00357365
0.00778182
0.00823952
-0.00416048
-9.49925e-05
0.00181636
-0.000322506
0.0040197
-0.000646715
0.00541958
-0.00103539
0.00624678
-0.00146642
0.00675859
-0.00192773
0.00713749
-0.00241524
0.00749667
-0.00292941
0.00788643
-0.00347257
0.00832498
0.00881493
-0.00404798
-8.72508e-05
0.00190361
-0.000301026
0.00423347
-0.000610378
0.00572893
-0.000985292
0.00662169
-0.00140396
0.00717725
-0.0018538
0.00758734
-0.00233013
0.007973
-0.00283303
0.00838933
-0.00336454
0.00885649
0.00937828
-0.00392789
-7.91609e-05
0.00198277
-0.000278413
0.00443273
-0.000571925
0.00602244
-0.00093209
0.00698185
-0.0013375
0.00758266
-0.00177508
0.00802492
-0.00223951
0.00843744
-0.00273046
0.00888028
-0.00324965
0.00937568
0.00992895
-0.00380032
-7.07646e-05
0.00205354
-0.000254755
0.00461672
-0.000531463
0.00629915
-0.000875894
0.00732629
-0.00126714
0.0079739
-0.00169166
0.00844944
-0.00214346
0.00888924
-0.00262178
0.00935859
-0.00312799
0.00988189
0.0104662
-0.00366524
-6.21067e-05
0.00211564
-0.000230145
0.00478475
-0.00048911
0.00655812
-0.000816821
0.007654
-0.001193
0.00835008
-0.00160365
0.00886009
-0.00204208
0.00932767
-0.00250708
0.00982359
-0.00299954
0.0103743
0.0109891
-0.00352244
-5.32341e-05
0.00216888
-0.000204685
0.0049362
-0.000444994
0.00679843
-0.000755
0.007964
-0.00111518
0.00871026
-0.00151114
0.00925605
-0.00193546
0.00975199
-0.00238641
0.0102745
-0.00286411
0.010852
0.0114971
-0.00337209
-4.41963e-05
0.00221308
-0.000178484
0.00507049
-0.000399256
0.0070192
-0.000690574
0.00825532
-0.00103383
0.00905351
-0.00141428
0.0096365
-0.00182373
0.0101614
-0.00225995
0.0107108
-0.00272184
0.0113139
0.0119902
-0.00321491
-3.50451e-05
0.00224812
-0.000151659
0.00518711
-0.000352048
0.00721959
-0.0006237
0.00852697
-0.000949091
0.00937891
-0.00131319
0.0100006
-0.00170705
0.0105553
-0.00212804
0.0111318
-0.00258001
0.0117659
0.0124808
-0.0030707
-2.58346e-05
0.00227395
-0.000124332
0.0052856
-0.000303537
0.00739879
-0.000554552
0.00877799
-0.000861122
0.00968548
-0.00120803
0.0103475
-0.00158559
0.0109329
-0.00199048
0.0115367
-0.00242576
0.0122012
0.0129496
-0.00289456
-1.66216e-05
0.00229058
-9.66343e-05
0.00536562
-0.000253902
0.00755606
-0.00048332
0.0090074
-0.000770102
0.00997226
-0.00109894
0.0106763
-0.00145942
0.0112933
-0.00184737
0.0119246
-0.00226478
0.0126186
0.0133973
-0.0027124
-7.47351e-06
0.00229805
-6.87047e-05
0.00542685
-0.000203336
0.00769069
-0.000410211
0.00921428
-0.000676226
0.0102383
-0.000986105
0.0109862
-0.0013287
0.0116359
-0.00169888
0.0122948
-0.00209714
0.0130169
0.0138231
-0.00252296
1.5263e-06
0.00229652
-4.06842e-05
0.00546906
-0.000152046
0.00780205
-0.000335453
0.00939769
-0.00057971
0.0104825
-0.000869717
0.0112762
-0.00119359
0.0119598
-0.00154519
0.0126464
-0.00192353
0.0133952
0.0142266
-0.00232708
1.05333e-05
0.00228599
-1.26882e-05
0.00549228
-0.000100254
0.00788962
-0.000259295
0.00955673
-0.000480791
0.010704
-0.000749989
0.0115454
-0.0010543
0.0122641
-0.00138652
0.0129786
-0.00174428
0.013753
0.0146078
-0.00212547
1.91901e-05
0.0022668
1.50047e-05
0.00549646
-4.81979e-05
0.00795282
-0.000182005
0.00969053
-0.000379733
0.0109018
-0.000627161
0.0117929
-0.000911061
0.012548
-0.00122313
0.0132907
-0.00155972
0.0140896
0.0149664
-0.00191833
2.7569e-05
0.00223923
4.2327e-05
0.00548171
4.03423e-06
0.00799111
-0.000103877
0.00979845
-0.000276827
0.0110747
-0.000501497
0.0120175
-0.000764117
0.0128107
-0.00105528
0.0135818
-0.00137018
0.0144045
0.0153022
-0.00170597
3.56177e-05
0.00220361
6.91167e-05
0.00544821
5.56814e-05
0.00800455
-2.52404e-05
0.00987937
-0.000172391
0.0112219
-0.000373293
0.0122184
-0.00061375
0.0130511
-0.000883289
0.0138514
-0.00117599
0.0146972
0.0156149
-0.00148868
4.32794e-05
0.00216033
9.5198e-05
0.00539629
0.000106953
0.00799279
5.35631e-05
0.00993276
-6.67789e-05
0.0113422
-0.000242877
0.0123945
-0.000460266
0.0132685
-0.000707461
0.0140986
-0.00097747
0.0149672
0.0159042
-0.00126677
5.05027e-05
0.00210983
0.000120398
0.00532639
0.000157398
0.00795579
0.000132177
0.00995798
3.96264e-05
0.0114347
-0.000110609
0.0125448
-0.000303999
0.0134619
-0.000528125
0.0143227
-0.00077495
0.015214
0.0161698
-0.00104052
5.724e-05
0.00205259
0.000144548
0.00523909
0.000206712
0.00789363
0.000210203
0.00995449
0.000146405
0.0114985
2.3107e-05
0.0126681
-0.000145314
0.0136303
-0.000345626
0.014523
-0.000568759
0.0154371
0.0164113
-0.000810236
6.34472e-05
0.00198914
0.000167485
0.00513505
0.000254585
0.00780653
0.000287219
0.00992185
0.000253098
0.0115327
0.000157852
0.0127633
1.53713e-05
0.0137728
-0.000160336
0.0146987
-0.00035923
0.015636
0.0166283
-0.000576229
6.90854e-05
0.00192006
0.000189051
0.00501508
0.0003007
0.00769488
0.00036278
0.00985977
0.000359209
0.0115362
0.000293124
0.0128294
0.000177688
0.0138882
2.7259e-05
0.0148491
-0.000146684
0.01581
0.0168204
-0.000338853
7.4121e-05
0.00184594
0.000209095
0.00488011
0.000344737
0.00755924
0.000436423
0.00976809
0.000464199
0.0115085
0.000428394
0.0128652
0.000341096
0.0139755
0.000217085
0.0149731
6.84893e-05
0.0159586
0.0169877
-9.87571e-05
7.85268e-05
0.00176741
0.000227477
0.00473116
0.000386378
0.00740034
0.000507662
0.0096468
0.000567489
0.0114486
0.000563078
0.0128696
0.000505074
0.0140335
0.000408309
0.0150699
0.000285756
0.0160811
0.0171287
0.000144766
8.22819e-05
0.00168513
0.000244072
0.00456937
0.000425312
0.0072191
0.000575997
0.00949612
0.000668462
0.0113562
0.000696535
0.0128415
0.000669032
0.014061
0.00060056
0.0151384
0.000504905
0.0161768
0.017243
0.000390589
8.53727e-05
0.00159976
0.000258767
0.00439597
0.000461239
0.00701663
0.000640918
0.00931644
0.00076646
0.0112306
0.000828064
0.0127799
0.000832316
0.0140568
0.000793268
0.0151774
0.000725345
0.0162447
0.0173302
0.000638095
8.7793e-05
0.00151196
0.00027147
0.0042123
0.000493877
0.00679422
0.000701913
0.0091084
0.000860792
0.0110717
0.000956901
0.0126838
0.000994196
0.0140195
0.000985789
0.0151858
0.000946541
0.0162839
0.0173898
0.000886997
8.95442e-05
0.00142242
0.000282108
0.00401973
0.000522966
0.00655336
0.000758472
0.0088729
0.000950735
0.0108795
0.00108222
0.0125523
0.00115386
0.0139478
0.00117741
0.0151623
0.0011679
0.0162934
0.0174209
0.00113681
9.06355e-05
0.00133178
0.000290632
0.00381974
0.000548276
0.00629572
0.000810101
0.00861107
0.00103555
0.010654
0.00120314
0.0123847
0.00131042
0.0138406
0.00136732
0.0151054
0.00138874
0.016272
0.0174227
0.00138695
9.10834e-05
0.0012407
0.000297016
0.0036138
0.000569613
0.00602312
0.000856327
0.00832436
0.00111447
0.0103959
0.0013187
0.0121805
0.00146287
0.0136964
0.00155462
0.0150137
0.0016083
0.0162183
0.0173942
0.00163679
9.09118e-05
0.00114979
0.00030126
0.00340346
0.000586825
0.00573756
0.000896716
0.00801447
0.00118674
0.0101059
0.00142792
0.0119393
0.00161014
0.0135142
0.00173827
0.0148855
0.00182569
0.0161309
0.0173343
0.00188556
9.01515e-05
0.00105964
0.000303391
0.00319022
0.000599809
0.00544114
0.00093088
0.0076834
0.00125162
0.00978514
0.00152974
0.0116612
0.00175104
0.0132929
0.00191711
0.0147195
0.00203988
0.0160081
0.0172418
0.00213241
8.88395e-05
0.000970798
0.000303462
0.00297559
0.000608512
0.00513609
0.000958495
0.00733341
0.00130841
0.00943522
0.00162312
0.0113465
0.00188429
0.0130317
0.00208986
0.0145139
0.00224972
0.0158483
0.0171152
0.00237633
8.70181e-05
0.00088378
0.00030155