/*--------------------------------*- C++ -*----------------------------------*\
  =========                 |
  \\      /  F ield         | OpenFOAM: The Open Source CFD Toolbox
   \\    /   O peration     | Website:  https://openfoam.org
    \\  /    A nd           | Version:  7
     \\/     M anipulation  |
\*---------------------------------------------------------------------------*/
FoamFile
{
    version     2.0;
    format      ascii;
    class       volScalarField;
    location    "162";
    object      p;
}
// * * * * * * * * * * * * * * * * * * * * * * * * * * * * * * * * * * * * * //

dimensions      [0 2 -2 0 0 0 0];

internalField   nonuniform List<scalar> 
12400
(
-0.378841
-0.381383
-0.382849
-0.383916
-0.385025
-0.386359
-0.38804
-0.390119
-0.392575
-0.39533
-0.39823
-0.401027
-0.403341
-0.40465
-0.404268
-0.401389
-0.395222
-0.38531
-0.371878
-0.355808
-0.369052
-0.371798
-0.373302
-0.374264
-0.375117
-0.376014
-0.377051
-0.378252
-0.379574
-0.380911
-0.382095
-0.382868
-0.382898
-0.381745
-0.378902
-0.373857
-0.366255
-0.356203
-0.344399
-0.332504
-0.359783
-0.362652
-0.364156
-0.365001
-0.3656
-0.366072
-0.366486
-0.366843
-0.367075
-0.367055
-0.366596
-0.365456
-0.363328
-0.359873
-0.354756
-0.347744
-0.338875
-0.328791
-0.318656
-0.310107
-0.351121
-0.35404
-0.355514
-0.356236
-0.356589
-0.356659
-0.356489
-0.356054
-0.355266
-0.35398
-0.352001
-0.349095
-0.345002
-0.339477
-0.332356
-0.323665
-0.313775
-0.30377
-0.29546
-0.289406
-0.343125
-0.346033
-0.347453
-0.34805
-0.348173
-0.347874
-0.347166
-0.346004
-0.34428
-0.341838
-0.338482
-0.333994
-0.328164
-0.320844
-0.312031
-0.301991
-0.291372
-0.281477
-0.275119
-0.270936
-0.335828
-0.338679
-0.340028
-0.340503
-0.340414
-0.33978
-0.338587
-0.336767
-0.334198
-0.330719
-0.326138
-0.320263
-0.312938
-0.304109
-0.293923
-0.282861
-0.271832
-0.262
-0.25787
-0.25485
-0.329244
-0.332008
-0.333275
-0.333633
-0.333351
-0.332417
-0.330788
-0.328378
-0.325056
-0.320656
-0.315002
-0.307931
-0.299343
-0.289283
-0.278028
-0.266231
-0.255112
-0.245533
-0.242995
-0.24102
-0.323374
-0.326035
-0.327215
-0.327462
-0.327004
-0.3258
-0.323781
-0.320845
-0.316853
-0.311643
-0.305056
-0.296964
-0.287329
-0.276288
-0.264231
-0.251926
-0.240889
-0.231526
-0.230711
-0.229237
-0.318213
-0.320767
-0.321861
-0.322001
-0.321382
-0.319932
-0.317563
-0.314156
-0.309568
-0.303647
-0.296252
-0.287298
-0.276808
-0.265002
-0.252366
-0.239738
-0.229012
-0.219682
-0.220654
-0.21939
-0.313755
-0.31621
-0.317219
-0.317256
-0.316483
-0.314808
-0.312121
-0.308291
-0.303174
-0.296629
-0.28854
-0.278865
-0.267686
-0.255295
-0.242282
-0.229477
-0.219265
-0.209875
-0.212655
-0.211372
-0.310001
-0.312367
-0.313293
-0.313227
-0.312308
-0.310421
-0.307442
-0.303233
-0.297648
-0.290559
-0.281883
-0.271616
-0.259891
-0.247085
-0.233874
-0.221028
-0.211508
-0.20207
-0.206647
-0.205249
-0.30696
-0.309246
-0.310089
-0.309919
-0.308854
-0.306768
-0.303522
-0.298972
-0.292979
-0.285428
-0.276265
-0.265527
-0.253408
-0.240342
-0.22711
-0.214383
-0.205671
-0.196353
-0.202473
-0.201217
-0.30465
-0.306857
-0.307612
-0.307333
-0.306125
-0.303849
-0.30036
-0.295513
-0.289173
-0.281245
-0.271699
-0.260619
-0.248255
-0.235092
-0.222014
-0.209595
-0.201693
-0.192885
-0.199741
-0.199225
-0.303096
-0.305212
-0.305871
-0.305475
-0.304122
-0.301668
-0.297964
-0.292865
-0.286247
-0.278031
-0.268214
-0.256927
-0.244467
-0.231377
-0.21861
-0.2067
-0.199461
-0.191649
-0.198023
-0.198658
-0.302324
-0.304324
-0.304868
-0.304345
-0.302847
-0.300226
-0.296337
-0.291038
-0.284214
-0.275802
-0.265833
-0.254471
-0.242063
-0.229194
-0.216852
-0.205601
-0.198774
-0.192237
-0.197039
-0.198497
-0.302356
-0.304199
-0.304603
-0.303939
-0.302291
-0.299518
-0.295474
-0.290025
-0.283066
-0.274552
-0.264537
-0.253217
-0.24098
-0.228439
-0.216568
-0.206006
-0.199316
-0.193864
-0.196581
-0.19791
-0.303204
-0.304835
-0.305065
-0.30424
-0.302437
-0.299519
-0.295347
-0.289794
-0.282764
-0.274224
-0.264249
-0.253059
-0.241064
-0.22889
-0.217451
-0.207451
-0.200632
-0.195684
-0.196285
-0.196521
-0.304865
-0.306218
-0.306234
-0.305222
-0.303248
-0.300186
-0.295905
-0.29028
-0.283223
-0.274712
-0.26483
-0.253811
-0.242072
-0.23023
-0.219098
-0.209408
-0.20218
-0.197056
-0.195599
-0.194213
-0.307321
-0.308324
-0.308078
-0.306844
-0.304676
-0.30146
-0.29707
-0.291387
-0.284326
-0.275865
-0.266092
-0.255238
-0.243709
-0.232092
-0.22108
-0.211378
-0.20347
-0.197601
-0.193969
-0.190897
-0.310539
-0.311119
-0.310559
-0.309058
-0.306662
-0.303265
-0.298751
-0.293004
-0.285933
-0.277515
-0.267827
-0.257086
-0.245671
-0.234118
-0.223005
-0.21297
-0.204177
-0.197174
-0.1912
-0.18657
-0.314477
-0.314566
-0.313638
-0.311816
-0.309146
-0.305531
-0.300861
-0.295021
-0.287915
-0.279503
-0.269842
-0.259122
-0.247681
-0.235999
-0.224557
-0.213922
-0.204137
-0.195811
-0.187815
-0.181345
-0.319092
-0.318629
-0.317271
-0.315083
-0.312081
-0.308197
-0.303329
-0.297355
-0.290165
-0.281695
-0.27197
-0.261143
-0.249508
-0.237491
-0.225519
-0.214103
-0.203289
-0.193614
-0.184174
-0.175924
-0.324349
-0.323281
-0.321442
-0.318827
-0.315439
-0.311233
-0.306114
-0.299952
-0.292612
-0.283996
-0.274084
-0.262989
-0.25097
-0.238425
-0.225767
-0.213487
-0.201666
-0.190826
-0.180165
-0.170608
-0.330229
-0.32851
-0.326141
-0.323045
-0.319216
-0.314636
-0.309212
-0.302796
-0.29522
-0.286336
-0.27608
-0.264531
-0.251938
-0.238703
-0.225264
-0.212109
-0.199377
-0.187543
-0.175911
-0.165483
-0.336728
-0.334317
-0.331374
-0.327751
-0.323436
-0.318432
-0.312643
-0.305894
-0.297967
-0.288661
-0.277873
-0.265672
-0.252331
-0.238289
-0.224031
-0.210047
-0.196515
-0.183863
-0.171479
-0.160361
-0.343858
-0.340719
-0.337166
-0.33298
-0.328139
-0.322663
-0.316444
-0.309261
-0.300837
-0.29092
-0.279389
-0.266341
-0.252108
-0.237194
-0.222127
-0.207386
-0.193171
-0.179844
-0.166863
-0.155223
-0.351643
-0.347738
-0.343548
-0.338773
-0.333374
-0.327379
-0.320647
-0.312899
-0.303796
-0.293051
-0.28056
-0.26649
-0.251265
-0.235458
-0.21962
-0.204204
-0.189407
-0.175521
-0.162072
-0.150005
-0.360107
-0.355401
-0.350552
-0.345172
-0.339187
-0.332615
-0.325266
-0.316788
-0.30679
-0.294981
-0.281322
-0.266092
-0.249821
-0.233132
-0.216577
-0.200561
-0.185267
-0.170912
-0.157091
-0.144678
-0.369266
-0.363725
-0.358205
-0.352207
-0.345604
-0.338383
-0.330281
-0.320874
-0.309738
-0.296628
-0.281621
-0.265135
-0.247801
-0.230265
-0.213049
-0.196501
-0.180776
-0.166024
-0.151908
-0.139211
-0.379122
-0.372714
-0.366514
-0.359889
-0.352627
-0.344658
-0.335633
-0.325064
-0.312536
-0.297904
-0.281409
-0.263618
-0.245234
-0.226894
-0.20907
-0.192045
-0.175944
-0.160855
-0.146509
-0.133579
-0.389643
-0.382346
-0.375465
-0.368199
-0.360221
-0.351374
-0.341221
-0.329234
-0.315061
-0.29872
-0.280646
-0.261538
-0.242137
-0.223043
-0.204658
-0.187205
-0.170773
-0.155399
-0.140875
-0.127758
-0.400773
-0.392573
-0.385012
-0.377084
-0.368308
-0.358422
-0.346903
-0.333231
-0.317183
-0.298992
-0.279293
-0.258889
-0.238518
-0.218717
-0.199817
-0.181977
-0.165255
-0.149642
-0.134991
-0.121726
-0.412416
-0.403313
-0.395075
-0.386452
-0.376769
-0.365646
-0.352502
-0.336883
-0.318766
-0.298637
-0.277312
-0.255656
-0.234369
-0.213912
-0.194537
-0.176351
-0.159378
-0.143572
-0.128838
-0.115464
-0.424436
-0.414446
-0.405537
-0.396167
-0.385439
-0.372852
-0.357813
-0.340008
-0.31968
-0.297577
-0.274662
-0.251815
-0.229672
-0.208608
-0.188802
-0.17031
-0.153125
-0.137173
-0.122399
-0.108952
-0.43666
-0.425815
-0.416237
-0.406051
-0.394109
-0.37981
-0.362611
-0.342423
-0.3198
-0.295736
-0.271295
-0.247333
-0.224399
-0.202781
-0.182589
-0.163834
-0.146479
-0.130429
-0.115655
-0.102174
-0.448873
-0.437222
-0.426976
-0.415882
-0.402533
-0.386265
-0.366666
-0.343951
-0.319006
-0.293038
-0.267161
-0.242168
-0.218515
-0.196399
-0.17587
-0.1569
-0.13942
-0.123323
-0.108591
-0.0951151
-0.460824
-0.448434
-0.437511
-0.425399
-0.410431
-0.391942
-0.369746
-0.344421
-0.317185
-0.289408
-0.262202
-0.236274
-0.211976
-0.189427
-0.168618
-0.149485
-0.13193
-0.115838
-0.101191
-0.087761
-0.47223
-0.45918
-0.447566
-0.434304
-0.4175
-0.396565
-0.371628
-0.343677
-0.314233
-0.284771
-0.256359
-0.2296
-0.204742
-0.181829
-0.160802
-0.141564
-0.123991
-0.107959
-0.0934404
-0.0801007
-0.482776
-0.469156
-0.45683
-0.442278
-0.423426
-0.399857
-0.372101
-0.341574
-0.31005
-0.279054
-0.249573
-0.222093
-0.196767
-0.173568
-0.152394
-0.133116
-0.115585
-0.099674
-0.0853278
-0.0721274
-0.492129
-0.478038
-0.46497
-0.44898
-0.427892
-0.401555
-0.370975
-0.337979
-0.304543
-0.272184
-0.241782
-0.213704
-0.18801
-0.164613
-0.143369
-0.124121
-0.106699
-0.0909694
-0.0768447
-0.0638397
-0.49994
-0.485481
-0.471636
-0.454069
-0.430588
-0.401417
-0.368075
-0.332776
-0.297629
-0.264096
-0.232931
-0.204384
-0.178432
-0.154931
-0.133702
-0.114561
-0.0973185
-0.0818342
-0.0679833
-0.0552388
-0.505855
-0.491135
-0.476477
-0.457206
-0.431225
-0.399223
-0.363253
-0.325862
-0.289231
-0.254726
-0.222967
-0.194091
-0.167998
-0.144497
-0.123376
-0.104425
-0.0874346
-0.0722606
-0.0587363
-0.0463156
-0.509526
-0.494651
-0.479146
-0.458073
-0.429542
-0.394784
-0.356381
-0.317151
-0.279283
-0.244021
-0.211846
-0.182788
-0.156682
-0.133292
-0.112375
-0.0937001
-0.0770406
-0.0622473
-0.049104
-0.0370404
-0.510618
-0.495693
-0.479316
-0.456375
-0.425308
-0.387942
-0.347356
-0.306571
-0.267731
-0.231936
-0.19953
-0.170447
-0.144463
-0.1213
-0.100688
-0.0823793
-0.0661345
-0.0518006
-0.0391036
-0.0273826
-0.508822
-0.493949
-0.476686
-0.451855
-0.418332
-0.378571
-0.336099
-0.294069
-0.254534
-0.218438
-0.185992
-0.157047
-0.131323
-0.10851
-0.0883102
-0.0704607
-0.0547234
-0.0409274
-0.0287451
-0.0173931
-0.50386
-0.489136
-0.470992
-0.444298
-0.408465
-0.366581
-0.322557
-0.27961
-0.239664
-0.203503
-0.171216
-0.142573
-0.11725
-0.0949097
-0.075256
-0.0579564
-0.0428267
-0.0296428
-0.0179591
-0.00717803
-0.495496
-0.481015
-0.462016
-0.433535
-0.395601
-0.351915
-0.306702
-0.263177
-0.22311
-0.187122
-0.155191
-0.127021
-0.102254
-0.0805028
-0.0615514
-0.0449053
-0.0304399
-0.0179323
-0.00681505
0.00330545
-0.483538
-0.469391
-0.449589
-0.419447
-0.379676
-0.334551
-0.28853
-0.244773
-0.204875
-0.169299
-0.137928
-0.110403
-0.0863728
-0.0653769
-0.047153
-0.0312908
-0.0175871
-0.00581869
0.00465715
0.0140594
-0.467849
-0.454121
-0.433594
-0.401968
-0.360671
-0.314498
-0.268063
-0.224419
-0.184974
-0.15006
-0.119461
-0.09278
-0.069597
-0.0494929
-0.0321258
-0.0171376
-0.00428895
0.00667084
0.016437
0.0250657
-0.448345
-0.435121
-0.413974
-0.381081
-0.338608
-0.2918
-0.245346
-0.202152
-0.163445
-0.129461
-0.0998275
-0.0741487
-0.0519743
-0.032884
-0.0165004
-0.00247974
0.00942745
0.0195083
0.028502
0.0362978
-0.425001
-0.412361
-0.390723
-0.356819
-0.313554
-0.266537
-0.220454
-0.178044
-0.140389
-0.107519
-0.0790615
-0.0545585
-0.0335459
-0.0155946
-0.000312265
0.0126448
0.0235284
0.0326624
0.0408225
0.0477251
-0.397848
-0.385867
-0.363889
-0.329264
-0.285623
-0.238819
-0.193482
-0.152194
-0.115832
-0.0843167
-0.0572264
-0.0340678
-0.0143637
0.00232388
0.016395
0.0281942
0.0379752
0.0460967
0.0533613
0.0593111
-0.366978
-0.355722
-0.33358
-0.298565
-0.254967
-0.208754
-0.164537
-0.124686
-0.0898768
-0.0599367
-0.0343984
-0.0127452
0.00551079
0.0208145
0.0335701
0.0441211
0.0527244
0.0597704
0.0660755
0.0710133
-0.332531
-0.322066
-0.299981
-0.264956
-0.221683
-0.176442
-0.133764
-0.0956459
-0.0626349
-0.0344766
-0.0106657
0.00933007
0.0260065
0.0398131
0.0511551
0.0603731
0.0677289
0.0736404
0.0789218
0.0827881
-0.294688
-0.28511
-0.263353
-0.22863
-0.185765
-0.142163
-0.101331
-0.0652185
-0.0342328
-0.00804724
0.0138723
0.0320692
0.047044
0.0592484
0.0690855
0.0768916
0.0829374
0.0876649
0.0918633
0.0946001
-0.253657
-0.245121
-0.223896
-0.18925
-0.147999
-0.106127
-0.0674219
-0.0335649
-0.00481061
0.0192274
0.0391054
0.055374
0.068536
0.0790425
0.0872906
0.0936127
0.0982961
0.101801
0.104859
0.106409
-0.209675
-0.202363
-0.181491
-0.147947
-0.108333
-0.0685467
-0.032239
-0.000858171
0.025479
0.047212
0.0649134
0.0791379
0.0903882
0.0991112
0.105695
0.110471
0.113753
0.116001
0.117822
0.118074
-0.163031
-0.157135
-0.136924
-0.104725
-0.0670389
-0.0296582
0.00400575
0.0327145
0.0564712
0.0757607
0.0911674
0.103247
0.1125
0.119365
0.12422
0.127403
0.129263
0.130204
0.130574
0.129235
-0.114329
-0.109685
-0.090494
-0.0598715
-0.0244158
0.0102846
0.0410882
0.0669546
0.0879908
0.104719
0.11773
0.12758
0.134763
0.139709
0.142786
0.144351
0.144782
0.144324
0.142902
0.139614
-0.0639088
-0.0604234
-0.0425135
-0.0137271
0.0192254
0.0510115
0.0787719
0.101654
0.119854
0.133923
0.144458
0.152009
0.157066
0.160045
0.161311
0.161248
0.160232
0.158235
0.154776
0.150024
-0.012072
-0.00982211
0.00664059
0.03335
0.0635629
0.0922409
0.11681
0.136594
0.151868
0.163204
0.171201
0.176404
0.179291
0.180272
0.179709
0.178008
0.175489
0.17181
0.166366
0.162683
0.0407503
0.0416928
0.0565667
0.0809903
0.108267
0.133683
0.15495
0.171554
0.183836
0.192388
0.197805
0.200626
0.201321
0.200286
0.197888
0.194532
0.190438
0.185106
0.178373
0.17504
0.0941068
0.0936939
0.106853
0.128817
0.153002
0.175045
0.192933
0.206303
0.215557
0.221296
0.224114
0.22454
0.223032
0.219981
0.215753
0.21073
0.205047
0.198201
0.19047
0.186673
0.147543
0.145745
0.157084
0.176452
0.197433
0.216028
0.230496
0.240613
0.246827
0.249749
0.249968
0.248004
0.244303
0.239249
0.233202
0.226515
0.219268
0.211035
0.202373
0.197717
0.200604
0.197406
0.206842
0.223515
0.241221
0.256338
0.267381
0.274252
0.277442
0.277567
0.275209
0.270878
0.26501
0.25798
0.250139
0.241809
0.233042
0.223503
0.213886
0.208185
0.252836
0.248237
0.255715
0.269631
0.284036
0.29568
0.303327
0.306992
0.3072
0.304572
0.299679
0.293024
0.285031
0.276066
0.266468
0.256532
0.2463
0.235513
0.224921
0.21809
0.30379
0.297804
0.303295
0.314434
0.32555
0.333767
0.33808
0.338607
0.335902
0.330585
0.323222
0.314304
0.304245
0.2934
0.282095
0.270603
0.258963
0.24698
0.23541
0.227411
0.353028
0.345683
0.349187
0.357566
0.365446
0.370318
0.371392
0.368877
0.363352
0.355437
0.345687
0.334584
0.322533
0.309878
0.296931
0.283944
0.270959
0.257832
0.245298
0.236122
0.400127
0.391464
0.393009
0.398681
0.403419
0.405063
0.403023
0.39759
0.389364
0.378959
0.366927
0.353737
0.339783
0.3254
0.310886
0.296477
0.282217
0.268005
0.254535
0.244196
0.444679
0.434754
0.434395
0.437452
0.439177
0.437742
0.432744
0.424543
0.413755
0.400994
0.386801
0.371636
0.355884
0.33987
0.323877
0.308127
0.292669
0.277439
0.263074
0.251601
0.4863
0.475179
0.472999
0.473567
0.472442
0.468112
0.460337
0.449542
0.436357
0.42139
0.405176
0.388165
0.370734
0.353198
0.335825
0.318826
0.302254
0.286079
0.27087
0.258309
0.524628
0.512392
0.508498
0.506735
0.502958
0.495942
0.4856
0.472408
0.457008
0.440006
0.421927
0.403214
0.384236
0.365297
0.346655
0.328506
0.310913
0.293874
0.277881
0.264294
0.559327
0.546068
0.540594
0.536688
0.530485
0.521021
0.508343
0.492973
0.475561
0.456709
0.436938
0.416682
0.3963
0.37609
0.356297
0.337109
0.318595
0.300776
0.284068
0.269532
0.590094
0.575916
0.569015
0.563181
0.554806
0.543157
0.528395
0.511084
0.49188
0.471382
0.450104
0.428474
0.406845
0.385505
0.364691
0.344579
0.32525
0.306742
0.289394
0.274002
0.616655
0.601671
0.593518
0.585998
0.575728
0.562177
0.545604
0.526606
0.505845
0.483918
0.461331
0.438509
0.415797
0.393478
0.371778
0.350868
0.330835
0.311734
0.293829
0.277685
0.638771
0.623104
0.61389
0.604946
0.59308
0.57793
0.559835
0.53942
0.517351
0.494222
0.470537
0.446713
0.423093
0.399953
0.377512
0.355933
0.335312
0.315717
0.297344
0.280565
0.65624
0.64002
0.629951
0.619864
0.606719
0.590287
0.570974
0.549424
0.526307
0.502216
0.477651
0.453026
0.42868
0.404882
0.381849
0.359739
0.338651
0.318663
0.299916
0.282632
0.668895
0.652258
0.641554
0.63062
0.616527
0.599146
0.578928
0.556536
0.532641
0.507835
0.482616
0.457397
0.432512
0.408229
0.384758
0.362255
0.340824
0.320547
0.301526
0.283875
0.676609
0.659696
0.648586
0.637112
0.622414
0.604424
0.583626
0.560691
0.536295
0.511029
0.485389
0.459787
0.434556
0.409962
0.386212
0.363459
0.341812
0.321354
0.30216
0.284291
0.679295
0.66225
0.650969
0.63927
0.624317
0.606067
0.585018
0.561848
0.537232
0.511764
0.48594
0.460171
0.43479
0.410062
0.386194
0.363338
0.341602
0.321069
0.301808
0.283866
0.676904
0.659874
0.64866
0.637057
0.622202
0.604044
0.583078
0.559981
0.535431
0.510022
0.484253
0.458535
0.433201
0.408519
0.384695
0.361883
0.340188
0.319689
0.300464
0.282602
0.66943
0.652561
0.641653
0.630465
0.616064
0.598352
0.577802
0.555087
0.530888
0.505801
0.480325
0.454876
0.429789
0.405331
0.381715
0.359094
0.33757
0.317213
0.29813
0.280497
0.656905
0.640341
0.629976
0.619521
0.605927
0.58901
0.569207
0.547184
0.52362
0.499113
0.47417
0.449206
0.424562
0.400509
0.377261
0.354978
0.333753
0.313648
0.294812
0.277559
0.639402
0.623286
0.613695
0.604282
0.591841
0.576064
0.557337
0.536307
0.513658
0.48999
0.465813
0.441549
0.417542
0.394069
0.37135
0.349549
0.328753
0.309007
0.290521
0.273789
0.617035
0.601503
0.592907
0.584839
0.573886
0.559586
0.542253
0.522515
0.501053
0.478474
0.455294
0.431939
0.408761
0.38604
0.364007
0.342831
0.322587
0.303308
0.28527
0.269192
0.589954
0.575138
0.567749
0.561311
0.55217
0.539671
0.524041
0.505882
0.485873
0.464627
0.442666
0.420425
0.398259
0.37646
0.355264
0.33485
0.315283
0.296574
0.27908
0.26378
0.558351
0.544374
0.538387
0.533849
0.526827
0.516439
0.502808
0.486503
0.468202
0.448524
0.427996
0.407064
0.38609
0.365374
0.345163
0.325644
0.306873
0.288837
0.271976
0.257564
0.52245
0.509427
0.505022
0.502632
0.498016
0.490032
0.47868
0.464493
0.448142
0.430253
0.411364
0.391928
0.372316
0.352836
0.33375
0.315254
0.297394
0.28013
0.263985
0.250562
0.482512
0.470549
0.467885
0.467869
0.465921
0.460614
0.451804
0.43998
0.425808
0.409919
0.392861
0.375096
0.357007
0.338911
0.321081
0.303729
0.28689
0.270493
0.255141
0.242792
0.438831
0.42802
0.427237
0.429792
0.430752
0.42837
0.422346
0.413113
0.40133
0.387636
0.372589
0.35666
0.340244
0.323668
0.30722
0.291125
0.27541
0.259969
0.245481
0.234277
0.39173
0.382155
0.383365
0.388662
0.392739
0.393506
0.390487
0.384053
0.374853
0.363533
0.350661
0.33672
0.322115
0.307185
0.292234
0.277501
0.263008
0.248608
0.235044
0.225043
0.341563
0.333292
0.336585
0.34476
0.352131
0.356243
0.356424
0.352976
0.346534
0.337748
0.3272
0.315383
0.302716
0.289548
0.276198
0.262923
0.249742
0.236462
0.223874
0.215117
0.288706
0.281795
0.287234
0.298389
0.309199
0.316821
0.320372
0.320071
0.316539
0.31043
0.302337
0.292767
0.282149
0.270846
0.259192
0.247462
0.235675
0.223585
0.212017
0.204529
0.23356
0.228051
0.235669
0.249872
0.264229
0.275494
0.282554
0.285539
0.285046
0.281737
0.276213
0.268995
0.260524
0.251176
0.2413
0.231194
0.220874
0.21004
0.19952
0.19331
0.176543
0.172466
0.182269
0.199548
0.217521
0.232528
0.243208
0.249589
0.252242
0.251833
0.248972
0.244195
0.237955
0.230638
0.22261
0.214195
0.205413
0.195892
0.186436
0.181487
0.118093
0.11546
0.127424
0.14777
0.16939
0.1882
0.202579
0.212439
0.21832
0.220889
0.220767
0.218501
0.214558
0.209336
0.203214
0.196546
0.189368
0.181215
0.172818
0.169086
0.0586546
0.0574651
0.0715392
0.0949031
0.120157
0.142796
0.16092
0.174313
0.183479
0.189081
0.191752
0.192051
0.190457
0.187379
0.183206
0.178329
0.172816
0.166103
0.15874
0.15612
-0.00131499
-0.00107629
0.015028
0.0413208
0.0701559
0.0966089
0.11849
0.135441
0.147921
0.156589
0.162085
0.164983
0.165774
0.164875
0.162683
0.159622
0.15583
0.150653
0.144301
0.142567
-0.0613556
-0.0597201
-0.0416908
-0.0125972
0.0197216
0.0499348
0.0755493
0.0960535
0.111851
0.123593
0.131928
0.13744
0.140634
0.141936
0.141744
0.140504
0.138462
0.134977
0.129725
0.128396
-0.121006
-0.118023
-0.0981959
-0.0664682
-0.0308066
0.00307189
0.0323618
0.0563826
0.075474
0.0902756
0.101441
0.109563
0.11516
0.118673
0.120492
0.121066
0.120759
0.119138
0.115353
0.11342
-0.179806
-0.175548
-0.154067
-0.11991
-0.0810902
-0.0436825
-0.0108111
0.0166594
0.0389946
0.0568166
0.0707817
0.0814915
0.0894775
0.0951921
0.0990269
0.101402
0.102742
0.103006
0.101532
0.0981785
-0.237293
-0.23187
-0.208889
-0.172545
-0.130794
-0.0900341
-0.0537114
-0.0228887
0.00261341
0.0233937
0.0401082
0.0533652
0.0637064
0.0715994
0.0774408
0.0816155
0.0845445
0.0865145
0.0874097
0.0859028
-0.293052
-0.286538
-0.262258
-0.224006
-0.179591
-0.135695
-0.0960863
-0.0620393
-0.0334733
-0.00982007
0.009573
0.0253187
0.0379665
0.047998
0.0558219
0.0618002
0.0663143
0.0698393
0.0727984
0.0736869
-0.346974
-0.338981
-0.313814
-0.273941
-0.227161
-0.180385
-0.137691
-0.100577
-0.0690758
-0.0426571
-0.020676
-0.00251746
0.0123736
0.0244894
0.0342541
0.0420228
0.048134
0.053127
0.0577414
0.0605057
-0.398343
-0.388971
-0.363297
-0.322022
-0.273201
-0.223836
-0.178291
-0.138297
-0.104013
-0.074957
-0.0504973
-0.0300184
-0.0129621
0.00117112
0.0128188
0.0223396
0.0300402
0.0364584
0.0424826
0.0467514
-0.446745
-0.436232
-0.410156
-0.368007
-0.317429
-0.26579
-0.217663
-0.175004
-0.138112
-0.106568
-0.0797568
-0.057066
-0.0379364
-0.0218648
-0.00840397
0.00281196
0.0120712
0.019889
0.0272218
0.0328696
-0.491912
-0.480429
-0.45395
-0.411599
-0.359598
-0.306
-0.2556
-0.210517
-0.171214
-0.137348
-0.108329
-0.0835496
-0.0624518
-0.0445317
-0.0293366
-0.0164931
-0.00572148
0.00346554
0.0120519
0.0190184
-0.533592
-0.521286
-0.494622
-0.452086
-0.399619
-0.344235
-0.291915
-0.244665
-0.203168
-0.167167
-0.136098
-0.109367
-0.0864175
-0.0667489
-0.0499062
-0.0355092
-0.0232824
-0.0127701
-0.00298711
0.00523767
-0.571569
-0.558546
-0.531963
-0.489563
-0.436691
-0.380497
-0.326438
-0.277291
-0.233841
-0.195905
-0.162959
-0.134423
-0.109751
-0.0884427
-0.070046
-0.0541761
-0.0405591
-0.0287755
-0.0178584
-0.008435
-0.60567
-0.592002
-0.565736
-0.523891
-0.471035
-0.414256
-0.358987
-0.308253
-0.263113
-0.223457
-0.188817
-0.158636
-0.132376
-0.109546
-0.0896962
-0.0724396
-0.0575031
-0.0445066
-0.0325161
-0.0219513
-0.635757
-0.621514
-0.595765
-0.554845
-0.502484
-0.445481
-0.389395
-0.337422
-0.29088
-0.249729
-0.213589
-0.181931
-0.15423
-0.130001
-0.108804
-0.0902514
-0.0740703
-0.0599208
-0.0469139
-0.0352645
-0.661742
-0.646999
-0.621936
-0.582262
-0.530849
-0.474087
-0.417586
-0.364751
-0.317022
-0.274642
-0.237205
-0.204245
-0.175256
-0.149756
-0.127322
-0.107569
-0.0902215
-0.0749803
-0.0610117
-0.0483354
-0.683593
-0.668427
-0.644195
-0.606052
-0.556011
-0.499965
-0.443466
-0.390116
-0.341545
-0.298128
-0.259609
-0.225527
-0.19541
-0.168767
-0.145213
-0.124355
-0.105923
-0.0896536
-0.0747774
-0.0611312
-0.701334
-0.685826
-0.662544
-0.626181
-0.577907
-0.523032
-0.466965
-0.413455
-0.364353
-0.320179
-0.280779
-0.245733
-0.214657
-0.186996
-0.162448
-0.140579
-0.121147
-0.103914
-0.0881856
-0.0736242
-0.715049
-0.69928
-0.677035
-0.64266
-0.596509
-0.543244
-0.488039
-0.434739
-0.385407
-0.340738
-0.300685
-0.264892
-0.232949
-0.204418
-0.179005
-0.156213
-0.135875
-0.117738
-0.101218
-0.0857898
-0.724874
-0.708929
-0.68778
-0.655547
-0.611831
-0.560587
-0.506667
-0.453952
-0.404698
-0.359787
-0.319294
-0.282934
-0.250319
-0.221073
-0.194841
-0.171243
-0.150091
-0.131101
-0.113857
-0.0976118
-0.731
-0.714964
-0.694942
-0.664952
-0.623927
-0.575078
-0.522851
-0.471094
-0.42223
-0.377331
-0.336608
-0.299857
-0.266739
-0.236901
-0.209999
-0.185708
-0.163766
-0.143991
-0.126077
-0.109093
-0.733665
-0.717627
-0.698735
-0.671036
-0.632891
-0.586766
-0.536617
-0.486184
-0.438022
-0.39339
-0.352646
-0.315681
-0.28221
-0.251906
-0.224456
-0.199556
-0.176933
-0.15644
-0.137807
-0.120277
-0.733148
-0.7172
-0.69942
-0.674004
-0.638863
-0.595733
-0.548014
-0.499258
-0.452106
-0.407995
-0.367439
-0.330433
-0.296752
-0.266109
-0.238215
-0.212792
-0.189581
-0.168434
-0.14914
-0.131058
-0.729762
-0.714
-0.697296
-0.674107
-0.642021
-0.602092
-0.557115
-0.510369
-0.464528
-0.421188
-0.381024
-0.344147
-0.310399
-0.279536
-0.251299
-0.225436
-0.20171
-0.179974
-0.160072
-0.141408
-0.723848
-0.708368
-0.692694
-0.671631
-0.64258
-0.605986
-0.564012
-0.519587
-0.475347
-0.433023
-0.393452
-0.356866
-0.323188
-0.29222
-0.263737
-0.237514
-0.213338
-0.191065
-0.170593
-0.151364
-0.715764
-0.700663
-0.685964
-0.666894
-0.640792
-0.607591
-0.568821
-0.526992
-0.484631
-0.443564
-0.40478
-0.368644
-0.335167
-0.304204
-0.275565
-0.249056
-0.224488
-0.201725
-0.18071
-0.160956
-0.705873
-0.691249
-0.67747
-0.660235
-0.636935
-0.607106
-0.571676
-0.532681
-0.492458
-0.452881
-0.415076
-0.379543
-0.34639
-0.315534
-0.286824
-0.260097
-0.235189
-0.211976
-0.190442
-0.170196
-0.694541
-0.680486
-0.667576
-0.652002
-0.631312
-0.604759
-0.572731
-0.536757
-0.498912
-0.461049
-0.424412
-0.389632
-0.356922
-0.326268
-0.297563
-0.270677
-0.245477
-0.221848
-0.199808
-0.179088
-0.682119
-0.668721
-0.656633
-0.642546
-0.624237
-0.600796
-0.572157
-0.539338
-0.504078
-0.468148
-0.432864
-0.398986
-0.366834
-0.336471
-0.30784
-0.280847
-0.255392
-0.231375
-0.208834
-0.187644
-0.668941
-0.656278
-0.644976
-0.632205
-0.616029
-0.595479
-0.570143
-0.540548
-0.508049
-0.474256
-0.440512
-0.407683
-0.376202
-0.346214
-0.31772
-0.290664
-0.264981
-0.240595
-0.21755
-0.195883
-0.655315
-0.643454
-0.632907
-0.621299
-0.607
-0.589079
-0.566887
-0.540521
-0.510917
-0.479452
-0.447433
-0.415805
-0.385107
-0.355576
-0.327275
-0.300191
-0.2743
-0.249553
-0.22599
-0.203828
-0.641516
-0.630512
-0.620699
-0.610115
-0.597446
-0.581866
-0.562601
-0.539399
-0.512776
-0.48381
-0.453701
-0.423432
-0.393636
-0.364642
-0.336584
-0.309501
-0.283409
-0.258298
-0.234195
-0.211506
-0.627786
-0.617677
-0.608582
-0.598905
-0.587636
-0.5741
-0.5575
-0.537332
-0.513722
-0.487398
-0.459384
-0.430641
-0.401873
-0.373501
-0.345735
-0.318673
-0.292377
-0.266889
-0.242209
-0.218948
-0.61433
-0.605139
-0.596747
-0.587881
-0.577805
-0.566025
-0.5518
-0.534478
-0.513853
-0.490285
-0.464544
-0.437506
-0.409906
-0.382246
-0.354822
-0.327795
-0.301282
-0.275387
-0.25008
-0.226187
-0.601315
-0.593048
-0.585347
-0.577212
-0.568152
-0.557858
-0.545706
-0.530996
-0.513271
-0.49253
-0.469231
-0.444088
-0.417816
-0.390974
-0.363944
-0.336965
-0.310209
-0.283866
-0.257865
-0.233261
-0.588879
-0.581523
-0.574494
-0.567025
-0.558832
-0.549784
-0.539412
-0.527051
-0.512086
-0.494195
-0.47349
-0.450443
-0.425677
-0.399781
-0.373208
-0.346287
-0.319256
-0.292404
-0.265623
-0.240208
-0.577129
-0.570654
-0.564272
-0.557413
-0.549964
-0.541955
-0.533091
-0.522805
-0.510414
-0.495345
-0.477356
-0.456608
-0.433556
-0.408757
-0.382724
-0.355877
-0.328528
-0.301093
-0.273423
-0.247075
-0.566149
-0.560506
-0.554737
-0.548438
-0.541632
-0.534491
-0.526893
-0.518411
-0.508378
-0.496049
-0.480857
-0.462608
-0.4415
-0.417986
-0.392602
-0.365857
-0.338145
-0.310033
-0.28134
-0.253906
-0.556004
-0.551127
-0.545928
-0.540139
-0.533897
-0.527484
-0.520947
-0.514019
-0.506107
-0.496388
-0.484026
-0.468455
-0.449537
-0.427536
-0.402945
-0.376353
-0.348238
-0.319341
-0.289457
-0.260755
-0.546745
-0.542547
-0.537866
-0.532541
-0.526797
-0.521007
-0.515363
-0.509764
-0.503738
-0.496457
-0.486899
-0.474147
-0.457673
-0.437449
-0.413846
-0.387494
-0.358945
-0.32915
-0.297875
-0.267656
-0.538403
-0.534785
-0.530562
-0.525658
-0.520361
-0.515117
-0.510237
-0.505776
-0.501407
-0.496363
-0.489523
-0.479679
-0.465886
-0.447736
-0.425372
-0.399397
-0.37042
-0.339607
-0.3067
-0.274698
-0.530992
-0.52784
-0.524014
-0.519492
-0.514607
-0.509857
-0.50565
-0.502174
-0.499254
-0.496229
-0.491964
-0.485042
-0.474129
-0.458367
-0.437548
-0.41216
-0.382804
-0.350902
-0.316097
-0.281848
-0.524499
-0.521693
-0.518201
-0.514031
-0.509539
-0.505259
-0.501668
-0.499066
-0.497413
-0.496184
-0.494301
-0.490239
-0.482336
-0.469263
-0.450346
-0.425832
-0.396238
-0.3632
-0.326292
-0.289511
-0.518876
-0.516296
-0.513082
-0.509243
-0.505141
-0.50133
-0.498336
-0.496535
-0.496004
-0.496359
-0.496631
-0.495285
-0.490431
-0.480299
-0.463667
-0.440401
-0.410792
-0.376777
-0.337572
-0.297474
-0.51404
-0.511576
-0.508589
-0.505071
-0.501371
-0.498051
-0.495661
-0.494628
-0.495116
-0.496866
-0.499051
-0.500208
-0.498339
-0.491312
-0.477333
-0.455753
-0.426499
-0.391581
-0.351243
-0.308039
-0.509868
-0.507425
-0.504629
-0.501429
-0.498155
-0.495362
-0.493609
-0.493343
-0.494786
-0.497781
-0.501645
-0.505047
-0.505995
-0.502119
-0.491098
-0.471655
-0.443302
-0.407671
-0.367097
-0.32001
-0.506205
-0.503712
-0.50108
-0.498205
-0.495385
-0.493165
-0.492093
-0.492618
-0.494987
-0.499117
-0.504455
-0.509828
-0.513345
-0.512533
-0.504666
-0.487763
-0.460902
-0.424758
-0.383505
-0.332797
-0.502867
-0.500284
-0.497803
-0.495263
-0.492926
-0.491324
-0.49098
-0.492328
-0.495618
-0.500811
-0.507458
-0.514544
-0.520336
-0.522382
-0.517714
-0.503652
-0.478797
-0.442483
-0.400069
-0.346008
-0.499657
-0.496974
-0.494644
-0.492452
-0.490626
-0.489675
-0.490098
-0.492296
-0.496506
-0.502713
-0.510542
-0.51912
-0.52689
-0.531508
-0.529925
-0.51887
-0.496432
-0.460489
-0.416952
-0.359642
-0.496374
-0.493613
-0.491447
-0.489615
-0.488315
-0.488038
-0.489244
-0.492302
-0.497425
-0.5046
-0.513513
-0.523399
-0.532873
-0.539744
-0.541009
-0.53298
-0.513255
-0.478315
-0.434133
-0.373753
-0.492824
-0.490036
-0.488056
-0.486594
-0.485827
-0.486221
-0.488203
-0.492103
-0.498106
-0.506199
-0.516099
-0.527139
-0.538077
-0.546887
-0.55069
-0.545571
-0.52872
-0.495369
-0.45124
-0.388171
-0.488834
-0.486089
-0.484325
-0.483238
-0.482994
-0.484035
-0.486756
-0.491446
-0.498265
-0.507195
-0.517983
-0.530032
-0.542221
-0.552678
-0.558681
-0.556247
-0.542281
-0.510977
-0.467657
-0.402502
-0.484254
-0.481638
-0.480121
-0.479409
-0.479662
-0.481303
-0.484693
-0.490087
-0.497622
-0.507278
-0.518827
-0.531728
-0.544964
-0.556797
-0.564658
-0.564618
-0.553405
-0.524465
-0.482642
-0.41621
-0.478965
-0.476572
-0.475333
-0.474985
-0.475695
-0.477864
-0.481825
-0.487804
-0.495919
-0.506153
-0.518303
-0.531878
-0.54594
-0.558878
-0.568258
-0.570284
-0.561585
-0.535205
-0.495414
-0.428698
-0.472887
-0.470809
-0.469874
-0.469871
-0.470981
-0.473588
-0.477997
-0.484414
-0.492943
-0.503572
-0.516122
-0.530152
-0.544794
-0.558546
-0.569099
-0.572842
-0.566345
-0.542627
-0.505214
-0.439363
-0.465979
-0.4643
-0.463687
-0.463999