/*--------------------------------*- C++ -*----------------------------------*\
  =========                 |
  \\      /  F ield         | OpenFOAM: The Open Source CFD Toolbox
   \\    /   O peration     | Website:  https://openfoam.org
    \\  /    A nd           | Version:  7
     \\/     M anipulation  |
\*---------------------------------------------------------------------------*/
FoamFile
{
    version     2.0;
    format      ascii;
    class       volVectorField;
    location    "142";
    object      U;
}
// * * * * * * * * * * * * * * * * * * * * * * * * * * * * * * * * * * * * * //

dimensions      [0 1 -1 0 0 0 0];

internalField   nonuniform List<vector> 
12400
(
(-0.00070724 -0.0147653 -8.09865e-21)
(-0.00466807 -0.0460986 -3.00964e-20)
(-0.0133494 -0.078547 5.58958e-21)
(-0.0252864 -0.110067 2.14642e-20)
(-0.0397804 -0.139125 9.28633e-21)
(-0.0563068 -0.165061 -2.29768e-20)
(-0.0742391 -0.188133 -7.44617e-21)
(-0.0929028 -0.209327 -2.97554e-21)
(-0.11162 -0.229946 -2.75482e-20)
(-0.129748 -0.251149 -5.39478e-21)
(-0.146695 -0.273579 -2.09642e-20)
(-0.161897 -0.297191 3.52278e-21)
(-0.174756 -0.321208 -1.11212e-20)
(-0.184564 -0.344121 2.03973e-20)
(-0.190435 -0.363645 -2.6945e-20)
(-0.191259 -0.376638 -2.92572e-20)
(-0.185726 -0.379046 -8.6259e-21)
(-0.172449 -0.366137 4.86346e-20)
(-0.149813 -0.33318 -4.29142e-20)
(-0.115759 -0.274929 6.11746e-21)
(-0.000476767 -0.0119915 1.19074e-20)
(-0.00425713 -0.0392823 1.93676e-20)
(-0.0134026 -0.0687428 6.45554e-21)
(-0.0261907 -0.0980653 1.88987e-20)
(-0.0418002 -0.125581 -4.34454e-21)
(-0.0596278 -0.150554 2.88255e-20)
(-0.0789808 -0.173195 1.07542e-20)
(-0.0991519 -0.194441 2.5822e-20)
(-0.119474 -0.215539 -1.52056e-20)
(-0.139356 -0.237591 3.69722e-20)
(-0.15829 -0.261205 1.19915e-19)
(-0.175816 -0.286338 -2.04343e-20)
(-0.191455 -0.312271 3.0552e-20)
(-0.204635 -0.337601 -1.87215e-20)
(-0.214618 -0.360184 4.97614e-20)
(-0.220455 -0.377038 -5.77652e-21)
(-0.220991 -0.384255 2.85988e-20)
(-0.214951 -0.377164 -1.76435e-19)
(-0.200345 -0.350737 1.85493e-20)
(-0.17527 -0.299502 -2.43608e-20)
(-0.00046768 -0.00880683 3.8748e-20)
(-0.00428572 -0.0315057 4.07495e-20)
(-0.0138682 -0.0576477 -9.15914e-21)
(-0.027312 -0.0846093 -2.06149e-20)
(-0.0437098 -0.110537 -7.81828e-21)
(-0.0624004 -0.134571 2.96497e-20)
(-0.0826401 -0.156818 4.42131e-20)
(-0.103697 -0.178125 -9.9523e-20)
(-0.124914 -0.199658 2.85452e-20)
(-0.14574 -0.222447 -3.61131e-20)
(-0.16573 -0.247068 -6.37317e-20)
(-0.184505 -0.273493 -1.2895e-20)
(-0.201681 -0.301067 -1.98517e-20)
(-0.216801 -0.328497 -4.55271e-20)
(-0.229278 -0.353794 5.38224e-20)
(-0.23835 -0.374152 -5.12458e-20)
(-0.243096 -0.385862 6.43618e-21)
(-0.242496 -0.384357 1.69914e-19)
(-0.234503 -0.364523 -1.15778e-19)
(-0.216844 -0.3208 1.00609e-19)
(-0.000704647 -0.00532769 -2.85179e-20)
(-0.00479157 -0.0230271 5.47285e-20)
(-0.0147578 -0.045597 -7.88116e-20)
(-0.028618 -0.0700704 3.67681e-20)
(-0.045426 -0.0943752 -2.03065e-19)
(-0.0644898 -0.117483 -1.26186e-19)
(-0.0850325 -0.139356 8.07583e-20)
(-0.106304 -0.160716 1.97234e-19)
(-0.127651 -0.18262 -8.29799e-20)
(-0.148547 -0.206023 -5.69416e-20)
(-0.168587 -0.23147 -8.2558e-20)
(-0.187441 -0.258952 1.70695e-19)
(-0.204787 -0.287879 2.12761e-19)
(-0.22026 -0.317068 -1.69031e-19)
(-0.233406 -0.34467 -1.37607e-19)
(-0.243653 -0.368058 5.12028e-20)
(-0.250333 -0.383732 -1.12109e-19)
(-0.252791 -0.387265 -6.95412e-21)
(-0.249267 -0.373569 1.82011e-19)
(-0.236206 -0.337539 5.42063e-20)
(-0.0011952 -0.00168813 1.14239e-19)
(-0.00578112 -0.0141393 3.68744e-20)
(-0.0160547 -0.0329636 1.26967e-19)
(-0.0300588 -0.0548526 -3.90644e-20)
(-0.0468629 -0.0774998 1.99746e-19)
(-0.0657734 -0.0996802 1.21991e-19)
(-0.0859986 -0.121179 -1.48674e-19)
(-0.106775 -0.142562 -1.93508e-19)
(-0.127445 -0.16476 1.79493e-19)
(-0.147485 -0.188647 -5.21216e-20)
(-0.166502 -0.214737 7.79249e-20)
(-0.184182 -0.24304 -3.08689e-19)
(-0.200236 -0.273031 1.09194e-19)
(-0.214355 -0.303622 3.92466e-20)
(-0.226189 -0.333087 2.30444e-20)
(-0.235343 -0.358955 8.40075e-20)
(-0.241379 -0.377925 2.14868e-19)
(-0.244019 -0.385737 4.18482e-21)
(-0.242326 -0.377303 -6.77238e-20)
(-0.229672 -0.348639 5.38666e-20)
(-0.00192838 0.00196817 7.97269e-20)
(-0.00722768 -0.00515379 4.02842e-20)
(-0.0177132 -0.0201404 -2.07037e-19)
(-0.0315682 -0.0393776 -1.25917e-19)
(-0.0479327 -0.0603303 -4.92585e-20)
(-0.0661415 -0.081564 1.68279e-19)
(-0.0854051 -0.102665 2.02102e-19)
(-0.104949 -0.124022 -2.54276e-20)
(-0.124098 -0.146427 -4.85388e-20)
(-0.142312 -0.170665 -4.40666e-20)
(-0.159178 -0.197217 -1.39595e-19)
(-0.174366 -0.226112 3.20324e-19)
(-0.187582 -0.256879 -1.92278e-21)
(-0.19854 -0.288508 -1.25873e-19)
(-0.206969 -0.319372 -9.04163e-21)
(-0.212634 -0.347125 2.56697e-20)
(-0.215293 -0.36864 7.07331e-20)
(-0.214916 -0.379868 -2.62174e-19)
(-0.212405 -0.375592 1.06181e-19)
(-0.194866 -0.353455 -8.58982e-20)
(-0.00287472 0.00549716 -1.3404e-19)
(-0.0090719 0.00361554 7.85203e-20)
(-0.0196599 -0.00752395 9.46425e-20)
(-0.0330646 -0.0240706 8.07097e-20)
(-0.0485476 -0.0432891 1.78454e-19)
(-0.0654987 -0.063539 2.67909e-20)
(-0.0831453 -0.0841991 -2.40458e-20)
(-0.100702 -0.105467 7.92415e-20)
(-0.117463 -0.127986 -1.21206e-19)
(-0.132846 -0.152444 -1.35132e-20)
(-0.146387 -0.179286 6.05852e-20)
(-0.157704 -0.208551 -2.75923e-19)
(-0.166466 -0.239808 -9.21746e-20)
(-0.172379 -0.272107 8.49592e-20)
(-0.175221 -0.303887 -2.01729e-19)
(-0.174917 -0.332887 2.2023e-19)
(-0.171446 -0.356122 2.49387e-20)
(-0.164639 -0.369829 -2.67915e-20)
(-0.159192 -0.368559 -2.93779e-19)
(-0.130984 -0.351685 1.48865e-19)
(-0.00398894 0.00876354 -5.39415e-20)
(-0.0112254 0.0118695 -5.80922e-20)
(-0.0217963 0.00450276 -2.79546e-19)
(-0.0344542 -0.00934651 -1.25967e-19)
(-0.0486215 -0.0267924 -4.32904e-19)
(-0.0637649 -0.0460081 -3.69753e-20)
(-0.0791401 -0.0661679 -2.2128e-19)
(-0.0939486 -0.0872745 -1.60293e-19)
(-0.107441 -0.109813 3.57375e-19)
(-0.118965 -0.134369 6.12677e-20)
(-0.127975 -0.16134 1.58327e-19)
(-0.134004 -0.190766 1.97653e-19)
(-0.136648 -0.222241 -7.0271e-20)
(-0.13558 -0.25484 -2.23989e-19)
(-0.130605 -0.287035 2.02665e-19)
(-0.121811 -0.316606 1.82558e-19)
(-0.109558 -0.340659 -1.72888e-19)
(-0.0926771 -0.355743 2.27475e-19)
(-0.0829177 -0.356437 3.06526e-19)
(-0.0387404 -0.342569 6.80502e-20)
(-0.0052127 0.0116492 1.42189e-19)
(-0.013577 0.0193395 1.75757e-19)
(-0.0240052 0.0155862 8.58791e-20)
(-0.0356337 0.00440231 2.17368e-19)
(-0.0480724 -0.011241 9.99894e-20)
(-0.0608772 -0.0293654 2.7405e-19)
(-0.0733399 -0.0489572 2.40039e-19)
(-0.0846463 -0.0698261 -9.71667e-20)
(-0.0939871 -0.0922945 -1.58954e-19)
(-0.100619 -0.116838 2.88493e-19)
(-0.103882 -0.143798 -1.82001e-19)
(-0.103195 -0.173199 1.3697e-19)
(-0.0980534 -0.204637 1.84389e-19)
(-0.0880799 -0.237183 2.0055e-19)
(-0.0731005 -0.269295 -5.85222e-19)
(-0.0533627 -0.298749 -2.61231e-19)
(-0.0299934 -0.322717 -6.10863e-20)
(0.000634138 -0.337646 2.56564e-19)
(0.0161155 -0.340036 -5.11386e-19)
(0.0793685 -0.324467 -1.57608e-19)
(-0.00647968 0.0140604 2.14289e-19)
(-0.0159999 0.0258006 -2.61612e-19)
(-0.0261574 0.025418 -2.79069e-19)
(-0.0364957 0.0168214 -2.92291e-19)
(-0.046822 0.00299166 -1.84429e-19)
(-0.0567878 -0.0139888 -4.45632e-20)
(-0.0657224 -0.0329435 -3.09147e-19)
(-0.0727907 -0.0535009 3.91548e-19)
(-0.0771123 -0.0758198 1.15377e-19)
(-0.0778306 -0.100259 1.17558e-19)
(-0.0741503 -0.127091 -4.69746e-19)
(-0.0653532 -0.156307 7.41627e-20)
(-0.0508204 -0.187486 -5.67038e-20)
(-0.0301298 -0.219657 -2.32631e-20)
(-0.00316218 -0.251223 -2.24325e-19)
(0.0297001 -0.279912 2.75952e-19)
(0.0659873 -0.303061 -5.86607e-20)
(0.112635 -0.315213 -5.72595e-19)
(0.13694 -0.320878 7.98235e-20)
(0.21961 -0.298506 2.65187e-19)
(-0.00772102 0.0159327 1.55216e-19)
(-0.0183604 0.0310825 -5.07078e-20)
(-0.0281178 0.0337473 2.92754e-19)
(-0.0369324 0.0276065 1.48845e-19)
(-0.0448 0.0155697 2.17299e-19)
(-0.0514624 -0.000229711 1.99786e-20)
(-0.056287 -0.0184864 4.20939e-19)
(-0.0584113 -0.0386664 -3.84427e-19)
(-0.056873 -0.0607683 -1.78859e-19)
(-0.0506904 -0.0850283 -7.24665e-20)
(-0.0389176 -0.111639 4.70241e-19)
(-0.0206969 -0.140537 -8.25006e-20)
(0.00469757 -0.171262 6.99505e-20)
(0.0376882 -0.202775 2.90056e-19)
(0.078234 -0.23339 2.70595e-19)
(0.125804 -0.260694 -4.525e-19)
(0.176581 -0.282463 -2.34525e-19)
(0.23911 -0.290508 1.06088e-19)
(0.273317 -0.298425 2.94035e-19)
(0.377159 -0.268456 -4.08726e-20)
(-0.008871 0.0172341 -2.05167e-19)
(-0.0205277 0.0350773 -1.16243e-19)
(-0.0297525 0.0403902 -1.64123e-19)
(-0.0368368 0.0365123 -1.59716e-19)
(-0.0419382 0.0262056 1.85374e-19)
(-0.044875 0.011598 -3.60246e-19)
(-0.0450446 -0.00591782 3.59825e-19)
(-0.0415539 -0.0256659 2.64925e-20)
(-0.0333525 -0.0474942 -3.18202e-19)
(-0.0193271 -0.0715146 -7.44944e-20)
(0.00161907 -0.0978222 -3.0267e-19)
(0.0304634 -0.126283 1.4014e-19)
(0.0679914 -0.156373 -9.66415e-20)
(0.114544 -0.186965 -5.63525e-19)
(0.169734 -0.21625 2.72314e-20)
(0.232679 -0.241588 1.58365e-19)
(0.297996 -0.261615 3.28307e-19)
(0.37587 -0.265514 5.14635e-19)
(0.418031 -0.272654 6.02806e-20)
(0.539688 -0.237637 -3.65971e-19)
(-0.00987239 0.0179652 -2.86958e-19)
(-0.0223821 0.0377417 -4.31597e-20)
(-0.0309356 0.0452364 5.83082e-19)
(-0.0361045 0.0433635 -2.665e-19)
(-0.0381668 0.0346718 1.52794e-20)
(-0.0369941 0.0212299 -2.62895e-19)
(-0.0320008 0.00447555 -2.57777e-19)
(-0.0222562 -0.0148005 4.30203e-20)
(-0.00662446 -0.0363049 1.3911e-19)
(0.0161387 -0.0600271 5.28463e-19)
(0.0472634 -0.0859472 -1.69291e-19)
(0.0878103 -0.113851 -7.30276e-19)
(0.138511 -0.1431 5.17626e-19)
(0.19949 -0.172466 4.39537e-19)
(0.269768 -0.200027 2.7865e-19)
(0.347774 -0.22285 6.65484e-19)
(0.426494 -0.240559 -1.89554e-19)
(0.516276 -0.240424 -7.82203e-19)
(0.565439 -0.245444 1.21986e-19)
(0.694804 -0.207437 9.8959e-20)
(-0.0106807 0.0181567 -1.50765e-19)
(-0.0238221 0.0390958 1.997e-19)
(-0.0315527 0.0482521 -2.03713e-19)
(-0.0346323 0.0480615 3.2723e-19)
(-0.0334057 0.0408119 -3.83048e-19)
(-0.0277666 0.0284661 3.58718e-19)
(-0.0171297 0.0124672 7.3054e-20)
(-0.000516405 -0.00630533 -3.96052e-19)
(0.0232967 -0.027444 3.39774e-19)
(0.0556586 -0.0507957 -3.71466e-19)
(0.0978977 -0.0762201 4.66682e-19)
(0.151089 -0.103392 2.52176e-19)
(0.215771 -0.131529 2.03358e-19)
(0.291589 -0.159274 -3.01841e-19)
(0.37668 -0.184643 -4.50456e-20)
(0.46827 -0.204458 -3.48941e-19)
(0.558216 -0.21908 2.04628e-19)
(0.654236 -0.215613 -7.63357e-21)
(0.708905 -0.21735 -2.82813e-19)
(0.833447 -0.178449 9.17216e-20)
(-0.0112667 0.0178643 3.40243e-20)
(-0.0247684 0.0392167 1.28409e-19)
(-0.0315021 0.0494781 2.81869e-20)
(-0.032313 0.0505886 1.10339e-19)
(-0.0275516 0.0445499 2.65221e-19)
(-0.0170954 0.0331842 2.53813e-19)
(-0.000336182 0.0179072 1.82184e-19)
(0.023755 -0.000344351 2.30679e-19)
(0.0564951 -0.0210559 -4.75489e-19)
(0.0993141 -0.0439287 -7.0996e-20)
(0.153565 -0.0686902 -7.71189e-19)
(0.220204 -0.0948588 -2.41236e-19)
(0.299376 -0.121507 -2.70564e-19)
(0.389903 -0.147133 4.40132e-19)
(0.488675 -0.169716 -6.53905e-19)
(0.591169 -0.186135 1.25958e-19)
(0.688758 -0.196869 4.20848e-20)
(0.784565 -0.190987 4.71074e-19)
(0.841571 -0.188972 -1.9741e-19)
(0.950282 -0.1509 1.2463e-19)
(-0.0116168 0.0171627 4.56257e-19)
(-0.0251641 0.0382289 1.65153e-19)
(-0.0306919 0.0490217 3.04731e-19)
(-0.0290274 0.0510066 2.80305e-19)
(-0.0204637 0.0458962 4.83023e-20)
(-0.00481924 0.0353534 -6.14306e-19)
(0.0185659 0.0207413 -4.57819e-19)
(0.0507843 0.00303243 -4.22921e-19)
(0.093226 -0.0171508 4.03492e-19)
(0.147367 -0.0393769 2.46536e-19)
(0.21448 -0.0632107 8.818e-19)
(0.295204 -0.0879935 -7.20343e-19)
(0.388969 -0.112638 2.67518e-19)
(0.493351 -0.135532 -4.91323e-19)
(0.603598 -0.154667 3.50689e-19)
(0.713143 -0.167393 -1.26364e-19)
(0.813328 -0.173824 1.4208e-19)
(0.902826 -0.166349 -4.25425e-19)
(0.957513 -0.160977 3.28284e-19)
(1.04323 -0.125225 1.22193e-19)
(-0.0117326 0.0161373 -6.32148e-19)
(-0.0249729 0.0362894 2.60598e-19)
(-0.0290351 0.0470462 -4.15291e-19)
(-0.0246343 0.0494531 -3.954e-19)
(-0.011945 0.0449537 1.44796e-19)
(0.00931611 0.0350501 7.36287e-19)
(0.0398932 0.0210389 -5.46523e-19)
(0.0809535 0.00391867 6.88128e-20)
(0.133937 -0.0155888 -1.60648e-19)
(0.200283 -0.0369071 -1.59099e-19)
(0.281022 -0.0594237 4.13647e-19)
(0.376179 -0.0822947 9.08758e-19)
(0.484039 -0.104287 -3.48747e-20)
(0.600453 -0.123777 7.61622e-20)
(0.718713 -0.138885 -2.6225e-20)
(0.830411 -0.147766 -4.28184e-19)
(0.927252 -0.150071 3.99071e-19)
(1.00539 -0.141813 5.40395e-19)
(1.05295 -0.133993 1.19284e-19)
(1.11298 -0.10189 -2.25998e-19)
(-0.0116257 0.0148744 -1.64289e-19)
(-0.0241705 0.0335728 5.33844e-19)
(-0.0264397 0.0437582 -1.74142e-20)
(-0.0189591 0.0461349 3.81418e-19)
(-0.00172968 0.0419175 1.80586e-19)
(0.0256766 0.0324616 1.76305e-19)
(0.0641133 0.019003 -2.21908e-19)
(0.114828 0.0025606 3.84592e-19)
(0.179261 -0.0160431 6.90922e-20)
(0.25868 -0.0360773 -2.37204e-19)
(0.353611 -0.0567476 -1.38906e-19)
(0.463052 -0.0770454 -6.23005e-19)
(0.583628 -0.095667 -6.15602e-19)
(0.709054 -0.111135 1.40274e-19)
(0.830653 -0.121905 -5.48518e-20)
(0.938942 -0.127068 -1.78981e-19)
(1.02665 -0.125972 -5.19726e-19)
(1.08996 -0.117821 -5.54308e-19)
(1.12686 -0.108483 -5.46171e-19)
(1.16218 -0.0811437 5.36757e-20)
(-0.0113123 0.0134546 3.36876e-20)
(-0.0227342 0.0302563 -4.82466e-19)
(-0.022797 0.0393902 -4.57303e-19)
(-0.0117819 0.0413138 -3.08872e-19)
(0.0105266 0.0370681 5.60295e-19)
(0.0447403 0.0278955 -1.2218e-18)
(0.0918423 0.0149816 2.53471e-19)
(0.153134 -0.000624456 -1.46597e-19)
(0.229961 -0.0179927 4.28493e-19)
(0.3232 -0.0362379 5.3046e-20)
(0.432492 -0.0544047 -6.68556e-19)
(0.555288 -0.0713923 2.90628e-19)
(0.686052 -0.0859742 8.84211e-20)
(0.816222 -0.0970273 2.7042e-19)
(0.935657 -0.103552 -2.74507e-19)
(1.03506 -0.105499 4.53851e-19)
(1.1091 -0.102106 -1.71649e-19)
(1.15607 -0.0948887 8.91189e-20)
(1.18074 -0.0846123 -4.83951e-20)
(1.1946 -0.0631755 -1.60937e-19)
(-0.0108067 0.0119454 5.33753e-19)
(-0.0206316 0.0265053 -1.00939e-19)
(-0.0179701 0.0341841 -6.44416e-20)
(-0.00282913 0.035292 3.70665e-19)
(0.0252546 0.0307625 -1.91783e-19)
(0.0670955 0.0217645 1.10222e-18)
(0.123809 0.00945906 5.31554e-20)
(0.196685 -0.00505398 3.50061e-19)
(0.286799 -0.0207372 -5.92731e-19)
(0.394303 -0.0365699 -4.5573e-19)
(0.517456 -0.0515019 6.75816e-19)
(0.651613 -0.0644799 -5.46127e-19)
(0.788776 -0.0745674 4.40604e-19)
(0.918455 -0.0811916 -6.84674e-20)
(1.03014 -0.084015 1.21835e-18)
(1.11615 -0.0835756 -2.08559e-20)
(1.17401 -0.0791405 3.67792e-19)
(1.20514 -0.0733222 4.69819e-19)
(1.21767 -0.0624627 2.51156e-19)
(1.21471 -0.0484634 3.30494e-19)
(-0.0101138 0.0103969 2.57605e-19)
(-0.0178082 0.0224626 -5.80184e-19)
(-0.0117854 0.0283765 1.95765e-19)
(0.00822644 0.0283947 3.2201e-19)
(0.0429505 0.0234105 2.74393e-19)
(0.0934063 0.0145684 -7.99421e-19)
(0.160795 0.00304169 3.65023e-19)
(0.246268 -0.0100074 1.69078e-19)
(0.350349 -0.0234433 7.37272e-20)
(0.472017 -0.0361656 3.07793e-19)
(0.607583 -0.0471566 -1.78837e-19)
(0.749879 -0.0556155 5.56693e-19)
(0.88858 -0.0611206 -4.5147e-19)
(1.01221 -0.0637563 -4.43345e-19)
(1.11135 -0.0637775 -7.32871e-19)
(1.18121 -0.0619557 -2.24588e-19)
(1.22252 -0.0576057 -4.31687e-19)
(1.23978 -0.053166 -4.26485e-19)
(1.24153 -0.0427132 -3.4266e-19)
(1.22644 -0.0394913 -1.71532e-19)
(-0.00922304 0.00884027 3.91048e-19)
(-0.0141785 0.0182423 -1.00745e-19)
(-0.00402804 0.0221872 -2.71088e-19)
(0.0217582 0.0209542 -8.85416e-19)
(0.0641534 0.0154601 -7.22728e-20)
(0.124348 0.00687617 9.54846e-19)
(0.203529 -0.00357983 -2.19136e-19)
(0.302482 -0.014678 1.88815e-19)
(0.42079 -0.0252235 4.55131e-19)
(0.555711 -0.0341441 1.36173e-19)
(0.7011 -0.0406456 -8.85732e-19)
(0.847187 -0.0444126 -2.1482e-19)
(0.982031 -0.0456918 -1.45137e-19)
(1.09459 -0.0451725 4.15371e-19)
(1.17793 -0.043461 1.12674e-18)
(1.23078 -0.0412364 -3.34751e-19)
(1.25694 -0.0377336 -1.99579e-19)
(1.26289 -0.0345305 4.84501e-19)
(1.25599 -0.0267303 2.37672e-19)
(1.24069 -0.024185 8.63614e-20)
(-0.00810467 0.00728866 -4.18995e-19)
(-0.00962057 0.0139296 3.09591e-19)
(0.00555504 0.0158131 -6.33019e-19)
(0.0381684 0.013296 7.22984e-20)
(0.0894032 0.00737283 4.50456e-19)
(0.160538 -0.000713026 -9.64492e-19)
(0.252566 -0.00967809 -1.02316e-18)
(0.365577 -0.0182425 1.83456e-20)
(0.497715 -0.0252346 -6.2146e-19)
(0.643969 -0.0297776 -4.4069e-19)
(0.795472 -0.0315323 7.02781e-19)
(0.940285 -0.0308569 1.10096e-18)
(1.06611 -0.0286715 -4.20171e-19)
(1.16383 -0.0260538 -2.59323e-19)
(1.22997 -0.0236465 -6.24121e-19)
(1.26668 -0.021798 4.17582e-20)
(1.28004 -0.0194988 -1.96542e-20)
(1.27725 -0.017825 -2.26625e-20)
(1.2655 -0.0119822 4.56508e-20)
(1.24843 -0.01165 5.54486e-19)
(-0.00670822 0.00574165 4.16688e-19)
(-0.00397776 0.00958519 4.60912e-19)
(0.0172457 0.00942758 6.13464e-19)
(0.0578625 0.00573038 2.46482e-19)
(0.119191 -0.000394992 -3.38206e-19)
(0.202453 -0.00760161 -2.37433e-19)
(0.308175 -0.01454 -3.15896e-20)
(0.435315 -0.0199358 3.50358e-19)
(0.580038 -0.0227766 3.27079e-19)
(0.734651 -0.0225972 2.11874e-19)
(0.887714 -0.0197283 -3.09274e-20)
(1.02612 -0.0152671 -5.26852e-19)
(1.13872 -0.0106393 4.16679e-19)
(1.21953 -0.00700012 -5.7187e-20)
(1.26873 -0.00475024 1.74585e-19)
(1.2913 -0.00377382 7.3164e-20)
(1.29456 -0.0028665 -4.6478e-20)
(1.28571 -0.00257726 1.34716e-19)
(1.27074 0.00127583 -8.26545e-20)
(1.25301 -0.000119946 -5.77328e-19)
(-0.00496437 0.00419124 2.14298e-19)
(0.00293587 0.00525508 -8.28002e-19)
(0.0313392 0.00318632 4.07401e-19)
(0.0812186 -0.00145027 1.728e-19)
(0.153907 -0.00740616 -5.12385e-19)
(0.250349 -0.0132217 5.08277e-19)
(0.370242 -0.0175144 2.90875e-19)
(0.510904 -0.019119 -6.95594e-19)
(0.666023 -0.0173716 8.48614e-20)
(0.825122 -0.0124453 -1.32123e-19)
(0.974854 -0.00546728 3.1358e-19)
(1.10234 0.001827 -2.40488e-19)
(1.19895 0.00780029 -3.5243e-19)
(1.26241 0.011524 5.15976e-19)
(1.29619 0.0130177 -2.36929e-19)
(1.30715 0.01286 9.87156e-20)
(1.30292 0.0123951 -2.0428e-19)
(1.29005 0.0114127 2.81713e-21)
(1.27337 0.0135386 -1.66535e-19)
(1.25569 0.0109763 1.58763e-19)
(-0.00278944 0.00262887 -5.5463e-20)
(0.0113241 0.000982496 -2.42077e-19)
(0.0481247 -0.00276266 -2.78495e-19)
(0.108556 -0.00796687 1.60176e-19)
(0.193794 -0.0132484 -4.78929e-20)
(0.304212 -0.0170555 3.06757e-19)
(0.438228 -0.018049 2.21095e-19)
(0.591007 -0.0153297 2.15165e-19)
(0.75345 -0.00880382 6.96946e-20)
(0.912615 0.00053846 1.87064e-19)
(1.05439 0.0107918 3.08774e-19)
(1.16757 0.0198328 6.42288e-20)
(1.24698 0.0261412 -1.52342e-19)
(1.294 0.0292374 1.1633e-19)
(1.31458 0.0296197 3.60568e-19)
(1.31649 0.0282514 -6.24726e-19)
(1.307 0.026511 1.8391e-19)
(1.29168 0.0244245 2.07813e-19)
(1.2742 0.0250594 6.01889e-20)
(1.2567 0.0214564 1.18412e-19)
(-9.14326e-05 0.00105225 -8.55548e-20)
(0.0213946 -0.00317885 5.28647e-19)
(0.0678642 -0.00826528 1.85937e-19)
(0.140106 -0.0135452 -5.74837e-19)
(0.238913 -0.0175347 -1.57443e-19)
(0.363719 -0.0186482 3.00089e-19)
(0.511173 -0.0157161 1.46579e-19)
(0.673854 -0.00830823 5.18168e-19)
(0.839878 0.00288585 -1.9322e-20)
(0.99462 0.0159879 2.32844e-20)
(1.12459 0.0284915 -2.66787e-19)
(1.22145 0.0382146 -4.08914e-19)
(1.28382 0.0440336 -4.09055e-20)
(1.31614 0.0460282 -2.49399e-19)
(1.32597 0.04514 2.02791e-19)
(1.32117 0.0425934 9.49335e-19)
(1.30818 0.0397127 3.56003e-19)
(1.29148 0.0366712 -3.32288e-19)
(1.27377 0.0359732 -1.5871e-19)
(1.25666 0.0315634 6.01714e-20)
(0.00322328 -0.000529075 4.13223e-19)
(0.0333445 -0.00715338 -6.37515e-19)
(0.0907719 -0.0131489 -6.12834e-19)
(0.175988 -0.0179061 8.4427e-19)
(0.289121 -0.0199007 2.55542e-19)
(0.428241 -0.0176152 -1.59222e-19)
(0.587755 -0.0102263 -4.71244e-19)
(0.757411 0.00200184 -5.88378e-19)
(0.922935 0.0174443 3.94187e-19)
(1.06917 0.0334099 6.84076e-20)
(1.18459 0.0470866 2.08609e-19)
(1.26444 0.0565599 1.70438e-19)
(1.31092 0.0612864 -6.74099e-21)
(1.33076 0.0619125 -1.11073e-19)
(1.3322 0.0597276 -2.16848e-19)
(1.32261 0.0560881 -5.65934e-19)
(1.30741 0.0521975 -2.11475e-19)
(1.29005 0.0483117 6.95427e-19)
(1.27241 0.0464181 1.09161e-19)
(1.25568 0.0413005 -1.55478e-19)
(0.00724364 -0.00209014 -4.27971e-19)
(0.0473455 -0.0108355 4.45409e-19)
(0.116996 -0.0172127 1.27639e-20)
(0.216189 -0.0207587 -1.90942e-19)
(0.34406 -0.0200045 -6.44988e-20)
(0.496866 -0.0136496 -5.45764e-20)
(0.666388 -0.00143382 -3.40639e-19)
(0.839584 0.0154751 4.1794e-19)
(1.00058 0.0344758 -6.93462e-19)
(1.135 0.0522804 4.83338e-22)
(1.23431 0.0661166 -1.26216e-19)
(1.29756 0.0745976 -6.34685e-20)
(1.32992 0.0778391 1.37272e-19)
(1.33955 0.0769858 -3.00001e-19)
(1.33468 0.0735539 -1.5745e-20)
(1.32181 0.0689182 1.57164e-19)
(1.30531 0.0641238 -3.78665e-19)
(1.28772 0.0594703 -1.54723e-21)
(1.2703 0.0564689 6.81593e-22)
(1.25396 0.0507328 2.77923e-19)
(0.0120484 -0.00358904 6.11792e-20)
(0.0635313 -0.0140859 1.2146e-19)
(0.146601 -0.0202239 2.41116e-19)
(0.260554 -0.0217994 -1.31174e-19)
(0.403162 -0.0175315 -4.32276e-19)
(0.568448 -0.00653019 1.12666e-19)
(0.745351 0.0106676 2.61455e-19)
(0.918423 0.0318438 1.41525e-19)
(1.07127 0.0535162 4.85029e-19)
(1.19152 0.072116 -1.32104e-19)
(1.27427 0.0852361 -7.9175e-20)
(1.3221 0.0921838 6.56347e-20)
(1.3424 0.0937221 -1.88148e-19)
(1.34397 0.0913817 -2.56965e-19)
(1.3345 0.0867841 -1.63144e-19)
(1.31947 0.081236 1.33734e-19)
(1.30226 0.0756136 3.19594e-19)
(1.28469 0.0702334 -1.51925e-19)
(1.26757 0.0661906 -2.28734e-19)
(1.25157 0.0598901 3.438e-20)
(0.0177018 -0.00496733 1.07687e-19)
(0.0819865 -0.0167325 2.57815e-20)
(0.179559 -0.02192 -3.2124e-19)
(0.308775 -0.0207185 4.29801e-19)
(0.465665 -0.0122057 9.75178e-20)
(0.641673 0.0038702 -5.10198e-19)
(0.822922 0.0259577 1.96943e-19)
(0.992274 0.0507458 -2.59678e-19)
(1.13402 0.0740968 1.23102e-20)
(1.23876 0.0925141 4.17316e-20)
(1.30537 0.104216 1.21415e-19)
(1.33944 0.109273 1.31362e-20)
(1.34978 0.109019 5.25663e-19)
(1.34516 0.105241 2.03888e-19)
(1.33242 0.0995608 -9.61469e-20)
(1.31603 0.0931606 -1.08637e-19)
(1.29849 0.086756 5.98593e-20)
(1.28107 0.0806651 6.15514e-20)
(1.26427 0.0756267 -9.97626e-20)
(1.24858 0.0687985 -1.0593e-19)
(0.0242499 -0.00615184 -1.26164e-19)
(0.102737 -0.0185753 8.77164e-21)
(0.215732 -0.0220178 6.57243e-20)
(0.36039 -0.0172137 -1.80682e-19)
(0.530642 -0.00380509 3.49188e-19)
(0.71514 0.0175789 2.02393e-19)
(0.897507 0.0442116 -2.04335e-19)
(1.05988 0.0717735 -1.35825e-19)
(1.18837 0.0957883 1.23043e-19)
(1.27716 0.113168 -1.9144e-19)
(1.3287 0.122926 1.40105e-19)
(1.35089 0.125887 -3.35791e-21)
(1.35321 0.123838 4.13028e-21)
(1.34395 0.118694 -1.01476e-19)
(1.32897 0.111998 2.86521e-19)
(1.31176 0.10478 -2.33958e-20)
(1.29413 0.0976143 1.15779e-19)
(1.27694 0.0908092 -1.6452e-19)
(1.26045 0.0848094 1.22191e-19)
(1.24504 0.0774761 -4.98145e-20)
(0.0317178 -0.00705744 2.06389e-19)
(0.125745 -0.0193946 2.51538e-19)
(0.254876 -0.0202265 1.87661e-19)
(0.414799 -0.0110082 -2.71185e-20)
(0.597043 0.0078221 3.86633e-20)
(0.787452 0.0345243 3.11581e-21)
(0.967737 0.0651288 4.41541e-19)
(1.1204 0.0945141 -1.30456e-19)
(1.23432 0.118226 9.18134e-20)
(1.30745 0.13386 -4.60753e-19)
(1.34539 0.141313 6.62708e-20)
(1.35758 0.142086 1.98927e-19)
(1.35361 0.138285 -9.04158e-20)
(1.34097 0.131847 1.83995e-19)
(1.32449 0.124181 -2.34839e-19)
(1.30682 0.116155 3.16921e-19)
(1.28924 0.108231 1.06102e-20)
(1.2723 0.100696 -1.01571e-19)
(1.25613 0.0937613 3.60987e-21)
(1.24098 0.0859339 1.45334e-19)
(0.040107 -0.00759044 -3.8911e-19)
(0.1509 -0.018961 9.95479e-20)
(0.296634 -0.0162643 -3.94651e-20)
(0.471273 -0.00186906 -2.90176e-19)
(0.663744 0.0227457 -1.0844e-19)
(0.857291 0.0545449 -2.07058e-19)
(1.03253 0.0883626 -1.80489e-19)
(1.17339 0.118579 -1.93386e-19)
(1.27216 0.141115 1.99013e-19)
(1.3305 0.154453 9.83754e-20)
(1.35649 0.159374 -2.85157e-19)
(1.36048 0.157942 -7.04899e-20)
(1.35168 0.152456 -3.32428e-20)
(1.33662 0.144782 -1.38517e-19)
(1.31918 0.136167 -2.32643e-20)
(1.3013 0.127326 -5.55666e-20)
(1.28386 0.118631 -2.22321e-19)
(1.26719 0.110343 1.0554e-19)
(1.25133 0.102497 1.28233e-19)
(1.23643 0.0941779 -3.15768e-20)
(0.0493933 -0.00765236 1.38703e-20)
(0.178023 -0.0170465 -1.81601e-19)
(0.340545 -0.00987428 8.54749e-20)
(0.528986 0.0103753 -6.03147e-20)
(0.729608 0.0409474 7.44634e-20)
(0.923489 0.0774041 3.41005e-19)
(1.0911 0.113548 -1.47335e-19)
(1.21874 0.143621 3.66719e-19)
(1.30244 0.164232 1.77929e-20)
(1.34719 0.174866 1.81577e-19)
(1.36296 0.177133 1.57977e-20)
(1.36036 0.17353 1.24324e-19)
(1.34793 0.166425 2.55846e-20)
(1.33118 0.157555 1.23158e-20)
(1.31315 0.147991 -1.80596e-19)
(1.29523 0.138314 3.16989e-20)
(1.27798 0.128829 1.61574e-19)
(1.26159 0.119762 7.61221e-21)
(1.24604 0.111023 -7.61883e-20)
(1.23139 0.102209 3.10052e-20)
(0.0595257 -0.0071439 4.70382e-20)
(0.206862 -0.0134359 1.46391e-19)
(0.386057 -0.000840796 1.60395e-19)
(0.587048 0.0258228 -4.51201e-20)
(0.793538 0.0623231 2.11311e-19)
(0.985072 0.10281 -4.28666e-20)
(1.14296 0.140323 3.46745e-19)
(1.2566 0.169341 -4.40492e-19)
(1.3258 0.187409 -7.76555e-20)
(1.35841 0.195058 -7.80304e-20)
(1.36558 0.194628 -9.4077e-20)
(1.3578 0.188911 -2.25473e-20)
(1.3427 0.180244 3.19107e-20)
(1.32482 0.170196 -1.17051e-19)
(1.30647 0.159668 1.20222e-19)
(1.28861 0.149128 -5.21002e-20)
(1.27161 0.138828 -3.98629e-20)
(1.25551 0.128954 -3.6587e-20)
(1.24029 0.119341 -2.30352e-20)
(1.22589 0.110024 -7.16036e-20)
(0.0704259 -0.00596914 2.22075e-19)
(0.237098 -0.00793766 -2.24601e-19)
(0.432543 0.0109978 2.70313e-20)
(0.644541 0.0444907 -3.01089e-20)
(0.854521 0.08669 -7.66545e-20)
(1.04128 0.130433 -1.57914e-19)
(1.18789 0.168341 -2.46094e-20)
(1.2873 0.195486 1.06499e-19)
(1.34294 0.210524 4.94378e-20)
(1.3649 0.215013 -5.95629e-20)
(1.36503 0.211895 6.72336e-20)
(1.35325 0.204127 -1.48113e-20)
(1.33623 0.193941 -1.34501e-19)
(1.31763 0.182718 1.96803e-19)
(1.29916 0.1712 5.47015e-20)
(1.28146 0.159762 -2.90787e-20)
(1.26473 0.14862 3.57001e-20)
(1.24895 0.137916 5.43084e-20)
(1.23407 0.127448 5.31282e-20)
(1.21994 0.117615 5.56356e-20)
(0.0819884 -0.00403961 -2.30666e-19)
(0.268357 -0.0003937 1.86304e-19)
(0.479323 0.0257387 8.22098e-20)
(0.70056 0.0663135 -1.70126e-19)
(0.91167 0.113799 -3.6751e-20)
(1.09156 0.159925 -1.43156e-19)
(1.22585 0.19728 5.72232e-20)
(1.31128 0.221843 -9.52193e-20)
(1.35452 0.233487 7.51647e-21)
(1.36736 0.234722 1.55777e-20)
(1.36179 0.228958 2.93378e-20)
(1.347 0.219201 -1.12348e-19)
(1.32866 0.207523 1.15597e-19)
(1.30967 0.195112 -8.26487e-20)
(1.29122 0.182573 -2.27049e-20)
(1.27375 0.170205 1.08101e-20)
(1.25733 0.158195 -2.47789e-20)
(1.24191 0.146638 -5.75253e-20)
(1.22739 0.135335 -2.499e-21)
(1.21353 0.124971 -3.8691e-20)
(0.0940827 -0.00127843 -2.83133e-20)
(0.300212 0.00931177 -8.74029e-20)
(0.525688 0.0434087 -3.02791e-20)
(0.754242 0.0911466 4.89227e-20)
(0.964239 0.143346 -3.01647e-20)
(1.13556 0.19093 3.12708e-20)
(1.25698 0.226846 7.40053e-20)
(1.32904 0.248236 6.60351e-20)
(1.36118 0.256227 5.25584e-20)
(1.36634 0.254178 -1.17147e-20)
(1.35628 0.245828 -3.12974e-20)
(1.33928 0.234135 3.7149e-20)
(1.3201 0.220977 -1.8381e-20)
(1.30094 0.207358 2.33661e-20)
(1.28264 0.193765 -1.42192e-20)
(1.26546 0.180434 3.06686e-20)
(1.2494 0.167533 -8.46857e-21)
(1.23437 0.155106 3.58372e-20)
(1.22025 0.142988 -8.7225e-21)
(1.2067 0.132075 5.27665e-21)
(0.106556 0.00237609 -6.43369e-22)
(0.332204 0.0212457 -4.62168e-22)
(0.570924 0.0639609 -1.05469e-20)
(0.804795 0.118773 5.29495e-20)
(1.01164 0.174991 3.43692e-20)
(1.1731 0.223092 -2.65396e-20)
(1.28154 0.256768 -2.00739e-20)
(1.34108 0.274509 -6.21948e-21)
(1.36347 0.278681 -2.94198e-20)
(1.36229 0.273365 -1.741e-21)
(1.34877 0.262495 1.29935e-21)
(1.33024 0.248909 -1.29956e-20)
(1.31057 0.234273 -8.43523e-21)
(1.29144 0.219423 -1.92843e-20)
(1.27341 0.204742 -2.07095e-20)
(1.25659 0.190422 -1.78358e-21)
(1.24094 0.176608 7.70455e-21)
(1.22634 0.163302 8.30214e-21)
(1.21266 0.150388 9.58883e-21)
(1.19944 0.138909 1.36308e-20)
(0.119237 0.00696711 3.4061e-20)
(0.36385 0.0354217 -5.49348e-21)
(0.614338 0.0872756 -9.71088e-21)
(0.851521 0.148913 2.49242e-20)
(1.05342 0.208363 5.00892e-20)
(1.20415 0.256066 -2.22131e-20)
(1.29982 0.286797 -1.80682e-20)
(1.3479 0.300526 -3.38441e-20)
(1.3619 0.300789 -3.03992e-20)
(1.35559 0.292253 5.7941e-21)
(1.33949 0.278933 -5.24185e-21)
(1.31996 0.263488 -2.18451e-21)
(1.30012 0.247371 -1.23456e-20)
(1.28118 0.231263 -1.9876e-20)
(1.26351 0.215467 -4.42751e-21)
(1.24711 0.200135 -1.58974e-21)
(1.23193 0.185394 -6.02538e-22)
(1.21782 0.1712 4.04245e-21)
(1.20461 0.157507 1.53001e-20)
(1.19178 0.145449 1.22654e-20)
(0.13194 0.0125168 -2.07827e-20)
(0.39466 0.0517974 -3.30776e-20)
(0.655273 0.113164 -4.42851e-20)
(0.893829 0.181234 5.91135e-20)
(1.08928 0.243076 5.62331e-20)
(1.22876 0.289516 6.32488e-22)
(1.3122 0.316706 2.1027e-20)
(1.34996 0.326157 5.84849e-20)
(1.35686 0.322485 6.36244e-20)
(1.34652 0.3108 4.0678e-20)
(1.32858 0.295096 -9.92759e-20)
(1.3085 0.27782 4.12335e-20)
(1.28874 0.260213 -1.82373e-20)
(1.27014 0.242828 4.28724e-20)
(1.25292 0.225893 -1.07839e-21)
(1.23703 0.209535 -7.03802e-21)
(1.22238 0.193858 4.01733e-21)
(1.2088 0.178775 3.62439e-20)
(1.19612 0.164319 -1.43324e-20)
(1.18371 0.151674 -1.06492e-21)
(0.144471 0.0190244 -6.70707e-20)
(0.424154 0.0702745 1.58739e-19)
(0.693133 0.141374 1.56654e-20)
(0.931236 0.215361 -2.02512e-19)
(1.11904 0.278732 -3.66608e-20)
(1.24711 0.323116 8.56767e-20)
(1.31903 0.346277 -1.96141e-19)
(1.34769 0.351278 -1.52669e-21)
(1.3487 0.343693 1.622e-20)
(1.33529 0.328945 -4.58968e-21)
(1.31616 0.310923 5.21793e-20)
(1.2959 0.29184 -8.43436e-20)
(1.27643 0.272739 1.29928e-20)
(1.25831 0.254059 -2.96933e-20)
(1.24164 0.235971 -2.27773e-20)
(1.22633 0.218579 2.19699e-20)
(1.21227 0.201964 -2.19321e-21)
(1.1993 0.185999 -5.65968e-20)
(1.18718 0.170801 2.19561e-21)
(1.17521 0.157563 -2.5112e-20)
(0.156632 0.0264656 5.06996e-20)
(0.451871 0.0907007 -9.01694e-20)
(0.727389 0.171598 -7.26658e-21)
(0.963374 0.250888 -1.70564e-19)
(1.14264 0.314933 -1.0232e-19)
(1.25939 0.356556 8.4064e-20)
(1.3207 0.375305 -9.64735e-20)
(1.34146 0.375762 1.05547e-20)
(1.33773 0.36433 7.71101e-20)
(1.32209 0.346614 -2.17392e-20)
(1.30231 0.326339 8.25546e-21)