/*--------------------------------*- C++ -*----------------------------------*\
  =========                 |
  \\      /  F ield         | OpenFOAM: The Open Source CFD Toolbox
   \\    /   O peration     | Website:  https://openfoam.org
    \\  /    A nd           | Version:  7
     \\/     M anipulation  |
\*---------------------------------------------------------------------------*/
FoamFile
{
    version     2.0;
    format      ascii;
    class       volVectorField;
    location    "50.999592";
    object      U;
}
// * * * * * * * * * * * * * * * * * * * * * * * * * * * * * * * * * * * * * //

dimensions      [0 1 -1 0 0 0 0];

internalField   nonuniform List<vector> 
5800
(
(-0.172997 0.00143581 -4.61941e-22)
(-0.166321 0.0042406 -1.40867e-20)
(-0.152906 0.00671565 2.10551e-20)
(-0.132598 0.00866935 6.9242e-21)
(-0.105072 0.00998209 -1.76738e-20)
(-0.176717 0.00172352 2.73829e-21)
(-0.179714 0.00172672 2.61631e-21)
(-0.182678 0.00165719 -4.86802e-21)
(-0.185535 0.00157019 2.34274e-21)
(-0.18828 0.00147828 -1.37967e-21)
(-0.1909 0.00138668 -4.92297e-22)
(-0.193389 0.00129813 2.79349e-21)
(-0.195748 0.00121369 -4.09403e-21)
(-0.197976 0.00113364 1.7903e-21)
(-0.200073 0.00105791 1.70399e-21)
(-0.202038 0.000986222 -3.5646e-21)
(-0.203874 0.000918186 -1.01529e-22)
(-0.205577 0.00085332 2.95207e-21)
(-0.207147 0.000791089 -2.28086e-22)
(-0.208581 0.000730918 -1.27161e-21)
(-0.209875 0.00067221 1.1214e-21)
(-0.211026 0.000614368 -5.46805e-22)
(-0.212027 0.000556828 7.47469e-22)
(-0.212873 0.000499127 -5.55987e-22)
(-0.213557 0.000440643 -3.84511e-22)
(-0.214072 0.000379225 1.6738e-21)
(-0.214415 0.000312416 -4.84451e-22)
(-0.214581 0.000246164 -1.13798e-21)
(-0.214562 0.000180921 7.59534e-22)
(-0.214349 0.000107283 2.56899e-22)
(-0.213932 2.74001e-05 -9.63319e-22)
(-0.213295 -5.87985e-05 1.13059e-21)
(-0.212421 -0.000151905 -9.35771e-22)
(-0.211295 -0.000252604 -6.75565e-22)
(-0.209897 -0.000361541 1.94066e-21)
(-0.208208 -0.000479248 -1.36524e-21)
(-0.206205 -0.000606096 -2.49402e-22)
(-0.203865 -0.000742252 2.79707e-22)
(-0.201161 -0.000887654 4.61125e-24)
(-0.198067 -0.00104164 7.64194e-22)
(-0.194552 -0.00120388 -1.02257e-21)
(-0.190586 -0.00137346 8.60723e-22)
(-0.186137 -0.00154913 -9.96262e-24)
(-0.18117 -0.00172923 -5.61934e-23)
(-0.17565 -0.00191173 -1.01804e-22)
(-0.169541 -0.00209424 6.25603e-22)
(-0.162808 -0.00227401 -1.6459e-23)
(-0.155414 -0.00244847 -2.60227e-22)
(-0.147328 -0.00261301 -1.21836e-22)
(-0.13852 -0.00276556 6.93166e-23)
(-0.128958 -0.00290267 -3.64455e-22)
(-0.11862 -0.00302133 4.5954e-22)
(-0.10748 -0.00311914 -1.18939e-22)
(-0.0955246 -0.00319341 2.5116e-22)
(-0.0827484 -0.00324303 -8.1991e-23)
(-0.0691436 -0.00326768 7.81713e-24)
(-0.0547162 -0.00326751 3.24973e-23)
(-0.0394774 -0.00324426 -1.45349e-22)
(-0.0234479 -0.00320032 1.6327e-22)
(-0.00665204 -0.00313938 -1.40053e-22)
(0.0108736 -0.00306502 1.23158e-23)
(0.0290878 -0.00298437 8.46145e-23)
(0.047951 -0.00290067 -3.70163e-24)
(0.067387 -0.00282254 -3.18999e-23)
(0.0874094 -0.00275138 -1.60103e-23)
(0.107798 -0.0026998 -7.37297e-24)
(0.128868 -0.00265821 1.82488e-23)
(0.149768 -0.00265773 -1.44603e-23)
(0.172091 -0.00264713 -9.12738e-24)
(0.192561 -0.00272775 2.83209e-24)
(0.217277 -0.00272374 -6.87105e-24)
(0.235082 -0.00292639 1.68679e-24)
(0.265471 -0.00289608 1.07412e-25)
(0.275855 -0.00323123 2.17119e-25)
(0.318954 -0.00335009 -5.76771e-25)
(-0.16946 0.00512008 -1.02384e-21)
(-0.172389 0.00512838 -1.82674e-21)
(-0.175251 0.00491578 -1.74365e-21)
(-0.177995 0.00464763 2.52007e-22)
(-0.180634 0.00436106 -1.25978e-21)
(-0.183155 0.0040724 1.01831e-20)
(-0.185548 0.00379044 -7.42178e-21)
(-0.187814 0.00351863 5.5462e-21)
(-0.18995 0.00325797 -4.20909e-21)
(-0.191957 0.00300835 -2.85176e-21)
(-0.193835 0.00276907 2.93905e-21)
(-0.195583 0.00253909 2.95879e-21)
(-0.1972 0.00231714 -6.55386e-21)
(-0.198684 0.00210185 1.50822e-21)
(-0.200032 0.0018918 -2.76793e-21)
(-0.201241 0.00168554 2.85627e-21)
(-0.202305 0.00148175 -7.08792e-22)
(-0.203219 0.0012793 5.44519e-21)
(-0.203977 0.00107738 -2.24339e-21)
(-0.204571 0.000875428 8.12489e-22)
(-0.204995 0.000672819 1.29733e-21)
(-0.205242 0.000470381 -3.92449e-21)
(-0.205309 0.000271621 4.89994e-22)
(-0.205194 6.1001e-05 -6.35479e-22)
(-0.204888 -0.000160874 -1.20994e-23)
(-0.204369 -0.000391239 4.76055e-22)
(-0.203627 -0.000631069 1.99836e-21)
(-0.202646 -0.000881753 -6.79606e-22)
(-0.201409 -0.00114469 -1.55394e-21)
(-0.199899 -0.0014212 2.94961e-21)
(-0.198095 -0.00171244 -4.98027e-21)
(-0.195976 -0.00201938 1.22911e-21)
(-0.193517 -0.00234263 4.30493e-21)
(-0.190692 -0.0026826 -2.87986e-21)
(-0.187475 -0.00303829 -1.17917e-21)
(-0.183837 -0.00340993 1.79086e-21)
(-0.179748 -0.0037969 -3.03779e-21)
(-0.175176 -0.00419783 4.35112e-21)
(-0.170088 -0.00461081 -1.84467e-21)
(-0.164448 -0.00503335 -5.42493e-22)
(-0.158223 -0.00546242 4.06468e-22)
(-0.151378 -0.00589415 -1.12547e-23)
(-0.143877 -0.00632555 2.10145e-22)
(-0.135689 -0.00674736 -7.64413e-23)
(-0.126788 -0.00715872 5.04869e-22)
(-0.117142 -0.00755362 -3.01824e-22)
(-0.10673 -0.00792687 5.50511e-22)
(-0.0955276 -0.00827467 -7.5782e-22)
(-0.0835219 -0.00858851 -1.75261e-22)
(-0.0707088 -0.00886742 -2.6926e-22)
(-0.0570813 -0.00910867 7.57793e-22)
(-0.0426458 -0.00930846 -8.83242e-22)
(-0.0274141 -0.00946712 -2.33285e-22)
(-0.0114074 -0.00958454 2.53584e-22)
(0.00535095 -0.00966304 -4.78067e-23)
(0.0228234 -0.00970336 -6.90109e-23)
(0.0409699 -0.00971458 -3.11158e-23)
(0.0597512 -0.00969553 3.09923e-23)
(0.0790911 -0.00965984 -1.45802e-22)
(0.0990068 -0.0096027 1.04923e-22)
(0.119271 -0.00954912 1.58175e-23)
(0.140215 -0.00947076 -4.44861e-24)
(0.160961 -0.00944226 3.42149e-23)
(0.183145 -0.00933418 -2.12046e-23)
(0.203429 -0.00940788 -9.37609e-25)
(0.227991 -0.00920961 -4.49306e-25)
(0.245596 -0.00952045 5.79166e-25)
(0.275774 -0.0091479 -2.23793e-25)
(0.28602 -0.00980278 5.36152e-25)
(0.328687 -0.00964079 4.90649e-24)
(-0.15492 0.00827648 4.49736e-23)
(-0.157726 0.00830975 5.64554e-21)
(-0.160391 0.00797549 1.17535e-21)
(-0.162913 0.00754494 -1.11939e-20)
(-0.165349 0.00707666 -6.99364e-21)
(-0.167676 0.00660019 6.26067e-21)
(-0.169883 0.00613211 1.4804e-20)
(-0.171967 0.00567899 -8.20144e-21)
(-0.173928 0.00524288 -3.09331e-21)
(-0.175763 0.00482382 1.75714e-21)
(-0.177473 0.0044208 3.93078e-21)
(-0.179054 0.00403223 -5.3393e-21)
(-0.180507 0.00365615 6.0193e-21)
(-0.181827 0.00329042 -5.21521e-21)
(-0.183012 0.00293278 1.04516e-20)
(-0.184057 0.00258105 -9.91682e-21)
(-0.184957 0.00223323 1.74636e-21)
(-0.185706 0.00188782 -1.36936e-20)
(-0.186295 0.00154392 4.97381e-21)
(-0.186719 0.00120145 -3.77271e-21)
(-0.186967 0.000861555 1.51819e-21)
(-0.187032 0.000525128 1.31566e-20)
(-0.186923 0.000177861 -7.10778e-21)
(-0.186631 -0.000184995 2.38486e-21)
(-0.186134 -0.000554219 -6.53555e-21)
(-0.185422 -0.000933822 5.54492e-21)
(-0.184482 -0.00132636 -7.76462e-21)
(-0.183298 -0.00173388 3.19341e-21)
(-0.181854 -0.00215837 -1.03261e-21)
(-0.180131 -0.00260171 2.45136e-21)
(-0.17811 -0.00306567 2.45323e-21)
(-0.175769 -0.00355171 3.30853e-21)
(-0.173085 -0.00406091 -2.86896e-21)
(-0.170031 -0.00459422 5.65868e-22)
(-0.166582 -0.00514989 -1.51423e-21)
(-0.162711 -0.0057288 2.91617e-21)
(-0.158387 -0.00633069 -1.6031e-21)
(-0.153581 -0.00695399 7.61847e-22)
(-0.14826 -0.00759648 -3.44408e-21)
(-0.142392 -0.00825521 7.59149e-22)
(-0.135942 -0.00892646 1.31369e-21)
(-0.128881 -0.00960522 -2.45343e-21)
(-0.121171 -0.0102885 1.85671e-21)
(-0.112786 -0.0109615 2.07979e-21)
(-0.103702 -0.0116252 -1.36051e-21)
(-0.0938883 -0.0122709 -3.81672e-22)
(-0.0833275 -0.0128911 -1.21969e-21)
(-0.0719961 -0.0134818 2.66712e-22)
(-0.0598842 -0.014027 3.90607e-22)
(-0.0469907 -0.0145267 8.28201e-22)
(-0.0333097 -0.0149763 -8.93535e-22)
(-0.0188495 -0.0153679 5.83918e-22)
(-0.00362315 -0.0157002 3.8641e-22)
(0.0123465 -0.0159696 -3.93333e-22)
(0.0290367 -0.0161797 2.57894e-23)
(0.0464075 -0.0163273 3.04124e-22)
(0.0644208 -0.0164232 -1.11525e-22)
(0.0830372 -0.0164616 6.29235e-24)
(0.102179 -0.0164626 1.59064e-22)
(0.121872 -0.0164128 -3.43955e-24)
(0.141873 -0.0163533 1.6642e-22)
(0.162547 -0.0162315 -1.2018e-22)
(0.182963 -0.0161732 -3.71538e-23)
(0.204845 -0.0159613 8.02288e-23)
(0.224732 -0.0160266 -2.68347e-23)
(0.24896 -0.015632 1.84239e-23)
(0.266139 -0.016041 7.77208e-24)
(0.295869 -0.0153411 -1.54376e-24)
(0.305826 -0.0162767 -2.03334e-24)
(0.347631 -0.0158592 -8.33584e-24)
(-0.133022 0.0110767 2.03213e-22)
(-0.135681 0.01114 -2.11955e-20)
(-0.138068 0.0107136 -4.73226e-21)
(-0.140272 0.0101517 2.40936e-20)
(-0.142414 0.00952382 -1.7161e-20)
(-0.144465 0.00887591 2.94301e-21)
(-0.146408 0.00823471 1.0558e-20)
(-0.148237 0.00761094 -8.8197e-21)
(-0.149951 0.00700828 -8.44343e-21)
(-0.151547 0.00642732 1.39998e-20)
(-0.153021 0.00586696 4.55043e-21)
(-0.154372 0.00532523 -5.21873e-21)
(-0.155596 0.00479962 -5.32265e-21)
(-0.15669 0.00428732 3.674e-22)
(-0.157649 0.00378533 1.20919e-20)
(-0.158468 0.00329064 -6.03451e-21)
(-0.159141 0.00280048 -5.88569e-22)
(-0.15966 0.00231258 -6.60333e-21)
(-0.160016 0.00182545 -4.45385e-22)
(-0.160201 0.00133955 2.69651e-21)
(-0.160206 0.000860024 6.65644e-21)
(-0.160034 0.000388374 -7.3195e-21)
(-0.159684 -0.000108667 6.25062e-21)
(-0.159136 -0.000613769 -3.51765e-21)
(-0.158379 -0.0011296 -1.6546e-21)
(-0.1574 -0.00165935 -7.87329e-22)
(-0.156186 -0.00220539 4.34737e-21)
(-0.154722 -0.00277026 4.79479e-21)
(-0.15299 -0.00335652 -9.11809e-21)
(-0.150973 -0.00396664 -1.94611e-21)
(-0.148652 -0.00460292 8.64095e-21)
(-0.146005 -0.00526737 -2.91573e-21)
(-0.143009 -0.00596145 -5.30696e-21)
(-0.139638 -0.00668692 2.24848e-21)
(-0.135868 -0.00744045 -3.16289e-21)
(-0.131674 -0.00822385 3.10976e-21)
(-0.127026 -0.00903729 -1.88744e-21)
(-0.121896 -0.00987887 6.94105e-21)
(-0.116254 -0.010746 8.39467e-22)
(-0.110068 -0.0116352 -3.75446e-22)
(-0.103309 -0.0125419 -2.27282e-21)
(-0.0959491 -0.0134599 -3.57126e-21)
(-0.0879515 -0.0143879 -9.26544e-22)
(-0.0792938 -0.0153024 3.96362e-21)
(-0.0699562 -0.0162082 4.6692e-22)
(-0.0599123 -0.0170934 -1.59775e-21)
(-0.049148 -0.0179484 3.66267e-22)
(-0.0376419 -0.0187714 2.23222e-22)
(-0.025386 -0.0195349 1.4258e-21)
(-0.0123863 -0.0202421 -7.9197e-22)
(0.00136246 -0.0208848 -5.0513e-22)
(0.0158491 -0.0214532 7.71208e-23)
(0.0310592 -0.0219457 1.38781e-21)
(0.0469654 -0.022353 -7.48131e-22)
(0.0635463 -0.0226819 -7.97244e-22)
(0.0807593 -0.0229232 2.69313e-22)
(0.0985679 -0.0230915 9.42344e-23)
(0.116933 -0.023175 2.52508e-23)
(0.135773 -0.0232024 -4.22098e-22)
(0.155128 -0.0231485 2.01389e-22)
(0.17473 -0.023076 -4.23337e-23)
(0.194995 -0.0228997 4.94786e-23)
(0.214911 -0.0228081 -8.26125e-23)
(0.236336 -0.0224821 -7.63456e-23)
(0.255627 -0.0225364 3.56755e-23)
(0.279346 -0.0219427 -1.52737e-23)
(0.295896 -0.0224346 -1.36574e-23)
(0.324949 -0.021431 -1.03879e-24)
(0.334484 -0.0225896 1.18596e-24)
(0.375026 -0.0219558 1.30524e-23)
(-0.103583 0.0134773 2.21173e-20)
(-0.106137 0.0135083 -7.92543e-21)
(-0.108176 0.0130222 5.50312e-21)
(-0.109981 0.0123721 -3.55028e-20)
(-0.111761 0.0116168 1.6775e-20)
(-0.113474 0.0108223 -2.21227e-20)
(-0.115094 0.0100278 2.47135e-20)
(-0.116616 0.00924954 -2.31798e-20)
(-0.118034 0.00849361 -5.85361e-21)
(-0.119344 0.00776174 4.73454e-20)
(-0.120539 0.00705319 -2.61143e-20)
(-0.121617 0.00636596 2.24489e-20)
(-0.122572 0.00569728 -4.6854e-21)
(-0.123399 0.00504387 -5.09017e-23)
(-0.124093 0.00440217 -1.3631e-20)
(-0.124646 0.00376851 -5.88931e-21)
(-0.125053 0.00313952 -2.81843e-21)
(-0.125303 0.00251264 7.2449e-21)
(-0.125388 0.00188701 -1.79287e-20)
(-0.125293 0.00126623 8.73405e-21)
(-0.125006 0.000656864 -5.07367e-21)
(-0.124549 2.37686e-05 2.29018e-21)
(-0.123915 -0.000621234 4.98145e-21)
(-0.123069 -0.00127276 1.00257e-20)
(-0.122005 -0.00193678 -6.48656e-21)
(-0.120711 -0.00261699 -5.62212e-21)
(-0.119173 -0.00331661 4.33439e-21)
(-0.117376 -0.00403885 6.64369e-22)
(-0.115304 -0.00478677 4.59249e-21)
(-0.112939 -0.00556331 -3.77635e-21)
(-0.110261 -0.00637122 -4.97792e-21)
(-0.10725 -0.00721295 8.02125e-21)
(-0.103885 -0.00809006 -6.9183e-21)
(-0.100138 -0.00900597 4.714e-21)
(-0.0959862 -0.00995451 1.81234e-21)
(-0.0914076 -0.0109387 -2.95947e-21)
(-0.0863751 -0.0119593 -1.7607e-21)
(-0.0808608 -0.0130138 2.43887e-21)
(-0.0748374 -0.0140992 -4.15748e-21)
(-0.0682772 -0.0152112 1.13144e-21)
(-0.0611522 -0.0163442 -1.44705e-21)
(-0.0534416 -0.0174905 5.27429e-22)
(-0.045108 -0.0186568 -5.04169e-22)
(-0.0361316 -0.0198004 2.36195e-21)
(-0.0265013 -0.0209348 -2.23135e-21)
(-0.0161923 -0.0220459 1.48911e-21)
(-0.00519842 -0.0231237 -2.8783e-21)
(0.00650064 -0.0241518 9.59933e-22)
(0.0189125 -0.0251197 2.6716e-21)
(0.0320205 -0.026018 -2.09152e-21)
(0.0458288 -0.0268359 -1.33612e-21)
(0.0603213 -0.0275625 1.66829e-21)
(0.0754837 -0.0281967 -1.214e-21)
(0.0912834 -0.0287245 6.18269e-22)
(0.1077 -0.0291537 1.03287e-22)
(0.124687 -0.0294707 1.4737e-22)
(0.14221 -0.029695 -7.54081e-22)
(0.16023 -0.029807 2.424e-22)
(0.178662 -0.0298473 -1.33824e-23)
(0.197563 -0.0297738 2.91353e-22)
(0.216632 -0.029679 -4.43665e-22)
(0.236356 -0.0294333 1.66032e-22)
(0.255613 -0.0293039 4.88528e-23)
(0.276431 -0.0288508 4.09598e-23)
(0.294949 -0.02889 -1.02617e-23)
(0.317991 -0.0280949 1.96587e-23)
(0.333739 -0.0286493 1.66149e-23)
(0.361893 -0.0273727 -3.72277e-24)
(0.3709 -0.0286851 -5.6743e-24)
(0.409818 -0.0278812 -3.09239e-23)
(-0.066235 0.0154676 -1.0037e-20)
(-0.068842 0.0153239 9.12414e-21)
(-0.0704491 0.014823 6.36039e-21)
(-0.0718104 0.014135 -4.10616e-20)
(-0.0731967 0.013294 4.25183e-20)
(-0.0745425 0.0123878 -1.44253e-22)
(-0.0758165 0.011468 -2.89515e-20)
(-0.0770106 0.0105573 1.81298e-20)
(-0.0781164 0.00966587 5.49831e-21)
(-0.0791255 0.00879748 5.82161e-21)
(-0.0800305 0.00795244 -2.19899e-20)
(-0.0808243 0.00712925 -1.95574e-20)
(-0.0815002 0.00632529 6.6026e-21)
(-0.0820512 0.00553719 1.80809e-20)
(-0.0824701 0.00476103 -1.11463e-20)
(-0.0827488 0.00399255 3.01218e-20)
(-0.0828781 0.00322751 -3.30398e-20)
(-0.0828475 0.00246198 3.64253e-20)
(-0.0826438 0.00169341 -9.96721e-21)
(-0.0822507 0.000928554 -2.58343e-20)
(-0.0816855 0.000183534 2.22812e-20)
(-0.0809465 -0.000599902 -2.16287e-21)
(-0.0799981 -0.00138704 -3.5373e-21)
(-0.0788342 -0.00218399 1.08843e-20)
(-0.0774453 -0.00299623 -7.56326e-21)
(-0.0758178 -0.00382741 -1.80853e-20)
(-0.0739374 -0.00468122 1.47514e-20)
(-0.0717885 -0.00556126 -3.5019e-21)
(-0.0693546 -0.00647095 -3.16567e-21)
(-0.0666181 -0.00741358 6.32381e-21)
(-0.0635603 -0.00839214 1.25299e-20)
(-0.0601608 -0.00940924 -3.50556e-21)
(-0.056401 -0.0104668 -2.29649e-20)
(-0.0522535 -0.0115745 1.72568e-20)
(-0.0476942 -0.0127163 -8.65495e-21)
(-0.0427056 -0.0138963 2.7483e-21)
(-0.0372625 -0.0151184 6.78951e-21)
(-0.0313392 -0.0163795 -2.58975e-21)
(-0.0249111 -0.0176759 -4.81824e-23)
(-0.0179539 -0.0190024 1.82548e-21)
(-0.0104423 -0.0203529 -5.37379e-21)
(-0.00236642 -0.0217221 -2.56326e-21)
(0.00631461 -0.0230941 6.13379e-21)
(0.0156221 -0.0244577 1.56206e-21)
(0.0255492 -0.0258072 -4.04883e-21)
(0.0361213 -0.0271282 1.52067e-21)
(0.047343 -0.0284106 -1.09106e-21)
(0.0592219 -0.0296248 -2.72512e-21)
(0.0717641 -0.0307772 -2.62954e-22)
(0.0849521 -0.0318449 3.17633e-21)
(0.0987835 -0.0328179 1.39206e-21)
(0.113236 -0.0336817 1.41829e-21)
(0.128296 -0.034435 -7.53835e-22)
(0.143924 -0.0350609 1.37465e-21)
(0.160103 -0.0355692 -1.77282e-21)
(0.17678 -0.0359408 9.04856e-22)
(0.193924 -0.036202 -7.98503e-22)
(0.211497 -0.0363228 4.28594e-23)
(0.229409 -0.0363603 4.90693e-22)
(0.247738 -0.0362489 -4.27766e-22)
(0.266145 -0.0361209 2.27241e-22)
(0.285195 -0.035789 -1.56614e-22)
(0.303647 -0.0356159 -2.46741e-22)
(0.323719 -0.0350222 -9.18506e-23)
(0.341307 -0.0350405 1.46233e-23)
(0.363512 -0.0340433 -5.83572e-24)
(0.378319 -0.0346357 -1.95462e-23)
(0.405359 -0.0331216 -1.95516e-24)
(0.413763 -0.0345141 2.86719e-24)
(0.450742 -0.0335872 1.50809e-23)
(-0.0203202 0.0166559 3.35711e-20)
(-0.0232178 0.0165942 -2.57801e-20)
(-0.0243513 0.0161416 4.26399e-20)
(-0.0252983 0.0154253 -1.60294e-20)
(-0.0263228 0.0145395 1.31546e-20)
(-0.027332 0.0135646 -3.39146e-20)
(-0.0282897 0.0125529 5.26009e-21)
(-0.0291859 0.0115362 -1.44649e-21)
(-0.0300098 0.0105304 7.70953e-21)
(-0.0307502 0.00954227 2.16383e-20)
(-0.0313963 0.00857399 -1.75768e-20)
(-0.0319383 0.00762532 1.25534e-20)
(-0.032367 0.00669439 7.64324e-21)
(-0.0326734 0.00577821 3.08935e-21)
(-0.0328485 0.00487293 -2.21954e-20)
(-0.0328829 0.00397408 1.28724e-20)
(-0.0327665 0.00307683 -1.87852e-20)
(-0.0324889 0.00217669 2.27352e-21)
(-0.0320323 0.00127543 -5.26884e-22)
(-0.0313627 0.000390301 2.49152e-20)
(-0.0305224 -0.000535419 -2.13207e-20)
(-0.0295121 -0.00146451 -2.94748e-21)
(-0.0282823 -0.00239602 -5.14932e-21)
(-0.0268265 -0.00334054 2.25659e-20)
(-0.0251342 -0.00430256 -8.12789e-21)
(-0.0231924 -0.00528617 -7.91214e-21)
(-0.0209867 -0.00629553 -4.93322e-21)
(-0.0185019 -0.0073346 1.89329e-20)
(-0.0157213 -0.00840713 -6.77734e-21)
(-0.0126276 -0.00951669 -9.22309e-21)
(-0.00920269 -0.0106666 -7.80589e-21)
(-0.0054268 -0.0118596 2.18288e-20)
(-0.00128765 -0.0130996 -5.86118e-21)
(0.00324612 -0.0143841 -1.99566e-21)
(0.00820348 -0.0157116 -4.73996e-21)
(0.0135911 -0.0170855 -3.98521e-21)
(0.0194317 -0.0185049 4.03544e-21)
(0.0257499 -0.0199665 3.88951e-21)
(0.0325672 -0.021466 -4.24039e-21)
(0.0399039 -0.0229977 -6.82447e-21)
(0.0477806 -0.0245546 8.88617e-21)
(0.0562096 -0.0261326 -1.42001e-21)
(0.0652133 -0.027696 5.92843e-24)
(0.0748124 -0.0292643 -1.98071e-21)
(0.0850044 -0.0308112 3.35893e-21)
(0.0958017 -0.0323221 -4.13698e-21)
(0.107206 -0.0337851 4.93929e-21)
(0.119217 -0.0351745 -8.75835e-23)
(0.131835 -0.0364862 -4.06214e-22)
(0.14504 -0.0376987 -1.35933e-21)
(0.158826 -0.0388023 -1.6657e-21)
(0.173164 -0.0397787 5.92242e-22)
(0.188039 -0.0406272 1.4282e-21)
(0.203407 -0.041327 -3.22865e-21)
(0.219252 -0.0418914 2.26088e-21)
(0.235517 -0.0422945 -1.20305e-21)
(0.252175 -0.042572 4.53445e-22)
(0.269188 -0.0426803 2.58711e-22)
(0.28646 -0.0426983 -4.21511e-22)
(0.304096 -0.0425297 -8.60877e-23)
(0.321709 -0.0423573 2.4779e-22)
(0.33996 -0.0419217 -8.22682e-23)
(0.357471 -0.0416986 1.04926e-22)
(0.376659 -0.0409514 2.40092e-22)
(0.393189 -0.0409412 2.02748e-23)
(0.414399 -0.0397446 2.34044e-23)
(0.428163 -0.0403472 5.26542e-23)
(0.453887 -0.0386339 -7.0693e-24)
(0.46164 -0.0400352 -2.53864e-24)
(0.496413 -0.0390275 -4.36676e-25)
(0.0353283 0.0173021 1.77452e-20)
(0.0322786 0.0175587 3.68449e-20)
(0.0310103 0.0170668 -4.32954e-20)
(0.0302856 0.0163097 -1.23592e-21)
(0.0295214 0.0154151 9.6703e-21)
(0.0287328 0.0144109 -8.87169e-21)
(0.0279787 0.01334 -1.85004e-20)
(0.0272773 0.0122433 -2.65382e-21)
(0.026638 0.011144 4.50594e-20)
(0.026073 0.0100524 -1.45778e-21)
(0.0255952 0.00897333 -3.77808e-21)
(0.0252173 0.0079085 -7.12661e-21)
(0.0249506 0.00685751 6.65101e-21)
(0.0248062 0.00581829 -5.0154e-21)
(0.0247949 0.00478752 7.15675e-21)
(0.0249279 0.00376082 -1.92204e-20)
(0.0252173 0.00273277 -1.62005e-20)
(0.0256787 0.00169814 2.29696e-20)
(0.0263395 0.000660026 1.56861e-21)
(0.0271772 -0.000372281 -1.13801e-20)
(0.0281888 -0.0014539 2.61379e-20)
(0.0294263 -0.00252804 -3.79907e-21)
(0.0308856 -0.0036083 -1.84171e-21)
(0.0325771 -0.00470327 -2.32689e-20)
(0.0345151 -0.00581756 1.59465e-21)
(0.0367138 -0.00695594 2.05982e-20)
(0.0391881 -0.008123 -8.43226e-21)
(0.0419535 -0.00932299 -1.3858e-20)
(0.0450264 -0.0105598 8.86785e-21)
(0.0484238 -0.0118373 -2.60844e-21)
(0.052163 -0.0131589 2.7534e-21)
(0.0562627 -0.0145275 9.15612e-21)
(0.0607384 -0.0159472 -2.47083e-21)
(0.0656117 -0.0174057 -1.25655e-20)
(0.0709074 -0.0189165 1.3441e-20)
(0.0766394 -0.02048 2.70186e-21)
(0.0828257 -0.0220906 3.70095e-21)
(0.0894858 -0.023745 -1.48967e-21)
(0.0966374 -0.0254382 -1.67253e-20)
(0.104297 -0.0271637 8.0411e-21)
(0.11248 -0.0289131 1.3411e-21)
(0.121197 -0.0306798 -4.97263e-22)
(0.13046 -0.0324385 1.72545e-21)
(0.140284 -0.0341894 5.84245e-22)
(0.150667 -0.035913 -1.18894e-21)
(0.161613 -0.0375929 5.74933e-22)
(0.173118 -0.0392151 9.3863e-22)
(0.185173 -0.0407544 -1.58023e-21)
(0.197777 -0.0422018 8.56955e-22)
(0.210904 -0.043535 1.19532e-21)
(0.224543 -0.0447441 -1.39052e-21)
(0.238659 -0.0458077 -1.2064e-21)
(0.25324 -0.0467264 5.07509e-22)
(0.268233 -0.0474751 2.61663e-22)
(0.283627 -0.0480721 8.06142e-23)
(0.299359 -0.048483 6.52644e-22)
(0.315406 -0.0487561 -2.47032e-22)
(0.331734 -0.0488305 -1.67301e-21)
(0.348237 -0.0488127 -2.69849e-22)
(0.365053 -0.0485678 -1.9866e-22)
(0.381745 -0.0483399 2.32511e-22)
(0.399068 -0.0477846 1.70914e-22)
(0.415514 -0.0475047 -2.55607e-22)
(0.433687 -0.0465944 -2.92603e-23)
(0.449052 -0.0465459 -7.26522e-23)
(0.469115 -0.0451574 -9.72683e-23)
(0.481766 -0.0457403 1.9487e-23)
(0.505985 -0.0438672 -1.4107e-23)
(0.513062 -0.0452136 1.63464e-24)
(0.545414 -0.0441595 4.60383e-24)
(0.101857 0.018266 -3.48789e-20)
(0.098874 0.0185172 4.30603e-20)
(0.0969035 0.0178313 5.68548e-20)
(0.0960278 0.0170085 -6.54419e-20)
(0.0952697 0.0161086 -4.18327e-20)
(0.0944667 0.0150881 2.96047e-20)
(0.0936943 0.0139742 2.82165e-20)
(0.0929857 0.0128131 4.0961e-20)
(0.0923453 0.0116334 -4.78856e-20)
(0.0917812 0.0104484 -3.33746e-22)
(0.0913064 0.00926551 -3.81379e-20)
(0.0909348 0.00808889 1.04066e-20)
(0.0906791 0.00692007 3.02167e-20)
(0.0905514 0.0057584 -2.33197e-21)
(0.0905637 0.0046015 -1.78796e-20)
(0.0907279 0.00344539 4.74717e-21)
(0.0910559 0.00228408 1.03149e-20)
(0.0915629 0.0011099 -1.86563e-20)
(0.0922858 -8.04731e-05 3.97157e-20)
(0.093204 -0.00129285 -1.86966e-20)
(0.0943125 -0.00250375 -1.05661e-20)
(0.0956495 -0.00372102 2.45652e-20)
(0.0972218 -0.00495232 -2.40394e-20)
(0.0990416 -0.00620123 8.11425e-21)
(0.101122 -0.00747186 3.19461e-21)
(0.103478 -0.00876904 1.03111e-20)
(0.106123 -0.0100976 -7.86209e-21)
(0.109073 -0.0114618 -1.22828e-20)
(0.112344 -0.0128655 3.28869e-21)
(0.115953 -0.0143126 -6.01515e-21)
(0.119915 -0.0158063 2.69821e-20)
(0.124248 -0.0173493 -1.06023e-20)
(0.128967 -0.018945 -1.77203e-20)
(0.13409 -0.0205883 2.38072e-20)
(0.139638 -0.0222831 -1.48782e-20)
(0.145625 -0.0240295 -3.43924e-21)
(0.152065 -0.0258242 7.93122e-21)
(0.158974 -0.0276631 -3.13413e-21)
(0.166366 -0.0295407 6.65929e-21)
(0.174252 -0.0314491 -2.74378e-21)
(0.182644 -0.0333789 5.3839e-21)
(0.191546 -0.0353211 -1.20166e-20)
(0.200966 -0.0372542 7.87866e-21)
(0.210909 -0.0391706 4.61784e-21)
(0.221373 -0.0410524 -8.81808e-21)
(0.232351 -0.0428808 -1.57456e-22)
(0.243838 -0.0446403 5.61117e-21)
(0.255817 -0.0463055 -7.16749e-21)
(0.268281 -0.0478645 7.78643e-21)
(0.281199 -0.0492936 -2.05274e-21)
(0.294559 -0.0505833 3.87432e-22)
(0.308319 -0.0517086 -3.41573e-22)
(0.322468 -0.0526729 6.4751e-23)
(0.336947 -0.0534459 -1.40741e-21)
(0.35175 -0.0540526 1.67714e-21)
(0.36681 -0.0544487 5.72996e-22)
(0.382107 -0.054698 2.58271e-22)
(0.397613 -0.0547181 -2.74389e-23)
(0.413211 -0.0546497 1.2226e-21)
(0.429075 -0.0543113 -8.17968e-22)
(0.444718 -0.0540181 6.68057e-22)
(0.460986 -0.05333 -9.8732e-23)
(0.476255 -0.0529866 3.50371e-22)
(0.493282 -0.0519084 -6.86946e-23)
(0.507398 -0.0518103 -1.89725e-23)
(0.52617 -0.0502424 4.353e-23)
(0.537666 -0.0507758 -2.86111e-23)
(0.560209 -0.0487811 1.18585e-23)
(0.566603 -0.0500206 8.94782e-24)
(0.596367 -0.0489451 8.05598e-24)
(0.177698 0.0198869 -4.48531e-21)
(0.174674 0.018887 -9.36308e-20)
(0.17316 0.017916 1.03006e-19)
(0.171997 0.0169559 -5.23683e-20)
(0.170814 0.0158873 -4.53851e-21)
(0.169682 0.0147135 4.3384e-20)
(0.168652 0.0134788 -4.63995e-20)
(0.167721 0.0122124 -7.08465e-21)
(0.166889 0.0109286 3.56461e-20)
(0.166164 0.00963605 -7.76615e-21)
(0.165561 0.00834103 -3.78976e-20)
(0.16509 0.00704697 6.6618e-20)
(0.164764 0.00575481 -1.76631e-20)
(0.164594 0.00446347 -2.91962e-20)
(0.164593 0.00317005 3.45303e-20)
(0.164772 0.0018693 4.68188e-21)
(0.165145 0.000553821 -1.55324e-20)
(0.165748 -0.000780874 -1.86436e-20)
(0.166566 -0.00216225 -2.27729e-20)
(0.167604 -0.00354224 1.21336e-20)
(0.168888 -0.00492398 8.53847e-21)
(0.170425 -0.0063182 1.48305e-20)
(0.172226 -0.00773066 -2.13659e-20)
(0.174306 -0.00916612 1.29165e-20)
(0.176678 -0.0106298 -1.71437e-21)
(0.179356 -0.0121268 -1.16246e-20)
(0.182355 -0.0136616 8.03905e-21)
(0.185692 -0.015238 9.27183e-22)
(0.18938 -0.0168594 -1.77268e-20)
(0.193436 -0.0185291 5.31271e-21)
(0.197875 -0.0202496 1.14608e-20)
(0.202711 -0.0220232 -7.23504e-21)
(0.207958 -0.0238473 3.63474e-21)
(0.213632 -0.025723 8.31718e-21)
(0.219748 -0.0276497 -1.33044e-20)
(0.226315 -0.0296241 6.62379e-21)
(0.233345 -0.0316413 7.69147e-21)
(0.240848 -0.0336948 -6.59103e-21)
(0.248829 -0.0357759 1.10142e-21)
(0.257294 -0.0378739 -9.36929e-21)
(0.266245 -0.0399779 5.15914e-21)
(0.275682 -0.0420685 3.13473e-21)
(0.285602 -0.044133 1.333e-21)
(0.296 -0.0461538 -5.36448e-21)
(0.306862 -0.04811 -1.33088e-21)
(0.318179 -0.049985 1.05189e-20)
(0.329927 -0.0517528 -7.81308e-22)
(0.342094 -0.0534 -5.60065e-21)
(0.354644 -0.0549007 7.3024e-23)
(0.367566 -0.0562468 -9.57947e-22)
(0.380807 -0.0574096 9.05144e-22)
(0.394365 -0.0583963 4.71508e-22)
(0.40817 -0.0591705 9.24166e-22)
(0.422224 -0.0597662 -9.37174e-22)
(0.436456 -0.0601268 -8.00096e-23)
(0.450852 -0.0603351 -9.29659e-22)
(0.46539 -0.0602835 1.2402e-23)
(0.479944 -0.060152 -1.04151e-22)
(0.494722 -0.0597063 1.86767e-22)
(0.509191 -0.0593399 -3.82649e-22)
(0.524277 -0.0585105 -4.0271e-22)
(0.53827 -0.0580975 1.22604e-22)
(0.554027 -0.0568522 -3.28248e-22)
(0.566832 -0.0566927 2.57724e-22)
(0.584175 -0.054963 -9.57357e-24)
(0.594499 -0.0554191 -3.30821e-23)
(0.615218 -0.0533389 -1.28006e-23)
(0.620934 -0.0544325 5.1891e-24)
(0.647991 -0.0533522 -4.71139e-24)
(0.269867 0.0222299 -5.16613e-20)
(0.265428 0.0207932 2.3245e-20)
(0.26271 0.0195472 -1.58138e-20)
(0.26062 0.0184239 -1.46753e-20)
(0.258588 0.0172276 3.38539e-21)
(0.256653 0.0159333 -2.34325e-21)
(0.254884 0.0145787 6.96105e-21)
(0.253274 0.0131892 3.90797e-20)
(0.251813 0.0117757 -6.15037e-20)
(0.250501 0.0103464 4.65765e-20)
(0.249347 0.00890807 1.4706e-20)
(0.248361 0.00746537 -7.36456e-20)
(0.247552 0.00602036 6.98639e-20)
(0.24693 0.00457307 -2.76393e-20)
(0.246506 0.00312157 1.27324e-21)
(0.24629 0.00166151 1.81526e-20)
(0.246292 0.000185243 -2.84524e-20)
(0.246538 -0.00131576 1.31093e-20)
(0.247033 -0.00287801 -2.83435e-20)
(0.247799 -0.00443625 -1.14223e-20)
(0.248831 -0.00599587 4.3918e-20)
(0.250137 -0.00756777 -6.71621e-21)
(0.251731 -0.00915779 5.23114e-21)
(0.253626 -0.010771 1.41439e-20)
(0.255835 -0.012413 -2.62793e-21)
(0.258372 -0.0140895 -1.18876e-20)
(0.261251 -0.015805 -1.60556e-20)
(0.264486 -0.0175627 1.82182e-20)
(0.268091 -0.0193661 3.99768e-22)
(0.272079 -0.0212182 -1.14142e-20)
(0.276464 -0.0231209 4.16916e-21)
(0.281257 -0.0250762 1.29941e-20)
(0.28647 -0.0270822 -2.5673e-20)
(0.292114 -0.0291387 6.06797e-21)
(0.298201 -0.0312441 8.76641e-21)
(0.304737 -0.0333944 2.83796e-21)
(0.311728 -0.0355841 -1.1388e-20)
(0.319179 -0.0378058 -1.03981e-22)
(0.327092 -0.0400499 -1.74282e-21)
(0.335466 -0.0423046 1.17873e-20)
(0.344297 -0.0445573 -7.56131e-21)
(0.353579 -0.0467895 -6.32007e-22)
(0.363304 -0.0489852 5.44575e-21)
(0.373461 -0.0511263 3.63296e-23)
(0.384029 -0.0531905 -6.1808e-21)
(0.394995 -0.0551602 8.89205e-21)
(0.406328 -0.0570086 -1.27041e-21)
(0.418016 -0.0587217 -5.69329e-21)
(0.430015 -0.0602715 3.61991e-21)
(0.442315 -0.0616517 -1.42373e-21)
(0.454858 -0.0628301 -6.61387e-22)
(0.467646 -0.0638185 -5.57651e-22)
(0.480602 -0.0645738 1.36242e-21)
(0.493739 -0.0651406 -2.41064e-21)
(0.506979 -0.0654485 5.36919e-22)
(0.520318 -0.0656022 -3.18808e-22)
(0.533738 -0.0654652 1.11988e-21)
(0.54711 -0.0652614 6.81571e-22)
(0.560666 -0.0646993 -6.05357e-22)
(0.573848 -0.0642544 2.82535e-22)
(0.587631 -0.0632808 4.63498e-22)
(0.600266 -0.0627931 -2.73812e-22)
(0.614635 -0.061388 1.91085e-22)
(0.626088 -0.0611558 -1.78944e-23)
(0.641881 -0.0592866 2.35986e-23)
(0.651033 -0.0596415 -6.96325e-24)
(0.669809 -0.0575087 5.2704e-24)
(0.674862 -0.0584312 1.4407e-24)
(0.699141 -0.0573555 -1.3526e-24)
(0.375614 0.0261631 2.92975e-20)
(0.369471 0.0241502 -2.87853e-20)
(0.365008 0.0224874 9.45241e-21)
(0.361428 0.0210668 2.5342e-20)
(0.358029 0.0196202 -4.82226e-20)
(0.3548 0.0181004 1.40011e-20)
(0.35182 0.0165391 7.20313e-20)
(0.349086 0.0149534 -2.26423e-20)
(0.346575 0.0133476 -4.44552e-20)
(0.34428 0.0117263 3.86264e-20)
(0.342203 0.0100955 -1.15356e-20)
(0.340349 0.00845946 3.17475e-20)
(0.338723 0.00682039 -4.08894e-20)
(0.337332 0.00517879 -4.7029e-20)
(0.336183 0.00353339 7.77249e-20)
(0.335284 0.00188048 -7.3984e-20)
(0.334642 0.000211966 4.38295e-20)
(0.334263 -0.00148808 3.7654e-20)
(0.334178 -0.00323876 -7.35253e-20)
(0.33442 -0.00499689 5.77165e-20)
(0.334966 -0.00676004 -2.8675e-20)
(0.335818 -0.00853362 -2.34787e-20)
(0.336989 -0.0103231 4.91387e-21)
(0.338489 -0.0121338 4.81389e-20)
(0.340331 -0.0139722 -5.96037e-20)
(0.342526 -0.0158446 5.57801e-20)
(0.345089 -0.0177554 1.41346e-20)
(0.348031 -0.0197077 -9.93472e-21)
(0.351364 -0.0217046 -4.14111e-20)
(0.355098 -0.0237487 1.0839e-20)
(0.359245 -0.0258418 1.78531e-20)
(0.363813 -0.0279848 -1.80161e-20)
(0.36881 -0.0301765 1.35032e-20)
(0.374244 -0.0324156 -7.61481e-21)
(0.38012 -0.0346994 4.75222e-21)
(0.386441 -0.0370235 -4.81932e-21)
(0.393209 -0.0393814 2.97001e-21)
(0.400423 -0.0417649 1.00701e-21)
(0.408079 -0.0441635 -2.73107e-21)
(0.416171 -0.0465644 7.21145e-21)
(0.424689 -0.0489536 -8.91737e-21)
(0.433622 -0.0513128 -3.39506e-21)
(0.442954 -0.0536238 1.06577e-21)
(0.452669 -0.0558681 4.06142e-24)
(0.462742 -0.0580219 -2.94736e-21)
(0.473155 -0.0600673 8.69664e-21)
(0.483872 -0.0619764 -1.89056e-21)
(0.49488 -0.0637355 -3.13864e-21)
(0.506128 -0.0653144 -3.64939e-21)
(0.517611 -0.0667096 6.66241e-21)
(0.529262 -0.0678847 -2.45178e-22)
(0.541093 -0.0688578 3.33535e-21)
(0.55302 -0.0695781 -6.49935e-21)
(0.565066 -0.0701023 3.78581e-21)
(0.577152 -0.0703446 5.62786e-22)
(0.58928 -0.0704342 -6.54705e-22)
(0.601438 -0.0702032 9.67885e-22)
(0.613498 -0.0699221 -1.36367e-21)
(0.625708 -0.0692401 1.50579e-23)
(0.637503 -0.0687143 -4.64687e-23)
(0.649875 -0.0675999 -5.63551e-22)