0.174904 	0.470097 	-9.12254e-19 	1.10394 	-0.0353451 	7.18459e-18
0.175834 	0.472596 	-2.24338e-18 	1.10182 	-0.0345942 	9.25705e-18
0.177597 	0.477336 	-1.81517e-18 	1.052 	-0.0308221 	3.41095e-17
0.179264 	0.481815 	3.37494e-19 	0.938001 	-0.0236239 	1.83961e-17
0.180193 	0.484314 	1.13201e-18 	0.929792 	-0.0227663 	2.3463e-17
0.181317 	0.487333 	1.2406e-18 	0.730454 	-0.013096 	2.62492e-17
0.183176 	0.492331 	1.15784e-18 	0.460652 	-0.00434023 	4.57282e-18
0.184553 	0.496031 	5.04547e-19 	0.1565 	-0.000424716 	7.51405e-18
0.185483 	0.498531 	2.29334e-19 	0.154302 	-0.000407015 	6.2028e-18
