0.0822235 	0.49733 	1.24899e-19 	0.240922 	-0.000113942 	-5.13881e-18
