0.155265 	0.479017 	2.84542e-18 	1.07194 	-0.0345769 	1.99479e-17
0.156341 	0.482335 	2.5692e-18 	0.971866 	-0.0275521 	1.36328e-17
0.157961 	0.487333 	2.43495e-18 	0.779559 	-0.0166089 	2.05782e-17
0.159385 	0.491728 	2.11402e-18 	0.497291 	-0.00553027 	9.45525e-18
0.160195 	0.494227 	1.62483e-18 	0.489238 	-0.00525367 	7.79516e-18
0.161201 	0.49733 	1.05031e-18 	0.166384 	-0.000505573 	4.08341e-18
