/*--------------------------------*- C++ -*----------------------------------*\
  =========                 |
  \\      /  F ield         | OpenFOAM: The Open Source CFD Toolbox
   \\    /   O peration     | Website:  https://openfoam.org
    \\  /    A nd           | Version:  7
     \\/     M anipulation  |
\*---------------------------------------------------------------------------*/
FoamFile
{
    version     2.0;
    format      ascii;
    class       surfaceScalarField;
    location    "0.5";
    object      phi;
}
// * * * * * * * * * * * * * * * * * * * * * * * * * * * * * * * * * * * * * //

dimensions      [0 3 -1 0 0 0 0];

internalField   nonuniform List<scalar> 
615
(
0.000344302
-2.00607e-06
0.000344435
-1.76803e-06
0.000344539
-1.53681e-06
0.000344619
-1.32262e-06
0.000344678
-1.13053e-06
0.000344721
-9.62046e-07
0.000344752
-8.16445e-07
0.000344773
-6.91845e-07
0.000344788
-5.85872e-07
0.000344798
-4.96075e-07
0.000344805
-4.20138e-07
0.000344809
-3.55981e-07
0.000344811
-3.01786e-07
0.000344812
-2.55995e-07
0.000344813
-2.17284e-07
0.000344813
-1.84537e-07
0.000344813
-1.56814e-07
0.000344812
-1.33325e-07
0.000344811
-1.1341e-07
0.000344811
-9.65114e-08
0.00034481
-8.21638e-08
0.000344809
-6.99741e-08
0.000344809
-5.96119e-08
0.000344808
-5.07987e-08
0.000344808
-4.32995e-08
0.000344807
-3.69156e-08
0.000344807
-3.14792e-08
0.000344807
-2.6848e-08
0.000344806
-2.29018e-08
0.000344806
-1.95382e-08
0.000344806
-1.66707e-08
0.000344806
-1.42255e-08
0.000344805
-1.21401e-08
0.000344805
-1.03612e-08
0.000344805
-8.84359e-09
0.000344805
-7.54877e-09
0.000344805
-6.44393e-09
0.000344805
-5.50104e-09
0.000344805
-4.69635e-09
-4.00951e-09
0.000120377
-3.80673e-07
0.000120463
-1.11106e-06
0.000120601
-1.80651e-06
0.000120784
-2.43046e-06
0.000120999
-2.93009e-06
0.000121235
-3.3015e-06
0.000121479
-3.57549e-06
0.000121726
-3.76713e-06
0.00012197
-3.85281e-06
0.000122198
-3.80008e-06
0.000122404
-3.64673e-06
0.00012259
-3.48791e-06
0.000122757
-3.35707e-06
0.0001229
-3.19983e-06
0.000123019
-2.96871e-06
0.000123112
-2.67935e-06
0.000123183
-2.39181e-06
0.000123234
-2.17964e-06
0.000123277
-2.10075e-06
0.000123322
-2.16635e-06
0.000123377
-2.33099e-06
0.000123444
-2.51763e-06
0.000123522
-2.65527e-06
0.000123604
-2.70169e-06
0.000123683
-2.64649e-06
0.000123756
-2.50298e-06
0.000123819
-2.29704e-06
0.00012387
-2.05715e-06
0.00012391
-1.80775e-06
0.000123939
-1.5664e-06
0.000123961
-1.34377e-06
0.000123975
-1.14502e-06
0.000123985
-9.71488e-07
0.00012399
-8.22208e-07
0.000123993
-6.95011e-07
0.000123995
-5.87265e-07
0.000123995
-4.96298e-07
0.000123995
-4.19623e-07
0.000123994
-3.55029e-07
0.000123992
-3.00604e-07
0.000123991
-2.54718e-07
0.00012399
-2.16001e-07
0.000123989
-1.83301e-07
0.000123988
-1.55657e-07
0.000123986
-1.32264e-07
0.000123985
-1.12449e-07
0.000123985
-9.56521e-08
0.000123984
-8.14012e-08
0.000123983
-6.93017e-08
0.000123983
-5.9022e-08
0.000123982
-5.02834e-08
0.000123982
-4.28509e-08
0.000123981
-3.65261e-08
0.000123981
-3.11418e-08
0.000123981
-2.65564e-08
0.00012398
-2.26501e-08
0.00012398
-1.93213e-08
0.00012398
-1.64839e-08
0.00012398
-1.40649e-08
0.00012398
-1.20021e-08
0.00012398
-1.02427e-08
0.000123979
-8.74189e-09
0.000123979
-7.46155e-09
0.000123979
-6.36917e-09
0.000123979
-5.43697e-09
0.000123979
-4.64146e-09
-3.96252e-09
0.000122944
-4.13241e-07
0.000123037
-1.20494e-06
0.000123188
-1.95719e-06
0.000123386
-2.6286e-06
0.00012362
-3.16359e-06
0.000123874
-3.55555e-06
0.000124135
-3.83706e-06
0.000124399
-4.03075e-06
0.000124658
-4.11193e-06
0.000124899
-4.04122e-06
0.000125116
-3.86317e-06
0.000125311
-3.68279e-06
0.000125483
-3.52995e-06
0.00012563
-3.34589e-06
0.000125748
-3.08695e-06
0.00012584
-2.77125e-06
0.000125906
-2.45863e-06
0.000125953
-2.22598e-06
0.000125989
-2.13714e-06
0.000126028
-2.20528e-06
0.000126078
-2.38106e-06
0.000126142
-2.58121e-06
0.000126216
-2.72948e-06
0.000126295
-2.78067e-06
0.000126372
-2.72369e-06
0.000126442
-2.57294e-06
0.000126501
-2.35637e-06
0.000126549
-2.10458e-06
0.000126585
-1.84366e-06
0.000126611
-1.59217e-06
0.000126628
-1.36124e-06
0.000126639
-1.15607e-06
0.000126645
-9.77815e-07
0.000126648
-8.25203e-07
0.000126649
-6.95757e-07
0.000126648
-5.86566e-07
0.000126647
-4.9473e-07
0.000126645
-4.17584e-07
0.000126643
-3.52786e-07
0.00012664
-2.98328e-07
0.000126638
-2.52518e-07
0.000126636
-2.13938e-07
0.000126634
-1.81407e-07
0.000126632
-1.53944e-07
0.000126631
-1.30732e-07
0.00012663
-1.11092e-07
0.000126628
-9.44565e-08
0.000126627
-8.03537e-08
0.000126626
-6.83877e-08
0.000126626
-5.82272e-08
0.000126625
-4.95941e-08
0.000126624
-4.22544e-08
0.000126624
-3.6011e-08
0.000126623
-3.06975e-08
0.000126623
-2.61738e-08
0.000126623
-2.23209e-08
0.000126622
-1.90384e-08
0.000126622
-1.6241e-08
0.000126622
-1.38564e-08
0.000126622
-1.18233e-08
0.000126622
-1.00894e-08
0.000126621
-8.61053e-09
0.000126621
-7.34904e-09
0.000126621
-6.27282e-09
0.000126621
-5.35449e-09
0.000126621
-4.57087e-09
-3.90212e-09
0.000125511
-4.48944e-07
0.000125615
-1.30849e-06
0.00012578
-2.12252e-06
0.000125996
-2.84462e-06
0.000126249
-3.41698e-06
0.000126523
-3.82916e-06
0.000126802
-4.11645e-06
0.000127083
-4.31161e-06
0.000127358
-4.38697e-06
0.000127613
-4.29541e-06
0.00012784
-4.09095e-06
0.000128045
-3.88735e-06
0.000128223
-3.70846e-06
0.000128371
-3.49342e-06
0.000128489
-3.20462e-06
0.000128579
-2.86116e-06
0.000128641
-2.52125e-06
0.000128681
-2.26606e-06
0.000128711
-2.16649e-06
0.000128743
-2.23756e-06
0.000128787
-2.42542e-06
0.000128846
-2.64011e-06
0.000128916
-2.79983e-06
0.000128992
-2.85623e-06
0.000129066
-2.79748e-06
0.000129132
-2.63924e-06
0.000129187
-2.41169e-06
0.000129231
-2.14773e-06
0.000129262
-1.87517e-06
0.000129284
-1.61361e-06
0.000129297
-1.3746e-06
0.000129304
-1.16335e-06
0.000129307
-9.80757e-07
0.000129307
-8.25222e-07
0.000129305
-6.93926e-07
0.000129302
-5.83659e-07
0.000129299
-4.91284e-07
0.000129295
-4.13956e-07
0.000129292
-3.49203e-07
0.000129288
-2.94925e-07
0.000129285
-2.49369e-07
0.000129282
-2.11076e-07
0.00012928
-1.78841e-07
0.000129277
-1.51665e-07
0.000129275
-1.28723e-07
0.000129274
-1.09331e-07
0.000129272
-9.29199e-08
0.000129271
-7.90176e-08
0.00012927
-6.72294e-08
0.000129269
-5.72253e-08
0.000129268
-4.87291e-08
0.000129267
-4.15088e-08
0.000129266
-3.53691e-08
0.000129266
-3.01456e-08
0.000129265
-2.56996e-08
0.000129265
-2.19138e-08
0.000129265
-1.86891e-08
0.000129264
-1.59415e-08
0.000129264
-1.35997e-08
0.000129264
-1.16034e-08
0.000129264
-9.90114e-09
0.000129264
-8.44935e-09
0.000129263
-7.2111e-09
0.000129263
-6.15479e-09
0.000129263
-5.2535e-09
0.000129263
-4.4845e-09
-3.82827e-09
0.000128079
-4.88257e-07
0.000128194
-1.42291e-06
0.000128375
-2.30417e-06
0.000128611
-3.08058e-06
0.000128887
-3.69236e-06
0.000129181
-4.12374e-06
0.00012948
-4.41488e-06
0.000129779
-4.61105e-06
0.000130071
-4.67881e-06
0.000130339
-4.56346e-06
0.000130579
-4.33122e-06
0.000130794
-4.10218e-06
0.000130978
-3.89219e-06
0.000131126
-3.64184e-06
0.000131243
-3.32136e-06
0.00013133
-2.9485e-06
0.000131388
-2.57877e-06
0.000131421
-2.29889e-06
0.000131442
-2.18786e-06
0.000131467
-2.26231e-06
0.000131505
-2.46323e-06
0.000131558
-2.69351e-06
0.000131624
-2.86556e-06
0.000131695
-2.92762e-06
0.000131765
-2.86711e-06
0.000131827
-2.7011e-06
0.000131877
-2.46225e-06
0.000131915
-2.18589e-06
0.000131942
-1.90165e-06
0.000131958
-1.63018e-06
0.000131967
-1.38342e-06
0.00013197
-1.16649e-06
0.00013197
-9.80035e-07
0.000131966
-8.22053e-07
0.000131962
-6.89358e-07
0.000131957
-5.78427e-07
0.000131951
0.000131946
0.000131941
0.000131936
0.000131932
0.000131929
0.000131925
0.000131923
0.00013192
0.000131918
0.000131916
0.000131914
0.000131913
0.000131912
0.000131911
0.00013191
0.000131909
0.000131908
0.000131908
0.000131907
0.000131907
0.000131907
0.000131906
0.000131906
0.000131906
0.000131906
0.000131905
0.000131905
0.000131905
0.000131905
0.000130648
0.000130775
0.000130974
0.000131233
0.000131532
0.000131849
0.000132168
0.000132487
0.000132797
0.00013308
0.000133334
0.00013356
0.000133748
0.000133897
0.000134012
0.000134096
0.000134148
0.000134172
0.000134185
0.000134201
0.000134231
0.000134278
0.000134338
0.000134405
0.000134469
0.000134526
0.000134571
0.000134603
0.000134624
0.000134635
0.000134639
0.000134637
0.000134633
0.000134626
0.000134619
)
;

boundaryField
{
    inlet
    {
        type            calculated;
        value           nonuniform List<scalar> 5(-0.000120347 -0.000122911 -0.000125475 -0.00012804 -0.000130604);
    }
    outlet
    {
        type            calculated;
        value           nonuniform 0();
    }
    wall
    {
        type            calculated;
        value           nonuniform 0();
    }
    wedge1
    {
        type            wedge;
        value           nonuniform List<scalar> 
344
(
2.16039e-17
1.97154e-17
1.62448e-17
1.45729e-17
1.20939e-17
1.05759e-17
8.25349e-18
8.03738e-18
5.84947e-18
5.03991e-18
4.11819e-18
3.88674e-18
3.34915e-18
2.92853e-18
1.43427e-18
1.32229e-18
9.95241e-19
1.25905e-18
1.13005e-18
1.07479e-18
3.69529e-19
5.08915e-19
4.57101e-19
-1.02219e-19
-4.61844e-20
-6.06259e-20
7.05388e-20
1.49851e-19
8.01427e-20
-9.26442e-19
1.75934e-19
-9.39964e-19
3.24855e-19
3.27696e-20
3.52065e-20
-3.26112e-19
3.02357e-19
-5.043e-21
6.60182e-19
-1.85773e-19
-3.65596e-18
-4.08613e-18
4.21121e-17
-5.41957e-18
-6.01705e-18
-3.07116e-17
-3.31819e-17
1.68793e-16
-3.82452e-17
-4.1404e-17
-5.82555e-17
-6.20375e-17
2.92617e-16
-7.08058e-17
-7.56657e-17
-8.29185e-17
-8.80519e-17
4.04873e-16
-9.99058e-17
-1.06391e-16
-1.03697e-16
-1.10031e-16
4.95735e-16
-1.23681e-16
-1.31416e-16
-1.19914e-16
-1.26906e-16
5.64447e-16
-1.41912e-16
-1.50449e-16
-1.3218e-16
-1.39367e-16
6.16546e-16
-1.54745e-16
-1.63061e-16
-1.42189e-16
-1.49836e-16
6.54907e-16
-1.65145e-16
-1.74029e-16
-1.48318e-16
-1.55725e-16
6.77703e-16
-1.71921e-16
-1.81937e-16
-1.52733e-16
-1.60208e-16
6.87345e-16
-1.74792e-16
-1.82752e-16
-1.49708e-16
-1.55882e-16
6.63249e-16
-1.68326e-16
-1.74998e-16
-1.45183e-16
-1.50791e-16
6.35333e-16
-1.61475e-16
-1.67678e-16
-1.40971e-16
-1.45514e-16
6.1143e-16
-1.549e-16
-1.59707e-16
-1.35767e-16
-1.39931e-16
5.80688e-16
-1.4642e-16
-1.50453e-16
-1.2684e-16
-1.29633e-16
5.35636e-16
-1.34356e-16
-1.36849e-16
-1.15184e-16
-1.17207e-16
4.79665e-16
-1.20079e-16
-1.21746e-16
-1.0344e-16
-1.04607e-16
4.24527e-16
-1.05702e-16
-1.06238e-16
-9.50328e-17
-9.56644e-17
3.83236e-16
-9.50657e-17
-9.50611e-17
-9.11063e-17
-9.11922e-17
3.67e-16
-8.99548e-17
-8.93913e-17
-9.36282e-17
-9.40475e-17
3.76917e-16
-9.26433e-17
-9.24883e-17
-9.95252e-17
-9.99671e-17
4.05402e-16
-9.92381e-17
-9.90769e-17
-1.06368e-16
-1.07536e-16
4.37918e-16
-1.07495e-16
-1.08152e-16
-1.11534e-16
-1.12722e-16
4.61612e-16
-1.13561e-16
-1.14154e-16
-1.13057e-16
-1.14705e-16
4.69211e-16
-1.15573e-16
-1.16827e-16
-1.10392e-16
-1.11593e-16
4.58652e-16
-1.12704e-16
-1.1345e-16
-1.0452e-16
-1.06201e-16
4.32147e-16
-1.06561e-16
-1.07855e-16
-9.59387e-17
-9.67799e-17
3.94957e-16
-9.72714e-17
-9.7628e-17
-8.61593e-17
-8.73897e-17
3.52276e-16
-8.65463e-17
-8.73978e-17
-7.58419e-17
-7.63872e-17
3.08211e-16
-7.55008e-17
-7.56881e-17
-6.59655e-17
-6.63812e-17
2.65646e-16
-6.48879e-17
-6.49751e-17
-5.68004e-17
-5.65888e-17
2.26907e-16
-5.54535e-17
-5.48893e-17
-4.85874e-17
-4.89809e-17
1.92349e-16
-4.69912e-17
-4.71284e-17
-4.15068e-17
-4.09916e-17
1.62777e-16
-3.96735e-17
-3.89486e-17
-3.53198e-17
-3.55579e-17
1.37192e-16
-3.33631e-17
-3.362e-17
-2.9684e-17
-3.00446e-17
1.15758e-16
-2.80428e-17
-2.83093e-17
-2.56581e-17
-2.5406e-17
9.74325e-17
-2.40124e-17
-2.37748e-17
-2.18638e-17
-2.11533e-17
8.22317e-17
-2.04488e-17
-1.865e-17
-1.85022e-17
6.93193e-17
-1.72735e-17
-1.58718e-17
-1.51394e-17
5.87246e-17
-1.47356e-17
-1.33343e-17
-1.3417e-17
4.95877e-17
-1.24685e-17
-1.0842e-17
-1.20458e-17
4.1943e-17
-1.02504e-17
-1.0037e-17
-9.57321e-18
3.54815e-17
-9.38674e-18
-8.66364e-18
-8.02668e-18
3.01523e-17
-7.93671e-18
-7.33783e-18
-7.01593e-18
2.5588e-17
-6.8554e-18
-6.51996e-18
-6.05205e-18
2.16115e-17
-6.0663e-18
-5.46419e-18
-5.41799e-18
1.83978e-17
-5.16911e-18
-5.03691e-18
-5.54138e-18
1.51298e-17
-5.07653e-18
-4.05459e-18
-3.89455e-18
1.3324e-17
-3.8641e-18
-4.07897e-18
-3.92346e-18
1.06585e-17
-4.0141e-18
-2.84e-18
-2.81371e-18
9.72656e-18
-2.63314e-18
-3.31636e-18
-3.29319e-18
7.26954e-18
-3.48617e-18
-2.18694e-18
-2.29149e-18
7.00692e-18
-2.01976e-18
-2.56954e-18
-2.65915e-18
5.04425e-18
-2.9579e-18
-1.71377e-18
-2.0262e-18
4.87279e-18
-1.65865e-18
-2.19435e-18
-2.16634e-18
3.5518e-18
-2.37165e-18
-1.1392e-18
-1.507e-18
3.69109e-18
-1.00617e-18
-1.28024e-18
-3.15638e-18
2.22639e-18
-1.57828e-18
-1.0826e-18
-8.6131e-19
2.57067e-18
-1.14578e-18
-1.68506e-18
-1.70865e-18
1.50039e-18
-1.77152e-18
-9.50602e-19
-8.28969e-19
1.70815e-18
-1.0516e-18
-1.4498e-18
-1.60534e-18
8.66543e-19
-1.51824e-18
-8.04024e-19
-7.23453e-19
1.04891e-18
-9.19014e-19
-1.41692e-18
-1.75362e-18
2.61846e-19
-1.53904e-18
-7.5358e-19
-7.35139e-19
5.48444e-19
-8.40155e-19
-1.25256e-18
-1.69499e-18
-1.3334e-20
-1.41825e-18
-5.56308e-19
-5.01024e-19
3.34689e-19
-6.33046e-19
-1.28023e-18
-1.93267e-18
-4.57399e-19
-1.54639e-18
)
;
    }
    wedge2
    {
        type            wedge;
        value           nonuniform List<scalar> 
344
(
1.98539e-17
1.61511e-17
1.5873e-17
1.32343e-17
1.18456e-17
9.90662e-18
9.24915e-18
6.90577e-18
6.85345e-18
5.75515e-18
5.08745e-18
3.94117e-18
3.32818e-18
2.72881e-18
3.40488e-18
2.79056e-18
2.51171e-18
1.72177e-18
1.40758e-18
1.08478e-18
1.47471e-18
1.06707e-18
8.90435e-19
1.24887e-18
1.02853e-18
8.97635e-19
6.40045e-19
4.62892e-19
4.41243e-19
1.34583e-18
2.03621e-19
1.26389e-18
-4.87402e-20
2.03159e-19
1.665e-19
4.99478e-19
-1.54735e-19
1.31558e-19
-5.52266e-19
2.77844e-19
-3.61258e-18
-4.34594e-18
4.16897e-17
-5.51665e-18
-6.38017e-18
-3.07058e-17
-3.28301e-17
1.6935e-16
-3.80862e-17
-4.08822e-17
-5.78167e-17
-6.18202e-17
2.93005e-16
-7.0523e-17
-7.56194e-17
-8.31667e-17
-8.84805e-17
4.04762e-16
-9.99327e-17
-1.06593e-16
-1.03491e-16
-1.09615e-16
4.95894e-16
-1.23679e-16
-1.31452e-16
-1.19252e-16
-1.26021e-16
5.64989e-16
-1.41235e-16
-1.4932e-16
-1.32357e-16
-1.39466e-16
6.16454e-16
-1.54992e-16
-1.6342e-16
-1.41898e-16
-1.48769e-16
6.55179e-16
-1.64715e-16
-1.72749e-16
-1.47994e-16
-1.55358e-16
6.78079e-16
-1.7149e-16
-1.81476e-16
-1.52495e-16
-1.59533e-16
6.87595e-16
-1.74598e-16
-1.82051e-16
-1.49689e-16
-1.55578e-16
6.63337e-16
-1.68255e-16
-1.7487e-16
-1.44649e-16
-1.49534e-16
6.3588e-16
-1.60798e-16
-1.66252e-16
-1.40768e-16
-1.45322e-16
6.11666e-16
-1.54434e-16
-1.59128e-16
-1.35384e-16
-1.38492e-16
5.80985e-16
-1.46061e-16
-1.48905e-16
-1.26686e-16
-1.29132e-16
5.35771e-16
-1.34135e-16
-1.36225e-16
-1.14899e-16
-1.1627e-16
4.8022e-16
-1.19403e-16
-1.20372e-16
-1.0306e-16
-1.03668e-16
4.25022e-16
-1.05146e-16
-1.05334e-16
-9.41067e-17
-9.39165e-17
3.83979e-16
-9.41801e-17
-9.32576e-17
-9.12724e-17
-9.08602e-17
3.67072e-16
-9.01924e-17
-8.89585e-17
-9.32268e-17
-9.24557e-17
3.7728e-16
-9.20352e-17
-9.04513e-17
-9.95164e-17
-9.92579e-17
4.05497e-16
-9.9387e-17
-9.84877e-17
-1.06618e-16
-1.06342e-16
4.38151e-16
-1.07351e-16
-1.06479e-16
-1.11532e-16
-1.11815e-16
4.62224e-16
-1.13197e-16
-1.13071e-16
-1.12851e-16
-1.12951e-16
4.69697e-16
-1.14903e-16
-1.14445e-16
-1.10313e-16
-1.10802e-16
4.59044e-16
-1.12388e-16
-1.12383e-16
-1.04017e-16
-1.03694e-16
4.33098e-16
-1.05336e-16
-1.04427e-16
-9.55225e-17
-9.55433e-17
3.96097e-16
-9.60375e-17
-9.55523e-17
-8.55616e-17
-8.46499e-17
3.53155e-16
-8.53934e-17
-8.38757e-17
-7.54039e-17
-7.4676e-17
3.08911e-16
-7.44924e-17
-7.31795e-17
-6.54633e-17
-6.44516e-17
2.66678e-16
-6.4125e-17
-6.25689e-17
-5.63197e-17
-5.56322e-17
2.27791e-16
-5.44431e-17
-5.33273e-17
-4.81459e-17
-4.66551e-17
1.93572e-16
-4.60461e-17
-4.41325e-17
-4.08735e-17
-4.01799e-17
1.63529e-16
-3.88154e-17
-3.77526e-17
-3.46685e-17
-3.31685e-17
1.38181e-16
-3.27467e-17
-3.07519e-17
-2.95709e-17
-2.80839e-17
1.16489e-16
-2.75077e-17
-2.57057e-17
-2.47144e-17
-2.37344e-17
9.84858e-17
-2.2883e-17
-2.15722e-17
-2.08656e-17
-2.03753e-17
8.31629e-17
-1.90958e-17
-1.76104e-17
-1.66133e-17
7.04504e-17
-1.61128e-17
-1.49148e-17
-1.45568e-17
5.95274e-17
-1.34864e-17
-1.28224e-17
-1.17104e-17
5.05788e-17
-1.14164e-17
-1.10269e-17
-9.23392e-18
4.30028e-17
-9.69544e-18
-8.87939e-18
-8.46312e-18
3.66358e-17
-7.78085e-18
-7.43599e-18
-7.27539e-18
3.11359e-17
-6.64052e-18
-6.37236e-18
-5.97508e-18
2.6545e-17
-5.53122e-18
-5.16061e-18
-4.98736e-18
2.27702e-17
-4.46921e-18
-4.49448e-18
-3.97046e-18
1.94119e-17
-3.79747e-18
-3.45098e-18
-2.65997e-18
1.71019e-17
-2.55578e-18
-3.19026e-18
-2.90467e-18
1.41665e-17
-2.63801e-18
-2.0981e-18
-1.8646e-18
1.27988e-17
-1.52704e-18
-2.43014e-18
-2.11833e-18
1.02974e-17
-2.09363e-18
-1.18708e-18
-9.0771e-19
9.8277e-18
-5.44154e-19
-1.65543e-18
-1.29174e-18
7.59452e-18
-1.41798e-18
-7.11105e-19
-3.95619e-19
7.43051e-18
2.53923e-20
-1.08612e-18
-5.79583e-19
5.78817e-18
-8.45026e-19
-1.98137e-19
-5.61499e-20
5.55485e-18
2.35217e-19
-9.01039e-19
-3.88817e-19
4.09289e-18
-8.17603e-19
-3.94055e-19
1.53672e-18
4.42645e-18
7.83263e-20
-4.08355e-19
-5.20259e-19
3.1152e-18
-1.84399e-19
4.12268e-19
5.29656e-19
3.35961e-18
6.35936e-19
-1.36489e-19
-1.77762e-19
2.44522e-18
8.22737e-20
5.21854e-19
7.45918e-19
2.68266e-18
6.90402e-19
8.67729e-21
-1.00026e-20
1.9851e-18
2.11099e-19
7.38325e-19
1.127e-18
2.3303e-18
9.34347e-19
1.73306e-19
2.00291e-19
1.66745e-18
3.2363e-19
7.56749e-19
1.23803e-18
1.9073e-18
9.76944e-19
1.33778e-19
1.10901e-19
1.28354e-18
2.55952e-19
9.18293e-19
1.59949e-18
1.84149e-18
1.22409e-18
)
;
    }
    axis
    {
        type            empty;
        value           nonuniform 0();
    }
    procBoundary18to12
    {
        type            processor;
        value           nonuniform List<scalar> 
68
(
1.84112e-06
1.63483e-06
1.43258e-06
1.24322e-06
1.07144e-06
9.18961e-07
7.85622e-07
6.70203e-07
5.70979e-07
4.86063e-07
4.13607e-07
3.51898e-07
2.99401e-07
2.54768e-07
2.1683e-07
1.84584e-07
1.57174e-07
1.33867e-07
1.14045e-07
9.71816e-08
8.28301e-08
7.06127e-08
6.02088e-08
5.13466e-08
4.37958e-08
3.73606e-08
3.18751e-08
2.71979e-08
2.32095e-08
1.98076e-08
1.69057e-08
1.443e-08
1.23175e-08
1.05149e-08
8.9765e-09
7.66348e-09
6.54282e-09
5.58623e-09
4.76963e-09
4.07252e-09
3.50668e-07
1.02483e-06
1.66804e-06
2.24787e-06
2.71445e-06
3.06603e-06
3.33136e-06
3.52021e-06
3.60928e-06
3.57172e-06
3.44079e-06
3.30202e-06
3.19018e-06
3.05606e-06
2.8504e-06
2.58578e-06
2.32144e-06
2.12794e-06
2.0582e-06
2.12156e-06
2.27592e-06
2.45004e-06
2.57784e-06
2.61993e-06
2.56654e-06
2.43002e-06
-0.000344137
2.23436e-06
)
;
    }
    procBoundary18to13
    {
        type            processor;
        value           uniform 0.000344805;
    }
    procBoundary18to19
    {
        type            processor;
        value           nonuniform List<scalar> 4(0.000123979 0.000126621 0.000129263 0.000131905);
    }
    procBoundary18to24
    {
        type            processor;
        value           nonuniform List<scalar> 
68
(
-4.85875e-07
-4.08678e-07
-3.44235e-07
-2.90362e-07
-2.45248e-07
-2.074e-07
-1.7559e-07
-1.48811e-07
-1.2623e-07
-1.07162e-07
-9.10389e-08
-7.73905e-08
-6.58248e-08
-5.60148e-08
-4.76873e-08
-4.06132e-08
-3.45998e-08
-2.94854e-08
-2.51334e-08
-2.14285e-08
-1.82733e-08
-1.55853e-08
-1.32948e-08
-1.13424e-08
-9.6778e-09
-8.2583e-09
-7.04768e-09
-6.01501e-09
-5.13398e-09
-4.38233e-09
-3.74094e-09
-5.31722e-07
-1.54965e-06
-2.50403e-06
-3.33888e-06
-3.99195e-06
-4.44068e-06
-4.73365e-06
-4.93045e-06
-4.98837e-06
-4.84642e-06
-4.58533e-06
-4.32774e-06
-4.08057e-06
-3.79063e-06
-3.43679e-06
-3.03258e-06
-2.63017e-06
-2.32341e-06
-2.20027e-06
-2.27857e-06
-2.49354e-06
-2.74053e-06
-2.9258e-06
-2.99395e-06
-2.93166e-06
-2.75762e-06
-2.50718e-06
-2.21827e-06
-1.92242e-06
-1.6413e-06
-1.3872e-06
-1.16513e-06
-9.75365e-07
-8.15484e-07
-6.81899e-07
0.000134611
-5.70758e-07
)
;
    }
}


// ************************************************************************* //
