/*--------------------------------*- C++ -*----------------------------------*\
  =========                 |
  \\      /  F ield         | OpenFOAM: The Open Source CFD Toolbox
   \\    /   O peration     | Website:  https://openfoam.org
    \\  /    A nd           | Version:  7
     \\/     M anipulation  |
\*---------------------------------------------------------------------------*/
FoamFile
{
    version     2.0;
    format      ascii;
    class       surfaceScalarField;
    location    "50.999592";
    object      phi;
}
// * * * * * * * * * * * * * * * * * * * * * * * * * * * * * * * * * * * * * //

dimensions      [0 3 -1 0 0 0 0];

internalField   nonuniform List<scalar> 
11413
(
-0.000357335
5.67574e-05
-0.000418454
6.09452e-05
-0.000483674
6.50283e-05
-0.000552813
6.89292e-05
-0.000625564
7.25242e-05
-0.000701482
7.56754e-05
-0.000780037
7.83015e-05
-0.000860992
8.07007e-05
8.36045e-05
-3.7441e-06
7.54947e-06
-1.40911e-05
2.08513e-05
-3.07241e-05
3.35093e-05
-5.33006e-05
4.54781e-05
-8.14594e-05
5.6726e-05
-0.000114843
6.7267e-05
-0.00015312
7.71562e-05
-0.000196
8.64852e-05
-0.000243248
9.53693e-05
-0.000294685
0.000103926
-0.000350174
0.000112246
-0.000409591
0.000120363
-0.000472783
0.000128219
-0.000539505
0.000135652
-0.000609376
0.000142395
-0.000681841
0.000148141
-0.000756182
0.000152643
-0.000831841
0.00015636
0.000161023
-3.606e-06
1.11555e-05
-1.35929e-05
3.08382e-05
-2.96633e-05
4.95797e-05
-5.14834e-05
6.72982e-05
-7.869e-05
8.39327e-05
-0.000110913
9.94896e-05
-0.000147793
0.000114037
-0.000189005
0.000127696
-0.000234261
0.000140625
-0.000283318
0.000152983
-0.000335962
0.000164891
-0.000391979
0.00017638
-0.00045111
0.000187349
-0.000512988
0.00019753
-0.000577075
0.000206482
-0.000642613
0.000213679
-0.000708531
0.000218561
-0.000773574
0.000221402
0.000225785
-3.40672e-06
1.45622e-05
-1.28718e-05
4.03033e-05
-2.81237e-05
6.48316e-05
-4.88389e-05
8.80134e-05
-7.46494e-05
0.000109743
-0.000105163
0.000130003
-0.000139983
0.000148857
-0.000178723
0.000166437
-0.000221022
0.000182924
-0.000266537
0.000198499
-0.000314936
0.000213289
-0.000365863
0.000227307
-0.000418896
0.000240382
-0.000473478
0.000252112
-0.000528834
0.000261838
-0.000583909
0.000268754
-0.000637185
0.000271837
-0.000686193
0.00027041
0.000271926
-3.15531e-06
1.77175e-05
-1.1958e-05
4.9106e-05
-2.6165e-05
7.90386e-05
-4.54617e-05
0.00010731
-6.94696e-05
0.000133751
-9.77653e-05
0.000158299
-0.000129898
0.000180989
-0.000165404
0.000201943
-0.000203816
0.000221336
-0.00024466
0.000239342
-0.000287438
0.000256067
-0.0003316
0.000271468
-0.000376492
0.000285275
-0.000421291
0.000296911
-0.000464891
0.000305437
-0.000505841
0.000309704
-0.000542194
0.00030819
-0.000569537
0.000297753
0.000293493
-2.86312e-06
2.05806e-05
-1.08895e-05
5.71324e-05
-2.38622e-05
9.20114e-05
-4.14706e-05
0.000124918
-6.33175e-05
0.000155598
-8.89361e-05
0.000183918
-0.000117806
0.000209859
-0.000149363
0.000233501
-0.000183006
0.00025498
-0.00021809
0.000274427
-0.000253906
0.000291883
-0.000289645
0.000307207
-0.000324346
0.000319976
-0.000356823
0.000329388
-0.000385528
0.000334143
-0.000408467
0.000332643
-0.00042344
0.000323164
-0.000423243
0.000297556
-0.000413457
0.000283707
0.000200397
-2.54317e-06
2.31238e-05
-9.70976e-06
6.4299e-05
-2.13019e-05
0.000103604
-3.70031e-05
0.00014062
-5.63859e-05
0.000174981
-7.89261e-05
0.000206458
-0.000104014
0.000234947
-0.000130964
0.00026045
-0.00015901
0.000283025
-0.000187294
0.000302711
-0.000214843
0.000319432
-0.000240519
0.000332883
-0.000262963
0.00034242
-0.000280513
0.000346939
-0.000291043
0.000344672
-0.000291734
0.000333334
-0.000280394
0.000311824
-0.000246942
0.000264104
-0.000196206
0.000232971
0.000103335
-2.20944e-06
2.53332e-05
-8.46575e-06
7.05553e-05
-1.85772e-05
0.000113715
-3.22072e-05
0.00015425
-4.88832e-05
0.000191657
-6.80058e-05
0.00022558
-8.8857e-05
0.000255798
-0.000110601
0.000282194
-0.000132275
0.000304699
-0.000152766
0.000323203
-0.000170775
0.000337441
-0.000184756
0.000346865
-0.000192846
0.00035051
-0.00019277
0.000346863
-0.000181702
0.000333603
-0.000155542
0.000307174
-0.000111447
0.000267729
-4.18039e-05
0.000194461
6.34964e-05
0.000127671
-5.23591e-05
-1.87605e-06
2.72093e-05
-7.20471e-06
7.58839e-05
-1.57818e-05
0.000122292
-2.72326e-05
0.0001657
-4.10194e-05
0.000205443
-5.64477e-05
0.000241009
-7.26671e-05
0.000272018
-8.86635e-05
0.000298191
-0.00010324
0.000319275
-0.000114977
0.00033494
-0.000122185
0.000344648
-0.000122819
0.000347499
-0.000114389
0.000342079
-9.38269e-05
0.000326301
-5.74419e-05
0.000297218
-1.14874e-06
0.000250881
8.39219e-05
0.000182659
0.000203004
7.53785e-05
0.000358212
-2.75368e-05
-0.000288354
-1.55636e-06
2.87656e-05
-5.97126e-06
8.02988e-05
-1.30044e-05
0.000129325
-2.22195e-05
0.000174915
-3.2991e-05
0.000216215
-4.45045e-05
0.000252522
-5.57495e-05
0.000283263
-6.55004e-05
0.000307942
-7.22815e-05
0.000326056
-7.43121e-05
0.000336971
-6.94296e-05
0.000339765
-5.49865e-05
0.000333056
-2.77197e-05
0.000314812
1.64035e-05
0.000282178
8.23899e-05
0.000231232
0.000176838
0.000156433
0.000305635
5.38616e-05
0.000484264
-0.000103251
0.000704348
-0.000247621
-0.000613934
0.00102993
-1.26206e-06
3.00277e-05
-4.80404e-06
8.38408e-05
-1.0321e-05
0.000134842
-1.72875e-05
0.000181882
-2.49628e-05
0.00022389
-3.23837e-05
0.000259943
-3.83464e-05
0.000289226
-4.13729e-05
0.000310968
-3.96568e-05
0.00032434
-3.09843e-05
0.000328299
-1.26287e-05
0.00032141
1.87883e-05
0.000301639
6.74681e-05
0.000266132
0.000138636
0.00021101
0.000238698
0.000131171
0.000376057
1.90735e-05
0.000558759
-0.00012884
0.000804744
-0.000349236
0.001104
-0.000546876
-0.00104077
0.00153084
-1.00221e-06
3.10299e-05
-3.73237e-06
8.6571e-05
-7.788e-06
0.000138898
-1.25232e-05
0.000186617
-1.70498e-05
0.000228417
-2.0221e-05
0.000263114
-2.05993e-05
0.000289604
-1.64037e-05
0.000306772
-5.43081e-06
0.000313367
1.50533e-05
0.000307814
4.84557e-05
0.000288007
9.90335e-05
0.000251061
0.000172111
0.000193054
0.000274328
0.000108793
0.000413762
-8.26307e-06
0.000600542
-0.000167707
0.000846131
-0.000374429
0.00116758
-0.000670687
0.00155877
-0.000938068
-0.00157727
0.00209528
-7.82372e-07
3.18123e-05
-2.77306e-06
8.85617e-05
-5.43552e-06
0.00014156
-7.96791e-06
0.000189149
-9.29761e-06
0.000229747
-8.05206e-06
0.000261869
-2.51003e-06
0.000284062
9.4765e-06
0.000294786
3.05922e-05
0.000292251
6.42011e-05
0.000274206
0.000114531
0.000237678
0.000186893
0.000178699
0.000287934
9.20141e-05
0.000425908
-2.91812e-05
0.00061078
-0.000193135
0.000853975
-0.000410902
0.00117116
-0.00069161
0.00157472
-0.00107425
0.00206659
-0.00142993
-0.00222222
0.00271153
-6.03773e-07
3.2416e-05
-1.92751e-06
8.98854e-05
-3.26105e-06
0.000142894
-3.60727e-06
0.000189496
-1.66428e-06
0.000227804
4.21194e-06
0.000255992
1.60928e-05
0.000272181
3.65757e-05
0.000274303
6.89301e-05
0.000259897
0.000117285
0.00022585
0.000186855
0.000168108
0.000284192
8.13615e-05
0.000417444
-4.12369e-05
0.000596578
-0.000208316
0.000833486
-0.000430043
0.00114018
-0.000717596
0.00153552
-0.00108695
0.00202467
-0.00156341
0.00261845
-0.00202371
-0.00295857
0.0033548
-4.62754e-07
3.28788e-05
-1.17973e-06
9.06024e-05
-1.22428e-06
0.000142938
6.39786e-07
0.000187632
5.98455e-06
0.000222459
1.68016e-05
0.000245175
3.55835e-05
0.000253399
6.54751e-05
0.000244411
0.00011046
0.000214912
0.00017559
0.000160721
0.000267239
7.64585e-05
0.000393368
-4.47676e-05
0.000563716
-0.000211585
0.000789838
-0.000434438
0.00108509
-0.000725299
0.00146136
-0.00109386
0.00193673
-0.00156232
0.00250883
-0.00213551
0.00319438
-0.00270926
-0.00375128
0.00398709
-3.50549e-07
3.32293e-05
-4.94657e-07
9.07465e-05
7.51996e-07
0.000141692
4.90912e-06
0.000183475
1.38956e-05
0.000213472
3.01039e-05
0.000228967
5.65464e-05
0.000226957
9.70363e-05
0.000203922
0.000156417
0.000155531
0.000240821
7.63163e-05
0.000357939
-4.06596e-05
0.000517216
-0.000204045
0.000729874
-0.000424243
0.00100855
-0.000713117
0.00136678
-0.00108352
0.00181538
-0.00154247
0.00236559
-0.00211252
0.00300851
-0.00277843
0.00376118
-0.00346193
-0.00455266
0.00456256
-2.53439e-07
3.34828e-05
1.80917e-07
9.03121e-05
2.78154e-06
0.000139091
9.42223e-06
0.000176834
2.24157e-05
0.000200479
4.46502e-05
0.000206732
7.97646e-05
0.000191842
0.000132372
0.000151314
0.000208323
7.95802e-05
0.000314974
-3.03342e-05
0.000461395
-0.000187081
0.000658406
-0.000401055
0.000918245
-0.000684083
0.00125361
-0.00104848
0.00167596
-0.00150587
0.00219323
-0.00205974
0.0028044
-0.00272369
0.00349505
-0.00346909
0.00427556
-0.00424243
-0.00531396
0.00503686
-1.53757e-07
3.36365e-05
9.04729e-07
8.92536e-05
5.01849e-06
0.000134977
1.44464e-05
0.000167406
3.19791e-05
0.000182946
6.10953e-05
0.000177616
0.000106178
0.00014676
0.000172772
8.47197e-05
0.000267861
-1.55092e-05
0.000400088
-0.000162561
0.000579806
-0.000366799
0.000818784
-0.000640034
0.0011293
-0.000994596
0.00152238
-0.00144157
0.00200476
-0.00198825
0.0025782
-0.00263318
0.00322746
-0.00337295
0.00393389
-0.00417552
0.00469432
-0.00500286
-0.0059972
0.00537756
-2.96821e-08
3.36662e-05
1.77052e-06
8.74534e-05
7.639e-06
0.000129109
2.02945e-05
0.00015475
4.3083e-05
0.000160158
8.01737e-05
0.000140526
0.00013681
9.0124e-05
0.000219579
1.95076e-06
0.000336661
-0.000132592
0.000497904
-0.000323803
0.00071458
-0.000583476
0.000998551
-0.000924004
0.00136056
-0.0013566
0.00180764
-0.00188865
0.00233923
-0.00251983
0.00294745
-0.0032414
0.00360534
-0.00403083
0.0042918
-0.00486199
0.00498711
-0.00569816
-0.00658263
0.00557253
1.46552e-07
3.35197e-05
2.86118e-06
8.47388e-05
1.08326e-05
0.000121137
2.73011e-05
0.000138282
5.62508e-05
0.000131208
0.000102639
9.41374e-05
0.000172665
2.00981e-05
0.000274026
-9.94101e-05
0.000416031
-0.000274598
0.000609442
-0.000517214
0.000865723
-0.000839757
0.00119547
-0.00125375
0.00160583
-0.00176696
0.0020973
-0.00238012
0.00266031
-0.00308285
0.00327601
-0.00385711
0.00391182
-0.00466664
0.00454546
-0.00549563
0.00514346
-0.00629616
-0.00708091
0.00564174
3.93649e-07
3.3126e-05
4.2637e-06
8.08688e-05
1.47892e-05
0.000110612
3.57968e-05
0.000117274
7.19878e-05
9.5017e-05
0.00012919
3.6935e-05
0.000214618
-6.53298e-05
0.000337037
-0.000221829
0.000506666
-0.000444227
0.000734582
-0.000745129
0.0010313
-0.00113648
0.00140436
-0.00162682
0.00185509
-0.00221769
0.00237552
-0.00290054
0.00294695
-0.00365428
0.00354207
-0.00445223
0.00412988
-0.00525445
0.00468878
-0.00605453
0.0051866
-0.00679397
-0.00754532
0.00565101
7.37173e-07
3.23888e-05
6.06079e-06
7.55451e-05
1.96849e-05
9.69879e-05
4.60811e-05
9.08781e-05
9.07344e-05
5.03637e-05
0.000160395
-3.27257e-05
0.000263277
-0.000168211
0.000409046
-0.000367598
0.000608369
-0.00064355
0.000871708
-0.00100847
0.00120711
-0.00147188
0.0016171
-0.0020368
0.00209539
-0.00269598
0.00262515
-0.0034303
0.00318065
-0.00420978
0.00373186
-0.00500344
0.00425437
-0.00577696
0.00472956
-0.00652973
0.00515815
-0.00722256
-0.0079439
0.00555673
1.19653e-06
3.11923e-05
8.3237e-06
6.8418e-05
2.56688e-05
7.96428e-05
5.8398e-05
5.81489e-05
0.000112823
-4.06111e-06
0.000196615
-0.000116518
0.000318874
-0.000290469
0.000489821
-0.000538546
0.000719837
-0.000873567
0.00101752
-0.00130615
0.00138674
-0.0018411
0.00182329
-0.00247335
0.00231268
-0.00318537
0.0028309
-0.00394852
0.00334939
-0.00472827
0.00384167
-0.00549572
0.00429196
-0.00622726
0.00469364
-0.00693141
0.00505758
-0.0075865
-0.00827897
0.00539265
1.78746e-06
2.94049e-05
1.11081e-05
5.90973e-05
3.2853e-05
5.78979e-05
7.2915e-05
1.80869e-05
0.00013844
-6.9586e-05
0.000237947
-0.000216026
0.000381173
-0.000433696
0.000578345
-0.000735717
0.000838556
-0.00113378
0.00116708
-0.00163468
0.00156204
-0.00223605
0.00201165
-0.00292297
0.00249429
-0.003668
0.00298234
-0.00443657
0.00344943
-0.00519536
0.00387679
-0.00592308
0.00425886
-0.00660933
0.00459831
-0.00727085
0.00491053
-0.00789872
-0.00857476
0.00520633
2.52137e-06
2.68835e-05
1.44519e-05
4.71668e-05
4.13056e-05
3.10443e-05
8.97098e-05
-3.03173e-05
0.0001676
-0.000147476
0.000284176
-0.000332602
0.00044941
-0.00059893
0.000672762
-0.000959069
0.000960841
-0.00142186
0.00131416
-0.001988
0.00172406
-0.00264596
0.00217174
-0.00337064
0.00263114
-0.0041274
0.00307543
-0.00488086
0.00348446
-0.00560438
0.00384886
-0.00628748
0.00417167
-0.00693214
0.00446146
-0.00756064
0.00473521
-0.00817248
-0.00884031
0.00500076
3.40541e-06
2.34781e-05
1.83748e-05
3.21973e-05
5.10477e-05
-1.62859e-06
0.00010876
-8.80291e-05
0.000200126
-0.000238842
0.000334749
-0.000467224
0.000522265
-0.000786446
0.000770413
-0.00120722
0.00108205
-0.0017335
0.00145184
-0.00235779
0.00186434
-0.00305845
0.00229562
-0.00380193
0.00271895
-0.00455073
0.00311213
-0.00527405
0.00346322
-0.00595547
0.00377147
-0.00659574
0.00404571
-0.00720639
0.00429714
-0.00781207
0.00454132
-0.00841666
-0.00908211
0.00478312
4.4428e-06
1.90353e-05
2.28781e-05
1.3762e-05
6.20516e-05
-4.0802e-05
0.000129937
-0.000155915
0.000235644
-0.000344549
0.000388768
-0.000620349
0.000597886
-0.000995564
0.000867958
-0.00147729
0.00119699
-0.00206253
0.00157336
-0.00273416
0.00197603
-0.00346112
0.00237894
-0.00420483
0.00275824
-0.00493004
0.00309874
-0.00561454
0.0033966
-0.00625332
0.0036575
-0.00685664
0.00389315
-0.00744204
0.00411484
-0.00803376
0.00433564
-0.00863746
-0.00930434
0.00455788
5.6332e-06
1.34021e-05
2.79452e-05
-8.55e-06
7.42399e-05
-8.70968e-05
0.000153008
-0.000234683
0.000273575
-0.000465116
0.000445002
-0.000791776
0.000673962
-0.00122452
0.000961614
-0.00176494
0.00130042
-0.00240134
0.00167299
-0.00310673
0.00205485
-0.00384298
0.00242105
-0.00457103
0.00275322
-0.0052622
0.00304371
-0.00590503
0.00329533
-0.00650495
0.00351762
-0.00707892
0.00372282
-0.00764724
0.00392091
-0.00823185
0.00412216
-0.00883872
-0.00950897
0.00432679
6.97279e-06
6.42928e-06
3.3541e-05
-3.51182e-05
8.74847e-05
-0.00014104
0.000177628
-0.000324826
0.000313143
-0.000600631
0.000501919
-0.000980552
0.000747846
-0.00147045
0.00104747
-0.00206457
0.00138767
-0.00274154
0.00174668
-0.00346573
0.00209933
-0.00419563
0.00242441
-0.00489611
0.00271023
-0.00554802
0.00295589
-0.0061507
0.00316877
-0.00671782
0.00335997
-0.00727012
0.00354078
-0.00782805
0.00371929
-0.00841036
0.00390317
-0.0090226
-0.00969711
0.00409131
8.45387e-06
-2.02459e-06
3.96112e-05
-6.62756e-05
0.000101605
-0.000203034
0.000203344
-0.000426565
0.000353389
-0.000750676
0.000557754
-0.00118492
0.000816741
-0.00172944
0.00112187
-0.0023697
0.00145513
-0.0030748
0.00179244
-0.00380303
0.00211049
-0.00451368
0.0023935
-0.00517913
0.00263635
-0.00579087
0.00284335
-0.00635769
0.00302434
-0.00689881
0.00319037
-0.00743615
0.00335101
-0.00798869
0.0035124
-0.00857175
0.00368008
-0.00919028
-0.00986923
0.0038522
1.00641e-05
-1.20887e-05
4.60807e-05
-0.000102292
0.000116367
-0.000273321
0.0002296
-0.000539798
0.000393203
-0.000914278
0.000610605
-0.00140232
0.000877925
-0.00199676
0.00118178
-0.00267355
0.00150059
-0.00339362
0.00181024
-0.00411268
0.00209124
-0.00479469
0.00233381
-0.0054217
0.00253842
-0.00599548
0.00271279
-0.00653207
0.0028676
-0.00705362
0.00301281
-0.00758136
0.00315604
-0.00813192
0.00330173
-0.00871744
0.00345378
-0.00934233
-0.0100255
0.00361004
1.1787e-05
-2.38757e-05
5.28521e-05
-0.000143357
0.000131482
-0.000351951
0.000255749
-0.000664064
0.000431369
-0.0010899
0.000658563
-0.00162951
0.000928991
-0.00226718
0.00122503
-0.00296958
0.00152331
-0.00369191
0.00180167
-0.00439104
0.00204559
-0.00503861
0.00225094
-0.00562704
0.0024224
-0.00616694
0.00256951
-0.00667918
0.00270256
-0.00718667
0.00282995
-0.00770875
0.00295747
-0.00825944
0.00308821
-0.00884818
0.00322487
-0.00947899
-0.0101659
0.00336527
1.35992e-05
-3.74749e-05
5.98051e-05
-0.000189563
0.000146614
-0.00043876
0.000281073
-0.000798523
0.000466636
-0.00127546
0.000699849
-0.00186273
0.000968044
-0.00253538
0.00125049
-0.00325203
0.00152386
-0.00396528
0.00176944
-0.00463662
0.00197796
-0.00524712
0.00215005
-0.00579914
0.0022932
-0.00631008
0.00241744
-0.00680342
0.00253198
-0.00730121
0.00264354
-0.00782032
0.00275635
-0.00837224
0.0028725
-0.00896432
0.00299382
-0.00960031
-0.0102904
0.00311829
1.54717e-05
-5.29466e-05
6.67981e-05
-0.00024089
0.000161388
-0.000533349
0.00030482
-0.000941955
0.000497791
-0.00146843
0.000732955
-0.00209789
0.000993845
-0.00279627
0.00125803
-0.00351621
0.00150383
-0.00421108
0.00171682
-0.00484961
0.00189266
-0.00542297
0.00203563
-0.0059421
0.00215467
-0.00642913
0.00225946
-0.0069082
0.00235776
-0.00739951
0.00245474
-0.0079173
0.00255338
-0.00847088
0.00265507
-0.00906601
0.00276103
-0.00970628
-0.0103988
0.00286946
1.73694e-05
-7.0316e-05
7.36717e-05
-0.000297192
0.000175402
-0.00063508
0.00032624
-0.00109279
0.000523748
-0.00166594
0.000756749
-0.00233089
0.00100585
-0.00304537
0.00124837
-0.00375873
0.00146547
-0.00442818
0.00164727
-0.00503141
0.00179364
-0.00556934
0.00191133
-0.00605979
0.00200975
-0.00652755
0.0020976
-0.00699606
0.00218119
-0.00748309
0.00226433
-0.00800045
0.00234907
-0.00855561
0.00243632
-0.00915327
0.00252688
-0.00979683
-0.0104911
0.00261915
1.92525e-05
-8.95685e-05
8.0254e-05
-0.000358193
0.000188251
-0.000743077
0.000344631
-0.00124917
0.000543612
-0.00186492
0.000770541
-0.00255782
0.00100417
-0.00327899
0.00122286
-0.00397743
0.00141136
-0.00461668
0.00156411
-0.00518416
0.00168429
-0.00568952
0.00178007
-0.00615556
0.00186059
-0.00660807
0.00193332
-0.00706879
0.00200317
-0.00755294
0.00207289
-0.00807017
0.00214384
-0.00862657
0.00221662
-0.00922605
0.0022917
-0.00987191
-0.0105671
0.00236771
2.10771e-05
-0.000110646
8.63679e-05
-0.000423484
0.000199541
-0.00085625
0.000359381
-0.00140901
0.000556742
-0.00206228
0.000774092
-0.00277517
0.000989453
-0.00349435
0.00118328
-0.00417126
0.00134416
-0.00477756
0.00147035
-0.00531035
0.00156741
-0.00578657
0.00164408
-0.00623224
0.00170876
-0.00667275
0.0017676
-0.00712763
0.00182433
-0.00760967
0.00188085
-0.00812669
0.00193804
-0.00868376
0.0019963
-0.00928431
0.00205584
-0.00993145
-0.0106267
0.0021155
2.27975e-05
-0.000133443
9.18394e-05
-0.000492526
0.000208917
-0.000973327
0.000370004
-0.0015701
0.000562771
-0.00225505
0.000767577
-0.00297998
0.000962774
-0.00368955
0.00113159
-0.00434008
0.0012664
-0.00491237
0.00136859
-0.00541254
0.00144525
-0.00586323
0.00150506
-0.00629205
0.0015554
-0.00672309
0.00160119
-0.00717342
0.00164515
-0.00765362
0.00168857
-0.00817011
0.001732
-0.00872719
0.00177567
-0.00932798
0.00181963
-0.00997541
-0.01067
0.00186289
2.43678e-05
-0.000157811
9.65056e-05
-0.000564664
0.000216076
-0.0010929
0.00037616
-0.00173018
0.000561607
-0.0024405
0.000751514
-0.00316988
0.000925456
-0.00386349
0.0010698
-0.00448442
0.00118038
-0.00502296
0.00126102
-0.00549318
0.00131959
-0.0059218
0.00136428
-0.00633675
0.00140136
-0.00676017
0.00143463
-0.0072067
0.00146602
-0.00768502
0.00149638
-0.00820047
0.00152602
-0.00875683
0.00155507
-0.00935703
0.00158342
-0.0100038
-0.0106968
0.00161025
2.57439e-05
-0.000183555
0.000100222
-0.000639142
0.000220786
-0.00121346
0.00037767
-0.00188707
0.000553412
-0.00261624
0.000726682
-0.00334315
0.000878953
-0.00401576
0.000999817
-0.00460528
0.00108813
-0.00511127
0.00114942
-0.00555446
0.0011918
-0.00596418
0.00122269
-0.00636764
0.00124725
-0.00678472
0.00126833
-0.00722778
0.00128727
-0.00770395
0.00130458
-0.00821778
0.00132041
-0.00877266
0.0013348
-0.00937142
0.00134754
-0.0100165
-0.0107072
0.00135795
2.68854e-05
-0.00021044
0.000102871
-0.000715128
0.000222889
-0.00133348
0.000374513
-0.00203869
0.000538556
-0.00278028
0.000694028
-0.00349862
0.000824745
-0.00414648
0.000923412
-0.00470395
0.000991364
-0.00517922
0.00103523
-0.00559833
0.00106294
-0.00599189
0.001081
-0.0063857
0.00109354
-0.00679726
0.00110265
-0.00723689
0.00110918
-0.00771049
0.00111344
-0.00822203
0.00111544
-0.00877466
0.00111516
-0.00937114
0.00111233
-0.0100137
-0.0107013
0.00110643
2.77576e-05
-0.000238198
0.000104363
-0.000791734
0.000222311
-0.00145143
0.000366806
-0.00218319
0.000517569
-0.00293105
0.000654588
-0.00363564
0.000764263
-0.00425616
0.000842147
-0.00478183
0.000891517
-0.00522859
0.00091959
-0.0056264
0.00093382
-0.00600612
0.000939753
-0.00639164
0.000940607
-0.00679811
0.000937863
-0.00723414
0.000932036
-0.00770466
0.000923234
-0.00821323
0.000911396
-0.00876283
0.000896441
-0.00935619
0.000878111
-0.00999533
-0.0106791
0.000855875
2.83322e-05
-0.00026653
0.000104642
-0.000868044
0.000219057
-0.00156584
0.000354789
-0.00231892
0.00049109
-0.00306735
0.000609423
-0.00375398
0.000698833
-0.00434557
0.000757378
-0.00484038
0.000789765
-0.00526098
0.000803394
-0.00564003
0.000805053
-0.00600778
0.000799362
-0.00638595
0.000788761
-0.00678751
0.00077425
-0.00721963
0.000756084
-0.0076865
0.000734239
-0.00819138
0.000708567
-0.00873715
0.000678919
-0.00932654
0.000645087
-0.00996149
-0.0106406
0.000606543
2.85884e-05
-0.000295118
0.000103684
-0.000943139
0.000213198
-0.00167536
0.000338793
-0.00244451
0.000459819
-0.00318837
0.000559565
-0.00385372
0.000629651
-0.00441565
0.000670253
-0.00488098
0.000687061
-0.00527779
0.000687342
-0.00564031
0.000677123
-0.00599756
0.000660166
-0.00636899
0.000638268
-0.00676561
0.000612051
-0.00719342
0.00058158
-0.00765603
0.000546718
-0.00815652
0.000507255
-0.00869769
0.000462966
-0.00928225
0.000413475
-0.009912
-0.0105856
0.000358542
2.85135e-05
-0.000323632
0.000101496
-0.00101612
0.000204871
-0.00177873
0.000319216
-0.00255886
0.000424477
-0.00329363
0.000505985
-0.00393523
0.000557769
-0.00446744
0.000581735
-0.00490494
0.000584167
-0.00528022
0.000571979
-0.00562812
0.000550406
-0.00597599
0.000522445
-0.00634103
0.000489363
-0.00673253
0.000451495
-0.00715555
0.000408764
-0.0076133
0.00036093
-0.00810868
0.000307722
-0.00864448
0.000248986
-0.00922352
0.000183919
-0.00984694
-0.0105132
0.000111476
2.81026e-05
-0.000351735
9.81159e-05
-0.00108613
0.000194258
-0.00187487
0.000296494
-0.00266109
0.000385775
-0.00338291
0.000449571
-0.00399903
0.000484098
-0.00450196
0.000492617
-0.00491346
0.000481692
-0.00526929
0.000457735
-0.00560417
0.000425207
-0.00594346
0.000386433
-0.00630225
0.000342265
-0.00668836
0.000292804
-0.00710609
0.000237855
-0.00755835
0.000177139
-0.00804797
0.00011015
-0.00857749
3.6687e-05
-0.00915005
-4.23273e-05
-0.00976792
-0.0104236
-0.000131947
2.73585e-05
-0.000379093
9.36044e-05
-0.00115238
0.000181578
-0.00196285
0.000271081
-0.0027506
0.000344389
-0.00345622
0.000391119
-0.00404576
0.000409411
-0.00452026
0.000403547
-0.0049076
0.000380119
-0.00524587
0.000344951
-0.005569
0.000301775
-0.00590029
0.000252343
-0.00625282
0.000197166
-0.00663319
0.000136181
-0.0070451
6.90002e-05
-0.00749117
-4.75552e-06
-0.00797421
-8.49926e-05
-0.00849726
-0.000172286
-0.00906276
-0.000267856
-0.00967235
-0.0103198
-0.000371598
2.62907e-05
-0.000405384
8.80423e-05
-0.00121413
0.000167072
-0.00204188
0.000243431
-0.00282696
0.000300949
-0.00351374
0.000331326
-0.00407614
0.00033436
-0.00452329
0.000315052
-0.00488829
0.000279834
-0.00521065
0.000233901
-0.00552306
0.000180313
-0.0058467
0.000120366
-0.00619287
5.41661e-05
-0.00656699
-1.83548e-05
-0.00697258
-9.73161e-05
-0.00741221
-0.00018344
-0.00788809
-0.000277282
-0.00840341
-0.00037894
-0.0089611
-0.000489577
-0.00956171
-0.0102007
-0.000608683
2.49146e-05
-0.000430298
8.15254e-05
-0.00127074
0.000150992
-0.00211134
0.000213979
-0.00288994
0.000256025
-0.00355579
0.000270797
-0.00409091
0.000259485
-0.00451198
0.000227556
-0.00485636
0.000181144
-0.00516424
0.000124819
-0.00546674
6.09404e-05
-0.00578282
-9.59572e-06
-0.00612234
-8.63066e-05
-0.00649027
-0.000169931
-0.00688896
-0.000260962
-0.00732117
-0.000359738
-0.00778931
-0.000466836
-0.00829632
-0.000582696
-0.00884524
-0.000708014
-0.0094364
-0.0100661
-0.000842625
2.32507e-05
-0.000453549
7.41599e-05
-0.00132165
0.000133593
-0.00217078
0.000183138
-0.00293949
0.000210129
-0.00358278
0.000210051
-0.00409083
0.000185235
-0.00448716
0.0001414
-0.00481253
8.42939e-05
-0.00510713
1.7725e-05
-0.00540017
-5.60163e-05
-0.00570908
-0.000136531
-0.00604182
-0.000224144
-0.00640266
-0.000319051
-0.00679405
-0.00042186
-0.00721837
-0.000533091
-0.00767808
-0.000653318
-0.00817609
-0.00078313
-0.00871543
-0.000923007
-0.00929652
-0.00991618
-0.00107293
2.13232e-05
-0.000474872
6.6058e-05
-0.00136639
0.000115125
-0.00221984
0.000151291
-0.00297566
0.000163713
-0.0035952
0.000149529
-0.00407665
0.000111978
-0.00444961
5.68466e-05
-0.00475739
-1.06488e-05
-0.00503963
-8.67573e-05
-0.00532406
-0.000170391
-0.00562544
-0.00026114
-0.00595107
-0.000359315
-0.00630449
-0.000465331
-0.00668804
-0.000579768
-0.00710393
-0.000703257
-0.00755459
-0.000836444
-0.0080429
-0.000979994
-0.00857188
-0.0011343
-0.00914221
-0.0097512
-0.00129929
1.91599e-05
-0.000494032
5.7335e-05
-0.00140456
9.58283e-05
-0.00225834
0.000118788
-0.00299862
0.000117173
-0.00359358
8.95999e-05
-0.00404907
4.0021e-05
-0.00440003
-2.58427e-05
-0.00469153
-0.000103022
-0.00496245
-0.000188874
-0.00523821
-0.000282226
-0.00553209
-0.000383018
-0.00585028
-0.000491625
-0.00619588
-0.000608571
-0.00657109
-0.000734475
-0.00697803
-0.000870026
-0.00741904
-0.00101596
-0.00789697
-0.00117303
-0.00841481
-0.00134161
-0.00897363
-0.00957142
-0.00152138
1.67918e-05
-0.000510824
4.81058e-05
-0.00143588
7.59339e-05
-0.00228616
8.5947e-05
-0.00300863
7.08484e-05
-0.00357849
3.06097e-05
-0.00400883
-3.03789e-05
-0.00433904
-0.00010643
-0.00461548
-0.000193225
-0.00487566
-0.000288456
-0.00514298
-0.00039135
-0.0054292
-0.000502014
-0.00573962
-0.000620903
-0.00607699
-0.000748607
-0.00644339
-0.000885787
-0.00684085
-0.00103319
-0.00727164
-0.00119162
-0.00773853
-0.00136198
-0.00824445
-0.00154463
-0.00879098
-0.00937712
-0.00173893
1.42546e-05
-0.000525079
3.84826e-05
-0.0014601
5.5659e-05
-0.00230334
5.30517e-05
-0.00300602
2.51318e-05
-0.00355057
-2.7256e-05
-0.00395645
-9.90571e-05
-0.00426724
-0.000184905
-0.00452963
-0.000280971
-0.00477959
-0.000385371
-0.00503858
-0.000497631
-0.00531694
-0.000617997
-0.00561925
-0.000746998
-0.00594799
-0.00088527
-0.00630511
-0.00103352
-0.00669259
-0.00119254
-0.00711263
-0.00136322
-0.00756785
-0.00154661
-0.00806107
-0.00174311
-0.00859448
-0.0091686
-0.00195162
1.15977e-05
-0.000536676
2.85928e-05
-0.0014771
3.52033e-05
-0.00230995
2.04524e-05
-0.00299127
-1.99358e-05
-0.00351018
-8.38083e-05
-0.00389257
-0.000165868
-0.00418518
-0.000261105
-0.00443439
-0.000366152
-0.00467455
-0.000479513
-0.00492522
-0.000600954
-0.0051955
-0.000730841
-0.00548937
-0.000869763
-0.00580907
-0.0010184
-0.00615648
-0.0011775
-0.00653349
-0.00134788
-0.00694224
-0.00153054
-0.00738519
-0.00172668
-0.00786493
-0.00193679
-0.00838438
-0.00894627
-0.00215912
8.8783e-06
-0.000545555
1.85472e-05
-0.00148677
1.47946e-05
-0.0023062
-1.18206e-05
-0.00296465
-6.42456e-05
-0.00345775
-0.000138866
-0.00381795
-0.000230671
-0.00409338
-0.000334922
-0.00433014
-0.000448677
-0.00456079
-0.000570786
-0.00480311
-0.000701214
-0.00506507
-0.000840423
-0.00535016
-0.000989059
-0.00566043
-0.00114784
-0.00599769
-0.00131756
-0.00636378
-0.00149905
-0.00676075
-0.00169338
-0.00719085
-0.00190195
-0.00765635
-0.00212535
-0.00816098
-0.00871052
-0.00236111
6.04924e-06
-0.000551604
8.38545e-06
-0.0014891
-5.3972e-06
-0.00229242
-4.40158e-05
-0.00292604
-0.000107413
-0.00339436
-0.000192267
-0.0037331
-0.000293357
-0.00399229
-0.000406267
-0.00421723
-0.000528466
-0.00443859
-0.000659102
-0.00467247
-0.000798306
-0.00492587
-0.000946625
-0.00520184
-0.00110475
-0.0055023
-0.00127345
-0.00582899
-0.00145353
-0.00618371
-0.00164585
-0.00656843
-0.00185154
-0.00698516
-0.00207217
-0.00743572
-0.00230854
-0.00792461
-0.0084613
-0.00255776
3.09224e-06
-0.000554696
-1.66453e-06
-0.00148435
-2.60966e-05
-0.00226798
-7.53369e-05
-0.0028768
-0.000149326
-0.00332037
-0.000243893
-0.00363853
-0.00035383
-0.00388235
-0.000475065
-0.004096
-0.000605444
-0.00430821
-0.000744377
-0.00453354
-0.000892134
-0.00477811
-0.00104933
-0.00504464
-0.00121671
-0.00533492
-0.00139508
-0.00565063
-0.00158526
-0.00599353
-0.00178815
-0.00636553
-0.00200493
-0.00676838
-0.00223719
-0.00720346
-0.00248615
-0.00767565
-0.00819856
-0.00274889
-2.99011e-07
-0.000554397
-1.21856e-05
-0.00147246
-4.6106e-05
-0.00223406
-0.000105805
-0.0028171
-0.000189864
-0.00323631
-0.000293643
-0.00353475
-0.000412014
-0.00376398
-0.00054125
-0.00396676
-0.000679543
-0.00416992
-0.000826531
-0.00438655
-0.000982601
-0.00462204
-0.00114843
-0.00487881
-0.00132481
-0.00515854
-0.00151257
-0.00546287
-0.00171259
-0.00579351
-0.00192583
-0.00615229
-0.00215351
-0.0065407
-0.0023971
-0.00695987
-0.0026572
-0.00741555
-0.00792363
-0.00293213
-3.05119e-06
-0.000551346
-2.23305e-05
-0.00145318
-6.56111e-05
-0.00219078
-0.000135309
-0.0027474
-0.000228927
-0.00314269
-0.000341438
-0.00342224
-0.000467845
-0.00363757
-0.000604764
-0.00382984
-0.000750701
-0.00402398
-0.00090549
-0.00423176
-0.00106962
-0.00445791
-0.00124382
-0.00470461
-0.00142891
-0.00497345
-0.00162578
-0.005266
-0.00183535
-0.00558395
-0.00205868
-0.00592896
-0.00229706
-0.00630232
-0.00255182
-0.00670511
-0.00282478
-0.00714259
-0.0076444
-0.00310401
-6.01762e-06
-0.000545328
-3.2251e-05
-0.00142695
-8.45599e-05
-0.00213847
-0.000163775
-0.00266819
-0.000266436
-0.00304003
-0.000387214
-0.00330146
-0.000521272
-0.00350352
-0.000665557
-0.00368556
-0.000818859
-0.00387068
-0.00098118
-0.00406944
-0.00115309
-0.004286
-0.00133538
-0.00452232
-0.0015289
-0.00477992
-0.00173457
-0.00506033
-0.00195337
-0.00536514
-0.00218647
-0.00569587
-0.00243508
-0.0060537
-0.00269939
-0.0064408
-0.00297768
-0.00686429
-0.00732726
-0.00329483
-8.97143e-06
-0.000536357
-4.19283e-05
-0.00139399
-0.000102884
-0.00207752
-0.000191127
-0.00257994
-0.000302325
-0.00292883
-0.000430917
-0.00317287
-0.000572249
-0.00336218
-0.000723582
-0.00353423
-0.00088396
-0.0037103
-0.00105353
-0.00389987
-0.00123294
-0.00410659
-0.00142302
-0.00433225
-0.00162466
-0.00457829
-0.00183881
-0.00484618
-0.00206653
-0.00513743
-0.00230896
-0.00545344
-0.00256702
-0.00579564
-0.00284088
-0.00616694
-0.00313332
-0.00657185
-0.00700503
-0.00345555
-1.1871e-05
-0.000524486
-5.13201e-05
-0.00135454
-0.00012052
-0.00200832
-0.0002173
-0.00248316