# Probe 0 (5.5 -0.5 0)
# Probe 1 (5.5 0.5 0)
#       Probe             0             1
#        Time
      0.00125 -1.79769e+307 -1.79769e+307
       0.0025 -1.79769e+307 -1.79769e+307
      0.00375 -1.79769e+307 -1.79769e+307
        0.005 -1.79769e+307 -1.79769e+307
      0.00625 -1.79769e+307 -1.79769e+307
       0.0075 -1.79769e+307 -1.79769e+307
