/*--------------------------------*- C++ -*----------------------------------*\
  =========                 |
  \\      /  F ield         | OpenFOAM: The Open Source CFD Toolbox
   \\    /   O peration     | Website:  https://openfoam.org
    \\  /    A nd           | Version:  7
     \\/     M anipulation  |
\*---------------------------------------------------------------------------*/
FoamFile
{
    version     2.0;
    format      ascii;
    class       volScalarField;
    location    "108.000116";
    object      p;
}
// * * * * * * * * * * * * * * * * * * * * * * * * * * * * * * * * * * * * * //

dimensions      [0 2 -2 0 0 0 0];

internalField   nonuniform List<scalar> 
23200
(
-0.31649
-0.318493
-0.319658
-0.320532
-0.321285
-0.32197
-0.322656
-0.323393
-0.324207
-0.325109
-0.326101
-0.327189
-0.328383
-0.329709
-0.331205
-0.332925
-0.334938
-0.337369
-0.34025
-0.343334
-0.31662
-0.318832
-0.32012
-0.321093
-0.321936
-0.322698
-0.323442
-0.32421
-0.325014
-0.325845
-0.326679
-0.327484
-0.32822
-0.328844
-0.329312
-0.329573
-0.32958
-0.329336
-0.328749
-0.327373
-0.317127
-0.319502
-0.320889
-0.321944
-0.322864
-0.323695
-0.324493
-0.325289
-0.326083
-0.326846
-0.327526
-0.328052
-0.328332
-0.328256
-0.32769
-0.32648
-0.324447
-0.321473
-0.317378
-0.311219
-0.318049
-0.320534
-0.321992
-0.323112
-0.324097
-0.324988
-0.325836
-0.326662
-0.327449
-0.328151
-0.328687
-0.328949
-0.328793
-0.328037
-0.326462
-0.323808
-0.31976
-0.314066
-0.306587
-0.295418
-0.319406
-0.321946
-0.323446
-0.324612
-0.325649
-0.326593
-0.327487
-0.328342
-0.329129
-0.329781
-0.330191
-0.330211
-0.329649
-0.328254
-0.32572
-0.321687
-0.315705
-0.307345
-0.296785
-0.28043
-0.321208
-0.323745
-0.325257
-0.326449
-0.327522
-0.328509
-0.329445
-0.330332
-0.331125
-0.331739
-0.332042
-0.331851
-0.330922
-0.328942
-0.325518
-0.320202
-0.312425
-0.301462
-0.288321
-0.266592
-0.323447
-0.325924
-0.327416
-0.328611
-0.329704
-0.330723
-0.331696
-0.332613
-0.333418
-0.334007
-0.334223
-0.333851
-0.3326
-0.330097
-0.325866
-0.31938
-0.310007
-0.296478
-0.281476
-0.254061
-0.326098
-0.32846
-0.329901
-0.331077
-0.332172
-0.33321
-0.334211
-0.335154
-0.335973
-0.336545
-0.336693
-0.336168
-0.334638
-0.331674
-0.326723
-0.319178
-0.308474
-0.292335
-0.276463
-0.242781
-0.329125
-0.331321
-0.332681
-0.333813
-0.334888
-0.335928
-0.336944
-0.337908
-0.338735
-0.339294
-0.339385
-0.338729
-0.336954
-0.333582
-0.327989
-0.319481
-0.307794
-0.288867
-0.273247
-0.232918
-0.33248
-0.334465
-0.335714
-0.336776
-0.337809
-0.338829
-0.339841
-0.340807
-0.341635
-0.342172
-0.34221
-0.341432
-0.339432
-0.335688
-0.329521
-0.320098
-0.307801
-0.286081
-0.270545
-0.225943
-0.336109
-0.337844
-0.338954
-0.33992
-0.340881
-0.341854
-0.342838
-0.343784
-0.344593
-0.345102
-0.345064
-0.344157
-0.341932
-0.337826
-0.331136
-0.320854
-0.307595
-0.284478
-0.268209
-0.221021
-0.339953
-0.341408
-0.342352
-0.343192
-0.344051
-0.344945
-0.345867
-0.346762
-0.34752
-0.347963
-0.347832
-0.346771
-0.3443
-0.339819
-0.332585
-0.321552
-0.30734
-0.283069
-0.266174
-0.217883
-0.343953
-0.345108
-0.34586
-0.346544
-0.347265
-0.348041
-0.348862
-0.349666
-0.350332
-0.350669
-0.350399
-0.349143
-0.346384
-0.341483
-0.333685
-0.321888
-0.306831
-0.281654
-0.263997
-0.216355
-0.34806
-0.348899
-0.349438
-0.349932
-0.350476
-0.351091
-0.351763
-0.352426
-0.352949
-0.35313
-0.352667
-0.351153
-0.348045
-0.342665
-0.334256
-0.321693
-0.305802
-0.280172
-0.261352
-0.216077
-0.352231
-0.352749
-0.353051
-0.353324
-0.353648
-0.354052
-0.354522
-0.354989
-0.355312
-0.355272
-0.35455
-0.352711
-0.349179
-0.343248
-0.334165
-0.320857
-0.304094
-0.278531
-0.258217
-0.216478
-0.35644
-0.356636
-0.356682
-0.356697
-0.356757
-0.356898
-0.35711
-0.357318
-0.357377
-0.357051
-0.356
-0.353758
-0.349721
-0.343163
-0.333338
-0.31931
-0.301669
-0.276579
-0.254802
-0.216986
-0.360677
-0.360553
-0.360323
-0.360048
-0.359798
-0.359623
-0.359516
-0.359405
-0.359135
-0.358455
-0.357
-0.354275
-0.349646
-0.342382
-0.331753
-0.317023
-0.298563
-0.274153
-0.251325
-0.217209
-0.364952
-0.364512
-0.363987
-0.363385
-0.362782
-0.362238
-0.361757
-0.361267
-0.360604
-0.359502
-0.357569
-0.354276
-0.348965
-0.340912
-0.329428
-0.314004
-0.294845
-0.271152
-0.247761
-0.216868
-0.369296
-0.36854
-0.367699
-0.366739
-0.36574
-0.364779
-0.363871
-0.362945
-0.361831
-0.36024
-0.357751
-0.353801
-0.347712
-0.338786
-0.326409
-0.310306
-0.290597
-0.267578
-0.243899
-0.215861
-0.373758
-0.37268
-0.371503
-0.370153
-0.368719
-0.3673
-0.365919
-0.364508
-0.362885
-0.360738
-0.35761
-0.352904
-0.345936
-0.336055
-0.322766
-0.306013
-0.285938
-0.263497
-0.239555
-0.214301
-0.378404
-0.37699
-0.375453
-0.373685
-0.371784
-0.36987
-0.367977
-0.366036
-0.363849
-0.361074
-0.357213
-0.351641
-0.343685
-0.332779
-0.318578
-0.301228
-0.280984
-0.259053
-0.235278
-0.212162
-0.383312
-0.381537
-0.379616
-0.377402
-0.375007
-0.37257
-0.370133
-0.367619
-0.364809
-0.361322
-0.356619
-0.350059
-0.341011
-0.329025
-0.313936
-0.296065
-0.275795
-0.254289
-0.231473
-0.209754
-0.388566
-0.386393
-0.384061
-0.381378
-0.378467
-0.375484
-0.372472
-0.369342
-0.365841
-0.361541
-0.35587
-0.348193
-0.337957
-0.324864
-0.308935
-0.290631
-0.270417
-0.249396
-0.227471
-0.206738
-0.394253
-0.391633
-0.38886
-0.385688
-0.382241
-0.378692
-0.375077
-0.371278
-0.366999
-0.361768
-0.354989
-0.346067
-0.334568
-0.320366
-0.303663
-0.28501
-0.264917
-0.244356
-0.223233
-0.203378
-0.40045
-0.397325
-0.394082
-0.390399
-0.386402
-0.382267
-0.378011
-0.373476
-0.368314
-0.36201
-0.353974
-0.34369
-0.330879
-0.315596
-0.298195
-0.27927
-0.259325
-0.239198
-0.218768
-0.199621
-0.407224
-0.403531
-0.399785
-0.395575
-0.391011
-0.386265
-0.381318
-0.375959
-0.369783
-0.362249
-0.352807
-0.341065
-0.326923
-0.31061
-0.292588
-0.273449
-0.253662
-0.233921
-0.214078
-0.195553
-0.414628
-0.410297
-0.406018
-0.401263
-0.396113
-0.39072
-0.385014
-0.378717
-0.371372
-0.36244
-0.351455
-0.338186
-0.322726
-0.305449
-0.286876
-0.267565
-0.247928
-0.22852
-0.209185
-0.191182
-0.422689
-0.417656
-0.412815
-0.407496
-0.401735
-0.395644
-0.389087
-0.38171
-0.373021
-0.362521
-0.349874
-0.335043
-0.318303
-0.300135
-0.281075
-0.261615
-0.24211
-0.222983
-0.204085
-0.186531
-0.431417
-0.425618
-0.420191
-0.414289
-0.407881
-0.401023
-0.393493
-0.384865
-0.374643
-0.362413
-0.348016
-0.331622
-0.313661
-0.294674
-0.275175
-0.255583
-0.236184
-0.217293
-0.198776
-0.181604
-0.440791
-0.434176
-0.428142
-0.421635
-0.414532
-0.406811
-0.398153
-0.388082
-0.376131
-0.362029
-0.34583
-0.327901
-0.30879
-0.289053
-0.269157
-0.249437
-0.230121
-0.211426
-0.193245
-0.176404
-0.450767
-0.443295
-0.436639
-0.429502
-0.421637
-0.412927
-0.40296
-0.391231
-0.377364
-0.36128
-0.343263
-0.323854
-0.30367
-0.283248
-0.262984
-0.24314
-0.223886
-0.205357
-0.187479
-0.170928
-0.461269
-0.452917
-0.445628
-0.437826
-0.429112
-0.419258
-0.407771
-0.394166
-0.378214
-0.360076
-0.340262
-0.319446
-0.298269
-0.277218
-0.256616
-0.236652
-0.217443
-0.199061
-0.181462
-0.165169
-0.472191
-0.462952
-0.455024
-0.446512
-0.436837
-0.425654
-0.412418
-0.396723
-0.378552
-0.35833
-0.336771
-0.314635
-0.292543
-0.270918
-0.250004
-0.229926
-0.210756
-0.192511
-0.175176
-0.159121
-0.483393
-0.473279
-0.464706
-0.455427
-0.444653
-0.431929
-0.416708
-0.398731
-0.37825
-0.355958
-0.332733
-0.30937
-0.286444
-0.264296
-0.243098
-0.222919
-0.203788
-0.18568
-0.168602
-0.152774
-0.494701
-0.483741
-0.47452
-0.464398
-0.452363
-0.437871
-0.420434
-0.400019
-0.377185
-0.352876
-0.328084
-0.303596
-0.279913
-0.257296
-0.235847
-0.215587
-0.196505
-0.178542
-0.161724
-0.146119
-0.505906
-0.494148
-0.484271
-0.473214
-0.459734
-0.443241
-0.423382
-0.40042
-0.37524
-0.349003
-0.32276
-0.297251
-0.272892
-0.249862
-0.228202
-0.207887
-0.188871
-0.171073
-0.154521
-0.139145
-0.516765
-0.504274
-0.493728
-0.481628
-0.466506
-0.447785
-0.425335
-0.399774
-0.372307
-0.344259
-0.316692
-0.290272
-0.265321
-0.241939
-0.220112
-0.199778
-0.180857
-0.163249
-0.146977
-0.131844
-0.527008
-0.513861
-0.502628
-0.489361
-0.472396
-0.451245
-0.426087
-0.397932
-0.368279
-0.338564
-0.309813
-0.282595
-0.257139
-0.233474
-0.211535
-0.191224
-0.172433
-0.155048
-0.139076
-0.124205
-0.536333
-0.522621
-0.510676
-0.496109
-0.477109
-0.453363
-0.425439
-0.394755
-0.363061
-0.331841
-0.302052
-0.274156
-0.248291
-0.224417
-0.202426
-0.182191
-0.163575
-0.146452
-0.130804
-0.116229
-0.544424
-0.530246
-0.517557
-0.501554
-0.480348
-0.453894
-0.423212
-0.390119
-0.35656
-0.324016
-0.293344
-0.264896
-0.238721
-0.214721
-0.192749
-0.172648
-0.15426
-0.137443
-0.122154
-0.107922
-0.550948
-0.536409
-0.522941
-0.505374
-0.481824
-0.452608
-0.419241
-0.383911
-0.348692
-0.315017
-0.283626
-0.254758
-0.228382
-0.204346
-0.182471
-0.162572
-0.144466
-0.128005
-0.113119
-0.0992943
-0.555569
-0.540778
-0.526494
-0.507251
-0.481264
-0.4493
-0.413386
-0.376033
-0.339382
-0.304782
-0.272842
-0.243693
-0.217231
-0.193259
-0.171565
-0.15194
-0.134179
-0.118123
-0.103687
-0.09033
-0.557958
-0.543024
-0.527891
-0.506883
-0.47842
-0.443789
-0.405525
-0.366399
-0.328565
-0.293254
-0.260941
-0.231658
-0.205234
-0.181431
-0.160008
-0.140736
-0.123386
-0.107794
-0.0938573
-0.0809702
-0.557798
-0.542828
-0.52682
-0.503995
-0.473076
-0.435926
-0.395559
-0.35494
-0.316185
-0.280385
-0.247884
-0.218619
-0.192363
-0.16884
-0.147784
-0.128946
-0.112079
-0.0970252
-0.0836619
-0.071132
-0.554793
-0.539893
-0.522998
-0.498342
-0.465051
-0.425592
-0.383412
-0.341606
-0.302202
-0.266141
-0.233641
-0.204552
-0.178596
-0.15547
-0.134882
-0.116563
-0.100258
-0.0858239
-0.0731222
-0.06085
-0.548682
-0.533953
-0.516177
-0.48972
-0.454201
-0.4127
-0.369034
-0.32636
-0.286586
-0.250497
-0.218188
-0.189436
-0.163919
-0.141309
-0.121306
-0.103594
-0.0879397
-0.0742041
-0.0620576
-0.0504025
-0.53924
-0.524778
-0.506148
-0.477969
-0.440427
-0.397196
-0.352396
-0.309187
-0.269324
-0.233438
-0.201513
-0.173262
-0.148337
-0.126363
-0.107079
-0.0900679
-0.0751363
-0.0621433
-0.0505863
-0.0396866
-0.526285
-0.512185
-0.492752
-0.462976
-0.423666
-0.379057
-0.333495
-0.290087
-0.250415
-0.214961
-0.18362
-0.156043
-0.131883
-0.110689
-0.0921772
-0.0759744
-0.0618551
-0.0496549
-0.0387638
-0.028674
-0.509688
-0.496037
-0.475879
-0.444676
-0.403901
-0.358293
-0.312351
-0.269077
-0.22987
-0.195093
-0.164546
-0.137842
-0.114548
-0.0942611
-0.0766399
-0.0613368
-0.0481125
-0.0367646
-0.0266149
-0.0173726
-0.489371
-0.476253
-0.455475
-0.423054
-0.381152
-0.334945
-0.289005
-0.246188
-0.207729
-0.173902
-0.144333
-0.118639
-0.0963676
-0.0771097
-0.0604953
-0.0461842
-0.0339336
-0.0235014
-0.0141577
-0.005807
-0.465309
-0.452804
-0.431536
-0.39814
-0.355483
-0.30909
-0.263526
-0.221484
-0.184107
-0.15139
-0.123
-0.0984843
-0.077383
-0.0592755
-0.0437781
-0.0305506
-0.0193502
-0.00989601
-0.00141678
0.00599216
-0.437537
-0.425717
-0.404111
-0.370016
-0.32701
-0.280835
-0.236008
-0.195091
-0.158994
-0.127632
-0.100607
-0.0774338
-0.0576437
-0.0408063
-0.0265303
-0.0144758
-0.00439963
0.00401657
0.0115747
0.0179881
-0.406143
-0.395071
-0.373304
-0.33883
-0.295881
-0.250274
-0.206549
-0.167065
-0.132505
-0.10271
-0.0772276
-0.0555537
-0.0372087
-0.0217565
-0.00880109
0.00199482
0.010876
0.0181966
0.0247767
0.0301382
-0.371267
-0.361001
-0.339297
-0.304824
-0.262165
-0.217485
-0.175304
-0.137532
-0.104749
-0.0767176
-0.0529481
-0.0329198
-0.0161465
-0.00218772
0.00935353
0.0188102
0.0264303
0.032602
0.0381475
0.0423982
-0.333085
-0.323705
-0.302336
-0.268173
-0.225804
-0.182802
-0.142431
-0.106632
-0.075846
-0.0497634
-0.0278645
-0.0096181
0.00546621
0.0178309
0.027871
0.0359132
0.0422126
0.0471909
0.0516506
0.0547313
-0.291773
-0.283461
-0.262588
-0.22846
-0.187713
-0.146392
-0.108105
-0.0745225
-0.0459329
-0.0219673
-0.00208377
0.0142561
0.0275446
0.0382236
0.0466826
0.0532409
0.0581691
0.0619224
0.0652477
0.0670935
-0.247561
-0.240554
-0.21994
-0.18684
-0.147754
-0.108466
-0.0725224
-0.0413711
-0.0151576
0.00653917
0.0242773
0.0385992
0.0499967
0.0589084
0.0657141
0.0707277
0.0742481
0.0767528
0.0788637
0.0793428
-0.200753
-0.195205
-0.175134
-0.143372
-0.106191
-0.0692492
-0.0358905
-0.0073597
0.0163197
0.0356141
0.051093
0.0632997
0.072724
0.0797976
0.0848881
0.0883111
0.090406
0.0916288
0.0923346
0.0911287
-0.151904
-0.147661
-0.128519
-0.0983109
-0.0633168
-0.0289899
0.00157307
0.0273184
0.0483284
0.0651063
0.0782293
0.0882394
0.0956215
0.100798
0.104125
0.105932
0.106601
0.106473
0.105443
0.102155
-0.101374
-0.0983233
-0.080396
-0.0519819
-0.0194345
0.0120493
0.0396379
0.0624598
0.0806887
0.0948569
0.105546
0.113294
0.118579
0.121813
0.123343
0.123524
0.122762
0.121163
0.118127
0.113071
-0.0494595
-0.0476548
-0.0311196
-0.00473141
0.0251421
0.0535939
0.0780638
0.0978529
0.113213
0.1247
0.132896
0.138333
0.141482
0.142741
0.142456
0.141006
0.138765
0.135551
0.130496
0.125973
0.00342602
0.00392335
0.0189234
0.0430819
0.0700912
0.0953612
0.116603
0.133279
0.14571
0.154466
0.160129
0.163225
0.164213
0.163482
0.161377
0.158282
0.154494
0.14964
0.143133
0.138794
0.0568454
0.0559924
0.0693326
0.0910916
0.115086
0.137064
0.155003
0.168516
0.17798
0.183979
0.187091
0.187833
0.186653
0.183931
0.180011
0.175266
0.169911
0.163516
0.155861
0.151078
0.110356
0.108126
0.119702
0.138928
0.159797
0.178412
0.193009
0.203338
0.209826
0.213065
0.213627
0.21202
0.208682
0.203982
0.198261
0.191869
0.18496
0.177133
0.168453
0.16291
0.163515
0.159896
0.169625
0.186221
0.203897
0.219115
0.230365
0.237519
0.241047
0.241545
0.23958
0.235648
0.230177
0.223527
0.216031
0.208013
0.199588
0.19041
0.180726
0.174257
0.215877
0.210871
0.218697
0.232604
0.247059
0.258888
0.266818
0.270836
0.271445
0.269245
0.264795
0.258581
0.251019
0.242459
0.233226
0.223618
0.213726
0.203262
0.192589
0.185113
0.267007
0.260629
0.266523
0.277719
0.288965
0.297447
0.302118
0.303066
0.300824
0.295992
0.28912
0.280683
0.271088
0.260674
0.249754
0.238604
0.227302
0.215611
0.203963
0.195442
0.316476
0.308755
0.312715
0.321216
0.329305
0.33452
0.336024
0.333996
0.328995
0.321617
0.312405
0.301824
0.290268
0.278069
0.265524
0.252893
0.240243
0.227384
0.214788
0.205206
0.363871
0.354849
0.3569
0.362759
0.36778
0.36984
0.368299
0.363418
0.355771
0.345957
0.334506
0.321875
0.308447
0.294544
0.280451
0.266408
0.252479
0.238516
0.225006
0.214369
0.408796
0.398529
0.398723
0.402028
0.404105
0.403156
0.398721
0.391131
0.380978
0.368855
0.355285
0.340715
0.325517
0.310004
0.294449
0.279076
0.263945
0.248948
0.234567
0.222892
0.450875
0.439431
0.437847
0.438718
0.43801
0.434228
0.427077
0.416948
0.404448
0.390163
0.374611
0.358228
0.341377
0.324361
0.307441
0.290826
0.274577
0.258623
0.24342
0.230743
0.489757
0.477216
0.473958
0.472547
0.469245
0.462835
0.453169
0.440694
0.426024
0.409744
0.392362
0.374306
0.355931
0.337529
0.319351
0.301593
0.284319
0.267488
0.251522
0.237888
0.525117
0.511571
0.506765
0.503255
0.497577
0.488769
0.476814
0.462204
0.445563
0.427469
0.408425
0.38885
0.369091
0.349432
0.330113
0.311318
0.293116
0.275496
0.25883
0.244301
0.55666
0.542212
0.536006
0.530605
0.522796
0.511844
0.497846
0.481332
0.462933
0.443223
0.422698
0.401769
0.380777
0.359998
0.339663
0.319945
0.30092
0.282601
0.265308
0.249955
0.584125
0.568886
0.561448
0.554388
0.544716
0.531894
0.516117
0.497947
0.478017
0.456902
0.435088
0.412982
0.390918
0.369166
0.347947
0.327427
0.307688
0.288765
0.270921
0.254832
0.607281
0.591373
0.582888
0.574421
0.563175
0.548775
0.531499
0.511933
0.490715
0.468415
0.445516
0.422418
0.399451
0.376879
0.354916
0.33372
0.313381
0.293953
0.275641
0.258913
0.625937
0.609487
0.600154
0.59055
0.578034
0.562365
0.543883
0.523194
0.50094
0.477687
0.453915
0.43002
0.406326
0.383094
0.36053
0.33879
0.317969
0.298134
0.279443
0.262188
0.639938
0.623081
0.613109
0.602652
0.589185
0.572567
0.553182
0.531653
0.508624
0.484657
0.460231
0.435738
0.411499
0.387771
0.364757
0.342608
0.321424
0.301284
0.282307
0.264646
0.649166
0.63204
0.62165
0.610634
0.596545
0.579305
0.55933
0.537252
0.513714
0.48928
0.464423
0.439537
0.414939
0.390884
0.367573
0.345153
0.323729
0.303387
0.284218
0.266286
0.653545
0.636292
0.625708
0.614435
0.60006
0.582533
0.562285
0.539952
0.516177
0.491524
0.466465
0.441393
0.416625
0.392414
0.36896
0.346409
0.324869
0.304428
0.285166
0.267099
0.653038
0.635802
0.625251
0.614025
0.599702
0.582227
0.562026
0.539735
0.515997
0.491375
0.466344
0.441296
0.416547
0.392353
0.368912
0.346372
0.324838
0.304402
0.285141
0.26708
0.647649
0.630572
0.620282
0.609408
0.595476
0.578389
0.558555
0.536602
0.513174
0.488836
0.464062
0.439246
0.414707
0.390701
0.367429
0.34504
0.323638
0.303309
0.284148
0.26623
0.637422
0.620645
0.610841
0.600618
0.587412
0.571048
0.551896
0.530576
0.50773
0.483923
0.459634
0.435257
0.411117
0.38747
0.364521
0.342424
0.321276
0.301158
0.282195
0.264561
0.622442
0.606103
0.597002
0.587724
0.57557
0.560256
0.542098
0.521699
0.4997
0.47667
0.453089
0.429356
0.405799
0.382679
0.360206
0.338537
0.317766
0.297961
0.279292
0.262072
0.602831
0.587064
0.578874
0.570822
0.560038
0.546091
0.52923
0.510034
0.489142
0.467125
0.44447
0.42158
0.398787
0.376358
0.354509
0.333404
0.313129
0.293738
0.275454
0.258768
0.578753
0.563685
0.556603
0.550044
0.540931
0.528657
0.513383
0.495661
0.476126
0.455354
0.433835
0.41198
0.390126
0.368546
0.347465
0.327054
0.307392
0.288515
0.270702
0.25466
0.550408
0.536157
0.530365
0.525548
0.518392
0.50808
0.49467
0.478681
0.460743
0.441434
0.421253
0.400617
0.379869
0.35929
0.339116
0.319524
0.300588
0.282321
0.265061
0.24976
0.51803
0.504708
0.50037
0.497522
0.492587
0.484508
0.473224
0.459212
0.443096
0.425459
0.406807
0.387564
0.368081
0.348649
0.329511
0.310857
0.292756
0.275194
0.258563
0.244086
0.481891
0.469599
0.466858
0.466183
0.463709
0.458113
0.449197
0.437389
0.423305
0.407535
0.390589
0.372903
0.354835
0.336684
0.318706
0.301104
0.283939
0.267172
0.25124
0.237658
0.442292
0.431118
0.430098
0.431773
0.431973
0.429085
0.422757
0.413363
0.401506
0.38778
0.372706
0.356727
0.340212
0.323469
0.306766
0.290319
0.274188
0.258301
0.243131
0.230502
0.399563
0.389588
0.390385
0.394556
0.397615
0.397635
0.394093
0.387299
0.377844
0.366325
0.353273
0.339139
0.324303
0.309083
0.293759
0.278564
0.263557
0.248629
0.234276
0.222646
0.354064
0.345352
0.348041
0.354822
0.360891
0.363989
0.363406
0.359378
0.352479
0.343311
0.332413
0.320247
0.307203
0.29361
0.279761
0.265904
0.252104
0.23821
0.224723
0.214122
0.306176
0.29878
0.303408
0.312879
0.322076
0.328392
0.330912
0.329791
0.325581
0.318888
0.31026
0.300169
0.289017
0.277142
0.264851
0.252411
0.239893
0.227101
0.214518
0.204963
0.256302
0.250262
0.256848
0.269053
0.28146
0.291098
0.296838
0.298739
0.297329
0.293215
0.286953
0.279029
0.269853
0.259775
0.249114
0.238159
0.226988
0.215361
0.203716
0.195205
0.204862
0.200205
0.208739
0.223687
0.239345
0.252378
0.261423
0.266433
0.267909
0.266456
0.26264
0.256955
0.249824
0.241608
0.232638
0.223224
0.213462
0.203057
0.192372
0.184888
0.152289
0.149028
0.159475
0.177134
0.196047
0.212509
0.224912
0.233092
0.237515
0.238783
0.237469
0.234079
0.229048
0.222745
0.215513
0.207686
0.199386
0.190259
0.180549
0.174046
0.0990273
0.0971607
0.109457
0.129758
0.151889
0.171776
0.187557
0.198939
0.206344
0.21037
0.211595
0.210539
0.207645
0.203292
0.197831
0.191624
0.184833
0.17705
0.168327
0.162719
0.0455245
0.045037
0.0590946
0.0819312
0.1072
0.130471
0.149615
0.1642
0.174597
0.181393
0.185176
0.18647
0.185734
0.183355
0.179688
0.175117
0.16987
0.16351
0.155801
0.150917
-0.00776957
-0.00690796
0.00879949
0.034027
0.0623122
0.0888849
0.111344
0.129103
0.142474
0.152032
0.158367
0.162013
0.163439
0.163043
0.16118
0.158246
0.154552
0.149721
0.143155
0.138687
-0.0604071
-0.0582439
-0.0410173
-0.01358
0.0175589
0.0473119
0.0730014
0.0938765
0.110177
0.122463
0.131325
0.137304
0.140881
0.142462
0.142404
0.141097
0.138931
0.135727
0.130614
0.125967
-0.111945
-0.108547
-0.0899508
-0.0605195
-0.0267299
0.00604188
0.0348426
0.058744
0.0779053
0.0928622
0.104205
0.11248
0.118177
0.121716
0.123453
0.123757
0.123047
0.121442
0.118352
0.113208
-0.161976
-0.157383
-0.137613
-0.10643
-0.07023
-0.0346402
-0.00288278
0.0239261
0.0458518
0.0634005
0.0771577
0.0876747
0.0954463
0.100905
0.104416
0.10632
0.107014
0.106855
0.105751
0.102355
-0.210262
-0.20425
-0.183651
-0.150961
-0.112627
-0.074458
-0.0399321
-0.0103638
0.0142053
0.0342442
0.0503306
0.0630167
0.0728021
0.080129
0.0853746
0.0888652
0.090953
0.0921111
0.0927156
0.0913777
-0.256283
-0.248822
-0.227773
-0.19379
-0.153621
-0.113146
-0.0760723
-0.0439209
-0.0168536
0.00555301
0.023864
0.0386306
0.0503547
0.059485
0.0664115
0.0714585
0.0749359
0.0773385
0.0793159
0.079641
-0.299574
-0.290872
-0.269475
-0.234676
-0.192932
-0.15045
-0.111082
-0.0765507
-0.0471534
-0.0225216
-0.00210809
0.0146345
0.028208
0.0390648
0.0476047
0.0541575
0.0590036
0.0626145
0.0657697
0.0674334
-0.339844
-0.330116
-0.308291
-0.273327
-0.230324
-0.186133
-0.144752
-0.108071
-0.0765333
-0.0498375
-0.02746
-0.00886078
0.00646011
0.0189553
0.0290306
0.037023
0.0431971
0.0479896
0.0522379
0.0551017
-0.376865
-0.366262
-0.344191
-0.309075
-0.265663
-0.219976
-0.176889
-0.138313
-0.104845
-0.0762629
-0.0520752
-0.0317521
-0.014798
-0.000762663
0.0107616
0.0201187
0.0275655
0.0335039
0.0387928
0.0427872
-0.410455
-0.399045
-0.376975
-0.341993
-0.298302
-0.251895
-0.207314
-0.167122
-0.131952
-0.101678
-0.0758469
-0.053945
-0.0354828
-0.0200146
-0.00713479
0.00350546
0.01216
0.0191954
0.0254693
0.0305316
-0.440436
-0.428277
-0.406424
-0.371934
-0.328312
-0.281438
-0.235906
-0.194362
-0.157733
-0.125974
-0.0986792
-0.0753546
-0.0555183
-0.038733
-0.0245979
-0.0127614
-0.00297096
0.00510317
0.0123011
0.0183683
-0.466673
-0.453831
-0.432375
-0.398696
-0.355569
-0.308597
-0.262455
-0.219896
-0.182079
-0.149056
-0.120487
-0.0959068
-0.0748373
-0.0568574
-0.0415736
-0.028633
-0.0177834
-0.00873359
-0.000673866
0.00633782
-0.489086
-0.475634
-0.454728
-0.422136
-0.379911
-0.333267
-0.286875
-0.243656
-0.204895
-0.170842
-0.141195
-0.115538
-0.0933803
-0.0743353
-0.0580144
-0.0440663
-0.0322381
-0.0222783
-0.0134192
-0.00552081
-0.507652
-0.49367
-0.473439
-0.442177
-0.401227
-0.355336
-0.309083
-0.265536
-0.226149
-0.191287
-0.160739
-0.134195
-0.111096
-0.0911221
-0.0738795
-0.0590243
-0.0463007
-0.0354993
-0.0259056
-0.017175
-0.522406
-0.507977
-0.488521
-0.458793
-0.419458
-0.37473
-0.329013
-0.285477
-0.245754
-0.210347
-0.17914
-0.151806
-0.127944
-0.107181
-0.0891345
-0.0734766
-0.0599421
-0.0483694
-0.0381125
-0.0285989
-0.533439
-0.518651
-0.500042
-0.472011
-0.434591
-0.391411
-0.346622
-0.303442
-0.26367
-0.227963
-0.196305
-0.168406
-0.143919
-0.122478
-0.103752
-0.0873986
-0.0731402
-0.060864
-0.0500242
-0.0397749
-0.540897
-0.525843
-0.508124
-0.481906
-0.446654
-0.405375
-0.361893
-0.319413
-0.279883
-0.244115
-0.212209
-0.183943
-0.158995
-0.137028
-0.117723
-0.100767
-0.0858829
-0.0729634
-0.0616162
-0.050705
-0.544976
-0.529755
-0.512943
-0.488604
-0.455714
-0.416648
-0.374832
-0.333392
-0.294395
-0.258809
-0.226858
-0.198398
-0.173148
-0.150795
-0.131039
-0.113592
-0.0981817
-0.0846583
-0.0728322
-0.06143
-0.545917
-0.530632
-0.514724
-0.492281
-0.461885
-0.425291
-0.385469
-0.345396
-0.30722
-0.272057
-0.240264
-0.211781
-0.186377
-0.163772
-0.143685
-0.125853
-0.110008
-0.0959775
-0.0836151
-0.0720226
-0.544003
-0.52876
-0.513735
-0.493156
-0.465322
-0.431401
-0.39386
-0.355462
-0.318385
-0.283883
-0.252445
-0.224107
-0.198696
-0.175967
-0.155664
-0.137543
-0.121354
-0.106911
-0.0940947
-0.08224
-0.539545
-0.524456
-0.510279
-0.491493
-0.466219
-0.435104
-0.400085
-0.363643
-0.327933
-0.294321
-0.263432
-0.235403
-0.210126
-0.187397
-0.166988
-0.148674
-0.132226
-0.117458
-0.104265
-0.092053
-0.532879
-0.518055
-0.504685
-0.487587
-0.464811
-0.436562
-0.40425
-0.370011
-0.335917
-0.303417
-0.273262
-0.245698
-0.220692
-0.198084
-0.177676
-0.159263
-0.142637
-0.127616
-0.114111
-0.10155
-0.524352
-0.509905
-0.497301
-0.481759
-0.461363
-0.435968
-0.406482
-0.374652
-0.342402
-0.311222
-0.28198
-0.255034
-0.230428
-0.208056
-0.18775
-0.169329
-0.152604
-0.1374
-0.123644
-0.110804
-0.514317
-0.500356
-0.488477
-0.474347
-0.456165
-0.433542
-0.406932
-0.377667
-0.347462
-0.317798
-0.28964
-0.263454
-0.239372
-0.217344
-0.197238
-0.178897
-0.16215
-0.146829
-0.132884
-0.119847
-0.503119
-0.489747
-0.47856
-0.465693
-0.449528
-0.429529
-0.405771
-0.379172
-0.351178
-0.32321
-0.296296
-0.271008
-0.247568
-0.225987
-0.206172
-0.187993
-0.1713
-0.155929
-0.14185
-0.128685
-0.491091
-0.478402
-0.46788
-0.456133
-0.441767
-0.424192
-0.403194
-0.379296
-0.35364
-0.327525
-0.302008
-0.27775
-0.255063
-0.234025
-0.21459
-0.196652
-0.180084
-0.164728
-0.150562
-0.137323
-0.47854
-0.466615
-0.456743
-0.445984
-0.433195
-0.417805
-0.399408
-0.378181
-0.354942
-0.330814
-0.306834
-0.283731
-0.261904
-0.241504
-0.222531
-0.20491
-0.188535
-0.173257
-0.159049
-0.14578
-0.465748
-0.454655
-0.445421
-0.435539
-0.424111
-0.410647
-0.394636
-0.375984
-0.355188
-0.333147
-0.31083
-0.289003
-0.268142
-0.248469
-0.230038
-0.212804
-0.196687
-0.181548
-0.167342
-0.154086
-0.452959
-0.442749
-0.434152
-0.425054
-0.414791
-0.402986
-0.389109
-0.372873
-0.354484
-0.334595
-0.314049
-0.293613
-0.273821
-0.254966
-0.237154
-0.220378
-0.20458
-0.189641
-0.175479
-0.162273
-0.440385
-0.431091
-0.423132
-0.414745
-0.405476
-0.395076
-0.383055
-0.369023
-0.352949
-0.335229
-0.316541
-0.297604
-0.278984
-0.261036
-0.243923
-0.227673
-0.212256
-0.197574
-0.183501
-0.170381
-0.428196
-0.419834
-0.412516
-0.404786
-0.396369
-0.387139
-0.376696
-0.364618
-0.350707
-0.335123
-0.31835
-0.301009
-0.283667
-0.266721
-0.250387
-0.234736
-0.219758
-0.205393
-0.191451
-0.178451
-0.416526
-0.409097
-0.402419
-0.395309
-0.387629
-0.379368
-0.370235
-0.359837
-0.347888
-0.334356
-0.319517
-0.303856
-0.287895
-0.272051
-0.256585
-0.241609
-0.227135
-0.213145
-0.199377
-0.186531
-0.405476
-0.398963
-0.392923
-0.386404
-0.379372
-0.371912
-0.363846
-0.354856
-0.344633
-0.333013
-0.320083
-0.306162
-0.291684
-0.277051
-0.262551
-0.248334
-0.234431
-0.220879
-0.207332
-0.194671
-0.395114
-0.389489
-0.384075
-0.378123
-0.371674
-0.364881
-0.357673
-0.349831
-0.341079
-0.331188
-0.320093
-0.307942
-0.295039
-0.281732
-0.268309
-0.25495
-0.241697
-0.22865
-0.215373
-0.202932
-0.385484
-0.380705
-0.3759
-0.370493
-0.364575
-0.358344
-0.351823
-0.344897
-0.337361
-0.328983
-0.319602
-0.309208
-0.297954
-0.286092
-0.273871
-0.261487
-0.248976
-0.236514
-0.223564
-0.211378
-0.376612
-0.372627
-0.368404
-0.363516
-0.358086
-0.352338
-0.346368
-0.340162
-0.333605
-0.326508
-0.318675
-0.309979
-0.300418
-0.290114
-0.279235
-0.267963
-0.25631
-0.244528
-0.231976
-0.220083
-0.368511
-0.365258
-0.361581
-0.357181
-0.352201
-0.346875
-0.341353
-0.335708
-0.32992
-0.323875
-0.317394
-0.310287
-0.302421
-0.293769
-0.284378
-0.274381
-0.263731
-0.252751
-0.240679
-0.229136
-0.361186
-0.358595
-0.355419
-0.35147
-0.346903
-0.341951
-0.336801
-0.331594
-0.326401
-0.321196
-0.315857
-0.310186
-0.303963
-0.297024
-0.289262
-0.280723
-0.271252
-0.261234
-0.249764
-0.238624
-0.35464
-0.352631
-0.349905
-0.346366
-0.342175
-0.337557
-0.332723
-0.327864
-0.323128
-0.318579
-0.314173
-0.309752
-0.305065
-0.299848
-0.293831
-0.286942
-0.278867
-0.270019
-0.259299
-0.248703
-0.34887
-0.347356
-0.345024
-0.341853
-0.338002
-0.333686
-0.329127
-0.324554
-0.320173
-0.316127
-0.31246
-0.309087
-0.30578
-0.302227
-0.298023
-0.292966
-0.286522
-0.279123
-0.269387
-0.259447
-0.343868
-0.342755
-0.340761
-0.337915
-0.334372
-0.330332
-0.326023
-0.321697
-0.317599
-0.31394
-0.310844
-0.308315
-0.306193
-0.304178
-0.301784
-0.298694
-0.294142
-0.288492
-0.280068
-0.271237
-0.339609
-0.338814
-0.337095
-0.334535
-0.331273
-0.327493
-0.323422
-0.319322
-0.315467
-0.312111
-0.309451
-0.307578
-0.306424
-0.305759
-0.30509
-0.304024
-0.301574
-0.298075
-0.291336
-0.283896
-0.336073
-0.335493
-0.333999
-0.331692
-0.32869
-0.325161
-0.321327
-0.317452
-0.313823
-0.310724
-0.3084
-0.307022
-0.306624
-0.307077
-0.307961
-0.308855
-0.308695
-0.307464
-0.303686
-0.297645
-0.333204
-0.332753
-0.331437
-0.329354
-0.326597
-0.323319
-0.319733
-0.316096
-0.312699
-0.309838
-0.307792
-0.306788
-0.306954
-0.308276
-0.31048
-0.31313
-0.315382
-0.316438
-0.316356
-0.311167
-0.330934
-0.330537
-0.329362
-0.327478
-0.324957
-0.321937
-0.318616
-0.315242
-0.312099
-0.309485
-0.307692
-0.306985
-0.307567
-0.309528
-0.312782
-0.316881
-0.321488
-0.324676
-0.328153
-0.324479
-0.329182
-0.328779
-0.327716
-0.326011
-0.323722
-0.320968
-0.317933
-0.314852
-0.311996
-0.309655
-0.308121
-0.307678
-0.308579
-0.310996
-0.315035
-0.320231
-0.326957
-0.331984
-0.338991
-0.337488
-0.327855
-0.327408
-0.326431
-0.324893
-0.322833
-0.320354
-0.317626
-0.314868
-0.312336
-0.310303
-0.309053
-0.308873
-0.310045
-0.312795
-0.317405
-0.323368
-0.331883
-0.338324
-0.34908
-0.349905
-0.326855
-0.326346
-0.325439
-0.32406
-0.322225
-0.320029
-0.317625
-0.315215
-0.313037
-0.311347
-0.310414
-0.310517
-0.311949
-0.314971
-0.320001
-0.326484
-0.336438
-0.343822
-0.358459
-0.36114
-0.326085
-0.325515
-0.324673
-0.323446
-0.321835
-0.319924
-0.317853
-0.315808
-0.314008
-0.312687
-0.312099
-0.312511
-0.314216
-0.317484
-0.322848
-0.329717
-0.340744
-0.348758
-0.366975
-0.37104
-0.325456
-0.324842
-0.324069
-0.322992
-0.321602
-0.319974
-0.318238
-0.316563
-0.315149
-0.314211
-0.313984
-0.314724
-0.316721
-0.320291
-0.325885
-0.333098
-0.344828
-0.353457
-0.374372
-0.379508
-0.32489
-0.324266
-0.32357
-0.322645
-0.32147
-0.32012
-0.318711
-0.3174
-0.316367
-0.315809
-0.315944
-0.317013
-0.319302
-0.323129
-0.328974
-0.336545
-0.348637
-0.358083
-0.38049
-0.386953
-0.324324
-0.323732
-0.32313
-0.322357
-0.321394
-0.32031
-0.319214
-0.318249
-0.317578
-0.317382
-0.31786
-0.319243
-0.32181
-0.32589
-0.331943
-0.33988
-0.352077
-0.362537
-0.385331
-0.393605
-0.323712
-0.323201
-0.322711
-0.322094
-0.321336
-0.320503
-0.319699
-0.319053
-0.318715
-0.318847
-0.319634
-0.321297
-0.324109
-0.328405
-0.334622
-0.342872
-0.355012
-0.366565