/*--------------------------------*- C++ -*----------------------------------*\
  =========                 |
  \\      /  F ield         | OpenFOAM: The Open Source CFD Toolbox
   \\    /   O peration     | Website:  https://openfoam.org
    \\  /    A nd           | Version:  7
     \\/     M anipulation  |
\*---------------------------------------------------------------------------*/
FoamFile
{
    version     2.0;
    format      ascii;
    class       surfaceScalarField;
    location    "1.2";
    object      phi;
}
// * * * * * * * * * * * * * * * * * * * * * * * * * * * * * * * * * * * * * //

dimensions      [0 3 -1 0 0 0 0];

internalField   nonuniform List<scalar> 
627
(
5.77261e-05
-4.75252e-13
5.77261e-05
-1.79631e-13
5.77261e-05
-2.87425e-14
5.77261e-05
3.51311e-14
5.77261e-05
7.54934e-14
5.77261e-05
1.14385e-13
5.77261e-05
1.14975e-13
5.77261e-05
8.3365e-14
5.77261e-05
6.68055e-14
5.77261e-05
6.96668e-14
5.77261e-05
5.14974e-14
5.77261e-05
6.61269e-15
5.77261e-05
-3.21178e-14
5.77261e-05
-4.07378e-14
-6.56567e-14
4.83651e-05
1.76577e-09
4.83657e-05
1.41524e-09
4.83662e-05
1.13511e-09
4.83666e-05
9.11511e-10
4.83669e-05
7.32988e-10
4.83671e-05
5.90401e-10
4.83673e-05
4.76426e-10
4.83675e-05
3.85228e-10
4.83676e-05
3.12173e-10
4.83677e-05
2.53555e-10
4.83678e-05
2.06425e-10
4.83679e-05
1.68496e-10
4.8368e-05
1.37898e-10
4.8368e-05
1.13166e-10
4.8368e-05
9.31053e-11
4.83681e-05
7.67966e-11
4.83681e-05
6.35192e-11
4.83681e-05
5.26533e-11
4.83681e-05
4.37496e-11
4.83682e-05
3.64528e-11
4.83682e-05
3.04539e-11
4.83682e-05
2.547e-11
4.83682e-05
2.1346e-11
4.83682e-05
1.79438e-11
4.83682e-05
1.51209e-11
4.83682e-05
1.27514e-11
4.83682e-05
1.07839e-11
4.83682e-05
9.13265e-12
4.83682e-05
7.73032e-12
4.83682e-05
6.51605e-12
4.83682e-05
5.48704e-12
4.83682e-05
4.62536e-12
4.83682e-05
3.9021e-12
4.83682e-05
3.27813e-12
4.83682e-05
2.77188e-12
4.83682e-05
2.33829e-12
4.83682e-05
1.94183e-12
4.83682e-05
1.57475e-12
4.83682e-05
1.23999e-12
4.83682e-05
9.61082e-13
4.83682e-05
7.03803e-13
4.83682e-05
4.68568e-13
4.83682e-05
3.04908e-13
4.83682e-05
2.58773e-13
4.83682e-05
1.99494e-13
4.83682e-05
9.58784e-14
4.83682e-05
4.91896e-14
4.83682e-05
2.73252e-14
4.83682e-05
5.80595e-15
4.83682e-05
-2.72583e-14
4.83682e-05
-1.22272e-13
4.83682e-05
-3.90908e-13
4.83682e-05
-4.06549e-13
4.83682e-05
-1.55149e-13
4.83682e-05
-3.56846e-14
4.83682e-05
1.5484e-14
4.83682e-05
4.85151e-14
4.83682e-05
7.64693e-14
4.83682e-05
7.86059e-14
4.83682e-05
5.97189e-14
4.83682e-05
4.90894e-14
4.83682e-05
4.95056e-14
4.83682e-05
3.57883e-14
4.83682e-05
6.84637e-15
4.83682e-05
-1.91395e-14
4.83682e-05
-1.0825e-14
-3.08917e-14
3.85015e-05
1.09769e-09
3.85021e-05
8.79852e-10
3.85025e-05
7.05668e-10
3.85028e-05
5.66622e-10
3.85031e-05
4.55588e-10
3.85033e-05
3.66891e-10
3.85035e-05
2.95994e-10
3.85037e-05
2.39268e-10
3.85038e-05
1.93824e-10
3.85039e-05
1.57362e-10
3.85039e-05
1.28051e-10
3.8504e-05
1.04471e-10
3.85041e-05
8.54538e-11
3.85041e-05
7.00826e-11
3.85041e-05
5.76226e-11
3.85042e-05
4.74997e-11
3.85042e-05
3.92601e-11
3.85042e-05
3.25213e-11
3.85042e-05
2.70033e-11
3.85042e-05
2.24862e-11
3.85043e-05
1.87734e-11
3.85043e-05
1.56922e-11
3.85043e-05
1.31441e-11
3.85043e-05
1.10412e-11
3.85043e-05
9.29733e-12
3.85043e-05
7.83847e-12
3.85043e-05
6.62743e-12
3.85043e-05
5.61346e-12
3.85043e-05
4.75123e-12
3.85043e-05
4.00388e-12
3.85043e-05
3.37297e-12
3.85043e-05
2.84587e-12
3.85043e-05
2.40183e-12
3.85043e-05
2.01968e-12
3.85043e-05
1.70752e-12
3.85043e-05
1.4403e-12
3.85043e-05
1.19687e-12
3.85043e-05
9.71101e-13
3.85043e-05
7.64035e-13
3.85043e-05
5.90369e-13
3.85043e-05
4.32944e-13
3.85043e-05
2.91162e-13
3.85043e-05
1.98441e-13
3.85043e-05
1.75905e-13
3.85043e-05
1.3508e-13
3.85043e-05
6.60444e-14
3.85043e-05
3.40934e-14
3.85043e-05
1.81461e-14
3.85043e-05
2.96014e-15
3.85043e-05
-2.43383e-14
3.85043e-05
-1.01264e-13
3.85043e-05
-3.04952e-13
3.85043e-05
-2.84757e-13
3.85043e-05
-8.75662e-14
3.85043e-05
-2.81875e-14
3.85043e-05
5.40547e-15
3.85043e-05
2.81931e-14
3.85043e-05
4.6295e-14
3.85043e-05
4.86947e-14
3.85043e-05
3.83616e-14
3.85043e-05
3.2265e-14
3.85043e-05
3.18263e-14
3.85043e-05
2.27959e-14
3.85043e-05
6.36776e-15
3.85043e-05
-1.00035e-14
3.85043e-05
3.58804e-15
-1.11851e-14
2.81323e-05
5.44866e-10
2.81328e-05
4.36808e-10
2.81331e-05
3.5031e-10
2.81334e-05
2.81263e-10
2.81337e-05
2.2612e-10
2.81338e-05
1.8206e-10
2.8134e-05
1.46841e-10
2.81341e-05
1.18666e-10
2.81342e-05
9.60923e-11
2.81343e-05
7.79785e-11
2.81344e-05
6.34217e-11
2.81344e-05
5.17168e-11
2.81344e-05
4.22775e-11
2.81345e-05
3.46471e-11
2.81345e-05
2.8468e-11
2.81345e-05
2.3452e-11
2.81346e-05
1.93688e-11
2.81346e-05
1.60313e-11
2.81346e-05
1.33011e-11
2.81346e-05
1.10692e-11
2.81346e-05
9.23628e-12
2.81346e-05
7.71508e-12
2.81346e-05
6.45763e-12
2.81346e-05
5.41986e-12
2.81346e-05
4.55966e-12
2.81346e-05
3.84352e-12
2.81346e-05
3.24995e-12
2.81346e-05
2.75314e-12
2.81346e-05
2.33076e-12
2.81346e-05
1.96346e-12
2.81346e-05
1.65557e-12
2.81347e-05
1.39998e-12
2.81347e-05
1.18188e-12
2.81347e-05
9.92618e-13
2.81347e-05
8.38211e-13
2.81347e-05
7.07042e-13
2.81347e-05
5.88569e-13
2.81347e-05
4.77754e-13
2.81347e-05
3.74472e-13
2.81347e-05
2.88813e-13
2.81347e-05
2.13e-13
2.81347e-05
1.44096e-13
2.81347e-05
1.00809e-13
2.81347e-05
9.32083e-14
2.81347e-05
7.14406e-14
2.81347e-05
3.49821e-14
2.81347e-05
1.91192e-14
2.81347e-05
1.05347e-14
2.81347e-05
2.46784e-15
2.81347e-05
-1.25173e-14
2.81347e-05
-5.84644e-14
2.81347e-05
-1.48593e-13
2.81347e-05
-1.23807e-13
2.81347e-05
-3.7809e-14
2.81347e-05
-1.69814e-14
2.81347e-05
5.19644e-16
2.81347e-05
1.31751e-14
2.81347e-05
2.37259e-14
2.81347e-05
2.59118e-14
2.81347e-05
2.08645e-14
2.81347e-05
1.72981e-14
2.81347e-05
1.7231e-14
2.81347e-05
1.29486e-14
2.81347e-05
5.55422e-15
2.81347e-05
-4.27215e-15
2.81347e-05
9.36684e-15
5.10082e-16
1.72587e-05
1.57165e-10
1.72591e-05
1.26029e-10
1.72593e-05
1.01056e-10
1.72595e-05
8.11256e-11
1.72597e-05
6.52142e-11
1.72598e-05
5.24966e-11
1.72599e-05
4.23273e-11
1.726e-05
3.41945e-11
1.72601e-05
2.76769e-11
1.72601e-05
2.24479e-11
1.72602e-05
1.82471e-11
1.72602e-05
1.48692e-11
1.72602e-05
1.21455e-11
1.72602e-05
9.94381e-12
1.72603e-05
8.16322e-12
1.72603e-05
6.71979e-12
1.72603e-05
5.54406e-12
1.72603e-05
4.58395e-12
1.72603e-05
3.79946e-12
1.72603e-05
3.15928e-12
1.72603e-05
2.63532e-12
1.72603e-05
2.19843e-12
1.72603e-05
1.83685e-12
1.72603e-05
1.53981e-12
1.72604e-05
1.29393e-12
1.72604e-05
1.0912e-12
1.72604e-05
9.23211e-13
1.72604e-05
7.81086e-13
1.72604e-05
6.61929e-13
1.72604e-05
5.5802e-13
1.72604e-05
4.71886e-13
1.72604e-05
4.01923e-13
1.72604e-05
3.38814e-13
1.72604e-05
2.8159e-13
1.72604e-05
2.36713e-13
1.72604e-05
2.00098e-13
1.72604e-05
1.67536e-13
1.72604e-05
1.3629e-13
1.72604e-05
1.06084e-13
1.72604e-05
8.17949e-14
1.72604e-05
6.10548e-14
1.72604e-05
4.11149e-14
1.72604e-05
2.82316e-14
1.72604e-05
2.76635e-14
1.72604e-05
2.15958e-14
1.72604e-05
1.03204e-14
1.72604e-05
7.14038e-15
1.72604e-05
5.07764e-15
1.72604e-05
2.41185e-15
1.72604e-05
-1.42402e-15
1.72604e-05
-1.67881e-14
1.72604e-05
-4.35761e-14
1.72604e-05
-3.32704e-14
1.72604e-05
-1.08506e-14
1.72604e-05
-7.25795e-15
1.72604e-05
-1.18042e-15
1.72604e-05
3.38417e-15
1.72604e-05
8.63155e-15
1.72604e-05
1.03618e-14
1.72604e-05
8.14916e-15
1.72604e-05
6.80646e-15
1.72604e-05
7.60515e-15
1.72604e-05
6.34552e-15
1.72604e-05
3.94977e-15
1.72604e-05
-4.33314e-16
1.72604e-05
8.40841e-15
4.93116e-15
5.88262e-06
5.88274e-06
5.88285e-06
5.88293e-06
5.88299e-06
5.88304e-06
5.88309e-06
5.88312e-06
5.88315e-06
5.88317e-06
5.88319e-06
5.8832e-06
5.88322e-06
5.88323e-06
5.88323e-06
5.88324e-06
5.88325e-06
5.88325e-06
5.88326e-06
5.88326e-06
5.88326e-06
5.88326e-06
5.88326e-06
5.88327e-06
5.88327e-06
5.88327e-06
5.88327e-06
5.88327e-06
5.88327e-06
5.88327e-06
5.88327e-06
5.88327e-06
5.88327e-06
5.88327e-06
5.88327e-06
5.88327e-06
5.88327e-06
5.88327e-06
5.88327e-06
5.88327e-06
5.88327e-06
5.88327e-06
5.88327e-06
5.88327e-06
5.88327e-06
5.88327e-06
5.88327e-06
5.88327e-06
5.88327e-06
5.88327e-06
5.88327e-06
5.88327e-06
5.88327e-06
5.88327e-06
5.88327e-06
5.88327e-06
5.88327e-06
5.88327e-06
5.88327e-06
5.88327e-06
5.88327e-06
5.88327e-06
5.88327e-06
5.88327e-06
5.88327e-06
5.88327e-06
)
;

boundaryField
{
    inlet
    {
        type            calculated;
        value           nonuniform 0();
    }
    outlet
    {
        type            calculated;
        value           nonuniform List<scalar> 6(5.77261e-05 4.83682e-05 3.85043e-05 2.81347e-05 1.72604e-05 5.88327e-06);
    }
    wall
    {
        type            calculated;
        value           uniform 0;
    }
    wedge1
    {
        type            wedge;
        value           nonuniform List<scalar> 
350
(
-1.28217e-19
-8.71086e-20
-1.38266e-19
-2.67769e-20
2.91352e-20
-1.06101e-19
-7.25289e-20
-1.1182e-19
-2.21304e-20
2.34053e-20
-8.92039e-20
-6.10452e-20
-9.14928e-20
-1.87095e-20
1.84997e-20
-7.50898e-20
-5.17779e-20
-7.54996e-20
-1.62979e-20
1.44251e-20
-6.33722e-20
-4.40829e-20
-6.37155e-20
-1.49416e-20
1.06679e-20
-5.3786e-20
-3.78374e-20
-5.22322e-20
-1.27246e-20
8.58555e-21
-4.62367e-20
-3.25676e-20
-4.46505e-20
-1.17115e-20
6.15901e-21
-4.02349e-20
-2.88134e-20
-3.70901e-20
-1.02048e-20
4.95482e-21
-3.56455e-20
-2.5538e-20
-3.26774e-20
-9.69382e-21
3.26366e-21
-3.19186e-20
-2.30334e-20
-2.72137e-20
-8.31494e-21
2.72455e-21
-2.95081e-20
-2.1202e-20
-2.37436e-20
-7.64178e-21
1.9354e-21
-2.71288e-20
-1.96148e-20
-2.10001e-20
-7.16432e-21
1.27748e-21
-2.48881e-20
-1.82394e-20
-1.88259e-20
-6.91469e-21
6.81072e-22
-2.32092e-20
-1.71854e-20
-1.81334e-20
-7.2819e-21
-2.31627e-22
-2.1327e-20
-1.60727e-20
-1.55777e-20
-6.51272e-21
-1.63352e-22
-2.02462e-20
-1.51836e-20
-1.51687e-20
-6.6567e-21
-8.04547e-22
-1.90103e-20
-1.44958e-20
-1.32037e-20
-6.04498e-21
-6.55234e-22
-1.83581e-20
-1.38937e-20
-1.31509e-20
-6.21081e-21
-1.17834e-21
-1.76935e-20
-1.34496e-20
-1.14373e-20
-5.5193e-21
-8.67133e-22
-1.76742e-20
-1.32559e-20
-1.08585e-20
-5.31272e-21
-9.65285e-22
-1.72729e-20
-1.30909e-20
-1.06207e-20
-5.40165e-21
-1.15222e-21
-1.67354e-20
-1.27793e-20
-1.10495e-20
-5.81193e-21
-1.5862e-21
-1.616e-20
-1.241e-20
-9.77014e-21
-5.22313e-21
-1.28445e-21
-1.62513e-20
-1.23098e-20
-9.47225e-21
-5.07076e-21
-1.29615e-21
-1.60797e-20
-1.22777e-20
-9.38243e-21
-5.13628e-21
-1.38973e-21
-1.56197e-20
-1.19832e-20
-9.92057e-21
-5.5131e-21
-1.75732e-21
-1.51528e-20
-1.17347e-20
-8.86294e-21
-5.02349e-21
-1.43183e-21
-1.52828e-20
-1.16254e-20
-8.61599e-21
-4.81038e-21
-1.39881e-21
-1.50295e-20
-1.15459e-20
-8.54346e-21
-4.87896e-21
-1.44498e-21
-1.45842e-20
-1.12635e-20
-9.07094e-21
-5.23242e-21
-1.77848e-21
-1.3951e-20
-1.08957e-20
-8.12118e-21
-4.77784e-21
-1.48592e-21
-1.37596e-20
-1.06267e-20
-8.50765e-21
-4.93526e-21
-1.71225e-21
-1.33907e-20
-1.0475e-20
-7.73688e-21
-4.57832e-21
-1.44723e-21
-1.33276e-20
-1.03369e-20
-8.21284e-21
-4.82895e-21
-1.70862e-21
-1.31115e-20
-1.01559e-20
-7.37613e-21
-4.37128e-21
-1.38234e-21
-1.33283e-20
-1.01286e-20
-7.23512e-21
-4.21408e-21
-1.33092e-21
-1.32729e-20
-1.01082e-20
-7.21787e-21
-4.20698e-21
-1.35062e-21
-1.30296e-20
-1.00341e-20
-7.1706e-21
-4.243e-21
-1.36196e-21
-1.27554e-20
-9.8039e-21
-7.57381e-21
-4.48329e-21
-1.58588e-21
-1.23795e-20
-9.64247e-21
-6.9954e-21
-4.20617e-21
-1.38415e-21
-1.2251e-20
-9.46742e-21
-7.30975e-21
-4.35238e-21
-1.54641e-21
-1.19922e-20
-9.32764e-21
-6.72663e-21
-4.05419e-21
-1.33412e-21
-1.19145e-20
-9.19919e-21
-7.05664e-21
-4.20466e-21
-1.49795e-21
-1.18367e-20
-9.14626e-21
-6.52047e-21
-3.88575e-21
-1.27366e-21
-1.19802e-20
-9.1349e-21
-6.44662e-21
-3.81194e-21
-1.24312e-21
-1.18725e-20
-9.108e-21
-6.46649e-21
-3.86094e-21
-1.27247e-21
-1.17764e-20
-9.07471e-21
-6.85084e-21
-4.07439e-21
-1.44356e-21
-1.16081e-20
-8.94073e-21
-6.35742e-21
-3.7954e-21
-1.25059e-21
-1.16181e-20
-8.8512e-21
-6.22743e-21
-3.67643e-21
-1.20168e-21
-1.14627e-20
-8.78067e-21
-6.19808e-21
-3.68377e-21
-1.20847e-21
-1.12958e-20
-8.69852e-21
-6.46891e-21
-3.86745e-21
-1.35302e-21
-1.10955e-20
-8.55562e-21
-6.07661e-21
-3.64337e-21
-1.2198e-21
-1.40137e-20
-1.1038e-20
-8.44874e-21
-5.93611e-21
-3.53105e-21
-1.16764e-21
-1.36735e-20
-1.08846e-20
-8.34129e-21
-5.89254e-21
-3.51139e-21
-1.15603e-21
-1.31038e-20
-1.06718e-20
-8.18721e-21
-6.04883e-21
-3.59132e-21
-1.2476e-21
-1.29436e-20
-1.04016e-20
-8.02492e-21
-5.7116e-21
-3.42287e-21
-1.12918e-21
-1.25835e-20
-1.0262e-20
-7.87944e-21
-5.78892e-21
-3.44312e-21
-1.18336e-21
-1.25445e-20
-1.00992e-20
-7.76577e-21
-5.51992e-21
-3.29011e-21
-1.08718e-21
-1.2441e-20
-1.00018e-20
-7.69328e-21
-5.47355e-21
-3.25849e-21
-1.07992e-21
-1.22465e-20
-9.9944e-21
-7.74955e-21
-5.64895e-21
-3.41171e-21
-1.15473e-21
-1.21871e-20
-9.79598e-21
-7.52879e-21
-5.34936e-21
-3.18169e-21
-1.04858e-21
-1.20438e-20
-9.64199e-21
-7.35765e-21
-5.18842e-21
-3.06339e-21
-1.00836e-21
-1.18649e-20
-9.47879e-21
-7.22593e-21
-5.08211e-21
-3.00503e-21
-9.85833e-22
-1.16441e-20
-9.28221e-21
-7.06561e-21
-4.96498e-21
-2.92956e-21
-9.62998e-22
-1.12876e-20
-8.98655e-21
-6.80487e-21
-4.78786e-21
-2.81211e-21
-9.25349e-22
-1.12154e-20
-8.91453e-21
-6.78495e-21
-4.76818e-21
-2.81482e-21
-9.2442e-22
-1.11514e-20
-8.86704e-21
-6.75725e-21
-4.75297e-21
-2.80798e-21
-9.22442e-22
)
;
    }
    wedge2
    {
        type            wedge;
        value           nonuniform List<scalar> 
350
(
-9.10263e-20
-5.82243e-20
-1.14891e-19
-1.27484e-20
3.4471e-20
-6.96029e-20
-4.39536e-20
-9.11073e-20
-9.55791e-21
2.76013e-20
-5.17258e-20
-3.23808e-20
-7.12621e-20
-6.70473e-21
2.24049e-20
-3.8088e-20
-2.32451e-20
-5.51865e-20
-4.10736e-21
1.84145e-20
-2.76538e-20
-1.62491e-20
-4.13679e-20
-1.46423e-21
1.57307e-20
-1.95488e-20
-1.07611e-20
-3.2401e-20
-4.8655e-22
1.26675e-20
-1.29581e-20
-6.65197e-21
-2.36353e-20
1.05436e-21
1.098e-20
-7.64655e-21
-2.90213e-21
-1.81161e-20
1.5912e-21
8.8923e-21
-3.17264e-21
-1.66056e-22
-1.20508e-20
2.71719e-21
7.94674e-21
3.72596e-22
2.15237e-21
-9.10884e-21
2.65139e-21
6.37102e-21
3.80716e-21
4.19697e-21
-5.82443e-21
3.03327e-21
5.46124e-21
6.13488e-21
5.73045e-21
-3.13115e-21
3.40485e-21
4.75239e-21
7.69328e-21
6.87311e-21
-9.19508e-22
3.83998e-21
4.24679e-21
9.088e-21
7.85569e-21
1.93434e-21
4.76073e-21
4.26901e-21
9.69885e-21
8.39415e-21
2.25262e-21
4.43996e-21
3.48002e-21
1.06455e-20
8.84739e-21
4.17897e-21
4.94816e-21
3.53641e-21
1.10632e-20
9.25397e-21
4.11719e-21
4.63314e-21
2.91075e-21
1.17633e-20
9.54646e-21
5.61993e-21
5.04138e-21
3.04473e-21
1.22076e-20
9.83564e-21
5.18045e-21
4.54833e-21
2.41525e-21
1.30999e-20
1.02443e-20
5.64784e-21
4.5046e-21
2.25244e-21
1.34503e-20
1.05758e-20
6.27168e-21
4.72757e-21
2.22475e-21
1.35346e-20
1.06745e-20
7.41218e-21
5.24853e-21
2.48169e-21
1.34746e-20
1.06453e-20
6.72258e-21
4.75142e-21
2.03331e-21
1.39937e-20
1.08272e-20
6.9137e-21
4.67498e-21
1.92357e-21
1.41775e-20
1.10291e-20
7.22852e-21
4.80327e-21
1.91708e-21
1.40134e-20
1.09288e-20
8.10198e-21
5.23204e-21
2.20223e-21
1.37942e-20
1.0843e-20
7.32493e-21
4.78586e-21
1.80805e-21
1.41334e-20
1.08714e-20
7.31611e-21
4.6096e-21
1.71665e-21
1.4058e-20
1.09092e-20
7.44671e-21
4.70965e-21
1.71286e-21
1.37646e-20
1.07269e-20
8.14774e-21
5.09002e-21
2.00355e-21
1.3261e-20
1.04444e-20
7.34557e-21
4.65829e-21
1.67455e-21
1.31801e-20
1.02479e-20
7.85703e-21
4.83503e-21
1.87008e-21
1.29041e-20
1.01567e-20
7.19015e-21
4.49409e-21
1.57985e-21
1.29177e-20
1.00682e-20
7.75022e-21
4.75761e-21
1.82125e-21
1.2764e-20
9.92735e-21
6.98141e-21
4.31028e-21
1.47904e-21
1.30352e-20
9.93532e-21
6.90048e-21
4.16224e-21
1.41333e-21
1.30302e-20
9.94796e-21
6.94011e-21
4.1639e-21
1.41921e-21
1.2832e-20
9.90366e-21
6.94434e-21
4.2079e-21
1.41794e-21
1.25976e-20
9.69989e-21
7.39369e-21
4.45536e-21
1.63037e-21
1.22572e-20
9.56209e-21
6.85654e-21
4.18464e-21
1.41842e-21
1.21615e-20
9.40864e-21
7.20826e-21
4.33664e-21
1.57162e-21
1.19328e-20
9.2882e-21
6.65787e-21
4.04344e-21
1.35165e-21
1.1877e-20
9.1728e-21
7.00838e-21
4.19681e-21
1.51151e-21
1.18066e-20
9.12363e-21
6.47665e-21
3.87826e-21
1.28752e-21
1.19562e-20
9.1166e-21
6.41063e-21
3.80571e-21
1.25478e-21
1.18593e-20
9.09762e-21
6.44565e-21
3.85728e-21
1.27923e-21
1.17697e-20
9.06939e-21
6.83991e-21
4.07237e-21
1.44734e-21
1.16044e-20
8.93792e-21
6.35171e-21
3.79425e-21
1.2529e-21
1.16159e-20
8.85e-21
6.2253e-21
3.67597e-21
1.20289e-21
1.14642e-20
8.78334e-21
6.20485e-21
3.68496e-21
1.20661e-21
1.13091e-20
8.7122e-21
6.49909e-21
3.87283e-21
1.34347e-21
1.11392e-20
8.5927e-21
6.14881e-21
3.65429e-21
1.20341e-21
1.37017e-20
1.10855e-20
8.48513e-21
5.9994e-21
3.53929e-21
1.1582e-21
1.35322e-20
1.09046e-20
8.35509e-21
5.91303e-21
3.51371e-21
1.15434e-21
1.30796e-20
1.06766e-20
8.19108e-21
6.05562e-21
3.5923e-21
1.24627e-21
1.29838e-20
1.03987e-20
8.02362e-21
5.7099e-21
3.42265e-21
1.12951e-21
1.26548e-20
1.02553e-20
7.87553e-21
5.78266e-21
3.44221e-21
1.1846e-21
1.26265e-20
1.00911e-20
7.7609e-21
5.51185e-21
3.28892e-21
1.08872e-21
1.25219e-20
9.99367e-21
7.68824e-21
5.46516e-21
3.25726e-21
1.08148e-21
1.23193e-20
9.98696e-21
7.74489e-21
5.64121e-21
3.41059e-21
1.15612e-21
1.22472e-20
9.78989e-21
7.52503e-21
5.34317e-21
3.1808e-21
1.04958e-21
1.20883e-20
9.63763e-21
7.35506e-21
5.18418e-21
3.0628e-21
1.00888e-21
1.18914e-20
9.4763e-21
7.22454e-21
5.07991e-21
3.00476e-21
9.85889e-22
1.16506e-20
9.28172e-21
7.06539e-21
4.9647e-21
2.92955e-21
9.62803e-22
1.12686e-20
8.98866e-21
6.80629e-21
4.79047e-21
2.81257e-21
9.24176e-22
1.11716e-20
8.9181e-21
6.78632e-21
4.76864e-21
2.81461e-21
9.25279e-22
1.10858e-20
8.87289e-21
6.76014e-21
4.75617e-21
2.80823e-21
9.22593e-22
)
;
    }
    axis
    {
        type            empty;
        value           nonuniform 0();
    }
    procBoundary47to41
    {
        type            processor;
        value           nonuniform List<scalar> 
68
(
3.39637e-13
1.35918e-13
-8.91773e-15
-8.14656e-14
-1.12872e-13
-1.20043e-13
-1.1145e-13
-8.97882e-14
-6.25515e-14
-4.14039e-14
-2.16837e-14
8.82158e-15
4.29311e-14
7.94888e-14
1.10941e-13
-2.51094e-09
-2.0123e-09
-1.61407e-09
-1.29624e-09
-1.04251e-09
-8.39859e-10
-6.77872e-10
-5.48263e-10
-4.4443e-10
-3.6112e-10
-2.94168e-10
-2.40251e-10
-1.9673e-10
-1.61529e-10
-1.32986e-10
-1.09775e-10
-9.08491e-11
-7.53773e-11
-6.26934e-11
-5.22679e-11
-4.36715e-11
-3.65661e-11
-3.06782e-11
-2.57863e-11
-2.17171e-11
-1.83302e-11
-1.54986e-11
-1.311e-11
-1.10829e-11
-9.3544e-12
-7.87799e-12
-6.62123e-12
-5.56563e-12
-4.69184e-12
-3.975e-12
-3.34767e-12
-2.76394e-12
-2.24281e-12
-1.78661e-12
-1.38667e-12
-1.01864e-12
-6.72945e-13
-4.00869e-13
-3.05775e-13
-2.38441e-13
-1.19143e-13
-5.59941e-14
-2.93354e-14
-2.11686e-14
3.48708e-15
8.72223e-14
-5.77261e-05
3.97494e-13
)
;
    }
    procBoundary47to46
    {
        type            processor;
        value           nonuniform List<scalar> 5(-4.83644e-05 -3.85008e-05 -2.81318e-05 -1.72584e-05 -5.88246e-06);
    }
}


// ************************************************************************* //
