/*--------------------------------*- C++ -*----------------------------------*\
  =========                 |
  \\      /  F ield         | OpenFOAM: The Open Source CFD Toolbox
   \\    /   O peration     | Website:  https://openfoam.org
    \\  /    A nd           | Version:  7
     \\/     M anipulation  |
\*---------------------------------------------------------------------------*/
FoamFile
{
    version     2.0;
    format      ascii;
    class       surfaceScalarField;
    location    "7";
    object      phi;
}
// * * * * * * * * * * * * * * * * * * * * * * * * * * * * * * * * * * * * * //

dimensions      [0 3 -1 0 0 0 0];

internalField   nonuniform List<scalar> 
806
(
0.000551813
-0.00242939
0.000582746
-0.0026165
0.000610661
-0.00280719
0.00063519
-0.00300042
-0.0031957
0.000218382
-0.00104655
0.000250012
-0.00117557
0.000281916
-0.00131184
0.000313943
-0.00145543
0.00034582
-0.0016062
0.000377171
-0.00176387
0.000407563
-0.00192805
0.000436536
-0.00209822
0.000463618
-0.0022738
0.000488335
-0.00245411
0.000510231
-0.00263839
0.000528885
-0.00282584
0.000543947
-0.00301548
-0.00320679
2.40814e-05
-0.00035989
8.75801e-05
-0.000312934
0.000138053
-0.000342935
0.000166198
-0.000404129
0.000184367
-0.000496395
0.000196606
-0.000598321
0.000206361
-0.000705537
0.000216333
-0.000817904
0.000228244
-0.00093624
0.000242867
-0.00106117
0.000260243
-0.00119295
0.000279931
-0.00133152
0.000301239
-0.00147674
0.000323388
-0.00162835
0.000345598
-0.00178608
0.000367138
-0.00194959
0.000387339
-0.00211842
0.000405588
-0.00229205
0.000421333
-0.00246986
0.000434081
-0.00265114
0.000443411
-0.00283517
0.000449004
-0.00302108
0.000450507
-0.00320829
-0.00339606
-0.00724361
0.00376356
-0.00698248
0.00196123
-0.00584094
-0.000424239
-0.00406672
-0.00250029
-0.00212777
-0.00366204
-0.000502023
-0.00386481
0.000588798
-0.00342565
0.00112517
-0.0026446
0.00124171
-0.00182402
0.00111588
-0.00110595
0.000908491
-0.000596426
0.000704077
-0.000301104
0.000531012
-0.000186825
0.000406663
-0.000188585
0.000319847
-0.000256118
0.000262799
-0.000347081
0.00022774
-0.000461337
0.000209112
-0.000579693
0.000202694
-0.00069912
0.000205146
-0.000820356
0.000213798
-0.000944891
0.000226552
-0.00107393
0.0002418
-0.00120819
0.000258329
-0.00134805
0.000275226
-0.00149363
0.000291783
-0.00164491
0.000307414
-0.00180171
0.000321598
-0.00196377
0.000333847
-0.00213067
0.000343689
-0.0023019
0.000350676
-0.00247684
0.000354394
-0.00265486
0.000354491
-0.00283527
0.00035071
-0.00301729
0.000342747
-0.00320033
-0.00338355
-0.00185313
-0.00403546
0.00355456
-0.00458668
0.00376884
-0.00383289
0.00350036
-0.0029038
0.00283446
-0.00243298
0.00149042
-0.00248169
-0.000375537
-0.00268512
-0.00229686
-0.00260758
-0.00373958
-0.00207202
-0.00440037
-0.00126697
-0.0042307
-0.00047206
-0.00343951
9.16345e-05
-0.00238771
0.000382719
-0.00139704
0.000458726
-0.000672432
0.00040729
-0.000249668
0.00030562
-8.51561e-05
0.000205477
-8.84416e-05
0.000137102
-0.000187744
0.000111475
-0.000321453
0.000107495
-0.000457357
0.00011734
-0.000589539
0.000135007
-0.000716786
0.000156034
-0.000841384
0.000177478
-0.000966336
0.000197664
-0.00109411
0.000215816
-0.00122634
0.000231693
-0.00136393
0.000245301
-0.00150724
0.000256694
-0.0016563
0.000265866
-0.00181089
0.000272707
-0.00197061
0.000277
-0.00213497
0.000278453
-0.00230335
0.00027673
-0.00247512
0.0002715
-0.00264963
0.000262473
-0.00282624
0.00024945
-0.00300427
0.000232141
-0.00318302
-0.00336164
0.00165757
0.00322509
0.00220132
0.00471104
0.00201441
0.00565908
0.00188642
0.00570722
0.00144229
0.00475142
0.000580265
0.00308153
-0.000626977
0.00128026
-0.00193831
-0.000100679
-0.00301942
-0.000780524
-0.00355086
-0.000841916
-0.00337812
-0.000580972
-0.00264866
-0.000253739
-0.00172427
-3.27251e-06
-0.000922899
0.000139136
-0.000392077
0.000193207
-0.000139227
0.000206337
-0.000101572
0.00020392
-0.000185327
0.000200064
-0.000317597
0.0001985
-0.000455793
0.000199721
-0.00059076
0.000202888
-0.000719953
0.000206983
-0.000845479
0.000211276
-0.000970629
0.000215346
-0.00109818
0.000218953
-0.00122995
0.000221921
-0.0013669
0.000224047
-0.00150937
0.000225066
-0.00165732
0.000224637
-0.00181046
0.000222353
-0.00196833
0.000217766
-0.00213038
0.000210416
-0.002296
0.000199869
-0.00246457
0.000185741
-0.0026355
0.000167734
-0.00280823
0.000145663
-0.0029822
0.00011926
-0.00315661
-0.00333065
0.00584551
0.00548255
0.00466796
0.00270101
0.00391278
0.00219747
0.0033119
0.00118114
0.00269145
-6.52914e-06
0.00192495
-0.00117181
0.00105458
-0.00214906
0.000269129
-0.00276541
-0.000252534
-0.00285646
-0.00045257
-0.00244862
-0.000409446
-0.00176739
-0.0002476
-0.00108474
-6.24108e-05
-0.000577266
9.69821e-05
-0.00029862
0.000214582
-0.000219171
0.000272758
-0.000243504
0.000292065
-0.000336904
0.000292541
-0.000456269
0.000283166
-0.000581385
0.000269268
-0.000706055
0.000254114
-0.000830325
0.000239591
-0.000956106
0.000226594
-0.00108518
0.000215311
-0.00121867
0.000205463
-0.00135705
0.000196481
-0.00150039
0.000187649
-0.00164849
0.000178196
-0.00180101
0.000167359
-0.00195749
0.000154423
-0.00211744
0.000138755
-0.00228033
0.000119818
-0.00244564
9.71964e-05
-0.00261288
7.05987e-05
-0.00278163
3.98705e-05
-0.00295147
4.64705e-06
-0.00312139
-0.00329046
-3.55432e-05
-0.00244953
-0.00177739
-0.000332544
-0.000263701
0.00128093
-0.00162
0.00247921
-0.0023701
0.00295475
-0.0026246
0.0027142
-0.00252486
0.00205039
-0.00219264
0.00131319
-0.00171143
0.000725545
-0.00117974
0.000358802
-0.000718002
0.00018685
-0.000405314
0.000145284
-0.000257054
0.000159728
-0.000233615
0.000196401
-0.000280177
0.000218261
-0.000358764
0.000227572
-0.00046558
0.000227305
-0.000581119
0.000220535
-0.000699284
0.000210174
-0.000819964
0.000198322
-0.000944254
0.000186162
-0.00107302
0.000174136
-0.00120664
0.000162171
-0.00134508
0.000149886
-0.0014881
0.000136728
-0.00163533
0.000122073
-0.00178635
0.00010529
-0.00194071
8.57816e-05
-0.00209793
6.30191e-05
-0.00225757
3.65737e-05
-0.00241919
6.13661e-06
-0.00258244
-2.84585e-05
-0.00274704
-6.72205e-05
-0.00291271
-0.000110313
-0.0030783
-0.00324287
-0.000157904
-0.00205873
-0.000811273
0.000337669
-0.00351904
0.00114426
-0.00343119
0.00150446
-0.00288506
0.00143743
-0.00212561
0.00111209
-0.00138608
0.00073056
-0.000798213
0.000416607
-0.00040405
0.000208199
-0.000196906
8.93511e-05
-0.000138207
3.66007e-05
-0.000180864
1.89416e-05
-0.000262518
3.06922e-05
-0.000370514
5.03317e-05
-0.00048522
6.94212e-05
-0.000600208
8.51956e-05
-0.000715058
9.66996e-05
-0.000831468
0.00010368
-0.000951235
0.00010619
-0.00107553
0.000104422
-0.00120488
9.86166e-05
-0.00133928
8.89851e-05
-0.00147847
7.56532e-05
-0.001622
5.86337e-05
-0.00176933
3.78302e-05
-0.00191991
1.30667e-05
-0.00207317
-1.58649e-05
-0.00222864
-4.91504e-05
-0.00238591
-8.69011e-05
-0.00254469
-0.000129112
-0.00270483
-0.000175623
-0.0028662
-0.000226398
-0.00302752
-0.00318823
-0.000281041
-0.00320093
-0.00294767
-0.0022347
-0.00359803
-0.00137409
-0.00298622
-0.000642789
-0.00211739
-0.000167951
-0.00127305
6.65124e-05
-0.000638513
0.000135925
-0.000266319
0.000125737
-0.000128018
8.17228e-05
-0.00013685
5.35192e-05
-0.000234314
4.21286e-05
-0.000359124
4.12004e-05
-0.000484292
4.65982e-05
-0.000605606
5.43392e-05
-0.0007228
6.12057e-05
-0.000838335
6.50649e-05
-0.000955094
6.47927e-05
-0.00107526
5.99886e-05
-0.00120007
5.06572e-05
-0.00132995
3.69545e-05
-0.00146477
1.90182e-05
-0.00160406
-3.11033e-06
-0.0017472
-2.95014e-05
-0.00189352
-6.03094e-05
-0.00204236
-9.57206e-05
-0.00219323
-0.00013589
-0.00234574
-0.000180877
-0.0024997
-0.000230594
-0.00265511
-0.000284751
-0.00281204
-0.000343176
-0.0029691
-0.00312597
-0.000405431
-0.0016175
-0.00120965
-0.000643829
-0.00268321
-0.0001425
-0.00177438
0.000195375
-0.000976388
0.000369474
-0.000440417
0.000410394
-0.000168938
0.000381195
-0.000107652
0.000330578
-0.000183698
0.000274206
-0.000302752
0.000224501
-0.000434587
0.000183471
-0.000564576
0.000149526
-0.000688856
0.00012045
-0.000809258
9.43554e-05
-0.000929
6.98283e-05
-0.00105074
4.57909e-05
-0.00117603
2.13541e-05
-0.00130551
-4.28443e-06
-0.00143913
-3.1885e-05
-0.00157646
-6.21784e-05
-0.00171691
-9.58526e-05
-0.00185984
-0.000133526
-0.00200469
-0.000175713
-0.00215104
-0.000222783
-0.00229867
-0.000274914
-0.00244757
-0.000332042
-0.00259798
-0.000393802
-0.00275028
-0.000459873
-0.000529455
-0.000314916
-0.000290554
-0.000168506
-0.00109844
-2.74747e-05
-0.000581449
9.6884e-05
-0.000293297
0.00019562
-0.000206388
0.000237127
-0.000225204
0.000235184
-0.000300808
0.000214159
-0.000413561
0.000183082
-0.000533499
0.000147592
-0.000653366
0.000111081
-0.000772747
7.53589e-05
-0.000893278
4.10905e-05
-0.00101647
8.15295e-06
-0.0011431
-2.40796e-05
-0.00127328
-5.6514e-05
-0.00140669
-9.01754e-05
-0.0015428
-0.000126094
-0.00168099
-0.00016523
-0.0018207
-0.000208429
-0.00196149
-0.000256381
-0.00210309
-0.000309591
-0.00224546
-0.000368329
-0.00238884
-0.000432557
4.99619e-05
-0.000133563
-0.000163605
-0.000263255
-0.000127987
-0.000242006
-7.30842e-05
-0.000280108
-2.68931e-05
-0.000347
-7.10876e-07
-0.000439744
8.56966e-06
-0.000542779
5.0768e-06
-0.000649873
-7.08487e-06
-0.000760586
-2.48415e-05
-0.000875521
-4.63197e-05
-0.000994989
-7.0625e-05
-0.00111879
-9.75515e-05
-0.00124635
-0.000127312
-0.00137693
-0.000160365
-0.00150975
-0.000197289
-0.00164407
-0.000238694
-0.0017793
-0.000285175
-0.00191501
-0.000337272
-0.00205099
-0.000395429
-0.000323861
-0.000320455
-0.000291195
-0.000309368
-0.000247574
-0.00039062
-0.000207591
-0.000479727
-0.000177316
-0.000573054
-0.000157134
-0.000670055
-0.000146209
-0.000771511
-0.00014361
-0.000878121
-0.000148549
-0.00099005
-0.000160415
-0.00110692
-0.000178741
-0.00122803
-0.000203226
-0.00135245
-0.000233693
-0.00147928
-0.000270104
-0.00160766
-0.00031255
-0.00173685
-0.000361231
-0.000140819
-0.000158993
-0.000167407
-0.000170554
-0.000569907
-0.000172404
-0.000668204
-0.000175942
-0.000767973
-0.000183098
-0.000870965
-0.000194969
-0.000978178
-0.000212094
-0.0010898
-0.000234705
-0.00120541
-0.000262893
-0.00132426
-0.000296736
-0.00144544
-0.000336345
-0.00156805
-5.43735e-05
-9.71204e-05
-0.000135226
-0.000729867
-0.000170597
-0.000835594
-0.000204771
-0.000944004
-0.000239055
-0.00105552
-0.000274608
-0.00116986
-0.000312476
-0.00128639
-0.000353585
-0.000183214
-0.000221353
-0.000258903
-0.000906454
-0.000296455
-0.00101797
-0.000334957
-0.000370307
0.00634476
-0.000649613
0.00646117
-0.000521834
0.00657264
0.00667696
0.00671303
)
;

boundaryField
{
    inlet
    {
        type            calculated;
        value           nonuniform 0();
    }
    outlet
    {
        type            calculated;
        value           nonuniform 0();
    }
    cylinder
    {
        type            calculated;
        value           uniform 0;
    }
    top
    {
        type            symmetryPlane;
        value           nonuniform 0();
    }
    bottom
    {
        type            symmetryPlane;
        value           nonuniform 0();
    }
    defaultFaces
    {
        type            empty;
        value           nonuniform 0();
    }
    procBoundary25to19
    {
        type            processor;
        value           nonuniform List<scalar> 
38
(
0.00194301
-0.000471289
0.00236828
-0.00481652
0.00117233
0.00237737
0.00209932
0.00305122
0.00152533
0.00320728
-0.00141225
-0.00286745
0.00279908
-0.00311719
-0.00368445
0.00157551
-0.00355604
-0.00339407
0.000154919
-0.00252322
-0.00179874
-0.000471487
-0.000676912
-0.000397924
0.000283841
-0.000223235
-0.000245412
0.000109268
-0.000277819
-0.000372446
-0.000471313
4.66364e-06
-0.000520198
-0.000625457
0.000144589
-0.000691242
-0.000797456
0.000352216
)
;
    }
    procBoundary25to20
    {
        type            processor;
        value           nonuniform List<scalar> 
20
(
0.000309779
0.000249435
-0.00313089
-0.00222236
-0.0007173
0.000726064
0.0017231
0.00223906
0.00233483
0.00210823
0.00170748
0.00123179
0.000803812
2.60299e-05
0.000505518
-8.98755e-05
-0.00137223
-0.00321762
0.00661094
-0.00425415
)
;
    }
    procBoundary25to24
    {
        type            processor;
        value           nonuniform List<scalar> 
24
(
-0.00290303
-0.00305639
-0.00253376
-0.000501834
-0.00268101
-0.0021873
-0.000459929
-0.00232434
-0.00186633
-0.000416438
-0.00199578
-0.000381895
-0.0016913
-0.00140433
-0.000398734
-0.0015229
-0.00113136
-0.000375478
-0.00124587
-0.000888364
-0.000393423
-0.000994849
-0.00622461
-0.00660573
)
;
    }
    procBoundary25to26
    {
        type            processor;
        value           nonuniform List<scalar> 
23
(
0.00239584
0.00258556
0.00277927
0.00297589
0.00317497
0.0010151
0.00114394
0.00127993
0.0014234
0.00157432
0.00173252
0.00189766
0.00206925
-0.000518259
0.00224672
0.000292462
0.000375984
0.000478227
0.000586083
0.000695782
0.000807932
-0.000186931
0.000924329
)
;
    }
    procBoundary25to31
    {
        type            processor;
        value           nonuniform List<scalar> 
14
(
0.000655921
0.000555032
0.0033991
0.000447476
0.000330234
0.000210226
8.82742e-05
-0.000392517
-0.00026222
0.00677984
-0.00013842
-0.000756922
0.00681897
-0.00062777
)
;
    }
}


// ************************************************************************* //
