/*--------------------------------*- C++ -*----------------------------------*\
  =========                 |
  \\      /  F ield         | OpenFOAM: The Open Source CFD Toolbox
   \\    /   O peration     | Website:  https://openfoam.org
    \\  /    A nd           | Version:  7
     \\/     M anipulation  |
\*---------------------------------------------------------------------------*/
FoamFile
{
    version     2.0;
    format      ascii;
    class       volScalarField;
    location    "4";
    object      p;
}
// * * * * * * * * * * * * * * * * * * * * * * * * * * * * * * * * * * * * * //

dimensions      [0 2 -2 0 0 0 0];

internalField   nonuniform List<scalar> 
433
(
1.41344
1.4094
1.40527
1.40104
1.41739
1.41333
1.40917
1.40491
1.42493
1.42083
1.41663
1.41233
1.43585
1.4317
1.42744
1.42307
1.45001
1.44579
1.44145
1.437
1.46733
1.46303
1.4586
1.45404
1.48779
1.48339
1.47884
1.47416
1.51142
1.50688
1.50219
1.49735
1.53826
1.53357
1.52871
1.52368
1.56843
1.56354
1.55847
1.55321
1.60204
1.59693
1.5916
1.58606
1.63926
1.63387
1.62823
1.62236
1.68026
1.67453
1.66852
1.66225
1.72526
1.71912
1.71268
1.70593
1.77448
1.76787
1.7609
1.75358
1.82821
1.82103
1.81344
1.80544
1.88674
1.87888
1.87055
1.86175
1.95041
1.94174
1.93253
1.92278
2.01956
2.00995
1.9997
1.98883
2.09461
2.08387
2.0724
2.06021
2.17597
2.16391
2.151
2.13725
2.26411
2.25049
2.23588
2.22031
2.35952
2.34407
2.32748
2.30979
2.46278
2.44519
2.42628
2.4061
2.57447
2.55437
2.53275
2.50965
2.69519
2.67217
2.64739
2.62091
2.82566
2.79923
2.77076
2.74034
2.96651
2.93611
2.90338
2.86841
3.11868
3.08365
3.04594
3.00567
3.283
3.24256
3.19906
3.15263
3.46031
3.41358
3.36334
3.30977
3.65158
3.5976
3.53956
3.47767
3.85835
3.79578
3.72853
3.6569
3.93107
3.84798
1.39672
1.3923
1.38779
1.3832
1.37851
1.37374
1.36889
1.36396
1.35895
1.40056
1.3961
1.39156
1.38692
1.3822
1.37739
1.3725
1.36752
1.36247
1.40792
1.40341
1.39881
1.39412
1.38933
1.38446
1.3795
1.37446
1.36934
1.4186
1.41402
1.40934
1.40456
1.39968
1.39472
1.38966
1.38452
1.3793
1.43244
1.42776
1.42298
1.41809
1.41311
1.40802
1.40284
1.39758
1.39223
1.44937
1.44457
1.43966
1.43463
1.4295
1.42427
1.41893
1.41351
1.40799
1.46934
1.46439
1.45932
1.45413
1.44882
1.4434
1.43787
1.43224
1.42652
1.49237
1.48724
1.48197
1.47657
1.47104
1.46539
1.45963
1.45376
1.44778
1.51848
1.51313
1.50763
1.50198
1.49619
1.49027
1.48421
1.47804
1.47176
1.54777
1.54215
1.53636
1.53041
1.5243
1.51804
1.51165
1.50512
1.49846
1.58032
1.57438
1.56825
1.56193
1.55544
1.54878
1.54197
1.53501
1.52791
1.61626
1.60993
1.60339
1.59664
1.58969
1.58255
1.57524
1.56777
1.56014
1.65572
1.64893
1.6419
1.63463
1.62714
1.61943
1.61153
1.60344
1.59518
1.69888
1.69154
1.68392
1.67604
1.6679
1.65951
1.65091
1.64209
1.63308
1.74592
1.73793
1.72961
1.721
1.71209
1.7029
1.69346
1.68378
1.67389
1.79705
1.78828
1.77915
1.76966
1.75984
1.74971
1.73928
1.72859
1.71765
1.8525
1.84281
1.8327
1.82219
1.8113
1.80004
1.78846
1.77657
1.7644
1.91251
1.90174
1.89048
1.87876
1.8666
1.85403
1.84109
1.82779
1.81418
1.97736
1.96531
1.95269
1.93955
1.92591
1.9118
1.89725
1.8823
1.867
2.04732
2.03376
2.01956
2.00475
1.98937
1.97345
1.95703
1.94015
1.92287
2.1227
2.10738
2.09132
2.07456
2.05713
2.0391
2.02049
2.00136
1.98178
2.20382
2.18644
2.1682
2.14916
2.12936
2.10885
2.08769
2.06595
2.04368
2.29102
2.27123
2.25045
2.22875
2.20618
2.1828
2.15869
2.13389
2.10851
2.38467
2.36207
2.33834
2.31354
2.28775
2.26104
2.23348
2.20516
2.17616
2.48513
2.45926
2.43209
2.40371
2.37419
2.34361
2.31207
2.27967
2.24649
2.5928
2.56313
2.53198
2.49944
2.4656
2.43056
2.39442
2.35731
2.31932
2.70805
2.67398
2.63822
2.60088
2.56206
2.52187
2.48045
2.43791
2.39439
2.8313
2.79214
2.75106
2.70817
2.66361
2.61751
2.57001
2.52125
2.4714
2.96295
2.91791
2.87068
2.82142
2.77026
2.71737
2.6629
2.60704
2.54995
3.10341
3.05157
2.99726
2.94065
2.88193
2.82126
2.75885
2.69488
2.62957
3.25303
3.19333
3.13085
3.06582
2.99842
2.92889
2.85744
2.78429
2.70966
3.4122
3.34338
3.27148
3.19675
3.11945
3.03982
2.95812
2.8746
2.78952
3.58122
3.50181
3.41901
3.33313
3.24449
3.15339
3.06013
2.96499
2.86825
3.76034
3.66857
)
;

boundaryField
{
    inlet
    {
        type            zeroGradient;
    }
    outlet
    {
        type            fixedValue;
        value           nonuniform 0();
    }
    cylinder
    {
        type            zeroGradient;
    }
    top
    {
        type            symmetryPlane;
    }
    bottom
    {
        type            symmetryPlane;
    }
    defaultFaces
    {
        type            empty;
    }
    procBoundary2to1
    {
        type            processor;
        value           nonuniform List<scalar> 
33
(
1.41737
1.42135
1.42892
1.43989
1.4541
1.4715
1.49206
1.5158
1.54279
1.57312
1.60695
1.64442
1.68571
1.73107
1.78073
1.83498
1.89412
1.95851
2.02853
2.1046
2.18717
2.27671
2.3738
2.47901
2.59299
2.71639
2.84999
2.99451
3.15094
3.32023
3.50332
3.70129
3.91597
)
;
    }
    procBoundary2to3
    {
        type            processor;
        value           nonuniform List<scalar> 
33
(
1.35387
1.35735
1.36414
1.37401
1.3868
1.40239
1.42071
1.44171
1.46538
1.4917
1.52069
1.55238
1.58677
1.6239
1.6638
1.70649
1.75198
1.80028
1.85138
1.90523
1.96178
2.02094
2.08259
2.14657
2.21265
2.28059
2.35004
2.42061
2.49182
2.56311
2.63381
2.70313
2.77017
)
;
    }
    procBoundary2to8
    {
        type            processor;
        value           nonuniform List<scalar> 
15
(
4.08185
4.00916
4.00916
4.14811
4.05147
3.57311
3.47439
3.37279
3.2687
3.16245
3.05436
2.94473
3.94973
3.57311
3.84347
)
;
    }
}


// ************************************************************************* //
