/*--------------------------------*- C++ -*----------------------------------*\
  =========                 |
  \\      /  F ield         | OpenFOAM: The Open Source CFD Toolbox
   \\    /   O peration     | Website:  https://openfoam.org
    \\  /    A nd           | Version:  7
     \\/     M anipulation  |
\*---------------------------------------------------------------------------*/
FoamFile
{
    version     2.0;
    format      ascii;
    class       volVectorField;
    location    "5.8";
    object      U;
}
// * * * * * * * * * * * * * * * * * * * * * * * * * * * * * * * * * * * * * //

dimensions      [0 1 -1 0 0 0 0];

internalField   nonuniform List<vector> 
344
(
(1.84215 -0.000715094 -2.14559e-15)
(1.84424 -0.000705386 -8.03718e-16)
(1.8463 -0.000695893 -7.69041e-16)
(1.84833 -0.000686622 -5.59352e-16)
(1.85034 -0.000677585 -6.04758e-17)
(1.85232 -0.000668795 9.8747e-17)
(1.85427 -0.000660268 7.54163e-16)
(1.8562 -0.000652022 8.22263e-16)
(1.85811 -0.000644082 4.39282e-16)
(1.85999 -0.000636473 -2.63898e-16)
(1.86186 -0.000629231 2.67579e-16)
(1.8637 -0.000622392 -4.48894e-16)
(1.86552 -0.000616004 -7.23041e-16)
(1.86732 -0.000610123 -4.02856e-16)
(1.86911 -0.000604812 7.70686e-16)
(1.87088 -0.00060015 4.87368e-16)
(1.87264 -0.000596227 3.43709e-16)
(1.87439 -0.000593152 -3.56116e-16)
(1.87613 -0.000591052 8.82295e-16)
(1.87787 -0.000590076 -5.45288e-16)
(1.87961 -0.000590403 2.48418e-16)
(1.88134 -0.000592241 7.61531e-16)
(1.88309 -0.000595835 7.01661e-16)
(1.88485 -0.000601476 1.00252e-16)
(1.88663 -0.000609505 1.37016e-16)
(1.88844 -0.000620321 2.2028e-16)
(1.89028 -0.000634398 9.22936e-16)
(1.89217 -0.000652288 -2.47118e-17)
(1.89412 -0.000674643 2.95604e-16)
(1.89614 -0.000702227 6.91184e-16)
(1.89826 -0.000735934 5.56641e-16)
(1.90048 -0.000776814 9.95368e-16)
(1.90283 -0.000826094 2.08664e-16)
(1.90534 -0.00088521 1.34793e-15)
(1.90804 -0.000955834 -2.09922e-16)
(1.91097 -0.00103992 1.04237e-15)
(1.91417 -0.00113972 3.35126e-16)
(1.91769 -0.00125788 -2.50008e-17)
(1.92158 -0.00139743 4.37393e-16)
(1.92592 -0.00156187 8.35594e-16)
(1.93078 -0.00175521 -6.84152e-17)
(1.93626 -0.00198204 7.26874e-16)
(1.94247 -0.00224753 -1.23465e-16)
(1.94951 -0.00255753 1.14357e-15)
(1.95754 -0.00291856 -1.79183e-16)
(1.96672 -0.00333778 7.85572e-16)
(1.97722 -0.00382296 3.05869e-16)
(1.98926 -0.00438238 7.94558e-16)
(2.00306 -0.00502459 1.64176e-17)
(2.01889 -0.00575815 1.46763e-15)
(2.03702 -0.00659114 5.5124e-16)
(2.05776 -0.00753052 3.70573e-16)
(2.08144 -0.00858132 1.20757e-17)
(2.10838 -0.00974552 5.54418e-17)
(2.13893 -0.0110207 6.25131e-16)
(2.17341 -0.0123985 1.36446e-15)
(2.2121 -0.0138631 1.36174e-15)
(2.25523 -0.0153892 4.39811e-16)
(2.30294 -0.016941 9.97722e-16)
(2.35526 -0.0184713 9.00635e-16)
(2.41203 -0.0199213 7.38426e-16)
(2.47294 -0.0212236 7.96806e-16)
(2.53744 -0.0223043 9.86254e-16)
(2.60478 -0.0230899 9.13741e-16)
(2.67399 -0.0235151 1.40423e-15)
(2.74391 -0.0235303 1.0132e-15)
(1.83905 -0.00165745 -2.33882e-15)
(1.84111 -0.00163492 -1.57207e-16)
(1.84313 -0.0016129 -2.19444e-15)
(1.84513 -0.00159139 -2.85892e-16)
(1.8471 -0.00157042 3.42858e-16)
(1.84905 -0.00155002 7.73689e-16)
(1.85097 -0.00153024 1.62742e-15)
(1.85287 -0.00151111 -6.52651e-16)
(1.85474 -0.00149269 1.07372e-15)
(1.85659 -0.00147504 -1.29294e-15)
(1.85842 -0.00145824 3.96121e-16)
(1.86023 -0.00144238 -1.48194e-15)
(1.86202 -0.00142757 -6.93174e-17)
(1.8638 -0.00141393 7.55924e-16)
(1.86555 -0.00140161 1.92787e-15)
(1.86729 -0.0013908 -2.22867e-16)
(1.86902 -0.00138171 1.18709e-15)
(1.87074 -0.00137458 -1.09801e-15)
(1.87245 -0.00136971 9.28718e-16)
(1.87416 -0.00136746 -8.44083e-16)
(1.87587 -0.00136822 4.38765e-16)
(1.87758 -0.00137249 1.3108e-15)
(1.87929 -0.00138084 2.15313e-15)
(1.88102 -0.00139393 1.29878e-17)
(1.88277 -0.00141256 1.58724e-15)
(1.88455 -0.00143766 -1.90164e-16)
(1.88636 -0.00147032 1.67276e-15)
(1.88822 -0.00151184 1.57148e-16)
(1.89014 -0.00156371 1.1185e-15)
(1.89213 -0.00162771 1.53795e-15)
(1.89421 -0.00170592 1.82866e-15)
(1.8964 -0.00180077 2.88139e-15)
(1.89871 -0.00191512 4.67987e-16)
(1.90119 -0.0020523 1.53882e-15)
(1.90385 -0.00221618 -2.70608e-16)
(1.90673 -0.0024113 1.6789e-15)
(1.90988 -0.00264293 -1.98656e-16)
(1.91335 -0.00291718 8.65056e-16)
(1.91719 -0.00324109 1.6506e-15)
(1.92147 -0.00362282 2.81018e-15)
(1.92627 -0.00407169 7.69437e-16)
(1.93168 -0.00459838 2.12701e-15)
(1.9378 -0.00521496 6.90718e-17)
(1.94476 -0.00593507 1.73257e-15)
(1.9527 -0.0067739 -2.97546e-17)
(1.96177 -0.0077482 1.43119e-15)
(1.97215 -0.00887618 1.55609e-15)
(1.98406 -0.0101772 3.01094e-15)
(1.99773 -0.0116715 8.30978e-16)
(2.0134 -0.0133792 2.43018e-15)
(2.03137 -0.0153195 2.89615e-16)
(2.05195 -0.0175091 2.08556e-15)
(2.07545 -0.0199603 1.36998e-16)
(2.10222 -0.0226784 1.5611e-15)
(2.13261 -0.0256585 2.0578e-15)
(2.16693 -0.0288822 2.44437e-15)
(2.2055 -0.0323128 3.37535e-15)
(2.24855 -0.0358925 1.51493e-15)
(2.29624 -0.0395373 2.61444e-15)
(2.3486 -0.0431371 1.4987e-15)
(2.40551 -0.0465535 2.52225e-15)
(2.46664 -0.0496266 1.55579e-15)
(2.53147 -0.0521807 2.15784e-15)
(2.59924 -0.0540405 2.67606e-15)
(2.66895 -0.0550491 3.33854e-15)
(2.73943 -0.0550873 2.61939e-15)
(1.83214 -0.00265126 2.57721e-15)
(1.83412 -0.00261512 3.04636e-15)
(1.83607 -0.00257979 2.83228e-15)
(1.838 -0.00254529 2.68715e-15)
(1.83989 -0.00251166 2.85262e-15)
(1.84177 -0.00247896 3.0891e-15)
(1.84362 -0.00244725 3.60475e-15)
(1.84544 -0.00241659 3.49222e-15)
(1.84725 -0.00238706 3.938e-15)
(1.84903 -0.00235879 3.6034e-15)
(1.85079 -0.00233187 3.62371e-15)
(1.85253 -0.00230647 3.44379e-15)
(1.85425 -0.00228275 3.74887e-15)
(1.85595 -0.00226091 3.88636e-15)
(1.85764 -0.00224121 4.35003e-15)
(1.85932 -0.00222393 4.32165e-15)
(1.86098 -0.0022094 4.56694e-15)
(1.86264 -0.00219803 4.26598e-15)
(1.86428 -0.0021903 4.35806e-15)
(1.86592 -0.00218677 4.22564e-15)
(1.86757 -0.00218808 4.46087e-15)
(1.86921 -0.00219503 4.37727e-15)
(1.87086 -0.00220853 4.8633e-15)
(1.87253 -0.00222966 4.59546e-15)
(1.87421 -0.00225968 4.93882e-15)
(1.87593 -0.0023001 4.47938e-15)
(1.87767 -0.00235268 4.77608e-15)
(1.87946 -0.00241947 4.89758e-15)
(1.88131 -0.00250291 4.53872e-15)
(1.88323 -0.00260585 4.62841e-15)
(1.88524 -0.00273163 4.80849e-15)
(1.88735 -0.00288417 5.05246e-15)
(1.88959 -0.00306805 4.94032e-15)
(1.89198 -0.00328864 5.22559e-15)
(1.89455 -0.0035522 4.92749e-15)
(1.89734 -0.00386602 5.10469e-15)
(1.90039 -0.00423859 4.87664e-15)
(1.90375 -0.00467976 5.01066e-15)
(1.90748 -0.00520095 5.03356e-15)
(1.91163 -0.00581528 5.38791e-15)
(1.91629 -0.00653788 5.20001e-15)
(1.92155 -0.00738602 5.49206e-15)
(1.9275 -0.00837931 5.1178e-15)
(1.93427 -0.0095399 5.35667e-15)
(1.942 -0.0108926 4.87908e-15)
(1.95084 -0.0124647 5.06795e-15)
(1.96097 -0.0142861 5.10995e-15)
(1.9726 -0.0163888 5.53002e-15)
(1.98596 -0.0188063 5.30387e-15)
(2.00131 -0.0215722 5.6133e-15)
(2.01893 -0.024719 5.13685e-15)
(2.03913 -0.0282756 5.4759e-15)
(2.06225 -0.0322642 5.4625e-15)
(2.08864 -0.0366959 5.29709e-15)
(2.11866 -0.0415658 5.38556e-15)
(2.15265 -0.0468469 5.44097e-15)
(2.19094 -0.0524831 5.71949e-15)
(2.23381 -0.0583824 5.56103e-15)
(2.28144 -0.0644096 5.5468e-15)
(2.3339 -0.0703845 5.51296e-15)
(2.3911 -0.0760773 5.75803e-15)
(2.45274 -0.0812207 5.55333e-15)
(2.51831 -0.0855158 5.58171e-15)
(2.58703 -0.0886624 5.75318e-15)
(2.65786 -0.0903879 5.94897e-15)
(2.72958 -0.0904821 5.70582e-15)
(1.82138 -0.00358456 6.08025e-15)
(1.82325 -0.00353548 6.18634e-15)
(1.82508 -0.0034875 6.4229e-15)
(1.8269 -0.00344067 5.14381e-15)
(1.82868 -0.00339504 5.63797e-15)
(1.83045 -0.00335067 5.90046e-15)
(1.83219 -0.00330764 6.22237e-15)
(1.83391 -0.00326606 6.3929e-15)
(1.83561 -0.00322604 6.86055e-15)
(1.83728 -0.00318771 6.82425e-15)
(1.83894 -0.00315125 6.90109e-15)
(1.84058 -0.00311684 7.08947e-15)
(1.8422 -0.00308473 7.1594e-15)
(1.84381 -0.0030552 7.20336e-15)
(1.8454 -0.00302857 7.44274e-15)
(1.84697 -0.00300524 7.61363e-15)
(1.84854 -0.00298567 7.6776e-15)
(1.8501 -0.0029704 7.76653e-15)
(1.85165 -0.00296009 7.83742e-15)
(1.85319 -0.00295549 7.80873e-15)
(1.85474 -0.00295751 7.73597e-15)
(1.85629 -0.0029672 7.78068e-15)
(1.85785 -0.00298581 8.06513e-15)
(1.85942 -0.00301482 8.08026e-15)
(1.86101 -0.00305595 8.0886e-15)
(1.86262 -0.00311125 8.01311e-15)
(1.86427 -0.00318311 8.13154e-15)
(1.86596 -0.00327435 8.43231e-15)
(1.86771 -0.00338828 7.18546e-15)
(1.86952 -0.0035288 7.59648e-15)
(1.87142 -0.00370046 7.82583e-15)
(1.87342 -0.00390861 8.05053e-15)
(1.87554 -0.00415951 8.17195e-15)
(1.87781 -0.0044605 8.50165e-15)
(1.88025 -0.00482013 8.37854e-15)
(1.8829 -0.00524839 8.39967e-15)
(1.88581 -0.0057569 8.3824e-15)
(1.88901 -0.00635918 8.49324e-15)
(1.89256 -0.00707086 8.53769e-15)
(1.89652 -0.00791002 8.74798e-15)
(1.90097 -0.00889746 8.62868e-15)
(1.906 -0.010057 8.73948e-15)
(1.9117 -0.0114158 8.59268e-15)
(1.91819 -0.0130045 8.65742e-15)
(1.9256 -0.0148576 8.5187e-15)
(1.9341 -0.0170135 8.55278e-15)
(1.94385 -0.0195139 8.56497e-15)
(1.95506 -0.0224043 8.63425e-15)
(1.96796 -0.0257322 8.75177e-15)
(1.98281 -0.0295464 8.94253e-15)
(1.99989 -0.0338947 8.789e-15)
(2.01952 -0.0388206 8.66516e-15)
(2.04205 -0.0443594 8.95186e-15)
(2.06785 -0.050532 7.87014e-15)
(2.09729 -0.0573382 8.09913e-15)
(2.13075 -0.0647477 8.32713e-15)
(2.1686 -0.0726891 8.31782e-15)
(2.21116 -0.0810412 8.34179e-15)
(2.25867 -0.0896189 8.50262e-15)
(2.31125 -0.0981719 8.3422e-15)
(2.36888 -0.106371 8.40227e-15)
(2.43129 -0.113832 8.24327e-15)
(2.49799 -0.120109 8.1592e-15)
(2.56819 -0.124755 8.08042e-15)
(2.6408 -0.12735 8.0858e-15)
(2.71449 -0.127563 7.92539e-15)
(1.80647 -0.00442184 4.71331e-15)
(1.80819 -0.00436095 4.8842e-15)
(1.80988 -0.00430144 5.02154e-15)
(1.81155 -0.00424337 4.75363e-15)
(1.8132 -0.00418681 4.76897e-15)
(1.81482 -0.00413183 5.007e-15)
(1.81642 -0.00407853 5.26397e-15)
(1.81801 -0.00402704 5.31898e-15)
(1.81957 -0.0039775 5.66495e-15)
(1.82111 -0.00393008 5.5903e-15)
(1.82264 -0.00388498 5.82956e-15)
(1.82414 -0.00384246 5.85694e-15)
(1.82563 -0.0038028 5.96357e-15)
(1.82711 -0.00376636 6.05079e-15)
(1.82857 -0.00373354 6.3972e-15)
(1.83002 -0.00370484 6.34374e-15)
(1.83146 -0.00368082 6.4576e-15)
(1.8329 -0.00366217 6.42833e-15)
(1.83432 -0.0036497 6.68286e-15)
(1.83575 -0.00364435 6.58436e-15)
(1.83717 -0.00364725 6.53873e-15)
(1.8386 -0.00365972 6.63621e-15)
(1.84003 -0.00368331 6.9519e-15)
(1.84148 -0.00371987 6.94257e-15)
(1.84294 -0.00377154 7.01908e-15)
(1.84443 -0.00384088 6.86147e-15)
(1.84595 -0.00393087 7.02569e-15)
(1.84752 -0.00404503 7.1996e-15)
(1.84913 -0.0041875 6.95707e-15)
(1.85081 -0.00436314 6.88188e-15)
(1.85257 -0.00457764 6.98643e-15)
(1.85442 -0.0048377 7.24173e-15)
(1.85639 -0.00515114 7.17263e-15)
(1.8585 -0.00552713 7.39688e-15)
(1.86078 -0.00597641 7.26218e-15)
(1.86325 -0.00651149 7.38956e-15)
(1.86596 -0.00714697 7.31692e-15)
(1.86895 -0.0078998 7.45144e-15)
(1.87228 -0.0087897 7.42799e-15)
(1.87599 -0.00983945 7.76033e-15)
(1.88017 -0.0110753 7.61487e-15)
(1.8849 -0.0125275 7.72608e-15)
(1.89026 -0.0142305 7.57862e-15)
(1.89638 -0.0162235 7.60344e-15)
(1.90339 -0.0185506 7.47162e-15)
(1.91143 -0.0212611 7.60051e-15)
(1.92067 -0.0244095 7.61088e-15)
(1.93133 -0.028055 7.71639e-15)
(1.94361 -0.0322606 7.67504e-15)
(1.95779 -0.0370919 7.78171e-15)
(1.97414 -0.0426142 7.68482e-15)
(1.993 -0.0488892 7.73356e-15)
(2.01473 -0.0559697 7.73592e-15)
(2.0397 -0.0638922 7.50923e-15)
(2.06833 -0.0726678 7.43739e-15)
(2.10104 -0.0822706 7.43267e-15)
(2.13824 -0.0926226 7.4871e-15)
(2.18033 -0.103581 7.49466e-15)
(2.22761 -0.114915 7.64922e-15)
(2.2803 -0.126307 7.52271e-15)
(2.33845 -0.137321 7.55001e-15)
(2.40187 -0.147443 7.44225e-15)
(2.47011 -0.156047 7.36542e-15)
(2.54236 -0.162508 7.33165e-15)
(2.61748 -0.166204 7.36649e-15)
(2.69397 -0.16664 7.24511e-15)
(2.81383 -0.0231089 1.12955e-15)
(2.88237 -0.0222465 8.03351e-16)
(2.94772 -0.0209892 1.00955e-15)
(2.80991 -0.0540918 2.79062e-15)
(2.87899 -0.0520514 2.08964e-15)
(2.9448 -0.0490783 2.57547e-15)
(2.80134 -0.0888334 6.08996e-15)
(2.87163 -0.0854194 6.17401e-15)
(2.93847 -0.0804355 5.88919e-15)
(3.00061 -0.0742025 5.85893e-15)
(2.78828 -0.125218 7.89812e-15)
(2.86048 -0.120273 7.61266e-15)
(2.92893 -0.113026 7.24063e-15)
(2.99226 -0.103983 7.13022e-15)
)
;

boundaryField
{
    inlet
    {
        type            uniformFixedValue;
        uniformValue    constant (1 0 0);
        value           nonuniform 0();
    }
    outlet
    {
        type            pressureInletOutletVelocity;
        value           nonuniform 0();
    }
    wall
    {
        type            fixedValue;
        value           nonuniform 0();
    }
    wedge1
    {
        type            wedge;
    }
    wedge2
    {
        type            wedge;
    }
    axis
    {
        type            empty;
    }
    procBoundary2to1
    {
        type            processor;
        value           nonuniform List<vector> 5((1.84003 -0.000725008 -8.60374e-17) (1.83697 -0.00168046 -5.88719e-16) (1.83014 -0.00268818 2.60931e-15) (1.81949 -0.00363471 5.97849e-15) (1.80473 -0.00448408 4.65971e-15));
    }
    procBoundary2to3
    {
        type            processor;
        value           nonuniform List<vector> 5((3.00875 -0.0194111 9.96726e-16) (3.00618 -0.0453538 2.74111e-15) (3.00618 -0.0453538 2.74111e-15) (3.05717 -0.0671227 5.68731e-15) (3.04952 -0.0937671 6.86787e-15));
    }
    procBoundary2to8
    {
        type            processor;
        value           nonuniform List<vector> 
71
(
(1.78702 -0.00513772 3.93192e-15)
(1.78856 -0.00506649 4.63711e-15)
(1.79008 -0.00499691 4.39948e-15)
(1.79158 -0.00492903 4.19056e-15)
(1.79305 -0.00486294 4.70481e-15)
(1.79451 -0.00479872 5.08628e-15)
(1.79595 -0.0047365 5.61362e-15)
(1.79737 -0.00467641 5.05669e-15)
(1.79877 -0.00461862 5.67708e-15)
(1.80015 -0.00456333 5.12584e-15)
(1.80152 -0.00451079 5.75188e-15)
(1.80287 -0.00446129 5.29476e-15)
(1.8042 -0.00441516 5.70244e-15)
(1.80553 -0.00437283 5.95086e-15)
(1.80684 -0.00433476 6.45198e-15)
(1.80814 -0.00430154 5.80748e-15)
(1.80943 -0.00427384 6.35418e-15)
(1.81072 -0.00425247 5.78193e-15)
(1.81199 -0.00423837 6.33085e-15)
(1.81327 -0.00423266 5.9099e-15)
(1.81455 -0.00423666 6.22822e-15)
(1.81583 -0.00425193 6.46737e-15)
(1.81712 -0.00428029 6.89173e-15)
(1.81842 -0.00432393 6.32044e-15)
(1.81974 -0.00438537 6.81461e-15)
(1.82108 -0.00446762 6.2266e-15)
(1.82245 -0.0045742 6.76708e-15)
(1.82386 -0.00470926 6.41648e-15)
(1.82531 -0.00487769 6.11335e-15)
(1.82683 -0.00508521 6.61418e-15)
(1.82842 -0.00533855 6.9658e-15)
(1.83011 -0.00564562 7.32794e-15)
(1.83189 -0.00601567 6.7537e-15)
(1.83381 -0.00645956 7.26174e-15)
(1.83589 -0.00699 6.63675e-15)
(1.83814 -0.00762182 7.19755e-15)
(1.84062 -0.00837235 6.6112e-15)
(1.84336 -0.00926177 7.01434e-15)
(1.84641 -0.0103136 7.33117e-15)
(1.84983 -0.0115549 7.68979e-15)
(1.85367 -0.0130172 6.96408e-15)
(1.85803 -0.0147368 7.4447e-15)
(1.863 -0.0167552 6.83812e-15)
(1.86867 -0.0191199 7.28904e-15)
(1.87517 -0.0218844 6.77484e-15)
(1.88265 -0.0251093 7.15574e-15)
(1.89127 -0.0288618 7.25602e-15)
(1.90122 -0.0332156 7.72623e-15)
(1.91274 -0.0382505 7.08389e-15)
(1.92608 -0.0440506 7.48603e-15)
(1.94152 -0.0507018 6.97001e-15)
(1.95939 -0.058288 7.45375e-15)
(1.98008 -0.0668851 6.97461e-15)
(2.00398 -0.0765526 6.7603e-15)
(2.03154 -0.0873222 7.12212e-15)
(2.06322 -0.0991834 7.23595e-15)
(2.09952 -0.112063 7.44126e-15)
(2.1409 -0.12581 6.9004e-15)
(2.18779 -0.140158 7.18411e-15)
(2.2405 -0.15473 6.64376e-15)
(2.29922 -0.168968 6.88824e-15)
(2.36386 -0.18223 6.5441e-15)
(2.43405 -0.193646 6.58768e-15)
(2.50899 -0.202393 6.58759e-15)
(2.58746 -0.207541 6.62726e-15)
(2.66775 -0.208367 6.35154e-15)
(2.77066 -0.163546 7.38409e-15)
(2.77066 -0.163546 7.38409e-15)
(2.84561 -0.15684 7.18902e-15)
(2.91633 -0.146956 6.951e-15)
(2.98127 -0.134671 6.84712e-15)
)
;
    }
}


// ************************************************************************* //
