/*--------------------------------*- C++ -*----------------------------------*\
  =========                 |
  \\      /  F ield         | OpenFOAM: The Open Source CFD Toolbox
   \\    /   O peration     | Website:  https://openfoam.org
    \\  /    A nd           | Version:  7
     \\/     M anipulation  |
\*---------------------------------------------------------------------------*/
FoamFile
{
    version     2.0;
    format      ascii;
    class       surfaceScalarField;
    location    "6";
    object      phi;
}
// * * * * * * * * * * * * * * * * * * * * * * * * * * * * * * * * * * * * * //

dimensions      [0 3 -1 0 0 0 0];

internalField   nonuniform List<scalar> 
822
(
0.00143531
-0.00190774
0.00153022
-0.00179455
0.00163354
-0.00166868
0.0017435
-0.00154313
0.00185818
-0.00143202
-0.00134916
0.00146188
0.00155237
-0.00188504
0.00165131
-0.00176762
0.00175694
-0.00164876
0.00186735
-0.00154243
0.0019806
-0.00146242
0.00209494
-0.00142054
0.00220888
-0.00142437
0.00232133
-0.00147589
0.00243161
-0.00156881
0.00253944
-0.0016903
0.0026446
-0.00181802
0.00274698
-0.00193044
0.00284599
-0.00199878
0.00294119
-0.00201451
0.00303132
-0.00195541
0.0031163
-0.00185155
0.00319461
-0.00167474
0.00326792
-0.00151548
0.00333405
-0.00127748
0.00339792
-0.00116834
-0.00089336
0.00367923
-0.00198035
0.00379213
-0.00188051
0.0039214
-0.00177803
0.00406489
-0.00168592
0.00421955
-0.00161708
0.00438167
-0.00158265
0.00454716
-0.00158986
0.0047119
-0.00164064
0.00487214
-0.00172905
0.00502466
-0.00184282
0.00516711
-0.00196047
0.00529778
-0.00206112
0.00541591
-0.00211691
0.00552108
-0.00211968
0.00561378
-0.00204811
0.00569438
-0.00193215
0.00576421
-0.00174456
0.00582406
-0.00157534
0.00587539
-0.00132881
0.0059198
-0.00121275
-0.000929794
0.00409573
-0.00206098
0.00419411
-0.0019789
0.00430909
-0.00189301
0.00443851
-0.00181534
0.00457932
-0.00175789
0.00472778
-0.00173111
0.00487979
-0.00174187
0.00503123
-0.00179208
0.00517841
-0.00187623
0.00531822
-0.00198263
0.00544852
-0.00209077
0.00556781
-0.0021804
0.00567562
-0.00222473
0.00577163
-0.00221568
0.00585666
-0.00213315
0.00593083
-0.00200632
0.00599591
-0.00180964
0.00605179
-0.00163122
0.00610088
-0.0013779
0.00614292
-0.00125478
-0.000965558
0.00455104
-0.00212479
0.00463271
-0.00206057
0.00473116
-0.00199146
0.00484427
-0.00192845
0.00496902
-0.00188264
0.00510167
-0.00186376
0.00523811
-0.00187831
0.00537422
-0.00192819
0.00550636
-0.00200837
0.00563157
-0.00210784
0.00574791
-0.0022071
0.00585409
-0.00228659
0.00594998
-0.00232061
0.00603544
-0.00230114
0.00611153
-0.00220924
0.00617834
-0.00207313
0.00623772
-0.00186902
0.00628921
-0.00168272
0.00633533
-0.00142401
0.00637508
-0.00129454
-0.00100015
0.00504299
-0.00216999
0.00510606
-0.00212364
0.00518602
-0.00207141
0.00528083
-0.00202327
0.00538752
-0.00198933
0.00550238
-0.00197862
0.00562131
-0.00199723
0.00574022
-0.0020471
0.00585554
-0.0021237
0.00596443
-0.00221673
0.00606514
-0.00230781
0.00615668
-0.00237812
0.00623917
-0.00240311
0.00631277
-0.00237474
0.00637876
-0.00227522
0.00643724
-0.00213161
0.00649014
-0.00192191
0.00653664
-0.00172921
0.00657929
-0.00146667
0.00661642
-0.00133167
-0.00103333
0.00556806
-0.00219524
0.00561106
-0.00216664
0.00567094
-0.0021313
0.00574579
-0.00209812
0.00583273
-0.00207627
0.0059281
-0.00207399
0.00602787
-0.002097
0.006128
-0.00214723
0.00622497
-0.00222068
0.00631608
-0.00230784
0.00639978
-0.00239151
0.00647533
-0.00245367
0.00654318
-0.00247096
0.00660377
-0.00243533
0.00665862
-0.00233007
0.00670789
-0.00218088
0.00675354
-0.00196757
0.00679445
-0.00177012
0.00683317
-0.00150539
0.00686732
-0.00136582
-0.00106482
0.00612157
-0.00219972
0.00614352
-0.00218859
0.00618221
-0.00216999
0.00623587
-0.00215177
0.00630175
-0.00214215
0.00637632
-0.00214857
0.00645564
-0.00217632
0.00653575
-0.00222733
0.0066132
-0.00229813
0.00668542
-0.00238005
0.00675103
-0.00245712
0.00680956
-0.00251221
0.00686178
-0.00252318
0.00690842
-0.00248197
0.00695125
-0.0023729
0.00699053
-0.00222016
0.00702826
-0.0020053
0.00706303
-0.00180489
0.00709735
-0.0015397
0.00712817
-0.00139664
-0.00109435
0.00669778
-0.00218326
0.0066983
-0.00218911
0.00671522
-0.00218691
0.00674697
-0.00218352
0.00679098
-0.00218616
0.00684391
-0.00220149
0.00690192
-0.00223433
0.00696117
-0.00228658
0.00701834
-0.0023553
0.00707094
-0.00243266
0.00711778
-0.00250396
0.00715863
-0.00255306
0.00719455
-0.00255909
0.00722656
-0.00251398
0.0072567
-0.00240305
0.00728537
-0.00224883
0.0073146
-0.00203453
0.00734274
-0.00183302
0.00737221
-0.00156918
0.00739936
-0.00142379
-0.00112164
0.00729013
-0.00214636
0.00726948
-0.00216846
0.0072647
-0.00218212
0.00727441
-0.00219323
0.00729629
-0.00220804
0.0073272
-0.00223241
0.00736354
-0.00227067
0.00740159
-0.00232464
0.00743816
-0.00239186
0.00747087
-0.00246537
0.00749867
-0.00253176
0.00752156
-0.00257595
0.00754085
-0.00257838
0.00755787
-0.002531
0.00757492
-0.0024201
0.00759254
-0.00226645
0.00761281
-0.00205481
0.0076339
-0.00185411
0.00765814
-0.00159341
0.00768129
-0.00144695
-0.0011464
0.00789151
-0.00209024
0.00785066
-0.00212761
0.00782488
-0.00215634
0.00781305
-0.0021814
0.00781312
-0.00220812
0.00782225
-0.00224154
0.00783706
-0.00228548
0.00785406
-0.00234163
0.00787018
-0.00240798
0.00788317
-0.00247836
0.00789212
-0.00254071
0.00789719
-0.00258102
0.00789991
-0.0025811
0.00790192
-0.002533
0.00790574
-0.00242392
0.00791209
-0.0022728
0.00792312
-0.00206584
0.00793685
-0.00186785
0.00795551
-0.00161207
0.00797436
-0.0014658
-0.00116837
0.00849473
-0.00201678
0.00843529
-0.00206817
0.00838988
-0.00211093
0.00835765
-0.00214917
0.00833685
-0.00218732
0.00832498
-0.00222966
0.00831895
-0.00227946
0.00831554
-0.00233822
0.00831184
-0.00240428
0.00830576
-0.00247228
0.00829646
-0.00253141
0.00828426
-0.00256882
0.00827088
-0.00256772
0.00825818
-0.00252031
0.00824892
-0.00241466
0.00824403
-0.0022679
0.00824568
-0.00206749
0.00825187
-0.00187404
0.00826469
-0.00162488
0.00827899
-0.0014801
-0.00118728
0.00909292
-0.00192845
0.00901711
-0.00199236
0.00895404
-0.00204786
0.00890313
-0.00209826
0.00886298
-0.00214718
0.00883144
-0.00219812
0.00880579
-0.00225381
0.00878309
-0.00231552
0.00876067
-0.00238187
0.00873657
-0.00244818
0.00871005
-0.00250488
0.00868152
-0.0025403
0.00865284
-0.00253904
0.00862609
-0.00249356
0.0086042
-0.00239277
0.0085883
-0.002252
0.00858065
-0.00205984
0.00857923
-0.00187262
0.00858602
-0.00163167
0.00859556
-0.00148964
-0.00120287
0.0096801
-0.00182813
0.00959059
-0.00190286
0.00951231
-0.00196958
0.00944495
-0.0020309
0.00938747
-0.0020897
0.00933809
-0.00214874
0.00929449
-0.00221021
0.00925407
-0.0022751
0.00921442
-0.00234222
0.00917374
-0.00240749
0.00913136
-0.0024625
0.00908778
-0.00249673
0.00904495
-0.0024962
0.00900509
-0.0024537
0.00897128
-0.00235897
0.00894486
-0.00222558
0.00892815
-0.00204313
0.00891919
-0.00186366
0.00891987
-0.00163235
0.00892448
-0.00149425
-0.00121493
0.0102516
-0.00171891
0.0101513
-0.0018026
0.0100606
-0.00187887
0.00997942
-0.0019497
0.00990702
-0.00201729
0.00984202
-0.00208375
0.00978253
-0.00215071
0.00972631
-0.00221889
0.00967125
-0.00228715
0.00961571
-0.00235195
0.00955913
-0.00240592
0.00950206
-0.00243966
0.00944646
-0.0024406
0.00939469
-0.00240192
0.00934991
-0.00231419
0.00931366
-0.00218933
0.00928829
-0.00201776
0.00927199
-0.00184735
0.00926656
-0.00162692
0.00926616
-0.00149385
-0.00122325
0.0108044
-0.00160391
0.0106964
-0.00169462
0.0105962
-0.00177866
0.0105039
-0.00185746
0.0104193
-0.00193262
0.0103411
-0.00200564
0.0102681
-0.00207765
0.0101983
-0.00214905
0.0101298
-0.00221871
0.0100614
-0.00228351
0.00999245
-0.00233699
0.00992362
-0.00237083
0.00985684
-0.00237382
0.00979453
-0.00233962
0.00973991
-0.00225957
0.00969466
-0.00214408
0.0096612
-0.0019843
0.00963787
-0.00182402
0.00962642
-0.00161548
0.00962097
-0.0014884
-0.00122767
0.0113372
-0.00148601
0.0112244
-0.00158184
0.0111176
-0.00167186
0.0110172
-0.00175702
0.010923
-0.00183841
0.0108343
-0.00191702
0.0107502
-0.0019935
0.010669
-0.00206791
0.0105894
-0.00213909
0.0105101
-0.00220423
0.0104308
-0.00225767
0.0103521
-0.00229208
0.0102758
-0.00229755
0.0102044
-0.00226826
0.0101412
-0.00219635
0.0100879
-0.0020908
0.0100471
-0.00194342
0.0100171
-0.00179407
0.00999981
-0.00159818
0.00998932
-0.00147791
-0.00122806
0.0118506
-0.00136776
0.0117357
-0.0014669
0.011625
-0.00156115
0.011519
-0.00165108
0.011418
-0.00173735
0.0113214
-0.00182048
0.0112287
-0.00190072
0.0111386
-0.0019778
0.01105
-0.00205049
0.0109619
-0.00211618
0.0108742
-0.00216991
0.0107873
-0.00220525
0.0107033
-0.0022135
0.0106244
-0.00218939
0.0105539
-0.00212582
0.0104936
-0.00203053
0.010446
-0.00189587
0.01041
-0.00175799
0.0103871
-0.00157528
0.0103716
-0.00146246
-0.00122432
0.0123469
-0.00125123
0.012232
-0.00135204
0.0121198
-0.00144889
0.0120108
-0.00154209
0.0119053
-0.00163189
0.0118033
-0.00171847
0.0117043
-0.00180168
0.0116074
-0.00188099
0.011512
-0.00195503
0.0114172
-0.00202137
0.0113229
-0.00207561
0.0112297
-0.00211211
0.0111395
-0.00212331
0.0110546
-0.00210449
0.0109781
-0.00204928
0.0109119
-0.00196431
0.0108584
-0.00184243
0.0108168
-0.00171631
0.0107885
-0.00154706
0.0107683
-0.00144218
-0.00121639
0.0128294
-0.001138
0.0127164
-0.00123903
0.0126045
-0.00133705
0.0124945
-0.00143211
0.0123868
-0.0015242
0.0122815
-0.00161315
0.0121784
-0.00169853
0.0120769
-0.00177953
0.0119766
-0.00185469
0.0118768
-0.00192165
0.0117777
-0.0019765
0.0116799
-0.00201431
0.0115851
-0.00202852
0.0114956
-0.00201495
0.0114143
-0.00196794
0.0113431
-0.00189316
0.0112846
-0.00178388
0.0112378
-0.00166957
0.0112046
-0.00151385
0.0111797
-0.00141721
-0.00120424
0.0133022
-0.00102918
0.0131924
-0.00112922
0.0130825
-0.00122716
0.0129732
-0.00132286
0.0128651
-0.00141607
0.0127584
-0.00150639
0.012653
0.0125487
0.0124452
0.0123422
0.0122399
0.0121389
0.0120408
0.0119479
0.0118629
0.0117878
0.0117249
0.0116736
0.0116357
0.0116062
0.0137699
0.0136642
0.0135574
0.0134502
0.0133431
)
;

boundaryField
{
    inlet
    {
        type            calculated;
        value           nonuniform 0();
    }
    outlet
    {
        type            calculated;
        value           nonuniform List<scalar> 
20
(
0.00595624
0.00617868
0.00640968
0.0066496
0.00689881
0.0071577
0.00742665
0.00770606
0.00799633
0.00829789
0.00861115
0.00893654
0.00927448
0.00962539
0.00998971
0.0103679
0.0107603
0.0111675
0.0115899
0.0034547
)
;
    }
    cylinder
    {
        type            calculated;
        value           nonuniform 0();
    }
    top
    {
        type            symmetryPlane;
        value           nonuniform 0();
    }
    bottom
    {
        type            symmetryPlane;
        value           nonuniform 0();
    }
    defaultFaces
    {
        type            empty;
        value           nonuniform 0();
    }
    procBoundary29to23
    {
        type            processor;
        value           nonuniform List<scalar> 
23
(
0.0018227
0.00169963
0.00156536
0.00143317
0.00131734
0.00123173
0.00197561
0.00130619
0.00131044
0.00136344
0.00145852
0.00158247
0.00171285
0.00182806
0.00189976
0.00191931
0.00186527
0.00176657
0.00159643
0.00144218
0.00121135
0.00110447
0.000836577
)
;
    }
    procBoundary29to28
    {
        type            processor;
        value           nonuniform List<scalar> 
20
(
-0.00135026
-0.00138128
-0.00198834
-0.00358392
-0.0040151
-0.00448723
-0.00499779
-0.00554281
-0.00611708
-0.00671424
-0.00732703
-0.00794764
-0.00856818
-0.00918125
-0.00978042
-0.0103608
-0.0109194
-0.0114551
-0.0119689
-0.0124634
)
;
    }
    procBoundary29to34
    {
        type            processor;
        value           nonuniform List<scalar> 3(-0.0129426 -0.013411 -0.0138736);
    }
    procBoundary29to35
    {
        type            processor;
        value           nonuniform List<scalar> 
22
(
-0.00159313
-0.00167525
-0.0017512
-0.00181867
-0.00187415
-0.00191331
-0.00193049
-0.00192203
-0.00188292
-0.00181802
-0.00172098
-0.00161831
-0.00147599
-0.00138772
-0.00118788
-0.000925493
-0.00102356
-0.00112037
-0.00121565
-0.00130897
0.0132364
-0.00139973
)
;
    }
}


// ************************************************************************* //
