/*--------------------------------*- C++ -*----------------------------------*\
  =========                 |
  \\      /  F ield         | OpenFOAM: The Open Source CFD Toolbox
   \\    /   O peration     | Website:  https://openfoam.org
    \\  /    A nd           | Version:  7
     \\/     M anipulation  |
\*---------------------------------------------------------------------------*/
FoamFile
{
    version     2.0;
    format      ascii;
    class       volVectorField;
    location    "1.5";
    object      U;
}
// * * * * * * * * * * * * * * * * * * * * * * * * * * * * * * * * * * * * * //

dimensions      [0 1 -1 0 0 0 0];

internalField   nonuniform List<vector> 
344
(
(1.05583 3.30213e-05 -8.5391e-17)
(1.05584 2.8174e-05 -7.82599e-17)
(1.05584 2.40384e-05 -8.24053e-17)
(1.05584 2.05099e-05 -7.34337e-17)
(1.05584 1.74994e-05 -7.86752e-17)
(1.05584 1.49308e-05 -7.36015e-17)
(1.05585 1.27392e-05 -7.41888e-17)
(1.05585 1.08694e-05 -7.45653e-17)
(1.05585 9.27409e-06 -6.9849e-17)
(1.05585 7.91277e-06 -7.64436e-17)
(1.05585 6.75134e-06 -6.50546e-17)
(1.05585 5.76038e-06 -7.42659e-17)
(1.05585 4.915e-06 -6.18465e-17)
(1.05585 4.19363e-06 -7.3761e-17)
(1.05585 3.57816e-06 -6.30545e-17)
(1.05585 3.05304e-06 -7.25506e-17)
(1.05585 2.60498e-06 -6.37986e-17)
(1.05585 2.22256e-06 -7.1078e-17)
(1.05585 1.89626e-06 -6.5302e-17)
(1.05585 1.61785e-06 -6.89255e-17)
(1.05585 1.38028e-06 -6.18013e-17)
(1.05585 1.17756e-06 -6.56751e-17)
(1.05585 1.00461e-06 -6.09168e-17)
(1.05585 8.5694e-07 -6.27935e-17)
(1.05585 7.30942e-07 -5.72528e-17)
(1.05585 6.23218e-07 -5.94272e-17)
(1.05585 5.31543e-07 -5.61666e-17)
(1.05585 4.53047e-07 -5.62909e-17)
(1.05585 3.86304e-07 -5.32349e-17)
(1.05585 3.28818e-07 -5.36802e-17)
(1.05585 2.80263e-07 -5.23081e-17)
(1.05585 2.37947e-07 -5.09116e-17)
(1.05585 2.02866e-07 -5.04863e-17)
(1.05585 1.71502e-07 -4.71999e-17)
(1.05585 1.46266e-07 -4.72287e-17)
(1.05585 1.22399e-07 -4.56954e-17)
(1.05585 1.04589e-07 -4.53169e-17)
(1.05585 8.55532e-08 -4.39626e-17)
(1.05585 7.3662e-08 -4.37109e-17)
(1.05585 5.73249e-08 -4.26725e-17)
(1.05585 5.10678e-08 -4.29194e-17)
(1.05585 3.45956e-08 -4.15476e-17)
(1.05486 0.00165765 -1.47465e-16)
(1.055 0.00141486 -1.40594e-16)
(1.05513 0.00120757 -1.44141e-16)
(1.05523 0.0010306 -1.4692e-16)
(1.05532 0.000879528 -1.38956e-16)
(1.0554 0.000750575 -1.40199e-16)
(1.05547 0.000640508 -1.31887e-16)
(1.05552 0.000546568 -1.34944e-16)
(1.05557 0.000466395 -1.26581e-16)
(1.05561 0.000397974 -1.30571e-16)
(1.05565 0.000339584 -1.25681e-16)
(1.05568 0.000289757 -1.36664e-16)
(1.0557 0.000247238 -1.21896e-16)
(1.05573 0.000210956 -1.33326e-16)
(1.05574 0.000179997 -1.18202e-16)
(1.05576 0.00015358 -1.3074e-16)
(1.05577 0.000131039 -1.17463e-16)
(1.05579 0.000111806 -1.31705e-16)
(1.05579 9.53952e-05 -1.16815e-16)
(1.0558 8.1393e-05 -1.29653e-16)
(1.05581 6.94458e-05 -1.18169e-16)
(1.05582 5.92521e-05 -1.24954e-16)
(1.05582 5.05547e-05 -1.13404e-16)
(1.05583 4.31339e-05 -1.21164e-16)
(1.05583 3.68022e-05 -1.14665e-16)
(1.05583 3.14e-05 -1.15572e-16)
(1.05584 2.67908e-05 -1.09958e-16)
(1.05584 2.28581e-05 -1.12331e-16)
(1.05584 1.95029e-05 -1.11156e-16)
(1.05584 1.66403e-05 -1.0699e-16)
(1.05584 1.41979e-05 -1.06246e-16)
(1.05584 1.2114e-05 -1.02009e-16)
(1.05585 1.0336e-05 -1.01513e-16)
(1.05585 8.81899e-06 -9.72297e-17)
(1.05585 7.52452e-06 -9.74053e-17)
(1.05585 6.42009e-06 -9.50716e-17)
(1.05585 5.47777e-06 -1.00316e-16)
(1.05585 4.67392e-06 -9.31606e-17)
(1.05585 3.98799e-06 -9.82424e-17)
(1.05585 3.40274e-06 -9.10934e-17)
(1.05585 2.90341e-06 -9.66389e-17)
(1.05585 2.47734e-06 -8.88927e-17)
(1.05585 2.11369e-06 -9.52524e-17)
(1.05585 1.80335e-06 -8.79462e-17)
(1.05585 1.53855e-06 -9.39705e-17)
(1.05585 1.31263e-06 -8.81554e-17)
(1.05585 1.11983e-06 -9.04097e-17)
(1.05585 9.55323e-07 -8.45359e-17)
(1.05585 8.14877e-07 -8.70387e-17)
(1.05585 6.95051e-07 -8.31562e-17)
(1.05585 5.92679e-07 -8.27126e-17)
(1.05585 5.0555e-07 -7.93309e-17)
(1.05585 4.30935e-07 -7.90891e-17)
(1.05585 3.67461e-07 -7.81588e-17)
(1.05585 3.12805e-07 -7.52033e-17)
(1.05585 2.66622e-07 -7.46623e-17)
(1.05585 2.26333e-07 -7.17291e-17)
(1.05585 1.92954e-07 -7.07246e-17)
(1.05585 1.6307e-07 -6.78487e-17)
(1.05585 1.3904e-07 -6.7147e-17)
(1.05585 1.16316e-07 -6.50691e-17)
(1.05585 9.93048e-08 -6.5047e-17)
(1.05585 8.1254e-08 -6.30593e-17)
(1.05585 6.99798e-08 -6.29135e-17)
(1.05585 5.44713e-08 -6.14508e-17)
(1.05585 4.85887e-08 -6.18281e-17)
(1.05585 3.2909e-08 -6.00831e-17)
(1.05477 0.00156886 -1.60619e-16)
(1.05493 0.0013391 -1.64286e-16)
(1.05506 0.00114293 -1.57205e-16)
(1.05518 0.000975448 -1.64136e-16)
(1.05528 0.000832472 -1.53893e-16)
(1.05536 0.000710428 -1.59444e-16)
(1.05543 0.000606256 -1.46782e-16)
(1.05549 0.000517345 -1.54026e-16)
(1.05555 0.000441463 -1.41922e-16)
(1.05559 0.000376703 -1.51116e-16)
(1.05563 0.000321437 -1.41482e-16)
(1.05566 0.000274275 -1.50211e-16)
(1.05569 0.00023403 -1.40695e-16)
(1.05571 0.000199687 -1.46926e-16)
(1.05573 0.000170383 -1.39619e-16)
(1.05575 0.000145378 -1.45166e-16)
(1.05577 0.000124042 -1.4153e-16)
(1.05578 0.000105836 -1.44775e-16)
(1.05579 9.03023e-05 -1.42409e-16)
(1.0558 7.70481e-05 -1.43596e-16)
(1.05581 6.5739e-05 -1.40062e-16)
(1.05581 5.60896e-05 -1.38625e-16)
(1.05582 4.78566e-05 -1.36448e-16)
(1.05582 4.0832e-05 -1.33849e-16)
(1.05583 3.48385e-05 -1.33999e-16)
(1.05583 2.97247e-05 -1.28437e-16)
(1.05583 2.53614e-05 -1.29607e-16)
(1.05584 2.16387e-05 -1.23965e-16)
(1.05584 1.84624e-05 -1.25463e-16)
(1.05584 1.57526e-05 -1.18974e-16)
(1.05584 1.34406e-05 -1.21526e-16)
(1.05584 1.1468e-05 -1.15297e-16)
(1.05585 9.78488e-06 -1.18039e-16)
(1.05585 8.34881e-06 -1.10781e-16)
(1.05585 7.12342e-06 -1.13778e-16)
(1.05585 6.07794e-06 -1.08718e-16)
(1.05585 5.18585e-06 -1.13167e-16)
(1.05585 4.42482e-06 -1.08513e-16)
(1.05585 3.77545e-06 -1.10806e-16)
(1.05585 3.22145e-06 -1.07113e-16)
(1.05585 2.74878e-06 -1.09337e-16)
(1.05585 2.34542e-06 -1.06558e-16)
(1.05585 2.00114e-06 -1.08671e-16)
(1.05585 1.70736e-06 -1.06494e-16)
(1.05585 1.45666e-06 -1.06748e-16)
(1.05585 1.24277e-06 -1.04232e-16)
(1.05585 1.06021e-06 -1.0323e-16)
(1.05585 9.0442e-07 -1.00944e-16)
(1.05585 7.71425e-07 -9.93178e-17)
(1.05585 6.57957e-07 -9.6865e-17)
(1.05585 5.61068e-07 -9.44634e-17)
(1.05585 4.78597e-07 -9.33705e-17)
(1.05585 4.0799e-07 -9.04498e-17)
(1.05585 3.47902e-07 -8.992e-17)
(1.05585 2.96146e-07 -8.6602e-17)
(1.05585 2.52405e-07 -8.63832e-17)
(1.05585 2.14233e-07 -8.30601e-17)
(1.05585 1.82629e-07 -8.24668e-17)
(1.05585 1.54289e-07 -7.91678e-17)
(1.05585 1.31544e-07 -7.92043e-17)
(1.05585 1.10048e-07 -7.63474e-17)
(1.05585 9.39362e-08 -7.71615e-17)
(1.05585 7.68994e-08 -7.42813e-17)
(1.05585 6.62418e-08 -7.49296e-17)
(1.05585 5.15963e-08 -7.2657e-17)
(1.05585 4.60438e-08 -7.30373e-17)
(1.05585 3.11599e-08 -7.13377e-17)
(1.05468 0.00147749 -1.91953e-16)
(1.05485 0.00126114 -1.85617e-16)
(1.055 0.00107641 -1.86416e-16)
(1.05513 0.000918686 -1.80407e-16)
(1.05523 0.000784041 -1.81097e-16)
(1.05532 0.000669105 -1.80432e-16)
(1.0554 0.000570999 -1.71613e-16)
(1.05547 0.000487264 -1.80066e-16)
(1.05552 0.000415798 -1.619e-16)
(1.05557 0.000354806 -1.82727e-16)
(1.05561 0.000302756 -1.56202e-16)
(1.05565 0.000258337 -1.80043e-16)
(1.05568 0.000220432 -1.49715e-16)
(1.0557 0.000188086 -1.76345e-16)
(1.05573 0.000160485 -1.51572e-16)
(1.05574 0.000136934 -1.74913e-16)
(1.05576 0.000116837 -1.55997e-16)
(1.05577 9.969e-05 -1.73421e-16)
(1.05578 8.50587e-05 -1.60239e-16)
(1.05579 7.25745e-05 -1.69788e-16)
(1.0558 6.19224e-05 -1.5498e-16)
(1.05581 5.28336e-05 -1.64526e-16)
(1.05582 4.50788e-05 -1.53325e-16)
(1.05582 3.84621e-05 -1.57353e-16)
(1.05583 3.28167e-05 -1.45654e-16)
(1.05583 2.79998e-05 -1.49929e-16)
(1.05583 2.38898e-05 -1.43406e-16)
(1.05584 2.03831e-05 -1.43821e-16)
(1.05584 1.73912e-05 -1.37119e-16)
(1.05584 1.48387e-05 -1.38128e-16)
(1.05584 1.26609e-05 -1.36004e-16)
(1.05584 1.08028e-05 -1.33023e-16)
(1.05584 9.21745e-06 -1.3504e-16)
(1.05585 7.86468e-06 -1.25116e-16)
(1.05585 6.7104e-06 -1.33479e-16)
(1.05585 5.72559e-06 -1.20246e-16)
(1.05585 4.88526e-06 -1.32092e-16)
(1.05585 4.16833e-06 -1.17055e-16)
(1.05585 3.55663e-06 -1.29111e-16)
(1.05585 3.03478e-06 -1.16478e-16)
(1.05585 2.58954e-06 -1.27084e-16)
(1.05585 2.20955e-06 -1.17584e-16)
(1.05585 1.88525e-06 -1.25575e-16)
(1.05585 1.60854e-06 -1.19482e-16)
(1.05585 1.37236e-06 -1.23159e-16)
(1.05585 1.17084e-06 -1.15288e-16)
(1.05585 9.98806e-07 -1.1819e-16)
(1.05585 8.52016e-07 -1.12456e-16)
(1.05585 7.26715e-07 -1.1246e-16)
(1.05585 6.19785e-07 -1.05787e-16)
(1.05585 5.28518e-07 -1.06085e-16)
(1.05585 4.50829e-07 -1.02737e-16)
(1.05585 3.8435e-07 -1.01043e-16)
(1.05585 3.27766e-07 -9.78518e-17)
(1.05585 2.78986e-07 -9.66365e-17)
(1.05585 2.37745e-07 -9.48439e-17)
(1.05585 2.01754e-07 -9.17134e-17)
(1.05585 1.71975e-07 -9.09613e-17)
(1.05585 1.4525e-07 -8.63645e-17)
(1.05585 1.23827e-07 -8.69978e-17)
(1.05585 1.03586e-07 -8.38092e-17)
(1.05585 8.84113e-08 -8.42105e-17)
(1.05585 7.23927e-08 -8.12188e-17)
(1.05585 6.23637e-08 -8.12453e-17)
(1.05585 4.85799e-08 -7.91927e-17)
(1.05585 4.33719e-08 -7.93024e-17)
(1.05585 2.93532e-08 -7.73844e-17)
(1.0546 0.0013838 -1.7628e-16)
(1.05479 0.00118119 -1.69145e-16)
(1.05494 0.00100818 -1.71089e-16)
(1.05508 0.000860468 -1.74848e-16)
(1.05519 0.000734365 -1.65217e-16)
(1.05529 0.000626718 -1.68518e-16)
(1.05537 0.000534833 -1.57316e-16)
(1.05544 0.000456407 -1.60977e-16)
(1.0555 0.00038947 -1.49295e-16)
(1.05555 0.000332343 -1.55722e-16)
(1.0556 0.00028359 -1.46815e-16)
(1.05563 0.000241985 -1.61745e-16)
(1.05567 0.000206481 -1.43929e-16)
(1.05569 0.000176184 -1.57079e-16)
(1.05572 0.000150331 -1.40949e-16)
(1.05574 0.00012827 -1.5579e-16)
(1.05575 0.000109446 -1.4132e-16)
(1.05577 9.3384e-05 -1.55831e-16)
(1.05578 7.96787e-05 -1.40308e-16)
(1.05579 6.79845e-05 -1.55863e-16)
(1.0558 5.80065e-05 -1.44016e-16)
(1.05581 4.94929e-05 -1.50454e-16)
(1.05581 4.22286e-05 -1.38251e-16)
(1.05582 3.60305e-05 -1.45462e-16)
(1.05582 3.07421e-05 -1.37693e-16)
(1.05583 2.62299e-05 -1.3749e-16)
(1.05583 2.23798e-05 -1.31137e-16)
(1.05583 1.90949e-05 -1.31906e-16)
(1.05584 1.62921e-05 -1.31629e-16)
(1.05584 1.3901e-05 -1.26948e-16)
(1.05584 1.18609e-05 -1.27698e-16)
(1.05584 1.01203e-05 -1.22256e-16)
(1.05584 8.63515e-06 -1.22124e-16)
(1.05585 7.36786e-06 -1.15295e-16)
(1.05585 6.28637e-06 -1.16099e-16)
(1.05585 5.36383e-06 -1.129e-16)
(1.05585 4.57665e-06 -1.19673e-16)
(1.05585 3.90505e-06 -1.11379e-16)
(1.05585 3.33203e-06 -1.16194e-16)
(1.05585 2.84316e-06 -1.07901e-16)
(1.05585 2.42606e-06 -1.14573e-16)
(1.05585 2.0701e-06 -1.06814e-16)
(1.05585 1.76631e-06 -1.14523e-16)
(1.05585 1.50711e-06 -1.07179e-16)
(1.05585 1.28584e-06 -1.13747e-16)
(1.05585 1.09704e-06 -1.07825e-16)
(1.05585 9.35824e-07 -1.09379e-16)
(1.05585 7.98277e-07 -1.02462e-16)
(1.05585 6.80875e-07 -1.04043e-16)
(1.05585 5.80647e-07 -9.87766e-17)
(1.05585 4.95134e-07 -9.7365e-17)
(1.05585 4.22343e-07 -9.39219e-17)
(1.05585 3.60064e-07 -9.30245e-17)
(1.05585 3.07081e-07 -9.24595e-17)
(1.05585 2.61383e-07 -8.93078e-17)
(1.05585 2.22733e-07 -8.82739e-17)
(1.05585 1.88995e-07 -8.4815e-17)
(1.05585 1.61064e-07 -8.32202e-17)
(1.05585 1.36023e-07 -7.97915e-17)
(1.05585 1.1594e-07 -7.96925e-17)
(1.05585 9.6979e-08 -7.68026e-17)
(1.05585 8.27525e-08 -7.75574e-17)
(1.05585 6.77794e-08 -7.47188e-17)
(1.05585 5.84042e-08 -7.47056e-17)
(1.05585 4.54852e-08 -7.30165e-17)
(1.05585 4.06082e-08 -7.2853e-17)
(1.05585 2.74621e-08 -7.17451e-17)
(1.05453 0.00128803 -1.41561e-16)
(1.05472 0.00109945 -1.33866e-16)
(1.05489 0.000938431 -1.37434e-16)
(1.05503 0.000800948 -1.39628e-16)
(1.05515 0.000683576 -1.33226e-16)
(1.05525 0.000583381 -1.33598e-16)
(1.05534 0.000497855 -1.27273e-16)
(1.05542 0.000424855 -1.26642e-16)
(1.05548 0.000362549 -1.19465e-16)
(1.05553 0.000309374 -1.20877e-16)
(1.05558 0.000263993 -1.17377e-16)
(1.05562 0.000225265 -1.2816e-16)
(1.05565 0.000192215 -1.1457e-16)
(1.05568 0.000164013 -1.24007e-16)
(1.05571 0.000139946 -1.1168e-16)
(1.05573 0.000119411 -1.24338e-16)
(1.05575 0.000101888 -1.12565e-16)
(1.05576 8.69353e-05 -1.25343e-16)
(1.05578 7.41768e-05 -1.11397e-16)
(1.05579 6.32905e-05 -1.25998e-16)
(1.0558 5.40018e-05 -1.16138e-16)
(1.0558 4.60763e-05 -1.21857e-16)
(1.05581 3.93138e-05 -1.1068e-16)
(1.05582 3.35437e-05 -1.17583e-16)
(1.05582 2.86205e-05 -1.10342e-16)
(1.05583 2.44197e-05 -1.10335e-16)
(1.05583 2.08354e-05 -1.04296e-16)
(1.05583 1.77772e-05 -1.06068e-16)
(1.05584 1.51679e-05 -1.06168e-16)
(1.05584 1.29419e-05 -1.03263e-16)
(1.05584 1.10426e-05 -1.02341e-16)
(1.05584 9.42211e-06 -9.90402e-17)
(1.05584 8.03945e-06 -9.68056e-17)
(1.05584 6.85959e-06 -9.29471e-17)
)
;

boundaryField
{
    inlet
    {
        type            uniformFixedValue;
        uniformValue    constant (1 0 0);
        value           nonuniform 0();
    }
    outlet
    {
        type            pressureInletOutletVelocity;
        value           nonuniform List<vector> 5((1.05585 3.45956e-08 -4.15476e-17) (1.05585 3.2909e-08 -6.00831e-17) (1.05585 3.11599e-08 -7.13377e-17) (1.05585 2.93532e-08 -7.73844e-17) (1.05585 2.74621e-08 -7.17451e-17));
    }
    wall
    {
        type            fixedValue;
        value           nonuniform 0();
    }
    wedge1
    {
        type            wedge;
    }
    wedge2
    {
        type            wedge;
    }
    axis
    {
        type            empty;
    }
    procBoundary29to23
    {
        type            processor;
        value           nonuniform List<vector> 
68
(
(1.05584 3.45843e-05 -1.62973e-17)
(1.05584 2.95076e-05 -2.46345e-17)
(1.05584 2.51762e-05 -1.82666e-17)
(1.05584 2.14806e-05 -2.72877e-17)
(1.05584 1.83274e-05 -1.75788e-17)
(1.05585 1.56373e-05 -2.24573e-17)
(1.05585 1.3342e-05 -1.79893e-17)
(1.05585 1.13836e-05 -1.7852e-17)
(1.05585 9.71277e-06 -1.95979e-17)
(1.05585 8.2871e-06 -1.42859e-17)
(1.05585 7.07082e-06 -2.28169e-17)
(1.05585 6.03295e-06 -1.47093e-17)
(1.05585 5.14746e-06 -2.55092e-17)
(1.05585 4.39189e-06 -1.50691e-17)
(1.05585 3.74731e-06 -2.40652e-17)
(1.05585 3.19732e-06 -1.56322e-17)
(1.05585 2.728e-06 -2.26524e-17)
(1.05585 2.32749e-06 -1.70977e-17)
(1.05585 1.98582e-06 -2.20063e-17)
(1.05585 1.69433e-06 -1.86081e-17)
(1.05585 1.44556e-06 -2.40647e-17)
(1.05585 1.23327e-06 -1.83108e-17)
(1.05585 1.05211e-06 -2.11519e-17)
(1.05585 8.97409e-07 -1.86954e-17)
(1.05585 7.65454e-07 -2.20214e-17)
(1.05585 6.52599e-07 -1.78259e-17)
(1.05585 5.56555e-07 -1.96255e-17)
(1.05585 4.74308e-07 -1.79132e-17)
(1.05585 4.04403e-07 -2.045e-17)
(1.05585 3.44192e-07 -1.78022e-17)
(1.05585 2.93364e-07 -1.91008e-17)
(1.05585 2.49081e-07 -1.78012e-17)
(1.05585 2.12348e-07 -1.68414e-17)
(1.05585 1.79548e-07 -1.72083e-17)
(1.05585 1.5318e-07 -1.58063e-17)
(1.05585 1.28247e-07 -1.58327e-17)
(1.05585 1.09726e-07 -1.6186e-17)
(1.05585 8.98093e-08 -1.63805e-17)
(1.05585 7.73299e-08 -1.67341e-17)
(1.05585 6.01961e-08 -1.67572e-17)
(1.05585 5.34849e-08 -1.70667e-17)
(1.05585 3.61989e-08 -1.70131e-17)
(1.05495 0.00174363 -1.08136e-16)
(1.05508 0.00148822 -9.8766e-17)
(1.0552 0.00127016 -1.05323e-16)
(1.05529 0.00108399 -9.4414e-17)
(1.05538 0.000925081 -1.0385e-16)
(1.05545 0.000789438 -9.87641e-17)
(1.0555 0.000673664 -9.6798e-17)
(1.05556 0.000574854 -1.00863e-16)
(1.0556 0.000490526 -9.09716e-17)
(1.05564 0.000418561 -1.05978e-16)
(1.05567 0.000357148 -8.5126e-17)
(1.0557 0.000304741 -1.0386e-16)
(1.05572 0.000260021 -7.85173e-17)
(1.05574 0.000221862 -1.02791e-16)
(1.05575 0.000189301 -8.08928e-17)
(1.05577 0.000161517 -1.01015e-16)
(1.05578 0.00013781 -8.53777e-17)
(1.05579 0.000117583 -1.01408e-16)
(1.0558 0.000100324 -8.94611e-17)
(1.05581 8.55975e-05 -9.71921e-17)
(1.05581 7.30328e-05 -8.25181e-17)
(1.05582 6.23124e-05 -9.36154e-17)
(1.05582 5.31656e-05 -8.2939e-17)
(1.05583 4.53614e-05 -8.91478e-17)
(1.05583 3.87027e-05 -7.73157e-17)
(1.05583 3.87027e-05 -7.73157e-17)
)
;
    }
    procBoundary29to28
    {
        type            processor;
        value           nonuniform List<vector> 4((1.05469 0.00194198 -1.44798e-16) (1.05458 0.00183792 -1.67256e-16) (1.05448 0.00173085 -1.84865e-16) (1.05439 0.00162106 -1.76546e-16));
    }
    procBoundary29to34
    {
        type            processor;
        value           uniform (1.0543 0.00150885 -1.41026e-16);
    }
    procBoundary29to35
    {
        type            processor;
        value           nonuniform List<vector> 
68
(
(1.05585 5.85259e-06 -9.15816e-17)
(1.05585 4.99371e-06 -9.08011e-17)
(1.05585 4.26088e-06 -9.53377e-17)
(1.05585 3.63563e-06 -8.92652e-17)
(1.05585 3.10219e-06 -9.27198e-17)
(1.05585 2.64707e-06 -8.60994e-17)
(1.05585 2.25881e-06 -9.18534e-17)
(1.05585 1.92747e-06 -8.55607e-17)
(1.05585 1.64466e-06 -9.23693e-17)
(1.05585 1.40333e-06 -8.63978e-17)
(1.05585 1.1973e-06 -9.2772e-17)
(1.05585 1.02154e-06 -8.79943e-17)
(1.05585 8.71427e-07 -8.93631e-17)
(1.05585 7.43343e-07 -8.30389e-17)
(1.05585 6.3403e-07 -8.40081e-17)
(1.05585 5.40671e-07 -7.94627e-17)
(1.05585 4.61041e-07 -7.79466e-17)
(1.05585 3.93235e-07 -7.48425e-17)
(1.05585 3.35209e-07 -7.45206e-17)
(1.05585 2.85888e-07 -7.41442e-17)
(1.05585 2.43358e-07 -7.18133e-17)
(1.05585 2.07396e-07 -7.09255e-17)
(1.05585 1.75994e-07 -6.82189e-17)
(1.05585 1.49941e-07 -6.63938e-17)
(1.05585 1.26619e-07 -6.34368e-17)
(1.05585 1.0789e-07 -6.34209e-17)
(1.05585 9.02413e-08 -6.0992e-17)
(1.05585 7.69874e-08 -6.20831e-17)
(1.05585 6.30687e-08 -5.97265e-17)
(1.05585 5.43667e-08 -5.96522e-17)
(1.05585 4.23277e-08 -5.84824e-17)
(1.05585 3.77892e-08 -5.79397e-17)
(1.05585 2.55191e-08 -5.77227e-17)
(1.05446 0.00119044 -9.01328e-17)
(1.05466 0.00101616 -9.05112e-17)
(1.05484 0.000867346 -8.71301e-17)
(1.05499 0.000740286 -9.0025e-17)
(1.05511 0.00063181 -8.57496e-17)
(1.05522 0.000539208 -8.75466e-17)
(1.05531 0.000460163 -8.23392e-17)
(1.05539 0.000392693 -8.32147e-17)
(1.05546 0.000335108 -7.70087e-17)
(1.05552 0.00028596 -7.98875e-17)
(1.05557 0.000244015 -7.71962e-17)
(1.05561 0.00020822 -8.12086e-17)
(1.05564 0.000177672 -7.64582e-17)
(1.05567 0.000151605 -7.75195e-17)
(1.0557 0.00012936 -7.49475e-17)
(1.05572 0.000110379 -7.84557e-17)
(1.05574 9.41818e-05 -7.79836e-17)
(1.05576 8.0361e-05 -7.97489e-17)
(1.05577 6.85678e-05 -7.96126e-17)
(1.05578 5.85051e-05 -8.14266e-17)
(1.05579 4.9919e-05 -7.95122e-17)
(1.0558 4.25929e-05 -7.89032e-17)
(1.05581 3.6342e-05 -7.7824e-17)
(1.05582 3.10084e-05 -7.67764e-17)
(1.05582 2.64574e-05 -7.4185e-17)
(1.05583 2.25741e-05 -7.13265e-17)
(1.05583 1.92607e-05 -7.18596e-17)
(1.05583 1.64337e-05 -6.92703e-17)
(1.05584 1.40217e-05 -6.95219e-17)
(1.05584 1.19639e-05 -6.74188e-17)
(1.05584 1.02082e-05 -6.80617e-17)
(1.05584 8.71019e-06 -6.52804e-17)
(1.05584 7.43198e-06 -6.42217e-17)
(1.05585 5.85259e-06 -9.15816e-17)
(1.05584 6.3413e-06 -6.10482e-17)
)
;
    }
}


// ************************************************************************* //
