/*--------------------------------*- C++ -*----------------------------------*\
  =========                 |
  \\      /  F ield         | OpenFOAM: The Open Source CFD Toolbox
   \\    /   O peration     | Website:  https://openfoam.org
    \\  /    A nd           | Version:  7
     \\/     M anipulation  |
\*---------------------------------------------------------------------------*/
FoamFile
{
    version     2.0;
    format      ascii;
    class       volVectorField;
    location    "12";
    object      U;
}
// * * * * * * * * * * * * * * * * * * * * * * * * * * * * * * * * * * * * * //

dimensions      [0 1 -1 0 0 0 0];

internalField   nonuniform List<vector> 
433
(
(1.16001 0.370464 -1.86496e-20)
(1.17522 0.373398 4.69441e-20)
(1.18815 0.374937 -2.78994e-21)
(1.19881 0.375121 9.69422e-21)
(1.20719 0.374081 -4.98677e-20)
(0.937073 0.316664 -2.74172e-20)
(0.968691 0.329333 5.23279e-21)
(0.998746 0.341158 -1.16249e-20)
(1.0271 0.352017 -7.84271e-21)
(1.05363 0.361798 -1.54554e-20)
(1.07823 0.370398 -1.26502e-20)
(1.1008 0.377726 4.06387e-20)
(1.12127 0.383713 1.36983e-20)
(1.13958 0.388304 2.70833e-20)
(1.15571 0.391471 -1.71605e-20)
(1.16965 0.393202 -1.91683e-20)
(1.1814 0.393507 -7.6442e-21)
(1.19099 0.39245 3.1061e-20)
(1.19842 0.390195 -7.20732e-21)
(0.616347 0.208329 4.12078e-20)
(0.655205 0.224146 -9.56351e-20)
(0.693686 0.240013 6.11677e-20)
(0.731663 0.255836 3.00419e-20)
(0.769002 0.271517 -3.67887e-20)
(0.805561 0.286944 -3.25686e-20)
(0.841198 0.302004 1.73182e-20)
(0.875764 0.316574 -2.37096e-20)
(0.909112 0.330528 -1.31924e-20)
(0.941097 0.343741 6.43806e-22)
(0.971578 0.356085 -2.66674e-20)
(1.00042 0.367439 2.24717e-20)
(1.02751 0.377687 2.37024e-21)
(1.05273 0.386723 -5.69073e-21)
(1.076 0.394455 -2.6104e-21)
(1.09724 0.400809 2.70399e-20)
(1.1164 0.405728 1.24731e-20)
(1.13345 0.409178 -2.89127e-20)
(1.14839 0.411149 3.63061e-20)
(1.16122 0.41165 6.25049e-21)
(1.17198 0.41071 -3.78346e-20)
(1.18069 0.408416 -1.92654e-20)
(1.18737 0.404964 2.21185e-20)
(1.1921 0.400159 -2.35671e-20)
(0.159612 0.0514204 2.14091e-20)
(0.196585 0.0641906 -3.23046e-21)
(0.234054 0.0774501 2.34834e-20)
(0.271975 0.0911896 -5.80834e-20)
(0.310297 0.105395 3.44441e-20)
(0.348964 0.120045 -2.66122e-20)
(0.387913 0.135115 2.03444e-20)
(0.427076 0.150571 1.42931e-20)
(0.466375 0.166374 -3.90571e-20)
(0.505726 0.182475 7.25461e-20)
(0.545039 0.198819 -8.947e-20)
(0.584213 0.21534 1.00139e-19)
(0.623141 0.231966 -9.3424e-21)
(0.661709 0.248614 -2.62613e-20)
(0.699794 0.265192 2.66669e-20)
(0.737268 0.2816 -6.13566e-20)
(0.773997 0.29773 2.2369e-20)
(0.809842 0.313468 4.798e-20)
(0.844663 0.328692 -4.10196e-20)
(0.878317 0.343277 7.66379e-21)
(0.910664 0.357097 2.74866e-20)
(0.941569 0.370025 3.21134e-20)
(0.970903 0.381936 -1.29553e-20)
(0.998548 0.392714 1.72964e-20)
(1.0244 0.402251 -2.30936e-20)
(1.04836 0.410451 -2.957e-20)
(1.07038 0.417236 1.26465e-20)
(1.09039 0.422545 -3.7349e-20)
(1.10836 0.42634 5.08206e-20)
(1.1243 0.428607 -3.324e-20)
(1.1382 0.429356 3.08105e-20)
(1.15011 0.428616 -2.39937e-20)
(1.16005 0.426435 8.42388e-21)
(1.16809 0.422922 -2.75921e-21)
(1.17421 0.418304 4.00848e-20)
(1.17855 0.412384 -2.23691e-20)
(0.0177277 0.00619288 -7.58529e-21)
(0.0529982 0.0186545 -3.10931e-20)
(0.0888575 0.0316188 -1.23154e-21)
(0.125279 0.0450749 -2.29441e-20)
(0.162232 0.0590075 3.69241e-20)
(0.199677 0.0734084 3.26379e-20)
(0.23757 0.0882674 1.24635e-20)
(0.275859 0.103568 -9.3322e-20)
(0.314492 0.11929 3.39909e-20)
(0.353405 0.135405 -8.64584e-21)
(0.392532 0.151879 -3.02911e-22)
(0.431798 0.168671 -1.74794e-20)
(0.471123 0.185734 -8.17085e-21)
(0.510418 0.20301 6.31252e-20)
(0.549587 0.220435 -5.86094e-20)
(0.588528 0.237937 1.83522e-20)
(0.62713 0.255432 5.69991e-20)
(0.665277 0.27283 -7.24102e-21)
(0.702847 0.290033 -6.41387e-20)
(0.739709 0.306932 4.554e-20)
(0.775733 0.323415 -4.38815e-20)
(0.810782 0.33936 7.79355e-20)
(0.844721 0.354644 -5.81386e-20)
(0.877414 0.369139 1.76896e-20)
(0.908729 0.382718 -2.72626e-20)
(0.938542 0.395258 2.62501e-20)
(0.966737 0.406637 -5.95173e-20)
(0.99321 0.416746 1.48359e-20)
(1.01787 0.425486 -9.29334e-21)
(1.04065 0.432774 1.24516e-19)
(1.06151 0.438544 -5.95761e-20)
(1.0804 0.442755 1.25439e-20)
(1.09732 0.445387 -2.90766e-20)
(1.11228 0.446446 1.36097e-20)
(1.12532 0.445963 1.95612e-22)
(1.13647 0.443988 -1.56677e-20)
(1.1458 0.440587 9.87388e-21)
(1.15334 0.435884 -1.83841e-20)
(1.15911 0.430139 9.89974e-21)
(1.16321 0.42318 1.75032e-20)
(0.0536688 0.0212554 4.40988e-20)
(0.0899311 0.0359248 -6.70009e-21)
(0.126721 0.0510657 -6.16766e-20)
(0.164002 0.0666583 4.93239e-20)
(0.201733 0.0826882 -2.81471e-20)
(0.239863 0.0991385 2.48711e-20)
(0.278339 0.115986 3.00323e-20)
(0.3171 0.133202 -5.38537e-20)
(0.356083 0.150752 7.96446e-21)
(0.395214 0.168593 6.07401e-21)
(0.434416 0.186677 4.47799e-20)
(0.473603 0.204948 -7.96422e-20)
(0.512684 0.223339 6.26438e-20)
(0.551561 0.241779 1.46216e-20)
(0.590128 0.260186 2.44399e-20)
(0.628273 0.27847 -8.32055e-20)
(0.66588 0.296533 2.55368e-20)
(0.702824 0.314268 2.92397e-20)
(0.73898 0.331563 -3.00231e-20)
(0.774216 0.348298 4.34379e-21)
(0.808403 0.36435 -7.73055e-21)
(0.84141 0.379591 4.73812e-20)
(0.873108 0.393895 -4.42149e-20)
(0.903377 0.407136 -4.68072e-20)
(0.932102 0.419193 8.8591e-20)
(0.959181 0.429951 -8.54633e-20)
(0.984525 0.43931 9.15534e-20)
(1.00806 0.447181 -7.37209e-20)
(1.02974 0.453494 2.83714e-20)
(1.04953 0.458202 -5.83644e-20)
(1.06743 0.461278 5.25782e-20)
(1.08343 0.462723 -5.78861e-20)
(1.09758 0.462565 -3.88679e-23)
(1.10991 0.460857 4.88648e-20)
(1.12049 0.457671 -8.26786e-21)
(1.12939 0.45309 -1.45428e-20)
(1.13664 0.447258 1.89778e-20)
(1.14222 0.440468 4.90835e-21)
(1.14626 0.432525 -1.79032e-20)
(0.0905124 0.0402297 -6.90269e-21)
(0.127475 0.0570459 -9.9249e-21)
(0.164892 0.0742837 4.91035e-21)
(0.202717 0.0919222 -1.20706e-20)
(0.240896 0.109937 3.07611e-20)
(0.279372 0.128299 8.48798e-21)
(0.318081 0.146971 4.16552e-20)
(0.356955 0.16591 -3.53377e-20)
(0.395918 0.185066 1.77479e-20)
(0.434889 0.204384 -2.22315e-21)
(0.47378 0.223796 -6.58634e-20)
(0.512497 0.243232 7.6166e-20)
(0.550939 0.262609 -3.06089e-20)
(0.588999 0.281839 -2.13515e-20)
(0.626565 0.300823 -2.95577e-20)
(0.66352 0.319458 1.28195e-20)
(0.699743 0.337631 1.41714e-20)
(0.735108 0.355223 -3.68401e-20)
(0.76949 0.372112 6.80238e-20)
(0.802762 0.388172 1.66592e-20)
(0.834801 0.403274 -5.99211e-20)
(0.865488 0.417293 8.38171e-22)
(0.89471 0.430105 2.2488e-20)
(0.922366 0.441595 -6.43876e-20)
(0.948367 0.451657 3.65862e-20)
(0.972638 0.460198 -7.94298e-20)
(0.995126 0.467142 4.99974e-20)
(1.0158 0.472435 2.97513e-20)
(1.03463 0.476044 -2.75835e-20)
(1.05165 0.477963 1.54505e-20)
(1.06688 0.478214 7.59658e-21)
(1.08036 0.476844 -8.80437e-21)
(1.09216 0.473929 -6.66854e-21)
(1.10235 0.469564 -2.66214e-20)
(1.111 0.463852 1.58973e-20)
(1.11815 0.456963 6.48716e-21)
(1.12375 0.449212 -8.91299e-21)
(1.12796 0.440353 9.78652e-21)
(0.164883 0.0817918 -2.9409e-20)
(0.202608 0.100999 3.84587e-20)
(0.240646 0.120534 -3.52545e-20)
(0.278936 0.14036 -5.41693e-22)
(0.317413 0.160431 4.67639e-20)
(0.356003 0.180698 3.25398e-21)
(0.394629 0.201103 -5.096e-20)
(0.433207 0.221581 6.65738e-21)
(0.471648 0.242058 4.08966e-20)
(0.509855 0.262455 -5.11466e-20)
(0.547727 0.282683 2.76084e-20)
(0.585157 0.302645 5.42301e-21)
(0.622033 0.322237 -6.07962e-21)
(0.658238 0.341347 3.67029e-20)
(0.693654 0.35986 -3.11472e-20)
(0.728159 0.377653 -2.76474e-20)
(0.761632 0.394599 1.13589e-20)
(0.793952 0.410572 2.45937e-20)
(0.825003 0.425444 -4.98104e-21)
(0.854675 0.439092 -1.22208e-20)
(0.882865 0.451396 -1.97177e-20)
(0.909483 0.462247 4.52454e-20)
(0.934454 0.471548 -2.46967e-20)
(0.957718 0.479218 4.28604e-20)
(0.979237 0.485193 4.38305e-22)
(0.998992 0.489434 1.90936e-20)
(1.01699 0.491926 -3.74212e-20)
(1.03326 0.492681 4.93613e-20)
(1.04784 0.491741 -1.20467e-20)
(1.06081 0.489176 -1.41201e-20)
(1.07224 0.485084 -8.67988e-22)
(1.08221 0.47958 6.15657e-21)
(1.09079 0.47279 2.36796e-21)
(1.09803 0.464906 5.56894e-21)
(1.10385 0.456267 -1.17993e-20)
(1.10842 0.446603 3.54965e-22)
(0.239108 0.130799 1.25142e-20)
(0.277029 0.15202 -1.83703e-20)
(0.315094 0.173418 2.03025e-20)
(0.353229 0.194936 -2.69864e-20)
(0.391354 0.216508 6.26269e-20)
(0.429384 0.238061 -9.32707e-21)
(0.467228 0.259515 -4.48107e-21)
(0.504789 0.280781 -7.78471e-21)
(0.541967 0.301764 -3.86713e-20)
(0.578653 0.32236 4.30851e-20)
(0.614738 0.342461 4.10941e-21)
(0.650107 0.361949 -6.17032e-20)
(0.684644 0.380704 -1.00467e-20)
(0.718233 0.3986 3.65877e-20)
(0.750755 0.41551 1.88787e-20)
(0.782099 0.431307 2.29793e-20)
(0.812155 0.445865 -2.13124e-20)
(0.840821 0.459065 1.03165e-20)
(0.868005 0.470792 -2.94839e-20)
(0.893628 0.480946 1.69578e-20)
(0.917627 0.489437 5.09647e-20)
(0.939957 0.496198 -3.88979e-20)
(0.960593 0.501177 -8.7095e-21)
(0.979533 0.504351 3.7367e-20)
(0.996799 0.505721 -1.25751e-20)
(1.01244 0.505319 2.90017e-21)
(1.02651 0.503205 -3.70888e-21)
(1.0391 0.499471 1.0601e-20)
(1.0503 0.494237 2.03921e-20)
(1.06021 0.487642 -2.01825e-20)
(1.0689 0.479831 -1.56656e-21)
(1.07641 0.47102 -9.19831e-21)
(1.08263 0.461575 4.54071e-21)
(1.08773 0.451216 5.08846e-21)
(0.311145 0.185768 -2.09417e-20)
(0.34866 0.208446 4.6693e-20)
(0.386127 0.23109 -1.64426e-20)
(0.423461 0.25362 -2.42788e-21)
(0.46057 0.27595 -1.46567e-20)
(0.497359 0.297984 -1.57e-20)
(0.533726 0.319619 -1.13802e-21)
(0.569567 0.340748 3.04263e-20)
(0.604772 0.361255 -1.50095e-21)
(0.639231 0.38102 2.79009e-20)
(0.672831 0.399919 -6.03048e-20)
(0.705459 0.417824 1.97623e-20)
(0.737005 0.43461 -3.44798e-20)
(0.767361 0.450148 1.34638e-22)
(0.796427 0.464318 3.01797e-20)
(0.824109 0.477003 -1.19095e-20)
(0.850324 0.488097 -1.66096e-20)
(0.875005 0.497506 4.75408e-20)
(0.898099 0.505154 -4.38969e-20)
(0.919573 0.510982 1.27483e-20)
(0.939415 0.514955 8.24299e-21)
(0.957637 0.517063 -1.20069e-20)
(0.974276 0.517323 -3.3291e-20)
(0.989392 0.515785 2.24703e-20)
(1.00307 0.512527 -1.7085e-21)
(1.0154 0.50766 2.08686e-21)
(1.02651 0.501327 -4.90015e-21)
(1.03649 0.493687 -2.61329e-21)
(1.04545 0.484912 5.94115e-21)
(1.05341 0.475242 3.10433e-21)
(1.06022 0.465074 1.3215e-21)
(1.06603 0.454138 1.30351e-21)
(0.379005 0.244659 -7.20423e-21)
(0.415504 0.268059 6.52996e-21)
(0.451751 0.291155 -1.35814e-20)
(0.487651 0.313847 1.17893e-20)
(0.523105 0.336026 -1.791e-20)
(0.55801 0.35758 8.04086e-20)
(0.592259 0.378389 -1.71306e-20)
(0.625746 0.39833 -1.82977e-20)
(0.658362 0.417276 -2.99851e-20)
(0.69 0.435101 -1.76058e-20)
(0.720555 0.451678 3.21647e-20)
(0.749926 0.466883 1.45681e-20)
(0.778019 0.480598 -1.06172e-20)
(0.80475 0.492712 1.40906e-20)
(0.830044 0.503129 4.09762e-22)
(0.853843 0.511763 -2.77288e-20)
(0.876104 0.518548 1.6228e-20)
(0.896804 0.523437 -3.81586e-21)
(0.915943 0.52641 1.76329e-21)
(0.933543 0.527469 -1.29312e-21)
(0.949653 0.526648 -1.07958e-21)
(0.964347 0.524009 1.01685e-20)
(0.977724 0.519649 -3.55021e-22)
(0.989902 0.513696 1.70097e-21)
(1.00101 0.506311 -6.35989e-22)
(1.01118 0.497675 -7.30783e-22)
(1.02054 0.487985 4.25485e-21)
(1.02909 0.477513 1.24751e-21)
(1.03668 0.4667 -7.24038e-22)
(1.0434 0.455306 -1.83985e-21)
(0.440874 0.30493 1.10001e-20)
(0.475781 0.328163 9.69821e-21)
(0.510229 0.350773 -4.06302e-20)
(0.54412 0.372641 -2.08911e-20)
(0.57735 0.393646 9.03064e-21)
(0.609816 0.413662 3.05591e-20)
(0.641415 0.432562 -6.05975e-21)
(0.672045 0.45022 -2.22033e-21)
(0.701606 0.466511 -3.22039e-20)
(0.730005 0.481314 9.02293e-21)
(0.757155 0.494518 5.03215e-21)
(0.782978 0.506019 1.32205e-20)
(0.807409 0.515727 -1.49336e-21)
(0.830395 0.523567 7.23001e-21)
(0.851902 0.529485 -9.52697e-21)
(0.871915 0.533446 -2.42614e-21)
(0.890442 0.535441 2.29051e-21)
(0.907512 0.535488 4.1363e-22)
(0.923184 0.533631 -2.37089e-22)
(0.937542 0.529946 -2.47397e-21)
(0.950697 0.524543 5.15062e-21)
(0.962784 0.517561 -1.76889e-20)
(0.973958 0.509176 9.4238e-21)
(0.984382 0.499589 -6.94552e-21)
(0.99421 0.489023 -1.46481e-20)
(1.0035 0.477786 2.00883e-20)
(0.49525 0.363661 -9.30396e-21)
(0.528061 0.385731 -3.95536e-21)
(0.560221 0.406824 1.05183e-20)
(0.59163 0.426816 7.07648e-21)
(0.622191 0.445579 2.92545e-21)
(0.651807 0.462987 -5.3148e-21)
(0.680385 0.478921 6.62891e-21)
(0.707837 0.493264 -9.36779e-21)
(0.734082 0.50591 1.76246e-20)
(0.759051 0.516763 -8.75366e-21)
(0.782682 0.525744 3.50461e-21)
(0.804932 0.532787 -2.05016e-21)
(0.825772 0.537848 -9.64407e-23)
(0.84519 0.540907 1.96387e-22)
(0.863199 0.541966 1.51605e-21)
(0.879833 0.541053 -4.52071e-21)
(0.895154 0.538226 1.58786e-21)
(0.90925 0.533571 1.0278e-20)
(0.922239 0.527203 -1.06152e-20)
(0.934272 0.519269 1.98516e-20)
(0.945524 0.509952 -2.63386e-20)
(0.956199 0.499464 -2.76359e-20)
(0.541071 0.41774 -1.93913e-21)
(0.571399 0.437609 1.71696e-21)
(0.600913 0.456146 -4.56294e-21)
(0.62952 0.47323 2.34259e-21)
(0.657134 0.488741 1.09208e-21)
(0.683674 0.502572 2.07147e-21)
(0.709064 0.514622 1.24924e-21)
(0.73324 0.524805 -3.08195e-21)
(0.756147 0.53305 5.34695e-21)
(0.777745 0.539303 -3.77602e-21)
(0.798008 0.543533 -2.91145e-21)
(0.81693 0.54573 7.36995e-21)
(0.834522 0.545909 1.41445e-20)
(0.850818 0.544109 -6.73504e-21)
(0.865878 0.540399 -9.56035e-21)
(0.879786 0.53487 -8.52972e-21)
(0.892659 0.527642 1.1969e-20)
(0.904648 0.518862 -9.647e-21)
(0.577819 0.464107 1.02516e-20)
(0.605434 0.480792 -5.60487e-22)
(0.632115 0.495824 -1.01218e-20)
(0.657785 0.509097 7.32705e-21)
(0.682376 0.520522 2.32702e-21)
(0.705828 0.53002 2.04034e-21)
(0.728091 0.537531 -1.41008e-20)
(0.749128 0.543012 7.82543e-21)
(0.768916 0.546445 1.39304e-20)
(0.787447 0.547832 -3.67972e-20)
(0.804732 0.547199 1.89798e-20)
(0.8208 0.544599 -1.70817e-20)
(0.835702 0.540108 3.49791e-20)
(0.849511 0.533826 1.07079e-20)
(0.630446 0.51272 2.82237e-20)
(0.654301 0.523497 -2.2962e-20)
(0.677103 0.532303 -1.88158e-20)
(0.698807 0.539088 4.22076e-20)
(0.719378 0.543823 -3.85429e-20)
(0.738795 0.5465 1.7218e-20)
(0.757049 0.547133 1.16936e-20)
(0.774147 0.545764 -2.70806e-20)
(0.790113 0.542456 2.34726e-20)
(0.804986 0.537297 1.00463e-20)
(0.647348 0.531569 -3.8299e-20)
(0.668579 0.537643 3.82819e-20)
(0.68878 0.54166 -3.0067e-20)
(0.70793 0.543623 2.43744e-20)
(0.726022 0.543562 -4.38533e-20)
(0.743059 0.541527 1.09467e-20)
(0.6576 0.536472 1.72396e-20)
(0.676581 0.537766 -3.63434e-20)
(1.05499 0.432462 2.39077e-21)
(1.07587 0.431842 -2.21267e-22)
(1.0961 0.429747 4.02375e-21)
(1.11558 0.426213 -3.99492e-21)
(1.13418 0.42128 -6.08332e-22)
(1.06881 0.403101 -6.41179e-22)
(1.08741 0.402171 -7.68125e-23)
)
;

boundaryField
{
    inlet
    {
        type            uniformFixedValue;
        uniformValue    constant (1 0 0);
        value           nonuniform 0();
    }
    outlet
    {
        type            pressureInletOutletVelocity;
        value           nonuniform 0();
    }
    cylinder
    {
        type            fixedValue;
        value           uniform (0 0 0);
    }
    top
    {
        type            symmetryPlane;
    }
    bottom
    {
        type            symmetryPlane;
    }
    defaultFaces
    {
        type            empty;
    }
    procBoundary25to19
    {
        type            processor;
        value           nonuniform List<vector> 
38
(
(0.0179643 0.00707235 6.99624e-21)
(0.0179643 0.00707235 6.99624e-21)
(0.054043 0.0238593 1.53303e-20)
(0.054043 0.0238593 1.53303e-20)
(0.090589 0.044481 -2.59694e-20)
(0.127526 0.0629433 -2.81402e-20)
(0.127526 0.0629433 -2.81402e-20)
(0.163967 0.0890891 5.96574e-21)
(0.2014 0.109807 1.6377e-20)
(0.2014 0.109807 1.6377e-20)
(0.236293 0.140599 -1.73512e-20)
(0.273665 0.163131 2.54179e-22)
(0.273665 0.163131 2.54179e-22)
(0.305608 0.197321 4.49611e-21)
(0.342344 0.221051 -6.38018e-21)
(0.342344 0.221051 -6.38018e-21)
(0.370069 0.257037 8.83392e-22)
(0.405605 0.281185 -3.60976e-21)
(0.405605 0.281185 -3.60976e-21)
(0.428063 0.317087 2.99148e-21)
(0.461885 0.34074 -8.69149e-21)
(0.461885 0.34074 -8.69149e-21)
(0.47834 0.374508 8.31048e-21)
(0.51002 0.396664 -7.45238e-21)
(0.51002 0.396664 -7.45238e-21)
(0.520116 0.426228 -4.2694e-21)
(0.549352 0.445879 1.70876e-20)
(0.549352 0.445879 1.70876e-20)
(0.553164 0.469323 -5.54872e-22)
(0.57981 0.485544 1.88638e-20)
(0.605595 0.500042 -2.94467e-20)
(0.605595 0.500042 -2.94467e-20)
(0.601937 0.513345 1.16876e-22)
(0.62512 0.523456 -2.69998e-21)
(0.62512 0.523456 -2.69998e-21)
(0.616841 0.527761 2.76852e-21)
(0.63768 0.533142 -5.64172e-20)
(0.63768 0.533142 -5.64172e-20)
)
;
    }
    procBoundary25to20
    {
        type            processor;
        value           nonuniform List<vector> 
20
(
(0.60682 0.184773 1.73443e-20)
(0.64583 0.199687 8.75867e-21)
(0.156183 0.0439817 3.44273e-20)
(0.192504 0.0551377 -1.41179e-20)
(0.229371 0.0668074 -2.32006e-20)
(0.266744 0.0789877 9.37366e-21)
(0.304578 0.0916707 -6.38107e-21)
(0.342824 0.104843 1.82274e-20)
(0.381423 0.118487 -4.29144e-20)
(0.420313 0.132577 7.16856e-20)
(0.459421 0.147081 -6.50068e-20)
(0.49867 0.16196 -9.28886e-21)
(0.537971 0.177167 7.71429e-20)
(0.577232 0.192645 -3.6967e-20)
(0.577232 0.192645 -3.6967e-20)
(0.0173953 0.00532596 4.81985e-21)
(0.0520428 0.016087 -1.56099e-20)
(0.0873105 0.0273617 2.76473e-20)
(0.123176 0.0391433 1.68312e-20)
(0.123176 0.0391433 1.68312e-20)
)
;
    }
    procBoundary25to24
    {
        type            processor;
        value           nonuniform List<vector> 
24
(
(1.01205 0.466384 4.34105e-21)
(1.01991 0.454648 -3.56069e-22)
(0.966509 0.488046 1.03952e-21)
(1.01205 0.466384 4.34105e-21)
(0.97658 0.476047 -1.93589e-20)
(0.915943 0.508708 1.29167e-20)
(0.966509 0.488046 1.03952e-21)
(0.926783 0.497388 -5.31137e-20)
(0.862329 0.525874 1.11355e-20)
(0.915943 0.508708 1.29167e-20)
(0.874289 0.516395 3.94303e-20)
(0.862329 0.525874 1.11355e-20)
(0.818822 0.530397 1.85475e-20)
(0.75906 0.537595 -4.36568e-21)
(0.818822 0.530397 1.85475e-20)
(0.774055 0.531868 1.0066e-20)
(0.694614 0.537062 -8.23383e-20)
(0.75906 0.537595 -4.36568e-21)
(0.711703 0.534422 1.04099e-19)
(0.626093 0.528248 -3.83115e-20)
(0.694614 0.537062 -8.23383e-20)
(0.644985 0.528921 -6.13064e-21)
(1.03358 0.431576 5.31477e-22)
(1.04982 0.403017 -9.35805e-21)
)
;
    }
    procBoundary25to26
    {
        type            processor;
        value           nonuniform List<vector> 
23
(
(1.16112 0.348283 2.36844e-20)
(1.17776 0.352373 -1.06517e-20)
(1.19205 0.355117 1.90322e-20)
(1.20398 0.35653 -2.4293e-20)
(1.21351 0.356707 2.08913e-20)
(0.929481 0.289061 2.2625e-20)
(0.962206 0.301938 4.57357e-21)
(0.993463 0.314119 5.0128e-20)
(1.0231 0.32548 -1.05471e-20)
(1.05098 0.335902 -1.64299e-20)
(1.07696 0.345272 2.60857e-22)
(1.10094 0.353491 -2.22674e-20)
(1.12283 0.360471 -9.06215e-21)
(1.14253 0.366145 3.07764e-20)
(1.14253 0.366145 3.07764e-20)
(0.684577 0.214762 -5.71254e-21)
(0.722937 0.229913 -1.61344e-20)
(0.760777 0.245048 4.28398e-21)
(0.797955 0.260065 2.22654e-20)
(0.834326 0.274854 -4.61702e-20)
(0.869738 0.289299 5.43865e-20)
(0.904039 0.303277 -3.95167e-22)
(0.904039 0.303277 -3.95167e-22)
)
;
    }
    procBoundary25to31
    {
        type            processor;
        value           nonuniform List<vector> 
14
(
(1.21333 0.371664 3.42078e-21)
(1.20375 0.386565 -4.02855e-20)
(1.20375 0.386565 -4.02855e-20)
(1.19724 0.388044 -5.87382e-21)
(1.18349 0.3983 1.17087e-20)
(1.16824 0.407326 -1.2316e-21)
(1.15174 0.414987 6.8901e-23)
(1.10551 0.400213 2.74552e-21)
(1.12307 0.397223 9.65902e-22)
(1.15174 0.414987 6.8901e-23)
(1.13999 0.393206 6.94224e-21)
(1.07963 0.377904 2.28511e-21)
(1.10551 0.400213 2.74552e-21)
(1.09602 0.376572 1.0251e-22)
)
;
    }
}


// ************************************************************************* //
