# vtk DataFile Version 2.0
outlet
ASCII
DATASET POLYDATA
POINTS 242 float
8 0.707107 -0.05 8 0.76801 -0.05 8 0.76801 0.05 8 0.707107
0.05 8 0.831117 -0.05 8 0.831117 0.05 8 0.896508 -0.05
8 0.896508 0.05 8 0.964265 -0.05 8 0.964265 0.05 8
1.03447 -0.05 8 1.03447 0.05 8 1.10722 -0.05 8 1.10722
0.05 8 1.1826 -0.05 8 1.1826 0.05 8 1.26071 -0.05
8 1.26071 0.05 8 1.34165 -0.05 8 1.34165 0.05 8
1.42551 -0.05 8 1.42551 0.05 8 1.51241 -0.05 8 1.51241
0.05 8 1.60246 -0.05 8 1.60246 0.05 8 1.69576 -0.05
8 1.69576 0.05 8 1.79244 -0.05 8 1.79244 0.05 8
1.89261 -0.05 8 1.89261 0.05 8 1.99641 -0.05 8 1.99641
0.05 8 2.10397 -0.05 8 2.10397 0.05 8 2.21542 -0.05
8 2.21542 0.05 8 2.3309 -0.05 8 2.3309 0.05 8
2.45056 -0.05 8 2.45056 0.05 8 2.57455 -0.05 8 2.57455
0.05 8 2.70303 -0.05 8 2.70303 0.05 8 2.83616 -0.05
8 2.83616 0.05 8 2.9741 -0.05 8 2.9741 0.05 8
3.11704 -0.05 8 3.11704 0.05 8 3.26514 -0.05 8 3.26514
0.05 8 3.41861 -0.05 8 3.41861 0.05 8 3.57763 -0.05
8 3.57763 0.05 8 3.7424 -0.05 8 3.7424 0.05 8
3.91314 -0.05 8 3.91314 0.05 8 4.09005 -0.05 8 4.09005
0.05 8 4.27337 -0.05 8 4.27337 0.05 8 4.46332 -0.05
8 4.46332 0.05 8 4.66014 -0.05 8 4.66014 0.05 8
4.86409 -0.05 8 4.86409 0.05 8 5.07541 -0.05 8 5.07541
0.05 8 5.29439 -0.05 8 5.29439 0.05 8 5.52128 -0.05
8 5.52128 0.05 8 5.75639 -0.05 8 5.75639 0.05 8
6 -0.05 8 6 0.05 8 0 -0.05 8 0.0353553
-0.05 8 0.0353553 0.05 8 0 0.05 8 0.0707107 -0.05
8 0.0707107 0.05 8 0.106066 -0.05 8 0.106066 0.05 8
0.141421 -0.05 8 0.141421 0.05 8 0.176777 -0.05 8 0.176777
0.05 8 0.212132 -0.05 8 0.212132 0.05 8 0.247487 -0.05
8 0.247487 0.05 8 0.282843 -0.05 8 0.282843 0.05 8
0.318198 -0.05 8 0.318198 0.05 8 0.353553 -0.05 8 0.353553
0.05 8 0.388909 -0.05 8 0.388909 0.05 8 0.424264 -0.05
8 0.424264 0.05 8 0.459619 -0.05 8 0.459619 0.05 8
0.494975 -0.05 8 0.494975 0.05 8 0.53033 -0.05 8 0.53033
0.05 8 0.565685 -0.05 8 0.565685 0.05 8 0.601041 -0.05
8 0.601041 0.05 8 0.636396 -0.05 8 0.636396 0.05 8
0.671751 -0.05 8 0.671751 0.05 8 -0.707107 -0.05 8 -0.671751
-0.05 8 -0.671751 0.05 8 -0.707107 0.05 8 -0.636396 -0.05
8 -0.636396 0.05 8 -0.601041 -0.05 8 -0.601041 0.05 8
-0.565685 -0.05 8 -0.565685 0.05 8 -0.53033 -0.05 8 -0.53033
0.05 8 -0.494975 -0.05 8 -0.494975 0.05 8 -0.459619 -0.05
8 -0.459619 0.05 8 -0.424264 -0.05 8 -0.424264 0.05 8
-0.388909 -0.05 8 -0.388909 0.05 8 -0.353553 -0.05 8 -0.353553
0.05 8 -0.318198 -0.05 8 -0.318198 0.05 8 -0.282843 -0.05
8 -0.282843 0.05 8 -0.247487 -0.05 8 -0.247487 0.05 8
-0.212132 -0.05 8 -0.212132 0.05 8 -0.176777 -0.05 8 -0.176777
0.05 8 -0.141421 -0.05 8 -0.141421 0.05 8 -0.106066 -0.05
8 -0.106066 0.05 8 -0.0707107 -0.05 8 -0.0707107 0.05 8
-0.0353553 -0.05 8 -0.0353553 0.05 8 -6 -0.05 8 -5.75639
-0.05 8 -5.75639 0.05 8 -6 0.05 8 -5.52128 -0.05
8 -5.52128 0.05 8 -5.29439 -0.05 8 -5.29439 0.05 8
-5.07541 -0.05 8 -5.07541 0.05 8 -4.86409 -0.05 8 -4.86409
0.05 8 -4.66014 -0.05 8 -4.66014 0.05 8 -4.46332 -0.05
8 -4.46332 0.05 8 -4.27337 -0.05 8 -4.27337 0.05 8
-4.09005 -0.05 8 -4.09005 0.05 8 -3.91314 -0.05 8 -3.91314
0.05 8 -3.7424 -0.05 8 -3.7424 0.05 8 -3.57763 -0.05
8 -3.57763 0.05 8 -3.41861 -0.05 8 -3.41861 0.05 8
-3.26514 -0.05 8 -3.26514 0.05 8 -3.11704 -0.05 8 -3.11704
0.05 8 -2.9741 -0.05 8 -2.9741 0.05 8 -2.83616 -0.05
8 -2.83616 0.05 8 -2.70303 -0.05 8 -2.70303 0.05 8
-2.57455 -0.05 8 -2.57455 0.05 8 -2.45056 -0.05 8 -2.45056
0.05 8 -2.3309 -0.05 8 -2.3309 0.05 8 -2.21542 -0.05
8 -2.21542 0.05 8 -2.10397 -0.05 8 -2.10397 0.05 8
-1.99641 -0.05 8 -1.99641 0.05 8 -1.89261 -0.05 8 -1.89261
0.05 8 -1.79244 -0.05 8 -1.79244 0.05 8 -1.69576 -0.05
8 -1.69576 0.05 8 -1.60246 -0.05 8 -1.60246 0.05 8
-1.51241 -0.05 8 -1.51241 0.05 8 -1.42551 -0.05 8 -1.42551
0.05 8 -1.34165 -0.05 8 -1.34165 0.05 8 -1.26071 -0.05
8 -1.26071 0.05 8 -1.1826 -0.05 8 -1.1826 0.05 8
-1.10722 -0.05 8 -1.10722 0.05 8 -1.03447 -0.05 8 -1.03447
0.05 8 -0.964265 -0.05 8 -0.964265 0.05 8 -0.896508 -0.05
8 -0.896508 0.05 8 -0.831117 -0.05 8 -0.831117 0.05 8
-0.76801 -0.05 8 -0.76801 0.05 
POLYGONS 120 600
4 0 1 2 3 4 1 4 5 2 4
4 6 7 5 4 6 8 9 7 4
8 10 11 9 4 10 12 13 11 4
12 14 15 13 4 14 16 17 15 4
16 18 19 17 4 18 20 21 19 4
20 22 23 21 4 22 24 25 23 4
24 26 27 25 4 26 28 29 27 4
28 30 31 29 4 30 32 33 31 4
32 34 35 33 4 34 36 37 35 4
36 38 39 37 4 38 40 41 39 4
40 42 43 41 4 42 44 45 43 4
44 46 47 45 4 46 48 49 47 4
48 50 51 49 4 50 52 53 51 4
52 54 55 53 4 54 56 57 55 4
56 58 59 57 4 58 60 61 59 4
60 62 63 61 4 62 64 65 63 4
64 66 67 65 4 66 68 69 67 4
68 70 71 69 4 70 72 73 71 4
72 74 75 73 4 74 76 77 75 4
76 78 79 77 4 78 80 81 79 4
82 83 84 85 4 83 86 87 84 4
86 88 89 87 4 88 90 91 89 4
90 92 93 91 4 92 94 95 93 4
94 96 97 95 4 96 98 99 97 4
98 100 101 99 4 100 102 103 101 4
102 104 105 103 4 104 106 107 105 4
106 108 109 107 4 108 110 111 109 4
110 112 113 111 4 112 114 115 113 4
114 116 117 115 4 116 118 119 117 4
118 120 121 119 4 120 0 3 121 4
122 123 124 125 4 123 126 127 124 4
126 128 129 127 4 128 130 131 129 4
130 132 133 131 4 132 134 135 133 4
134 136 137 135 4 136 138 139 137 4
138 140 141 139 4 140 142 143 141 4
142 144 145 143 4 144 146 147 145 4
146 148 149 147 4 148 150 151 149 4
150 152 153 151 4 152 154 155 153 4
154 156 157 155 4 156 158 159 157 4
158 160 161 159 4 160 82 85 161 4
162 163 164 165 4 163 166 167 164 4
166 168 169 167 4 168 170 171 169 4
170 172 173 171 4 172 174 175 173 4
174 176 177 175 4 176 178 179 177 4
178 180 181 179 4 180 182 183 181 4
182 184 185 183 4 184 186 187 185 4
186 188 189 187 4 188 190 191 189 4
190 192 193 191 4 192 194 195 193 4
194 196 197 195 4 196 198 199 197 4
198 200 201 199 4 200 202 203 201 4
202 204 205 203 4 204 206 207 205 4
206 208 209 207 4 208 210 211 209 4
210 212 213 211 4 212 214 215 213 4
214 216 217 215 4 216 218 219 217 4
218 220 221 219 4 220 222 223 221 4
222 224 225 223 4 224 226 227 225 4
226 228 229 227 4 228 230 231 229 4
230 232 233 231 4 232 234 235 233 4
234 236 237 235 4 236 238 239 237 4
238 240 241 239 4 240 122 125 241 
CELL_DATA 120
FIELD attributes 2
patchID 1 120 float
1 1 1 1 1 1 1 1 1 1 1
1 1 1 1 1 1 1 1 1 1
1 1 1 1 1 1 1 1 1 1
1 1 1 1 1 1 1 1 1 1
1 1 1 1 1 1 1 1 1 1
1 1 1 1 1 1 1 1 1 1
1 1 1 1 1 1 1 1 1 1
1 1 1 1 1 1 1 1 1 1
1 1 1 1 1 1 1 1 1 1
1 1 1 1 1 1 1 1 1 1
1 1 1 1 1 1 1 1 1 1
1 1 1 1 1 1 1 1 1 
U 3 120 float
0.815277 -0.0495054 0 0.831338 -0.0522672 0 0.848196 -0.0548546 0 0.865716 -0.0572163
0 0.883734 -0.0593263 0 0.902064 -0.0611595 0 0.920498 -0.0626908 0
0.938812 -0.0638985 0 0.956769 -0.0647655 0 0.974132 -0.0652803 0 0.990665
-0.0654376 0 1.00615 -0.0652384 0 1.02037 -0.0646912 0 1.03318 -0.0638109
0 1.04444 -0.0626188 0 1.05406 -0.061142 0 1.06201 -0.0594117 0
1.06831 -0.0574619 0 1.07301 -0.0553276 0 1.07623 -0.0530431 0 1.0781
-0.0506409 0 1.07879 -0.0481501 0 1.07849 -0.0455958 0 1.07738 -0.0429989
0 1.07564 -0.0403759 0 1.07344 -0.0377397 0 1.07093 -0.0350997 0
1.06822 -0.0324628 0 1.06544 -0.0298342 0 1.06267 -0.0272171 0 1.05996
-0.0246138 0 1.05738 -0.0220252 0 1.05497 -0.0194509 0 1.05277 -0.016889
0 1.05079 -0.0143353 0 1.04907 -0.0117838 0 1.04764 -0.0092253 0
1.04652 -0.00664766 0 1.04574 -0.00403406 0 1.04533 -0.00135785 0 0.698177
-0.00141723 4.31335e-23 0.698842 -0.00424811 -1.58181e-22 0.700167 -0.00706818 2.03565e-22 0.702145 -0.00987031
-2.82113e-22 0.704764 -0.0126475 6.43669e-23 0.708007 -0.0153927 6.55037e-22 0.711855 -0.0180994 -7.10799e-22
0.716285 -0.020761 5.7063e-22 0.721271 -0.0233711 2.07961e-23 0.726783 -0.0259239 -6.55704e-22 0.732791
-0.0284137 2.1535e-22 0.73926 -0.030835 2.02853e-22 0.746155 -0.0331829 -3.31456e-22 0.753439 -0.0354529
3.1032e-23 0.761073 -0.0376407 2.19616e-22 0.769017 -0.0397426 1.84238e-23 0.777233 -0.0417551 -3.89567e-22
0.785681 -0.0436744 2.32074e-22 0.794321 -0.045498 2.53937e-23 0.803115 -0.0472328 -1.38006e-23 0.803115
0.0472328 -2.52298e-24 0.794321 0.045498 2.72268e-23 0.785681 0.0436744 2.38479e-22 0.777233 0.0417551
-3.8087e-22 0.769017 0.0397426 1.18162e-23 0.761072 0.0376407 2.27641e-22 0.753439 0.0354529 4.14683e-23
0.746155 0.0331829 -3.14081e-22 0.73926 0.030835 2.09053e-22 0.732791 0.0284137 2.25898e-22 0.726783
0.0259239 -6.56447e-22 0.721271 0.0233711 2.44056e-23 0.716285 0.020761 5.70386e-22 0.711855 0.0180994
-7.19469e-22 0.708007 0.0153928 6.5589e-22 0.704764 0.0126475 6.43662e-23 0.702145 0.00987033 -2.81003e-22
0.700167 0.0070682 2.0517e-22 0.698842 0.00424813 -1.55768e-22 0.698177 0.00141725 4.34715e-23 1.04533
0.00135785 0 1.04574 0.00403406 0 1.04652 0.00664766 0 1.04764 0.0092253
0 1.04907 0.0117838 0 1.05079 0.0143354 0 1.05277 0.016889 0
1.05497 0.0194509 0 1.05738 0.0220252 0 1.05996 0.0246138 0 1.06266
0.0272171 0 1.06544 0.0298342 0 1.06822 0.0324628 0 1.07093 0.0350997
0 1.07344 0.0377397 0 1.07564 0.0403759 0 1.07738 0.0429989 0
1.07849 0.0455958 0 1.07879 0.0481501 0 1.0781 0.0506409 0 1.07623
0.0530431 0 1.07301 0.0553276 0 1.06831 0.0574619 0 1.06201 0.0594117
0 1.05406 0.061142 0 1.04444 0.0626188 0 1.03318 0.0638108 0
1.02037 0.0646912 0 1.00614 0.0652384 0 0.990665 0.0654375 0 0.974132
0.0652803 0 0.956769 0.0647655 0 0.938811 0.0638984 0 0.920498 0.0626907
0 0.902064 0.0611594 0 0.883734 0.0593263 0 0.865716 0.0572162 0
0.848196 0.0548545 0 0.831337 0.0522672 0 0.815277 0.0495054 0 
POINT_DATA  242
FIELD attributes 1
U 3 242 float
0.808896 -0.048313 -7.24107e-24 0.823268 -0.0508795 0 0.823268 -0.0508795 0 0.808896 -0.048313
-7.24107e-24 0.839723 -0.0535542 0 0.839723 -0.0535542 0 0.856908 -0.056029 0
0.856908 -0.056029 0 0.874673 -0.0582653 0 0.874673 -0.0582653 0 0.892844
-0.0602374 0 0.892844 -0.0602374 0 0.911223 -0.0619203 0 0.911223 -0.0619203
0 0.929595 -0.0632907 0 0.929595 -0.0632907 0 0.947729 -0.064329 0
0.947729 -0.064329 0 0.965388 -0.0650211 0 0.965388 -0.0650211 0 0.982337
-0.0653584 0 0.982337 -0.0653584 0 0.998347 -0.0653388 0 0.998347 -0.0653388
0 1.0132 -0.064967 0 1.0132 -0.064967 0 1.02672 -0.0642548 0
1.02672 -0.0642548 0 1.03876 -0.0632201 0 1.03876 -0.0632201 0 1.04921
-0.0618871 0 1.04921 -0.0618871 0 1.058 -0.060285 0 1.058 -0.060285
0 1.06513 -0.0584462 0 1.06513 -0.0584462 0 1.07064 -0.0564054 0
1.07064 -0.0564054 0 1.0746 -0.0541971 0 1.0746 -0.0541971 0 1.07716
-0.0518548 0 1.07716 -0.0518548 0 1.07844 -0.0494091 0 1.07844 -0.0494091
0 1.07864 -0.0468873 0 1.07864 -0.0468873 0 1.07794 -0.0443123 0
1.07794 -0.0443123 0 1.07652 -0.0417029 0 1.07652 -0.0417029 0 1.07455
-0.0390737 0 1.07455 -0.0390737 0 1.0722 -0.036436 0 1.0722 -0.036436
0 1.06959 -0.0337979 0 1.06959 -0.0337979 0 1.06685 -0.0311654 0
1.06685 -0.0311654 0 1.06407 -0.0285428 0 1.06407 -0.0285428 0 1.06133
-0.0259328 0 1.06133 -0.0259328 0 1.05869 -0.0233371 0 1.05869 -0.0233371
0 1.05619 -0.0207558 0 1.05619 -0.0207558 0 1.05389 -0.0181879 0
1.05389 -0.0181879 0 1.05179 -0.0156303 0 1.05179 -0.0156303 0 1.04994
-0.013078 0 1.04994 -0.013078 0 1.04837 -0.0105232 0 1.04837 -0.0105232
0 1.04709 -0.00795555 0 1.04709 -0.00795555 0 1.04614 -0.00536042 0
1.04614 -0.00536042 0 1.04554 -0.0027162 0 1.04554 -0.0027162 0 1.04533
-0.00135785 0 1.04533 -0.00135785 0 0.698177 1e-08 4.33025e-23 0.69851 -0.00283267
-5.75237e-23 0.69851 -0.00283267 -5.75237e-23 0.698177 1e-08 4.33025e-23 0.699504 -0.00565815 2.2692e-23
0.699504 -0.00565815 2.2692e-23 0.701156 -0.00846925 -3.9274e-23 0.701156 -0.00846925 -3.9274e-23 0.703454
-0.0112589 -1.08873e-22 0.703454 -0.0112589 -1.08873e-22 0.706385 -0.0140201 3.59702e-22 0.706385 -0.0140201
3.59702e-22 0.709931 -0.016746 -2.7881e-23 0.709931 -0.016746 -2.7881e-23 0.71407 -0.0194302 -7.00845e-23
0.71407 -0.0194302 -7.00845e-23 0.718778 -0.022066 2.95713e-22 0.718778 -0.022066 2.95713e-22 0.724027
-0.0246475 -3.17454e-22 0.724027 -0.0246475 -3.17454e-22 0.729787 -0.0271688 -2.20177e-22 0.729787 -0.0271688
-2.20177e-22 0.736026 -0.0296244 2.09102e-22 0.736026 -0.0296244 2.09102e-22 0.742707 -0.0320089 -6.43015e-23
0.742707 -0.0320089 -6.43015e-23 0.749797 -0.0343179 -1.50212e-22 0.749797 -0.0343179 -1.50212e-22 0.757256
-0.0365468 1.25324e-22 0.757256 -0.0365468 1.25324e-22 0.765045 -0.0386917 1.1902e-22 0.765045 -0.0386917
1.1902e-22 0.773125 -0.0407488 -1.85572e-22 0.773125 -0.0407488 -1.85572e-22 0.781457 -0.0427147 -7.87465e-23
0.781457 -0.0427147 -7.87465e-23 0.790001 -0.0445862 1.28734e-22 0.790001 -0.0445862 1.28734e-22 0.798718
-0.0463654 5.79655e-24 0.798718 -0.0463654 5.79655e-24 0.808896 0.048313 -1.32379e-24 0.798718 0.0463654
1.23519e-23 0.798718 0.0463654 1.23519e-23 0.808896 0.048313 -1.32379e-24 0.790001 0.0445862 1.32853e-22
0.790001 0.0445862 1.32853e-22 0.781457 0.0427147 -7.11955e-23 0.781457 0.0427147 -7.11955e-23 0.773125
0.0407488 -1.84527e-22 0.773125 0.0407488 -1.84527e-22 0.765045 0.0386917 1.19729e-22 0.765045 0.0386917
1.19729e-22 0.757255 0.0365468 1.34555e-22 0.757255 0.0365468 1.34555e-22 0.749797 0.0343179 -1.36306e-22
0.749797 0.0343179 -1.36306e-22 0.742707 0.0320089 -5.2514e-23 0.742707 0.0320089 -5.2514e-23 0.736026
0.0296244 2.17475e-22 0.736026 0.0296244 2.17475e-22 0.729787 0.0271688 -2.15275e-22 0.729787 0.0271688
-2.15275e-22 0.724027 0.0246475 -3.16021e-22 0.724027 0.0246475 -3.16021e-22 0.718778 0.022066 2.97396e-22
0.718778 0.022066 2.97396e-22 0.71407 0.0194302 -7.45415e-23 0.71407 0.0194302 -7.45415e-23 0.709931
0.0167461 -3.17895e-23 0.709931 0.0167461 -3.17895e-23 0.706385 0.0140201 3.60128e-22 0.706385 0.0140201
3.60128e-22 0.703454 0.0112589 -1.08318e-22 0.703454 0.0112589 -1.08318e-22 0.701156 0.00846926 -3.79165e-23
0.701156 0.00846926 -3.79165e-23 0.699504 0.00565817 2.4701e-23 0.699504 0.00565817 2.4701e-23 0.69851
0.00283269 -5.61482e-23 0.69851 0.00283269 -5.61482e-23 1.04533 0.00135785 0 1.04554 0.0027162
0 1.04554 0.0027162 0 1.04533 0.00135785 0 1.04614 0.00536042 0
1.04614 0.00536042 0 1.04709 0.00795555 0 1.04709 0.00795555 0 1.04837
0.0105232 0 1.04837 0.0105232 0 1.04994 0.013078 0 1.04994 0.013078
0 1.05179 0.0156304 0 1.05179 0.0156304 0 1.05389 0.0181879 0
1.05389 0.0181879 0 1.05619 0.0207558 0 1.05619 0.0207558 0 1.05869
0.0233371 0 1.05869 0.0233371 0 1.06133 0.0259328 0 1.06133 0.0259328
0 1.06407 0.0285428 0 1.06407 0.0285428 0 1.06685 0.0311654 0
1.06685 0.0311654 0 1.06959 0.0337979 0 1.06959 0.0337979 0 1.0722
0.036436 0 1.0722 0.036436 0 1.07455 0.0390737 0 1.07455 0.0390737
0 1.07652 0.0417029 0 1.07652 0.0417029 0 1.07794 0.0443123 0
1.07794 0.0443123 0 1.07864 0.0468873 0 1.07864 0.0468873 0 1.07844
0.0494091 0 1.07844 0.0494091 0 1.07716 0.0518548 0 1.07716 0.0518548
0 1.0746 0.0541971 0 1.0746 0.0541971 0 1.07064 0.0564054 0
1.07064 0.0564054 0 1.06513 0.0584462 0 1.06513 0.0584462 0 1.058
0.060285 0 1.058 0.060285 0 1.04921 0.0618871 0 1.04921 0.0618871
0 1.03876 0.06322 0 1.03876 0.06322 0 1.02672 0.0642547 0
1.02672 0.0642547 0 1.0132 0.064967 0 1.0132 0.064967 0 0.998342
0.0653387 0 0.998342 0.0653387 0 0.982337 0.0653583 0 0.982337 0.0653583
0 0.965388 0.0650211 0 0.965388 0.0650211 0 0.947728 0.064329 0
0.947728 0.064329 0 0.929594 0.0632906 0 0.929594 0.0632906 0 0.911223
0.0619202 0 0.911223 0.0619202 0 0.892844 0.0602373 0 0.892844 0.0602373
0 0.874673 0.0582652 0 0.874673 0.0582652 0 0.856908 0.0560289 0
0.856908 0.0560289 0 0.839723 0.0535541 0 0.839723 0.0535541 0 0.823267
0.0508795 0 0.823267 0.0508795 0 
