# vtk DataFile Version 2.0
outlet
ASCII
DATASET POLYDATA
POINTS 242 float
8 0.707107 -0.05 8 0.76801 -0.05 8 0.76801 0.05 8 0.707107
0.05 8 0.831117 -0.05 8 0.831117 0.05 8 0.896508 -0.05
8 0.896508 0.05 8 0.964265 -0.05 8 0.964265 0.05 8
1.03447 -0.05 8 1.03447 0.05 8 1.10722 -0.05 8 1.10722
0.05 8 1.1826 -0.05 8 1.1826 0.05 8 1.26071 -0.05
8 1.26071 0.05 8 1.34165 -0.05 8 1.34165 0.05 8
1.42551 -0.05 8 1.42551 0.05 8 1.51241 -0.05 8 1.51241
0.05 8 1.60246 -0.05 8 1.60246 0.05 8 1.69576 -0.05
8 1.69576 0.05 8 1.79244 -0.05 8 1.79244 0.05 8
1.89261 -0.05 8 1.89261 0.05 8 1.99641 -0.05 8 1.99641
0.05 8 2.10397 -0.05 8 2.10397 0.05 8 2.21542 -0.05
8 2.21542 0.05 8 2.3309 -0.05 8 2.3309 0.05 8
2.45056 -0.05 8 2.45056 0.05 8 2.57455 -0.05 8 2.57455
0.05 8 2.70303 -0.05 8 2.70303 0.05 8 2.83616 -0.05
8 2.83616 0.05 8 2.9741 -0.05 8 2.9741 0.05 8
3.11704 -0.05 8 3.11704 0.05 8 3.26514 -0.05 8 3.26514
0.05 8 3.41861 -0.05 8 3.41861 0.05 8 3.57763 -0.05
8 3.57763 0.05 8 3.7424 -0.05 8 3.7424 0.05 8
3.91314 -0.05 8 3.91314 0.05 8 4.09005 -0.05 8 4.09005
0.05 8 4.27337 -0.05 8 4.27337 0.05 8 4.46332 -0.05
8 4.46332 0.05 8 4.66014 -0.05 8 4.66014 0.05 8
4.86409 -0.05 8 4.86409 0.05 8 5.07541 -0.05 8 5.07541
0.05 8 5.29439 -0.05 8 5.29439 0.05 8 5.52128 -0.05
8 5.52128 0.05 8 5.75639 -0.05 8 5.75639 0.05 8
6 -0.05 8 6 0.05 8 0 -0.05 8 0.0353553
-0.05 8 0.0353553 0.05 8 0 0.05 8 0.0707107 -0.05
8 0.0707107 0.05 8 0.106066 -0.05 8 0.106066 0.05 8
0.141421 -0.05 8 0.141421 0.05 8 0.176777 -0.05 8 0.176777
0.05 8 0.212132 -0.05 8 0.212132 0.05 8 0.247487 -0.05
8 0.247487 0.05 8 0.282843 -0.05 8 0.282843 0.05 8
0.318198 -0.05 8 0.318198 0.05 8 0.353553 -0.05 8 0.353553
0.05 8 0.388909 -0.05 8 0.388909 0.05 8 0.424264 -0.05
8 0.424264 0.05 8 0.459619 -0.05 8 0.459619 0.05 8
0.494975 -0.05 8 0.494975 0.05 8 0.53033 -0.05 8 0.53033
0.05 8 0.565685 -0.05 8 0.565685 0.05 8 0.601041 -0.05
8 0.601041 0.05 8 0.636396 -0.05 8 0.636396 0.05 8
0.671751 -0.05 8 0.671751 0.05 8 -0.707107 -0.05 8 -0.671751
-0.05 8 -0.671751 0.05 8 -0.707107 0.05 8 -0.636396 -0.05
8 -0.636396 0.05 8 -0.601041 -0.05 8 -0.601041 0.05 8
-0.565685 -0.05 8 -0.565685 0.05 8 -0.53033 -0.05 8 -0.53033
0.05 8 -0.494975 -0.05 8 -0.494975 0.05 8 -0.459619 -0.05
8 -0.459619 0.05 8 -0.424264 -0.05 8 -0.424264 0.05 8
-0.388909 -0.05 8 -0.388909 0.05 8 -0.353553 -0.05 8 -0.353553
0.05 8 -0.318198 -0.05 8 -0.318198 0.05 8 -0.282843 -0.05
8 -0.282843 0.05 8 -0.247487 -0.05 8 -0.247487 0.05 8
-0.212132 -0.05 8 -0.212132 0.05 8 -0.176777 -0.05 8 -0.176777
0.05 8 -0.141421 -0.05 8 -0.141421 0.05 8 -0.106066 -0.05
8 -0.106066 0.05 8 -0.0707107 -0.05 8 -0.0707107 0.05 8
-0.0353553 -0.05 8 -0.0353553 0.05 8 -6 -0.05 8 -5.75639
-0.05 8 -5.75639 0.05 8 -6 0.05 8 -5.52128 -0.05
8 -5.52128 0.05 8 -5.29439 -0.05 8 -5.29439 0.05 8
-5.07541 -0.05 8 -5.07541 0.05 8 -4.86409 -0.05 8 -4.86409
0.05 8 -4.66014 -0.05 8 -4.66014 0.05 8 -4.46332 -0.05
8 -4.46332 0.05 8 -4.27337 -0.05 8 -4.27337 0.05 8
-4.09005 -0.05 8 -4.09005 0.05 8 -3.91314 -0.05 8 -3.91314
0.05 8 -3.7424 -0.05 8 -3.7424 0.05 8 -3.57763 -0.05
8 -3.57763 0.05 8 -3.41861 -0.05 8 -3.41861 0.05 8
-3.26514 -0.05 8 -3.26514 0.05 8 -3.11704 -0.05 8 -3.11704
0.05 8 -2.9741 -0.05 8 -2.9741 0.05 8 -2.83616 -0.05
8 -2.83616 0.05 8 -2.70303 -0.05 8 -2.70303 0.05 8
-2.57455 -0.05 8 -2.57455 0.05 8 -2.45056 -0.05 8 -2.45056
0.05 8 -2.3309 -0.05 8 -2.3309 0.05 8 -2.21542 -0.05
8 -2.21542 0.05 8 -2.10397 -0.05 8 -2.10397 0.05 8
-1.99641 -0.05 8 -1.99641 0.05 8 -1.89261 -0.05 8 -1.89261
0.05 8 -1.79244 -0.05 8 -1.79244 0.05 8 -1.69576 -0.05
8 -1.69576 0.05 8 -1.60246 -0.05 8 -1.60246 0.05 8
-1.51241 -0.05 8 -1.51241 0.05 8 -1.42551 -0.05 8 -1.42551
0.05 8 -1.34165 -0.05 8 -1.34165 0.05 8 -1.26071 -0.05
8 -1.26071 0.05 8 -1.1826 -0.05 8 -1.1826 0.05 8
-1.10722 -0.05 8 -1.10722 0.05 8 -1.03447 -0.05 8 -1.03447
0.05 8 -0.964265 -0.05 8 -0.964265 0.05 8 -0.896508 -0.05
8 -0.896508 0.05 8 -0.831117 -0.05 8 -0.831117 0.05 8
-0.76801 -0.05 8 -0.76801 0.05 
POLYGONS 120 600
4 0 1 2 3 4 1 4 5 2 4
4 6 7 5 4 6 8 9 7 4
8 10 11 9 4 10 12 13 11 4
12 14 15 13 4 14 16 17 15 4
16 18 19 17 4 18 20 21 19 4
20 22 23 21 4 22 24 25 23 4
24 26 27 25 4 26 28 29 27 4
28 30 31 29 4 30 32 33 31 4
32 34 35 33 4 34 36 37 35 4
36 38 39 37 4 38 40 41 39 4
40 42 43 41 4 42 44 45 43 4
44 46 47 45 4 46 48 49 47 4
48 50 51 49 4 50 52 53 51 4
52 54 55 53 4 54 56 57 55 4
56 58 59 57 4 58 60 61 59 4
60 62 63 61 4 62 64 65 63 4
64 66 67 65 4 66 68 69 67 4
68 70 71 69 4 70 72 73 71 4
72 74 75 73 4 74 76 77 75 4
76 78 79 77 4 78 80 81 79 4
82 83 84 85 4 83 86 87 84 4
86 88 89 87 4 88 90 91 89 4
90 92 93 91 4 92 94 95 93 4
94 96 97 95 4 96 98 99 97 4
98 100 101 99 4 100 102 103 101 4
102 104 105 103 4 104 106 107 105 4
106 108 109 107 4 108 110 111 109 4
110 112 113 111 4 112 114 115 113 4
114 116 117 115 4 116 118 119 117 4
118 120 121 119 4 120 0 3 121 4
122 123 124 125 4 123 126 127 124 4
126 128 129 127 4 128 130 131 129 4
130 132 133 131 4 132 134 135 133 4
134 136 137 135 4 136 138 139 137 4
138 140 141 139 4 140 142 143 141 4
142 144 145 143 4 144 146 147 145 4
146 148 149 147 4 148 150 151 149 4
150 152 153 151 4 152 154 155 153 4
154 156 157 155 4 156 158 159 157 4
158 160 161 159 4 160 82 85 161 4
162 163 164 165 4 163 166 167 164 4
166 168 169 167 4 168 170 171 169 4
170 172 173 171 4 172 174 175 173 4
174 176 177 175 4 176 178 179 177 4
178 180 181 179 4 180 182 183 181 4
182 184 185 183 4 184 186 187 185 4
186 188 189 187 4 188 190 191 189 4
190 192 193 191 4 192 194 195 193 4
194 196 197 195 4 196 198 199 197 4
198 200 201 199 4 200 202 203 201 4
202 204 205 203 4 204 206 207 205 4
206 208 209 207 4 208 210 211 209 4
210 212 213 211 4 212 214 215 213 4
214 216 217 215 4 216 218 219 217 4
218 220 221 219 4 220 222 223 221 4
222 224 225 223 4 224 226 227 225 4
226 228 229 227 4 228 230 231 229 4
230 232 233 231 4 232 234 235 233 4
234 236 237 235 4 236 238 239 237 4
238 240 241 239 4 240 122 125 241 
CELL_DATA 120
FIELD attributes 2
patchID 1 120 float
1 1 1 1 1 1 1 1 1 1 1
1 1 1 1 1 1 1 1 1 1
1 1 1 1 1 1 1 1 1 1
1 1 1 1 1 1 1 1 1 1
1 1 1 1 1 1 1 1 1 1
1 1 1 1 1 1 1 1 1 1
1 1 1 1 1 1 1 1 1 1
1 1 1 1 1 1 1 1 1 1
1 1 1 1 1 1 1 1 1 1
1 1 1 1 1 1 1 1 1 1
1 1 1 1 1 1 1 1 1 1
1 1 1 1 1 1 1 1 1 
U 3 120 float
0.992912 -0.0032336 0 0.993034 -0.00348179 0 0.993165 -0.00373453 0 0.993308 -0.00399012
0 0.993463 -0.00424787 0 0.993632 -0.00450704 0 0.993818 -0.00476664 0
0.99402 -0.00502547 0 0.99424 -0.00528218 0 0.99448 -0.00553524 0 0.994741
-0.00578294 0 0.995023 -0.00602341 0 0.995328 -0.0062546 0 0.995654 -0.00647432
0 0.996004 -0.00668022 0 0.996376 -0.00686985 0 0.99677 -0.00704061 0
0.997186 -0.00718984 0 0.997624 -0.00731478 0 0.998081 -0.00741263 0 0.998558
-0.00748057 0 0.999053 -0.00751579 0 0.999564 -0.00751551 0 1.00009 -0.00747703
0 1.00062 -0.00739779 0 1.00117 -0.00727538 0 1.00171 -0.0071076 0
1.00226 -0.00689249 0 1.00281 -0.00662839 0 1.00335 -0.00631397 0 1.00387
-0.00594824 0 1.00438 -0.00553064 0 1.00486 -0.005061 0 1.0053 -0.00453963
0 1.00571 -0.00396732 0 1.00608 -0.00334539 0 1.00638 -0.00267574 0
1.00663 -0.00196097 0 1.0068 -0.0012042 0 1.00689 -0.000407886 0 0.99207
-8.20158e-05 3.35318e-24 0.992074 -0.000245986 -1.253e-23 0.992083 -0.000409754 1.5872e-23 0.992096 -0.000573186
-2.22953e-23 0.992114 -0.00073615 5.02554e-24 0.992136 -0.000898513 5.25232e-23 0.992163 -0.00106015 -5.62984e-23
0.992193 -0.00122092 4.61983e-23 0.992228 -0.00138071 1.06852e-24 0.992266 -0.00153938 -5.39544e-23 0.992308
-0.00169683 1.70458e-23 0.992354 -0.00185294 1.67736e-23 0.992403 -0.00200758 -2.98872e-23 0.992456 -0.00216065
1.60707e-24 0.992511 -0.00231205 1.87845e-23 0.992569 -0.00246167 2.56391e-24 0.992629 -0.00260942 -3.71641e-23
0.992692 -0.00275515 2.093e-23 0.992756 -0.00289878 2.21501e-24 0.992821 -0.00304072 -3.01467e-24 0.992821
0.00304073 1.40661e-24 0.992756 0.00289878 2.87573e-24 0.992692 0.00275516 2.30629e-23 0.992629 0.00260943
-3.44636e-23 0.992569 0.00246168 6.35661e-25 0.992511 0.00231205 2.09997e-23 0.992456 0.00216065 4.3478e-24
0.992403 0.00200758 -2.55238e-23 0.992354 0.00185294 1.82694e-23 0.992308 0.00169684 1.95011e-23 0.992266
0.00153939 -5.41219e-23 0.992228 0.00138071 1.85994e-24 0.992193 0.00122092 4.6146e-23 0.992163 0.00106015
-5.81147e-23 0.992136 0.000898519 5.26985e-23 0.992114 0.000736155 5.0254e-24 0.992096 0.000573191 -2.20727e-23
0.992083 0.000409759 1.61907e-23 0.992074 0.000245991 -1.20535e-23 0.99207 8.20212e-05 3.41973e-24 1.00689
0.000407887 0 1.0068 0.0012042 0 1.00663 0.00196097 0 1.00638 0.00267574
0 1.00608 0.00334539 0 1.00571 0.00396733 0 1.0053 0.00453964 0
1.00486 0.005061 0 1.00438 0.00553064 0 1.00387 0.00594824 0 1.00335
0.00631397 0 1.00281 0.00662839 0 1.00226 0.00689249 0 1.00171 0.0071076
0 1.00117 0.00727539 0 1.00062 0.0073978 0 1.00009 0.00747704 0
0.999564 0.00751551 0 0.999053 0.00751579 0 0.998558 0.00748058 0 0.998081
0.00741263 0 0.997624 0.00731478 0 0.997186 0.00718984 0 0.99677 0.00704062
0 0.996376 0.00686985 0 0.996004 0.00668023 0 0.995654 0.00647432 0
0.995328 0.0062546 0 0.995023 0.00602341 0 0.994741 0.00578294 0 0.99448
0.00553524 0 0.99424 0.00528218 0 0.99402 0.00502547 0 0.993818 0.00476664
0 0.993632 0.00450705 0 0.993463 0.00424788 0 0.993308 0.00399012 0
0.993165 0.00373453 0 0.993034 0.0034818 0 0.992912 0.0032336 0 
POINT_DATA  242
FIELD attributes 1
U 3 242 float
0.992864 -0.0031324 -1.58177e-24 0.992973 -0.00335708 0 0.992973 -0.00335708 0 0.992864 -0.0031324
-1.58177e-24 0.993099 -0.0036075 0 0.993099 -0.0036075 0 0.993236 -0.00386163 0
0.993236 -0.00386163 0 0.993385 -0.00411826 0 0.993385 -0.00411826 0 0.993547
-0.00437668 0 0.993547 -0.00437668 0 0.993724 -0.00463602 0 0.993724 -0.00463602
0 0.993918 -0.0048952 0 0.993918 -0.0048952 0 0.994129 -0.00515294 0
0.994129 -0.00515294 0 0.994359 -0.0054078 0 0.994359 -0.0054078 0 0.99461
-0.00565816 0 0.99461 -0.00565816 0 0.994881 -0.00590224 0 0.994881 -0.00590224
0 0.995174 -0.00613807 0 0.995174 -0.00613807 0 0.99549 -0.00636353 0
0.99549 -0.00636353 0 0.995827 -0.00657637 0 0.995827 -0.00657637 0 0.996188
-0.00677418 0 0.996188 -0.00677418 0 0.996571 -0.00695443 0 0.996571 -0.00695443
0 0.996976 -0.0071145 0 0.996976 -0.0071145 0 0.997403 -0.00725169 0
0.997403 -0.00725169 0 0.99785 -0.0073632 0 0.99785 -0.0073632 0 0.998317
-0.00744624 0 0.998317 -0.00744624 0 0.998803 -0.00749799 0 0.998803 -0.00749799
0 0.999306 -0.00751565 0 0.999306 -0.00751565 0 0.999824 -0.00749649 0
0.999824 -0.00749649 0 1.00035 -0.00743788 0 1.00035 -0.00743788 0 1.00089
-0.00733732 0 1.00089 -0.00733732 0 1.00144 -0.00719253 0 1.00144 -0.00719253
0 1.00198 -0.0070014 0 1.00198 -0.0070014 0 1.00253 -0.00676214 0
1.00253 -0.00676214 0 1.00308 -0.00647324 0 1.00308 -0.00647324 0 1.00361
-0.00613355 0 1.00361 -0.00613355 0 1.00412 -0.00574228 0 1.00412 -0.00574228
0 1.00462 -0.00529906 0 1.00462 -0.00529906 0 1.00508 -0.00480397 0
1.00508 -0.00480397 0 1.0055 -0.00425755 0 1.0055 -0.00425755 0 1.00589
-0.00366084 0 1.00589 -0.00366084 0 1.00623 -0.00301546 0 1.00623 -0.00301546
0 1.0065 -0.00232364 0 1.0065 -0.00232364 0 1.00671 -0.00158825 0
1.00671 -0.00158825 0 1.00684 -0.000812067 0 1.00684 -0.000812067 0 1.00689
-0.000407886 0 1.00689 -0.000407886 0 0.99207 2.7e-09 3.38645e-24 0.992072 -0.000164001
-4.58841e-24 0.992072 -0.000164001 -4.58841e-24 0.99207 2.7e-09 3.38645e-24 0.992078 -0.00032787 1.671e-24
0.992078 -0.00032787 1.671e-24 0.99209 -0.00049147 -3.21165e-24 0.99209 -0.00049147 -3.21165e-24 0.992105
-0.000654668 -8.63488e-24 0.992105 -0.000654668 -8.63488e-24 0.992125 -0.000817331 2.87744e-23 0.992125 -0.000817331
2.87744e-23 0.992149 -0.000979332 -1.8876e-24 0.992149 -0.000979332 -1.8876e-24 0.992178 -0.00114053 -5.05005e-24
0.992178 -0.00114053 -5.05005e-24 0.992211 -0.00130082 2.36334e-23 0.992211 -0.00130082 2.36334e-23 0.992247
-0.00146004 -2.64429e-23 0.992247 -0.00146004 -2.64429e-23 0.992287 -0.0016181 -1.84543e-23 0.992287 -0.0016181
-1.84543e-23 0.992331 -0.00177488 1.69097e-23 0.992331 -0.00177488 1.69097e-23 0.992378 -0.00193026 -6.5568e-24
0.992378 -0.00193026 -6.5568e-24 0.992429 -0.00208412 -1.41401e-23 0.992429 -0.00208412 -1.41401e-23 0.992483
-0.00223635 1.01958e-23 0.992483 -0.00223635 1.01958e-23 0.99254 -0.00238686 1.06742e-23 0.99254 -0.00238686
1.06742e-23 0.992599 -0.00253555 -1.73001e-23 0.992599 -0.00253555 -1.73001e-23 0.992661 -0.00268228 -8.11705e-24
0.992661 -0.00268228 -8.11705e-24 0.992724 -0.00282696 1.15725e-23 0.992724 -0.00282696 1.15725e-23 0.992788
-0.00296975 -3.9983e-25 0.992788 -0.00296975 -3.9983e-25 0.992864 0.0031324 7.38038e-25 0.992788 0.00296976
2.14117e-24 0.992788 0.00296976 2.14117e-24 0.992864 0.0031324 7.38038e-25 0.992724 0.00282697 1.29693e-23
0.992724 0.00282697 1.29693e-23 0.992661 0.00268229 -5.70035e-24 0.992661 0.00268229 -5.70035e-24 0.992599
0.00253556 -1.6914e-23 0.992599 0.00253556 -1.6914e-23 0.99254 0.00238686 1.08177e-23 0.99254 0.00238686
1.08177e-23 0.992483 0.00223635 1.26738e-23 0.992483 0.00223635 1.26738e-23 0.992429 0.00208412 -1.0588e-23
0.992429 0.00208412 -1.0588e-23 0.992378 0.00193026 -3.6272e-24 0.992378 0.00193026 -3.6272e-24 0.992331
0.00177489 1.88852e-23 0.992331 0.00177489 1.88852e-23 0.992287 0.00161811 -1.73104e-23 0.992287 0.00161811
-1.73104e-23 0.992247 0.00146005 -2.6131e-23 0.992247 0.00146005 -2.6131e-23 0.992211 0.00130082 2.4003e-23
0.992211 0.00130082 2.4003e-23 0.992178 0.00114053 -5.98435e-24 0.992178 0.00114053 -5.98435e-24 0.992149
0.000979334 -2.7081e-24 0.992149 0.000979334 -2.7081e-24 0.992125 0.000817337 2.88619e-23 0.992125 0.000817337
2.88619e-23 0.992105 0.000654673 -8.52365e-24 0.992105 0.000654673 -8.52365e-24 0.99209 0.000491475 -2.941e-24
0.99209 0.000491475 -2.941e-24 0.992078 0.000327875 2.0686e-24 0.992078 0.000327875 2.0686e-24 0.992072
0.000164006 -4.31689e-24 0.992072 0.000164006 -4.31689e-24 1.00689 0.000407887 0 1.00684 0.000812067
0 1.00684 0.000812067 0 1.00689 0.000407887 0 1.00671 0.00158825 0
1.00671 0.00158825 0 1.0065 0.00232364 0 1.0065 0.00232364 0 1.00623
0.00301546 0 1.00623 0.00301546 0 1.00589 0.00366085 0 1.00589 0.00366085
0 1.0055 0.00425756 0 1.0055 0.00425756 0 1.00508 0.00480398 0
1.00508 0.00480398 0 1.00462 0.00529906 0 1.00462 0.00529906 0 1.00412
0.00574228 0 1.00412 0.00574228 0 1.00361 0.00613355 0 1.00361 0.00613355
0 1.00308 0.00647324 0 1.00308 0.00647324 0 1.00253 0.00676214 0
1.00253 0.00676214 0 1.00198 0.0070014 0 1.00198 0.0070014 0 1.00144
0.00719253 0 1.00144 0.00719253 0 1.00089 0.00733733 0 1.00089 0.00733733
0 1.00035 0.00743789 0 1.00035 0.00743789 0 0.999824 0.0074965 0
0.999824 0.0074965 0 0.999306 0.00751565 0 0.999306 0.00751565 0 0.998803
0.00749799 0 0.998803 0.00749799 0 0.998317 0.00744624 0 0.998317 0.00744624
0 0.99785 0.0073632 0 0.99785 0.0073632 0 0.997403 0.00725169 0
0.997403 0.00725169 0 0.996976 0.00711451 0 0.996976 0.00711451 0 0.996571
0.00695443 0 0.996571 0.00695443 0 0.996188 0.00677418 0 0.996188 0.00677418
0 0.995827 0.00657637 0 0.995827 0.00657637 0 0.99549 0.00636353 0
0.99549 0.00636353 0 0.995174 0.00613807 0 0.995174 0.00613807 0 0.994881
0.00590224 0 0.994881 0.00590224 0 0.99461 0.00565816 0 0.99461 0.00565816
0 0.994359 0.0054078 0 0.994359 0.0054078 0 0.994129 0.00515294 0
0.994129 0.00515294 0 0.993918 0.0048952 0 0.993918 0.0048952 0 0.993724
0.00463603 0 0.993724 0.00463603 0 0.993547 0.00437669 0 0.993547 0.00437669
0 0.993385 0.00411826 0 0.993385 0.00411826 0 0.993236 0.00386163 0
0.993236 0.00386163 0 0.993099 0.00360751 0 0.993099 0.00360751 0 0.992973
0.00335709 0 0.992973 0.00335709 0 
