# vtk DataFile Version 2.0
outlet
ASCII
DATASET POLYDATA
POINTS 242 float
8 0.707107 -0.05 8 0.76801 -0.05 8 0.76801 0.05 8 0.707107
0.05 8 0.831117 -0.05 8 0.831117 0.05 8 0.896508 -0.05
8 0.896508 0.05 8 0.964265 -0.05 8 0.964265 0.05 8
1.03447 -0.05 8 1.03447 0.05 8 1.10722 -0.05 8 1.10722
0.05 8 1.1826 -0.05 8 1.1826 0.05 8 1.26071 -0.05
8 1.26071 0.05 8 1.34165 -0.05 8 1.34165 0.05 8
1.42551 -0.05 8 1.42551 0.05 8 1.51241 -0.05 8 1.51241
0.05 8 1.60246 -0.05 8 1.60246 0.05 8 1.69576 -0.05
8 1.69576 0.05 8 1.79244 -0.05 8 1.79244 0.05 8
1.89261 -0.05 8 1.89261 0.05 8 1.99641 -0.05 8 1.99641
0.05 8 2.10397 -0.05 8 2.10397 0.05 8 2.21542 -0.05
8 2.21542 0.05 8 2.3309 -0.05 8 2.3309 0.05 8
2.45056 -0.05 8 2.45056 0.05 8 2.57455 -0.05 8 2.57455
0.05 8 2.70303 -0.05 8 2.70303 0.05 8 2.83616 -0.05
8 2.83616 0.05 8 2.9741 -0.05 8 2.9741 0.05 8
3.11704 -0.05 8 3.11704 0.05 8 3.26514 -0.05 8 3.26514
0.05 8 3.41861 -0.05 8 3.41861 0.05 8 3.57763 -0.05
8 3.57763 0.05 8 3.7424 -0.05 8 3.7424 0.05 8
3.91314 -0.05 8 3.91314 0.05 8 4.09005 -0.05 8 4.09005
0.05 8 4.27337 -0.05 8 4.27337 0.05 8 4.46332 -0.05
8 4.46332 0.05 8 4.66014 -0.05 8 4.66014 0.05 8
4.86409 -0.05 8 4.86409 0.05 8 5.07541 -0.05 8 5.07541
0.05 8 5.29439 -0.05 8 5.29439 0.05 8 5.52128 -0.05
8 5.52128 0.05 8 5.75639 -0.05 8 5.75639 0.05 8
6 -0.05 8 6 0.05 8 0 -0.05 8 0.0353553
-0.05 8 0.0353553 0.05 8 0 0.05 8 0.0707107 -0.05
8 0.0707107 0.05 8 0.106066 -0.05 8 0.106066 0.05 8
0.141421 -0.05 8 0.141421 0.05 8 0.176777 -0.05 8 0.176777
0.05 8 0.212132 -0.05 8 0.212132 0.05 8 0.247487 -0.05
8 0.247487 0.05 8 0.282843 -0.05 8 0.282843 0.05 8
0.318198 -0.05 8 0.318198 0.05 8 0.353553 -0.05 8 0.353553
0.05 8 0.388909 -0.05 8 0.388909 0.05 8 0.424264 -0.05
8 0.424264 0.05 8 0.459619 -0.05 8 0.459619 0.05 8
0.494975 -0.05 8 0.494975 0.05 8 0.53033 -0.05 8 0.53033
0.05 8 0.565685 -0.05 8 0.565685 0.05 8 0.601041 -0.05
8 0.601041 0.05 8 0.636396 -0.05 8 0.636396 0.05 8
0.671751 -0.05 8 0.671751 0.05 8 -0.707107 -0.05 8 -0.671751
-0.05 8 -0.671751 0.05 8 -0.707107 0.05 8 -0.636396 -0.05
8 -0.636396 0.05 8 -0.601041 -0.05 8 -0.601041 0.05 8
-0.565685 -0.05 8 -0.565685 0.05 8 -0.53033 -0.05 8 -0.53033
0.05 8 -0.494975 -0.05 8 -0.494975 0.05 8 -0.459619 -0.05
8 -0.459619 0.05 8 -0.424264 -0.05 8 -0.424264 0.05 8
-0.388909 -0.05 8 -0.388909 0.05 8 -0.353553 -0.05 8 -0.353553
0.05 8 -0.318198 -0.05 8 -0.318198 0.05 8 -0.282843 -0.05
8 -0.282843 0.05 8 -0.247487 -0.05 8 -0.247487 0.05 8
-0.212132 -0.05 8 -0.212132 0.05 8 -0.176777 -0.05 8 -0.176777
0.05 8 -0.141421 -0.05 8 -0.141421 0.05 8 -0.106066 -0.05
8 -0.106066 0.05 8 -0.0707107 -0.05 8 -0.0707107 0.05 8
-0.0353553 -0.05 8 -0.0353553 0.05 8 -6 -0.05 8 -5.75639
-0.05 8 -5.75639 0.05 8 -6 0.05 8 -5.52128 -0.05
8 -5.52128 0.05 8 -5.29439 -0.05 8 -5.29439 0.05 8
-5.07541 -0.05 8 -5.07541 0.05 8 -4.86409 -0.05 8 -4.86409
0.05 8 -4.66014 -0.05 8 -4.66014 0.05 8 -4.46332 -0.05
8 -4.46332 0.05 8 -4.27337 -0.05 8 -4.27337 0.05 8
-4.09005 -0.05 8 -4.09005 0.05 8 -3.91314 -0.05 8 -3.91314
0.05 8 -3.7424 -0.05 8 -3.7424 0.05 8 -3.57763 -0.05
8 -3.57763 0.05 8 -3.41861 -0.05 8 -3.41861 0.05 8
-3.26514 -0.05 8 -3.26514 0.05 8 -3.11704 -0.05 8 -3.11704
0.05 8 -2.9741 -0.05 8 -2.9741 0.05 8 -2.83616 -0.05
8 -2.83616 0.05 8 -2.70303 -0.05 8 -2.70303 0.05 8
-2.57455 -0.05 8 -2.57455 0.05 8 -2.45056 -0.05 8 -2.45056
0.05 8 -2.3309 -0.05 8 -2.3309 0.05 8 -2.21542 -0.05
8 -2.21542 0.05 8 -2.10397 -0.05 8 -2.10397 0.05 8
-1.99641 -0.05 8 -1.99641 0.05 8 -1.89261 -0.05 8 -1.89261
0.05 8 -1.79244 -0.05 8 -1.79244 0.05 8 -1.69576 -0.05
8 -1.69576 0.05 8 -1.60246 -0.05 8 -1.60246 0.05 8
-1.51241 -0.05 8 -1.51241 0.05 8 -1.42551 -0.05 8 -1.42551
0.05 8 -1.34165 -0.05 8 -1.34165 0.05 8 -1.26071 -0.05
8 -1.26071 0.05 8 -1.1826 -0.05 8 -1.1826 0.05 8
-1.10722 -0.05 8 -1.10722 0.05 8 -1.03447 -0.05 8 -1.03447
0.05 8 -0.964265 -0.05 8 -0.964265 0.05 8 -0.896508 -0.05
8 -0.896508 0.05 8 -0.831117 -0.05 8 -0.831117 0.05 8
-0.76801 -0.05 8 -0.76801 0.05 
POLYGONS 120 600
4 0 1 2 3 4 1 4 5 2 4
4 6 7 5 4 6 8 9 7 4
8 10 11 9 4 10 12 13 11 4
12 14 15 13 4 14 16 17 15 4
16 18 19 17 4 18 20 21 19 4
20 22 23 21 4 22 24 25 23 4
24 26 27 25 4 26 28 29 27 4
28 30 31 29 4 30 32 33 31 4
32 34 35 33 4 34 36 37 35 4
36 38 39 37 4 38 40 41 39 4
40 42 43 41 4 42 44 45 43 4
44 46 47 45 4 46 48 49 47 4
48 50 51 49 4 50 52 53 51 4
52 54 55 53 4 54 56 57 55 4
56 58 59 57 4 58 60 61 59 4
60 62 63 61 4 62 64 65 63 4
64 66 67 65 4 66 68 69 67 4
68 70 71 69 4 70 72 73 71 4
72 74 75 73 4 74 76 77 75 4
76 78 79 77 4 78 80 81 79 4
82 83 84 85 4 83 86 87 84 4
86 88 89 87 4 88 90 91 89 4
90 92 93 91 4 92 94 95 93 4
94 96 97 95 4 96 98 99 97 4
98 100 101 99 4 100 102 103 101 4
102 104 105 103 4 104 106 107 105 4
106 108 109 107 4 108 110 111 109 4
110 112 113 111 4 112 114 115 113 4
114 116 117 115 4 116 118 119 117 4
118 120 121 119 4 120 0 3 121 4
122 123 124 125 4 123 126 127 124 4
126 128 129 127 4 128 130 131 129 4
130 132 133 131 4 132 134 135 133 4
134 136 137 135 4 136 138 139 137 4
138 140 141 139 4 140 142 143 141 4
142 144 145 143 4 144 146 147 145 4
146 148 149 147 4 148 150 151 149 4
150 152 153 151 4 152 154 155 153 4
154 156 157 155 4 156 158 159 157 4
158 160 161 159 4 160 82 85 161 4
162 163 164 165 4 163 166 167 164 4
166 168 169 167 4 168 170 171 169 4
170 172 173 171 4 172 174 175 173 4
174 176 177 175 4 176 178 179 177 4
178 180 181 179 4 180 182 183 181 4
182 184 185 183 4 184 186 187 185 4
186 188 189 187 4 188 190 191 189 4
190 192 193 191 4 192 194 195 193 4
194 196 197 195 4 196 198 199 197 4
198 200 201 199 4 200 202 203 201 4
202 204 205 203 4 204 206 207 205 4
206 208 209 207 4 208 210 211 209 4
210 212 213 211 4 212 214 215 213 4
214 216 217 215 4 216 218 219 217 4
218 220 221 219 4 220 222 223 221 4
222 224 225 223 4 224 226 227 225 4
226 228 229 227 4 228 230 231 229 4
230 232 233 231 4 232 234 235 233 4
234 236 237 235 4 236 238 239 237 4
238 240 241 239 4 240 122 125 241 
CELL_DATA 120
FIELD attributes 2
patchID 1 120 float
1 1 1 1 1 1 1 1 1 1 1
1 1 1 1 1 1 1 1 1 1
1 1 1 1 1 1 1 1 1 1
1 1 1 1 1 1 1 1 1 1
1 1 1 1 1 1 1 1 1 1
1 1 1 1 1 1 1 1 1 1
1 1 1 1 1 1 1 1 1 1
1 1 1 1 1 1 1 1 1 1
1 1 1 1 1 1 1 1 1 1
1 1 1 1 1 1 1 1 1 1
1 1 1 1 1 1 1 1 1 1
1 1 1 1 1 1 1 1 1 
U 3 120 float
0.903184 -0.0541927 0 0.910884 -0.0571838 0 0.91891 -0.0599825 0 0.927203 -0.0625386
0 0.935692 -0.0648239 0 0.944298 -0.0668124 0 0.952931 -0.0684785 0
0.961497 -0.0698005 0 0.969898 -0.070761 0 0.978037 -0.0713486 0 0.985817
-0.0715576 0 0.993152 -0.0713891 0 0.999965 -0.0708506 0 1.00619 -0.0699564
0 1.01179 -0.0687268 0 1.01673 -0.0671872 0 1.021 -0.0653678 0
1.02462 -0.0633014 0 1.02763 -0.0610227 0 1.03005 -0.0585664 0 1.03195
-0.0559663 0 1.0334 -0.0532537 0 1.03446 -0.0504573 0 1.03519 -0.0476019
0 1.03565 -0.0447086 0 1.03591 -0.0417946 0 1.03601 -0.0388736 0
1.03599 -0.0359556 0 1.03588 -0.0330481 0 1.03571 -0.0301556 0 1.0355
-0.0272807 0 1.03527 -0.0244234 0 1.03502 -0.0215822 0 1.03477 -0.0187532
0 1.03453 -0.0159305 0 1.03431 -0.0131059 0 1.03411 -0.0102685 0
1.03396 -0.00740466 0 1.03384 -0.00449606 0 1.03378 -0.00151392 0 0.844542
-0.00155892 4.87183e-23 0.844888 -0.00467246 -1.79691e-22 0.845578 -0.00777341 2.29967e-22 0.846606 -0.0108535
-3.1974e-22 0.847965 -0.0139046 7.28326e-23 0.849644 -0.0169188 7.43704e-22 0.851633 -0.0198885 -8.03173e-22
0.853916 -0.0228062 6.47509e-22 0.856477 -0.0256652 1.96597e-23 0.859299 -0.0284588 -7.44789e-22 0.862363
-0.031181 2.41304e-22 0.865648 -0.033826 2.29e-22 0.869134 -0.036389 -3.84218e-22 0.872798 -0.0388651
3.1276e-23 0.876619 -0.0412505 2.48108e-22 0.880574 -0.0435416 2.42133e-23 0.884642 -0.0457353 -4.51769e-22
0.8888 -0.0478283 2.6384e-22 0.893028 -0.0498189 2.8357e-23 0.897305 -0.051714 -2.25182e-23 0.897305
0.0517139 3.61925e-24 0.893028 0.0498188 3.24158e-23 0.8888 0.0478282 2.77447e-22 0.884642 0.0457352
-4.33929e-22 0.880574 0.0435415 1.10595e-23 0.876619 0.0412504 2.63674e-22 0.872798 0.038865 5.10652e-23
0.869134 0.0363889 -3.51916e-22 0.865648 0.033826 2.40329e-22 0.862363 0.0311809 2.6029e-22 0.859299
0.0284587 -7.46108e-22 0.856477 0.0256651 2.60002e-23 0.853916 0.0228061 6.47084e-22 0.851633 0.0198884
-8.18131e-22 0.849644 0.0169187 7.45164e-22 0.847964 0.0139045 7.28314e-23 0.846606 0.0108534 -3.17856e-22
0.845578 0.00777332 2.3268e-22 0.844888 0.00467236 -1.75621e-22 0.844542 0.00155882 4.92878e-23 1.03378
0.00151392 0 1.03384 0.00449606 0 1.03396 0.00740465 0 1.03411 0.0102685
0 1.03431 0.0131059 0 1.03453 0.0159305 0 1.03477 0.0187532 0
1.03502 0.0215822 0 1.03527 0.0244234 0 1.0355 0.0272806 0 1.03571
0.0301556 0 1.03588 0.033048 0 1.03599 0.0359556 0 1.03601 0.0388735
0 1.03591 0.0417946 0 1.03565 0.0447086 0 1.03519 0.0476019 0
1.03446 0.0504573 0 1.0334 0.0532537 0 1.03195 0.0559662 0 1.03005
0.0585664 0 1.02763 0.0610227 0 1.02462 0.0633014 0 1.021 0.0653677
0 1.01673 0.0671872 0 1.01179 0.0687267 0 1.00619 0.0699564 0
0.999965 0.0708506 0 0.993152 0.071389 0 0.985817 0.0715575 0 0.978037
0.0713485 0 0.969898 0.070761 0 0.961497 0.0698004 0 0.952931 0.0684785
0 0.944298 0.0668123 0 0.935692 0.0648238 0 0.927203 0.0625385 0
0.91891 0.0599824 0 0.910884 0.0571837 0 0.903184 0.0541927 0 
POINT_DATA  242
FIELD attributes 1
U 3 242 float
0.900099 -0.0528921 -1.18151e-23 0.907015 -0.0556809 0 0.907015 -0.0556809 0 0.900099 -0.0528921
-1.18151e-23 0.914876 -0.0585759 0 0.914876 -0.0585759 0 0.923034 -0.0612536 0
0.923034 -0.0612536 0 0.931423 -0.0636747 0 0.931423 -0.0636747 0 0.939969
-0.0658122 0 0.939969 -0.0658122 0 0.948587 -0.0676402 0 0.948587 -0.0676402
0 0.957186 -0.0691351 0 0.957186 -0.0691351 0 0.965669 -0.0702774 0
0.965669 -0.0702774 0 0.973938 -0.0710527 0 0.973938 -0.0710527 0 0.981898
-0.0714523 0 0.981898 -0.0714523 0 0.989456 -0.071474 0 0.989456 -0.071474
0 0.996531 -0.071122 0 0.996531 -0.071122 0 1.00305 -0.0704073 0
1.00305 -0.0704073 0 1.00897 -0.069347 0 1.00897 -0.069347 0 1.01424
-0.067964 0 1.01424 -0.067964 0 1.01884 -0.066286 0 1.01884 -0.066286
0 1.02279 -0.0643446 0 1.02279 -0.0643446 0 1.02611 -0.0621734 0
1.02611 -0.0621734 0 1.02883 -0.0598072 0 1.02883 -0.0598072 0 1.03099
-0.0572802 0 1.03099 -0.0572802 0 1.03267 -0.0546248 0 1.03267 -0.0546248
0 1.03392 -0.0518712 0 1.03392 -0.0518712 0 1.03482 -0.049046 0
1.03482 -0.049046 0 1.03542 -0.0461723 0 1.03542 -0.0461723 0 1.03578
-0.0432692 0 1.03578 -0.0432692 0 1.03596 -0.0403521 0 1.03596 -0.0403521
0 1.036 -0.037433 0 1.036 -0.037433 0 1.03594 -0.0345205 0
1.03594 -0.0345205 0 1.0358 -0.0316208 0 1.0358 -0.0316208 0 1.03561
-0.0287373 0 1.03561 -0.0287373 0 1.03539 -0.0258715 0 1.03539 -0.0258715
0 1.03515 -0.0230224 0 1.03515 -0.0230224 0 1.0349 -0.0201875 0
1.0349 -0.0201875 0 1.03465 -0.0173619 0 1.03465 -0.0173619 0 1.03442
-0.0145386 0 1.03442 -0.0145386 0 1.03421 -0.0117079 0 1.03421 -0.0117079
0 1.03404 -0.00885776 0 1.03404 -0.00885776 0 1.0339 -0.00597212 0
1.0339 -0.00597212 0 1.03381 -0.00302755 0 1.03381 -0.00302755 0 1.03378
-0.00151392 0 1.03378 -0.00151392 0 0.844542 -5e-08 4.9003e-23 0.844715 -0.00311569
-6.54863e-23 0.844715 -0.00311569 -6.54863e-23 0.844542 -5e-08 4.9003e-23 0.845233 -0.00622293 2.5138e-23
0.845233 -0.00622293 2.5138e-23 0.846092 -0.00931345 -4.48865e-23 0.846092 -0.00931345 -4.48865e-23 0.847286
-0.0123791 -1.23454e-22 0.847286 -0.0123791 -1.23454e-22 0.848804 -0.0154117 4.08268e-22 0.848804 -0.0154117
4.08268e-22 0.850639 -0.0184036 -2.97345e-23 0.850639 -0.0184036 -2.97345e-23 0.852775 -0.0213473 -7.7832e-23
0.852775 -0.0213473 -7.7832e-23 0.855196 -0.0242357 3.33584e-22 0.855196 -0.0242357 3.33584e-22 0.857888
-0.027062 -3.62565e-22 0.857888 -0.027062 -3.62565e-22 0.860831 -0.0298199 -2.51743e-22 0.860831 -0.0298199
-2.51743e-22 0.864006 -0.0325035 2.35152e-22 0.864006 -0.0325035 2.35152e-22 0.867391 -0.0351075 -7.7609e-23
0.867391 -0.0351075 -7.7609e-23 0.870966 -0.037627 -1.76471e-22 0.870966 -0.037627 -1.76471e-22 0.874708
-0.0400578 1.39692e-22 0.874708 -0.0400578 1.39692e-22 0.878596 -0.042396 1.36161e-22 0.878596 -0.042396
1.36161e-22 0.882608 -0.0446385 -2.13778e-22 0.882608 -0.0446385 -2.13778e-22 0.886721 -0.0467818 -9.39645e-23
0.886721 -0.0467818 -9.39645e-23 0.890914 -0.0488236 1.46099e-22 0.890914 -0.0488236 1.46099e-22 0.895167
-0.0507664 2.9194e-24 0.895167 -0.0507664 2.9194e-24 0.900099 0.0528921 1.89899e-24 0.895167 0.0507663
1.80175e-23 0.895167 0.0507663 1.80175e-23 0.900099 0.0528921 1.89899e-24 0.890914 0.0488235 1.54931e-22
0.890914 0.0488235 1.54931e-22 0.886721 0.0467817 -7.8241e-23 0.886721 0.0467817 -7.8241e-23 0.882608
0.0446384 -2.11435e-22 0.882608 0.0446384 -2.11435e-22 0.878596 0.0423959 1.37367e-22 0.878596 0.0423959
1.37367e-22 0.874708 0.0400577 1.5737e-22 0.874708 0.0400577 1.5737e-22 0.870966 0.0376269 -1.50425e-22
0.870966 0.0376269 -1.50425e-22 0.867391 0.0351074 -5.57935e-23 0.867391 0.0351074 -5.57935e-23 0.864006
0.0325034 2.5031e-22 0.864006 0.0325034 2.5031e-22 0.860831 0.0298198 -2.42909e-22 0.860831 0.0298198
-2.42909e-22 0.857888 0.0270619 -3.60054e-22 0.857888 0.0270619 -3.60054e-22 0.855196 0.0242356 3.36542e-22
0.855196 0.0242356 3.36542e-22 0.852775 0.0213473 -8.55235e-23 0.852775 0.0213473 -8.55235e-23 0.850639
0.0184036 -3.64835e-23 0.850639 0.0184036 -3.64835e-23 0.848804 0.0154116 4.08998e-22 0.848804 0.0154116
4.08998e-22 0.847285 0.0123789 -1.22512e-22 0.847285 0.0123789 -1.22512e-22 0.846092 0.00931336 -4.2588e-23
0.846092 0.00931336 -4.2588e-23 0.845233 0.00622284 2.85295e-23 0.845233 0.00622284 2.85295e-23 0.844715
0.00311559 -6.31666e-23 0.844715 0.00311559 -6.31666e-23 1.03378 0.00151392 0 1.03381 0.00302755
0 1.03381 0.00302755 0 1.03378 0.00151392 0 1.0339 0.00597212 0
1.0339 0.00597212 0 1.03404 0.00885776 0 1.03404 0.00885776 0 1.03421
0.0117079 0 1.03421 0.0117079 0 1.03442 0.0145386 0 1.03442 0.0145386
0 1.03465 0.0173619 0 1.03465 0.0173619 0 1.0349 0.0201875 0
1.0349 0.0201875 0 1.03515 0.0230224 0 1.03515 0.0230224 0 1.03539
0.0258714 0 1.03539 0.0258714 0 1.03561 0.0287373 0 1.03561 0.0287373
0 1.0358 0.0316208 0 1.0358 0.0316208 0 1.03594 0.0345205 0
1.03594 0.0345205 0 1.036 0.0374329 0 1.036 0.0374329 0 1.03596
0.0403521 0 1.03596 0.0403521 0 1.03578 0.0432692 0 1.03578 0.0432692
0 1.03542 0.0461723 0 1.03542 0.0461723 0 1.03482 0.049046 0
1.03482 0.049046 0 1.03392 0.0518712 0 1.03392 0.0518712 0 1.03267
0.0546248 0 1.03267 0.0546248 0 1.03099 0.0572801 0 1.03099 0.0572801
0 1.02883 0.0598072 0 1.02883 0.0598072 0 1.02611 0.0621734 0
1.02611 0.0621734 0 1.02279 0.0643446 0 1.02279 0.0643446 0 1.01884
0.066286 0 1.01884 0.066286 0 1.01424 0.0679639 0 1.01424 0.0679639
0 1.00897 0.0693469 0 1.00897 0.0693469 0 1.00305 0.0704073 0
1.00305 0.0704073 0 0.996531 0.071122 0 0.996531 0.071122 0 0.989456
0.0714739 0 0.989456 0.0714739 0 0.981898 0.0714522 0 0.981898 0.0714522
0 0.973938 0.0710526 0 0.973938 0.0710526 0 0.965669 0.0702774 0
0.965669 0.0702774 0 0.957186 0.0691351 0 0.957186 0.0691351 0 0.948587
0.0676402 0 0.948587 0.0676402 0 0.939969 0.0658121 0 0.939969 0.0658121
0 0.931423 0.0636746 0 0.931423 0.0636746 0 0.923034 0.0612535 0
0.923034 0.0612535 0 0.914876 0.0585758 0 0.914876 0.0585758 0 0.907015
0.0556808 0 0.907015 0.0556808 0 
