# vtk DataFile Version 2.0
outlet
ASCII
DATASET POLYDATA
POINTS 242 float
8 0.707107 -0.05 8 0.76801 -0.05 8 0.76801 0.05 8 0.707107
0.05 8 0.831117 -0.05 8 0.831117 0.05 8 0.896508 -0.05
8 0.896508 0.05 8 0.964265 -0.05 8 0.964265 0.05 8
1.03447 -0.05 8 1.03447 0.05 8 1.10722 -0.05 8 1.10722
0.05 8 1.1826 -0.05 8 1.1826 0.05 8 1.26071 -0.05
8 1.26071 0.05 8 1.34165 -0.05 8 1.34165 0.05 8
1.42551 -0.05 8 1.42551 0.05 8 1.51241 -0.05 8 1.51241
0.05 8 1.60246 -0.05 8 1.60246 0.05 8 1.69576 -0.05
8 1.69576 0.05 8 1.79244 -0.05 8 1.79244 0.05 8
1.89261 -0.05 8 1.89261 0.05 8 1.99641 -0.05 8 1.99641
0.05 8 2.10397 -0.05 8 2.10397 0.05 8 2.21542 -0.05
8 2.21542 0.05 8 2.3309 -0.05 8 2.3309 0.05 8
2.45056 -0.05 8 2.45056 0.05 8 2.57455 -0.05 8 2.57455
0.05 8 2.70303 -0.05 8 2.70303 0.05 8 2.83616 -0.05
8 2.83616 0.05 8 2.9741 -0.05 8 2.9741 0.05 8
3.11704 -0.05 8 3.11704 0.05 8 3.26514 -0.05 8 3.26514
0.05 8 3.41861 -0.05 8 3.41861 0.05 8 3.57763 -0.05
8 3.57763 0.05 8 3.7424 -0.05 8 3.7424 0.05 8
3.91314 -0.05 8 3.91314 0.05 8 4.09005 -0.05 8 4.09005
0.05 8 4.27337 -0.05 8 4.27337 0.05 8 4.46332 -0.05
8 4.46332 0.05 8 4.66014 -0.05 8 4.66014 0.05 8
4.86409 -0.05 8 4.86409 0.05 8 5.07541 -0.05 8 5.07541
0.05 8 5.29439 -0.05 8 5.29439 0.05 8 5.52128 -0.05
8 5.52128 0.05 8 5.75639 -0.05 8 5.75639 0.05 8
6 -0.05 8 6 0.05 8 0 -0.05 8 0.0353553
-0.05 8 0.0353553 0.05 8 0 0.05 8 0.0707107 -0.05
8 0.0707107 0.05 8 0.106066 -0.05 8 0.106066 0.05 8
0.141421 -0.05 8 0.141421 0.05 8 0.176777 -0.05 8 0.176777
0.05 8 0.212132 -0.05 8 0.212132 0.05 8 0.247487 -0.05
8 0.247487 0.05 8 0.282843 -0.05 8 0.282843 0.05 8
0.318198 -0.05 8 0.318198 0.05 8 0.353553 -0.05 8 0.353553
0.05 8 0.388909 -0.05 8 0.388909 0.05 8 0.424264 -0.05
8 0.424264 0.05 8 0.459619 -0.05 8 0.459619 0.05 8
0.494975 -0.05 8 0.494975 0.05 8 0.53033 -0.05 8 0.53033
0.05 8 0.565685 -0.05 8 0.565685 0.05 8 0.601041 -0.05
8 0.601041 0.05 8 0.636396 -0.05 8 0.636396 0.05 8
0.671751 -0.05 8 0.671751 0.05 8 -0.707107 -0.05 8 -0.671751
-0.05 8 -0.671751 0.05 8 -0.707107 0.05 8 -0.636396 -0.05
8 -0.636396 0.05 8 -0.601041 -0.05 8 -0.601041 0.05 8
-0.565685 -0.05 8 -0.565685 0.05 8 -0.53033 -0.05 8 -0.53033
0.05 8 -0.494975 -0.05 8 -0.494975 0.05 8 -0.459619 -0.05
8 -0.459619 0.05 8 -0.424264 -0.05 8 -0.424264 0.05 8
-0.388909 -0.05 8 -0.388909 0.05 8 -0.353553 -0.05 8 -0.353553
0.05 8 -0.318198 -0.05 8 -0.318198 0.05 8 -0.282843 -0.05
8 -0.282843 0.05 8 -0.247487 -0.05 8 -0.247487 0.05 8
-0.212132 -0.05 8 -0.212132 0.05 8 -0.176777 -0.05 8 -0.176777
0.05 8 -0.141421 -0.05 8 -0.141421 0.05 8 -0.106066 -0.05
8 -0.106066 0.05 8 -0.0707107 -0.05 8 -0.0707107 0.05 8
-0.0353553 -0.05 8 -0.0353553 0.05 8 -6 -0.05 8 -5.75639
-0.05 8 -5.75639 0.05 8 -6 0.05 8 -5.52128 -0.05
8 -5.52128 0.05 8 -5.29439 -0.05 8 -5.29439 0.05 8
-5.07541 -0.05 8 -5.07541 0.05 8 -4.86409 -0.05 8 -4.86409
0.05 8 -4.66014 -0.05 8 -4.66014 0.05 8 -4.46332 -0.05
8 -4.46332 0.05 8 -4.27337 -0.05 8 -4.27337 0.05 8
-4.09005 -0.05 8 -4.09005 0.05 8 -3.91314 -0.05 8 -3.91314
0.05 8 -3.7424 -0.05 8 -3.7424 0.05 8 -3.57763 -0.05
8 -3.57763 0.05 8 -3.41861 -0.05 8 -3.41861 0.05 8
-3.26514 -0.05 8 -3.26514 0.05 8 -3.11704 -0.05 8 -3.11704
0.05 8 -2.9741 -0.05 8 -2.9741 0.05 8 -2.83616 -0.05
8 -2.83616 0.05 8 -2.70303 -0.05 8 -2.70303 0.05 8
-2.57455 -0.05 8 -2.57455 0.05 8 -2.45056 -0.05 8 -2.45056
0.05 8 -2.3309 -0.05 8 -2.3309 0.05 8 -2.21542 -0.05
8 -2.21542 0.05 8 -2.10397 -0.05 8 -2.10397 0.05 8
-1.99641 -0.05 8 -1.99641 0.05 8 -1.89261 -0.05 8 -1.89261
0.05 8 -1.79244 -0.05 8 -1.79244 0.05 8 -1.69576 -0.05
8 -1.69576 0.05 8 -1.60246 -0.05 8 -1.60246 0.05 8
-1.51241 -0.05 8 -1.51241 0.05 8 -1.42551 -0.05 8 -1.42551
0.05 8 -1.34165 -0.05 8 -1.34165 0.05 8 -1.26071 -0.05
8 -1.26071 0.05 8 -1.1826 -0.05 8 -1.1826 0.05 8
-1.10722 -0.05 8 -1.10722 0.05 8 -1.03447 -0.05 8 -1.03447
0.05 8 -0.964265 -0.05 8 -0.964265 0.05 8 -0.896508 -0.05
8 -0.896508 0.05 8 -0.831117 -0.05 8 -0.831117 0.05 8
-0.76801 -0.05 8 -0.76801 0.05 
POLYGONS 120 600
4 0 1 2 3 4 1 4 5 2 4
4 6 7 5 4 6 8 9 7 4
8 10 11 9 4 10 12 13 11 4
12 14 15 13 4 14 16 17 15 4
16 18 19 17 4 18 20 21 19 4
20 22 23 21 4 22 24 25 23 4
24 26 27 25 4 26 28 29 27 4
28 30 31 29 4 30 32 33 31 4
32 34 35 33 4 34 36 37 35 4
36 38 39 37 4 38 40 41 39 4
40 42 43 41 4 42 44 45 43 4
44 46 47 45 4 46 48 49 47 4
48 50 51 49 4 50 52 53 51 4
52 54 55 53 4 54 56 57 55 4
56 58 59 57 4 58 60 61 59 4
60 62 63 61 4 62 64 65 63 4
64 66 67 65 4 66 68 69 67 4
68 70 71 69 4 70 72 73 71 4
72 74 75 73 4 74 76 77 75 4
76 78 79 77 4 78 80 81 79 4
82 83 84 85 4 83 86 87 84 4
86 88 89 87 4 88 90 91 89 4
90 92 93 91 4 92 94 95 93 4
94 96 97 95 4 96 98 99 97 4
98 100 101 99 4 100 102 103 101 4
102 104 105 103 4 104 106 107 105 4
106 108 109 107 4 108 110 111 109 4
110 112 113 111 4 112 114 115 113 4
114 116 117 115 4 116 118 119 117 4
118 120 121 119 4 120 0 3 121 4
122 123 124 125 4 123 126 127 124 4
126 128 129 127 4 128 130 131 129 4
130 132 133 131 4 132 134 135 133 4
134 136 137 135 4 136 138 139 137 4
138 140 141 139 4 140 142 143 141 4
142 144 145 143 4 144 146 147 145 4
146 148 149 147 4 148 150 151 149 4
150 152 153 151 4 152 154 155 153 4
154 156 157 155 4 156 158 159 157 4
158 160 161 159 4 160 82 85 161 4
162 163 164 165 4 163 166 167 164 4
166 168 169 167 4 168 170 171 169 4
170 172 173 171 4 172 174 175 173 4
174 176 177 175 4 176 178 179 177 4
178 180 181 179 4 180 182 183 181 4
182 184 185 183 4 184 186 187 185 4
186 188 189 187 4 188 190 191 189 4
190 192 193 191 4 192 194 195 193 4
194 196 197 195 4 196 198 199 197 4
198 200 201 199 4 200 202 203 201 4
202 204 205 203 4 204 206 207 205 4
206 208 209 207 4 208 210 211 209 4
210 212 213 211 4 212 214 215 213 4
214 216 217 215 4 216 218 219 217 4
218 220 221 219 4 220 222 223 221 4
222 224 225 223 4 224 226 227 225 4
226 228 229 227 4 228 230 231 229 4
230 232 233 231 4 232 234 235 233 4
234 236 237 235 4 236 238 239 237 4
238 240 241 239 4 240 122 125 241 
CELL_DATA 120
FIELD attributes 2
patchID 1 120 float
1 1 1 1 1 1 1 1 1 1 1
1 1 1 1 1 1 1 1 1 1
1 1 1 1 1 1 1 1 1 1
1 1 1 1 1 1 1 1 1 1
1 1 1 1 1 1 1 1 1 1
1 1 1 1 1 1 1 1 1 1
1 1 1 1 1 1 1 1 1 1
1 1 1 1 1 1 1 1 1 1
1 1 1 1 1 1 1 1 1 1
1 1 1 1 1 1 1 1 1 1
1 1 1 1 1 1 1 1 1 1
1 1 1 1 1 1 1 1 1 
U 3 120 float
0.750612 -0.0346819 0 0.76995 -0.0366501 0 0.79044 -0.0385025 0 0.811942 -0.0402016
0 0.834286 -0.0417276 0 0.857265 -0.0430613 0 0.880644 -0.0441835 0
0.904159 -0.0450772 0 0.927522 -0.0457287 0 0.950431 -0.0461285 0 0.972578
-0.0462719 0 0.993657 -0.0461596 0 1.01338 -0.0457984 0 1.03148 -0.0452003
0 1.04774 -0.0443833 0 1.062 -0.0433697 0 1.07413 -0.0421857 0
1.08411 -0.0408593 0 1.09195 -0.0394188 0 1.09775 -0.0378914 0 1.10165
-0.0363011 0 1.10384 -0.034668 0 1.10456 -0.0330073 0 1.10403 -0.0313292
0 1.10252 -0.0296391 0 1.10024 -0.0279386 0 1.09742 -0.0262263 0
1.09423 -0.0244988 0 1.09084 -0.0227518 0 1.08738 -0.0209809 0 1.08394
-0.0191818 0 1.08062 -0.0173508 0 1.07747 -0.0154845 0 1.07456 -0.0135799
0 1.07193 -0.0116339 0 1.06963 -0.00964319 0 1.06769 -0.00760376 0
1.06617 -0.00551093 0 1.0651 -0.00335816 0 1.06454 -0.00113289 0 0.614951
-0.000983211 2.96105e-23 0.615697 -0.00294756 -1.08395e-22 0.617185 -0.00490504 1.39772e-22 0.619407 -0.0068511
-1.93571e-22 0.622352 -0.00878121 4.41543e-23 0.626005 -0.0106909 4.49658e-22 0.630348 -0.0125759 -4.88818e-22
0.635358 -0.0144317 3.92294e-22 0.641011 -0.0162543 1.52862e-23 0.647279 -0.0180396 -4.51326e-22 0.654132
-0.0197836 1.48897e-22 0.661535 -0.0214826 1.40271e-22 0.669455 -0.0231329 -2.27602e-22 0.677855 -0.0247313
2.20196e-23 0.686695 -0.0262744 1.52394e-22 0.695937 -0.0277595 1.23989e-23 0.70554 -0.0291835 -2.69447e-22
0.715461 -0.0305434 1.61436e-22 0.725661 -0.0318368 1.77958e-23 0.736098 -0.0330681 -8.61977e-24 0.736097
0.0330682 -2.73364e-24 0.725661 0.031837 1.87704e-23 0.715461 0.0305436 1.64897e-22 0.705539 0.0291837
-2.64685e-22 0.695937 0.0277597 8.74495e-24 0.686695 0.0262747 1.56867e-22 0.677855 0.0247315 2.78743e-23
0.669455 0.0231332 -2.17803e-22 0.661535 0.0214828 1.43782e-22 0.654132 0.0197838 1.54891e-22 0.647279
0.0180398 -4.51749e-22 0.641011 0.0162545 1.73479e-23 0.635358 0.0144319 3.92154e-22 0.630348 0.0125761
-4.93786e-22 0.626005 0.0106911 4.50147e-22 0.622352 0.00878143 4.41539e-23 0.619407 0.00685132 -1.92933e-22
0.617185 0.00490527 1.40694e-22 0.615697 0.00294779 -1.07007e-22 0.614951 0.000983436 2.98049e-23 1.06454
0.00113289 0 1.0651 0.00335816 0 1.06617 0.00551094 0 1.06769 0.00760377
0 1.06963 0.00964321 0 1.07193 0.011634 0 1.07456 0.01358 0
1.07747 0.0154846 0 1.08062 0.0173508 0 1.08394 0.0191819 0 1.08738
0.020981 0 1.09084 0.0227519 0 1.09423 0.0244988 0 1.09742 0.0262263
0 1.10024 0.0279387 0 1.10252 0.0296391 0 1.10403 0.0313292 0
1.10456 0.0330074 0 1.10384 0.0346681 0 1.10165 0.0363012 0 1.09775
0.0378915 0 1.09195 0.039419 0 1.08411 0.0408594 0 1.07413 0.0421858
0 1.062 0.0433699 0 1.04774 0.0443834 0 1.03148 0.0452005 0
1.01338 0.0457985 0 0.993657 0.0461598 0 0.972578 0.046272 0 0.950431
0.0461286 0 0.927522 0.0457289 0 0.904159 0.0450774 0 0.880644 0.0441837
0 0.857265 0.0430614 0 0.834286 0.0417277 0 0.811942 0.0402017 0
0.79044 0.0385026 0 0.76995 0.0366502 0 0.750612 0.0346821 0 
POINT_DATA  242
FIELD attributes 1
U 3 242 float
0.742997 -0.0338352 -4.52273e-24 0.760233 -0.0356611 0 0.760233 -0.0356611 0 0.742997 -0.0338352
-4.52273e-24 0.780142 -0.0375715 0 0.780142 -0.0375715 0 0.801132 -0.0393474 0
0.801132 -0.0393474 0 0.82305 -0.0409602 0 0.82305 -0.0409602 0 0.845706
-0.0423904 0 0.845706 -0.0423904 0 0.868881 -0.0436189 0 0.868881 -0.0436189
0 0.892324 -0.0446274 0 0.892324 -0.0446274 0 0.91576 -0.0454007 0
0.91576 -0.0454007 0 0.938894 -0.0459272 0 0.938894 -0.0459272 0 0.961422
-0.0461997 0 0.961422 -0.0461997 0 0.983035 -0.0462162 0 0.983035 -0.0462162
0 1.00344 -0.0459805 0 1.00344 -0.0459805 0 1.02235 -0.0455019 0
1.02235 -0.0455019 0 1.03954 -0.0447954 0 1.03954 -0.0447954 0 1.05481
-0.0438811 0 1.05481 -0.0438811 0 1.06801 -0.0427832 0 1.06801 -0.0427832
0 1.07907 -0.0415289 0 1.07907 -0.0415289 0 1.08799 -0.0401463 0
1.08799 -0.0401463 0 1.09482 -0.038663 0 1.09482 -0.038663 0 1.09968
-0.0371047 0 1.09968 -0.0371047 0 1.10273 -0.0354935 0 1.10273 -0.0354935
0 1.1042 -0.033847 0 1.1042 -0.033847 0 1.1043 -0.0321779 0
1.1043 -0.0321779 0 1.10328 -0.0304941 0 1.10328 -0.0304941 0 1.10139
-0.0287991 0 1.10139 -0.0287991 0 1.09885 -0.027093 0 1.09885 -0.027093
0 1.09585 -0.0253734 0 1.09585 -0.0253734 0 1.09256 -0.0236365 0
1.09256 -0.0236365 0 1.08913 -0.021878 0 1.08913 -0.021878 0 1.08568
-0.0200934 0 1.08568 -0.0200934 0 1.0823 -0.0182787 0 1.0823 -0.0182787
0 1.07907 -0.0164305 0 1.07907 -0.0164305 0 1.07604 -0.0145456 0
1.07604 -0.0145456 0 1.07326 -0.0126207 0 1.07326 -0.0126207 0 1.0708
-0.0106529 0 1.0708 -0.0106529 0 1.06867 -0.00863838 0 1.06867 -0.00863838
0 1.06694 -0.00657283 0 1.06694 -0.00657283 0 1.06564 -0.00445065 0
1.06564 -0.00445065 0 1.06482 -0.00226236 0 1.06482 -0.00226236 0 1.06454
-0.00113289 0 1.06454 -0.00113289 0 0.614951 1.125e-07 2.97077e-23 0.615324 -0.00196539
-3.93922e-23 0.615324 -0.00196539 -3.93922e-23 0.614951 1.125e-07 2.97077e-23 0.616441 -0.0039263 1.56885e-23
0.616441 -0.0039263 1.56885e-23 0.618296 -0.00587807 -2.68995e-23 0.618296 -0.00587807 -2.68995e-23 0.620879
-0.00781616 -7.47084e-23 0.620879 -0.00781616 -7.47084e-23 0.624179 -0.00973605 2.46906e-22 0.624179 -0.00973605
2.46906e-22 0.628177 -0.0116334 -1.958e-23 0.628177 -0.0116334 -1.958e-23 0.632853 -0.0135038 -4.8262e-23
0.632853 -0.0135038 -4.8262e-23 0.638184 -0.015343 2.0379e-22 0.638184 -0.015343 2.0379e-22 0.644145
-0.017147 -2.1802e-22 0.644145 -0.017147 -2.1802e-22 0.650706 -0.0189116 -1.51215e-22 0.650706 -0.0189116
-1.51215e-22 0.657834 -0.0206331 1.44584e-22 0.657834 -0.0206331 1.44584e-22 0.665495 -0.0223077 -4.36655e-23
0.665495 -0.0223077 -4.36655e-23 0.673655 -0.0239321 -1.02791e-22 0.673655 -0.0239321 -1.02791e-22 0.682275
-0.0255028 8.72068e-23 0.682275 -0.0255028 8.72068e-23 0.691316 -0.027017 8.23965e-23 0.691316 -0.027017
8.23965e-23 0.700738 -0.0284715 -1.28524e-22 0.700738 -0.0284715 -1.28524e-22 0.7105 -0.0298635 -5.40055e-23
0.7105 -0.0298635 -5.40055e-23 0.720561 -0.0311901 8.96159e-23 0.720561 -0.0311901 8.96159e-23 0.730879
-0.0324524 4.58802e-24 0.730879 -0.0324524 4.58802e-24 0.742996 0.0338353 -1.43432e-24 0.730879 0.0324526
8.01838e-24 0.730879 0.0324526 8.01838e-24 0.742996 0.0338353 -1.43432e-24 0.720561 0.0311903 9.18337e-23
0.720561 0.0311903 9.18337e-23 0.7105 0.0298636 -4.9894e-23 0.7105 0.0298636 -4.9894e-23 0.700738
0.0284717 -1.2797e-22 0.700738 0.0284717 -1.2797e-22 0.691316 0.0270172 8.2806e-23 0.691316 0.0270172
8.2806e-23 0.682275 0.0255031 9.23707e-23 0.682275 0.0255031 9.23707e-23 0.673655 0.0239324 -9.49644e-23
0.673655 0.0239324 -9.49644e-23 0.665495 0.022308 -3.70105e-23 0.665495 0.022308 -3.70105e-23 0.657834
0.0206333 1.49336e-22 0.657834 0.0206333 1.49336e-22 0.650706 0.0189118 -1.48429e-22 0.650706 0.0189118
-1.48429e-22 0.644145 0.0171471 -2.17201e-22 0.644145 0.0171471 -2.17201e-22 0.638184 0.0153432 2.04751e-22
0.638184 0.0153432 2.04751e-22 0.632853 0.013504 -5.0816e-23 0.632853 0.013504 -5.0816e-23 0.628177
0.0116336 -2.18195e-23 0.628177 0.0116336 -2.18195e-23 0.624179 0.00973627 2.4715e-22 0.624179 0.00973627
2.4715e-22 0.620879 0.00781638 -7.43896e-23 0.620879 0.00781638 -7.43896e-23 0.618296 0.00587829 -2.61195e-23
0.618296 0.00587829 -2.61195e-23 0.616441 0.00392653 1.68435e-23 0.616441 0.00392653 1.68435e-23 0.615324
0.00196561 -3.8601e-23 0.615324 0.00196561 -3.8601e-23 1.06454 0.00113289 0 1.06482 0.00226236
0 1.06482 0.00226236 0 1.06454 0.00113289 0 1.06564 0.00445066 0
1.06564 0.00445066 0 1.06694 0.00657284 0 1.06694 0.00657284 0 1.06867
0.00863839 0 1.06867 0.00863839 0 1.0708 0.010653 0 1.0708 0.010653
0 1.07326 0.0126208 0 1.07326 0.0126208 0 1.07604 0.0145457 0
1.07604 0.0145457 0 1.07907 0.0164306 0 1.07907 0.0164306 0 1.0823
0.0182788 0 1.0823 0.0182788 0 1.08568 0.0200935 0 1.08568 0.0200935
0 1.08913 0.0218781 0 1.08913 0.0218781 0 1.09256 0.0236366 0
1.09256 0.0236366 0 1.09585 0.0253734 0 1.09585 0.0253734 0 1.09885
0.0270931 0 1.09885 0.0270931 0 1.10139 0.0287992 0 1.10139 0.0287992
0 1.10328 0.0304941 0 1.10328 0.0304941 0 1.1043 0.032178 0
1.1043 0.032178 0 1.1042 0.0338471 0 1.1042 0.0338471 0 1.10273
0.0354936 0 1.10273 0.0354936 0 1.09968 0.0371048 0 1.09968 0.0371048
0 1.09482 0.0386631 0 1.09482 0.0386631 0 1.08799 0.0401464 0
1.08799 0.0401464 0 1.07907 0.041529 0 1.07907 0.041529 0 1.06801
0.0427834 0 1.06801 0.0427834 0 1.05481 0.0438812 0 1.05481 0.0438812
0 1.03954 0.0447955 0 1.03954 0.0447955 0 1.02235 0.045502 0
1.02235 0.045502 0 1.00344 0.0459806 0 1.00344 0.0459806 0 0.983035
0.0462163 0 0.983035 0.0462163 0 0.961422 0.0461998 0 0.961422 0.0461998
0 0.938894 0.0459273 0 0.938894 0.0459273 0 0.91576 0.0454009 0
0.91576 0.0454009 0 0.892324 0.0446276 0 0.892324 0.0446276 0 0.868881
0.043619 0 0.868881 0.043619 0 0.845706 0.0423905 0 0.845706 0.0423905
0 0.82305 0.0409603 0 0.82305 0.0409603 0 0.801132 0.0393475 0
0.801132 0.0393475 0 0.780142 0.0375716 0 0.780142 0.0375716 0 0.760233
0.0356613 0 0.760233 0.0356613 0 
