/*--------------------------------*- C++ -*----------------------------------*\
  =========                 |
  \\      /  F ield         | OpenFOAM: The Open Source CFD Toolbox
   \\    /   O peration     | Website:  https://openfoam.org
    \\  /    A nd           | Version:  7
     \\/     M anipulation  |
\*---------------------------------------------------------------------------*/
FoamFile
{
    version     2.0;
    format      ascii;
    class       volScalarField;
    location    "4.6";
    object      p;
}
// * * * * * * * * * * * * * * * * * * * * * * * * * * * * * * * * * * * * * //

dimensions      [0 2 -2 0 0 0 0];

internalField   nonuniform List<scalar> 
344
(
4.23929
4.23
4.22077
4.21159
4.20246
4.19338
4.18435
4.17536
4.16642
4.15753
4.14868
4.13987
4.13111
5.31433
5.2478
5.17553
5.09584
5.02742
4.96988
4.92155
4.88082
4.84597
4.81564
4.78882
4.76472
4.74278
4.72255
4.70372
4.68603
4.66928
4.65332
4.63803
4.62331
4.60909
4.59529
4.58187
4.56878
4.55598
4.54345
4.53116
4.51909
4.50721
4.49551
4.48398
4.47261
4.46138
4.45029
4.43932
4.42848
4.41774
4.40712
4.3966
4.38617
4.37584
4.36559
4.35544
4.34536
4.33536
4.32544
4.3156
4.30582
4.29611
4.28647
4.27689
4.26738
4.25792
4.24853
4.23919
4.22991
4.22068
4.2115
4.20237
4.1933
4.18427
4.17528
4.16635
4.15746
4.14861
4.13981
4.13104
5.37735
5.27825
5.19297
5.10258
5.02859
4.96846
4.919
4.87792
4.84307
4.8129
4.7863
4.76244
4.74073
4.72072
4.70207
4.68455
4.66795
4.65213
4.63695
4.62234
4.6082
4.59449
4.58114
4.56811
4.55537
4.54289
4.53065
4.51861
4.50677
4.49511
4.48361
4.47226
4.46106
4.44999
4.43904
4.42821
4.4175
4.40689
4.39638
4.38596
4.37564
4.36541
4.35526
4.3452
4.33521
4.32529
4.31545
4.30569
4.29598
4.28635
4.27678
4.26727
4.25782
4.24842
4.23909
4.22981
4.22058
4.21141
4.20229
4.19321
4.18419
4.17521
4.16627
4.15739
4.14854
4.13974
4.13098
5.45651
5.31018
5.20986
5.10792
5.02849
4.96616
4.91589
4.87468
4.83998
4.81007
4.78375
4.76016
4.73869
4.7189
4.70046
4.6831
4.66666
4.65096
4.6359
4.62139
4.60735
4.59371
4.58043
4.56746
4.55478
4.54235
4.53014
4.51815
4.50634
4.49471
4.48324
4.47192
4.46074
4.44969
4.43876
4.42795
4.41725
4.40666
4.39616
4.38576
4.37545
4.36523
4.35509
4.34503
4.33505
4.32515
4.31531
4.30555
4.29585
4.28622
4.27666
4.26715
4.25771
4.24832
4.23899
4.22971
4.22049
4.21132
4.2022
4.19313
4.1841
4.17513
4.1662
4.15731
4.14847
4.13967
4.13091
5.55644
5.34269
5.22533
5.11137
5.02694
4.96291
4.9122
4.87109
4.83668
4.80712
4.78113
4.75785
4.73665
4.71709
4.69885
4.68167
4.66538
4.64981
4.63487
4.62046
4.6065
4.59294
4.57973
4.56682
4.55419
4.54181
4.52965
4.51769
4.50592
4.49432
4.48288
4.47158
4.46042
4.44939
4.43848
4.42769
4.41701
4.40643
4.39594
4.38555
4.37526
4.36504
4.35491
4.34486
4.33489
4.32499
4.31517
4.30541
4.29572
4.2861
4.27653
4.26703
4.25759
4.24821
4.23888
4.22961
4.22039
4.21122
4.20211
4.19304
4.18402
4.17504
4.16612
4.15723
4.14839
4.13959
4.13084
4.12212
5.68266
5.37426
5.23817
5.11237
5.02368
4.95859
4.90786
4.86711
4.83315
4.80403
4.77843
4.75549
4.73458
4.71527
4.69724
4.68024
4.6641
4.64867
4.63385
4.61953
4.60566
4.59218
4.57904
4.56619
4.55361
4.54128
4.52916
4.51724
4.5055
4.49393
4.48251
4.47124
4.46011
4.4491
4.43821
4.42743
4.41676
4.40619
4.39572
4.38535
4.37506
4.36486
4.35474
4.34469
4.33473
4.32484
4.31502
4.30527
4.29559
4.28597
4.27641
4.26691
4.25748
4.2481
4.23878
4.22951
4.22029
4.21113
4.20201
4.19295
4.18393
4.17496
)
;

boundaryField
{
    inlet
    {
        type            zeroGradient;
    }
    outlet
    {
        type            fixedValue;
        value           nonuniform 0();
    }
    wall
    {
        type            zeroGradient;
    }
    wedge1
    {
        type            wedge;
    }
    wedge2
    {
        type            wedge;
    }
    axis
    {
        type            empty;
    }
    procBoundary36to30
    {
        type            processor;
        value           nonuniform List<scalar> 
68
(
4.23939
4.2301
4.22086
4.21167
4.20254
4.19346
4.18442
4.17544
4.1665
4.1576
4.14875
4.13994
4.13117
5.26372
5.21931
5.15811
5.08808
5.02517
4.97048
4.92355
4.8834
4.84869
4.81829
4.7913
4.767
4.74485
4.72443
4.70541
4.68755
4.67065
4.65456
4.63915
4.62433
4.61001
4.59613
4.58263
4.56947
4.55662
4.54403
4.53169
4.51958
4.50766
4.49593
4.48437
4.47297
4.46171
4.4506
4.43961
4.42875
4.418
4.40735
4.39682
4.38638
4.37603
4.36578
4.35561
4.34553
4.33552
4.32559
4.31574
4.30596
4.29624
4.28659
4.27701
4.26749
4.25803
4.24863
4.24863
)
;
    }
    procBoundary36to31
    {
        type            processor;
        value           uniform 4.12238;
    }
    procBoundary36to37
    {
        type            processor;
        value           nonuniform List<scalar> 5(4.12232 4.12226 4.12219 4.12219 4.11344);
    }
    procBoundary36to42
    {
        type            processor;
        value           nonuniform List<scalar> 
69
(
4.16603
4.15715
4.14831
4.13952
4.13076
4.12205
5.84121
5.40263
5.24688
5.11029
5.01846
4.95309
4.90282
4.8627
4.82936
4.80077
4.77562
4.75306
4.73246
4.71342
4.69561
4.6788
4.66282
4.64752
4.63282
4.61861
4.60482
4.59142
4.57834
4.56556
4.55303
4.54074
4.52867
4.51678
4.50508
4.49354
4.48215
4.4709
4.45979
4.4488
4.43793
4.42717
4.41651
4.40596
4.3955
4.38514
4.37486
4.36467
4.35455
4.34452
4.33456
4.32468
4.31487
4.30512
4.29545
4.28583
4.27628
4.26679
4.25736
4.24798
4.23866
4.2294
4.22019
4.21103
4.20192
4.19285
4.18384
4.16603
4.17487
)
;
    }
}


// ************************************************************************* //
