/*--------------------------------*- C++ -*----------------------------------*\
  =========                 |
  \\      /  F ield         | OpenFOAM: The Open Source CFD Toolbox
   \\    /   O peration     | Website:  https://openfoam.org
    \\  /    A nd           | Version:  7
     \\/     M anipulation  |
\*---------------------------------------------------------------------------*/
FoamFile
{
    version     2.0;
    format      ascii;
    class       surfaceScalarField;
    location    "5";
    object      phi;
}
// * * * * * * * * * * * * * * * * * * * * * * * * * * * * * * * * * * * * * //

dimensions      [0 3 -1 0 0 0 0];

internalField   nonuniform List<scalar> 
614
(
0.000440204
8.27489e-06
0.000439065
8.16988e-06
0.000437948
8.06659e-06
0.000436853
7.96498e-06
0.00043578
7.86503e-06
0.000434727
7.76668e-06
0.000433695
7.66992e-06
0.000432683
7.57472e-06
0.00043169
7.48103e-06
0.000430717
7.38884e-06
0.000429762
7.29811e-06
0.000428826
7.20881e-06
0.000427907
7.12092e-06
0.000427007
7.03441e-06
0.000426123
6.94924e-06
0.000425256
6.8654e-06
0.000424406
6.78285e-06
0.000423572
6.70157e-06
0.000422754
6.62154e-06
0.000421951
6.54272e-06
0.000421163
6.4651e-06
0.00042039
6.38866e-06
0.000419631
6.31336e-06
0.000418886
6.23919e-06
0.000418156
6.16612e-06
0.000417439
6.09413e-06
0.000416735
6.0232e-06
0.000416044
5.9533e-06
0.000415365
5.88443e-06
0.000414699
5.81655e-06
0.000414045
5.74965e-06
0.000413403
5.68371e-06
0.000412773
5.61871e-06
0.000412154
5.55463e-06
0.000411546
5.49146e-06
0.000410949
5.42917e-06
0.000410363
5.36774e-06
0.000409787
5.30717e-06
0.000409221
5.24744e-06
0.000408665
5.18852e-06
0.000408119
5.1304e-06
0.000407583
5.07307e-06
0.000407056
5.01651e-06
0.000406538
4.96071e-06
0.000406029
4.90565e-06
0.000405529
4.85132e-06
0.000405037
4.79771e-06
0.000404554
4.74479e-06
4.69257e-06
0.000461533
1.20144e-05
0.000460051
1.18386e-05
0.000458602
1.16658e-05
0.000457186
1.14961e-05
0.000455801
1.13293e-05
0.000454448
1.11655e-05
0.000453124
1.10046e-05
0.000451831
1.08466e-05
0.000450566
1.06913e-05
0.00044933
1.05388e-05
0.000448122
1.03891e-05
0.000446941
1.02419e-05
0.000445786
1.00974e-05
0.000444658
9.95548e-06
0.000443554
9.81605e-06
0.000442476
9.67909e-06
0.000441421
9.54456e-06
0.000440391
9.41239e-06
0.000439383
9.28256e-06
0.000438398
9.15501e-06
0.000437435
9.0297e-06
0.000436493
8.90659e-06
0.000435573
8.78562e-06
0.000434673
8.66677e-06
0.000433792
8.54998e-06
0.000432932
8.43521e-06
0.000432091
8.32243e-06
0.000431268
8.21159e-06
0.000430463
8.10266e-06
0.000429677
7.99559e-06
0.000428907
7.89035e-06
0.000428155
7.78689e-06
0.000427419
7.68519e-06
0.000426699
7.5852e-06
0.000425995
7.48689e-06
0.000425306
7.39023e-06
0.000424632
7.29518e-06
0.000423973
7.20171e-06
0.000423329
7.10979e-06
0.000422698
7.01938e-06
0.000422081
6.93045e-06
0.000421477
6.84297e-06
0.000420886
6.75692e-06
0.000420308
6.67225e-06
0.000419743
6.58895e-06
0.000419189
6.50699e-06
0.000418647
6.42633e-06
0.000418117
6.34695e-06
0.000417597
6.26882e-06
0.000417089
6.19192e-06
0.000416592
6.11623e-06
0.000416105
6.04171e-06
0.000415628
5.96834e-06
0.000415161
5.8961e-06
0.000414704
5.82497e-06
0.000414256
5.75492e-06
0.000413817
5.68593e-06
0.000413388
5.61798e-06
0.000412967
5.55105e-06
0.000412555
5.48511e-06
0.000412152
5.42015e-06
0.000411756
5.35615e-06
0.000411369
5.29308e-06
0.000410989
5.23093e-06
0.000410617
5.16968e-06
0.000410253
5.10931e-06
0.000409895
5.04981e-06
4.99115e-06
0.00044685
1.324e-05
0.000445656
1.30329e-05
0.000444492
1.28295e-05
0.000443358
1.26299e-05
0.000442254
1.24339e-05
0.000441178
1.22416e-05
0.00044013
1.20528e-05
0.000439109
1.18676e-05
0.000438114
1.16858e-05
0.000437146
1.15074e-05
0.000436202
1.13323e-05
0.000435284
1.11605e-05
0.000434389
1.0992e-05
0.000433518
1.08265e-05
0.00043267
1.06642e-05
0.000431844
1.0505e-05
0.00043104
1.03487e-05
0.000430257
1.01953e-05
0.000429495
1.00448e-05
0.000428753
9.89712e-06
0.00042803
9.75219e-06
0.000427327
9.60995e-06
0.000426642
9.47036e-06
0.000425976
9.33336e-06
0.000425327
9.19889e-06
0.000424695
9.0669e-06
0.00042408
8.93735e-06
0.000423482
8.81018e-06
0.000422899
8.68534e-06
0.000422332
8.56278e-06
0.00042178
8.44246e-06
0.000421242
8.32432e-06
0.000420719
8.20832e-06
0.00042021
8.09441e-06
0.000419714
7.98256e-06
0.000419232
7.87271e-06
0.000418762
7.76482e-06
0.000418305
7.65885e-06
0.00041786
7.55477e-06
0.000417427
7.45252e-06
0.000417005
7.35207e-06
0.000416595
7.25337e-06
0.000416195
7.15641e-06
0.000415806
7.06112e-06
0.000415428
6.96748e-06
0.000415059
6.87546e-06
0.000414701
6.78501e-06
0.000414352
6.69611e-06
0.000414012
6.60872e-06
0.000413681
6.5228e-06
0.000413359
6.43833e-06
0.000413045
6.35527e-06
0.00041274
6.2736e-06
0.000412443
6.19328e-06
0.000412153
6.11428e-06
0.000411872
6.03658e-06
0.000411598
5.96015e-06
0.000411331
5.88496e-06
0.000411071
5.81098e-06
0.000410818
5.73819e-06
0.000410571
5.66656e-06
0.000410331
5.59606e-06
0.000410098
5.52669e-06
0.00040987
5.4584e-06
0.000409649
5.39117e-06
0.000409433
5.32499e-06
0.000409223
5.25984e-06
5.19568e-06
0.000422092
1.40449e-05
0.000421312
1.38125e-05
0.000420557
1.35846e-05
0.000419826
1.33609e-05
0.000419118
1.31415e-05
0.000418434
1.29263e-05
0.000417771
1.27153e-05
0.00041713
1.25083e-05
0.000416511
1.23054e-05
0.000415912
1.21064e-05
0.000415333
1.19113e-05
0.000414773
1.17201e-05
0.000414233
1.15325e-05
0.000413711
1.13486e-05
0.000413206
1.11684e-05
0.00041272
1.09917e-05
0.00041225
1.08184e-05
0.000411797
1.06486e-05
0.000411359
1.04821e-05
0.000410938
1.03188e-05
0.000410531
1.01588e-05
0.000410139
1.00019e-05
0.000409761
9.84803e-06
0.000409398
9.69719e-06
0.000409047
9.5493e-06
0.00040871
9.40428e-06
0.000408385
9.26209e-06
0.000408073
9.12265e-06
0.000407772
8.9859e-06
0.000407483
8.8518e-06
0.000407205
8.72028e-06
0.000406938
8.59128e-06
0.000406682
8.46475e-06
0.000406436
8.34064e-06
0.000406199
8.21889e-06
0.000405973
8.09945e-06
0.000405755
7.98226e-06
0.000405547
7.86729e-06
0.000405347
7.75447e-06
0.000405156
7.64376e-06
0.000404973
7.53512e-06
0.000404798
7.42849e-06
0.00040463
7.32383e-06
0.00040447
7.2211e-06
0.000404317
7.12026e-06
0.000404172
7.02125e-06
0.000404033
6.92405e-06
0.0004039
6.8286e-06
0.000403774
6.73487e-06
0.000403654
6.64283e-06
0.00040354
6.55243e-06
0.000403431
6.46363e-06
0.000403329
6.3764e-06
0.000403231
6.29071e-06
0.000403139
6.20652e-06
0.000403052
6.1238e-06
0.000402969
6.04251e-06
0.000402892
5.96262e-06
0.000402819
5.8841e-06
0.00040275
5.80691e-06
0.000402685
5.73104e-06
0.000402625
5.65645e-06
0.000402569
5.58311e-06
0.000402516
5.511e-06
0.000402467
5.44008e-06
0.000402422
5.37033e-06
0.00040238
5.30172e-06
5.23424e-06
0.000388834
1.43264e-05
0.000388568
1.4078e-05
0.000388318
1.38344e-05
0.000388084
1.35955e-05
0.000387864
1.33613e-05
0.000387659
1.31318e-05
0.000387467
1.29068e-05
0.000387289
1.26863e-05
0.000387124
1.24702e-05
0.000386972
1.22584e-05
0.000386833
1.2051e-05
0.000386705
1.18478e-05
0.000386589
1.16486e-05
0.000386484
1.14536e-05
0.00038639
1.12625e-05
0.000386306
1.10753e-05
0.000386233
1.0892e-05
0.000386169
1.07124e-05
0.000386115
1.05364e-05
0.000386069
1.03641e-05
0.000386033
1.01953e-05
0.000386005
1.00299e-05
0.000385985
9.86794e-06
0.000385973
0.000385968
0.000385971
0.000385981
0.000385997
0.00038602
0.000386049
0.000386084
0.000386125
0.000386171
0.000386223
0.00038628
0.000386341
0.000386407
0.000386478
0.000386552
0.000386631
0.000386714
0.0003868
0.00038689
0.000386984
0.00038708
0.00038718
0.000387282
0.000387388
0.000387496
0.000387606
0.000387719
0.000387834
0.000387951
0.00038807
0.000388192
0.000388314
0.000388439
0.000388565
0.000388693
0.000388822
0.000388952
0.000389084
0.000389217
0.00038935
0.000389485
0.000389621
0.000389757
0.00034904
0.000349347
0.00034966
0.000349976
0.000350296
0.00035062
0.000350948
0.00035128
0.000351614
0.000351952
0.000352293
0.000352636
0.000352982
0.00035333
0.00035368
0.000354032
0.000354386
0.000354742
0.000355099
0.000355457
0.000355817
0.000356177
)
;

boundaryField
{
    inlet
    {
        type            calculated;
        value           nonuniform 0();
    }
    outlet
    {
        type            calculated;
        value           nonuniform 0();
    }
    wall
    {
        type            calculated;
        value           nonuniform 0();
    }
    wedge1
    {
        type            wedge;
        value           nonuniform List<scalar> 
344
(
2.27909e-15
-1.12137e-15
-1.61264e-16
-1.08542e-15
-1.45712e-16
2.24682e-15
-1.10432e-15
-1.58665e-16
-1.06699e-15
-1.43134e-16
2.21511e-15
-1.08757e-15
-1.56109e-16
-1.04891e-15
-1.40604e-16
2.18393e-15
-1.07113e-15
-1.5361e-16
-1.03119e-15
-1.38128e-16
2.15329e-15
-1.05499e-15
-1.51155e-16
-1.0138e-15
-1.357e-16
2.12317e-15
-1.03914e-15
-1.48747e-16
-9.96751e-16
-1.33317e-16
2.09357e-15
-1.02357e-15
-1.46382e-16
-9.80034e-16
-1.30983e-16
2.06449e-15
-1.00829e-15
-1.44063e-16
-9.63646e-16
-1.28697e-16
2.03591e-15
-9.93277e-16
-1.41787e-16
-9.47579e-16
-1.26457e-16
2.00782e-15
-9.78548e-16
-1.39551e-16
-9.31831e-16
-1.24261e-16
1.98022e-15
-9.64082e-16
-1.37361e-16
-9.16395e-16
-1.22112e-16
1.9531e-15
-9.49884e-16
-1.35207e-16
-9.01267e-16
-1.20006e-16
1.92644e-15
-9.35947e-16
-1.33108e-16
-8.86445e-16
-1.17947e-16
1.90024e-15
-9.22274e-16
-1.31045e-16
-8.71921e-16
-1.15932e-16
1.87449e-15
-9.08839e-16
-1.2902e-16
-8.57684e-16
-1.13955e-16
1.84919e-15
-8.95652e-16
-1.27034e-16
-8.43731e-16
-1.12017e-16
1.82432e-15
-8.82705e-16
-1.25089e-16
-8.3006e-16
-1.10125e-16
1.79988e-15
-8.70005e-16
-1.23175e-16
-8.16668e-16
-1.08273e-16
-8.12097e-16
1.77585e-15
-8.5752e-16
-1.21301e-16
-8.03535e-16
-1.06455e-16
-8.02188e-16
1.75225e-15
-8.45267e-16
-1.19457e-16
-7.90667e-16
-1.04673e-16
-7.92438e-16
1.72903e-15
-8.33238e-16
-1.1766e-16
-7.7806e-16
-1.02933e-16
-7.82827e-16
1.70622e-15
-8.21437e-16
-1.15888e-16
-7.65711e-16
-1.01231e-16
-7.73379e-16
1.68379e-15
-8.09836e-16
-1.14154e-16
-7.53602e-16
-9.95587e-17
-7.64086e-16
1.66174e-15
-7.98451e-16
-1.12455e-16
-7.41737e-16
-7.54925e-16
1.64006e-15
-7.87265e-16
-1.10785e-16
-7.30106e-16
-7.45908e-16
1.61875e-15
-7.76287e-16
-1.09141e-16
-7.18709e-16
-7.37029e-16
1.59779e-15
-7.65499e-16
-1.07536e-16
-7.07537e-16
-7.28283e-16
1.57719e-15
-7.54908e-16
-1.05953e-16
-6.96588e-16
-7.19679e-16
1.55692e-15
-7.44507e-16
-1.04414e-16
-6.85862e-16
-7.11198e-16
1.53699e-15
-7.34301e-16
-1.029e-16
-6.75352e-16
-7.02858e-16
1.51738e-15
-7.24269e-16
-1.01415e-16
-6.65042e-16
-6.94634e-16
1.49809e-15
-7.14408e-16
-9.99542e-17
-6.54935e-16
-6.86543e-16
1.47914e-15
-7.04728e-16
-9.85236e-17
-6.45027e-16
-6.78561e-16
1.46048e-15
-6.95208e-16
-9.7116e-17
-6.35311e-16
-6.70698e-16
1.44214e-15
-6.85863e-16
-9.573e-17
-6.25787e-16
-6.62951e-16
1.42408e-15
-6.76672e-16
-9.43749e-17
-6.16445e-16
-6.55316e-16
1.40633e-15
-6.67646e-16
-9.3038e-17
-6.07286e-16
-6.478e-16
1.38884e-15
-6.58778e-16
-9.17399e-17
-5.98311e-16
-6.40388e-16
1.37164e-15
-6.50073e-16
-9.04627e-17
-5.89511e-16
-6.33085e-16
1.35471e-15
-6.41503e-16
-8.92063e-17
-5.80873e-16
-6.25896e-16
1.33806e-15
-6.33084e-16
-8.79729e-17
-5.724e-16
-6.18803e-16
1.32166e-15
-6.24805e-16
-8.67644e-17
-5.6409e-16
-6.11799e-16
1.30552e-15
-6.16679e-16
-8.55702e-17
-5.55945e-16
-6.04903e-16
1.28963e-15
-6.08673e-16
-8.44019e-17
-5.47943e-16
-5.98105e-16
1.274e-15
-6.00806e-16
-8.32474e-17
-5.40093e-16
-5.91405e-16
1.2586e-15
-5.9307e-16
-8.21254e-17
-5.32394e-16
-5.84783e-16
1.24344e-15
-5.85476e-16
-8.10136e-17
-5.24844e-16
-5.78267e-16
1.22851e-15
-5.77992e-16
-7.99268e-17
-5.17427e-16
-5.71848e-16
1.21381e-15
-5.70638e-16
-7.8861e-17
-5.10148e-16
-5.65504e-16
1.19933e-15
-5.63398e-16
-7.78092e-17
-5.03001e-16
-5.59247e-16
1.18508e-15
-5.56282e-16
-7.67708e-17
-4.95988e-16
-5.53076e-16
1.17103e-15
-5.49275e-16
-7.57565e-17
-4.89101e-16
-5.46984e-16
1.1572e-15
-5.42387e-16
-7.47526e-17
-4.82339e-16
-5.40983e-16
1.14356e-15
-5.3561e-16
-7.37808e-17
-4.75706e-16
-5.35051e-16
1.13013e-15
-5.28951e-16
-7.28203e-17
-4.69196e-16
-5.29212e-16
1.11688e-15
-5.22392e-16
-7.18756e-17
-4.62794e-16
-5.23441e-16
1.10384e-15
-5.1593e-16
-7.09451e-17
-4.56507e-16
-5.17753e-16
1.09099e-15
-5.09576e-16
-7.00322e-17
-4.50332e-16
-5.12127e-16
1.07832e-15
-5.03312e-16
-6.91301e-17
-4.44264e-16
-5.06575e-16
1.06584e-15
-4.97154e-16
-6.82406e-17
-4.38304e-16
-5.01096e-16
1.05353e-15
-4.91085e-16
-6.73708e-17
-4.32447e-16
-4.95684e-16
1.04141e-15
-4.85112e-16
-6.65078e-17
-4.26692e-16
-4.90347e-16
1.02944e-15
-4.79233e-16
-6.56729e-17
-4.21041e-16
-4.85072e-16
1.01764e-15
-4.73454e-16
-6.48487e-17
-4.15491e-16
-4.79865e-16
1.00601e-15
-4.67748e-16
-6.40351e-17
-4.10028e-16
-4.74732e-16
9.94545e-16
-4.62132e-16
-6.32352e-17
-4.04658e-16
-4.69656e-16
9.8323e-16
-4.56596e-16
-6.24499e-17
-3.99381e-16
9.7207e-16
-4.51156e-16
-6.16698e-17
-3.94197e-16
)
;
    }
    wedge2
    {
        type            wedge;
        value           nonuniform List<scalar> 
344
(
2.27872e-15
-1.12182e-15
-1.61771e-16
-1.08595e-15
-1.4625e-16
2.24647e-15
-1.10476e-15
-1.59154e-16
-1.06751e-15
-1.43655e-16
2.21476e-15
-1.088e-15
-1.5659e-16
-1.04942e-15
-1.41113e-16
2.18361e-15
-1.07154e-15
-1.54065e-16
-1.03167e-15
-1.38616e-16
2.15298e-15
-1.05537e-15
-1.51589e-16
-1.01426e-15
-1.36169e-16
2.12289e-15
-1.0395e-15
-1.4916e-16
-9.97195e-16
-1.33774e-16
2.09331e-15
-1.02392e-15
-1.46779e-16
-9.80464e-16
-1.31426e-16
2.06424e-15
-1.00862e-15
-1.44441e-16
-9.64059e-16
-1.29127e-16
2.03567e-15
-9.93602e-16
-1.42151e-16
-9.47982e-16
-1.26873e-16
2.00759e-15
-9.78853e-16
-1.39907e-16
-9.3222e-16
-1.24667e-16
1.98e-15
-9.64381e-16
-1.37701e-16
-9.16772e-16
-1.22504e-16
1.95288e-15
-9.5017e-16
-1.35545e-16
-9.01633e-16
-1.20388e-16
1.92624e-15
-9.36217e-16
-1.33417e-16
-8.8679e-16
-1.1831e-16
1.90006e-15
-9.22511e-16
-1.31333e-16
-8.72242e-16
-1.16275e-16
1.87433e-15
-9.09067e-16
-1.2929e-16
-8.5799e-16
-1.14286e-16
1.84904e-15
-8.95866e-16
-1.27288e-16
-8.44025e-16
-1.12341e-16
1.82419e-15
-8.82908e-16
-1.25321e-16
-8.30338e-16
-1.10429e-16
1.79976e-15
-8.70175e-16
-1.23398e-16
-8.16921e-16
-1.08557e-16
-8.12131e-16
1.77575e-15
-8.5769e-16
-1.21509e-16
-8.03782e-16
-1.06729e-16
-8.0221e-16
1.75214e-15
-8.45428e-16
-1.19662e-16
-7.90906e-16
-1.04941e-16
-7.92442e-16
1.72895e-15
-8.33389e-16
-1.1784e-16
-7.78286e-16
-1.03185e-16
-7.82841e-16
1.70615e-15
-8.21557e-16
-1.16061e-16
-7.65912e-16
-1.01464e-16
-7.73379e-16
1.68373e-15
-8.09954e-16
-1.14311e-16
-7.53794e-16
-9.97841e-17
-7.64056e-16
1.66169e-15
-7.98552e-16
-1.12594e-16
-7.41917e-16
-7.5489e-16
1.64002e-15
-7.87365e-16
-1.10913e-16
-7.3028e-16
-7.45865e-16
1.61871e-15
-7.7637e-16
-1.0927e-16
-7.18874e-16
-7.36979e-16
1.59777e-15
-7.6558e-16
-1.07649e-16
-7.07697e-16
-7.28232e-16
1.57716e-15
-7.54979e-16
-1.06069e-16
-6.9674e-16
-7.1961e-16
1.55692e-15
-7.44565e-16
-1.04503e-16
-6.85996e-16
-7.11126e-16
1.537e-15
-7.34328e-16
-1.02972e-16
-6.75461e-16
-7.02759e-16
1.51742e-15
-7.24278e-16
-1.01469e-16
-6.65142e-16
-6.94527e-16
1.49815e-15
-7.14413e-16
-9.99971e-17
-6.55025e-16
-6.86408e-16
1.4792e-15
-7.04714e-16
-9.85505e-17
-6.45107e-16
-6.78422e-16
1.46056e-15
-6.95195e-16
-9.71344e-17
-6.35386e-16
-6.70553e-16
1.44221e-15
-6.85834e-16
-9.57492e-17
-6.25853e-16
-6.62801e-16
1.42417e-15
-6.76645e-16
-9.43844e-17
-6.16508e-16
-6.55165e-16
1.40641e-15
-6.67611e-16
-9.30516e-17
-6.07343e-16
-6.47633e-16
1.38895e-15
-6.58732e-16
-9.17288e-17
-5.9835e-16
-6.40214e-16
1.37176e-15
-6.49994e-16
-9.04339e-17
-5.89527e-16
-6.32902e-16
1.35485e-15
-6.41421e-16
-8.91647e-17
-5.80882e-16
-6.25685e-16
1.3382e-15
-6.3299e-16
-8.79186e-17
-5.72402e-16
-6.18579e-16
1.32182e-15
-6.24706e-16
-8.66922e-17
-5.64082e-16
-6.11586e-16
1.30569e-15
-6.16549e-16
-8.54958e-17
-5.55914e-16
-6.04681e-16
1.28981e-15
-6.08549e-16
-8.43162e-17
-5.47912e-16
-5.97875e-16
1.27417e-15
-6.00676e-16
-8.31652e-17
-5.40059e-16
-5.91159e-16
1.25879e-15
-5.92937e-16
-8.20221e-17
-5.3235e-16
-5.84553e-16
1.24364e-15
-5.85313e-16
-8.09094e-17
-5.2478e-16
-5.78024e-16
1.22872e-15
-5.77831e-16
-7.98111e-17
-5.17359e-16
-5.71577e-16
1.21402e-15
-5.70465e-16
-7.87303e-17
-5.10073e-16
-5.65231e-16
1.19956e-15
-5.63229e-16
-7.7673e-17
-5.02926e-16
-5.58971e-16
1.1853e-15
-5.56103e-16
-7.66391e-17
-4.95907e-16
-5.52794e-16
1.17126e-15
-5.491e-16
-7.56166e-17
-4.89019e-16
-5.46704e-16
1.15742e-15
-5.42205e-16
-7.4619e-17
-4.82254e-16
-5.40686e-16
1.1438e-15
-5.35419e-16
-7.36243e-17
-4.75607e-16
-5.34758e-16
1.13038e-15
-5.28734e-16
-7.26512e-17
-4.69077e-16
-5.28894e-16
1.11716e-15
-5.22161e-16
-7.16955e-17
-4.62671e-16
-5.23116e-16
1.10413e-15
-5.15698e-16
-7.07574e-17
-4.56379e-16
-5.17406e-16
1.09128e-15
-5.09332e-16
-6.98334e-17
-4.50198e-16
-5.11781e-16
1.07862e-15
-5.03074e-16
-6.89291e-17
-4.44129e-16
-5.06227e-16
1.06613e-15
-4.96904e-16
-6.80424e-17
-4.38164e-16
-5.00744e-16
1.05384e-15
-4.90838e-16
-6.71656e-17
-4.32305e-16
-4.95332e-16
1.0417e-15
-4.84862e-16
-6.63104e-17
-4.26548e-16
-4.89983e-16
1.02975e-15
-4.78976e-16
-6.54554e-17
-4.20885e-16
-4.84707e-16
1.01797e-15
-4.73168e-16
-6.46173e-17
-4.15316e-16
-4.79494e-16
1.00635e-15
-4.67462e-16
-6.37956e-17
-4.09849e-16
-4.74338e-16
9.94875e-16
-4.61839e-16
-6.29863e-17
-4.04476e-16
-4.69252e-16
9.83574e-16
-4.56303e-16
-6.21885e-17
-3.99191e-16
9.72427e-16
-4.50838e-16
-6.14099e-17
-3.93991e-16
)
;
    }
    axis
    {
        type            empty;
        value           nonuniform 0();
    }
    procBoundary16to10
    {
        type            processor;
        value           nonuniform List<scalar> 
68
(
-7.11298e-06
-7.03076e-06
-6.94978e-06
-6.87001e-06
-6.79142e-06
-6.71399e-06
-6.63769e-06
-6.56251e-06
-6.48843e-06
-6.41541e-06
-6.34345e-06
-6.27251e-06
-6.20259e-06
-6.13365e-06
-6.06569e-06
-5.99867e-06
-5.93259e-06
-5.86742e-06
-5.80315e-06
-5.73976e-06
-5.67723e-06
-5.61554e-06
-5.55468e-06
-5.49464e-06
-5.43539e-06
-5.37693e-06
-5.31923e-06
-5.26229e-06
-5.20608e-06
-5.1506e-06
-5.09582e-06
-5.04175e-06
-4.98836e-06
-4.93564e-06
-4.88358e-06
-4.83216e-06
-4.78138e-06
-4.73123e-06
-4.68168e-06
-4.63274e-06
-4.58439e-06
-4.53661e-06
-4.4894e-06
-4.44276e-06
-4.39666e-06
-4.3511e-06
-4.30606e-06
-4.26155e-06
-4.21755e-06
-1.04984e-05
-1.03565e-05
-1.02169e-05
-1.00796e-05
-9.94465e-06
-9.81192e-06
-9.68142e-06
-9.55309e-06
-9.4269e-06
-9.30282e-06
-9.18081e-06
-9.06083e-06
-8.94285e-06
-8.82683e-06
-8.71274e-06
-8.60053e-06
-8.49018e-06
-0.000441366
-8.38164e-06
)
;
    }
    procBoundary16to11
    {
        type            processor;
        value           nonuniform List<scalar> 2(0.000404079 -4.64101e-06);
    }
    procBoundary16to15
    {
        type            processor;
        value           nonuniform List<scalar> 3(-0.000463049 -0.000448076 -0.000422897);
    }
    procBoundary16to17
    {
        type            processor;
        value           nonuniform List<scalar> 4(0.000409545 0.000409018 0.000402341 0.000389894);
    }
    procBoundary16to21
    {
        type            processor;
        value           nonuniform List<scalar> 2(-0.000389115 -0.000348737);
    }
    procBoundary16to22
    {
        type            processor;
        value           nonuniform List<scalar> 
69
(
9.70926e-06
9.55382e-06
9.40154e-06
9.25235e-06
9.10619e-06
8.96299e-06
8.82267e-06
8.68519e-06
8.55047e-06
8.41845e-06
8.28907e-06
8.16227e-06
8.03799e-06
7.91617e-06
7.79675e-06
7.67969e-06
7.56492e-06
7.4524e-06
7.34206e-06
7.23387e-06
7.12776e-06
7.0237e-06
6.92163e-06
6.82151e-06
6.72329e-06
6.62693e-06
6.53238e-06
6.43961e-06
6.34856e-06
6.25921e-06
6.1715e-06
6.08541e-06
6.0009e-06
5.91792e-06
5.83645e-06
5.75644e-06
5.67787e-06
5.60069e-06
5.52489e-06
5.45042e-06
5.37726e-06
5.30538e-06
5.23474e-06
5.16532e-06
5.09709e-06
1.40234e-05
1.37704e-05
1.35223e-05
1.32792e-05
1.3041e-05
1.28075e-05
1.25789e-05
1.23549e-05
1.21355e-05
1.19207e-05
1.17104e-05
1.15045e-05
1.13028e-05
1.11055e-05
1.09123e-05
1.07231e-05
1.0538e-05
1.03568e-05
1.01794e-05
1.00058e-05
9.83583e-06
9.6695e-06
0.000356538
9.50669e-06
)
;
    }
}


// ************************************************************************* //
