/*--------------------------------*- C++ -*----------------------------------*\
  =========                 |
  \\      /  F ield         | OpenFOAM: The Open Source CFD Toolbox
   \\    /   O peration     | Website:  https://openfoam.org
    \\  /    A nd           | Version:  7
     \\/     M anipulation  |
\*---------------------------------------------------------------------------*/
FoamFile
{
    version     2.0;
    format      ascii;
    class       volVectorField;
    location    "5";
    object      U;
}
// * * * * * * * * * * * * * * * * * * * * * * * * * * * * * * * * * * * * * //

dimensions      [0 1 -1 0 0 0 0];

internalField   nonuniform List<vector> 
344
(
(1.94404 0.0346359 -4.39542e-17)
(1.93897 0.0342156 8.65621e-20)
(1.93399 0.0338018 -3.00213e-17)
(1.92911 0.0333945 1.22962e-17)
(1.92433 0.0329935 2.87434e-17)
(1.91964 0.0325986 6.56518e-17)
(1.91505 0.0322099 4.28482e-17)
(1.91054 0.0318271 7.82583e-17)
(1.90612 0.0314502 5.92513e-17)
(1.90178 0.031079 9.18065e-17)
(1.89753 0.0307134 8.59342e-17)
(1.89336 0.0303534 1.16027e-16)
(1.88927 0.0299987 1.49379e-16)
(1.88526 0.0296493 1.62099e-16)
(1.88133 0.0293051 1.93094e-16)
(1.87747 0.028966 1.69798e-16)
(1.87368 0.0286318 2.07315e-16)
(1.86997 0.0283026 1.8477e-16)
(1.86632 0.0279781 2.15504e-16)
(1.86275 0.0276584 2.06009e-16)
(1.85924 0.0273432 2.42176e-16)
(1.8558 0.0270326 2.52823e-16)
(1.85242 0.0267264 2.90298e-16)
(1.84911 0.0264245 2.44454e-16)
(1.84585 0.0261269 2.90795e-16)
(1.84266 0.0258334 2.73887e-16)
(1.83953 0.0255441 3.14542e-16)
(1.83645 0.0252588 2.71258e-16)
(1.83343 0.0249773 3.14647e-16)
(1.83047 0.0246998 3.29917e-16)
(1.82756 0.024426 3.61255e-16)
(1.8247 0.024156 3.33147e-16)
(1.8219 0.0238896 3.70128e-16)
(1.81914 0.0236268 3.47633e-16)
(1.81644 0.0233674 3.73708e-16)
(1.81378 0.0231115 3.65183e-16)
(1.81117 0.022859 3.90136e-16)
(1.80861 0.0226098 4.23138e-16)
(1.80609 0.0223638 4.29481e-16)
(1.80362 0.0221211 4.57001e-16)
(1.80119 0.0218814 4.2546e-16)
(1.7988 0.0216448 4.56399e-16)
(1.79645 0.0214112 4.3521e-16)
(1.79415 0.0211806 4.5891e-16)
(1.79189 0.0209529 4.47666e-16)
(1.78966 0.020728 4.77617e-16)
(1.78747 0.0205059 4.84155e-16)
(1.78532 0.0202865 5.13829e-16)
(1.78321 0.0200699 4.69476e-16)
(1.86158 0.0463141 -4.35578e-16)
(1.85555 0.0456611 -4.46905e-16)
(1.84965 0.0450192 -4.08133e-16)
(1.84388 0.0443883 -3.97981e-16)
(1.83824 0.0437682 -3.67985e-16)
(1.83273 0.0431588 -3.29151e-16)
(1.82734 0.0425599 -3.42986e-16)
(1.82207 0.0419713 -2.98736e-16)
(1.81692 0.0413928 -3.1703e-16)
(1.81189 0.0408243 -2.67789e-16)
(1.80697 0.0402656 -2.91013e-16)
(1.80216 0.0397165 -2.47481e-16)
(1.79745 0.0391769 -2.43379e-16)
(1.79286 0.0386465 -1.96241e-16)
(1.78836 0.0381253 -2.1501e-16)
(1.78397 0.0376129 -1.67638e-16)
(1.77968 0.0371094 -1.67555e-16)
(1.77548 0.0366144 -1.19471e-16)
(1.77138 0.0361279 -1.5264e-16)
(1.76736 0.0356496 -1.05277e-16)
(1.76344 0.0351795 -1.09101e-16)
(1.75961 0.0347173 -6.47386e-17)
(1.75586 0.0342629 -9.36905e-17)
(1.75219 0.0338161 -3.84531e-17)
(1.74861 0.0333769 -7.0043e-17)
(1.7451 0.0329449 -1.53953e-17)
(1.74168 0.0325202 -4.7965e-17)
(1.73833 0.0321025 -3.25405e-18)
(1.73505 0.0316917 -1.24666e-19)
(1.73185 0.0312877 3.71319e-17)
(1.72871 0.0308903 8.11392e-17)
(1.72565 0.0304994 4.73946e-17)
(1.72265 0.0301149 1.01377e-16)
(1.71972 0.0297366 6.61672e-17)
(1.71686 0.0293645 1.20323e-16)
(1.71405 0.0289983 8.20585e-17)
(1.71131 0.028638 1.25684e-16)
(1.70863 0.0282834 1.25659e-16)
(1.706 0.0279345 1.7731e-16)
(1.70344 0.0275911 1.42339e-16)
(1.70092 0.0272531 1.93773e-16)
(1.69847 0.0269203 1.89004e-16)
(1.69606 0.0265928 2.36137e-16)
(1.69371 0.0262704 1.9236e-16)
(1.6914 0.0259529 2.37287e-16)
(1.68915 0.0256403 2.2898e-16)
(1.68695 0.0253325 2.67273e-16)
(1.68479 0.0250294 2.30062e-16)
(1.68267 0.0247308 2.89174e-16)
(1.68061 0.0244368 2.46458e-16)
(1.67858 0.0241471 2.96749e-16)
(1.6766 0.0238618 2.57905e-16)
(1.67466 0.0235807 3.02292e-16)
(1.67276 0.0233038 3.01567e-16)
(1.6709 0.0230309 3.30317e-16)
(1.66908 0.022762 3.72083e-16)
(1.66729 0.022497 3.30152e-16)
(1.66554 0.0222358 3.78294e-16)
(1.66383 0.0219783 3.36061e-16)
(1.66216 0.0217245 3.85091e-16)
(1.66051 0.0214744 3.49145e-16)
(1.65891 0.0212277 3.85606e-16)
(1.65733 0.0209845 3.82993e-16)
(1.65578 0.0207447 4.25138e-16)
(1.65427 0.0205082 3.87904e-16)
(1.65279 0.020275 4.32622e-16)
(1.65134 0.020045 4.24344e-16)
(1.64991 0.0198181 4.63261e-16)
(1.65772 0.0478579 -5.56367e-16)
(1.65324 0.0471318 -5.43025e-16)
(1.64888 0.0464187 -5.27228e-16)
(1.64462 0.0457184 -4.87624e-16)
(1.64047 0.0450308 -4.7095e-16)
(1.63644 0.0443556 -4.45978e-16)
(1.6325 0.0436927 -4.32621e-16)
(1.62867 0.0430419 -4.07656e-16)
(1.62494 0.0424029 -3.98754e-16)
(1.6213 0.0417755 -3.76135e-16)
(1.61776 0.0411597 -3.67309e-16)
(1.61431 0.040555 -3.52697e-16)
(1.61095 0.0399614 -3.11821e-16)
(1.60768 0.0393787 -2.91858e-16)
(1.6045 0.0388065 -2.8118e-16)
(1.6014 0.0382449 -2.63108e-16)
(1.59838 0.0376934 -2.27943e-16)
(1.59544 0.037152 -2.0928e-16)
(1.59258 0.0366205 -2.09365e-16)
(1.58979 0.0360985 -1.93899e-16)
(1.58708 0.0355861 -1.59792e-16)
(1.58444 0.0350829 -1.45327e-16)
(1.58187 0.0345888 -1.41491e-16)
(1.57937 0.0341036 -1.2165e-16)
(1.57693 0.0336271 -1.21628e-16)
(1.57456 0.0331592 -9.7845e-17)
(1.57225 0.0326996 -9.62191e-17)
(1.57 0.0322483 -8.83811e-17)
(1.56781 0.0318049 -4.5857e-17)
(1.56568 0.0313694 -3.1567e-17)
(1.56361 0.0309417 -1.14825e-17)
(1.56159 0.0305214 -5.45437e-18)
(1.55963 0.0301085 1.71125e-17)
(1.55772 0.0297029 1.82289e-17)
(1.55586 0.0293043 3.5054e-17)
(1.55404 0.0289126 3.19124e-17)
(1.55228 0.0285277 4.20813e-17)
(1.55057 0.0281495 8.29836e-17)
(1.54889 0.0277777 9.94379e-17)
(1.54727 0.0274124 1.02107e-16)
(1.54569 0.0270532 1.15463e-16)
(1.54414 0.0267001 1.48013e-16)
(1.54264 0.026353 1.59995e-16)
(1.54118 0.0260117 1.5288e-16)
(1.53976 0.0256761 1.61223e-16)
(1.53838 0.0253462 1.92201e-16)
(1.53703 0.0250216 1.98052e-16)
(1.53572 0.0247025 1.95237e-16)
(1.53445 0.0243886 2.14124e-16)
(1.5332 0.0240798 2.06834e-16)
(1.53199 0.0237761 2.19722e-16)
(1.53082 0.0234772 2.15965e-16)
(1.52967 0.0231832 2.24309e-16)
(1.52855 0.0228939 2.60334e-16)
(1.52747 0.0226092 2.67734e-16)
(1.52641 0.022329 2.83204e-16)
(1.52538 0.0220533 2.84652e-16)
(1.52438 0.0217818 3.00482e-16)
(1.5234 0.0215146 2.94199e-16)
(1.52245 0.0212516 3.09429e-16)
(1.52153 0.0209926 3.02777e-16)
(1.52063 0.0207375 3.06295e-16)
(1.51975 0.0204864 3.41185e-16)
(1.5189 0.0202391 3.5174e-16)
(1.51807 0.0199955 3.53116e-16)
(1.51726 0.0197556 3.59339e-16)
(1.51647 0.0195192 3.84346e-16)
(1.5157 0.0192864 3.91717e-16)
(1.44928 0.0479147 -6.09246e-16)
(1.44657 0.0471418 -6.03298e-16)
(1.44393 0.0463832 -5.7699e-16)
(1.44139 0.0456389 -5.44161e-16)
(1.43892 0.0449085 -5.17561e-16)
(1.43653 0.0441919 -4.90914e-16)
(1.43422 0.0434889 -4.7204e-16)
(1.43199 0.0427992 -4.45997e-16)
(1.42982 0.0421227 -4.47645e-16)
(1.42774 0.0414591 -4.21687e-16)
(1.42571 0.0408082 -4.1851e-16)
(1.42376 0.0401698 -3.93558e-16)
(1.42188 0.0395436 -3.59186e-16)
(1.42005 0.0389295 -3.32909e-16)
(1.41829 0.0383271 -3.1054e-16)
(1.4166 0.0377364 -2.89441e-16)
(1.41496 0.0371569 -2.83524e-16)
(1.41337 0.0365886 -2.528e-16)
(1.41185 0.0360312 -2.56983e-16)
(1.41037 0.0354845 -2.30262e-16)
(1.40895 0.0349482 -2.21415e-16)
(1.40758 0.0344223 -1.91364e-16)
(1.40626 0.0339063 -1.71141e-16)
(1.40499 0.0334002 -1.48034e-16)
(1.40377 0.0329038 -1.6104e-16)
(1.40259 0.0324167 -1.29672e-16)
(1.40145 0.0319389 -1.39405e-16)
(1.40036 0.0314702 -1.21148e-16)
(1.39931 0.0310103 -8.6001e-17)
(1.3983 0.030559 -6.19788e-17)
(1.39733 0.0301162 -4.19647e-17)
(1.39639 0.0296817 -2.6939e-17)
(1.39549 0.0292554 -8.54334e-18)
(1.39463 0.0288369 -2.1459e-17)
(1.39381 0.0284262 -1.59038e-19)
(1.39301 0.0280231 -1.19816e-17)
(1.39225 0.0276275 9.0133e-18)
(1.39152 0.0272391 3.88242e-17)
(1.39082 0.0268578 6.19667e-17)
(1.39015 0.0264834 7.76616e-17)
(1.38951 0.0261159 9.09858e-17)
(1.38889 0.0257549 8.5819e-17)
(1.38831 0.0254005 1.17304e-16)
(1.38774 0.0250525 1.04618e-16)
(1.38721 0.0247107 1.25228e-16)
(1.3867 0.0243749 1.29148e-16)
(1.38621 0.0240451 1.54051e-16)
(1.38574 0.0237211 1.69327e-16)
(1.3853 0.0234028 1.87536e-16)
(1.38488 0.02309 1.67088e-16)
(1.38448 0.0227827 1.87557e-16)
(1.38409 0.0224807 1.71748e-16)
(1.38373 0.0221839 1.92165e-16)
(1.38339 0.0218922 2.17453e-16)
(1.38306 0.0216054 2.32508e-16)
(1.38276 0.0213235 2.46684e-16)
(1.38247 0.0210464 2.56717e-16)
(1.38219 0.0207739 2.66123e-16)
(1.38193 0.020506 2.48705e-16)
(1.38169 0.0202425 2.68947e-16)
(1.38146 0.0199834 2.53029e-16)
(1.38125 0.0197285 2.65889e-16)
(1.38105 0.0194778 2.90283e-16)
(1.38086 0.0192311 3.08208e-16)
(1.38069 0.0189885 3.18187e-16)
(1.38052 0.0187497 3.26673e-16)
(1.38038 0.0185147 3.20489e-16)
(1.38024 0.0182835 3.42278e-16)
(1.24229 0.0464004 -6.54476e-16)
(1.24141 0.0456125 -6.38632e-16)
(1.24059 0.0448396 -6.22697e-16)
(1.23982 0.0440817 -5.7969e-16)
(1.23909 0.0433384 -5.65413e-16)
(1.23841 0.0426096 -5.47585e-16)
(1.23778 0.0418951 -5.28706e-16)
(1.23719 0.0411947 -5.07536e-16)
(1.23664 0.0405081 -4.94935e-16)
(1.23614 0.0398351 -4.78965e-16)
(1.23567 0.0391756 -4.65527e-16)
(1.23524 0.0385291 -4.5131e-16)
(1.23486 0.0378956 -4.05078e-16)
(1.2345 0.0372748 -3.9243e-16)
(1.23419 0.0366664 -3.77407e-16)
(1.2339 0.0360702 -3.62574e-16)
(1.23365 0.0354859 -3.23813e-16)
(1.23343 0.0349134 -3.12595e-16)
(1.23324 0.0343524 -3.05237e-16)
(1.23309 0.0338027 -2.94643e-16)
(1.23295 0.0332639 -2.54948e-16)
(1.23285 0.032736 -2.47272e-16)
(1.23278 0.0322187 -2.35744e-16)
(1.23272 0.0317117 -2.19761e-16)
(1.2327 0.0312148 -2.13822e-16)
(1.2327 0.0307278 -1.99827e-16)
(1.23272 0.0302506 -1.95856e-16)
(1.23276 0.0297828 -1.88496e-16)
(1.23282 0.0293243 -1.4252e-16)
(1.2329 0.0288748 -1.34605e-16)
(1.23301 0.0284343 -1.21477e-16)
(1.23313 0.0280024 -1.09849e-16)
(1.23327 0.027579 -9.639e-17)
(1.23342 0.0271638 -9.20158e-17)
(1.2336 0.0267568 -8.09466e-17)
(1.23379 0.0263577 -7.7635e-17)
(1.23399 0.0259664 -7.02902e-17)
(1.23421 0.0255826 -2.58485e-17)
(1.23444 0.0252062 -1.96145e-17)
(1.23469 0.024837 -1.13079e-17)
(1.23494 0.0244749 -2.50302e-18)
(1.23521 0.0241197 3.28871e-17)
(1.2355 0.0237713 3.93315e-17)
(1.23579 0.0234294 3.88543e-17)
(1.23609 0.023094 4.32431e-17)
(1.23641 0.0227649 7.8716e-17)
(1.23673 0.0224419 7.99889e-17)
(1.23706 0.0221249 8.3988e-17)
(1.2374 0.0218138 9.42391e-17)
(1.23775 0.0215084 9.23508e-17)
(1.23811 0.0212086 1.0017e-16)
(1.23847 0.0209143 1.01316e-16)
(1.23884 0.0206253 1.0619e-16)
(1.23922 0.0203416 1.4501e-16)
(1.2396 0.020063 1.46467e-16)
(1.23999 0.0197893 1.49282e-16)
(1.24039 0.0195206 1.59268e-16)
(1.24079 0.0192566 1.65396e-16)
(1.24119 0.0189972 1.65603e-16)
(1.2416 0.0187424 1.73018e-16)
(1.24202 0.018492 1.73322e-16)
(1.24244 0.018246 1.76578e-16)
(1.24286 0.0180043 2.13375e-16)
(1.24328 0.0177666 2.1609e-16)
(1.24371 0.0175331 2.18875e-16)
(1.24415 0.0173035 2.24794e-16)
(1.24458 0.0170777 2.54152e-16)
(1.24502 0.0168558 2.53998e-16)
(1.04238 0.0433574 -6.58923e-16)
(1.04329 0.0425886 -6.40164e-16)
(1.04422 0.0418347 -6.26194e-16)
(1.04516 0.0410958 -5.89696e-16)
(1.04611 0.0403715 -5.76392e-16)
(1.04707 0.0396617 -5.62398e-16)
(1.04805 0.0389662 -5.46248e-16)
(1.04903 0.0382848 -5.29735e-16)
(1.05003 0.0376173 -5.14224e-16)
(1.05103 0.0369635 -4.97758e-16)
(1.05204 0.0363231 -4.83888e-16)
(1.05307 0.0356959 -4.6974e-16)
(1.0541 0.0350817 -4.30635e-16)
(1.05513 0.0344802 -4.23053e-16)
(1.05618 0.0338912 -4.07244e-16)
(1.05723 0.0333144 -3.96655e-16)
(1.05828 0.0327497 -3.5656e-16)
(1.05934 0.0321967 -3.4971e-16)
(1.06041 0.0316553 -3.38093e-16)
(1.06147 0.0311252 -3.29246e-16)
(1.06255 0.0306061 -2.92664e-16)
(1.06362 0.0300978 -2.86649e-16)
(1.0647 0.0296002 -2.78334e-16)
)
;

boundaryField
{
    inlet
    {
        type            uniformFixedValue;
        uniformValue    constant (1 0 0);
        value           nonuniform 0();
    }
    outlet
    {
        type            pressureInletOutletVelocity;
        value           nonuniform 0();
    }
    wall
    {
        type            fixedValue;
        value           nonuniform 0();
    }
    wedge1
    {
        type            wedge;
    }
    wedge2
    {
        type            wedge;
    }
    axis
    {
        type            empty;
    }
    procBoundary16to10
    {
        type            processor;
        value           nonuniform List<vector> 
68
(
(2.10662 0.0322933 6.84381e-17)
(2.1007 0.0319393 7.96022e-17)
(2.09489 0.0315904 1.04887e-16)
(2.08918 0.0312464 1.05816e-16)
(2.08356 0.0309072 1.07903e-16)
(2.07804 0.0305728 1.27711e-16)
(2.07262 0.030243 1.26561e-16)
(2.06729 0.0299178 1.43738e-16)
(2.06205 0.029597 1.48889e-16)
(2.0569 0.0292806 1.54806e-16)
(2.05184 0.0289685 1.86922e-16)
(2.04686 0.0286606 1.89926e-16)
(2.04197 0.0283568 2.01986e-16)
(2.03716 0.028057 2.11482e-16)
(2.03243 0.0277612 2.35799e-16)
(2.02778 0.0274693 2.35622e-16)
(2.02321 0.0271812 2.513e-16)
(2.01871 0.0268968 2.51503e-16)
(2.01429 0.0266161 2.5825e-16)
(2.00994 0.026339 2.91544e-16)
(2.00567 0.0260654 2.97565e-16)
(2.00146 0.0257952 3.02222e-16)
(1.99733 0.0255284 3.19938e-16)
(1.99326 0.025265 3.43668e-16)
(1.98926 0.0250048 3.47954e-16)
(1.98532 0.0247478 3.38258e-16)
(1.98145 0.024494 3.43348e-16)
(1.97764 0.0242432 3.67941e-16)
(1.97389 0.0239955 3.63497e-16)
(1.9702 0.0237507 3.6467e-16)
(1.96657 0.0235088 3.84148e-16)
(1.963 0.0232698 3.81368e-16)
(1.95949 0.0230336 3.9753e-16)
(1.95603 0.0228002 3.96079e-16)
(1.95262 0.0225694 3.98235e-16)
(1.94927 0.0223413 4.32682e-16)
(1.94598 0.0221159 4.33254e-16)
(1.94273 0.021893 4.42964e-16)
(1.93953 0.0216726 4.49294e-16)
(1.93639 0.0214547 4.67274e-16)
(1.93329 0.0212392 4.63321e-16)
(1.93024 0.0210261 4.78774e-16)
(1.92724 0.0208154 4.76188e-16)
(1.92428 0.020607 4.79483e-16)
(1.92137 0.0204008 5.09784e-16)
(1.9185 0.0201969 5.10017e-16)
(1.91568 0.0199952 5.14377e-16)
(1.9129 0.0197956 5.2209e-16)
(1.91016 0.0195982 5.43984e-16)
(2.05504 0.0434803 -2.8458e-16)
(2.04777 0.0429185 -2.89469e-16)
(2.04064 0.0423657 -2.58489e-16)
(2.03365 0.0418217 -2.57088e-16)
(2.0268 0.0412865 -2.29219e-16)
(2.02009 0.0407599 -2.00864e-16)
(2.01351 0.0402418 -1.87119e-16)
(2.00706 0.039732 -1.59461e-16)
(2.00074 0.0392305 -1.75134e-16)
(1.99455 0.038737 -1.41906e-16)
(1.98848 0.0382514 -1.54319e-16)
(1.98253 0.0377737 -1.23552e-16)
(1.97669 0.0373036 -1.26244e-16)
(1.97098 0.036841 -9.26252e-17)
(1.96537 0.0363858 -7.48812e-17)
(1.95988 0.0359378 -3.93842e-17)
(1.95449 0.0354969 -7.44796e-17)
(1.94922 0.035063 -2.84489e-17)
(1.94922 0.035063 -2.84489e-17)
)
;
    }
    procBoundary16to11
    {
        type            processor;
        value           uniform (1.78113 0.0198559 5.12865e-16);
    }
    procBoundary16to15
    {
        type            processor;
        value           nonuniform List<vector> 3((1.86776 0.0469784 -4.8163e-16) (1.66232 0.0485972 -5.79605e-16) (1.45209 0.0487022 -6.38863e-16));
    }
    procBoundary16to17
    {
        type            processor;
        value           nonuniform List<vector> 4((1.64852 0.0195942 4.22402e-16) (1.51495 0.0190569 3.82483e-16) (1.38011 0.018056 3.2881e-16) (1.24546 0.0166376 2.51697e-16));
    }
    procBoundary16to21
    {
        type            processor;
        value           nonuniform List<vector> 2((1.24321 0.0472036 -6.75642e-16) (1.04148 0.0441414 -6.76445e-16));
    }
    procBoundary16to22
    {
        type            processor;
        value           nonuniform List<vector> 
69
(
(1.06578 0.0291129 -2.68068e-16)
(1.06686 0.0286357 -2.56058e-16)
(1.06795 0.0281685 -2.45032e-16)
(1.06903 0.027711 -2.36408e-16)
(1.07012 0.0272629 -2.29255e-16)
(1.0712 0.0268241 -1.89828e-16)
(1.07229 0.0263943 -1.84909e-16)
(1.07337 0.0259734 -1.77454e-16)
(1.07446 0.0255612 -1.67776e-16)
(1.07554 0.0251574 -1.57219e-16)
(1.07662 0.0247618 -1.44641e-16)
(1.07771 0.0243743 -1.37683e-16)
(1.07878 0.0239947 -1.29807e-16)
(1.07986 0.0236227 -1.21934e-16)
(1.08094 0.0232583 -8.43429e-17)
(1.08201 0.0229012 -8.25014e-17)
(1.08308 0.0225513 -7.49189e-17)
(1.08414 0.0222084 -6.87e-17)
(1.08521 0.0218722 -3.30283e-17)
(1.08626 0.0215428 -3.03289e-17)
(1.08732 0.0212199 -2.52327e-17)
(1.08837 0.0209033 -2.3806e-17)
(1.08942 0.0205929 1.46841e-17)
(1.09046 0.0202886 1.24189e-17)
(1.0915 0.0199902 1.60271e-17)
(1.09254 0.0196976 2.1161e-17)
(1.09357 0.0194106 2.47046e-17)
(1.09459 0.0191291 3.172e-17)
(1.09562 0.018853 3.65738e-17)
(1.09663 0.0185821 3.77422e-17)
(1.09764 0.0183164 7.19132e-17)
(1.09865 0.0180556 7.06709e-17)
(1.09965 0.0177998 7.42095e-17)
(1.10064 0.0175487 8.16176e-17)
(1.10163 0.0173022 8.57998e-17)
(1.10262 0.0170603 9.17996e-17)
(1.1036 0.0168229 9.51252e-17)
(1.10457 0.0165898 1.01606e-16)
(1.10553 0.0163609 1.04231e-16)
(1.1065 0.0161361 1.36498e-16)
(1.10745 0.0159154 1.3733e-16)
(1.1084 0.0156986 1.41663e-16)
(1.10934 0.0154857 1.42009e-16)
(1.11028 0.0152765 1.73204e-16)
(1.11121 0.015071 1.74028e-16)
(0.916847 0.0404623 -6.42358e-16)
(0.918826 0.0397275 -6.22394e-16)
(0.920794 0.0390072 -6.11297e-16)
(0.922752 0.0383013 -5.89534e-16)
(0.924699 0.0376096 -5.72115e-16)
(0.926636 0.036932 -5.56354e-16)
(0.928562 0.0362682 -5.36484e-16)
(0.930477 0.0356181 -5.24944e-16)
(0.932382 0.0349815 -5.05803e-16)
(0.934276 0.0343581 -4.94669e-16)
(0.936158 0.0337478 -4.76867e-16)
(0.93803 0.0331503 -4.68334e-16)
(0.93989 0.0325654 -4.46852e-16)
(0.941739 0.0319929 -4.3171e-16)
(0.943576 0.0314324 -4.11144e-16)
(0.945401 0.0308839 -4.04008e-16)
(0.947215 0.0303471 -3.80998e-16)
(0.949017 0.0298217 -3.67477e-16)
(0.950807 0.0293075 -3.47365e-16)
(0.952585 0.0288042 -3.42537e-16)
(0.954351 0.0283117 -3.22156e-16)
(0.956105 0.0278297 -3.08494e-16)
(1.06578 0.0291129 -2.68068e-16)
(0.957847 0.0273579 -2.94322e-16)
)
;
    }
}


// ************************************************************************* //
