/*--------------------------------*- C++ -*----------------------------------*\
  =========                 |
  \\      /  F ield         | OpenFOAM: The Open Source CFD Toolbox
   \\    /   O peration     | Website:  https://openfoam.org
    \\  /    A nd           | Version:  7
     \\/     M anipulation  |
\*---------------------------------------------------------------------------*/
FoamFile
{
    version     2.0;
    format      ascii;
    class       volScalarField;
    location    "8";
    object      p;
}
// * * * * * * * * * * * * * * * * * * * * * * * * * * * * * * * * * * * * * //

dimensions      [0 2 -2 0 0 0 0];

internalField   nonuniform List<scalar> 
433
(
0.0467346
0.0522438
0.060238
0.0674655
0.0754839
0.0805203
0.0774969
0.0841221
0.090427
0.0968309
0.104235
0.109
0.0973774
0.103474
0.109351
0.11497
0.120327
0.125812
0.13242
0.13764
0.125928
0.131109
0.136037
0.140671
0.144992
0.148981
0.152658
0.156694
0.162
0.151885
0.156355
0.160631
0.164634
0.168275
0.171462
0.174122
0.176027
0.176041
0.172799
0.174219
0.181326
0.185009
0.188611
0.192065
0.195303
0.198258
0.200857
0.203044
0.204808
0.206027
0.205831
0.203605
0.207084
0.214122
0.216867
0.219632
0.222351
0.224962
0.227403
0.229613
0.231535
0.23311
0.234303
0.23512
0.23547
0.23469
0.232657
0.236345
0.251877
0.253674
0.255514
0.257341
0.259095
0.260717
0.262152
0.263348
0.264255
0.264829
0.265045
0.264922
0.264382
0.262861
0.260394
0.263262
0.289872
0.290613
0.29147
0.292392
0.293324
0.294213
0.295003
0.29564
0.296077
0.296266
0.296168
0.295747
0.29499
0.29392
0.292472
0.290151
0.287056
0.28883
0.330202
0.330017
0.329957
0.329977
0.330026
0.330054
0.33001
0.329842
0.329503
0.328949
0.328141
0.327045
0.325634
0.323901
0.32187
0.319485
0.316313
0.312491
0.313067
0.366335
0.365469
0.364504
0.363392
0.36209
0.360561
0.35877
0.35669
0.354299
0.351595
0.348603
0.345273
0.341226
0.336632
0.335962
0.395444
0.393202
0.39072
0.387969
0.384926
0.381575
0.377918
0.373979
0.369713
0.364796
0.359417
0.357488
0.411596
0.407316
0.402734
0.397874
0.392699
0.386935
0.380777
0.377603
0.420182
0.414136
0.40756
0.400646
0.396263
0.413422
0.159709
0.127053
0.0947989
0.0673672
0.0410201
0.137118
0.110195
0.0818933
0.0582751
0.0357856
0.11601
0.0919284
0.0672117
0.0464933
0.0269137
0.0984935
0.0770234
0.0556966
0.0376749
0.0205936
0.083717
0.0646754
0.046285
0.0306381
0.0157247
0.0714691
0.0545871
0.0386826
0.0250559
0.0119914
0.0612964
0.0463203
0.0325391
0.0206485
0.00917779
0.0528234
0.0395433
0.0275804
0.0171841
0.00708977
0.0457784
0.0340083
0.0235984
0.0144838
0.0055769
0.0399305
0.0294993
0.0204132
0.0123972
0.00451619
0.0350792
0.0258313
0.0178757
0.0108034
0.167726
0.174412
0.187405
0.203614
0.22208
0.238616
0.250859
0.249352
0.234693
0.177655
0.166224
0.172534
0.184677
0.199478
0.215738
0.229085
0.237131
0.230586
0.211682
0.154665
0.164583
0.170496
0.181747
0.195108
0.209229
0.219678
0.224298
0.214299
0.19352
0.140426
0.162781
0.168257
0.178544
0.190377
0.202268
0.209796
0.211033
0.197965
0.175079
0.12514
0.160819
0.165831
0.175111
0.185378
0.195034
0.199747
0.197812
0.18218
0.157399
0.110498
0.158695
0.163224
0.171471
0.180165
0.187637
0.189729
0.184971
0.167391
0.141343
0.0977079
0.156406
0.160437
0.16763
0.17476
0.180125
0.179814
0.172604
0.153639
0.126941
0.0866298
0.153951
0.157471
0.1636
0.169187
0.172541
0.170055
0.160758
0.140885
0.114036
0.0769446
0.151329
0.15433
0.159393
0.163476
0.164932
0.16051
0.14948
0.129101
0.102511
0.0684699
0.148542
0.151019
0.155025
0.157657
0.157347
0.151231
0.138812
0.118264
0.092271
0.0610814
0.145592
0.147547
0.150515
0.151763
0.149832
0.142265
0.128779
0.108342
0.0832094
0.0546627
0.142484
0.242238
0.27157
0.304515
0.339794
0.371442
0.406011
0.174169
0.181469
0.196323
0.216059
0.241247
0.269923
0.301851
0.335131
0.363769
0.394441
0.173725
0.180994
0.19577
0.215328
0.240166
0.268129
0.298948
0.330012
0.355489
0.381746
0.173243
0.180492
0.195173
0.214539
0.238997
0.266192
0.295813
0.324446
0.346644
0.367905
0.172725
0.179953
0.194533
0.213694
0.237743
0.264121
0.29245
0.318448
0.337275
0.352886
0.17217
0.179377
0.193851
0.212795
0.236406
0.261916
0.288856
0.312029
0.327408
0.336633
0.171579
0.178765
0.193125
0.211838
0.234976
0.259567
0.285009
0.305176
0.317028
0.319057
0.170953
0.178121
0.192363
0.210832
0.233469
0.257094
0.28093
0.297941
0.306172
0.300106
0.170305
0.177459
0.191597
0.209843
0.231996
0.254676
0.276876
0.290689
0.295215
0.279971
0.169619
0.176779
0.190836
0.208894
0.23061
0.252398
0.272954
0.283545
0.284177
0.258231
0.168874
0.17596
0.189796
0.207453
0.228396
0.248812
0.267016
0.273643
0.269395
0.230832
)
;

boundaryField
{
    inlet
    {
        type            zeroGradient;
    }
    outlet
    {
        type            fixedValue;
        value           nonuniform 0();
    }
    cylinder
    {
        type            zeroGradient;
    }
    top
    {
        type            symmetryPlane;
    }
    bottom
    {
        type            symmetryPlane;
    }
    defaultFaces
    {
        type            empty;
    }
    procBoundary24to18
    {
        type            processor;
        value           nonuniform List<scalar> 
35
(
0.369753
0.368811
0.367958
0.367149
0.367149
0.401087
0.399346
0.397479
0.397479
0.425804
0.422653
0.419249
0.41557
0.41557
0.436557
0.431389
0.425922
0.425922
0.440802
0.433936
0.426594
0.41896
0.41896
0.429033
0.243137
0.273064
0.306936
0.343995
0.378469
0.416465
0.174574
0.18192
0.196831
0.216731
0.216731
)
;
    }
    procBoundary24to19
    {
        type            processor;
        value           nonuniform List<scalar> 8(0.211456 0.211456 0.248641 0.250182 0.250182 0.289295 0.289295 0.330556);
    }
    procBoundary24to25
    {
        type            processor;
        value           nonuniform List<scalar> 
24
(
0.0182715
0.0243891
0.0300691
0.0380964
0.0380964
0.0455084
0.0530473
0.0530473
0.0634823
0.0705942
0.0705942
0.0910922
0.0910922
0.115033
0.120548
0.120548
0.142658
0.147295
0.147295
0.173989
0.17763
0.17763
0.0151786
0.0133859
)
;
    }
    procBoundary24to30
    {
        type            processor;
        value           nonuniform List<scalar> 
17
(
0.00381131
0.031057
0.0228532
0.0158661
0.00381131
0.00960735
0.143922
0.145881
0.145826
0.14243
0.133649
0.119392
0.0992927
0.0752154
0.0491037
0.143922
0.139224
)
;
    }
    procBoundary24to31
    {
        type            processor;
        value           nonuniform List<scalar> 8(0.00744587 0.00362734 0.000914139 -0.000985739 -0.0022235 -0.00295506 -0.00329946 -0.00335044);
    }
}


// ************************************************************************* //
