/*--------------------------------*- C++ -*----------------------------------*\
  =========                 |
  \\      /  F ield         | OpenFOAM: The Open Source CFD Toolbox
   \\    /   O peration     | Website:  https://openfoam.org
    \\  /    A nd           | Version:  7
     \\/     M anipulation  |
\*---------------------------------------------------------------------------*/
FoamFile
{
    version     2.0;
    format      ascii;
    class       volVectorField;
    location    "90.000652";
    object      U;
}
// * * * * * * * * * * * * * * * * * * * * * * * * * * * * * * * * * * * * * //

dimensions      [0 1 -1 0 0 0 0];

internalField   nonuniform List<vector> 
5800
(
(-0.0983885 -0.030862 -7.77024e-21)
(-0.126507 -0.0307952 -3.26149e-21)
(-0.147889 -0.0298347 1.97006e-20)
(-0.162692 -0.0280817 -7.74206e-21)
(-0.170921 -0.0257243 8.76001e-22)
(1.05139 -0.000812996 0)
(1.05201 -0.000797283 0)
(1.05262 -0.000780966 0)
(1.05323 -0.000764029 0)
(1.05384 -0.000746458 0)
(1.05444 -0.000728239 0)
(1.05505 -0.00070936 0)
(1.05565 -0.000689811 0)
(1.05624 -0.000669587 0)
(1.05683 -0.000648684 0)
(1.05741 -0.0006271 0)
(1.05799 -0.000604838 0)
(1.05855 -0.0005819 0)
(1.0591 -0.000558293 0)
(1.05964 -0.000534026 0)
(1.06017 -0.000509111 0)
(1.06068 -0.000483562 0)
(1.06117 -0.000457396 0)
(1.06165 -0.00043063 0)
(1.06211 -0.000403288 0)
(1.06254 -0.000375392 0)
(1.06295 -0.000346967 0)
(1.06334 -0.000318041 0)
(1.0637 -0.000288642 0)
(1.06403 -0.0002588 0)
(1.06433 -0.000228543 0)
(1.0646 -0.000197905 0)
(1.06483 -0.000166912 0)
(1.06503 -0.000135596 0)
(1.06519 -0.000103983 0)
(1.06531 -7.21024e-05 0)
(1.06539 -3.9972e-05 0)
(1.06542 -7.62336e-06 0)
(1.06541 2.49404e-05 0)
(1.06535 5.76803e-05 0)
(1.06523 9.06176e-05 0)
(1.06507 0.000123697 0)
(1.06485 0.000156974 0)
(1.06457 0.000190357 0)
(1.06423 0.000223957 0)
(1.06383 0.000257614 0)
(1.06336 0.000291519 0)
(1.06283 0.0003254 0)
(1.06221 0.00035956 0)
(1.06155 0.00039355 0)
(1.06077 0.00042783 0)
(1.05996 0.000461706 0)
(1.05901 0.000495822 0)
(1.05805 0.000529199 0)
(1.0569 0.000562636 0)
(1.0558 0.000594925 0)
(1.05442 0.000626856 0)
(1.05319 0.000657252 0)
(1.05156 0.000686462 0)
(1.05024 0.000713985 0)
(1.04831 0.000738833 0)
(1.04695 0.000762421 0)
(1.04466 0.000780879 0)
(1.04337 0.000799535 0)
(1.04064 0.000809342 0)
(1.03957 0.000822264 0)
(1.03625 0.000821284 0)
(1.03563 0.000827986 0)
(1.03152 0.000814845 0)
(1.05161 -0.00241057 0)
(1.05222 -0.00236532 0)
(1.05283 -0.00231808 0)
(1.05345 -0.00226883 0)
(1.05406 -0.00221754 0)
(1.05467 -0.00216418 0)
(1.05527 -0.00210873 0)
(1.05587 -0.00205118 0)
(1.05647 -0.00199153 0)
(1.05706 -0.00192977 0)
(1.05764 -0.0018659 0)
(1.05822 -0.00179995 0)
(1.05878 -0.00173192 0)
(1.05933 -0.00166184 0)
(1.05988 -0.00158975 0)
(1.0604 -0.00151569 0)
(1.06091 -0.00143971 0)
(1.06141 -0.00136185 0)
(1.06189 -0.00128218 0)
(1.06234 -0.00120076 0)
(1.06278 -0.00111768 0)
(1.06319 -0.00103301 0)
(1.06357 -0.000946826 0)
(1.06393 -0.000859226 0)
(1.06426 -0.000770297 0)
(1.06456 -0.000680131 0)
(1.06483 -0.000588821 0)
(1.06506 -0.000496455 0)
(1.06526 -0.000403129 0)
(1.06542 -0.000308917 0)
(1.06554 -0.000213913 0)
(1.06562 -0.000118169 0)
(1.06565 -2.1776e-05 0)
(1.06563 7.52488e-05 0)
(1.06557 0.000172805 0)
(1.06546 0.000270936 0)
(1.06529 0.000369505 0)
(1.06507 0.000468639 0)
(1.06479 0.000568124 0)
(1.06445 0.000668214 0)
(1.06405 0.000768539 0)
(1.06358 0.000869536 0)
(1.06305 0.000970566 0)
(1.06243 0.00107232 0)
(1.06176 0.00117374 0)
(1.06098 0.00127583 0)
(1.06017 0.00137702 0)
(1.05921 0.00147858 0)
(1.05826 0.00157842 0)
(1.0571 0.00167787 0)
(1.056 0.00177467 0)
(1.05462 0.00186947 0)
(1.05339 0.0019609 0)
(1.05175 0.00204729 0)
(1.05042 0.00213054 0)
(1.04849 0.00220349 0)
(1.04712 0.00227551 0)
(1.04483 0.00232878 0)
(1.04353 0.00238671 0)
(1.04079 0.00241346 0)
(1.03971 0.00245486 0)
(1.03639 0.002449 0)
(1.03576 0.00247162 0)
(1.03164 0.00243039 0)
(1.05202 -0.00399294 0)
(1.05264 -0.00391767 0)
(1.05326 -0.00383907 0)
(1.05387 -0.00375711 0)
(1.05449 -0.00367176 0)
(1.0551 -0.00358299 0)
(1.05571 -0.00349077 0)
(1.05631 -0.00339509 0)
(1.05691 -0.00329592 0)
(1.05751 -0.00319328 0)
(1.05809 -0.00308718 0)
(1.05867 -0.00297764 0)
(1.05923 -0.00286468 0)
(1.05979 -0.00274837 0)
(1.06033 -0.00262874 0)
(1.06086 -0.00250587 0)
(1.06137 -0.00237984 0)
(1.06187 -0.00225074 0)
(1.06234 -0.00211868 0)
(1.0628 -0.00198375 0)
(1.06324 -0.0018461 0)
(1.06365 -0.00170585 0)
(1.06403 -0.00156314 0)
(1.06439 -0.00141811 0)
(1.06472 -0.00127092 0)
(1.06502 -0.00112173 0)
(1.06529 -0.000970674 0)
(1.06552 -0.000817915 0)
(1.06571 -0.000663604 0)
(1.06587 -0.000507869 0)
(1.06599 -0.000350857 0)
(1.06606 -0.000192662 0)
(1.06609 -3.34215e-05 0)
(1.06608 0.000126824 0)
(1.06601 0.000287933 0)
(1.0659 0.000449954 0)
(1.06573 0.000612704 0)
(1.0655 0.000776348 0)
(1.06522 0.000940607 0)
(1.06488 0.00110582 0)
(1.06448 0.0012715 0)
(1.064 0.00143823 0)
(1.06347 0.00160516 0)
(1.06284 0.00177316 0)
(1.06218 0.00194089 0)
(1.06139 0.00210949 0)
(1.06058 0.00227702 0)
(1.05962 0.00244477 0)
(1.05865 0.00261034 0)
(1.05749 0.00277456 0)
(1.05638 0.00293544 0)
(1.055 0.00309182 0)
(1.05376 0.00324424 0)
(1.05211 0.00338641 0)
(1.05078 0.00352581 0)
(1.04883 0.00364518 0)
(1.04746 0.00376664 0)
(1.04515 0.00385263 0)
(1.04384 0.00395149 0)
(1.04109 0.00399265 0)
(1.04 0.00406472 0)
(1.03665 0.00405128 0)
(1.03602 0.00409192 0)
(1.03188 0.00402073 0)
(1.05263 -0.00555207 0)
(1.05325 -0.005447 0)
(1.05388 -0.00533729 0)
(1.0545 -0.0052229 0)
(1.05512 -0.0051038 0)
(1.05573 -0.00497994 0)
(1.05635 -0.00485129 0)
(1.05696 -0.0047178 0)
(1.05756 -0.00457949 0)
(1.05816 -0.00443634 0)
(1.05875 -0.00428838 0)
(1.05933 -0.00413564 0)
(1.0599 -0.00397817 0)
(1.06045 -0.00381603 0)
(1.061 -0.00364931 0)
(1.06153 -0.0034781 0)
(1.06204 -0.00330251 0)
(1.06254 -0.00312269 0)
(1.06302 -0.00293877 0)
(1.06347 -0.00275092 0)
(1.06391 -0.00255932 0)
(1.06432 -0.00236414 0)
(1.0647 -0.00216559 0)
(1.06506 -0.00196389 0)
(1.06539 -0.00175923 0)
(1.06569 -0.00155184 0)
(1.06595 -0.00134194 0)
(1.06618 -0.00112973 0)
(1.06637 -0.000915434 0)
(1.06653 -0.000699226 0)
(1.06664 -0.000481309 0)
(1.06671 -0.000261817 0)
(1.06674 -4.09293e-05 0)
(1.06672 0.000181292 0)
(1.06665 0.000404666 0)
(1.06653 0.00062926 0)
(1.06636 0.000854846 0)
(1.06613 0.00108164 0)
(1.06585 0.00130931 0)
(1.0655 0.00153828 0)
(1.06509 0.00176798 0)
(1.06461 0.00199912 0)
(1.06408 0.00223068 0)
(1.06345 0.00246372 0)
(1.06278 0.00269659 0)
(1.06199 0.00293065 0)
(1.06117 0.00316353 0)
(1.0602 0.0033966 0)
(1.05924 0.00362711 0)
(1.05807 0.00385547 0)
(1.05695 0.00407983 0)
(1.05556 0.00429739 0)
(1.05431 0.00451038 0)
(1.05265 0.00470812 0)
(1.0513 0.00490336 0)
(1.04934 0.00506911 0)
(1.04795 0.00523971 0)
(1.04563 0.00535851 0)
(1.0443 0.00549788 0)
(1.04152 0.0055536 0)
(1.04042 0.00565576 0)
(1.03704 0.00563482 0)
(1.0364 0.00569287 0)
(1.03222 0.00559128 0)
(1.05342 -0.00709709 0)
(1.05405 -0.00696212 0)
(1.05468 -0.00682121 0)
(1.05531 -0.00667429 0)
(1.05593 -0.00652132 0)
(1.05656 -0.00636225 0)
(1.05718 -0.00619703 0)
(1.05779 -0.00602563 0)
(1.0584 -0.00584805 0)
(1.059 -0.00566429 0)
(1.0596 -0.00547439 0)
(1.06018 -0.00527839 0)
(1.06075 -0.00507636 0)
(1.06132 -0.0048684 0)
(1.06186 -0.0046546 0)
(1.0624 -0.00443511 0)
(1.06291 -0.00421008 0)
(1.06341 -0.00397967 0)
(1.06389 -0.0037441 0)
(1.06435 -0.00350356 0)
(1.06478 -0.0032583 0)
(1.06519 -0.00300856 0)
(1.06557 -0.00275461 0)
(1.06593 -0.0024967 0)
(1.06626 -0.00223514 0)
(1.06655 -0.00197019 0)
(1.06681 -0.00170214 0)
(1.06704 -0.00143127 0)
(1.06723 -0.00115784 0)
(1.06738 -0.000882088 0)
(1.06749 -0.000604272 0)
(1.06756 -0.000324558 0)
(1.06758 -4.31675e-05 0)
(1.06755 0.000239822 0)
(1.06748 0.000524203 0)
(1.06736 0.000810066 0)
(1.06718 0.00109715 0)
(1.06695 0.00138573 0)
(1.06666 0.00167543 0)
(1.0663 0.00196681 0)
(1.0659 0.00225917 0)
(1.06541 0.00255343 0)
(1.06487 0.00284836 0)
(1.06424 0.00314529 0)
(1.06356 0.00344222 0)
(1.06277 0.00374079 0)
(1.06194 0.00403817 0)
(1.06097 0.00433588 0)
(1.05999 0.00463074 0)
(1.05881 0.00492283 0)
(1.05769 0.00521036 0)
(1.05628 0.00548896 0)
(1.05502 0.00576244 0)
(1.05335 0.00601583 0)
(1.05198 0.00626698 0)
(1.05 0.0064793 0)
(1.04859 0.00669913 0)
(1.04624 0.00685088 0)
(1.04489 0.00703079 0)
(1.04208 0.00710101 0)
(1.04096 0.00723313 0)
(1.03755 0.00720424 0)
(1.03689 0.00727944 0)
(1.03266 0.00714642 0)
(1.05439 -0.00863136 0)
(1.05503 -0.00846613 0)
(1.05566 -0.00829364 0)
(1.0563 -0.00811382 0)
(1.05693 -0.00792664 0)
(1.05757 -0.00773201 0)
(1.05819 -0.0075299 0)
(1.05881 -0.00732028 0)
(1.05943 -0.00710314 0)
(1.06004 -0.00687849 0)
(1.06064 -0.0066464 0)
(1.06123 -0.00640691 0)
(1.0618 -0.00616012 0)
(1.06237 -0.00590616 0)
(1.06292 -0.00564515 0)
(1.06346 -0.00537728 0)
(1.06397 -0.00510273 0)
(1.06447 -0.00482174 0)
(1.06495 -0.00453455 0)
(1.06541 -0.00424143 0)
(1.06585 -0.00394268 0)
(1.06625 -0.0036386 0)
(1.06664 -0.00332953 0)
(1.06699 -0.00301581 0)
(1.06731 -0.00269779 0)
(1.06761 -0.00237582 0)
(1.06786 -0.00205025 0)
(1.06809 -0.00172141 0)
(1.06827 -0.00138965 0)
(1.06842 -0.00105524 0)
(1.06852 -0.000718502 0)
(1.06858 -0.000379625 0)
(1.0686 -3.88694e-05 0)
(1.06857 0.000303675 0)
(1.06849 0.000647786 0)
(1.06836 0.000993585 0)
(1.06818 0.00134078 0)
(1.06794 0.00168976 0)
(1.06765 0.00204008 0)
(1.06729 0.00239246 0)
(1.06687 0.00274612 0)
(1.06638 0.0031022 0)
(1.06584 0.00345927 0)
(1.0652 0.00381895 0)
(1.06451 0.00417892 0)
(1.06371 0.00454113 0)
(1.06288 0.00490229 0)
(1.0619 0.00526409 0)
(1.06091 0.00562292 0)
(1.05972 0.00597855 0)
(1.05859 0.00632922 0)
(1.05716 0.00666898 0)
(1.05589 0.00700322 0)
(1.05419 0.00731257 0)
(1.05281 0.00762011 0)
(1.0508 0.00787932 0)
(1.04937 0.00814895 0)
(1.04699 0.00833379 0)
(1.04562 0.00855474 0)
(1.04276 0.00863914 0)
(1.04162 0.00880157 0)
(1.03816 0.00876377 0)
(1.03749 0.00885628 0)
(1.0332 0.00869016 0)
(1.05552 -0.0101582 0)
(1.05617 -0.00996221 0)
(1.05682 -0.00975766 0)
(1.05746 -0.00954448 0)
(1.05811 -0.00932259 0)
(1.05875 -0.00909193 0)
(1.05938 -0.00885245 0)
(1.06001 -0.00860413 0)
(1.06064 -0.00834696 0)
(1.06125 -0.00808098 0)
(1.06186 -0.00780624 0)
(1.06245 -0.00752285 0)
(1.06303 -0.0072309 0)
(1.0636 -0.00693057 0)
(1.06416 -0.00662202 0)
(1.0647 -0.00630547 0)
(1.06522 -0.00598116 0)
(1.06572 -0.00564938 0)
(1.0662 -0.00531043 0)
(1.06666 -0.00496465 0)
(1.06709 -0.00461239 0)
(1.0675 -0.00425404 0)
(1.06788 -0.00389001 0)
(1.06823 -0.0035207 0)
(1.06855 -0.00314654 0)
(1.06884 -0.00276796 0)
(1.06909 -0.00238538 0)
(1.06931 -0.00199921 0)
(1.06949 -0.00160984 0)
(1.06963 -0.00121762 0)
(1.06973 -0.000822899 0)
(1.06978 -0.000425898 0)
(1.06979 -2.69358e-05 0)
(1.06976 0.000373941 0)
(1.06967 0.000776493 0)
(1.06953 0.00118087 0)
(1.06935 0.00158677 0)
(1.0691 0.00199469 0)
(1.0688 0.00240418 0)
(1.06843 0.00281613 0)
(1.06801 0.00322969 0)
(1.06751 0.00364624 0)
(1.06696 0.00406421 0)
(1.06632 0.00448553 0)
(1.06563 0.00490757 0)
(1.06482 0.00533262 0)
(1.06398 0.00575695 0)
(1.06299 0.00618244 0)
(1.06199 0.00660506 0)
(1.06079 0.00702423 0)
(1.05964 0.00743828 0)
(1.0582 0.00783955 0)
(1.05691 0.00823515 0)
(1.05519 0.00860104 0)
(1.05378 0.00896581 0)
(1.05175 0.00927248 0)
(1.05029 0.00959284 0)
(1.04787 0.00981099 0)
(1.04647 0.0100738 0)
(1.04357 0.010172 0)
(1.0424 0.0103654 0)
(1.03888 0.0103174 0)
(1.03819 0.0104276 0)
(1.03383 0.0102262 0)
(1.05682 -0.011681 0)
(1.05748 -0.0114537 0)
(1.05814 -0.0112164 0)
(1.0588 -0.0109692 0)
(1.05945 -0.0107119 0)
(1.0601 -0.0104445 0)
(1.06074 -0.010167 0)
(1.06138 -0.00987931 0)
(1.06202 -0.00958145 0)
(1.06264 -0.00927347 0)
(1.06325 -0.00895546 0)
(1.06385 -0.00862753 0)
(1.06444 -0.00828984 0)
(1.06502 -0.00794256 0)
(1.06557 -0.00758594 0)
(1.06612 -0.00722023 0)
(1.06664 -0.00684573 0)
(1.06714 -0.00646278 0)
(1.06762 -0.00607176 0)
(1.06808 -0.00567307 0)
(1.06852 -0.00526714 0)
(1.06892 -0.00485443 0)
(1.0693 -0.00443544 0)
(1.06965 -0.00401065 0)
(1.06996 -0.00358057 0)
(1.07025 -0.00314571 0)
(1.07049 -0.00270657 0)
(1.07071 -0.00226362 0)
(1.07088 -0.00181734 0)
(1.07101 -0.0013681 0)
(1.0711 -0.000916319 0)
(1.07115 -0.000462244 0)
(1.07115 -6.23196e-06 0)
(1.07111 0.000451743 0)
(1.07101 0.00091138 0)
(1.07087 0.0013729 0)
(1.07067 0.00183602 0)
(1.07042 0.00230138 0)
(1.07011 0.00276851 0)
(1.06974 0.00323852 0)
(1.06931 0.00371052 0)
(1.0688 0.00418618 0)
(1.06825 0.00466379 0)
(1.06759 0.00514563 0)
(1.0669 0.0056288 0)
(1.06608 0.00611596 0)
(1.06523 0.00660294 0)
(1.06423 0.00709186 0)
(1.06322 0.00757824 0)
(1.06201 0.00806117 0)
(1.06084 0.00853909 0)
(1.05938 0.0090025 0)
(1.05807 0.00946039 0)
(1.05633 0.00988366 0)
(1.05489 0.0103069 0)
(1.05282 0.0106618 0)
(1.05133 0.0110341 0)
(1.04887 0.011286 0)
(1.04743 0.0115919 0)
(1.04448 0.0117035 0)
(1.04328 0.0119286 0)
(1.03969 0.011869 0)
(1.03899 0.0119973 0)
(1.03455 0.011758 0)
(1.05827 -0.0132027 0)
(1.05894 -0.0129431 0)
(1.05962 -0.0126723 0)
(1.06029 -0.0123902 0)
(1.06095 -0.0120968 0)
(1.06161 -0.0117918 0)
(1.06227 -0.0114754 0)
(1.06292 -0.0111475 0)
(1.06356 -0.0108081 0)
(1.06419 -0.0104573 0)
(1.06481 -0.0100952 0)
(1.06542 -0.00972195 0)
(1.06602 -0.00933773 0)
(1.0666 -0.00894279 0)
(1.06716 -0.0085374 0)
(1.06771 -0.00812187 0)
(1.06823 -0.00769658 0)
(1.06874 -0.00726193 0)
(1.06922 -0.00681836 0)
(1.06968 -0.00636636 0)
(1.07011 -0.00590646 0)
(1.07051 -0.00543919 0)
(1.07089 -0.00496513 0)
(1.07123 -0.00448486 0)
(1.07154 -0.00399899 0)
(1.07182 -0.00350809 0)
(1.07206 -0.00301276 0)
(1.07226 -0.00251355 0)
(1.07243 -0.00201099 0)
(1.07255 -0.00150552 0)
(1.07263 -0.000997609 0)
(1.07267 -0.00048752 0)
(1.07266 2.43895e-05 0)
(1.07261 0.000538137 0)
(1.07251 0.00105342 0)
(1.07235 0.00157059 0)
(1.07215 0.00208937 0)
(1.07189 0.00261055 0)
(1.07157 0.00313371 0)
(1.07119 0.0036602 0)
(1.07075 0.0041891 0)
(1.07024 0.00472243 0)
(1.06968 0.00525837 0)
(1.06902 0.00579961 0)
(1.06831 0.00634298 0)
(1.06749 0.00689156 0)
(1.06663 0.00744078 0)
(1.06562 0.00799298 0)
(1.0646 0.0085433 0)
(1.06337 0.0090904 0)
(1.06219 0.00963294 0)
(1.06071 0.0101594 0)
(1.05937 0.0106808 0)
(1.0576 0.0111626 0)
(1.05614 0.0116458 0)
(1.05403 0.01205 0)
(1.0525 0.0124759 0)
(1.04999 0.0127621 0)
(1.04851 0.0131124 0)
(1.0455 0.013237 0)
(1.04426 0.013495 0)
(1.04061 0.013422 0)
(1.03988 0.0135691 0)
(1.03534 0.0132888 0)
(1.05988 -0.0147257 0)
(1.06057 -0.014433 0)
(1.06125 -0.0141278 0)
(1.06194 -0.0138098 0)
(1.06261 -0.0134791 0)
(1.06329 -0.0131357 0)
(1.06396 -0.0127794 0)
(1.06462 -0.0124102 0)
(1.06527 -0.0120283 0)
(1.06591 -0.0116336 0)
(1.06654 -0.0112265 0)
(1.06715 -0.0108069 0)
(1.06775 -0.0103752 0)
(1.06834 -0.00993173 0)
(1.06891 -0.0094767 0)
(1.06946 -0.00901054 0)
(1.06999 -0.00853369 0)
(1.07049 -0.00804664 0)
(1.07097 -0.00754991 0)
(1.07143 -0.00704408 0)
(1.07186 -0.00652976 0)
(1.07226 -0.00600759 0)
(1.07263 -0.00547824 0)
(1.07297 -0.0049424 0)
(1.07327 -0.00440076 0)
(1.07354 -0.003854 0)
(1.07378 -0.00330281 0)
(1.07397 -0.00274781 0)
(1.07413 -0.0021896 0)
(1.07424 -0.0016287 0)
(1.07431 -0.0010656 0)
(1.07434 -0.000500588 0)
(1.07432 6.59733e-05 0)
(1.07426 0.000634096 0)
(1.07415 0.00120354 0)
(1.07398 0.00177476 0)
(1.07377 0.00234752 0)
(1.0735 0.00292283 0)
(1.07317 0.00350029 0)
(1.07278 0.00408156 0)
(1.07234 0.00466573 0)
(1.07182 0.00525523 0)
(1.07125 0.00584812 0)
(1.07058 0.0064476 0)
(1.06987 0.00705024 0)
(1.06904 0.00765961 0)
(1.06817 0.00827072 0)
(1.06715 0.00888618 0)
(1.06611 0.00950076 0)
(1.06487 0.0101127 0)
(1.06367 0.0107208 0)
(1.06217 0.0113115 0)
(1.0608 0.0118979 0)
(1.059 0.0124397 0)
(1.05751 0.0129848 0)
(1.05536 0.0134397 0)
(1.05379 0.0139212 0)
(1.05122 0.0142422 0)
(1.04971 0.0146387 0)
(1.04662 0.0147759 0)
(1.04535 0.015068 0)
(1.04161 0.0149798 0)
(1.04085 0.0151463 0)
(1.03621 0.0148216 0)
(1.06163 -0.0162524 0)
(1.06234 -0.0159256 0)
(1.06304 -0.0155847 0)
(1.06374 -0.0152298 0)
(1.06443 -0.0148608 0)
(1.06512 -0.0144776 0)
(1.0658 -0.0140802 0)
(1.06647 -0.0136686 0)
(1.06713 -0.013243 0)
(1.06778 -0.0128034 0)
(1.06842 -0.01235 0)
(1.06904 -0.011883 0)
(1.06965 -0.0114028 0)
(1.07024 -0.0109096 0)
(1.07081 -0.0104039 0)
(1.07137 -0.00988617 0)
(1.0719 -0.00935686 0)
(1.0724 -0.00881656 0)
(1.07289 -0.00826591 0)
(1.07334 -0.00770558 0)
(1.07377 -0.00713628 0)
(1.07416 -0.00655876 0)
(1.07453 -0.0059738 0)
(1.07486 -0.0053822 0)
(1.07516 -0.00478476 0)
(1.07542 -0.00418226 0)
(1.07564 -0.00357549 0)
(1.07583 -0.00296514 0)
(1.07597 -0.00235193 0)
(1.07608 -0.00173639 0)
(1.07614 -0.00111908 0)
(1.07615 -0.000500302 0)
(1.07612 0.000119575 0)
(1.07605 0.000740625 0)
(1.07592 0.00136264 0)
(1.07575 0.00198619 0)
(1.07552 0.00261115 0)
(1.07524 0.00323874 0)
(1.07491 0.00386864 0)
(1.07451 0.00450287 0)
(1.07406 0.00514055 0)
(1.07353 0.00578459 0)
(1.07295 0.00643299 0)
(1.07228 0.0070895 0)
(1.07156 0.00775047 0)
(1.07072 0.00841999 0)
(1.06984 0.00909274 0)
(1.06881 0.00977155 0)
(1.06776 0.0104509 0)
(1.0665 0.0111285 0)
(1.06528 0.0118035 0)
(1.06376 0.0124598 0)
(1.06237 0.0131132 0)
(1.06053 0.0137168 0)
(1.059 0.014326 0)
(1.05681 0.0148331 0)
(1.05519 0.0153725 0)
(1.05257 0.0157294 0)
(1.051 0.0161741 0)
(1.04785 0.0163235 0)
(1.04652 0.0166511 0)
(1.04269 0.0165456 0)
(1.04191 0.0167323 0)
(1.03716 0.0163592 0)
(1.06353 -0.0177849 0)
(1.06425 -0.0174226 0)
(1.06497 -0.0170449 0)
(1.06568 -0.0166517 0)
(1.06639 -0.0162431 0)
(1.06709 -0.0158189 0)
(1.06779 -0.0153791 0)
(1.06847 -0.0149238 0)
(1.06914 -0.0144532 0)
(1.06981 -0.0139673 0)
(1.07045 -0.0134663 0)
(1.07108 -0.0129506 0)
(1.0717 -0.0124206 0)
(1.0723 -0.0118765 0)
(1.07287 -0.011319 0)
(1.07343 -0.0107485 0)
(1.07396 -0.0101657 0)
(1.07447 -0.00957116 0)
(1.07495 -0.0089657 0)
(1.0754 -0.00835007 0)
(1.07583 -0.00772511 0)
(1.07622 -0.00709169 0)
(1.07658 -0.00645071 0)
(1.0769 -0.00580308 0)
(1.07719 -0.00514973 0)
(1.07744 -0.00449156 0)
(1.07765 -0.00382945 0)
(1.07783 -0.00316421 0)
(1.07796 -0.00249661 0)
(1.07805 -0.00182727 0)
(1.0781 -0.00115679 0)
(1.0781 -0.000485462 0)
(1.07806 0.000186326 0)
(1.07797 0.000858727 0)
(1.07783 0.00153157 0)
(1.07764 0.00220562 0)
(1.0774 0.00288082 0)
(1.07711 0.00355869 0)
(1.07677 0.00423901 0)
(1.07636 0.00492422 0)
(1.0759 0.00561352 0)
(1.07536 0.00631036 0)
(1.07478 0.00701272 0)
(1.0741 0.00772498 0)
(1.07337 0.0084433 0)
(1.07252 0.00917238 0)
(1.07164 0.00990654 0)
(1.0706 0.0106489 0)
(1.06954 0.0113937 0)
(1.06826 0.012138 0)
(1.06702 0.0128815 0)
(1.06548 0.0136051 0)
(1.06406 0.0143278 0)
(1.06219 0.0149952 0)
(1.06061 0.0156712 0)
(1.05837 0.0162325 0)
(1.05671 0.0168324 0)
(1.05402 0.0172263 0)
(1.0524 0.0177215 0)
(1.04916 0.0178827 0)
(1.04779 0.0182476 0)
(1.04386 0.0181224 0)
(1.04304 0.0183302 0)
(1.03816 0.0179043 0)
(1.06557 -0.0193249 0)
(1.06631 -0.0189258 0)
(1.06705 -0.0185099 0)
(1.06778 -0.0180771 0)
(1.0685 -0.0176273 0)
(1.06922 -0.0171607 0)
(1.06992 -0.0166771 0)
(1.07062 -0.0161766 0)
(1.07131 -0.0156594 0)
(1.07198 -0.0151257 0)
(1.07264 -0.0145758 0)
(1.07328 -0.01401 0)
(1.0739 -0.0134287 0)
(1.0745 -0.0128324 0)
(1.07508 -0.0122217 0)
(1.07564 -0.0115972 0)
(1.07617 -0.0109596 0)
(1.07668 -0.0103097 0)
(1.07716 -0.00964844 0)
(1.07761 -0.0089766 0)
(1.07803 -0.00829519 0)
(1.07841 -0.00760521 0)
(1.07876 -0.0069077 0)
(1.07908 -0.0062037 0)
(1.07936 -0.00549428 0)
(1.0796 -0.00478046 0)
(1.0798 -0.00406325 0)
(1.07996 -0.00334354 0)
(1.08008 -0.00262222 0)
(1.08015 -0.00189995 0)
(1.08018 -0.00117739 0)
(1.08017 -0.000454825 0)
(1.08011 0.00026736 0)
(1.08001 0.000989406 0)
(1.07986 0.00171122 0)
(1.07965 0.00243374 0)
(1.07941 0.00315706 0)
(1.0791 0.00388301 0)
(1.07875 0.00461155 0)
(1.07833 0.00534558 0)
(1.07786 0.00608444 0)
(1.07732 0.00683218 0)
(1.07673 0.00758684 0)
(1.07604 0.00835347 0)
(1.07531 0.00912813 0)
(1.07445 0.00991616 0)
(1.07356 0.0107116 0)
(1.07251 0.0115179 0)
(1.07144 0.012329 0)
(1.07015 0.0131412 0)
(1.06889 0.013955 0)
(1.06732 0.0147481 0)
(1.06587 0.0155427 0)
(1.06396 0.0162763 0)
(1.06235 0.0170222 0)
(1.06005 0.0176399 0)
(1.05834 0.0183034 0)
(1.05558 0.0187356 0)
(1.05389 0.0192838 0)
(1.05057 0.0194566 0)
(1.04914 0.0198606 0)
(1.0451 0.0197132 0)
(1.04425 0.019943 0)
(1.03923 0.0194596 0)
(1.06774 -0.020874 0)
(1.06851 -0.0204367 0)
(1.06926 -0.019981 0)
(1.07001 -0.019507 0)
(1.07075 -0.0190146 0)
(1.07148 -0.0185039 0)
(1.07221 -0.0179748 0)
(1.07292 -0.0174275 0)
(1.07362 -0.0168622 0)
(1.0743 -0.0162791 0)
(1.07497 -0.0156785 0)
(1.07561 -0.015061 0)
(1.07624 -0.0144269 0)
(1.07685 -0.0137768 0)
(1.07744 -0.0131114 0)
(1.078 -0.0124315 0)
(1.07853 -0.0117379 0)
(1.07904 -0.0110314 0)
(1.07951 -0.0103131 0)
(1.07996 -0.00958407 0)
(1.08037 -0.00884531 0)
(1.08075 -0.00809801 0)
(1.08109 -0.00734338 0)
(1.08139 -0.00658261 0)
(1.08166 -0.0058169 0)
(1.08189 -0.00504743 0)
(1.08207 -0.00427532 0)
(1.08222 -0.0035016 0)
(1.08232 -0.00272723 0)
(1.08238 -0.00195296 0)
(1.08239 -0.00117949 0)
(1.08236 -0.000407098 0)
(1.08229 0.000363843 0)
(1.08217 0.00113368 0)
(1.082 0.00190241 0)
(1.08178 0.00267121 0)
(1.08152 0.00344033 0)
(1.0812 0.00421198 0)
(1.08084 0.00498632 0)
(1.08041 0.0057668 0)
(1.07994 0.00655295 0)
(1.07939 0.00734953 0)
(1.07879 0.00815465 0)
(1.0781 0.00897418 0)
(1.07736 0.0098041 0)
(1.0765 0.0106505 0)
(1.0756 0.0115071 0)
(1.07454 0.0123777 0)
(1.07346 0.0132561 0)
(1.07216 0.0141378 0)
(1.07088 0.015024 0)
(1.06928 0.015889 0)
(1.0678 0.0167584 0)
(1.06585 0.0175613 0)
(1.06419 0.0183804 0)
(1.06184 0.0190573 0)
(1.06007 0.0197877 0)
(1.05723 0.0202598 0)
(1.05549 0.020864 0)
(1.05207 0.021048 0)
(1.05057 0.0214931 0)
(1.04641 0.0213209 0)
(1.04552 0.0215738 0)
(1.04036 0.0210275 0)
(1.07006 -0.0224337 0)
(1.07084 -0.0219564 0)
(1.07162 -0.0214593 0)
(1.07238 -0.0209424 0)
(1.07314 -0.0204057 0)
(1.07389 -0.0198492 0)
(1.07463 -0.0192729 0)
(1.07535 -0.018677 0)
(1.07606 -0.0180618 0)
(1.07676 -0.0174275 0)
(1.07744 -0.0167746 0)
(1.07809 -0.0161035 0)
(1.07873 -0.0154149 0)
(1.07934 -0.0147094 0)
(1.07993 -0.0139878 0)
(1.08049 -0.0132509 0)
(1.08103 -0.0124997 0)
(1.08153 -0.0117352 0)
(1.082 -0.0109587 0)
(1.08244 -0.0101712 0)
(1.08285 -0.0093741 0)
(1.08321 -0.00856865 0)
(1.08354 -0.00775623 0)
(1.08384 -0.0069382 0)
(1.08409 -0.00611595 0)
(1.0843 -0.00529078 0)
(1.08447 -0.00446398 0)
(1.0846 -0.0036367 0)
(1.08468 -0.00281002 0)
(1.08472 -0.00198474 0)
(1.08472 -0.00116162 0)
(1.08467 -0.000340929 0)
(1.08457 0.000476982 0)
(1.08443 0.00129259 0)
(1.08425 0.002106 0)
(1.08402 0.00291867 0)
(1.08374 0.00373103 0)
(1.08341 0.00454575 0)
(1.08303 0.00536324 0)
(1.0826 0.00618757 0)
(1.08211 0.00701853 0)
(1.08156 0.00786168 0)
(1.08096 0.00871528 0)
(1.08026 0.00958611 0)
(1.07952 0.0104701 0)
(1.07866 0.0113742 0)
(1.07776 0.0122919 0)
(1.07669 0.0132274 0)
(1.0756 0.0141744 0)
(1.07428 0.0151274 0)
(1.07298 0.0160884 0)
(1.07136 0.017028 0)
(1.06984 0.0179758 0)
(1.06786 0.018851 0)
(1.06615 0.0197475 0)
(1.06374 0.0204863 0)
(1.0619 0.0212877 0)
(1.05899 0.0218014 0)
(1.05717 0.0224649 0)
(1.05364 0.0226597 0)
(1.05208 0.0231483 0)
(1.04779 0.0229481 0)
(1.04686 0.0232253 0)
(1.04154 0.0226103 0)
(1.0725 -0.0240051 0)
(1.07331 -0.0234862 0)
(1.0741 -0.022946 0)
(1.07489 -0.0223844 0)
(1.07567 -0.0218014 0)
(1.07643 -0.0211972 0)
(1.07719 -0.0205718 0)
(1.07793 -0.0199254 0)
(1.07865 -0.0192584 0)
(1.07936 -0.018571 0)
(1.08005 -0.0178638 0)
(1.08071 -0.0171373 0)
(1.08135 -0.0163923 0)
(1.08197 -0.0156295 0)
(1.08256 -0.0148498 0)
(1.08313 -0.0140543 0)
(1.08366 -0.0132439 0)
(1.08416 -0.01242 0)
(1.08463 -0.0115838 0)
(1.08506 -0.0107367 0)
(1.08545 -0.00988007 0)
(1.08581 -0.00901552 0)
(1.08613 -0.00814456 0)
(1.0864 -0.00726875 0)
(1.08664 -0.00638964 0)
(1.08683 -0.00550872 0)
(1.08698 -0.00462744 0)
(1.08709 -0.00374708 0)
(1.08715 -0.00286885 0)
(1.08717 -0.00199363 0)
(1.08715 -0.00112223 0)
(1.08708 -0.000254896 0)
(1.08696 0.000608036 0)
(1.0868 0.00146721 0)
(1.0866 0.00232285 0)
(1.08635 0.00317674 0)
(1.08606 0.00402955 0)
(1.08571 0.00488445 0)
(1.08533 0.00574216 0)
(1.08488 0.00660748 0)
(1.08439 0.00748051 0)
(1.08383 0.00836773 0)
(1.08322 0.00926762 0)
(1.08253 0.010188 0)
(1.08179 0.0111248 0)
(1.08092 0.012086 0)
(1.08002 0.0130648 0)
(1.07894 0.0140659 0)
(1.07785 0.0150828 0)
(1.07652 0.0161091 0)
(1.0752 0.0171478 0)
(1.07355 0.0181651 0)
(1.072 0.0191951 0)
(1.06998 0.0201463 0)
(1.06821 0.0211246 0)
(1.06574 0.0219287 0)
(1.06383 0.0228053 0)
(1.06083 0.0233627 0)
(1.05894 0.0240891 0)
(1.0553 0.0242946 0)
(1.05367 0.024829 0)
(1.04924 0.0245977 0)
(1.04826 0.0249003 0)
(1.04277 0.0242104 0)
(1.07508 -0.0255893 0)
(1.07591 -0.025027 0)
(1.07673 -0.0244416 0)
(1.07753 -0.0238333 0)
(1.07833 -0.0232022 0)
(1.07911 -0.0225483 0)
(1.07988 -0.0218718 0)
(1.08064 -0.0211728 0)
(1.08138 -0.0204519 0)
(1.08209 -0.0197093 0)
(1.08279 -0.0189458 0)
(1.08347 -0.0181619 0)
(1.08411 -0.0173585 0)
(1.08474 -0.0165365 0)
(1.08533 -0.0156968 0)
(1.08589 -0.0148408 0)
(1.08642 -0.0139695 0)
(1.08692 -0.0130844 0)
(1.08738 -0.012187 0)
(1.0878 -0.0112789 0)
(1.08818 -0.0103616 0)
(1.08853 -0.00943691 0)
(1.08883 -0.00850659 0)
(1.08909 -0.00757239 0)
(1.08931 -0.00663607 0)
(1.08948 -0.00569932 0)
(1.08961 -0.00476376 0)
(1.08969 -0.00383084 0)
(1.08973 -0.0029019 0)
(1.08973 -0.00197789 0)
(1.08968 -0.00105969 0)
(1.08959 -0.000147514 0)
(1.08945 0.000758324 0)
(1.08927 0.00165864 0)
(1.08904 0.00255383 0)
(1.08877 0.00344604 0)
(1.08847 0.00433621 0)
(1.08811 0.0052281 0)
(1.08771 0.00612282 0)
(1.08725 0.00702597 0)
(1.08676 0.00793806 0)
(1.08619 0.00886659 0)
(1.08559 0.00981039 0)
(1.08489 0.0107784 0)
(1.08415 0.0117667 0)
(1.08329 0.0127841 0)
(1.08238 0.0138242 0)
(1.08131 0.0148915 0)
(1.0802 0.0159801 0)
(1.07886 0.0170819 0)
(1.07753 0.0182014 0)
(1.07586 0.0193001 0)
(1.07427 0.0204166 0)
(1.0722 0.021448 0)
(1.07038 0.0225129 0)
(1.06784 0.0233862 0)
(1.06587 0.0243429 0)
(1.06277 0.0249462 0)
(1.06079 0.0257394 0)
(1.05704 0.0259553 0)
(1.05533 0.0265383 0)
(1.05075 0.0262724 0)
(1.04971 0.0266017 0)
(1.04404 0.02583 0)
(1.07778 -0.0271873 0)
(1.07864 -0.0265795 0)
(1.07948 -0.025947 0)
(1.0803 -0.02529 0)
(1.08112 -0.0246085 0)
(1.08192 -0.0239028 0)
(1.08271 -0.0231729 0)
(1.08348 -0.0224192 0)
(1.08423 -0.0216421 0)
(1.08496 -0.0208422 0)
(1.08567 -0.0200201 0)
(1.08635 -0.0191766 0)
(1.08701 -0.0183127 0)
(1.08763 -0.0174293 0)
(1.08823 -0.0165277 0)
(1.08879 -0.0156091 0)
(1.08931 -0.0146751 0)
(1.0898 -0.0137271 0)
(1.09025 -0.0127669 0)
(1.09067 -0.0117962 0)
(1.09104 -0.0108169 0)
(1.09137 -0.00983098 0)
(1.09165 -0.00884039 0)
(1.09189 -0.00784714 0)
(1.09209 -0.00685322 0)
(1.09224 -0.00586054 0)
(1.09234 -0.00487092 0)
(1.0924 -0.00388597 0)
(1.09241 -0.0029072 0)
(1.09238 -0.00193565 0)
(1.09231 -0.000972265 0)
(1.09219 -1.72969e-05 0)
(1.09202 0.000929159 0)
(1.09182 0.00186801 0)
(1.09157 0.00279983 0)
(1.09128 0.00372718 0)
(1.09096 0.00465133 0)
(1.09058 0.00557672 0)
(1.09017 0.00650488 0)
(1.08971 0.00744239 0)
(1.08921 0.00839021 0)
(1.08864 0.00935702 0)
(1.08804 0.0103421 0)
(1.08734 0.0113556 0)
(1.08661 0.0123938 0)
(1.08575 0.0134669 0)
(1.08485 0.0145681 0)
(1.08377 0.0157027 0)
(1.08266 0.0168647 0)
(1.08132 0.0180446 0)
(1.07996 0.0192486 0)
(1.07827 0.0204325 0)
(1.07665 0.0216404 0)
(1.07454 0.0227566 0)
(1.07266 0.0239138 0)
(1.07005 0.0248604 0)
(1.06799 0.0259024 0)
(1.0648 0.0265542 0)
(1.06273 0.0274185 0)
(1.05885 0.0276446 0)
(1.05705 0.028279 0)
(1.05231 0.0279747 0)
(1.05122 0.0283322 0)
(1.04535 0.0274712 0)
(1.08061 -0.0287998 0)
(1.08149 -0.0281443 0)
(1.08235 -0.0274626 0)
(1.08321 -0.0267546 0)
(1.08404 -0.0260206 0)
(1.08486 -0.0252607 0)
(1.08567 -0.0244752 0)
(1.08646 -0.0236644 0)
(1.08722 -0.0228289 0)
(1.08796 -0.0219693 0)
(1.08868 -0.0210863 0)
(1.08937 -0.0201809 0)
(1.09003 -0.0192541 0)
(1.09065 -0.0183071 0)
(1.09125 -0.0173413 0)
(1.09181 -0.0163582 0)
(1.09233 -0.0153593 0)
(1.09281 -0.0143465 0)
(1.09325 -0.0133217 0)
(1.09365 -0.0122869 0)
(1.09401 -0.0112441 0)
(1.09432 -0.0101957 0)
(1.09458 -0.0091439 0)
(1.0948 -0.00809089 0)
(1.09497 -0.00703894 0)
(1.0951 -0.0059902 0)
(1.09518 -0.00494673 0)
(1.09521 -0.00391034 0)
(1.09519 -0.00288269 0)
(1.09513 -0.00186495 0)
(1.09502 -0.000858111 0)
(1.09487 0.000137588 0)
(1.09468 0.00112209 0)
(1.09445 0.00209656 0)
(1.09418 0.00306178 0)
(1.09387 0.00402077 0)
(1.09352 0.00497518 0)
(1.09314 0.00593022 0)
(1.09271 0.00688794 0)
(1.09224 0.00785596 0)
(1.09174 0.00883584 0)
(1.09117 0.00983758 0)
(1.09057 0.0108609 0)
(1.08988 0.0119176 0)
(1.08915 0.0130042 0)
(1.0883 0.014132 0)
(1.0874 0.0152945 0)
(1.08634 0.0164973 0)
(1.08523 0.0177348 0)
(1.08387 0.0189958 0)
(1.08251 0.0202881 0)
(1.08079 0.0215617 0)
(1.07913 0.0228666 0)
(1.07698 0.0240727 0)
(1.07504 0.0253282 0)
(1.07236 0.0263527 0)
(1.07021 0.0274859 0)
(1.06692 0.0281891 0)
(1.06475 0.0291292 0)
(1.06073 0.0293654 0)
(1.05883 0.0300542 0)
(1.05393 0.0297075 0)
(1.05278 0.0300944 0)
(1.04669 0.0291361 0)
(1.08357 -0.0304274 0)
(1.08447 -0.0297221 0)
(1.08536 -0.0289888 0)
(1.08623 -0.0282276 0)
(1.08709 -0.0274386 0)
(1.08793 -0.0266222 0)
(1.08876 -0.0257786 0)
(1.08956 -0.0249083 0)
(1.09034 -0.0240118 0)
(1.09109 -0.02309 0)
(1.09181 -0.0221436 0)
(1.09251 -0.0211738 0)
(1.09317 -0.0201818 0)
(1.0938 -0.0191688 0)
(1.0944 -0.0181365 0)
(1.09495 -0.0170865 0)
(1.09547 -0.0160207 0)
(1.09594 -0.014941 0)
(1.09637 -0.0138497 0)
(1.09675 -0.012749 0)
(1.09709 -0.0116413 0)
(1.09738 -0.0105291 0)
(1.09763 -0.00941498 0)
(1.09782 -0.0083014 0)
(1.09796 -0.00719094 0)
(1.09806 -0.00608601 0)
(1.0981 -0.00498892 0)
(1.0981 -0.00390171 0)
(1.09805 -0.0028262 0)
(1.09796 -0.0017637 0)
(1.09782 -0.000715305 0)
(1.09764 0.000318872 0)
(1.09742 0.00133866 0)
(1.09716 0.00234557 0)
(1.09686 0.00334066 0)
(1.09653 0.00432745 0)
(1.09616 0.00530805 0)
(1.09576 0.0062885 0)
(1.09532 0.00727148 0)
(1.09485 0.00826578 0)
(1.09434 0.00927368 0)
(1.09377 0.0103067 0)
(1.09317 0.0113651 0)
(1.0925 0.0124624 0)
(1.09178 0.0135955 0)
(1.09094 0.0147771 0)
(1.09005 0.016001 0)