/*--------------------------------*- C++ -*----------------------------------*\
  =========                 |
  \\      /  F ield         | OpenFOAM: The Open Source CFD Toolbox
   \\    /   O peration     | Website:  https://openfoam.org
    \\  /    A nd           | Version:  7
     \\/     M anipulation  |
\*---------------------------------------------------------------------------*/
FoamFile
{
    version     2.0;
    format      ascii;
    class       volVectorField;
    location    "0.8";
    object      U;
}
// * * * * * * * * * * * * * * * * * * * * * * * * * * * * * * * * * * * * * //

dimensions      [0 1 -1 0 0 0 0];

internalField   nonuniform List<vector> 
16528
(
(1.00014 -0.000244795 -9.12553e-17)
(1.00145 -0.000721998 -2.60915e-16)
(1.00426 -0.00119791 2.30773e-15)
(1.00851 -0.00165896 1.86174e-15)
(1.01409 -0.00209451 9.46401e-16)
(1.02091 -0.00249954 1.93371e-15)
(1.02888 -0.00286993 2.82008e-16)
(1.03789 -0.00320215 1.33802e-15)
(1.04783 -0.00349405 1.49216e-15)
(1.05857 -0.00374493 1.28976e-16)
(1.06999 -0.00395526 -1.10442e-15)
(1.08197 -0.00412646 -1.90699e-15)
(1.0944 -0.0042607 -2.78227e-15)
(1.10718 -0.00436071 -3.48275e-15)
(1.1202 -0.00442956 -3.08049e-15)
(1.13338 -0.00447048 -4.99195e-15)
(1.14664 -0.00448677 -4.88167e-15)
(1.15992 -0.00448163 -3.24852e-15)
(1.17315 -0.00445813 -4.31869e-15)
(1.18628 -0.00441909 -4.8269e-15)
(1.19928 -0.0043671 -5.23314e-15)
(1.21211 -0.00430448 -5.13069e-15)
(1.22473 -0.00423327 -7.87718e-15)
(1.23714 -0.00415527 -1.28759e-14)
(1.2493 -0.004072 -9.55415e-15)
(1.26121 -0.00398479 -6.52706e-15)
(1.27286 -0.00389478 -5.33274e-15)
(1.28424 -0.00380294 -8.14832e-15)
(1.29534 -0.0037101 -5.77226e-15)
(1.30617 -0.00361702 -6.38974e-15)
(1.31672 -0.00352434 -5.96804e-15)
(1.327 -0.00343268 -6.80985e-15)
(1.33701 -0.00334254 -6.26349e-15)
(1.34676 -0.00325442 -7.59274e-15)
(1.35625 -0.00316869 -7.44494e-15)
(1.36549 -0.00308564 -6.10634e-15)
(1.37448 -0.00300541 -6.75588e-15)
(1.38325 -0.00292796 -6.81985e-15)
(1.39178 -0.00285305 -8.09676e-15)
(1.4001 -0.00278021 -6.72625e-15)
(1.40821 -0.00270872 -7.70453e-15)
(1.4161 -0.00263763 -6.61825e-15)
(1.42378 -0.00256579 -6.64368e-15)
(1.43125 -0.0024919 -8.24017e-15)
(1.43849 -0.00241461 -6.4935e-15)
(1.4455 -0.00233259 -7.3178e-15)
(1.45226 -0.00224465 -7.15748e-15)
(1.45875 -0.00214986 -7.72102e-15)
(1.46494 -0.00204759 -8.38238e-15)
(1.47082 -0.00193767 -9.659e-15)
(1.47637 -0.00182035 -6.816e-15)
(1.48155 -0.00169636 -9.20227e-15)
(1.48636 -0.0015669 -6.98973e-15)
(1.49078 -0.00143353 -6.7865e-15)
(1.49481 -0.00129812 -6.62949e-15)
(1.49843 -0.00116274 -7.23518e-15)
(1.50165 -0.0010295 -6.21599e-15)
(1.50449 -0.000900472 -6.72235e-15)
(1.50695 -0.000777549 -6.01436e-15)
(1.50906 -0.000662353 -6.35293e-15)
(1.51084 -0.000556166 -6.20713e-15)
(1.51233 -0.000459895 -6.94545e-15)
(1.51354 -0.000374053 -7.23393e-15)
(1.51452 -0.000298781 -6.99947e-15)
(1.51529 -0.000233881 -7.11142e-15)
(1.51589 -0.000178875 -7.40236e-15)
(1.51634 -0.000133064 -7.07995e-15)
(1.51667 -9.55998e-05 -8.12687e-15)
(1.5169 -6.55406e-05 -5.5236e-15)
(1.51705 -4.19144e-05 -4.96527e-15)
(1.51714 -2.37624e-05 -5.59816e-15)
(1.51719 -1.01757e-05 -6.93575e-15)
(1.5172 -3.20281e-07 -5.02238e-15)
(1.51719 6.53942e-06 -5.57366e-15)
(1.51716 1.10537e-05 -5.6584e-15)
(1.51712 1.37685e-05 -5.83722e-15)
(1.51708 1.51369e-05 -5.27964e-15)
(1.51703 1.55272e-05 -5.00484e-15)
(1.51699 1.52324e-05 -4.37306e-15)
(1.51694 1.44809e-05 -5.63311e-15)
(1.5169 1.34467e-05 -4.64847e-15)
(1.51686 1.22593e-05 -4.05009e-15)
(1.51683 1.10126e-05 -4.26128e-15)
(1.5168 9.7721e-06 -4.34266e-15)
(1.51677 8.58189e-06 -4.40116e-15)
(1.51675 7.46952e-06 -4.2461e-15)
(1.51673 6.45051e-06 -5.02784e-15)
(1.51671 5.53166e-06 -5.27615e-15)
(1.51669 4.71369e-06 -4.99982e-15)
(1.51668 3.99328e-06 -6.51146e-15)
(1.51667 3.36451e-06 -6.39224e-15)
(1.51666 2.81997e-06 -5.96757e-15)
(1.51665 2.35157e-06 -5.88484e-15)
(1.51665 1.95105e-06 -4.46067e-15)
(1.51664 1.61036e-06 -4.25297e-15)
(1.51664 1.32193e-06 -4.86367e-15)
(1.51663 1.07874e-06 -5.35553e-15)
(1.51663 8.74406e-07 -4.83671e-15)
(1.51663 7.03219e-07 -5.0174e-15)
(1.51663 5.60099e-07 -4.9211e-15)
(1.51663 4.40577e-07 -4.34552e-15)
(1.51662 3.40748e-07 -3.84471e-15)
(1.51662 2.57214e-07 -3.23993e-15)
(1.51662 1.87024e-07 -3.70133e-15)
(1.51662 1.27621e-07 -2.82222e-15)
(1.51662 7.6787e-08 -3.2581e-15)
(1.51662 3.25962e-08 -2.46019e-15)
(1.51662 -6.63938e-09 -3.57658e-15)
(1.51662 -4.24051e-08 -1.96991e-15)
(1.51662 -7.60352e-08 -2.86954e-15)
(1.51662 -1.08756e-07 -1.63606e-15)
(1.51662 -1.41704e-07 -1.82369e-15)
(1.51662 -1.75956e-07 -1.39937e-15)
(1.51662 -2.12564e-07 -7.06895e-16)
(1.51662 -2.52595e-07 -1.42419e-15)
(1.51663 -2.97154e-07 -1.23925e-15)
(1.51663 -3.47408e-07 -1.18418e-15)
(1.51663 -4.04631e-07 -1.33813e-15)
(1.51663 -4.70231e-07 -1.98685e-15)
(1.51663 -5.45787e-07 -9.0275e-16)
(1.51663 -6.33074e-07 -1.48218e-15)
(1.51663 -7.34106e-07 -5.53318e-16)
(1.51664 -8.51183e-07 -1.44592e-15)
(1.51664 -9.86957e-07 -6.4513e-16)
(1.51664 -1.14449e-06 -1.18765e-15)
(1.51665 -1.32734e-06 -2.93747e-16)
(1.51665 -1.53961e-06 -4.51643e-16)
(1.51665 -1.78607e-06 -9.19244e-17)
(1.51666 -2.0722e-06 -6.17493e-16)
(1.51667 -2.40441e-06 -2.67614e-17)
(1.51667 -2.79009e-06 -9.40399e-16)
(1.51668 -3.23785e-06 -5.59477e-16)
(1.51669 -3.75767e-06 -9.92663e-16)
(1.51671 -4.36116e-06 -4.07885e-16)
(1.51672 -5.06174e-06 -7.61493e-16)
(1.51674 -5.87501e-06 -1.22889e-15)
(1.51675 -6.81911e-06 -9.7726e-16)
(1.51678 -7.91508e-06 1.18784e-16)
(1.5168 -9.18731e-06 1.13315e-15)
(1.51683 -1.06642e-05 9.85939e-16)
(1.51686 -1.23786e-05 1.45372e-15)
(1.5169 -1.43687e-05 1.08621e-15)
(1.51695 -1.6679e-05 5.74572e-16)
(1.517 -1.93608e-05 1.50084e-16)
(1.51706 -2.24739e-05 1.74071e-17)
(1.51713 -2.60878e-05 -4.89174e-16)
(1.51722 -3.02829e-05 -2.46997e-16)
(1.51731 -3.51528e-05 5.25083e-16)
(1.51742 -4.0806e-05 1.01044e-15)
(1.51755 -4.73685e-05 4.53353e-16)
(1.5177 -5.49865e-05 6.08573e-16)
(1.51788 -6.38296e-05 5.40246e-16)
(1.51808 -7.40951e-05 1.09279e-15)
(1.51831 -8.60113e-05 1.3298e-16)
(1.51859 -9.98437e-05 5.34416e-16)
(1.5189 -0.0001159 6.72379e-16)
(1.51927 -0.000134537 8.18218e-16)
(1.5197 -0.00015617 1.25295e-15)
(1.52019 -0.000181278 1.90734e-15)
(1.52076 -0.000210419 8.24204e-16)
(1.52143 -0.000244239 1.37973e-15)
(1.5222 -0.000283484 4.0263e-16)
(1.5231 -0.000329023 3.38336e-16)
(1.52414 -0.000381859 1.16865e-15)
(1.52535 -0.000443151 1.08788e-15)
(1.52676 -0.000514241 1.35668e-15)
(1.52839 -0.00059668 1.44461e-15)
(1.53028 -0.000692254 9.33249e-16)
(1.53247 -0.000803025 1.09383e-15)
(1.53501 -0.000931363 8.63352e-16)
(1.53796 -0.00107999 2.67277e-17)
(1.54138 -0.00125202 6.9144e-16)
(1.54534 -0.00145102 1.3218e-15)
(1.54993 -0.00168103 1.27834e-15)
(1.55525 -0.00194667 1.13081e-15)
(1.56141 -0.00225311 9.97401e-16)
(1.56854 -0.00260617 1.38071e-15)
(1.57678 -0.0030123 1.27421e-15)
(1.5863 -0.00347864 3.96205e-16)
(1.5973 -0.00401292 5.5252e-16)
(1.60997 -0.00462344 1.10783e-15)
(1.62457 -0.0053189 2.11263e-15)
(1.64135 -0.00610813 1.05346e-15)
(1.6606 -0.00699981 9.34102e-16)
(1.68264 -0.00800186 4.8835e-16)
(1.70781 -0.00912079 1.06948e-15)
(1.73646 -0.0103608 3.63967e-16)
(1.76895 -0.0117224 3.91781e-16)
(1.80564 -0.0132013 1.10632e-15)
(1.84687 -0.0147866 9.9244e-16)
(1.89292 -0.0164589 1.51283e-15)
(1.94404 -0.0181888 1.34491e-15)
(2.00033 -0.0199353 1.62505e-15)
(2.06178 -0.0216454 1.14555e-15)
(2.12819 -0.0232538 1.49379e-15)
(2.19918 -0.0246862 1.38416e-15)
(2.2741 -0.0258619 1.44028e-15)
(2.35208 -0.0267013 1.26353e-15)
(2.43202 -0.0271341 1.6953e-15)
(2.51264 -0.0271078 1.72301e-15)
(1.00014 -0.000568055 2.79305e-16)
(1.00147 -0.00169287 7.06656e-16)
(1.0043 -0.00280585 5.94508e-15)
(1.00858 -0.00388233 7.74221e-15)
(1.0142 -0.00490094 2.2477e-15)
(1.02107 -0.00584833 5.69077e-15)
(1.0291 -0.00671407 -1.89926e-15)
(1.03817 -0.00749007 2.94759e-15)
(1.04817 -0.0081715 1.18389e-15)
(1.05897 -0.00875676 -4.84057e-15)
(1.07045 -0.00924702 -2.86862e-15)
(1.0825 -0.00964569 -1.70873e-15)
(1.09498 -0.00995793 -6.06463e-15)
(1.10781 -0.0101902 -8.93315e-15)
(1.12088 -0.0103496 -6.81764e-15)
(1.13411 -0.0104439 -1.0358e-14)
(1.14741 -0.0104807 -1.20594e-14)
(1.16072 -0.0104676 -9.73567e-15)
(1.17399 -0.0104118 -1.25645e-14)
(1.18715 -0.0103197 -1.34534e-14)
(1.20018 -0.0101976 -1.10669e-14)
(1.21303 -0.0100507 -1.31814e-14)
(1.22567 -0.00988386 -1.44398e-14)
(1.2381 -0.00970123 -1.29996e-14)
(1.25028 -0.00950639 -1.45916e-14)
(1.2622 -0.00930241 -1.54865e-14)
(1.27387 -0.00909191 -1.59536e-14)
(1.28526 -0.00887716 -1.66285e-14)
(1.29637 -0.00866011 -1.22028e-14)
(1.30721 -0.00844247 -1.33445e-14)
(1.31777 -0.00822576 -1.4988e-14)
(1.32805 -0.00801137 -1.46976e-14)
(1.33807 -0.00780051 -1.59978e-14)
(1.34782 -0.00759428 -1.67976e-14)
(1.3573 -0.00739356 -1.26784e-14)
(1.36654 -0.00719901 -1.45427e-14)
(1.37553 -0.00701093 -1.5576e-14)
(1.38429 -0.00682925 -1.59473e-14)
(1.39281 -0.00665341 -1.6101e-14)
(1.40111 -0.0064823 -1.71387e-14)
(1.4092 -0.00631426 -1.35609e-14)
(1.41707 -0.00614708 -1.55009e-14)
(1.42473 -0.0059781 -1.6266e-14)
(1.43216 -0.00580432 -1.66112e-14)
(1.43937 -0.00562261 -1.67645e-14)
(1.44634 -0.00542991 -1.62506e-14)
(1.45305 -0.00522348 -1.661e-14)
(1.45949 -0.00500114 -1.70698e-14)
(1.46563 -0.00476153 -1.68805e-14)
(1.47146 -0.00450421 -1.78322e-14)
(1.47695 -0.00422983 -1.71544e-14)
(1.48207 -0.00394013 -1.75334e-14)
(1.48683 -0.00363788 -1.73586e-14)
(1.49119 -0.00332676 -1.73339e-14)
(1.49515 -0.00301112 -1.69971e-14)
(1.49871 -0.00269577 -1.80017e-14)
(1.50188 -0.00238562 -1.33102e-14)
(1.50467 -0.00208549 -1.47925e-14)
(1.50708 -0.00179974 -1.50379e-14)
(1.50914 -0.00153212 -1.61667e-14)
(1.51089 -0.0012856 -1.59611e-14)
(1.51233 -0.00106224 -1.60219e-14)
(1.51352 -0.000863219 -1.63582e-14)
(1.51447 -0.000688818 -1.6271e-14)
(1.51521 -0.000538558 -1.65871e-14)
(1.51579 -0.000411302 -1.66175e-14)
(1.51622 -0.000305406 -1.65636e-14)
(1.51654 -0.000218879 -1.78662e-14)
(1.51675 -0.000149523 -9.90111e-15)
(1.5169 -9.50724e-05 -1.20206e-14)
(1.51698 -5.32941e-05 -1.36236e-14)
(1.51702 -2.20758e-05 -1.43729e-14)
(1.51703 5.19331e-07 -1.08414e-14)
(1.51701 1.62073e-05 -1.2084e-14)
(1.51698 2.64845e-05 -1.28453e-14)
(1.51694 3.26168e-05 -1.34297e-14)
(1.51689 3.5653e-05 -1.02356e-14)
(1.51685 3.64445e-05 -1.13266e-14)
(1.5168 3.56678e-05 -1.19411e-14)
(1.51676 3.38496e-05 -1.27227e-14)
(1.51671 3.13906e-05 -9.7554e-15)
(1.51668 2.85888e-05 -6.97773e-15)
(1.51664 2.56595e-05 -9.06817e-15)
(1.51661 2.27529e-05 -9.94839e-15)
(1.51659 1.99695e-05 -1.0658e-14)
(1.51656 1.73719e-05 -1.15038e-14)
(1.51654 1.4995e-05 -1.21625e-14)
(1.51652 1.28537e-05 -1.29127e-14)
(1.51651 1.09489e-05 -1.28254e-14)
(1.5165 9.27236e-06 -1.35078e-14)
(1.51649 7.80986e-06 -1.38938e-14)
(1.51648 6.54389e-06 -1.39335e-14)
(1.51647 5.45536e-06 -1.48099e-14)
(1.51646 4.52493e-06 -7.58048e-15)
(1.51646 3.73379e-06 -9.81653e-15)
(1.51645 3.06419e-06 -1.1197e-14)
(1.51645 2.49978e-06 -1.24734e-14)
(1.51645 2.02569e-06 -8.98664e-15)
(1.51645 1.6286e-06 -1.02282e-14)
(1.51644 1.29668e-06 -1.17269e-14)
(1.51644 1.01956e-06 -8.40863e-15)
(1.51644 7.88146e-07 -1.02291e-14)
(1.51644 5.94541e-07 -7.17284e-15)
(1.51644 4.31887e-07 -9.00563e-15)
(1.51644 2.9425e-07 -6.02948e-15)
(1.51644 1.76487e-07 -7.92249e-15)
(1.51644 7.41234e-08 -5.09153e-15)
(1.51644 -1.67652e-08 -7.11328e-15)
(1.51644 -9.96299e-08 -4.19574e-15)
(1.51644 -1.7757e-07 -6.4262e-15)
(1.51644 -2.53427e-07 -3.6027e-15)
(1.51644 -3.2983e-07 -5.50196e-15)
(1.51644 -4.09269e-07 -3.10877e-15)
(1.51644 -4.94191e-07 -1.46935e-15)
(1.51644 -5.87079e-07 -4.15842e-15)
(1.51644 -6.90498e-07 -1.84728e-15)
(1.51644 -8.07164e-07 -3.75934e-15)
(1.51644 -9.40029e-07 -1.53085e-15)
(1.51645 -1.09237e-06 -3.67918e-15)
(1.51645 -1.26783e-06 -1.03762e-15)
(1.51645 -1.47052e-06 -3.57817e-15)
(1.51645 -1.70513e-06 -1.19045e-15)
(1.51645 -1.97701e-06 -3.31109e-15)
(1.51646 -2.29232e-06 -6.01568e-16)
(1.51646 -2.6582e-06 -2.94546e-15)
(1.51646 -3.08287e-06 -2.23974e-16)
(1.51647 -3.57589e-06 -2.62107e-15)
(1.51647 -4.14829e-06 -2.81538e-16)
(1.51648 -4.81284e-06 -2.27466e-15)
(1.51648 -5.58439e-06 1.26654e-18)
(1.51649 -6.48014e-06 -2.3097e-15)
(1.5165 -7.52008e-06 -1.12155e-16)
(1.51651 -8.72739e-06 -2.22772e-15)
(1.51652 -1.0129e-05 4.18741e-16)
(1.51654 -1.17561e-05 -1.97661e-15)
(1.51655 -1.3645e-05 3.13468e-16)
(1.51657 -1.58377e-05 -1.7551e-15)
(1.51659 -1.83831e-05 5.9643e-17)
(1.51662 -2.13379e-05 1.43692e-15)
(1.51664 -2.47679e-05 2.02457e-15)
(1.51668 -2.87497e-05 3.32829e-15)
(1.51672 -3.33719e-05 3.57373e-17)
(1.51676 -3.87375e-05 1.96868e-15)
(1.51681 -4.49661e-05 -7.58119e-16)
(1.51687 -5.21964e-05 1.8408e-15)
(1.51695 -6.05897e-05 -8.52188e-16)
(1.51703 -7.0333e-05 1.17864e-15)
(1.51712 -8.16434e-05 1.98774e-15)
(1.51723 -9.4773e-05 3.32446e-15)
(1.51736 -0.000110014 1.92843e-16)
(1.51751 -0.000127707 2.25755e-15)
(1.51768 -0.000148246 1.00104e-16)
(1.51788 -0.000172087 2.035e-15)
(1.51811 -0.000199763 9.93989e-18)
(1.51838 -0.000231889 1.65826e-15)
(1.5187 -0.00026918 2.7413e-15)
(1.51906 -0.000312466 3.95053e-15)
(1.51948 -0.000362709 1.05207e-15)
(1.51997 -0.000421024 2.99413e-15)
(1.52054 -0.000488706 1.00564e-15)
(1.5212 -0.000567254 2.59127e-15)
(1.52196 -0.000658407 2.3121e-16)
(1.52285 -0.000764176 1.62529e-15)
(1.52388 -0.000886894 2.73275e-15)
(1.52508 -0.00102926 3.43741e-15)
(1.52647 -0.00119438 4.20604e-15)
(1.52808 -0.00138587 1.46396e-15)
(1.52995 -0.00160787 3.21922e-15)
(1.53212 -0.00186518 9.29338e-16)
(1.53464 -0.00216331 2.42583e-15)
(1.53756 -0.00250858 3.62534e-16)
(1.54094 -0.00290825 1.69738e-15)
(1.54486 -0.0033706 2.79959e-15)
(1.54941 -0.00390507 3.81569e-15)
(1.55468 -0.00452236 1.41611e-15)
(1.56078 -0.00523456 2.92979e-15)
(1.56784 -0.00605521 7.2298e-16)
(1.576 -0.00699939 2.53178e-15)
(1.58544 -0.00808374 3.44074e-16)
(1.59633 -0.00932637 2.0639e-15)
(1.60889 -0.0107467 2.97492e-15)
(1.62337 -0.0123651 3.91813e-15)
(1.64001 -0.0142025 2.05315e-15)
(1.65912 -0.0162794 3.23356e-15)
(1.681 -0.0186145 1.16899e-15)
(1.706 -0.0212235 3.0212e-15)
(1.73448 -0.0241168 1.08714e-15)
(1.76681 -0.0272964 2.74903e-15)
(1.80334 -0.0307532 3.08438e-15)
(1.84443 -0.0344622 3.62744e-15)
(1.89039 -0.0383793 4.52487e-15)
(1.94145 -0.0424364 2.66908e-15)
(1.99774 -0.0465379 4.12836e-15)
(2.05928 -0.0505598 2.46608e-15)
(2.12588 -0.0543482 3.96143e-15)
(2.19715 -0.0577274 2.66556e-15)
(2.27246 -0.0605052 3.45975e-15)
(2.35093 -0.0624917 3.71361e-15)
(2.43146 -0.0635182 4.56893e-15)
(2.51269 -0.0634583 3.77554e-15)
(1.00015 -0.000928138 -8.23485e-17)
(1.00149 -0.00278286 3.15162e-15)
(1.00437 -0.00460989 3.34899e-15)
(1.00873 -0.00637381 3.8076e-16)
(1.01445 -0.00804362 -3.06088e-15)
(1.02143 -0.00959586 -3.69202e-16)
(1.02958 -0.0110124 -1.72948e-15)
(1.03879 -0.0122801 -5.80269e-16)
(1.04892 -0.0133915 -4.71986e-16)
(1.05987 -0.0143443 -2.59624e-15)
(1.07148 -0.0151406 -2.95571e-15)
(1.08366 -0.0157865 -2.69929e-15)
(1.09627 -0.0162906 -3.93424e-15)
(1.10922 -0.0166638 -5.72747e-15)
(1.1224 -0.0169182 -8.60771e-15)
(1.13572 -0.0170663 -8.55592e-15)
(1.14912 -0.017121 -8.98715e-15)
(1.16251 -0.0170947 -1.11821e-14)
(1.17585 -0.0169989 -1.09108e-14)
(1.18908 -0.0168447 -1.12998e-14)
(1.20217 -0.0166418 -1.3235e-14)
(1.21507 -0.016399 -1.23291e-14)
(1.22777 -0.0161241 -1.29933e-14)
(1.24023 -0.0158237 -1.25238e-14)
(1.25245 -0.0155038 -1.28733e-14)
(1.26441 -0.0151692 -1.35279e-14)
(1.2761 -0.0148241 -1.38634e-14)
(1.28751 -0.0144722 -1.49728e-14)
(1.29865 -0.0141167 -1.06189e-14)
(1.30951 -0.0137601 -1.13399e-14)
(1.32008 -0.013405 -1.26757e-14)
(1.33038 -0.0130535 -1.29006e-14)
(1.3404 -0.0127076 -1.37636e-14)
(1.35015 -0.012369 -1.39684e-14)
(1.35963 -0.0120391 -1.29984e-14)
(1.36886 -0.0117188 -1.3361e-14)
(1.37784 -0.0114087 -1.38006e-14)
(1.38657 -0.0111086 -1.4353e-14)
(1.39507 -0.0108176 -1.43893e-14)
(1.40333 -0.010534 -1.55196e-14)
(1.41137 -0.010255 -1.42113e-14)
(1.41919 -0.00997708 -1.41046e-14)
(1.42678 -0.00969607 -1.50914e-14)
(1.43415 -0.00940716 -1.51889e-14)
(1.44127 -0.00910538 -1.52e-14)
(1.44815 -0.00878587 -1.53711e-14)
(1.45476 -0.00844432 -1.55348e-14)
(1.46109 -0.00807736 -1.56044e-14)
(1.46712 -0.00768288 -1.61102e-14)
(1.47282 -0.00726032 -1.5858e-14)
(1.47818 -0.00681086 -1.6277e-14)
(1.48318 -0.00633742 -1.63383e-14)
(1.4878 -0.00584457 -1.60147e-14)
(1.49203 -0.00533832 -1.61311e-14)
(1.49586 -0.00482575 -1.61147e-14)
(1.4993 -0.00431462 -1.69343e-14)
(1.50235 -0.00381286 -1.29379e-14)
(1.50501 -0.00332817 -1.36753e-14)
(1.50732 -0.00286752 -1.37225e-14)
(1.50929 -0.00243687 -1.43095e-14)
(1.51094 -0.00204085 -1.42973e-14)
(1.5123 -0.00168269 -1.44303e-14)
(1.51341 -0.00136412 -1.46975e-14)
(1.5143 -0.00108549 -1.46129e-14)
(1.515 -0.000845902 -1.47569e-14)
(1.51553 -0.000643411 -1.5006e-14)
(1.51592 -0.000475286 -1.50403e-14)
(1.5162 -0.000338247 -1.56552e-14)
(1.51639 -0.000228704 -1.41437e-14)
(1.51651 -0.000142971 -1.25077e-14)
(1.51658 -7.74358e-05 -1.25561e-14)
(1.51661 -2.86864e-05 -1.20005e-14)
(1.5166 6.38078e-06 -1.13534e-14)
(1.51658 3.05274e-05 -1.05318e-14)
(1.51654 4.61442e-05 -1.08713e-14)
(1.5165 5.52497e-05 -1.02573e-14)
(1.51645 5.95125e-05 -9.97448e-15)
(1.5164 6.02831e-05 -9.23397e-15)
(1.51636 5.8632e-05 -9.51169e-15)
(1.51631 5.53896e-05 -8.93917e-15)
(1.51627 5.11858e-05 -9.1153e-15)
(1.51623 4.64867e-05 -5.86226e-15)
(1.5162 4.16277e-05 -6.64966e-15)
(1.51617 3.68412e-05 -7.32132e-15)
(1.51614 3.22811e-05 -8.08092e-15)
(1.51612 2.80418e-05 -8.806e-15)
(1.5161 2.41743e-05 -9.35601e-15)
(1.51608 2.06986e-05 -9.88057e-15)
(1.51607 1.76132e-05 -1.02101e-14)
(1.51605 1.4902e-05 -1.07143e-14)
(1.51604 1.25405e-05 -1.10377e-14)
(1.51603 1.04989e-05 -1.12814e-14)
(1.51603 8.74544e-06 -1.20007e-14)
(1.51602 7.2482e-06 -1.08427e-14)
(1.51602 5.97629e-06 -9.69897e-15)
(1.51601 4.90072e-06 -9.52545e-15)
(1.51601 3.99484e-06 -9.4623e-15)
(1.51601 3.23447e-06 -9.09428e-15)
(1.516 2.59803e-06 -8.28927e-15)
(1.516 2.06641e-06 -8.8535e-15)
(1.516 1.62282e-06 -7.89389e-15)
(1.516 1.25262e-06 -7.38663e-15)
(1.516 9.43065e-07 -6.36914e-15)
(1.516 6.83113e-07 -5.76634e-15)
(1.516 4.63229e-07 -4.52049e-15)
(1.516 2.75143e-07 -4.05173e-15)
(1.516 1.11658e-07 -3.14308e-15)
(1.516 -3.3533e-08 -2.87547e-15)
(1.516 -1.65963e-07 -2.02819e-15)
(1.516 -2.90619e-07 -2.01668e-15)
(1.516 -4.12051e-07 -1.14507e-15)
(1.516 -5.3446e-07 -9.31804e-16)
(1.516 -6.61832e-07 -5.433e-16)
(1.516 -7.9811e-07 1.57427e-16)
(1.516 -9.47297e-07 8.39957e-17)
(1.516 -1.11351e-06 8.71891e-16)
(1.516 -1.30111e-06 7.70361e-16)
(1.516 -1.51484e-06 1.30211e-15)
(1.516 -1.75999e-06 1.29976e-15)
(1.51601 -2.0424e-06 1.94943e-15)
(1.51601 -2.36866e-06 2.02361e-15)
(1.51601 -2.7463e-06 2.33629e-15)
(1.51601 -3.184e-06 2.26534e-15)
(1.51601 -3.69167e-06 3.03895e-15)
(1.51602 -4.28078e-06 2.85089e-15)
(1.51602 -4.96461e-06 3.35073e-15)
(1.51602 -5.7585e-06 3.11817e-15)
(1.51603 -6.6802e-06 3.45311e-15)
(1.51604 -7.7503e-06 3.39308e-15)
(1.51604 -8.99269e-06 3.96603e-15)
(1.51605 -1.04351e-05 3.58431e-15)
(1.51606 -1.21097e-05 4.24378e-15)
(1.51607 -1.40538e-05 3.96995e-15)
(1.51608 -1.63108e-05 4.26652e-15)
(1.51609 -1.89309e-05 4.05607e-15)
(1.51611 -2.19726e-05 4.55034e-15)
(1.51613 -2.55035e-05 4.28422e-15)
(1.51615 -2.96023e-05 4.33912e-15)
(1.51617 -3.43604e-05 4.55284e-15)
(1.5162 -3.98839e-05 4.96155e-15)
(1.51623 -4.62957e-05 5.52577e-15)
(1.51627 -5.37387e-05 5.49327e-15)
(1.51631 -6.23789e-05 5.82069e-15)
(1.51636 -7.24087e-05 5.47094e-15)
(1.51642 -8.40516e-05 5.90973e-15)
(1.51649 -9.75672e-05 5.4112e-15)
(1.51657 -0.000113257 5.68063e-15)
(1.51667 -0.00013147 6.02095e-15)
(1.51677 -0.000152612 6.441e-15)
(1.5169 -0.000177155 6.06395e-15)
(1.51704 -0.000205646 6.55186e-15)
(1.51721 -0.000238719 6.37511e-15)
(1.51741 -0.000277111 6.7216e-15)
(1.51763 -0.000321678 6.30962e-15)
(1.5179 -0.00037341 6.6586e-15)
(1.5182 -0.000433461 6.85774e-15)
(1.51856 -0.000503166 7.39202e-15)
(1.51897 -0.000584074 6.96113e-15)
(1.51945 -0.000677983 7.14248e-15)
(1.52 -0.000786977 7.06578e-15)
(1.52065 -0.000913472 7.01575e-15)
(1.5214 -0.00106027 6.72704e-15)
(1.52226 -0.00123061 6.66254e-15)
(1.52327 -0.00142825 6.59375e-15)
(1.52444 -0.00165754 6.82914e-15)
(1.5258 -0.0019235 7.26447e-15)
(1.52737 -0.00223194 7.3224e-15)
(1.5292 -0.00258956 7.40043e-15)
(1.53132 -0.00300408 6.94171e-15)
(1.53378 -0.00348441 7.03501e-15)
(1.53664 -0.00404077 6.59376e-15)
(1.53995 -0.00468486 6.60514e-15)
(1.54378 -0.00543008 6.86434e-15)
(1.54823 -0.00629172 7.38513e-15)
(1.55338 -0.00728712 7.06951e-15)
(1.55935 -0.00843587 7.37943e-15)
(1.56626 -0.00975999 7.09755e-15)
(1.57425 -0.011284 7.22994e-15)
(1.58349 -0.0130351 6.77749e-15)
(1.59417 -0.015043 6.91116e-15)
(1.60649 -0.0173394 7.35913e-15)
(1.62069 -0.0199582 7.6571e-15)
(1.63704 -0.0229339 7.44794e-15)
(1.65582 -0.0263009 7.73748e-15)
(1.67736 -0.0300912 7.3891e-15)
(1.702 -0.0343322 7.658e-15)
(1.73011 -0.0390428 7.61271e-15)
(1.76206 -0.0442294 7.3927e-15)
(1.79824 -0.0498798 7.20825e-15)
(1.83903 -0.0559573 7.57898e-15)
(1.88474 -0.0623927 7.90227e-15)
(1.93567 -0.0690783 7.70213e-15)
(1.99197 -0.075859 7.8888e-15)
(2.05368 -0.0825323 7.78909e-15)
(2.12067 -0.0888423 8.12056e-15)
(2.19256 -0.0944954 7.96516e-15)
(2.26875 -0.0991643 7.88324e-15)
(2.34832 -0.102524 7.94456e-15)
(2.43013 -0.104282 8.10584e-15)
(2.51277 -0.104214 7.83719e-15)
(1.00015 -0.00130681 -6.09732e-17)
(1.00154 -0.00392375 4.84581e-16)
(1.00449 -0.00649811 2.65235e-15)
(1.00897 -0.00898038 1.03895e-15)
(1.01483 -0.0113281 -2.94301e-15)
(1.02199 -0.0135074 -3.64938e-16)
(1.03034 -0.0154921 -3.39746e-15)
(1.03975 -0.0172643 -8.84024e-16)
(1.0501 -0.0188138 -1.38081e-15)
(1.06126 -0.020138 -3.90761e-15)
(1.07309 -0.0212409 -3.38384e-15)
(1.08547 -0.0221316 -3.32308e-15)
(1.09828 -0.022823 -5.57139e-15)
(1.11141 -0.023331 -7.23532e-15)
(1.12476 -0.0236729 -6.41477e-15)
(1.13824 -0.023867 -8.32286e-15)
(1.15177 -0.0239313 -9.72308e-15)
(1.16529 -0.0238833 -8.87039e-15)
(1.17874 -0.0237396 -1.03874e-14)
(1.19208 -0.0235153 -1.15456e-14)
(1.20525 -0.023224 -1.08335e-14)
(1.21824 -0.0228782 -1.22888e-14)
(1.23101 -0.0224883 -1.33942e-14)
(1.24354 -0.0220638 -1.21644e-14)
(1.25581 -0.0216126 -1.3348e-14)
(1.26782 -0.0211415 -1.3987e-14)
(1.27955 -0.0206561 -1.46441e-14)
(1.291 -0.0201615 -1.52273e-14)
(1.30217 -0.0196619 -1.28713e-14)
(1.31304 -0.0191608 -1.36582e-14)
(1.32363 -0.0186617 -1.40351e-14)
(1.33394 -0.0181673 -1.47881e-14)
(1.34396 -0.0176803 -1.47489e-14)
(1.3537 -0.0172029 -1.52226e-14)
(1.36318 -0.0167369 -1.34987e-14)
(1.37238 -0.0162837 -1.43699e-14)
(1.38133 -0.0158439 -1.52063e-14)
(1.39002 -0.0154171 -1.55338e-14)
(1.39846 -0.0150022 -1.59518e-14)
(1.40666 -0.0145967 -1.64497e-14)
(1.41463 -0.0141969 -1.45356e-14)
(1.42235 -0.0137982 -1.5229e-14)
(1.42984 -0.0133947 -1.57068e-14)
(1.43708 -0.0129801 -1.59911e-14)
(1.44407 -0.0125477 -1.64109e-14)
(1.4508 -0.0120911 -1.66177e-14)
(1.45725 -0.0116047 -1.67281e-14)
(1.46341 -0.0110839 -1.69433e-14)
(1.46925 -0.0105263 -1.72587e-14)
(1.47477 -0.00993131 -1.70966e-14)
(1.47993 -0.00930086 -1.74195e-14)
(1.48472 -0.00863918 -1.71924e-14)
(1.48914 -0.00795277 -1.73876e-14)
(1.49317 -0.00725002 -1.7104e-14)
(1.4968 -0.00654072 -1.72869e-14)
(1.50005 -0.00583554 -1.79815e-14)
(1.50291 -0.00514532 -1.49973e-14)
(1.5054 -0.00448045 -1.53755e-14)
(1.50755 -0.00385033 -1.51004e-14)
(1.50936 -0.00326287 -1.55445e-14)
(1.51088 -0.00272417 -1.53943e-14)
(1.51212 -0.00223833 -1.54391e-14)
(1.51313 -0.00180745 -1.57338e-14)
(1.51392 -0.00143171 -1.57291e-14)
(1.51454 -0.00110963 -1.58456e-14)
(1.515 -0.000838333 -1.58583e-14)
(1.51533 -0.000613883 -1.59991e-14)
(1.51557 -0.000431654 -1.63262e-14)
(1.51572 -0.000286635 -1.48384e-14)
(1.51581 -0.000173719 -1.15354e-14)
(1.51586 -8.7935e-05 -1.30841e-14)
(1.51586 -2.46072e-05 -1.01129e-14)
(1.51585 2.04824e-05 -1.18248e-14)
(1.51581 5.1086e-05 -9.02935e-15)
(1.51577 7.04319e-05 -1.10673e-14)
(1.51572 8.12339e-05 -8.33741e-15)
(1.51567 8.57267e-05 -1.02077e-14)
(1.51562 8.57111e-05 -7.26294e-15)
(1.51557 8.26079e-05 -9.18088e-15)
(1.51552 7.75137e-05 -6.76653e-15)
(1.51548 7.12557e-05 -8.68015e-15)
(1.51544 6.44418e-05 -6.91584e-15)
(1.51541 5.75056e-05 -7.83808e-15)
(1.51538 5.07442e-05 -8.45112e-15)
(1.51535 4.43512e-05 -8.97182e-15)
(1.51533 3.8442e-05 -9.70686e-15)
(1.51531 3.30755e-05 -1.00536e-14)
(1.5153 2.82703e-05 -1.04226e-14)
(1.51528 2.40177e-05 -1.08665e-14)
(1.51527 2.02907e-05 -1.11261e-14)
(1.51526 1.70516e-05 -1.16457e-14)
(1.51525 1.42569e-05 -1.19394e-14)
(1.51524 1.18608e-05 -1.22793e-14)
(1.51524 9.81809e-06 -1.11645e-14)
(1.51523 8.08529e-06 -8.20188e-15)
(1.51523 6.62194e-06 -9.89263e-15)
(1.51523 5.39096e-06 -7.52184e-15)
(1.51523 4.35893e-06 -9.17741e-15)
(1.51522 3.49604e-06 -6.49713e-15)
(1.51522 2.77601e-06 -8.40944e-15)
(1.51522 2.17582e-06 -6.19103e-15)
(1.51522 1.67537e-06 -4.84543e-15)
(1.51522 1.25724e-06 -3.60928e-15)
(1.51522 9.06371e-07 -2.68297e-15)
(1.51522 6.09766e-07 -1.6914e-15)
(1.51522 3.56128e-07 -9.18369e-16)
(1.51522 1.35645e-07 -1.40689e-16)
(1.51522 -6.0233e-08 5.57953e-16)
(1.51522 -2.39009e-07 1.10763e-15)
(1.51522 -4.07489e-07 1.64887e-15)
(1.51522 -5.7187e-07 2.22759e-15)
(1.51522 -7.37815e-07 2.83057e-15)
(1.51522 -9.1071e-07 1.62255e-15)
(1.51522 -1.09596e-06 2.61051e-15)
(1.51522 -1.29906e-06 3.2395e-15)
(1.51522 -1.5256e-06 3.90279e-15)
(1.51522 -1.78143e-06 4.23037e-15)
(1.51522 -2.07309e-06 4.71262e-15)
(1.51522 -2.4078e-06 5.0921e-15)
(1.51523 -2.7935e-06 5.50426e-15)
(1.51523 -3.23916e-06 5.82007e-15)
(1.51523 -3.75513e-06 6.12838e-15)
(1.51523 -4.35323e-06 6.37862e-15)
(1.51523 -5.04704e-06 6.67326e-15)
(1.51524 -5.8522e-06 6.79331e-15)
(1.51524 -6.78686e-06 7.03683e-15)
(1.51524 -7.87199e-06 7.2747e-15)
(1.51525 -9.13183e-06 7.39835e-15)
(1.51525 -1.05945e-05 7.52587e-15)
(1.51526 -1.22928e-05 7.75359e-15)
(1.51527 -1.42644e-05 7.82118e-15)
(1.51527 -1.65535e-05 8.16986e-15)
(1.51528 -1.92109e-05 8.13557e-15)
(1.5153 -2.22961e-05 8.17952e-15)
(1.51531 -2.58776e-05 8.29652e-15)
(1.51532 -3.00353e-05 8.58814e-15)
(1.51534 -3.48619e-05 8.78456e-15)
(1.51536 -4.04647e-05 7.41721e-15)
(1.51538 -4.69688e-05 7.96982e-15)
(1.51541 -5.4519e-05 8.3517e-15)
(1.51544 -6.32835e-05 8.8666e-15)
(1.51548 -7.34576e-05 9.15325e-15)
(1.51552 -8.52681e-05 9.37312e-15)
(1.51557 -9.89782e-05 9.58845e-15)
(1.51563 -0.000114893 9.85229e-15)
(1.51569 -0.000133368 9.81429e-15)
(1.51577 -0.000154815 9.94736e-15)
(1.51586 -0.000179711 1.00681e-14)
(1.51597 -0.000208611 1.04544e-14)
(1.51609 -0.00024216 1.05658e-14)
(1.51623 -0.000281105 1.06428e-14)
(1.51639 -0.000326314 1.09395e-14)
(1.51658 -0.000378794 1.09395e-14)
(1.5168 -0.000439714 1.10513e-14)
(1.51705 -0.000510431 1.09801e-14)
(1.51734 -0.000592519 1.1115e-14)
(1.51769 -0.000687805 1.12928e-14)
(1.51808 -0.000798407 1.13259e-14)
(1.51855 -0.000926784 1.12746e-14)
(1.51908 -0.00107579 1.14442e-14)
(1.5197 -0.00124872 1.14372e-14)
(1.52042 -0.00144941 1.14844e-14)
(1.52126 -0.0016823 1.00035e-14)
(1.52223 -0.00195253 1.03037e-14)
(1.52336 -0.00226604 1.05498e-14)
(1.52467 -0.00262972 1.0856e-14)
(1.52619 -0.00305153 1.11277e-14)
(1.52796 -0.00354064 1.12082e-14)
(1.53 -0.00410765 1.12305e-14)
(1.53238 -0.00476477 1.1178e-14)
(1.53513 -0.00552602 1.10277e-14)
(1.53833 -0.0064075 1.10559e-14)
(1.54204 -0.00742766 1.10405e-14)
(1.54633 -0.00860752 1.12993e-14)
(1.55131 -0.00997102 1.12991e-14)
(1.55708 -0.0115452 1.13732e-14)
(1.56376 -0.0133607 1.13607e-14)
(1.5715 -0.0154515 1.15056e-14)
(1.58045 -0.0178555 1.12839e-14)
(1.5908 -0.0206143 1.13665e-14)
(1.60275 -0.0237727 1.13353e-14)
(1.61654 -0.0273785 1.14448e-14)
(1.63243 -0.0314814 1.13517e-14)
(1.65072 -0.036131 1.1492e-14)
(1.67172 -0.0413749 1.14876e-14)
(1.6958 -0.0472548 1.14834e-14)
(1.72332 -0.053802 1.1708e-14)
(1.75469 -0.061031 1.04495e-14)
(1.79032 -0.0689318 1.06151e-14)
(1.8306 -0.0774608 1.08888e-14)
(1.87592 -0.0865293 1.10789e-14)
(1.9266 -0.0959934 1.11843e-14)
(1.98287 -0.105641 1.11415e-14)
(2.04482 -0.115189 1.1053e-14)
(2.11237 -0.124272 1.11579e-14)
(2.1852 -0.132467 1.11097e-14)
(2.26272 -0.139285 1.09806e-14)
(2.34399 -0.144245 1.07993e-14)
(2.42782 -0.146892 1.07466e-14)
(2.51267 -0.146875 1.05506e-14)
(1.00016 -0.00170585 -1.1661e-17)
(1.00159 -0.00512378 -3.97508e-16)
(1.00466 -0.00848364 -1.6185e-15)
(1.00929 -0.0117191 -1.56855e-15)
(1.01537 -0.0147741 -2.53949e-15)
(1.02277 -0.0176038 -2.90378e-15)
(1.03139 -0.0201739 -3.43056e-15)
(1.04109 -0.0224613 -2.99247e-15)
(1.05174 -0.024454 -3.16142e-15)
(1.0632 -0.0261498 -3.37905e-15)
(1.07532 -0.0275552 -3.39882e-15)
(1.08798 -0.0286833 -3.85534e-15)
(1.10106 -0.0295525 -4.55986e-15)
(1.11444 -0.0301841 -4.94268e-15)
(1.12802 -0.0306016 -3.74344e-15)
(1.14171 -0.0308293 -5.09187e-15)
(1.15543 -0.030891 -6.14446e-15)
(1.16913 -0.0308096 -6.73076e-15)
(1.18274 -0.0306065 -7.2715e-15)
(1.19621 -0.0303014 -7.7137e-15)
(1.20951 -0.0299118 -8.49035e-15)
(1.22261 -0.0294535 -8.86554e-15)
(1.23547 -0.02894 -9.26304e-15)
(1.24808 -0.028383 -1.08823e-14)
(1.26043 -0.0277928 -1.05816e-14)
(1.27249 -0.0271776 -1.04572e-14)
(1.28427 -0.0265449 -1.06784e-14)
(1.29576 -0.0259006 -1.10604e-14)
(1.30696 -0.0252501 -1.07696e-14)
(1.31785 -0.0245977 -1.07532e-14)
(1.32845 -0.0239476 -1.08178e-14)
(1.33875 -0.0233032 -1.07059e-14)
(1.34876 -0.0226676 -1.08922e-14)
(1.35848 -0.0220436 -1.13006e-14)
(1.36792 -0.0214332 -1.10906e-14)
(1.37708 -0.0208381 -1.11214e-14)
(1.38596 -0.0202589 -1.14541e-14)
(1.39458 -0.0196952 -1.15761e-14)
(1.40293 -0.0191454 -1.16225e-14)
(1.41102 -0.0186064 -1.19411e-14)
(1.41886 -0.0180737 -1.15704e-14)
(1.42645 -0.0175415 -1.17506e-14)
(1.43377 -0.0170027 -1.20826e-14)
(1.44084 -0.0164495 -1.23151e-14)
(1.44764 -0.0158738 -1.23594e-14)
(1.45415 -0.0152679 -1.24204e-14)
(1.46037 -0.0146252 -1.25692e-14)
(1.46628 -0.0139405 -1.2713e-14)
(1.47187 -0.013211 -1.30522e-14)
(1.47712 -0.0124367 -1.31096e-14)
(1.482 -0.0116203 -1.32174e-14)
(1.48652 -0.0107676 -1.3236e-14)
(1.49066 -0.00988716 -1.30518e-14)
(1.49441 -0.00898971 -1.31236e-14)
(1.49777 -0.00808775 -1.29238e-14)