/*--------------------------------*- C++ -*----------------------------------*\
  =========                 |
  \\      /  F ield         | OpenFOAM: The Open Source CFD Toolbox
   \\    /   O peration     | Website:  https://openfoam.org
    \\  /    A nd           | Version:  7
     \\/     M anipulation  |
\*---------------------------------------------------------------------------*/
FoamFile
{
    version     2.0;
    format      ascii;
    class       volScalarField;
    location    "2";
    object      p;
}
// * * * * * * * * * * * * * * * * * * * * * * * * * * * * * * * * * * * * * //

dimensions      [0 2 -2 0 0 0 0];

internalField   nonuniform List<scalar> 
344
(
2.32615
2.1452
1.93048
1.6809
1.39555
1.08532
3.56956
3.56251
3.55548
3.54846
3.54146
3.53448
3.5275
3.52054
3.51358
3.50664
3.49971
3.49278
3.48586
3.47894
3.47202
3.46511
3.45819
3.45127
3.44435
3.43741
3.43046
3.4235
3.41651
3.4095
3.40245
3.39537
3.38824
3.38105
3.3738
3.36648
3.35906
3.35153
3.34387
3.33607
3.32808
3.31988
3.31143
3.30269
3.29359
3.28409
3.27408
3.2635
3.25222
3.24011
3.22702
3.21273
3.19703
3.1796
3.16011
3.13809
3.11299
3.08413
3.05062
3.01136
2.96493
2.90953
2.84285
2.76196
2.66315
2.54186
2.3926
2.20934
1.98553
1.71753
1.40031
1.04943
3.56953
3.56249
3.55546
3.54845
3.54145
3.53447
3.5275
3.52054
3.51359
3.50665
3.49972
3.4928
3.48589
3.47898
3.47208
3.46517
3.45827
3.45137
3.44446
3.43754
3.43062
3.42368
3.41673
3.40975
3.40275
3.39572
3.38866
3.38155
3.37439
3.36716
3.35986
3.35247
3.34498
3.33737
3.32961
3.32168
3.31355
3.30518
3.29652
3.28753
3.27813
3.26826
3.25782
3.2467
3.23476
3.22184
3.20774
3.1922
3.17492
3.1555
3.13345
3.10816
3.07882
3.04439
3.00353
2.95447
2.89486
2.8216
2.73057
2.61633
2.47201
2.28908
2.05785
1.76985
1.4136
1.00705
3.56951
3.56247
3.55545
3.54844
3.54145
3.53447
3.5275
3.52054
3.5136
3.50667
3.49975
3.49283
3.48593
3.47903
3.47213
3.46524
3.45835
3.45146
3.44457
3.43767
3.43077
3.42386
3.41694
3.41
3.40304
3.39607
3.38906
3.38202
3.37494
3.36781
3.36063
3.35337
3.34604
3.33861
3.33107
3.3234
3.31557
3.30756
3.29932
3.29082
3.28201
3.27282
3.26319
3.25302
3.24221
3.23062
3.21809
3.2044
3.18932
3.1725
3.15354
3.13189
3.10687
3.07756
3.04273
3.00073
2.94932
2.88538
2.80458
2.70077
2.5656
2.38736
2.15216
1.84325
1.44248
0.959142
3.5695
3.56247
3.55544
3.54844
3.54145
3.53447
3.52751
3.52056
3.51362
3.50669
3.49977
3.49287
3.48597
3.47907
3.47219
3.4653
3.45843
3.45155
3.44467
3.43779
3.43091
3.42403
3.41713
3.41023
3.40331
3.39638
3.38943
3.38246
3.37545
3.36841
3.36133
3.3542
3.34702
3.33976
3.33243
3.32499
3.31744
3.30976
3.30191
3.29388
3.28561
3.27706
3.26819
3.25892
3.24916
3.23883
3.22779
3.21588
3.20291
3.1886
3.17265
3.1546
3.1339
3.10979
3.08122
3.04678
3.00445
2.95137
2.88333
2.794
2.67388
2.50791
2.27548
1.94439
1.48765
0.882438
3.5695
3.56247
3.55545
3.54844
3.54146
3.53448
3.52752
3.52058
3.51364
3.50672
3.4998
3.4929
3.48601
3.47912
3.47224
3.46537
3.4585
3.45163
3.44477
3.43791
3.43104
3.42418
3.41731
3.41044
3.40356
3.39667
3.38977
3.38285
3.37591
3.36895
3.36197
3.35495
3.3479
3.34079
3.33364
3.32642
3.31913
3.31174
3.30425
3.29662
3.28885
3.28088
3.2727
3.26424
3.25546
3.24627
3.2366
3.22633
3.2153
3.20334
3.19021
3.17557
3.15901
3.13994
0.755626
0.431102
0.144355
-0.0931978
0.664431
0.293996
-0.0126041
-0.250408
0.531635
0.100352
-0.218314
-0.442963
0.334691
-0.168426
-0.478011
-0.668325
0.0412756
-0.507656
-0.764813
-0.896483
)
;

boundaryField
{
    inlet
    {
        type            zeroGradient;
    }
    outlet
    {
        type            fixedValue;
        value           nonuniform 0();
    }
    wall
    {
        type            zeroGradient;
    }
    wedge1
    {
        type            wedge;
    }
    wedge2
    {
        type            wedge;
    }
    axis
    {
        type            empty;
    }
    procBoundary14to8
    {
        type            processor;
        value           nonuniform List<scalar> 
71
(
2.27116
2.09393
1.88846
1.65489
1.39434
1.11447
3.56959
3.56254
3.55551
3.54849
3.54148
3.53449
3.52751
3.52054
3.51358
3.50663
3.49969
3.49276
3.48583
3.4789
3.47197
3.46505
3.45812
3.45118
3.44424
3.43728
3.4303
3.42331
3.41629
3.40923
3.40214
3.395
3.38781
3.38055
3.37321
3.36578
3.35824
3.35057
3.34274
3.33473
3.32651
3.31804
3.30927
3.30015
3.29061
3.28058
3.26996
3.25866
3.24654
3.23344
3.21918
3.20354
3.18624
3.16696
3.14529
3.12075
3.09273
3.06048
3.02308
2.97939
2.92798
2.86709
2.79453
2.70763
2.60317
2.47742
2.47742
0.821752
0.531383
0.264905
0.0336432
)
;
    }
    procBoundary14to9
    {
        type            processor;
        value           uniform -0.285938;
    }
    procBoundary14to13
    {
        type            processor;
        value           nonuniform List<scalar> 5(3.57662 3.57659 3.57657 3.57656 3.57655);
    }
    procBoundary14to15
    {
        type            processor;
        value           nonuniform List<scalar> 4(-0.434923 -0.608724 -0.800241 -0.980259);
    }
    procBoundary14to20
    {
        type            processor;
        value           nonuniform List<scalar> 
71
(
3.11756
3.09076
3.05792
3.01667
2.96343
2.8925
2.7946
2.65324
2.44039
2.09766
1.55663
0.690328
3.56951
3.56248
3.55546
3.54846
3.54147
3.5345
3.52754
3.5206
3.51367
3.50675
3.49984
3.49294
3.48605
3.47917
3.47229
3.46543
3.45857
3.45171
3.44486
3.43801
3.43116
3.42431
3.41747
3.41062
3.40377
3.39692
3.39006
3.38319
3.37631
3.36942
3.36252
3.3556
3.34866
3.34169
3.33469
3.32766
3.32059
3.31346
3.30627
3.29901
3.29166
3.28421
3.27662
3.26888
3.26094
3.25277
3.2443
3.23547
3.22618
3.21632
3.20571
3.19415
3.18134
3.11756
3.16691
-0.468138
-0.897471
-1.02322
-1.07675
)
;
    }
}


// ************************************************************************* //
