/*--------------------------------*- C++ -*----------------------------------*\
  =========                 |
  \\      /  F ield         | OpenFOAM: The Open Source CFD Toolbox
   \\    /   O peration     | Website:  https://openfoam.org
    \\  /    A nd           | Version:  7
     \\/     M anipulation  |
\*---------------------------------------------------------------------------*/
FoamFile
{
    version     2.0;
    format      ascii;
    class       surfaceScalarField;
    location    "5";
    object      phi;
}
// * * * * * * * * * * * * * * * * * * * * * * * * * * * * * * * * * * * * * //

dimensions      [0 3 -1 0 0 0 0];

internalField   nonuniform List<scalar> 
29690
(
-2.53503e-07
2.53767e-07
-2.63294e-10
-1.02678e-06
7.7403e-07
-7.50664e-10
-2.35649e-06
1.33095e-06
-1.24215e-09
-4.28015e-06
1.92541e-06
-1.75791e-09
-6.83596e-06
2.55811e-06
-2.30596e-09
-1.00627e-05
3.22967e-06
-2.87266e-09
-1.39999e-05
3.94064e-06
-3.49281e-09
-1.86873e-05
4.6916e-06
-4.17059e-09
-2.41655e-05
5.48307e-06
-4.94944e-09
-3.04752e-05
6.3156e-06
-5.86927e-09
-3.7658e-05
7.18971e-06
-6.90556e-09
-4.57559e-05
8.10597e-06
-8.0551e-09
-5.48116e-05
9.06502e-06
-9.29041e-09
-6.48687e-05
1.00676e-05
-1.05952e-08
-7.59714e-05
1.11147e-05
-1.19686e-08
-8.81656e-05
1.22076e-05
-1.3411e-08
-0.000101498
1.33477e-05
-1.49235e-08
-0.000116019
1.45372e-05
-1.65072e-08
-0.000131779
1.57785e-05
-1.81641e-08
-0.000148834
1.70749e-05
-1.98961e-08
-0.000167243
1.84302e-05
-2.17057e-08
-0.000187069
1.98493e-05
-2.35955e-08
-0.000208381
2.13382e-05
-2.55681e-08
-0.000231257
2.29036e-05
-2.76233e-08
-0.000255781
2.45539e-05
-2.97623e-08
-0.000282048
2.62984e-05
-3.19966e-08
-0.000310162
2.81482e-05
-3.43291e-08
-0.000340241
3.01156e-05
-3.67765e-08
-0.000372416
3.22148e-05
-3.9348e-08
-0.000406835
3.44611e-05
-4.20305e-08
-0.000443662
3.68715e-05
-4.48275e-08
-0.000483078
3.94642e-05
-4.77347e-08
-0.000525286
4.22588e-05
-5.07502e-08
-0.000570508
4.52759e-05
-5.38696e-08
-0.000618988
4.85369e-05
-5.70846e-08
-0.000670992
5.20638e-05
-6.03838e-08
-0.000726806
5.58776e-05
-6.37526e-08
-0.000786733
5.99944e-05
-6.71694e-08
-0.000851089
6.44269e-05
-7.06037e-08
6.92232e-05
-7.40232e-08
-0.000920238
-2.48639e-07
5.02406e-07
-1.00738e-06
1.53277e-06
-2.31251e-06
2.63608e-06
-4.20123e-06
3.81413e-06
-6.71142e-06
5.06831e-06
-9.88163e-06
6.39987e-06
-1.3751e-05
7.80999e-06
-1.83591e-05
9.29976e-06
-2.37463e-05
1.08702e-05
-2.99531e-05
1.25224e-05
-3.70208e-05
1.42574e-05
-4.4991e-05
1.60762e-05
-5.39061e-05
1.79801e-05
-6.38091e-05
1.99706e-05
-7.4744e-05
2.20496e-05
-8.67557e-05
2.42193e-05
-9.98908e-05
2.64829e-05
-0.000114198
2.8844e-05
-0.000129727
3.13075e-05
-0.000146531
3.38796e-05
-0.000164669
3.65677e-05
-0.000184201
3.93813e-05
-0.000205194
4.23315e-05
-0.000227722
4.54319e-05
-0.000251867
4.86982e-05
-0.000277717
5.21489e-05
-0.000305374
5.5805e-05
-0.000334949
5.96906e-05
-0.000366567
6.38329e-05
-0.000400368
6.82619e-05
-0.000436507
7.30105e-05
-0.000475156
7.8114e-05
-0.000516508
8.36106e-05
-0.000560773
8.95405e-05
-0.000608181
9.59453e-05
-0.000658985
0.000102868
-0.000713456
0.000110349
-0.000771881
0.000118419
-0.000834556
0.000127103
0.000136491
-0.000901824
-2.39144e-07
7.4155e-07
-9.69491e-07
2.26311e-06
-2.22661e-06
3.8932e-06
-4.047e-06
5.63452e-06
-6.4679e-06
7.48921e-06
-9.52724e-06
9.45921e-06
-1.32636e-05
1.15463e-05
-1.7716e-05
1.37522e-05
-2.29243e-05
1.60785e-05
-2.89285e-05
1.85266e-05
-3.57692e-05
2.10981e-05
-4.34875e-05
2.37945e-05
-5.2125e-05
2.66176e-05
-6.17239e-05
2.95695e-05
-7.2327e-05
3.26528e-05
-8.39783e-05
3.58706e-05
-9.67225e-05
3.92271e-05
-0.000110606
4.27276e-05
-0.000125677
4.63787e-05
-0.000141987
5.0189e-05
-0.000159588
5.4169e-05
-0.000178539
5.83318e-05
-0.0001989
6.26933e-05
-0.000220741
6.72723e-05
-0.000244134
7.20913e-05
-0.000269161
7.71764e-05
-0.000295914
8.25576e-05
-0.000324492
8.82689e-05
-0.000355008
9.4349e-05
-0.000387587
0.000100841
-0.000422367
0.000107791
-0.000459503
0.00011525
-0.000499164
0.000123272
-0.00054154
0.000131916
-0.000586835
0.00014124
-0.000635273
0.000151306
-0.000687098
0.000162173
-0.000742564
0.000173885
-0.000801932
0.000186471
0.00020006
-0.000865501
-2.25343e-07
9.66893e-07
-9.14387e-07
2.95216e-06
-2.1016e-06
5.08042e-06
-3.82244e-06
7.35535e-06
-6.11316e-06
9.77993e-06
-9.01074e-06
1.23568e-05
-1.25529e-05
1.50885e-05
-1.67778e-05
1.79772e-05
-2.17244e-05
2.10251e-05
-2.74319e-05
2.42341e-05
-3.39401e-05
2.76062e-05
-4.1289e-05
3.11434e-05
-4.95191e-05
3.48477e-05
-5.86713e-05
3.87218e-05
-6.8787e-05
4.27685e-05
-7.99081e-05
4.69917e-05
-9.20772e-05
5.13962e-05
-0.000105338
5.59882e-05
-0.000119735
6.07756e-05
-0.000135314
6.57687e-05
-0.000152125
7.09801e-05
-0.000170219
7.64254e-05
-0.00018965
8.2124e-05
-0.000210477
8.8099e-05
-0.000232763
9.43776e-05
-0.000256578
0.000100992
-0.000282
0.000107979
-0.000309111
0.00011538
-0.000338006
0.000123244
-0.000368788
0.000131623
-0.000401572
0.000140574
-0.000436484
0.000150162
-0.000473665
0.000160453
-0.000513269
0.00017152
-0.000555466
0.000183437
-0.00060044
0.00019628
-0.00064839
0.000210124
-0.000699528
0.000225022
-0.000754066
0.000241009
0.000258237
-0.000812243
-2.07697e-07
1.17459e-06
-8.43885e-07
3.58835e-06
-1.94157e-06
6.1781e-06
-3.53479e-06
8.94857e-06
-5.65846e-06
1.19036e-05
-8.3483e-06
1.50466e-05
-1.16408e-05
1.83809e-05
-1.5573e-05
2.19094e-05
-2.01825e-05
2.56346e-05
-2.55075e-05
2.95591e-05
-3.15864e-05
3.36851e-05
-3.8458e-05
3.8015e-05
-4.61612e-05
4.25509e-05
-5.47352e-05
4.72957e-05
-6.42191e-05
5.22525e-05
-7.46526e-05
5.74251e-05
-8.6075e-05
6.28186e-05
-9.85264e-05
6.84395e-05
-0.000112047
7.42963e-05
-0.000126678
8.03997e-05
-0.000142461
8.67634e-05
-0.00015944
9.34044e-05
-0.00017766
0.000100344
-0.000197169
0.000107607
-0.000218016
0.000115225
-0.000240257
0.000123233
-0.000263949
0.000131671
-0.000289157
0.000140588
-0.000315949
0.000150036
-0.000344402
0.000160076
-0.0003746
0.000170772
-0.000406634
0.000182197
-0.000440608
0.000194426
-0.000476631
0.000207543
-0.000514828
0.000221633
-0.000555332
0.000236784
-0.00059829
0.000253081
-0.000643857
0.00027059
-0.000692188
0.00028934
0.000309501
-0.000743452
-1.86794e-07
1.36138e-06
-7.60293e-07
4.16184e-06
-1.75168e-06
7.16949e-06
-3.19322e-06
1.03901e-05
-5.11814e-06
1.38285e-05
-7.56053e-06
1.7489e-05
-1.05552e-05
2.13757e-05
-1.41378e-05
2.5492e-05
-1.83444e-05
2.98412e-05
-2.32115e-05
3.44262e-05
-2.87759e-05
3.92495e-05
-3.50746e-05
4.43136e-05
-4.21446e-05
4.96209e-05
-5.00227e-05
5.51739e-05
-5.87457e-05
6.09755e-05
-6.83499e-05
6.70293e-05
-7.88711e-05
7.33398e-05
-9.03448e-05
7.99133e-05
-0.000102806
8.67575e-05
-0.000116289
9.38829e-05
-0.000130829
0.000101303
-0.000146459
0.000109034
-0.000163213
0.000117098
-0.000181126
0.00012552
-0.000200233
0.000134332
-0.000220569
0.000143569
-0.000242173
0.000153274
-0.000265081
0.000163497
-0.000289337
0.000174292
-0.000314984
0.000185723
-0.000342069
0.000197857
-0.000370643
0.000210771
-0.000400762
0.000224546
-0.000432488
0.000239269
-0.000465888
0.000255034
-0.000501038
0.000271934
-0.000538023
0.000290066
-0.000576935
0.000309502
-0.000617864
0.000330269
0.000352544
-0.000660907
-1.6332e-07
1.5247e-06
-6.66317e-07
4.66484e-06
-1.538e-06
8.04118e-06
-2.80853e-06
1.16606e-05
-4.50904e-06
1.5529e-05
-6.67164e-06
1.96516e-05
-9.32923e-06
2.40332e-05
-1.25154e-05
2.86781e-05
-1.62643e-05
3.35901e-05
-2.06105e-05
3.87724e-05
-2.55888e-05
4.42277e-05
-3.12338e-05
4.99587e-05
-3.75801e-05
5.59673e-05
-4.4662e-05
6.22558e-05
-5.25128e-05
6.88263e-05
-6.11653e-05
7.56817e-05
-7.0651e-05
8.28255e-05
-8.10002e-05
9.02625e-05
-9.22417e-05
9.7999e-05
-0.000104403
0.000106044
-0.000117509
0.000114409
-0.000131583
0.000123109
-0.000146647
0.000132163
-0.000162721
0.000141594
-0.000179822
0.000151433
-0.000197965
0.000161712
-0.000217164
0.000172474
-0.000237431
0.000183763
-0.000258774
0.000195635
-0.000281202
0.00020815
-0.00030472
0.000221375
-0.000329334
0.000235385
-0.000355048
0.00025026
-0.000381867
0.000266088
-0.000409799
0.000282965
-0.000438851
0.000300987
-0.000469043
0.000320258
-0.000500399
0.000340857
-0.00053294
0.000362811
0.000386296
-0.000566692
-1.38029e-07
1.66273e-06
-5.64934e-07
5.09175e-06
-1.30724e-06
8.78348e-06
-2.39262e-06
1.2746e-05
-3.84982e-06
1.69862e-05
-5.70855e-06
2.15104e-05
-7.99936e-06
2.6324e-05
-1.07535e-05
3.14323e-05
-1.40027e-05
3.68393e-05
-1.77792e-05
4.25488e-05
-2.21151e-05
4.85636e-05
-2.70424e-05
5.4886e-05
-3.25929e-05
6.15177e-05
-3.87973e-05
6.84602e-05
-4.56856e-05
7.57146e-05
-5.32861e-05
8.32822e-05
-6.16254e-05
9.11649e-05
-7.07281e-05
9.93652e-05
-8.06161e-05
0.000107887
-9.13085e-05
0.000116736
-0.000102821
0.000125921
-0.000115166
0.000135453
-0.000128351
0.000145347
-0.00014238
0.000155623
-0.000157251
0.000166304
-0.000172958
0.00017742
-0.00018949
0.000189005
-0.000206828
0.000201101
-0.000224946
0.000213754
-0.000243815
0.000227019
-0.000263396
0.000240956
-0.000283645
0.000255633
-0.00030451
0.000271125
-0.000325935
0.000287514
-0.000347863
0.000304892
-0.000370233
0.000323357
-0.00039299
0.000343015
-0.00041609
0.000363957
-0.000439486
0.000386207
0.000409942
-0.000463132
-1.11713e-07
1.77445e-06
-4.59279e-07
5.43931e-06
-1.06644e-06
9.39064e-06
-1.9581e-06
1.36377e-05
-3.16023e-06
1.81884e-05
-4.69978e-06
2.30499e-05
-6.60457e-06
2.82288e-05
-8.90307e-06
3.37308e-05
-1.16243e-05
3.95605e-05
-1.47973e-05
4.57219e-05
-1.84515e-05
5.22178e-05
-2.26156e-05
5.90501e-05
-2.73178e-05
6.622e-05
-3.25852e-05
7.37276e-05
-3.84434e-05
8.15728e-05
-4.49161e-05
8.97549e-05
-5.20244e-05
9.82732e-05
-5.97864e-05
0.000107127
-6.82167e-05
0.000116317
-7.73258e-05
0.000125845
-8.7119e-05
0.000135715
-9.75965e-05
0.000145931
-0.000108752
0.000156503
-0.000120573
0.000167444
-0.000133038
0.000178769
-0.000146118
0.0001905
-0.000159775
0.000202662
-0.00017396
0.000215286
-0.000188612
0.000228407
-0.000203661
0.000242068
-0.000219023
0.000256318
-0.0002346
0.000271211
-0.000250286
0.00028681
-0.00026596
0.000303189
-0.000281497
0.000320429
-0.000296764
0.000338624
-0.000311635
0.000357885
-0.000325997
0.00037832
-0.000339734
0.000399944
0.000422933
-0.000352726
-8.51678e-08
1.85961e-06
-3.52514e-07
5.70666e-06
-8.22753e-07
9.86088e-06
-1.51772e-06
1.43326e-05
-2.46033e-06
1.9131e-05
-3.67443e-06
2.4264e-05
-5.1847e-06
2.97391e-05
-7.01644e-06
3.55625e-05
-9.19536e-06
4.17394e-05
-1.17473e-05
4.82738e-05
-1.4698e-05
5.51684e-05
-1.80725e-05
6.24246e-05
-2.18951e-05
7.00426e-05
-2.61886e-05
7.80211e-05
-3.09739e-05
8.63581e-05
-3.62692e-05
9.50502e-05
-4.20897e-05
0.000104094
-4.84469e-05
0.000113484
-5.53473e-05
0.000123218
-6.27923e-05
0.00013329
-7.07768e-05
0.000143699
-7.92886e-05
0.000154443
-8.83071e-05
0.000165522
-9.78023e-05
0.000176939
-0.000107734
0.000188701
-0.00011805
0.000200816
-0.000128684
0.000213297
-0.000139559
0.00022616
-0.000150578
0.000239426
-0.000161628
0.000253119
-0.000172581
0.00026727
-0.000183287
0.000281917
-0.000193581
0.000297104
-0.000203279
0.000312887
-0.000212186
0.000329336
-0.000220101
0.000346539
-0.000226828
0.000364612
-0.000232199
0.000383692
-0.000236045
0.00040379
0.000424987
-0.000238099
-5.91649e-08
1.91878e-06
-2.4771e-07
5.8952e-06
-5.8313e-07
1.01963e-05
-1.08398e-06
1.48335e-05
-1.76981e-06
1.98168e-05
-2.66108e-06
2.51553e-05
-3.779e-06
3.0857e-05
-5.14528e-06
3.69288e-05
-6.78199e-06
4.33761e-05
-8.71114e-06
5.0203e-05
-1.09545e-05
5.74118e-05
-1.35329e-05
6.50031e-05
-1.64662e-05
7.29758e-05
-1.97723e-05
8.13272e-05
-2.34669e-05
9.00526e-05
-2.75625e-05
9.91458e-05
-3.20679e-05
0.000108599
-3.69873e-05
0.000118404
-4.23191e-05
0.00012855
-4.80553e-05
0.000139027
-5.41801e-05
0.000149824
-6.06688e-05
0.000160931
-6.74866e-05
0.000172339
-7.45867e-05
0.000184039
-8.19095e-05
0.000196023
-8.93803e-05
0.000208287
-9.69081e-05
0.000220825
-0.000104383
0.000233635
-0.000111676
0.000246719
-0.000118635
0.000260078
-0.000125084
0.000273719
-0.000130823
0.000287656
-0.000135629
0.000301909
-0.000139255
0.000316513
-0.00014144
0.00033152
-0.000141915
0.000347014
-0.000140424
0.000363122
-0.000136769
0.000380036
-0.000130855
0.000397876
0.000416098
-0.000121966
-3.44214e-08
1.9532e-06
-1.47736e-07
6.00852e-06
-3.54095e-07
1.04027e-05
-6.68592e-07
1.5148e-05
-1.10723e-06
2.02554e-05
-1.68682e-06
2.57349e-05
-2.42476e-06
3.1595e-05
-3.3389e-06
3.78429e-05
-4.44723e-06
4.44845e-05
-5.76756e-06
5.15233e-05
-7.31718e-06
5.89614e-05
-9.11238e-06
6.67983e-05
-1.11679e-05
7.50314e-05
-1.34966e-05
8.36559e-05
-1.61083e-05
9.26643e-05
-1.90094e-05
0.000102047
-2.22019e-05
0.000111792
-2.56824e-05
0.000121884
-2.9441e-05
0.000132308
-3.34602e-05
0.000143046
-3.77135e-05
0.000154077
-4.2164e-05
0.000165382
-4.67626e-05
0.000176938
-5.14468e-05
0.000188723
-5.61384e-05
0.000200715
-6.07411e-05
0.000212889
-6.51395e-05
0.000225223
-6.91954e-05
0.000237691
-7.27463e-05
0.00025027
-7.56026e-05
0.000262934
-7.75453e-05
0.000275662
-7.83248e-05
0.000288436
-7.76606e-05
0.000301245
-7.52439e-05
0.000314096
-7.07448e-05
0.000327021
-6.38282e-05
0.000340097
-5.41781e-05
0.000353472
-4.15292e-05
0.000367387
-2.58745e-05
0.000382222
0.000399085
-8.86164e-06
-1.15772e-08
1.96478e-06
-5.51678e-08
6.05211e-06
-1.4152e-07
1.0489e-05
-2.82177e-07
1.52886e-05
-4.89447e-07
2.04627e-05
-7.76281e-07
2.60217e-05
-1.15609e-06
3.19748e-05
-1.64252e-06
3.83294e-05
-2.24921e-06
4.50911e-05
-2.98939e-06
5.22635e-05
-3.87556e-06
5.98475e-05
-4.91891e-06
6.78416e-05
-6.12886e-06
7.62414e-05
-7.51244e-06
8.50395e-05
-9.07358e-06
9.42255e-05
-1.08121e-05
0.000103785
-1.27228e-05
0.000113702
-1.47946e-05
0.000123956
-1.70089e-05
0.000134523
-1.9339e-05
0.000145376
-2.17476e-05
0.000156486
-2.41861e-05
0.00016782
-2.65921e-05
0.000179344
-2.88878e-05
0.000191019
-3.09777e-05
0.000202805
-3.2746e-05
0.000214658
-3.40542e-05
0.000226531
-3.47381e-05
0.000238375
-3.46049e-05
0.000250136
-3.34301e-05
0.000261759
-3.0954e-05
0.000273186
-2.68797e-05
0.000284361
-2.08717e-05
0.000295237
-1.25574e-05
0.000305782
-1.53363e-06
0.000315998
1.26175e-05
0.000325946
3.03004e-05
0.000335789
5.18443e-05
0.000345844
7.73999e-05
0.000356666
0.000369124
0.000107361
8.82395e-09
1.95595e-06
2.77972e-08
6.03314e-06
4.95536e-08
1.04673e-05
6.6121e-08
1.52721e-05
6.89533e-08
2.04599e-05
4.90614e-08
2.60416e-05
-2.78328e-09
3.20266e-05
-9.58472e-08
3.84224e-05
-2.39155e-07
4.52345e-05
-4.41153e-07
5.24655e-05
-7.09128e-07
6.01155e-05
-1.04891e-06
6.81814e-05
-1.46413e-06
7.66566e-05
-1.95585e-06
8.55312e-05
-2.52145e-06
9.47911e-05
-3.15407e-06
0.000104418
-3.84111e-06
0.000114389
-4.56348e-06
0.000124678
-5.29423e-06
0.000135253
-5.99713e-06
0.000146079
-6.62494e-06
0.000157114
-7.11774e-06
0.000168313
-7.40069e-06
0.000179627
-7.38193e-06
0.000191
-6.95018e-06
0.000202373
-5.97175e-06
0.000213679
-4.28768e-06
0.000224847
-1.71047e-06
0.000235798
1.97965e-06
0.000246446
7.03866e-06
0.0002567
1.37628e-05
0.000266462
2.24927e-05
0.000275631
3.36154e-05
0.000284114
4.75657e-05
0.000291832
6.48211e-05
0.000298742
8.58896e-05
0.000304878
0.000111276
0.000310402
0.000141414
0.000315706
0.000176566
0.000321514
0.000328963
0.000216727
2.63501e-08
1.9296e-06
9.93918e-08
5.96009e-06
2.15043e-07
1.03516e-05
3.6884e-07
1.51183e-05
5.55967e-07
2.02728e-05
7.71486e-07
2.58261e-05
1.01041e-06
3.17877e-05
1.26803e-06
3.81648e-05
1.54003e-06
4.49624e-05
1.82317e-06
5.21824e-05
2.11531e-06
5.98234e-05
2.4165e-06
6.78802e-05
2.729e-06
7.63441e-05
3.05813e-06
8.5202e-05
3.41312e-06
9.44361e-05
3.80784e-06
0.000104023
4.26226e-06
0.000113935
4.80329e-06
0.000124137
5.46632e-06
0.00013459
6.29672e-06
0.000145248
7.35135e-06
0.000156059
8.70086e-06
0.000166964
1.04317e-05
0.000177896
1.26483e-05
0.000188784
1.54763e-05
0.000199545
1.90651e-05
0.00021009
2.35913e-05
0.000220321
2.92626e-05
0.000230127
3.63218e-05
0.000239387
4.50519e-05
0.00024797
5.57809e-05
0.000255733
6.88873e-05
0.000262525
8.48051e-05
0.000268197
0.000104027
0.00027261
0.000127101
0.000275668
0.000154624
0.000277355
0.000187203
0.000277823
0.000225376
0.000277532
0.000269449
0.000277441
0.000279245
0.000319167
4.06721e-08
1.88893e-06
1.58237e-07
5.84253e-06
3.51752e-07
1.01581e-05
6.20128e-07
1.48499e-05
9.6236e-07
1.99305e-05
1.37738e-06
2.54111e-05
1.86467e-06
3.13004e-05
2.42409e-06
3.76054e-05
3.05629e-06
4.43302e-05
3.76313e-06
5.14755e-05
4.54793e-06
5.90386e-05
5.41631e-06
6.70118e-05
6.37651e-06
7.53839e-05
7.44038e-06
8.41382e-05
8.62379e-06
9.32527e-05
9.948e-06
0.000102699
1.14402e-05
0.000112443
1.31353e-05
0.000122442
1.50771e-05
0.000132649
1.73195e-05
0.000143006
1.99291e-05
0.000153449
2.29863e-05
0.000163906
2.65883e-05
0.000174294
3.08509e-05
0.000184521
3.59122e-05
0.000194484
4.19349e-05
0.000204068
4.91105e-05
0.000213145
5.76636e-05
0.000221574
6.78558e-05
0.000229195
7.9992e-05
0.000235834
9.44265e-05
0.000241298
0.00011157
0.000245382
0.000131895
0.000247871
0.000155946
0.000248559
0.000184339
0.000247274
0.000217755
0.000243939
0.000256904
0.000238673
0.00030244
0.000231997
0.000354727
0.000225154
0.000220615
0.000413357
5.14625e-08
1.83747e-06
2.03296e-07
5.6907e-06
4.5766e-07
9.90372e-06
8.16864e-07
1.44907e-05
1.28343e-06
1.9464e-05
1.86021e-06
2.48343e-05
2.55072e-06
3.06099e-05
3.35922e-06
3.67969e-05
4.29129e-06
4.33982e-05
5.35377e-06
5.04131e-05
6.55564e-06
5.78367e-05
7.90805e-06
6.56594e-05
9.42541e-06
7.38665e-05
1.1126e-05
8.24376e-05
1.30326e-05
9.1346e-05
1.51737e-05
0.000100558
1.75843e-05
0.000110032
2.03069e-05
0.00011972
2.33935e-05
0.000129562
2.69068e-05
0.000139493
3.09221e-05
0.000149434
3.55293e-05
0.000159299
4.0835e-05
0.000168988
4.69655e-05
0.00017839
5.40693e-05
0.00018738
6.23208e-05
0.000195816
7.19236e-05
0.000203542
8.31155e-05
0.000210382
9.61734e-05
0.000216137
0.000111419
0.000220588
0.000129228
0.00022349
0.000150034
0.000224576
0.000174344
0.000223561
0.000202746
0.000220157
0.000235914
0.000214106
0.000274611
0.000205242
0.000319658
0.000193626
0.000371838
0.000179818
0.000431622
0.00016537
0.00015373
0.000498507
5.89112e-08
1.77856e-06
2.34971e-07
5.51464e-06
5.33181e-07
9.60551e-06
9.58993e-07
1.40649e-05
1.51819e-06
1.89048e-05
2.21738e-06
2.41351e-05
3.06379e-06
2.97635e-05
4.06602e-06
3.57947e-05
5.2342e-06
4.223e-05
6.58037e-06
4.90669e-05
8.11892e-06
5.62982e-05
9.86697e-06
6.39114e-05
1.18451e-05
7.18884e-05
1.40781e-05
8.02046e-05
1.65957e-05
8.88285e-05
1.94334e-05
9.77203e-05
2.26337e-05
0.000106832
2.62471e-05
0.000116106
3.03336e-05
0.000125476
3.49642e-05
0.000134862
4.02227e-05
0.000144176
4.62078e-05
0.000153314
5.30352e-05
0.000162161
6.08403e-05
0.000170585
6.97812e-05
0.000178439
8.00418e-05
0.000185556
9.18363e-05
0.000191748
0.000105413
0.000196805
0.00012106
0.00020049
0.000139114
0.000202535
0.000159962
0.000202641
0.000184061
0.000200477
0.000211941
0.000195681
0.000244224
0.000187874
0.000281638
0.000176692
0.000325021
0.000161859
0.000375304
0.000143343
0.00043342
0.000121701
0.000500002
9.87878e-05
7.92077e-05
0.000574525
6.3135e-08
1.71542e-06
2.53571e-07
5.3242e-06
5.78726e-07
9.28036e-06
1.04676e-06
1.35969e-05
1.66665e-06
1.82849e-05
2.44834e-06
2.33534e-05
3.40302e-06
2.88088e-05
4.54344e-06
3.46543e-05
5.88426e-06
4.08892e-05
7.4425e-06
4.75087e-05
9.23785e-06
5.45028e-05
1.12932e-05
6.1856e-05
1.36353e-05
6.95463e-05
1.62954e-05
7.75446e-05
1.931e-05
8.58139e-05
2.27218e-05
9.43084e-05
2.65808e-05
0.000102973
3.09452e-05
0.000111742
3.5883e-05
0.000120538
4.14736e-05
0.000129271
4.78091e-05
0.00013784
5.49968e-05
0.000146126
6.31611e-05
0.000153997
7.24462e-05
0.0001613
8.3019e-05
0.000167866
9.50725e-05
0.000173502
0.00010883
0.000177991
0.000124548
0.000181086
0.000142527
0.000182511
0.00016311
0.000181951
0.0001867
0.000179051
0.000213766
0.000173412
0.000244857
0.00016459
0.000280623
0.000152108
0.000321832
0.000135482
0.000369392
0.0001143
0.000424339
8.83963e-05
0.000487769
5.82713e-05
0.000560522
2.60345e-05
-2.41446e-06
0.000642144
6.41387e-08
1.65128e-06
2.5936e-07
5.12898e-06
5.95277e-07
8.94444e-06
1.08253e-06
1.31096e-05
1.73296e-06
1.76344e-05
2.55978e-06
2.25266e-05
3.57781e-06
2.77908e-05
4.80382e-06
3.34282e-05
6.25688e-06
3.94361e-05
7.95876e-06
4.58068e-05
9.93436e-06
5.25272e-05
1.22122e-05
5.95781e-05
1.48251e-05
6.69334e-05
1.78107e-05
7.4559e-05
2.12123e-05
8.24122e-05
2.50799e-05
9.04408e-05
2.94709e-05
9.8582e-05
3.44514e-05
0.000106761
4.00975e-05
0.000114892
4.6497e-05
0.000122872
5.37506e-05
0.000130586
6.19744e-05
0.000137903
7.13017e-05
0.000144669
8.18859e-05
0.000150716
9.39031e-05
0.000155849
0.000107556
0.00015985
0.000123076
0.000162471
0.000140731
0.000163431
0.000160828
0.000162413
0.000183724
0.000159055
0.00020983
0.000152945
0.000239628
0.000143614
0.000273681
0.000130536
0.000312661
0.000113128
0.000357367
9.07757e-05
0.00040876
6.29074e-05
0.000467971
2.91857e-05
0.000536252
-1.00102e-05
0.000614685
-5.23981e-05
-9.07147e-05
0.000702985
6.23232e-08
1.58896e-06
2.53879e-07
4.93742e-06
5.86152e-07
8.61217e-06
1.07199e-06
1.26238e-05
1.72589e-06
1.69805e-05
2.56409e-06
2.16884e-05
3.60486e-06
2.675e-05
4.86882e-06
3.21643e-05
6.37925e-06
3.79257e-05
8.16256e-06
4.40235e-05
1.02487e-05
5.0441e-05
1.26719e-05
5.7155e-05
1.54707e-05
6.41346e-05
1.86894e-05
7.13404e-05
2.2378e-05
7.87236e-05
2.65939e-05
8.6225e-05
3.1402e-05
9.37738e-05
3.68768e-05
0.000101286
4.31027e-05
0.000108666
5.01764e-05
0.000115798
5.8208e-05
0.000122555
6.7323e-05
0.000128788
7.76649e-05
0.000134328
8.93972e-05
0.000138984
0.000102707
0.00014254
0.000117807
0.00014475
0.000134941
0.000145336
0.000154389
0.000143983
0.000176471
0.000140332
0.000201554
0.000133972
0.000230063
0.000124436
0.000262492
0.000111185
0.000299421
9.36078e-05
0.000341535
7.10145e-05
0.000389655
4.26553e-05
0.000444776
7.78605e-06
0.000508097
-3.41354e-05
0.000581003
-8.29152e-05
0.000664813
-0.000136208
-0.000185417
0.000759515
5.81002e-08
1.53086e-06
2.38831e-07
4.75669e-06
5.55291e-07
8.29571e-06
1.02242e-06
1.21566e-05
1.65695e-06
1.6346e-05
2.47797e-06
2.08674e-05
3.50697e-06
2.5721e-05
4.76824e-06
3.0903e-05
6.28924e-06
3.64047e-05
8.10095e-06
4.22118e-05
1.02384e-05
4.83036e-05
1.27411e-05
5.46523e-05
1.56538e-05
6.12218e-05
1.90272e-05
6.7967e-05
2.29184e-05
7.48323e-05
2.73922e-05
8.17512e-05
3.25219e-05
8.86442e-05
3.83902e-05
9.54181e-05
4.50911e-05
0.000101965
5.27309e-05
0.000108158
6.14302e-05
0.000113856
7.13256e-05
0.000118892
8.25724e-05
0.000123081
9.53468e-05
0.000126209
0.000109849
0.000128037
0.000126307
0.000128292
0.00014498
0.000126663
0.000166164
0.0001228
0.000190196
0.0001163
0.000217461
0.000106707
0.000248404
9.34929e-05
0.000283536
7.6053e-05
0.000323452
5.36915e-05
0.000368852
2.56149e-05
0.000420567
-9.05988e-06
0.000479603
-5.12505e-05
0.000547186
-0.000101718
0.000624774
-0.000160504
0.000713891
-0.000225324
-0.000286395
0.000814869
5.19106e-08
1.47895e-06
2.15986e-07
4.59262e-06
5.06996e-07
8.0047e-06
9.41745e-07
1.17219e-05
1.53918e-06
1.57486e-05
2.3209e-06
2.00857e-05
3.31139e-06
2.47305e-05
4.53849e-06
2.96759e-05
6.03371e-06
3.49095e-05
7.8326e-06
4.04129e-05
9.97525e-06
4.6161e-05
1.25068e-05
5.21207e-05
1.54782e-05
5.82505e-05
1.89466e-05
6.44985e-05
2.29767e-05
7.08022e-05
2.76413e-05
7.70866e-05
3.30222e-05
8.32633e-05
3.92119e-05
8.92284e-05
4.63145e-05
9.4862e-05
5.44478e-05
0.000100025
6.37443e-05
0.000104559
7.43544e-05
0.000108282
8.64477e-05
0.000110987
0.000100217
0.00011244
0.000115879
0.000112375
0.000133683
0.000110488
0.000153908
0.000106438
0.000176873
9.98342e-05
0.000202941
9.02321e-05
0.000232525
7.7123e-05
0.000266095
5.99229e-05
0.000304189
3.79594e-05
0.000347423
1.04576e-05
0.00039651
-2.34718e-05
0.000452281
-6.48317e-05
0.000515727
-0.000114696
0.000588044
-0.000174035
0.000670685
-0.000243144
0.000765277
-0.000319917
-0.000393655
0.000872536
4.43957e-08
1.43455e-06
1.87813e-07
4.4492e-06
4.46613e-07
7.7459e-06
8.39395e-07
1.13291e-05
1.38744e-06
1.52005e-05
2.1148e-06
1.93583e-05
3.04893e-06
2.37964e-05
4.22105e-06
2.85038e-05
5.66655e-06
3.3464e-05
7.42558e-06
3.86538e-05
9.5434e-06
4.40431e-05
1.2071e-05
4.95932e-05
1.50656e-05
5.52558e-05
1.85918e-05
6.09723e-05
2.2722e-05
6.6672e-05
2.75377e-05
7.2271e-05
3.31305e-05
7.76704e-05
3.96037e-05
8.27553e-05
4.70732e-05
8.73925e-05
5.56698e-05
9.14286e-05
6.55411e-05
9.46878e-05
7.68536e-05
9.69696e-05
8.97954e-05
9.80456e-05
0.000104579
9.76563e-05
0.000121447
9.55074e-05
0.00014067
9.12647e-05
0.000162559
8.45488e-05
0.000187465
7.49286e-05
0.000215784
6.19128e-05
0.000247967
4.49402e-05
0.000284521
2.33684e-05
0.000326021
-3.53996e-06
0.00037311
-3.66322e-05
0.000426518
-7.68791e-05
0.000487065
-0.000125379
0.000555695
-0.000183326
0.000633514
-0.000251854
0.00072186
-0.000331491
0.00082232
-0.000420376
-0.00050727
0.000935936
3.62472e-08
1.39831e-06
1.57091e-07
4.32836e-06
3.80321e-07
7.52267e-06
7.26424e-07
1.0983e-05
1.21887e-06
1.47081e-05
1.88444e-06
1.86927e-05
2.75367e-06
2.29272e-05
3.8612e-06
2.73963e-05
5.24648e-06
3.20787e-05
6.95413e-06
3.69462e-05
9.03478e-06
4.19625e-05
1.15455e-05
4.70825e-05
1.45505e-05
5.22508e-05
1.8122e-05
5.74008e-05
2.23413e-05
6.24528e-05
2.72996e-05
6.73127e-05
3.30994e-05
7.18705e-05
3.98564e-05
7.59984e-05
4.77004e-05
7.95485e-05
5.67779e-05
8.23511e-05
6.72541e-05
8.42116e-05
7.93155e-05
8.49081e-05
9.31731e-05
8.4188e-05
0.000109065
8.17641e-05
0.000127263
7.73102e-05
0.000148071
7.04566e-05
0.000171836
6.07834e-05
0.000198951
4.7814e-05
0.000229857
3.10066e-05
0.000265052
9.74486e-06
0.000305093
-1.66727e-05
0.000350599
-4.90455e-05
0.00040225
-8.82837e-05
0.000460791
-0.00013542
0.000527025
-0.000191613
0.000601818
-0.000258119
0.000686125
-0.000336161
0.000781048
-0.000426414
0.000887938
-0.000527266
-0.000627299
0.00100797
2.81526e-08
1.37015e-06
1.26602e-07
4.22991e-06
3.14606e-07
7.33467e-06
6.14468e-07
1.06831e-05
1.05192e-06
1.42706e-05
1.65651e-06
1.80881e-05
2.46202e-06
2.21217e-05
3.50691e-06
2.63514e-05
4.83491e-06
3.07507e-05
6.49556e-06
3.52855e-05
8.54503e-06
3.9913e-05
1.10469e-05
4.45807e-05
1.40727e-05
4.92249e-05
1.77035e-05
5.377e-05
2.20302e-05
5.81261e-05
2.7155e-05
6.21878e-05
3.31932e-05
6.58323e-05
4.02745e-05
6.89171e-05
4.85451e-05
7.12779e-05
5.81699e-05
7.27262e-05
6.93353e-05
7.30462e-05
8.22518e-05
7.19916e-05
9.71578e-05
6.9282e-05
0.000114323
6.45987e-05
0.000134054
5.75797e-05
0.000156696
4.78148e-05
0.00018264
3.48388e-05
0.000212329
1.81248e-05
0.00024626
-2.92364e-06
0.000284985
-2.89808e-05
0.00032912
-6.08078e-05
0.000379337
-9.92618e-05
0.000436357
-0.000145304
0.00050094
-0.000200004
0.000573863
-0.000264536
0.000655893
-0.000340148
0.000747773
-0.000428041
0.000850264
-0.000528906
0.000964255
-0.000641258
-0.000753641
0.0010906
2.07852e-08
1.34937e-06
9.90436e-08
4.15165e-06
2.55603e-07
7.17811e-06
5.14712e-07
1.0424e-05
9.04477e-07
1.38809e-05
1.45732e-06
1.75353e-05
2.21044e-06
2.13685e-05
3.20642e-06
2.53554e-05
4.49365e-06
2.94635e-05
6.12718e-06
3.3652e-05
8.16933e-06
3.78709e-05
1.06908e-05
4.20592e-05
1.37713e-05
4.61444e-05
1.75014e-05
5.004e-05
2.19828e-05
5.36447e-05
2.73304e-05
5.68402e-05
3.36739e-05
5.94888e-05
4.11593e-05
6.14316e-05
4.99518e-05
6.24855e-05
6.02377e-05
6.24403e-05
7.22281e-05
6.10558e-05
8.61619e-05
5.80579e-05
0.000102309
5.31345e-05
0.000120977
4.59308e-05
0.000142513
3.60444e-05
0.000167308
2.30194e-05
0.000195807
6.34004e-06
0.000228507
-1.45755e-05
0.000265966
-4.03823e-05
0.0003088
-7.18152e-05
0.000357686
-0.000109694
0.000413352
-0.000154928
0.000476563
-0.000208514
0.000548091
-0.000271532
0.000628677
-0.000345122
0.000718969
-0.00043044
0.000819463
-0.000528535
0.000930501
-0.000639944
0.00105231
-0.000763064
-0.000885953
0.00118462
1.4785e-08
1.33458e-06
7.69707e-08
4.08946e-06
2.09118e-07
7.04596e-06
4.37607e-07
1.01955e-05
7.93142e-07
1.35253e-05
1.31126e-06
1.70172e-05
2.03288e-06
2.06469e-05
3.00493e-06
2.43833e-05
4.28102e-06
2.81874e-05
5.92218e-06
3.20108e-05
7.99774e-06
3.57953e-05
1.05863e-05
3.94707e-05
1.3777e-05
4.29537e-05
1.76706e-05
4.61464e-05
2.23812e-05
4.89341e-05
2.80379e-05
5.11835e-05
3.47865e-05
5.27402e-05
4.2792e-05
5.34262e-05
5.22408e-05
5.30367e-05
6.3344e-05
5.13371e-05
7.63406e-05
4.80591e-05
9.15016e-05
4.28969e-05
0.000109134
3.55023e-05
0.000129585
2.54799e-05
0.000153247
1.23817e-05
0.000180566
-4.29888e-06
0.000212038
-2.51325e-05
0.000248223
-5.07603e-05
0.000289739
-8.18988e-05
0.000337268
-0.000119344
0.000391547
-0.000163973
0.000453357
-0.000216738
0.0005235
-0.000278657
0.000602759
-0.000350791
0.000691835
-0.000434198
0.000791248
-0.000529853
0.000901224
-0.00063851
0.00102162
-0.000760343
0.00115187
-0.00089331
-0.00102387
0.00128979
1.07077e-08
1.32388e-06
6.26139e-08
4.03756e-06
1.80236e-07
6.92834e-06
3.92342e-07
9.98344e-06
7.3252e-07
1.31851e-05
1.23976e-06
1.65099e-05
1.95909e-06
1.99276e-05
2.94224e-06
2.34002e-05
4.2485e-06
2.68811e-05
5.94552e-06
3.03138e-05
8.11039e-06
3.36304e-05
1.08307e-05
3.67504e-05
1.42057e-05
3.95786e-05
1.83483e-05
4.20038e-05
2.33861e-05
4.38963e-05
2.9464e-05
4.51056e-05
3.6746e-05
4.54583e-05
4.54178e-05
4.47544e-05
5.56899e-05
4.27646e-05
6.78008e-05
3.92262e-05
8.20206e-05
3.38394e-05
9.86552e-05
2.62623e-05
0.000118051
1.61065e-05
0.0001406
2.9314e-06
0.000166742
-1.37611e-05
0.000196975
-3.45319e-05
0.000231853
-6.00107e-05
0.000271993
-9.08999e-05
0.000318073
-0.000127979
0.000370831
-0.000172103
0.000431058
-0.000224199
0.000499577
-0.000285256
0.000577218
-0.000356298
0.000664772
-0.000438345
0.000762914
-0.00053234
0.000872091
-0.00063903
0.000992328
-0.000758748
0.00112297
-0.000890986
0.00126215
-0.00103249
-0.00116682
0.0014051
9.00564e-09
1.31487e-06
5.77921e-08
3.98877e-06
1.73112e-07
6.81302e-06
3.86433e-07
9.77011e-06
7.34584e-07
1.2837e-05
1.26041e-06
1.59841e-05
2.01349e-06
1.91745e-05
3.05092e-06
2.23627e-05
4.43825e-06
2.54938e-05
6.25046e-06
2.85016e-05
8.57314e-06
3.13078e-05
1.15038e-05
3.38198e-05
1.51532e-05
3.59292e-05
1.96472e-05
3.75097e-05
2.5129e-05
3.84145e-05
3.17605e-05
3.84741e-05
3.97257e-05
3.7493e-05
4.92334e-05
3.52467e-05
6.05198e-05
3.14781e-05
7.38531e-05
2.58929e-05
8.95365e-05
1.8156e-05
0.000107913
7.88567e-06
0.00012937
-5.35071e-06
0.000154344
-2.20427e-05
0.000183325
-4.27415e-05