/*--------------------------------*- C++ -*----------------------------------*\
  =========                 |
  \\      /  F ield         | OpenFOAM: The Open Source CFD Toolbox
   \\    /   O peration     | Website:  https://openfoam.org
    \\  /    A nd           | Version:  7
     \\/     M anipulation  |
\*---------------------------------------------------------------------------*/
FoamFile
{
    version     2.0;
    format      ascii;
    class       volVectorField;
    location    "14";
    object      U;
}
// * * * * * * * * * * * * * * * * * * * * * * * * * * * * * * * * * * * * * //

dimensions      [0 1 -1 0 0 0 0];

internalField   nonuniform List<vector> 
433
(
(0.159976 -0.00902418 2.61733e-19)
(0.176923 -0.00695352 7.56047e-20)
(0.157343 -0.0123063 -1.44062e-18)
(0.174967 -0.0125857 1.68566e-18)
(0.194807 -0.0114519 -3.23091e-19)
(0.215053 -0.00898739 7.22281e-19)
(0.190183 -0.0137882 -8.62505e-19)
(0.210716 -0.0142583 2.33868e-18)
(0.23407 -0.013277 -6.98247e-19)
(0.258328 -0.0106627 2.17222e-19)
(0.278297 -0.0132581 1.64786e-19)
(0.307523 -0.0107197 -9.78546e-19)
(0.363644 -0.00685177 -2.51801e-18)
(0.151921 -0.0116243 7.77462e-20)
(0.161692 -0.0259102 1.83321e-19)
(0.178468 -0.0349169 -1.22608e-19)
(0.190399 -0.0450527 1.97516e-19)
(0.200694 -0.0535673 -3.3304e-19)
(0.189071 -0.0143769 1.54901e-19)
(0.201319 -0.0283694 3.91014e-19)
(0.218688 -0.0370717 -9.9806e-20)
(0.230692 -0.0465665 -2.86109e-19)
(0.240711 -0.0546177 1.35257e-19)
(0.248687 -0.0617598 -5.52431e-20)
(0.255298 -0.067909 1.43384e-19)
(0.260957 -0.0730055 -2.63864e-20)
(0.266008 -0.0768928 -3.37154e-20)
(0.270766 -0.0795519 -2.38038e-19)
(0.275456 -0.080901 2.05142e-20)
(0.28031 -0.0809336 1.78155e-19)
(0.285509 -0.07965 -3.06959e-20)
(0.291233 -0.0770885 -3.00487e-20)
(0.297641 -0.073316 6.59778e-20)
(0.304886 -0.068436 -3.28519e-20)
(0.313114 -0.0625915 1.95525e-20)
(0.322461 -0.0559724 -5.05682e-20)
(0.231006 -0.0174029 -7.67342e-19)
(0.24567 -0.0308354 2.15985e-19)
(0.262885 -0.0392743 3.17374e-19)
(0.27425 -0.0477972 -1.23749e-19)
(0.283328 -0.0553094 -9.22659e-20)
(0.290286 -0.0621614 -1.70519e-19)
(0.295833 -0.0682096 1.05125e-19)
(0.300413 -0.0733348 -6.25841e-20)
(0.304369 -0.0773574 4.56524e-20)
(0.308011 -0.0802129 9.89165e-21)
(0.311574 -0.0818063 -6.88387e-20)
(0.315286 -0.0821096 -6.39803e-20)
(0.319338 -0.081111 1.61806e-19)
(0.323913 -0.0788381 -8.66827e-20)
(0.329176 -0.0753499 8.71671e-20)
(0.335287 -0.0707435 -8.42304e-21)
(0.342399 -0.0651563 -2.4335e-20)
(0.350655 -0.0587734 1.50638e-20)
(0.278645 -0.021567 1.36328e-18)
(0.295344 -0.0335192 -4.31919e-19)
(0.311121 -0.0409871 -2.53288e-19)
(0.320929 -0.048503 -3.64948e-19)
(0.328366 -0.0554922 2.1226e-19)
(0.333841 -0.0620692 2.16107e-19)
(0.337998 -0.0680383 8.04228e-20)
(0.341262 -0.0732168 -4.85773e-19)
(0.34395 -0.0773954 6.95558e-20)
(0.346351 -0.0804693 1.85609e-19)
(0.348691 -0.0823279 5.36497e-20)
(0.351191 -0.0829225 7.30255e-21)
(0.354043 -0.082229 -1.70933e-19)
(0.357429 -0.0802639 6.34421e-20)
(0.361519 -0.0770782 2.55078e-20)
(0.366475 -0.0727623 1.33187e-19)
(0.372453 -0.067448 -1.34399e-19)
(0.379601 -0.0613154 -3.95183e-21)
(0.333217 -0.0252543 -1.44953e-19)
(0.351132 -0.0345731 8.86122e-20)
(0.363603 -0.0405728 -1.67263e-19)
(0.370533 -0.0474372 5.56272e-19)
(0.375597 -0.0541949 -2.40902e-19)
(0.379128 -0.0607169 4.22794e-19)
(0.381575 -0.0667771 -2.65411e-19)
(0.383293 -0.0721478 -1.11687e-19)
(0.384547 -0.0765968 3.8915e-20)
(0.385582 -0.0799886 -5.67762e-20)
(0.386608 -0.0821981 -4.97168e-20)
(0.38783 -0.0831594 1.95821e-19)
(0.389434 -0.0828364 -1.346e-19)
(0.391597 -0.0812359 7.58881e-20)
(0.394489 -0.0784012 -7.36346e-20)
(0.398273 -0.0744169 -5.45113e-20)
(0.403105 -0.0694099 6.0073e-20)
(0.409136 -0.0635557 4.25135e-20)
(0.397928 -0.0263079 3.30789e-19)
(0.413462 -0.0331458 -1.48666e-19)
(0.420105 -0.0379585 -4.80579e-19)
(0.422708 -0.0444981 2.77887e-19)
(0.424723 -0.0512995 1.92777e-19)
(0.425898 -0.0579705 2.355e-20)
(0.426342 -0.0642674 2.46666e-19)
(0.426299 -0.0699464 -3.68564e-19)
(0.425957 -0.0747633 1.5171e-19)
(0.425509 -0.0785596 -1.41402e-19)
(0.425134 -0.0811984 2.05767e-19)
(0.425017 -0.0825988 -7.34672e-20)
(0.425328 -0.0827145 1.4194e-19)
(0.426239 -0.0815427 -6.6776e-20)
(0.427914 -0.0791197 -2.54164e-20)
(0.430513 -0.075524 2.58028e-20)
(0.434192 -0.0708779 -1.02005e-19)
(0.439102 -0.0653524 1.52947e-19)
(0.487849 -0.0380667 0)
(0.493344 -0.0441142 0)
(0.490986 -0.0460798 0)
(0.487439 -0.050472 0)
(0.485557 -0.0558479 0)
(0.483853 -0.0613591 0)
(0.481907 -0.0667473 0)
(0.479806 -0.0717596 0)
(0.47764 -0.0761206 0)
(0.475525 -0.0796337 0)
(0.473597 -0.0821368 0)
(0.472008 -0.0835225 0)
(0.47091 -0.0837218 0)
(0.47046 -0.0827115 0)
(0.470813 -0.0805095 0)
(0.472124 -0.0771784 0)
(0.474547 -0.0728264 0)
(0.478229 -0.0676114 0)
(0.483311 -0.0617414 0)
(0.594683 -0.0245128 0)
(0.59782 -0.0360707 0)
(0.589129 -0.0422489 0)
(0.578812 -0.0479701 0)
(0.571573 -0.0538274 0)
(0.56561 -0.0595291 0)
(0.560076 -0.0649759 0)
(0.554878 -0.0700177 0)
(0.54998 -0.0744376 0)
(0.545394 -0.0780561 0)
(0.541184 -0.0807239 0)
(0.537453 -0.0823352 0)
(0.53432 -0.0828202 0)
(0.531916 -0.0821517 0)
(0.53038 -0.0803432 0)
(0.529857 -0.0774515 0)
(0.53049 -0.0735787 0)
(0.532423 -0.0688748 0)
(0.535793 -0.0635395 0)
(0.70293 -0.0105487 0)
(0.701876 -0.0236388 0)
(0.689566 -0.0331305 0)
(0.674472 -0.0408935 0)
(0.662547 -0.0480672 0)
(0.652471 -0.0546787 0)
(0.643299 -0.0607476 0)
(0.634863 -0.0662469 0)
(0.627062 -0.0710517 0)
(0.619832 -0.0750294 0)
(0.613177 -0.0780613 0)
(0.607152 -0.0800574 0)
(0.601841 -0.0809572 0)
(0.597349 -0.0807366 0)
(0.593797 -0.0794099 0)
(0.591315 -0.0770321 0)
(0.590037 -0.0737018 0)
(0.5901 -0.0695636 0)
(0.591634 -0.0648098 0)
(0.809457 0.0039626 0)
(0.80409 -0.00933489 0)
(0.789495 -0.0208463 0)
(0.771257 -0.0304608 0)
(0.755666 -0.0391401 0)
(0.74206 -0.0469808 0)
(0.729575 -0.0540144 0)
(0.718056 -0.0602818 0)
(0.707407 -0.0657368 0)
(0.697535 -0.0702976 0)
(0.68841 -0.0738824 0)
(0.680052 -0.0764239 0)
(0.672516 -0.0778768 0)
(0.665886 -0.0782251 0)
(0.660263 -0.0774868 0)
(0.655764 -0.0757174 0)
(0.652513 -0.0730137 0)
(0.650638 -0.0695157 0)
(0.650264 -0.0654092 0)
(0.911244 0.0201557 0)
(0.902088 0.0066759 0)
(0.88602 -0.00631216 0)
(0.866005 -0.0175508 0)
(0.847912 -0.0276899 0)
(0.831639 -0.0368471 0)
(0.816475 -0.0450171 0)
(0.802319 -0.0522493 0)
(0.789127 -0.0585431 0)
(0.776826 -0.0638581 0)
(0.765379 -0.0681454 0)
(0.754793 -0.0713628 0)
(0.74511 -0.0734827 0)
(0.736396 -0.0745006 0)
(0.728742 -0.0744411 0)
(0.722252 -0.0733627 0)
(0.717041 -0.0713614 0)
(0.713229 -0.0685743 0)
(0.710934 -0.065181 0)
(1.00514 0.0377438 0)
(0.993154 0.0238679 0)
(0.97632 0.00970736 0)
(0.955706 -0.00291902 0)
(0.936296 -0.0143679 0)
(0.918359 -0.0247789 0)
(0.901356 -0.0341134 0)
(0.885242 -0.0423939 0)
(0.870044 -0.0496338 0)
(0.855735 -0.0558165 0)
(0.842299 -0.0609165 0)
(0.829754 -0.0649124 0)
(0.81814 -0.067793 0)
(0.807523 -0.0695657 0)
(0.797986 -0.0702631 0)
(0.789627 -0.0699474 0)
(0.782555 -0.0687156 0)
(0.776885 -0.066702 0)
(0.772729 -0.0640809 0)
(1.08816 0.0558819 0)
(1.07465 0.041486 0)
(1.05782 0.0264332 0)
(1.03764 0.0126911 0)
(1.01804 0.000148983 0)
(0.999478 -0.0113515 0)
(0.981575 -0.0217594 0)
(0.964331 -0.0310618 0)
(0.947833 -0.039264 0)
(0.932113 -0.0463574 0)
(0.917192 -0.0523277 0)
(0.903112 -0.0571658 0)
(0.889929 -0.0608723 0)
(0.877716 -0.0634639 0)
(0.866559 -0.0649797 0)
(0.856559 -0.0654856 0)
(0.847822 -0.065079 0)
(0.84046 -0.0638918 0)
(0.834581 -0.062093 0)
(1.158 0.0735179 0)
(1.14438 0.058644 0)
(1.12837 0.0430143 0)
(1.10955 0.0284755 0)
(1.09077 0.01511 0)
(1.07257 0.00275576 0)
(1.05471 -0.0085438 0)
(1.03721 -0.0187435 0)
(1.02022 -0.0278332 0)
(1.0038 -0.0358003 0)
(0.98802 -0.0426316 0)
(0.972958 -0.0483214 0)
(0.958691 -0.0528754 0)
(0.945308 -0.056315 0)
(0.932908 -0.0586826 0)
(0.921596 -0.0600456 0)
(0.911484 -0.0605005 0)
(0.902684 -0.0601759 0)
(0.895304 -0.0592346 0)
(1.21338 0.0896029 0)
(1.2009 0.0744489 0)
(1.18648 0.0586017 0)
(1.16977 0.0436334 0)
(1.15269 0.0297557 0)
(1.13572 0.0168302 0)
(1.11876 0.00488517 0)
(1.10186 -0.00601579 0)
(1.08517 -0.0158422 0)
(1.0688 -0.0245721 0)
(1.05286 -0.0321869 0)
(1.03744 -0.038678 0)
(1.02266 -0.0440493 0)
(1.00863 -0.0483219 0)
(0.995447 -0.0515372 0)
(0.983241 -0.0537609 0)
(0.972127 -0.0550863 0)
(0.962224 -0.0556369 0)
(0.953641 -0.0555677 0)
(1.25418 0.103262 0)
(1.24376 0.0881322 0)
(1.23154 0.0724448 0)
(1.21747 0.0574365 0)
(1.20273 0.0433839 0)
(1.18769 0.0301931 0)
(1.17234 0.0178837 0)
(1.15677 0.00652488 0)
(1.14111 -0.00383372 0)
(1.1255 -0.0131582 0)
(1.11007 -0.0214213 0)
(1.09495 -0.0286073 0)
(1.08026 -0.0347145 0)
(1.06613 -0.0397586 0)
(1.05268 -0.0437761 0)
(1.04006 -0.0468276 0)
(1.02838 -0.049 0)
(1.01777 -0.0504094 0)
(1.00834 -0.0512014 0)
(1.28135 0.113923 0)
(1.2735 0.09916 0)
(1.26383 0.0839846 0)
(1.25268 0.0693064 0)
(1.24066 0.0554128 0)
(1.22801 0.042262 0)
(1.21479 0.0298741 0)
(1.20108 0.0183214 0)
(1.18704 0.00766477 0)
(1.17279 -0.00204997 0)
(1.15848 -0.0107862 0)
(1.14424 -0.0185174 0)
(1.13021 -0.0252351 0)
(1.11653 -0.030947 0)
(1.10334 -0.0356816 0)
(1.09078 -0.0394908 0)
(1.079 -0.0424531 0)
(1.06811 -0.0446741 0)
(1.05823 -0.0462881 0)
(1.29666 0.121373 0)
(1.29149 0.10729 0)
(1.28445 0.0929138 0)
(1.27622 0.0788761 0)
(1.26704 0.0654377 0)
(1.257 0.0526044 0)
(1.24618 0.0404053 0)
(1.23468 0.0289126 0)
(1.22265 0.018195 0)
(1.21019 0.00830744 0)
(1.19746 -0.000705317 0)
(1.18457 -0.00880797 0)
(1.17169 -0.0159815 0)
(1.15894 -0.0222257 0)
(1.14648 -0.0275595 0)
(1.13446 -0.0320247 0)
(1.12301 -0.0356885 0)
(1.11226 -0.0386446 0)
(1.10235 -0.0410139 0)
(1.30235 0.125729 0)
(1.29965 0.112565 0)
(1.29508 0.0991861 0)
(1.28957 0.0860129 0)
(1.28309 0.0732608 0)
(1.27562 0.0609712 0)
(1.26726 0.0491859 0)
(1.2581 0.0379758 0)
(1.24826 0.027413 0)
(1.23784 0.0175591 0)
(1.22697 0.0084656 0)
(1.21577 0.000172841 0)
(1.20438 -0.00729062 0)
(1.19294 -0.0139146 0)
(1.1816 -0.0197091 0)
(1.17049 -0.0247053 0)
(1.15976 -0.0289585 0)
(1.14955 -0.032549 0)
(1.13996 -0.0355833 0)
(1.30078 0.127349 0)
(1.30016 0.115251 0)
(1.29773 0.102975 0)
(1.29455 0.0907977 0)
(1.29047 0.078885 0)
(1.28537 0.0673004 0)
(1.27932 0.056097 0)
(1.27243 0.0453442 0)
(1.26477 0.0351141 0)
(1.25644 0.0254711 0)
(1.24754 0.0164709 0)
(1.23818 0.00815904 0)
(1.22849 0.000568616 0)
(1.2186 -0.00628162 0)
(1.20863 -0.0123915 0)
(1.19873 -0.0177826 0)
(1.18902 -0.0224994 0)
(1.17964 -0.0266079 0)
(1.17069 -0.0301997 0)
(1.29411 0.126724 0)
(1.29511 0.115748 0)
(1.2944 0.104602 0)
(1.29311 0.0934705 0)
(1.29102 0.0824753 0)
(1.28794 0.0716903 0)
(1.28394 0.0611765 0)
(1.27909 0.0510013 0)
(1.27346 0.0412341 0)
(1.26711 0.0319395 0)
(1.26014 0.0231746 0)
(1.25263 0.0149875 0)
(1.24469 0.00741552 0)
(1.23643 0.000481785 0)
(1.22798 -0.00580552 0)
(1.21943 -0.0114572 0)
(1.21094 -0.0165088 0)
(1.2026 -0.0210129 0)
(1.19452 -0.0250466 0)
(1.28415 0.124373 0)
(1.2863 0.114506 0)
(1.2869 0.10446 0)
(1.28706 0.0943611 0)
(1.28652 0.0843003 0)
(1.28509 0.0743519 0)
(1.28278 0.0645809 0)
(1.27967 0.0550519 0)
(1.2758 0.0458303 0)
(1.27123 0.0369784 0)
(1.26602 0.0285528 0)
(1.26024 0.020602 0)
(1.25397 0.0131652 0)
(1.24732 0.0062696 0)
(1.24037 -7.27161e-05 0)
(1.23324 -0.00586594 0)
(1.22602 -0.0111293 0)
(1.21884 -0.0159097 0)
(1.21177 -0.0202704 0)
(1.27227 0.120773 0)
(1.27519 0.111955 0)
(1.27672 0.102941 0)
(1.27792 0.0938245 0)
(1.27855 0.0846722 0)
(1.27837 0.0755548 0)
(1.2774 0.0665373 0)
(1.2757 0.0576808 0)
(1.2733 0.0490462 0)
(1.27023 0.0406921 0)
(1.26654 0.032673 0)
(1.26228 0.0250363 0)
(1.25752 0.0178217 0)
(1.25234 0.011058 0)
(1.24681 0.00476168 0)
(1.24103 -0.00106702 0)
(1.23508 -0.00643806 0)
(1.22905 -0.0113886 0)
(1.22303 -0.0159699 0)
(1.25945 0.116315 0)
(1.26283 0.108464 0)
)
;

boundaryField
{
    inlet
    {
        type            uniformFixedValue;
        uniformValue    constant (1 0 0);
        value           nonuniform 0();
    }
    outlet
    {
        type            pressureInletOutletVelocity;
        value           nonuniform 0();
    }
    cylinder
    {
        type            fixedValue;
        value           nonuniform 0();
    }
    top
    {
        type            symmetryPlane;
    }
    bottom
    {
        type            symmetryPlane;
    }
    defaultFaces
    {
        type            empty;
    }
    procBoundary28to22
    {
        type            processor;
        value           nonuniform List<vector> 
26
(
(0.129008 -0.00650462 1.4004e-18)
(0.143136 -0.00487615 -5.64875e-19)
(0.143136 -0.00487615 -5.64875e-19)
(0.128204 -0.009944 3.86309e-19)
(0.143187 -0.0101092 3.35768e-19)
(0.143187 -0.0101092 3.35768e-19)
(0.141132 -0.0115401 -2.71447e-19)
(0.118937 -0.00938475 2.43637e-20)
(0.12656 -0.0237378 -4.57494e-19)
(0.142051 -0.0332249 -1.52277e-20)
(0.153285 -0.0434764 -5.31379e-20)
(0.163376 -0.0522809 1.89381e-19)
(0.20925 -0.0609467 -1.15446e-19)
(0.20925 -0.0609467 -1.15446e-19)
(0.216614 -0.0671764 -6.97188e-20)
(0.22312 -0.0722426 1.05701e-19)
(0.229092 -0.0759969 -3.73781e-21)
(0.234837 -0.0784698 4.89165e-20)
(0.240555 -0.0795871 -1.10041e-20)
(0.246476 -0.0793644 -2.12504e-19)
(0.252766 -0.0778127 1.87412e-19)
(0.259595 -0.0749809 -4.63271e-20)
(0.267113 -0.0709428 -3.45633e-20)
(0.275463 -0.0658079 1.25275e-20)
(0.284782 -0.0597245 -3.56314e-20)
(0.295198 -0.052887 7.62066e-20)
)
;
    }
    procBoundary28to23
    {
        type            processor;
        value           nonuniform List<vector> 3((0.333055 -0.0488134 -4.95304e-20) (0.360188 -0.0518253 -1.76207e-20) (0.388058 -0.0545909 -6.11651e-20));
    }
    procBoundary28to27
    {
        type            processor;
        value           nonuniform List<vector> 10((0.171387 -0.0129692 1.86833e-18) (0.227141 -0.0138005 1.80171e-18) (0.250892 -0.0142125 -1.28064e-18) (0.250892 -0.0142125 -1.28064e-18) (0.3286 -0.00953112 -3.8791e-18) (0.3286 -0.00953112 -3.8791e-18) (0.435738 -0.00846223 1.62322e-18) (0.534826 -0.00808149 4.8027e-19) (0.641977 -0.00899841 2.35342e-19) (0.749044 -0.00182751 -4.38225e-20));
    }
    procBoundary28to29
    {
        type            processor;
        value           nonuniform List<vector> 
20
(
(0.416507 -0.0570775 -1.40475e-20)
(0.445383 -0.0591672 4.67212e-20)
(0.445383 -0.0591672 4.67212e-20)
(0.489919 -0.0554788 0)
(0.540723 -0.0578238 0)
(0.59476 -0.0596819 0)
(0.651505 -0.0609264 0)
(0.710265 -0.0614048 0)
(0.770189 -0.0610669 0)
(0.830285 -0.0598884 0)
(0.889442 -0.0578736 0)
(0.946477 -0.0550658 0)
(1.0002 -0.0515514 0)
(1.04948 -0.0474574 0)
(1.09337 -0.0429441 0)
(1.13111 -0.0381929 0)
(1.1623 -0.03339 0)
(1.18682 -0.028709 0)
(1.20491 -0.0242944 0)
(1.21709 -0.0202511 0)
)
;
    }
    procBoundary28to33
    {
        type            processor;
        value           nonuniform List<vector> 
15
(
(0.854289 0.0112211 -6.7721e-19)
(0.953362 0.0274548 1.6446e-18)
(1.04327 0.0457442 3.59621e-19)
(1.12131 0.0648382 -1.86674e-18)
(1.18555 0.0833618 1.04088e-18)
(1.23515 0.100057 6.56162e-19)
(1.27041 0.113948 -9.42209e-19)
(1.29263 0.124456 1.91497e-19)
(1.30381 0.131431 -2.64368e-19)
(1.30626 0.135084 3.41557e-19)
(1.30231 0.135879 1.12527e-19)
(1.294 0.134392 1.2733e-19)
(1.28298 0.131206 -1.03467e-18)
(1.27047 0.126831 1.36942e-18)
(1.2573 0.121673 -1.13344e-18)
)
;
    }
    procBoundary28to34
    {
        type            processor;
        value           nonuniform List<vector> 
20
(
(1.26499 0.100397 0)
(1.26691 0.0921918 0)
(1.26835 0.0838976 0)
(1.2691 0.0755785 0)
(1.26915 0.0672967 0)
(1.26854 0.0591094 0)
(1.2673 0.0510723 0)
(1.26544 0.0432401 0)
(1.26301 0.0356641 0)
(1.26003 0.0283898 0)
(1.25656 0.0214559 0)
(1.25266 0.0148923 0)
(1.2484 0.00871785 0)
(1.24384 0.00293909 0)
(1.23906 -0.00245485 0)
(1.23413 -0.00748513 0)
(1.22911 -0.0121943 0)
(1.24631 0.111298 0)
(1.26499 0.100397 0)
(1.24993 0.104321 0)
)
;
    }
}


// ************************************************************************* //
