/*--------------------------------*- C++ -*----------------------------------*\
  =========                 |
  \\      /  F ield         | OpenFOAM: The Open Source CFD Toolbox
   \\    /   O peration     | Website:  https://openfoam.org
    \\  /    A nd           | Version:  7
     \\/     M anipulation  |
\*---------------------------------------------------------------------------*/
FoamFile
{
    version     2.0;
    format      ascii;
    class       surfaceScalarField;
    location    "16";
    object      phi;
}
// * * * * * * * * * * * * * * * * * * * * * * * * * * * * * * * * * * * * * //

dimensions      [0 3 -1 0 0 0 0];

internalField   nonuniform List<scalar> 
814
(
0.000598498
0.000345615
-0.000763467
-0.000521941
-0.00138119
0.00223855
-0.00173262
0.00521252
-0.00262836
0.00678934
-0.00209876
0.00697058
-0.00156243
0.0064283
-0.00119221
0.00556527
-0.00059722
0.00457526
0.000302196
0.00137058
-1.06345e-05
-0.00172199
0.0007178
-0.00335679
0.0024362
-0.00381716
0.00458276
-0.00370898
0.00628607
-0.00289552
0.00687548
-0.00118663
0.00615314
0.00102453
0.00444431
0.00307942
0.0024461
0.00437244
0.000778744
0.00472807
-0.000260171
0.00427678
-0.000704784
0.00332357
0.00222015
-0.00191495
0.000192957
-0.0042585
-0.00101324
-0.00497924
-0.00309642
-0.00434852
-0.00433971
-0.00341487
-0.00382917
-0.00277919
-0.0018223
-0.00252353
0.000768863
-0.00237108
0.00292697
-0.00202955
0.00403092
-0.0014325
0.00413102
-0.000764244
0.00360852
-0.000226934
0.00278626
7.38336e-05
0.00191939
0.000175181
0.00114772
0.000155429
0.000562097
8.61034e-05
0.000172326
-4.93202e-05
-0.000954055
0.00114701
-0.0026882
0.000720907
-0.00456888
-0.00121574
-0.00619524
-0.00271335
-0.00710357
-0.00292083
-0.00693522
-0.00199065
-0.00569878
-0.000467584
-0.00376368
0.000991869
-0.00174501
0.00201225
-0.000169684
0.00255569
0.000796767
0.00264207
0.00118
0.00240304
0.00117944
0.00191994
0.00100099
0.00132617
0.000790954
0.000772134
0.00060988
0.0003534
0.000471576
8.89837e-05
0.000370145
-5.16461e-05
0.000295879
-0.000116137
0.00024427
-0.000148513
-0.000171138
0.00162097
-0.000473958
0.00322952
-0.00088764
0.00305225
-0.00103847
0.00156395
-0.00122505
-3.47268e-05
-0.00132215
-0.000973382
-0.001052
-0.00106227
-0.000378698
-0.000609101
0.000538701
-7.61785e-05
0.00147933
0.000212651
0.00226686
0.000169761
0.00268496
-5.45673e-06
0.00257825
-0.000139768
0.00205425
-0.000169351
0.00135575
-0.000114406
0.000717189
-2.14937e-05
0.000260487
7.15814e-05
-4.09153e-06
0.000146702
-0.000126767
0.000199332
-0.000168767
0.000227413
-0.000176594
0.000236316
-0.000180041
0.000235478
-0.00019434
0.000235493
-0.000220936
0.00163055
-0.00210451
0.00413589
-0.00339298
0.00606183
-0.00296442
0.00714618
-0.0023094
0.00748054
-0.00165651
0.00707054
-0.000641996
0.00599474
0.000697102
0.00444013
0.00209331
0.00270843
0.00321103
0.00119216
0.00378314
0.000169797
0.00370732
-0.000339121
0.00308717
-0.000468572
0.0021837
-0.000401085
0.00128826
-0.000274017
0.000590122
-0.000157086
0.000143557
-7.0582e-05
-9.05958e-05
-1.14724e-05
-0.000185877
3.01022e-05
-0.000210342
6.45506e-05
-0.000211043
9.42875e-05
-0.000209778
0.000121008
-0.000221061
-0.00109649
-0.00100802
-0.00192984
-0.00255962
-0.0011969
-0.00369736
0.000515444
-0.00402175
0.00199035
-0.00313142
0.00245324
-0.00110488
0.00180535
0.00134499
0.000547657
0.003351
-0.000634191
0.00439287
-0.0012953
0.00444425
-0.00138991
0.00380194
-0.00115164
0.0028489
-0.000822754
0.00185482
-0.000559553
0.00102506
-0.000399252
0.00042982
-0.000316622
6.09272e-05
-0.000273041
-0.000134176
-0.000239493
-0.000219425
-0.000201316
-0.00024852
-0.000154123
-0.000258235
-9.52439e-05
-0.000268657
-0.00180104
0.000793022
-0.00422961
-0.000131059
-0.00549414
-0.00243282
-0.00563442
-0.00388147
-0.00526992
-0.00349591
-0.0046574
-0.00171741
-0.0038584
0.000545995
-0.00282955
0.00232216
-0.00164867
0.00321199
-0.000574358
0.00336994
0.000180656
0.00304692
0.000566261
0.0024633
0.000624336
0.00179674
0.000503126
0.00114627
0.000331585
0.000601361
0.000181391
0.000211121
7.69303e-05
-2.97157e-05
1.74554e-05
-0.00015995
-5.18445e-06
-0.00022588
7.20842e-07
-0.000264141
1.85166e-05
0.000774505
-0.000559367
0.000446825
-0.00203772
-0.000954471
-0.00377852
-0.00214067
-0.00484623
-0.0024282
-0.00471303
-0.00185061
-0.00342533
-0.000741707
-0.00156608
0.000462911
0.000144131
0.00150177
0.00126
0.00225407
0.00166465
0.00264227
0.00153575
0.0025922
0.00118559
0.0021469
0.000836338
0.00149553
0.000582796
0.000854902
0.000434106
0.000359811
0.000359925
4.44651e-05
0.000327381
-0.000127406
0.000312591
-0.00021109
0.00218237
-0.00140786
0.00481764
-0.00218845
0.00573245
-0.00186928
0.00513668
-0.0015449
0.00404308
-0.0013346
0.00305847
-0.000865994
0.00236248
-4.57158e-05
0.00180944
0.00101595
0.00121393
0.00209728
0.000552839
0.00291516
-3.98809e-05
0.00323499
-0.000405228
0.00295755
-0.00050071
0.00224238
-0.000402946
0.00139776
-0.000221466
0.000673423
-3.7765e-05
0.00017611
0.000110833
-0.000104133
0.000215145
-0.000231719
0.00055477
-0.00196263
0.00186905
-0.00350273
0.0035229
-0.00352313
0.00500328
-0.00302528
0.00582153
-0.00215285
0.00565031
-0.000694777
0.00448633
0.00111827
0.00270394
0.00279834
0.000898973
0.00390225
-0.000418587
0.00423272
-0.00102903
0.00384542
-0.00107223
0.00300075
-0.000820019
0.00199017
-0.000513145
0.00109089
-0.000264073
0.000424351
-9.90252e-05
1.10613e-05
-7.09462e-07
-0.000202449
-0.000289217
-0.00175695
-0.000205684
-0.00373451
-0.00152516
-0.00403155
-0.0032261
-0.00308622
-0.00397061
-0.00212112
-0.00311795
-0.0017614
-0.00105449
-0.00196586
0.00132273
-0.00226994
0.00310241
-0.00223504
0.00386734
-0.00178065
0.00377833
-0.00113135
0.00319613
-0.00053665
0.00240605
-0.000140647
0.00159417
4.61267e-05
0.000904115
9.13134e-05
0.000379164
7.25204e-05
2.98545e-05
4.03015e-05
-0.000170229
-0.00128993
0.00108425
-0.00322339
0.000408301
-0.00464596
-0.00180353
-0.00530716
-0.00330942
-0.00519202
-0.00323309
-0.00432204
-0.00192447
-0.00282587
-0.000173445
-0.00102528
0.00130183
0.000596298
0.00224576
0.00166865
0.00270598
0.00211886
0.00274593
0.00203398
0.00249092
0.00164948
0.00197866
0.00121029
0.00134331
0.000846367
0.000743086
0.000593825
0.000282396
-1.45737e-05
0.00110681
-2.25636e-05
0.00196889
-0.000453783
0.00131684
-0.00115147
-0.000195874
-0.0017967
-0.00138095
-0.00204801
-0.00158822
-0.0017172
-0.000868379
-0.00089329
0.000245073
0.000188382
0.00119819
0.00129264
0.00163172
0.00227245
0.00153912
0.00283852
0.00118073
0.00284932
0.000797705
0.00236169
0.000521522
0.00161949
0.000374564
0.000890045
0.000323689
0.000333271
-1.61437e-05
0.00196882
-0.00199138
0.00462109
-0.00310606
0.00605755
-0.00258793
0.00620404
-0.00194319
0.00560948
-0.00145345
0.00462801
-0.000735721
0.00345203
0.000282682
0.00218137
0.00145905
0.000939201
0.00253481
-2.04054e-05
0.00323205
-0.000546279
0.0033644
-0.000663783
0.00296682
-0.000507242
0.00220515
-0.000251793
0.00136405
-1.94216e-05
0.000657673
0.000143324
0.000170525
-0.000113848
-0.000595974
-0.00139541
-0.000782129
-0.0029199
0.000129638
-0.0034997
0.00149397
-0.00330753
0.00232404
-0.00228352
0.00210623
-0.000517907
0.000917528
0.00147138
-0.000657952
0.00303452
-0.00195603
0.00383289
-0.00257773
0.00385376
-0.00251122
0.00329789
-0.00199631
0.00245191
-0.00136247
0.00157131
-0.000824311
0.000825883
-0.00045626
0.000289621
-0.000240079
-4.56559e-05
-0.00185609
0.000460685
-0.0041694
-0.0006066
-0.00499342
-0.00267568
-0.0045572
-0.00374375
-0.00379658
-0.00304414
-0.00314813
-0.00116636
-0.00258152
0.000904778
-0.00189728
0.00235029
-0.00105314
0.00298874
-0.000224567
0.00302519
0.000375303
0.00269802
0.000654521
0.00217269
0.00065798
0.00156785
0.000518807
0.000965055
0.000355158
0.00045327
8.12035e-05
-0.000450221
0.000910906
-0.00136607
0.000309245
-0.00241258
-0.00162916
-0.00311636
-0.00303997
-0.00302489
-0.00313561
-0.00197565
-0.0022156
-0.000230677
-0.000840194
0.00161201
0.000507598
0.00294853
0.00165222
0.00353141
0.00244231
0.00337029
0.00285914
0.00275115
0.00279183
0.00202105
0.00229795
0.00140073
0.00158537
0.000971612
0.000882392
0.000332208
0.00184851
-0.000937603
0.00386273
-0.00170497
0.00410099
-0.00186742
0.00302674
-0.00196571
0.00185667
-0.00196555
0.00120755
-0.00156648
0.00109889
-0.000731533
0.0012129
0.000393591
0.00123039
0.00163473
0.000977745
0.00269495
0.000635282
0.0032016
0.000373101
0.00305401
0.0002673
0.00240375
0.00029257
0.0015601
0.000380808
0.000794154
0.00047433
0.000238686
-9.80639e-05
0.00115304
-0.00209064
0.00289427
-0.00344621
0.0040613
-0.00303445
0.00437422
-0.00227863
0.00395364
-0.00154497
0.00294406
-0.0005569
0.00155671
0.000655816
7.64553e-05
0.00187385
-0.0011084
0.00281959
-0.00168916
0.00327571
-0.00165357
0.00316601
-0.00121491
0.00261535
-0.000640945
0.00182979
-0.000141239
0.0010604
0.000196148
0.000456767
0.000377502
5.73322e-05
-0.000173149
-0.00137437
-0.000716273
-0.00279467
-0.00202591
-0.00282609
-0.00300303
-0.00203866
-0.00306606
-0.00154284
-0.0020408
-0.00177052
-0.000329217
-0.00251621
0.00140151
-0.00323881
0.00259645
-0.00348741
0.00306818
-0.00316281
0.00295112
-0.00244273
0.00244592
-0.00160389
0.00177651
-0.0009
0.0011259
-0.000419391
0.000579789
-0.000141943
0.00017932
-4.46396e-06
-8.01471e-05
-0.000231807
-0.00151861
0.000802339
-0.00346135
-8.31755e-05
-0.00417473
-0.00228964
-0.00370651
-0.00353428
-0.00270665
-0.00304066
-0.00154683
-0.00148904
-0.000355201
0.00020988
0.000764212
0.00147704
0.00160183
0.00223056
0.00203326
0.00251969
0.00201435
0.00246483
0.00165072
0.00214014
0.00116535
0.00161128
0.00073049
0.00101465
0.000427466
0.000482344
0.000259335
8.79838e-05
-0.000163091
0.000321164
0.000481175
0.000446794
-0.000208805
8.31179e-06
-0.00185116
-0.000493167
-0.0030328
-0.000361552
-0.00317228
0.000569844
-0.00242044
0.00194784
-0.00116812
0.00319947
0.000225411
0.0038991
0.00153094
0.00387629
0.0025425
0.00328506
0.00305606
0.002452
0.0029732
0.00165703
0.00240625
0.00105723
0.00161445
0.000686451
0.000853126
0.000502749
0.000271686
0.000439193
0.00200446
-0.00152329
0.00435047
-0.00255481
0.00491375
-0.00241444
0.00403425
-0.00215331
0.00279566
0.00178414
0.00111361
0.000634764
0.000222381
-9.26253e-05
-0.0002197
-0.000143002
6.28895e-05
0.000292112
0.000469499
0.000359443
0.00105164
0.00160496
)
;

boundaryField
{
    inlet
    {
        type            calculated;
        value           nonuniform 0();
    }
    outlet
    {
        type            calculated;
        value           nonuniform 0();
    }
    cylinder
    {
        type            calculated;
        value           uniform 0;
    }
    top
    {
        type            symmetryPlane;
        value           nonuniform 0();
    }
    bottom
    {
        type            symmetryPlane;
        value           nonuniform 0();
    }
    defaultFaces
    {
        type            empty;
        value           nonuniform 0();
    }
    procBoundary20to14
    {
        type            processor;
        value           nonuniform List<scalar> 2(-0.000556561 -0.000505926);
    }
    procBoundary20to25
    {
        type            processor;
        value           nonuniform List<scalar> 
20
(
-9.95355e-05
-0.000303855
-0.00193368
-0.00140891
-0.000497588
0.000704254
0.00194332
0.00285751
0.00318313
0.0028965
0.00220036
0.00138522
0.000675739
0.00057192
0.000169264
-0.00188273
-0.003247
-0.00296776
0.00167507
-0.00222342
)
;
    }
    procBoundary20to26
    {
        type            processor;
        value           nonuniform List<scalar> 
28
(
-0.000257738
0.000149767
-0.000249695
-2.89992e-05
-0.000287306
2.68871e-05
-0.000294822
0.000302876
-0.000254424
0.000277631
-0.000273575
5.6789e-05
2.0382e-05
-0.000269297
0.000438168
0.000325259
0.000241028
-0.000124602
-0.000229324
0.000228298
0.000720606
2.73379e-05
0.000545056
0.000452586
5.41944e-05
0.00019062
0.000308525
0.000434523
)
;
    }
    procBoundary20to27
    {
        type            processor;
        value           nonuniform List<scalar> 
29
(
-0.000387553
0.00188391
0.00351021
-0.00289249
0.00173448
0.00146025
0.00068782
-0.000283488
0.00348816
-0.00237424
-0.00306071
-0.00323786
-0.00287896
-0.00215706
-0.000767876
-0.00124907
-0.000542346
-0.000103
0.000121348
1.40747e-05
0.000153077
0.000190404
0.000200122
0.000204356
0.000211052
0.000195178
0.000220921
0.000251764
0.000241466
)
;
    }
}


// ************************************************************************* //
