/*--------------------------------*- C++ -*----------------------------------*\
  =========                 |
  \\      /  F ield         | OpenFOAM: The Open Source CFD Toolbox
   \\    /   O peration     | Website:  https://openfoam.org
    \\  /    A nd           | Version:  7
     \\/     M anipulation  |
\*---------------------------------------------------------------------------*/
FoamFile
{
    version     2.0;
    format      ascii;
    class       surfaceScalarField;
    location    "7.6";
    object      phi;
}
// * * * * * * * * * * * * * * * * * * * * * * * * * * * * * * * * * * * * * //

dimensions      [0 3 -1 0 0 0 0];

internalField   nonuniform List<scalar> 
615
(
0.000100782
6.9906e-06
0.00010111
6.87108e-06
0.000101433
6.75419e-06
0.000101752
6.63986e-06
0.000102067
6.52803e-06
0.000102377
6.41864e-06
0.000102684
6.31164e-06
0.000102986
6.20695e-06
0.000103285
6.10453e-06
0.00010358
6.00431e-06
0.000103871
5.90625e-06
0.000104158
5.81028e-06
0.000104441
5.71636e-06
0.000104721
5.62443e-06
0.000104998
5.53445e-06
0.00010527
5.44637e-06
0.00010554
5.36013e-06
0.000105806
5.27569e-06
0.000106068
5.19302e-06
0.000106327
5.11205e-06
0.000106583
5.03275e-06
0.000106836
4.95508e-06
0.000107086
4.879e-06
0.000107332
4.80447e-06
0.000107576
4.73144e-06
0.000107816
4.65989e-06
0.000108054
4.58977e-06
0.000108288
4.52105e-06
0.00010852
4.45369e-06
0.000108749
4.38766e-06
0.000108975
4.32293e-06
0.000109199
4.25946e-06
0.000109419
4.19723e-06
0.000109637
4.1362e-06
0.000109853
4.07634e-06
0.000110065
4.01763e-06
0.000110275
3.96003e-06
3.90352e-06
8.35292e-05
1.13703e-05
8.40736e-05
1.11515e-05
8.46098e-05
1.09372e-05
8.51379e-05
1.07275e-05
8.56579e-05
1.05221e-05
8.61702e-05
1.03211e-05
8.66747e-05
1.01245e-05
8.71716e-05
9.93207e-06
8.76611e-05
9.74385e-06
8.81433e-05
9.55976e-06
8.86184e-05
9.37972e-06
8.90863e-05
9.20366e-06
8.95473e-05
9.03152e-06
9.00015e-05
8.8632e-06
9.0449e-05
8.69865e-06
9.08899e-05
8.53778e-06
9.13244e-05
8.38052e-06
9.17525e-05
8.2268e-06
9.21744e-05
8.07652e-06
9.25902e-05
7.92963e-06
9.29999e-05
7.78605e-06
9.34037e-05
7.6457e-06
9.38017e-05
7.5085e-06
9.4194e-05
7.37439e-06
9.45806e-05
7.24329e-06
9.49618e-05
7.11513e-06
9.53375e-05
6.98985e-06
9.5708e-05
6.86737e-06
9.60732e-05
6.74762e-06
9.64332e-05
6.63055e-06
9.67882e-05
6.51607e-06
9.71382e-05
6.40414e-06
9.74834e-05
6.29469e-06
9.78238e-05
6.18766e-06
9.81595e-05
6.08298e-06
9.84905e-05
5.9806e-06
9.8817e-05
5.88046e-06
9.9139e-05
5.7825e-06
9.94566e-05
5.68668e-06
9.977e-05
5.59293e-06
0.000100079
5.50121e-06
0.000100384
5.41146e-06
0.000100685
5.32363e-06
0.000100981
5.23768e-06
0.000101274
5.15356e-06
0.000101563
5.07122e-06
0.000101848
4.99061e-06
0.00010213
4.9117e-06
0.000102407
4.83444e-06
0.000102681
4.75878e-06
0.000102952
4.6847e-06
0.000103218
4.61214e-06
0.000103482
4.54107e-06
0.000103742
4.47145e-06
0.000103998
4.40325e-06
0.000104252
4.33643e-06
0.000104502
4.27095e-06
0.000104749
4.20678e-06
0.000104993
4.14389e-06
0.000105233
4.08225e-06
0.000105471
4.02183e-06
0.000105706
3.96258e-06
0.000105937
3.9045e-06
0.000106166
3.84754e-06
0.000106392
3.79168e-06
0.000106615
3.73689e-06
3.68315e-06
7.80299e-05
1.07656e-05
7.86248e-05
1.05565e-05
7.92103e-05
1.03518e-05
7.97864e-05
1.01514e-05
8.03533e-05
9.95519e-06
8.09113e-05
9.76322e-06
8.14603e-05
9.5754e-06
8.20007e-05
9.39168e-06
8.25326e-05
9.21199e-06
8.30561e-05
9.03626e-06
8.35714e-05
8.86443e-06
8.40786e-05
8.69644e-06
8.45779e-05
8.5322e-06
8.50695e-05
8.37166e-06
8.55534e-05
8.21473e-06
8.60298e-05
8.06134e-06
8.64989e-05
7.91142e-06
8.69608e-05
7.7649e-06
8.74157e-05
7.6217e-06
8.78636e-05
7.48175e-06
8.83046e-05
7.34497e-06
8.8739e-05
7.2113e-06
8.91669e-05
7.08067e-06
8.95883e-05
6.95299e-06
9.00033e-05
6.82821e-06
9.04122e-05
6.70626e-06
9.0815e-05
6.58706e-06
9.12118e-05
6.47055e-06
9.16028e-05
6.35667e-06
9.1988e-05
6.24535e-06
9.23675e-05
6.13652e-06
9.27415e-05
6.03014e-06
9.31101e-05
5.92613e-06
9.34733e-05
5.82443e-06
9.38313e-05
5.725e-06
9.41841e-05
5.62777e-06
9.45319e-05
5.53269e-06
9.48747e-05
5.43969e-06
9.52126e-05
5.34874e-06
9.55458e-05
5.25978e-06
9.58742e-05
5.17276e-06
9.61981e-05
5.08762e-06
9.65174e-05
5.00433e-06
9.68323e-05
4.92283e-06
9.71427e-05
4.84307e-06
9.74489e-05
4.76502e-06
9.77509e-05
4.68864e-06
9.80487e-05
4.61387e-06
9.83425e-05
4.54067e-06
9.86323e-05
4.46902e-06
9.89181e-05
4.39886e-06
9.92001e-05
4.33016e-06
9.94783e-05
4.26289e-06
9.97527e-05
4.197e-06
0.000100024
4.13246e-06
0.000100291
4.06924e-06
0.000100554
4.0073e-06
0.000100815
3.94661e-06
0.000101071
3.88715e-06
0.000101325
3.82887e-06
0.000101575
3.77175e-06
0.000101822
3.71576e-06
0.000102065
3.66087e-06
0.000102306
3.60706e-06
0.000102543
3.5543e-06
0.000102777
3.50255e-06
3.4518e-06
7.25663e-05
1.01145e-05
7.32065e-05
9.91635e-06
7.3836e-05
9.7223e-06
7.4455e-05
9.53235e-06
7.50638e-05
9.34646e-06
7.56624e-05
9.16458e-06
7.62511e-05
8.98666e-06
7.68302e-05
8.81264e-06
7.73997e-05
8.64247e-06
7.79599e-05
8.47609e-06
7.85109e-05
8.31342e-06
7.90529e-05
8.15441e-06
7.95861e-05
7.99899e-06
8.01107e-05
7.84708e-06
8.06268e-05
7.69863e-06
8.11346e-05
7.55355e-06
8.16342e-05
7.41178e-06
8.21259e-05
7.27325e-06
8.26097e-05
7.13788e-06
8.30858e-05
7.00561e-06
8.35544e-05
6.87637e-06
8.40157e-05
6.75009e-06
8.44696e-05
6.62669e-06
8.49165e-05
6.50612e-06
8.53564e-05
6.3883e-06
8.57895e-05
6.27318e-06
8.62159e-05
6.16067e-06
8.66357e-05
6.05073e-06
8.70491e-05
5.94329e-06
8.74561e-05
5.83828e-06
8.7857e-05
5.73565e-06
8.82518e-05
5.63534e-06
8.86407e-05
5.53729e-06
8.90237e-05
5.44144e-06
8.94009e-05
5.34773e-06
8.97726e-05
5.25612e-06
9.01387e-05
5.16655e-06
9.04994e-05
5.07897e-06
9.08548e-05
4.99333e-06
9.1205e-05
4.90957e-06
9.15501e-05
4.82766e-06
9.18902e-05
4.74753e-06
9.22254e-05
4.66916e-06
9.25557e-05
4.59248e-06
9.28813e-05
4.51747e-06
9.32023e-05
4.44407e-06
9.35187e-05
4.37225e-06
9.38306e-05
4.30196e-06
9.41381e-05
4.23316e-06
9.44413e-05
4.16582e-06
9.47403e-05
4.0999e-06
9.50351e-05
4.03537e-06
9.53258e-05
3.97218e-06
9.56125e-05
3.9103e-06
9.58952e-05
3.8497e-06
9.61741e-05
3.79036e-06
9.64492e-05
3.73222e-06
9.67205e-05
3.67527e-06
9.69882e-05
3.61947e-06
9.72523e-05
3.5648e-06
9.75128e-05
3.51123e-06
9.77698e-05
3.45872e-06
9.80234e-05
3.40726e-06
9.82737e-05
3.35681e-06
9.85206e-05
3.30735e-06
9.87643e-05
3.25885e-06
3.2113e-06
6.71605e-05
9.42318e-06
6.78399e-05
9.23695e-06
6.85076e-05
9.05463e-06
6.91637e-05
8.87619e-06
6.98086e-05
8.70158e-06
7.04424e-05
8.53076e-06
7.10654e-05
8.36368e-06
7.16777e-05
8.2003e-06
7.22797e-05
8.04056e-06
7.28713e-05
7.88439e-06
7.3453e-05
7.73174e-06
7.40249e-05
7.58255e-06
7.45871e-05
7.43675e-06
7.51399e-05
7.29427e-06
7.56835e-05
7.15505e-06
7.6218e-05
7.01903e-06
7.67437e-05
6.88613e-06
7.72606e-05
6.75629e-06
7.77691e-05
6.62944e-06
7.82692e-05
6.50552e-06
7.87611e-05
6.38446e-06
7.9245e-05
6.26618e-06
7.9721e-05
6.15064e-06
8.01894e-05
6.03776e-06
8.06502e-05
5.92748e-06
8.11036e-05
5.81974e-06
8.15498e-05
5.71448e-06
8.19889e-05
5.61163e-06
8.24211e-05
5.51114e-06
8.28464e-05
5.41294e-06
8.32651e-05
5.31698e-06
8.36772e-05
5.22321e-06
8.40829e-05
5.13157e-06
8.44824e-05
5.04201e-06
8.48756e-05
4.95446e-06
8.52629e-05
4.86889e-06
8.56442e-05
4.78524e-06
8.60197e-05
4.70346e-06
8.63895e-05
8.67538e-05
8.71126e-05
8.7466e-05
8.78141e-05
8.81571e-05
8.84951e-05
8.88281e-05
8.91562e-05
8.94795e-05
8.97982e-05
9.01123e-05
9.04219e-05
9.0727e-05
9.10278e-05
9.13243e-05
9.16167e-05
9.1905e-05
9.21892e-05
9.24694e-05
9.27458e-05
9.30184e-05
9.32872e-05
9.35524e-05
9.38139e-05
9.40719e-05
9.43264e-05
9.45774e-05
6.18327e-05
6.25448e-05
6.32441e-05
6.39311e-05
6.46059e-05
6.52688e-05
6.592e-05
6.65598e-05
6.71884e-05
6.78059e-05
6.84127e-05
6.9009e-05
6.95949e-05
7.01708e-05
7.07367e-05
7.12929e-05
7.18396e-05
7.2377e-05
7.29053e-05
7.34247e-05
7.39353e-05
7.44374e-05
7.49311e-05
7.54166e-05
7.58941e-05
7.63637e-05
7.68256e-05
7.728e-05
7.77269e-05
7.81667e-05
7.85993e-05
7.9025e-05
7.94439e-05
7.98562e-05
8.02619e-05
8.06613e-05
8.10544e-05
)
;

boundaryField
{
    inlet
    {
        type            calculated;
        value           nonuniform 0();
    }
    outlet
    {
        type            calculated;
        value           nonuniform 0();
    }
    wall
    {
        type            calculated;
        value           nonuniform 0();
    }
    wedge1
    {
        type            wedge;
        value           nonuniform List<scalar> 
344
(
4.31923e-16
-1.09247e-15
3.72808e-16
1.79932e-15
-5.72737e-16
4.23655e-16
-1.07136e-15
3.65538e-16
1.76393e-15
-5.61375e-16
4.15557e-16
-1.05068e-15
3.5842e-16
1.72927e-15
-5.50252e-16
4.07626e-16
-1.03044e-15
3.5145e-16
1.69535e-15
-5.39367e-16
3.99862e-16
-1.01063e-15
3.44628e-16
1.66215e-15
-5.28716e-16
3.92264e-16
-9.91235e-16
3.37954e-16
1.62968e-15
-5.18297e-16
3.84827e-16
-9.72261e-16
3.31424e-16
1.59791e-15
-5.08107e-16
3.77551e-16
-9.53698e-16
3.25038e-16
1.56684e-15
-4.98142e-16
3.70432e-16
-9.35542e-16
3.18791e-16
1.53646e-15
-4.88401e-16
3.6347e-16
-9.17784e-16
3.12683e-16
1.50675e-15
-4.78877e-16
3.56659e-16
-9.00419e-16
3.06711e-16
1.47772e-15
-4.6957e-16
3.49999e-16
-8.83438e-16
3.00873e-16
1.44934e-15
-4.60471e-16
3.43485e-16
-8.66837e-16
2.95165e-16
1.42159e-15
-4.51583e-16
3.37117e-16
-8.50606e-16
2.89586e-16
1.39448e-15
-4.42897e-16
3.30889e-16
-8.3474e-16
2.84133e-16
1.36799e-15
-4.34411e-16
3.24801e-16
-8.1923e-16
2.78805e-16
1.3421e-15
-4.26118e-16
3.18848e-16
-8.0407e-16
2.73595e-16
1.31681e-15
-4.1802e-16
3.13028e-16
-7.89251e-16
2.68505e-16
1.29209e-15
-4.10107e-16
3.07338e-16
-7.74767e-16
2.6353e-16
1.26794e-15
-4.02377e-16
3.01777e-16
-7.60609e-16
2.58671e-16
1.24435e-15
-3.94825e-16
2.96339e-16
-7.46772e-16
2.5392e-16
1.22129e-15
-3.87449e-16
2.91023e-16
-7.33248e-16
2.49278e-16
1.19877e-15
-3.80244e-16
2.85825e-16
-7.20029e-16
2.44741e-16
1.17676e-15
-3.73206e-16
2.80746e-16
-7.07108e-16
2.40308e-16
1.15526e-15
-3.6633e-16
2.75778e-16
-6.9448e-16
2.35975e-16
1.13425e-15
-3.59614e-16
2.70923e-16
-6.82134e-16
2.31742e-16
1.11373e-15
-3.53051e-16
2.66175e-16
-6.70068e-16
2.27604e-16
1.09367e-15
-3.46641e-16
2.61534e-16
-6.58271e-16
2.23562e-16
1.07407e-15
-3.40377e-16
2.56994e-16
-6.46741e-16
2.19608e-16
1.05492e-15
-3.34259e-16
2.70598e-16
2.52555e-16
-6.35469e-16
2.15745e-16
1.03621e-15
-3.28281e-16
2.65994e-16
2.48216e-16
-6.24447e-16
2.11969e-16
1.01792e-15
-3.2244e-16
2.61491e-16
2.43971e-16
-6.13672e-16
2.08277e-16
1.00004e-15
-3.16732e-16
2.57085e-16
2.39821e-16
-6.03136e-16
2.04668e-16
9.82567e-16
-3.11154e-16
2.52776e-16
2.35761e-16
-5.92835e-16
2.0114e-16
9.65489e-16
-3.05703e-16
2.48561e-16
2.31792e-16
-5.8276e-16
1.97691e-16
9.48796e-16
-3.00375e-16
2.44437e-16
2.27908e-16
-5.72908e-16
1.94319e-16
9.32476e-16
-2.95168e-16
2.40402e-16
2.2411e-16
-5.63271e-16
1.91023e-16
9.16523e-16
-2.90076e-16
2.36453e-16
2.20393e-16
-5.53847e-16
1.87797e-16
9.00923e-16
-2.85101e-16
2.32589e-16
2.16757e-16
-5.44628e-16
1.84644e-16
8.85671e-16
2.28808e-16
2.13199e-16
-5.3561e-16
1.81559e-16
8.70755e-16
2.25108e-16
2.09719e-16
-5.26787e-16
1.78543e-16
8.5617e-16
2.21485e-16
2.06311e-16
-5.18156e-16
1.75591e-16
8.41903e-16
2.17939e-16
2.02978e-16
-5.0971e-16
1.72703e-16
8.2795e-16
2.14467e-16
1.99714e-16
-5.01446e-16
1.69878e-16
8.143e-16
2.1107e-16
1.96521e-16
-4.93356e-16
1.67115e-16
8.00948e-16
2.07742e-16
1.93393e-16
-4.85441e-16
1.6441e-16
7.87883e-16
2.04483e-16
1.90332e-16
-4.77692e-16
1.61763e-16
7.751e-16
2.01292e-16
1.87334e-16
-4.70108e-16
1.59172e-16
7.6259e-16
1.98167e-16
1.844e-16
-4.62681e-16
1.56636e-16
7.50349e-16
1.95106e-16
1.81525e-16
-4.55412e-16
1.54153e-16
7.38366e-16
1.92108e-16
1.78711e-16
-4.48291e-16
1.51723e-16
7.26639e-16
1.89171e-16
1.75954e-16
-4.4132e-16
1.49343e-16
7.15157e-16
1.86294e-16
1.73254e-16
-4.34491e-16
1.47015e-16
7.03918e-16
1.83473e-16
1.70608e-16
-4.27804e-16
1.44732e-16
6.92911e-16
1.80709e-16
1.68015e-16
-4.21253e-16
1.42496e-16
6.82132e-16
1.78e-16
1.65475e-16
-4.14834e-16
1.40307e-16
6.71578e-16
1.75346e-16
1.62986e-16
-4.08547e-16
1.38162e-16
6.61239e-16
1.72743e-16
1.60547e-16
-4.02384e-16
1.36061e-16
6.51113e-16
1.70192e-16
1.58155e-16
-3.96346e-16
1.34002e-16
6.41191e-16
1.67691e-16
1.55812e-16
-3.90427e-16
1.31986e-16
6.31472e-16
1.65239e-16
1.53513e-16
-3.84626e-16
1.30009e-16
6.21947e-16
1.62835e-16
1.51261e-16
-3.78937e-16
1.28073e-16
6.12616e-16
1.60475e-16
1.49052e-16
-3.73362e-16
1.26172e-16
6.03467e-16
1.58162e-16
1.46885e-16
-3.67895e-16
1.2431e-16
5.94501e-16
1.55892e-16
1.4476e-16
-3.62535e-16
1.22484e-16
5.8571e-16
1.53666e-16
1.42676e-16
-3.57276e-16
1.20695e-16
5.77094e-16
1.5148e-16
1.40631e-16
-3.5212e-16
1.18939e-16
5.68644e-16
)
;
    }
    wedge2
    {
        type            wedge;
        value           nonuniform List<scalar> 
344
(
4.31763e-16
-1.09262e-15
3.72662e-16
1.79918e-15
-5.72868e-16
4.23499e-16
-1.07151e-15
3.65394e-16
1.76379e-15
-5.61504e-16
4.15403e-16
-1.05083e-15
3.58277e-16
1.72914e-15
-5.5038e-16
4.07477e-16
-1.03059e-15
3.51312e-16
1.69522e-15
-5.39491e-16
3.99718e-16
-1.01077e-15
3.44494e-16
1.66203e-15
-5.28837e-16
3.92121e-16
-9.91373e-16
3.37822e-16
1.62955e-15
-5.18416e-16
3.84689e-16
-9.72395e-16
3.31296e-16
1.59779e-15
-5.08223e-16
3.77415e-16
-9.5383e-16
3.24911e-16
1.56672e-15
-4.98256e-16
3.70301e-16
-9.3567e-16
3.18668e-16
1.53634e-15
-4.88512e-16
3.6334e-16
-9.1791e-16
3.12562e-16
1.50664e-15
-4.78986e-16
3.56533e-16
-9.00541e-16
3.06593e-16
1.4776e-15
-4.69676e-16
3.49875e-16
-8.8356e-16
3.00755e-16
1.44922e-15
-4.60579e-16
3.43365e-16
-8.66954e-16
2.95051e-16
1.42149e-15
-4.51686e-16
3.36998e-16
-8.50722e-16
2.89475e-16
1.39438e-15
-4.42998e-16
3.30775e-16
-8.34852e-16
2.84025e-16
1.36789e-15
-4.34509e-16
3.24688e-16
-8.1934e-16
2.78697e-16
1.342e-15
-4.26217e-16
3.18739e-16
-8.04176e-16
2.73492e-16
1.31671e-15
-4.18114e-16
3.12922e-16
-7.89355e-16
2.68405e-16
1.29199e-15
-4.10199e-16
3.07236e-16
-7.74867e-16
2.63434e-16
1.26785e-15
-4.02466e-16
3.01676e-16
-7.60708e-16
2.58574e-16
1.24425e-15
-3.94915e-16
2.96242e-16
-7.46868e-16
2.53827e-16
1.2212e-15
-3.87535e-16
2.90929e-16
-7.33341e-16
2.49187e-16
1.19868e-15
-3.80327e-16
2.85736e-16
-7.20118e-16
2.44654e-16
1.17668e-15
-3.73286e-16
2.80657e-16
-7.07195e-16
2.40223e-16
1.15518e-15
-3.66408e-16
2.75694e-16
-6.94563e-16
2.35894e-16
1.13418e-15
-3.59688e-16
2.7084e-16
-6.82216e-16
2.31662e-16
1.11365e-15
-3.53125e-16
2.66095e-16
-6.70146e-16
2.27527e-16
1.0936e-15
-3.46713e-16
2.61455e-16
-6.5835e-16
2.23484e-16
1.074e-15
-3.40449e-16
2.56919e-16
-6.46815e-16
2.19535e-16
1.05485e-15
-3.34328e-16
2.70527e-16
2.52484e-16
-6.35539e-16
2.15675e-16
1.03614e-15
-3.28346e-16
2.65926e-16
2.48146e-16
-6.24516e-16
2.11901e-16
1.01785e-15
-3.22503e-16
2.61425e-16
2.43906e-16
-6.13738e-16
2.08212e-16
9.99976e-16
-3.16792e-16
2.57023e-16
2.39757e-16
-6.032e-16
2.04606e-16
9.82506e-16
-3.11213e-16
2.52717e-16
2.35701e-16
-5.92895e-16
2.0108e-16
9.65431e-16
-3.05759e-16
2.48504e-16
2.31732e-16
-5.82819e-16
1.97633e-16
9.48739e-16
-3.0043e-16
2.44381e-16
2.27852e-16
-5.72964e-16
1.94263e-16
9.32421e-16
-2.95221e-16
2.40348e-16
2.24054e-16
-5.63328e-16
1.90965e-16
9.16467e-16
-2.90131e-16
2.36402e-16
2.2034e-16
-5.53901e-16
1.87744e-16
9.0087e-16
-2.85153e-16
2.32541e-16
2.16706e-16
-5.44681e-16
1.84591e-16
8.85619e-16
2.28762e-16
2.13151e-16
-5.3566e-16
1.81509e-16
8.70706e-16
2.25062e-16
2.09671e-16
-5.26837e-16
1.78493e-16
8.5612e-16
2.21443e-16
2.06267e-16
-5.18202e-16
1.75544e-16
8.41857e-16
2.179e-16
2.02935e-16
-5.09754e-16
1.72659e-16
8.27905e-16
2.14431e-16
1.99675e-16
-5.01486e-16
1.69836e-16
8.14258e-16
2.11034e-16
1.96482e-16
-4.93398e-16
1.67073e-16
8.00905e-16
2.07709e-16
1.93358e-16
-4.85478e-16
1.64371e-16
7.87844e-16
2.04453e-16
1.90298e-16
-4.77728e-16
1.61726e-16
7.75062e-16
2.01265e-16
1.87304e-16
-4.7014e-16
1.59137e-16
7.62556e-16
1.98142e-16
1.84371e-16
-4.62713e-16
1.56603e-16
7.50316e-16
1.95083e-16
1.815e-16
-4.5544e-16
1.54123e-16
7.38336e-16
1.92087e-16
1.78686e-16
-4.48319e-16
1.51694e-16
7.26609e-16
1.89151e-16
1.75931e-16
-4.41345e-16
1.49317e-16
7.1513e-16
1.86274e-16
1.73232e-16
-4.34516e-16
1.46987e-16
7.0389e-16
1.83457e-16
1.70589e-16
-4.27826e-16
1.44708e-16
6.92886e-16
1.80696e-16
1.67999e-16
-4.21272e-16
1.42475e-16
6.82111e-16
1.7799e-16
1.6546e-16
-4.14852e-16
1.40288e-16
6.71557e-16
1.75337e-16
1.62974e-16
-4.08561e-16
1.38146e-16
6.61221e-16
1.72737e-16
1.60536e-16
-4.02398e-16
1.36046e-16
6.51096e-16
1.70188e-16
1.58147e-16
-3.96357e-16
1.33989e-16
6.41177e-16
1.67688e-16
1.55804e-16
-3.90438e-16
1.31973e-16
6.31458e-16
1.65237e-16
1.53508e-16
-3.84634e-16
1.29998e-16
6.21935e-16
1.62833e-16
1.51255e-16
-3.78947e-16
1.2806e-16
6.12601e-16
1.60476e-16
1.49048e-16
-3.73369e-16
1.26163e-16
6.03456e-16
1.58164e-16
1.46883e-16
-3.67901e-16
1.24302e-16
5.94491e-16
1.55896e-16
1.4476e-16
-3.62538e-16
1.22478e-16
5.85703e-16
1.5367e-16
1.42676e-16
-3.5728e-16
1.20688e-16
5.77085e-16
1.51488e-16
1.40633e-16
-3.52121e-16
1.18935e-16
5.68637e-16
)
;
    }
    axis
    {
        type            empty;
        value           nonuniform 0();
    }
    procBoundary28to22
    {
        type            processor;
        value           nonuniform List<scalar> 
68
(
-7.32254e-06
-7.19862e-06
-7.07739e-06
-6.9588e-06
-6.84278e-06
-6.72927e-06
-6.6182e-06
-6.50951e-06
-6.40316e-06
-6.29907e-06
-6.19719e-06
-6.09748e-06
-5.99987e-06
-5.90431e-06
-5.81075e-06
-5.71915e-06
-5.62945e-06
-5.54161e-06
-5.45557e-06
-5.3713e-06
-5.28875e-06
-5.20788e-06
-5.12865e-06
-5.05101e-06
-4.97493e-06
-4.90036e-06
-4.82728e-06
-4.75564e-06
-4.68541e-06
-4.61655e-06
-4.54903e-06
-4.48281e-06
-4.41787e-06
-4.35417e-06
-4.29169e-06
-4.23039e-06
-4.17024e-06
-4.11122e-06
-1.19231e-05
-1.1696e-05
-1.14734e-05
-1.12555e-05
-1.10422e-05
-1.08334e-05
-1.0629e-05
-1.0429e-05
-1.02334e-05
-1.0042e-05
-9.85473e-06
-9.67161e-06
-9.49253e-06
-9.3174e-06
-9.14616e-06
-8.97871e-06
-8.81499e-06
-8.65491e-06
-8.4984e-06
-8.34538e-06
-8.19577e-06
-8.0495e-06
-7.9065e-06
-7.76667e-06
-7.62996e-06
-7.49629e-06
-7.36559e-06
-7.23779e-06
-0.00010045
-7.11281e-06
)
;
    }
    procBoundary28to23
    {
        type            processor;
        value           uniform 0.000110483;
    }
    procBoundary28to27
    {
        type            processor;
        value           nonuniform List<scalar> 4(-8.29763e-05 -7.74252e-05 -7.19153e-05 -6.64691e-05);
    }
    procBoundary28to29
    {
        type            processor;
        value           nonuniform List<scalar> 4(0.000106835 0.000103009 9.90048e-05 9.48251e-05);
    }
    procBoundary28to33
    {
        type            processor;
        value           uniform -6.11078e-05;
    }
    procBoundary28to34
    {
        type            processor;
        value           nonuniform List<scalar> 
68
(
4.6235e-06
4.54532e-06
4.46888e-06
4.39411e-06
4.321e-06
4.24948e-06
4.17952e-06
4.11108e-06
4.04412e-06
3.97861e-06
3.91449e-06
3.85175e-06
3.79034e-06
3.73022e-06
3.67138e-06
3.61376e-06
3.55735e-06
3.5021e-06
3.448e-06
3.395e-06
3.34309e-06
3.29223e-06
3.2424e-06
3.19358e-06
3.14573e-06
3.09883e-06
3.05285e-06
3.00779e-06
2.9636e-06
8.69825e-06
8.52492e-06
8.35525e-06
8.18921e-06
8.02676e-06
7.86786e-06
7.71247e-06
7.56053e-06
7.412e-06
7.26682e-06
7.12494e-06
6.98629e-06
6.85081e-06
6.71845e-06
6.58914e-06
6.46282e-06
6.33942e-06
6.21888e-06
6.10114e-06
5.98614e-06
5.87382e-06
5.7641e-06
5.65693e-06
5.55226e-06
5.45001e-06
5.35013e-06
5.25257e-06
5.15727e-06
5.06416e-06
4.9732e-06
4.88433e-06
4.7975e-06
4.71266e-06
4.62975e-06
4.54873e-06
4.46955e-06
4.39216e-06
8.14413e-05
4.31651e-06
)
;
    }
}


// ************************************************************************* //
